MODEL 1
REMARK VINA RESULT:    -7.272      0.000      0.000
REMARK INTER + INTRA:         -13.808
REMARK INTER:                 -12.374
REMARK INTRA:                  -1.435
REMARK UNBOUND:                -1.435
REMARK SMILES C=C(C)[C@]12C[C@@H](C)[C@@]34O[C@](Cc5ccccc5)(O[C@@H]1[C@@H]3C=C(COC(=O)Cc1ccc(O)cc1)C[C@]1(O)C(=O)C(C)=C[C@@H]41)O2
REMARK SMILES IDX 23 1 22 2 21 3 20 4 9 5 8 6 10 7 6 8 18 10 44 11 19 12 5 13
REMARK SMILES IDX 7 14 4 15 11 16 12 17 13 18 17 19 14 20 16 21 15 22 2 23
REMARK SMILES IDX 3 24 1 25 35 26 36 27 43 28 38 29 42 30 39 32 40 33 41 34
REMARK SMILES IDX 37 35 24 37 25 38 26 39 27 40 28 41 29 42 34 43 30 44 33 45
REMARK SMILES IDX 31 46 32 47
REMARK H PARENT 37 36 32 48
REMARK Flexibility Score: 90.00
ROOT
ATOM      1  C   UNL     1      77.744  92.690  90.538  1.00  0.00     0.264 C 
ENDROOT
BRANCH   1   2
ATOM      2  C   UNL     1      78.134  91.303  90.084  1.00  0.00    -0.033 C 
ATOM      3  C   UNL     1      78.913  91.161  88.992  1.00  0.00    -0.015 C 
BRANCH   3   4
ATOM      4  C   UNL     1      79.376  89.891  88.295  1.00  0.00     0.078 C 
ATOM      5  O   UNL     1      81.577  89.303  89.258  1.00  0.00    -0.319 OA
ATOM      6  C   UNL     1      80.197  88.838  89.126  1.00  0.00     0.095 CG0
ATOM      7  C   UNL     1      82.154  89.863  88.062  1.00  0.00     0.289 C 
ATOM      8  C   UNL     1      80.179  87.473  88.322  1.00  0.00     0.023 C 
ATOM      9  G   UNL     1      79.674  88.759  90.590  1.00  0.00     0.000 G0
ATOM     10  O   UNL     1      81.382  90.958  87.579  1.00  0.00    -0.320 OA
ATOM     11  O   UNL     1      82.202  88.923  86.991  1.00  0.00    -0.313 OA
ATOM     12  C   UNL     1      80.241  90.253  87.063  1.00  0.00     0.170 C 
ATOM     13  C   UNL     1      80.161  87.716  86.782  1.00  0.00     0.049 C 
ATOM     14  C   UNL     1      81.306  86.486  88.670  1.00  0.00     0.011 C 
ATOM     15  C   UNL     1      80.886  89.009  86.405  1.00  0.00     0.122 C 
BRANCH   7  16
ATOM     16  C   UNL     1      83.559  90.329  88.387  1.00  0.00     0.135 C 
BRANCH  16  17
ATOM     17  C   UNL     1      84.353  90.644  87.144  1.00  0.00    -0.040 A 
ATOM     18  C   UNL     1      85.113  89.650  86.531  1.00  0.00     0.004 A 
ATOM     19  C   UNL     1      84.325  91.932  86.608  1.00  0.00     0.004 A 
ATOM     20  C   UNL     1      85.847  89.941  85.380  1.00  0.00     0.000 A 
ATOM     21  C   UNL     1      85.059  92.224  85.458  1.00  0.00     0.000 A 
ATOM     22  C   UNL     1      85.819  91.229  84.844  1.00  0.00     0.000 A 
ENDBRANCH  16  17
ENDBRANCH   7  16
BRANCH  15  23
ATOM     23  C   UNL     1      81.040  89.171  84.928  1.00  0.00    -0.046 C 
ATOM     24  C   UNL     1      80.520  88.047  84.081  1.00  0.00     0.042 C 
ATOM     25  C   UNL     1      81.610  90.259  84.389  1.00  0.00     0.010 C 
ENDBRANCH  15  23
ENDBRANCH   3   4
BRANCH   2  26
ATOM     26  C   UNL     1      77.572  90.207  90.970  1.00  0.00     0.078 C 
BRANCH  26  27
ATOM     27  C   UNL     1      78.101  88.791  90.749  1.00  0.00     0.140 C 
ATOM     28  C   UNL     1      79.634  88.760  90.583  1.00  0.00     0.086 CG0
ATOM     29  C   UNL     1      77.887  87.897  91.953  1.00  0.00     0.190 C 
ATOM     30  C   UNL     1      80.060  87.622  91.469  1.00  0.00    -0.010 C 
ATOM     31  G   UNL     1      80.167  88.831  89.122  1.00  0.00     0.000 G0
ATOM     32  O   UNL     1      76.836  87.772  92.563  1.00  0.00    -0.291 OA
ATOM     33  C   UNL     1      79.109  87.135  92.271  1.00  0.00    -0.008 C 
ATOM     34  C   UNL     1      79.186  86.090  93.313  1.00  0.00     0.048 C 
BRANCH  27  35
ATOM     35  O   UNL     1      77.399  88.131  89.709  1.00  0.00    -0.381 OA
ATOM     36  H   UNL     1      78.029  87.922  88.999  1.00  0.00     0.212 HD
ENDBRANCH  27  35
ENDBRANCH  26  27
ENDBRANCH   2  26
ENDBRANCH   1   2
BRANCH   1  37
ATOM     37  O   UNL     1      78.770  93.598  90.195  1.00  0.00    -0.461 OA
BRANCH  37  38
ATOM     38  C   UNL     1      79.535  94.071  91.236  1.00  0.00     0.310 C 
ATOM     39  O   UNL     1      79.814  93.441  92.246  1.00  0.00    -0.252 OA
BRANCH  38  40
ATOM     40  C   UNL     1      79.975  95.484  90.936  1.00  0.00     0.158 C 
BRANCH  40  41
ATOM     41  C   UNL     1      80.928  95.569  89.772  1.00  0.00    -0.037 A 
ATOM     42  C   UNL     1      81.978  94.657  89.662  1.00  0.00     0.008 A 
ATOM     43  C   UNL     1      80.762  96.560  88.805  1.00  0.00     0.008 A 
ATOM     44  C   UNL     1      82.861  94.735  88.585  1.00  0.00     0.046 A 
ATOM     45  C   UNL     1      81.645  96.639  87.727  1.00  0.00     0.046 A 
ATOM     46  C   UNL     1      82.694  95.727  87.618  1.00  0.00     0.115 A 
BRANCH  46  47
ATOM     47  O   UNL     1      83.556  95.804  86.567  1.00  0.00    -0.508 OA
ATOM     48  H   UNL     1      84.430  96.078  86.896  1.00  0.00     0.293 HD
ENDBRANCH  46  47
ENDBRANCH  40  41
ENDBRANCH  38  40
ENDBRANCH  37  38
ENDBRANCH   1  37
TORSDOF 10
ENDMDL
MODEL 2
REMARK VINA RESULT:    -6.591      1.539      2.290
REMARK INTER + INTRA:         -12.650
REMARK INTER:                 -11.080
REMARK INTRA:                  -1.570
REMARK UNBOUND:                -1.435
REMARK SMILES C=C(C)[C@]12C[C@@H](C)[C@@]34O[C@](Cc5ccccc5)(O[C@@H]1[C@@H]3C=C(COC(=O)Cc1ccc(O)cc1)C[C@]1(O)C(=O)C(C)=C[C@@H]41)O2
REMARK SMILES IDX 23 1 22 2 21 3 20 4 9 5 8 6 10 7 6 8 18 10 44 11 19 12 5 13
REMARK SMILES IDX 7 14 4 15 11 16 12 17 13 18 17 19 14 20 16 21 15 22 2 23
REMARK SMILES IDX 3 24 1 25 35 26 36 27 43 28 38 29 42 30 39 32 40 33 41 34
REMARK SMILES IDX 37 35 24 37 25 38 26 39 27 40 28 41 29 42 34 43 30 44 33 45
REMARK SMILES IDX 31 46 32 47
REMARK H PARENT 37 36 32 48
REMARK Flexibility Score: 90.00
ROOT
ATOM      1  C   UNL     1      77.768  92.529  90.177  1.00  0.00     0.264 C 
ENDROOT
BRANCH   1   2
ATOM      2  C   UNL     1      78.151  91.114  89.808  1.00  0.00    -0.033 C 
ATOM      3  C   UNL     1      78.962  90.906  88.750  1.00  0.00    -0.015 C 
BRANCH   3   4
ATOM      4  C   UNL     1      79.428  89.597  88.134  1.00  0.00     0.078 C 
ATOM      5  O   UNL     1      81.575  89.015  89.216  1.00  0.00    -0.319 OA
ATOM      6  C   UNL     1      80.192  88.570  89.048  1.00  0.00     0.095 CG0
ATOM      7  C   UNL     1      82.212  89.507  88.021  1.00  0.00     0.289 C 
ATOM      8  C   UNL     1      80.180  87.168  88.309  1.00  0.00     0.023 C 
ATOM      9  G   UNL     1      79.607  88.570  90.490  1.00  0.00     0.000 G0
ATOM     10  O   UNL     1      81.483  90.592  87.454  1.00  0.00    -0.320 OA
ATOM     11  O   UNL     1      82.286  88.516  86.999  1.00  0.00    -0.313 OA
ATOM     12  C   UNL     1      80.351  89.884  86.924  1.00  0.00     0.170 C 
ATOM     13  C   UNL     1      80.232  87.338  86.760  1.00  0.00     0.049 C 
ATOM     14  C   UNL     1      81.272  86.179  88.750  1.00  0.00     0.011 C 
ATOM     15  C   UNL     1      80.998  88.598  86.354  1.00  0.00     0.122 C 
BRANCH   7  16
ATOM     16  C   UNL     1      83.612  89.963  88.383  1.00  0.00     0.135 C 
BRANCH  16  17
ATOM     17  C   UNL     1      84.323  90.593  87.212  1.00  0.00    -0.040 A 
ATOM     18  C   UNL     1      84.111  91.938  86.909  1.00  0.00     0.004 A 
ATOM     19  C   UNL     1      85.192  89.831  86.433  1.00  0.00     0.004 A 
ATOM     20  C   UNL     1      84.769  92.521  85.825  1.00  0.00     0.000 A 
ATOM     21  C   UNL     1      85.851  90.414  85.350  1.00  0.00     0.000 A 
ATOM     22  C   UNL     1      85.639  91.758  85.046  1.00  0.00     0.000 A 
ENDBRANCH  16  17
ENDBRANCH   7  16
BRANCH  15  23
ATOM     23  C   UNL     1      81.216  88.686  84.878  1.00  0.00    -0.046 C 
ATOM     24  C   UNL     1      80.068  88.258  84.013  1.00  0.00     0.042 C 
ATOM     25  C   UNL     1      82.372  89.122  84.357  1.00  0.00     0.010 C 
ENDBRANCH  15  23
ENDBRANCH   3   4
BRANCH   2  26
ATOM     26  C   UNL     1      77.547  90.073  90.731  1.00  0.00     0.078 C 
BRANCH  26  27
ATOM     27  C   UNL     1      78.051  88.638  90.589  1.00  0.00     0.140 C 
ATOM     28  C   UNL     1      79.589  88.567  90.493  1.00  0.00     0.086 CG0
ATOM     29  C   UNL     1      77.764  87.799  91.816  1.00  0.00     0.190 C 
ATOM     30  C   UNL     1      79.949  87.457  91.441  1.00  0.00    -0.010 C 
ATOM     31  G   UNL     1      80.187  88.567  89.056  1.00  0.00     0.000 G0
ATOM     32  O   UNL     1      76.684  87.721  92.384  1.00  0.00    -0.291 OA
ATOM     33  C   UNL     1      78.952  87.023  92.218  1.00  0.00    -0.008 C 
ATOM     34  C   UNL     1      78.959  86.020  93.303  1.00  0.00     0.048 C 
BRANCH  27  35
ATOM     35  O   UNL     1      77.380  87.953  89.546  1.00  0.00    -0.381 OA
ATOM     36  H   UNL     1      77.631  88.360  88.700  1.00  0.00     0.212 HD
ENDBRANCH  27  35
ENDBRANCH  26  27
ENDBRANCH   2  26
ENDBRANCH   1   2
BRANCH   1  37
ATOM     37  O   UNL     1      78.401  92.882  91.389  1.00  0.00    -0.461 OA
BRANCH  37  38
ATOM     38  C   UNL     1      79.456  93.759  91.290  1.00  0.00     0.310 C 
ATOM     39  O   UNL     1      79.578  94.788  91.940  1.00  0.00    -0.252 OA
BRANCH  38  40
ATOM     40  C   UNL     1      80.435  93.255  90.257  1.00  0.00     0.158 C 
BRANCH  40  41
ATOM     41  C   UNL     1      81.731  92.777  90.860  1.00  0.00    -0.037 A 
ATOM     42  C   UNL     1      82.844  93.617  90.878  1.00  0.00     0.008 A 
ATOM     43  C   UNL     1      81.818  91.494  91.400  1.00  0.00     0.008 A 
ATOM     44  C   UNL     1      84.044  93.174  91.435  1.00  0.00     0.046 A 
ATOM     45  C   UNL     1      83.017  91.051  91.959  1.00  0.00     0.046 A 
ATOM     46  C   UNL     1      84.130  91.891  91.975  1.00  0.00     0.115 A 
BRANCH  46  47
ATOM     47  O   UNL     1      85.301  91.459  92.519  1.00  0.00    -0.508 OA
ATOM     48  H   UNL     1      85.381  90.500  92.375  1.00  0.00     0.293 HD
ENDBRANCH  46  47
ENDBRANCH  40  41
ENDBRANCH  38  40
ENDBRANCH  37  38
ENDBRANCH   1  37
TORSDOF 10
ENDMDL
MODEL 3
REMARK VINA RESULT:    -6.535     22.560     26.104
REMARK INTER + INTRA:         -12.554
REMARK INTER:                 -10.154
REMARK INTRA:                  -2.399
REMARK UNBOUND:                -1.435
REMARK SMILES C=C(C)[C@]12C[C@@H](C)[C@@]34O[C@](Cc5ccccc5)(O[C@@H]1[C@@H]3C=C(COC(=O)Cc1ccc(O)cc1)C[C@]1(O)C(=O)C(C)=C[C@@H]41)O2
REMARK SMILES IDX 23 1 22 2 21 3 20 4 9 5 8 6 10 7 6 8 18 10 44 11 19 12 5 13
REMARK SMILES IDX 7 14 4 15 11 16 12 17 13 18 17 19 14 20 16 21 15 22 2 23
REMARK SMILES IDX 3 24 1 25 35 26 36 27 43 28 38 29 42 30 39 32 40 33 41 34
REMARK SMILES IDX 37 35 24 37 25 38 26 39 27 40 28 41 29 42 34 43 30 44 33 45
REMARK SMILES IDX 31 46 32 47
REMARK H PARENT 37 36 32 48
REMARK Flexibility Score: 90.00
ROOT
ATOM      1  C   UNL     1      61.869  81.330  72.921  1.00  0.00     0.264 C 
ENDROOT
BRANCH   1   2
ATOM      2  C   UNL     1      61.663  82.471  71.951  1.00  0.00    -0.033 C 
ATOM      3  C   UNL     1      61.026  83.584  72.369  1.00  0.00    -0.015 C 
BRANCH   3   4
ATOM      4  C   UNL     1      60.631  84.823  71.581  1.00  0.00     0.078 C 
ATOM      5  O   UNL     1      62.469  86.458  71.841  1.00  0.00    -0.319 OA
ATOM      6  C   UNL     1      61.762  85.641  70.856  1.00  0.00     0.095 CG0
ATOM      7  C   UNL     1      61.629  87.119  72.807  1.00  0.00     0.289 C 
ATOM      8  C   UNL     1      61.064  86.588  69.794  1.00  0.00     0.023 C 
ATOM      9  G   UNL     1      62.855  84.689  70.287  1.00  0.00     0.000 G0
ATOM     10  O   UNL     1      60.832  86.183  73.526  1.00  0.00    -0.320 OA
ATOM     11  O   UNL     1      60.709  88.022  72.199  1.00  0.00    -0.313 OA
ATOM     12  C   UNL     1      59.889  85.820  72.505  1.00  0.00     0.170 C 
ATOM     13  C   UNL     1      59.664  87.065  70.287  1.00  0.00     0.049 C 
ATOM     14  C   UNL     1      61.891  87.806  69.350  1.00  0.00     0.011 C 
ATOM     15  C   UNL     1      59.608  87.175  71.812  1.00  0.00     0.122 C 
BRANCH   7  16
ATOM     16  C   UNL     1      62.521  87.879  73.769  1.00  0.00     0.135 C 
BRANCH  16  17
ATOM     17  C   UNL     1      61.902  88.000  75.139  1.00  0.00    -0.040 A 
ATOM     18  C   UNL     1      60.886  88.927  75.366  1.00  0.00     0.004 A 
ATOM     19  C   UNL     1      62.348  87.184  76.179  1.00  0.00     0.004 A 
ATOM     20  C   UNL     1      60.313  89.039  76.634  1.00  0.00     0.000 A 
ATOM     21  C   UNL     1      61.776  87.296  77.447  1.00  0.00     0.000 A 
ATOM     22  C   UNL     1      60.759  88.223  77.674  1.00  0.00     0.000 A 
ENDBRANCH  16  17
ENDBRANCH   7  16
BRANCH  15  23
ATOM     23  C   UNL     1      58.341  87.801  72.295  1.00  0.00    -0.046 C 
ATOM     24  C   UNL     1      58.119  89.233  71.906  1.00  0.00     0.042 C 
ATOM     25  C   UNL     1      57.452  87.123  73.036  1.00  0.00     0.010 C 
ENDBRANCH  15  23
ENDBRANCH   3   4
BRANCH   2  26
ATOM     26  C   UNL     1      62.237  82.193  70.575  1.00  0.00     0.078 C 
BRANCH  26  27
ATOM     27  C   UNL     1      62.320  83.369  69.603  1.00  0.00     0.140 C 
ATOM     28  C   UNL     1      62.847  84.651  70.280  1.00  0.00     0.086 CG0
ATOM     29  C   UNL     1      63.335  83.142  68.502  1.00  0.00     0.190 C 
ATOM     30  C   UNL     1      63.867  85.168  69.304  1.00  0.00    -0.010 C 
ATOM     31  G   UNL     1      61.769  85.621  70.844  1.00  0.00     0.000 G0
ATOM     32  O   UNL     1      63.423  82.133  67.818  1.00  0.00    -0.291 OA
ATOM     33  C   UNL     1      64.183  84.333  68.311  1.00  0.00    -0.008 C 
ATOM     34  C   UNL     1      65.187  84.471  67.235  1.00  0.00     0.048 C 
BRANCH  27  35
ATOM     35  O   UNL     1      61.099  83.551  68.905  1.00  0.00    -0.381 OA
ATOM     36  H   UNL     1      60.933  84.505  68.822  1.00  0.00     0.212 HD
ENDBRANCH  27  35
ENDBRANCH  26  27
ENDBRANCH   2  26
ENDBRANCH   1   2
BRANCH   1  37
ATOM     37  O   UNL     1      62.003  81.847  74.227  1.00  0.00    -0.461 OA
BRANCH  37  38
ATOM     38  C   UNL     1      63.220  81.648  74.838  1.00  0.00     0.310 C 
ATOM     39  O   UNL     1      64.026  80.780  74.531  1.00  0.00    -0.252 OA
BRANCH  38  40
ATOM     40  C   UNL     1      63.403  82.663  75.940  1.00  0.00     0.158 C 
BRANCH  40  41
ATOM     41  C   UNL     1      64.195  83.868  75.504  1.00  0.00    -0.037 A 
ATOM     42  C   UNL     1      64.336  84.156  74.146  1.00  0.00     0.008 A 
ATOM     43  C   UNL     1      64.788  84.696  76.456  1.00  0.00     0.008 A 
ATOM     44  C   UNL     1      65.070  85.271  73.742  1.00  0.00     0.046 A 
ATOM     45  C   UNL     1      65.522  85.812  76.053  1.00  0.00     0.046 A 
ATOM     46  C   UNL     1      65.663  86.099  74.696  1.00  0.00     0.115 A 
BRANCH  46  47
ATOM     47  O   UNL     1      66.379  87.187  74.301  1.00  0.00    -0.508 OA
ATOM     48  H   UNL     1      65.880  87.661  73.613  1.00  0.00     0.293 HD
ENDBRANCH  46  47
ENDBRANCH  40  41
ENDBRANCH  38  40
ENDBRANCH  37  38
ENDBRANCH   1  37
TORSDOF 10
ENDMDL
MODEL 4
REMARK VINA RESULT:    -6.373     12.938     16.325
REMARK INTER + INTRA:         -12.279
REMARK INTER:                 -11.792
REMARK INTRA:                  -0.487
REMARK UNBOUND:                -1.435
REMARK SMILES C=C(C)[C@]12C[C@@H](C)[C@@]34O[C@](Cc5ccccc5)(O[C@@H]1[C@@H]3C=C(COC(=O)Cc1ccc(O)cc1)C[C@]1(O)C(=O)C(C)=C[C@@H]41)O2
REMARK SMILES IDX 23 1 22 2 21 3 20 4 9 5 8 6 10 7 6 8 18 10 44 11 19 12 5 13
REMARK SMILES IDX 7 14 4 15 11 16 12 17 13 18 17 19 14 20 16 21 15 22 2 23
REMARK SMILES IDX 3 24 1 25 35 26 36 27 43 28 38 29 42 30 39 32 40 33 41 34
REMARK SMILES IDX 37 35 24 37 25 38 26 39 27 40 28 41 29 42 34 43 30 44 33 45
REMARK SMILES IDX 31 46 32 47
REMARK H PARENT 37 36 32 48
REMARK Flexibility Score: 90.00
ROOT
ATOM      1  C   UNL     1      94.789  86.979  87.563  1.00  0.00     0.264 C 
ENDROOT
BRANCH   1   2
ATOM      2  C   UNL     1      94.515  85.609  86.988  1.00  0.00    -0.033 C 
ATOM      3  C   UNL     1      95.522  84.922  86.410  1.00  0.00    -0.015 C 
BRANCH   3   4
ATOM      4  C   UNL     1      95.492  83.578  85.700  1.00  0.00     0.078 C 
ATOM      5  O   UNL     1      96.016  81.856  87.395  1.00  0.00    -0.319 OA
ATOM      6  C   UNL     1      94.967  82.325  86.492  1.00  0.00     0.095 CG0
ATOM      7  C   UNL     1      97.344  81.832  86.836  1.00  0.00     0.289 C 
ATOM      8  C   UNL     1      94.641  81.191  85.435  1.00  0.00     0.023 C 
ATOM      9  G   UNL     1      93.792  82.718  87.435  1.00  0.00     0.000 G0
ATOM     10  O   UNL     1      97.732  83.120  86.368  1.00  0.00    -0.320 OA
ATOM     11  O   UNL     1      97.441  80.966  85.707  1.00  0.00    -0.313 OA
ATOM     12  C   UNL     1      96.911  83.219  85.194  1.00  0.00     0.170 C 
ATOM     13  C   UNL     1      95.610  81.251  84.215  1.00  0.00     0.049 C 
ATOM     14  C   UNL     1      94.610  79.757  85.991  1.00  0.00     0.011 C 
ATOM     15  C   UNL     1      96.986  81.787  84.611  1.00  0.00     0.122 C 
BRANCH   7  16
ATOM     16  C   UNL     1      98.304  81.366  87.913  1.00  0.00     0.135 C 
BRANCH  16  17
ATOM     17  C   UNL     1      99.726  81.302  87.414  1.00  0.00    -0.040 A 
ATOM     18  C   UNL     1     100.246  80.099  86.939  1.00  0.00     0.004 A 
ATOM     19  C   UNL     1     100.521  82.449  87.428  1.00  0.00     0.004 A 
ATOM     20  C   UNL     1     101.562  80.040  86.478  1.00  0.00     0.000 A 
ATOM     21  C   UNL     1     101.836  82.390  86.966  1.00  0.00     0.000 A 
ATOM     22  C   UNL     1     102.356  81.187  86.492  1.00  0.00     0.000 A 
ENDBRANCH  16  17
ENDBRANCH   7  16
BRANCH  15  23
ATOM     23  C   UNL     1      97.983  81.684  83.502  1.00  0.00    -0.046 C 
ATOM     24  C   UNL     1      97.443  81.836  82.111  1.00  0.00     0.042 C 
ATOM     25  C   UNL     1      99.285  81.467  83.737  1.00  0.00     0.010 C 
ENDBRANCH  15  23
ENDBRANCH   3   4
BRANCH   2  26
ATOM     26  C   UNL     1      93.072  85.171  87.156  1.00  0.00     0.078 C 
BRANCH  26  27
ATOM     27  C   UNL     1      92.740  83.719  86.817  1.00  0.00     0.140 C 
ATOM     28  C   UNL     1      93.753  82.730  87.430  1.00  0.00     0.086 CG0
ATOM     29  C   UNL     1      91.432  83.265  87.430  1.00  0.00     0.190 C 
ATOM     30  C   UNL     1      92.881  81.661  88.027  1.00  0.00    -0.010 C 
ATOM     31  G   UNL     1      94.948  82.321  86.521  1.00  0.00     0.000 G0
ATOM     32  O   UNL     1      90.374  83.874  87.372  1.00  0.00    -0.291 OA
ATOM     33  C   UNL     1      91.576  81.943  88.068  1.00  0.00    -0.008 C 
ATOM     34  C   UNL     1      90.454  81.176  88.649  1.00  0.00     0.048 C 
BRANCH  27  35
ATOM     35  O   UNL     1      92.539  83.544  85.425  1.00  0.00    -0.381 OA
ATOM     36  H   UNL     1      93.162  82.867  85.108  1.00  0.00     0.212 HD
ENDBRANCH  27  35
ENDBRANCH  26  27
ENDBRANCH   2  26
ENDBRANCH   1   2
BRANCH   1  37
ATOM     37  O   UNL     1      93.770  87.313  88.480  1.00  0.00    -0.461 OA
BRANCH  37  38
ATOM     38  C   UNL     1      94.160  87.475  89.790  1.00  0.00     0.310 C 
ATOM     39  O   UNL     1      93.946  86.676  90.690  1.00  0.00    -0.252 OA
BRANCH  38  40
ATOM     40  C   UNL     1      94.890  88.788  89.939  1.00  0.00     0.158 C 
BRANCH  40  41
ATOM     41  C   UNL     1      93.973  89.982  89.870  1.00  0.00    -0.037 A 
ATOM     42  C   UNL     1      94.494  91.247  89.597  1.00  0.00     0.008 A 
ATOM     43  C   UNL     1      92.604  89.823  90.079  1.00  0.00     0.008 A 
ATOM     44  C   UNL     1      93.645  92.352  89.534  1.00  0.00     0.046 A 
ATOM     45  C   UNL     1      91.754  90.927  90.016  1.00  0.00     0.046 A 
ATOM     46  C   UNL     1      92.275  92.192  89.744  1.00  0.00     0.115 A 
BRANCH  46  47
ATOM     47  O   UNL     1      91.447  93.270  89.683  1.00  0.00    -0.508 OA
ATOM     48  H   UNL     1      91.809  93.911  89.046  1.00  0.00     0.293 HD
ENDBRANCH  46  47
ENDBRANCH  40  41
ENDBRANCH  38  40
ENDBRANCH  37  38
ENDBRANCH   1  37
TORSDOF 10
ENDMDL
MODEL 5
REMARK VINA RESULT:    -6.342     22.204     25.809
REMARK INTER + INTRA:         -12.226
REMARK INTER:                 -10.716
REMARK INTRA:                  -1.510
REMARK UNBOUND:                -1.435
REMARK SMILES C=C(C)[C@]12C[C@@H](C)[C@@]34O[C@](Cc5ccccc5)(O[C@@H]1[C@@H]3C=C(COC(=O)Cc1ccc(O)cc1)C[C@]1(O)C(=O)C(C)=C[C@@H]41)O2
REMARK SMILES IDX 23 1 22 2 21 3 20 4 9 5 8 6 10 7 6 8 18 10 44 11 19 12 5 13
REMARK SMILES IDX 7 14 4 15 11 16 12 17 13 18 17 19 14 20 16 21 15 22 2 23
REMARK SMILES IDX 3 24 1 25 35 26 36 27 43 28 38 29 42 30 39 32 40 33 41 34
REMARK SMILES IDX 37 35 24 37 25 38 26 39 27 40 28 41 29 42 34 43 30 44 33 45
REMARK SMILES IDX 31 46 32 47
REMARK H PARENT 37 36 32 48
REMARK Flexibility Score: 90.00
ROOT
ATOM      1  C   UNL     1      66.181  86.675  70.521  1.00  0.00     0.264 C 
ENDROOT
BRANCH   1   2
ATOM      2  C   UNL     1      65.180  86.837  71.641  1.00  0.00    -0.033 C 
ATOM      3  C   UNL     1      63.865  86.702  71.375  1.00  0.00    -0.015 C 
BRANCH   3   4
ATOM      4  C   UNL     1      62.669  86.888  72.295  1.00  0.00     0.078 C 
ATOM      5  O   UNL     1      62.152  84.672  73.263  1.00  0.00    -0.319 OA
ATOM      6  C   UNL     1      62.592  86.023  73.607  1.00  0.00     0.095 CG0
ATOM      7  C   UNL     1      61.078  84.599  72.306  1.00  0.00     0.289 C 
ATOM      8  C   UNL     1      61.522  86.695  74.562  1.00  0.00     0.023 C 
ATOM      9  G   UNL     1      64.008  85.825  74.223  1.00  0.00     0.000 G0
ATOM     10  O   UNL     1      61.424  85.255  71.089  1.00  0.00    -0.320 OA
ATOM     11  O   UNL     1      59.895  85.246  72.769  1.00  0.00    -0.313 OA
ATOM     12  C   UNL     1      61.358  86.625  71.515  1.00  0.00     0.170 C 
ATOM     13  C   UNL     1      60.369  87.360  73.751  1.00  0.00     0.049 C 
ATOM     14  C   UNL     1      60.923  85.771  75.637  1.00  0.00     0.011 C 
ATOM     15  C   UNL     1      60.111  86.632  72.432  1.00  0.00     0.122 C 
BRANCH   7  16
ATOM     16  C   UNL     1      60.782  83.138  72.035  1.00  0.00     0.135 C 
BRANCH  16  17
ATOM     17  C   UNL     1      61.882  82.235  72.534  1.00  0.00    -0.040 A 
ATOM     18  C   UNL     1      62.949  81.907  71.698  1.00  0.00     0.004 A 
ATOM     19  C   UNL     1      61.831  81.728  73.832  1.00  0.00     0.004 A 
ATOM     20  C   UNL     1      63.967  81.072  72.161  1.00  0.00     0.000 A 
ATOM     21  C   UNL     1      62.849  80.893  74.295  1.00  0.00     0.000 A 
ATOM     22  C   UNL     1      63.916  80.565  73.459  1.00  0.00     0.000 A 
ENDBRANCH  16  17
ENDBRANCH   7  16
BRANCH  15  23
ATOM     23  C   UNL     1      58.896  87.138  71.724  1.00  0.00    -0.046 C 
ATOM     24  C   UNL     1      59.120  87.723  70.361  1.00  0.00     0.042 C 
ATOM     25  C   UNL     1      57.675  87.073  72.276  1.00  0.00     0.010 C 
ENDBRANCH  15  23
ENDBRANCH   3   4
BRANCH   2  26
ATOM     26  C   UNL     1      65.828  87.136  72.980  1.00  0.00     0.078 C 
BRANCH  26  27
ATOM     27  C   UNL     1      64.932  87.085  74.216  1.00  0.00     0.140 C 
ATOM     28  C   UNL     1      64.018  85.842  74.224  1.00  0.00     0.086 CG0
ATOM     29  C   UNL     1      65.721  86.917  75.498  1.00  0.00     0.190 C 
ATOM     30  C   UNL     1      64.152  85.319  75.627  1.00  0.00    -0.010 C 
ATOM     31  G   UNL     1      62.600  86.031  73.611  1.00  0.00     0.000 G0
ATOM     32  O   UNL     1      66.699  87.575  75.818  1.00  0.00    -0.291 OA
ATOM     33  C   UNL     1      65.118  85.882  76.358  1.00  0.00    -0.008 C 
ATOM     34  C   UNL     1      65.582  85.567  77.725  1.00  0.00     0.048 C 
BRANCH  27  35
ATOM     35  O   UNL     1      64.239  88.307  74.404  1.00  0.00    -0.381 OA
ATOM     36  H   UNL     1      63.391  88.115  74.839  1.00  0.00     0.212 HD
ENDBRANCH  27  35
ENDBRANCH  26  27
ENDBRANCH   2  26
ENDBRANCH   1   2
BRANCH   1  37
ATOM     37  O   UNL     1      65.791  87.479  69.428  1.00  0.00    -0.461 OA
BRANCH  37  38
ATOM     38  C   UNL     1      65.887  86.900  68.183  1.00  0.00     0.310 C 
ATOM     39  O   UNL     1      65.964  87.513  67.128  1.00  0.00    -0.252 OA
BRANCH  38  40
ATOM     40  C   UNL     1      65.882  85.397  68.325  1.00  0.00     0.158 C 
BRANCH  40  41
ATOM     41  C   UNL     1      64.532  84.786  68.054  1.00  0.00    -0.037 A 
ATOM     42  C   UNL     1      63.393  85.591  68.032  1.00  0.00     0.008 A 
ATOM     43  C   UNL     1      64.420  83.415  67.827  1.00  0.00     0.008 A 
ATOM     44  C   UNL     1      62.143  85.025  67.782  1.00  0.00     0.046 A 
ATOM     45  C   UNL     1      63.170  82.848  67.577  1.00  0.00     0.046 A 
ATOM     46  C   UNL     1      62.031  83.653  67.555  1.00  0.00     0.115 A 
BRANCH  46  47
ATOM     47  O   UNL     1      60.811  83.101  67.312  1.00  0.00    -0.508 OA
ATOM     48  H   UNL     1      60.349  83.638  66.646  1.00  0.00     0.293 HD
ENDBRANCH  46  47
ENDBRANCH  40  41
ENDBRANCH  38  40
ENDBRANCH  37  38
ENDBRANCH   1  37
TORSDOF 10
ENDMDL
MODEL 6
REMARK VINA RESULT:    -6.311     22.220     25.841
REMARK INTER + INTRA:         -12.173
REMARK INTER:                 -10.157
REMARK INTRA:                  -2.016
REMARK UNBOUND:                -1.435
REMARK SMILES C=C(C)[C@]12C[C@@H](C)[C@@]34O[C@](Cc5ccccc5)(O[C@@H]1[C@@H]3C=C(COC(=O)Cc1ccc(O)cc1)C[C@]1(O)C(=O)C(C)=C[C@@H]41)O2
REMARK SMILES IDX 23 1 22 2 21 3 20 4 9 5 8 6 10 7 6 8 18 10 44 11 19 12 5 13
REMARK SMILES IDX 7 14 4 15 11 16 12 17 13 18 17 19 14 20 16 21 15 22 2 23
REMARK SMILES IDX 3 24 1 25 35 26 36 27 43 28 38 29 42 30 39 32 40 33 41 34
REMARK SMILES IDX 37 35 24 37 25 38 26 39 27 40 28 41 29 42 34 43 30 44 33 45
REMARK SMILES IDX 31 46 32 47
REMARK H PARENT 37 36 32 48
REMARK Flexibility Score: 90.00
ROOT
ATOM      1  C   UNL     1      63.487  81.777  71.983  1.00  0.00     0.264 C 
ENDROOT
BRANCH   1   2
ATOM      2  C   UNL     1      62.682  82.921  71.412  1.00  0.00    -0.033 C 
ATOM      3  C   UNL     1      62.389  83.978  72.198  1.00  0.00    -0.015 C 
BRANCH   3   4
ATOM      4  C   UNL     1      61.542  85.203  71.893  1.00  0.00     0.078 C 
ATOM      5  O   UNL     1      63.075  86.941  71.029  1.00  0.00    -0.319 OA
ATOM      6  C   UNL     1      61.938  86.098  70.662  1.00  0.00     0.095 CG0
ATOM      7  C   UNL     1      63.002  87.535  72.339  1.00  0.00     0.289 C 
ATOM      8  C   UNL     1      60.694  87.018  70.318  1.00  0.00     0.023 C 
ATOM      9  G   UNL     1      62.467  85.223  69.488  1.00  0.00     0.000 G0
ATOM     10  O   UNL     1      62.866  86.542  73.351  1.00  0.00    -0.320 OA
ATOM     11  O   UNL     1      61.871  88.391  72.484  1.00  0.00    -0.313 OA
ATOM     12  C   UNL     1      61.506  86.138  73.126  1.00  0.00     0.170 C 
ATOM     13  C   UNL     1      59.895  87.403  71.600  1.00  0.00     0.049 C 
ATOM     14  C   UNL     1      61.015  88.291  69.516  1.00  0.00     0.011 C 
ATOM     15  C   UNL     1      60.802  87.485  72.829  1.00  0.00     0.122 C 
BRANCH   7  16
ATOM     16  C   UNL     1      64.271  88.332  72.569  1.00  0.00     0.135 C 
BRANCH  16  17
ATOM     17  C   UNL     1      65.236  87.611  73.476  1.00  0.00    -0.040 A 
ATOM     18  C   UNL     1      65.500  88.109  74.752  1.00  0.00     0.004 A 
ATOM     19  C   UNL     1      65.865  86.446  73.038  1.00  0.00     0.004 A 
ATOM     20  C   UNL     1      66.393  87.441  75.591  1.00  0.00     0.000 A 
ATOM     21  C   UNL     1      66.758  85.778  73.877  1.00  0.00     0.000 A 
ATOM     22  C   UNL     1      67.021  86.275  75.152  1.00  0.00     0.000 A 
ENDBRANCH  16  17
ENDBRANCH   7  16
BRANCH  15  23
ATOM     23  C   UNL     1      60.096  88.026  74.029  1.00  0.00    -0.046 C 
ATOM     24  C   UNL     1      60.457  89.425  74.434  1.00  0.00     0.042 C 
ATOM     25  C   UNL     1      59.190  87.304  74.705  1.00  0.00     0.010 C 
ENDBRANCH  15  23
ENDBRANCH   3   4
BRANCH   2  26
ATOM     26  C   UNL     1      62.302  82.716  69.958  1.00  0.00     0.078 C 
BRANCH  26  27
ATOM     27  C   UNL     1      61.694  83.907  69.220  1.00  0.00     0.140 C 
ATOM     28  C   UNL     1      62.466  85.215  69.488  1.00  0.00     0.086 CG0
ATOM     29  C   UNL     1      61.796  83.771  67.715  1.00  0.00     0.190 C 
ATOM     30  C   UNL     1      62.614  85.821  68.119  1.00  0.00    -0.010 C 
ATOM     31  G   UNL     1      61.939  86.095  70.659  1.00  0.00     0.000 G0
ATOM     32  O   UNL     1      61.484  82.781  67.071  1.00  0.00    -0.291 OA
ATOM     33  C   UNL     1      62.273  85.025  67.102  1.00  0.00    -0.008 C 
ATOM     34  C   UNL     1      62.364  85.252  65.644  1.00  0.00     0.048 C 
BRANCH  27  35
ATOM     35  O   UNL     1      60.299  84.006  69.456  1.00  0.00    -0.381 OA
ATOM     36  H   UNL     1      60.144  83.921  70.412  1.00  0.00     0.212 HD
ENDBRANCH  27  35
ENDBRANCH  26  27
ENDBRANCH   2  26
ENDBRANCH   1   2
BRANCH   1  37
ATOM     37  O   UNL     1      63.926  82.117  73.281  1.00  0.00    -0.461 OA
BRANCH  37  38
ATOM     38  C   UNL     1      64.553  81.119  73.991  1.00  0.00     0.310 C 
ATOM     39  O   UNL     1      65.248  80.240  73.503  1.00  0.00    -0.252 OA
BRANCH  38  40
ATOM     40  C   UNL     1      64.248  81.280  75.461  1.00  0.00     0.158 C 
BRANCH  40  41
ATOM     41  C   UNL     1      63.618  82.609  75.789  1.00  0.00    -0.037 A 
ATOM     42  C   UNL     1      64.420  83.735  75.975  1.00  0.00     0.008 A 
ATOM     43  C   UNL     1      62.232  82.714  75.906  1.00  0.00     0.008 A 
ATOM     44  C   UNL     1      63.836  84.965  76.279  1.00  0.00     0.046 A 
ATOM     45  C   UNL     1      61.648  83.944  76.210  1.00  0.00     0.046 A 
ATOM     46  C   UNL     1      62.450  85.069  76.397  1.00  0.00     0.115 A 
BRANCH  46  47
ATOM     47  O   UNL     1      61.881  86.269  76.694  1.00  0.00    -0.508 OA
ATOM     48  H   UNL     1      61.939  86.848  75.914  1.00  0.00     0.293 HD
ENDBRANCH  46  47
ENDBRANCH  40  41
ENDBRANCH  38  40
ENDBRANCH  37  38
ENDBRANCH   1  37
TORSDOF 10
ENDMDL
MODEL 7
REMARK VINA RESULT:    -5.882     21.337     24.733
REMARK INTER + INTRA:         -11.442
REMARK INTER:                  -9.774
REMARK INTRA:                  -1.668
REMARK UNBOUND:                -1.435
REMARK SMILES C=C(C)[C@]12C[C@@H](C)[C@@]34O[C@](Cc5ccccc5)(O[C@@H]1[C@@H]3C=C(COC(=O)Cc1ccc(O)cc1)C[C@]1(O)C(=O)C(C)=C[C@@H]41)O2
REMARK SMILES IDX 23 1 22 2 21 3 20 4 9 5 8 6 10 7 6 8 18 10 44 11 19 12 5 13
REMARK SMILES IDX 7 14 4 15 11 16 12 17 13 18 17 19 14 20 16 21 15 22 2 23
REMARK SMILES IDX 3 24 1 25 35 26 36 27 43 28 38 29 42 30 39 32 40 33 41 34
REMARK SMILES IDX 37 35 24 37 25 38 26 39 27 40 28 41 29 42 34 43 30 44 33 45
REMARK SMILES IDX 31 46 32 47
REMARK H PARENT 37 36 32 48
REMARK Flexibility Score: 90.00
ROOT
ATOM      1  C   UNL     1      59.906  88.807  74.398  1.00  0.00     0.264 C 
ENDROOT
BRANCH   1   2
ATOM      2  C   UNL     1      61.376  88.467  74.297  1.00  0.00    -0.033 C 
ATOM      3  C   UNL     1      61.980  87.841  75.328  1.00  0.00    -0.015 C 
BRANCH   3   4
ATOM      4  C   UNL     1      63.442  87.463  75.504  1.00  0.00     0.078 C 
ATOM      5  O   UNL     1      63.700  85.161  74.639  1.00  0.00    -0.319 OA
ATOM      6  C   UNL     1      64.114  86.545  74.418  1.00  0.00     0.095 CG0
ATOM      7  C   UNL     1      63.690  84.734  76.015  1.00  0.00     0.289 C 
ATOM      8  C   UNL     1      65.684  86.658  74.600  1.00  0.00     0.023 C 
ATOM      9  G   UNL     1      63.579  86.888  72.997  1.00  0.00     0.000 G0
ATOM     10  O   UNL     1      62.843  85.561  76.807  1.00  0.00    -0.320 OA
ATOM     11  O   UNL     1      64.980  84.814  76.617  1.00  0.00    -0.313 OA
ATOM     12  C   UNL     1      63.641  86.754  76.867  1.00  0.00     0.170 C 
ATOM     13  C   UNL     1      66.073  86.862  76.096  1.00  0.00     0.049 C 
ATOM     14  C   UNL     1      66.503  85.495  74.014  1.00  0.00     0.011 C 
ATOM     15  C   UNL     1      65.073  86.191  77.038  1.00  0.00     0.122 C 
BRANCH   7  16
ATOM     16  C   UNL     1      63.199  83.301  76.063  1.00  0.00     0.135 C 
BRANCH  16  17
ATOM     17  C   UNL     1      63.232  82.644  74.705  1.00  0.00    -0.040 A 
ATOM     18  C   UNL     1      64.285  81.796  74.366  1.00  0.00     0.004 A 
ATOM     19  C   UNL     1      62.208  82.887  73.790  1.00  0.00     0.004 A 
ATOM     20  C   UNL     1      64.315  81.189  73.110  1.00  0.00     0.000 A 
ATOM     21  C   UNL     1      62.238  82.279  72.534  1.00  0.00     0.000 A 
ATOM     22  C   UNL     1      63.291  81.431  72.195  1.00  0.00     0.000 A 
ENDBRANCH  16  17
ENDBRANCH   7  16
BRANCH  15  23
ATOM     23  C   UNL     1      65.520  86.217  78.463  1.00  0.00    -0.046 C 
ATOM     24  C   UNL     1      64.615  86.925  79.428  1.00  0.00     0.042 C 
ATOM     25  C   UNL     1      66.665  85.642  78.858  1.00  0.00     0.010 C 
ENDBRANCH  15  23
ENDBRANCH   3   4
BRANCH   2  26
ATOM     26  C   UNL     1      61.996  88.893  72.980  1.00  0.00     0.078 C 
BRANCH  26  27
ATOM     27  C   UNL     1      63.403  88.384  72.674  1.00  0.00     0.140 C 
ATOM     28  C   UNL     1      63.568  86.887  73.009  1.00  0.00     0.086 CG0
ATOM     29  C   UNL     1      63.726  88.423  71.195  1.00  0.00     0.190 C 
ATOM     30  C   UNL     1      64.271  86.333  71.801  1.00  0.00    -0.010 C 
ATOM     31  G   UNL     1      64.115  86.558  74.429  1.00  0.00     0.000 G0
ATOM     32  O   UNL     1      63.547  89.381  70.457  1.00  0.00    -0.291 OA
ATOM     33  C   UNL     1      64.351  87.162  70.756  1.00  0.00    -0.008 C 
ATOM     34  C   UNL     1      64.890  86.932  69.399  1.00  0.00     0.048 C 
BRANCH  27  35
ATOM     35  O   UNL     1      64.393  89.214  73.259  1.00  0.00    -0.381 OA
ATOM     36  H   UNL     1      65.222  88.708  73.316  1.00  0.00     0.212 HD
ENDBRANCH  27  35
ENDBRANCH  26  27
ENDBRANCH   2  26
ENDBRANCH   1   2
BRANCH   1  37
ATOM     37  O   UNL     1      59.430  89.198  73.128  1.00  0.00    -0.461 OA
BRANCH  37  38
ATOM     38  C   UNL     1      58.063  89.292  72.995  1.00  0.00     0.310 C 
ATOM     39  O   UNL     1      57.357  90.111  73.565  1.00  0.00    -0.252 OA
BRANCH  38  40
ATOM     40  C   UNL     1      57.576  88.231  72.038  1.00  0.00     0.158 C 
BRANCH  40  41
ATOM     41  C   UNL     1      58.688  87.365  71.504  1.00  0.00    -0.037 A 
ATOM     42  C   UNL     1      58.926  86.110  72.066  1.00  0.00     0.008 A 
ATOM     43  C   UNL     1      59.480  87.818  70.450  1.00  0.00     0.008 A 
ATOM     44  C   UNL     1      59.956  85.309  71.573  1.00  0.00     0.046 A 
ATOM     45  C   UNL     1      60.510  87.017  69.956  1.00  0.00     0.046 A 
ATOM     46  C   UNL     1      60.749  85.763  70.517  1.00  0.00     0.115 A 
BRANCH  46  47
ATOM     47  O   UNL     1      61.754  84.981  70.037  1.00  0.00    -0.508 OA
ATOM     48  H   UNL     1      61.405  84.089  69.866  1.00  0.00     0.293 HD
ENDBRANCH  46  47
ENDBRANCH  40  41
ENDBRANCH  38  40
ENDBRANCH  37  38
ENDBRANCH   1  37
TORSDOF 10
ENDMDL
MODEL 8
REMARK VINA RESULT:    -5.879     24.314     27.352
REMARK INTER + INTRA:         -11.438
REMARK INTER:                 -11.021
REMARK INTRA:                  -0.417
REMARK UNBOUND:                -1.435
REMARK SMILES C=C(C)[C@]12C[C@@H](C)[C@@]34O[C@](Cc5ccccc5)(O[C@@H]1[C@@H]3C=C(COC(=O)Cc1ccc(O)cc1)C[C@]1(O)C(=O)C(C)=C[C@@H]41)O2
REMARK SMILES IDX 23 1 22 2 21 3 20 4 9 5 8 6 10 7 6 8 18 10 44 11 19 12 5 13
REMARK SMILES IDX 7 14 4 15 11 16 12 17 13 18 17 19 14 20 16 21 15 22 2 23
REMARK SMILES IDX 3 24 1 25 35 26 36 27 43 28 38 29 42 30 39 32 40 33 41 34
REMARK SMILES IDX 37 35 24 37 25 38 26 39 27 40 28 41 29 42 34 43 30 44 33 45
REMARK SMILES IDX 31 46 32 47
REMARK H PARENT 37 36 32 48
REMARK Flexibility Score: 90.00
ROOT
ATOM      1  C   UNL     1      57.938  88.238  72.525  1.00  0.00     0.264 C 
ENDROOT
BRANCH   1   2
ATOM      2  C   UNL     1      59.185  87.667  73.160  1.00  0.00    -0.033 C 
ATOM      3  C   UNL     1      59.683  86.501  72.700  1.00  0.00    -0.015 C 
BRANCH   3   4
ATOM      4  C   UNL     1      60.863  85.688  73.208  1.00  0.00     0.078 C 
ATOM      5  O   UNL     1      62.850  86.429  71.937  1.00  0.00    -0.319 OA
ATOM      6  C   UNL     1      62.274  86.380  73.279  1.00  0.00     0.095 CG0
ATOM      7  C   UNL     1      62.691  85.230  71.155  1.00  0.00     0.289 C 
ATOM      8  C   UNL     1      63.197  85.493  74.213  1.00  0.00     0.023 C 
ATOM      9  G   UNL     1      62.137  87.873  73.698  1.00  0.00     0.000 G0
ATOM     10  O   UNL     1      61.317  84.883  71.013  1.00  0.00    -0.320 OA
ATOM     11  O   UNL     1      63.314  84.100  71.761  1.00  0.00    -0.313 OA
ATOM     12  C   UNL     1      61.038  84.416  72.342  1.00  0.00     0.170 C 
ATOM     13  C   UNL     1      62.847  83.978  74.091  1.00  0.00     0.049 C 
ATOM     14  C   UNL     1      64.711  85.683  74.019  1.00  0.00     0.011 C 
ATOM     15  C   UNL     1      62.323  83.629  72.698  1.00  0.00     0.122 C 
BRANCH   7  16
ATOM     16  C   UNL     1      63.303  85.470  69.789  1.00  0.00     0.135 C 
BRANCH  16  17
ATOM     17  C   UNL     1      63.008  84.343  68.830  1.00  0.00    -0.040 A 
ATOM     18  C   UNL     1      61.738  84.221  68.267  1.00  0.00     0.004 A 
ATOM     19  C   UNL     1      64.006  83.424  68.507  1.00  0.00     0.004 A 
ATOM     20  C   UNL     1      61.466  83.179  67.380  1.00  0.00     0.000 A 
ATOM     21  C   UNL     1      63.734  82.382  67.620  1.00  0.00     0.000 A 
ATOM     22  C   UNL     1      62.464  82.260  67.057  1.00  0.00     0.000 A 
ENDBRANCH  16  17
ENDBRANCH   7  16
BRANCH  15  23
ATOM     23  C   UNL     1      62.153  82.157  72.501  1.00  0.00    -0.046 C 
ATOM     24  C   UNL     1      62.195  81.670  71.083  1.00  0.00     0.042 C 
ATOM     25  C   UNL     1      61.972  81.320  73.533  1.00  0.00     0.010 C 
ENDBRANCH  15  23
ENDBRANCH   3   4
BRANCH   2  26
ATOM     26  C   UNL     1      59.734  88.532  74.279  1.00  0.00     0.078 C 
BRANCH  26  27
ATOM     27  C   UNL     1      61.102  88.155  74.845  1.00  0.00     0.140 C 
ATOM     28  C   UNL     1      62.134  87.865  73.735  1.00  0.00     0.086 CG0
ATOM     29  C   UNL     1      61.750  89.295  75.602  1.00  0.00     0.190 C 
ATOM     30  C   UNL     1      63.354  88.618  74.187  1.00  0.00    -0.010 C 
ATOM     31  G   UNL     1      62.272  86.377  73.300  1.00  0.00     0.000 G0
ATOM     32  O   UNL     1      61.207  89.975  76.460  1.00  0.00    -0.291 OA
ATOM     33  C   UNL     1      63.165  89.451  75.215  1.00  0.00    -0.008 C 
ATOM     34  C   UNL     1      64.101  90.395  75.859  1.00  0.00     0.048 C 
BRANCH  27  35
ATOM     35  O   UNL     1      60.996  87.124  75.812  1.00  0.00    -0.381 OA
ATOM     36  H   UNL     1      60.053  86.949  75.972  1.00  0.00     0.212 HD
ENDBRANCH  27  35
ENDBRANCH  26  27
ENDBRANCH   2  26
ENDBRANCH   1   2
BRANCH   1  37
ATOM     37  O   UNL     1      57.999  88.053  71.127  1.00  0.00    -0.461 OA
BRANCH  37  38
ATOM     38  C   UNL     1      58.197  89.186  70.372  1.00  0.00     0.310 C 
ATOM     39  O   UNL     1      59.249  89.495  69.831  1.00  0.00    -0.252 OA
BRANCH  38  40
ATOM     40  C   UNL     1      56.916  89.983  70.316  1.00  0.00     0.158 C 
BRANCH  40  41
ATOM     41  C   UNL     1      56.230  89.899  68.977  1.00  0.00    -0.037 A 
ATOM     42  C   UNL     1      55.368  90.918  68.570  1.00  0.00     0.008 A 
ATOM     43  C   UNL     1      56.454  88.803  68.145  1.00  0.00     0.008 A 
ATOM     44  C   UNL     1      54.732  90.840  67.331  1.00  0.00     0.046 A 
ATOM     45  C   UNL     1      55.819  88.725  66.905  1.00  0.00     0.046 A 
ATOM     46  C   UNL     1      54.957  89.743  66.499  1.00  0.00     0.115 A 
BRANCH  46  47
ATOM     47  O   UNL     1      54.336  89.667  65.290  1.00  0.00    -0.508 OA
ATOM     48  H   UNL     1      55.001  89.477  64.605  1.00  0.00     0.293 HD
ENDBRANCH  46  47
ENDBRANCH  40  41
ENDBRANCH  38  40
ENDBRANCH  37  38
ENDBRANCH   1  37
TORSDOF 10
ENDMDL
MODEL 9
REMARK VINA RESULT:    -5.786     19.215     22.318
REMARK INTER + INTRA:         -11.280
REMARK INTER:                 -10.003
REMARK INTRA:                  -1.277
REMARK UNBOUND:                -1.435
REMARK SMILES C=C(C)[C@]12C[C@@H](C)[C@@]34O[C@](Cc5ccccc5)(O[C@@H]1[C@@H]3C=C(COC(=O)Cc1ccc(O)cc1)C[C@]1(O)C(=O)C(C)=C[C@@H]41)O2
REMARK SMILES IDX 23 1 22 2 21 3 20 4 9 5 8 6 10 7 6 8 18 10 44 11 19 12 5 13
REMARK SMILES IDX 7 14 4 15 11 16 12 17 13 18 17 19 14 20 16 21 15 22 2 23
REMARK SMILES IDX 3 24 1 25 35 26 36 27 43 28 38 29 42 30 39 32 40 33 41 34
REMARK SMILES IDX 37 35 24 37 25 38 26 39 27 40 28 41 29 42 34 43 30 44 33 45
REMARK SMILES IDX 31 46 32 47
REMARK H PARENT 37 36 32 48
REMARK Flexibility Score: 90.00
ROOT
ATOM      1  C   UNL     1      61.364  88.469  78.384  1.00  0.00     0.264 C 
ENDROOT
BRANCH   1   2
ATOM      2  C   UNL     1      62.529  87.894  77.612  1.00  0.00    -0.033 C 
ATOM      3  C   UNL     1      62.421  86.659  77.078  1.00  0.00    -0.015 C 
BRANCH   3   4
ATOM      4  C   UNL     1      63.459  85.836  76.333  1.00  0.00     0.078 C 
ATOM      5  O   UNL     1      63.149  86.296  73.923  1.00  0.00    -0.319 OA
ATOM      6  C   UNL     1      64.096  86.439  75.027  1.00  0.00     0.095 CG0
ATOM      7  C   UNL     1      62.469  85.028  73.855  1.00  0.00     0.289 C 
ATOM      8  C   UNL     1      65.406  85.608  74.705  1.00  0.00     0.023 C 
ATOM      9  G   UNL     1      64.298  87.976  75.169  1.00  0.00     0.000 G0
ATOM     10  O   UNL     1      61.759  84.756  75.060  1.00  0.00    -0.320 OA
ATOM     11  O   UNL     1      63.372  83.938  73.685  1.00  0.00    -0.313 OA
ATOM     12  C   UNL     1      62.858  84.464  75.938  1.00  0.00     0.170 C 
ATOM     13  C   UNL     1      65.255  84.115  75.129  1.00  0.00     0.049 C 
ATOM     14  C   UNL     1      65.890  85.676  73.246  1.00  0.00     0.011 C 
ATOM     15  C   UNL     1      63.804  83.642  75.029  1.00  0.00     0.122 C 
BRANCH   7  16
ATOM     16  C   UNL     1      61.503  85.070  72.688  1.00  0.00     0.135 C 
BRANCH  16  17
ATOM     17  C   UNL     1      62.005  84.275  71.508  1.00  0.00    -0.040 A 
ATOM     18  C   UNL     1      61.775  82.901  71.444  1.00  0.00     0.004 A 
ATOM     19  C   UNL     1      62.698  84.915  70.482  1.00  0.00     0.004 A 
ATOM     20  C   UNL     1      62.239  82.166  70.353  1.00  0.00     0.000 A 
ATOM     21  C   UNL     1      63.162  84.180  69.390  1.00  0.00     0.000 A 
ATOM     22  C   UNL     1      62.933  82.806  69.326  1.00  0.00     0.000 A 
ENDBRANCH  16  17
ENDBRANCH   7  16
BRANCH  15  23
ATOM     23  C   UNL     1      63.662  82.172  75.256  1.00  0.00    -0.046 C 
ATOM     24  C   UNL     1      62.591  81.481  74.466  1.00  0.00     0.042 C 
ATOM     25  C   UNL     1      64.448  81.508  76.116  1.00  0.00     0.010 C 
ENDBRANCH  15  23
ENDBRANCH   3   4
BRANCH   2  26
ATOM     26  C   UNL     1      63.716  88.836  77.534  1.00  0.00     0.078 C 
BRANCH  26  27
ATOM     27  C   UNL     1      64.834  88.471  76.560  1.00  0.00     0.140 C 
ATOM     28  C   UNL     1      64.289  87.989  75.199  1.00  0.00     0.086 CG0
ATOM     29  C   UNL     1      65.675  89.667  76.168  1.00  0.00     0.190 C 
ATOM     30  C   UNL     1      65.130  88.736  74.201  1.00  0.00    -0.010 C 
ATOM     31  G   UNL     1      64.100  86.452  75.041  1.00  0.00     0.000 G0
ATOM     32  O   UNL     1      66.157  90.479  76.944  1.00  0.00    -0.291 OA
ATOM     33  C   UNL     1      65.898  89.704  74.710  1.00  0.00    -0.008 C 
ATOM     34  C   UNL     1      66.776  90.678  74.030  1.00  0.00     0.048 C 
BRANCH  27  35
ATOM     35  O   UNL     1      65.766  87.581  77.151  1.00  0.00    -0.381 OA
ATOM     36  H   UNL     1      65.283  86.801  77.473  1.00  0.00     0.212 HD
ENDBRANCH  27  35
ENDBRANCH  26  27
ENDBRANCH   2  26
ENDBRANCH   1   2
BRANCH   1  37
ATOM     37  O   UNL     1      61.852  89.319  79.400  1.00  0.00    -0.461 OA
BRANCH  37  38
ATOM     38  C   UNL     1      62.115  88.727  80.614  1.00  0.00     0.310 C 
ATOM     39  O   UNL     1      61.406  87.890  81.155  1.00  0.00    -0.252 OA
BRANCH  38  40
ATOM     40  C   UNL     1      63.409  89.271  81.170  1.00  0.00     0.158 C 
BRANCH  40  41
ATOM     41  C   UNL     1      64.580  88.351  80.939  1.00  0.00    -0.037 A 
ATOM     42  C   UNL     1      65.881  88.818  81.127  1.00  0.00     0.008 A 
ATOM     43  C   UNL     1      64.364  87.034  80.536  1.00  0.00     0.008 A 
ATOM     44  C   UNL     1      66.966  87.967  80.912  1.00  0.00     0.046 A 
ATOM     45  C   UNL     1      65.448  86.182  80.321  1.00  0.00     0.046 A 
ATOM     46  C   UNL     1      66.749  86.649  80.509  1.00  0.00     0.115 A 
BRANCH  46  47
ATOM     47  O   UNL     1      67.807  85.819  80.299  1.00  0.00    -0.508 OA
ATOM     48  H   UNL     1      67.482  84.904  80.233  1.00  0.00     0.293 HD
ENDBRANCH  46  47
ENDBRANCH  40  41
ENDBRANCH  38  40
ENDBRANCH  37  38
ENDBRANCH   1  37
TORSDOF 10
ENDMDL
MODEL 10
REMARK VINA RESULT:    -5.429     20.775     23.909
REMARK INTER + INTRA:         -10.673
REMARK INTER:                  -9.316
REMARK INTRA:                  -1.357
REMARK UNBOUND:                -1.435
REMARK SMILES C=C(C)[C@]12C[C@@H](C)[C@@]34O[C@](Cc5ccccc5)(O[C@@H]1[C@@H]3C=C(COC(=O)Cc1ccc(O)cc1)C[C@]1(O)C(=O)C(C)=C[C@@H]41)O2
REMARK SMILES IDX 23 1 22 2 21 3 20 4 9 5 8 6 10 7 6 8 18 10 44 11 19 12 5 13
REMARK SMILES IDX 7 14 4 15 11 16 12 17 13 18 17 19 14 20 16 21 15 22 2 23
REMARK SMILES IDX 3 24 1 25 35 26 36 27 43 28 38 29 42 30 39 32 40 33 41 34
REMARK SMILES IDX 37 35 24 37 25 38 26 39 27 40 28 41 29 42 34 43 30 44 33 45
REMARK SMILES IDX 31 46 32 47
REMARK H PARENT 37 36 32 48
REMARK Flexibility Score: 90.00
ROOT
ATOM      1  C   UNL     1      59.268  86.451  74.424  1.00  0.00     0.264 C 
ENDROOT
BRANCH   1   2
ATOM      2  C   UNL     1      60.738  86.179  74.207  1.00  0.00    -0.033 C 
ATOM      3  C   UNL     1      61.608  87.210  74.225  1.00  0.00    -0.015 C 
BRANCH   3   4
ATOM      4  C   UNL     1      63.106  87.214  73.962  1.00  0.00     0.078 C 
ATOM      5  O   UNL     1      64.222  86.916  76.148  1.00  0.00    -0.319 OA
ATOM      6  C   UNL     1      64.023  86.289  74.843  1.00  0.00     0.095 CG0
ATOM      7  C   UNL     1      64.473  88.334  76.117  1.00  0.00     0.289 C 
ATOM      8  C   UNL     1      65.419  86.157  74.106  1.00  0.00     0.023 C 
ATOM      9  G   UNL     1      63.307  84.944  75.163  1.00  0.00     0.000 G0
ATOM     10  O   UNL     1      63.415  89.033  75.468  1.00  0.00    -0.320 OA
ATOM     11  O   UNL     1      65.654  88.660  75.389  1.00  0.00    -0.313 OA
ATOM     12  C   UNL     1      63.661  88.653  74.105  1.00  0.00     0.170 C 
ATOM     13  C   UNL     1      65.786  87.462  73.337  1.00  0.00     0.049 C 
ATOM     14  C   UNL     1      66.602  85.743  75.000  1.00  0.00     0.011 C 
ATOM     15  C   UNL     1      65.206  88.703  74.018  1.00  0.00     0.122 C 
BRANCH   7  16
ATOM     16  C   UNL     1      64.611  88.822  77.546  1.00  0.00     0.135 C 
BRANCH  16  17
ATOM     17  C   UNL     1      65.202  87.770  78.450  1.00  0.00    -0.040 A 
ATOM     18  C   UNL     1      64.466  87.285  79.531  1.00  0.00     0.004 A 
ATOM     19  C   UNL     1      66.484  87.281  78.204  1.00  0.00     0.004 A 
ATOM     20  C   UNL     1      65.013  86.311  80.367  1.00  0.00     0.000 A 
ATOM     21  C   UNL     1      67.031  86.306  79.040  1.00  0.00     0.000 A 
ATOM     22  C   UNL     1      66.296  85.822  80.121  1.00  0.00     0.000 A 
ENDBRANCH  16  17
ENDBRANCH   7  16
BRANCH  15  23
ATOM     23  C   UNL     1      65.693  89.975  73.404  1.00  0.00    -0.046 C 
ATOM     24  C   UNL     1      66.715  90.741  74.191  1.00  0.00     0.042 C 
ATOM     25  C   UNL     1      65.242  90.408  72.217  1.00  0.00     0.010 C 
ENDBRANCH  15  23
ENDBRANCH   3   4
BRANCH   2  26
ATOM     26  C   UNL     1      61.048  84.709  73.996  1.00  0.00     0.078 C 
BRANCH  26  27
ATOM     27  C   UNL     1      62.520  84.299  73.995  1.00  0.00     0.140 C 
ATOM     28  C   UNL     1      63.306  84.943  75.156  1.00  0.00     0.086 CG0
ATOM     29  C   UNL     1      62.709  82.820  74.255  1.00  0.00     0.190 C 
ATOM     30  C   UNL     1      64.102  83.798  75.717  1.00  0.00    -0.010 C 
ATOM     31  G   UNL     1      64.023  86.287  74.836  1.00  0.00     0.000 G0
ATOM     32  O   UNL     1      62.109  81.919  73.688  1.00  0.00    -0.291 OA
ATOM     33  C   UNL     1      63.772  82.589  75.252  1.00  0.00    -0.008 C 
ATOM     34  C   UNL     1      64.276  81.254  75.632  1.00  0.00     0.048 C 
BRANCH  27  35
ATOM     35  O   UNL     1      63.112  84.498  72.722  1.00  0.00    -0.381 OA
ATOM     36  H   UNL     1      63.029  85.438  72.489  1.00  0.00     0.212 HD
ENDBRANCH  27  35
ENDBRANCH  26  27
ENDBRANCH   2  26
ENDBRANCH   1   2
BRANCH   1  37
ATOM     37  O   UNL     1      58.951  87.733  73.926  1.00  0.00    -0.461 OA
BRANCH  37  38
ATOM     38  C   UNL     1      57.732  87.858  73.300  1.00  0.00     0.310 C 
ATOM     39  O   UNL     1      56.650  87.889  73.869  1.00  0.00    -0.252 OA
BRANCH  38  40
ATOM     40  C   UNL     1      57.940  87.951  71.807  1.00  0.00     0.158 C 
BRANCH  40  41
ATOM     41  C   UNL     1      58.986  86.994  71.298  1.00  0.00    -0.037 A 
ATOM     42  C   UNL     1      58.723  85.624  71.266  1.00  0.00     0.008 A 
ATOM     43  C   UNL     1      60.219  87.476  70.860  1.00  0.00     0.008 A 
ATOM     44  C   UNL     1      59.692  84.738  70.796  1.00  0.00     0.046 A 
ATOM     45  C   UNL     1      61.189  86.590  70.390  1.00  0.00     0.046 A 
ATOM     46  C   UNL     1      60.925  85.221  70.358  1.00  0.00     0.115 A 
BRANCH  46  47
ATOM     47  O   UNL     1      61.871  84.356  69.900  1.00  0.00    -0.508 OA
ATOM     48  H   UNL     1      62.707  84.525  70.369  1.00  0.00     0.293 HD
ENDBRANCH  46  47
ENDBRANCH  40  41
ENDBRANCH  38  40
ENDBRANCH  37  38
ENDBRANCH   1  37
TORSDOF 10
ENDMDL
