MODEL 1
REMARK VINA RESULT:    -5.873      0.000      0.000
REMARK INTER + INTRA:         -10.418
REMARK INTER:                  -9.478
REMARK INTRA:                  -0.940
REMARK UNBOUND:                -0.940
REMARK SMILES CCCCCCCCC(=O)NCc1ccc(O)c(OC)c1
REMARK SMILES IDX 7 1 6 2 5 3 4 4 3 5 2 6 1 7 8 8 9 9 10 10 11 11 12 13 13 14
REMARK SMILES IDX 21 15 14 16 18 17 15 18 16 19 19 20 20 21 17 22
REMARK H PARENT 11 12 17 23
REMARK Flexibility Score: inf
ROOT
ATOM      1  C   UNL     1      78.375  64.755  68.591  1.00  0.00     0.010 C 
ENDROOT
BRANCH   1   2
ATOM      2  C   UNL     1      77.965  63.427  67.891  1.00  0.00     0.001 C 
BRANCH   2   3
ATOM      3  C   UNL     1      77.010  63.668  66.684  1.00  0.00     0.000 C 
BRANCH   3   4
ATOM      4  C   UNL     1      76.824  65.169  66.322  1.00  0.00    -0.000 C 
BRANCH   4   5
ATOM      5  C   UNL     1      75.346  65.637  66.445  1.00  0.00    -0.000 C 
BRANCH   5   6
ATOM      6  C   UNL     1      74.529  64.774  67.445  1.00  0.00    -0.003 C 
ATOM      7  C   UNL     1      74.576  65.322  68.888  1.00  0.00     0.004 C 
ENDBRANCH   5   6
ENDBRANCH   4   5
ENDBRANCH   3   4
ENDBRANCH   2   3
ENDBRANCH   1   2
BRANCH   1   8
ATOM      8  C   UNL     1      78.876  64.568  70.051  1.00  0.00     0.100 C 
BRANCH   8   9
ATOM      9  C   UNL     1      80.352  64.675  70.133  1.00  0.00     0.220 C 
ATOM     10  O   UNL     1      81.031  63.624  70.035  1.00  0.00    -0.275 OA
ATOM     11  N   UNL     1      80.953  65.892  70.283  1.00  0.00    -0.352 N 
ATOM     12  H   UNL     1      80.313  66.657  70.438  1.00  0.00     0.163 HD
BRANCH  11  13
ATOM     13  C   UNL     1      82.361  66.140  70.234  1.00  0.00     0.151 C 
BRANCH  13  14
ATOM     14  C   UNL     1      82.938  66.588  71.530  1.00  0.00    -0.025 A 
ATOM     15  C   UNL     1      82.820  65.774  72.682  1.00  0.00     0.056 A 
ATOM     16  C   UNL     1      83.608  67.829  71.637  1.00  0.00     0.009 A 
ATOM     17  C   UNL     1      83.378  66.179  73.916  1.00  0.00     0.160 A 
ATOM     18  C   UNL     1      84.166  68.236  72.862  1.00  0.00     0.050 A 
ATOM     19  C   UNL     1      84.047  67.420  74.003  1.00  0.00     0.157 A 
BRANCH  17  20
ATOM     20  O   UNL     1      83.225  65.408  75.041  1.00  0.00    -0.493 OA
ATOM     21  C   UNL     1      83.672  64.049  74.888  1.00  0.00     0.278 C 
ENDBRANCH  17  20
BRANCH  19  22
ATOM     22  O   UNL     1      84.565  67.835  75.187  1.00  0.00    -0.504 OA
ATOM     23  H   UNL     1      84.965  67.089  75.641  1.00  0.00     0.293 HD
ENDBRANCH  19  22
ENDBRANCH  13  14
ENDBRANCH  11  13
ENDBRANCH   8   9
ENDBRANCH   1   8
TORSDOF 11
ENDMDL
MODEL 2
REMARK VINA RESULT:    -5.822      1.699      2.707
REMARK INTER + INTRA:         -10.336
REMARK INTER:                  -9.569
REMARK INTRA:                  -0.768
REMARK UNBOUND:                -0.940
REMARK SMILES CCCCCCCCC(=O)NCc1ccc(O)c(OC)c1
REMARK SMILES IDX 7 1 6 2 5 3 4 4 3 5 2 6 1 7 8 8 9 9 10 10 11 11 12 13 13 14
REMARK SMILES IDX 21 15 14 16 18 17 15 18 16 19 19 20 20 21 17 22
REMARK H PARENT 11 12 17 23
REMARK Flexibility Score: inf
ROOT
ATOM      1  C   UNL     1      79.800  65.158  69.446  1.00  0.00     0.010 C 
ENDROOT
BRANCH   1   2
ATOM      2  C   UNL     1      79.166  63.738  69.398  1.00  0.00     0.001 C 
BRANCH   2   3
ATOM      3  C   UNL     1      77.683  63.771  68.924  1.00  0.00     0.000 C 
BRANCH   3   4
ATOM      4  C   UNL     1      77.520  63.943  67.388  1.00  0.00    -0.000 C 
BRANCH   4   5
ATOM      5  C   UNL     1      76.758  65.245  67.008  1.00  0.00    -0.000 C 
BRANCH   5   6
ATOM      6  C   UNL     1      75.748  65.685  68.102  1.00  0.00    -0.003 C 
ATOM      7  C   UNL     1      74.406  64.925  68.021  1.00  0.00     0.004 C 
ENDBRANCH   5   6
ENDBRANCH   4   5
ENDBRANCH   3   4
ENDBRANCH   2   3
ENDBRANCH   1   2
BRANCH   1   8
ATOM      8  C   UNL     1      79.511  65.933  70.762  1.00  0.00     0.100 C 
BRANCH   8   9
ATOM      9  C   UNL     1      80.460  65.547  71.835  1.00  0.00     0.220 C 
ATOM     10  O   UNL     1      80.010  65.376  72.993  1.00  0.00    -0.275 OA
ATOM     11  N   UNL     1      81.783  65.357  71.556  1.00  0.00    -0.352 N 
ATOM     12  H   UNL     1      82.051  65.606  70.615  1.00  0.00     0.163 HD
BRANCH  11  13
ATOM     13  C   UNL     1      82.764  64.852  72.466  1.00  0.00     0.151 C 
BRANCH  13  14
ATOM     14  C   UNL     1      83.450  65.907  73.258  1.00  0.00    -0.025 A 
ATOM     15  C   UNL     1      84.265  66.867  72.611  1.00  0.00     0.056 A 
ATOM     16  C   UNL     1      83.307  65.970  74.663  1.00  0.00     0.009 A 
ATOM     17  C   UNL     1      84.909  67.887  73.348  1.00  0.00     0.160 A 
ATOM     18  C   UNL     1      83.944  66.983  75.402  1.00  0.00     0.050 A 
ATOM     19  C   UNL     1      84.750  67.936  74.752  1.00  0.00     0.157 A 
BRANCH  17  20
ATOM     20  O   UNL     1      85.731  68.791  72.724  1.00  0.00    -0.493 OA
ATOM     21  C   UNL     1      85.075  70.008  72.328  1.00  0.00     0.278 C 
ENDBRANCH  17  20
BRANCH  19  22
ATOM     22  O   UNL     1      85.383  68.893  75.477  1.00  0.00    -0.504 OA
ATOM     23  H   UNL     1      84.803  69.651  75.583  1.00  0.00     0.293 HD
ENDBRANCH  19  22
ENDBRANCH  13  14
ENDBRANCH  11  13
ENDBRANCH   8   9
ENDBRANCH   1   8
TORSDOF 11
ENDMDL
MODEL 3
REMARK VINA RESULT:    -5.657     22.268     25.075
REMARK INTER + INTRA:         -10.069
REMARK INTER:                  -9.494
REMARK INTRA:                  -0.576
REMARK UNBOUND:                -0.940
REMARK SMILES CCCCCCCCC(=O)NCc1ccc(O)c(OC)c1
REMARK SMILES IDX 7 1 6 2 5 3 4 4 3 5 2 6 1 7 8 8 9 9 10 10 11 11 12 13 13 14
REMARK SMILES IDX 21 15 14 16 18 17 15 18 16 19 19 20 20 21 17 22
REMARK H PARENT 11 12 17 23
REMARK Flexibility Score: inf
ROOT
ATOM      1  C   UNL     1      97.241  83.351  80.485  1.00  0.00     0.010 C 
ENDROOT
BRANCH   1   2
ATOM      2  C   UNL     1      96.696  83.383  79.027  1.00  0.00     0.001 C 
BRANCH   2   3
ATOM      3  C   UNL     1      97.613  82.604  78.039  1.00  0.00     0.000 C 
BRANCH   3   4
ATOM      4  C   UNL     1      97.967  83.400  76.751  1.00  0.00    -0.000 C 
BRANCH   4   5
ATOM      5  C   UNL     1      96.806  84.319  76.276  1.00  0.00    -0.000 C 
BRANCH   5   6
ATOM      6  C   UNL     1      96.957  84.753  74.793  1.00  0.00    -0.003 C 
ATOM      7  C   UNL     1      97.504  83.624  73.891  1.00  0.00     0.004 C 
ENDBRANCH   5   6
ENDBRANCH   4   5
ENDBRANCH   3   4
ENDBRANCH   2   3
ENDBRANCH   1   2
BRANCH   1   8
ATOM      8  C   UNL     1      96.913  82.038  81.250  1.00  0.00     0.100 C 
BRANCH   8   9
ATOM      9  C   UNL     1      96.373  82.322  82.601  1.00  0.00     0.220 C 
ATOM     10  O   UNL     1      96.319  83.516  82.982  1.00  0.00    -0.275 OA
ATOM     11  N   UNL     1      95.920  81.307  83.395  1.00  0.00    -0.352 N 
ATOM     12  H   UNL     1      96.090  80.382  83.027  1.00  0.00     0.163 HD
BRANCH  11  13
ATOM     13  C   UNL     1      95.252  81.462  84.651  1.00  0.00     0.151 C 
BRANCH  13  14
ATOM     14  C   UNL     1      93.793  81.176  84.595  1.00  0.00    -0.025 A 
ATOM     15  C   UNL     1      93.327  79.840  84.634  1.00  0.00     0.056 A 
ATOM     16  C   UNL     1      92.850  82.226  84.498  1.00  0.00     0.009 A 
ATOM     17  C   UNL     1      91.943  79.554  84.599  1.00  0.00     0.160 A 
ATOM     18  C   UNL     1      91.472  81.948  84.465  1.00  0.00     0.050 A 
ATOM     19  C   UNL     1      91.015  80.616  84.507  1.00  0.00     0.157 A 
BRANCH  17  20
ATOM     20  O   UNL     1      91.495  78.257  84.595  1.00  0.00    -0.493 OA
ATOM     21  C   UNL     1      92.501  77.288  84.251  1.00  0.00     0.278 C 
ENDBRANCH  17  20
BRANCH  19  22
ATOM     22  O   UNL     1      89.684  80.357  84.446  1.00  0.00    -0.504 OA
ATOM     23  H   UNL     1      89.367  80.107  85.317  1.00  0.00     0.293 HD
ENDBRANCH  19  22
ENDBRANCH  13  14
ENDBRANCH  11  13
ENDBRANCH   8   9
ENDBRANCH   1   8
TORSDOF 11
ENDMDL
MODEL 4
REMARK VINA RESULT:    -5.558      1.815      2.540
REMARK INTER + INTRA:          -9.910
REMARK INTER:                  -9.329
REMARK INTRA:                  -0.581
REMARK UNBOUND:                -0.940
REMARK SMILES CCCCCCCCC(=O)NCc1ccc(O)c(OC)c1
REMARK SMILES IDX 7 1 6 2 5 3 4 4 3 5 2 6 1 7 8 8 9 9 10 10 11 11 12 13 13 14
REMARK SMILES IDX 21 15 14 16 18 17 15 18 16 19 19 20 20 21 17 22
REMARK H PARENT 11 12 17 23
REMARK Flexibility Score: inf
ROOT
ATOM      1  C   UNL     1      79.324  64.770  69.923  1.00  0.00     0.010 C 
ENDROOT
BRANCH   1   2
ATOM      2  C   UNL     1      78.813  63.456  69.265  1.00  0.00     0.001 C 
BRANCH   2   3
ATOM      3  C   UNL     1      77.511  63.678  68.440  1.00  0.00     0.000 C 
BRANCH   3   4
ATOM      4  C   UNL     1      77.589  64.881  67.458  1.00  0.00    -0.000 C 
BRANCH   4   5
ATOM      5  C   UNL     1      76.242  65.148  66.728  1.00  0.00    -0.000 C 
BRANCH   5   6
ATOM      6  C   UNL     1      75.080  64.283  67.285  1.00  0.00    -0.003 C 
ATOM      7  C   UNL     1      74.169  65.058  68.262  1.00  0.00     0.004 C 
ENDBRANCH   5   6
ENDBRANCH   4   5
ENDBRANCH   3   4
ENDBRANCH   2   3
ENDBRANCH   1   2
BRANCH   1   8
ATOM      8  C   UNL     1      80.755  64.659  70.520  1.00  0.00     0.100 C 
BRANCH   8   9
ATOM      9  C   UNL     1      80.896  65.490  71.740  1.00  0.00     0.220 C 
ATOM     10  O   UNL     1      79.886  66.101  72.165  1.00  0.00    -0.275 OA
ATOM     11  N   UNL     1      82.091  65.561  72.397  1.00  0.00    -0.352 N 
ATOM     12  H   UNL     1      82.856  65.104  71.923  1.00  0.00     0.163 HD
BRANCH  11  13
ATOM     13  C   UNL     1      82.318  66.209  73.653  1.00  0.00     0.151 C 
BRANCH  13  14
ATOM     14  C   UNL     1      83.388  67.241  73.612  1.00  0.00    -0.025 A 
ATOM     15  C   UNL     1      84.309  67.354  74.681  1.00  0.00     0.056 A 
ATOM     16  C   UNL     1      83.503  68.126  72.516  1.00  0.00     0.009 A 
ATOM     17  C   UNL     1      85.343  68.319  74.648  1.00  0.00     0.160 A 
ATOM     18  C   UNL     1      84.529  69.087  72.477  1.00  0.00     0.050 A 
ATOM     19  C   UNL     1      85.444  69.192  73.542  1.00  0.00     0.157 A 
BRANCH  17  20
ATOM     20  O   UNL     1      86.209  68.454  75.704  1.00  0.00    -0.493 OA
ATOM     21  C   UNL     1      87.295  67.511  75.699  1.00  0.00     0.278 C 
ENDBRANCH  17  20
BRANCH  19  22
ATOM     22  O   UNL     1      86.414  70.141  73.508  1.00  0.00    -0.504 OA
ATOM     23  H   UNL     1      87.128  69.848  72.937  1.00  0.00     0.293 HD
ENDBRANCH  19  22
ENDBRANCH  13  14
ENDBRANCH  11  13
ENDBRANCH   8   9
ENDBRANCH   1   8
TORSDOF 11
ENDMDL
MODEL 5
REMARK VINA RESULT:    -5.367     25.148     26.528
REMARK INTER + INTRA:          -9.601
REMARK INTER:                  -9.112
REMARK INTRA:                  -0.490
REMARK UNBOUND:                -0.940
REMARK SMILES CCCCCCCCC(=O)NCc1ccc(O)c(OC)c1
REMARK SMILES IDX 7 1 6 2 5 3 4 4 3 5 2 6 1 7 8 8 9 9 10 10 11 11 12 13 13 14
REMARK SMILES IDX 21 15 14 16 18 17 15 18 16 19 19 20 20 21 17 22
REMARK H PARENT 11 12 17 23
REMARK Flexibility Score: inf
ROOT
ATOM      1  C   UNL     1      97.077  83.554  80.223  1.00  0.00     0.010 C 
ENDROOT
BRANCH   1   2
ATOM      2  C   UNL     1      97.496  83.295  78.747  1.00  0.00     0.001 C 
BRANCH   2   3
ATOM      3  C   UNL     1      96.318  83.519  77.753  1.00  0.00     0.000 C 
BRANCH   3   4
ATOM      4  C   UNL     1      96.668  84.468  76.572  1.00  0.00    -0.000 C 
BRANCH   4   5
ATOM      5  C   UNL     1      97.746  83.872  75.622  1.00  0.00    -0.000 C 
BRANCH   5   6
ATOM      6  C   UNL     1      97.726  84.526  74.214  1.00  0.00    -0.003 C 
ATOM      7  C   UNL     1      99.120  85.012  73.759  1.00  0.00     0.004 C 
ENDBRANCH   5   6
ENDBRANCH   4   5
ENDBRANCH   3   4
ENDBRANCH   2   3
ENDBRANCH   1   2
BRANCH   1   8
ATOM      8  C   UNL     1      97.249  82.320  81.152  1.00  0.00     0.100 C 
BRANCH   8   9
ATOM      9  C   UNL     1      96.923  82.653  82.560  1.00  0.00     0.220 C 
ATOM     10  O   UNL     1      97.636  82.164  83.468  1.00  0.00    -0.275 OA
ATOM     11  N   UNL     1      95.888  83.496  82.851  1.00  0.00    -0.352 N 
ATOM     12  H   UNL     1      95.328  83.761  82.053  1.00  0.00     0.163 HD
BRANCH  11  13
ATOM     13  C   UNL     1      95.563  84.003  84.149  1.00  0.00     0.151 C 
BRANCH  13  14
ATOM     14  C   UNL     1      94.600  83.156  84.902  1.00  0.00    -0.025 A 
ATOM     15  C   UNL     1      94.591  83.173  86.317  1.00  0.00     0.056 A 
ATOM     16  C   UNL     1      93.683  82.320  84.223  1.00  0.00     0.009 A 
ATOM     17  C   UNL     1      93.669  82.387  87.046  1.00  0.00     0.160 A 
ATOM     18  C   UNL     1      92.763  81.537  84.942  1.00  0.00     0.050 A 
ATOM     19  C   UNL     1      92.757  81.561  86.350  1.00  0.00     0.157 A 
BRANCH  17  20
ATOM     20  O   UNL     1      93.690  82.372  88.418  1.00  0.00    -0.493 OA
ATOM     21  C   UNL     1      93.579  83.673  89.022  1.00  0.00     0.278 C 
ENDBRANCH  17  20
BRANCH  19  22
ATOM     22  O   UNL     1      91.884  80.780  87.036  1.00  0.00    -0.504 OA
ATOM     23  H   UNL     1      92.007  80.913  87.979  1.00  0.00     0.293 HD
ENDBRANCH  19  22
ENDBRANCH  13  14
ENDBRANCH  11  13
ENDBRANCH   8   9
ENDBRANCH   1   8
TORSDOF 11
ENDMDL
MODEL 6
REMARK VINA RESULT:    -5.304     20.695     25.335
REMARK INTER + INTRA:          -9.499
REMARK INTER:                  -8.662
REMARK INTRA:                  -0.837
REMARK UNBOUND:                -0.940
REMARK SMILES CCCCCCCCC(=O)NCc1ccc(O)c(OC)c1
REMARK SMILES IDX 7 1 6 2 5 3 4 4 3 5 2 6 1 7 8 8 9 9 10 10 11 11 12 13 13 14
REMARK SMILES IDX 21 15 14 16 18 17 15 18 16 19 19 20 20 21 17 22
REMARK H PARENT 11 12 17 23
REMARK Flexibility Score: inf
ROOT
ATOM      1  C   UNL     1      95.220  84.117  84.907  1.00  0.00     0.010 C 
ENDROOT
BRANCH   1   2
ATOM      2  C   UNL     1      96.710  83.674  84.988  1.00  0.00     0.001 C 
BRANCH   2   3
ATOM      3  C   UNL     1      97.094  82.687  83.847  1.00  0.00     0.000 C 
BRANCH   3   4
ATOM      4  C   UNL     1      96.110  82.707  82.643  1.00  0.00    -0.000 C 
BRANCH   4   5
ATOM      5  C   UNL     1      96.772  83.228  81.335  1.00  0.00    -0.000 C 
BRANCH   5   6
ATOM      6  C   UNL     1      97.473  82.099  80.533  1.00  0.00    -0.003 C 
ATOM      7  C   UNL     1      98.996  82.318  80.395  1.00  0.00     0.004 C 
ENDBRANCH   5   6
ENDBRANCH   4   5
ENDBRANCH   3   4
ENDBRANCH   2   3
ENDBRANCH   1   2
BRANCH   1   8
ATOM      8  C   UNL     1      94.338  83.573  86.066  1.00  0.00     0.100 C 
BRANCH   8   9
ATOM      9  C   UNL     1      93.856  82.201  85.779  1.00  0.00     0.220 C 
ATOM     10  O   UNL     1      93.884  81.354  86.704  1.00  0.00    -0.275 OA
ATOM     11  N   UNL     1      93.367  81.881  84.545  1.00  0.00    -0.352 N 
ATOM     12  H   UNL     1      93.471  82.609  83.853  1.00  0.00     0.163 HD
BRANCH  11  13
ATOM     13  C   UNL     1      92.746  80.642  84.187  1.00  0.00     0.151 C 
BRANCH  13  14
ATOM     14  C   UNL     1      91.261  80.669  84.267  1.00  0.00    -0.025 A 
ATOM     15  C   UNL     1      90.525  79.460  84.250  1.00  0.00     0.056 A 
ATOM     16  C   UNL     1      90.560  81.893  84.357  1.00  0.00     0.009 A 
ATOM     17  C   UNL     1      89.115  79.468  84.343  1.00  0.00     0.160 A 
ATOM     18  C   UNL     1      89.157  81.908  84.450  1.00  0.00     0.050 A 
ATOM     19  C   UNL     1      88.431  80.702  84.436  1.00  0.00     0.157 A 
BRANCH  17  20
ATOM     20  O   UNL     1      88.401  78.298  84.284  1.00  0.00    -0.493 OA
ATOM     21  C   UNL     1      89.213  77.111  84.307  1.00  0.00     0.278 C 
ENDBRANCH  17  20
BRANCH  19  22
ATOM     22  O   UNL     1      87.075  80.728  84.499  1.00  0.00    -0.504 OA
ATOM     23  H   UNL     1      86.734  79.834  84.419  1.00  0.00     0.293 HD
ENDBRANCH  19  22
ENDBRANCH  13  14
ENDBRANCH  11  13
ENDBRANCH   8   9
ENDBRANCH   1   8
TORSDOF 11
ENDMDL
MODEL 7
REMARK VINA RESULT:    -5.220     22.387     25.229
REMARK INTER + INTRA:          -9.365
REMARK INTER:                  -8.395
REMARK INTRA:                  -0.970
REMARK UNBOUND:                -0.940
REMARK SMILES CCCCCCCCC(=O)NCc1ccc(O)c(OC)c1
REMARK SMILES IDX 7 1 6 2 5 3 4 4 3 5 2 6 1 7 8 8 9 9 10 10 11 11 12 13 13 14
REMARK SMILES IDX 21 15 14 16 18 17 15 18 16 19 19 20 20 21 17 22
REMARK H PARENT 11 12 17 23
REMARK Flexibility Score: inf
ROOT
ATOM      1  C   UNL     1      92.415  77.682  84.106  1.00  0.00     0.010 C 
ENDROOT
BRANCH   1   2
ATOM      2  C   UNL     1      91.373  78.828  83.964  1.00  0.00     0.001 C 
BRANCH   2   3
ATOM      3  C   UNL     1      91.550  79.925  85.054  1.00  0.00     0.000 C 
BRANCH   3   4
ATOM      4  C   UNL     1      91.601  81.371  84.486  1.00  0.00    -0.000 C 
BRANCH   4   5
ATOM      5  C   UNL     1      90.215  81.870  83.989  1.00  0.00    -0.000 C 
BRANCH   5   6
ATOM      6  C   UNL     1      89.135  81.837  85.104  1.00  0.00    -0.003 C 
ATOM      7  C   UNL     1      88.053  82.924  84.924  1.00  0.00     0.004 C 
ENDBRANCH   5   6
ENDBRANCH   4   5
ENDBRANCH   3   4
ENDBRANCH   2   3
ENDBRANCH   1   2
BRANCH   1   8
ATOM      8  C   UNL     1      93.634  78.047  85.000  1.00  0.00     0.100 C 
BRANCH   8   9
ATOM      9  C   UNL     1      94.731  78.641  84.200  1.00  0.00     0.220 C 
ATOM     10  O   UNL     1      95.323  77.913  83.368  1.00  0.00    -0.275 OA
ATOM     11  N   UNL     1      95.065  79.957  84.349  1.00  0.00    -0.352 N 
ATOM     12  H   UNL     1      94.587  80.426  85.104  1.00  0.00     0.163 HD
BRANCH  11  13
ATOM     13  C   UNL     1      96.002  80.678  83.543  1.00  0.00     0.151 C 
BRANCH  13  14
ATOM     14  C   UNL     1      95.903  82.156  83.682  1.00  0.00    -0.025 A 
ATOM     15  C   UNL     1      95.488  82.730  84.907  1.00  0.00     0.056 A 
ATOM     16  C   UNL     1      96.215  83.010  82.599  1.00  0.00     0.009 A 
ATOM     17  C   UNL     1      95.405  84.133  85.060  1.00  0.00     0.160 A 
ATOM     18  C   UNL     1      96.136  84.406  82.745  1.00  0.00     0.050 A 
ATOM     19  C   UNL     1      95.725  84.971  83.968  1.00  0.00     0.157 A 
BRANCH  17  20
ATOM     20  O   UNL     1      94.962  84.686  86.235  1.00  0.00    -0.493 OA
ATOM     21  C   UNL     1      93.632  84.285  86.610  1.00  0.00     0.278 C 
ENDBRANCH  17  20
BRANCH  19  22
ATOM     22  O   UNL     1      95.625  86.319  84.089  1.00  0.00    -0.504 OA
ATOM     23  H   UNL     1      95.267  86.688  83.278  1.00  0.00     0.293 HD
ENDBRANCH  19  22
ENDBRANCH  13  14
ENDBRANCH  11  13
ENDBRANCH   8   9
ENDBRANCH   1   8
TORSDOF 11
ENDMDL
MODEL 8
REMARK VINA RESULT:    -5.178     16.100     19.863
REMARK INTER + INTRA:          -9.296
REMARK INTER:                  -8.372
REMARK INTRA:                  -0.924
REMARK UNBOUND:                -0.940
REMARK SMILES CCCCCCCCC(=O)NCc1ccc(O)c(OC)c1
REMARK SMILES IDX 7 1 6 2 5 3 4 4 3 5 2 6 1 7 8 8 9 9 10 10 11 11 12 13 13 14
REMARK SMILES IDX 21 15 14 16 18 17 15 18 16 19 19 20 20 21 17 22
REMARK H PARENT 11 12 17 23
REMARK Flexibility Score: inf
ROOT
ATOM      1  C   UNL     1      91.114  75.669  79.177  1.00  0.00     0.010 C 
ENDROOT
BRANCH   1   2
ATOM      2  C   UNL     1      90.127  74.843  78.303  1.00  0.00     0.001 C 
BRANCH   2   3
ATOM      3  C   UNL     1      90.780  74.357  76.976  1.00  0.00     0.000 C 
BRANCH   3   4
ATOM      4  C   UNL     1      91.267  75.514  76.058  1.00  0.00    -0.000 C 
BRANCH   4   5
ATOM      5  C   UNL     1      90.097  76.377  75.507  1.00  0.00    -0.000 C 
BRANCH   5   6
ATOM      6  C   UNL     1      90.325  77.897  75.721  1.00  0.00    -0.003 C 
ATOM      7  C   UNL     1      91.639  78.207  76.472  1.00  0.00     0.004 C 
ENDBRANCH   5   6
ENDBRANCH   4   5
ENDBRANCH   3   4
ENDBRANCH   2   3
ENDBRANCH   1   2
BRANCH   1   8
ATOM      8  C   UNL     1      91.875  74.823  80.237  1.00  0.00     0.100 C 
BRANCH   8   9
ATOM      9  C   UNL     1      91.512  75.233  81.616  1.00  0.00     0.220 C 
ATOM     10  O   UNL     1      90.358  74.968  82.031  1.00  0.00    -0.275 OA
ATOM     11  N   UNL     1      92.425  75.855  82.418  1.00  0.00    -0.352 N 
ATOM     12  H   UNL     1      93.290  76.097  81.956  1.00  0.00     0.163 HD
BRANCH  11  13
ATOM     13  C   UNL     1      92.244  76.170  83.802  1.00  0.00     0.151 C 
BRANCH  13  14
ATOM     14  C   UNL     1      92.096  77.625  84.073  1.00  0.00    -0.025 A 
ATOM     15  C   UNL     1      93.222  78.398  84.446  1.00  0.00     0.056 A 
ATOM     16  C   UNL     1      90.837  78.260  83.968  1.00  0.00     0.009 A 
ATOM     17  C   UNL     1      93.100  79.786  84.690  1.00  0.00     0.160 A 
ATOM     18  C   UNL     1      90.710  79.640  84.208  1.00  0.00     0.050 A 
ATOM     19  C   UNL     1      91.834  80.403  84.576  1.00  0.00     0.157 A 
BRANCH  17  20
ATOM     20  O   UNL     1      94.184  80.525  85.093  1.00  0.00    -0.493 OA
ATOM     21  C   UNL     1      95.280  80.518  84.161  1.00  0.00     0.278 C 
ENDBRANCH  17  20
BRANCH  19  22
ATOM     22  O   UNL     1      91.696  81.729  84.833  1.00  0.00    -0.504 OA
ATOM     23  H   UNL     1      91.690  82.216  84.005  1.00  0.00     0.293 HD
ENDBRANCH  19  22
ENDBRANCH  13  14
ENDBRANCH  11  13
ENDBRANCH   8   9
ENDBRANCH   1   8
TORSDOF 11
ENDMDL
MODEL 9
REMARK VINA RESULT:    -5.160     24.167     26.412
REMARK INTER + INTRA:          -9.268
REMARK INTER:                  -8.497
REMARK INTRA:                  -0.770
REMARK UNBOUND:                -0.940
REMARK SMILES CCCCCCCCC(=O)NCc1ccc(O)c(OC)c1
REMARK SMILES IDX 7 1 6 2 5 3 4 4 3 5 2 6 1 7 8 8 9 9 10 10 11 11 12 13 13 14
REMARK SMILES IDX 21 15 14 16 18 17 15 18 16 19 19 20 20 21 17 22
REMARK H PARENT 11 12 17 23
REMARK Flexibility Score: inf
ROOT
ATOM      1  C   UNL     1      98.039  82.707  77.528  1.00  0.00     0.010 C 
ENDROOT
BRANCH   1   2
ATOM      2  C   UNL     1      97.763  81.331  78.199  1.00  0.00     0.001 C 
BRANCH   2   3
ATOM      3  C   UNL     1      98.572  81.145  79.516  1.00  0.00     0.000 C 
BRANCH   3   4
ATOM      4  C   UNL     1      98.515  82.375  80.466  1.00  0.00    -0.000 C 
BRANCH   4   5
ATOM      5  C   UNL     1      97.100  82.599  81.073  1.00  0.00    -0.000 C 
BRANCH   5   6
ATOM      6  C   UNL     1      96.680  81.460  82.042  1.00  0.00    -0.003 C 
ATOM      7  C   UNL     1      95.785  81.956  83.199  1.00  0.00     0.004 C 
ENDBRANCH   5   6
ENDBRANCH   4   5
ENDBRANCH   3   4
ENDBRANCH   2   3
ENDBRANCH   1   2
BRANCH   1   8
ATOM      8  C   UNL     1      96.804  83.650  77.492  1.00  0.00     0.100 C 
BRANCH   8   9
ATOM      9  C   UNL     1      96.787  84.472  76.258  1.00  0.00     0.220 C 
ATOM     10  O   UNL     1      96.050  85.486  76.229  1.00  0.00    -0.275 OA
ATOM     11  N   UNL     1      97.579  84.143  75.195  1.00  0.00    -0.352 N 
ATOM     12  H   UNL     1      98.065  83.264  75.292  1.00  0.00     0.163 HD
BRANCH  11  13
ATOM     13  C   UNL     1      97.758  84.928  74.012  1.00  0.00     0.151 C 
BRANCH  13  14
ATOM     14  C   UNL     1      98.716  84.339  73.039  1.00  0.00    -0.025 A 
ATOM     15  C   UNL     1      98.729  82.943  72.809  1.00  0.00     0.056 A 
ATOM     16  C   UNL     1      99.627  85.156  72.331  1.00  0.00     0.009 A 
ATOM     17  C   UNL     1      99.622  82.370  71.874  1.00  0.00     0.160 A 
ATOM     18  C   UNL     1     100.517  84.593  71.399  1.00  0.00     0.050 A 
ATOM     19  C   UNL     1     100.524  83.203  71.173  1.00  0.00     0.157 A 
BRANCH  17  20
ATOM     20  O   UNL     1      99.663  81.012  71.684  1.00  0.00    -0.493 OA
ATOM     21  C   UNL     1      98.633  80.508  70.816  1.00  0.00     0.278 C 
ENDBRANCH  17  20
BRANCH  19  22
ATOM     22  O   UNL     1     101.405  82.666  70.292  1.00  0.00    -0.504 OA
ATOM     23  H   UNL     1     100.971  82.532  69.446  1.00  0.00     0.293 HD
ENDBRANCH  19  22
ENDBRANCH  13  14
ENDBRANCH  11  13
ENDBRANCH   8   9
ENDBRANCH   1   8
TORSDOF 11
ENDMDL
MODEL 10
REMARK VINA RESULT:    -5.106     20.858     22.917
REMARK INTER + INTRA:          -9.180
REMARK INTER:                  -8.435
REMARK INTRA:                  -0.745
REMARK UNBOUND:                -0.940
REMARK SMILES CCCCCCCCC(=O)NCc1ccc(O)c(OC)c1
REMARK SMILES IDX 7 1 6 2 5 3 4 4 3 5 2 6 1 7 8 8 9 9 10 10 11 11 12 13 13 14
REMARK SMILES IDX 21 15 14 16 18 17 15 18 16 19 19 20 20 21 17 22
REMARK H PARENT 11 12 17 23
REMARK Flexibility Score: inf
ROOT
ATOM      1  C   UNL     1      76.612  87.650  66.569  1.00  0.00     0.010 C 
ENDROOT
BRANCH   1   2
ATOM      2  C   UNL     1      76.851  89.097  67.089  1.00  0.00     0.001 C 
BRANCH   2   3
ATOM      3  C   UNL     1      76.422  89.267  68.577  1.00  0.00     0.000 C 
BRANCH   3   4
ATOM      4  C   UNL     1      74.956  89.754  68.755  1.00  0.00    -0.000 C 
BRANCH   4   5
ATOM      5  C   UNL     1      74.265  89.136  70.003  1.00  0.00    -0.000 C 
BRANCH   5   6
ATOM      6  C   UNL     1      73.604  90.208  70.911  1.00  0.00    -0.003 C 
ATOM      7  C   UNL     1      74.490  91.458  71.106  1.00  0.00     0.004 C 
ENDBRANCH   5   6
ENDBRANCH   4   5
ENDBRANCH   3   4
ENDBRANCH   2   3
ENDBRANCH   1   2
BRANCH   1   8
ATOM      8  C   UNL     1      77.255  86.548  67.457  1.00  0.00     0.100 C 
BRANCH   8   9
ATOM      9  C   UNL     1      77.113  85.207  66.840  1.00  0.00     0.220 C 
ATOM     10  O   UNL     1      77.904  84.301  67.196  1.00  0.00    -0.275 OA
ATOM     11  N   UNL     1      76.124  84.964  65.930  1.00  0.00    -0.352 N 
ATOM     12  H   UNL     1      75.602  85.781  65.652  1.00  0.00     0.163 HD
BRANCH  11  13
ATOM     13  C   UNL     1      75.797  83.686  65.374  1.00  0.00     0.151 C 
BRANCH  13  14
ATOM     14  C   UNL     1      74.364  83.542  65.003  1.00  0.00    -0.025 A 
ATOM     15  C   UNL     1      73.362  84.190  65.764  1.00  0.00     0.056 A 
ATOM     16  C   UNL     1      73.976  82.757  63.893  1.00  0.00     0.009 A 
ATOM     17  C   UNL     1      71.997  84.076  65.414  1.00  0.00     0.160 A 
ATOM     18  C   UNL     1      72.620  82.640  63.538  1.00  0.00     0.050 A 
ATOM     19  C   UNL     1      71.629  83.290  64.298  1.00  0.00     0.157 A 
BRANCH  17  20
ATOM     20  O   UNL     1      71.024  84.671  66.178  1.00  0.00    -0.493 OA
ATOM     21  C   UNL     1      70.723  83.970  67.397  1.00  0.00     0.278 C 
ENDBRANCH  17  20
BRANCH  19  22
ATOM     22  O   UNL     1      70.321  83.149  63.964  1.00  0.00    -0.504 OA
ATOM     23  H   UNL     1      70.244  82.548  63.219  1.00  0.00     0.293 HD
ENDBRANCH  19  22
ENDBRANCH  13  14
ENDBRANCH  11  13
ENDBRANCH   8   9
ENDBRANCH   1   8
TORSDOF 11
ENDMDL
