MODEL 1
REMARK VINA RESULT:    -5.861      0.000      0.000
REMARK INTER + INTRA:         -10.083
REMARK INTER:                  -9.459
REMARK INTRA:                  -0.625
REMARK UNBOUND:                -0.625
REMARK SMILES COc1cc(CNC(=O)CCCCC/C=C/C(C)C)ccc1O
REMARK SMILES IDX 11 1 10 2 8 3 7 4 9 6 6 7 5 8 3 9 22 10 4 11 21 12 20 13
REMARK SMILES IDX 2 14 1 15 23 16 12 18 13 19 14 20 15 21 16 22 17 23 18 24
REMARK SMILES IDX 19 25
REMARK H PARENT 7 5 23 17
REMARK Flexibility Score: inf
ROOT
ATOM      1  C   UNL     1      97.392  84.065  84.055  1.00  0.00     0.010 C 
ENDROOT
BRANCH   1   2
ATOM      2  C   UNL     1      97.719  83.707  85.528  1.00  0.00     0.100 C 
BRANCH   2   3
ATOM      3  C   UNL     1      96.643  84.042  86.480  1.00  0.00     0.220 C 
ATOM      4  N   UNL     1      95.990  85.232  86.373  1.00  0.00    -0.352 N 
ATOM      5  H   UNL     1      96.357  85.852  85.664  1.00  0.00     0.163 HD
ATOM      6  O   UNL     1      96.329  83.193  87.347  1.00  0.00    -0.275 OA
BRANCH   4   7
ATOM      7  C   UNL     1      94.874  85.639  87.162  1.00  0.00     0.151 C 
BRANCH   7   8
ATOM      8  C   UNL     1      94.934  87.075  87.541  1.00  0.00    -0.025 A 
ATOM      9  C   UNL     1      94.470  88.882  89.143  1.00  0.00     0.160 A 
ATOM     10  C   UNL     1      95.003  89.823  88.235  1.00  0.00     0.157 A 
ATOM     11  C   UNL     1      94.431  87.519  88.787  1.00  0.00     0.056 A 
ATOM     12  C   UNL     1      95.522  89.390  87.001  1.00  0.00     0.050 A 
ATOM     13  C   UNL     1      95.497  88.025  86.661  1.00  0.00     0.009 A 
BRANCH   9  14
ATOM     14  O   UNL     1      94.044  89.281  90.383  1.00  0.00    -0.493 OA
ATOM     15  C   UNL     1      94.774  88.693  91.472  1.00  0.00     0.278 C 
ENDBRANCH   9  14
BRANCH  10  16
ATOM     16  O   UNL     1      95.033  91.147  88.529  1.00  0.00    -0.504 OA
ATOM     17  H   UNL     1      94.196  91.548  88.283  1.00  0.00     0.293 HD
ENDBRANCH  10  16
ENDBRANCH   7   8
ENDBRANCH   4   7
ENDBRANCH   2   3
ENDBRANCH   1   2
BRANCH   1  18
ATOM     18  C   UNL     1      97.954  82.997  83.082  1.00  0.00     0.001 C 
BRANCH  18  19
ATOM     19  C   UNL     1      96.925  82.510  82.030  1.00  0.00     0.004 C 
BRANCH  19  20
ATOM     20  C   UNL     1      97.401  81.205  81.334  1.00  0.00     0.027 C 
BRANCH  20  21
ATOM     21  C   UNL     1      97.642  81.357  79.909  1.00  0.00    -0.031 C 
ATOM     22  C   UNL     1      96.695  81.801  79.064  1.00  0.00    -0.028 C 
BRANCH  22  23
ATOM     23  C   UNL     1      96.906  81.970  77.628  1.00  0.00     0.005 C 
ATOM     24  C   UNL     1      97.149  83.466  77.293  1.00  0.00     0.012 C 
ATOM     25  C   UNL     1      98.070  81.062  77.146  1.00  0.00     0.012 C 
ENDBRANCH  22  23
ENDBRANCH  20  21
ENDBRANCH  19  20
ENDBRANCH  18  19
ENDBRANCH   1  18
TORSDOF 11
ENDMDL
MODEL 2
REMARK VINA RESULT:    -5.811     26.114     28.163
REMARK INTER + INTRA:         -10.002
REMARK INTER:                  -9.131
REMARK INTRA:                  -0.871
REMARK UNBOUND:                -0.625
REMARK SMILES COc1cc(CNC(=O)CCCCC/C=C/C(C)C)ccc1O
REMARK SMILES IDX 11 1 10 2 8 3 7 4 9 6 6 7 5 8 3 9 22 10 4 11 21 12 20 13
REMARK SMILES IDX 2 14 1 15 23 16 12 18 13 19 14 20 15 21 16 22 17 23 18 24
REMARK SMILES IDX 19 25
REMARK H PARENT 7 5 23 17
REMARK Flexibility Score: inf
ROOT
ATOM      1  C   UNL     1      76.955  91.070  63.899  1.00  0.00     0.010 C 
ENDROOT
BRANCH   1   2
ATOM      2  C   UNL     1      77.579  89.771  63.327  1.00  0.00     0.100 C 
BRANCH   2   3
ATOM      3  C   UNL     1      77.529  88.624  64.252  1.00  0.00     0.220 C 
ATOM      4  N   UNL     1      77.954  88.771  65.538  1.00  0.00    -0.352 N 
ATOM      5  H   UNL     1      78.354  89.675  65.749  1.00  0.00     0.163 HD
ATOM      6  O   UNL     1      77.054  87.541  63.835  1.00  0.00    -0.275 OA
BRANCH   4   7
ATOM      7  C   UNL     1      77.871  87.777  66.558  1.00  0.00     0.151 C 
BRANCH   7   8
ATOM      8  C   UNL     1      76.574  87.807  67.283  1.00  0.00    -0.025 A 
ATOM      9  C   UNL     1      74.575  86.655  68.132  1.00  0.00     0.160 A 
ATOM     10  C   UNL     1      74.076  87.882  68.620  1.00  0.00     0.157 A 
ATOM     11  C   UNL     1      75.814  86.628  67.461  1.00  0.00     0.056 A 
ATOM     12  C   UNL     1      74.831  89.059  68.463  1.00  0.00     0.050 A 
ATOM     13  C   UNL     1      76.076  89.020  67.809  1.00  0.00     0.009 A 
BRANCH   9  14
ATOM     14  O   UNL     1      73.889  85.490  68.356  1.00  0.00    -0.493 OA
ATOM     15  C   UNL     1      74.421  84.691  69.425  1.00  0.00     0.278 C 
ENDBRANCH   9  14
BRANCH  10  16
ATOM     16  O   UNL     1      72.875  87.956  69.246  1.00  0.00    -0.504 OA
ATOM     17  H   UNL     1      72.809  88.792  69.713  1.00  0.00     0.293 HD
ENDBRANCH  10  16
ENDBRANCH   7   8
ENDBRANCH   4   7
ENDBRANCH   2   3
ENDBRANCH   1   2
BRANCH   1  18
ATOM     18  C   UNL     1      77.895  92.284  63.683  1.00  0.00     0.001 C 
BRANCH  18  19
ATOM     19  C   UNL     1      77.568  93.495  64.593  1.00  0.00     0.004 C 
BRANCH  19  20
ATOM     20  C   UNL     1      78.800  94.428  64.760  1.00  0.00     0.027 C 
BRANCH  20  21
ATOM     21  C   UNL     1      78.700  95.330  65.895  1.00  0.00    -0.031 C 
ATOM     22  C   UNL     1      78.432  94.894  67.138  1.00  0.00    -0.028 C 
BRANCH  22  23
ATOM     23  C   UNL     1      78.331  95.773  68.300  1.00  0.00     0.005 C 
ATOM     24  C   UNL     1      77.359  95.170  69.348  1.00  0.00     0.012 C 
ATOM     25  C   UNL     1      79.740  96.046  68.891  1.00  0.00     0.012 C 
ENDBRANCH  22  23
ENDBRANCH  20  21
ENDBRANCH  19  20
ENDBRANCH  18  19
ENDBRANCH   1  18
TORSDOF 11
ENDMDL
MODEL 3
REMARK VINA RESULT:    -5.730     35.083     36.509
REMARK INTER + INTRA:          -9.872
REMARK INTER:                  -8.450
REMARK INTRA:                  -1.422
REMARK UNBOUND:                -0.625
REMARK SMILES COc1cc(CNC(=O)CCCCC/C=C/C(C)C)ccc1O
REMARK SMILES IDX 11 1 10 2 8 3 7 4 9 6 6 7 5 8 3 9 22 10 4 11 21 12 20 13
REMARK SMILES IDX 2 14 1 15 23 16 12 18 13 19 14 20 15 21 16 22 17 23 18 24
REMARK SMILES IDX 19 25
REMARK H PARENT 7 5 23 17
REMARK Flexibility Score: inf
ROOT
ATOM      1  C   UNL     1      63.868  86.923  73.898  1.00  0.00     0.010 C 
ENDROOT
BRANCH   1   2
ATOM      2  C   UNL     1      62.407  86.672  74.352  1.00  0.00     0.100 C 
BRANCH   2   3
ATOM      3  C   UNL     1      61.520  86.187  73.279  1.00  0.00     0.220 C 
ATOM      4  N   UNL     1      61.427  84.851  73.028  1.00  0.00    -0.352 N 
ATOM      5  H   UNL     1      62.054  84.276  73.573  1.00  0.00     0.163 HD
ATOM      6  O   UNL     1      60.837  87.026  72.645  1.00  0.00    -0.275 OA
BRANCH   4   7
ATOM      7  C   UNL     1      60.541  84.243  72.090  1.00  0.00     0.151 C 
BRANCH   7   8
ATOM      8  C   UNL     1      61.259  83.504  71.020  1.00  0.00    -0.025 A 
ATOM      9  C   UNL     1      61.818  83.190  68.646  1.00  0.00     0.160 A 
ATOM     10  C   UNL     1      62.591  82.056  68.978  1.00  0.00     0.157 A 
ATOM     11  C   UNL     1      61.152  83.899  69.666  1.00  0.00     0.056 A 
ATOM     12  C   UNL     1      62.718  81.664  70.323  1.00  0.00     0.050 A 
ATOM     13  C   UNL     1      62.066  82.388  71.338  1.00  0.00     0.009 A 
BRANCH   9  14
ATOM     14  O   UNL     1      61.759  83.632  67.351  1.00  0.00    -0.493 OA
ATOM     15  C   UNL     1      62.758  84.610  67.017  1.00  0.00     0.278 C 
ENDBRANCH   9  14
BRANCH  10  16
ATOM     16  O   UNL     1      63.224  81.329  68.023  1.00  0.00    -0.504 OA
ATOM     17  H   UNL     1      64.169  81.332  68.194  1.00  0.00     0.293 HD
ENDBRANCH  10  16
ENDBRANCH   7   8
ENDBRANCH   4   7
ENDBRANCH   2   3
ENDBRANCH   1   2
BRANCH   1  18
ATOM     18  C   UNL     1      64.593  85.590  73.585  1.00  0.00     0.001 C 
BRANCH  18  19
ATOM     19  C   UNL     1      65.287  84.953  74.816  1.00  0.00     0.004 C 
BRANCH  19  20
ATOM     20  C   UNL     1      64.311  84.036  75.605  1.00  0.00     0.027 C 
BRANCH  20  21
ATOM     21  C   UNL     1      64.015  82.782  74.934  1.00  0.00    -0.031 C 
ATOM     22  C   UNL     1      64.911  82.159  74.149  1.00  0.00    -0.028 C 
BRANCH  22  23
ATOM     23  C   UNL     1      64.647  80.895  73.465  1.00  0.00     0.005 C 
ATOM     24  C   UNL     1      65.856  79.935  73.623  1.00  0.00     0.012 C 
ATOM     25  C   UNL     1      63.325  80.269  73.985  1.00  0.00     0.012 C 
ENDBRANCH  22  23
ENDBRANCH  20  21
ENDBRANCH  19  20
ENDBRANCH  18  19
ENDBRANCH   1  18
TORSDOF 11
ENDMDL
MODEL 4
REMARK VINA RESULT:    -5.628      8.484     10.249
REMARK INTER + INTRA:          -9.708
REMARK INTER:                  -7.804
REMARK INTRA:                  -1.904
REMARK UNBOUND:                -0.625
REMARK SMILES COc1cc(CNC(=O)CCCCC/C=C/C(C)C)ccc1O
REMARK SMILES IDX 11 1 10 2 8 3 7 4 9 6 6 7 5 8 3 9 22 10 4 11 21 12 20 13
REMARK SMILES IDX 2 14 1 15 23 16 12 18 13 19 14 20 15 21 16 22 17 23 18 24
REMARK SMILES IDX 19 25
REMARK H PARENT 7 5 23 17
REMARK Flexibility Score: inf
ROOT
ATOM      1  C   UNL     1     102.189  80.646  80.433  1.00  0.00     0.010 C 
ENDROOT
BRANCH   1   2
ATOM      2  C   UNL     1     101.491  79.796  81.526  1.00  0.00     0.100 C 
BRANCH   2   3
ATOM      3  C   UNL     1     100.038  79.636  81.326  1.00  0.00     0.220 C 
ATOM      4  N   UNL     1      99.244  80.737  81.216  1.00  0.00    -0.352 N 
ATOM      5  H   UNL     1      99.721  81.617  81.357  1.00  0.00     0.163 HD
ATOM      6  O   UNL     1      99.576  78.476  81.221  1.00  0.00    -0.275 OA
BRANCH   4   7
ATOM      7  C   UNL     1      97.847  80.726  80.925  1.00  0.00     0.151 C 
BRANCH   7   8
ATOM      8  C   UNL     1      97.548  81.170  79.539  1.00  0.00    -0.025 A 
ATOM      9  C   UNL     1      97.411  80.701  77.129  1.00  0.00     0.160 A 
ATOM     10  C   UNL     1      97.027  82.039  76.891  1.00  0.00     0.157 A 
ATOM     11  C   UNL     1      97.676  80.280  78.447  1.00  0.00     0.056 A 
ATOM     12  C   UNL     1      96.879  82.929  77.971  1.00  0.00     0.050 A 
ATOM     13  C   UNL     1      97.127  82.495  79.286  1.00  0.00     0.009 A 
BRANCH   9  14
ATOM     14  O   UNL     1      97.472  79.804  76.095  1.00  0.00    -0.493 OA
ATOM     15  C   UNL     1      98.756  79.734  75.454  1.00  0.00     0.278 C 
ENDBRANCH   9  14
BRANCH  10  16
ATOM     16  O   UNL     1      96.789  82.492  75.635  1.00  0.00    -0.504 OA
ATOM     17  H   UNL     1      97.320  81.992  75.009  1.00  0.00     0.293 HD
ENDBRANCH  10  16
ENDBRANCH   7   8
ENDBRANCH   4   7
ENDBRANCH   2   3
ENDBRANCH   1   2
BRANCH   1  18
ATOM     18  C   UNL     1     102.408  79.822  79.139  1.00  0.00     0.001 C 
BRANCH  18  19
ATOM     19  C   UNL     1     102.211  80.641  77.838  1.00  0.00     0.004 C 
BRANCH  19  20
ATOM     20  C   UNL     1     100.951  81.547  77.924  1.00  0.00     0.027 C 
BRANCH  20  21
ATOM     21  C   UNL     1     100.805  82.453  76.797  1.00  0.00    -0.031 C 
ATOM     22  C   UNL     1     101.640  82.429  75.743  1.00  0.00    -0.028 C 
BRANCH  22  23
ATOM     23  C   UNL     1     101.517  83.321  74.593  1.00  0.00     0.005 C 
ATOM     24  C   UNL     1     100.023  83.627  74.307  1.00  0.00     0.012 C 
ATOM     25  C   UNL     1     102.349  84.612  74.824  1.00  0.00     0.012 C 
ENDBRANCH  22  23
ENDBRANCH  20  21
ENDBRANCH  19  20
ENDBRANCH  18  19
ENDBRANCH   1  18
TORSDOF 11
ENDMDL
MODEL 5
REMARK VINA RESULT:    -5.617     24.825     26.491
REMARK INTER + INTRA:          -9.690
REMARK INTER:                  -8.644
REMARK INTRA:                  -1.046
REMARK UNBOUND:                -0.625
REMARK SMILES COc1cc(CNC(=O)CCCCC/C=C/C(C)C)ccc1O
REMARK SMILES IDX 11 1 10 2 8 3 7 4 9 6 6 7 5 8 3 9 22 10 4 11 21 12 20 13
REMARK SMILES IDX 2 14 1 15 23 16 12 18 13 19 14 20 15 21 16 22 17 23 18 24
REMARK SMILES IDX 19 25
REMARK H PARENT 7 5 23 17
REMARK Flexibility Score: inf
ROOT
ATOM      1  C   UNL     1      74.296  89.435  69.317  1.00  0.00     0.010 C 
ENDROOT
BRANCH   1   2
ATOM      2  C   UNL     1      75.313  90.335  68.569  1.00  0.00     0.100 C 
BRANCH   2   3
ATOM      3  C   UNL     1      75.300  91.744  69.003  1.00  0.00     0.220 C 
ATOM      4  N   UNL     1      75.547  92.734  68.101  1.00  0.00    -0.352 N 
ATOM      5  H   UNL     1      75.801  92.409  67.178  1.00  0.00     0.163 HD
ATOM      6  O   UNL     1      75.019  91.996  70.199  1.00  0.00    -0.275 OA
BRANCH   4   7
ATOM      7  C   UNL     1      75.471  94.134  68.364  1.00  0.00     0.151 C 
BRANCH   7   8
ATOM      8  C   UNL     1      76.801  94.737  68.643  1.00  0.00    -0.025 A 
ATOM      9  C   UNL     1      78.448  95.636  70.233  1.00  0.00     0.160 A 
ATOM     10  C   UNL     1      79.317  95.935  69.162  1.00  0.00     0.157 A 
ATOM     11  C   UNL     1      77.194  95.048  69.966  1.00  0.00     0.056 A 
ATOM     12  C   UNL     1      78.943  95.615  67.844  1.00  0.00     0.050 A 
ATOM     13  C   UNL     1      77.699  95.010  67.587  1.00  0.00     0.009 A 
BRANCH   9  14
ATOM     14  O   UNL     1      78.838  95.863  71.526  1.00  0.00    -0.493 OA
ATOM     15  C   UNL     1      77.914  96.659  72.288  1.00  0.00     0.278 C 
ENDBRANCH   9  14
BRANCH  10  16
ATOM     16  O   UNL     1      80.519  96.527  69.374  1.00  0.00    -0.504 OA
ATOM     17  H   UNL     1      81.199  96.052  68.889  1.00  0.00     0.293 HD
ENDBRANCH  10  16
ENDBRANCH   7   8
ENDBRANCH   4   7
ENDBRANCH   2   3
ENDBRANCH   1   2
BRANCH   1  18
ATOM     18  C   UNL     1      73.437  88.614  68.322  1.00  0.00     0.001 C 
BRANCH  18  19
ATOM     19  C   UNL     1      73.342  87.108  68.674  1.00  0.00     0.004 C 
BRANCH  19  20
ATOM     20  C   UNL     1      74.064  86.231  67.613  1.00  0.00     0.027 C 
BRANCH  20  21
ATOM     21  C   UNL     1      75.512  86.238  67.736  1.00  0.00    -0.031 C 
ATOM     22  C   UNL     1      76.292  87.053  67.004  1.00  0.00    -0.028 C 
BRANCH  22  23
ATOM     23  C   UNL     1      77.749  87.088  67.108  1.00  0.00     0.005 C 
ATOM     24  C   UNL     1      78.345  85.693  66.779  1.00  0.00     0.012 C 
ATOM     25  C   UNL     1      78.326  88.206  66.197  1.00  0.00     0.012 C 
ENDBRANCH  22  23
ENDBRANCH  20  21
ENDBRANCH  19  20
ENDBRANCH  18  19
ENDBRANCH   1  18
TORSDOF 11
ENDMDL
MODEL 6
REMARK VINA RESULT:    -5.604     20.539     23.964
REMARK INTER + INTRA:          -9.668
REMARK INTER:                  -8.511
REMARK INTRA:                  -1.157
REMARK UNBOUND:                -0.625
REMARK SMILES COc1cc(CNC(=O)CCCCC/C=C/C(C)C)ccc1O
REMARK SMILES IDX 11 1 10 2 8 3 7 4 9 6 6 7 5 8 3 9 22 10 4 11 21 12 20 13
REMARK SMILES IDX 2 14 1 15 23 16 12 18 13 19 14 20 15 21 16 22 17 23 18 24
REMARK SMILES IDX 19 25
REMARK H PARENT 7 5 23 17
REMARK Flexibility Score: inf
ROOT
ATOM      1  C   UNL     1      82.774  66.138  76.425  1.00  0.00     0.010 C 
ENDROOT
BRANCH   1   2
ATOM      2  C   UNL     1      83.081  66.864  75.090  1.00  0.00     0.100 C 
BRANCH   2   3
ATOM      3  C   UNL     1      84.264  67.744  75.144  1.00  0.00     0.220 C 
ATOM      4  N   UNL     1      84.795  68.093  76.348  1.00  0.00    -0.352 N 
ATOM      5  H   UNL     1      84.274  67.766  77.150  1.00  0.00     0.163 HD
ATOM      6  O   UNL     1      84.777  68.119  74.063  1.00  0.00    -0.275 OA
BRANCH   4   7
ATOM      7  C   UNL     1      85.987  68.853  76.540  1.00  0.00     0.151 C 
BRANCH   7   8
ATOM      8  C   UNL     1      86.505  68.764  77.930  1.00  0.00    -0.025 A 
ATOM      9  C   UNL     1      87.174  67.419  79.878  1.00  0.00     0.160 A 
ATOM     10  C   UNL     1      87.444  68.602  80.601  1.00  0.00     0.157 A 
ATOM     11  C   UNL     1      86.700  67.509  78.553  1.00  0.00     0.056 A 
ATOM     12  C   UNL     1      87.270  69.855  79.985  1.00  0.00     0.050 A 
ATOM     13  C   UNL     1      86.815  69.935  78.656  1.00  0.00     0.009 A 
BRANCH   9  14
ATOM     14  O   UNL     1      87.423  66.194  80.437  1.00  0.00    -0.493 OA
ATOM     15  C   UNL     1      86.270  65.339  80.516  1.00  0.00     0.278 C 
ENDBRANCH   9  14
BRANCH  10  16
ATOM     16  O   UNL     1      87.875  68.560  81.886  1.00  0.00    -0.504 OA
ATOM     17  H   UNL     1      87.477  69.281  82.380  1.00  0.00     0.293 HD
ENDBRANCH  10  16
ENDBRANCH   7   8
ENDBRANCH   4   7
ENDBRANCH   2   3
ENDBRANCH   1   2
BRANCH   1  18
ATOM     18  C   UNL     1      81.655  65.081  76.242  1.00  0.00     0.001 C 
BRANCH  18  19
ATOM     19  C   UNL     1      81.890  64.126  75.045  1.00  0.00     0.004 C 
BRANCH  19  20
ATOM     20  C   UNL     1      80.609  63.978  74.178  1.00  0.00     0.027 C 
BRANCH  20  21
ATOM     21  C   UNL     1      80.357  65.114  73.308  1.00  0.00    -0.031 C 
ATOM     22  C   UNL     1      81.162  65.422  72.276  1.00  0.00    -0.028 C 
BRANCH  22  23
ATOM     23  C   UNL     1      80.934  66.553  71.380  1.00  0.00     0.005 C 
ATOM     24  C   UNL     1      79.757  66.247  70.416  1.00  0.00     0.012 C 
ATOM     25  C   UNL     1      80.701  67.850  72.202  1.00  0.00     0.012 C 
ENDBRANCH  22  23
ENDBRANCH  20  21
ENDBRANCH  19  20
ENDBRANCH  18  19
ENDBRANCH   1  18
TORSDOF 11
ENDMDL
MODEL 7
REMARK VINA RESULT:    -5.601     21.409     25.284
REMARK INTER + INTRA:          -9.664
REMARK INTER:                  -8.776
REMARK INTRA:                  -0.888
REMARK UNBOUND:                -0.625
REMARK SMILES COc1cc(CNC(=O)CCCCC/C=C/C(C)C)ccc1O
REMARK SMILES IDX 11 1 10 2 8 3 7 4 9 6 6 7 5 8 3 9 22 10 4 11 21 12 20 13
REMARK SMILES IDX 2 14 1 15 23 16 12 18 13 19 14 20 15 21 16 22 17 23 18 24
REMARK SMILES IDX 19 25
REMARK H PARENT 7 5 23 17
REMARK Flexibility Score: inf
ROOT
ATOM      1  C   UNL     1      86.189  63.439  80.978  1.00  0.00     0.010 C 
ENDROOT
BRANCH   1   2
ATOM      2  C   UNL     1      85.017  62.938  80.095  1.00  0.00     0.100 C 
BRANCH   2   3
ATOM      3  C   UNL     1      85.257  63.070  78.646  1.00  0.00     0.220 C 
ATOM      4  N   UNL     1      84.211  63.008  77.777  1.00  0.00    -0.352 N 
ATOM      5  H   UNL     1      83.320  62.796  78.205  1.00  0.00     0.163 HD
ATOM      6  O   UNL     1      86.430  63.278  78.254  1.00  0.00    -0.275 OA
BRANCH   4   7
ATOM      7  C   UNL     1      84.289  63.216  76.368  1.00  0.00     0.151 C 
BRANCH   7   8
ATOM      8  C   UNL     1      83.253  64.157  75.870  1.00  0.00    -0.025 A 
ATOM      9  C   UNL     1      81.963  65.126  74.014  1.00  0.00     0.160 A 
ATOM     10  C   UNL     1      81.313  65.992  74.919  1.00  0.00     0.157 A 
ATOM     11  C   UNL     1      82.933  64.222  74.493  1.00  0.00     0.056 A 
ATOM     12  C   UNL     1      81.611  65.924  76.293  1.00  0.00     0.050 A 
ATOM     13  C   UNL     1      82.566  65.006  76.766  1.00  0.00     0.009 A 
BRANCH   9  14
ATOM     14  O   UNL     1      81.617  65.123  72.688  1.00  0.00    -0.493 OA
ATOM     15  C   UNL     1      82.332  66.083  71.892  1.00  0.00     0.278 C 
ENDBRANCH   9  14
BRANCH  10  16
ATOM     16  O   UNL     1      80.394  66.896  74.495  1.00  0.00    -0.504 OA
ATOM     17  H   UNL     1      80.778  67.441  73.804  1.00  0.00     0.293 HD
ENDBRANCH  10  16
ENDBRANCH   7   8
ENDBRANCH   4   7
ENDBRANCH   2   3
ENDBRANCH   1   2
BRANCH   1  18
ATOM     18  C   UNL     1      85.812  64.748  81.718  1.00  0.00     0.001 C 
BRANCH  18  19
ATOM     19  C   UNL     1      86.688  65.963  81.320  1.00  0.00     0.004 C 
BRANCH  19  20
ATOM     20  C   UNL     1      86.512  66.320  79.817  1.00  0.00     0.027 C 
BRANCH  20  21
ATOM     21  C   UNL     1      86.868  67.692  79.497  1.00  0.00    -0.031 C 
ATOM     22  C   UNL     1      86.387  68.324  78.412  1.00  0.00    -0.028 C 
BRANCH  22  23
ATOM     23  C   UNL     1      86.720  69.704  78.065  1.00  0.00     0.005 C 
ATOM     24  C   UNL     1      87.842  70.236  78.996  1.00  0.00     0.012 C 
ATOM     25  C   UNL     1      87.104  69.802  76.564  1.00  0.00     0.012 C 
ENDBRANCH  22  23
ENDBRANCH  20  21
ENDBRANCH  19  20
ENDBRANCH  18  19
ENDBRANCH   1  18
TORSDOF 11
ENDMDL
MODEL 8
REMARK VINA RESULT:    -5.569     26.265     28.263
REMARK INTER + INTRA:          -9.613
REMARK INTER:                  -8.567
REMARK INTRA:                  -1.046
REMARK UNBOUND:                -0.625
REMARK SMILES COc1cc(CNC(=O)CCCCC/C=C/C(C)C)ccc1O
REMARK SMILES IDX 11 1 10 2 8 3 7 4 9 6 6 7 5 8 3 9 22 10 4 11 21 12 20 13
REMARK SMILES IDX 2 14 1 15 23 16 12 18 13 19 14 20 15 21 16 22 17 23 18 24
REMARK SMILES IDX 19 25
REMARK H PARENT 7 5 23 17
REMARK Flexibility Score: inf
ROOT
ATOM      1  C   UNL     1      77.933  91.544  64.002  1.00  0.00     0.010 C 
ENDROOT
BRANCH   1   2
ATOM      2  C   UNL     1      77.587  90.269  63.189  1.00  0.00     0.100 C 
BRANCH   2   3
ATOM      3  C   UNL     1      77.455  89.051  64.010  1.00  0.00     0.220 C 
ATOM      4  N   UNL     1      77.549  89.134  65.366  1.00  0.00    -0.352 N 
ATOM      5  H   UNL     1      77.784  90.052  65.717  1.00  0.00     0.163 HD
ATOM      6  O   UNL     1      77.215  87.965  63.431  1.00  0.00    -0.275 OA
BRANCH   4   7
ATOM      7  C   UNL     1      77.346  88.057  66.279  1.00  0.00     0.151 C 
BRANCH   7   8
ATOM      8  C   UNL     1      76.212  88.301  67.208  1.00  0.00    -0.025 A 
ATOM      9  C   UNL     1      74.941  89.808  68.678  1.00  0.00     0.160 A 
ATOM     10  C   UNL     1      74.078  88.745  69.021  1.00  0.00     0.157 A 
ATOM     11  C   UNL     1      76.005  89.577  67.783  1.00  0.00     0.056 A 
ATOM     12  C   UNL     1      74.264  87.476  68.443  1.00  0.00     0.050 A 
ATOM     13  C   UNL     1      75.317  87.258  67.535  1.00  0.00     0.009 A 
BRANCH   9  14
ATOM     14  O   UNL     1      74.717  91.068  69.167  1.00  0.00    -0.493 OA
ATOM     15  C   UNL     1      74.048  91.945  68.246  1.00  0.00     0.278 C 
ENDBRANCH   9  14
BRANCH  10  16
ATOM     16  O   UNL     1      73.060  88.919  69.901  1.00  0.00    -0.504 OA
ATOM     17  H   UNL     1      73.410  88.938  70.795  1.00  0.00     0.293 HD
ENDBRANCH  10  16
ENDBRANCH   7   8
ENDBRANCH   4   7
ENDBRANCH   2   3
ENDBRANCH   1   2
BRANCH   1  18
ATOM     18  C   UNL     1      76.775  92.572  63.949  1.00  0.00     0.001 C 
BRANCH  18  19
ATOM     19  C   UNL     1      77.247  94.047  64.011  1.00  0.00     0.004 C 
BRANCH  19  20
ATOM     20  C   UNL     1      78.630  94.170  64.710  1.00  0.00     0.027 C 
BRANCH  20  21
ATOM     21  C   UNL     1      78.659  95.153  65.779  1.00  0.00    -0.031 C 
ATOM     22  C   UNL     1      78.283  94.859  67.036  1.00  0.00    -0.028 C 
BRANCH  22  23
ATOM     23  C   UNL     1      78.305  95.822  68.134  1.00  0.00     0.005 C 
ATOM     24  C   UNL     1      77.356  95.363  69.273  1.00  0.00     0.012 C 
ATOM     25  C   UNL     1      79.761  96.037  68.630  1.00  0.00     0.012 C 
ENDBRANCH  22  23
ENDBRANCH  20  21
ENDBRANCH  19  20
ENDBRANCH  18  19
ENDBRANCH   1  18
TORSDOF 11
ENDMDL
MODEL 9
REMARK VINA RESULT:    -5.569     14.312     16.900
REMARK INTER + INTRA:          -9.611
REMARK INTER:                  -8.652
REMARK INTRA:                  -0.960
REMARK UNBOUND:                -0.625
REMARK SMILES COc1cc(CNC(=O)CCCCC/C=C/C(C)C)ccc1O
REMARK SMILES IDX 11 1 10 2 8 3 7 4 9 6 6 7 5 8 3 9 22 10 4 11 21 12 20 13
REMARK SMILES IDX 2 14 1 15 23 16 12 18 13 19 14 20 15 21 16 22 17 23 18 24
REMARK SMILES IDX 19 25
REMARK H PARENT 7 5 23 17
REMARK Flexibility Score: inf
ROOT
ATOM      1  C   UNL     1      82.754  91.808  87.707  1.00  0.00     0.010 C 
ENDROOT
BRANCH   1   2
ATOM      2  C   UNL     1      82.809  92.033  89.241  1.00  0.00     0.100 C 
BRANCH   2   3
ATOM      3  C   UNL     1      83.159  93.411  89.632  1.00  0.00     0.220 C 
ATOM      4  N   UNL     1      83.833  94.213  88.762  1.00  0.00    -0.352 N 
ATOM      5  H   UNL     1      84.118  93.759  87.905  1.00  0.00     0.163 HD
ATOM      6  O   UNL     1      82.784  93.825  90.755  1.00  0.00    -0.275 OA
BRANCH   4   7
ATOM      7  C   UNL     1      84.148  95.588  88.974  1.00  0.00     0.151 C 
BRANCH   7   8
ATOM      8  C   UNL     1      83.094  96.502  88.460  1.00  0.00    -0.025 A 
ATOM      9  C   UNL     1      81.761  98.557  88.671  1.00  0.00     0.160 A 
ATOM     10  C   UNL     1      81.047  98.213  87.503  1.00  0.00     0.157 A 
ATOM     11  C   UNL     1      82.771  97.696  89.145  1.00  0.00     0.056 A 
ATOM     12  C   UNL     1      81.371  97.035  86.804  1.00  0.00     0.050 A 
ATOM     13  C   UNL     1      82.394  96.191  87.273  1.00  0.00     0.009 A 
BRANCH   9  14
ATOM     14  O   UNL     1      81.513  99.744  89.309  1.00  0.00    -0.493 OA
ATOM     15  C   UNL     1      82.325 100.838  88.851  1.00  0.00     0.278 C 
ENDBRANCH   9  14
BRANCH  10  16
ATOM     16  O   UNL     1      80.048  98.999  87.029  1.00  0.00    -0.504 OA
ATOM     17  H   UNL     1      79.982  98.893  86.077  1.00  0.00     0.293 HD
ENDBRANCH  10  16
ENDBRANCH   7   8
ENDBRANCH   4   7
ENDBRANCH   2   3
ENDBRANCH   1   2
BRANCH   1  18
ATOM     18  C   UNL     1      84.000  91.031  87.211  1.00  0.00     0.001 C 
BRANCH  18  19
ATOM     19  C   UNL     1      84.576  91.565  85.875  1.00  0.00     0.004 C 
BRANCH  19  20
ATOM     20  C   UNL     1      84.289  90.586  84.702  1.00  0.00     0.027 C 
BRANCH  20  21
ATOM     21  C   UNL     1      83.181  89.681  84.954  1.00  0.00    -0.031 C 
ATOM     22  C   UNL     1      81.930  89.943  84.534  1.00  0.00    -0.028 C 
BRANCH  22  23
ATOM     23  C   UNL     1      80.796  89.052  84.766  1.00  0.00     0.005 C 
ATOM     24  C   UNL     1      79.518  89.877  85.074  1.00  0.00     0.012 C 
ATOM     25  C   UNL     1      80.605  88.099  83.555  1.00  0.00     0.012 C 
ENDBRANCH  22  23
ENDBRANCH  20  21
ENDBRANCH  19  20
ENDBRANCH  18  19
ENDBRANCH   1  18
TORSDOF 11
ENDMDL
MODEL 10
REMARK VINA RESULT:    -5.420      5.087      6.628
REMARK INTER + INTRA:          -9.371
REMARK INTER:                  -8.563
REMARK INTRA:                  -0.808
REMARK UNBOUND:                -0.625
REMARK SMILES COc1cc(CNC(=O)CCCCC/C=C/C(C)C)ccc1O
REMARK SMILES IDX 11 1 10 2 8 3 7 4 9 6 6 7 5 8 3 9 22 10 4 11 21 12 20 13
REMARK SMILES IDX 2 14 1 15 23 16 12 18 13 19 14 20 15 21 16 22 17 23 18 24
REMARK SMILES IDX 19 25
REMARK H PARENT 7 5 23 17
REMARK Flexibility Score: inf
ROOT
ATOM      1  C   UNL     1      91.983  82.891  88.975  1.00  0.00     0.010 C 
ENDROOT
BRANCH   1   2
ATOM      2  C   UNL     1      91.291  84.047  89.743  1.00  0.00     0.100 C 
BRANCH   2   3
ATOM      3  C   UNL     1      92.219  85.083  90.232  1.00  0.00     0.220 C 
ATOM      4  N   UNL     1      92.164  86.341  89.715  1.00  0.00    -0.352 N 
ATOM      5  H   UNL     1      91.511  86.455  88.952  1.00  0.00     0.163 HD
ATOM      6  O   UNL     1      93.016  84.781  91.152  1.00  0.00    -0.275 OA
BRANCH   4   7
ATOM      7  C   UNL     1      92.933  87.456  90.163  1.00  0.00     0.151 C 
BRANCH   7   8
ATOM      8  C   UNL     1      93.783  88.034  89.089  1.00  0.00    -0.025 A 
ATOM      9  C   UNL     1      95.134  87.756  87.053  1.00  0.00     0.160 A 
ATOM     10  C   UNL     1      95.447  89.133  87.074  1.00  0.00     0.157 A 
ATOM     11  C   UNL     1      94.313  87.216  88.064  1.00  0.00     0.056 A 
ATOM     12  C   UNL     1      94.911  89.959  88.079  1.00  0.00     0.050 A 
ATOM     13  C   UNL     1      94.077  89.415  89.073  1.00  0.00     0.009 A 
BRANCH   9  14
ATOM     14  O   UNL     1      95.578  86.961  86.030  1.00  0.00    -0.493 OA
ATOM     15  C   UNL     1      94.860  85.723  85.893  1.00  0.00     0.278 C 
ENDBRANCH   9  14
BRANCH  10  16
ATOM     16  O   UNL     1      96.256  89.687  86.136  1.00  0.00    -0.504 OA
ATOM     17  H   UNL     1      97.125  89.280  86.184  1.00  0.00     0.293 HD
ENDBRANCH  10  16
ENDBRANCH   7   8
ENDBRANCH   4   7
ENDBRANCH   2   3
ENDBRANCH   1   2
BRANCH   1  18
ATOM     18  C   UNL     1      91.649  82.945  87.462  1.00  0.00     0.001 C 
BRANCH  18  19
ATOM     19  C   UNL     1      92.719  82.276  86.563  1.00  0.00     0.004 C 
BRANCH  19  20
ATOM     20  C   UNL     1      92.132  81.885  85.178  1.00  0.00     0.027 C 
BRANCH  20  21
ATOM     21  C   UNL     1      91.103  80.861  85.248  1.00  0.00    -0.031 C 
ATOM     22  C   UNL     1      89.874  81.040  84.732  1.00  0.00    -0.028 C 
BRANCH  22  23
ATOM     23  C   UNL     1      88.821  80.029  84.781  1.00  0.00     0.005 C 
ATOM     24  C   UNL     1      87.531  80.563  84.103  1.00  0.00     0.012 C 
ATOM     25  C   UNL     1      89.318  78.705  84.140  1.00  0.00     0.012 C 
ENDBRANCH  22  23
ENDBRANCH  20  21
ENDBRANCH  19  20
ENDBRANCH  18  19
ENDBRANCH   1  18
TORSDOF 11
ENDMDL
