MODEL 1
REMARK VINA RESULT:    -7.576      0.000      0.000
REMARK INTER + INTRA:          -9.302
REMARK INTER:                  -8.905
REMARK INTRA:                  -0.397
REMARK UNBOUND:                -0.397
REMARK SMILES O=C(/C=C/C=C/c1ccc2c(c1)OCO2)N1CCCCC1
REMARK SMILES IDX 3 1 4 2 2 3 1 4 16 5 17 6 21 7 18 8 20 9 19 10 5 11 6 12
REMARK SMILES IDX 7 13 12 14 8 15 11 16 9 17 13 18 10 19 14 20 15 21
REMARK H PARENT
REMARK Flexibility Score: inf
ROOT
ATOM      1  C   UNL     1      97.516  83.933  76.831  1.00  0.00     0.071 C 
ATOM      2  C   UNL     1      96.388  83.933  77.539  1.00  0.00     0.006 C 
ENDROOT
BRANCH   1   3
ATOM      3  C   UNL     1      97.450  84.363  75.420  1.00  0.00     0.246 C 
ATOM      4  O   UNL     1      96.349  84.688  74.975  1.00  0.00    -0.270 OA
ATOM      5  N   UNL     1      98.635  84.367  74.686  1.00  0.00    -0.339 N 
ATOM      6  C   UNL     1      98.600  84.783  73.280  1.00  0.00     0.120 C 
ATOM      7  C   UNL     1      99.958  83.944  75.168  1.00  0.00     0.120 C 
ATOM      8  C   UNL     1      99.623  85.879  72.998  1.00  0.00     0.022 C 
ATOM      9  C   UNL     1     101.014  85.016  74.900  1.00  0.00     0.022 C 
ATOM     10  C   UNL     1     101.019  85.448  73.436  1.00  0.00     0.004 C 
ENDBRANCH   1   3
BRANCH   2  11
ATOM     11  C   UNL     1      96.353  83.528  78.928  1.00  0.00     0.001 C 
ATOM     12  C   UNL     1      97.454  83.177  79.611  1.00  0.00     0.008 C 
BRANCH  12  13
ATOM     13  C   UNL     1      97.474  82.751  81.021  1.00  0.00    -0.022 A 
ATOM     14  C   UNL     1      98.416  81.818  81.431  1.00  0.00     0.058 A 
ATOM     15  C   UNL     1      96.542  83.298  81.907  1.00  0.00     0.012 A 
ATOM     16  C   UNL     1      98.395  81.450  82.761  1.00  0.00     0.166 A 
ATOM     17  C   UNL     1      96.543  82.907  83.248  1.00  0.00     0.051 A 
ATOM     18  O   UNL     1      99.230  80.554  83.355  1.00  0.00    -0.454 OA
ATOM     19  C   UNL     1      97.483  81.980  83.646  1.00  0.00     0.165 A 
ATOM     20  C   UNL     1      98.742  80.580  84.711  1.00  0.00     0.468 C 
ATOM     21  O   UNL     1      97.634  81.483  84.903  1.00  0.00    -0.454 OA
ENDBRANCH  12  13
ENDBRANCH   2  11
TORSDOF 3
ENDMDL
MODEL 2
REMARK VINA RESULT:    -7.460      3.360      9.358
REMARK INTER + INTRA:          -9.165
REMARK INTER:                  -8.878
REMARK INTRA:                  -0.287
REMARK UNBOUND:                -0.397
REMARK SMILES O=C(/C=C/C=C/c1ccc2c(c1)OCO2)N1CCCCC1
REMARK SMILES IDX 3 1 4 2 2 3 1 4 16 5 17 6 21 7 18 8 20 9 19 10 5 11 6 12
REMARK SMILES IDX 7 13 12 14 8 15 11 16 9 17 13 18 10 19 14 20 15 21
REMARK H PARENT
REMARK Flexibility Score: inf
ROOT
ATOM      1  C   UNL     1      97.022  82.840  83.463  1.00  0.00     0.071 C 
ATOM      2  C   UNL     1      96.533  83.382  82.349  1.00  0.00     0.006 C 
ENDROOT
BRANCH   1   3
ATOM      3  C   UNL     1      96.433  83.253  84.752  1.00  0.00     0.246 C 
ATOM      4  O   UNL     1      97.024  84.121  85.396  1.00  0.00    -0.270 OA
ATOM      5  N   UNL     1      95.254  82.630  85.157  1.00  0.00    -0.339 N 
ATOM      6  C   UNL     1      94.648  83.015  86.436  1.00  0.00     0.120 C 
ATOM      7  C   UNL     1      94.546  81.560  84.439  1.00  0.00     0.120 C 
ATOM      8  C   UNL     1      93.182  83.396  86.265  1.00  0.00     0.022 C 
ATOM      9  C   UNL     1      93.068  81.904  84.251  1.00  0.00     0.022 C 
ATOM     10  C   UNL     1      92.404  82.281  85.573  1.00  0.00     0.004 C 
ENDBRANCH   1   3
BRANCH   2  11
ATOM     11  C   UNL     1      97.045  83.041  81.039  1.00  0.00     0.001 C 
ATOM     12  C   UNL     1      96.595  83.614  79.911  1.00  0.00     0.008 C 
BRANCH  12  13
ATOM     13  C   UNL     1      97.074  83.299  78.554  1.00  0.00    -0.022 A 
ATOM     14  C   UNL     1      96.620  84.059  77.485  1.00  0.00     0.058 A 
ATOM     15  C   UNL     1      97.973  82.244  78.381  1.00  0.00     0.012 A 
ATOM     16  C   UNL     1      97.097  83.726  76.234  1.00  0.00     0.166 A 
ATOM     17  C   UNL     1      98.439  81.928  77.103  1.00  0.00     0.051 A 
ATOM     18  O   UNL     1      96.774  84.345  75.065  1.00  0.00    -0.454 OA
ATOM     19  C   UNL     1      97.983  82.689  76.047  1.00  0.00     0.165 A 
ATOM     20  C   UNL     1      97.555  83.582  74.124  1.00  0.00     0.468 C 
ATOM     21  O   UNL     1      98.325  82.529  74.740  1.00  0.00    -0.454 OA
ENDBRANCH  12  13
ENDBRANCH   2  11
TORSDOF 3
ENDMDL
MODEL 3
REMARK VINA RESULT:    -7.080      2.690      3.555
REMARK INTER + INTRA:          -8.719
REMARK INTER:                  -8.558
REMARK INTRA:                  -0.161
REMARK UNBOUND:                -0.397
REMARK SMILES O=C(/C=C/C=C/c1ccc2c(c1)OCO2)N1CCCCC1
REMARK SMILES IDX 3 1 4 2 2 3 1 4 16 5 17 6 21 7 18 8 20 9 19 10 5 11 6 12
REMARK SMILES IDX 7 13 12 14 8 15 11 16 9 17 13 18 10 19 14 20 15 21
REMARK H PARENT
REMARK Flexibility Score: inf
ROOT
ATOM      1  C   UNL     1      97.442  82.099  78.065  1.00  0.00     0.071 C 
ATOM      2  C   UNL     1      97.881  82.906  79.028  1.00  0.00     0.006 C 
ENDROOT
BRANCH   1   3
ATOM      3  C   UNL     1      98.338  81.828  76.923  1.00  0.00     0.246 C 
ATOM      4  O   UNL     1      98.939  80.753  76.914  1.00  0.00    -0.270 OA
ATOM      5  N   UNL     1      98.447  82.806  75.936  1.00  0.00    -0.339 N 
ATOM      6  C   UNL     1      99.333  82.568  74.793  1.00  0.00     0.120 C 
ATOM      7  C   UNL     1      97.780  84.117  75.935  1.00  0.00     0.120 C 
ATOM      8  C   UNL     1      98.602  82.770  73.470  1.00  0.00     0.022 C 
ATOM      9  C   UNL     1      97.038  84.359  74.621  1.00  0.00     0.022 C 
ATOM     10  C   UNL     1      97.946  84.146  73.413  1.00  0.00     0.004 C 
ENDBRANCH   1   3
BRANCH   2  11
ATOM     11  C   UNL     1      97.075  83.232  80.186  1.00  0.00     0.001 C 
ATOM     12  C   UNL     1      97.114  82.517  81.322  1.00  0.00     0.008 C 
BRANCH  12  13
ATOM     13  C   UNL     1      96.312  82.798  82.525  1.00  0.00    -0.022 A 
ATOM     14  C   UNL     1      96.136  84.115  82.927  1.00  0.00     0.058 A 
ATOM     15  C   UNL     1      95.749  81.730  83.229  1.00  0.00     0.012 A 
ATOM     16  C   UNL     1      95.377  84.328  84.059  1.00  0.00     0.166 A 
ATOM     17  C   UNL     1      94.985  81.975  84.372  1.00  0.00     0.051 A 
ATOM     18  O   UNL     1      95.091  85.539  84.612  1.00  0.00    -0.454 OA
ATOM     19  C   UNL     1      94.816  83.287  84.762  1.00  0.00     0.165 A 
ATOM     20  C   UNL     1      94.288  85.142  85.742  1.00  0.00     0.468 C 
ATOM     21  O   UNL     1      94.109  83.714  85.844  1.00  0.00    -0.454 OA
ENDBRANCH  12  13
ENDBRANCH   2  11
TORSDOF 3
ENDMDL
MODEL 4
REMARK VINA RESULT:    -6.805      8.120     12.107
REMARK INTER + INTRA:          -8.395
REMARK INTER:                  -8.032
REMARK INTRA:                  -0.363
REMARK UNBOUND:                -0.397
REMARK SMILES O=C(/C=C/C=C/c1ccc2c(c1)OCO2)N1CCCCC1
REMARK SMILES IDX 3 1 4 2 2 3 1 4 16 5 17 6 21 7 18 8 20 9 19 10 5 11 6 12
REMARK SMILES IDX 7 13 12 14 8 15 11 16 9 17 13 18 10 19 14 20 15 21
REMARK H PARENT
REMARK Flexibility Score: inf
ROOT
ATOM      1  C   UNL     1      93.150  87.941  88.521  1.00  0.00     0.071 C 
ATOM      2  C   UNL     1      92.765  86.672  88.640  1.00  0.00     0.006 C 
ENDROOT
BRANCH   1   3
ATOM      3  C   UNL     1      92.511  88.946  89.393  1.00  0.00     0.246 C 
ATOM      4  O   UNL     1      91.768  88.536  90.285  1.00  0.00    -0.270 OA
ATOM      5  N   UNL     1      92.785  90.290  89.144  1.00  0.00    -0.339 N 
ATOM      6  C   UNL     1      92.160  91.312  89.990  1.00  0.00     0.120 C 
ATOM      7  C   UNL     1      93.628  90.820  88.062  1.00  0.00     0.120 C 
ATOM      8  C   UNL     1      93.198  92.266  90.570  1.00  0.00     0.022 C 
ATOM      9  C   UNL     1      94.682  91.786  88.604  1.00  0.00     0.022 C 
ATOM     10  C   UNL     1      94.055  92.878  89.466  1.00  0.00     0.004 C 
ENDBRANCH   1   3
BRANCH   2  11
ATOM     11  C   UNL     1      93.333  85.616  87.830  1.00  0.00     0.001 C 
ATOM     12  C   UNL     1      93.260  85.610  86.489  1.00  0.00     0.008 C 
BRANCH  12  13
ATOM     13  C   UNL     1      93.812  84.558  85.618  1.00  0.00    -0.022 A 
ATOM     14  C   UNL     1      94.980  84.811  84.911  1.00  0.00     0.058 A 
ATOM     15  C   UNL     1      93.145  83.334  85.527  1.00  0.00     0.012 A 
ATOM     16  C   UNL     1      95.459  83.795  84.109  1.00  0.00     0.166 A 
ATOM     17  C   UNL     1      93.652  82.323  84.707  1.00  0.00     0.051 A 
ATOM     18  O   UNL     1      96.581  83.847  83.341  1.00  0.00    -0.454 OA
ATOM     19  C   UNL     1      94.813  82.584  84.010  1.00  0.00     0.165 A 
ATOM     20  C   UNL     1      96.569  82.533  82.747  1.00  0.00     0.468 C 
ATOM     21  O   UNL     1      95.449  81.726  83.167  1.00  0.00    -0.454 OA
ENDBRANCH  12  13
ENDBRANCH   2  11
TORSDOF 3
ENDMDL
MODEL 5
REMARK VINA RESULT:    -6.713      2.069      2.946
REMARK INTER + INTRA:          -8.287
REMARK INTER:                  -7.945
REMARK INTRA:                  -0.342
REMARK UNBOUND:                -0.397
REMARK SMILES O=C(/C=C/C=C/c1ccc2c(c1)OCO2)N1CCCCC1
REMARK SMILES IDX 3 1 4 2 2 3 1 4 16 5 17 6 21 7 18 8 20 9 19 10 5 11 6 12
REMARK SMILES IDX 7 13 12 14 8 15 11 16 9 17 13 18 10 19 14 20 15 21
REMARK H PARENT
REMARK Flexibility Score: inf
ROOT
ATOM      1  C   UNL     1      97.543  82.805  78.340  1.00  0.00     0.071 C 
ATOM      2  C   UNL     1      97.345  83.490  79.465  1.00  0.00     0.006 C 
ENDROOT
BRANCH   1   3
ATOM      3  C   UNL     1      97.812  83.563  77.102  1.00  0.00     0.246 C 
ATOM      4  O   UNL     1      97.089  84.530  76.859  1.00  0.00    -0.270 OA
ATOM      5  N   UNL     1      98.860  83.132  76.291  1.00  0.00    -0.339 N 
ATOM      6  C   UNL     1      99.147  83.862  75.052  1.00  0.00     0.120 C 
ATOM      7  C   UNL     1      99.714  81.958  76.525  1.00  0.00     0.120 C 
ATOM      8  C   UNL     1     100.614  84.272  74.975  1.00  0.00     0.022 C 
ATOM      9  C   UNL     1     101.195  82.328  76.452  1.00  0.00     0.022 C 
ATOM     10  C   UNL     1     101.529  83.065  75.158  1.00  0.00     0.004 C 
ENDBRANCH   1   3
BRANCH   2  11
ATOM     11  C   UNL     1      97.075  82.836  80.727  1.00  0.00     0.001 C 
ATOM     12  C   UNL     1      96.507  83.469  81.766  1.00  0.00     0.008 C 
BRANCH  12  13
ATOM     13  C   UNL     1      96.217  82.855  83.073  1.00  0.00    -0.022 A 
ATOM     14  C   UNL     1      96.234  83.650  84.211  1.00  0.00     0.058 A 
ATOM     15  C   UNL     1      95.933  81.488  83.131  1.00  0.00     0.012 A 
ATOM     16  C   UNL     1      95.956  83.029  85.412  1.00  0.00     0.166 A 
ATOM     17  C   UNL     1      95.656  80.886  84.360  1.00  0.00     0.051 A 
ATOM     18  O   UNL     1      95.924  83.631  86.633  1.00  0.00    -0.454 OA
ATOM     19  C   UNL     1      95.674  81.684  85.485  1.00  0.00     0.165 A 
ATOM     20  C   UNL     1      95.591  82.513  87.482  1.00  0.00     0.468 C 
ATOM     21  O   UNL     1      95.431  81.275  86.760  1.00  0.00    -0.454 OA
ENDBRANCH  12  13
ENDBRANCH   2  11
TORSDOF 3
ENDMDL
MODEL 6
REMARK VINA RESULT:    -6.693      9.088     12.035
REMARK INTER + INTRA:          -8.264
REMARK INTER:                  -7.997
REMARK INTRA:                  -0.266
REMARK UNBOUND:                -0.397
REMARK SMILES O=C(/C=C/C=C/c1ccc2c(c1)OCO2)N1CCCCC1
REMARK SMILES IDX 3 1 4 2 2 3 1 4 16 5 17 6 21 7 18 8 20 9 19 10 5 11 6 12
REMARK SMILES IDX 7 13 12 14 8 15 11 16 9 17 13 18 10 19 14 20 15 21
REMARK H PARENT
REMARK Flexibility Score: inf
ROOT
ATOM      1  C   UNL     1      94.365  83.468  86.467  1.00  0.00     0.071 C 
ATOM      2  C   UNL     1      93.377  84.130  87.067  1.00  0.00     0.006 C 
ENDROOT
BRANCH   1   3
ATOM      3  C   UNL     1      94.249  82.001  86.354  1.00  0.00     0.246 C 
ATOM      4  O   UNL     1      94.874  81.317  87.166  1.00  0.00    -0.270 OA
ATOM      5  N   UNL     1      93.447  81.489  85.336  1.00  0.00    -0.339 N 
ATOM      6  C   UNL     1      93.317  80.035  85.195  1.00  0.00     0.120 C 
ATOM      7  C   UNL     1      92.724  82.272  84.323  1.00  0.00     0.120 C 
ATOM      8  C   UNL     1      91.854  79.607  85.165  1.00  0.00     0.022 C 
ATOM      9  C   UNL     1      91.251  81.868  84.259  1.00  0.00     0.022 C 
ATOM     10  C   UNL     1      91.086  80.361  84.084  1.00  0.00     0.004 C 
ENDBRANCH   1   3
BRANCH   2  11
ATOM     11  C   UNL     1      93.400  85.569  87.226  1.00  0.00     0.001 C 
ATOM     12  C   UNL     1      93.235  86.172  88.414  1.00  0.00     0.008 C 
BRANCH  12  13
ATOM     13  C   UNL     1      93.242  87.628  88.630  1.00  0.00    -0.022 A 
ATOM     14  C   UNL     1      92.417  88.170  89.607  1.00  0.00     0.058 A 
ATOM     15  C   UNL     1      94.079  88.426  87.846  1.00  0.00     0.012 A 
ATOM     16  C   UNL     1      92.458  89.539  89.772  1.00  0.00     0.166 A 
ATOM     17  C   UNL     1      94.101  89.810  88.035  1.00  0.00     0.051 A 
ATOM     18  O   UNL     1      91.729  90.257  90.670  1.00  0.00    -0.454 OA
ATOM     19  C   UNL     1      93.278  90.338  89.008  1.00  0.00     0.165 A 
ATOM     20  C   UNL     1      92.182  91.596  90.384  1.00  0.00     0.468 C 
ATOM     21  O   UNL     1      93.165  91.655  89.331  1.00  0.00    -0.454 OA
ENDBRANCH  12  13
ENDBRANCH   2  11
TORSDOF 3
ENDMDL
MODEL 7
REMARK VINA RESULT:    -6.650     14.378     16.485
REMARK INTER + INTRA:          -8.214
REMARK INTER:                  -7.885
REMARK INTRA:                  -0.329
REMARK UNBOUND:                -0.397
REMARK SMILES O=C(/C=C/C=C/c1ccc2c(c1)OCO2)N1CCCCC1
REMARK SMILES IDX 3 1 4 2 2 3 1 4 16 5 17 6 21 7 18 8 20 9 19 10 5 11 6 12
REMARK SMILES IDX 7 13 12 14 8 15 11 16 9 17 13 18 10 19 14 20 15 21
REMARK H PARENT
REMARK Flexibility Score: inf
ROOT
ATOM      1  C   UNL     1      96.013  98.955  79.726  1.00  0.00     0.071 C 
ATOM      2  C   UNL     1      95.695  97.675  79.547  1.00  0.00     0.006 C 
ENDROOT
BRANCH   1   3
ATOM      3  C   UNL     1      96.929  99.295  80.834  1.00  0.00     0.246 C 
ATOM      4  O   UNL     1      98.125  99.050  80.679  1.00  0.00    -0.270 OA
ATOM      5  N   UNL     1      96.377  99.864  81.981  1.00  0.00    -0.339 N 
ATOM      6  C   UNL     1      97.261 100.207  83.100  1.00  0.00     0.120 C 
ATOM      7  C   UNL     1      94.951 100.129  82.221  1.00  0.00     0.120 C 
ATOM      8  C   UNL     1      97.074 101.657  83.533  1.00  0.00     0.022 C 
ATOM      9  C   UNL     1      94.723 101.575  82.661  1.00  0.00     0.022 C 
ATOM     10  C   UNL     1      95.610 101.951  83.844  1.00  0.00     0.004 C 
ENDBRANCH   1   3
BRANCH   2  11
ATOM     11  C   UNL     1      94.805  97.244  78.489  1.00  0.00     0.001 C 
ATOM     12  C   UNL     1      94.401  95.971  78.353  1.00  0.00     0.008 C 
BRANCH  12  13
ATOM     13  C   UNL     1      93.506  95.478  77.293  1.00  0.00    -0.022 A 
ATOM     14  C   UNL     1      92.321  94.849  77.648  1.00  0.00     0.058 A 
ATOM     15  C   UNL     1      93.874  95.657  75.957  1.00  0.00     0.012 A 
ATOM     16  C   UNL     1      91.515  94.405  76.620  1.00  0.00     0.166 A 
ATOM     17  C   UNL     1      93.039  95.198  74.936  1.00  0.00     0.051 A 
ATOM     18  O   UNL     1      90.321  93.766  76.761  1.00  0.00    -0.454 OA
ATOM     19  C   UNL     1      91.864  94.574  75.300  1.00  0.00     0.165 A 
ATOM     20  C   UNL     1      89.958  93.554  75.381  1.00  0.00     0.468 C 
ATOM     21  O   UNL     1      90.933  94.064  74.449  1.00  0.00    -0.454 OA
ENDBRANCH  12  13
ENDBRANCH   2  11
TORSDOF 3
ENDMDL
MODEL 8
REMARK VINA RESULT:    -6.525     17.933     20.733
REMARK INTER + INTRA:          -8.066
REMARK INTER:                  -7.742
REMARK INTRA:                  -0.324
REMARK UNBOUND:                -0.397
REMARK SMILES O=C(/C=C/C=C/c1ccc2c(c1)OCO2)N1CCCCC1
REMARK SMILES IDX 3 1 4 2 2 3 1 4 16 5 17 6 21 7 18 8 20 9 19 10 5 11 6 12
REMARK SMILES IDX 7 13 12 14 8 15 11 16 9 17 13 18 10 19 14 20 15 21
REMARK H PARENT
REMARK Flexibility Score: inf
ROOT
ATOM      1  C   UNL     1      86.939  69.492  71.365  1.00  0.00     0.071 C 
ATOM      2  C   UNL     1      87.859  70.380  70.997  1.00  0.00     0.006 C 
ENDROOT
BRANCH   1   3
ATOM      3  C   UNL     1      87.056  68.885  72.707  1.00  0.00     0.246 C 
ATOM      4  O   UNL     1      88.028  69.205  73.393  1.00  0.00    -0.270 OA
ATOM      5  N   UNL     1      86.064  67.990  73.104  1.00  0.00    -0.339 N 
ATOM      6  C   UNL     1      86.157  67.368  74.428  1.00  0.00     0.120 C 
ATOM      7  C   UNL     1      84.917  67.550  72.297  1.00  0.00     0.120 C 
ATOM      8  C   UNL     1      84.869  67.556  75.223  1.00  0.00     0.022 C 
ATOM      9  C   UNL     1      83.605  67.720  73.062  1.00  0.00     0.022 C 
ATOM     10  C   UNL     1      83.662  67.057  74.435  1.00  0.00     0.004 C 
ENDBRANCH   1   3
BRANCH   2  11
ATOM     11  C   UNL     1      87.829  71.028  69.703  1.00  0.00     0.001 C 
ATOM     12  C   UNL     1      88.742  71.936  69.323  1.00  0.00     0.008 C 
BRANCH  12  13
ATOM     13  C   UNL     1      88.754  72.630  68.024  1.00  0.00    -0.022 A 
ATOM     14  C   UNL     1      89.929  73.227  67.588  1.00  0.00     0.058 A 
ATOM     15  C   UNL     1      87.581  72.668  67.266  1.00  0.00     0.012 A 
ATOM     16  C   UNL     1      89.890  73.864  66.365  1.00  0.00     0.166 A 
ATOM     17  C   UNL     1      87.571  73.320  66.031  1.00  0.00     0.051 A 
ATOM     18  O   UNL     1      90.931  74.507  65.767  1.00  0.00    -0.454 OA
ATOM     19  C   UNL     1      88.743  73.910  65.607  1.00  0.00     0.165 A 
ATOM     20  C   UNL     1      90.309  74.962  64.548  1.00  0.00     0.468 C 
ATOM     21  O   UNL     1      88.921  74.587  64.439  1.00  0.00    -0.454 OA
ENDBRANCH  12  13
ENDBRANCH   2  11
TORSDOF 3
ENDMDL
MODEL 9
REMARK VINA RESULT:    -6.505      2.955      9.230
REMARK INTER + INTRA:          -8.043
REMARK INTER:                  -7.703
REMARK INTRA:                  -0.339
REMARK UNBOUND:                -0.397
REMARK SMILES O=C(/C=C/C=C/c1ccc2c(c1)OCO2)N1CCCCC1
REMARK SMILES IDX 3 1 4 2 2 3 1 4 16 5 17 6 21 7 18 8 20 9 19 10 5 11 6 12
REMARK SMILES IDX 7 13 12 14 8 15 11 16 9 17 13 18 10 19 14 20 15 21
REMARK H PARENT
REMARK Flexibility Score: inf
ROOT
ATOM      1  C   UNL     1      97.898  81.966  82.657  1.00  0.00     0.071 C 
ATOM      2  C   UNL     1      97.163  81.557  81.625  1.00  0.00     0.006 C 
ENDROOT
BRANCH   1   3
ATOM      3  C   UNL     1      97.982  81.088  83.841  1.00  0.00     0.246 C 
ATOM      4  O   UNL     1      98.177  79.888  83.646  1.00  0.00    -0.270 OA
ATOM      5  N   UNL     1      97.831  81.674  85.097  1.00  0.00    -0.339 N 
ATOM      6  C   UNL     1      97.905  80.827  86.291  1.00  0.00     0.120 C 
ATOM      7  C   UNL     1      97.554  83.093  85.366  1.00  0.00     0.120 C 
ATOM      8  C   UNL     1      98.918  81.366  87.295  1.00  0.00     0.022 C 
ATOM      9  C   UNL     1      98.548  83.670  86.373  1.00  0.00     0.022 C 
ATOM     10  C   UNL     1      98.625  82.822  87.640  1.00  0.00     0.004 C 
ENDBRANCH   1   3
BRANCH   2  11
ATOM     11  C   UNL     1      97.019  82.348  80.421  1.00  0.00     0.001 C 
ATOM     12  C   UNL     1      97.490  81.949  79.229  1.00  0.00     0.008 C 
BRANCH  12  13
ATOM     13  C   UNL     1      97.378  82.716  77.977  1.00  0.00    -0.022 A 
ATOM     14  C   UNL     1      98.134  82.330  76.878  1.00  0.00     0.058 A 
ATOM     15  C   UNL     1      96.514  83.813  77.929  1.00  0.00     0.012 A 
ATOM     16  C   UNL     1      97.995  83.079  75.728  1.00  0.00     0.166 A 
ATOM     17  C   UNL     1      96.394  84.554  76.751  1.00  0.00     0.051 A 
ATOM     18  O   UNL     1      98.646  82.864  74.552  1.00  0.00    -0.454 OA
ATOM     19  C   UNL     1      97.148  84.162  75.666  1.00  0.00     0.165 A 
ATOM     20  C   UNL     1      98.114  83.933  73.743  1.00  0.00     0.468 C 
ATOM     21  O   UNL     1      97.162  84.760  74.444  1.00  0.00    -0.454 OA
ENDBRANCH  12  13
ENDBRANCH   2  11
TORSDOF 3
ENDMDL
MODEL 10
REMARK VINA RESULT:    -6.357      8.446     11.915
REMARK INTER + INTRA:          -7.869
REMARK INTER:                  -7.486
REMARK INTRA:                  -0.383
REMARK UNBOUND:                -0.397
REMARK SMILES O=C(/C=C/C=C/c1ccc2c(c1)OCO2)N1CCCCC1
REMARK SMILES IDX 3 1 4 2 2 3 1 4 16 5 17 6 21 7 18 8 20 9 19 10 5 11 6 12
REMARK SMILES IDX 7 13 12 14 8 15 11 16 9 17 13 18 10 19 14 20 15 21
REMARK H PARENT
REMARK Flexibility Score: inf
ROOT
ATOM      1  C   UNL     1      94.235  84.919  87.306  1.00  0.00     0.071 C 
ATOM      2  C   UNL     1      93.281  85.185  88.196  1.00  0.00     0.006 C 
ENDROOT
BRANCH   1   3
ATOM      3  C   UNL     1      94.347  83.536  86.800  1.00  0.00     0.246 C 
ATOM      4  O   UNL     1      93.671  82.670  87.357  1.00  0.00    -0.270 OA
ATOM      5  N   UNL     1      95.211  83.303  85.731  1.00  0.00    -0.339 N 
ATOM      6  C   UNL     1      95.347  81.940  85.211  1.00  0.00     0.120 C 
ATOM      7  C   UNL     1      96.066  84.301  85.071  1.00  0.00     0.120 C 
ATOM      8  C   UNL     1      95.119  81.893  83.704  1.00  0.00     0.022 C 
ATOM      9  C   UNL     1      95.868  84.283  83.556  1.00  0.00     0.022 C 
ATOM     10  C   UNL     1      96.033  82.879  82.982  1.00  0.00     0.004 C 
ENDBRANCH   1   3
BRANCH   2  11
ATOM     11  C   UNL     1      93.093  86.509  88.750  1.00  0.00     0.001 C 
ATOM     12  C   UNL     1      93.517  87.623  88.130  1.00  0.00     0.008 C 
BRANCH  12  13
ATOM     13  C   UNL     1      93.360  88.991  88.651  1.00  0.00    -0.022 A 
ATOM     14  C   UNL     1      92.389  89.240  89.612  1.00  0.00     0.058 A 
ATOM     15  C   UNL     1      94.192  90.002  88.164  1.00  0.00     0.012 A 
ATOM     16  C   UNL     1      92.281  90.537  90.070  1.00  0.00     0.166 A 
ATOM     17  C   UNL     1      94.060  91.306  88.645  1.00  0.00     0.051 A 
ATOM     18  O   UNL     1      91.396  90.982  91.004  1.00  0.00    -0.454 OA
ATOM     19  C   UNL     1      93.093  91.543  89.599  1.00  0.00     0.165 A 
ATOM     20  C   UNL     1      91.744  92.380  91.068  1.00  0.00     0.468 C 
ATOM     21  O   UNL     1      92.820  92.743  90.180  1.00  0.00    -0.454 OA
ENDBRANCH  12  13
ENDBRANCH   2  11
TORSDOF 3
ENDMDL
