MODEL 1
REMARK VINA RESULT:    -6.100      0.000      0.000
REMARK INTER + INTRA:         -10.573
REMARK INTER:                  -9.845
REMARK INTRA:                  -0.728
REMARK UNBOUND:                -0.728
REMARK SMILES CCCCCCCCC(=O)NCc1ccc(O)c(OC)c1
REMARK SMILES IDX 7 1 6 2 5 3 4 4 3 5 2 6 1 7 8 8 9 9 10 10 11 11 12 13 13 14
REMARK SMILES IDX 21 15 14 16 18 17 15 18 16 19 19 20 20 21 17 22
REMARK H PARENT 11 12 17 23
REMARK Flexibility Score: inf
ROOT
ATOM      1  C   UNL     1      95.110  94.322  75.578  1.00  0.00     0.010 C 
ENDROOT
BRANCH   1   2
ATOM      2  C   UNL     1      95.671  93.792  76.929  1.00  0.00     0.001 C 
BRANCH   2   3
ATOM      3  C   UNL     1      95.440  94.796  78.097  1.00  0.00     0.000 C 
BRANCH   3   4
ATOM      4  C   UNL     1      95.924  94.272  79.479  1.00  0.00    -0.000 C 
BRANCH   4   5
ATOM      5  C   UNL     1      97.048  95.153  80.095  1.00  0.00    -0.000 C 
BRANCH   5   6
ATOM      6  C   UNL     1      96.609  95.840  81.416  1.00  0.00    -0.003 C 
ATOM      7  C   UNL     1      95.269  95.297  81.959  1.00  0.00     0.004 C 
ENDBRANCH   5   6
ENDBRANCH   4   5
ENDBRANCH   3   4
ENDBRANCH   2   3
ENDBRANCH   1   2
BRANCH   1   8
ATOM      8  C   UNL     1      93.680  94.922  75.683  1.00  0.00     0.100 C 
BRANCH   8   9
ATOM      9  C   UNL     1      92.660  93.984  75.156  1.00  0.00     0.220 C 
ATOM     10  O   UNL     1      93.041  93.047  74.413  1.00  0.00    -0.275 OA
ATOM     11  N   UNL     1      91.346  94.125  75.497  1.00  0.00    -0.352 N 
ATOM     12  H   UNL     1      91.138  94.959  76.026  1.00  0.00     0.163 HD
BRANCH  11  13
ATOM     13  C   UNL     1      90.295  93.209  75.171  1.00  0.00     0.151 C 
BRANCH  13  14
ATOM     14  C   UNL     1      90.234  92.021  76.063  1.00  0.00    -0.025 A 
ATOM     15  C   UNL     1      90.438  90.723  75.536  1.00  0.00     0.056 A 
ATOM     16  C   UNL     1      89.970  92.162  77.445  1.00  0.00     0.009 A 
ATOM     17  C   UNL     1      90.400  89.586  76.375  1.00  0.00     0.160 A 
ATOM     18  C   UNL     1      89.933  91.035  78.285  1.00  0.00     0.050 A 
ATOM     19  C   UNL     1      90.139  89.747  77.754  1.00  0.00     0.157 A 
BRANCH  17  20
ATOM     20  O   UNL     1      90.556  88.325  75.855  1.00  0.00    -0.493 OA
ATOM     21  C   UNL     1      89.434  87.865  75.081  1.00  0.00     0.278 C 
ENDBRANCH  17  20
BRANCH  19  22
ATOM     22  O   UNL     1      90.073  88.663  78.568  1.00  0.00    -0.504 OA
ATOM     23  H   UNL     1      89.320  88.121  78.320  1.00  0.00     0.293 HD
ENDBRANCH  19  22
ENDBRANCH  13  14
ENDBRANCH  11  13
ENDBRANCH   8   9
ENDBRANCH   1   8
TORSDOF 11
ENDMDL
MODEL 2
REMARK VINA RESULT:    -5.931     12.663     15.916
REMARK INTER + INTRA:         -10.300
REMARK INTER:                  -8.593
REMARK INTRA:                  -1.708
REMARK UNBOUND:                -0.728
REMARK SMILES CCCCCCCCC(=O)NCc1ccc(O)c(OC)c1
REMARK SMILES IDX 7 1 6 2 5 3 4 4 3 5 2 6 1 7 8 8 9 9 10 10 11 11 12 13 13 14
REMARK SMILES IDX 21 15 14 16 18 17 15 18 16 19 19 20 20 21 17 22
REMARK H PARENT 11 12 17 23
REMARK Flexibility Score: inf
ROOT
ATOM      1  C   UNL     1      80.526  87.616  83.420  1.00  0.00     0.010 C 
ENDROOT
BRANCH   1   2
ATOM      2  C   UNL     1      80.119  88.751  84.404  1.00  0.00     0.001 C 
BRANCH   2   3
ATOM      3  C   UNL     1      81.102  89.958  84.349  1.00  0.00     0.000 C 
BRANCH   3   4
ATOM      4  C   UNL     1      82.167  89.951  85.482  1.00  0.00    -0.000 C 
BRANCH   4   5
ATOM      5  C   UNL     1      83.611  89.740  84.947  1.00  0.00    -0.000 C 
BRANCH   5   6
ATOM      6  C   UNL     1      84.299  91.072  84.544  1.00  0.00    -0.003 C 
ATOM      7  C   UNL     1      85.394  91.508  85.542  1.00  0.00     0.004 C 
ENDBRANCH   5   6
ENDBRANCH   4   5
ENDBRANCH   3   4
ENDBRANCH   2   3
ENDBRANCH   1   2
BRANCH   1   8
ATOM      8  C   UNL     1      80.580  86.206  84.072  1.00  0.00     0.100 C 
BRANCH   8   9
ATOM      9  C   UNL     1      81.254  86.248  85.392  1.00  0.00     0.220 C 
ATOM     10  O   UNL     1      82.503  86.352  85.419  1.00  0.00    -0.275 OA
ATOM     11  N   UNL     1      80.524  86.203  86.545  1.00  0.00    -0.352 N 
ATOM     12  H   UNL     1      79.539  86.032  86.410  1.00  0.00     0.163 HD
BRANCH  11  13
ATOM     13  C   UNL     1      81.041  86.376  87.868  1.00  0.00     0.151 C 
BRANCH  13  14
ATOM     14  C   UNL     1      81.094  87.795  88.313  1.00  0.00    -0.025 A 
ATOM     15  C   UNL     1      82.268  88.309  88.913  1.00  0.00     0.056 A 
ATOM     16  C   UNL     1      79.980  88.650  88.149  1.00  0.00     0.009 A 
ATOM     17  C   UNL     1      82.339  89.660  89.324  1.00  0.00     0.160 A 
ATOM     18  C   UNL     1      80.045  89.994  88.555  1.00  0.00     0.050 A 
ATOM     19  C   UNL     1      81.217  90.501  89.149  1.00  0.00     0.157 A 
BRANCH  17  20
ATOM     20  O   UNL     1      83.463  90.146  89.944  1.00  0.00    -0.493 OA
ATOM     21  C   UNL     1      83.616  89.715  91.308  1.00  0.00     0.278 C 
ENDBRANCH  17  20
BRANCH  19  22
ATOM     22  O   UNL     1      81.260  91.793  89.563  1.00  0.00    -0.504 OA
ATOM     23  H   UNL     1      80.402  92.046  89.911  1.00  0.00     0.293 HD
ENDBRANCH  19  22
ENDBRANCH  13  14
ENDBRANCH  11  13
ENDBRANCH   8   9
ENDBRANCH   1   8
TORSDOF 11
ENDMDL
MODEL 3
REMARK VINA RESULT:    -5.864      3.536      7.853
REMARK INTER + INTRA:         -10.191
REMARK INTER:                  -9.449
REMARK INTRA:                  -0.742
REMARK UNBOUND:                -0.728
REMARK SMILES CCCCCCCCC(=O)NCc1ccc(O)c(OC)c1
REMARK SMILES IDX 7 1 6 2 5 3 4 4 3 5 2 6 1 7 8 8 9 9 10 10 11 11 12 13 13 14
REMARK SMILES IDX 21 15 14 16 18 17 15 18 16 19 19 20 20 21 17 22
REMARK H PARENT 11 12 17 23
REMARK Flexibility Score: inf
ROOT
ATOM      1  C   UNL     1      92.968  94.131  75.494  1.00  0.00     0.010 C 
ENDROOT
BRANCH   1   2
ATOM      2  C   UNL     1      91.465  93.798  75.272  1.00  0.00     0.001 C 
BRANCH   2   3
ATOM      3  C   UNL     1      90.569  94.312  76.438  1.00  0.00     0.000 C 
BRANCH   3   4
ATOM      4  C   UNL     1      89.593  93.239  76.997  1.00  0.00    -0.000 C 
BRANCH   4   5
ATOM      5  C   UNL     1      90.330  92.070  77.710  1.00  0.00    -0.000 C 
BRANCH   5   6
ATOM      6  C   UNL     1      90.178  90.721  76.957  1.00  0.00    -0.003 C 
ATOM      7  C   UNL     1      89.864  89.539  77.899  1.00  0.00     0.004 C 
ENDBRANCH   5   6
ENDBRANCH   4   5
ENDBRANCH   3   4
ENDBRANCH   2   3
ENDBRANCH   1   2
BRANCH   1   8
ATOM      8  C   UNL     1      93.432  95.443  74.800  1.00  0.00     0.100 C 
BRANCH   8   9
ATOM      9  C   UNL     1      94.748  95.890  75.315  1.00  0.00     0.220 C 
ATOM     10  O   UNL     1      95.192  96.998  74.932  1.00  0.00    -0.275 OA
ATOM     11  N   UNL     1      95.442  95.122  76.207  1.00  0.00    -0.352 N 
ATOM     12  H   UNL     1      95.036  94.214  76.379  1.00  0.00     0.163 HD
BRANCH  11  13
ATOM     13  C   UNL     1      96.645  95.504  76.880  1.00  0.00     0.151 C 
BRANCH  13  14
ATOM     14  C   UNL     1      96.630  95.230  78.341  1.00  0.00    -0.025 A 
ATOM     15  C   UNL     1      97.555  95.874  79.197  1.00  0.00     0.056 A 
ATOM     16  C   UNL     1      95.699  94.324  78.901  1.00  0.00     0.009 A 
ATOM     17  C   UNL     1      97.541  95.637  80.591  1.00  0.00     0.160 A 
ATOM     18  C   UNL     1      95.680  94.084  80.287  1.00  0.00     0.050 A 
ATOM     19  C   UNL     1      96.601  94.731  81.132  1.00  0.00     0.157 A 
BRANCH  17  20
ATOM     20  O   UNL     1      98.466  96.230  81.412  1.00  0.00    -0.493 OA
ATOM     21  C   UNL     1      99.833  95.968  81.046  1.00  0.00     0.278 C 
ENDBRANCH  17  20
BRANCH  19  22
ATOM     22  O   UNL     1      96.592  94.472  82.465  1.00  0.00    -0.504 OA
ATOM     23  H   UNL     1      97.385  94.836  82.867  1.00  0.00     0.293 HD
ENDBRANCH  19  22
ENDBRANCH  13  14
ENDBRANCH  11  13
ENDBRANCH   8   9
ENDBRANCH   1   8
TORSDOF 11
ENDMDL
MODEL 4
REMARK VINA RESULT:    -5.673     26.675     29.412
REMARK INTER + INTRA:          -9.884
REMARK INTER:                  -9.081
REMARK INTRA:                  -0.803
REMARK UNBOUND:                -0.728
REMARK SMILES CCCCCCCCC(=O)NCc1ccc(O)c(OC)c1
REMARK SMILES IDX 7 1 6 2 5 3 4 4 3 5 2 6 1 7 8 8 9 9 10 10 11 11 12 13 13 14
REMARK SMILES IDX 21 15 14 16 18 17 15 18 16 19 19 20 20 21 17 22
REMARK H PARENT 11 12 17 23
REMARK Flexibility Score: inf
ROOT
ATOM      1  C   UNL     1      81.652  66.425  76.101  1.00  0.00     0.010 C 
ENDROOT
BRANCH   1   2
ATOM      2  C   UNL     1      80.928  66.563  74.731  1.00  0.00     0.001 C 
BRANCH   2   3
ATOM      3  C   UNL     1      81.237  65.370  73.778  1.00  0.00     0.000 C 
BRANCH   3   4
ATOM      4  C   UNL     1      80.136  65.120  72.710  1.00  0.00    -0.000 C 
BRANCH   4   5
ATOM      5  C   UNL     1      80.125  66.204  71.594  1.00  0.00    -0.000 C 
BRANCH   5   6
ATOM      6  C   UNL     1      81.519  66.397  70.937  1.00  0.00    -0.003 C 
ATOM      7  C   UNL     1      82.023  67.855  71.016  1.00  0.00     0.004 C 
ENDBRANCH   5   6
ENDBRANCH   4   5
ENDBRANCH   3   4
ENDBRANCH   2   3
ENDBRANCH   1   2
BRANCH   1   8
ATOM      8  C   UNL     1      81.897  64.953  76.538  1.00  0.00     0.100 C 
BRANCH   8   9
ATOM      9  C   UNL     1      83.334  64.699  76.800  1.00  0.00     0.220 C 
ATOM     10  O   UNL     1      84.177  65.484  76.303  1.00  0.00    -0.275 OA
ATOM     11  N   UNL     1      83.722  63.654  77.588  1.00  0.00    -0.352 N 
ATOM     12  H   UNL     1      82.971  63.038  77.864  1.00  0.00     0.163 HD
BRANCH  11  13
ATOM     13  C   UNL     1      85.057  63.389  78.028  1.00  0.00     0.151 C 
BRANCH  13  14
ATOM     14  C   UNL     1      85.416  64.068  79.302  1.00  0.00    -0.025 A 
ATOM     15  C   UNL     1      86.154  65.276  79.283  1.00  0.00     0.056 A 
ATOM     16  C   UNL     1      85.034  63.521  80.549  1.00  0.00     0.009 A 
ATOM     17  C   UNL     1      86.487  65.941  80.485  1.00  0.00     0.160 A 
ATOM     18  C   UNL     1      85.362  64.179  81.748  1.00  0.00     0.050 A 
ATOM     19  C   UNL     1      86.093  65.382  81.721  1.00  0.00     0.157 A 
BRANCH  17  20
ATOM     20  O   UNL     1      87.238  67.089  80.466  1.00  0.00    -0.493 OA
ATOM     21  C   UNL     1      88.659  66.864  80.496  1.00  0.00     0.278 C 
ENDBRANCH  17  20
BRANCH  19  22
ATOM     22  O   UNL     1      86.429  65.994  82.886  1.00  0.00    -0.504 OA
ATOM     23  H   UNL     1      86.100  65.477  83.625  1.00  0.00     0.293 HD
ENDBRANCH  19  22
ENDBRANCH  13  14
ENDBRANCH  11  13
ENDBRANCH   8   9
ENDBRANCH   1   8
TORSDOF 11
ENDMDL
MODEL 5
REMARK VINA RESULT:    -5.646     24.605     28.561
REMARK INTER + INTRA:          -9.840
REMARK INTER:                  -8.079
REMARK INTRA:                  -1.761
REMARK UNBOUND:                -0.728
REMARK SMILES CCCCCCCCC(=O)NCc1ccc(O)c(OC)c1
REMARK SMILES IDX 7 1 6 2 5 3 4 4 3 5 2 6 1 7 8 8 9 9 10 10 11 11 12 13 13 14
REMARK SMILES IDX 21 15 14 16 18 17 15 18 16 19 19 20 20 21 17 22
REMARK H PARENT 11 12 17 23
REMARK Flexibility Score: inf
ROOT
ATOM      1  C   UNL     1      83.095  64.182  75.793  1.00  0.00     0.010 C 
ENDROOT
BRANCH   1   2
ATOM      2  C   UNL     1      83.021  65.585  76.462  1.00  0.00     0.001 C 
BRANCH   2   3
ATOM      3  C   UNL     1      81.649  66.281  76.221  1.00  0.00     0.000 C 
BRANCH   3   4
ATOM      4  C   UNL     1      81.437  66.759  74.756  1.00  0.00    -0.000 C 
BRANCH   4   5
ATOM      5  C   UNL     1      80.084  66.280  74.158  1.00  0.00    -0.000 C 
BRANCH   5   6
ATOM      6  C   UNL     1      80.247  65.054  73.220  1.00  0.00    -0.003 C 
ATOM      7  C   UNL     1      79.949  63.714  73.927  1.00  0.00     0.004 C 
ENDBRANCH   5   6
ENDBRANCH   4   5
ENDBRANCH   3   4
ENDBRANCH   2   3
ENDBRANCH   1   2
BRANCH   1   8
ATOM      8  C   UNL     1      84.517  63.796  75.297  1.00  0.00     0.100 C 
BRANCH   8   9
ATOM      9  C   UNL     1      84.815  64.411  73.981  1.00  0.00     0.220 C 
ATOM     10  O   UNL     1      86.008  64.682  73.708  1.00  0.00    -0.275 OA
ATOM     11  N   UNL     1      83.814  64.645  73.082  1.00  0.00    -0.352 N 
ATOM     12  H   UNL     1      82.885  64.471  73.436  1.00  0.00     0.163 HD
BRANCH  11  13
ATOM     13  C   UNL     1      83.989  65.099  71.736  1.00  0.00     0.151 C 
BRANCH  13  14
ATOM     14  C   UNL     1      83.812  66.566  71.568  1.00  0.00    -0.025 A 
ATOM     15  C   UNL     1      84.896  67.446  71.799  1.00  0.00     0.056 A 
ATOM     16  C   UNL     1      82.564  67.107  71.180  1.00  0.00     0.009 A 
ATOM     17  C   UNL     1      84.747  68.841  71.627  1.00  0.00     0.160 A 
ATOM     18  C   UNL     1      82.410  68.494  71.005  1.00  0.00     0.050 A 
ATOM     19  C   UNL     1      83.494  69.364  71.235  1.00  0.00     0.157 A 
BRANCH  17  20
ATOM     20  O   UNL     1      85.787  69.695  71.893  1.00  0.00    -0.493 OA
ATOM     21  C   UNL     1      86.083  69.846  73.292  1.00  0.00     0.278 C 
ENDBRANCH  17  20
BRANCH  19  22
ATOM     22  O   UNL     1      83.328  70.703  71.090  1.00  0.00    -0.504 OA
ATOM     23  H   UNL     1      83.345  71.123  71.954  1.00  0.00     0.293 HD
ENDBRANCH  19  22
ENDBRANCH  13  14
ENDBRANCH  11  13
ENDBRANCH   8   9
ENDBRANCH   1   8
TORSDOF 11
ENDMDL
MODEL 6
REMARK VINA RESULT:    -5.620      2.153      3.104
REMARK INTER + INTRA:          -9.798
REMARK INTER:                  -8.886
REMARK INTRA:                  -0.912
REMARK UNBOUND:                -0.728
REMARK SMILES CCCCCCCCC(=O)NCc1ccc(O)c(OC)c1
REMARK SMILES IDX 7 1 6 2 5 3 4 4 3 5 2 6 1 7 8 8 9 9 10 10 11 11 12 13 13 14
REMARK SMILES IDX 21 15 14 16 18 17 15 18 16 19 19 20 20 21 17 22
REMARK H PARENT 11 12 17 23
REMARK Flexibility Score: inf
ROOT
ATOM      1  C   UNL     1      97.236  95.646  78.031  1.00  0.00     0.010 C 
ENDROOT
BRANCH   1   2
ATOM      2  C   UNL     1      97.077  97.158  78.361  1.00  0.00     0.001 C 
BRANCH   2   3
ATOM      3  C   UNL     1      97.475  97.485  79.830  1.00  0.00     0.000 C 
BRANCH   3   4
ATOM      4  C   UNL     1      96.307  97.331  80.846  1.00  0.00    -0.000 C 
BRANCH   4   5
ATOM      5  C   UNL     1      96.578  96.228  81.908  1.00  0.00    -0.000 C 
BRANCH   5   6
ATOM      6  C   UNL     1      95.418  95.201  82.010  1.00  0.00    -0.003 C 
ATOM      7  C   UNL     1      95.854  93.765  81.646  1.00  0.00     0.004 C 
ENDBRANCH   5   6
ENDBRANCH   4   5
ENDBRANCH   3   4
ENDBRANCH   2   3
ENDBRANCH   1   2
BRANCH   1   8
ATOM      8  C   UNL     1      95.927  94.824  78.196  1.00  0.00     0.100 C 
BRANCH   8   9
ATOM      9  C   UNL     1      95.518  94.196  76.917  1.00  0.00     0.220 C 
ATOM     10  O   UNL     1      96.340  93.452  76.330  1.00  0.00    -0.275 OA
ATOM     11  N   UNL     1      94.267  94.404  76.410  1.00  0.00    -0.352 N 
ATOM     12  H   UNL     1      93.720  95.086  76.915  1.00  0.00     0.163 HD
BRANCH  11  13
ATOM     13  C   UNL     1      93.709  93.748  75.267  1.00  0.00     0.151 C 
BRANCH  13  14
ATOM     14  C   UNL     1      92.412  93.071  75.537  1.00  0.00    -0.025 A 
ATOM     15  C   UNL     1      91.737  92.386  74.498  1.00  0.00     0.056 A 
ATOM     16  C   UNL     1      91.831  93.100  76.825  1.00  0.00     0.009 A 
ATOM     17  C   UNL     1      90.513  91.723  74.743  1.00  0.00     0.160 A 
ATOM     18  C   UNL     1      90.614  92.442  77.076  1.00  0.00     0.050 A 
ATOM     19  C   UNL     1      89.949  91.760  76.038  1.00  0.00     0.157 A 
BRANCH  17  20
ATOM     20  O   UNL     1      89.839  91.095  73.726  1.00  0.00    -0.493 OA
ATOM     21  C   UNL     1      90.379  91.351  72.417  1.00  0.00     0.278 C 
ENDBRANCH  17  20
BRANCH  19  22
ATOM     22  O   UNL     1      88.761  91.151  76.284  1.00  0.00    -0.504 OA
ATOM     23  H   UNL     1      88.918  90.263  76.613  1.00  0.00     0.293 HD
ENDBRANCH  19  22
ENDBRANCH  13  14
ENDBRANCH  11  13
ENDBRANCH   8   9
ENDBRANCH   1   8
TORSDOF 11
ENDMDL
MODEL 7
REMARK VINA RESULT:    -5.372      4.000      6.137
REMARK INTER + INTRA:          -9.398
REMARK INTER:                  -8.795
REMARK INTRA:                  -0.603
REMARK UNBOUND:                -0.728
REMARK SMILES CCCCCCCCC(=O)NCc1ccc(O)c(OC)c1
REMARK SMILES IDX 7 1 6 2 5 3 4 4 3 5 2 6 1 7 8 8 9 9 10 10 11 11 12 13 13 14
REMARK SMILES IDX 21 15 14 16 18 17 15 18 16 19 19 20 20 21 17 22
REMARK H PARENT 11 12 17 23
REMARK Flexibility Score: inf
ROOT
ATOM      1  C   UNL     1      95.475  98.150  74.116  1.00  0.00     0.010 C 
ENDROOT
BRANCH   1   2
ATOM      2  C   UNL     1      96.140  98.539  72.764  1.00  0.00     0.001 C 
BRANCH   2   3
ATOM      3  C   UNL     1      96.200  97.342  71.771  1.00  0.00     0.000 C 
BRANCH   3   4
ATOM      4  C   UNL     1      96.069  97.759  70.278  1.00  0.00    -0.000 C 
BRANCH   4   5
ATOM      5  C   UNL     1      96.292  96.570  69.301  1.00  0.00    -0.000 C 
BRANCH   5   6
ATOM      6  C   UNL     1      97.719  96.560  68.690  1.00  0.00    -0.003 C 
ATOM      7  C   UNL     1      98.687  95.619  69.439  1.00  0.00     0.004 C 
ENDBRANCH   5   6
ENDBRANCH   4   5
ENDBRANCH   3   4
ENDBRANCH   2   3
ENDBRANCH   1   2
BRANCH   1   8
ATOM      8  C   UNL     1      94.344  97.091  73.979  1.00  0.00     0.100 C 
BRANCH   8   9
ATOM      9  C   UNL     1      94.486  96.017  74.991  1.00  0.00     0.220 C 
ATOM     10  O   UNL     1      95.540  95.972  75.668  1.00  0.00    -0.275 OA
ATOM     11  N   UNL     1      93.477  95.119  75.195  1.00  0.00    -0.352 N 
ATOM     12  H   UNL     1      92.714  95.192  74.538  1.00  0.00     0.163 HD
BRANCH  11  13
ATOM     13  C   UNL     1      93.434  94.131  76.229  1.00  0.00     0.151 C 
BRANCH  13  14
ATOM     14  C   UNL     1      92.199  93.303  76.219  1.00  0.00    -0.025 A 
ATOM     15  C   UNL     1      91.643  92.868  74.992  1.00  0.00     0.056 A 
ATOM     16  C   UNL     1      91.557  92.940  77.426  1.00  0.00     0.009 A 
ATOM     17  C   UNL     1      90.479  92.066  74.967  1.00  0.00     0.160 A 
ATOM     18  C   UNL     1      90.400  92.142  77.408  1.00  0.00     0.050 A 
ATOM     19  C   UNL     1      89.854  91.709  76.184  1.00  0.00     0.157 A 
BRANCH  17  20
ATOM     20  O   UNL     1      89.919  91.680  73.776  1.00  0.00    -0.493 OA
ATOM     21  C   UNL     1      89.495  92.774  72.943  1.00  0.00     0.278 C 
ENDBRANCH  17  20
BRANCH  19  22
ATOM     22  O   UNL     1      88.721  90.962  76.176  1.00  0.00    -0.504 OA
ATOM     23  H   UNL     1      88.163  91.235  75.444  1.00  0.00     0.293 HD
ENDBRANCH  19  22
ENDBRANCH  13  14
ENDBRANCH  11  13
ENDBRANCH   8   9
ENDBRANCH   1   8
TORSDOF 11
ENDMDL
MODEL 8
REMARK VINA RESULT:    -5.327      3.693      7.497
REMARK INTER + INTRA:          -9.325
REMARK INTER:                  -8.505
REMARK INTRA:                  -0.820
REMARK UNBOUND:                -0.728
REMARK SMILES CCCCCCCCC(=O)NCc1ccc(O)c(OC)c1
REMARK SMILES IDX 7 1 6 2 5 3 4 4 3 5 2 6 1 7 8 8 9 9 10 10 11 11 12 13 13 14
REMARK SMILES IDX 21 15 14 16 18 17 15 18 16 19 19 20 20 21 17 22
REMARK H PARENT 11 12 17 23
REMARK Flexibility Score: inf
ROOT
ATOM      1  C   UNL     1      94.579  96.618  74.593  1.00  0.00     0.010 C 
ENDROOT
BRANCH   1   2
ATOM      2  C   UNL     1      94.266  95.337  75.419  1.00  0.00     0.001 C 
BRANCH   2   3
ATOM      3  C   UNL     1      92.807  94.838  75.201  1.00  0.00     0.000 C 
BRANCH   3   4
ATOM      4  C   UNL     1      91.989  94.699  76.516  1.00  0.00    -0.000 C 
BRANCH   4   5
ATOM      5  C   UNL     1      90.462  94.553  76.261  1.00  0.00    -0.000 C 
BRANCH   5   6
ATOM      6  C   UNL     1      89.865  93.282  76.923  1.00  0.00    -0.003 C 
ATOM      7  C   UNL     1      90.947  92.345  77.504  1.00  0.00     0.004 C 
ENDBRANCH   5   6
ENDBRANCH   4   5
ENDBRANCH   3   4
ENDBRANCH   2   3
ENDBRANCH   1   2
BRANCH   1   8
ATOM      8  C   UNL     1      96.098  96.903  74.426  1.00  0.00     0.100 C 
BRANCH   8   9
ATOM      9  C   UNL     1      96.652  97.588  75.618  1.00  0.00     0.220 C 
ATOM     10  O   UNL     1      96.367  98.796  75.797  1.00  0.00    -0.275 OA
ATOM     11  N   UNL     1      97.430  96.907  76.510  1.00  0.00    -0.352 N 
ATOM     12  H   UNL     1      97.668  95.968  76.226  1.00  0.00     0.163 HD
BRANCH  11  13
ATOM     13  C   UNL     1      97.905  97.413  77.762  1.00  0.00     0.151 C 
BRANCH  13  14
ATOM     14  C   UNL     1      97.569  96.550  78.926  1.00  0.00    -0.025 A 
ATOM     15  C   UNL     1      96.393  95.762  78.912  1.00  0.00     0.056 A 
ATOM     16  C   UNL     1      98.409  96.503  80.062  1.00  0.00     0.009 A 
ATOM     17  C   UNL     1      96.070  94.923  80.004  1.00  0.00     0.160 A 
ATOM     18  C   UNL     1      98.094  95.670  81.150  1.00  0.00     0.050 A 
ATOM     19  C   UNL     1      96.924  94.886  81.129  1.00  0.00     0.157 A 
BRANCH  17  20
ATOM     20  O   UNL     1      94.908  94.192  80.007  1.00  0.00    -0.493 OA
ATOM     21  C   UNL     1      94.511  93.714  78.710  1.00  0.00     0.278 C 
ENDBRANCH  17  20
BRANCH  19  22
ATOM     22  O   UNL     1      96.614  94.106  82.196  1.00  0.00    -0.504 OA
ATOM     23  H   UNL     1      96.845  93.195  82.004  1.00  0.00     0.293 HD
ENDBRANCH  19  22
ENDBRANCH  13  14
ENDBRANCH  11  13
ENDBRANCH   8   9
ENDBRANCH   1   8
TORSDOF 11
ENDMDL
MODEL 9
REMARK VINA RESULT:    -5.320     26.663     29.080
REMARK INTER + INTRA:          -9.314
REMARK INTER:                  -7.411
REMARK INTRA:                  -1.903
REMARK UNBOUND:                -0.728
REMARK SMILES CCCCCCCCC(=O)NCc1ccc(O)c(OC)c1
REMARK SMILES IDX 7 1 6 2 5 3 4 4 3 5 2 6 1 7 8 8 9 9 10 10 11 11 12 13 13 14
REMARK SMILES IDX 21 15 14 16 18 17 15 18 16 19 19 20 20 21 17 22
REMARK H PARENT 11 12 17 23
REMARK Flexibility Score: inf
ROOT
ATOM      1  C   UNL     1      82.091  67.961  72.338  1.00  0.00     0.010 C 
ENDROOT
BRANCH   1   2
ATOM      2  C   UNL     1      80.554  67.727  72.282  1.00  0.00     0.001 C 
BRANCH   2   3
ATOM      3  C   UNL     1      80.192  66.341  71.671  1.00  0.00     0.000 C 
BRANCH   3   4
ATOM      4  C   UNL     1      80.153  65.187  72.713  1.00  0.00    -0.000 C 
BRANCH   4   5
ATOM      5  C   UNL     1      79.986  65.701  74.171  1.00  0.00    -0.000 C 
BRANCH   5   6
ATOM      6  C   UNL     1      81.211  65.366  75.065  1.00  0.00    -0.003 C 
ATOM      7  C   UNL     1      81.590  66.519  76.019  1.00  0.00     0.004 C 
ENDBRANCH   5   6
ENDBRANCH   4   5
ENDBRANCH   3   4
ENDBRANCH   2   3
ENDBRANCH   1   2
BRANCH   1   8
ATOM      8  C   UNL     1      82.858  67.402  71.107  1.00  0.00     0.100 C 
BRANCH   8   9
ATOM      9  C   UNL     1      83.966  66.508  71.522  1.00  0.00     0.220 C 
ATOM     10  O   UNL     1      85.144  66.913  71.378  1.00  0.00    -0.275 OA
ATOM     11  N   UNL     1      83.702  65.287  72.074  1.00  0.00    -0.352 N 
ATOM     12  H   UNL     1      82.726  65.026  72.063  1.00  0.00     0.163 HD
BRANCH  11  13
ATOM     13  C   UNL     1      84.670  64.398  72.639  1.00  0.00     0.151 C 
BRANCH  13  14
ATOM     14  C   UNL     1      84.651  64.355  74.126  1.00  0.00    -0.025 A 
ATOM     15  C   UNL     1      85.218  65.413  74.877  1.00  0.00     0.056 A 
ATOM     16  C   UNL     1      84.073  63.264  74.814  1.00  0.00     0.009 A 
ATOM     17  C   UNL     1      85.191  65.394  76.290  1.00  0.00     0.160 A 
ATOM     18  C   UNL     1      84.042  63.239  76.220  1.00  0.00     0.050 A 
ATOM     19  C   UNL     1      84.606  64.296  76.960  1.00  0.00     0.157 A 
BRANCH  17  20
ATOM     20  O   UNL     1      85.779  66.399  77.016  1.00  0.00    -0.493 OA
ATOM     21  C   UNL     1      84.939  67.551  77.214  1.00  0.00     0.278 C 
ENDBRANCH  17  20
BRANCH  19  22
ATOM     22  O   UNL     1      84.596  64.251  78.317  1.00  0.00    -0.504 OA
ATOM     23  H   UNL     1      84.765  63.351  78.608  1.00  0.00     0.293 HD
ENDBRANCH  19  22
ENDBRANCH  13  14
ENDBRANCH  11  13
ENDBRANCH   8   9
ENDBRANCH   1   8
TORSDOF 11
ENDMDL
MODEL 10
REMARK VINA RESULT:    -5.307     13.521     14.696
REMARK INTER + INTRA:          -9.293
REMARK INTER:                  -8.591
REMARK INTRA:                  -0.702
REMARK UNBOUND:                -0.728
REMARK SMILES CCCCCCCCC(=O)NCc1ccc(O)c(OC)c1
REMARK SMILES IDX 7 1 6 2 5 3 4 4 3 5 2 6 1 7 8 8 9 9 10 10 11 11 12 13 13 14
REMARK SMILES IDX 21 15 14 16 18 17 15 18 16 19 19 20 20 21 17 22
REMARK H PARENT 11 12 17 23
REMARK Flexibility Score: inf
ROOT
ATOM      1  C   UNL     1      82.548  93.112  88.670  1.00  0.00     0.010 C 
ENDROOT
BRANCH   1   2
ATOM      2  C   UNL     1      83.640  94.167  88.332  1.00  0.00     0.001 C 
BRANCH   2   3
ATOM      3  C   UNL     1      83.135  95.233  87.316  1.00  0.00     0.000 C 
BRANCH   3   4
ATOM      4  C   UNL     1      81.855  95.985  87.779  1.00  0.00    -0.000 C 
BRANCH   4   5
ATOM      5  C   UNL     1      81.557  97.247  86.921  1.00  0.00    -0.000 C 
BRANCH   5   6
ATOM      6  C   UNL     1      81.343  98.518  87.786  1.00  0.00    -0.003 C 
ATOM      7  C   UNL     1      82.498  98.769  88.781  1.00  0.00     0.004 C 
ENDBRANCH   5   6
ENDBRANCH   4   5
ENDBRANCH   3   4
ENDBRANCH   2   3
ENDBRANCH   1   2
BRANCH   1   8
ATOM      8  C   UNL     1      83.114  91.699  88.986  1.00  0.00     0.100 C 
BRANCH   8   9
ATOM      9  C   UNL     1      83.576  91.015  87.754  1.00  0.00     0.220 C 
ATOM     10  O   UNL     1      84.641  90.355  87.804  1.00  0.00    -0.275 OA
ATOM     11  N   UNL     1      82.840  91.082  86.605  1.00  0.00    -0.352 N 
ATOM     12  H   UNL     1      82.050  91.708  86.652  1.00  0.00     0.163 HD
BRANCH  11  13
ATOM     13  C   UNL     1      83.103  90.355  85.401  1.00  0.00     0.151 C 
BRANCH  13  14
ATOM     14  C   UNL     1      82.132  89.261  85.134  1.00  0.00    -0.025 A 
ATOM     15  C   UNL     1      82.239  88.030  85.823  1.00  0.00     0.056 A 
ATOM     16  C   UNL     1      81.092  89.427  84.190  1.00  0.00     0.009 A 
ATOM     17  C   UNL     1      81.312  86.987  85.593  1.00  0.00     0.160 A 
ATOM     18  C   UNL     1      80.166  88.394  83.957  1.00  0.00     0.050 A 
ATOM     19  C   UNL     1      80.277  87.172  84.649  1.00  0.00     0.157 A 
BRANCH  17  20
ATOM     20  O   UNL     1      81.443  85.779  86.231  1.00  0.00    -0.493 OA
ATOM     21  C   UNL     1      82.774  85.236  86.197  1.00  0.00     0.278 C 
ENDBRANCH  17  20
BRANCH  19  22
ATOM     22  O   UNL     1      79.395  86.171  84.397  1.00  0.00    -0.504 OA
ATOM     23  H   UNL     1      78.558  86.367  84.824  1.00  0.00     0.293 HD
ENDBRANCH  19  22
ENDBRANCH  13  14
ENDBRANCH  11  13
ENDBRANCH   8   9
ENDBRANCH   1   8
TORSDOF 11
ENDMDL
