MODEL 1
REMARK VINA RESULT:    -5.702      0.000      0.000
REMARK INTER + INTRA:          -9.973
REMARK INTER:                  -9.202
REMARK INTRA:                  -0.772
REMARK UNBOUND:                -0.772
REMARK SMILES CCCCCCCCC(=O)NCc1ccc(O)c(OC)c1
REMARK SMILES IDX 7 1 6 2 5 3 4 4 3 5 2 6 1 7 8 8 9 9 10 10 11 11 12 13 13 14
REMARK SMILES IDX 21 15 14 16 18 17 15 18 16 19 19 20 20 21 17 22
REMARK H PARENT 11 12 17 23
REMARK Flexibility Score: inf
ROOT
ATOM      1  C   UNL     1      92.559  96.750  76.316  1.00  0.00     0.010 C 
ENDROOT
BRANCH   1   2
ATOM      2  C   UNL     1      91.868  96.022  77.505  1.00  0.00     0.001 C 
BRANCH   2   3
ATOM      3  C   UNL     1      90.345  96.336  77.582  1.00  0.00     0.000 C 
BRANCH   3   4
ATOM      4  C   UNL     1      89.436  95.116  77.261  1.00  0.00    -0.000 C 
BRANCH   4   5
ATOM      5  C   UNL     1      90.191  93.989  76.501  1.00  0.00    -0.000 C 
BRANCH   5   6
ATOM      6  C   UNL     1      90.410  92.724  77.374  1.00  0.00    -0.003 C 
ATOM      7  C   UNL     1      89.901  92.898  78.821  1.00  0.00     0.004 C 
ENDBRANCH   5   6
ENDBRANCH   4   5
ENDBRANCH   3   4
ENDBRANCH   2   3
ENDBRANCH   1   2
BRANCH   1   8
ATOM      8  C   UNL     1      93.935  96.144  75.921  1.00  0.00     0.100 C 
BRANCH   8   9
ATOM      9  C   UNL     1      95.052  96.867  76.577  1.00  0.00     0.220 C 
ATOM     10  O   UNL     1      95.887  97.457  75.850  1.00  0.00    -0.275 OA
ATOM     11  N   UNL     1      95.146  96.910  77.938  1.00  0.00    -0.352 N 
ATOM     12  H   UNL     1      94.475  96.332  78.422  1.00  0.00     0.163 HD
BRANCH  11  13
ATOM     13  C   UNL     1      96.088  97.686  78.686  1.00  0.00     0.151 C 
BRANCH  13  14
ATOM     14  C   UNL     1      96.023  97.457  80.155  1.00  0.00    -0.025 A 
ATOM     15  C   UNL     1      96.064  96.141  80.673  1.00  0.00     0.056 A 
ATOM     16  C   UNL     1      95.916  98.542  81.055  1.00  0.00     0.009 A 
ATOM     17  C   UNL     1      96.020  95.909  82.067  1.00  0.00     0.160 A 
ATOM     18  C   UNL     1      95.874  98.318  82.443  1.00  0.00     0.050 A 
ATOM     19  C   UNL     1      95.918  97.006  82.952  1.00  0.00     0.157 A 
BRANCH  17  20
ATOM     20  O   UNL     1      96.018  94.631  82.566  1.00  0.00    -0.493 OA
ATOM     21  C   UNL     1      95.284  93.688  81.765  1.00  0.00     0.278 C 
ENDBRANCH  17  20
BRANCH  19  22
ATOM     22  O   UNL     1      95.848  96.799  84.292  1.00  0.00    -0.504 OA
ATOM     23  H   UNL     1      95.064  97.228  84.642  1.00  0.00     0.293 HD
ENDBRANCH  19  22
ENDBRANCH  13  14
ENDBRANCH  11  13
ENDBRANCH   8   9
ENDBRANCH   1   8
TORSDOF 11
ENDMDL
MODEL 2
REMARK VINA RESULT:    -5.256     18.453     21.607
REMARK INTER + INTRA:          -9.254
REMARK INTER:                  -8.227
REMARK INTRA:                  -1.027
REMARK UNBOUND:                -0.772
REMARK SMILES CCCCCCCCC(=O)NCc1ccc(O)c(OC)c1
REMARK SMILES IDX 7 1 6 2 5 3 4 4 3 5 2 6 1 7 8 8 9 9 10 10 11 11 12 13 13 14
REMARK SMILES IDX 21 15 14 16 18 17 15 18 16 19 19 20 20 21 17 22
REMARK H PARENT 11 12 17 23
REMARK Flexibility Score: inf
ROOT
ATOM      1  C   UNL     1      74.778  92.643  71.997  1.00  0.00     0.010 C 
ENDROOT
BRANCH   1   2
ATOM      2  C   UNL     1      76.168  93.099  71.466  1.00  0.00     0.001 C 
BRANCH   2   3
ATOM      3  C   UNL     1      77.325  92.204  71.999  1.00  0.00     0.000 C 
BRANCH   3   4
ATOM      4  C   UNL     1      78.447  92.997  72.727  1.00  0.00    -0.000 C 
BRANCH   4   5
ATOM      5  C   UNL     1      77.917  93.803  73.946  1.00  0.00    -0.000 C 
BRANCH   5   6
ATOM      6  C   UNL     1      77.569  92.895  75.156  1.00  0.00    -0.003 C 
ATOM      7  C   UNL     1      76.058  92.878  75.478  1.00  0.00     0.004 C 
ENDBRANCH   5   6
ENDBRANCH   4   5
ENDBRANCH   3   4
ENDBRANCH   2   3
ENDBRANCH   1   2
BRANCH   1   8
ATOM      8  C   UNL     1      74.554  91.106  71.935  1.00  0.00     0.100 C 
BRANCH   8   9
ATOM      9  C   UNL     1      74.450  90.632  70.533  1.00  0.00     0.220 C 
ATOM     10  O   UNL     1      73.619  91.189  69.777  1.00  0.00    -0.275 OA
ATOM     11  N   UNL     1      75.261  89.633  70.077  1.00  0.00    -0.352 N 
ATOM     12  H   UNL     1      75.829  89.197  70.789  1.00  0.00     0.163 HD
BRANCH  11  13
ATOM     13  C   UNL     1      75.355  89.187  68.720  1.00  0.00     0.151 C 
BRANCH  13  14
ATOM     14  C   UNL     1      76.251  88.015  68.533  1.00  0.00    -0.025 A 
ATOM     15  C   UNL     1      76.561  87.173  69.628  1.00  0.00     0.056 A 
ATOM     16  C   UNL     1      76.811  87.723  67.268  1.00  0.00     0.009 A 
ATOM     17  C   UNL     1      77.397  86.045  69.461  1.00  0.00     0.160 A 
ATOM     18  C   UNL     1      77.643  86.602  67.095  1.00  0.00     0.050 A 
ATOM     19  C   UNL     1      77.944  85.767  68.188  1.00  0.00     0.157 A 
BRANCH  17  20
ATOM     20  O   UNL     1      77.730  85.255  70.532  1.00  0.00    -0.493 OA
ATOM     21  C   UNL     1      76.736  84.271  70.869  1.00  0.00     0.278 C 
ENDBRANCH  17  20
BRANCH  19  22
ATOM     22  O   UNL     1      78.770  84.703  68.018  1.00  0.00    -0.504 OA
ATOM     23  H   UNL     1      78.939  84.576  67.081  1.00  0.00     0.293 HD
ENDBRANCH  19  22
ENDBRANCH  13  14
ENDBRANCH  11  13
ENDBRANCH   8   9
ENDBRANCH   1   8
TORSDOF 11
ENDMDL
MODEL 3
REMARK VINA RESULT:    -5.125     22.340     26.341
REMARK INTER + INTRA:          -9.043
REMARK INTER:                  -7.019
REMARK INTRA:                  -2.024
REMARK UNBOUND:                -0.772
REMARK SMILES CCCCCCCCC(=O)NCc1ccc(O)c(OC)c1
REMARK SMILES IDX 7 1 6 2 5 3 4 4 3 5 2 6 1 7 8 8 9 9 10 10 11 11 12 13 13 14
REMARK SMILES IDX 21 15 14 16 18 17 15 18 16 19 19 20 20 21 17 22
REMARK H PARENT 11 12 17 23
REMARK Flexibility Score: inf
ROOT
ATOM      1  C   UNL     1      77.895  85.741  68.986  1.00  0.00     0.010 C 
ENDROOT
BRANCH   1   2
ATOM      2  C   UNL     1      77.423  84.326  68.544  1.00  0.00     0.001 C 
BRANCH   2   3
ATOM      3  C   UNL     1      78.305  83.741  67.402  1.00  0.00     0.000 C 
BRANCH   3   4
ATOM      4  C   UNL     1      77.488  83.187  66.201  1.00  0.00    -0.000 C 
BRANCH   4   5
ATOM      5  C   UNL     1      76.016  82.857  66.577  1.00  0.00    -0.000 C 
BRANCH   5   6
ATOM      6  C   UNL     1      75.512  81.544  65.920  1.00  0.00    -0.003 C 
ATOM      7  C   UNL     1      76.186  81.257  64.560  1.00  0.00     0.004 C 
ENDBRANCH   5   6
ENDBRANCH   4   5
ENDBRANCH   3   4
ENDBRANCH   2   3
ENDBRANCH   1   2
BRANCH   1   8
ATOM      8  C   UNL     1      78.115  86.728  67.806  1.00  0.00     0.100 C 
BRANCH   8   9
ATOM      9  C   UNL     1      76.852  86.983  67.072  1.00  0.00     0.220 C 
ATOM     10  O   UNL     1      75.904  87.523  67.690  1.00  0.00    -0.275 OA
ATOM     11  N   UNL     1      76.741  86.662  65.750  1.00  0.00    -0.352 N 
ATOM     12  H   UNL     1      77.530  86.155  65.375  1.00  0.00     0.163 HD
BRANCH  11  13
ATOM     13  C   UNL     1      75.634  86.985  64.902  1.00  0.00     0.151 C 
BRANCH  13  14
ATOM     14  C   UNL     1      74.815  85.807  64.509  1.00  0.00    -0.025 A 
ATOM     15  C   UNL     1      73.687  85.436  65.279  1.00  0.00     0.056 A 
ATOM     16  C   UNL     1      75.147  85.039  63.369  1.00  0.00     0.009 A 
ATOM     17  C   UNL     1      72.888  84.329  64.907  1.00  0.00     0.160 A 
ATOM     18  C   UNL     1      74.356  83.938  62.994  1.00  0.00     0.050 A 
ATOM     19  C   UNL     1      73.233  83.575  63.763  1.00  0.00     0.157 A 
BRANCH  17  20
ATOM     20  O   UNL     1      71.820  83.945  65.678  1.00  0.00    -0.493 OA
ATOM     21  C   UNL     1      72.162  83.617  67.036  1.00  0.00     0.278 C 
ENDBRANCH  17  20
BRANCH  19  22
ATOM     22  O   UNL     1      72.493  82.494  63.408  1.00  0.00    -0.504 OA
ATOM     23  H   UNL     1      72.670  81.772  64.015  1.00  0.00     0.293 HD
ENDBRANCH  19  22
ENDBRANCH  13  14
ENDBRANCH  11  13
ENDBRANCH   8   9
ENDBRANCH   1   8
TORSDOF 11
ENDMDL
MODEL 4
REMARK VINA RESULT:    -5.115     20.010     22.901
REMARK INTER + INTRA:          -9.027
REMARK INTER:                  -8.155
REMARK INTRA:                  -0.871
REMARK UNBOUND:                -0.772
REMARK SMILES CCCCCCCCC(=O)NCc1ccc(O)c(OC)c1
REMARK SMILES IDX 7 1 6 2 5 3 4 4 3 5 2 6 1 7 8 8 9 9 10 10 11 11 12 13 13 14
REMARK SMILES IDX 21 15 14 16 18 17 15 18 16 19 19 20 20 21 17 22
REMARK H PARENT 11 12 17 23
REMARK Flexibility Score: inf
ROOT
ATOM      1  C   UNL     1      77.477  85.215  70.220  1.00  0.00     0.010 C 
ENDROOT
BRANCH   1   2
ATOM      2  C   UNL     1      77.261  84.056  69.206  1.00  0.00     0.001 C 
BRANCH   2   3
ATOM      3  C   UNL     1      78.140  84.217  67.931  1.00  0.00     0.000 C 
BRANCH   3   4
ATOM      4  C   UNL     1      77.399  83.866  66.610  1.00  0.00    -0.000 C 
BRANCH   4   5
ATOM      5  C   UNL     1      75.947  83.363  66.852  1.00  0.00    -0.000 C 
BRANCH   5   6
ATOM      6  C   UNL     1      75.735  81.902  66.374  1.00  0.00    -0.003 C 
ATOM      7  C   UNL     1      76.752  81.470  65.294  1.00  0.00     0.004 C 
ENDBRANCH   5   6
ENDBRANCH   4   5
ENDBRANCH   3   4
ENDBRANCH   2   3
ENDBRANCH   1   2
BRANCH   1   8
ATOM      8  C   UNL     1      77.751  86.592  69.553  1.00  0.00     0.100 C 
BRANCH   8   9
ATOM      9  C   UNL     1      76.500  87.372  69.392  1.00  0.00     0.220 C 
ATOM     10  O   UNL     1      76.376  88.095  68.375  1.00  0.00    -0.275 OA
ATOM     11  N   UNL     1      75.499  87.277  70.317  1.00  0.00    -0.352 N 
ATOM     12  H   UNL     1      75.738  86.738  71.136  1.00  0.00     0.163 HD
BRANCH  11  13
ATOM     13  C   UNL     1      74.199  87.864  70.204  1.00  0.00     0.151 C 
BRANCH  13  14
ATOM     14  C   UNL     1      73.974  89.010  71.126  1.00  0.00    -0.025 A 
ATOM     15  C   UNL     1      74.674  90.226  70.934  1.00  0.00     0.056 A 
ATOM     16  C   UNL     1      73.068  88.907  72.206  1.00  0.00     0.009 A 
ATOM     17  C   UNL     1      74.458  91.329  71.791  1.00  0.00     0.160 A 
ATOM     18  C   UNL     1      72.848  90.002  73.061  1.00  0.00     0.050 A 
ATOM     19  C   UNL     1      73.544  91.209  72.863  1.00  0.00     0.157 A 
BRANCH  17  20
ATOM     20  O   UNL     1      75.167  92.492  71.629  1.00  0.00    -0.493 OA
ATOM     21  C   UNL     1      76.532  92.417  72.077  1.00  0.00     0.278 C 
ENDBRANCH  17  20
BRANCH  19  22
ATOM     22  O   UNL     1      73.346  92.251  73.710  1.00  0.00    -0.504 OA
ATOM     23  H   UNL     1      74.108  92.344  74.287  1.00  0.00     0.293 HD
ENDBRANCH  19  22
ENDBRANCH  13  14
ENDBRANCH  11  13
ENDBRANCH   8   9
ENDBRANCH   1   8
TORSDOF 11
ENDMDL
MODEL 5
REMARK VINA RESULT:    -5.104     12.257     14.127
REMARK INTER + INTRA:          -9.008
REMARK INTER:                  -7.992
REMARK INTRA:                  -1.017
REMARK UNBOUND:                -0.772
REMARK SMILES CCCCCCCCC(=O)NCc1ccc(O)c(OC)c1
REMARK SMILES IDX 7 1 6 2 5 3 4 4 3 5 2 6 1 7 8 8 9 9 10 10 11 11 12 13 13 14
REMARK SMILES IDX 21 15 14 16 18 17 15 18 16 19 19 20 20 21 17 22
REMARK H PARENT 11 12 17 23
REMARK Flexibility Score: inf
ROOT
ATOM      1  C   UNL     1      94.485  84.442  88.330  1.00  0.00     0.010 C 
ENDROOT
BRANCH   1   2
ATOM      2  C   UNL     1      93.491  85.319  89.146  1.00  0.00     0.001 C 
BRANCH   2   3
ATOM      3  C   UNL     1      92.806  84.520  90.294  1.00  0.00     0.000 C 
BRANCH   3   4
ATOM      4  C   UNL     1      91.258  84.448  90.171  1.00  0.00    -0.000 C 
BRANCH   4   5
ATOM      5  C   UNL     1      90.791  83.863  88.808  1.00  0.00    -0.000 C 
BRANCH   5   6
ATOM      6  C   UNL     1      90.722  82.312  88.817  1.00  0.00    -0.003 C 
ATOM      7  C   UNL     1      89.589  81.756  87.926  1.00  0.00     0.004 C 
ENDBRANCH   5   6
ENDBRANCH   4   5
ENDBRANCH   3   4
ENDBRANCH   2   3
ENDBRANCH   1   2
BRANCH   1   8
ATOM      8  C   UNL     1      95.943  84.980  88.328  1.00  0.00     0.100 C 
BRANCH   8   9
ATOM      9  C   UNL     1      95.986  86.421  87.981  1.00  0.00     0.220 C 
ATOM     10  O   UNL     1      95.695  86.760  86.809  1.00  0.00    -0.275 OA
ATOM     11  N   UNL     1      96.308  87.353  88.925  1.00  0.00    -0.352 N 
ATOM     12  H   UNL     1      96.609  86.966  89.808  1.00  0.00     0.163 HD
BRANCH  11  13
ATOM     13  C   UNL     1      96.248  88.772  88.754  1.00  0.00     0.151 C 
BRANCH  13  14
ATOM     14  C   UNL     1      95.153  89.425  89.520  1.00  0.00    -0.025 A 
ATOM     15  C   UNL     1      94.429  88.692  90.491  1.00  0.00     0.056 A 
ATOM     16  C   UNL     1      94.815  90.779  89.294  1.00  0.00     0.009 A 
ATOM     17  C   UNL     1      93.397  89.304  91.240  1.00  0.00     0.160 A 
ATOM     18  C   UNL     1      93.790  91.393  90.036  1.00  0.00     0.050 A 
ATOM     19  C   UNL     1      93.075  90.659  91.002  1.00  0.00     0.157 A 
BRANCH  17  20
ATOM     20  O   UNL     1      92.668  88.581  92.150  1.00  0.00    -0.493 OA
ATOM     21  C   UNL     1      93.324  87.389  92.616  1.00  0.00     0.278 C 
ENDBRANCH  17  20
BRANCH  19  22
ATOM     22  O   UNL     1      92.070  91.254  91.694  1.00  0.00    -0.504 OA
ATOM     23  H   UNL     1      91.984  90.838  92.555  1.00  0.00     0.293 HD
ENDBRANCH  19  22
ENDBRANCH  13  14
ENDBRANCH  11  13
ENDBRANCH   8   9
ENDBRANCH   1   8
TORSDOF 11
ENDMDL
MODEL 6
REMARK VINA RESULT:    -5.051     32.728     34.716
REMARK INTER + INTRA:          -8.923
REMARK INTER:                  -7.818
REMARK INTRA:                  -1.106
REMARK UNBOUND:                -0.772
REMARK SMILES CCCCCCCCC(=O)NCc1ccc(O)c(OC)c1
REMARK SMILES IDX 7 1 6 2 5 3 4 4 3 5 2 6 1 7 8 8 9 9 10 10 11 11 12 13 13 14
REMARK SMILES IDX 21 15 14 16 18 17 15 18 16 19 19 20 20 21 17 22
REMARK H PARENT 11 12 17 23
REMARK Flexibility Score: inf
ROOT
ATOM      1  C   UNL     1      61.789  84.127  69.965  1.00  0.00     0.010 C 
ENDROOT
BRANCH   1   2
ATOM      2  C   UNL     1      62.225  83.018  68.964  1.00  0.00     0.001 C 
BRANCH   2   3
ATOM      3  C   UNL     1      63.772  82.936  68.812  1.00  0.00     0.000 C 
BRANCH   3   4
ATOM      4  C   UNL     1      64.540  83.026  70.162  1.00  0.00    -0.000 C 
BRANCH   4   5
ATOM      5  C   UNL     1      64.290  81.794  71.078  1.00  0.00    -0.000 C 
BRANCH   5   6
ATOM      6  C   UNL     1      63.903  82.198  72.526  1.00  0.00    -0.003 C 
ATOM      7  C   UNL     1      63.681  80.979  73.449  1.00  0.00     0.004 C 
ENDBRANCH   5   6
ENDBRANCH   4   5
ENDBRANCH   3   4
ENDBRANCH   2   3
ENDBRANCH   1   2
BRANCH   1   8
ATOM      8  C   UNL     1      60.299  84.548  69.829  1.00  0.00     0.100 C 
BRANCH   8   9
ATOM      9  C   UNL     1      59.713  84.891  71.147  1.00  0.00     0.220 C 
ATOM     10  O   UNL     1      58.473  84.772  71.296  1.00  0.00    -0.275 OA
ATOM     11  N   UNL     1      60.511  85.297  72.177  1.00  0.00    -0.352 N 
ATOM     12  H   UNL     1      61.478  85.442  71.924  1.00  0.00     0.163 HD
BRANCH  11  13
ATOM     13  C   UNL     1      60.087  85.519  73.526  1.00  0.00     0.151 C 
BRANCH  13  14
ATOM     14  C   UNL     1      61.098  85.130  74.546  1.00  0.00    -0.025 A 
ATOM     15  C   UNL     1      61.781  86.124  75.287  1.00  0.00     0.056 A 
ATOM     16  C   UNL     1      61.397  83.770  74.790  1.00  0.00     0.009 A 
ATOM     17  C   UNL     1      62.731  85.769  76.272  1.00  0.00     0.160 A 
ATOM     18  C   UNL     1      62.341  83.410  75.768  1.00  0.00     0.050 A 
ATOM     19  C   UNL     1      63.015  84.404  76.505  1.00  0.00     0.157 A 
BRANCH  17  20
ATOM     20  O   UNL     1      63.423  86.734  76.960  1.00  0.00    -0.493 OA
ATOM     21  C   UNL     1      62.722  87.984  77.083  1.00  0.00     0.278 C 
ENDBRANCH  17  20
BRANCH  19  22
ATOM     22  O   UNL     1      63.944  84.047  77.428  1.00  0.00    -0.504 OA
ATOM     23  H   UNL     1      64.218  83.140  77.272  1.00  0.00     0.293 HD
ENDBRANCH  19  22
ENDBRANCH  13  14
ENDBRANCH  11  13
ENDBRANCH   8   9
ENDBRANCH   1   8
TORSDOF 11
ENDMDL
MODEL 7
REMARK VINA RESULT:    -4.997     22.528     26.366
REMARK INTER + INTRA:          -8.836
REMARK INTER:                  -7.756
REMARK INTRA:                  -1.080
REMARK UNBOUND:                -0.772
REMARK SMILES CCCCCCCCC(=O)NCc1ccc(O)c(OC)c1
REMARK SMILES IDX 7 1 6 2 5 3 4 4 3 5 2 6 1 7 8 8 9 9 10 10 11 11 12 13 13 14
REMARK SMILES IDX 21 15 14 16 18 17 15 18 16 19 19 20 20 21 17 22
REMARK H PARENT 11 12 17 23
REMARK Flexibility Score: inf
ROOT
ATOM      1  C   UNL     1      77.066  85.438  70.067  1.00  0.00     0.010 C 
ENDROOT
BRANCH   1   2
ATOM      2  C   UNL     1      77.039  84.055  69.354  1.00  0.00     0.001 C 
BRANCH   2   3
ATOM      3  C   UNL     1      77.948  84.026  68.090  1.00  0.00     0.000 C 
BRANCH   3   4
ATOM      4  C   UNL     1      77.212  83.568  66.799  1.00  0.00    -0.000 C 
BRANCH   4   5
ATOM      5  C   UNL     1      75.732  83.169  67.062  1.00  0.00    -0.000 C 
BRANCH   5   6
ATOM      6  C   UNL     1      75.385  81.764  66.499  1.00  0.00    -0.003 C 
ATOM      7  C   UNL     1      76.083  81.467  65.153  1.00  0.00     0.004 C 
ENDBRANCH   5   6
ENDBRANCH   4   5
ENDBRANCH   3   4
ENDBRANCH   2   3
ENDBRANCH   1   2
BRANCH   1   8
ATOM      8  C   UNL     1      76.863  86.644  69.108  1.00  0.00     0.100 C 
BRANCH   8   9
ATOM      9  C   UNL     1      75.453  87.102  69.107  1.00  0.00     0.220 C 
ATOM     10  O   UNL     1      75.200  88.253  69.537  1.00  0.00    -0.275 OA
ATOM     11  N   UNL     1      74.462  86.297  68.622  1.00  0.00    -0.352 N 
ATOM     12  H   UNL     1      74.762  85.363  68.384  1.00  0.00     0.163 HD
BRANCH  11  13
ATOM     13  C   UNL     1      73.094  86.674  68.438  1.00  0.00     0.151 C 
BRANCH  13  14
ATOM     14  C   UNL     1      72.125  85.588  68.746  1.00  0.00    -0.025 A 
ATOM     15  C   UNL     1      71.763  84.652  67.748  1.00  0.00     0.056 A 
ATOM     16  C   UNL     1      71.547  85.473  70.031  1.00  0.00     0.009 A 
ATOM     17  C   UNL     1      70.856  83.605  68.031  1.00  0.00     0.160 A 
ATOM     18  C   UNL     1      70.645  84.433  70.320  1.00  0.00     0.050 A 
ATOM     19  C   UNL     1      70.292  83.504  69.323  1.00  0.00     0.157 A 
BRANCH  17  20
ATOM     20  O   UNL     1      70.474  82.724  67.051  1.00  0.00    -0.493 OA
ATOM     21  C   UNL     1      71.571  82.102  66.358  1.00  0.00     0.278 C 
ENDBRANCH  17  20
BRANCH  19  22
ATOM     22  O   UNL     1      69.399  82.520  69.603  1.00  0.00    -0.504 OA
ATOM     23  H   UNL     1      69.819  81.855  70.155  1.00  0.00     0.293 HD
ENDBRANCH  19  22
ENDBRANCH  13  14
ENDBRANCH  11  13
ENDBRANCH   8   9
ENDBRANCH   1   8
TORSDOF 11
ENDMDL
MODEL 8
REMARK VINA RESULT:    -4.986     22.248     26.012
REMARK INTER + INTRA:          -8.819
REMARK INTER:                  -7.496
REMARK INTRA:                  -1.323
REMARK UNBOUND:                -0.772
REMARK SMILES CCCCCCCCC(=O)NCc1ccc(O)c(OC)c1
REMARK SMILES IDX 7 1 6 2 5 3 4 4 3 5 2 6 1 7 8 8 9 9 10 10 11 11 12 13 13 14
REMARK SMILES IDX 21 15 14 16 18 17 15 18 16 19 19 20 20 21 17 22
REMARK H PARENT 11 12 17 23
REMARK Flexibility Score: inf
ROOT
ATOM      1  C   UNL     1      77.406  85.170  70.188  1.00  0.00     0.010 C 
ENDROOT
BRANCH   1   2
ATOM      2  C   UNL     1      77.314  84.097  69.066  1.00  0.00     0.001 C 
BRANCH   2   3
ATOM      3  C   UNL     1      78.139  84.490  67.805  1.00  0.00     0.000 C 
BRANCH   3   4
ATOM      4  C   UNL     1      77.276  84.689  66.527  1.00  0.00    -0.000 C 
BRANCH   4   5
ATOM      5  C   UNL     1      75.993  83.809  66.527  1.00  0.00    -0.000 C 
BRANCH   5   6
ATOM      6  C   UNL     1      76.236  82.403  65.913  1.00  0.00    -0.003 C 
ATOM      7  C   UNL     1      75.075  81.421  66.185  1.00  0.00     0.004 C 
ENDBRANCH   5   6
ENDBRANCH   4   5
ENDBRANCH   3   4
ENDBRANCH   2   3
ENDBRANCH   1   2
BRANCH   1   8
ATOM      8  C   UNL     1      77.041  86.606  69.718  1.00  0.00     0.100 C 
BRANCH   8   9
ATOM      9  C   UNL     1      75.573  86.814  69.710  1.00  0.00     0.220 C 
ATOM     10  O   UNL     1      74.997  87.035  70.802  1.00  0.00    -0.275 OA
ATOM     11  N   UNL     1      74.875  86.794  68.536  1.00  0.00    -0.352 N 
ATOM     12  H   UNL     1      75.421  86.523  67.731  1.00  0.00     0.163 HD
BRANCH  11  13
ATOM     13  C   UNL     1      73.490  87.119  68.381  1.00  0.00     0.151 C 
BRANCH  13  14
ATOM     14  C   UNL     1      72.601  85.930  68.285  1.00  0.00    -0.025 A 
ATOM     15  C   UNL     1      72.043  85.362  69.455  1.00  0.00     0.056 A 
ATOM     16  C   UNL     1      72.302  85.346  67.033  1.00  0.00     0.009 A 
ATOM     17  C   UNL     1      71.182  84.243  69.378  1.00  0.00     0.160 A 
ATOM     18  C   UNL     1      71.445  84.233  66.950  1.00  0.00     0.050 A 
ATOM     19  C   UNL     1      70.891  83.675  68.118  1.00  0.00     0.157 A 
BRANCH  17  20
ATOM     20  O   UNL     1      70.676  83.668  70.517  1.00  0.00    -0.493 OA
ATOM     21  C   UNL     1      69.753  84.503  71.238  1.00  0.00     0.278 C 
ENDBRANCH  17  20
BRANCH  19  22
ATOM     22  O   UNL     1      70.088  82.584  68.029  1.00  0.00    -0.504 OA
ATOM     23  H   UNL     1      70.614  81.818  67.786  1.00  0.00     0.293 HD
ENDBRANCH  19  22
ENDBRANCH  13  14
ENDBRANCH  11  13
ENDBRANCH   8   9
ENDBRANCH   1   8
TORSDOF 11
ENDMDL
MODEL 9
REMARK VINA RESULT:    -4.905     35.047     37.718
REMARK INTER + INTRA:          -8.688
REMARK INTER:                  -7.935
REMARK INTRA:                  -0.752
REMARK UNBOUND:                -0.772
REMARK SMILES CCCCCCCCC(=O)NCc1ccc(O)c(OC)c1
REMARK SMILES IDX 7 1 6 2 5 3 4 4 3 5 2 6 1 7 8 8 9 9 10 10 11 11 12 13 13 14
REMARK SMILES IDX 21 15 14 16 18 17 15 18 16 19 19 20 20 21 17 22
REMARK H PARENT 11 12 17 23
REMARK Flexibility Score: inf
ROOT
ATOM      1  C   UNL     1      57.606  89.000  69.283  1.00  0.00     0.010 C 
ENDROOT
BRANCH   1   2
ATOM      2  C   UNL     1      56.141  89.517  69.187  1.00  0.00     0.001 C 
BRANCH   2   3
ATOM      3  C   UNL     1      55.563  89.384  67.747  1.00  0.00     0.000 C 
BRANCH   3   4
ATOM      4  C   UNL     1      55.146  87.934  67.371  1.00  0.00    -0.000 C 
BRANCH   4   5
ATOM      5  C   UNL     1      55.192  87.675  65.838  1.00  0.00    -0.000 C 
BRANCH   5   6
ATOM      6  C   UNL     1      56.449  88.291  65.167  1.00  0.00    -0.003 C 
ATOM      7  C   UNL     1      56.789  87.634  63.811  1.00  0.00     0.004 C 
ENDBRANCH   5   6
ENDBRANCH   4   5
ENDBRANCH   3   4
ENDBRANCH   2   3
ENDBRANCH   1   2
BRANCH   1   8
ATOM      8  C   UNL     1      58.214  89.093  70.711  1.00  0.00     0.100 C 
BRANCH   8   9
ATOM      9  C   UNL     1      58.472  87.747  71.276  1.00  0.00     0.220 C 
ATOM     10  O   UNL     1      58.752  87.657  72.495  1.00  0.00    -0.275 OA
ATOM     11  N   UNL     1      58.379  86.634  70.489  1.00  0.00    -0.352 N 
ATOM     12  H   UNL     1      58.235  86.827  69.509  1.00  0.00     0.163 HD
BRANCH  11  13
ATOM     13  C   UNL     1      58.466  85.280  70.943  1.00  0.00     0.151 C 
BRANCH  13  14
ATOM     14  C   UNL     1      59.853  84.744  70.974  1.00  0.00    -0.025 A 
ATOM     15  C   UNL     1      60.460  84.412  72.209  1.00  0.00     0.056 A 
ATOM     16  C   UNL     1      60.588  84.561  69.781  1.00  0.00     0.009 A 
ATOM     17  C   UNL     1      61.772  83.885  72.253  1.00  0.00     0.160 A 
ATOM     18  C   UNL     1      61.893  84.036  69.818  1.00  0.00     0.050 A 
ATOM     19  C   UNL     1      62.490  83.705  71.050  1.00  0.00     0.157 A 
BRANCH  17  20
ATOM     20  O   UNL     1      62.374  83.604  73.454  1.00  0.00    -0.493 OA
ATOM     21  C   UNL     1      61.896  82.403  74.085  1.00  0.00     0.278 C 
ENDBRANCH  17  20
BRANCH  19  22
ATOM     22  O   UNL     1      63.760  83.226  71.077  1.00  0.00    -0.504 OA
ATOM     23  H   UNL     1      64.095  83.260  71.976  1.00  0.00     0.293 HD
ENDBRANCH  19  22
ENDBRANCH  13  14
ENDBRANCH  11  13
ENDBRANCH   8   9
ENDBRANCH   1   8
TORSDOF 11
ENDMDL
MODEL 10
REMARK VINA RESULT:    -4.864     32.294     34.587
REMARK INTER + INTRA:          -8.622
REMARK INTER:                  -7.112
REMARK INTRA:                  -1.510
REMARK UNBOUND:                -0.772
REMARK SMILES CCCCCCCCC(=O)NCc1ccc(O)c(OC)c1
REMARK SMILES IDX 7 1 6 2 5 3 4 4 3 5 2 6 1 7 8 8 9 9 10 10 11 11 12 13 13 14
REMARK SMILES IDX 21 15 14 16 18 17 15 18 16 19 19 20 20 21 17 22
REMARK H PARENT 11 12 17 23
REMARK Flexibility Score: inf
ROOT
ATOM      1  C   UNL     1      64.204  85.701  68.523  1.00  0.00     0.010 C 
ENDROOT
BRANCH   1   2
ATOM      2  C   UNL     1      62.829  86.428  68.564  1.00  0.00     0.001 C 
BRANCH   2   3
ATOM      3  C   UNL     1      62.075  86.184  69.904  1.00  0.00     0.000 C 
BRANCH   3   4
ATOM      4  C   UNL     1      60.879  85.198  69.781  1.00  0.00    -0.000 C 
BRANCH   4   5
ATOM      5  C   UNL     1      60.614  84.409  71.094  1.00  0.00    -0.000 C 
BRANCH   5   6
ATOM      6  C   UNL     1      59.204  84.688  71.683  1.00  0.00    -0.003 C 
ATOM      7  C   UNL     1      59.153  85.978  72.530  1.00  0.00     0.004 C 
ENDBRANCH   5   6
ENDBRANCH   4   5
ENDBRANCH   3   4
ENDBRANCH   2   3
ENDBRANCH   1   2
BRANCH   1   8
ATOM      8  C   UNL     1      64.173  84.335  67.782  1.00  0.00     0.100 C 
BRANCH   8   9
ATOM      9  C   UNL     1      64.047  83.207  68.735  1.00  0.00     0.220 C 
ATOM     10  O   UNL     1      63.510  82.146  68.335  1.00  0.00    -0.275 OA
ATOM     11  N   UNL     1      64.533  83.316  70.007  1.00  0.00    -0.352 N 
ATOM     12  H   UNL     1      64.865  84.237  70.249  1.00  0.00     0.163 HD
BRANCH  11  13
ATOM     13  C   UNL     1      64.599  82.259  70.969  1.00  0.00     0.151 C 
BRANCH  13  14
ATOM     14  C   UNL     1      63.772  82.497  72.182  1.00  0.00    -0.025 A 
ATOM     15  C   UNL     1      63.790  83.760  72.820  1.00  0.00     0.056 A 
ATOM     16  C   UNL     1      62.959  81.473  72.720  1.00  0.00     0.009 A 
ATOM     17  C   UNL     1      62.996  84.007  73.963  1.00  0.00     0.160 A 
ATOM     18  C   UNL     1      62.166  81.712  73.856  1.00  0.00     0.050 A 
ATOM     19  C   UNL     1      62.187  82.972  74.484  1.00  0.00     0.157 A 
BRANCH  17  20
ATOM     20  O   UNL     1      63.047  85.219  74.605  1.00  0.00    -0.493 OA
ATOM     21  C   UNL     1      64.300  85.486  75.260  1.00  0.00     0.278 C 
ENDBRANCH  17  20
BRANCH  19  22
ATOM     22  O   UNL     1      61.439  83.185  75.597  1.00  0.00    -0.504 OA
ATOM     23  H   UNL     1      60.647  83.674  75.361  1.00  0.00     0.293 HD
ENDBRANCH  19  22
ENDBRANCH  13  14
ENDBRANCH  11  13
ENDBRANCH   8   9
ENDBRANCH   1   8
TORSDOF 11
ENDMDL
