MODEL 1
REMARK VINA RESULT:    -6.237      0.000      0.000
REMARK INTER + INTRA:         -10.992
REMARK INTER:                 -10.066
REMARK INTRA:                  -0.926
REMARK UNBOUND:                -0.926
REMARK SMILES COc1cc(CNC(=O)CCCCC/C=C/C(C)C)ccc1O
REMARK SMILES IDX 11 1 10 2 8 3 7 4 9 6 6 7 5 8 3 9 22 10 4 11 21 12 20 13
REMARK SMILES IDX 2 14 1 15 23 16 12 18 13 19 14 20 15 21 16 22 17 23 18 24
REMARK SMILES IDX 19 25
REMARK H PARENT 7 5 23 17
REMARK Flexibility Score: inf
ROOT
ATOM      1  C   UNL     1      77.750  83.926  68.085  1.00  0.00     0.010 C 
ENDROOT
BRANCH   1   2
ATOM      2  C   UNL     1      77.882  84.537  66.666  1.00  0.00     0.100 C 
BRANCH   2   3
ATOM      3  C   UNL     1      77.658  83.572  65.574  1.00  0.00     0.220 C 
ATOM      4  N   UNL     1      77.325  82.284  65.865  1.00  0.00    -0.352 N 
ATOM      5  H   UNL     1      77.327  82.060  66.850  1.00  0.00     0.163 HD
ATOM      6  O   UNL     1      77.743  83.980  64.391  1.00  0.00    -0.275 OA
BRANCH   4   7
ATOM      7  C   UNL     1      76.989  81.278  64.910  1.00  0.00     0.151 C 
BRANCH   7   8
ATOM      8  C   UNL     1      75.539  81.261  64.584  1.00  0.00    -0.025 A 
ATOM      9  C   UNL     1      73.188  81.412  65.292  1.00  0.00     0.160 A 
ATOM     10  C   UNL     1      72.774  81.175  63.963  1.00  0.00     0.157 A 
ATOM     11  C   UNL     1      74.565  81.444  65.594  1.00  0.00     0.056 A 
ATOM     12  C   UNL     1      73.734  81.008  62.948  1.00  0.00     0.050 A 
ATOM     13  C   UNL     1      75.107  81.062  63.254  1.00  0.00     0.009 A 
BRANCH   9  14
ATOM     14  O   UNL     1      72.264  81.662  66.271  1.00  0.00    -0.493 OA
ATOM     15  C   UNL     1      72.014  83.059  66.500  1.00  0.00     0.278 C 
ENDBRANCH   9  14
BRANCH  10  16
ATOM     16  O   UNL     1      71.459  81.108  63.636  1.00  0.00    -0.504 OA
ATOM     17  H   UNL     1      71.368  81.093  62.680  1.00  0.00     0.293 HD
ENDBRANCH  10  16
ENDBRANCH   7   8
ENDBRANCH   4   7
ENDBRANCH   2   3
ENDBRANCH   1   2
BRANCH   1  18
ATOM     18  C   UNL     1      77.894  85.015  69.179  1.00  0.00     0.001 C 
BRANCH  18  19
ATOM     19  C   UNL     1      77.052  84.736  70.450  1.00  0.00     0.004 C 
BRANCH  19  20
ATOM     20  C   UNL     1      75.736  85.563  70.451  1.00  0.00     0.027 C 
BRANCH  20  21
ATOM     21  C   UNL     1      75.910  86.938  70.015  1.00  0.00    -0.031 C 
ATOM     22  C   UNL     1      75.285  87.967  70.615  1.00  0.00    -0.028 C 
BRANCH  22  23
ATOM     23  C   UNL     1      75.442  89.360  70.205  1.00  0.00     0.005 C 
ATOM     24  C   UNL     1      74.934  89.553  68.751  1.00  0.00     0.012 C 
ATOM     25  C   UNL     1      74.723  90.300  71.210  1.00  0.00     0.012 C 
ENDBRANCH  22  23
ENDBRANCH  20  21
ENDBRANCH  19  20
ENDBRANCH  18  19
ENDBRANCH   1  18
TORSDOF 11
ENDMDL
MODEL 2
REMARK VINA RESULT:    -5.984      2.250      4.601
REMARK INTER + INTRA:         -10.584
REMARK INTER:                  -9.145
REMARK INTRA:                  -1.439
REMARK UNBOUND:                -0.926
REMARK SMILES COc1cc(CNC(=O)CCCCC/C=C/C(C)C)ccc1O
REMARK SMILES IDX 11 1 10 2 8 3 7 4 9 6 6 7 5 8 3 9 22 10 4 11 21 12 20 13
REMARK SMILES IDX 2 14 1 15 23 16 12 18 13 19 14 20 15 21 16 22 17 23 18 24
REMARK SMILES IDX 19 25
REMARK H PARENT 7 5 23 17
REMARK Flexibility Score: inf
ROOT
ATOM      1  C   UNL     1      76.552  81.740  65.761  1.00  0.00     0.010 C 
ENDROOT
BRANCH   1   2
ATOM      2  C   UNL     1      75.898  81.316  64.421  1.00  0.00     0.100 C 
BRANCH   2   3
ATOM      3  C   UNL     1      74.433  81.487  64.388  1.00  0.00     0.220 C 
ATOM      4  N   UNL     1      73.688  81.161  65.480  1.00  0.00    -0.352 N 
ATOM      5  H   UNL     1      74.210  80.742  66.237  1.00  0.00     0.163 HD
ATOM      6  O   UNL     1      73.914  81.971  63.355  1.00  0.00    -0.275 OA
BRANCH   4   7
ATOM      7  C   UNL     1      72.283  81.365  65.616  1.00  0.00     0.151 C 
BRANCH   7   8
ATOM      8  C   UNL     1      71.954  82.503  66.513  1.00  0.00    -0.025 A 
ATOM      9  C   UNL     1      70.362  83.688  67.966  1.00  0.00     0.160 A 
ATOM     10  C   UNL     1      71.317  84.705  68.181  1.00  0.00     0.157 A 
ATOM     11  C   UNL     1      70.684  82.601  67.128  1.00  0.00     0.056 A 
ATOM     12  C   UNL     1      72.590  84.610  67.589  1.00  0.00     0.050 A 
ATOM     13  C   UNL     1      72.910  83.511  66.770  1.00  0.00     0.009 A 
BRANCH   9  14
ATOM     14  O   UNL     1      69.152  83.727  68.607  1.00  0.00    -0.493 OA
ATOM     15  C   UNL     1      69.107  82.963  69.823  1.00  0.00     0.278 C 
ENDBRANCH   9  14
BRANCH  10  16
ATOM     16  O   UNL     1      71.037  85.782  68.958  1.00  0.00    -0.504 OA
ATOM     17  H   UNL     1      70.538  85.499  69.728  1.00  0.00     0.293 HD
ENDBRANCH  10  16
ENDBRANCH   7   8
ENDBRANCH   4   7
ENDBRANCH   2   3
ENDBRANCH   1   2
BRANCH   1  18
ATOM     18  C   UNL     1      76.503  83.278  65.946  1.00  0.00     0.001 C 
BRANCH  18  19
ATOM     19  C   UNL     1      77.894  83.924  66.168  1.00  0.00     0.004 C 
BRANCH  19  20
ATOM     20  C   UNL     1      78.325  83.843  67.660  1.00  0.00     0.027 C 
BRANCH  20  21
ATOM     21  C   UNL     1      77.214  83.901  68.593  1.00  0.00    -0.031 C 
ATOM     22  C   UNL     1      76.682  85.065  69.007  1.00  0.00    -0.028 C 
BRANCH  22  23
ATOM     23  C   UNL     1      75.562  85.157  69.939  1.00  0.00     0.005 C 
ATOM     24  C   UNL     1      75.859  84.334  71.220  1.00  0.00     0.012 C 
ATOM     25  C   UNL     1      75.247  86.645  70.255  1.00  0.00     0.012 C 
ENDBRANCH  22  23
ENDBRANCH  20  21
ENDBRANCH  19  20
ENDBRANCH  18  19
ENDBRANCH   1  18
TORSDOF 11
ENDMDL
MODEL 3
REMARK VINA RESULT:    -5.887      1.715      2.765
REMARK INTER + INTRA:         -10.426
REMARK INTER:                  -9.723
REMARK INTRA:                  -0.704
REMARK UNBOUND:                -0.926
REMARK SMILES COc1cc(CNC(=O)CCCCC/C=C/C(C)C)ccc1O
REMARK SMILES IDX 11 1 10 2 8 3 7 4 9 6 6 7 5 8 3 9 22 10 4 11 21 12 20 13
REMARK SMILES IDX 2 14 1 15 23 16 12 18 13 19 14 20 15 21 16 22 17 23 18 24
REMARK SMILES IDX 19 25
REMARK H PARENT 7 5 23 17
REMARK Flexibility Score: inf
ROOT
ATOM      1  C   UNL     1      76.083  85.830  69.870  1.00  0.00     0.010 C 
ENDROOT
BRANCH   1   2
ATOM      2  C   UNL     1      77.027  84.601  69.905  1.00  0.00     0.100 C 
BRANCH   2   3
ATOM      3  C   UNL     1      77.485  84.157  68.575  1.00  0.00     0.220 C 
ATOM      4  N   UNL     1      76.623  83.511  67.742  1.00  0.00    -0.352 N 
ATOM      5  H   UNL     1      75.718  83.312  68.144  1.00  0.00     0.163 HD
ATOM      6  O   UNL     1      78.659  84.428  68.228  1.00  0.00    -0.275 OA
BRANCH   4   7
ATOM      7  C   UNL     1      76.905  83.116  66.400  1.00  0.00     0.151 C 
BRANCH   7   8
ATOM      8  C   UNL     1      75.788  82.357  65.780  1.00  0.00    -0.025 A 
ATOM      9  C   UNL     1      73.434  81.645  65.774  1.00  0.00     0.160 A 
ATOM     10  C   UNL     1      73.675  80.863  64.623  1.00  0.00     0.157 A 
ATOM     11  C   UNL     1      74.493  82.377  66.348  1.00  0.00     0.056 A 
ATOM     12  C   UNL     1      74.955  80.849  64.039  1.00  0.00     0.050 A 
ATOM     13  C   UNL     1      76.002  81.599  64.608  1.00  0.00     0.009 A 
BRANCH   9  14
ATOM     14  O   UNL     1      72.172  81.735  66.298  1.00  0.00    -0.493 OA
ATOM     15  C   UNL     1      71.449  82.909  65.892  1.00  0.00     0.278 C 
ENDBRANCH   9  14
BRANCH  10  16
ATOM     16  O   UNL     1      72.691  80.122  64.056  1.00  0.00    -0.504 OA
ATOM     17  H   UNL     1      73.081  79.457  63.483  1.00  0.00     0.293 HD
ENDBRANCH  10  16
ENDBRANCH   7   8
ENDBRANCH   4   7
ENDBRANCH   2   3
ENDBRANCH   1   2
BRANCH   1  18
ATOM     18  C   UNL     1      76.840  87.104  69.418  1.00  0.00     0.001 C 
BRANCH  18  19
ATOM     19  C   UNL     1      76.308  88.408  70.064  1.00  0.00     0.004 C 
BRANCH  19  20
ATOM     20  C   UNL     1      74.910  88.191  70.710  1.00  0.00     0.027 C 
BRANCH  20  21
ATOM     21  C   UNL     1      74.311  89.408  71.230  1.00  0.00    -0.031 C 
ATOM     22  C   UNL     1      73.461  89.403  72.272  1.00  0.00    -0.028 C 
BRANCH  22  23
ATOM     23  C   UNL     1      72.847  90.609  72.822  1.00  0.00     0.005 C 
ATOM     24  C   UNL     1      72.335  90.343  74.262  1.00  0.00     0.012 C 
ATOM     25  C   UNL     1      73.846  91.796  72.761  1.00  0.00     0.012 C 
ENDBRANCH  22  23
ENDBRANCH  20  21
ENDBRANCH  19  20
ENDBRANCH  18  19
ENDBRANCH   1  18
TORSDOF 11
ENDMDL
MODEL 4
REMARK VINA RESULT:    -5.872     25.693     28.894
REMARK INTER + INTRA:         -10.403
REMARK INTER:                  -9.497
REMARK INTRA:                  -0.906
REMARK UNBOUND:                -0.926
REMARK SMILES COc1cc(CNC(=O)CCCCC/C=C/C(C)C)ccc1O
REMARK SMILES IDX 11 1 10 2 8 3 7 4 9 6 6 7 5 8 3 9 22 10 4 11 21 12 20 13
REMARK SMILES IDX 2 14 1 15 23 16 12 18 13 19 14 20 15 21 16 22 17 23 18 24
REMARK SMILES IDX 19 25
REMARK H PARENT 7 5 23 17
REMARK Flexibility Score: inf
ROOT
ATOM      1  C   UNL     1      99.590  82.549  79.792  1.00  0.00     0.010 C 
ENDROOT
BRANCH   1   2
ATOM      2  C   UNL     1     100.243  81.226  80.271  1.00  0.00     0.100 C 
BRANCH   2   3
ATOM      3  C   UNL     1     100.166  81.011  81.728  1.00  0.00     0.220 C 
ATOM      4  N   UNL     1      99.090  81.472  82.425  1.00  0.00    -0.352 N 
ATOM      5  H   UNL     1      98.434  82.012  81.878  1.00  0.00     0.163 HD
ATOM      6  O   UNL     1     101.086  80.366  82.285  1.00  0.00    -0.275 OA
BRANCH   4   7
ATOM      7  C   UNL     1      98.844  81.250  83.813  1.00  0.00     0.151 C 
BRANCH   7   8
ATOM      8  C   UNL     1      98.397  82.479  84.518  1.00  0.00    -0.025 A 
ATOM      9  C   UNL     1      98.490  83.976  86.467  1.00  0.00     0.160 A 
ATOM     10  C   UNL     1      97.500  84.797  85.883  1.00  0.00     0.157 A 
ATOM     11  C   UNL     1      98.924  82.821  85.786  1.00  0.00     0.056 A 
ATOM     12  C   UNL     1      96.982  84.475  84.615  1.00  0.00     0.050 A 
ATOM     13  C   UNL     1      97.434  83.331  83.933  1.00  0.00     0.009 A 
BRANCH   9  14
ATOM     14  O   UNL     1      99.064  84.327  87.660  1.00  0.00    -0.493 OA
ATOM     15  C   UNL     1     100.496  84.202  87.682  1.00  0.00     0.278 C 
ENDBRANCH   9  14
BRANCH  10  16
ATOM     16  O   UNL     1      97.035  85.901  86.518  1.00  0.00    -0.504 OA
ATOM     17  H   UNL     1      96.171  86.131  86.167  1.00  0.00     0.293 HD
ENDBRANCH  10  16
ENDBRANCH   7   8
ENDBRANCH   4   7
ENDBRANCH   2   3
ENDBRANCH   1   2
BRANCH   1  18
ATOM     18  C   UNL     1      98.274  82.276  79.021  1.00  0.00     0.001 C 
BRANCH  18  19
ATOM     19  C   UNL     1      97.521  83.563  78.597  1.00  0.00     0.004 C 
BRANCH  19  20
ATOM     20  C   UNL     1      97.399  83.665  77.051  1.00  0.00     0.027 C 
BRANCH  20  21
ATOM     21  C   UNL     1      98.541  84.301  76.416  1.00  0.00    -0.031 C 
ATOM     22  C   UNL     1      99.636  83.612  76.050  1.00  0.00    -0.028 C 
BRANCH  22  23
ATOM     23  C   UNL     1     100.797  84.220  75.405  1.00  0.00     0.005 C 
ATOM     24  C   UNL     1     100.441  85.637  74.883  1.00  0.00     0.012 C 
ATOM     25  C   UNL     1     102.005  84.237  76.380  1.00  0.00     0.012 C 
ENDBRANCH  22  23
ENDBRANCH  20  21
ENDBRANCH  19  20
ENDBRANCH  18  19
ENDBRANCH   1  18
TORSDOF 11
ENDMDL
MODEL 5
REMARK VINA RESULT:    -5.827     25.297     27.902
REMARK INTER + INTRA:         -10.329
REMARK INTER:                  -9.685
REMARK INTRA:                  -0.644
REMARK UNBOUND:                -0.926
REMARK SMILES COc1cc(CNC(=O)CCCCC/C=C/C(C)C)ccc1O
REMARK SMILES IDX 11 1 10 2 8 3 7 4 9 6 6 7 5 8 3 9 22 10 4 11 21 12 20 13
REMARK SMILES IDX 2 14 1 15 23 16 12 18 13 19 14 20 15 21 16 22 17 23 18 24
REMARK SMILES IDX 19 25
REMARK H PARENT 7 5 23 17
REMARK Flexibility Score: inf
ROOT
ATOM      1  C   UNL     1      96.864  84.024  86.079  1.00  0.00     0.010 C 
ENDROOT
BRANCH   1   2
ATOM      2  C   UNL     1      96.889  84.252  84.545  1.00  0.00     0.100 C 
BRANCH   2   3
ATOM      3  C   UNL     1      97.789  83.337  83.818  1.00  0.00     0.220 C 
ATOM      4  N   UNL     1      97.989  83.504  82.481  1.00  0.00    -0.352 N 
ATOM      5  H   UNL     1      97.426  84.229  82.058  1.00  0.00     0.163 HD
ATOM      6  O   UNL     1      98.383  82.444  84.467  1.00  0.00    -0.275 OA
BRANCH   4   7
ATOM      7  C   UNL     1      98.902  82.756  81.679  1.00  0.00     0.151 C 
BRANCH   7   8
ATOM      8  C   UNL     1      98.741  83.026  80.227  1.00  0.00    -0.025 A 
ATOM      9  C   UNL     1      99.684  83.144  77.959  1.00  0.00     0.160 A 
ATOM     10  C   UNL     1      98.440  83.594  77.465  1.00  0.00     0.157 A 
ATOM     11  C   UNL     1      99.828  82.872  79.335  1.00  0.00     0.056 A 
ATOM     12  C   UNL     1      97.348  83.734  78.341  1.00  0.00     0.050 A 
ATOM     13  C   UNL     1      97.494  83.442  79.710  1.00  0.00     0.009 A 
BRANCH   9  14
ATOM     14  O   UNL     1     100.729  82.921  77.102  1.00  0.00    -0.493 OA
ATOM     15  C   UNL     1     100.918  81.539  76.752  1.00  0.00     0.278 C 
ENDBRANCH   9  14
BRANCH  10  16
ATOM     16  O   UNL     1      98.269  83.893  76.154  1.00  0.00    -0.504 OA
ATOM     17  H   UNL     1      98.471  83.121  75.620  1.00  0.00     0.293 HD
ENDBRANCH  10  16
ENDBRANCH   7   8
ENDBRANCH   4   7
ENDBRANCH   2   3
ENDBRANCH   1   2
BRANCH   1  18
ATOM     18  C   UNL     1      95.412  83.848  86.594  1.00  0.00     0.001 C 
BRANCH  18  19
ATOM     19  C   UNL     1      95.068  84.750  87.806  1.00  0.00     0.004 C 
BRANCH  19  20
ATOM     20  C   UNL     1      95.969  86.016  87.846  1.00  0.00     0.027 C 
BRANCH  20  21
ATOM     21  C   UNL     1      95.569  86.986  88.850  1.00  0.00    -0.031 C 
ATOM     22  C   UNL     1      95.965  88.271  88.806  1.00  0.00    -0.028 C 
BRANCH  22  23
ATOM     23  C   UNL     1      95.576  89.272  89.796  1.00  0.00     0.005 C 
ATOM     24  C   UNL     1      95.051  90.551  89.091  1.00  0.00     0.012 C 
ATOM     25  C   UNL     1      94.538  88.675  90.784  1.00  0.00     0.012 C 
ENDBRANCH  22  23
ENDBRANCH  20  21
ENDBRANCH  19  20
ENDBRANCH  18  19
ENDBRANCH   1  18
TORSDOF 11
ENDMDL
MODEL 6
REMARK VINA RESULT:    -5.787     25.267     27.182
REMARK INTER + INTRA:         -10.265
REMARK INTER:                  -9.541
REMARK INTRA:                  -0.724
REMARK UNBOUND:                -0.926
REMARK SMILES COc1cc(CNC(=O)CCCCC/C=C/C(C)C)ccc1O
REMARK SMILES IDX 11 1 10 2 8 3 7 4 9 6 6 7 5 8 3 9 22 10 4 11 21 12 20 13
REMARK SMILES IDX 2 14 1 15 23 16 12 18 13 19 14 20 15 21 16 22 17 23 18 24
REMARK SMILES IDX 19 25
REMARK H PARENT 7 5 23 17
REMARK Flexibility Score: inf
ROOT
ATOM      1  C   UNL     1      96.820  83.895  86.059  1.00  0.00     0.010 C 
ENDROOT
BRANCH   1   2
ATOM      2  C   UNL     1      96.810  84.120  84.525  1.00  0.00     0.100 C 
BRANCH   2   3
ATOM      3  C   UNL     1      97.787  83.294  83.791  1.00  0.00     0.220 C 
ATOM      4  N   UNL     1      97.971  83.488  82.456  1.00  0.00    -0.352 N 
ATOM      5  H   UNL     1      97.346  84.163  82.038  1.00  0.00     0.163 HD
ATOM      6  O   UNL     1      98.458  82.452  84.434  1.00  0.00    -0.275 OA
BRANCH   4   7
ATOM      7  C   UNL     1      98.946  82.830  81.648  1.00  0.00     0.151 C 
BRANCH   7   8
ATOM      8  C   UNL     1      98.749  83.078  80.197  1.00  0.00    -0.025 A 
ATOM      9  C   UNL     1      99.618  83.103  77.896  1.00  0.00     0.160 A 
ATOM     10  C   UNL     1      98.382  83.604  77.435  1.00  0.00     0.157 A 
ATOM     11  C   UNL     1      99.795  82.852  79.272  1.00  0.00     0.056 A 
ATOM     12  C   UNL     1      97.328  83.816  78.343  1.00  0.00     0.050 A 
ATOM     13  C   UNL     1      97.506  83.545  79.712  1.00  0.00     0.009 A 
BRANCH   9  14
ATOM     14  O   UNL     1     100.621  82.810  77.010  1.00  0.00    -0.493 OA
ATOM     15  C   UNL     1     100.725  81.415  76.680  1.00  0.00     0.278 C 
ENDBRANCH   9  14
BRANCH  10  16
ATOM     16  O   UNL     1      98.180  83.885  76.123  1.00  0.00    -0.504 OA
ATOM     17  H   UNL     1      99.016  84.122  75.715  1.00  0.00     0.293 HD
ENDBRANCH  10  16
ENDBRANCH   7   8
ENDBRANCH   4   7
ENDBRANCH   2   3
ENDBRANCH   1   2
BRANCH   1  18
ATOM     18  C   UNL     1      95.393  83.611  86.593  1.00  0.00     0.001 C 
BRANCH  18  19
ATOM     19  C   UNL     1      94.958  82.130  86.449  1.00  0.00     0.004 C 
BRANCH  19  20
ATOM     20  C   UNL     1      93.411  81.987  86.492  1.00  0.00     0.027 C 
BRANCH  20  21
ATOM     21  C   UNL     1      92.763  82.917  87.402  1.00  0.00    -0.031 C 
ATOM     22  C   UNL     1      91.530  82.701  87.893  1.00  0.00    -0.028 C 
BRANCH  22  23
ATOM     23  C   UNL     1      90.854  83.612  88.813  1.00  0.00     0.005 C 
ATOM     24  C   UNL     1      90.171  82.815  89.956  1.00  0.00     0.012 C 
ATOM     25  C   UNL     1      91.854  84.673  89.349  1.00  0.00     0.012 C 
ENDBRANCH  22  23
ENDBRANCH  20  21
ENDBRANCH  19  20
ENDBRANCH  18  19
ENDBRANCH   1  18
TORSDOF 11
ENDMDL
MODEL 7
REMARK VINA RESULT:    -5.778     24.695     27.153
REMARK INTER + INTRA:         -10.251
REMARK INTER:                  -9.633
REMARK INTRA:                  -0.618
REMARK UNBOUND:                -0.926
REMARK SMILES COc1cc(CNC(=O)CCCCC/C=C/C(C)C)ccc1O
REMARK SMILES IDX 11 1 10 2 8 3 7 4 9 6 6 7 5 8 3 9 22 10 4 11 21 12 20 13
REMARK SMILES IDX 2 14 1 15 23 16 12 18 13 19 14 20 15 21 16 22 17 23 18 24
REMARK SMILES IDX 19 25
REMARK H PARENT 7 5 23 17
REMARK Flexibility Score: inf
ROOT
ATOM      1  C   UNL     1      96.979  84.139  85.976  1.00  0.00     0.010 C 
ENDROOT
BRANCH   1   2
ATOM      2  C   UNL     1      96.870  84.221  84.432  1.00  0.00     0.100 C 
BRANCH   2   3
ATOM      3  C   UNL     1      97.836  83.366  83.716  1.00  0.00     0.220 C 
ATOM      4  N   UNL     1      98.004  83.511  82.372  1.00  0.00    -0.352 N 
ATOM      5  H   UNL     1      97.375  84.172  81.938  1.00  0.00     0.163 HD
ATOM      6  O   UNL     1      98.514  82.547  84.381  1.00  0.00    -0.275 OA
BRANCH   4   7
ATOM      7  C   UNL     1      98.967  82.822  81.578  1.00  0.00     0.151 C 
BRANCH   7   8
ATOM      8  C   UNL     1      98.775  83.048  80.122  1.00  0.00    -0.025 A 
ATOM      9  C   UNL     1      99.660  83.061  77.827  1.00  0.00     0.160 A 
ATOM     10  C   UNL     1      98.418  83.534  77.352  1.00  0.00     0.157 A 
ATOM     11  C   UNL     1      99.832  82.830  79.207  1.00  0.00     0.056 A 
ATOM     12  C   UNL     1      97.354  83.738  78.250  1.00  0.00     0.050 A 
ATOM     13  C   UNL     1      97.528  83.487  79.623  1.00  0.00     0.009 A 
BRANCH   9  14
ATOM     14  O   UNL     1     100.674  82.776  76.951  1.00  0.00    -0.493 OA
ATOM     15  C   UNL     1     100.807  81.379  76.641  1.00  0.00     0.278 C 
ENDBRANCH   9  14
BRANCH  10  16
ATOM     16  O   UNL     1      98.220  83.796  76.035  1.00  0.00    -0.504 OA
ATOM     17  H   UNL     1      99.055  84.043  75.630  1.00  0.00     0.293 HD
ENDBRANCH  10  16
ENDBRANCH   7   8
ENDBRANCH   4   7
ENDBRANCH   2   3
ENDBRANCH   1   2
BRANCH   1  18
ATOM     18  C   UNL     1      95.580  83.998  86.629  1.00  0.00     0.001 C 
BRANCH  18  19
ATOM     19  C   UNL     1      95.168  82.531  86.909  1.00  0.00     0.004 C 
BRANCH  19  20
ATOM     20  C   UNL     1      93.623  82.386  87.012  1.00  0.00     0.027 C 
BRANCH  20  21
ATOM     21  C   UNL     1      93.151  81.025  86.823  1.00  0.00    -0.031 C 
ATOM     22  C   UNL     1      91.911  80.749  86.381  1.00  0.00    -0.028 C 
BRANCH  22  23
ATOM     23  C   UNL     1      91.408  79.393  86.177  1.00  0.00     0.005 C 
ATOM     24  C   UNL     1      90.805  79.252  84.754  1.00  0.00     0.012 C 
ATOM     25  C   UNL     1      92.533  78.357  86.445  1.00  0.00     0.012 C 
ENDBRANCH  22  23
ENDBRANCH  20  21
ENDBRANCH  19  20
ENDBRANCH  18  19
ENDBRANCH   1  18
TORSDOF 11
ENDMDL
MODEL 8
REMARK VINA RESULT:    -5.706     12.002     14.565
REMARK INTER + INTRA:         -10.134
REMARK INTER:                  -7.940
REMARK INTRA:                  -2.195
REMARK UNBOUND:                -0.926
REMARK SMILES COc1cc(CNC(=O)CCCCC/C=C/C(C)C)ccc1O
REMARK SMILES IDX 11 1 10 2 8 3 7 4 9 6 6 7 5 8 3 9 22 10 4 11 21 12 20 13
REMARK SMILES IDX 2 14 1 15 23 16 12 18 13 19 14 20 15 21 16 22 17 23 18 24
REMARK SMILES IDX 19 25
REMARK H PARENT 7 5 23 17
REMARK Flexibility Score: inf
ROOT
ATOM      1  C   UNL     1      64.431  85.149  68.451  1.00  0.00     0.010 C 
ENDROOT
BRANCH   1   2
ATOM      2  C   UNL     1      63.800  83.806  68.003  1.00  0.00     0.100 C 
BRANCH   2   3
ATOM      3  C   UNL     1      63.939  82.719  68.990  1.00  0.00     0.220 C 
ATOM      4  N   UNL     1      64.622  82.937  70.147  1.00  0.00    -0.352 N 
ATOM      5  H   UNL     1      65.063  83.845  70.212  1.00  0.00     0.163 HD
ATOM      6  O   UNL     1      63.381  81.622  68.750  1.00  0.00    -0.275 OA
BRANCH   4   7
ATOM      7  C   UNL     1      64.749  82.009  71.224  1.00  0.00     0.151 C 
BRANCH   7   8
ATOM      8  C   UNL     1      63.847  82.326  72.361  1.00  0.00    -0.025 A 
ATOM      9  C   UNL     1      63.004  83.912  74.042  1.00  0.00     0.160 A 
ATOM     10  C   UNL     1      62.161  82.908  74.566  1.00  0.00     0.157 A 
ATOM     11  C   UNL     1      63.846  83.612  72.951  1.00  0.00     0.056 A 
ATOM     12  C   UNL     1      62.142  81.631  73.976  1.00  0.00     0.050 A 
ATOM     13  C   UNL     1      62.970  81.345  72.875  1.00  0.00     0.009 A 
BRANCH   9  14
ATOM     14  O   UNL     1      62.967  85.183  74.552  1.00  0.00    -0.493 OA
ATOM     15  C   UNL     1      64.132  85.545  75.312  1.00  0.00     0.278 C 
ENDBRANCH   9  14
BRANCH  10  16
ATOM     16  O   UNL     1      61.358  83.148  75.632  1.00  0.00    -0.504 OA
ATOM     17  H   UNL     1      60.800  82.382  75.790  1.00  0.00     0.293 HD
ENDBRANCH  10  16
ENDBRANCH   7   8
ENDBRANCH   4   7
ENDBRANCH   2   3
ENDBRANCH   1   2
BRANCH   1  18
ATOM     18  C   UNL     1      63.568  86.353  67.994  1.00  0.00     0.001 C 
BRANCH  18  19
ATOM     19  C   UNL     1      62.395  86.679  68.953  1.00  0.00     0.004 C 
BRANCH  19  20
ATOM     20  C   UNL     1      62.804  86.473  70.439  1.00  0.00     0.027 C 
BRANCH  20  21
ATOM     21  C   UNL     1      61.708  86.049  71.293  1.00  0.00    -0.031 C 
ATOM     22  C   UNL     1      60.913  85.010  70.980  1.00  0.00    -0.028 C 
BRANCH  22  23
ATOM     23  C   UNL     1      59.807  84.556  71.820  1.00  0.00     0.005 C 
ATOM     24  C   UNL     1      59.710  85.428  73.099  1.00  0.00     0.012 C 
ATOM     25  C   UNL     1      58.484  84.550  71.007  1.00  0.00     0.012 C 
ENDBRANCH  22  23
ENDBRANCH  20  21
ENDBRANCH  19  20
ENDBRANCH  18  19
ENDBRANCH   1  18
TORSDOF 11
ENDMDL
MODEL 9
REMARK VINA RESULT:    -5.671      1.794      2.815
REMARK INTER + INTRA:         -10.078
REMARK INTER:                  -9.129
REMARK INTRA:                  -0.949
REMARK UNBOUND:                -0.926
REMARK SMILES COc1cc(CNC(=O)CCCCC/C=C/C(C)C)ccc1O
REMARK SMILES IDX 11 1 10 2 8 3 7 4 9 6 6 7 5 8 3 9 22 10 4 11 21 12 20 13
REMARK SMILES IDX 2 14 1 15 23 16 12 18 13 19 14 20 15 21 16 22 17 23 18 24
REMARK SMILES IDX 19 25
REMARK H PARENT 7 5 23 17
REMARK Flexibility Score: inf
ROOT
ATOM      1  C   UNL     1      76.908  83.285  66.348  1.00  0.00     0.010 C 
ENDROOT
BRANCH   1   2
ATOM      2  C   UNL     1      77.095  81.824  65.861  1.00  0.00     0.100 C 
BRANCH   2   3
ATOM      3  C   UNL     1      76.105  81.396  64.855  1.00  0.00     0.220 C 
ATOM      4  N   UNL     1      74.870  80.982  65.251  1.00  0.00    -0.352 N 
ATOM      5  H   UNL     1      74.745  80.929  66.253  1.00  0.00     0.163 HD
ATOM      6  O   UNL     1      76.420  81.465  63.643  1.00  0.00    -0.275 OA
BRANCH   4   7
ATOM      7  C   UNL     1      73.793  80.635  64.383  1.00  0.00     0.151 C 
BRANCH   7   8
ATOM      8  C   UNL     1      72.615  81.526  64.548  1.00  0.00    -0.025 A 
ATOM      9  C   UNL     1      71.330  83.142  65.884  1.00  0.00     0.160 A 
ATOM     10  C   UNL     1      70.339  83.184  64.879  1.00  0.00     0.157 A 
ATOM     11  C   UNL     1      72.454  82.308  65.716  1.00  0.00     0.056 A 
ATOM     12  C   UNL     1      70.497  82.423  63.706  1.00  0.00     0.050 A 
ATOM     13  C   UNL     1      71.632  81.608  63.537  1.00  0.00     0.009 A 
BRANCH   9  14
ATOM     14  O   UNL     1      71.229  83.944  66.990  1.00  0.00    -0.493 OA
ATOM     15  C   UNL     1      72.493  84.304  67.572  1.00  0.00     0.278 C 
ENDBRANCH   9  14
BRANCH  10  16
ATOM     16  O   UNL     1      69.229  83.951  65.016  1.00  0.00    -0.504 OA
ATOM     17  H   UNL     1      68.672  83.848  64.240  1.00  0.00     0.293 HD
ENDBRANCH  10  16
ENDBRANCH   7   8
ENDBRANCH   4   7
ENDBRANCH   2   3
ENDBRANCH   1   2
BRANCH   1  18
ATOM     18  C   UNL     1      78.209  83.831  66.989  1.00  0.00     0.001 C 
BRANCH  18  19
ATOM     19  C   UNL     1      77.975  84.599  68.315  1.00  0.00     0.004 C 
BRANCH  19  20
ATOM     20  C   UNL     1      78.225  86.123  68.138  1.00  0.00     0.027 C 
BRANCH  20  21
ATOM     21  C   UNL     1      77.258  86.957  68.832  1.00  0.00    -0.031 C 
ATOM     22  C   UNL     1      76.398  86.460  69.737  1.00  0.00    -0.028 C 
BRANCH  22  23
ATOM     23  C   UNL     1      75.418  87.272  70.455  1.00  0.00     0.005 C 
ATOM     24  C   UNL     1      75.782  88.777  70.343  1.00  0.00     0.012 C 
ATOM     25  C   UNL     1      73.987  86.972  69.934  1.00  0.00     0.012 C 
ENDBRANCH  22  23
ENDBRANCH  20  21
ENDBRANCH  19  20
ENDBRANCH  18  19
ENDBRANCH   1  18
TORSDOF 11
ENDMDL
MODEL 10
REMARK VINA RESULT:    -5.641      2.302      3.873
REMARK INTER + INTRA:         -10.030
REMARK INTER:                  -9.260
REMARK INTRA:                  -0.769
REMARK UNBOUND:                -0.926
REMARK SMILES COc1cc(CNC(=O)CCCCC/C=C/C(C)C)ccc1O
REMARK SMILES IDX 11 1 10 2 8 3 7 4 9 6 6 7 5 8 3 9 22 10 4 11 21 12 20 13
REMARK SMILES IDX 2 14 1 15 23 16 12 18 13 19 14 20 15 21 16 22 17 23 18 24
REMARK SMILES IDX 19 25
REMARK H PARENT 7 5 23 17
REMARK Flexibility Score: inf
ROOT
ATOM      1  C   UNL     1      76.060  86.861  69.893  1.00  0.00     0.010 C 
ENDROOT
BRANCH   1   2
ATOM      2  C   UNL     1      77.542  86.442  69.719  1.00  0.00     0.100 C 
BRANCH   2   3
ATOM      3  C   UNL     1      77.795  85.611  68.527  1.00  0.00     0.220 C 
ATOM      4  N   UNL     1      77.010  85.753  67.423  1.00  0.00    -0.352 N 
ATOM      5  H   UNL     1      76.236  86.393  67.535  1.00  0.00     0.163 HD
ATOM      6  O   UNL     1      78.764  84.816  68.549  1.00  0.00    -0.275 OA
BRANCH   4   7
ATOM      7  C   UNL     1      77.204  85.086  66.176  1.00  0.00     0.151 C 
BRANCH   7   8
ATOM      8  C   UNL     1      76.317  83.905  66.015  1.00  0.00    -0.025 A 
ATOM      9  C   UNL     1      74.114  82.838  66.259  1.00  0.00     0.160 A 
ATOM     10  C   UNL     1      74.644  81.630  65.756  1.00  0.00     0.157 A 
ATOM     11  C   UNL     1      74.955  83.962  66.393  1.00  0.00     0.056 A 
ATOM     12  C   UNL     1      75.993  81.567  65.361  1.00  0.00     0.050 A 
ATOM     13  C   UNL     1      76.821  82.699  65.480  1.00  0.00     0.009 A 
BRANCH   9  14
ATOM     14  O   UNL     1      72.783  82.936  66.564  1.00  0.00    -0.493 OA
ATOM     15  C   UNL     1      72.059  83.868  65.742  1.00  0.00     0.278 C 
ENDBRANCH   9  14
BRANCH  10  16
ATOM     16  O   UNL     1      73.876  80.519  65.637  1.00  0.00    -0.504 OA
ATOM     17  H   UNL     1      74.442  79.746  65.558  1.00  0.00     0.293 HD
ENDBRANCH  10  16
ENDBRANCH   7   8
ENDBRANCH   4   7
ENDBRANCH   2   3
ENDBRANCH   1   2
BRANCH   1  18
ATOM     18  C   UNL     1      75.879  88.385  69.671  1.00  0.00     0.001 C 
BRANCH  18  19
ATOM     19  C   UNL     1      75.225  89.116  70.870  1.00  0.00     0.004 C 
BRANCH  19  20
ATOM     20  C   UNL     1      74.784  90.556  70.484  1.00  0.00     0.027 C 
BRANCH  20  21
ATOM     21  C   UNL     1      75.675  91.592  70.977  1.00  0.00    -0.031 C 
ATOM     22  C   UNL     1      75.667  91.996  72.260  1.00  0.00    -0.028 C 
BRANCH  22  23
ATOM     23  C   UNL     1      76.552  93.030  72.788  1.00  0.00     0.005 C 
ATOM     24  C   UNL     1      76.289  93.242  74.303  1.00  0.00     0.012 C 
ATOM     25  C   UNL     1      78.034  92.671  72.492  1.00  0.00     0.012 C 
ENDBRANCH  22  23
ENDBRANCH  20  21
ENDBRANCH  19  20
ENDBRANCH  18  19
ENDBRANCH   1  18
TORSDOF 11
ENDMDL
