MODEL 1
REMARK VINA RESULT:    -6.636      0.000      0.000
REMARK INTER + INTRA:         -12.514
REMARK INTER:                 -11.679
REMARK INTRA:                  -0.835
REMARK UNBOUND:                -0.835
REMARK SMILES C=C(C)[C@]12C[C@@H](C)[C@@]34O[C@](Cc5ccccc5)(O[C@@H]1[C@@H]3C=C(COC(=O)Cc1ccc(O)c(OC)c1)C[C@]1(O)C(=O)C(C)=C[C@@H]41)O2
REMARK SMILES IDX 23 1 22 2 21 3 20 4 9 5 8 6 10 7 6 8 18 9 46 10 19 11 5 12
REMARK SMILES IDX 7 13 4 14 45 15 38 16 44 17 40 18 42 20 41 21 43 22 39 23
REMARK SMILES IDX 11 25 12 26 13 27 17 28 14 29 16 30 15 31 2 32 3 33 1 34
REMARK SMILES IDX 37 35 24 37 25 38 26 39 27 40 28 41 36 42 29 43 33 44 30 45
REMARK SMILES IDX 31 46 34 47 35 48 32 49
REMARK H PARENT 39 24 32 50
REMARK Flexibility Score: 90.00
ROOT
ATOM      1  C   UNL     1      66.016  86.713  73.937  1.00  0.00     0.264 C 
ENDROOT
BRANCH   1   2
ATOM      2  C   UNL     1      64.694  86.817  73.214  1.00  0.00    -0.033 C 
ATOM      3  C   UNL     1      64.343  85.855  72.338  1.00  0.00    -0.015 C 
BRANCH   3   4
ATOM      4  C   UNL     1      63.121  85.767  71.438  1.00  0.00     0.078 C 
ATOM      5  O   UNL     1      61.395  84.511  72.689  1.00  0.00    -0.319 OA
ATOM      6  C   UNL     1      61.695  85.816  72.105  1.00  0.00     0.095 C 
ATOM      7  C   UNL     1      61.754  83.376  71.878  1.00  0.00     0.289 C 
ATOM      8  C   UNL     1      60.643  86.135  70.965  1.00  0.00     0.023 C 
ATOM      9  O   UNL     1      63.143  83.388  71.558  1.00  0.00    -0.320 OA
ATOM     10  O   UNL     1      61.070  83.367  70.628  1.00  0.00    -0.313 OA
ATOM     11  C   UNL     1      63.172  84.462  70.606  1.00  0.00     0.170 C 
ATOM     12  C   UNL     1      61.073  85.513  69.601  1.00  0.00     0.049 C 
ATOM     13  C   UNL     1      59.192  85.733  71.275  1.00  0.00     0.011 C 
ATOM     14  C   UNL     1      61.875  84.225  69.793  1.00  0.00     0.122 C 
BRANCH   6  15
ATOM     15  C   UNL     1      61.686  86.794  73.316  1.00  0.00     0.086 C 
ATOM     16  C   UNL     1      62.432  88.130  73.116  1.00  0.00     0.140 CG0
ATOM     17  C   UNL     1      60.373  87.213  73.914  1.00  0.00    -0.010 C 
ATOM     18  C   UNL     1      61.595  89.095  73.929  1.00  0.00     0.190 C 
ATOM     19  G   UNL     1      63.880  88.060  73.600  1.00  0.00     0.000 G0
ATOM     20  C   UNL     1      60.299  88.493  74.294  1.00  0.00    -0.008 C 
ATOM     21  O   UNL     1      61.910  90.241  74.211  1.00  0.00    -0.291 OA
ATOM     22  C   UNL     1      59.213  89.220  74.983  1.00  0.00     0.048 C 
BRANCH  16  23
ATOM     23  O   UNL     1      62.352  88.641  71.796  1.00  0.00    -0.381 OA
ATOM     24  H   UNL     1      62.145  87.906  71.195  1.00  0.00     0.212 HD
ENDBRANCH  16  23
ENDBRANCH   6  15
BRANCH   7  25
ATOM     25  C   UNL     1      61.417  82.115  72.649  1.00  0.00     0.135 C 
BRANCH  25  26
ATOM     26  C   UNL     1      62.514  81.730  73.609  1.00  0.00    -0.040 A 
ATOM     27  C   UNL     1      63.542  80.885  73.190  1.00  0.00     0.004 A 
ATOM     28  C   UNL     1      62.502  82.219  74.915  1.00  0.00     0.004 A 
ATOM     29  C   UNL     1      64.557  80.528  74.079  1.00  0.00     0.000 A 
ATOM     30  C   UNL     1      63.517  81.862  75.804  1.00  0.00     0.000 A 
ATOM     31  C   UNL     1      64.544  81.016  75.385  1.00  0.00     0.000 A 
ENDBRANCH  25  26
ENDBRANCH   7  25
BRANCH  14  32
ATOM     32  C   UNL     1      62.140  83.516  68.506  1.00  0.00    -0.046 C 
ATOM     33  C   UNL     1      63.577  83.422  68.086  1.00  0.00     0.042 C 
ATOM     34  C   UNL     1      61.151  82.993  67.767  1.00  0.00     0.010 C 
ENDBRANCH  14  32
ENDBRANCH   3   4
BRANCH   2  35
ATOM     35  C   UNL     1      63.900  88.051  73.601  1.00  0.00     0.078 CG0
ATOM     36  G   UNL     1      62.448  88.123  73.133  1.00  0.00     0.000 G0
ENDBRANCH   2  35
ENDBRANCH   1   2
BRANCH   1  37
ATOM     37  O   UNL     1      65.876  85.848  75.043  1.00  0.00    -0.461 OA
BRANCH  37  38
ATOM     38  C   UNL     1      66.394  86.297  76.236  1.00  0.00     0.310 C 
ATOM     39  O   UNL     1      67.524  86.740  76.389  1.00  0.00    -0.252 OA
BRANCH  38  40
ATOM     40  C   UNL     1      65.353  86.159  77.322  1.00  0.00     0.158 C 
BRANCH  40  41
ATOM     41  C   UNL     1      65.877  86.520  78.688  1.00  0.00    -0.033 A 
ATOM     42  C   UNL     1      66.050  85.527  79.653  1.00  0.00     0.054 A 
ATOM     43  C   UNL     1      66.189  87.846  78.987  1.00  0.00     0.008 A 
ATOM     44  C   UNL     1      66.535  85.862  80.918  1.00  0.00     0.160 A 
ATOM     45  C   UNL     1      66.674  88.180  80.252  1.00  0.00     0.050 A 
ATOM     46  C   UNL     1      66.847  87.189  81.217  1.00  0.00     0.157 A 
BRANCH  44  47
ATOM     47  O   UNL     1      66.699  84.884  81.852  1.00  0.00    -0.493 OA
ATOM     48  C   UNL     1      67.869  84.074  81.744  1.00  0.00     0.278 C 
ENDBRANCH  44  47
BRANCH  46  49
ATOM     49  O   UNL     1      67.322  87.527  82.448  1.00  0.00    -0.504 OA
ATOM     50  H   UNL     1      67.623  88.451  82.428  1.00  0.00     0.293 HD
ENDBRANCH  46  49
ENDBRANCH  40  41
ENDBRANCH  38  40
ENDBRANCH  37  38
ENDBRANCH   1  37
TORSDOF 11
ENDMDL
MODEL 2
REMARK VINA RESULT:    -6.487     29.619     34.850
REMARK INTER + INTRA:         -12.253
REMARK INTER:                 -11.267
REMARK INTRA:                  -0.986
REMARK UNBOUND:                -0.835
REMARK SMILES C=C(C)[C@]12C[C@@H](C)[C@@]34O[C@](Cc5ccccc5)(O[C@@H]1[C@@H]3C=C(COC(=O)Cc1ccc(O)c(OC)c1)C[C@]1(O)C(=O)C(C)=C[C@@H]41)O2
REMARK SMILES IDX 23 1 22 2 21 3 20 4 9 5 8 6 10 7 6 8 18 9 46 10 19 11 5 12
REMARK SMILES IDX 7 13 4 14 45 15 38 16 44 17 40 18 42 20 41 21 43 22 39 23
REMARK SMILES IDX 11 25 12 26 13 27 17 28 14 29 16 30 15 31 2 32 3 33 1 34
REMARK SMILES IDX 37 35 24 37 25 38 26 39 27 40 28 41 36 42 29 43 33 44 30 45
REMARK SMILES IDX 31 46 34 47 35 48 32 49
REMARK H PARENT 39 24 32 50
REMARK Flexibility Score: 90.00
ROOT
ATOM      1  C   UNL     1      95.605  78.179  84.425  1.00  0.00     0.264 C 
ENDROOT
BRANCH   1   2
ATOM      2  C   UNL     1      96.606  79.174  83.887  1.00  0.00    -0.033 C 
ATOM      3  C   UNL     1      97.373  78.834  82.832  1.00  0.00    -0.015 C 
BRANCH   3   4
ATOM      4  C   UNL     1      98.491  79.614  82.160  1.00  0.00     0.078 C 
ATOM      5  O   UNL     1      97.459  80.923  80.332  1.00  0.00    -0.319 OA
ATOM      6  C   UNL     1      98.171  81.051  81.602  1.00  0.00     0.095 C 
ATOM      7  C   UNL     1      97.971  79.918  79.437  1.00  0.00     0.289 C 
ATOM      8  C   UNL     1      99.552  81.789  81.356  1.00  0.00     0.023 C 
ATOM      9  O   UNL     1      97.976  78.632  80.052  1.00  0.00    -0.320 OA
ATOM     10  O   UNL     1      99.322  80.169  79.058  1.00  0.00    -0.313 OA
ATOM     11  C   UNL     1      99.063  78.798  80.975  1.00  0.00     0.170 C 
ATOM     12  C   UNL     1     100.665  80.787  80.922  1.00  0.00     0.049 C 
ATOM     13  C   UNL     1      99.505  82.963  80.365  1.00  0.00     0.011 C 
ATOM     14  C   UNL     1     100.090  79.605  80.141  1.00  0.00     0.122 C 
BRANCH   6  15
ATOM     15  C   UNL     1      97.172  81.795  82.534  1.00  0.00     0.086 C 
ATOM     16  C   UNL     1      97.418  81.649  84.050  1.00  0.00     0.140 CG0
ATOM     17  C   UNL     1      96.959  83.272  82.356  1.00  0.00    -0.010 C 
ATOM     18  C   UNL     1      96.984  82.998  84.583  1.00  0.00     0.190 C 
ATOM     19  G   UNL     1      96.620  80.496  84.656  1.00  0.00     0.000 G0
ATOM     20  C   UNL     1      96.822  83.972  83.487  1.00  0.00    -0.008 C 
ATOM     21  O   UNL     1      96.832  83.278  85.762  1.00  0.00    -0.291 OA
ATOM     22  C   UNL     1      96.522  85.404  83.690  1.00  0.00     0.048 C 
BRANCH  16  23
ATOM     23  O   UNL     1      98.790  81.571  84.404  1.00  0.00    -0.381 OA
ATOM     24  H   UNL     1      99.322  81.740  83.609  1.00  0.00     0.212 HD
ENDBRANCH  16  23
ENDBRANCH   6  15
BRANCH   7  25
ATOM     25  C   UNL     1      97.095  79.891  78.201  1.00  0.00     0.135 C 
BRANCH  25  26
ATOM     26  C   UNL     1      97.349  81.076  77.303  1.00  0.00    -0.040 A 
ATOM     27  C   UNL     1      97.918  80.887  76.043  1.00  0.00     0.004 A 
ATOM     28  C   UNL     1      97.013  82.360  77.729  1.00  0.00     0.004 A 
ATOM     29  C   UNL     1      98.153  81.982  75.212  1.00  0.00     0.000 A 
ATOM     30  C   UNL     1      97.247  83.456  76.898  1.00  0.00     0.000 A 
ATOM     31  C   UNL     1      97.818  83.266  75.639  1.00  0.00     0.000 A 
ENDBRANCH  25  26
ENDBRANCH   7  25
BRANCH  14  32
ATOM     32  C   UNL     1     101.151  78.729  79.559  1.00  0.00    -0.046 C 
ATOM     33  C   UNL     1     101.920  79.299  78.404  1.00  0.00     0.042 C 
ATOM     34  C   UNL     1     101.403  77.503  80.041  1.00  0.00     0.010 C 
ENDBRANCH  14  32
ENDBRANCH   3   4
BRANCH   2  35
ATOM     35  C   UNL     1      96.602  80.489  84.644  1.00  0.00     0.078 CG0
ATOM     36  G   UNL     1      97.409  81.641  84.047  1.00  0.00     0.000 G0
ENDBRANCH   2  35
ENDBRANCH   1   2
BRANCH   1  37
ATOM     37  O   UNL     1      95.101  78.643  85.659  1.00  0.00    -0.461 OA
BRANCH  37  38
ATOM     38  C   UNL     1      94.208  77.817  86.301  1.00  0.00     0.310 C 
ATOM     39  O   UNL     1      94.291  77.466  87.470  1.00  0.00    -0.252 OA
BRANCH  38  40
ATOM     40  C   UNL     1      93.115  77.412  85.341  1.00  0.00     0.158 C 
BRANCH  40  41
ATOM     41  C   UNL     1      91.799  78.087  85.630  1.00  0.00    -0.033 A 
ATOM     42  C   UNL     1      90.761  77.366  86.224  1.00  0.00     0.054 A 
ATOM     43  C   UNL     1      91.618  79.431  85.305  1.00  0.00     0.008 A 
ATOM     44  C   UNL     1      89.543  77.991  86.491  1.00  0.00     0.160 A 
ATOM     45  C   UNL     1      90.399  80.055  85.573  1.00  0.00     0.050 A 
ATOM     46  C   UNL     1      89.362  79.336  86.165  1.00  0.00     0.157 A 
BRANCH  44  47
ATOM     47  O   UNL     1      88.538  77.277  87.070  1.00  0.00    -0.493 OA
ATOM     48  C   UNL     1      88.916  76.170  87.887  1.00  0.00     0.278 C 
ENDBRANCH  44  47
BRANCH  46  49
ATOM     49  O   UNL     1      88.177  79.956  86.423  1.00  0.00    -0.504 OA
ATOM     50  H   UNL     1      88.028  80.643  85.752  1.00  0.00     0.293 HD
ENDBRANCH  46  49
ENDBRANCH  40  41
ENDBRANCH  38  40
ENDBRANCH  37  38
ENDBRANCH   1  37
TORSDOF 11
ENDMDL
MODEL 3
REMARK VINA RESULT:    -5.868     20.238     24.831
REMARK INTER + INTRA:         -11.163
REMARK INTER:                  -9.265
REMARK INTRA:                  -1.899
REMARK UNBOUND:                -0.835
REMARK SMILES C=C(C)[C@]12C[C@@H](C)[C@@]34O[C@](Cc5ccccc5)(O[C@@H]1[C@@H]3C=C(COC(=O)Cc1ccc(O)c(OC)c1)C[C@]1(O)C(=O)C(C)=C[C@@H]41)O2
REMARK SMILES IDX 23 1 22 2 21 3 20 4 9 5 8 6 10 7 6 8 18 9 46 10 19 11 5 12
REMARK SMILES IDX 7 13 4 14 45 15 38 16 44 17 40 18 42 20 41 21 43 22 39 23
REMARK SMILES IDX 11 25 12 26 13 27 17 28 14 29 16 30 15 31 2 32 3 33 1 34
REMARK SMILES IDX 37 35 24 37 25 38 26 39 27 40 28 41 36 42 29 43 33 44 30 45
REMARK SMILES IDX 31 46 34 47 35 48 32 49
REMARK H PARENT 39 24 32 50
REMARK Flexibility Score: 90.00
ROOT
ATOM      1  C   UNL     1      72.041  65.487  87.344  1.00  0.00     0.264 C 
ENDROOT
BRANCH   1   2
ATOM      2  C   UNL     1      72.714  66.101  86.139  1.00  0.00    -0.033 C 
ATOM      3  C   UNL     1      73.617  67.085  86.319  1.00  0.00    -0.015 C 
BRANCH   3   4
ATOM      4  C   UNL     1      74.367  67.908  85.283  1.00  0.00     0.078 C 
ATOM      5  O   UNL     1      76.519  66.760  84.871  1.00  0.00    -0.319 OA
ATOM      6  C   UNL     1      75.264  67.153  84.233  1.00  0.00     0.095 C 
ATOM      7  C   UNL     1      77.117  67.757  85.720  1.00  0.00     0.289 C 
ATOM      8  C   UNL     1      75.572  68.161  83.051  1.00  0.00     0.023 C 
ATOM      9  O   UNL     1      76.223  68.159  86.755  1.00  0.00    -0.320 OA
ATOM     10  O   UNL     1      77.443  68.948  85.009  1.00  0.00    -0.313 OA
ATOM     11  C   UNL     1      75.286  68.934  85.991  1.00  0.00     0.170 C 
ATOM     12  C   UNL     1      75.679  69.630  83.566  1.00  0.00     0.049 C 
ATOM     13  C   UNL     1      76.808  67.826  82.201  1.00  0.00     0.011 C 
ATOM     14  C   UNL     1      76.206  69.689  85.000  1.00  0.00     0.122 C 
BRANCH   6  15
ATOM     15  C   UNL     1      74.606  65.808  83.811  1.00  0.00     0.086 C 
ATOM     16  C   UNL     1      73.087  65.850  83.539  1.00  0.00     0.140 CG0
ATOM     17  C   UNL     1      75.152  65.060  82.627  1.00  0.00    -0.010 C 
ATOM     18  C   UNL     1      72.928  64.840  82.422  1.00  0.00     0.190 C 
ATOM     19  G   UNL     1      72.270  65.486  84.778  1.00  0.00     0.000 G0
ATOM     20  C   UNL     1      74.236  64.482  81.842  1.00  0.00    -0.008 C 
ATOM     21  O   UNL     1      71.864  64.406  82.007  1.00  0.00    -0.291 OA
ATOM     22  C   UNL     1      74.407  63.613  80.660  1.00  0.00     0.048 C 
BRANCH  16  23
ATOM     23  O   UNL     1      72.641  67.066  82.963  1.00  0.00    -0.381 OA
ATOM     24  H   UNL     1      73.386  67.474  82.492  1.00  0.00     0.212 HD
ENDBRANCH  16  23
ENDBRANCH   6  15
BRANCH   7  25
ATOM     25  C   UNL     1      78.375  67.171  86.329  1.00  0.00     0.135 C 
BRANCH  25  26
ATOM     26  C   UNL     1      78.208  65.712  86.676  1.00  0.00    -0.040 A 
ATOM     27  C   UNL     1      79.101  64.768  86.166  1.00  0.00     0.004 A 
ATOM     28  C   UNL     1      77.163  65.307  87.506  1.00  0.00     0.004 A 
ATOM     29  C   UNL     1      78.947  63.419  86.487  1.00  0.00     0.000 A 
ATOM     30  C   UNL     1      77.010  63.957  87.826  1.00  0.00     0.000 A 
ATOM     31  C   UNL     1      77.902  63.014  87.316  1.00  0.00     0.000 A 
ENDBRANCH  25  26
ENDBRANCH   7  25
BRANCH  14  32
ATOM     32  C   UNL     1      76.490  71.085  85.450  1.00  0.00    -0.046 C 
ATOM     33  C   UNL     1      76.589  71.296  86.932  1.00  0.00     0.042 C 
ATOM     34  C   UNL     1      76.647  72.093  84.579  1.00  0.00     0.010 C 
ENDBRANCH  14  32
ENDBRANCH   3   4
BRANCH   2  35
ATOM     35  C   UNL     1      72.262  65.486  84.827  1.00  0.00     0.078 CG0
ATOM     36  G   UNL     1      73.070  65.834  83.578  1.00  0.00     0.000 G0
ENDBRANCH   2  35
ENDBRANCH   1   2
BRANCH   1  37
ATOM     37  O   UNL     1      70.674  65.839  87.345  1.00  0.00    -0.461 OA
BRANCH  37  38
ATOM     38  C   UNL     1      70.377  67.123  87.737  1.00  0.00     0.310 C 
ATOM     39  O   UNL     1      71.035  67.787  88.526  1.00  0.00    -0.252 OA
BRANCH  38  40
ATOM     40  C   UNL     1      69.115  67.583  87.045  1.00  0.00     0.158 C 
BRANCH  40  41
ATOM     41  C   UNL     1      69.369  68.134  85.665  1.00  0.00    -0.033 A 
ATOM     42  C   UNL     1      69.197  67.318  84.546  1.00  0.00     0.054 A 
ATOM     43  C   UNL     1      69.775  69.459  85.507  1.00  0.00     0.008 A 
ATOM     44  C   UNL     1      69.432  67.828  83.269  1.00  0.00     0.160 A 
ATOM     45  C   UNL     1      70.010  69.969  84.229  1.00  0.00     0.050 A 
ATOM     46  C   UNL     1      69.839  69.154  83.111  1.00  0.00     0.157 A 
BRANCH  44  47
ATOM     47  O   UNL     1      69.262  67.022  82.184  1.00  0.00    -0.493 OA
ATOM     48  C   UNL     1      68.656  65.750  82.410  1.00  0.00     0.278 C 
ENDBRANCH  44  47
BRANCH  46  49
ATOM     49  O   UNL     1      70.071  69.663  81.869  1.00  0.00    -0.504 OA
ATOM     50  H   UNL     1      71.023  69.616  81.680  1.00  0.00     0.293 HD
ENDBRANCH  46  49
ENDBRANCH  40  41
ENDBRANCH  38  40
ENDBRANCH  37  38
ENDBRANCH   1  37
TORSDOF 11
ENDMDL
MODEL 4
REMARK VINA RESULT:    -5.860     18.057     20.875
REMARK INTER + INTRA:         -11.148
REMARK INTER:                  -9.768
REMARK INTRA:                  -1.380
REMARK UNBOUND:                -0.835
REMARK SMILES C=C(C)[C@]12C[C@@H](C)[C@@]34O[C@](Cc5ccccc5)(O[C@@H]1[C@@H]3C=C(COC(=O)Cc1ccc(O)c(OC)c1)C[C@]1(O)C(=O)C(C)=C[C@@H]41)O2
REMARK SMILES IDX 23 1 22 2 21 3 20 4 9 5 8 6 10 7 6 8 18 9 46 10 19 11 5 12
REMARK SMILES IDX 7 13 4 14 45 15 38 16 44 17 40 18 42 20 41 21 43 22 39 23
REMARK SMILES IDX 11 25 12 26 13 27 17 28 14 29 16 30 15 31 2 32 3 33 1 34
REMARK SMILES IDX 37 35 24 37 25 38 26 39 27 40 28 41 36 42 29 43 33 44 30 45
REMARK SMILES IDX 31 46 34 47 35 48 32 49
REMARK H PARENT 39 24 32 50
REMARK Flexibility Score: 90.00
ROOT
ATOM      1  C   UNL     1      67.236  69.299  84.478  1.00  0.00     0.264 C 
ENDROOT
BRANCH   1   2
ATOM      2  C   UNL     1      66.140  68.953  83.497  1.00  0.00    -0.033 C 
ATOM      3  C   UNL     1      66.232  67.816  82.779  1.00  0.00    -0.015 C 
BRANCH   3   4
ATOM      4  C   UNL     1      65.316  67.287  81.688  1.00  0.00     0.078 C 
ATOM      5  O   UNL     1      63.656  65.820  82.789  1.00  0.00    -0.319 OA
ATOM      6  C   UNL     1      63.796  67.061  82.031  1.00  0.00     0.095 C 
ATOM      7  C   UNL     1      64.442  64.712  82.309  1.00  0.00     0.289 C 
ATOM      8  C   UNL     1      63.010  66.929  80.661  1.00  0.00     0.023 C 
ATOM      9  O   UNL     1      65.830  65.037  82.279  1.00  0.00    -0.320 OA
ATOM     10  O   UNL     1      64.103  64.347  80.973  1.00  0.00    -0.313 OA
ATOM     11  C   UNL     1      65.854  65.935  81.158  1.00  0.00     0.170 C 
ATOM     12  C   UNL     1      63.885  66.251  79.563  1.00  0.00     0.049 C 
ATOM     13  C   UNL     1      61.651  66.214  80.746  1.00  0.00     0.011 C 
ATOM     14  C   UNL     1      64.878  65.256  80.165  1.00  0.00     0.122 C 
BRANCH   6  15
ATOM     15  C   UNL     1      63.278  68.166  82.996  1.00  0.00     0.086 C 
ATOM     16  C   UNL     1      63.727  69.608  82.682  1.00  0.00     0.140 CG0
ATOM     17  C   UNL     1      61.800  68.304  83.232  1.00  0.00    -0.010 C 
ATOM     18  C   UNL     1      62.524  70.424  83.107  1.00  0.00     0.190 C 
ATOM     19  G   UNL     1      64.995  69.996  83.441  1.00  0.00     0.000 G0
ATOM     20  C   UNL     1      61.349  69.559  83.326  1.00  0.00    -0.008 C 
ATOM     21  O   UNL     1      62.495  71.641  83.210  1.00  0.00    -0.291 OA
ATOM     22  C   UNL     1      59.995  70.064  83.632  1.00  0.00     0.048 C 
BRANCH  16  23
ATOM     23  O   UNL     1      63.849  69.882  81.296  1.00  0.00    -0.381 OA
ATOM     24  H   UNL     1      64.431  69.213  80.901  1.00  0.00     0.212 HD
ENDBRANCH  16  23
ENDBRANCH   6  15
BRANCH   7  25
ATOM     25  C   UNL     1      64.213  63.531  83.230  1.00  0.00     0.135 C 
BRANCH  25  26
ATOM     26  C   UNL     1      62.779  63.444  83.690  1.00  0.00    -0.040 A 
ATOM     27  C   UNL     1      61.777  63.086  82.787  1.00  0.00     0.004 A 
ATOM     28  C   UNL     1      62.454  63.719  85.018  1.00  0.00     0.004 A 
ATOM     29  C   UNL     1      60.451  63.005  83.212  1.00  0.00     0.000 A 
ATOM     30  C   UNL     1      61.128  63.638  85.443  1.00  0.00     0.000 A 
ATOM     31  C   UNL     1      60.127  63.281  84.540  1.00  0.00     0.000 A 
ENDBRANCH  25  26
ENDBRANCH   7  25
BRANCH  14  32
ATOM     32  C   UNL     1      65.599  64.463  79.124  1.00  0.00    -0.046 C 
ATOM     33  C   UNL     1      67.047  64.179  79.392  1.00  0.00     0.042 C 
ATOM     34  C   UNL     1      64.986  64.029  78.012  1.00  0.00     0.010 C 
ENDBRANCH  14  32
ENDBRANCH   3   4
BRANCH   2  35
ATOM     35  C   UNL     1      65.027  69.984  83.462  1.00  0.00     0.078 CG0
ATOM     36  G   UNL     1      63.743  69.600  82.728  1.00  0.00     0.000 G0
ENDBRANCH   2  35
ENDBRANCH   1   2
BRANCH   1  37
ATOM     37  O   UNL     1      67.991  70.379  83.973  1.00  0.00    -0.461 OA
BRANCH  37  38
ATOM     38  C   UNL     1      69.048  70.053  83.156  1.00  0.00     0.310 C 
ATOM     39  O   UNL     1      69.004  70.010  81.934  1.00  0.00    -0.252 OA
BRANCH  38  40
ATOM     40  C   UNL     1      70.266  69.758  83.999  1.00  0.00     0.158 C 
BRANCH  40  41
ATOM     41  C   UNL     1      70.758  68.342  83.846  1.00  0.00    -0.033 A 
ATOM     42  C   UNL     1      72.127  68.086  83.749  1.00  0.00     0.054 A 
ATOM     43  C   UNL     1      69.847  67.287  83.801  1.00  0.00     0.008 A 
ATOM     44  C   UNL     1      72.583  66.775  83.607  1.00  0.00     0.160 A 
ATOM     45  C   UNL     1      70.303  65.976  83.659  1.00  0.00     0.050 A 
ATOM     46  C   UNL     1      71.670  65.720  83.562  1.00  0.00     0.157 A 
BRANCH  44  47
ATOM     47  O   UNL     1      73.921  66.538  83.513  1.00  0.00    -0.493 OA
ATOM     48  C   UNL     1      74.662  66.515  84.732  1.00  0.00     0.278 C 
ENDBRANCH  44  47
BRANCH  46  49
ATOM     49  O   UNL     1      72.104  64.437  83.425  1.00  0.00    -0.504 OA
ATOM     50  H   UNL     1      72.904  64.430  82.874  1.00  0.00     0.293 HD
ENDBRANCH  46  49
ENDBRANCH  40  41
ENDBRANCH  38  40
ENDBRANCH  37  38
ENDBRANCH   1  37
TORSDOF 11
ENDMDL
MODEL 5
REMARK VINA RESULT:    -5.859     13.586     17.053
REMARK INTER + INTRA:         -11.147
REMARK INTER:                 -10.095
REMARK INTRA:                  -1.052
REMARK UNBOUND:                -0.835
REMARK SMILES C=C(C)[C@]12C[C@@H](C)[C@@]34O[C@](Cc5ccccc5)(O[C@@H]1[C@@H]3C=C(COC(=O)Cc1ccc(O)c(OC)c1)C[C@]1(O)C(=O)C(C)=C[C@@H]41)O2
REMARK SMILES IDX 23 1 22 2 21 3 20 4 9 5 8 6 10 7 6 8 18 9 46 10 19 11 5 12
REMARK SMILES IDX 7 13 4 14 45 15 38 16 44 17 40 18 42 20 41 21 43 22 39 23
REMARK SMILES IDX 11 25 12 26 13 27 17 28 14 29 16 30 15 31 2 32 3 33 1 34
REMARK SMILES IDX 37 35 24 37 25 38 26 39 27 40 28 41 36 42 29 43 33 44 30 45
REMARK SMILES IDX 31 46 34 47 35 48 32 49
REMARK H PARENT 39 24 32 50
REMARK Flexibility Score: 90.00
ROOT
ATOM      1  C   UNL     1      73.444  91.444  65.908  1.00  0.00     0.264 C 
ENDROOT
BRANCH   1   2
ATOM      2  C   UNL     1      74.067  92.736  66.383  1.00  0.00    -0.033 C 
ATOM      3  C   UNL     1      73.875  93.131  67.658  1.00  0.00    -0.015 C 
BRANCH   3   4
ATOM      4  C   UNL     1      74.323  94.408  68.350  1.00  0.00     0.078 C 
ATOM      5  O   UNL     1      76.502  93.924  69.416  1.00  0.00    -0.319 OA
ATOM      6  C   UNL     1      75.861  94.740  68.387  1.00  0.00     0.095 C 
ATOM      7  C   UNL     1      75.776  93.812  70.655  1.00  0.00     0.289 C 
ATOM      8  C   UNL     1      76.013  96.272  68.764  1.00  0.00     0.023 C 
ATOM      9  O   UNL     1      74.471  93.280  70.443  1.00  0.00    -0.320 OA
ATOM     10  O   UNL     1      75.579  95.077  71.283  1.00  0.00    -0.313 OA
ATOM     11  C   UNL     1      73.837  94.408  69.821  1.00  0.00     0.170 C 
ATOM     12  C   UNL     1      74.879  96.737  69.729  1.00  0.00     0.049 C 
ATOM     13  C   UNL     1      77.377  96.677  69.345  1.00  0.00     0.011 C 
ATOM     14  C   UNL     1      74.402  95.600  70.633  1.00  0.00     0.122 C 
BRANCH   6  15
ATOM     15  C   UNL     1      76.551  94.306  67.062  1.00  0.00     0.086 C 
ATOM     16  C   UNL     1      75.784  94.620  65.761  1.00  0.00     0.140 CG0
ATOM     17  C   UNL     1      77.946  94.782  66.768  1.00  0.00    -0.010 C 
ATOM     18  C   UNL     1      76.903  94.919  64.786  1.00  0.00     0.190 C 
ATOM     19  G   UNL     1      74.911  93.450  65.310  1.00  0.00     0.000 G0
ATOM     20  C   UNL     1      78.183  95.108  65.493  1.00  0.00    -0.008 C 
ATOM     21  O   UNL     1      76.774  95.043  63.577  1.00  0.00    -0.291 OA
ATOM     22  C   UNL     1      79.438  95.528  64.835  1.00  0.00     0.048 C 
BRANCH  16  23
ATOM     23  O   UNL     1      75.044  95.829  65.809  1.00  0.00    -0.381 OA
ATOM     24  H   UNL     1      75.150  96.287  64.959  1.00  0.00     0.212 HD
ENDBRANCH  16  23
ENDBRANCH   6  15
BRANCH   7  25
ATOM     25  C   UNL     1      76.555  92.903  71.583  1.00  0.00     0.135 C 
BRANCH  25  26
ATOM     26  C   UNL     1      76.306  93.228  73.035  1.00  0.00    -0.040 A 
ATOM     27  C   UNL     1      77.187  94.063  73.723  1.00  0.00     0.004 A 
ATOM     28  C   UNL     1      75.195  92.697  73.688  1.00  0.00     0.004 A 
ATOM     29  C   UNL     1      76.957  94.364  75.066  1.00  0.00     0.000 A 
ATOM     30  C   UNL     1      74.965  92.999  75.031  1.00  0.00     0.000 A 
ATOM     31  C   UNL     1      75.846  93.832  75.719  1.00  0.00     0.000 A 
ENDBRANCH  25  26
ENDBRANCH   7  25
BRANCH  14  32
ATOM     32  C   UNL     1      73.449  96.064  71.686  1.00  0.00    -0.046 C 
ATOM     33  C   UNL     1      73.282  97.548  71.820  1.00  0.00     0.042 C 
ATOM     34  C   UNL     1      72.782  95.202  72.468  1.00  0.00     0.010 C 
ENDBRANCH  14  32
ENDBRANCH   3   4
BRANCH   2  35
ATOM     35  C   UNL     1      74.870  93.441  65.306  1.00  0.00     0.078 CG0
ATOM     36  G   UNL     1      75.773  94.592  65.748  1.00  0.00     0.000 G0
ENDBRANCH   2  35
ENDBRANCH   1   2
BRANCH   1  37
ATOM     37  O   UNL     1      74.058  90.359  66.570  1.00  0.00    -0.461 OA
BRANCH  37  38
ATOM     38  C   UNL     1      75.309  90.004  66.124  1.00  0.00     0.310 C 
ATOM     39  O   UNL     1      75.683  90.060  64.960  1.00  0.00    -0.252 OA
BRANCH  38  40
ATOM     40  C   UNL     1      76.146  89.534  67.291  1.00  0.00     0.158 C 
BRANCH  40  41
ATOM     41  C   UNL     1      76.617  88.110  67.141  1.00  0.00    -0.033 A 
ATOM     42  C   UNL     1      75.761  87.056  67.461  1.00  0.00     0.054 A 
ATOM     43  C   UNL     1      77.908  87.847  66.683  1.00  0.00     0.008 A 
ATOM     44  C   UNL     1      76.197  85.738  67.322  1.00  0.00     0.160 A 
ATOM     45  C   UNL     1      78.344  86.529  66.545  1.00  0.00     0.050 A 
ATOM     46  C   UNL     1      77.489  85.474  66.865  1.00  0.00     0.157 A 
BRANCH  44  47
ATOM     47  O   UNL     1      75.352  84.717  67.638  1.00  0.00    -0.493 OA
ATOM     48  C   UNL     1      75.601  84.023  68.860  1.00  0.00     0.278 C 
ENDBRANCH  44  47
BRANCH  46  49
ATOM     49  O   UNL     1      77.925  84.192  66.725  1.00  0.00    -0.504 OA
ATOM     50  H   UNL     1      78.825  84.202  66.358  1.00  0.00     0.293 HD
ENDBRANCH  46  49
ENDBRANCH  40  41
ENDBRANCH  38  40
ENDBRANCH  37  38
ENDBRANCH   1  37
TORSDOF 11
ENDMDL
MODEL 6
REMARK VINA RESULT:    -5.658     33.989     37.533
REMARK INTER + INTRA:         -10.793
REMARK INTER:                  -8.299
REMARK INTRA:                  -2.494
REMARK UNBOUND:                -0.835
REMARK SMILES C=C(C)[C@]12C[C@@H](C)[C@@]34O[C@](Cc5ccccc5)(O[C@@H]1[C@@H]3C=C(COC(=O)Cc1ccc(O)c(OC)c1)C[C@]1(O)C(=O)C(C)=C[C@@H]41)O2
REMARK SMILES IDX 23 1 22 2 21 3 20 4 9 5 8 6 10 7 6 8 18 9 46 10 19 11 5 12
REMARK SMILES IDX 7 13 4 14 45 15 38 16 44 17 40 18 42 20 41 21 43 22 39 23
REMARK SMILES IDX 11 25 12 26 13 27 17 28 14 29 16 30 15 31 2 32 3 33 1 34
REMARK SMILES IDX 37 35 24 37 25 38 26 39 27 40 28 41 36 42 29 43 33 44 30 45
REMARK SMILES IDX 31 46 34 47 35 48 32 49
REMARK H PARENT 39 24 32 50
REMARK Flexibility Score: 90.00
ROOT
ATOM      1  C   UNL     1      95.989 100.762  83.560  1.00  0.00     0.264 C 
ENDROOT
BRANCH   1   2
ATOM      2  C   UNL     1      96.768  99.508  83.239  1.00  0.00    -0.033 C 
ATOM      3  C   UNL     1      96.477  98.820  82.116  1.00  0.00    -0.015 C 
BRANCH   3   4
ATOM      4  C   UNL     1      97.052  97.506  81.613  1.00  0.00     0.078 C 
ATOM      5  O   UNL     1      98.937  98.072  80.114  1.00  0.00    -0.319 OA
ATOM      6  C   UNL     1      98.605  97.412  81.375  1.00  0.00     0.095 C 
ATOM      7  C   UNL     1      98.039  97.801  79.021  1.00  0.00     0.289 C 
ATOM      8  C   UNL     1      98.982  95.876  81.276  1.00  0.00     0.023 C 
ATOM      9  O   UNL     1      96.700  98.163  79.350  1.00  0.00    -0.320 OA
ATOM     10  O   UNL     1      97.993  96.416  78.690  1.00  0.00    -0.313 OA
ATOM     11  C   UNL     1      96.376  97.114  80.276  1.00  0.00     0.170 C 
ATOM     12  C   UNL     1      97.832  95.045  80.628  1.00  0.00     0.049 C 
ATOM     13  C   UNL     1     100.305  95.566  80.556  1.00  0.00     0.011 C 
ATOM     14  C   UNL     1      97.034  95.874  79.621  1.00  0.00     0.122 C 
BRANCH   6  15
ATOM     15  C   UNL     1      99.379  98.222  82.454  1.00  0.00     0.086 C 
ATOM     16  C   UNL     1      98.866  98.090  83.903  1.00  0.00     0.140 CG0
ATOM     17  C   UNL     1     100.864  98.035  82.591  1.00  0.00    -0.010 C 
ATOM     18  C   UNL     1     100.143  98.181  84.711  1.00  0.00     0.190 C 
ATOM     19  G   UNL     1      97.866  99.188  84.263  1.00  0.00     0.000 G0
ATOM     20  C   UNL     1     101.328  98.035  83.845  1.00  0.00    -0.008 C 
ATOM     21  O   UNL     1     100.205  98.307  85.925  1.00  0.00    -0.291 OA
ATOM     22  C   UNL     1     102.715  97.959  84.347  1.00  0.00     0.048 C 
BRANCH  16  23
ATOM     23  O   UNL     1      98.357  96.804  84.216  1.00  0.00    -0.381 OA
ATOM     24  H   UNL     1      97.857  96.476  83.450  1.00  0.00     0.212 HD
ENDBRANCH  16  23
ENDBRANCH   6  15
BRANCH   7  25
ATOM     25  C   UNL     1      98.503  98.595  77.817  1.00  0.00     0.135 C 
BRANCH  25  26
ATOM     26  C   UNL     1      97.940  98.048  76.529  1.00  0.00    -0.040 A 
ATOM     27  C   UNL     1      98.762  97.335  75.656  1.00  0.00     0.004 A 
ATOM     28  C   UNL     1      96.598  98.254  76.210  1.00  0.00     0.004 A 
ATOM     29  C   UNL     1      98.242  96.828  74.464  1.00  0.00     0.000 A 
ATOM     30  C   UNL     1      96.078  97.748  75.019  1.00  0.00     0.000 A 
ATOM     31  C   UNL     1      96.900  97.035  74.146  1.00  0.00     0.000 A 
ENDBRANCH  25  26
ENDBRANCH   7  25
BRANCH  14  32
ATOM     32  C   UNL     1      96.047  95.054  78.856  1.00  0.00    -0.046 C 
ATOM     33  C   UNL     1      94.852  94.571  79.622  1.00  0.00     0.042 C 
ATOM     34  C   UNL     1      96.220  94.765  77.557  1.00  0.00     0.010 C 
ENDBRANCH  14  32
ENDBRANCH   3   4
BRANCH   2  35
ATOM     35  C   UNL     1      97.828  99.185  84.274  1.00  0.00     0.078 CG0
ATOM     36  G   UNL     1      98.851  98.109  83.914  1.00  0.00     0.000 G0
ENDBRANCH   2  35
ENDBRANCH   1   2
BRANCH   1  37
ATOM     37  O   UNL     1      95.095 101.040  82.503  1.00  0.00    -0.461 OA
BRANCH  37  38
ATOM     38  C   UNL     1      94.939 102.366  82.172  1.00  0.00     0.310 C 
ATOM     39  O   UNL     1      95.356 103.309  82.831  1.00  0.00    -0.252 OA
BRANCH  38  40
ATOM     40  C   UNL     1      94.174 102.475  80.874  1.00  0.00     0.158 C 
BRANCH  40  41
ATOM     41  C   UNL     1      95.037 102.236  79.662  1.00  0.00    -0.033 A 
ATOM     42  C   UNL     1      94.455 101.823  78.463  1.00  0.00     0.054 A 
ATOM     43  C   UNL     1      96.416 102.427  79.738  1.00  0.00     0.008 A 
ATOM     44  C   UNL     1      95.254 101.601  77.340  1.00  0.00     0.160 A 
ATOM     45  C   UNL     1      97.215 102.205  78.616  1.00  0.00     0.050 A 
ATOM     46  C   UNL     1      96.634 101.791  77.418  1.00  0.00     0.157 A 
BRANCH  44  47
ATOM     47  O   UNL     1      94.675 101.197  76.176  1.00  0.00    -0.493 OA
ATOM     48  C   UNL     1      93.745 102.094  75.569  1.00  0.00     0.278 C 
ENDBRANCH  44  47
BRANCH  46  49
ATOM     49  O   UNL     1      97.423 101.579  76.328  1.00  0.00    -0.504 OA
ATOM     50  H   UNL     1      97.550 102.421  75.860  1.00  0.00     0.293 HD
ENDBRANCH  46  49
ENDBRANCH  40  41
ENDBRANCH  38  40
ENDBRANCH  37  38
ENDBRANCH   1  37
TORSDOF 11
ENDMDL
MODEL 7
REMARK VINA RESULT:    -5.603     14.226     17.686
REMARK INTER + INTRA:         -10.696
REMARK INTER:                  -7.704
REMARK INTRA:                  -2.992
REMARK UNBOUND:                -0.835
REMARK SMILES C=C(C)[C@]12C[C@@H](C)[C@@]34O[C@](Cc5ccccc5)(O[C@@H]1[C@@H]3C=C(COC(=O)Cc1ccc(O)c(OC)c1)C[C@]1(O)C(=O)C(C)=C[C@@H]41)O2
REMARK SMILES IDX 23 1 22 2 21 3 20 4 9 5 8 6 10 7 6 8 18 9 46 10 19 11 5 12
REMARK SMILES IDX 7 13 4 14 45 15 38 16 44 17 40 18 42 20 41 21 43 22 39 23
REMARK SMILES IDX 11 25 12 26 13 27 17 28 14 29 16 30 15 31 2 32 3 33 1 34
REMARK SMILES IDX 37 35 24 37 25 38 26 39 27 40 28 41 36 42 29 43 33 44 30 45
REMARK SMILES IDX 31 46 34 47 35 48 32 49
REMARK H PARENT 39 24 32 50
REMARK Flexibility Score: 90.00
ROOT
ATOM      1  C   UNL     1      64.661  75.043  86.869  1.00  0.00     0.264 C 
ENDROOT
BRANCH   1   2
ATOM      2  C   UNL     1      63.703  74.666  85.763  1.00  0.00    -0.033 C 
ATOM      3  C   UNL     1      63.605  73.375  85.388  1.00  0.00    -0.015 C 
BRANCH   3   4
ATOM      4  C   UNL     1      62.786  72.756  84.267  1.00  0.00     0.078 C 
ATOM      5  O   UNL     1      60.615  72.086  85.245  1.00  0.00    -0.319 OA
ATOM      6  C   UNL     1      61.228  72.980  84.266  1.00  0.00     0.095 C 
ATOM      7  C   UNL     1      61.133  70.742  85.262  1.00  0.00     0.289 C 
ATOM      8  C   UNL     1      60.692  72.617  82.819  1.00  0.00     0.023 C 
ATOM      9  O   UNL     1      62.538  70.732  85.500  1.00  0.00    -0.320 OA
ATOM     10  O   UNL     1      60.948  70.076  84.016  1.00  0.00    -0.313 OA
ATOM     11  C   UNL     1      63.011  71.224  84.236  1.00  0.00     0.170 C 
ATOM     12  C   UNL     1      61.524  71.467  82.174  1.00  0.00     0.049 C 
ATOM     13  C   UNL     1      59.196  72.275  82.736  1.00  0.00     0.011 C 
ATOM     14  C   UNL     1      62.077  70.507  83.228  1.00  0.00     0.122 C 
BRANCH   6  15
ATOM     15  C   UNL     1      60.876  74.409  84.770  1.00  0.00     0.086 C 
ATOM     16  C   UNL     1      61.762  75.555  84.239  1.00  0.00     0.140 CG0
ATOM     17  C   UNL     1      59.480  74.933  84.584  1.00  0.00    -0.010 C 
ATOM     18  C   UNL     1      60.782  76.704  84.135  1.00  0.00     0.190 C 
ATOM     19  G   UNL     1      62.929  75.864  85.177  1.00  0.00     0.000 G0
ATOM     20  C   UNL     1      59.392  76.226  84.255  1.00  0.00    -0.008 C 
ATOM     21  O   UNL     1      61.078  77.871  83.929  1.00  0.00    -0.291 OA
ATOM     22  C   UNL     1      58.202  77.084  84.076  1.00  0.00     0.048 C 
BRANCH  16  23
ATOM     23  O   UNL     1      62.206  75.367  82.906  1.00  0.00    -0.381 OA
ATOM     24  H   UNL     1      62.987  74.791  82.920  1.00  0.00     0.212 HD
ENDBRANCH  16  23
ENDBRANCH   6  15
BRANCH   7  25
ATOM     25  C   UNL     1      60.423  69.973  86.358  1.00  0.00     0.135 C 
BRANCH  25  26
ATOM     26  C   UNL     1      61.363  69.065  87.111  1.00  0.00    -0.040 A 
ATOM     27  C   UNL     1      61.891  69.470  88.337  1.00  0.00     0.004 A 
ATOM     28  C   UNL     1      61.703  67.820  86.583  1.00  0.00     0.004 A 
ATOM     29  C   UNL     1      62.760  68.630  89.034  1.00  0.00     0.000 A 
ATOM     30  C   UNL     1      62.573  66.980  87.280  1.00  0.00     0.000 A 
ATOM     31  C   UNL     1      63.101  67.386  88.506  1.00  0.00     0.000 A 
ENDBRANCH  25  26
ENDBRANCH   7  25
BRANCH  14  32
ATOM     32  C   UNL     1      62.720  69.301  82.627  1.00  0.00    -0.046 C 
ATOM     33  C   UNL     1      61.995  68.001  82.813  1.00  0.00     0.042 C 
ATOM     34  C   UNL     1      63.881  69.375  81.958  1.00  0.00     0.010 C 
ENDBRANCH  14  32
ENDBRANCH   3   4
BRANCH   2  35
ATOM     35  C   UNL     1      62.940  75.853  85.206  1.00  0.00     0.078 CG0
ATOM     36  G   UNL     1      61.779  75.556  84.258  1.00  0.00     0.000 G0
ENDBRANCH   2  35
ENDBRANCH   1   2
BRANCH   1  37
ATOM     37  O   UNL     1      65.982  74.772  86.455  1.00  0.00    -0.461 OA
BRANCH  37  38
ATOM     38  C   UNL     1      66.893  74.517  87.454  1.00  0.00     0.310 C 
ATOM     39  O   UNL     1      66.935  75.095  88.531  1.00  0.00    -0.252 OA
BRANCH  38  40
ATOM     40  C   UNL     1      67.829  73.415  87.014  1.00  0.00     0.158 C 
BRANCH  40  41
ATOM     41  C   UNL     1      67.105  72.161  86.595  1.00  0.00    -0.033 A 
ATOM     42  C   UNL     1      67.305  71.634  85.319  1.00  0.00     0.054 A 
ATOM     43  C   UNL     1      66.237  71.527  87.484  1.00  0.00     0.008 A 
ATOM     44  C   UNL     1      66.635  70.473  84.931  1.00  0.00     0.160 A 
ATOM     45  C   UNL     1      65.567  70.367  87.096  1.00  0.00     0.050 A 
ATOM     46  C   UNL     1      65.765  69.840  85.821  1.00  0.00     0.157 A 
BRANCH  44  47
ATOM     47  O   UNL     1      66.837  69.969  83.683  1.00  0.00    -0.493 OA
ATOM     48  C   UNL     1      68.129  69.431  83.402  1.00  0.00     0.278 C 
ENDBRANCH  44  47
BRANCH  46  49
ATOM     49  O   UNL     1      65.107  68.705  85.454  1.00  0.00    -0.504 OA
ATOM     50  H   UNL     1      64.215  68.718  85.839  1.00  0.00     0.293 HD
ENDBRANCH  46  49
ENDBRANCH  40  41
ENDBRANCH  38  40
ENDBRANCH  37  38
ENDBRANCH   1  37
TORSDOF 11
ENDMDL
MODEL 8
REMARK VINA RESULT:    -5.540     30.969     35.440
REMARK INTER + INTRA:         -10.586
REMARK INTER:                  -8.515
REMARK INTRA:                  -2.071
REMARK UNBOUND:                -0.835
REMARK SMILES C=C(C)[C@]12C[C@@H](C)[C@@]34O[C@](Cc5ccccc5)(O[C@@H]1[C@@H]3C=C(COC(=O)Cc1ccc(O)c(OC)c1)C[C@]1(O)C(=O)C(C)=C[C@@H]41)O2
REMARK SMILES IDX 23 1 22 2 21 3 20 4 9 5 8 6 10 7 6 8 18 9 46 10 19 11 5 12
REMARK SMILES IDX 7 13 4 14 45 15 38 16 44 17 40 18 42 20 41 21 43 22 39 23
REMARK SMILES IDX 11 25 12 26 13 27 17 28 14 29 16 30 15 31 2 32 3 33 1 34
REMARK SMILES IDX 37 35 24 37 25 38 26 39 27 40 28 41 36 42 29 43 33 44 30 45
REMARK SMILES IDX 31 46 34 47 35 48 32 49
REMARK H PARENT 39 24 32 50
REMARK Flexibility Score: 90.00
ROOT
ATOM      1  C   UNL     1      94.372  76.509  85.327  1.00  0.00     0.264 C 
ENDROOT
BRANCH   1   2
ATOM      2  C   UNL     1      95.579  77.041  84.589  1.00  0.00    -0.033 C 
ATOM      3  C   UNL     1      95.668  78.363  84.339  1.00  0.00    -0.015 C 
BRANCH   3   4
ATOM      4  C   UNL     1      96.725  79.128  83.559  1.00  0.00     0.078 C 
ATOM      5  O   UNL     1      98.430  79.868  85.192  1.00  0.00    -0.319 OA
ATOM      6  C   UNL     1      98.225  79.016  84.023  1.00  0.00     0.095 C 
ATOM      7  C   UNL     1      97.809  81.166  85.124  1.00  0.00     0.289 C 
ATOM      8  C   UNL     1      99.135  79.532  82.833  1.00  0.00     0.023 C 
ATOM      9  O   UNL     1      96.403  81.057  84.920  1.00  0.00    -0.320 OA
ATOM     10  O   UNL     1      98.297  81.943  84.034  1.00  0.00    -0.313 OA
ATOM     11  C   UNL     1      96.380  80.638  83.546  1.00  0.00     0.170 C 
ATOM     12  C   UNL     1      98.433  80.670  82.029  1.00  0.00     0.049 C 
ATOM     13  C   UNL     1     100.549  79.985  83.232  1.00  0.00     0.011 C 
ATOM     14  C   UNL     1      97.503  81.498  82.915  1.00  0.00     0.122 C 
BRANCH   6  15
ATOM     15  C   UNL     1      98.540  77.579  84.530  1.00  0.00     0.086 C 
ATOM     16  C   UNL     1      97.954  76.420  83.697  1.00  0.00     0.140 CG0
ATOM     17  C   UNL     1      99.970  77.169  84.742  1.00  0.00    -0.010 C 
ATOM     18  C   UNL     1      99.020  75.353  83.828  1.00  0.00     0.190 C 
ATOM     19  G   UNL     1      96.596  75.958  84.225  1.00  0.00     0.000 G0
ATOM     20  C   UNL     1     100.266  75.915  84.383  1.00  0.00    -0.008 C 
ATOM     21  O   UNL     1      98.903  74.188  83.479  1.00  0.00    -0.291 OA
ATOM     22  C   UNL     1     101.527  75.158  84.521  1.00  0.00     0.048 C 
BRANCH  16  23
ATOM     23  O   UNL     1      97.906  76.682  82.304  1.00  0.00    -0.381 OA
ATOM     24  H   UNL     1      97.905  75.833  81.832  1.00  0.00     0.212 HD
ENDBRANCH  16  23
ENDBRANCH   6  15
BRANCH   7  25
ATOM     25  C   UNL     1      98.082  81.892  86.426  1.00  0.00     0.135 C 
BRANCH  25  26
ATOM     26  C   UNL     1      96.809  82.287  87.131  1.00  0.00    -0.040 A 
ATOM     27  C   UNL     1      96.096  81.340  87.867  1.00  0.00     0.004 A 
ATOM     28  C   UNL     1      96.344  83.600  87.049  1.00  0.00     0.004 A 
ATOM     29  C   UNL     1      94.918  81.705  88.519  1.00  0.00     0.000 A 
ATOM     30  C   UNL     1      95.166  83.965  87.701  1.00  0.00     0.000 A 
ATOM     31  C   UNL     1      94.453  83.017  88.436  1.00  0.00     0.000 A 
ENDBRANCH  25  26
ENDBRANCH   7  25
BRANCH  14  32
ATOM     32  C   UNL     1      96.962  82.701  82.214  1.00  0.00    -0.046 C 
ATOM     33  C   UNL     1      96.901  82.624  80.717  1.00  0.00     0.042 C 
ATOM     34  C   UNL     1      96.552  83.789  82.884  1.00  0.00     0.010 C 
ENDBRANCH  14  32
ENDBRANCH   3   4
BRANCH   2  35
ATOM     35  C   UNL     1      96.576  75.959  84.221  1.00  0.00     0.078 CG0
ATOM     36  G   UNL     1      97.948  76.413  83.725  1.00  0.00     0.000 G0
ENDBRANCH   2  35
ENDBRANCH   1   2
BRANCH   1  37
ATOM     37  O   UNL     1      93.785  77.552  86.075  1.00  0.00    -0.461 OA
BRANCH  37  38
ATOM     38  C   UNL     1      92.450  77.409  86.373  1.00  0.00     0.310 C 
ATOM     39  O   UNL     1      92.001  76.719  87.277  1.00  0.00    -0.252 OA
BRANCH  38  40
ATOM     40  C   UNL     1      91.628  78.236  85.411  1.00  0.00     0.158 C 
BRANCH  40  41
ATOM     41  C   UNL     1      91.555  79.690  85.799  1.00  0.00    -0.033 A 
ATOM     42  C   UNL     1      90.754  80.087  86.871  1.00  0.00     0.054 A 
ATOM     43  C   UNL     1      92.289  80.639  85.089  1.00  0.00     0.008 A 
ATOM     44  C   UNL     1      90.687  81.433  87.230  1.00  0.00     0.160 A 
ATOM     45  C   UNL     1      92.222  81.986  85.448  1.00  0.00     0.050 A 
ATOM     46  C   UNL     1      91.421  82.383  86.518  1.00  0.00     0.157 A 
BRANCH  44  47
ATOM     47  O   UNL     1      89.901  81.808  88.278  1.00  0.00    -0.493 OA
ATOM     48  C   UNL     1      89.707  80.851  89.318  1.00  0.00     0.278 C 
ENDBRANCH  44  47
BRANCH  46  49
ATOM     49  O   UNL     1      91.364  83.699  86.861  1.00  0.00    -0.504 OA
ATOM     50  H   UNL     1      91.975  84.200  86.295  1.00  0.00     0.293 HD
ENDBRANCH  46  49
ENDBRANCH  40  41
ENDBRANCH  38  40
ENDBRANCH  37  38
ENDBRANCH   1  37
TORSDOF 11
ENDMDL
MODEL 9
REMARK VINA RESULT:    -5.477      3.423      7.079
REMARK INTER + INTRA:         -10.474
REMARK INTER:                  -9.438
REMARK INTRA:                  -1.036
REMARK UNBOUND:                -0.835
REMARK SMILES C=C(C)[C@]12C[C@@H](C)[C@@]34O[C@](Cc5ccccc5)(O[C@@H]1[C@@H]3C=C(COC(=O)Cc1ccc(O)c(OC)c1)C[C@]1(O)C(=O)C(C)=C[C@@H]41)O2
REMARK SMILES IDX 23 1 22 2 21 3 20 4 9 5 8 6 10 7 6 8 18 9 46 10 19 11 5 12
REMARK SMILES IDX 7 13 4 14 45 15 38 16 44 17 40 18 42 20 41 21 43 22 39 23
REMARK SMILES IDX 11 25 12 26 13 27 17 28 14 29 16 30 15 31 2 32 3 33 1 34
REMARK SMILES IDX 37 35 24 37 25 38 26 39 27 40 28 41 36 42 29 43 33 44 30 45
REMARK SMILES IDX 31 46 34 47 35 48 32 49
REMARK H PARENT 39 24 32 50
REMARK Flexibility Score: 90.00
ROOT
ATOM      1  C   UNL     1      65.332  88.526  73.675  1.00  0.00     0.264 C 
ENDROOT
BRANCH   1   2
ATOM      2  C   UNL     1      64.172  87.561  73.600  1.00  0.00    -0.033 C 
ATOM      3  C   UNL     1      63.120  87.855  72.810  1.00  0.00    -0.015 C 
BRANCH   3   4
ATOM      4  C   UNL     1      61.814  87.100  72.622  1.00  0.00     0.078 C 
ATOM      5  O   UNL     1      62.137  85.568  70.706  1.00  0.00    -0.319 OA
ATOM      6  C   UNL     1      61.878  85.601  72.144  1.00  0.00     0.095 C 
ATOM      7  C   UNL     1      61.398  86.526  69.925  1.00  0.00     0.289 C 
ATOM      8  C   UNL     1      60.466  84.943  72.436  1.00  0.00     0.023 C 
ATOM      9  O   UNL     1      61.644  87.857  70.370  1.00  0.00    -0.320 OA
ATOM     10  O   UNL     1      59.989  86.338  70.031  1.00  0.00    -0.313 OA
ATOM     11  C   UNL     1      60.915  87.848  71.607  1.00  0.00     0.170 C 
ATOM     12  C   UNL     1      59.311  85.979  72.283  1.00  0.00     0.049 C 
ATOM     13  C   UNL     1      60.140  83.687  71.612  1.00  0.00     0.011 C 
ATOM     14  C   UNL     1      59.642  87.046  71.239  1.00  0.00     0.122 C 
BRANCH   6  15
ATOM     15  C   UNL     1      63.099  84.872  72.775  1.00  0.00     0.086 C 
ATOM     16  C   UNL     1      63.364  85.157  74.269  1.00  0.00     0.140 CG0
ATOM     17  C   UNL     1      63.191  83.375  72.684  1.00  0.00    -0.010 C 
ATOM     18  C   UNL     1      63.901  83.831  74.764  1.00  0.00     0.190 C 
ATOM     19  G   UNL     1      64.355  86.302  74.471  1.00  0.00     0.000 G0
ATOM     20  C   UNL     1      63.664  82.762  73.774  1.00  0.00    -0.008 C 
ATOM     21  O   UNL     1      64.418  83.639  75.854  1.00  0.00    -0.291 OA
ATOM     22  C   UNL     1      63.964  81.335  74.010  1.00  0.00     0.048 C 
BRANCH  16  23
ATOM     23  O   UNL     1      62.186  85.352  75.033  1.00  0.00    -0.381 OA
ATOM     24  H   UNL     1      61.448  85.519  74.423  1.00  0.00     0.212 HD
ENDBRANCH  16  23
ENDBRANCH   6  15
BRANCH   7  25
ATOM     25  C   UNL     1      61.819  86.384  68.476  1.00  0.00     0.135 C 
BRANCH  25  26
ATOM     26  C   UNL     1      62.257  84.978  68.150  1.00  0.00    -0.040 A 
ATOM     27  C   UNL     1      63.535  84.546  68.505  1.00  0.00     0.004 A 
ATOM     28  C   UNL     1      61.385  84.110  67.495  1.00  0.00     0.004 A 
ATOM     29  C   UNL     1      63.941  83.246  68.204  1.00  0.00     0.000 A 
ATOM     30  C   UNL     1      61.791  82.809  67.193  1.00  0.00     0.000 A 
ATOM     31  C   UNL     1      63.069  82.378  67.548  1.00  0.00     0.000 A 
ENDBRANCH  25  26
ENDBRANCH   7  25
BRANCH  14  32
ATOM     32  C   UNL     1      58.481  87.940  70.944  1.00  0.00    -0.046 C 
ATOM     33  C   UNL     1      58.140  88.125  69.495  1.00  0.00     0.042 C 
ATOM     34  C   UNL     1      57.785  88.543  71.919  1.00  0.00     0.010 C 
ENDBRANCH  14  32
ENDBRANCH   3   4
BRANCH   2  35
ATOM     35  C   UNL     1      64.367  86.328  74.462  1.00  0.00     0.078 CG0
ATOM     36  G   UNL     1      63.382  85.177  74.269  1.00  0.00     0.000 G0
ENDBRANCH   2  35
ENDBRANCH   1   2
BRANCH   1  37
ATOM     37  O   UNL     1      65.580  89.058  72.391  1.00  0.00    -0.461 OA
BRANCH  37  38
ATOM     38  C   UNL     1      66.143  88.200  71.475  1.00  0.00     0.310 C 
ATOM     39  O   UNL     1      65.537  87.643  70.570  1.00  0.00    -0.252 OA
BRANCH  38  40
ATOM     40  C   UNL     1      67.619  88.055  71.761  1.00  0.00     0.158 C 
BRANCH  40  41
ATOM     41  C   UNL     1      68.417  87.658  70.545  1.00  0.00    -0.033 A 
ATOM     42  C   UNL     1      68.415  86.331  70.112  1.00  0.00     0.054 A 
ATOM     43  C   UNL     1      69.156  88.617  69.853  1.00  0.00     0.008 A 
ATOM     44  C   UNL     1      69.153  85.964  68.987  1.00  0.00     0.160 A 
ATOM     45  C   UNL     1      69.894  88.250  68.727  1.00  0.00     0.050 A 
ATOM     46  C   UNL     1      69.893  86.924  68.294  1.00  0.00     0.157 A 
BRANCH  44  47
ATOM     47  O   UNL     1      69.144  84.667  68.574  1.00  0.00    -0.493 OA
ATOM     48  C   UNL     1      68.058  84.258  67.744  1.00  0.00     0.278 C 
ENDBRANCH  44  47
BRANCH  46  49
ATOM     49  O   UNL     1      70.617  86.578  67.194  1.00  0.00    -0.504 OA
ATOM     50  H   UNL     1      70.939  87.385  66.760  1.00  0.00     0.293 HD
ENDBRANCH  46  49
ENDBRANCH  40  41
ENDBRANCH  38  40
ENDBRANCH  37  38
ENDBRANCH   1  37
TORSDOF 11
ENDMDL
MODEL 10
REMARK VINA RESULT:    -5.440     13.806     17.565
REMARK INTER + INTRA:         -10.409
REMARK INTER:                  -9.021
REMARK INTRA:                  -1.388
REMARK UNBOUND:                -0.835
REMARK SMILES C=C(C)[C@]12C[C@@H](C)[C@@]34O[C@](Cc5ccccc5)(O[C@@H]1[C@@H]3C=C(COC(=O)Cc1ccc(O)c(OC)c1)C[C@]1(O)C(=O)C(C)=C[C@@H]41)O2
REMARK SMILES IDX 23 1 22 2 21 3 20 4 9 5 8 6 10 7 6 8 18 9 46 10 19 11 5 12
REMARK SMILES IDX 7 13 4 14 45 15 38 16 44 17 40 18 42 20 41 21 43 22 39 23
REMARK SMILES IDX 11 25 12 26 13 27 17 28 14 29 16 30 15 31 2 32 3 33 1 34
REMARK SMILES IDX 37 35 24 37 25 38 26 39 27 40 28 41 36 42 29 43 33 44 30 45
REMARK SMILES IDX 31 46 34 47 35 48 32 49
REMARK H PARENT 39 24 32 50
REMARK Flexibility Score: 90.00
ROOT
ATOM      1  C   UNL     1      72.504  95.838  68.765  1.00  0.00     0.264 C 
ENDROOT
BRANCH   1   2
ATOM      2  C   UNL     1      73.969  96.206  68.723  1.00  0.00    -0.033 C 
ATOM      3  C   UNL     1      74.615  96.475  69.875  1.00  0.00    -0.015 C 
BRANCH   3   4
ATOM      4  C   UNL     1      76.046  96.937  70.094  1.00  0.00     0.078 C 
ATOM      5  O   UNL     1      77.421  94.903  70.402  1.00  0.00    -0.319 OA
ATOM      6  C   UNL     1      77.215  96.050  69.521  1.00  0.00     0.095 C 
ATOM      7  C   UNL     1      77.383  95.194  71.812  1.00  0.00     0.289 C 
ATOM      8  C   UNL     1      78.527  96.939  69.504  1.00  0.00     0.023 C 
ATOM      9  O   UNL     1      76.147  95.797  72.183  1.00  0.00    -0.320 OA
ATOM     10  O   UNL     1      78.395  96.120  72.200  1.00  0.00    -0.313 OA
ATOM     11  C   UNL     1      76.320  97.102  71.609  1.00  0.00     0.170 C 
ATOM     12  C   UNL     1      78.546  97.952  70.690  1.00  0.00     0.049 C 
ATOM     13  C   UNL     1      79.851  96.159  69.475  1.00  0.00     0.011 C 
ATOM     14  C   UNL     1      77.809  97.406  71.913  1.00  0.00     0.122 C 
BRANCH   6  15
ATOM     15  C   UNL     1      76.813  95.424  68.155  1.00  0.00     0.086 C 
ATOM     16  C   UNL     1      76.066  96.352  67.175  1.00  0.00     0.140 CG0
ATOM     17  C   UNL     1      77.872  94.789  67.296  1.00  0.00    -0.010 C 
ATOM     18  C   UNL     1      76.570  95.878  65.828  1.00  0.00     0.190 C 
ATOM     19  G   UNL     1      74.548  96.229  67.308  1.00  0.00     0.000 G0
ATOM     20  C   UNL     1      77.747  95.002  65.982  1.00  0.00    -0.008 C 
ATOM     21  O   UNL     1      76.110  96.206  64.744  1.00  0.00    -0.291 OA
ATOM     22  C   UNL     1      78.541  94.475  64.853  1.00  0.00     0.048 C 
BRANCH  16  23
ATOM     23  O   UNL     1      76.482  97.706  67.235  1.00  0.00    -0.381 OA
ATOM     24  H   UNL     1      77.360  97.738  67.650  1.00  0.00     0.212 HD
ENDBRANCH  16  23
ENDBRANCH   6  15
BRANCH   7  25
ATOM     25  C   UNL     1      77.568  93.895  72.571  1.00  0.00     0.135 C 
BRANCH  25  26
ATOM     26  C   UNL     1      76.263  93.366  73.112  1.00  0.00    -0.040 A 
ATOM     27  C   UNL     1      75.267  92.936  72.233  1.00  0.00     0.004 A 
ATOM     28  C   UNL     1      76.051  93.306  74.489  1.00  0.00     0.004 A 
ATOM     29  C   UNL     1      74.060  92.446  72.733  1.00  0.00     0.000 A 
ATOM     30  C   UNL     1      74.844  92.817  74.988  1.00  0.00     0.000 A 
ATOM     31  C   UNL     1      73.849  92.387  74.110  1.00  0.00     0.000 A 
ENDBRANCH  25  26
ENDBRANCH   7  25
BRANCH  14  32
ATOM     32  C   UNL     1      77.969  98.276  73.117  1.00  0.00    -0.046 C 
ATOM     33  C   UNL     1      78.342  97.580  74.392  1.00  0.00     0.042 C 
ATOM     34  C   UNL     1      77.790  99.604  73.060  1.00  0.00     0.010 C 
ENDBRANCH  14  32
ENDBRANCH   3   4
BRANCH   2  35
ATOM     35  C   UNL     1      74.540  96.214  67.317  1.00  0.00     0.078 CG0
ATOM     36  G   UNL     1      76.057  96.333  67.180  1.00  0.00     0.000 G0
ENDBRANCH   2  35
ENDBRANCH   1   2
BRANCH   1  37
ATOM     37  O   UNL     1      72.377  94.456  69.017  1.00  0.00    -0.461 OA
BRANCH  37  38
ATOM     38  C   UNL     1      72.297  93.640  67.912  1.00  0.00     0.310 C 
ATOM     39  O   UNL     1      71.298  93.488  67.223  1.00  0.00    -0.252 OA
BRANCH  38  40
ATOM     40  C   UNL     1      73.629  92.966  67.686  1.00  0.00     0.158 C 
BRANCH  40  41
ATOM     41  C   UNL     1      73.608  91.496  68.016  1.00  0.00    -0.033 A 
ATOM     42  C   UNL     1      73.361  90.559  67.012  1.00  0.00     0.054 A 
ATOM     43  C   UNL     1      73.836  91.072  69.325  1.00  0.00     0.008 A 
ATOM     44  C   UNL     1      73.342  89.198  67.317  1.00  0.00     0.160 A 
ATOM     45  C   UNL     1      73.816  89.711  69.630  1.00  0.00     0.050 A 
ATOM     46  C   UNL     1      73.569  88.774  68.627  1.00  0.00     0.157 A 
BRANCH  44  47
ATOM     47  O   UNL     1      73.100  88.293  66.329  1.00  0.00    -0.493 OA
ATOM     48  C   UNL     1      71.752  87.852  66.169  1.00  0.00     0.278 C 
ENDBRANCH  44  47
BRANCH  46  49
ATOM     49  O   UNL     1      73.554  87.448  68.937  1.00  0.00    -0.504 OA
ATOM     50  H   UNL     1      73.791  87.339  69.874  1.00  0.00     0.293 HD
ENDBRANCH  46  49
ENDBRANCH  40  41
ENDBRANCH  38  40
ENDBRANCH  37  38
ENDBRANCH   1  37
TORSDOF 11
ENDMDL
