MODEL 1
REMARK VINA RESULT:    -6.778      0.000      0.000
REMARK INTER + INTRA:         -11.590
REMARK INTER:                 -10.939
REMARK INTRA:                  -0.651
REMARK UNBOUND:                -0.651
REMARK SMILES COc1cc(CNC(=O)CCCCC/C=C/C(C)C)ccc1O
REMARK SMILES IDX 11 1 10 2 8 3 7 4 9 6 6 7 5 8 3 9 22 10 4 11 21 12 20 13
REMARK SMILES IDX 2 14 1 15 23 16 12 18 13 19 14 20 15 21 16 22 17 23 18 24
REMARK SMILES IDX 19 25
REMARK H PARENT 7 5 23 17
REMARK Flexibility Score: inf
ROOT
ATOM      1  C   UNL     1      93.978  99.416  75.289  1.00  0.00     0.010 C 
ENDROOT
BRANCH   1   2
ATOM      2  C   UNL     1      94.261  99.633  73.780  1.00  0.00     0.100 C 
BRANCH   2   3
ATOM      3  C   UNL     1      93.256 100.467  73.095  1.00  0.00     0.220 C 
ATOM      4  N   UNL     1      92.139  99.890  72.572  1.00  0.00    -0.352 N 
ATOM      5  H   UNL     1      92.117  98.881  72.634  1.00  0.00     0.163 HD
ATOM      6  O   UNL     1      93.443 101.706  73.047  1.00  0.00    -0.275 OA
BRANCH   4   7
ATOM      7  C   UNL     1      91.048 100.587  71.973  1.00  0.00     0.151 C 
BRANCH   7   8
ATOM      8  C   UNL     1      90.247  99.726  71.066  1.00  0.00    -0.025 A 
ATOM      9  C   UNL     1      88.741  99.472  69.137  1.00  0.00     0.160 A 
ATOM     10  C   UNL     1      88.679  98.081  69.371  1.00  0.00     0.157 A 
ATOM     11  C   UNL     1      89.517 100.284  69.991  1.00  0.00     0.056 A 
ATOM     12  C   UNL     1      89.414  97.513  70.427  1.00  0.00     0.050 A 
ATOM     13  C   UNL     1      90.201  98.327  71.262  1.00  0.00     0.009 A 
BRANCH   9  14
ATOM     14  O   UNL     1      88.100 100.023  68.060  1.00  0.00    -0.493 OA
ATOM     15  C   UNL     1      88.545 101.349  67.726  1.00  0.00     0.278 C 
ENDBRANCH   9  14
BRANCH  10  16
ATOM     16  O   UNL     1      87.922  97.269  68.591  1.00  0.00    -0.504 OA
ATOM     17  H   UNL     1      87.357  96.727  69.147  1.00  0.00     0.293 HD
ENDBRANCH  10  16
ENDBRANCH   7   8
ENDBRANCH   4   7
ENDBRANCH   2   3
ENDBRANCH   1   2
BRANCH   1  18
ATOM     18  C   UNL     1      92.985  98.247  75.509  1.00  0.00     0.001 C 
BRANCH  18  19
ATOM     19  C   UNL     1      93.674  96.887  75.785  1.00  0.00     0.004 C 
BRANCH  19  20
ATOM     20  C   UNL     1      93.140  96.235  77.092  1.00  0.00     0.027 C 
BRANCH  20  21
ATOM     21  C   UNL     1      91.785  95.723  76.978  1.00  0.00    -0.031 C 
ATOM     22  C   UNL     1      91.211  94.986  77.945  1.00  0.00    -0.028 C 
BRANCH  22  23
ATOM     23  C   UNL     1      89.850  94.462  77.863  1.00  0.00     0.005 C 
ATOM     24  C   UNL     1      89.379  94.418  76.386  1.00  0.00     0.012 C 
ATOM     25  C   UNL     1      89.769  93.071  78.550  1.00  0.00     0.012 C 
ENDBRANCH  22  23
ENDBRANCH  20  21
ENDBRANCH  19  20
ENDBRANCH  18  19
ENDBRANCH   1  18
TORSDOF 11
ENDMDL
MODEL 2
REMARK VINA RESULT:    -6.378      3.845      9.416
REMARK INTER + INTRA:         -10.945
REMARK INTER:                 -10.282
REMARK INTRA:                  -0.662
REMARK UNBOUND:                -0.651
REMARK SMILES COc1cc(CNC(=O)CCCCC/C=C/C(C)C)ccc1O
REMARK SMILES IDX 11 1 10 2 8 3 7 4 9 6 6 7 5 8 3 9 22 10 4 11 21 12 20 13
REMARK SMILES IDX 2 14 1 15 23 16 12 18 13 19 14 20 15 21 16 22 17 23 18 24
REMARK SMILES IDX 19 25
REMARK H PARENT 7 5 23 17
REMARK Flexibility Score: inf
ROOT
ATOM      1  C   UNL     1      93.270  99.709  73.533  1.00  0.00     0.010 C 
ENDROOT
BRANCH   1   2
ATOM      2  C   UNL     1      92.865  99.049  74.876  1.00  0.00     0.100 C 
BRANCH   2   3
ATOM      3  C   UNL     1      93.994  98.821  75.797  1.00  0.00     0.220 C 
ATOM      4  N   UNL     1      94.114  97.627  76.440  1.00  0.00    -0.352 N 
ATOM      5  H   UNL     1      93.348  96.986  76.285  1.00  0.00     0.163 HD
ATOM      6  O   UNL     1      94.845  99.732  75.934  1.00  0.00    -0.275 OA
BRANCH   4   7
ATOM      7  C   UNL     1      95.203  97.241  77.278  1.00  0.00     0.151 C 
BRANCH   7   8
ATOM      8  C   UNL     1      94.838  96.160  78.229  1.00  0.00    -0.025 A 
ATOM      9  C   UNL     1      93.172  94.614  79.169  1.00  0.00     0.160 A 
ATOM     10  C   UNL     1      94.135  94.133  80.082  1.00  0.00     0.157 A 
ATOM     11  C   UNL     1      93.528  95.628  78.256  1.00  0.00     0.056 A 
ATOM     12  C   UNL     1      95.446  94.642  80.052  1.00  0.00     0.050 A 
ATOM     13  C   UNL     1      95.798  95.640  79.125  1.00  0.00     0.009 A 
BRANCH   9  14
ATOM     14  O   UNL     1      91.918  94.064  79.131  1.00  0.00    -0.493 OA
ATOM     15  C   UNL     1      91.123  94.490  78.012  1.00  0.00     0.278 C 
ENDBRANCH   9  14
BRANCH  10  16
ATOM     16  O   UNL     1      93.826  93.178  80.995  1.00  0.00    -0.504 OA
ATOM     17  H   UNL     1      94.240  93.392  81.834  1.00  0.00     0.293 HD
ENDBRANCH  10  16
ENDBRANCH   7   8
ENDBRANCH   4   7
ENDBRANCH   2   3
ENDBRANCH   1   2
BRANCH   1  18
ATOM     18  C   UNL     1      92.168 100.677  73.030  1.00  0.00     0.001 C 
BRANCH  18  19
ATOM     19  C   UNL     1      91.691 100.382  71.586  1.00  0.00     0.004 C 
BRANCH  19  20
ATOM     20  C   UNL     1      90.641  99.236  71.559  1.00  0.00     0.027 C 
BRANCH  20  21
ATOM     21  C   UNL     1      89.939  99.116  70.292  1.00  0.00    -0.031 C 
ATOM     22  C   UNL     1      89.857 100.134  69.417  1.00  0.00    -0.028 C 
BRANCH  22  23
ATOM     23  C   UNL     1      89.164 100.044  68.134  1.00  0.00     0.005 C 
ATOM     24  C   UNL     1      88.097  98.918  68.177  1.00  0.00     0.012 C 
ATOM     25  C   UNL     1      88.553 101.421  67.756  1.00  0.00     0.012 C 
ENDBRANCH  22  23
ENDBRANCH  20  21
ENDBRANCH  19  20
ENDBRANCH  18  19
ENDBRANCH   1  18
TORSDOF 11
ENDMDL
MODEL 3
REMARK VINA RESULT:    -6.160     18.377     20.942
REMARK INTER + INTRA:         -10.592
REMARK INTER:                  -9.735
REMARK INTRA:                  -0.856
REMARK UNBOUND:                -0.651
REMARK SMILES COc1cc(CNC(=O)CCCCC/C=C/C(C)C)ccc1O
REMARK SMILES IDX 11 1 10 2 8 3 7 4 9 6 6 7 5 8 3 9 22 10 4 11 21 12 20 13
REMARK SMILES IDX 2 14 1 15 23 16 12 18 13 19 14 20 15 21 16 22 17 23 18 24
REMARK SMILES IDX 19 25
REMARK H PARENT 7 5 23 17
REMARK Flexibility Score: inf
ROOT
ATOM      1  C   UNL     1      96.515  83.094  87.112  1.00  0.00     0.010 C 
ENDROOT
BRANCH   1   2
ATOM      2  C   UNL     1      95.882  84.231  87.955  1.00  0.00     0.100 C 
BRANCH   2   3
ATOM      3  C   UNL     1      94.433  84.405  87.738  1.00  0.00     0.220 C 
ATOM      4  N   UNL     1      93.572  83.408  88.083  1.00  0.00    -0.352 N 
ATOM      5  H   UNL     1      94.016  82.561  88.409  1.00  0.00     0.163 HD
ATOM      6  O   UNL     1      94.027  85.496  87.273  1.00  0.00    -0.275 OA
BRANCH   4   7
ATOM      7  C   UNL     1      92.149  83.482  88.017  1.00  0.00     0.151 C 
BRANCH   7   8
ATOM      8  C   UNL     1      91.559  82.417  87.164  1.00  0.00    -0.025 A 
ATOM      9  C   UNL     1      89.596  81.317  86.172  1.00  0.00     0.160 A 
ATOM     10  C   UNL     1      90.438  80.351  85.579  1.00  0.00     0.157 A 
ATOM     11  C   UNL     1      90.161  82.336  86.966  1.00  0.00     0.056 A 
ATOM     12  C   UNL     1      91.832  80.432  85.756  1.00  0.00     0.050 A 
ATOM     13  C   UNL     1      92.389  81.463  86.534  1.00  0.00     0.009 A 
BRANCH   9  14
ATOM     14  O   UNL     1      88.247  81.299  85.934  1.00  0.00    -0.493 OA
ATOM     15  C   UNL     1      87.722  82.541  85.437  1.00  0.00     0.278 C 
ENDBRANCH   9  14
BRANCH  10  16
ATOM     16  O   UNL     1      89.932  79.338  84.832  1.00  0.00    -0.504 OA
ATOM     17  H   UNL     1      90.630  78.963  84.289  1.00  0.00     0.293 HD
ENDBRANCH  10  16
ENDBRANCH   7   8
ENDBRANCH   4   7
ENDBRANCH   2   3
ENDBRANCH   1   2
BRANCH   1  18
ATOM     18  C   UNL     1      96.088  83.196  85.625  1.00  0.00     0.001 C 
BRANCH  18  19
ATOM     19  C   UNL     1      97.014  84.099  84.772  1.00  0.00     0.004 C 
BRANCH  19  20
ATOM     20  C   UNL     1      98.185  83.285  84.152  1.00  0.00     0.027 C 
BRANCH  20  21
ATOM     21  C   UNL     1      97.913  82.800  82.810  1.00  0.00    -0.031 C 
ATOM     22  C   UNL     1      98.505  83.326  81.722  1.00  0.00    -0.028 C 
BRANCH  22  23
ATOM     23  C   UNL     1      98.258  82.858  80.361  1.00  0.00     0.005 C 
ATOM     24  C   UNL     1      97.016  83.572  79.764  1.00  0.00     0.012 C 
ATOM     25  C   UNL     1      99.527  83.053  79.487  1.00  0.00     0.012 C 
ENDBRANCH  22  23
ENDBRANCH  20  21
ENDBRANCH  19  20
ENDBRANCH  18  19
ENDBRANCH   1  18
TORSDOF 11
ENDMDL
MODEL 4
REMARK VINA RESULT:    -6.146     18.829     22.010
REMARK INTER + INTRA:         -10.569
REMARK INTER:                  -8.133
REMARK INTRA:                  -2.436
REMARK UNBOUND:                -0.651
REMARK SMILES COc1cc(CNC(=O)CCCCC/C=C/C(C)C)ccc1O
REMARK SMILES IDX 11 1 10 2 8 3 7 4 9 6 6 7 5 8 3 9 22 10 4 11 21 12 20 13
REMARK SMILES IDX 2 14 1 15 23 16 12 18 13 19 14 20 15 21 16 22 17 23 18 24
REMARK SMILES IDX 19 25
REMARK H PARENT 7 5 23 17
REMARK Flexibility Score: inf
ROOT
ATOM      1  C   UNL     1      74.903  81.699  65.378  1.00  0.00     0.010 C 
ENDROOT
BRANCH   1   2
ATOM      2  C   UNL     1      76.259  81.786  64.632  1.00  0.00     0.100 C 
BRANCH   2   3
ATOM      3  C   UNL     1      77.187  82.789  65.187  1.00  0.00     0.220 C 
ATOM      4  N   UNL     1      77.558  82.718  66.495  1.00  0.00    -0.352 N 
ATOM      5  H   UNL     1      77.093  81.995  67.027  1.00  0.00     0.163 HD
ATOM      6  O   UNL     1      77.645  83.666  64.418  1.00  0.00    -0.275 OA
BRANCH   4   7
ATOM      7  C   UNL     1      78.517  83.561  67.132  1.00  0.00     0.151 C 
BRANCH   7   8
ATOM      8  C   UNL     1      77.886  84.630  67.949  1.00  0.00    -0.025 A 
ATOM      9  C   UNL     1      76.341  85.327  69.731  1.00  0.00     0.160 A 
ATOM     10  C   UNL     1      76.647  86.679  69.466  1.00  0.00     0.157 A 
ATOM     11  C   UNL     1      76.955  84.314  68.965  1.00  0.00     0.056 A 
ATOM     12  C   UNL     1      77.585  87.005  68.469  1.00  0.00     0.050 A 
ATOM     13  C   UNL     1      78.208  85.987  67.723  1.00  0.00     0.009 A 
BRANCH   9  14
ATOM     14  O   UNL     1      75.496  84.995  70.757  1.00  0.00    -0.493 OA
ATOM     15  C   UNL     1      75.977  83.930  71.593  1.00  0.00     0.278 C 
ENDBRANCH   9  14
BRANCH  10  16
ATOM     16  O   UNL     1      76.057  87.684  70.161  1.00  0.00    -0.504 OA
ATOM     17  H   UNL     1      76.732  88.276  70.503  1.00  0.00     0.293 HD
ENDBRANCH  10  16
ENDBRANCH   7   8
ENDBRANCH   4   7
ENDBRANCH   2   3
ENDBRANCH   1   2
BRANCH   1  18
ATOM     18  C   UNL     1      73.952  82.844  64.947  1.00  0.00     0.001 C 
BRANCH  18  19
ATOM     19  C   UNL     1      73.068  83.387  66.098  1.00  0.00     0.004 C 
BRANCH  19  20
ATOM     20  C   UNL     1      73.871  84.334  67.033  1.00  0.00     0.027 C 
BRANCH  20  21
ATOM     21  C   UNL     1      74.757  85.241  66.323  1.00  0.00    -0.031 C 
ATOM     22  C   UNL     1      74.526  86.564  66.254  1.00  0.00    -0.028 C 
BRANCH  22  23
ATOM     23  C   UNL     1      75.399  87.503  65.554  1.00  0.00     0.005 C 
ATOM     24  C   UNL     1      76.243  86.758  64.486  1.00  0.00     0.012 C 
ATOM     25  C   UNL     1      74.564  88.660  64.944  1.00  0.00     0.012 C 
ENDBRANCH  22  23
ENDBRANCH  20  21
ENDBRANCH  19  20
ENDBRANCH  18  19
ENDBRANCH   1  18
TORSDOF 11
ENDMDL
MODEL 5
REMARK VINA RESULT:    -5.943     17.485     19.815
REMARK INTER + INTRA:         -10.241
REMARK INTER:                  -9.473
REMARK INTRA:                  -0.768
REMARK UNBOUND:                -0.651
REMARK SMILES COc1cc(CNC(=O)CCCCC/C=C/C(C)C)ccc1O
REMARK SMILES IDX 11 1 10 2 8 3 7 4 9 6 6 7 5 8 3 9 22 10 4 11 21 12 20 13
REMARK SMILES IDX 2 14 1 15 23 16 12 18 13 19 14 20 15 21 16 22 17 23 18 24
REMARK SMILES IDX 19 25
REMARK H PARENT 7 5 23 17
REMARK Flexibility Score: inf
ROOT
ATOM      1  C   UNL     1      97.812  83.910  85.285  1.00  0.00     0.010 C 
ENDROOT
BRANCH   1   2
ATOM      2  C   UNL     1      98.729  82.687  85.546  1.00  0.00     0.100 C 
BRANCH   2   3
ATOM      3  C   UNL     1      99.458  82.218  84.352  1.00  0.00     0.220 C 
ATOM      4  N   UNL     1      99.220  82.795  83.142  1.00  0.00    -0.352 N 
ATOM      5  H   UNL     1      98.478  83.482  83.141  1.00  0.00     0.163 HD
ATOM      6  O   UNL     1     100.317  81.316  84.495  1.00  0.00    -0.275 OA
BRANCH   4   7
ATOM      7  C   UNL     1      99.920  82.506  81.933  1.00  0.00     0.151 C 
BRANCH   7   8
ATOM      8  C   UNL     1      99.141  82.868  80.720  1.00  0.00    -0.025 A 
ATOM      9  C   UNL     1      99.012  83.213  78.289  1.00  0.00     0.160 A 
ATOM     10  C   UNL     1      97.664  83.612  78.418  1.00  0.00     0.157 A 
ATOM     11  C   UNL     1      99.742  82.853  79.440  1.00  0.00     0.056 A 
ATOM     12  C   UNL     1      97.051  83.614  79.684  1.00  0.00     0.050 A 
ATOM     13  C   UNL     1      97.781  83.235  80.826  1.00  0.00     0.009 A 
BRANCH   9  14
ATOM     14  O   UNL     1      99.592  83.123  77.051  1.00  0.00    -0.493 OA
ATOM     15  C   UNL     1      99.751  81.777  76.574  1.00  0.00     0.278 C 
ENDBRANCH   9  14
BRANCH  10  16
ATOM     16  O   UNL     1      96.935  83.993  77.339  1.00  0.00    -0.504 OA
ATOM     17  H   UNL     1      96.316  84.681  77.598  1.00  0.00     0.293 HD
ENDBRANCH  10  16
ENDBRANCH   7   8
ENDBRANCH   4   7
ENDBRANCH   2   3
ENDBRANCH   1   2
BRANCH   1  18
ATOM     18  C   UNL     1      96.334  83.475  85.114  1.00  0.00     0.001 C 
BRANCH  18  19
ATOM     19  C   UNL     1      95.870  82.422  86.153  1.00  0.00     0.004 C 
BRANCH  19  20
ATOM     20  C   UNL     1      94.505  82.813  86.784  1.00  0.00     0.027 C 
BRANCH  20  21
ATOM     21  C   UNL     1      93.439  81.865  86.504  1.00  0.00    -0.031 C 
ATOM     22  C   UNL     1      92.216  81.977  87.051  1.00  0.00    -0.028 C 
BRANCH  22  23
ATOM     23  C   UNL     1      91.123  81.045  86.786  1.00  0.00     0.005 C 
ATOM     24  C   UNL     1      91.404  80.240  85.490  1.00  0.00     0.012 C 
ATOM     25  C   UNL     1      90.894  80.123  88.015  1.00  0.00     0.012 C 
ENDBRANCH  22  23
ENDBRANCH  20  21
ENDBRANCH  19  20
ENDBRANCH  18  19
ENDBRANCH   1  18
TORSDOF 11
ENDMDL
MODEL 6
REMARK VINA RESULT:    -5.904     19.364     22.249
REMARK INTER + INTRA:         -10.179
REMARK INTER:                  -8.651
REMARK INTRA:                  -1.528
REMARK UNBOUND:                -0.651
REMARK SMILES COc1cc(CNC(=O)CCCCC/C=C/C(C)C)ccc1O
REMARK SMILES IDX 11 1 10 2 8 3 7 4 9 6 6 7 5 8 3 9 22 10 4 11 21 12 20 13
REMARK SMILES IDX 2 14 1 15 23 16 12 18 13 19 14 20 15 21 16 22 17 23 18 24
REMARK SMILES IDX 19 25
REMARK H PARENT 7 5 23 17
REMARK Flexibility Score: inf
ROOT
ATOM      1  C   UNL     1      78.095  86.530  68.304  1.00  0.00     0.010 C 
ENDROOT
BRANCH   1   2
ATOM      2  C   UNL     1      78.276  84.996  68.444  1.00  0.00     0.100 C 
BRANCH   2   3
ATOM      3  C   UNL     1      78.002  84.243  67.206  1.00  0.00     0.220 C 
ATOM      4  N   UNL     1      77.039  84.678  66.347  1.00  0.00    -0.352 N 
ATOM      5  H   UNL     1      76.514  85.478  66.673  1.00  0.00     0.163 HD
ATOM      6  O   UNL     1      78.701  83.233  66.956  1.00  0.00    -0.275 OA
BRANCH   4   7
ATOM      7  C   UNL     1      76.740  84.104  65.076  1.00  0.00     0.151 C 
BRANCH   7   8
ATOM      8  C   UNL     1      75.640  83.107  65.143  1.00  0.00    -0.025 A 
ATOM      9  C   UNL     1      73.441  82.407  65.991  1.00  0.00     0.160 A 
ATOM     10  C   UNL     1      73.570  81.177  65.309  1.00  0.00     0.157 A 
ATOM     11  C   UNL     1      74.479  83.357  65.910  1.00  0.00     0.056 A 
ATOM     12  C   UNL     1      74.713  80.924  64.529  1.00  0.00     0.050 A 
ATOM     13  C   UNL     1      75.736  81.886  64.438  1.00  0.00     0.009 A 
BRANCH   9  14
ATOM     14  O   UNL     1      72.294  82.699  66.681  1.00  0.00    -0.493 OA
ATOM     15  C   UNL     1      71.678  83.940  66.299  1.00  0.00     0.278 C 
ENDBRANCH   9  14
BRANCH  10  16
ATOM     16  O   UNL     1      72.607  80.225  65.384  1.00  0.00    -0.504 OA
ATOM     17  H   UNL     1      72.113  80.205  64.561  1.00  0.00     0.293 HD
ENDBRANCH  10  16
ENDBRANCH   7   8
ENDBRANCH   4   7
ENDBRANCH   2   3
ENDBRANCH   1   2
BRANCH   1  18
ATOM     18  C   UNL     1      77.538  87.150  69.611  1.00  0.00     0.001 C 
BRANCH  18  19
ATOM     19  C   UNL     1      75.992  87.249  69.644  1.00  0.00     0.004 C 
BRANCH  19  20
ATOM     20  C   UNL     1      75.479  88.409  68.745  1.00  0.00     0.027 C 
BRANCH  20  21
ATOM     21  C   UNL     1      74.940  87.966  67.471  1.00  0.00    -0.031 C 
ATOM     22  C   UNL     1      75.423  88.404  66.295  1.00  0.00    -0.028 C 
BRANCH  22  23
ATOM     23  C   UNL     1      74.907  87.974  64.997  1.00  0.00     0.005 C 
ATOM     24  C   UNL     1      76.072  87.518  64.079  1.00  0.00     0.012 C 
ATOM     25  C   UNL     1      73.837  86.864  65.186  1.00  0.00     0.012 C 
ENDBRANCH  22  23
ENDBRANCH  20  21
ENDBRANCH  19  20
ENDBRANCH  18  19
ENDBRANCH   1  18
TORSDOF 11
ENDMDL
MODEL 7
REMARK VINA RESULT:    -5.887     20.605     23.454
REMARK INTER + INTRA:         -10.152
REMARK INTER:                  -8.718
REMARK INTRA:                  -1.433
REMARK UNBOUND:                -0.651
REMARK SMILES COc1cc(CNC(=O)CCCCC/C=C/C(C)C)ccc1O
REMARK SMILES IDX 11 1 10 2 8 3 7 4 9 6 6 7 5 8 3 9 22 10 4 11 21 12 20 13
REMARK SMILES IDX 2 14 1 15 23 16 12 18 13 19 14 20 15 21 16 22 17 23 18 24
REMARK SMILES IDX 19 25
REMARK H PARENT 7 5 23 17
REMARK Flexibility Score: inf
ROOT
ATOM      1  C   UNL     1      74.805  81.271  64.305  1.00  0.00     0.010 C 
ENDROOT
BRANCH   1   2
ATOM      2  C   UNL     1      73.477  80.539  64.632  1.00  0.00     0.100 C 
BRANCH   2   3
ATOM      3  C   UNL     1      72.357  81.443  64.952  1.00  0.00     0.220 C 
ATOM      4  N   UNL     1      72.074  81.739  66.251  1.00  0.00    -0.352 N 
ATOM      5  H   UNL     1      72.632  81.238  66.928  1.00  0.00     0.163 HD
ATOM      6  O   UNL     1      71.714  81.953  64.004  1.00  0.00    -0.275 OA
BRANCH   4   7
ATOM      7  C   UNL     1      71.086  82.668  66.694  1.00  0.00     0.151 C 
BRANCH   7   8
ATOM      8  C   UNL     1      71.652  83.737  67.557  1.00  0.00    -0.025 A 
ATOM      9  C   UNL     1      73.447  85.335  68.078  1.00  0.00     0.160 A 
ATOM     10  C   UNL     1      72.752  85.737  69.239  1.00  0.00     0.157 A 
ATOM     11  C   UNL     1      72.898  84.333  67.252  1.00  0.00     0.056 A 
ATOM     12  C   UNL     1      71.504  85.162  69.543  1.00  0.00     0.050 A 
ATOM     13  C   UNL     1      70.953  84.177  68.703  1.00  0.00     0.009 A 
BRANCH   9  14
ATOM     14  O   UNL     1      74.620  85.949  67.726  1.00  0.00    -0.493 OA
ATOM     15  C   UNL     1      74.479  86.934  66.689  1.00  0.00     0.278 C 
ENDBRANCH   9  14
BRANCH  10  16
ATOM     16  O   UNL     1      73.259  86.677  70.075  1.00  0.00    -0.504 OA
ATOM     17  H   UNL     1      73.675  86.245  70.826  1.00  0.00     0.293 HD
ENDBRANCH  10  16
ENDBRANCH   7   8
ENDBRANCH   4   7
ENDBRANCH   2   3
ENDBRANCH   1   2
BRANCH   1  18
ATOM     18  C   UNL     1      75.665  81.465  65.580  1.00  0.00     0.001 C 
BRANCH  18  19
ATOM     19  C   UNL     1      75.893  82.951  65.958  1.00  0.00     0.004 C 
BRANCH  19  20
ATOM     20  C   UNL     1      77.299  83.167  66.585  1.00  0.00     0.027 C 
BRANCH  20  21
ATOM     21  C   UNL     1      77.260  83.728  67.925  1.00  0.00    -0.031 C 
ATOM     22  C   UNL     1      77.922  84.851  68.253  1.00  0.00    -0.028 C 
BRANCH  22  23
ATOM     23  C   UNL     1      77.900  85.443  69.589  1.00  0.00     0.005 C 
ATOM     24  C   UNL     1      77.532  86.948  69.504  1.00  0.00     0.012 C 
ATOM     25  C   UNL     1      76.933  84.651  70.510  1.00  0.00     0.012 C 
ENDBRANCH  22  23
ENDBRANCH  20  21
ENDBRANCH  19  20
ENDBRANCH  18  19
ENDBRANCH   1  18
TORSDOF 11
ENDMDL
MODEL 8
REMARK VINA RESULT:    -5.882      4.392      8.279
REMARK INTER + INTRA:         -10.143
REMARK INTER:                  -8.552
REMARK INTRA:                  -1.591
REMARK UNBOUND:                -0.651
REMARK SMILES COc1cc(CNC(=O)CCCCC/C=C/C(C)C)ccc1O
REMARK SMILES IDX 11 1 10 2 8 3 7 4 9 6 6 7 5 8 3 9 22 10 4 11 21 12 20 13
REMARK SMILES IDX 2 14 1 15 23 16 12 18 13 19 14 20 15 21 16 22 17 23 18 24
REMARK SMILES IDX 19 25
REMARK H PARENT 7 5 23 17
REMARK Flexibility Score: inf
ROOT
ATOM      1  C   UNL     1      89.863  97.527  70.992  1.00  0.00     0.010 C 
ENDROOT
BRANCH   1   2
ATOM      2  C   UNL     1      89.272  98.941  71.223  1.00  0.00     0.100 C 
BRANCH   2   3
ATOM      3  C   UNL     1      90.288 100.002  71.357  1.00  0.00     0.220 C 
ATOM      4  N   UNL     1      91.383  99.797  72.140  1.00  0.00    -0.352 N 
ATOM      5  H   UNL     1      91.381  98.922  72.647  1.00  0.00     0.163 HD
ATOM      6  O   UNL     1      90.132 101.062  70.706  1.00  0.00    -0.275 OA
BRANCH   4   7
ATOM      7  C   UNL     1      92.483 100.695  72.280  1.00  0.00     0.151 C 
BRANCH   7   8
ATOM      8  C   UNL     1      93.526 100.488  71.242  1.00  0.00    -0.025 A 
ATOM      9  C   UNL     1      95.360  99.152  70.293  1.00  0.00     0.160 A 
ATOM     10  C   UNL     1      95.551 100.127  69.290  1.00  0.00     0.157 A 
ATOM     11  C   UNL     1      94.357  99.344  71.265  1.00  0.00     0.056 A 
ATOM     12  C   UNL     1      94.719 101.261  69.247  1.00  0.00     0.050 A 
ATOM     13  C   UNL     1      93.707 101.435  70.210  1.00  0.00     0.009 A 
BRANCH   9  14
ATOM     14  O   UNL     1      96.106  98.003  70.292  1.00  0.00    -0.493 OA
ATOM     15  C   UNL     1      97.116  97.957  71.314  1.00  0.00     0.278 C 
ENDBRANCH   9  14
BRANCH  10  16
ATOM     16  O   UNL     1      96.523  99.995  68.354  1.00  0.00    -0.504 OA
ATOM     17  H   UNL     1      97.002  99.176  68.504  1.00  0.00     0.293 HD
ENDBRANCH  10  16
ENDBRANCH   7   8
ENDBRANCH   4   7
ENDBRANCH   2   3
ENDBRANCH   1   2
BRANCH   1  18
ATOM     18  C   UNL     1      89.521  97.002  69.575  1.00  0.00     0.001 C 
BRANCH  18  19
ATOM     19  C   UNL     1      88.442  97.841  68.843  1.00  0.00     0.004 C 
BRANCH  19  20
ATOM     20  C   UNL     1      89.027  98.545  67.587  1.00  0.00     0.027 C 
BRANCH  20  21
ATOM     21  C   UNL     1      88.924  99.994  67.628  1.00  0.00    -0.031 C 
ATOM     22  C   UNL     1      89.951 100.798  67.301  1.00  0.00    -0.028 C 
BRANCH  22  23
ATOM     23  C   UNL     1      89.877 102.256  67.326  1.00  0.00     0.005 C 
ATOM     24  C   UNL     1      88.594 102.717  68.067  1.00  0.00     0.012 C 
ATOM     25  C   UNL     1      91.167 102.848  67.957  1.00  0.00     0.012 C 
ENDBRANCH  22  23
ENDBRANCH  20  21
ENDBRANCH  19  20
ENDBRANCH  18  19
ENDBRANCH   1  18
TORSDOF 11
ENDMDL
MODEL 9
REMARK VINA RESULT:    -5.861      4.964      8.400
REMARK INTER + INTRA:         -10.109
REMARK INTER:                  -8.379
REMARK INTRA:                  -1.730
REMARK UNBOUND:                -0.651
REMARK SMILES COc1cc(CNC(=O)CCCCC/C=C/C(C)C)ccc1O
REMARK SMILES IDX 11 1 10 2 8 3 7 4 9 6 6 7 5 8 3 9 22 10 4 11 21 12 20 13
REMARK SMILES IDX 2 14 1 15 23 16 12 18 13 19 14 20 15 21 16 22 17 23 18 24
REMARK SMILES IDX 19 25
REMARK H PARENT 7 5 23 17
REMARK Flexibility Score: inf
ROOT
ATOM      1  C   UNL     1      89.749  97.170  69.940  1.00  0.00     0.010 C 
ENDROOT
BRANCH   1   2
ATOM      2  C   UNL     1      89.210  98.120  71.040  1.00  0.00     0.100 C 
BRANCH   2   3
ATOM      3  C   UNL     1      89.978  99.372  71.180  1.00  0.00     0.220 C 
ATOM      4  N   UNL     1      89.338 100.525  71.520  1.00  0.00    -0.352 N 
ATOM      5  H   UNL     1      88.332 100.446  71.583  1.00  0.00     0.163 HD
ATOM      6  O   UNL     1      91.221  99.330  71.019  1.00  0.00    -0.275 OA
BRANCH   4   7
ATOM      7  C   UNL     1      89.969 101.778  71.782  1.00  0.00     0.151 C 
BRANCH   7   8
ATOM      8  C   UNL     1      89.041 102.928  71.632  1.00  0.00    -0.025 A 
ATOM      9  C   UNL     1      87.292 104.395  72.547  1.00  0.00     0.160 A 
ATOM     10  C   UNL     1      87.235 105.091  71.320  1.00  0.00     0.157 A 
ATOM     11  C   UNL     1      88.187 103.315  72.691  1.00  0.00     0.056 A 
ATOM     12  C   UNL     1      88.091 104.725  70.265  1.00  0.00     0.050 A 
ATOM     13  C   UNL     1      88.996 103.659  70.424  1.00  0.00     0.009 A 
BRANCH   9  14
ATOM     14  O   UNL     1      86.526 104.798  73.608  1.00  0.00    -0.493 OA
ATOM     15  C   UNL     1      87.249 105.530  74.612  1.00  0.00     0.278 C 
ENDBRANCH   9  14
BRANCH  10  16
ATOM     16  O   UNL     1      86.368 106.117  71.131  1.00  0.00    -0.504 OA
ATOM     17  H   UNL     1      86.576 106.564  70.307  1.00  0.00     0.293 HD
ENDBRANCH  10  16
ENDBRANCH   7   8
ENDBRANCH   4   7
ENDBRANCH   2   3
ENDBRANCH   1   2
BRANCH   1  18
ATOM     18  C   UNL     1      89.539  97.773  68.527  1.00  0.00     0.001 C 
BRANCH  18  19
ATOM     19  C   UNL     1      88.092  98.263  68.268  1.00  0.00     0.004 C 
BRANCH  19  20
ATOM     20  C   UNL     1      88.058  99.781  67.938  1.00  0.00     0.027 C 
BRANCH  20  21
ATOM     21  C   UNL     1      89.373 100.366  67.743  1.00  0.00    -0.031 C 
ATOM     22  C   UNL     1      89.552 101.685  67.545  1.00  0.00    -0.028 C 
BRANCH  22  23
ATOM     23  C   UNL     1      90.860 102.304  67.351  1.00  0.00     0.005 C 
ATOM     24  C   UNL     1      91.796 101.970  68.544  1.00  0.00     0.012 C 
ATOM     25  C   UNL     1      91.464 101.869  65.988  1.00  0.00     0.012 C 
ENDBRANCH  22  23
ENDBRANCH  20  21
ENDBRANCH  19  20
ENDBRANCH  18  19
ENDBRANCH   1  18
TORSDOF 11
ENDMDL
MODEL 10
REMARK VINA RESULT:    -5.772     19.964     22.636
REMARK INTER + INTRA:          -9.967
REMARK INTER:                  -7.616
REMARK INTRA:                  -2.351
REMARK UNBOUND:                -0.651
REMARK SMILES COc1cc(CNC(=O)CCCCC/C=C/C(C)C)ccc1O
REMARK SMILES IDX 11 1 10 2 8 3 7 4 9 6 6 7 5 8 3 9 22 10 4 11 21 12 20 13
REMARK SMILES IDX 2 14 1 15 23 16 12 18 13 19 14 20 15 21 16 22 17 23 18 24
REMARK SMILES IDX 19 25
REMARK H PARENT 7 5 23 17
REMARK Flexibility Score: inf
ROOT
ATOM      1  C   UNL     1      77.553  87.430  67.529  1.00  0.00     0.010 C 
ENDROOT
BRANCH   1   2
ATOM      2  C   UNL     1      77.502  87.157  66.003  1.00  0.00     0.100 C 
BRANCH   2   3
ATOM      3  C   UNL     1      76.135  87.061  65.456  1.00  0.00     0.220 C 
ATOM      4  N   UNL     1      75.150  86.478  66.193  1.00  0.00    -0.352 N 
ATOM      5  H   UNL     1      75.459  86.073  67.066  1.00  0.00     0.163 HD
ATOM      6  O   UNL     1      75.908  87.563  64.330  1.00  0.00    -0.275 OA
BRANCH   4   7
ATOM      7  C   UNL     1      73.773  86.406  65.827  1.00  0.00     0.151 C 
BRANCH   7   8
ATOM      8  C   UNL     1      73.392  85.075  65.288  1.00  0.00    -0.025 A 
ATOM      9  C   UNL     1      72.424  82.837  65.610  1.00  0.00     0.160 A 
ATOM     10  C   UNL     1      72.718  82.518  64.267  1.00  0.00     0.157 A 
ATOM     11  C   UNL     1      72.770  84.108  66.112  1.00  0.00     0.056 A 
ATOM     12  C   UNL     1      73.320  83.478  63.433  1.00  0.00     0.050 A 
ATOM     13  C   UNL     1      73.645  84.751  63.937  1.00  0.00     0.009 A 
BRANCH   9  14
ATOM     14  O   UNL     1      71.758  81.942  66.405  1.00  0.00    -0.493 OA
ATOM     15  C   UNL     1      70.613  82.491  67.078  1.00  0.00     0.278 C 
ENDBRANCH   9  14
BRANCH  10  16
ATOM     16  O   UNL     1      72.426  81.297  63.752  1.00  0.00    -0.504 OA
ATOM     17  H   UNL     1      71.659  81.366  63.179  1.00  0.00     0.293 HD
ENDBRANCH  10  16
ENDBRANCH   7   8
ENDBRANCH   4   7
ENDBRANCH   2   3
ENDBRANCH   1   2
BRANCH   1  18
ATOM     18  C   UNL     1      78.111  86.204  68.297  1.00  0.00     0.001 C 
BRANCH  18  19
ATOM     19  C   UNL     1      77.127  85.625  69.345  1.00  0.00     0.004 C 
BRANCH  19  20
ATOM     20  C   UNL     1      76.493  84.294  68.852  1.00  0.00     0.027 C 
BRANCH  20  21
ATOM     21  C   UNL     1      76.995  83.850  67.563  1.00  0.00    -0.031 C 
ATOM     22  C   UNL     1      76.424  82.844  66.877  1.00  0.00    -0.028 C 
BRANCH  22  23
ATOM     23  C   UNL     1      76.901  82.377  65.578  1.00  0.00     0.005 C 
ATOM     24  C   UNL     1      75.914  81.337  64.984  1.00  0.00     0.012 C 
ATOM     25  C   UNL     1      77.130  83.583  64.626  1.00  0.00     0.012 C 
ENDBRANCH  22  23
ENDBRANCH  20  21
ENDBRANCH  19  20
ENDBRANCH  18  19
ENDBRANCH   1  18
TORSDOF 11
ENDMDL
