MODEL 1
REMARK VINA RESULT:    -6.541      0.000      0.000
REMARK INTER + INTRA:         -11.626
REMARK INTER:                 -10.555
REMARK INTRA:                  -1.070
REMARK UNBOUND:                -1.070
REMARK SMILES COc1cc(CNC(=O)CCCCCCC(C)C)ccc1O
REMARK SMILES IDX 11 1 10 2 8 3 7 4 9 6 6 7 5 8 3 9 21 10 4 11 20 12 19 13
REMARK SMILES IDX 2 14 1 15 22 16 12 18 13 19 14 20 15 21 16 22 17 23 18 24
REMARK H PARENT 7 5 22 17
REMARK Flexibility Score: inf
ROOT
ATOM      1  C   UNL     1      95.579  95.419  75.781  1.00  0.00     0.010 C 
ENDROOT
BRANCH   1   2
ATOM      2  C   UNL     1      95.075  94.089  75.155  1.00  0.00     0.100 C 
BRANCH   2   3
ATOM      3  C   UNL     1      93.599  93.986  75.109  1.00  0.00     0.220 C 
ATOM      4  N   UNL     1      93.002  92.876  74.586  1.00  0.00    -0.352 N 
ATOM      5  H   UNL     1      93.641  92.190  74.213  1.00  0.00     0.163 HD
ATOM      6  O   UNL     1      92.916  94.927  75.581  1.00  0.00    -0.275 OA
BRANCH   4   7
ATOM      7  C   UNL     1      91.591  92.641  74.542  1.00  0.00     0.151 C 
BRANCH   7   8
ATOM      8  C   UNL     1      91.114  91.729  75.618  1.00  0.00    -0.025 A 
ATOM      9  C   UNL     1      90.525  89.468  76.387  1.00  0.00     0.160 A 
ATOM     10  C   UNL     1      90.248  89.976  77.675  1.00  0.00     0.157 A 
ATOM     11  C   UNL     1      90.937  90.349  75.365  1.00  0.00     0.056 A 
ATOM     12  C   UNL     1      90.382  91.353  77.928  1.00  0.00     0.050 A 
ATOM     13  C   UNL     1      90.822  92.223  76.911  1.00  0.00     0.009 A 
BRANCH   9  14
ATOM     14  O   UNL     1      90.360  88.137  76.119  1.00  0.00    -0.493 OA
ATOM     15  C   UNL     1      91.103  87.678  74.976  1.00  0.00     0.278 C 
ENDBRANCH   9  14
BRANCH  10  16
ATOM     16  O   UNL     1      89.848  89.151  78.678  1.00  0.00    -0.504 OA
ATOM     17  H   UNL     1      89.325  88.434  78.311  1.00  0.00     0.293 HD
ENDBRANCH  10  16
ENDBRANCH   7   8
ENDBRANCH   4   7
ENDBRANCH   2   3
ENDBRANCH   1   2
BRANCH   1  18
ATOM     18  C   UNL     1      96.364  95.185  77.103  1.00  0.00     0.001 C 
BRANCH  18  19
ATOM     19  C   UNL     1      95.896  93.932  77.896  1.00  0.00     0.000 C 
BRANCH  19  20
ATOM     20  C   UNL     1      94.935  94.316  79.057  1.00  0.00     0.000 C 
BRANCH  20  21
ATOM     21  C   UNL     1      95.446  95.484  79.947  1.00  0.00     0.003 C 
BRANCH  21  22
ATOM     22  C   UNL     1      96.205  95.033  81.237  1.00  0.00    -0.017 C 
ATOM     23  C   UNL     1      97.743  95.112  81.019  1.00  0.00     0.007 C 
ATOM     24  C   UNL     1      95.798  93.617  81.741  1.00  0.00     0.007 C 
ENDBRANCH  21  22
ENDBRANCH  20  21
ENDBRANCH  19  20
ENDBRANCH  18  19
ENDBRANCH   1  18
TORSDOF 11
ENDMDL
MODEL 2
REMARK VINA RESULT:    -6.487      1.839      2.837
REMARK INTER + INTRA:         -11.539
REMARK INTER:                 -10.478
REMARK INTRA:                  -1.060
REMARK UNBOUND:                -1.070
REMARK SMILES COc1cc(CNC(=O)CCCCCCC(C)C)ccc1O
REMARK SMILES IDX 11 1 10 2 8 3 7 4 9 6 6 7 5 8 3 9 21 10 4 11 20 12 19 13
REMARK SMILES IDX 2 14 1 15 22 16 12 18 13 19 14 20 15 21 16 22 17 23 18 24
REMARK H PARENT 7 5 22 17
REMARK Flexibility Score: inf
ROOT
ATOM      1  C   UNL     1      93.673  94.206  75.732  1.00  0.00     0.010 C 
ENDROOT
BRANCH   1   2
ATOM      2  C   UNL     1      92.677  94.449  76.899  1.00  0.00     0.100 C 
BRANCH   2   3
ATOM      3  C   UNL     1      91.420  93.680  76.766  1.00  0.00     0.220 C 
ATOM      4  N   UNL     1      91.168  92.621  77.589  1.00  0.00    -0.352 N 
ATOM      5  H   UNL     1      91.914  92.403  78.234  1.00  0.00     0.163 HD
ATOM      6  O   UNL     1      90.585  94.038  75.899  1.00  0.00    -0.275 OA
BRANCH   4   7
ATOM      7  C   UNL     1      89.967  91.843  77.591  1.00  0.00     0.151 C 
BRANCH   7   8
ATOM      8  C   UNL     1      90.117  90.531  76.902  1.00  0.00    -0.025 A 
ATOM      9  C   UNL     1      90.390  89.232  74.832  1.00  0.00     0.160 A 
ATOM     10  C   UNL     1      90.447  88.039  75.586  1.00  0.00     0.157 A 
ATOM     11  C   UNL     1      90.207  90.465  75.493  1.00  0.00     0.056 A 
ATOM     12  C   UNL     1      90.319  88.089  76.986  1.00  0.00     0.050 A 
ATOM     13  C   UNL     1      90.166  89.326  77.642  1.00  0.00     0.009 A 
BRANCH   9  14
ATOM     14  O   UNL     1      90.473  89.191  73.467  1.00  0.00    -0.493 OA
ATOM     15  C   UNL     1      89.732  90.235  72.809  1.00  0.00     0.278 C 
ENDBRANCH   9  14
BRANCH  10  16
ATOM     16  O   UNL     1      90.621  86.837  74.976  1.00  0.00    -0.504 OA
ATOM     17  H   UNL     1      91.536  86.563  75.067  1.00  0.00     0.293 HD
ENDBRANCH  10  16
ENDBRANCH   7   8
ENDBRANCH   4   7
ENDBRANCH   2   3
ENDBRANCH   1   2
BRANCH   1  18
ATOM     18  C   UNL     1      94.376  95.517  75.277  1.00  0.00     0.001 C 
BRANCH  18  19
ATOM     19  C   UNL     1      95.926  95.468  75.391  1.00  0.00     0.000 C 
BRANCH  19  20
ATOM     20  C   UNL     1      96.428  96.187  76.675  1.00  0.00     0.000 C 
BRANCH  20  21
ATOM     21  C   UNL     1      96.791  95.227  77.842  1.00  0.00     0.003 C 
BRANCH  21  22
ATOM     22  C   UNL     1      95.815  95.289  79.062  1.00  0.00    -0.017 C 
ATOM     23  C   UNL     1      96.369  96.248  80.153  1.00  0.00     0.007 C 
ATOM     24  C   UNL     1      95.491  93.895  79.676  1.00  0.00     0.007 C 
ENDBRANCH  21  22
ENDBRANCH  20  21
ENDBRANCH  19  20
ENDBRANCH  18  19
ENDBRANCH   1  18
TORSDOF 11
ENDMDL
MODEL 3
REMARK VINA RESULT:    -6.092      1.408      2.101
REMARK INTER + INTRA:         -10.902
REMARK INTER:                  -9.724
REMARK INTRA:                  -1.178
REMARK UNBOUND:                -1.070
REMARK SMILES COc1cc(CNC(=O)CCCCCCC(C)C)ccc1O
REMARK SMILES IDX 11 1 10 2 8 3 7 4 9 6 6 7 5 8 3 9 21 10 4 11 20 12 19 13
REMARK SMILES IDX 2 14 1 15 22 16 12 18 13 19 14 20 15 21 16 22 17 23 18 24
REMARK H PARENT 7 5 22 17
REMARK Flexibility Score: inf
ROOT
ATOM      1  C   UNL     1      94.220  96.036  74.632  1.00  0.00     0.010 C 
ENDROOT
BRANCH   1   2
ATOM      2  C   UNL     1      93.957  94.606  75.179  1.00  0.00     0.100 C 
BRANCH   2   3
ATOM      3  C   UNL     1      92.534  94.354  75.498  1.00  0.00     0.220 C 
ATOM      4  N   UNL     1      91.790  93.517  74.719  1.00  0.00    -0.352 N 
ATOM      5  H   UNL     1      92.278  93.145  73.917  1.00  0.00     0.163 HD
ATOM      6  O   UNL     1      92.038  94.906  76.511  1.00  0.00    -0.275 OA
BRANCH   4   7
ATOM      7  C   UNL     1      90.427  93.154  74.962  1.00  0.00     0.151 C 
BRANCH   7   8
ATOM      8  C   UNL     1      90.282  92.041  75.941  1.00  0.00    -0.025 A 
ATOM      9  C   UNL     1      90.366  89.639  76.462  1.00  0.00     0.160 A 
ATOM     10  C   UNL     1      90.051  89.918  77.810  1.00  0.00     0.157 A 
ATOM     11  C   UNL     1      90.461  90.699  75.536  1.00  0.00     0.056 A 
ATOM     12  C   UNL     1      89.832  91.247  78.217  1.00  0.00     0.050 A 
ATOM     13  C   UNL     1      89.957  92.303  77.293  1.00  0.00     0.009 A 
BRANCH   9  14
ATOM     14  O   UNL     1      90.542  88.347  76.047  1.00  0.00    -0.493 OA
ATOM     15  C   UNL     1      89.402  87.798  75.362  1.00  0.00     0.278 C 
ENDBRANCH   9  14
BRANCH  10  16
ATOM     16  O   UNL     1      89.951  88.917  78.723  1.00  0.00    -0.504 OA
ATOM     17  H   UNL     1      90.770  88.857  79.221  1.00  0.00     0.293 HD
ENDBRANCH  10  16
ENDBRANCH   7   8
ENDBRANCH   4   7
ENDBRANCH   2   3
ENDBRANCH   1   2
BRANCH   1  18
ATOM     18  C   UNL     1      95.464  96.697  75.291  1.00  0.00     0.001 C 
BRANCH  18  19
ATOM     19  C   UNL     1      96.776  95.883  75.107  1.00  0.00     0.000 C 
BRANCH  19  20
ATOM     20  C   UNL     1      97.439  95.552  76.474  1.00  0.00     0.000 C 
BRANCH  20  21
ATOM     21  C   UNL     1      96.761  94.386  77.245  1.00  0.00     0.003 C 
BRANCH  21  22
ATOM     22  C   UNL     1      96.227  94.768  78.664  1.00  0.00    -0.017 C 
ATOM     23  C   UNL     1      94.708  94.458  78.776  1.00  0.00     0.007 C 
ATOM     24  C   UNL     1      96.513  96.246  79.063  1.00  0.00     0.007 C 
ENDBRANCH  21  22
ENDBRANCH  20  21
ENDBRANCH  19  20
ENDBRANCH  18  19
ENDBRANCH   1  18
TORSDOF 11
ENDMDL
MODEL 4
REMARK VINA RESULT:    -6.027      2.974      8.480
REMARK INTER + INTRA:         -10.797
REMARK INTER:                 -10.047
REMARK INTRA:                  -0.750
REMARK UNBOUND:                -1.070
REMARK SMILES COc1cc(CNC(=O)CCCCCCC(C)C)ccc1O
REMARK SMILES IDX 11 1 10 2 8 3 7 4 9 6 6 7 5 8 3 9 21 10 4 11 20 12 19 13
REMARK SMILES IDX 2 14 1 15 22 16 12 18 13 19 14 20 15 21 16 22 17 23 18 24
REMARK H PARENT 7 5 22 17
REMARK Flexibility Score: inf
ROOT
ATOM      1  C   UNL     1      91.647  93.904  75.303  1.00  0.00     0.010 C 
ENDROOT
BRANCH   1   2
ATOM      2  C   UNL     1      92.505  93.106  76.323  1.00  0.00     0.100 C 
BRANCH   2   3
ATOM      3  C   UNL     1      93.869  93.655  76.497  1.00  0.00     0.220 C 
ATOM      4  N   UNL     1      94.355  93.910  77.746  1.00  0.00    -0.352 N 
ATOM      5  H   UNL     1      93.701  93.737  78.496  1.00  0.00     0.163 HD
ATOM      6  O   UNL     1      94.571  93.855  75.476  1.00  0.00    -0.275 OA
BRANCH   4   7
ATOM      7  C   UNL     1      95.673  94.385  78.038  1.00  0.00     0.151 C 
BRANCH   7   8
ATOM      8  C   UNL     1      95.822  94.880  79.435  1.00  0.00    -0.025 A 
ATOM      9  C   UNL     1      96.379  96.689  81.005  1.00  0.00     0.160 A 
ATOM     10  C   UNL     1      96.067  95.844  82.093  1.00  0.00     0.157 A 
ATOM     11  C   UNL     1      96.273  96.195  79.688  1.00  0.00     0.056 A 
ATOM     12  C   UNL     1      95.655  94.520  81.855  1.00  0.00     0.050 A 
ATOM     13  C   UNL     1      95.523  94.043  80.536  1.00  0.00     0.009 A 
BRANCH   9  14
ATOM     14  O   UNL     1      96.818  97.965  81.227  1.00  0.00    -0.493 OA
ATOM     15  C   UNL     1      98.242  98.122  81.085  1.00  0.00     0.278 C 
ENDBRANCH   9  14
BRANCH  10  16
ATOM     16  O   UNL     1      96.162  96.291  83.372  1.00  0.00    -0.504 OA
ATOM     17  H   UNL     1      96.968  95.954  83.770  1.00  0.00     0.293 HD
ENDBRANCH  10  16
ENDBRANCH   7   8
ENDBRANCH   4   7
ENDBRANCH   2   3
ENDBRANCH   1   2
BRANCH   1  18
ATOM     18  C   UNL     1      91.082  92.997  74.173  1.00  0.00     0.001 C 
BRANCH  18  19
ATOM     19  C   UNL     1      92.027  91.828  73.777  1.00  0.00     0.000 C 
BRANCH  19  20
ATOM     20  C   UNL     1      91.463  90.455  74.239  1.00  0.00     0.000 C 
BRANCH  20  21
ATOM     21  C   UNL     1      90.244  89.957  73.414  1.00  0.00     0.003 C 
BRANCH  21  22
ATOM     22  C   UNL     1      89.028  89.482  74.274  1.00  0.00    -0.017 C 
ATOM     23  C   UNL     1      88.709  90.521  75.385  1.00  0.00     0.007 C 
ATOM     24  C   UNL     1      89.213  88.064  74.890  1.00  0.00     0.007 C 
ENDBRANCH  21  22
ENDBRANCH  20  21
ENDBRANCH  19  20
ENDBRANCH  18  19
ENDBRANCH   1  18
TORSDOF 11
ENDMDL
MODEL 5
REMARK VINA RESULT:    -5.799      3.319      8.681
REMARK INTER + INTRA:         -10.428
REMARK INTER:                  -9.436
REMARK INTRA:                  -0.992
REMARK UNBOUND:                -1.070
REMARK SMILES COc1cc(CNC(=O)CCCCCCC(C)C)ccc1O
REMARK SMILES IDX 11 1 10 2 8 3 7 4 9 6 6 7 5 8 3 9 21 10 4 11 20 12 19 13
REMARK SMILES IDX 2 14 1 15 22 16 12 18 13 19 14 20 15 21 16 22 17 23 18 24
REMARK H PARENT 7 5 22 17
REMARK Flexibility Score: inf
ROOT
ATOM      1  C   UNL     1      92.154  94.750  76.087  1.00  0.00     0.010 C 
ENDROOT
BRANCH   1   2
ATOM      2  C   UNL     1      92.613  93.768  77.199  1.00  0.00     0.100 C 
BRANCH   2   3
ATOM      3  C   UNL     1      94.014  93.984  77.628  1.00  0.00     0.220 C 
ATOM      4  N   UNL     1      94.379  93.762  78.924  1.00  0.00    -0.352 N 
ATOM      5  H   UNL     1      93.622  93.494  79.535  1.00  0.00     0.163 HD
ATOM      6  O   UNL     1      94.855  94.350  76.772  1.00  0.00    -0.275 OA
BRANCH   4   7
ATOM      7  C   UNL     1      95.710  93.881  79.438  1.00  0.00     0.151 C 
BRANCH   7   8
ATOM      8  C   UNL     1      96.020  95.243  79.954  1.00  0.00    -0.025 A 
ATOM      9  C   UNL     1      97.044  97.457  79.639  1.00  0.00     0.160 A 
ATOM     10  C   UNL     1      96.577  97.856  80.911  1.00  0.00     0.157 A 
ATOM     11  C   UNL     1      96.778  96.150  79.179  1.00  0.00     0.056 A 
ATOM     12  C   UNL     1      95.855  96.949  81.708  1.00  0.00     0.050 A 
ATOM     13  C   UNL     1      95.569  95.656  81.230  1.00  0.00     0.009 A 
BRANCH   9  14
ATOM     14  O   UNL     1      97.781  98.318  78.873  1.00  0.00    -0.493 OA
ATOM     15  C   UNL     1      98.843  97.679  78.141  1.00  0.00     0.278 C 
ENDBRANCH   9  14
BRANCH  10  16
ATOM     16  O   UNL     1      96.820  99.108  81.380  1.00  0.00    -0.504 OA
ATOM     17  H   UNL     1      96.310  99.253  82.181  1.00  0.00     0.293 HD
ENDBRANCH  10  16
ENDBRANCH   7   8
ENDBRANCH   4   7
ENDBRANCH   2   3
ENDBRANCH   1   2
BRANCH   1  18
ATOM     18  C   UNL     1      91.810  94.015  74.760  1.00  0.00     0.001 C 
BRANCH  18  19
ATOM     19  C   UNL     1      92.660  92.736  74.514  1.00  0.00     0.000 C 
BRANCH  19  20
ATOM     20  C   UNL     1      91.762  91.491  74.269  1.00  0.00     0.000 C 
BRANCH  20  21
ATOM     21  C   UNL     1      90.237  91.793  74.281  1.00  0.00     0.003 C 
BRANCH  21  22
ATOM     22  C   UNL     1      89.578  91.866  72.865  1.00  0.00    -0.017 C 
ATOM     23  C   UNL     1      90.474  91.156  71.811  1.00  0.00     0.007 C 
ATOM     24  C   UNL     1      89.240  93.315  72.406  1.00  0.00     0.007 C 
ENDBRANCH  21  22
ENDBRANCH  20  21
ENDBRANCH  19  20
ENDBRANCH  18  19
ENDBRANCH   1  18
TORSDOF 11
ENDMDL
MODEL 6
REMARK VINA RESULT:    -5.673      3.636      7.695
REMARK INTER + INTRA:         -10.226
REMARK INTER:                  -9.012
REMARK INTRA:                  -1.213
REMARK UNBOUND:                -1.070
REMARK SMILES COc1cc(CNC(=O)CCCCCCC(C)C)ccc1O
REMARK SMILES IDX 11 1 10 2 8 3 7 4 9 6 6 7 5 8 3 9 21 10 4 11 20 12 19 13
REMARK SMILES IDX 2 14 1 15 22 16 12 18 13 19 14 20 15 21 16 22 17 23 18 24
REMARK H PARENT 7 5 22 17
REMARK Flexibility Score: inf
ROOT
ATOM      1  C   UNL     1      94.481  96.195  74.562  1.00  0.00     0.010 C 
ENDROOT
BRANCH   1   2
ATOM      2  C   UNL     1      96.032  96.266  74.513  1.00  0.00     0.100 C 
BRANCH   2   3
ATOM      3  C   UNL     1      96.640  96.675  75.800  1.00  0.00     0.220 C 
ATOM      4  N   UNL     1      97.237  95.750  76.605  1.00  0.00    -0.352 N 
ATOM      5  H   UNL     1      97.181  94.800  76.269  1.00  0.00     0.163 HD
ATOM      6  O   UNL     1      96.614  97.889  76.118  1.00  0.00    -0.275 OA
BRANCH   4   7
ATOM      7  C   UNL     1      97.905  96.036  77.839  1.00  0.00     0.151 C 
BRANCH   7   8
ATOM      8  C   UNL     1      97.147  95.579  79.036  1.00  0.00    -0.025 A 
ATOM      9  C   UNL     1      96.860  95.516  81.478  1.00  0.00     0.160 A 
ATOM     10  C   UNL     1      95.685  94.748  81.322  1.00  0.00     0.157 A 
ATOM     11  C   UNL     1      97.591  95.909  80.337  1.00  0.00     0.056 A 
ATOM     12  C   UNL     1      95.255  94.381  80.034  1.00  0.00     0.050 A 
ATOM     13  C   UNL     1      95.974  94.801  78.898  1.00  0.00     0.009 A 
BRANCH   9  14
ATOM     14  O   UNL     1      97.309  95.845  82.728  1.00  0.00    -0.493 OA
ATOM     15  C   UNL     1      98.445  96.729  82.721  1.00  0.00     0.278 C 
ENDBRANCH   9  14
BRANCH  10  16
ATOM     16  O   UNL     1      94.962  94.355  82.403  1.00  0.00    -0.504 OA
ATOM     17  H   UNL     1      95.153  93.434  82.597  1.00  0.00     0.293 HD
ENDBRANCH  10  16
ENDBRANCH   7   8
ENDBRANCH   4   7
ENDBRANCH   2   3
ENDBRANCH   1   2
BRANCH   1  18
ATOM     18  C   UNL     1      93.968  95.405  75.799  1.00  0.00     0.001 C 
BRANCH  18  19
ATOM     19  C   UNL     1      93.930  93.865  75.588  1.00  0.00     0.000 C 
BRANCH  19  20
ATOM     20  C   UNL     1      92.867  93.189  76.499  1.00  0.00     0.000 C 
BRANCH  20  21
ATOM     21  C   UNL     1      91.502  92.931  75.802  1.00  0.00     0.003 C 
BRANCH  21  22
ATOM     22  C   UNL     1      91.591  92.731  74.254  1.00  0.00    -0.017 C 
ATOM     23  C   UNL     1      90.304  93.263  73.562  1.00  0.00     0.007 C 
ATOM     24  C   UNL     1      91.869  91.259  73.828  1.00  0.00     0.007 C 
ENDBRANCH  21  22
ENDBRANCH  20  21
ENDBRANCH  19  20
ENDBRANCH  18  19
ENDBRANCH   1  18
TORSDOF 11
ENDMDL
MODEL 7
REMARK VINA RESULT:    -5.667     26.253     29.613
REMARK INTER + INTRA:         -10.216
REMARK INTER:                  -9.411
REMARK INTRA:                  -0.804
REMARK UNBOUND:                -1.070
REMARK SMILES COc1cc(CNC(=O)CCCCCCC(C)C)ccc1O
REMARK SMILES IDX 11 1 10 2 8 3 7 4 9 6 6 7 5 8 3 9 21 10 4 11 20 12 19 13
REMARK SMILES IDX 2 14 1 15 22 16 12 18 13 19 14 20 15 21 16 22 17 23 18 24
REMARK H PARENT 7 5 22 17
REMARK Flexibility Score: inf
ROOT
ATOM      1  C   UNL     1      81.648  66.297  76.089  1.00  0.00     0.010 C 
ENDROOT
BRANCH   1   2
ATOM      2  C   UNL     1      82.091  64.832  76.357  1.00  0.00     0.100 C 
BRANCH   2   3
ATOM      3  C   UNL     1      83.490  64.722  76.829  1.00  0.00     0.220 C 
ATOM      4  N   UNL     1      83.871  63.675  77.617  1.00  0.00    -0.352 N 
ATOM      5  H   UNL     1      83.124  63.043  77.867  1.00  0.00     0.163 HD
ATOM      6  O   UNL     1      84.317  65.595  76.469  1.00  0.00    -0.275 OA
BRANCH   4   7
ATOM      7  C   UNL     1      85.202  63.433  78.083  1.00  0.00     0.151 C 
BRANCH   7   8
ATOM      8  C   UNL     1      85.500  64.102  79.380  1.00  0.00    -0.025 A 
ATOM      9  C   UNL     1      86.505  65.964  80.633  1.00  0.00     0.160 A 
ATOM     10  C   UNL     1      86.035  65.407  81.842  1.00  0.00     0.157 A 
ATOM     11  C   UNL     1      86.251  65.299  79.415  1.00  0.00     0.056 A 
ATOM     12  C   UNL     1      85.320  64.196  81.823  1.00  0.00     0.050 A 
ATOM     13  C   UNL     1      85.045  63.552  80.601  1.00  0.00     0.009 A 
BRANCH   9  14
ATOM     14  O   UNL     1      87.235  67.121  80.644  1.00  0.00    -0.493 OA
ATOM     15  C   UNL     1      87.377  67.730  79.348  1.00  0.00     0.278 C 
ENDBRANCH   9  14
BRANCH  10  16
ATOM     16  O   UNL     1      86.266  66.025  83.030  1.00  0.00    -0.504 OA
ATOM     17  H   UNL     1      85.465  66.469  83.321  1.00  0.00     0.293 HD
ENDBRANCH  10  16
ENDBRANCH   7   8
ENDBRANCH   4   7
ENDBRANCH   2   3
ENDBRANCH   1   2
BRANCH   1  18
ATOM     18  C   UNL     1      80.736  66.414  74.835  1.00  0.00     0.001 C 
BRANCH  18  19
ATOM     19  C   UNL     1      80.403  65.048  74.173  1.00  0.00     0.000 C 
BRANCH  19  20
ATOM     20  C   UNL     1      80.173  65.195  72.642  1.00  0.00     0.000 C 
BRANCH  20  21
ATOM     21  C   UNL     1      80.468  66.616  72.087  1.00  0.00     0.003 C 
BRANCH  21  22
ATOM     22  C   UNL     1      81.887  66.785  71.454  1.00  0.00    -0.017 C 
ATOM     23  C   UNL     1      82.030  68.191  70.806  1.00  0.00     0.007 C 
ATOM     24  C   UNL     1      82.251  65.672  70.427  1.00  0.00     0.007 C 
ENDBRANCH  21  22
ENDBRANCH  20  21
ENDBRANCH  19  20
ENDBRANCH  18  19
ENDBRANCH   1  18
TORSDOF 11
ENDMDL
MODEL 8
REMARK VINA RESULT:    -5.611     14.005     16.799
REMARK INTER + INTRA:         -10.126
REMARK INTER:                  -8.429
REMARK INTRA:                  -1.697
REMARK UNBOUND:                -1.070
REMARK SMILES COc1cc(CNC(=O)CCCCCCC(C)C)ccc1O
REMARK SMILES IDX 11 1 10 2 8 3 7 4 9 6 6 7 5 8 3 9 21 10 4 11 20 12 19 13
REMARK SMILES IDX 2 14 1 15 22 16 12 18 13 19 14 20 15 21 16 22 17 23 18 24
REMARK H PARENT 7 5 22 17
REMARK Flexibility Score: inf
ROOT
ATOM      1  C   UNL     1      79.919  88.239  84.528  1.00  0.00     0.010 C 
ENDROOT
BRANCH   1   2
ATOM      2  C   UNL     1      80.961  89.281  84.035  1.00  0.00     0.100 C 
BRANCH   2   3
ATOM      3  C   UNL     1      82.219  89.266  84.816  1.00  0.00     0.220 C 
ATOM      4  N   UNL     1      82.433  90.190  85.796  1.00  0.00    -0.352 N 
ATOM      5  H   UNL     1      81.700  90.878  85.894  1.00  0.00     0.163 HD
ATOM      6  O   UNL     1      83.066  88.372  84.573  1.00  0.00    -0.275 OA
BRANCH   4   7
ATOM      7  C   UNL     1      83.580  90.237  86.651  1.00  0.00     0.151 C 
BRANCH   7   8
ATOM      8  C   UNL     1      83.323  90.937  87.940  1.00  0.00    -0.025 A 
ATOM      9  C   UNL     1      83.811  91.243  90.331  1.00  0.00     0.160 A 
ATOM     10  C   UNL     1      82.871  92.294  90.391  1.00  0.00     0.157 A 
ATOM     11  C   UNL     1      84.016  90.561  89.113  1.00  0.00     0.056 A 
ATOM     12  C   UNL     1      82.146  92.651  89.239  1.00  0.00     0.050 A 
ATOM     13  C   UNL     1      82.377  91.986  88.020  1.00  0.00     0.009 A 
BRANCH   9  14
ATOM     14  O   UNL     1      84.493  90.861  91.454  1.00  0.00    -0.493 OA
ATOM     15  C   UNL     1      83.974  89.669  92.070  1.00  0.00     0.278 C 
ENDBRANCH   9  14
BRANCH  10  16
ATOM     16  O   UNL     1      82.651  92.968  91.551  1.00  0.00    -0.504 OA
ATOM     17  H   UNL     1      83.126  92.536  92.265  1.00  0.00     0.293 HD
ENDBRANCH  10  16
ENDBRANCH   7   8
ENDBRANCH   4   7
ENDBRANCH   2   3
ENDBRANCH   1   2
BRANCH   1  18
ATOM     18  C   UNL     1      80.210  86.814  83.978  1.00  0.00     0.001 C 
BRANCH  18  19
ATOM     19  C   UNL     1      80.683  85.808  85.065  1.00  0.00     0.000 C 
BRANCH  19  20
ATOM     20  C   UNL     1      80.174  86.210  86.478  1.00  0.00     0.000 C 
BRANCH  20  21
ATOM     21  C   UNL     1      81.260  86.848  87.388  1.00  0.00     0.003 C 
BRANCH  21  22
ATOM     22  C   UNL     1      80.699  87.608  88.635  1.00  0.00    -0.017 C 
ATOM     23  C   UNL     1      80.135  88.995  88.218  1.00  0.00     0.007 C 
ATOM     24  C   UNL     1      81.732  87.764  89.789  1.00  0.00     0.007 C 
ENDBRANCH  21  22
ENDBRANCH  20  21
ENDBRANCH  19  20
ENDBRANCH  18  19
ENDBRANCH   1  18
TORSDOF 11
ENDMDL
MODEL 9
REMARK VINA RESULT:    -5.605      5.852      9.228
REMARK INTER + INTRA:         -10.115
REMARK INTER:                  -9.497
REMARK INTRA:                  -0.618
REMARK UNBOUND:                -1.070
REMARK SMILES COc1cc(CNC(=O)CCCCCCC(C)C)ccc1O
REMARK SMILES IDX 11 1 10 2 8 3 7 4 9 6 6 7 5 8 3 9 21 10 4 11 20 12 19 13
REMARK SMILES IDX 2 14 1 15 22 16 12 18 13 19 14 20 15 21 16 22 17 23 18 24
REMARK H PARENT 7 5 22 17
REMARK Flexibility Score: inf
ROOT
ATOM      1  C   UNL     1      93.579  99.911  70.704  1.00  0.00     0.010 C 
ENDROOT
BRANCH   1   2
ATOM      2  C   UNL     1      94.196  98.515  70.995  1.00  0.00     0.100 C 
BRANCH   2   3
ATOM      3  C   UNL     1      94.885  98.442  72.303  1.00  0.00     0.220 C 
ATOM      4  N   UNL     1      94.756  97.335  73.089  1.00  0.00    -0.352 N 
ATOM      5  H   UNL     1      94.134  96.629  72.723  1.00  0.00     0.163 HD
ATOM      6  O   UNL     1      95.607  99.406  72.657  1.00  0.00    -0.275 OA
BRANCH   4   7
ATOM      7  C   UNL     1      95.419  97.128  74.341  1.00  0.00     0.151 C 
BRANCH   7   8
ATOM      8  C   UNL     1      94.805  96.046  75.159  1.00  0.00    -0.025 A 
ATOM      9  C   UNL     1      92.890  94.590  75.671  1.00  0.00     0.160 A 
ATOM     10  C   UNL     1      93.642  93.954  76.683  1.00  0.00     0.157 A 
ATOM     11  C   UNL     1      93.470  95.642  74.931  1.00  0.00     0.056 A 
ATOM     12  C   UNL     1      94.959  94.373  76.945  1.00  0.00     0.050 A 
ATOM     13  C   UNL     1      95.541  95.404  76.182  1.00  0.00     0.009 A 
BRANCH   9  14
ATOM     14  O   UNL     1      91.595  94.216  75.435  1.00  0.00    -0.493 OA
ATOM     15  C   UNL     1      90.634  94.903  76.258  1.00  0.00     0.278 C 
ENDBRANCH   9  14
BRANCH  10  16
ATOM     16  O   UNL     1      93.109  92.939  77.413  1.00  0.00    -0.504 OA
ATOM     17  H   UNL     1      93.745  92.222  77.474  1.00  0.00     0.293 HD
ENDBRANCH  10  16
ENDBRANCH   7   8
ENDBRANCH   4   7
ENDBRANCH   2   3
ENDBRANCH   1   2
BRANCH   1  18
ATOM     18  C   UNL     1      92.139  99.808  70.127  1.00  0.00     0.001 C 
BRANCH  18  19
ATOM     19  C   UNL     1      91.651  98.347  69.917  1.00  0.00     0.000 C 
BRANCH  19  20
ATOM     20  C   UNL     1      90.263  98.301  69.218  1.00  0.00     0.000 C 
BRANCH  20  21
ATOM     21  C   UNL     1      90.194  97.339  68.000  1.00  0.00     0.003 C 
BRANCH  21  22
ATOM     22  C   UNL     1      90.173  98.052  66.608  1.00  0.00    -0.017 C 
ATOM     23  C   UNL     1      90.682  99.516  66.740  1.00  0.00     0.007 C 
ATOM     24  C   UNL     1      88.783  98.019  65.909  1.00  0.00     0.007 C 
ENDBRANCH  21  22
ENDBRANCH  20  21
ENDBRANCH  19  20
ENDBRANCH  18  19
ENDBRANCH   1  18
TORSDOF 11
ENDMDL
MODEL 10
REMARK VINA RESULT:    -5.445     27.190     29.737
REMARK INTER + INTRA:          -9.857
REMARK INTER:                  -8.534
REMARK INTRA:                  -1.323
REMARK UNBOUND:                -1.070
REMARK SMILES COc1cc(CNC(=O)CCCCCCC(C)C)ccc1O
REMARK SMILES IDX 11 1 10 2 8 3 7 4 9 6 6 7 5 8 3 9 21 10 4 11 20 12 19 13
REMARK SMILES IDX 2 14 1 15 22 16 12 18 13 19 14 20 15 21 16 22 17 23 18 24
REMARK H PARENT 7 5 22 17
REMARK Flexibility Score: inf
ROOT
ATOM      1  C   UNL     1      82.005  66.032  74.980  1.00  0.00     0.010 C 
ENDROOT
BRANCH   1   2
ATOM      2  C   UNL     1      82.776  64.892  74.260  1.00  0.00     0.100 C 
BRANCH   2   3
ATOM      3  C   UNL     1      83.738  64.190  75.140  1.00  0.00     0.220 C 
ATOM      4  N   UNL     1      83.430  63.955  76.449  1.00  0.00    -0.352 N 
ATOM      5  H   UNL     1      82.543  64.333  76.747  1.00  0.00     0.163 HD
ATOM      6  O   UNL     1      84.825  63.798  74.651  1.00  0.00    -0.275 OA
BRANCH   4   7
ATOM      7  C   UNL     1      84.253  63.239  77.375  1.00  0.00     0.151 C 
BRANCH   7   8
ATOM      8  C   UNL     1      84.972  64.127  78.330  1.00  0.00    -0.025 A 
ATOM      9  C   UNL     1      85.951  64.516  80.552  1.00  0.00     0.160 A 
ATOM     10  C   UNL     1      86.381  65.797  80.141  1.00  0.00     0.157 A 
ATOM     11  C   UNL     1      85.235  63.700  79.651  1.00  0.00     0.056 A 
ATOM     12  C   UNL     1      86.091  66.248  78.841  1.00  0.00     0.050 A 
ATOM     13  C   UNL     1      85.402  65.417  77.937  1.00  0.00     0.009 A 
BRANCH   9  14
ATOM     14  O   UNL     1      86.193  64.083  81.827  1.00  0.00    -0.493 OA
ATOM     15  C   UNL     1      87.127  62.990  81.901  1.00  0.00     0.278 C 
ENDBRANCH   9  14
BRANCH  10  16
ATOM     16  O   UNL     1      87.071  66.605  80.988  1.00  0.00    -0.504 OA
ATOM     17  H   UNL     1      87.851  66.143  81.305  1.00  0.00     0.293 HD
ENDBRANCH  10  16
ENDBRANCH   7   8
ENDBRANCH   4   7
ENDBRANCH   2   3
ENDBRANCH   1   2
BRANCH   1  18
ATOM     18  C   UNL     1      80.549  66.179  74.453  1.00  0.00     0.001 C 
BRANCH  18  19
ATOM     19  C   UNL     1      80.173  65.145  73.355  1.00  0.00     0.000 C 
BRANCH  19  20
ATOM     20  C   UNL     1      80.142  65.796  71.943  1.00  0.00     0.000 C 
BRANCH  20  21
ATOM     21  C   UNL     1      80.469  67.315  71.935  1.00  0.00     0.003 C 
BRANCH  21  22
ATOM     22  C   UNL     1      81.832  67.683  71.263  1.00  0.00    -0.017 C 
ATOM     23  C   UNL     1      82.539  66.404  70.730  1.00  0.00     0.007 C 
ATOM     24  C   UNL     1      82.790  68.488  72.190  1.00  0.00     0.007 C 
ENDBRANCH  21  22
ENDBRANCH  20  21
ENDBRANCH  19  20
ENDBRANCH  18  19
ENDBRANCH   1  18
TORSDOF 11
ENDMDL
