MODEL 1
REMARK VINA RESULT:    -6.576      0.000      0.000
REMARK INTER + INTRA:         -13.090
REMARK INTER:                 -11.190
REMARK INTRA:                  -1.900
REMARK UNBOUND:                -1.900
REMARK SMILES C=C(C)[C@]12C[C@@H](C)[C@@]34O[C@](Cc5ccccc5)(O[C@@H]1[C@@H]3C=C(COC(=O)Cc1ccc(O)cc1)C[C@]1(O)C(=O)C(C)=C[C@@H]41)O2
REMARK SMILES IDX 23 1 22 2 21 3 20 4 9 5 8 6 10 7 6 8 18 10 44 11 19 12 5 13
REMARK SMILES IDX 7 14 4 15 11 16 12 17 13 18 17 19 14 20 16 21 15 22 2 23
REMARK SMILES IDX 3 24 1 25 35 26 36 27 43 28 38 29 42 30 39 32 40 33 41 34
REMARK SMILES IDX 37 35 24 37 25 38 26 39 27 40 28 41 29 42 34 43 30 44 33 45
REMARK SMILES IDX 31 46 32 47
REMARK H PARENT 37 36 32 48
REMARK Flexibility Score: 90.00
ROOT
ATOM      1  C   UNL     1      78.081  92.903  90.975  1.00  0.00     0.264 C 
ENDROOT
BRANCH   1   2
ATOM      2  C   UNL     1      78.433  91.491  90.569  1.00  0.00    -0.033 C 
ATOM      3  C   UNL     1      79.108  91.285  89.419  1.00  0.00    -0.015 C 
BRANCH   3   4
ATOM      4  C   UNL     1      79.510  89.976  88.757  1.00  0.00     0.078 C 
ATOM      5  O   UNL     1      81.783  89.430  89.564  1.00  0.00    -0.319 OA
ATOM      6  C   UNL     1      80.397  88.966  89.574  1.00  0.00     0.095 CG0
ATOM      7  C   UNL     1      82.259  89.920  88.296  1.00  0.00     0.289 C 
ATOM      8  C   UNL     1      80.310  87.559  88.851  1.00  0.00     0.023 C 
ATOM      9  G   UNL     1      79.997  88.970  91.079  1.00  0.00     0.000 G0
ATOM     10  O   UNL     1      81.450  90.992  87.819  1.00  0.00    -0.320 OA
ATOM     11  O   UNL     1      82.216  88.922  87.279  1.00  0.00    -0.313 OA
ATOM     12  C   UNL     1      80.270  90.266  87.439  1.00  0.00     0.170 C 
ATOM     13  C   UNL     1      80.165  87.717  87.307  1.00  0.00     0.049 C 
ATOM     14  C   UNL     1      81.462  86.586  89.158  1.00  0.00     0.011 C 
ATOM     15  C   UNL     1      80.857  88.983  86.800  1.00  0.00     0.122 C 
BRANCH   7  16
ATOM     16  C   UNL     1      83.687  90.396  88.477  1.00  0.00     0.135 C 
BRANCH  16  17
ATOM     17  C   UNL     1      84.363  90.672  87.157  1.00  0.00    -0.040 A 
ATOM     18  C   UNL     1      84.188  91.903  86.527  1.00  0.00     0.004 A 
ATOM     19  C   UNL     1      85.163  89.694  86.567  1.00  0.00     0.004 A 
ATOM     20  C   UNL     1      84.814  92.158  85.306  1.00  0.00     0.000 A 
ATOM     21  C   UNL     1      85.790  89.949  85.347  1.00  0.00     0.000 A 
ATOM     22  C   UNL     1      85.615  91.180  84.717  1.00  0.00     0.000 A 
ENDBRANCH  16  17
ENDBRANCH   7  16
BRANCH  15  23
ATOM     23  C   UNL     1      80.887  89.063  85.308  1.00  0.00    -0.046 C 
ATOM     24  C   UNL     1      79.592  88.783  84.604  1.00  0.00     0.042 C 
ATOM     25  C   UNL     1      82.007  89.367  84.637  1.00  0.00     0.010 C 
ENDBRANCH  15  23
ENDBRANCH   3   4
BRANCH   2  26
ATOM     26  C   UNL     1      77.961  90.449  91.566  1.00  0.00     0.078 C 
BRANCH  26  27
ATOM     27  C   UNL     1      78.461  89.019  91.370  1.00  0.00     0.140 C 
ATOM     28  C   UNL     1      79.975  88.964  91.081  1.00  0.00     0.086 CG0
ATOM     29  C   UNL     1      78.340  88.185  92.627  1.00  0.00     0.190 C 
ATOM     30  C   UNL     1      80.464  87.864  91.982  1.00  0.00    -0.010 C 
ATOM     31  G   UNL     1      80.387  88.961  89.580  1.00  0.00     0.000 G0
ATOM     32  O   UNL     1      77.341  88.099  93.327  1.00  0.00    -0.291 OA
ATOM     33  C   UNL     1      79.578  87.425  92.880  1.00  0.00    -0.008 C 
ATOM     34  C   UNL     1      79.733  86.429  93.961  1.00  0.00     0.048 C 
BRANCH  27  35
ATOM     35  O   UNL     1      77.671  88.319  90.422  1.00  0.00    -0.381 OA
ATOM     36  H   UNL     1      78.199  88.196  89.615  1.00  0.00     0.212 HD
ENDBRANCH  27  35
ENDBRANCH  26  27
ENDBRANCH   2  26
ENDBRANCH   1   2
BRANCH   1  37
ATOM     37  O   UNL     1      78.859  93.275  92.092  1.00  0.00    -0.461 OA
BRANCH  37  38
ATOM     38  C   UNL     1      79.664  94.379  91.931  1.00  0.00     0.310 C 
ATOM     39  O   UNL     1      80.498  94.765  92.739  1.00  0.00    -0.252 OA
BRANCH  38  40
ATOM     40  C   UNL     1      79.359  95.036  90.607  1.00  0.00     0.158 C 
BRANCH  40  41
ATOM     41  C   UNL     1      80.563  95.131  89.706  1.00  0.00    -0.037 A 
ATOM     42  C   UNL     1      81.424  94.042  89.575  1.00  0.00     0.008 A 
ATOM     43  C   UNL     1      80.819  96.309  89.004  1.00  0.00     0.008 A 
ATOM     44  C   UNL     1      82.540  94.130  88.742  1.00  0.00     0.046 A 
ATOM     45  C   UNL     1      81.934  96.398  88.171  1.00  0.00     0.046 A 
ATOM     46  C   UNL     1      82.795  95.308  88.040  1.00  0.00     0.115 A 
BRANCH  46  47
ATOM     47  O   UNL     1      83.883  95.394  87.228  1.00  0.00    -0.508 OA
ATOM     48  H   UNL     1      83.704  96.046  86.528  1.00  0.00     0.293 HD
ENDBRANCH  46  47
ENDBRANCH  40  41
ENDBRANCH  38  40
ENDBRANCH  37  38
ENDBRANCH   1  37
TORSDOF 10
ENDMDL
MODEL 2
REMARK VINA RESULT:    -6.288     16.787     22.590
REMARK INTER + INTRA:         -12.598
REMARK INTER:                 -11.718
REMARK INTRA:                  -0.881
REMARK UNBOUND:                -1.900
REMARK SMILES C=C(C)[C@]12C[C@@H](C)[C@@]34O[C@](Cc5ccccc5)(O[C@@H]1[C@@H]3C=C(COC(=O)Cc1ccc(O)cc1)C[C@]1(O)C(=O)C(C)=C[C@@H]41)O2
REMARK SMILES IDX 23 1 22 2 21 3 20 4 9 5 8 6 10 7 6 8 18 10 44 11 19 12 5 13
REMARK SMILES IDX 7 14 4 15 11 16 12 17 13 18 17 19 14 20 16 21 15 22 2 23
REMARK SMILES IDX 3 24 1 25 35 26 36 27 43 28 38 29 42 30 39 32 40 33 41 34
REMARK SMILES IDX 37 35 24 37 25 38 26 39 27 40 28 41 29 42 34 43 30 44 33 45
REMARK SMILES IDX 31 46 32 47
REMARK H PARENT 37 36 32 48
REMARK Flexibility Score: 90.00
ROOT
ATOM      1  C   UNL     1      96.009  94.277  75.862  1.00  0.00     0.264 C 
ENDROOT
BRANCH   1   2
ATOM      2  C   UNL     1      96.636  95.584  75.435  1.00  0.00    -0.033 C 
ATOM      3  C   UNL     1      96.290  96.124  74.248  1.00  0.00    -0.015 C 
BRANCH   3   4
ATOM      4  C   UNL     1      96.824  97.372  73.563  1.00  0.00     0.078 C 
ATOM      5  O   UNL     1      95.338  99.240  74.208  1.00  0.00    -0.319 OA
ATOM      6  C   UNL     1      96.710  98.747  74.318  1.00  0.00     0.095 CG0
ATOM      7  C   UNL     1      94.735  99.097  72.908  1.00  0.00     0.289 C 
ATOM      8  C   UNL     1      97.691  99.767  73.607  1.00  0.00     0.023 C 
ATOM      9  G   UNL     1      96.933  98.559  75.847  1.00  0.00     0.000 G0
ATOM     10  O   UNL     1      94.731  97.736  72.486  1.00  0.00    -0.320 OA
ATOM     11  O   UNL     1      95.445  99.811  71.899  1.00  0.00    -0.313 OA
ATOM     12  C   UNL     1      96.126  97.560  72.194  1.00  0.00     0.170 C 
ATOM     13  C   UNL     1      97.796  99.489  72.076  1.00  0.00     0.049 C 
ATOM     14  C   UNL     1      97.375 101.256  73.833  1.00  0.00     0.011 C 
ATOM     15  C   UNL     1      96.498  98.902  71.518  1.00  0.00     0.122 C 
BRANCH   7  16
ATOM     16  C   UNL     1      93.312  99.614  72.985  1.00  0.00     0.135 C 
BRANCH  16  17
ATOM     17  C   UNL     1      92.717  99.843  71.618  1.00  0.00    -0.040 A 
ATOM     18  C   UNL     1      92.537 101.142  71.144  1.00  0.00     0.004 A 
ATOM     19  C   UNL     1      92.349  98.754  70.828  1.00  0.00     0.004 A 
ATOM     20  C   UNL     1      91.987 101.353  69.879  1.00  0.00     0.000 A 
ATOM     21  C   UNL     1      91.799  98.966  69.563  1.00  0.00     0.000 A 
ATOM     22  C   UNL     1      91.619 100.264  69.089  1.00  0.00     0.000 A 
ENDBRANCH  16  17
ENDBRANCH   7  16
BRANCH  15  23
ATOM     23  C   UNL     1      96.511  98.796  70.027  1.00  0.00    -0.046 C 
ATOM     24  C   UNL     1      97.526  97.860  69.439  1.00  0.00     0.042 C 
ATOM     25  C   UNL     1      95.665  99.497  69.259  1.00  0.00     0.010 C 
ENDBRANCH  15  23
ENDBRANCH   3   4
BRANCH   2  26
ATOM     26  C   UNL     1      97.611  96.139  76.456  1.00  0.00     0.078 C 
BRANCH  26  27
ATOM     27  C   UNL     1      98.088  97.576  76.257  1.00  0.00     0.140 C 
ATOM     28  C   UNL     1      96.937  98.524  75.862  1.00  0.00     0.086 CG0
ATOM     29  C   UNL     1      98.599  98.201  77.538  1.00  0.00     0.190 C 
ATOM     30  C   UNL     1      97.147  99.719  76.749  1.00  0.00    -0.010 C 
ATOM     31  G   UNL     1      96.716  98.736  74.335  1.00  0.00     0.000 G0
ATOM     32  O   UNL     1      99.395  97.686  78.308  1.00  0.00    -0.291 OA
ATOM     33  C   UNL     1      98.053  99.559  77.718  1.00  0.00    -0.008 C 
ATOM     34  C   UNL     1      98.454 100.475  78.806  1.00  0.00     0.048 C 
BRANCH  27  35
ATOM     35  O   UNL     1      99.204  97.635  75.383  1.00  0.00    -0.381 OA
ATOM     36  H   UNL     1      99.998  97.379  75.883  1.00  0.00     0.212 HD
ENDBRANCH  27  35
ENDBRANCH  26  27
ENDBRANCH   2  26
ENDBRANCH   1   2
BRANCH   1  37
ATOM     37  O   UNL     1      94.611  94.348  75.679  1.00  0.00    -0.461 OA
BRANCH  37  38
ATOM     38  C   UNL     1      93.843  94.249  76.817  1.00  0.00     0.310 C 
ATOM     39  O   UNL     1      94.279  94.054  77.943  1.00  0.00    -0.252 OA
BRANCH  38  40
ATOM     40  C   UNL     1      92.386  94.418  76.458  1.00  0.00     0.158 C 
BRANCH  40  41
ATOM     41  C   UNL     1      91.616  93.124  76.507  1.00  0.00    -0.037 A 
ATOM     42  C   UNL     1      91.778  92.177  75.495  1.00  0.00     0.008 A 
ATOM     43  C   UNL     1      90.739  92.873  77.562  1.00  0.00     0.008 A 
ATOM     44  C   UNL     1      91.063  90.979  75.540  1.00  0.00     0.046 A 
ATOM     45  C   UNL     1      90.025  91.676  77.607  1.00  0.00     0.046 A 
ATOM     46  C   UNL     1      90.187  90.729  76.596  1.00  0.00     0.115 A 
BRANCH  46  47
ATOM     47  O   UNL     1      89.490  89.561  76.639  1.00  0.00    -0.508 OA
ATOM     48  H   UNL     1      89.119  89.382  75.757  1.00  0.00     0.293 HD
ENDBRANCH  46  47
ENDBRANCH  40  41
ENDBRANCH  38  40
ENDBRANCH  37  38
ENDBRANCH   1  37
TORSDOF 10
ENDMDL
MODEL 3
REMARK VINA RESULT:    -6.126      2.761      7.143
REMARK INTER + INTRA:         -12.323
REMARK INTER:                 -10.645
REMARK INTRA:                  -1.679
REMARK UNBOUND:                -1.900
REMARK SMILES C=C(C)[C@]12C[C@@H](C)[C@@]34O[C@](Cc5ccccc5)(O[C@@H]1[C@@H]3C=C(COC(=O)Cc1ccc(O)cc1)C[C@]1(O)C(=O)C(C)=C[C@@H]41)O2
REMARK SMILES IDX 23 1 22 2 21 3 20 4 9 5 8 6 10 7 6 8 18 10 44 11 19 12 5 13
REMARK SMILES IDX 7 14 4 15 11 16 12 17 13 18 17 19 14 20 16 21 15 22 2 23
REMARK SMILES IDX 3 24 1 25 35 26 36 27 43 28 38 29 42 30 39 32 40 33 41 34
REMARK SMILES IDX 37 35 24 37 25 38 26 39 27 40 28 41 29 42 34 43 30 44 33 45
REMARK SMILES IDX 31 46 32 47
REMARK H PARENT 37 36 32 48
REMARK Flexibility Score: 90.00
ROOT
ATOM      1  C   UNL     1      84.236  92.276  86.382  1.00  0.00     0.264 C 
ENDROOT
BRANCH   1   2
ATOM      2  C   UNL     1      83.380  92.369  87.624  1.00  0.00    -0.033 C 
ATOM      3  C   UNL     1      82.722  91.273  88.054  1.00  0.00    -0.015 C 
BRANCH   3   4
ATOM      4  C   UNL     1      81.751  91.123  89.214  1.00  0.00     0.078 C 
ATOM      5  O   UNL     1      83.075  90.398  91.173  1.00  0.00    -0.319 OA
ATOM      6  C   UNL     1      82.250  91.490  90.660  1.00  0.00     0.095 CG0
ATOM      7  C   UNL     1      82.570  89.073  90.916  1.00  0.00     0.289 C 
ATOM      8  C   UNL     1      80.971  91.658  91.580  1.00  0.00     0.023 C 
ATOM      9  G   UNL     1      83.210  92.715  90.620  1.00  0.00     0.000 G0
ATOM     10  O   UNL     1      82.391  88.850  89.520  1.00  0.00    -0.320 OA
ATOM     11  O   UNL     1      81.292  88.855  91.509  1.00  0.00    -0.313 OA
ATOM     12  C   UNL     1      81.233  89.666  89.282  1.00  0.00     0.170 C 
ATOM     13  C   UNL     1      79.825  90.693  91.148  1.00  0.00     0.049 C 
ATOM     14  C   UNL     1      81.220  91.510  93.091  1.00  0.00     0.011 C 
ATOM     15  C   UNL     1      80.372  89.401  90.541  1.00  0.00     0.122 C 
BRANCH   7  16
ATOM     16  C   UNL     1      83.562  88.072  91.473  1.00  0.00     0.135 C 
BRANCH  16  17
ATOM     17  C   UNL     1      83.699  88.183  92.971  1.00  0.00    -0.040 A 
ATOM     18  C   UNL     1      84.399  89.252  93.530  1.00  0.00     0.004 A 
ATOM     19  C   UNL     1      83.125  87.217  93.796  1.00  0.00     0.004 A 
ATOM     20  C   UNL     1      84.525  89.355  94.916  1.00  0.00     0.000 A 
ATOM     21  C   UNL     1      83.252  87.320  95.182  1.00  0.00     0.000 A 
ATOM     22  C   UNL     1      83.951  88.388  95.741  1.00  0.00     0.000 A 
ENDBRANCH  16  17
ENDBRANCH   7  16
BRANCH  15  23
ATOM     23  C   UNL     1      79.302  88.389  90.287  1.00  0.00    -0.046 C 
ATOM     24  C   UNL     1      79.683  86.954  90.506  1.00  0.00     0.042 C 
ATOM     25  C   UNL     1      78.072  88.742  89.886  1.00  0.00     0.010 C 
ENDBRANCH  15  23
ENDBRANCH   3   4
BRANCH   2  26
ATOM     26  C   UNL     1      83.386  93.751  88.250  1.00  0.00     0.078 C 
BRANCH  26  27
ATOM     27  C   UNL     1      82.782  93.888  89.646  1.00  0.00     0.140 C 
ATOM     28  C   UNL     1      83.213  92.741  90.583  1.00  0.00     0.086 CG0
ATOM     29  C   UNL     1      83.286  95.113  90.378  1.00  0.00     0.190 C 
ATOM     30  C   UNL     1      83.593  93.450  91.853  1.00  0.00    -0.010 C 
ATOM     31  G   UNL     1      82.257  91.514  90.650  1.00  0.00     0.000 G0
ATOM     32  O   UNL     1      83.330  96.245  89.919  1.00  0.00    -0.291 OA
ATOM     33  C   UNL     1      83.670  94.781  91.763  1.00  0.00    -0.008 C 
ATOM     34  C   UNL     1      84.086  95.780  92.770  1.00  0.00     0.048 C 
BRANCH  27  35
ATOM     35  O   UNL     1      81.379  94.082  89.587  1.00  0.00    -0.381 OA
ATOM     36  H   UNL     1      80.947  93.212  89.632  1.00  0.00     0.212 HD
ENDBRANCH  27  35
ENDBRANCH  26  27
ENDBRANCH   2  26
ENDBRANCH   1   2
BRANCH   1  37
ATOM     37  O   UNL     1      84.854  91.008  86.335  1.00  0.00    -0.461 OA
BRANCH  37  38
ATOM     38  C   UNL     1      84.956  90.427  85.092  1.00  0.00     0.310 C 
ATOM     39  O   UNL     1      85.996  90.029  84.585  1.00  0.00    -0.252 OA
BRANCH  38  40
ATOM     40  C   UNL     1      83.589  90.359  84.454  1.00  0.00     0.158 C 
BRANCH  40  41
ATOM     41  C   UNL     1      82.683  89.352  85.113  1.00  0.00    -0.037 A 
ATOM     42  C   UNL     1      81.302  89.553  85.117  1.00  0.00     0.008 A 
ATOM     43  C   UNL     1      83.223  88.218  85.719  1.00  0.00     0.008 A 
ATOM     44  C   UNL     1      80.463  88.621  85.728  1.00  0.00     0.046 A 
ATOM     45  C   UNL     1      82.384  87.286  86.330  1.00  0.00     0.046 A 
ATOM     46  C   UNL     1      81.005  87.487  86.334  1.00  0.00     0.115 A 
BRANCH  46  47
ATOM     47  O   UNL     1      80.186  86.578  86.930  1.00  0.00    -0.508 OA
ATOM     48  H   UNL     1      79.337  86.559  86.455  1.00  0.00     0.293 HD
ENDBRANCH  46  47
ENDBRANCH  40  41
ENDBRANCH  38  40
ENDBRANCH  37  38
ENDBRANCH   1  37
TORSDOF 10
ENDMDL
MODEL 4
REMARK VINA RESULT:    -6.031     18.473     23.570
REMARK INTER + INTRA:         -12.162
REMARK INTER:                 -10.763
REMARK INTRA:                  -1.398
REMARK UNBOUND:                -1.900
REMARK SMILES C=C(C)[C@]12C[C@@H](C)[C@@]34O[C@](Cc5ccccc5)(O[C@@H]1[C@@H]3C=C(COC(=O)Cc1ccc(O)cc1)C[C@]1(O)C(=O)C(C)=C[C@@H]41)O2
REMARK SMILES IDX 23 1 22 2 21 3 20 4 9 5 8 6 10 7 6 8 18 10 44 11 19 12 5 13
REMARK SMILES IDX 7 14 4 15 11 16 12 17 13 18 17 19 14 20 16 21 15 22 2 23
REMARK SMILES IDX 3 24 1 25 35 26 36 27 43 28 38 29 42 30 39 32 40 33 41 34
REMARK SMILES IDX 37 35 24 37 25 38 26 39 27 40 28 41 29 42 34 43 30 44 33 45
REMARK SMILES IDX 31 46 32 47
REMARK H PARENT 37 36 32 48
REMARK Flexibility Score: 90.00
ROOT
ATOM      1  C   UNL     1      93.136  98.543  70.728  1.00  0.00     0.264 C 
ENDROOT
BRANCH   1   2
ATOM      2  C   UNL     1      94.555  98.508  71.249  1.00  0.00    -0.033 C 
ATOM      3  C   UNL     1      94.770  98.270  72.559  1.00  0.00    -0.015 C 
BRANCH   3   4
ATOM      4  C   UNL     1      96.078  98.259  73.336  1.00  0.00     0.078 C 
ATOM      5  O   UNL     1      96.900  95.927  73.327  1.00  0.00    -0.319 OA
ATOM      6  C   UNL     1      97.216  97.278  72.870  1.00  0.00     0.095 CG0
ATOM      7  C   UNL     1      96.397  95.835  74.674  1.00  0.00     0.289 C 
ATOM      8  C   UNL     1      98.567  97.757  73.545  1.00  0.00     0.023 C 
ATOM      9  G   UNL     1      97.248  97.165  71.318  1.00  0.00     0.000 G0
ATOM     10  O   UNL     1      95.224  96.625  74.844  1.00  0.00    -0.320 OA
ATOM     11  O   UNL     1      97.331  96.320  75.636  1.00  0.00    -0.313 OA
ATOM     12  C   UNL     1      95.801  97.940  74.826  1.00  0.00     0.170 C 
ATOM     13  C   UNL     1      98.314  98.377  74.954  1.00  0.00     0.049 C 
ATOM     14  C   UNL     1      99.670  96.689  73.648  1.00  0.00     0.011 C 
ATOM     15  C   UNL     1      97.103  97.745  75.641  1.00  0.00     0.122 C 
BRANCH   7  16
ATOM     16  C   UNL     1      96.083  94.381  74.965  1.00  0.00     0.135 C 
BRANCH  16  17
ATOM     17  C   UNL     1      94.785  94.221  75.718  1.00  0.00    -0.040 A 
ATOM     18  C   UNL     1      94.769  94.312  77.109  1.00  0.00     0.004 A 
ATOM     19  C   UNL     1      93.601  93.983  75.020  1.00  0.00     0.004 A 
ATOM     20  C   UNL     1      93.569  94.165  77.804  1.00  0.00     0.000 A 
ATOM     21  C   UNL     1      92.400  93.836  75.716  1.00  0.00     0.000 A 
ATOM     22  C   UNL     1      92.385  93.927  77.107  1.00  0.00     0.000 A 
ENDBRANCH  16  17
ENDBRANCH   7  16
BRANCH  15  23
ATOM     23  C   UNL     1      96.950  98.191  77.059  1.00  0.00    -0.046 C 
ATOM     24  C   UNL     1      97.105  97.130  78.107  1.00  0.00     0.042 C 
ATOM     25  C   UNL     1      96.688  99.468  77.376  1.00  0.00     0.010 C 
ENDBRANCH  15  23
ENDBRANCH   3   4
BRANCH   2  26
ATOM     26  C   UNL     1      95.592  98.750  70.168  1.00  0.00     0.078 C 
BRANCH  26  27
ATOM     27  C   UNL     1      97.053  98.498  70.534  1.00  0.00     0.140 C 
ATOM     28  C   UNL     1      97.240  97.183  71.319  1.00  0.00     0.086 CG0
ATOM     29  C   UNL     1      97.926  98.277  69.317  1.00  0.00     0.190 C 
ATOM     30  C   UNL     1      98.420  96.539  70.647  1.00  0.00    -0.010 C 
ATOM     31  G   UNL     1      97.216  97.301  72.871  1.00  0.00     0.000 G0
ATOM     32  O   UNL     1      97.947  98.986  68.322  1.00  0.00    -0.291 OA
ATOM     33  C   UNL     1      98.812  97.112  69.505  1.00  0.00    -0.008 C 
ATOM     34  C   UNL     1      99.865  96.709  68.550  1.00  0.00     0.048 C 
BRANCH  27  35
ATOM     35  O   UNL     1      97.632  99.628  71.165  1.00  0.00    -0.381 OA
ATOM     36  H   UNL     1      98.085  99.331  71.972  1.00  0.00     0.212 HD
ENDBRANCH  27  35
ENDBRANCH  26  27
ENDBRANCH   2  26
ENDBRANCH   1   2
BRANCH   1  37
ATOM     37  O   UNL     1      92.435  99.594  71.357  1.00  0.00    -0.461 OA
BRANCH  37  38
ATOM     38  C   UNL     1      92.334 100.768  70.646  1.00  0.00     0.310 C 
ATOM     39  O   UNL     1      92.684 100.917  69.484  1.00  0.00    -0.252 OA
BRANCH  38  40
ATOM     40  C   UNL     1      91.725 101.837  71.522  1.00  0.00     0.158 C 
BRANCH  40  41
ATOM     41  C   UNL     1      92.312 101.864  72.909  1.00  0.00    -0.037 A 
ATOM     42  C   UNL     1      93.681 102.069  73.084  1.00  0.00     0.008 A 
ATOM     43  C   UNL     1      91.488 101.684  74.020  1.00  0.00     0.008 A 
ATOM     44  C   UNL     1      94.225 102.093  74.368  1.00  0.00     0.046 A 
ATOM     45  C   UNL     1      92.031 101.709  75.305  1.00  0.00     0.046 A 
ATOM     46  C   UNL     1      93.399 101.913  75.479  1.00  0.00     0.115 A 
BRANCH  46  47
ATOM     47  O   UNL     1      93.930 101.936  76.732  1.00  0.00    -0.508 OA
ATOM     48  H   UNL     1      94.839 101.591  76.696  1.00  0.00     0.293 HD
ENDBRANCH  46  47
ENDBRANCH  40  41
ENDBRANCH  38  40
ENDBRANCH  37  38
ENDBRANCH   1  37
TORSDOF 10
ENDMDL
MODEL 5
REMARK VINA RESULT:    -5.944      1.880      6.188
REMARK INTER + INTRA:         -12.014
REMARK INTER:                 -10.711
REMARK INTRA:                  -1.303
REMARK UNBOUND:                -1.900
REMARK SMILES C=C(C)[C@]12C[C@@H](C)[C@@]34O[C@](Cc5ccccc5)(O[C@@H]1[C@@H]3C=C(COC(=O)Cc1ccc(O)cc1)C[C@]1(O)C(=O)C(C)=C[C@@H]41)O2
REMARK SMILES IDX 23 1 22 2 21 3 20 4 9 5 8 6 10 7 6 8 18 10 44 11 19 12 5 13
REMARK SMILES IDX 7 14 4 15 11 16 12 17 13 18 17 19 14 20 16 21 15 22 2 23
REMARK SMILES IDX 3 24 1 25 35 26 36 27 43 28 38 29 42 30 39 32 40 33 41 34
REMARK SMILES IDX 37 35 24 37 25 38 26 39 27 40 28 41 29 42 34 43 30 44 33 45
REMARK SMILES IDX 31 46 32 47
REMARK H PARENT 37 36 32 48
REMARK Flexibility Score: 90.00
ROOT
ATOM      1  C   UNL     1      84.358  92.716  86.765  1.00  0.00     0.264 C 
ENDROOT
BRANCH   1   2
ATOM      2  C   UNL     1      83.628  91.447  87.140  1.00  0.00    -0.033 C 
ATOM      3  C   UNL     1      83.190  91.288  88.406  1.00  0.00    -0.015 C 
BRANCH   3   4
ATOM      4  C   UNL     1      82.506  90.091  89.047  1.00  0.00     0.078 C 
ATOM      5  O   UNL     1      80.069  90.455  88.837  1.00  0.00    -0.319 OA
ATOM      6  C   UNL     1      81.159  89.574  88.421  1.00  0.00     0.095 CG0
ATOM      7  C   UNL     1      80.096  90.856  90.220  1.00  0.00     0.289 C 
ATOM      8  C   UNL     1      80.898  88.116  88.983  1.00  0.00     0.023 C 
ATOM      9  G   UNL     1      81.187  89.697  86.870  1.00  0.00     0.000 G0
ATOM     10  O   UNL     1      81.318  91.512  90.545  1.00  0.00    -0.320 OA
ATOM     11  O   UNL     1      80.006  89.745  91.109  1.00  0.00    -0.313 OA
ATOM     12  C   UNL     1      82.215  90.389  90.539  1.00  0.00     0.170 C 
ATOM     13  C   UNL     1      81.432  87.960  90.440  1.00  0.00     0.049 C 
ATOM     14  C   UNL     1      79.438  87.635  88.921  1.00  0.00     0.011 C 
ATOM     15  C   UNL     1      81.368  89.280  91.210  1.00  0.00     0.122 C 
BRANCH   7  16
ATOM     16  C   UNL     1      78.930  91.793  90.465  1.00  0.00     0.135 C 
BRANCH  16  17
ATOM     17  C   UNL     1      79.368  93.087  91.104  1.00  0.00    -0.040 A 
ATOM     18  C   UNL     1      79.630  94.203  90.311  1.00  0.00     0.004 A 
ATOM     19  C   UNL     1      79.510  93.166  92.489  1.00  0.00     0.004 A 
ATOM     20  C   UNL     1      80.035  95.400  90.904  1.00  0.00     0.000 A 
ATOM     21  C   UNL     1      79.914  94.363  93.082  1.00  0.00     0.000 A 
ATOM     22  C   UNL     1      80.177  95.479  92.289  1.00  0.00     0.000 A 
ENDBRANCH  16  17
ENDBRANCH   7  16
BRANCH  15  23
ATOM     23  C   UNL     1      81.703  89.117  92.657  1.00  0.00    -0.046 C 
ATOM     24  C   UNL     1      80.551  88.832  93.575  1.00  0.00     0.042 C 
ATOM     25  C   UNL     1      82.961  89.220  93.110  1.00  0.00     0.010 C 
ENDBRANCH  15  23
ENDBRANCH   3   4
BRANCH   2  26
ATOM     26  C   UNL     1      83.477  90.482  85.979  1.00  0.00     0.078 C 
BRANCH  26  27
ATOM     27  C   UNL     1      82.532  89.298  86.174  1.00  0.00     0.140 C 
ATOM     28  C   UNL     1      81.213  89.711  86.860  1.00  0.00     0.086 CG0
ATOM     29  C   UNL     1      82.049  88.718  84.862  1.00  0.00     0.190 C 
ATOM     30  C   UNL     1      80.160  89.029  86.031  1.00  0.00    -0.010 C 
ATOM     31  G   UNL     1      81.173  89.573  88.410  1.00  0.00     0.000 G0
ATOM     32  O   UNL     1      82.760  88.427  83.912  1.00  0.00    -0.291 OA
ATOM     33  C   UNL     1      80.592  88.486  84.889  1.00  0.00    -0.008 C 
ATOM     34  C   UNL     1      79.839  87.819  83.807  1.00  0.00     0.048 C 
BRANCH  27  35
ATOM     35  O   UNL     1      83.188  88.210  86.803  1.00  0.00    -0.381 OA
ATOM     36  H   UNL     1      84.125  88.227  86.546  1.00  0.00     0.212 HD
ENDBRANCH  27  35
ENDBRANCH  26  27
ENDBRANCH   2  26
ENDBRANCH   1   2
BRANCH   1  37
ATOM     37  O   UNL     1      84.054  93.724  87.705  1.00  0.00    -0.461 OA
BRANCH  37  38
ATOM     38  C   UNL     1      83.486  94.872  87.203  1.00  0.00     0.310 C 
ATOM     39  O   UNL     1      83.938  95.533  86.279  1.00  0.00    -0.252 OA
BRANCH  38  40
ATOM     40  C   UNL     1      82.223  95.186  87.969  1.00  0.00     0.158 C 
BRANCH  40  41
ATOM     41  C   UNL     1      81.850  96.645  87.914  1.00  0.00    -0.037 A 
ATOM     42  C   UNL     1      82.390  97.539  88.838  1.00  0.00     0.008 A 
ATOM     43  C   UNL     1      80.963  97.101  86.939  1.00  0.00     0.008 A 
ATOM     44  C   UNL     1      82.043  98.890  88.787  1.00  0.00     0.046 A 
ATOM     45  C   UNL     1      80.616  98.452  86.888  1.00  0.00     0.046 A 
ATOM     46  C   UNL     1      81.156  99.346  87.812  1.00  0.00     0.115 A 
BRANCH  46  47
ATOM     47  O   UNL     1      80.817 100.663  87.763  1.00  0.00    -0.508 OA
ATOM     48  H   UNL     1      80.795 100.949  86.833  1.00  0.00     0.293 HD
ENDBRANCH  46  47
ENDBRANCH  40  41
ENDBRANCH  38  40
ENDBRANCH  37  38
ENDBRANCH   1  37
TORSDOF 10
ENDMDL
MODEL 6
REMARK VINA RESULT:    -5.724      1.526      2.620
REMARK INTER + INTRA:         -11.640
REMARK INTER:                  -9.625
REMARK INTRA:                  -2.015
REMARK UNBOUND:                -1.900
REMARK SMILES C=C(C)[C@]12C[C@@H](C)[C@@]34O[C@](Cc5ccccc5)(O[C@@H]1[C@@H]3C=C(COC(=O)Cc1ccc(O)cc1)C[C@]1(O)C(=O)C(C)=C[C@@H]41)O2
REMARK SMILES IDX 23 1 22 2 21 3 20 4 9 5 8 6 10 7 6 8 18 10 44 11 19 12 5 13
REMARK SMILES IDX 7 14 4 15 11 16 12 17 13 18 17 19 14 20 16 21 15 22 2 23
REMARK SMILES IDX 3 24 1 25 35 26 36 27 43 28 38 29 42 30 39 32 40 33 41 34
REMARK SMILES IDX 37 35 24 37 25 38 26 39 27 40 28 41 29 42 34 43 30 44 33 45
REMARK SMILES IDX 31 46 32 47
REMARK H PARENT 37 36 32 48
REMARK Flexibility Score: 90.00
ROOT
ATOM      1  C   UNL     1      77.675  92.539  90.280  1.00  0.00     0.264 C 
ENDROOT
BRANCH   1   2
ATOM      2  C   UNL     1      78.074  91.130  89.906  1.00  0.00    -0.033 C 
ATOM      3  C   UNL     1      78.945  90.938  88.894  1.00  0.00    -0.015 C 
BRANCH   3   4
ATOM      4  C   UNL     1      79.442  89.638  88.281  1.00  0.00     0.078 C 
ATOM      5  O   UNL     1      81.512  89.019  89.484  1.00  0.00    -0.319 OA
ATOM      6  C   UNL     1      80.141  88.588  89.220  1.00  0.00     0.095 CG0
ATOM      7  C   UNL     1      82.226  89.531  88.342  1.00  0.00     0.289 C 
ATOM      8  C   UNL     1      80.167  87.202  88.452  1.00  0.00     0.023 C 
ATOM      9  G   UNL     1      79.465  88.562  90.622  1.00  0.00     0.000 G0
ATOM     10  O   UNL     1      81.541  90.633  87.754  1.00  0.00    -0.320 OA
ATOM     11  O   UNL     1      82.359  88.561  87.306  1.00  0.00    -0.313 OA
ATOM     12  C   UNL     1      80.441  89.944  87.138  1.00  0.00     0.170 C 
ATOM     13  C   UNL     1      80.317  87.403  86.913  1.00  0.00     0.049 C 
ATOM     14  C   UNL     1      81.223  86.195  88.940  1.00  0.00     0.011 C 
ATOM     15  C   UNL     1      81.115  88.665  86.583  1.00  0.00     0.122 C 
BRANCH   7  16
ATOM     16  C   UNL     1      83.603  89.969  88.802  1.00  0.00     0.135 C 
BRANCH  16  17
ATOM     17  C   UNL     1      83.721  89.984  90.305  1.00  0.00    -0.040 A 
ATOM     18  C   UNL     1      84.043  91.167  90.969  1.00  0.00     0.004 A 
ATOM     19  C   UNL     1      83.506  88.812  91.031  1.00  0.00     0.004 A 
ATOM     20  C   UNL     1      84.151  91.180  92.360  1.00  0.00     0.000 A 
ATOM     21  C   UNL     1      83.615  88.825  92.423  1.00  0.00     0.000 A 
ATOM     22  C   UNL     1      83.937  90.008  93.086  1.00  0.00     0.000 A 
ENDBRANCH  16  17
ENDBRANCH   7  16
BRANCH  15  23
ATOM     23  C   UNL     1      81.426  88.782  85.126  1.00  0.00    -0.046 C 
ATOM     24  C   UNL     1      82.804  89.266  84.781  1.00  0.00     0.042 C 
ATOM     25  C   UNL     1      80.526  88.473  84.181  1.00  0.00     0.010 C 
ENDBRANCH  15  23
ENDBRANCH   3   4
BRANCH   2  26
ATOM     26  C   UNL     1      77.411  90.074  90.771  1.00  0.00     0.078 C 
BRANCH  26  27
ATOM     27  C   UNL     1      77.926  88.642  90.641  1.00  0.00     0.140 C 
ATOM     28  C   UNL     1      79.467  88.576  90.616  1.00  0.00     0.086 CG0
ATOM     29  C   UNL     1      77.584  87.791  91.846  1.00  0.00     0.190 C 
ATOM     30  C   UNL     1      79.785  87.458  91.570  1.00  0.00    -0.010 C 
ATOM     31  G   UNL     1      80.131  88.590  89.208  1.00  0.00     0.000 G0
ATOM     32  O   UNL     1      76.479  87.706  92.361  1.00  0.00    -0.291 OA
ATOM     33  C   UNL     1      78.754  87.015  92.296  1.00  0.00    -0.008 C 
ATOM     34  C   UNL     1      78.714  86.002  93.371  1.00  0.00     0.048 C 
BRANCH  27  35
ATOM     35  O   UNL     1      77.306  87.964  89.561  1.00  0.00    -0.381 OA
ATOM     36  H   UNL     1      76.363  87.851  89.770  1.00  0.00     0.212 HD
ENDBRANCH  27  35
ENDBRANCH  26  27
ENDBRANCH   2  26
ENDBRANCH   1   2
BRANCH   1  37
ATOM     37  O   UNL     1      78.109  92.813  91.595  1.00  0.00    -0.461 OA
BRANCH  37  38
ATOM     38  C   UNL     1      79.051  93.807  91.730  1.00  0.00     0.310 C 
ATOM     39  O   UNL     1      78.824  95.006  91.642  1.00  0.00    -0.252 OA
BRANCH  38  40
ATOM     40  C   UNL     1      80.401  93.188  92.002  1.00  0.00     0.158 C 
BRANCH  40  41
ATOM     41  C   UNL     1      81.476  93.694  91.075  1.00  0.00    -0.037 A 
ATOM     42  C   UNL     1      82.510  94.488  91.574  1.00  0.00     0.008 A 
ATOM     43  C   UNL     1      81.439  93.370  89.720  1.00  0.00     0.008 A 
ATOM     44  C   UNL     1      83.505  94.957  90.716  1.00  0.00     0.046 A 
ATOM     45  C   UNL     1      82.434  93.839  88.862  1.00  0.00     0.046 A 
ATOM     46  C   UNL     1      83.467  94.632  89.360  1.00  0.00     0.115 A 
BRANCH  46  47
ATOM     47  O   UNL     1      84.438  95.090  88.523  1.00  0.00    -0.508 OA
ATOM     48  H   UNL     1      85.240  94.554  88.648  1.00  0.00     0.293 HD
ENDBRANCH  46  47
ENDBRANCH  40  41
ENDBRANCH  38  40
ENDBRANCH  37  38
ENDBRANCH   1  37
TORSDOF 10
ENDMDL
MODEL 7
REMARK VINA RESULT:    -5.684     16.723     21.874
REMARK INTER + INTRA:         -11.571
REMARK INTER:                 -10.848
REMARK INTRA:                  -0.724
REMARK UNBOUND:                -1.900
REMARK SMILES C=C(C)[C@]12C[C@@H](C)[C@@]34O[C@](Cc5ccccc5)(O[C@@H]1[C@@H]3C=C(COC(=O)Cc1ccc(O)cc1)C[C@]1(O)C(=O)C(C)=C[C@@H]41)O2
REMARK SMILES IDX 23 1 22 2 21 3 20 4 9 5 8 6 10 7 6 8 18 10 44 11 19 12 5 13
REMARK SMILES IDX 7 14 4 15 11 16 12 17 13 18 17 19 14 20 16 21 15 22 2 23
REMARK SMILES IDX 3 24 1 25 35 26 36 27 43 28 38 29 42 30 39 32 40 33 41 34
REMARK SMILES IDX 37 35 24 37 25 38 26 39 27 40 28 41 29 42 34 43 30 44 33 45
REMARK SMILES IDX 31 46 32 47
REMARK H PARENT 37 36 32 48
REMARK Flexibility Score: 90.00
ROOT
ATOM      1  C   UNL     1      95.317  93.702  77.262  1.00  0.00     0.264 C 
ENDROOT
BRANCH   1   2
ATOM      2  C   UNL     1      96.305  94.837  77.131  1.00  0.00    -0.033 C 
ATOM      3  C   UNL     1      96.464  95.438  75.934  1.00  0.00    -0.015 C 
BRANCH   3   4
ATOM      4  C   UNL     1      97.434  96.536  75.526  1.00  0.00     0.078 C 
ATOM      5  O   UNL     1      96.260  98.689  75.844  1.00  0.00    -0.319 OA
ATOM      6  C   UNL     1      97.396  97.897  76.312  1.00  0.00     0.095 CG0
ATOM      7  C   UNL     1      96.058  98.692  74.418  1.00  0.00     0.289 C 
ATOM      8  C   UNL     1      98.741  98.672  75.993  1.00  0.00     0.023 C 
ATOM      9  G   UNL     1      97.106  97.657  77.822  1.00  0.00     0.000 G0
ATOM     10  O   UNL     1      95.889  97.369  73.916  1.00  0.00    -0.320 OA
ATOM     11  O   UNL     1      97.174  99.231  73.713  1.00  0.00    -0.313 OA
ATOM     12  C   UNL     1      97.236  96.883  74.030  1.00  0.00     0.170 C 
ATOM     13  C   UNL     1      99.237  98.384  74.543  1.00  0.00     0.049 C 
ATOM     14  C   UNL     1      98.699 100.193  76.225  1.00  0.00     0.011 C 
ATOM     15  C   UNL     1      98.073  98.109  73.590  1.00  0.00     0.122 C 
BRANCH   7  16
ATOM     16  C   UNL     1      94.824  99.518  74.115  1.00  0.00     0.135 C 
BRANCH  16  17
ATOM     17  C   UNL     1      94.424  99.427  72.663  1.00  0.00    -0.040 A 
ATOM     18  C   UNL     1      93.333  98.644  72.287  1.00  0.00     0.004 A 
ATOM     19  C   UNL     1      95.146 100.128  71.697  1.00  0.00     0.004 A 
ATOM     20  C   UNL     1      92.963  98.560  70.944  1.00  0.00     0.000 A 
ATOM     21  C   UNL     1      94.776 100.044  70.354  1.00  0.00     0.000 A 
ATOM     22  C   UNL     1      93.685  99.261  69.979  1.00  0.00     0.000 A 
ENDBRANCH  16  17
ENDBRANCH   7  16
BRANCH  15  23
ATOM     23  C   UNL     1      98.509  98.010  72.165  1.00  0.00    -0.046 C 
ATOM     24  C   UNL     1      98.883  99.299  71.496  1.00  0.00     0.042 C 
ATOM     25  C   UNL     1      98.562  96.835  71.520  1.00  0.00     0.010 C 
ENDBRANCH  15  23
ENDBRANCH   3   4
BRANCH   2  26
ATOM     26  C   UNL     1      97.013  95.164  78.433  1.00  0.00     0.078 C 
BRANCH  26  27
ATOM     27  C   UNL     1      97.837  96.449  78.476  1.00  0.00     0.140 C 
ATOM     28  C   UNL     1      97.103  97.635  77.816  1.00  0.00     0.086 CG0
ATOM     29  C   UNL     1      98.058  96.949  79.888  1.00  0.00     0.190 C 
ATOM     30  C   UNL     1      97.294  98.756  78.799  1.00  0.00    -0.010 C 
ATOM     31  G   UNL     1      97.412  97.880  76.310  1.00  0.00     0.000 G0
ATOM     32  O   UNL     1      98.446  96.270  80.827  1.00  0.00    -0.291 OA
ATOM     33  C   UNL     1      97.802  98.399  79.982  1.00  0.00    -0.008 C 
ATOM     34  C   UNL     1      98.045  99.206  81.196  1.00  0.00     0.048 C 
BRANCH  27  35
ATOM     35  O   UNL     1      99.149  96.241  77.981  1.00  0.00    -0.381 OA
ATOM     36  H   UNL     1      99.084  95.824  77.105  1.00  0.00     0.212 HD
ENDBRANCH  27  35
ENDBRANCH  26  27
ENDBRANCH   2  26
ENDBRANCH   1   2
BRANCH   1  37
ATOM     37  O   UNL     1      94.081  94.209  77.720  1.00  0.00    -0.461 OA
BRANCH  37  38
ATOM     38  C   UNL     1      93.056  94.233  76.802  1.00  0.00     0.310 C 
ATOM     39  O   UNL     1      92.150  95.053  76.783  1.00  0.00    -0.252 OA
BRANCH  38  40
ATOM     40  C   UNL     1      93.227  93.092  75.827  1.00  0.00     0.158 C 
BRANCH  40  41
ATOM     41  C   UNL     1      91.925  92.422  75.474  1.00  0.00    -0.037 A 
ATOM     42  C   UNL     1      91.212  91.724  76.449  1.00  0.00     0.008 A 
ATOM     43  C   UNL     1      91.431  92.498  74.172  1.00  0.00     0.008 A 
ATOM     44  C   UNL     1      90.007  91.102  76.122  1.00  0.00     0.046 A 
ATOM     45  C   UNL     1      90.226  91.877  73.844  1.00  0.00     0.046 A 
ATOM     46  C   UNL     1      89.514  91.179  74.819  1.00  0.00     0.115 A 
BRANCH  46  47
ATOM     47  O   UNL     1      88.338  90.572  74.500  1.00  0.00    -0.508 OA
ATOM     48  H   UNL     1      87.684  90.767  75.193  1.00  0.00     0.293 HD
ENDBRANCH  46  47
ENDBRANCH  40  41
ENDBRANCH  38  40
ENDBRANCH  37  38
ENDBRANCH   1  37
TORSDOF 10
ENDMDL
MODEL 8
REMARK VINA RESULT:    -5.640      2.072      6.548
REMARK INTER + INTRA:         -11.497
REMARK INTER:                 -10.841
REMARK INTRA:                  -0.657
REMARK UNBOUND:                -1.900
REMARK SMILES C=C(C)[C@]12C[C@@H](C)[C@@]34O[C@](Cc5ccccc5)(O[C@@H]1[C@@H]3C=C(COC(=O)Cc1ccc(O)cc1)C[C@]1(O)C(=O)C(C)=C[C@@H]41)O2
REMARK SMILES IDX 23 1 22 2 21 3 20 4 9 5 8 6 10 7 6 8 18 10 44 11 19 12 5 13
REMARK SMILES IDX 7 14 4 15 11 16 12 17 13 18 17 19 14 20 16 21 15 22 2 23
REMARK SMILES IDX 3 24 1 25 35 26 36 27 43 28 38 29 42 30 39 32 40 33 41 34
REMARK SMILES IDX 37 35 24 37 25 38 26 39 27 40 28 41 29 42 34 43 30 44 33 45
REMARK SMILES IDX 31 46 32 47
REMARK H PARENT 37 36 32 48
REMARK Flexibility Score: 90.00
ROOT
ATOM      1  C   UNL     1      83.424  93.037  87.556  1.00  0.00     0.264 C 
ENDROOT
BRANCH   1   2
ATOM      2  C   UNL     1      82.923  91.619  87.708  1.00  0.00    -0.033 C 
ATOM      3  C   UNL     1      82.379  91.235  88.882  1.00  0.00    -0.015 C 
BRANCH   3   4
ATOM      4  C   UNL     1      81.877  89.865  89.311  1.00  0.00     0.078 C 
ATOM      5  O   UNL     1      79.467  89.778  88.765  1.00  0.00    -0.319 OA
ATOM      6  C   UNL     1      80.759  89.174  88.447  1.00  0.00     0.095 CG0
ATOM      7  C   UNL     1      79.229  90.020  90.165  1.00  0.00     0.289 C 
ATOM      8  C   UNL     1      80.731  87.639  88.840  1.00  0.00     0.023 C 
ATOM      9  G   UNL     1      80.965  89.473  86.934  1.00  0.00     0.000 G0
ATOM     10  O   UNL     1      80.237  90.856  90.726  1.00  0.00    -0.320 OA
ATOM     11  O   UNL     1      79.252  88.820  90.935  1.00  0.00    -0.313 OA
ATOM     12  C   UNL     1      81.337  89.934  90.761  1.00  0.00     0.170 C 
ATOM     13  C   UNL     1      81.088  87.426  90.343  1.00  0.00     0.049 C 
ATOM     14  C   UNL     1      79.421  86.899  88.518  1.00  0.00     0.011 C 
ATOM     15  C   UNL     1      80.655  88.616  91.202  1.00  0.00     0.122 C 
BRANCH   7  16
ATOM     16  C   UNL     1      77.873  90.684  90.309  1.00  0.00     0.135 C 
BRANCH  16  17
ATOM     17  C   UNL     1      76.919  89.852  91.128  1.00  0.00    -0.040 A 
ATOM     18  C   UNL     1      76.812  90.063  92.502  1.00  0.00     0.004 A 
ATOM     19  C   UNL     1      76.143  88.871  90.511  1.00  0.00     0.004 A 
ATOM     20  C   UNL     1      75.929  89.294  93.260  1.00  0.00     0.000 A 
ATOM     21  C   UNL     1      75.259  88.102  91.269  1.00  0.00     0.000 A 
ATOM     22  C   UNL     1      75.153  88.313  92.643  1.00  0.00     0.000 A 
ENDBRANCH  16  17
ENDBRANCH   7  16
BRANCH  15  23
ATOM     23  C   UNL     1      80.823  88.358  92.664  1.00  0.00    -0.046 C 
ATOM     24  C   UNL     1      82.151  88.732  93.254  1.00  0.00     0.042 C 
ATOM     25  C   UNL     1      79.843  87.824  93.407  1.00  0.00     0.010 C 
ENDBRANCH  15  23
ENDBRANCH   3   4
BRANCH   2  26
ATOM     26  C   UNL     1      83.103  90.785  86.454  1.00  0.00     0.078 C 
BRANCH  26  27
ATOM     27  C   UNL     1      82.441  89.409  86.430  1.00  0.00     0.140 C 
ATOM     28  C   UNL     1      80.977  89.457  86.915  1.00  0.00     0.086 CG0
ATOM     29  C   UNL     1      82.300  88.858  85.027  1.00  0.00     0.190 C 
ATOM     30  C   UNL     1      80.242  88.636  85.892  1.00  0.00    -0.010 C 
ATOM     31  G   UNL     1      80.747  89.175  88.429  1.00  0.00     0.000 G0
ATOM     32  O   UNL     1      83.189  88.817  84.189  1.00  0.00    -0.291 OA
ATOM     33  C   UNL     1      80.949  88.308  84.807  1.00  0.00    -0.008 C 
ATOM     34  C   UNL     1      80.535  87.591  83.583  1.00  0.00     0.048 C 
BRANCH  27  35
ATOM     35  O   UNL     1      83.233  88.440  87.096  1.00  0.00    -0.381 OA
ATOM     36  H   UNL     1      82.925  88.371  88.015  1.00  0.00     0.212 HD
ENDBRANCH  27  35
ENDBRANCH  26  27
ENDBRANCH   2  26
ENDBRANCH   1   2
BRANCH   1  37
ATOM     37  O   UNL     1      82.486  93.927  88.123  1.00  0.00    -0.461 OA
BRANCH  37  38
ATOM     38  C   UNL     1      83.005  94.966  88.861  1.00  0.00     0.310 C 
ATOM     39  O   UNL     1      83.383  94.884  90.021  1.00  0.00    -0.252 OA
BRANCH  38  40
ATOM     40  C   UNL     1      83.033  96.218  88.017  1.00  0.00     0.158 C 
BRANCH  40  41
ATOM     41  C   UNL     1      81.661  96.785  87.761  1.00  0.00    -0.037 A 
ATOM     42  C   UNL     1      80.717  96.817  88.788  1.00  0.00     0.008 A 
ATOM     43  C   UNL     1      81.333  97.279  86.499  1.00  0.00     0.008 A 
ATOM     44  C   UNL     1      79.446  97.342  88.552  1.00  0.00     0.046 A 
ATOM     45  C   UNL     1      80.063  97.804  86.262  1.00  0.00     0.046 A 
ATOM     46  C   UNL     1      79.119  97.835  87.288  1.00  0.00     0.115 A 
BRANCH  46  47
ATOM     47  O   UNL     1      77.879  98.346  87.058  1.00  0.00    -0.508 OA
ATOM     48  H   UNL     1      77.844  99.256  87.402  1.00  0.00     0.293 HD
ENDBRANCH  46  47
ENDBRANCH  40  41
ENDBRANCH  38  40
ENDBRANCH  37  38
ENDBRANCH   1  37
TORSDOF 10
ENDMDL
MODEL 9
REMARK VINA RESULT:    -5.605     19.031     24.784
REMARK INTER + INTRA:         -11.436
REMARK INTER:                 -10.514
REMARK INTRA:                  -0.923
REMARK UNBOUND:                -1.900
REMARK SMILES C=C(C)[C@]12C[C@@H](C)[C@@]34O[C@](Cc5ccccc5)(O[C@@H]1[C@@H]3C=C(COC(=O)Cc1ccc(O)cc1)C[C@]1(O)C(=O)C(C)=C[C@@H]41)O2
REMARK SMILES IDX 23 1 22 2 21 3 20 4 9 5 8 6 10 7 6 8 18 10 44 11 19 12 5 13
REMARK SMILES IDX 7 14 4 15 11 16 12 17 13 18 17 19 14 20 16 21 15 22 2 23
REMARK SMILES IDX 3 24 1 25 35 26 36 27 43 28 38 29 42 30 39 32 40 33 41 34
REMARK SMILES IDX 37 35 24 37 25 38 26 39 27 40 28 41 29 42 34 43 30 44 33 45
REMARK SMILES IDX 31 46 32 47
REMARK H PARENT 37 36 32 48
REMARK Flexibility Score: 90.00
ROOT
ATOM      1  C   UNL     1      92.820  98.505  70.338  1.00  0.00     0.264 C 
ENDROOT
BRANCH   1   2
ATOM      2  C   UNL     1      94.241  98.627  70.838  1.00  0.00    -0.033 C 
ATOM      3  C   UNL     1      94.488  98.499  72.158  1.00  0.00    -0.015 C 
BRANCH   3   4
ATOM      4  C   UNL     1      95.798  98.653  72.914  1.00  0.00     0.078 C 
ATOM      5  O   UNL     1      96.820  96.405  73.049  1.00  0.00    -0.319 OA
ATOM      6  C   UNL     1      97.013  97.745  72.498  1.00  0.00     0.095 CG0
ATOM      7  C   UNL     1      96.339  96.361  74.406  1.00  0.00     0.289 C 
ATOM      8  C   UNL     1      98.323  98.382  73.120  1.00  0.00     0.023 C 
ATOM      9  G   UNL     1      97.041  97.530  70.956  1.00  0.00     0.000 G0
ATOM     10  O   UNL     1      95.103  97.056  74.540  1.00  0.00    -0.320 OA
ATOM     11  O   UNL     1      97.235  96.988  75.319  1.00  0.00    -0.313 OA
ATOM     12  C   UNL     1      95.564  98.412  74.426  1.00  0.00     0.170 C 
ATOM     13  C   UNL     1      98.031  99.071  74.488  1.00  0.00     0.049 C 
ATOM     14  C   UNL     1      99.515  97.423  73.277  1.00  0.00     0.011 C 
ATOM     15  C   UNL     1      96.885  98.385  75.233  1.00  0.00     0.122 C 
BRANCH   7  16
ATOM     16  C   UNL     1      96.155  94.908  74.798  1.00  0.00     0.135 C 
BRANCH  16  17
ATOM     17  C   UNL     1      94.870  94.684  75.556  1.00  0.00    -0.040 A 
ATOM     18  C   UNL     1      94.908  94.223  76.871  1.00  0.00     0.004 A 
ATOM     19  C   UNL     1      93.645  94.939  74.940  1.00  0.00     0.004 A 
ATOM     20  C   UNL     1      93.719  94.016  77.572  1.00  0.00     0.000 A 
ATOM     21  C   UNL     1      92.457  94.732  75.641  1.00  0.00     0.000 A 
ATOM     22  C   UNL     1      92.494  94.271  76.957  1.00  0.00     0.000 A 
ENDBRANCH  16  17
ENDBRANCH   7  16
BRANCH  15  23
ATOM     23  C   UNL     1      96.706  98.911  76.620  1.00  0.00    -0.046 C 
ATOM     24  C   UNL     1      97.017  97.957  77.735  1.00  0.00     0.042 C 
ATOM     25  C   UNL     1      96.292 100.165  76.855  1.00  0.00     0.010 C 
ENDBRANCH  15  23
ENDBRANCH   3   4
BRANCH   2  26
ATOM     26  C   UNL     1      95.243  98.881  69.728  1.00  0.00     0.078 C 
BRANCH  26  27
ATOM     27  C   UNL     1      96.724  98.783  70.090  1.00  0.00     0.140 C 
ATOM     28  C   UNL     1      97.033  97.543  70.955  1.00  0.00     0.086 CG0
ATOM     29  C   UNL     1      97.604  98.561  68.877  1.00  0.00     0.190 C 
ATOM     30  C   UNL     1      98.261  96.963  70.309  1.00  0.00    -0.010 C 
ATOM     31  G   UNL     1      97.012  97.760  72.496  1.00  0.00     0.000 G0
ATOM     32  O   UNL     1      97.553  99.203  67.839  1.00  0.00    -0.291 OA
ATOM     33  C   UNL     1      98.591  97.493  69.127  1.00  0.00    -0.008 C 
ATOM     34  C   UNL     1      99.667  97.123  68.185  1.00  0.00     0.048 C 
BRANCH  27  35
ATOM     35  O   UNL     1      97.205  99.998  70.639  1.00  0.00    -0.381 OA
ATOM     36  H   UNL     1      97.732  99.791  71.429  1.00  0.00     0.212 HD
ENDBRANCH  27  35
ENDBRANCH  26  27
ENDBRANCH   2  26
ENDBRANCH   1   2
BRANCH   1  37
ATOM     37  O   UNL     1      92.319  99.790  70.038  1.00  0.00    -0.461 OA
BRANCH  37  38
ATOM     38  C   UNL     1      91.690  99.929  68.822  1.00  0.00     0.310 C 
ATOM     39  O   UNL     1      91.033  99.059  68.268  1.00  0.00    -0.252 OA
BRANCH  38  40
ATOM     40  C   UNL     1      91.937 101.317  68.282  1.00  0.00     0.158 C 
BRANCH  40  41
ATOM     41  C   UNL     1      93.392 101.587  67.998  1.00  0.00    -0.037 A 
ATOM     42  C   UNL     1      94.168 102.278  68.929  1.00  0.00     0.008 A 
ATOM     43  C   UNL     1      93.963 101.146  66.805  1.00  0.00     0.008 A 
ATOM     44  C   UNL     1      95.515 102.529  68.665  1.00  0.00     0.046 A 
ATOM     45  C   UNL     1      95.310 101.396  66.541  1.00  0.00     0.046 A 
ATOM     46  C   UNL     1      96.086 102.088  67.471  1.00  0.00     0.115 A 
BRANCH  46  47
ATOM     47  O   UNL     1      97.400 102.333  67.214  1.00  0.00    -0.508 OA
ATOM     48  H   UNL     1      97.520 103.287  67.071  1.00  0.00     0.293 HD
ENDBRANCH  46  47
ENDBRANCH  40  41
ENDBRANCH  38  40
ENDBRANCH  37  38
ENDBRANCH   1  37
TORSDOF 10
ENDMDL
MODEL 10
REMARK VINA RESULT:    -5.551     17.727     22.626
REMARK INTER + INTRA:         -11.346
REMARK INTER:                 -10.859
REMARK INTRA:                  -0.487
REMARK UNBOUND:                -1.900
REMARK SMILES C=C(C)[C@]12C[C@@H](C)[C@@]34O[C@](Cc5ccccc5)(O[C@@H]1[C@@H]3C=C(COC(=O)Cc1ccc(O)cc1)C[C@]1(O)C(=O)C(C)=C[C@@H]41)O2
REMARK SMILES IDX 23 1 22 2 21 3 20 4 9 5 8 6 10 7 6 8 18 10 44 11 19 12 5 13
REMARK SMILES IDX 7 14 4 15 11 16 12 17 13 18 17 19 14 20 16 21 15 22 2 23
REMARK SMILES IDX 3 24 1 25 35 26 36 27 43 28 38 29 42 30 39 32 40 33 41 34
REMARK SMILES IDX 37 35 24 37 25 38 26 39 27 40 28 41 29 42 34 43 30 44 33 45
REMARK SMILES IDX 31 46 32 47
REMARK H PARENT 37 36 32 48
REMARK Flexibility Score: 90.00
ROOT
ATOM      1  C   UNL     1      97.121  95.463  77.301  1.00  0.00     0.264 C 
ENDROOT
BRANCH   1   2
ATOM      2  C   UNL     1      97.184  96.823  76.646  1.00  0.00    -0.033 C 
ATOM      3  C   UNL     1      97.272  96.905  75.303  1.00  0.00    -0.015 C 
BRANCH   3   4
ATOM      4  C   UNL     1      97.424  98.132  74.418  1.00  0.00     0.078 C 
ATOM      5  O   UNL     1      95.144  98.858  73.796  1.00  0.00    -0.319 OA
ATOM      6  C   UNL     1      96.343  99.269  74.524  1.00  0.00     0.095 CG0
ATOM      7  C   UNL     1      95.383  98.228  72.522  1.00  0.00     0.289 C 
ATOM      8  C   UNL     1      96.946 100.569  73.848  1.00  0.00     0.023 C 
ATOM      9  G   UNL     1      95.863  99.442  75.994  1.00  0.00     0.000 G0
ATOM     10  O   UNL     1      96.210  97.076  72.662  1.00  0.00    -0.320 OA
ATOM     11  O   UNL     1      96.067  99.086  71.613  1.00  0.00    -0.313 OA
ATOM     12  C   UNL     1      97.473  97.705  72.930  1.00  0.00     0.170 C 
ATOM     13  C   UNL     1      97.886 100.210  72.657  1.00  0.00     0.049 C 
ATOM     14  C   UNL     1      95.915 101.614  73.386  1.00  0.00     0.011 C 
ATOM     15  C   UNL     1      97.456  98.916  71.965  1.00  0.00     0.122 C 
BRANCH   7  16
ATOM     16  C   UNL     1      94.045  97.831  71.931  1.00  0.00     0.135 C 
BRANCH  16  17
ATOM     17  C   UNL     1      93.296  99.017  71.377  1.00  0.00    -0.040 A 
ATOM     18  C   UNL     1      92.919 100.061  72.221  1.00  0.00     0.004 A 
ATOM     19  C   UNL     1      92.980  99.068  70.020  1.00  0.00     0.004 A 
ATOM     20  C   UNL     1      92.227 101.158  71.708  1.00  0.00     0.000 A 
ATOM     21  C   UNL     1      92.287 100.166  69.507  1.00  0.00     0.000 A 
ATOM     22  C   UNL     1      91.911 101.210  70.351  1.00  0.00     0.000 A 
ENDBRANCH  16  17
ENDBRANCH   7  16
BRANCH  15  23
ATOM     23  C   UNL     1      98.229  98.648  70.715  1.00  0.00    -0.046 C 
ATOM     24  C   UNL     1      98.451  99.824  69.810  1.00  0.00     0.042 C 
ATOM     25  C   UNL     1      98.697  97.427  70.418  1.00  0.00     0.010 C 
ENDBRANCH  15  23
ENDBRANCH   3   4
BRANCH   2  26
ATOM     26  C   UNL     1      97.129  97.967  77.642  1.00  0.00     0.078 C 
BRANCH  26  27
ATOM     27  C   UNL     1      96.966  99.376  77.078  1.00  0.00     0.140 C 
ATOM     28  C   UNL     1      95.875  99.446  75.989  1.00  0.00     0.086 CG0
ATOM     29  C   UNL     1      96.456 100.359  78.111  1.00  0.00     0.190 C 
ATOM     30  C   UNL     1      95.083 100.668  76.364  1.00  0.00    -0.010 C 
ATOM     31  G   UNL     1      96.361  99.272  74.520  1.00  0.00     0.000 G0
ATOM     32  O   UNL     1      96.907 100.499  79.238  1.00  0.00    -0.291 OA
ATOM     33  C   UNL     1      95.366 101.187  77.562  1.00  0.00    -0.008 C 
ATOM     34  C   UNL     1      94.742 102.317  78.281  1.00  0.00     0.048 C 
BRANCH  27  35
ATOM     35  O   UNL     1      98.211  99.922  76.677  1.00  0.00    -0.381 OA
ATOM     36  H   UNL     1      98.072 100.441  75.867  1.00  0.00     0.212 HD
ENDBRANCH  27  35
ENDBRANCH  26  27
ENDBRANCH   2  26
ENDBRANCH   1   2
BRANCH   1  37
ATOM     37  O   UNL     1      96.075  95.450  78.249  1.00  0.00    -0.461 OA
BRANCH  37  38
ATOM     38  C   UNL     1      95.121  94.471  78.089  1.00  0.00     0.310 C 
ATOM     39  O   UNL     1      94.438  94.002  78.988  1.00  0.00    -0.252 OA
BRANCH  38  40
ATOM     40  C   UNL     1      95.051  94.070  76.635  1.00  0.00     0.158 C 
BRANCH  40  41
ATOM     41  C   UNL     1      93.638  93.953  76.125  1.00  0.00    -0.037 A 
ATOM     42  C   UNL     1      93.345  93.081  75.076  1.00  0.00     0.008 A 
ATOM     43  C   UNL     1      92.623  94.716  76.700  1.00  0.00     0.008 A 
ATOM     44  C   UNL     1      92.037  92.973  74.603  1.00  0.00     0.046 A 
ATOM     45  C   UNL     1      91.314  94.607  76.228  1.00  0.00     0.046 A 
ATOM     46  C   UNL     1      91.022  93.736  75.180  1.00  0.00     0.115 A 
BRANCH  46  47
ATOM     47  O   UNL     1      89.746  93.631  74.718  1.00  0.00    -0.508 OA
ATOM     48  H   UNL     1      89.184  94.268  75.193  1.00  0.00     0.293 HD
ENDBRANCH  46  47
ENDBRANCH  40  41
ENDBRANCH  38  40
ENDBRANCH  37  38
ENDBRANCH   1  37
TORSDOF 10
ENDMDL
