MODEL 1
REMARK VINA RESULT:    -6.682      0.000      0.000
REMARK INTER + INTRA:         -11.335
REMARK INTER:                 -10.393
REMARK INTRA:                  -0.942
REMARK UNBOUND:                -0.942
REMARK SMILES CCCCC/C=C/C(=O)CCc1ccc(O)c(OC)c1
REMARK SMILES IDX 6 1 7 2 8 3 9 4 10 5 11 6 12 7 17 8 20 9 15 10 14 11 13 12
REMARK SMILES IDX 18 13 19 14 16 15 5 17 4 18 3 19 2 20 1 21
REMARK H PARENT 16 16
REMARK Flexibility Score: inf
ROOT
ATOM      1  C   UNL     1      90.898  92.847  73.932  1.00  0.00    -0.023 C 
ATOM      2  C   UNL     1      91.206  93.695  74.921  1.00  0.00     0.043 C 
ENDROOT
BRANCH   2   3
ATOM      3  C   UNL     1      92.398  93.438  75.774  1.00  0.00     0.155 C 
ATOM      4  O   UNL     1      93.540  93.460  75.318  1.00  0.00    -0.295 OA
BRANCH   3   5
ATOM      5  C   UNL     1      92.129  93.093  77.226  1.00  0.00     0.085 C 
BRANCH   5   6
ATOM      6  C   UNL     1      90.644  92.822  77.466  1.00  0.00     0.044 C 
BRANCH   6   7
ATOM      7  C   UNL     1      90.341  91.357  77.680  1.00  0.00    -0.044 A 
ATOM      8  C   UNL     1      89.933  89.171  76.780  1.00  0.00     0.160 A 
ATOM      9  C   UNL     1      90.212  90.523  76.581  1.00  0.00     0.054 A 
ATOM     10  C   UNL     1      89.787  88.670  78.073  1.00  0.00     0.157 A 
ATOM     11  C   UNL     1      89.920  89.524  79.170  1.00  0.00     0.050 A 
ATOM     12  C   UNL     1      90.199  90.876  78.971  1.00  0.00     0.008 A 
BRANCH   8  13
ATOM     13  O   UNL     1      89.805  88.348  75.701  1.00  0.00    -0.493 OA
ATOM     14  C   UNL     1      90.979  87.666  75.263  1.00  0.00     0.278 C 
ENDBRANCH   8  13
BRANCH  10  15
ATOM     15  O   UNL     1      89.516  87.352  78.280  1.00  0.00    -0.504 OA
ATOM     16  H   UNL     1      89.732  87.136  79.203  1.00  0.00     0.293 HD
ENDBRANCH  10  15
ENDBRANCH   6   7
ENDBRANCH   5   6
ENDBRANCH   3   5
ENDBRANCH   2   3
BRANCH   1  17
ATOM     17  C   UNL     1      89.714  93.035  73.029  1.00  0.00     0.027 C 
BRANCH  17  18
ATOM     18  C   UNL     1      88.684  91.906  73.143  1.00  0.00     0.004 C 
BRANCH  18  19
ATOM     19  C   UNL     1      88.665  90.968  71.932  1.00  0.00     0.000 C 
BRANCH  19  20
ATOM     20  C   UNL     1      89.986  91.032  71.163  1.00  0.00    -0.003 C 
ATOM     21  C   UNL     1      90.295  89.713  70.475  1.00  0.00     0.004 C 
ENDBRANCH  19  20
ENDBRANCH  18  19
ENDBRANCH  17  18
ENDBRANCH   1  17
TORSDOF 10
ENDMDL
MODEL 2
REMARK VINA RESULT:    -6.377      2.567      5.640
REMARK INTER + INTRA:         -10.861
REMARK INTER:                 -10.068
REMARK INTRA:                  -0.793
REMARK UNBOUND:                -0.942
REMARK SMILES CCCCC/C=C/C(=O)CCc1ccc(O)c(OC)c1
REMARK SMILES IDX 6 1 7 2 8 3 9 4 10 5 11 6 12 7 17 8 20 9 15 10 14 11 13 12
REMARK SMILES IDX 18 13 19 14 16 15 5 17 4 18 3 19 2 20 1 21
REMARK H PARENT 16 16
REMARK Flexibility Score: inf
ROOT
ATOM      1  C   UNL     1      93.915  94.229  76.186  1.00  0.00    -0.023 C 
ATOM      2  C   UNL     1      92.628  94.516  76.413  1.00  0.00     0.043 C 
ENDROOT
BRANCH   2   3
ATOM      3  C   UNL     1      91.572  93.931  75.542  1.00  0.00     0.155 C 
ATOM      4  O   UNL     1      91.833  93.443  74.445  1.00  0.00    -0.295 OA
BRANCH   3   5
ATOM      5  C   UNL     1      90.148  94.014  76.057  1.00  0.00     0.085 C 
BRANCH   5   6
ATOM      6  C   UNL     1      89.890  92.974  77.148  1.00  0.00     0.044 C 
BRANCH   6   7
ATOM      7  C   UNL     1      89.743  91.574  76.601  1.00  0.00    -0.044 A 
ATOM      8  C   UNL     1      88.982  90.090  74.875  1.00  0.00     0.160 A 
ATOM      9  C   UNL     1      89.117  91.384  75.379  1.00  0.00     0.054 A 
ATOM     10  C   UNL     1      89.474  89.004  75.598  1.00  0.00     0.157 A 
ATOM     11  C   UNL     1      90.101  89.211  76.827  1.00  0.00     0.050 A 
ATOM     12  C   UNL     1      90.236  90.505  77.332  1.00  0.00     0.008 A 
BRANCH   8  13
ATOM     13  O   UNL     1      88.367  89.901  73.674  1.00  0.00    -0.493 OA
ATOM     14  C   UNL     1      88.011  91.068  72.936  1.00  0.00     0.278 C 
ENDBRANCH   8  13
BRANCH  10  15
ATOM     15  O   UNL     1      89.348  87.736  75.116  1.00  0.00    -0.504 OA
ATOM     16  H   UNL     1      90.203  87.467  74.739  1.00  0.00     0.293 HD
ENDBRANCH  10  15
ENDBRANCH   6   7
ENDBRANCH   5   6
ENDBRANCH   3   5
ENDBRANCH   2   3
BRANCH   1  17
ATOM     17  C   UNL     1      95.038  94.778  77.017  1.00  0.00     0.027 C 
BRANCH  17  18
ATOM     18  C   UNL     1      95.763  93.704  77.835  1.00  0.00     0.004 C 
BRANCH  18  19
ATOM     19  C   UNL     1      96.091  94.139  79.267  1.00  0.00     0.000 C 
BRANCH  19  20
ATOM     20  C   UNL     1      94.999  95.050  79.830  1.00  0.00    -0.003 C 
ATOM     21  C   UNL     1      95.493  95.831  81.037  1.00  0.00     0.004 C 
ENDBRANCH  19  20
ENDBRANCH  18  19
ENDBRANCH  17  18
ENDBRANCH   1  17
TORSDOF 10
ENDMDL
MODEL 3
REMARK VINA RESULT:    -6.271      4.006      6.930
REMARK INTER + INTRA:         -10.696
REMARK INTER:                  -9.436
REMARK INTRA:                  -1.260
REMARK UNBOUND:                -0.942
REMARK SMILES CCCCC/C=C/C(=O)CCc1ccc(O)c(OC)c1
REMARK SMILES IDX 6 1 7 2 8 3 9 4 10 5 11 6 12 7 17 8 20 9 15 10 14 11 13 12
REMARK SMILES IDX 18 13 19 14 16 15 5 17 4 18 3 19 2 20 1 21
REMARK H PARENT 16 16
REMARK Flexibility Score: inf
ROOT
ATOM      1  C   UNL     1      92.436  93.571  77.087  1.00  0.00    -0.023 C 
ATOM      2  C   UNL     1      92.995  93.512  75.871  1.00  0.00     0.043 C 
ENDROOT
BRANCH   2   3
ATOM      3  C   UNL     1      93.981  94.547  75.458  1.00  0.00     0.155 C 
ATOM      4  O   UNL     1      93.643  95.701  75.204  1.00  0.00    -0.295 OA
BRANCH   3   5
ATOM      5  C   UNL     1      95.420  94.091  75.314  1.00  0.00     0.085 C 
BRANCH   5   6
ATOM      6  C   UNL     1      95.932  93.453  76.606  1.00  0.00     0.044 C 
BRANCH   6   7
ATOM      7  C   UNL     1      96.054  94.441  77.741  1.00  0.00    -0.044 A 
ATOM      8  C   UNL     1      95.604  95.051  80.018  1.00  0.00     0.160 A 
ATOM      9  C   UNL     1      95.490  94.138  78.970  1.00  0.00     0.054 A 
ATOM     10  C   UNL     1      96.279  96.256  79.824  1.00  0.00     0.157 A 
ATOM     11  C   UNL     1      96.842  96.547  78.581  1.00  0.00     0.050 A 
ATOM     12  C   UNL     1      96.728  95.634  77.533  1.00  0.00     0.008 A 
BRANCH   8  13
ATOM     13  O   UNL     1      95.050  94.755  81.227  1.00  0.00    -0.493 OA
ATOM     14  C   UNL     1      95.690  93.744  82.003  1.00  0.00     0.278 C 
ENDBRANCH   8  13
BRANCH  10  15
ATOM     15  O   UNL     1      96.397  97.155  80.840  1.00  0.00    -0.504 OA
ATOM     16  H   UNL     1      95.578  97.679  80.881  1.00  0.00     0.293 HD
ENDBRANCH  10  15
ENDBRANCH   6   7
ENDBRANCH   5   6
ENDBRANCH   3   5
ENDBRANCH   2   3
BRANCH   1  17
ATOM     17  C   UNL     1      91.434  92.567  77.578  1.00  0.00     0.027 C 
BRANCH  17  18
ATOM     18  C   UNL     1      90.111  92.610  76.806  1.00  0.00     0.004 C 
BRANCH  18  19
ATOM     19  C   UNL     1      89.593  91.226  76.399  1.00  0.00     0.000 C 
BRANCH  19  20
ATOM     20  C   UNL     1      90.742  90.310  75.975  1.00  0.00    -0.003 C 
ATOM     21  C   UNL     1      91.111  90.518  74.515  1.00  0.00     0.004 C 
ENDBRANCH  19  20
ENDBRANCH  18  19
ENDBRANCH  17  18
ENDBRANCH   1  17
TORSDOF 10
ENDMDL
MODEL 4
REMARK VINA RESULT:    -6.256      3.088      6.139
REMARK INTER + INTRA:         -10.673
REMARK INTER:                  -9.855
REMARK INTRA:                  -0.818
REMARK UNBOUND:                -0.942
REMARK SMILES CCCCC/C=C/C(=O)CCc1ccc(O)c(OC)c1
REMARK SMILES IDX 6 1 7 2 8 3 9 4 10 5 11 6 12 7 17 8 20 9 15 10 14 11 13 12
REMARK SMILES IDX 18 13 19 14 16 15 5 17 4 18 3 19 2 20 1 21
REMARK H PARENT 16 16
REMARK Flexibility Score: inf
ROOT
ATOM      1  C   UNL     1      94.357  94.476  77.384  1.00  0.00    -0.023 C 
ATOM      2  C   UNL     1      94.399  93.982  76.141  1.00  0.00     0.043 C 
ENDROOT
BRANCH   2   3
ATOM      3  C   UNL     1      93.401  94.429  75.131  1.00  0.00     0.155 C 
ATOM      4  O   UNL     1      93.332  95.599  74.760  1.00  0.00    -0.295 OA
BRANCH   3   5
ATOM      5  C   UNL     1      92.436  93.375  74.622  1.00  0.00     0.085 C 
BRANCH   5   6
ATOM      6  C   UNL     1      91.084  93.471  75.330  1.00  0.00     0.044 C 
BRANCH   6   7
ATOM      7  C   UNL     1      90.792  92.274  76.203  1.00  0.00    -0.044 A 
ATOM      8  C   UNL     1      90.551  89.899  76.453  1.00  0.00     0.160 A 
ATOM      9  C   UNL     1      90.821  91.005  75.646  1.00  0.00     0.054 A 
ATOM     10  C   UNL     1      90.256  90.076  77.804  1.00  0.00     0.157 A 
ATOM     11  C   UNL     1      90.230  91.360  78.350  1.00  0.00     0.050 A 
ATOM     12  C   UNL     1      90.500  92.466  77.543  1.00  0.00     0.008 A 
BRANCH   8  13
ATOM     13  O   UNL     1      90.579  88.650  75.908  1.00  0.00    -0.493 OA
ATOM     14  C   UNL     1      89.506  88.300  75.035  1.00  0.00     0.278 C 
ENDBRANCH   8  13
BRANCH  10  15
ATOM     15  O   UNL     1      89.991  89.004  78.602  1.00  0.00    -0.504 OA
ATOM     16  H   UNL     1      89.050  88.776  78.505  1.00  0.00     0.293 HD
ENDBRANCH  10  15
ENDBRANCH   6   7
ENDBRANCH   5   6
ENDBRANCH   3   5
ENDBRANCH   2   3
BRANCH   1  17
ATOM     17  C   UNL     1      95.326  94.076  78.459  1.00  0.00     0.027 C 
BRANCH  17  18
ATOM     18  C   UNL     1      95.729  95.241  79.369  1.00  0.00     0.004 C 
BRANCH  18  19
ATOM     19  C   UNL     1      95.394  95.010  80.846  1.00  0.00     0.000 C 
BRANCH  19  20
ATOM     20  C   UNL     1      96.632  94.578  81.632  1.00  0.00    -0.003 C 
ATOM     21  C   UNL     1      97.869  95.343  81.189  1.00  0.00     0.004 C 
ENDBRANCH  19  20
ENDBRANCH  18  19
ENDBRANCH  17  18
ENDBRANCH   1  17
TORSDOF 10
ENDMDL
MODEL 5
REMARK VINA RESULT:    -6.141      2.952      5.676
REMARK INTER + INTRA:         -10.493
REMARK INTER:                  -9.591
REMARK INTRA:                  -0.902
REMARK UNBOUND:                -0.942
REMARK SMILES CCCCC/C=C/C(=O)CCc1ccc(O)c(OC)c1
REMARK SMILES IDX 6 1 7 2 8 3 9 4 10 5 11 6 12 7 17 8 20 9 15 10 14 11 13 12
REMARK SMILES IDX 18 13 19 14 16 15 5 17 4 18 3 19 2 20 1 21
REMARK H PARENT 16 16
REMARK Flexibility Score: inf
ROOT
ATOM      1  C   UNL     1      93.608  94.356  76.058  1.00  0.00    -0.023 C 
ATOM      2  C   UNL     1      92.692  93.725  76.802  1.00  0.00     0.043 C 
ENDROOT
BRANCH   2   3
ATOM      3  C   UNL     1      91.252  94.075  76.660  1.00  0.00     0.155 C 
ATOM      4  O   UNL     1      90.886  95.213  76.375  1.00  0.00    -0.295 OA
BRANCH   3   5
ATOM      5  C   UNL     1      90.256  92.966  76.938  1.00  0.00     0.085 C 
BRANCH   5   6
ATOM      6  C   UNL     1      90.808  91.604  76.511  1.00  0.00     0.044 C 
BRANCH   6   7
ATOM      7  C   UNL     1      90.617  91.329  75.038  1.00  0.00    -0.044 A 
ATOM      8  C   UNL     1      89.255  90.511  73.240  1.00  0.00     0.160 A 
ATOM      9  C   UNL     1      89.430  90.764  74.600  1.00  0.00     0.054 A 
ATOM     10  C   UNL     1      90.269  90.825  72.335  1.00  0.00     0.157 A 
ATOM     11  C   UNL     1      91.459  91.394  72.791  1.00  0.00     0.050 A 
ATOM     12  C   UNL     1      91.634  91.647  74.152  1.00  0.00     0.008 A 
BRANCH   8  13
ATOM     13  O   UNL     1      88.089  89.955  72.807  1.00  0.00    -0.493 OA
ATOM     14  C   UNL     1      86.918  90.767  72.878  1.00  0.00     0.278 C 
ENDBRANCH   8  13
BRANCH  10  15
ATOM     15  O   UNL     1      90.109  90.583  71.004  1.00  0.00    -0.504 OA
ATOM     16  H   UNL     1      89.164  90.431  70.832  1.00  0.00     0.293 HD
ENDBRANCH  10  15
ENDBRANCH   6   7
ENDBRANCH   5   6
ENDBRANCH   3   5
ENDBRANCH   2   3
BRANCH   1  17
ATOM     17  C   UNL     1      95.078  94.062  76.143  1.00  0.00     0.027 C 
BRANCH  17  18
ATOM     18  C   UNL     1      95.920  94.923  75.195  1.00  0.00     0.004 C 
BRANCH  18  19
ATOM     19  C   UNL     1      95.591  96.417  75.269  1.00  0.00     0.000 C 
BRANCH  19  20
ATOM     20  C   UNL     1      95.422  97.015  73.872  1.00  0.00    -0.003 C 
ATOM     21  C   UNL     1      94.152  97.845  73.771  1.00  0.00     0.004 C 
ENDBRANCH  19  20
ENDBRANCH  18  19
ENDBRANCH  17  18
ENDBRANCH   1  17
TORSDOF 10
ENDMDL
MODEL 6
REMARK VINA RESULT:    -5.991      3.149      6.364
REMARK INTER + INTRA:         -10.260
REMARK INTER:                  -9.475
REMARK INTRA:                  -0.785
REMARK UNBOUND:                -0.942
REMARK SMILES CCCCC/C=C/C(=O)CCc1ccc(O)c(OC)c1
REMARK SMILES IDX 6 1 7 2 8 3 9 4 10 5 11 6 12 7 17 8 20 9 15 10 14 11 13 12
REMARK SMILES IDX 18 13 19 14 16 15 5 17 4 18 3 19 2 20 1 21
REMARK H PARENT 16 16
REMARK Flexibility Score: inf
ROOT
ATOM      1  C   UNL     1      94.699  94.434  78.038  1.00  0.00    -0.023 C 
ATOM      2  C   UNL     1      94.149  94.493  76.819  1.00  0.00     0.043 C 
ENDROOT
BRANCH   2   3
ATOM      3  C   UNL     1      92.698  94.214  76.645  1.00  0.00     0.155 C 
ATOM      4  O   UNL     1      91.990  94.896  75.906  1.00  0.00    -0.295 OA
BRANCH   3   5
ATOM      5  C   UNL     1      92.124  93.078  77.469  1.00  0.00     0.085 C 
BRANCH   5   6
ATOM      6  C   UNL     1      90.598  93.040  77.376  1.00  0.00     0.044 C 
BRANCH   6   7
ATOM      7  C   UNL     1      90.093  91.958  76.450  1.00  0.00    -0.044 A 
ATOM      8  C   UNL     1      89.619  89.644  76.029  1.00  0.00     0.160 A 
ATOM      9  C   UNL     1      90.085  90.642  76.884  1.00  0.00     0.054 A 
ATOM     10  C   UNL     1      89.167  89.974  74.751  1.00  0.00     0.157 A 
ATOM     11  C   UNL     1      89.182  91.304  74.328  1.00  0.00     0.050 A 
ATOM     12  C   UNL     1      89.649  92.302  75.184  1.00  0.00     0.008 A 
BRANCH   8  13
ATOM     13  O   UNL     1      89.610  88.349  76.453  1.00  0.00    -0.493 OA
ATOM     14  C   UNL     1      90.875  87.730  76.674  1.00  0.00     0.278 C 
ENDBRANCH   8  13
BRANCH  10  15
ATOM     15  O   UNL     1      88.709  89.008  73.907  1.00  0.00    -0.504 OA
ATOM     16  H   UNL     1      89.463  88.457  73.636  1.00  0.00     0.293 HD
ENDBRANCH  10  15
ENDBRANCH   6   7
ENDBRANCH   5   6
ENDBRANCH   3   5
ENDBRANCH   2   3
BRANCH   1  17
ATOM     17  C   UNL     1      96.154  94.701  78.296  1.00  0.00     0.027 C 
BRANCH  17  18
ATOM     18  C   UNL     1      96.389  95.863  79.267  1.00  0.00     0.004 C 
BRANCH  18  19
ATOM     19  C   UNL     1      95.640  95.716  80.595  1.00  0.00     0.000 C 
BRANCH  19  20
ATOM     20  C   UNL     1      96.454  94.900  81.600  1.00  0.00    -0.003 C 
ATOM     21  C   UNL     1      95.802  93.556  81.885  1.00  0.00     0.004 C 
ENDBRANCH  19  20
ENDBRANCH  18  19
ENDBRANCH  17  18
ENDBRANCH   1  17
TORSDOF 10
ENDMDL
MODEL 7
REMARK VINA RESULT:    -5.795      3.480      6.777
REMARK INTER + INTRA:          -9.956
REMARK INTER:                  -9.143
REMARK INTRA:                  -0.813
REMARK UNBOUND:                -0.942
REMARK SMILES CCCCC/C=C/C(=O)CCc1ccc(O)c(OC)c1
REMARK SMILES IDX 6 1 7 2 8 3 9 4 10 5 11 6 12 7 17 8 20 9 15 10 14 11 13 12
REMARK SMILES IDX 18 13 19 14 16 15 5 17 4 18 3 19 2 20 1 21
REMARK H PARENT 16 16
REMARK Flexibility Score: inf
ROOT
ATOM      1  C   UNL     1      94.836  94.402  78.863  1.00  0.00    -0.023 C 
ATOM      2  C   UNL     1      94.845  94.049  77.572  1.00  0.00     0.043 C 
ENDROOT
BRANCH   2   3
ATOM      3  C   UNL     1      93.564  93.756  76.874  1.00  0.00     0.155 C 
ATOM      4  O   UNL     1      92.518  93.566  77.490  1.00  0.00    -0.295 OA
BRANCH   3   5
ATOM      5  C   UNL     1      93.627  93.652  75.362  1.00  0.00     0.085 C 
BRANCH   5   6
ATOM      6  C   UNL     1      92.328  94.139  74.718  1.00  0.00     0.044 C 
BRANCH   6   7
ATOM      7  C   UNL     1      91.481  93.012  74.178  1.00  0.00    -0.044 A 
ATOM      8  C   UNL     1      91.014  90.664  74.012  1.00  0.00     0.160 A 
ATOM      9  C   UNL     1      91.797  91.705  74.511  1.00  0.00     0.054 A 
ATOM     10  C   UNL     1      89.926  90.943  73.186  1.00  0.00     0.157 A 
ATOM     11  C   UNL     1      89.620  92.265  72.859  1.00  0.00     0.050 A 
ATOM     12  C   UNL     1      90.403  93.306  73.358  1.00  0.00     0.008 A 
BRANCH   8  13
ATOM     13  O   UNL     1      91.323  89.377  74.338  1.00  0.00    -0.493 OA
ATOM     14  C   UNL     1      90.801  88.877  75.567  1.00  0.00     0.278 C 
ENDBRANCH   8  13
BRANCH  10  15
ATOM     15  O   UNL     1      89.153  89.935  72.693  1.00  0.00    -0.504 OA
ATOM     16  H   UNL     1      89.122  90.020  71.725  1.00  0.00     0.293 HD
ENDBRANCH  10  15
ENDBRANCH   6   7
ENDBRANCH   5   6
ENDBRANCH   3   5
ENDBRANCH   2   3
BRANCH   1  17
ATOM     17  C   UNL     1      96.083  94.713  79.638  1.00  0.00     0.027 C 
BRANCH  17  18
ATOM     18  C   UNL     1      96.319  96.216  79.821  1.00  0.00     0.004 C 
BRANCH  18  19
ATOM     19  C   UNL     1      97.522  96.748  79.035  1.00  0.00     0.000 C 
BRANCH  19  20
ATOM     20  C   UNL     1      97.167  96.968  77.564  1.00  0.00    -0.003 C 
ATOM     21  C   UNL     1      97.933  96.018  76.658  1.00  0.00     0.004 C 
ENDBRANCH  19  20
ENDBRANCH  18  19
ENDBRANCH  17  18
ENDBRANCH   1  17
TORSDOF 10
ENDMDL
MODEL 8
REMARK VINA RESULT:    -5.770      3.845      5.605
REMARK INTER + INTRA:          -9.917
REMARK INTER:                  -9.218
REMARK INTRA:                  -0.699
REMARK UNBOUND:                -0.942
REMARK SMILES CCCCC/C=C/C(=O)CCc1ccc(O)c(OC)c1
REMARK SMILES IDX 6 1 7 2 8 3 9 4 10 5 11 6 12 7 17 8 20 9 15 10 14 11 13 12
REMARK SMILES IDX 18 13 19 14 16 15 5 17 4 18 3 19 2 20 1 21
REMARK H PARENT 16 16
REMARK Flexibility Score: inf
ROOT
ATOM      1  C   UNL     1      95.750  96.819  75.139  1.00  0.00    -0.023 C 
ATOM      2  C   UNL     1      96.128  95.599  74.739  1.00  0.00     0.043 C 
ENDROOT
BRANCH   2   3
ATOM      3  C   UNL     1      95.550  94.393  75.392  1.00  0.00     0.155 C 
ATOM      4  O   UNL     1      96.260  93.489  75.830  1.00  0.00    -0.295 OA
BRANCH   3   5
ATOM      5  C   UNL     1      94.037  94.310  75.442  1.00  0.00     0.085 C 
BRANCH   5   6
ATOM      6  C   UNL     1      93.559  93.665  76.743  1.00  0.00     0.044 C 
BRANCH   6   7
ATOM      7  C   UNL     1      92.227  92.968  76.598  1.00  0.00    -0.044 A 
ATOM      8  C   UNL     1      90.473  92.116  75.199  1.00  0.00     0.160 A 
ATOM      9  C   UNL     1      91.703  92.761  75.332  1.00  0.00     0.054 A 
ATOM     10  C   UNL     1      89.783  91.688  76.333  1.00  0.00     0.157 A 
ATOM     11  C   UNL     1      90.324  91.904  77.601  1.00  0.00     0.050 A 
ATOM     12  C   UNL     1      91.554  92.548  77.734  1.00  0.00     0.008 A 
BRANCH   8  13
ATOM     13  O   UNL     1      89.956  91.911  73.955  1.00  0.00    -0.493 OA
ATOM     14  C   UNL     1      90.798  91.270  73.000  1.00  0.00     0.278 C 
ENDBRANCH   8  13
BRANCH  10  15
ATOM     15  O   UNL     1      88.581  91.057  76.216  1.00  0.00    -0.504 OA
ATOM     16  H   UNL     1      88.547  90.341  76.873  1.00  0.00     0.293 HD
ENDBRANCH  10  15
ENDBRANCH   6   7
ENDBRANCH   5   6
ENDBRANCH   3   5
ENDBRANCH   2   3
BRANCH   1  17
ATOM     17  C   UNL     1      96.286  98.084  74.532  1.00  0.00     0.027 C 
BRANCH  17  18
ATOM     18  C   UNL     1      95.184  99.030  74.043  1.00  0.00     0.004 C 
BRANCH  18  19
ATOM     19  C   UNL     1      93.955  98.305  73.487  1.00  0.00     0.000 C 
BRANCH  19  20
ATOM     20  C   UNL     1      93.161  99.209  72.543  1.00  0.00    -0.003 C 
ATOM     21  C   UNL     1      93.118  98.641  71.133  1.00  0.00     0.004 C 
ENDBRANCH  19  20
ENDBRANCH  18  19
ENDBRANCH  17  18
ENDBRANCH   1  17
TORSDOF 10
ENDMDL
MODEL 9
REMARK VINA RESULT:    -5.668      3.802      6.098
REMARK INTER + INTRA:          -9.759
REMARK INTER:                  -9.211
REMARK INTRA:                  -0.548
REMARK UNBOUND:                -0.942
REMARK SMILES CCCCC/C=C/C(=O)CCc1ccc(O)c(OC)c1
REMARK SMILES IDX 6 1 7 2 8 3 9 4 10 5 11 6 12 7 17 8 20 9 15 10 14 11 13 12
REMARK SMILES IDX 18 13 19 14 16 15 5 17 4 18 3 19 2 20 1 21
REMARK H PARENT 16 16
REMARK Flexibility Score: inf
ROOT
ATOM      1  C   UNL     1      94.690  95.838  75.207  1.00  0.00    -0.023 C 
ATOM      2  C   UNL     1      94.826  94.521  75.406  1.00  0.00     0.043 C 
ENDROOT
BRANCH   2   3
ATOM      3  C   UNL     1      93.645  93.704  75.795  1.00  0.00     0.155 C 
ATOM      4  O   UNL     1      93.428  93.392  76.965  1.00  0.00    -0.295 OA
BRANCH   3   5
ATOM      5  C   UNL     1      92.748  93.230  74.668  1.00  0.00     0.085 C 
BRANCH   5   6
ATOM      6  C   UNL     1      91.314  93.727  74.852  1.00  0.00     0.044 C 
BRANCH   6   7
ATOM      7  C   UNL     1      90.300  92.882  74.117  1.00  0.00    -0.044 A 
ATOM      8  C   UNL     1      88.988  90.879  73.968  1.00  0.00     0.160 A 
ATOM      9  C   UNL     1      89.925  91.658  74.647  1.00  0.00     0.054 A 
ATOM     10  C   UNL     1      88.439  91.332  72.769  1.00  0.00     0.157 A 
ATOM     11  C   UNL     1      88.828  92.567  72.248  1.00  0.00     0.050 A 
ATOM     12  C   UNL     1      89.765  93.347  72.927  1.00  0.00     0.008 A 
BRANCH   8  13
ATOM     13  O   UNL     1      88.617  89.675  74.488  1.00  0.00    -0.493 OA
ATOM     14  C   UNL     1      89.590  88.632  74.467  1.00  0.00     0.278 C 
ENDBRANCH   8  13
BRANCH  10  15
ATOM     15  O   UNL     1      87.524  90.581  72.098  1.00  0.00    -0.504 OA
ATOM     16  H   UNL     1      87.993  90.052  71.429  1.00  0.00     0.293 HD
ENDBRANCH  10  15
ENDBRANCH   6   7
ENDBRANCH   5   6
ENDBRANCH   3   5
ENDBRANCH   2   3
BRANCH   1  17
ATOM     17  C   UNL     1      95.831  96.730  74.814  1.00  0.00     0.027 C 
BRANCH  17  18
ATOM     18  C   UNL     1      96.879  96.021  73.949  1.00  0.00     0.004 C 
BRANCH  18  19
ATOM     19  C   UNL     1      97.370  96.862  72.766  1.00  0.00     0.000 C 
BRANCH  19  20
ATOM     20  C   UNL     1      97.689  95.981  71.558  1.00  0.00    -0.003 C 
ATOM     21  C   UNL     1      99.093  96.241  71.035  1.00  0.00     0.004 C 
ENDBRANCH  19  20
ENDBRANCH  18  19
ENDBRANCH  17  18
ENDBRANCH   1  17
TORSDOF 10
ENDMDL
MODEL 10
REMARK VINA RESULT:    -5.608     24.169     26.427
REMARK INTER + INTRA:          -9.664
REMARK INTER:                  -8.407
REMARK INTRA:                  -1.258
REMARK UNBOUND:                -0.942
REMARK SMILES CCCCC/C=C/C(=O)CCc1ccc(O)c(OC)c1
REMARK SMILES IDX 6 1 7 2 8 3 9 4 10 5 11 6 12 7 17 8 20 9 15 10 14 11 13 12
REMARK SMILES IDX 18 13 19 14 16 15 5 17 4 18 3 19 2 20 1 21
REMARK H PARENT 16 16
REMARK Flexibility Score: inf
ROOT
ATOM      1  C   UNL     1      80.502  65.560  71.815  1.00  0.00    -0.023 C 
ATOM      2  C   UNL     1      80.145  65.470  73.102  1.00  0.00     0.043 C 
ENDROOT
BRANCH   2   3
ATOM      3  C   UNL     1      80.458  64.237  73.874  1.00  0.00     0.155 C 
ATOM      4  O   UNL     1      79.683  63.283  73.916  1.00  0.00    -0.295 OA
BRANCH   3   5
ATOM      5  C   UNL     1      81.760  64.238  74.651  1.00  0.00     0.085 C 
BRANCH   5   6
ATOM      6  C   UNL     1      81.587  64.891  76.024  1.00  0.00     0.044 C 
BRANCH   6   7
ATOM      7  C   UNL     1      82.806  65.667  76.463  1.00  0.00    -0.044 A 
ATOM      8  C   UNL     1      85.065  65.697  77.272  1.00  0.00     0.160 A 
ATOM      9  C   UNL     1      83.939  64.980  76.867  1.00  0.00     0.054 A 
ATOM     10  C   UNL     1      85.043  67.091  77.268  1.00  0.00     0.157 A 
ATOM     11  C   UNL     1      83.893  67.769  76.859  1.00  0.00     0.050 A 
ATOM     12  C   UNL     1      82.768  67.052  76.454  1.00  0.00     0.008 A 
BRANCH   8  13
ATOM     13  O   UNL     1      86.181  65.024  77.670  1.00  0.00    -0.493 OA
ATOM     14  C   UNL     1      87.023  64.501  76.644  1.00  0.00     0.278 C 
ENDBRANCH   8  13
BRANCH  10  15
ATOM     15  O   UNL     1      86.135  67.803  77.661  1.00  0.00    -0.504 OA
ATOM     16  H   UNL     1      85.932  68.232  78.510  1.00  0.00     0.293 HD
ENDBRANCH  10  15
ENDBRANCH   6   7
ENDBRANCH   5   6
ENDBRANCH   3   5
ENDBRANCH   2   3
BRANCH   1  17
ATOM     17  C   UNL     1      80.223  66.768  70.968  1.00  0.00     0.027 C 
BRANCH  17  18
ATOM     18  C   UNL     1      81.378  67.775  70.958  1.00  0.00     0.004 C 
BRANCH  18  19
ATOM     19  C   UNL     1      82.743  67.141  70.675  1.00  0.00     0.000 C 
BRANCH  19  20
ATOM     20  C   UNL     1      83.782  67.585  71.706  1.00  0.00    -0.003 C 
ATOM     21  C   UNL     1      83.127  68.001  73.013  1.00  0.00     0.004 C 
ENDBRANCH  19  20
ENDBRANCH  18  19
ENDBRANCH  17  18
ENDBRANCH   1  17
TORSDOF 10
ENDMDL
