MODEL 1
REMARK VINA RESULT:    -7.232      0.000      0.000
REMARK INTER + INTRA:         -13.718
REMARK INTER:                 -12.728
REMARK INTRA:                  -0.990
REMARK UNBOUND:                -0.990
REMARK SMILES C=C(C)[C@]12C[C@@H](C)[C@@]34O[C@](Cc5ccccc5)(O[C@@H]1[C@@H]3C=C(COC(=O)Cc1ccc(O)c(OC)c1)C[C@]1(O)C(=O)C(C)=C[C@@H]41)O2
REMARK SMILES IDX 23 1 22 2 21 3 20 4 9 5 8 6 10 7 6 8 18 9 46 10 19 11 5 12
REMARK SMILES IDX 7 13 4 14 45 15 38 16 44 17 40 18 42 20 41 21 43 22 39 23
REMARK SMILES IDX 11 25 12 26 13 27 17 28 14 29 16 30 15 31 2 32 3 33 1 34
REMARK SMILES IDX 37 35 24 37 25 38 26 39 27 40 28 41 36 42 29 43 33 44 30 45
REMARK SMILES IDX 31 46 34 47 35 48 32 49
REMARK H PARENT 39 24 32 50
REMARK Flexibility Score: 90.00
ROOT
ATOM      1  C   UNL     1      96.197  81.664  83.962  1.00  0.00     0.264 C 
ENDROOT
BRANCH   1   2
ATOM      2  C   UNL     1      94.943  82.051  84.710  1.00  0.00    -0.033 C 
ATOM      3  C   UNL     1      93.834  81.298  84.572  1.00  0.00    -0.015 C 
BRANCH   3   4
ATOM      4  C   UNL     1      92.443  81.514  85.147  1.00  0.00     0.078 C 
ATOM      5  O   UNL     1      92.350  80.280  87.289  1.00  0.00    -0.319 OA
ATOM      6  C   UNL     1      92.288  81.620  86.710  1.00  0.00     0.095 C 
ATOM      7  C   UNL     1      91.617  79.265  86.575  1.00  0.00     0.289 C 
ATOM      8  C   UNL     1      90.866  82.253  87.008  1.00  0.00     0.023 C 
ATOM      9  O   UNL     1      92.057  79.164  85.223  1.00  0.00    -0.320 OA
ATOM     10  O   UNL     1      90.223  79.553  86.506  1.00  0.00    -0.313 OA
ATOM     11  C   UNL     1      91.501  80.374  84.686  1.00  0.00     0.170 C 
ATOM     12  C   UNL     1      89.814  81.827  85.938  1.00  0.00     0.049 C 
ATOM     13  C   UNL     1      90.305  81.982  88.414  1.00  0.00     0.011 C 
ATOM     14  C   UNL     1      90.114  80.438  85.373  1.00  0.00     0.122 C 
BRANCH   6  15
ATOM     15  C   UNL     1      93.499  82.370  87.335  1.00  0.00     0.086 C 
ATOM     16  C   UNL     1      93.983  83.626  86.582  1.00  0.00     0.140 CG0
ATOM     17  C   UNL     1      93.424  82.827  88.765  1.00  0.00    -0.010 C 
ATOM     18  C   UNL     1      94.441  84.527  87.710  1.00  0.00     0.190 C 
ATOM     19  G   UNL     1      95.105  83.310  85.594  1.00  0.00     0.000 G0
ATOM     20  C   UNL     1      93.968  84.022  89.014  1.00  0.00    -0.008 C 
ATOM     21  O   UNL     1      95.072  85.564  87.577  1.00  0.00    -0.291 OA
ATOM     22  C   UNL     1      94.147  84.739  90.293  1.00  0.00     0.048 C 
BRANCH  16  23
ATOM     23  O   UNL     1      92.941  84.362  85.963  1.00  0.00    -0.381 OA
ATOM     24  H   UNL     1      92.276  84.579  86.638  1.00  0.00     0.212 HD
ENDBRANCH  16  23
ENDBRANCH   6  15
BRANCH   7  25
ATOM     25  C   UNL     1      91.827  77.942  87.282  1.00  0.00     0.135 C 
BRANCH  25  26
ATOM     26  C   UNL     1      90.806  76.912  86.868  1.00  0.00    -0.040 A 
ATOM     27  C   UNL     1      89.652  76.728  87.630  1.00  0.00     0.004 A 
ATOM     28  C   UNL     1      91.014  76.144  85.722  1.00  0.00     0.004 A 
ATOM     29  C   UNL     1      88.707  75.775  87.247  1.00  0.00     0.000 A 
ATOM     30  C   UNL     1      90.069  75.192  85.339  1.00  0.00     0.000 A 
ATOM     31  C   UNL     1      88.916  75.008  86.102  1.00  0.00     0.000 A 
ENDBRANCH  25  26
ENDBRANCH   7  25
BRANCH  14  32
ATOM     32  C   UNL     1      89.024  79.933  84.484  1.00  0.00    -0.046 C 
ATOM     33  C   UNL     1      87.838  80.834  84.312  1.00  0.00     0.042 C 
ATOM     34  C   UNL     1      89.102  78.740  83.874  1.00  0.00     0.010 C 
ENDBRANCH  14  32
ENDBRANCH   3   4
BRANCH   2  35
ATOM     35  C   UNL     1      95.120  83.293  85.563  1.00  0.00     0.078 CG0
ATOM     36  G   UNL     1      94.009  83.619  86.561  1.00  0.00     0.000 G0
ENDBRANCH   2  35
ENDBRANCH   1   2
BRANCH   1  37
ATOM     37  O   UNL     1      95.868  81.366  82.622  1.00  0.00    -0.461 OA
BRANCH  37  38
ATOM     38  C   UNL     1      96.591  80.358  82.027  1.00  0.00     0.310 C 
ATOM     39  O   UNL     1      96.314  79.168  82.083  1.00  0.00    -0.252 OA
BRANCH  38  40
ATOM     40  C   UNL     1      97.775  80.948  81.299  1.00  0.00     0.158 C 
BRANCH  40  41
ATOM     41  C   UNL     1      97.604  80.949  79.802  1.00  0.00    -0.033 A 
ATOM     42  C   UNL     1      97.989  79.834  79.055  1.00  0.00     0.054 A 
ATOM     43  C   UNL     1      97.061  82.062  79.162  1.00  0.00     0.008 A 
ATOM     44  C   UNL     1      97.830  79.834  77.669  1.00  0.00     0.160 A 
ATOM     45  C   UNL     1      96.902  82.063  77.776  1.00  0.00     0.050 A 
ATOM     46  C   UNL     1      97.287  80.950  77.030  1.00  0.00     0.157 A 
BRANCH  44  47
ATOM     47  O   UNL     1      98.210  78.741  76.952  1.00  0.00    -0.493 OA
ATOM     48  C   UNL     1      98.971  77.748  77.637  1.00  0.00     0.278 C 
ENDBRANCH  44  47
BRANCH  46  49
ATOM     49  O   UNL     1      97.127  80.961  75.677  1.00  0.00    -0.504 OA
ATOM     50  H   UNL     1      96.199  81.166  75.470  1.00  0.00     0.293 HD
ENDBRANCH  46  49
ENDBRANCH  40  41
ENDBRANCH  38  40
ENDBRANCH  37  38
ENDBRANCH   1  37
TORSDOF 11
ENDMDL
MODEL 2
REMARK VINA RESULT:    -7.122      1.615      2.855
REMARK INTER + INTRA:         -13.525
REMARK INTER:                 -12.936
REMARK INTRA:                  -0.588
REMARK UNBOUND:                -0.990
REMARK SMILES C=C(C)[C@]12C[C@@H](C)[C@@]34O[C@](Cc5ccccc5)(O[C@@H]1[C@@H]3C=C(COC(=O)Cc1ccc(O)c(OC)c1)C[C@]1(O)C(=O)C(C)=C[C@@H]41)O2
REMARK SMILES IDX 23 1 22 2 21 3 20 4 9 5 8 6 10 7 6 8 18 9 46 10 19 11 5 12
REMARK SMILES IDX 7 13 4 14 45 15 38 16 44 17 40 18 42 20 41 21 43 22 39 23
REMARK SMILES IDX 11 25 12 26 13 27 17 28 14 29 16 30 15 31 2 32 3 33 1 34
REMARK SMILES IDX 37 35 24 37 25 38 26 39 27 40 28 41 36 42 29 43 33 44 30 45
REMARK SMILES IDX 31 46 34 47 35 48 32 49
REMARK H PARENT 39 24 32 50
REMARK Flexibility Score: 90.00
ROOT
ATOM      1  C   UNL     1      96.219  81.167  83.807  1.00  0.00     0.264 C 
ENDROOT
BRANCH   1   2
ATOM      2  C   UNL     1      95.043  81.764  84.544  1.00  0.00    -0.033 C 
ATOM      3  C   UNL     1      93.898  81.058  84.640  1.00  0.00    -0.015 C 
BRANCH   3   4
ATOM      4  C   UNL     1      92.566  81.458  85.252  1.00  0.00     0.078 C 
ATOM      5  O   UNL     1      92.591  80.687  87.602  1.00  0.00    -0.319 OA
ATOM      6  C   UNL     1      92.536  81.884  86.767  1.00  0.00     0.095 C 
ATOM      7  C   UNL     1      91.767  79.590  87.163  1.00  0.00     0.289 C 
ATOM      8  C   UNL     1      91.167  82.640  87.026  1.00  0.00     0.023 C 
ATOM      9  O   UNL     1      92.097  79.196  85.833  1.00  0.00    -0.320 OA
ATOM     10  O   UNL     1      90.384  79.932  87.131  1.00  0.00    -0.313 OA
ATOM     11  C   UNL     1      91.548  80.302  85.099  1.00  0.00     0.170 C 
ATOM     12  C   UNL     1      90.020  82.064  86.140  1.00  0.00     0.049 C 
ATOM     13  C   UNL     1      90.707  82.687  88.492  1.00  0.00     0.011 C 
ATOM     14  C   UNL     1      90.221  80.576  85.851  1.00  0.00     0.122 C 
BRANCH   6  15
ATOM     15  C   UNL     1      93.820  82.679  87.143  1.00  0.00     0.086 C 
ATOM     16  C   UNL     1      94.291  83.733  86.119  1.00  0.00     0.140 CG0
ATOM     17  C   UNL     1      93.874  83.415  88.452  1.00  0.00    -0.010 C 
ATOM     18  C   UNL     1      94.869  84.815  87.007  1.00  0.00     0.190 C 
ATOM     19  G   UNL     1      95.319  83.168  85.140  1.00  0.00     0.000 G0
ATOM     20  C   UNL     1      94.482  84.606  88.415  1.00  0.00    -0.008 C 
ATOM     21  O   UNL     1      95.527  85.770  86.623  1.00  0.00    -0.291 OA
ATOM     22  C   UNL     1      94.787  85.552  89.507  1.00  0.00     0.048 C 
BRANCH  16  23
ATOM     23  O   UNL     1      93.232  84.385  85.438  1.00  0.00    -0.381 OA
ATOM     24  H   UNL     1      92.772  83.730  84.886  1.00  0.00     0.212 HD
ENDBRANCH  16  23
ENDBRANCH   6  15
BRANCH   7  25
ATOM     25  C   UNL     1      91.980  78.426  88.109  1.00  0.00     0.135 C 
BRANCH  25  26
ATOM     26  C   UNL     1      92.515  78.875  89.446  1.00  0.00    -0.040 A 
ATOM     27  C   UNL     1      93.864  78.698  89.752  1.00  0.00     0.004 A 
ATOM     28  C   UNL     1      91.661  79.468  90.376  1.00  0.00     0.004 A 
ATOM     29  C   UNL     1      94.360  79.113  90.989  1.00  0.00     0.000 A 
ATOM     30  C   UNL     1      92.156  79.884  91.612  1.00  0.00     0.000 A 
ATOM     31  C   UNL     1      93.506  79.706  91.918  1.00  0.00     0.000 A 
ENDBRANCH  25  26
ENDBRANCH   7  25
BRANCH  14  32
ATOM     32  C   UNL     1      89.048  79.962  85.161  1.00  0.00    -0.046 C 
ATOM     33  C   UNL     1      88.149  80.904  84.416  1.00  0.00     0.042 C 
ATOM     34  C   UNL     1      88.810  78.642  85.205  1.00  0.00     0.010 C 
ENDBRANCH  14  32
ENDBRANCH   3   4
BRANCH   2  35
ATOM     35  C   UNL     1      95.331  83.142  85.109  1.00  0.00     0.078 CG0
ATOM     36  G   UNL     1      94.321  83.716  86.101  1.00  0.00     0.000 G0
ENDBRANCH   2  35
ENDBRANCH   1   2
BRANCH   1  37
ATOM     37  O   UNL     1      95.793  80.705  82.544  1.00  0.00    -0.461 OA
BRANCH  37  38
ATOM     38  C   UNL     1      96.777  80.521  81.600  1.00  0.00     0.310 C 
ATOM     39  O   UNL     1      97.288  79.446  81.317  1.00  0.00    -0.252 OA
BRANCH  38  40
ATOM     40  C   UNL     1      97.126  81.849  80.970  1.00  0.00     0.158 C 
BRANCH  40  41
ATOM     41  C   UNL     1      97.310  81.761  79.477  1.00  0.00    -0.033 A 
ATOM     42  C   UNL     1      96.355  82.316  78.623  1.00  0.00     0.054 A 
ATOM     43  C   UNL     1      98.433  81.127  78.948  1.00  0.00     0.008 A 
ATOM     44  C   UNL     1      96.525  82.235  77.241  1.00  0.00     0.160 A 
ATOM     45  C   UNL     1      98.603  81.046  77.565  1.00  0.00     0.050 A 
ATOM     46  C   UNL     1      97.649  81.599  76.712  1.00  0.00     0.157 A 
BRANCH  44  47
ATOM     47  O   UNL     1      95.586  82.779  76.417  1.00  0.00    -0.493 OA
ATOM     48  C   UNL     1      95.937  83.987  75.743  1.00  0.00     0.278 C 
ENDBRANCH  44  47
BRANCH  46  49
ATOM     49  O   UNL     1      97.826  81.515  75.364  1.00  0.00    -0.504 OA
ATOM     50  H   UNL     1      97.845  80.578  75.105  1.00  0.00     0.293 HD
ENDBRANCH  46  49
ENDBRANCH  40  41
ENDBRANCH  38  40
ENDBRANCH  37  38
ENDBRANCH   1  37
TORSDOF 11
ENDMDL
MODEL 3
REMARK VINA RESULT:    -6.806     15.797     19.316
REMARK INTER + INTRA:         -12.968
REMARK INTER:                 -11.430
REMARK INTRA:                  -1.538
REMARK UNBOUND:                -0.990
REMARK SMILES C=C(C)[C@]12C[C@@H](C)[C@@]34O[C@](Cc5ccccc5)(O[C@@H]1[C@@H]3C=C(COC(=O)Cc1ccc(O)c(OC)c1)C[C@]1(O)C(=O)C(C)=C[C@@H]41)O2
REMARK SMILES IDX 23 1 22 2 21 3 20 4 9 5 8 6 10 7 6 8 18 9 46 10 19 11 5 12
REMARK SMILES IDX 7 13 4 14 45 15 38 16 44 17 40 18 42 20 41 21 43 22 39 23
REMARK SMILES IDX 11 25 12 26 13 27 17 28 14 29 16 30 15 31 2 32 3 33 1 34
REMARK SMILES IDX 37 35 24 37 25 38 26 39 27 40 28 41 36 42 29 43 33 44 30 45
REMARK SMILES IDX 31 46 34 47 35 48 32 49
REMARK H PARENT 39 24 32 50
REMARK Flexibility Score: 90.00
ROOT
ATOM      1  C   UNL     1      86.310  70.478  76.156  1.00  0.00     0.264 C 
ENDROOT
BRANCH   1   2
ATOM      2  C   UNL     1      85.892  69.039  76.355  1.00  0.00    -0.033 C 
ATOM      3  C   UNL     1      84.868  68.544  75.631  1.00  0.00    -0.015 C 
BRANCH   3   4
ATOM      4  C   UNL     1      84.214  67.174  75.698  1.00  0.00     0.078 C 
ATOM      5  O   UNL     1      85.372  65.741  74.047  1.00  0.00    -0.319 OA
ATOM      6  C   UNL     1      85.115  65.902  75.476  1.00  0.00     0.095 C 
ATOM      7  C   UNL     1      84.236  65.958  73.188  1.00  0.00     0.289 C 
ATOM      8  C   UNL     1      84.310  64.645  76.008  1.00  0.00     0.023 C 
ATOM      9  O   UNL     1      83.686  67.259  73.376  1.00  0.00    -0.320 OA
ATOM     10  O   UNL     1      83.173  65.048  73.458  1.00  0.00    -0.313 OA
ATOM     11  C   UNL     1      83.067  67.087  74.661  1.00  0.00     0.170 C 
ATOM     12  C   UNL     1      82.775  64.816  75.792  1.00  0.00     0.049 C 
ATOM     13  C   UNL     1      84.757  63.287  75.442  1.00  0.00     0.011 C 
ATOM     14  C   UNL     1      82.468  65.663  74.556  1.00  0.00     0.122 C 
BRANCH   6  15
ATOM     15  C   UNL     1      86.524  66.108  76.104  1.00  0.00     0.086 C 
ATOM     16  C   UNL     1      86.557  66.764  77.500  1.00  0.00     0.140 CG0
ATOM     17  C   UNL     1      87.445  64.929  76.249  1.00  0.00    -0.010 C 
ATOM     18  C   UNL     1      87.740  66.080  78.153  1.00  0.00     0.190 C 
ATOM     19  G   UNL     1      86.729  68.280  77.421  1.00  0.00     0.000 G0
ATOM     20  C   UNL     1      88.162  64.899  77.377  1.00  0.00    -0.008 C 
ATOM     21  O   UNL     1      88.257  66.415  79.208  1.00  0.00    -0.291 OA
ATOM     22  C   UNL     1      89.210  63.953  77.813  1.00  0.00     0.048 C 
BRANCH  16  23
ATOM     23  O   UNL     1      85.462  66.409  78.327  1.00  0.00    -0.381 OA
ATOM     24  H   UNL     1      85.762  65.739  78.963  1.00  0.00     0.212 HD
ENDBRANCH  16  23
ENDBRANCH   6  15
BRANCH   7  25
ATOM     25  C   UNL     1      84.689  65.796  71.751  1.00  0.00     0.135 C 
BRANCH  25  26
ATOM     26  C   UNL     1      83.524  65.747  70.794  1.00  0.00    -0.040 A 
ATOM     27  C   UNL     1      82.934  66.933  70.353  1.00  0.00     0.004 A 
ATOM     28  C   UNL     1      83.038  64.519  70.348  1.00  0.00     0.004 A 
ATOM     29  C   UNL     1      81.857  66.888  69.467  1.00  0.00     0.000 A 
ATOM     30  C   UNL     1      81.961  64.474  69.462  1.00  0.00     0.000 A 
ATOM     31  C   UNL     1      81.371  65.660  69.022  1.00  0.00     0.000 A 
ENDBRANCH  25  26
ENDBRANCH   7  25
BRANCH  14  32
ATOM     32  C   UNL     1      81.012  65.689  74.224  1.00  0.00    -0.046 C 
ATOM     33  C   UNL     1      80.068  65.720  75.389  1.00  0.00     0.042 C 
ATOM     34  C   UNL     1      80.572  65.685  72.957  1.00  0.00     0.010 C 
ENDBRANCH  14  32
ENDBRANCH   3   4
BRANCH   2  35
ATOM     35  C   UNL     1      86.731  68.314  77.391  1.00  0.00     0.078 CG0
ATOM     36  G   UNL     1      86.566  66.798  77.487  1.00  0.00     0.000 G0
ENDBRANCH   2  35
ENDBRANCH   1   2
BRANCH   1  37
ATOM     37  O   UNL     1      87.332  70.536  75.184  1.00  0.00    -0.461 OA
BRANCH  37  38
ATOM     38  C   UNL     1      87.711  71.794  74.775  1.00  0.00     0.310 C 
ATOM     39  O   UNL     1      87.250  72.842  75.207  1.00  0.00    -0.252 OA
BRANCH  38  40
ATOM     40  C   UNL     1      88.779  71.678  73.713  1.00  0.00     0.158 C 
BRANCH  40  41
ATOM     41  C   UNL     1      88.214  71.558  72.322  1.00  0.00    -0.033 A 
ATOM     42  C   UNL     1      86.865  71.252  72.141  1.00  0.00     0.054 A 
ATOM     43  C   UNL     1      89.039  71.753  71.214  1.00  0.00     0.008 A 
ATOM     44  C   UNL     1      86.341  71.141  70.852  1.00  0.00     0.160 A 
ATOM     45  C   UNL     1      88.516  71.642  69.926  1.00  0.00     0.050 A 
ATOM     46  C   UNL     1      87.168  71.336  69.745  1.00  0.00     0.157 A 
BRANCH  44  47
ATOM     47  O   UNL     1      85.023  70.841  70.688  1.00  0.00    -0.493 OA
ATOM     48  C   UNL     1      84.318  70.371  71.836  1.00  0.00     0.278 C 
ENDBRANCH  44  47
BRANCH  46  49
ATOM     49  O   UNL     1      86.668  71.231  68.482  1.00  0.00    -0.504 OA
ATOM     50  H   UNL     1      85.828  71.718  68.433  1.00  0.00     0.293 HD
ENDBRANCH  46  49
ENDBRANCH  40  41
ENDBRANCH  38  40
ENDBRANCH  37  38
ENDBRANCH   1  37
TORSDOF 11
ENDMDL
MODEL 4
REMARK VINA RESULT:    -6.740     15.784     19.032
REMARK INTER + INTRA:         -12.851
REMARK INTER:                 -11.654
REMARK INTRA:                  -1.197
REMARK UNBOUND:                -0.990
REMARK SMILES C=C(C)[C@]12C[C@@H](C)[C@@]34O[C@](Cc5ccccc5)(O[C@@H]1[C@@H]3C=C(COC(=O)Cc1ccc(O)c(OC)c1)C[C@]1(O)C(=O)C(C)=C[C@@H]41)O2
REMARK SMILES IDX 23 1 22 2 21 3 20 4 9 5 8 6 10 7 6 8 18 9 46 10 19 11 5 12
REMARK SMILES IDX 7 13 4 14 45 15 38 16 44 17 40 18 42 20 41 21 43 22 39 23
REMARK SMILES IDX 11 25 12 26 13 27 17 28 14 29 16 30 15 31 2 32 3 33 1 34
REMARK SMILES IDX 37 35 24 37 25 38 26 39 27 40 28 41 36 42 29 43 33 44 30 45
REMARK SMILES IDX 31 46 34 47 35 48 32 49
REMARK H PARENT 39 24 32 50
REMARK Flexibility Score: 90.00
ROOT
ATOM      1  C   UNL     1      86.622  70.895  74.904  1.00  0.00     0.264 C 
ENDROOT
BRANCH   1   2
ATOM      2  C   UNL     1      86.130  69.580  75.462  1.00  0.00    -0.033 C 
ATOM      3  C   UNL     1      85.081  68.967  74.877  1.00  0.00    -0.015 C 
BRANCH   3   4
ATOM      4  C   UNL     1      84.356  67.695  75.287  1.00  0.00     0.078 C 
ATOM      5  O   UNL     1      85.437  65.829  74.075  1.00  0.00    -0.319 OA
ATOM      6  C   UNL     1      85.190  66.365  75.411  1.00  0.00     0.095 C 
ATOM      7  C   UNL     1      84.313  65.873  73.175  1.00  0.00     0.289 C 
ATOM      8  C   UNL     1      84.321  65.330  76.238  1.00  0.00     0.023 C 
ATOM      9  O   UNL     1      83.831  67.205  73.015  1.00  0.00    -0.320 OA
ATOM     10  O   UNL     1      83.204  65.118  73.657  1.00  0.00    -0.313 OA
ATOM     11  C   UNL     1      83.206  67.402  74.292  1.00  0.00     0.170 C 
ATOM     12  C   UNL     1      82.797  65.517  75.967  1.00  0.00     0.049 C 
ATOM     13  C   UNL     1      84.697  63.852  76.047  1.00  0.00     0.011 C 
ATOM     14  C   UNL     1      82.534  66.030  74.550  1.00  0.00     0.122 C 
BRANCH   6  15
ATOM     15  C   UNL     1      86.609  66.655  75.982  1.00  0.00     0.086 C 
ATOM     16  C   UNL     1      86.680  67.665  77.145  1.00  0.00     0.140 CG0
ATOM     17  C   UNL     1      87.458  65.510  76.459  1.00  0.00    -0.010 C 
ATOM     18  C   UNL     1      87.820  67.120  77.980  1.00  0.00     0.190 C 
ATOM     19  G   UNL     1      86.941  69.089  76.658  1.00  0.00     0.000 G0
ATOM     20  C   UNL     1      88.172  65.749  77.564  1.00  0.00    -0.008 C 
ATOM     21  O   UNL     1      88.356  67.701  78.912  1.00  0.00    -0.291 OA
ATOM     22  C   UNL     1      89.161  64.901  78.260  1.00  0.00     0.048 C 
BRANCH  16  23
ATOM     23  O   UNL     1      85.565  67.613  78.020  1.00  0.00    -0.381 OA
ATOM     24  H   UNL     1      84.929  66.969  77.668  1.00  0.00     0.212 HD
ENDBRANCH  16  23
ENDBRANCH   6  15
BRANCH   7  25
ATOM     25  C   UNL     1      84.755  65.324  71.834  1.00  0.00     0.135 C 
BRANCH  25  26
ATOM     26  C   UNL     1      83.619  65.269  70.843  1.00  0.00    -0.040 A 
ATOM     27  C   UNL     1      83.137  66.446  70.270  1.00  0.00     0.004 A 
ATOM     28  C   UNL     1      83.052  64.043  70.499  1.00  0.00     0.004 A 
ATOM     29  C   UNL     1      82.086  66.396  69.353  1.00  0.00     0.000 A 
ATOM     30  C   UNL     1      82.001  63.993  69.582  1.00  0.00     0.000 A 
ATOM     31  C   UNL     1      81.519  65.170  69.010  1.00  0.00     0.000 A 
ENDBRANCH  25  26
ENDBRANCH   7  25
BRANCH  14  32
ATOM     32  C   UNL     1      81.080  66.044  74.206  1.00  0.00    -0.046 C 
ATOM     33  C   UNL     1      80.132  66.285  75.342  1.00  0.00     0.042 C 
ATOM     34  C   UNL     1      80.647  65.851  72.951  1.00  0.00     0.010 C 
ENDBRANCH  14  32
ENDBRANCH   3   4
BRANCH   2  35
ATOM     35  C   UNL     1      86.932  69.104  76.658  1.00  0.00     0.078 CG0
ATOM     36  G   UNL     1      86.669  67.684  77.156  1.00  0.00     0.000 G0
ENDBRANCH   2  35
ENDBRANCH   1   2
BRANCH   1  37
ATOM     37  O   UNL     1      86.561  70.856  73.494  1.00  0.00    -0.461 OA
BRANCH  37  38
ATOM     38  C   UNL     1      87.726  70.521  72.844  1.00  0.00     0.310 C 
ATOM     39  O   UNL     1      88.148  69.382  72.701  1.00  0.00    -0.252 OA
BRANCH  38  40
ATOM     40  C   UNL     1      88.400  71.774  72.337  1.00  0.00     0.158 C 
BRANCH  40  41
ATOM     41  C   UNL     1      88.606  71.768  70.844  1.00  0.00    -0.033 A 
ATOM     42  C   UNL     1      89.880  71.981  70.316  1.00  0.00     0.054 A 
ATOM     43  C   UNL     1      87.525  71.550  69.991  1.00  0.00     0.008 A 
ATOM     44  C   UNL     1      90.071  71.975  68.934  1.00  0.00     0.160 A 
ATOM     45  C   UNL     1      87.716  71.544  68.609  1.00  0.00     0.050 A 
ATOM     46  C   UNL     1      88.989  71.757  68.080  1.00  0.00     0.157 A 
BRANCH  44  47
ATOM     47  O   UNL     1      91.319  72.184  68.429  1.00  0.00    -0.493 OA
ATOM     48  C   UNL     1      91.757  73.538  68.322  1.00  0.00     0.278 C 
ENDBRANCH  44  47
BRANCH  46  49
ATOM     49  O   UNL     1      89.164  71.748  66.730  1.00  0.00    -0.504 OA
ATOM     50  H   UNL     1      88.302  71.619  66.300  1.00  0.00     0.293 HD
ENDBRANCH  46  49
ENDBRANCH  40  41
ENDBRANCH  38  40
ENDBRANCH  37  38
ENDBRANCH   1  37
TORSDOF 11
ENDMDL
MODEL 5
REMARK VINA RESULT:    -6.738      2.823      5.326
REMARK INTER + INTRA:         -12.848
REMARK INTER:                 -12.278
REMARK INTRA:                  -0.570
REMARK UNBOUND:                -0.990
REMARK SMILES C=C(C)[C@]12C[C@@H](C)[C@@]34O[C@](Cc5ccccc5)(O[C@@H]1[C@@H]3C=C(COC(=O)Cc1ccc(O)c(OC)c1)C[C@]1(O)C(=O)C(C)=C[C@@H]41)O2
REMARK SMILES IDX 23 1 22 2 21 3 20 4 9 5 8 6 10 7 6 8 18 9 46 10 19 11 5 12
REMARK SMILES IDX 7 13 4 14 45 15 38 16 44 17 40 18 42 20 41 21 43 22 39 23
REMARK SMILES IDX 11 25 12 26 13 27 17 28 14 29 16 30 15 31 2 32 3 33 1 34
REMARK SMILES IDX 37 35 24 37 25 38 26 39 27 40 28 41 36 42 29 43 33 44 30 45
REMARK SMILES IDX 31 46 34 47 35 48 32 49
REMARK H PARENT 39 24 32 50
REMARK Flexibility Score: 90.00
ROOT
ATOM      1  C   UNL     1      97.060  80.719  81.028  1.00  0.00     0.264 C 
ENDROOT
BRANCH   1   2
ATOM      2  C   UNL     1      97.137  80.622  82.534  1.00  0.00    -0.033 C 
ATOM      3  C   UNL     1      96.143  81.144  83.280  1.00  0.00    -0.015 C 
BRANCH   3   4
ATOM      4  C   UNL     1      96.021  81.243  84.791  1.00  0.00     0.078 C 
ATOM      5  O   UNL     1      94.796  79.233  85.550  1.00  0.00    -0.319 OA
ATOM      6  C   UNL     1      96.084  79.917  85.637  1.00  0.00     0.095 C 
ATOM      7  C   UNL     1      93.638  80.082  85.658  1.00  0.00     0.289 C 
ATOM      8  C   UNL     1      96.361  80.320  87.144  1.00  0.00     0.023 C 
ATOM      9  O   UNL     1      93.647  81.099  84.659  1.00  0.00    -0.320 OA
ATOM     10  O   UNL     1      93.586  80.769  86.906  1.00  0.00    -0.313 OA
ATOM     11  C   UNL     1      94.692  81.943  85.167  1.00  0.00     0.170 C 
ATOM     12  C   UNL     1      95.699  81.687  87.500  1.00  0.00     0.049 C 
ATOM     13  C   UNL     1      95.962  79.270  88.192  1.00  0.00     0.011 C 
ATOM     14  C   UNL     1      94.423  81.925  86.693  1.00  0.00     0.122 C 
BRANCH   6  15
ATOM     15  C   UNL     1      97.099  78.914  85.015  1.00  0.00     0.086 C 
ATOM     16  C   UNL     1      98.440  79.511  84.539  1.00  0.00     0.140 CG0
ATOM     17  C   UNL     1      97.515  77.704  85.804  1.00  0.00    -0.010 C 
ATOM     18  C   UNL     1      99.416  78.391  84.828  1.00  0.00     0.190 C 
ATOM     19  G   UNL     1      98.408  79.893  83.060  1.00  0.00     0.000 G0
ATOM     20  C   UNL     1      98.805  77.368  85.697  1.00  0.00    -0.008 C 
ATOM     21  O   UNL     1     100.575  78.346  84.445  1.00  0.00    -0.291 OA
ATOM     22  C   UNL     1      99.536  76.211  86.255  1.00  0.00     0.048 C 
BRANCH  16  23
ATOM     23  O   UNL     1      98.907  80.583  85.341  1.00  0.00    -0.381 OA
ATOM     24  H   UNL     1      99.409  80.213  86.086  1.00  0.00     0.212 HD
ENDBRANCH  16  23
ENDBRANCH   6  15
BRANCH   7  25
ATOM     25  C   UNL     1      92.400  79.222  85.502  1.00  0.00     0.135 C 
BRANCH  25  26
ATOM     26  C   UNL     1      91.138  79.986  85.815  1.00  0.00    -0.040 A 
ATOM     27  C   UNL     1      90.554  80.796  84.840  1.00  0.00     0.004 A 
ATOM     28  C   UNL     1      90.553  79.882  87.077  1.00  0.00     0.004 A 
ATOM     29  C   UNL     1      89.386  81.503  85.129  1.00  0.00     0.000 A 
ATOM     30  C   UNL     1      89.385  80.589  87.365  1.00  0.00     0.000 A 
ATOM     31  C   UNL     1      88.802  81.399  86.391  1.00  0.00     0.000 A 
ENDBRANCH  25  26
ENDBRANCH   7  25
BRANCH  14  32
ATOM     32  C   UNL     1      93.675  83.137  87.145  1.00  0.00    -0.046 C 
ATOM     33  C   UNL     1      93.590  83.348  88.627  1.00  0.00     0.042 C 
ATOM     34  C   UNL     1      93.111  83.988  86.275  1.00  0.00     0.010 C 
ENDBRANCH  14  32
ENDBRANCH   3   4
BRANCH   2  35
ATOM     35  C   UNL     1      98.383  79.906  83.021  1.00  0.00     0.078 CG0
ATOM     36  G   UNL     1      98.429  79.509  84.495  1.00  0.00     0.000 G0
ENDBRANCH   2  35
ENDBRANCH   1   2
BRANCH   1  37
ATOM     37  O   UNL     1      98.277  81.233  80.531  1.00  0.00    -0.461 OA
BRANCH  37  38
ATOM     38  C   UNL     1      98.710  80.717  79.331  1.00  0.00     0.310 C 
ATOM     39  O   UNL     1      99.879  80.651  78.976  1.00  0.00    -0.252 OA
BRANCH  38  40
ATOM     40  C   UNL     1      97.522  80.248  78.525  1.00  0.00     0.158 C 
BRANCH  40  41
ATOM     41  C   UNL     1      97.107  81.232  77.462  1.00  0.00    -0.033 A 
ATOM     42  C   UNL     1      97.716  81.200  76.206  1.00  0.00     0.054 A 
ATOM     43  C   UNL     1      96.116  82.174  77.732  1.00  0.00     0.008 A 
ATOM     44  C   UNL     1      97.332  82.111  75.222  1.00  0.00     0.160 A 
ATOM     45  C   UNL     1      95.732  83.085  76.748  1.00  0.00     0.050 A 
ATOM     46  C   UNL     1      96.340  83.054  75.493  1.00  0.00     0.157 A 
BRANCH  44  47
ATOM     47  O   UNL     1      97.933  82.070  74.000  1.00  0.00    -0.493 OA
ATOM     48  C   UNL     1      98.736  83.191  73.635  1.00  0.00     0.278 C 
ENDBRANCH  44  47
BRANCH  46  49
ATOM     49  O   UNL     1      95.956  83.947  74.540  1.00  0.00    -0.504 OA
ATOM     50  H   UNL     1      96.197  84.843  74.830  1.00  0.00     0.293 HD
ENDBRANCH  46  49
ENDBRANCH  40  41
ENDBRANCH  38  40
ENDBRANCH  37  38
ENDBRANCH   1  37
TORSDOF 11
ENDMDL
MODEL 6
REMARK VINA RESULT:    -6.533     16.811     20.548
REMARK INTER + INTRA:         -12.487
REMARK INTER:                 -10.666
REMARK INTRA:                  -1.822
REMARK UNBOUND:                -0.990
REMARK SMILES C=C(C)[C@]12C[C@@H](C)[C@@]34O[C@](Cc5ccccc5)(O[C@@H]1[C@@H]3C=C(COC(=O)Cc1ccc(O)c(OC)c1)C[C@]1(O)C(=O)C(C)=C[C@@H]41)O2
REMARK SMILES IDX 23 1 22 2 21 3 20 4 9 5 8 6 10 7 6 8 18 9 46 10 19 11 5 12
REMARK SMILES IDX 7 13 4 14 45 15 38 16 44 17 40 18 42 20 41 21 43 22 39 23
REMARK SMILES IDX 11 25 12 26 13 27 17 28 14 29 16 30 15 31 2 32 3 33 1 34
REMARK SMILES IDX 37 35 24 37 25 38 26 39 27 40 28 41 36 42 29 43 33 44 30 45
REMARK SMILES IDX 31 46 34 47 35 48 32 49
REMARK H PARENT 39 24 32 50
REMARK Flexibility Score: 90.00
ROOT
ATOM      1  C   UNL     1      82.280  63.803  76.358  1.00  0.00     0.264 C 
ENDROOT
BRANCH   1   2
ATOM      2  C   UNL     1      83.714  64.130  76.704  1.00  0.00    -0.033 C 
ATOM      3  C   UNL     1      84.463  64.823  75.823  1.00  0.00    -0.015 C 
BRANCH   3   4
ATOM      4  C   UNL     1      85.932  65.206  75.897  1.00  0.00     0.078 C 
ATOM      5  O   UNL     1      86.040  67.446  76.943  1.00  0.00    -0.319 OA
ATOM      6  C   UNL     1      86.424  66.049  77.132  1.00  0.00     0.095 C 
ATOM      7  C   UNL     1      86.237  67.964  75.614  1.00  0.00     0.289 C 
ATOM      8  C   UNL     1      88.005  65.943  77.186  1.00  0.00     0.023 C 
ATOM      9  O   UNL     1      85.527  67.194  74.648  1.00  0.00    -0.320 OA
ATOM     10  O   UNL     1      87.604  67.919  75.212  1.00  0.00    -0.313 OA
ATOM     11  C   UNL     1      86.332  66.005  74.632  1.00  0.00     0.170 C 
ATOM     12  C   UNL     1      88.619  65.837  75.756  1.00  0.00     0.049 C 
ATOM     13  C   UNL     1      88.715  67.061  77.966  1.00  0.00     0.011 C 
ATOM     14  C   UNL     1      87.770  66.574  74.719  1.00  0.00     0.122 C 
BRANCH   6  15
ATOM     15  C   UNL     1      85.681  65.614  78.428  1.00  0.00     0.086 C 
ATOM     16  C   UNL     1      85.500  64.095  78.632  1.00  0.00     0.140 CG0
ATOM     17  C   UNL     1      86.187  66.087  79.762  1.00  0.00    -0.010 C 
ATOM     18  C   UNL     1      85.602  63.953  80.135  1.00  0.00     0.190 C 
ATOM     19  G   UNL     1      84.163  63.596  78.086  1.00  0.00     0.000 G0
ATOM     20  C   UNL     1      86.131  65.186  80.749  1.00  0.00    -0.008 C 
ATOM     21  O   UNL     1      85.336  62.944  80.771  1.00  0.00    -0.291 OA
ATOM     22  C   UNL     1      86.459  65.323  82.183  1.00  0.00     0.048 C 
BRANCH  16  23
ATOM     23  O   UNL     1      86.581  63.318  78.144  1.00  0.00    -0.381 OA
ATOM     24  H   UNL     1      86.981  62.844  78.892  1.00  0.00     0.212 HD
ENDBRANCH  16  23
ENDBRANCH   6  15
BRANCH   7  25
ATOM     25  C   UNL     1      85.749  69.398  75.585  1.00  0.00     0.135 C 
BRANCH  25  26
ATOM     26  C   UNL     1      85.713  69.956  74.184  1.00  0.00    -0.040 A 
ATOM     27  C   UNL     1      86.386  71.142  73.888  1.00  0.00     0.004 A 
ATOM     28  C   UNL     1      85.010  69.285  73.184  1.00  0.00     0.004 A 
ATOM     29  C   UNL     1      86.354  71.658  72.592  1.00  0.00     0.000 A 
ATOM     30  C   UNL     1      84.978  69.801  71.888  1.00  0.00     0.000 A 
ATOM     31  C   UNL     1      85.650  70.988  71.593  1.00  0.00     0.000 A 
ENDBRANCH  25  26
ENDBRANCH   7  25
BRANCH  14  32
ATOM     32  C   UNL     1      88.429  66.641  73.381  1.00  0.00    -0.046 C 
ATOM     33  C   UNL     1      88.748  68.014  72.868  1.00  0.00     0.042 C 
ATOM     34  C   UNL     1      88.720  65.537  72.677  1.00  0.00     0.010 C 
ENDBRANCH  14  32
ENDBRANCH   3   4
BRANCH   2  35
ATOM     35  C   UNL     1      84.129  63.612  78.068  1.00  0.00     0.078 CG0
ATOM     36  G   UNL     1      85.474  64.088  78.616  1.00  0.00     0.000 G0
ENDBRANCH   2  35
ENDBRANCH   1   2
BRANCH   1  37
ATOM     37  O   UNL     1      81.623  64.978  75.931  1.00  0.00    -0.461 OA
BRANCH  37  38
ATOM     38  C   UNL     1      80.522  64.801  75.126  1.00  0.00     0.310 C 
ATOM     39  O   UNL     1      79.755  63.849  75.183  1.00  0.00    -0.252 OA
BRANCH  38  40
ATOM     40  C   UNL     1      80.409  65.960  74.164  1.00  0.00     0.158 C 
BRANCH  40  41
ATOM     41  C   UNL     1      81.347  65.843  72.990  1.00  0.00    -0.033 A 
ATOM     42  C   UNL     1      80.904  65.269  71.797  1.00  0.00     0.054 A 
ATOM     43  C   UNL     1      82.658  66.308  73.095  1.00  0.00     0.008 A 
ATOM     44  C   UNL     1      81.772  65.161  70.711  1.00  0.00     0.160 A 
ATOM     45  C   UNL     1      83.526  66.199  72.009  1.00  0.00     0.050 A 
ATOM     46  C   UNL     1      83.084  65.626  70.817  1.00  0.00     0.157 A 
BRANCH  44  47
ATOM     47  O   UNL     1      81.328  64.599  69.552  1.00  0.00    -0.493 OA
ATOM     48  C   UNL     1      80.182  65.191  68.942  1.00  0.00     0.278 C 
ENDBRANCH  44  47
BRANCH  46  49
ATOM     49  O   UNL     1      83.940  65.527  69.762  1.00  0.00    -0.504 OA
ATOM     50  H   UNL     1      84.828  65.313  70.095  1.00  0.00     0.293 HD
ENDBRANCH  46  49
ENDBRANCH  40  41
ENDBRANCH  38  40
ENDBRANCH  37  38
ENDBRANCH   1  37
TORSDOF 11
ENDMDL
MODEL 7
REMARK VINA RESULT:    -6.460      2.559      6.872
REMARK INTER + INTRA:         -12.359
REMARK INTER:                 -11.420
REMARK INTRA:                  -0.939
REMARK UNBOUND:                -0.990
REMARK SMILES C=C(C)[C@]12C[C@@H](C)[C@@]34O[C@](Cc5ccccc5)(O[C@@H]1[C@@H]3C=C(COC(=O)Cc1ccc(O)c(OC)c1)C[C@]1(O)C(=O)C(C)=C[C@@H]41)O2
REMARK SMILES IDX 23 1 22 2 21 3 20 4 9 5 8 6 10 7 6 8 18 9 46 10 19 11 5 12
REMARK SMILES IDX 7 13 4 14 45 15 38 16 44 17 40 18 42 20 41 21 43 22 39 23
REMARK SMILES IDX 11 25 12 26 13 27 17 28 14 29 16 30 15 31 2 32 3 33 1 34
REMARK SMILES IDX 37 35 24 37 25 38 26 39 27 40 28 41 36 42 29 43 33 44 30 45
REMARK SMILES IDX 31 46 34 47 35 48 32 49
REMARK H PARENT 39 24 32 50
REMARK Flexibility Score: 90.00
ROOT
ATOM      1  C   UNL     1      96.476  79.487  85.665  1.00  0.00     0.264 C 
ENDROOT
BRANCH   1   2
ATOM      2  C   UNL     1      95.299  80.105  86.383  1.00  0.00    -0.033 C 
ATOM      3  C   UNL     1      95.522  80.973  87.390  1.00  0.00    -0.015 C 
BRANCH   3   4
ATOM      4  C   UNL     1      94.526  81.663  88.308  1.00  0.00     0.078 C 
ATOM      5  O   UNL     1      93.975  83.838  87.268  1.00  0.00    -0.319 OA
ATOM      6  C   UNL     1      93.402  82.553  87.659  1.00  0.00     0.095 C 
ATOM      7  C   UNL     1      94.875  84.429  88.225  1.00  0.00     0.289 C 
ATOM      8  C   UNL     1      92.284  82.790  88.757  1.00  0.00     0.023 C 
ATOM      9  O   UNL     1      95.960  83.553  88.523  1.00  0.00    -0.320 OA
ATOM     10  O   UNL     1      94.240  84.693  89.473  1.00  0.00    -0.313 OA
ATOM     11  C   UNL     1      95.278  82.568  89.315  1.00  0.00     0.170 C 
ATOM     12  C   UNL     1      92.897  82.864  90.189  1.00  0.00     0.049 C 
ATOM     13  C   UNL     1      91.379  84.011  88.524  1.00  0.00     0.011 C 
ATOM     14  C   UNL     1      94.317  83.432  90.168  1.00  0.00     0.122 C 
BRANCH   6  15
ATOM     15  C   UNL     1      92.905  81.927  86.323  1.00  0.00     0.086 C 
ATOM     16  C   UNL     1      92.704  80.397  86.323  1.00  0.00     0.140 CG0
ATOM     17  C   UNL     1      91.644  82.446  85.691  1.00  0.00    -0.010 C 
ATOM     18  C   UNL     1      91.520  80.225  85.395  1.00  0.00     0.190 C 
ATOM     19  G   UNL     1      93.944  79.652  85.833  1.00  0.00     0.000 G0
ATOM     20  C   UNL     1      90.858  81.517  85.136  1.00  0.00    -0.008 C 
ATOM     21  O   UNL     1      91.118  79.160  84.950  1.00  0.00    -0.291 OA
ATOM     22  C   UNL     1      89.605  81.667  84.368  1.00  0.00     0.048 C 
BRANCH  16  23
ATOM     23  O   UNL     1      92.243  79.879  87.560  1.00  0.00    -0.381 OA
ATOM     24  H   UNL     1      92.261  80.593  88.218  1.00  0.00     0.212 HD
ENDBRANCH  16  23
ENDBRANCH   6  15
BRANCH   7  25
ATOM     25  C   UNL     1      95.407  85.723  87.643  1.00  0.00     0.135 C 
BRANCH  25  26
ATOM     26  C   UNL     1      95.629  86.771  88.705  1.00  0.00    -0.040 A 
ATOM     27  C   UNL     1      96.732  86.678  89.555  1.00  0.00     0.004 A 
ATOM     28  C   UNL     1      94.735  87.832  88.837  1.00  0.00     0.004 A 
ATOM     29  C   UNL     1      96.939  87.647  90.537  1.00  0.00     0.000 A 
ATOM     30  C   UNL     1      94.942  88.801  89.819  1.00  0.00     0.000 A 
ATOM     31  C   UNL     1      96.044  88.708  90.669  1.00  0.00     0.000 A 
ENDBRANCH  25  26
ENDBRANCH   7  25
BRANCH  14  32
ATOM     32  C   UNL     1      94.855  83.682  91.539  1.00  0.00    -0.046 C 
ATOM     33  C   UNL     1      93.848  84.048  92.589  1.00  0.00     0.042 C 
ATOM     34  C   UNL     1      96.164  83.586  91.816  1.00  0.00     0.010 C 
ENDBRANCH  14  32
ENDBRANCH   3   4
BRANCH   2  35
ATOM     35  C   UNL     1      93.961  79.645  85.836  1.00  0.00     0.078 CG0
ATOM     36  G   UNL     1      92.714  80.377  86.332  1.00  0.00     0.000 G0
ENDBRANCH   2  35
ENDBRANCH   1   2
BRANCH   1  37
ATOM     37  O   UNL     1      97.444  80.482  85.413  1.00  0.00    -0.461 OA
BRANCH  37  38
ATOM     38  C   UNL     1      97.316  81.170  84.229  1.00  0.00     0.310 C 
ATOM     39  O   UNL     1      97.599  82.349  84.066  1.00  0.00    -0.252 OA
BRANCH  38  40
ATOM     40  C   UNL     1      96.773  80.245  83.165  1.00  0.00     0.158 C 
BRANCH  40  41
ATOM     41  C   UNL     1      97.218  80.621  81.775  1.00  0.00    -0.033 A 
ATOM     42  C   UNL     1      98.187  79.858  81.123  1.00  0.00     0.054 A 
ATOM     43  C   UNL     1      96.661  81.732  81.141  1.00  0.00     0.008 A 
ATOM     44  C   UNL     1      98.599  80.207  79.836  1.00  0.00     0.160 A 
ATOM     45  C   UNL     1      97.073  82.080  79.855  1.00  0.00     0.050 A 
ATOM     46  C   UNL     1      98.042  81.319  79.202  1.00  0.00     0.157 A 
BRANCH  44  47
ATOM     47  O   UNL     1      99.546  79.455  79.210  1.00  0.00    -0.493 OA
ATOM     48  C   UNL     1     100.910  79.766  79.489  1.00  0.00     0.278 C 
ENDBRANCH  44  47
BRANCH  46  49
ATOM     49  O   UNL     1      98.436  81.668  77.946  1.00  0.00    -0.504 OA
ATOM     50  H   UNL     1      99.028  80.980  77.598  1.00  0.00     0.293 HD
ENDBRANCH  46  49
ENDBRANCH  40  41
ENDBRANCH  38  40
ENDBRANCH  37  38
ENDBRANCH   1  37
TORSDOF 11
ENDMDL
MODEL 8
REMARK VINA RESULT:    -6.409      6.915     10.629
REMARK INTER + INTRA:         -12.270
REMARK INTER:                 -10.522
REMARK INTRA:                  -1.748
REMARK UNBOUND:                -0.990
REMARK SMILES C=C(C)[C@]12C[C@@H](C)[C@@]34O[C@](Cc5ccccc5)(O[C@@H]1[C@@H]3C=C(COC(=O)Cc1ccc(O)c(OC)c1)C[C@]1(O)C(=O)C(C)=C[C@@H]41)O2
REMARK SMILES IDX 23 1 22 2 21 3 20 4 9 5 8 6 10 7 6 8 18 9 46 10 19 11 5 12
REMARK SMILES IDX 7 13 4 14 45 15 38 16 44 17 40 18 42 20 41 21 43 22 39 23
REMARK SMILES IDX 11 25 12 26 13 27 17 28 14 29 16 30 15 31 2 32 3 33 1 34
REMARK SMILES IDX 37 35 24 37 25 38 26 39 27 40 28 41 36 42 29 43 33 44 30 45
REMARK SMILES IDX 31 46 34 47 35 48 32 49
REMARK H PARENT 39 24 32 50
REMARK Flexibility Score: 90.00
ROOT
ATOM      1  C   UNL     1      97.658  77.100  74.709  1.00  0.00     0.264 C 
ENDROOT
BRANCH   1   2
ATOM      2  C   UNL     1      98.410  78.029  75.633  1.00  0.00    -0.033 C 
ATOM      3  C   UNL     1      97.942  78.241  76.879  1.00  0.00    -0.015 C 
BRANCH   3   4
ATOM      4  C   UNL     1      98.463  79.175  77.959  1.00  0.00     0.078 C 
ATOM      5  O   UNL     1     100.046  77.868  79.340  1.00  0.00    -0.319 OA
ATOM      6  C   UNL     1      99.955  79.012  78.435  1.00  0.00     0.095 C 
ATOM      7  C   UNL     1      98.983  77.761  80.306  1.00  0.00     0.289 C 
ATOM      8  C   UNL     1     100.357  80.330  79.216  1.00  0.00     0.023 C 
ATOM      9  O   UNL     1      97.709  77.697  79.669  1.00  0.00    -0.320 OA
ATOM     10  O   UNL     1      98.924  78.890  81.174  1.00  0.00    -0.313 OA
ATOM     11  C   UNL     1      97.581  79.058  79.227  1.00  0.00     0.170 C 
ATOM     12  C   UNL     1      99.139  80.936  79.979  1.00  0.00     0.049 C 
ATOM     13  C   UNL     1     101.546  80.190  80.181  1.00  0.00     0.011 C 
ATOM     14  C   UNL     1      98.155  79.854  80.425  1.00  0.00     0.122 C 
BRANCH   6  15
ATOM     15  C   UNL     1     100.877  78.635  77.240  1.00  0.00     0.086 C 
ATOM     16  C   UNL     1     100.624  79.394  75.921  1.00  0.00     0.140 CG0
ATOM     17  C   UNL     1     102.369  78.713  77.407  1.00  0.00    -0.010 C 
ATOM     18  C   UNL     1     102.017  79.511  75.340  1.00  0.00     0.190 C 
ATOM     19  G   UNL     1      99.667  78.642  74.997  1.00  0.00     0.000 G0
ATOM     20  C   UNL     1     103.040  79.175  76.348  1.00  0.00    -0.008 C 
ATOM     21  O   UNL     1     102.283  79.883  74.207  1.00  0.00    -0.291 OA
ATOM     22  C   UNL     1     104.495  79.308  76.127  1.00  0.00     0.048 C 
BRANCH  16  23
ATOM     23  O   UNL     1     100.218  80.740  76.102  1.00  0.00    -0.381 OA
ATOM     24  H   UNL     1     100.078  81.139  75.227  1.00  0.00     0.212 HD
ENDBRANCH  16  23
ENDBRANCH   6  15
BRANCH   7  25
ATOM     25  C   UNL     1      99.209  76.505  81.125  1.00  0.00     0.135 C 
BRANCH  25  26
ATOM     26  C   UNL     1      98.112  75.490  80.918  1.00  0.00    -0.040 A 
ATOM     27  C   UNL     1      98.145  74.645  79.808  1.00  0.00     0.004 A 
ATOM     28  C   UNL     1      97.067  75.395  81.835  1.00  0.00     0.004 A 
ATOM     29  C   UNL     1      97.131  73.706  79.616  1.00  0.00     0.000 A 
ATOM     30  C   UNL     1      96.053  74.456  81.644  1.00  0.00     0.000 A 
ATOM     31  C   UNL     1      96.086  73.612  80.534  1.00  0.00     0.000 A 
ENDBRANCH  25  26
ENDBRANCH   7  25
BRANCH  14  32
ATOM     32  C   UNL     1      97.078  80.388  81.312  1.00  0.00    -0.046 C 
ATOM     33  C   UNL     1      96.461  79.409  82.267  1.00  0.00     0.042 C 
ATOM     34  C   UNL     1      96.684  81.669  81.258  1.00  0.00     0.010 C 
ENDBRANCH  14  32
ENDBRANCH   3   4
BRANCH   2  35
ATOM     35  C   UNL     1      99.656  78.618  74.998  1.00  0.00     0.078 CG0
ATOM     36  G   UNL     1     100.619  79.369  75.916  1.00  0.00     0.000 G0
ENDBRANCH   2  35
ENDBRANCH   1   2
BRANCH   1  37
ATOM     37  O   UNL     1      96.778  77.854  73.903  1.00  0.00    -0.461 OA
BRANCH  37  38
ATOM     38  C   UNL     1      97.180  78.074  72.606  1.00  0.00     0.310 C 
ATOM     39  O   UNL     1      97.890  77.321  71.953  1.00  0.00    -0.252 OA
BRANCH  38  40
ATOM     40  C   UNL     1      96.609  79.384  72.116  1.00  0.00     0.158 C 
BRANCH  40  41
ATOM     41  C   UNL     1      97.350  80.583  72.648  1.00  0.00    -0.033 A 
ATOM     42  C   UNL     1      96.690  81.505  73.463  1.00  0.00     0.054 A 
ATOM     43  C   UNL     1      98.694  80.772  72.328  1.00  0.00     0.008 A 
ATOM     44  C   UNL     1      97.376  82.616  73.956  1.00  0.00     0.160 A 
ATOM     45  C   UNL     1      99.379  81.883  72.821  1.00  0.00     0.050 A 
ATOM     46  C   UNL     1      98.721  82.804  73.634  1.00  0.00     0.157 A 
BRANCH  44  47
ATOM     47  O   UNL     1      96.721  83.509  74.749  1.00  0.00    -0.493 OA
ATOM     48  C   UNL     1      96.444  83.104  76.089  1.00  0.00     0.278 C 
ENDBRANCH  44  47
BRANCH  46  49
ATOM     49  O   UNL     1      99.400  83.884  74.111  1.00  0.00    -0.504 OA
ATOM     50  H   UNL     1     100.293  83.891  73.727  1.00  0.00     0.293 HD
ENDBRANCH  46  49
ENDBRANCH  40  41
ENDBRANCH  38  40
ENDBRANCH  37  38
ENDBRANCH   1  37
TORSDOF 11
ENDMDL
MODEL 9
REMARK VINA RESULT:    -6.342      5.777     12.722
REMARK INTER + INTRA:         -12.151
REMARK INTER:                 -11.095
REMARK INTRA:                  -1.056
REMARK UNBOUND:                -0.990
REMARK SMILES C=C(C)[C@]12C[C@@H](C)[C@@]34O[C@](Cc5ccccc5)(O[C@@H]1[C@@H]3C=C(COC(=O)Cc1ccc(O)c(OC)c1)C[C@]1(O)C(=O)C(C)=C[C@@H]41)O2
REMARK SMILES IDX 23 1 22 2 21 3 20 4 9 5 8 6 10 7 6 8 18 9 46 10 19 11 5 12
REMARK SMILES IDX 7 13 4 14 45 15 38 16 44 17 40 18 42 20 41 21 43 22 39 23
REMARK SMILES IDX 11 25 12 26 13 27 17 28 14 29 16 30 15 31 2 32 3 33 1 34
REMARK SMILES IDX 37 35 24 37 25 38 26 39 27 40 28 41 36 42 29 43 33 44 30 45
REMARK SMILES IDX 31 46 34 47 35 48 32 49
REMARK H PARENT 39 24 32 50
REMARK Flexibility Score: 90.00
ROOT
ATOM      1  C   UNL     1      99.816  77.304  79.484  1.00  0.00     0.264 C 
ENDROOT
BRANCH   1   2
ATOM      2  C   UNL     1     100.395  77.531  78.107  1.00  0.00    -0.033 C 
ATOM      3  C   UNL     1      99.580  77.915  77.104  1.00  0.00    -0.015 C 
BRANCH   3   4
ATOM      4  C   UNL     1      99.896  78.131  75.633  1.00  0.00     0.078 C 
ATOM      5  O   UNL     1     100.478  80.520  75.364  1.00  0.00    -0.319 OA
ATOM      6  C   UNL     1     101.018  79.167  75.252  1.00  0.00     0.095 C 
ATOM      7  C   UNL     1      99.148  80.699  74.840  1.00  0.00     0.289 C 
ATOM      8  C   UNL     1     101.434  78.893  73.748  1.00  0.00     0.023 C 
ATOM      9  O   UNL     1      98.221  79.818  75.471  1.00  0.00    -0.320 OA
ATOM     10  O   UNL     1      99.071  80.405  73.447  1.00  0.00    -0.313 OA
ATOM     11  C   UNL     1      98.616  78.571  74.879  1.00  0.00     0.170 C 
ATOM     12  C   UNL     1     100.222  78.395  72.901  1.00  0.00     0.049 C 
ATOM     13  C   UNL     1     102.114  80.067  73.026  1.00  0.00     0.011 C 
ATOM     14  C   UNL     1      98.901  78.973  73.410  1.00  0.00     0.122 C 
BRANCH   6  15
ATOM     15  C   UNL     1     102.180  79.127  76.286  1.00  0.00     0.086 C 
ATOM     16  C   UNL     1     102.621  77.726  76.758  1.00  0.00     0.140 CG0
ATOM     17  C   UNL     1     103.479  79.811  75.961  1.00  0.00    -0.010 C 
ATOM     18  C   UNL     1     104.111  77.904  76.962  1.00  0.00     0.190 C 
ATOM     19  G   UNL     1     101.903  77.295  78.036  1.00  0.00     0.000 G0
ATOM     20  C   UNL     1     104.581  79.162  76.353  1.00  0.00    -0.008 C 
ATOM     21  O   UNL     1     104.852  77.101  77.509  1.00  0.00    -0.291 OA
ATOM     22  C   UNL     1     106.000  79.566  76.277  1.00  0.00     0.048 C 
BRANCH  16  23
ATOM     23  O   UNL     1     102.534  76.728  75.755  1.00  0.00    -0.381 OA
ATOM     24  H   UNL     1     103.315  76.799  75.182  1.00  0.00     0.212 HD
ENDBRANCH  16  23
ENDBRANCH   6  15
BRANCH   7  25
ATOM     25  C   UNL     1      98.732  82.136  75.077  1.00  0.00     0.135 C 
BRANCH  25  26
ATOM     26  C   UNL     1      97.751  82.260  76.217  1.00  0.00    -0.040 A 
ATOM     27  C   UNL     1      96.495  82.825  75.997  1.00  0.00     0.004 A 
ATOM     28  C   UNL     1      98.100  81.808  77.489  1.00  0.00     0.004 A 
ATOM     29  C   UNL     1      95.588  82.940  77.051  1.00  0.00     0.000 A 
ATOM     30  C   UNL     1      97.192  81.923  78.543  1.00  0.00     0.000 A 
ATOM     31  C   UNL     1      95.937  82.489  78.323  1.00  0.00     0.000 A 
ENDBRANCH  25  26
ENDBRANCH   7  25
BRANCH  14  32
ATOM     32  C   UNL     1      97.752  78.658  72.509  1.00  0.00    -0.046 C 
ATOM     33  C   UNL     1      97.736  79.363  71.185  1.00  0.00     0.042 C 
ATOM     34  C   UNL     1      96.788  77.795  72.864  1.00  0.00     0.010 C 
ENDBRANCH  14  32
ENDBRANCH   3   4
BRANCH   2  35
ATOM     35  C   UNL     1     101.891  77.289  78.043  1.00  0.00     0.078 CG0
ATOM     36  G   UNL     1     102.613  77.709  76.764  1.00  0.00     0.000 G0
ENDBRANCH   2  35
ENDBRANCH   1   2
BRANCH   1  37
ATOM     37  O   UNL     1      98.935  78.361  79.799  1.00  0.00    -0.461 OA
BRANCH  37  38
ATOM     38  C   UNL     1      99.476  79.419  80.492  1.00  0.00     0.310 C 
ATOM     39  O   UNL     1     100.073  80.359  79.985  1.00  0.00    -0.252 OA
BRANCH  38  40
ATOM     40  C   UNL     1      99.221  79.238  81.970  1.00  0.00     0.158 C 
BRANCH  40  41
ATOM     41  C   UNL     1      98.103  80.108  82.484  1.00  0.00    -0.033 A 
ATOM     42  C   UNL     1      97.802  80.124  83.846  1.00  0.00     0.054 A 
ATOM     43  C   UNL     1      97.370  80.897  81.598  1.00  0.00     0.008 A 
ATOM     44  C   UNL     1      96.767  80.929  84.322  1.00  0.00     0.160 A 
ATOM     45  C   UNL     1      96.335  81.702  82.074  1.00  0.00     0.050 A 
ATOM     46  C   UNL     1      96.033  81.718  83.436  1.00  0.00     0.157 A 
BRANCH  44  47
ATOM     47  O   UNL     1      96.482  80.936  85.654  1.00  0.00    -0.493 OA
ATOM     48  C   UNL     1      97.316  80.145  86.499  1.00  0.00     0.278 C 
ENDBRANCH  44  47
BRANCH  46  49
ATOM     49  O   UNL     1      95.021  82.509  83.889  1.00  0.00    -0.504 OA
ATOM     50  H   UNL     1      95.254  82.847  84.770  1.00  0.00     0.293 HD
ENDBRANCH  46  49
ENDBRANCH  40  41
ENDBRANCH  38  40
ENDBRANCH  37  38
ENDBRANCH   1  37
TORSDOF 11
ENDMDL
MODEL 10
REMARK VINA RESULT:    -6.232     30.787     34.238
REMARK INTER + INTRA:         -11.958
REMARK INTER:                  -9.527
REMARK INTRA:                  -2.431
REMARK UNBOUND:                -0.990
REMARK SMILES C=C(C)[C@]12C[C@@H](C)[C@@]34O[C@](Cc5ccccc5)(O[C@@H]1[C@@H]3C=C(COC(=O)Cc1ccc(O)c(OC)c1)C[C@]1(O)C(=O)C(C)=C[C@@H]41)O2
REMARK SMILES IDX 23 1 22 2 21 3 20 4 9 5 8 6 10 7 6 8 18 9 46 10 19 11 5 12
REMARK SMILES IDX 7 13 4 14 45 15 38 16 44 17 40 18 42 20 41 21 43 22 39 23
REMARK SMILES IDX 11 25 12 26 13 27 17 28 14 29 16 30 15 31 2 32 3 33 1 34
REMARK SMILES IDX 37 35 24 37 25 38 26 39 27 40 28 41 36 42 29 43 33 44 30 45
REMARK SMILES IDX 31 46 34 47 35 48 32 49
REMARK H PARENT 39 24 32 50
REMARK Flexibility Score: 90.00
ROOT
ATOM      1  C   UNL     1      62.360  83.431  68.117  1.00  0.00     0.264 C 
ENDROOT
BRANCH   1   2
ATOM      2  C   UNL     1      61.938  84.688  68.842  1.00  0.00    -0.033 C 
ATOM      3  C   UNL     1      60.988  84.612  69.796  1.00  0.00    -0.015 C 
BRANCH   3   4
ATOM      4  C   UNL     1      60.343  85.725  70.605  1.00  0.00     0.078 C 
ATOM      5  O   UNL     1      61.655  85.955  72.689  1.00  0.00    -0.319 OA
ATOM      6  C   UNL     1      61.271  86.659  71.468  1.00  0.00     0.095 C 
ATOM      7  C   UNL     1      60.598  85.221  73.336  1.00  0.00     0.289 C 
ATOM      8  C   UNL     1      60.433  87.949  71.849  1.00  0.00     0.023 C 
ATOM      9  O   UNL     1      60.022  84.259  72.456  1.00  0.00    -0.320 OA
ATOM     10  O   UNL     1      59.523  86.064  73.741  1.00  0.00    -0.313 OA
ATOM     11  C   UNL     1      59.293  85.129  71.575  1.00  0.00     0.170 C 
ATOM     12  C   UNL     1      58.922  87.613  72.038  1.00  0.00     0.049 C 
ATOM     13  C   UNL     1      60.941  88.728  73.073  1.00  0.00     0.011 C 
ATOM     14  C   UNL     1      58.719  86.187  72.550  1.00  0.00     0.122 C 
BRANCH   6  15
ATOM     15  C   UNL     1      62.617  86.928  70.735  1.00  0.00     0.086 C 
ATOM     16  C   UNL     1      62.522  87.211  69.221  1.00  0.00     0.140 CG0
ATOM     17  C   UNL     1      63.524  88.016  71.238  1.00  0.00    -0.010 C 
ATOM     18  C   UNL     1      63.643  88.206  69.005  1.00  0.00     0.190 C 
ATOM     19  G   UNL     1      62.695  85.943  68.386  1.00  0.00     0.000 G0
ATOM     20  C   UNL     1      64.137  88.733  70.291  1.00  0.00    -0.008 C 
ATOM     21  O   UNL     1      64.062  88.575  67.918  1.00  0.00    -0.291 OA
ATOM     22  C   UNL     1      65.144  89.808  70.413  1.00  0.00     0.048 C 
BRANCH  16  23
ATOM     23  O   UNL     1      61.358  87.925  68.843  1.00  0.00    -0.381 OA
ATOM     24  H   UNL     1      61.454  88.202  67.917  1.00  0.00     0.212 HD
ENDBRANCH  16  23
ENDBRANCH   6  15
BRANCH   7  25
ATOM     25  C   UNL     1      61.178  84.522  74.549  1.00  0.00     0.135 C 
BRANCH  25  26
ATOM     26  C   UNL     1      62.299  85.313  75.175  1.00  0.00    -0.040 A 
ATOM     27  C   UNL     1      63.605  84.823  75.134  1.00  0.00     0.004 A 
ATOM     28  C   UNL     1      62.031  86.534  75.794  1.00  0.00     0.004 A 
ATOM     29  C   UNL     1      64.643  85.555  75.713  1.00  0.00     0.000 A 
ATOM     30  C   UNL     1      63.069  87.265  76.373  1.00  0.00     0.000 A 
ATOM     31  C   UNL     1      64.374  86.775  76.332  1.00  0.00     0.000 A 
ENDBRANCH  25  26
ENDBRANCH   7  25
BRANCH  14  32
ATOM     32  C   UNL     1      57.297  85.903  72.912  1.00  0.00    -0.046 C 
ATOM     33  C   UNL     1      56.685  84.685  72.287  1.00  0.00     0.042 C 
ATOM     34  C   UNL     1      56.606  86.694  73.747  1.00  0.00     0.010 C 
ENDBRANCH  14  32
ENDBRANCH   3   4
BRANCH   2  35
ATOM     35  C   UNL     1      62.687  85.923  68.376  1.00  0.00     0.078 CG0
ATOM     36  G   UNL     1      62.511  87.198  69.199  1.00  0.00     0.000 G0
ENDBRANCH   2  35
ENDBRANCH   1   2
BRANCH   1  37
ATOM     37  O   UNL     1      63.595  82.985  68.635  1.00  0.00    -0.461 OA
BRANCH  37  38
ATOM     38  C   UNL     1      63.579  81.776  69.291  1.00  0.00     0.310 C 
ATOM     39  O   UNL     1      62.769  80.881  69.094  1.00  0.00    -0.252 OA
BRANCH  38  40
ATOM     40  C   UNL     1      64.713  81.728  70.288  1.00  0.00     0.158 C 
BRANCH  40  41
ATOM     41  C   UNL     1      65.319  83.081  70.555  1.00  0.00    -0.033 A 
ATOM     42  C   UNL     1      66.333  83.567  69.727  1.00  0.00     0.054 A 
ATOM     43  C   UNL     1      64.868  83.849  71.628  1.00  0.00     0.008 A 
ATOM     44  C   UNL     1      66.894  84.820  69.974  1.00  0.00     0.160 A 
ATOM     45  C   UNL     1      65.430  85.102  71.875  1.00  0.00     0.050 A 
ATOM     46  C   UNL     1      66.443  85.587  71.048  1.00  0.00     0.157 A 
BRANCH  44  47
ATOM     47  O   UNL     1      67.883  85.283  69.159  1.00  0.00    -0.493 OA
ATOM     48  C   UNL     1      67.552  85.478  67.785  1.00  0.00     0.278 C 
ENDBRANCH  44  47
BRANCH  46  49
ATOM     49  O   UNL     1      66.983  86.812  71.298  1.00  0.00    -0.504 OA
ATOM     50  H   UNL     1      67.683  86.988  70.647  1.00  0.00     0.293 HD
ENDBRANCH  46  49
ENDBRANCH  40  41
ENDBRANCH  38  40
ENDBRANCH  37  38
ENDBRANCH   1  37
TORSDOF 11
ENDMDL
