MODEL 1
REMARK VINA RESULT:    -6.281      0.000      0.000
REMARK INTER + INTRA:         -11.028
REMARK INTER:                  -9.769
REMARK INTRA:                  -1.259
REMARK UNBOUND:                -1.259
REMARK SMILES CCCCC/C=C/C(=O)CCc1ccc(O)c(OC)c1
REMARK SMILES IDX 6 1 7 2 8 3 9 4 10 5 11 6 12 7 17 8 20 9 15 10 14 11 13 12
REMARK SMILES IDX 18 13 19 14 16 15 5 17 4 18 3 19 2 20 1 21
REMARK H PARENT 16 16
REMARK Flexibility Score: inf
ROOT
ATOM      1  C   UNL     1      92.132  96.315  77.369  1.00  0.00    -0.023 C 
ATOM      2  C   UNL     1      92.537  96.926  76.248  1.00  0.00     0.043 C 
ENDROOT
BRANCH   2   3
ATOM      3  C   UNL     1      93.909  97.497  76.169  1.00  0.00     0.155 C 
ATOM      4  O   UNL     1      94.118  98.624  75.725  1.00  0.00    -0.295 OA
BRANCH   3   5
ATOM      5  C   UNL     1      95.044  96.596  76.616  1.00  0.00     0.085 C 
BRANCH   5   6
ATOM      6  C   UNL     1      95.554  96.992  78.002  1.00  0.00     0.044 C 
BRANCH   6   7
ATOM      7  C   UNL     1      95.357  95.906  79.033  1.00  0.00    -0.044 A 
ATOM      8  C   UNL     1      95.446  95.173  81.316  1.00  0.00     0.160 A 
ATOM      9  C   UNL     1      95.629  96.176  80.365  1.00  0.00     0.054 A 
ATOM     10  C   UNL     1      94.993  93.913  80.925  1.00  0.00     0.157 A 
ATOM     11  C   UNL     1      94.723  93.657  79.580  1.00  0.00     0.050 A 
ATOM     12  C   UNL     1      94.906  94.660  78.628  1.00  0.00     0.008 A 
BRANCH   8  13
ATOM     13  O   UNL     1      95.713  95.436  82.626  1.00  0.00    -0.493 OA
ATOM     14  C   UNL     1      95.213  96.661  83.157  1.00  0.00     0.278 C 
ENDBRANCH   8  13
BRANCH  10  15
ATOM     15  O   UNL     1      94.810  92.926  81.845  1.00  0.00    -0.504 OA
ATOM     16  H   UNL     1      93.953  92.499  81.669  1.00  0.00     0.293 HD
ENDBRANCH  10  15
ENDBRANCH   6   7
ENDBRANCH   5   6
ENDBRANCH   3   5
ENDBRANCH   2   3
BRANCH   1  17
ATOM     17  C   UNL     1      90.766  95.714  77.528  1.00  0.00     0.027 C 
BRANCH  17  18
ATOM     18  C   UNL     1      90.776  94.395  78.307  1.00  0.00     0.004 C 
BRANCH  18  19
ATOM     19  C   UNL     1      89.791  93.354  77.765  1.00  0.00     0.000 C 
BRANCH  19  20
ATOM     20  C   UNL     1      90.044  93.076  76.282  1.00  0.00    -0.003 C 
ATOM     21  C   UNL     1      91.389  92.402  76.063  1.00  0.00     0.004 C 
ENDBRANCH  19  20
ENDBRANCH  18  19
ENDBRANCH  17  18
ENDBRANCH   1  17
TORSDOF 10
ENDMDL
MODEL 2
REMARK VINA RESULT:    -6.051      0.908      2.035
REMARK INTER + INTRA:         -10.670
REMARK INTER:                  -9.614
REMARK INTRA:                  -1.056
REMARK UNBOUND:                -1.259
REMARK SMILES CCCCC/C=C/C(=O)CCc1ccc(O)c(OC)c1
REMARK SMILES IDX 6 1 7 2 8 3 9 4 10 5 11 6 12 7 17 8 20 9 15 10 14 11 13 12
REMARK SMILES IDX 18 13 19 14 16 15 5 17 4 18 3 19 2 20 1 21
REMARK H PARENT 16 16
REMARK Flexibility Score: inf
ROOT
ATOM      1  C   UNL     1      92.145  96.284  77.222  1.00  0.00    -0.023 C 
ATOM      2  C   UNL     1      92.556  96.937  76.127  1.00  0.00     0.043 C 
ENDROOT
BRANCH   2   3
ATOM      3  C   UNL     1      93.955  97.437  76.044  1.00  0.00     0.155 C 
ATOM      4  O   UNL     1      94.280  98.324  75.257  1.00  0.00    -0.295 OA
BRANCH   3   5
ATOM      5  C   UNL     1      94.970  96.760  76.942  1.00  0.00     0.085 C 
BRANCH   5   6
ATOM      6  C   UNL     1      95.491  97.719  78.014  1.00  0.00     0.044 C 
BRANCH   6   7
ATOM      7  C   UNL     1      95.410  97.143  79.408  1.00  0.00    -0.044 A 
ATOM      8  C   UNL     1      94.811  95.342  80.876  1.00  0.00     0.160 A 
ATOM      9  C   UNL     1      94.886  95.873  79.588  1.00  0.00     0.054 A 
ATOM     10  C   UNL     1      95.260  96.087  81.966  1.00  0.00     0.157 A 
ATOM     11  C   UNL     1      95.784  97.365  81.768  1.00  0.00     0.050 A 
ATOM     12  C   UNL     1      95.859  97.896  80.480  1.00  0.00     0.008 A 
BRANCH   8  13
ATOM     13  O   UNL     1      94.297  94.093  81.056  1.00  0.00    -0.493 OA
ATOM     14  C   UNL     1      95.182  92.992  80.856  1.00  0.00     0.278 C 
ENDBRANCH   8  13
BRANCH  10  15
ATOM     15  O   UNL     1      95.193  95.579  83.228  1.00  0.00    -0.504 OA
ATOM     16  H   UNL     1      95.290  94.613  83.173  1.00  0.00     0.293 HD
ENDBRANCH  10  15
ENDBRANCH   6   7
ENDBRANCH   5   6
ENDBRANCH   3   5
ENDBRANCH   2   3
BRANCH   1  17
ATOM     17  C   UNL     1      90.752  95.749  77.384  1.00  0.00     0.027 C 
BRANCH  17  18
ATOM     18  C   UNL     1      90.700  94.434  78.169  1.00  0.00     0.004 C 
BRANCH  18  19
ATOM     19  C   UNL     1      90.243  93.236  77.331  1.00  0.00     0.000 C 
BRANCH  19  20
ATOM     20  C   UNL     1      91.433  92.541  76.667  1.00  0.00    -0.003 C 
ATOM     21  C   UNL     1      91.043  91.918  75.336  1.00  0.00     0.004 C 
ENDBRANCH  19  20
ENDBRANCH  18  19
ENDBRANCH  17  18
ENDBRANCH   1  17
TORSDOF 10
ENDMDL
MODEL 3
REMARK VINA RESULT:    -5.783     21.292     25.510
REMARK INTER + INTRA:         -10.253
REMARK INTER:                  -9.797
REMARK INTRA:                  -0.456
REMARK UNBOUND:                -1.259
REMARK SMILES CCCCC/C=C/C(=O)CCc1ccc(O)c(OC)c1
REMARK SMILES IDX 6 1 7 2 8 3 9 4 10 5 11 6 12 7 17 8 20 9 15 10 14 11 13 12
REMARK SMILES IDX 18 13 19 14 16 15 5 17 4 18 3 19 2 20 1 21
REMARK H PARENT 16 16
REMARK Flexibility Score: inf
ROOT
ATOM      1  C   UNL     1      77.645  85.485  68.997  1.00  0.00    -0.023 C 
ATOM      2  C   UNL     1      77.918  85.291  67.701  1.00  0.00     0.043 C 
ENDROOT
BRANCH   2   3
ATOM      3  C   UNL     1      77.970  83.909  67.153  1.00  0.00     0.155 C 
ATOM      4  O   UNL     1      78.947  83.181  67.319  1.00  0.00    -0.295 OA
BRANCH   3   5
ATOM      5  C   UNL     1      76.776  83.462  66.332  1.00  0.00     0.085 C 
BRANCH   5   6
ATOM      6  C   UNL     1      76.983  82.054  65.771  1.00  0.00     0.044 C 
BRANCH   6   7
ATOM      7  C   UNL     1      75.771  81.529  65.039  1.00  0.00    -0.044 A 
ATOM      8  C   UNL     1      73.436  80.975  65.023  1.00  0.00     0.160 A 
ATOM      9  C   UNL     1      74.555  81.459  65.700  1.00  0.00     0.054 A 
ATOM     10  C   UNL     1      73.547  80.566  63.695  1.00  0.00     0.157 A 
ATOM     11  C   UNL     1      74.779  80.641  63.043  1.00  0.00     0.050 A 
ATOM     12  C   UNL     1      75.898  81.126  63.720  1.00  0.00     0.008 A 
BRANCH   8  13
ATOM     13  O   UNL     1      72.240  80.906  65.671  1.00  0.00    -0.493 OA
ATOM     14  C   UNL     1      71.464  82.101  65.730  1.00  0.00     0.278 C 
ENDBRANCH   8  13
BRANCH  10  15
ATOM     15  O   UNL     1      72.461  80.091  63.023  1.00  0.00    -0.504 OA
ATOM     16  H   UNL     1      72.736  79.311  62.512  1.00  0.00     0.293 HD
ENDBRANCH  10  15
ENDBRANCH   6   7
ENDBRANCH   5   6
ENDBRANCH   3   5
ENDBRANCH   2   3
BRANCH   1  17
ATOM     17  C   UNL     1      77.575  86.847  69.626  1.00  0.00     0.027 C 
BRANCH  17  18
ATOM     18  C   UNL     1      76.156  87.241  70.050  1.00  0.00     0.004 C 
BRANCH  18  19
ATOM     19  C   UNL     1      75.722  88.617  69.535  1.00  0.00     0.000 C 
BRANCH  19  20
ATOM     20  C   UNL     1      75.712  89.650  70.663  1.00  0.00    -0.003 C 
ATOM     21  C   UNL     1      74.382  89.659  71.399  1.00  0.00     0.004 C 
ENDBRANCH  19  20
ENDBRANCH  18  19
ENDBRANCH  17  18
ENDBRANCH   1  17
TORSDOF 10
ENDMDL
MODEL 4
REMARK VINA RESULT:    -5.329     33.236     34.988
REMARK INTER + INTRA:          -9.548
REMARK INTER:                  -8.123
REMARK INTRA:                  -1.425
REMARK UNBOUND:                -1.259
REMARK SMILES CCCCC/C=C/C(=O)CCc1ccc(O)c(OC)c1
REMARK SMILES IDX 6 1 7 2 8 3 9 4 10 5 11 6 12 7 17 8 20 9 15 10 14 11 13 12
REMARK SMILES IDX 18 13 19 14 16 15 5 17 4 18 3 19 2 20 1 21
REMARK H PARENT 16 16
REMARK Flexibility Score: inf
ROOT
ATOM      1  C   UNL     1      61.382  84.383  73.539  1.00  0.00    -0.023 C 
ATOM      2  C   UNL     1      60.616  85.475  73.648  1.00  0.00     0.043 C 
ENDROOT
BRANCH   2   3
ATOM      3  C   UNL     1      59.441  85.650  72.751  1.00  0.00     0.155 C 
ATOM      4  O   UNL     1      58.755  86.670  72.772  1.00  0.00    -0.295 OA
BRANCH   3   5
ATOM      5  C   UNL     1      59.102  84.482  71.846  1.00  0.00     0.085 C 
BRANCH   5   6
ATOM      6  C   UNL     1      59.103  84.901  70.375  1.00  0.00     0.044 C 
BRANCH   6   7
ATOM      7  C   UNL     1      60.494  85.098  69.821  1.00  0.00    -0.044 A 
ATOM      8  C   UNL     1      62.628  84.192  69.204  1.00  0.00     0.160 A 
ATOM      9  C   UNL     1      61.344  84.009  69.716  1.00  0.00     0.054 A 
ATOM     10  C   UNL     1      63.046  85.461  68.804  1.00  0.00     0.157 A 
ATOM     11  C   UNL     1      62.179  86.549  68.917  1.00  0.00     0.050 A 
ATOM     12  C   UNL     1      60.894  86.365  69.429  1.00  0.00     0.008 A 
BRANCH   8  13
ATOM     13  O   UNL     1      63.466  83.123  69.099  1.00  0.00    -0.493 OA
ATOM     14  C   UNL     1      62.893  81.890  68.669  1.00  0.00     0.278 C 
ENDBRANCH   8  13
BRANCH  10  15
ATOM     15  O   UNL     1      64.298  85.653  68.302  1.00  0.00    -0.504 OA
ATOM     16  H   UNL     1      64.936  85.231  68.903  1.00  0.00     0.293 HD
ENDBRANCH  10  15
ENDBRANCH   6   7
ENDBRANCH   5   6
ENDBRANCH   3   5
ENDBRANCH   2   3
BRANCH   1  17
ATOM     17  C   UNL     1      62.583  84.133  74.405  1.00  0.00     0.027 C 
BRANCH  17  18
ATOM     18  C   UNL     1      62.632  82.709  74.969  1.00  0.00     0.004 C 
BRANCH  18  19
ATOM     19  C   UNL     1      62.386  81.623  73.916  1.00  0.00     0.000 C 
BRANCH  19  20
ATOM     20  C   UNL     1      63.695  80.947  73.504  1.00  0.00    -0.003 C 
ATOM     21  C   UNL     1      64.234  81.523  72.205  1.00  0.00     0.004 C 
ENDBRANCH  19  20
ENDBRANCH  18  19
ENDBRANCH  17  18
ENDBRANCH   1  17
TORSDOF 10
ENDMDL
MODEL 5
REMARK VINA RESULT:    -5.246     21.072     24.427
REMARK INTER + INTRA:          -9.418
REMARK INTER:                  -8.392
REMARK INTRA:                  -1.026
REMARK UNBOUND:                -1.259
REMARK SMILES CCCCC/C=C/C(=O)CCc1ccc(O)c(OC)c1
REMARK SMILES IDX 6 1 7 2 8 3 9 4 10 5 11 6 12 7 17 8 20 9 15 10 14 11 13 12
REMARK SMILES IDX 18 13 19 14 16 15 5 17 4 18 3 19 2 20 1 21
REMARK H PARENT 16 16
REMARK Flexibility Score: inf
ROOT
ATOM      1  C   UNL     1      74.714  83.012  66.309  1.00  0.00    -0.023 C 
ATOM      2  C   UNL     1      75.483  82.242  65.529  1.00  0.00     0.043 C 
ENDROOT
BRANCH   2   3
ATOM      3  C   UNL     1      76.961  82.255  65.699  1.00  0.00     0.155 C 
ATOM      4  O   UNL     1      77.609  81.218  65.822  1.00  0.00    -0.295 OA
BRANCH   3   5
ATOM      5  C   UNL     1      77.622  83.618  65.767  1.00  0.00     0.085 C 
BRANCH   5   6
ATOM      6  C   UNL     1      78.354  83.815  67.095  1.00  0.00     0.044 C 
BRANCH   6   7
ATOM      7  C   UNL     1      77.734  84.891  67.954  1.00  0.00    -0.044 A 
ATOM      8  C   UNL     1      76.313  85.525  69.781  1.00  0.00     0.160 A 
ATOM      9  C   UNL     1      76.885  84.530  68.988  1.00  0.00     0.054 A 
ATOM     10  C   UNL     1      76.597  86.867  69.530  1.00  0.00     0.157 A 
ATOM     11  C   UNL     1      77.454  87.215  68.485  1.00  0.00     0.050 A 
ATOM     12  C   UNL     1      78.026  86.220  67.692  1.00  0.00     0.008 A 
BRANCH   8  13
ATOM     13  O   UNL     1      75.478  85.173  70.798  1.00  0.00    -0.493 OA
ATOM     14  C   UNL     1      75.851  84.041  71.581  1.00  0.00     0.278 C 
ENDBRANCH   8  13
BRANCH  10  15
ATOM     15  O   UNL     1      76.045  87.848  70.297  1.00  0.00    -0.504 OA
ATOM     16  H   UNL     1      75.077  87.758  70.258  1.00  0.00     0.293 HD
ENDBRANCH  10  15
ENDBRANCH   6   7
ENDBRANCH   5   6
ENDBRANCH   3   5
ENDBRANCH   2   3
BRANCH   1  17
ATOM     17  C   UNL     1      73.218  83.056  66.199  1.00  0.00     0.027 C 
BRANCH  17  18
ATOM     18  C   UNL     1      72.592  81.680  65.954  1.00  0.00     0.004 C 
BRANCH  18  19
ATOM     19  C   UNL     1      71.807  81.588  64.641  1.00  0.00     0.000 C 
BRANCH  19  20
ATOM     20  C   UNL     1      70.964  82.843  64.413  1.00  0.00    -0.003 C 
ATOM     21  C   UNL     1      70.665  83.053  62.938  1.00  0.00     0.004 C 
ENDBRANCH  19  20
ENDBRANCH  18  19
ENDBRANCH  17  18
ENDBRANCH   1  17
TORSDOF 10
ENDMDL
MODEL 6
REMARK VINA RESULT:    -5.223      2.395      6.923
REMARK INTER + INTRA:          -9.382
REMARK INTER:                  -8.470
REMARK INTRA:                  -0.913
REMARK UNBOUND:                -1.259
REMARK SMILES CCCCC/C=C/C(=O)CCc1ccc(O)c(OC)c1
REMARK SMILES IDX 6 1 7 2 8 3 9 4 10 5 11 6 12 7 17 8 20 9 15 10 14 11 13 12
REMARK SMILES IDX 18 13 19 14 16 15 5 17 4 18 3 19 2 20 1 21
REMARK H PARENT 16 16
REMARK Flexibility Score: inf
ROOT
ATOM      1  C   UNL     1      94.190  95.487  79.309  1.00  0.00    -0.023 C 
ATOM      2  C   UNL     1      93.331  94.463  79.373  1.00  0.00     0.043 C 
ENDROOT
BRANCH   2   3
ATOM      3  C   UNL     1      92.203  94.379  78.406  1.00  0.00     0.155 C 
ATOM      4  O   UNL     1      91.088  93.986  78.742  1.00  0.00    -0.295 OA
BRANCH   3   5
ATOM      5  C   UNL     1      92.515  94.753  76.970  1.00  0.00     0.085 C 
BRANCH   5   6
ATOM      6  C   UNL     1      92.153  96.211  76.685  1.00  0.00     0.044 C 
BRANCH   6   7
ATOM      7  C   UNL     1      93.226  96.943  75.915  1.00  0.00    -0.044 A 
ATOM      8  C   UNL     1      93.959  98.891  74.721  1.00  0.00     0.160 A 
ATOM      9  C   UNL     1      92.967  98.216  75.431  1.00  0.00     0.054 A 
ATOM     10  C   UNL     1      95.197  98.286  74.503  1.00  0.00     0.157 A 
ATOM     11  C   UNL     1      95.442  97.004  74.996  1.00  0.00     0.050 A 
ATOM     12  C   UNL     1      94.450  96.328  75.706  1.00  0.00     0.008 A 
BRANCH   8  13
ATOM     13  O   UNL     1      93.707 100.143  74.244  1.00  0.00    -0.493 OA
ATOM     14  C   UNL     1      92.774 100.252  73.171  1.00  0.00     0.278 C 
ENDBRANCH   8  13
BRANCH  10  15
ATOM     15  O   UNL     1      96.173  98.936  73.811  1.00  0.00    -0.504 OA
ATOM     16  H   UNL     1      96.186  99.865  74.099  1.00  0.00     0.293 HD
ENDBRANCH  10  15
ENDBRANCH   6   7
ENDBRANCH   5   6
ENDBRANCH   3   5
ENDBRANCH   2   3
BRANCH   1  17
ATOM     17  C   UNL     1      95.352  95.644  80.247  1.00  0.00     0.027 C 
BRANCH  17  18
ATOM     18  C   UNL     1      95.560  94.427  81.155  1.00  0.00     0.004 C 
BRANCH  18  19
ATOM     19  C   UNL     1      96.174  94.775  82.515  1.00  0.00     0.000 C 
BRANCH  19  20
ATOM     20  C   UNL     1      96.798  96.171  82.498  1.00  0.00    -0.003 C 
ATOM     21  C   UNL     1      96.173  97.073  83.550  1.00  0.00     0.004 C 
ENDBRANCH  19  20
ENDBRANCH  18  19
ENDBRANCH  17  18
ENDBRANCH   1  17
TORSDOF 10
ENDMDL
MODEL 7
REMARK VINA RESULT:    -5.181     21.088     23.843
REMARK INTER + INTRA:          -9.318
REMARK INTER:                  -8.417
REMARK INTRA:                  -0.900
REMARK UNBOUND:                -1.259
REMARK SMILES CCCCC/C=C/C(=O)CCc1ccc(O)c(OC)c1
REMARK SMILES IDX 6 1 7 2 8 3 9 4 10 5 11 6 12 7 17 8 20 9 15 10 14 11 13 12
REMARK SMILES IDX 18 13 19 14 16 15 5 17 4 18 3 19 2 20 1 21
REMARK H PARENT 16 16
REMARK Flexibility Score: inf
ROOT
ATOM      1  C   UNL     1      75.775  83.821  66.712  1.00  0.00    -0.023 C 
ATOM      2  C   UNL     1      76.538  83.670  67.802  1.00  0.00     0.043 C 
ENDROOT
BRANCH   2   3
ATOM      3  C   UNL     1      77.955  84.123  67.783  1.00  0.00     0.155 C 
ATOM      4  O   UNL     1      78.817  83.532  67.135  1.00  0.00    -0.295 OA
BRANCH   3   5
ATOM      5  C   UNL     1      78.293  85.321  68.649  1.00  0.00     0.085 C 
BRANCH   5   6
ATOM      6  C   UNL     1      78.094  86.631  67.886  1.00  0.00     0.044 C 
BRANCH   6   7
ATOM      7  C   UNL     1      76.935  87.445  68.410  1.00  0.00    -0.044 A 
ATOM      8  C   UNL     1      74.952  88.734  68.002  1.00  0.00     0.160 A 
ATOM      9  C   UNL     1      76.023  87.983  67.516  1.00  0.00     0.054 A 
ATOM     10  C   UNL     1      74.808  88.939  69.373  1.00  0.00     0.157 A 
ATOM     11  C   UNL     1      75.736  88.392  70.261  1.00  0.00     0.050 A 
ATOM     12  C   UNL     1      76.806  87.640  69.776  1.00  0.00     0.008 A 
BRANCH   8  13
ATOM     13  O   UNL     1      74.054  89.263  67.124  1.00  0.00    -0.493 OA
ATOM     14  C   UNL     1      74.554  89.676  65.854  1.00  0.00     0.278 C 
ENDBRANCH   8  13
BRANCH  10  15
ATOM     15  O   UNL     1      73.767  89.671  69.859  1.00  0.00    -0.504 OA
ATOM     16  H   UNL     1      74.101  90.551  70.105  1.00  0.00     0.293 HD
ENDBRANCH  10  15
ENDBRANCH   6   7
ENDBRANCH   5   6
ENDBRANCH   3   5
ENDBRANCH   2   3
BRANCH   1  17
ATOM     17  C   UNL     1      74.338  83.390  66.650  1.00  0.00     0.027 C 
BRANCH  17  18
ATOM     18  C   UNL     1      74.112  82.176  65.743  1.00  0.00     0.004 C 
BRANCH  18  19
ATOM     19  C   UNL     1      72.662  81.683  65.726  1.00  0.00     0.000 C 
BRANCH  19  20
ATOM     20  C   UNL     1      72.491  80.504  64.767  1.00  0.00    -0.003 C 
ATOM     21  C   UNL     1      73.596  80.470  63.724  1.00  0.00     0.004 C 
ENDBRANCH  19  20
ENDBRANCH  18  19
ENDBRANCH  17  18
ENDBRANCH   1  17
TORSDOF 10
ENDMDL
MODEL 8
REMARK VINA RESULT:    -5.017     20.754     23.563
REMARK INTER + INTRA:          -9.062
REMARK INTER:                  -7.674
REMARK INTRA:                  -1.388
REMARK UNBOUND:                -1.259
REMARK SMILES CCCCC/C=C/C(=O)CCc1ccc(O)c(OC)c1
REMARK SMILES IDX 6 1 7 2 8 3 9 4 10 5 11 6 12 7 17 8 20 9 15 10 14 11 13 12
REMARK SMILES IDX 18 13 19 14 16 15 5 17 4 18 3 19 2 20 1 21
REMARK H PARENT 16 16
REMARK Flexibility Score: inf
ROOT
ATOM      1  C   UNL     1      74.844  83.403  66.508  1.00  0.00    -0.023 C 
ATOM      2  C   UNL     1      75.455  82.565  65.661  1.00  0.00     0.043 C 
ENDROOT
BRANCH   2   3
ATOM      3  C   UNL     1      76.938  82.441  65.682  1.00  0.00     0.155 C 
ATOM      4  O   UNL     1      77.497  81.347  65.732  1.00  0.00    -0.295 OA
BRANCH   3   5
ATOM      5  C   UNL     1      77.725  83.737  65.693  1.00  0.00     0.085 C 
BRANCH   5   6
ATOM      6  C   UNL     1      78.468  83.925  67.017  1.00  0.00     0.044 C 
BRANCH   6   7
ATOM      7  C   UNL     1      77.963  85.106  67.811  1.00  0.00    -0.044 A 
ATOM      8  C   UNL     1      76.982  87.296  67.875  1.00  0.00     0.160 A 
ATOM      9  C   UNL     1      77.449  86.205  67.141  1.00  0.00     0.054 A 
ATOM     10  C   UNL     1      77.036  87.274  69.268  1.00  0.00     0.157 A 
ATOM     11  C   UNL     1      77.558  86.161  69.928  1.00  0.00     0.050 A 
ATOM     12  C   UNL     1      78.024  85.070  69.194  1.00  0.00     0.008 A 
BRANCH   8  13
ATOM     13  O   UNL     1      76.476  88.377  67.218  1.00  0.00    -0.493 OA
ATOM     14  C   UNL     1      75.210  88.215  66.581  1.00  0.00     0.278 C 
ENDBRANCH   8  13
BRANCH  10  15
ATOM     15  O   UNL     1      76.583  88.333  69.995  1.00  0.00    -0.504 OA
ATOM     16  H   UNL     1      75.806  88.044  70.504  1.00  0.00     0.293 HD
ENDBRANCH  10  15
ENDBRANCH   6   7
ENDBRANCH   5   6
ENDBRANCH   3   5
ENDBRANCH   2   3
BRANCH   1  17
ATOM     17  C   UNL     1      73.355  83.585  66.549  1.00  0.00     0.027 C 
BRANCH  17  18
ATOM     18  C   UNL     1      72.928  84.897  67.217  1.00  0.00     0.004 C 
BRANCH  18  19
ATOM     19  C   UNL     1      71.884  84.710  68.324  1.00  0.00     0.000 C 
BRANCH  19  20
ATOM     20  C   UNL     1      72.321  85.401  69.616  1.00  0.00    -0.003 C 
ATOM     21  C   UNL     1      73.755  85.898  69.525  1.00  0.00     0.004 C 
ENDBRANCH  19  20
ENDBRANCH  18  19
ENDBRANCH  17  18
ENDBRANCH   1  17
TORSDOF 10
ENDMDL
MODEL 9
REMARK VINA RESULT:    -4.999     20.978     23.481
REMARK INTER + INTRA:          -9.033
REMARK INTER:                  -7.674
REMARK INTRA:                  -1.359
REMARK UNBOUND:                -1.259
REMARK SMILES CCCCC/C=C/C(=O)CCc1ccc(O)c(OC)c1
REMARK SMILES IDX 6 1 7 2 8 3 9 4 10 5 11 6 12 7 17 8 20 9 15 10 14 11 13 12
REMARK SMILES IDX 18 13 19 14 16 15 5 17 4 18 3 19 2 20 1 21
REMARK H PARENT 16 16
REMARK Flexibility Score: inf
ROOT
ATOM      1  C   UNL     1      75.566  84.148  66.879  1.00  0.00    -0.023 C 
ATOM      2  C   UNL     1      76.422  83.425  67.612  1.00  0.00     0.043 C 
ENDROOT
BRANCH   2   3
ATOM      3  C   UNL     1      77.779  83.958  67.908  1.00  0.00     0.155 C 
ATOM      4  O   UNL     1      78.774  83.577  67.295  1.00  0.00    -0.295 OA
BRANCH   3   5
ATOM      5  C   UNL     1      77.879  84.959  69.043  1.00  0.00     0.085 C 
BRANCH   5   6
ATOM      6  C   UNL     1      78.340  86.327  68.538  1.00  0.00     0.044 C 
BRANCH   6   7
ATOM      7  C   UNL     1      77.190  87.239  68.181  1.00  0.00    -0.044 A 
ATOM      8  C   UNL     1      75.275  88.522  68.851  1.00  0.00     0.160 A 
ATOM      9  C   UNL     1      76.337  87.679  69.181  1.00  0.00     0.054 A 
ATOM     10  C   UNL     1      75.081  88.914  67.527  1.00  0.00     0.157 A 
ATOM     11  C   UNL     1      75.948  88.462  66.532  1.00  0.00     0.050 A 
ATOM     12  C   UNL     1      77.010  87.619  66.861  1.00  0.00     0.008 A 
BRANCH   8  13
ATOM     13  O   UNL     1      74.435  88.956  69.832  1.00  0.00    -0.493 OA
ATOM     14  C   UNL     1      74.547  88.326  71.107  1.00  0.00     0.278 C 
ENDBRANCH   8  13
BRANCH  10  15
ATOM     15  O   UNL     1      74.048  89.737  67.193  1.00  0.00    -0.504 OA
ATOM     16  H   UNL     1      73.457  89.255  66.589  1.00  0.00     0.293 HD
ENDBRANCH  10  15
ENDBRANCH   6   7
ENDBRANCH   5   6
ENDBRANCH   3   5
ENDBRANCH   2   3
BRANCH   1  17
ATOM     17  C   UNL     1      74.181  83.681  66.536  1.00  0.00     0.027 C 
BRANCH  17  18
ATOM     18  C   UNL     1      74.102  82.979  65.177  1.00  0.00     0.004 C 
BRANCH  18  19
ATOM     19  C   UNL     1      74.438  81.485  65.237  1.00  0.00     0.000 C 
BRANCH  19  20
ATOM     20  C   UNL     1      75.791  81.197  64.585  1.00  0.00    -0.003 C 
ATOM     21  C   UNL     1      76.101  82.196  63.481  1.00  0.00     0.004 C 
ENDBRANCH  19  20
ENDBRANCH  18  19
ENDBRANCH  17  18
ENDBRANCH   1  17
TORSDOF 10
ENDMDL
MODEL 10
REMARK VINA RESULT:    -4.906     18.303     22.574
REMARK INTER + INTRA:          -8.889
REMARK INTER:                  -8.281
REMARK INTRA:                  -0.608
REMARK UNBOUND:                -1.259
REMARK SMILES CCCCC/C=C/C(=O)CCc1ccc(O)c(OC)c1
REMARK SMILES IDX 6 1 7 2 8 3 9 4 10 5 11 6 12 7 17 8 20 9 15 10 14 11 13 12
REMARK SMILES IDX 18 13 19 14 16 15 5 17 4 18 3 19 2 20 1 21
REMARK H PARENT 16 16
REMARK Flexibility Score: inf
ROOT
ATOM      1  C   UNL     1      75.670  89.940  70.457  1.00  0.00    -0.023 C 
ATOM      2  C   UNL     1      75.438  88.624  70.539  1.00  0.00     0.043 C 
ENDROOT
BRANCH   2   3
ATOM      3  C   UNL     1      76.108  87.693  69.591  1.00  0.00     0.155 C 
ATOM      4  O   UNL     1      76.732  86.708  69.982  1.00  0.00    -0.295 OA
BRANCH   3   5
ATOM      5  C   UNL     1      76.028  88.051  68.120  1.00  0.00     0.085 C 
BRANCH   5   6
ATOM      6  C   UNL     1      77.286  87.609  67.371  1.00  0.00     0.044 C 
BRANCH   6   7
ATOM      7  C   UNL     1      76.983  86.720  66.188  1.00  0.00    -0.044 A 
ATOM      8  C   UNL     1      76.314  84.588  65.313  1.00  0.00     0.160 A 
ATOM      9  C   UNL     1      76.594  85.408  66.406  1.00  0.00     0.054 A 
ATOM     10  C   UNL     1      76.427  85.089  64.017  1.00  0.00     0.157 A 
ATOM     11  C   UNL     1      76.820  86.413  63.814  1.00  0.00     0.050 A 
ATOM     12  C   UNL     1      77.100  87.233  64.907  1.00  0.00     0.008 A 
BRANCH   8  13
ATOM     13  O   UNL     1      75.931  83.297  65.525  1.00  0.00    -0.493 OA
ATOM     14  C   UNL     1      76.968  82.324  65.638  1.00  0.00     0.278 C 
ENDBRANCH   8  13
BRANCH  10  15
ATOM     15  O   UNL     1      76.156  84.298  62.942  1.00  0.00    -0.504 OA
ATOM     16  H   UNL     1      76.817  83.585  62.913  1.00  0.00     0.293 HD
ENDBRANCH  10  15
ENDBRANCH   6   7
ENDBRANCH   5   6
ENDBRANCH   3   5
ENDBRANCH   2   3
BRANCH   1  17
ATOM     17  C   UNL     1      75.034  90.944  71.374  1.00  0.00     0.027 C 
BRANCH  17  18
ATOM     18  C   UNL     1      75.738  92.305  71.359  1.00  0.00     0.004 C 
BRANCH  18  19
ATOM     19  C   UNL     1      76.552  92.589  72.625  1.00  0.00     0.000 C 
BRANCH  19  20
ATOM     20  C   UNL     1      78.054  92.529  72.341  1.00  0.00    -0.003 C 
ATOM     21  C   UNL     1      78.733  93.852  72.653  1.00  0.00     0.004 C 
ENDBRANCH  19  20
ENDBRANCH  18  19
ENDBRANCH  17  18
ENDBRANCH   1  17
TORSDOF 10
ENDMDL
