MODEL 1
REMARK VINA RESULT:    -6.505      0.000      0.000
REMARK INTER + INTRA:         -10.785
REMARK INTER:                 -10.117
REMARK INTRA:                  -0.668
REMARK UNBOUND:                -0.668
REMARK SMILES COc1cc(CNC(=O)CCCC/C=C/C(C)C)ccc1O
REMARK SMILES IDX 10 1 8 2 7 3 9 5 6 6 5 7 3 8 21 9 4 10 20 11 19 12 2 13 1 14
REMARK SMILES IDX 22 15 11 17 12 18 13 19 14 20 15 21 16 22 17 23 18 24
REMARK H PARENT 7 4 22 16
REMARK Flexibility Score: inf
ROOT
ATOM      1  C   UNL     1      93.126 100.346  74.944  1.00  0.00     0.100 C 
ENDROOT
BRANCH   1   2
ATOM      2  C   UNL     1      93.964  99.495  75.809  1.00  0.00     0.220 C 
ATOM      3  N   UNL     1      93.701  98.163  75.933  1.00  0.00    -0.352 N 
ATOM      4  H   UNL     1      92.896  97.838  75.416  1.00  0.00     0.163 HD
ATOM      5  O   UNL     1      94.933 100.027  76.404  1.00  0.00    -0.275 OA
BRANCH   3   6
ATOM      6  C   UNL     1      94.469  97.250  76.717  1.00  0.00     0.151 C 
BRANCH   6   7
ATOM      7  C   UNL     1      93.607  96.219  77.356  1.00  0.00    -0.025 A 
ATOM      8  C   UNL     1      93.205  94.610  79.176  1.00  0.00     0.160 A 
ATOM      9  C   UNL     1      91.966  94.265  78.598  1.00  0.00     0.157 A 
ATOM     10  C   UNL     1      94.014  95.581  78.549  1.00  0.00     0.056 A 
ATOM     11  C   UNL     1      91.555  94.879  77.398  1.00  0.00     0.050 A 
ATOM     12  C   UNL     1      92.364  95.856  76.786  1.00  0.00     0.009 A 
BRANCH   8  13
ATOM     13  O   UNL     1      93.639  93.968  80.308  1.00  0.00    -0.493 OA
ATOM     14  C   UNL     1      94.979  93.452  80.213  1.00  0.00     0.278 C 
ENDBRANCH   8  13
BRANCH   9  15
ATOM     15  O   UNL     1      91.157  93.344  79.183  1.00  0.00    -0.504 OA
ATOM     16  H   UNL     1      91.608  92.952  79.935  1.00  0.00     0.293 HD
ENDBRANCH   9  15
ENDBRANCH   6   7
ENDBRANCH   3   6
ENDBRANCH   1   2
BRANCH   1  17
ATOM     17  C   UNL     1      92.585  99.561  73.719  1.00  0.00     0.010 C 
BRANCH  17  18
ATOM     18  C   UNL     1      92.519 100.424  72.428  1.00  0.00     0.005 C 
BRANCH  18  19
ATOM     19  C   UNL     1      91.068 100.592  71.903  1.00  0.00     0.027 C 
BRANCH  19  20
ATOM     20  C   UNL     1      90.600  99.407  71.199  1.00  0.00    -0.031 C 
ATOM     21  C   UNL     1      89.345  99.246  70.741  1.00  0.00    -0.028 C 
BRANCH  21  22
ATOM     22  C   UNL     1      88.901  98.054  70.019  1.00  0.00     0.005 C 
ATOM     23  C   UNL     1      88.920  98.258  68.479  1.00  0.00     0.012 C 
ATOM     24  C   UNL     1      89.761  96.830  70.426  1.00  0.00     0.012 C 
ENDBRANCH  21  22
ENDBRANCH  19  20
ENDBRANCH  18  19
ENDBRANCH  17  18
ENDBRANCH   1  17
TORSDOF 10
ENDMDL
MODEL 2
REMARK VINA RESULT:    -6.258      3.595      8.641
REMARK INTER + INTRA:         -10.402
REMARK INTER:                  -9.845
REMARK INTRA:                  -0.556
REMARK UNBOUND:                -0.668
REMARK SMILES COc1cc(CNC(=O)CCCC/C=C/C(C)C)ccc1O
REMARK SMILES IDX 10 1 8 2 7 3 9 5 6 6 5 7 3 8 21 9 4 10 20 11 19 12 2 13 1 14
REMARK SMILES IDX 22 15 11 17 12 18 13 19 14 20 15 21 16 22 17 23 18 24
REMARK H PARENT 7 4 22 16
REMARK Flexibility Score: inf
ROOT
ATOM      1  C   UNL     1      93.415  99.535  74.923  1.00  0.00     0.100 C 
ENDROOT
BRANCH   1   2
ATOM      2  C   UNL     1      92.675 100.423  74.006  1.00  0.00     0.220 C 
ATOM      3  N   UNL     1      92.067  99.918  72.896  1.00  0.00    -0.352 N 
ATOM      4  H   UNL     1      92.189  98.924  72.757  1.00  0.00     0.163 HD
ATOM      5  O   UNL     1      92.604 101.643  74.291  1.00  0.00    -0.275 OA
BRANCH   3   6
ATOM      6  C   UNL     1      91.302 100.685  71.965  1.00  0.00     0.151 C 
BRANCH   6   7
ATOM      7  C   UNL     1      90.441  99.815  71.118  1.00  0.00    -0.025 A 
ATOM      8  C   UNL     1      89.003  99.521  69.140  1.00  0.00     0.160 A 
ATOM      9  C   UNL     1      88.811  98.166  69.481  1.00  0.00     0.157 A 
ATOM     10  C   UNL     1      89.813 100.333  69.962  1.00  0.00     0.056 A 
ATOM     11  C   UNL     1      89.415  97.641  70.640  1.00  0.00     0.050 A 
ATOM     12  C   UNL     1      90.232  98.456  71.448  1.00  0.00     0.009 A 
BRANCH   8  13
ATOM     13  O   UNL     1      88.365 100.054  68.049  1.00  0.00    -0.493 OA
ATOM     14  C   UNL     1      89.010 101.219  67.503  1.00  0.00     0.278 C 
ENDBRANCH   8  13
BRANCH   9  15
ATOM     15  O   UNL     1      88.048  97.355  68.704  1.00  0.00    -0.504 OA
ATOM     16  H   UNL     1      87.150  97.338  69.043  1.00  0.00     0.293 HD
ENDBRANCH   9  15
ENDBRANCH   6   7
ENDBRANCH   3   6
ENDBRANCH   1   2
BRANCH   1  17
ATOM     17  C   UNL     1      94.628  98.869  74.221  1.00  0.00     0.010 C 
BRANCH  17  18
ATOM     18  C   UNL     1      94.973  97.470  74.806  1.00  0.00     0.005 C 
BRANCH  18  19
ATOM     19  C   UNL     1      94.463  97.297  76.262  1.00  0.00     0.027 C 
BRANCH  19  20
ATOM     20  C   UNL     1      93.300  96.426  76.335  1.00  0.00    -0.031 C 
ATOM     21  C   UNL     1      92.796  95.933  77.480  1.00  0.00    -0.028 C 
BRANCH  21  22
ATOM     22  C   UNL     1      91.612  95.074  77.531  1.00  0.00     0.005 C 
ATOM     23  C   UNL     1      91.633  94.114  78.753  1.00  0.00     0.012 C 
ATOM     24  C   UNL     1      90.324  95.937  77.528  1.00  0.00     0.012 C 
ENDBRANCH  21  22
ENDBRANCH  19  20
ENDBRANCH  18  19
ENDBRANCH  17  18
ENDBRANCH   1  17
TORSDOF 10
ENDMDL
MODEL 3
REMARK VINA RESULT:    -6.182     17.001     18.751
REMARK INTER + INTRA:         -10.282
REMARK INTER:                  -9.471
REMARK INTRA:                  -0.811
REMARK UNBOUND:                -0.668
REMARK SMILES COc1cc(CNC(=O)CCCC/C=C/C(C)C)ccc1O
REMARK SMILES IDX 10 1 8 2 7 3 9 5 6 6 5 7 3 8 21 9 4 10 20 11 19 12 2 13 1 14
REMARK SMILES IDX 22 15 11 17 12 18 13 19 14 20 15 21 16 22 17 23 18 24
REMARK H PARENT 7 4 22 16
REMARK Flexibility Score: inf
ROOT
ATOM      1  C   UNL     1      96.308  84.306  87.241  1.00  0.00     0.100 C 
ENDROOT
BRANCH   1   2
ATOM      2  C   UNL     1      95.046  84.035  87.955  1.00  0.00     0.220 C 
ATOM      3  N   UNL     1      93.859  84.036  87.286  1.00  0.00    -0.352 N 
ATOM      4  H   UNL     1      93.924  84.256  86.302  1.00  0.00     0.163 HD
ATOM      5  O   UNL     1      95.103  83.782  89.183  1.00  0.00    -0.275 OA
BRANCH   3   6
ATOM      6  C   UNL     1      92.589  83.755  87.878  1.00  0.00     0.151 C 
BRANCH   6   7
ATOM      7  C   UNL     1      91.886  82.655  87.164  1.00  0.00    -0.025 A 
ATOM      8  C   UNL     1      89.789  81.567  86.469  1.00  0.00     0.160 A 
ATOM      9  C   UNL     1      90.527  80.575  85.792  1.00  0.00     0.157 A 
ATOM     10  C   UNL     1      90.474  82.596  87.149  1.00  0.00     0.056 A 
ATOM     11  C   UNL     1      91.936  80.610  85.814  1.00  0.00     0.050 A 
ATOM     12  C   UNL     1      92.611  81.647  86.486  1.00  0.00     0.009 A 
BRANCH   8  13
ATOM     13  O   UNL     1      88.419  81.501  86.505  1.00  0.00    -0.493 OA
ATOM     14  C   UNL     1      87.767  82.250  85.463  1.00  0.00     0.278 C 
ENDBRANCH   8  13
BRANCH   9  15
ATOM     15  O   UNL     1      89.899  79.579  85.116  1.00  0.00    -0.504 OA
ATOM     16  H   UNL     1      90.133  79.624  84.186  1.00  0.00     0.293 HD
ENDBRANCH   9  15
ENDBRANCH   6   7
ENDBRANCH   3   6
ENDBRANCH   1   2
BRANCH   1  17
ATOM     17  C   UNL     1      96.091  85.261  86.037  1.00  0.00     0.010 C 
BRANCH  17  18
ATOM     18  C   UNL     1      96.536  84.640  84.683  1.00  0.00     0.005 C 
BRANCH  18  19
ATOM     19  C   UNL     1      96.994  83.164  84.833  1.00  0.00     0.027 C 
BRANCH  19  20
ATOM     20  C   UNL     1      97.918  82.768  83.780  1.00  0.00    -0.031 C 
ATOM     21  C   UNL     1      97.885  83.251  82.524  1.00  0.00    -0.028 C 
BRANCH  21  22
ATOM     22  C   UNL     1      98.836  82.853  81.487  1.00  0.00     0.005 C 
ATOM     23  C   UNL     1      99.270  81.367  81.624  1.00  0.00     0.012 C 
ATOM     24  C   UNL     1      98.242  83.129  80.081  1.00  0.00     0.012 C 
ENDBRANCH  21  22
ENDBRANCH  19  20
ENDBRANCH  18  19
ENDBRANCH  17  18
ENDBRANCH   1  17
TORSDOF 10
ENDMDL
MODEL 4
REMARK VINA RESULT:    -6.143     15.614     18.159
REMARK INTER + INTRA:         -10.222
REMARK INTER:                  -9.441
REMARK INTRA:                  -0.780
REMARK UNBOUND:                -0.668
REMARK SMILES COc1cc(CNC(=O)CCCC/C=C/C(C)C)ccc1O
REMARK SMILES IDX 10 1 8 2 7 3 9 5 6 6 5 7 3 8 21 9 4 10 20 11 19 12 2 13 1 14
REMARK SMILES IDX 22 15 11 17 12 18 13 19 14 20 15 21 16 22 17 23 18 24
REMARK H PARENT 7 4 22 16
REMARK Flexibility Score: inf
ROOT
ATOM      1  C   UNL     1      98.496  82.457  84.906  1.00  0.00     0.100 C 
ENDROOT
BRANCH   1   2
ATOM      2  C   UNL     1      99.295  82.112  83.714  1.00  0.00     0.220 C 
ATOM      3  N   UNL     1      99.233  82.885  82.593  1.00  0.00    -0.352 N 
ATOM      4  H   UNL     1      98.596  83.667  82.649  1.00  0.00     0.163 HD
ATOM      5  O   UNL     1     100.045  81.107  83.773  1.00  0.00    -0.275 OA
BRANCH   3   6
ATOM      6  C   UNL     1      99.988  82.656  81.403  1.00  0.00     0.151 C 
BRANCH   6   7
ATOM      7  C   UNL     1      99.203  82.995  80.185  1.00  0.00    -0.025 A 
ATOM      8  C   UNL     1      99.101  83.368  77.753  1.00  0.00     0.160 A 
ATOM      9  C   UNL     1      97.717  83.621  77.849  1.00  0.00     0.157 A 
ATOM     10  C   UNL     1      99.830  83.060  78.920  1.00  0.00     0.056 A 
ATOM     11  C   UNL     1      97.081  83.580  79.105  1.00  0.00     0.050 A 
ATOM     12  C   UNL     1      97.815  83.259  80.264  1.00  0.00     0.009 A 
BRANCH   8  13
ATOM     13  O   UNL     1      99.737  83.472  76.542  1.00  0.00    -0.493 OA
ATOM     14  C   UNL     1     101.141  83.772  76.640  1.00  0.00     0.278 C 
ENDBRANCH   8  13
BRANCH   9  15
ATOM     15  O   UNL     1      96.983  83.908  76.742  1.00  0.00    -0.504 OA
ATOM     16  H   UNL     1      96.049  83.810  76.943  1.00  0.00     0.293 HD
ENDBRANCH   9  15
ENDBRANCH   6   7
ENDBRANCH   3   6
ENDBRANCH   1   2
BRANCH   1  17
ATOM     17  C   UNL     1      97.631  83.724  84.669  1.00  0.00     0.010 C 
BRANCH  17  18
ATOM     18  C   UNL     1      97.678  84.721  85.861  1.00  0.00     0.005 C 
BRANCH  18  19
ATOM     19  C   UNL     1      96.670  85.889  85.694  1.00  0.00     0.027 C 
BRANCH  19  20
ATOM     20  C   UNL     1      95.572  85.805  86.645  1.00  0.00    -0.031 C 
ATOM     21  C   UNL     1      95.454  84.845  87.580  1.00  0.00    -0.028 C 
BRANCH  21  22
ATOM     22  C   UNL     1      94.351  84.791  88.539  1.00  0.00     0.005 C 
ATOM     23  C   UNL     1      94.187  86.122  89.324  1.00  0.00     0.012 C 
ATOM     24  C   UNL     1      93.033  84.406  87.819  1.00  0.00     0.012 C 
ENDBRANCH  21  22
ENDBRANCH  19  20
ENDBRANCH  18  19
ENDBRANCH  17  18
ENDBRANCH   1  17
TORSDOF 10
ENDMDL
MODEL 5
REMARK VINA RESULT:    -6.071     15.292     16.967
REMARK INTER + INTRA:         -10.110
REMARK INTER:                  -9.358
REMARK INTRA:                  -0.752
REMARK UNBOUND:                -0.668
REMARK SMILES COc1cc(CNC(=O)CCCC/C=C/C(C)C)ccc1O
REMARK SMILES IDX 10 1 8 2 7 3 9 5 6 6 5 7 3 8 21 9 4 10 20 11 19 12 2 13 1 14
REMARK SMILES IDX 22 15 11 17 12 18 13 19 14 20 15 21 16 22 17 23 18 24
REMARK H PARENT 7 4 22 16
REMARK Flexibility Score: inf
ROOT
ATOM      1  C   UNL     1      98.880  81.853  80.067  1.00  0.00     0.100 C 
ENDROOT
BRANCH   1   2
ATOM      2  C   UNL     1      99.420  82.022  81.430  1.00  0.00     0.220 C 
ATOM      3  N   UNL     1      98.763  81.498  82.503  1.00  0.00    -0.352 N 
ATOM      4  H   UNL     1      97.897  81.026  82.284  1.00  0.00     0.163 HD
ATOM      5  O   UNL     1     100.505  82.637  81.565  1.00  0.00    -0.275 OA
BRANCH   3   6
ATOM      6  C   UNL     1      99.217  81.578  83.855  1.00  0.00     0.151 C 
BRANCH   6   7
ATOM      7  C   UNL     1      98.558  82.694  84.587  1.00  0.00    -0.025 A 
ATOM      8  C   UNL     1      98.320  84.055  86.625  1.00  0.00     0.160 A 
ATOM      9  C   UNL     1      97.326  84.830  85.992  1.00  0.00     0.157 A 
ATOM     10  C   UNL     1      98.924  82.994  85.918  1.00  0.00     0.056 A 
ATOM     11  C   UNL     1      96.937  84.530  84.671  1.00  0.00     0.050 A 
ATOM     12  C   UNL     1      97.555  83.476  83.970  1.00  0.00     0.009 A 
BRANCH   8  13
ATOM     13  O   UNL     1      98.655  84.301  87.932  1.00  0.00    -0.493 OA
ATOM     14  C   UNL     1      98.122  83.343  88.865  1.00  0.00     0.278 C 
ENDBRANCH   8  13
BRANCH   9  15
ATOM     15  O   UNL     1      96.734  85.867  86.639  1.00  0.00    -0.504 OA
ATOM     16  H   UNL     1      96.336  85.551  87.454  1.00  0.00     0.293 HD
ENDBRANCH   9  15
ENDBRANCH   6   7
ENDBRANCH   3   6
ENDBRANCH   1   2
BRANCH   1  17
ATOM     17  C   UNL     1      98.842  83.200  79.296  1.00  0.00     0.010 C 
BRANCH  17  18
ATOM     18  C   UNL     1      97.419  83.565  78.785  1.00  0.00     0.005 C 
BRANCH  18  19
ATOM     19  C   UNL     1      97.416  83.973  77.287  1.00  0.00     0.027 C 
BRANCH  19  20
ATOM     20  C   UNL     1      98.697  83.716  76.647  1.00  0.00    -0.031 C 
ATOM     21  C   UNL     1      99.356  84.610  75.888  1.00  0.00    -0.028 C 
BRANCH  21  22
ATOM     22  C   UNL     1     100.653  84.336  75.269  1.00  0.00     0.005 C 
ATOM     23  C   UNL     1     101.033  85.401  74.203  1.00  0.00     0.012 C 
ATOM     24  C   UNL     1     101.752  84.225  76.357  1.00  0.00     0.012 C 
ENDBRANCH  21  22
ENDBRANCH  19  20
ENDBRANCH  18  19
ENDBRANCH  17  18
ENDBRANCH   1  17
TORSDOF 10
ENDMDL
MODEL 6
REMARK VINA RESULT:    -5.887     15.385     17.001
REMARK INTER + INTRA:          -9.825
REMARK INTER:                  -9.104
REMARK INTRA:                  -0.721
REMARK UNBOUND:                -0.668
REMARK SMILES COc1cc(CNC(=O)CCCC/C=C/C(C)C)ccc1O
REMARK SMILES IDX 10 1 8 2 7 3 9 5 6 6 5 7 3 8 21 9 4 10 20 11 19 12 2 13 1 14
REMARK SMILES IDX 22 15 11 17 12 18 13 19 14 20 15 21 16 22 17 23 18 24
REMARK H PARENT 7 4 22 16
REMARK Flexibility Score: inf
ROOT
ATOM      1  C   UNL     1      98.894  83.261  80.176  1.00  0.00     0.100 C 
ENDROOT
BRANCH   1   2
ATOM      2  C   UNL     1      98.793  82.538  81.459  1.00  0.00     0.220 C 
ATOM      3  N   UNL     1      98.321  83.166  82.572  1.00  0.00    -0.352 N 
ATOM      4  H   UNL     1      98.081  84.139  82.443  1.00  0.00     0.163 HD
ATOM      5  O   UNL     1      99.131  81.330  81.485  1.00  0.00    -0.275 OA
BRANCH   3   6
ATOM      6  C   UNL     1      98.154  82.548  83.848  1.00  0.00     0.151 C 
BRANCH   6   7
ATOM      7  C   UNL     1      97.316  83.380  84.753  1.00  0.00    -0.025 A 
ATOM      8  C   UNL     1      95.551  83.551  86.461  1.00  0.00     0.160 A 
ATOM      9  C   UNL     1      95.722  84.951  86.500  1.00  0.00     0.157 A 
ATOM     10  C   UNL     1      96.346  82.780  85.588  1.00  0.00     0.056 A 
ATOM     11  C   UNL     1      96.671  85.565  85.659  1.00  0.00     0.050 A 
ATOM     12  C   UNL     1      97.469  84.786  84.799  1.00  0.00     0.009 A 
BRANCH   8  13
ATOM     13  O   UNL     1      94.583  82.956  87.230  1.00  0.00    -0.493 OA
ATOM     14  C   UNL     1      94.350  81.571  86.911  1.00  0.00     0.278 C 
ENDBRANCH   8  13
BRANCH   9  15
ATOM     15  O   UNL     1      94.981  85.720  87.338  1.00  0.00    -0.504 OA
ATOM     16  H   UNL     1      95.495  85.926  88.122  1.00  0.00     0.293 HD
ENDBRANCH   9  15
ENDBRANCH   6   7
ENDBRANCH   3   6
ENDBRANCH   1   2
BRANCH   1  17
ATOM     17  C   UNL     1      97.677  82.970  79.258  1.00  0.00     0.010 C 
BRANCH  17  18
ATOM     18  C   UNL     1      97.444  84.079  78.193  1.00  0.00     0.005 C 
BRANCH  18  19
ATOM     19  C   UNL     1      97.762  83.592  76.754  1.00  0.00     0.027 C 
BRANCH  19  20
ATOM     20  C   UNL     1      99.119  83.080  76.637  1.00  0.00    -0.031 C 
ATOM     21  C   UNL     1     100.170  83.811  76.224  1.00  0.00    -0.028 C 
BRANCH  21  22
ATOM     22  C   UNL     1     101.530  83.280  76.132  1.00  0.00     0.005 C 
ATOM     23  C   UNL     1     102.551  84.353  75.662  1.00  0.00     0.012 C 
ATOM     24  C   UNL     1     101.958  82.666  77.491  1.00  0.00     0.012 C 
ENDBRANCH  21  22
ENDBRANCH  19  20
ENDBRANCH  18  19
ENDBRANCH  17  18
ENDBRANCH   1  17
TORSDOF 10
ENDMDL
MODEL 7
REMARK VINA RESULT:    -5.827     15.695     19.004
REMARK INTER + INTRA:          -9.731
REMARK INTER:                  -9.011
REMARK INTRA:                  -0.720
REMARK UNBOUND:                -0.668
REMARK SMILES COc1cc(CNC(=O)CCCC/C=C/C(C)C)ccc1O
REMARK SMILES IDX 10 1 8 2 7 3 9 5 6 6 5 7 3 8 21 9 4 10 20 11 19 12 2 13 1 14
REMARK SMILES IDX 22 15 11 17 12 18 13 19 14 20 15 21 16 22 17 23 18 24
REMARK H PARENT 7 4 22 16
REMARK Flexibility Score: inf
ROOT
ATOM      1  C   UNL     1      98.156  81.218  85.068  1.00  0.00     0.100 C 
ENDROOT
BRANCH   1   2
ATOM      2  C   UNL     1      99.171  81.689  84.106  1.00  0.00     0.220 C 
ATOM      3  N   UNL     1      98.797  82.180  82.891  1.00  0.00    -0.352 N 
ATOM      4  H   UNL     1      97.802  82.166  82.714  1.00  0.00     0.163 HD
ATOM      5  O   UNL     1     100.377  81.645  84.448  1.00  0.00    -0.275 OA
BRANCH   3   6
ATOM      6  C   UNL     1      99.695  82.688  81.905  1.00  0.00     0.151 C 
BRANCH   6   7
ATOM      7  C   UNL     1      98.987  83.019  80.639  1.00  0.00    -0.025 A 
ATOM      8  C   UNL     1      99.019  83.304  78.193  1.00  0.00     0.160 A 
ATOM      9  C   UNL     1      97.646  83.628  78.212  1.00  0.00     0.157 A 
ATOM     10  C   UNL     1      99.676  83.005  79.405  1.00  0.00     0.056 A 
ATOM     11  C   UNL     1      96.951  83.665  79.437  1.00  0.00     0.050 A 
ATOM     12  C   UNL     1      97.612  83.353  80.640  1.00  0.00     0.009 A 
BRANCH   8  13
ATOM     13  O   UNL     1      99.716  83.331  77.012  1.00  0.00    -0.493 OA
ATOM     14  C   UNL     1     101.146  83.347  77.174  1.00  0.00     0.278 C 
ENDBRANCH   8  13
BRANCH   9  15
ATOM     15  O   UNL     1      96.981  83.908  77.062  1.00  0.00    -0.504 OA
ATOM     16  H   UNL     1      96.634  84.802  77.101  1.00  0.00     0.293 HD
ENDBRANCH   9  15
ENDBRANCH   6   7
ENDBRANCH   3   6
ENDBRANCH   1   2
BRANCH   1  17
ATOM     17  C   UNL     1      96.949  82.190  85.149  1.00  0.00     0.010 C 
BRANCH  17  18
ATOM     18  C   UNL     1      96.310  82.245  86.565  1.00  0.00     0.005 C 
BRANCH  18  19
ATOM     19  C   UNL     1      95.732  80.874  87.007  1.00  0.00     0.027 C 
BRANCH  19  20
ATOM     20  C   UNL     1      94.285  80.817  86.862  1.00  0.00    -0.031 C 
ATOM     21  C   UNL     1      93.509  81.886  86.605  1.00  0.00    -0.028 C 
BRANCH  21  22
ATOM     22  C   UNL     1      92.057  81.803  86.444  1.00  0.00     0.005 C 
ATOM     23  C   UNL     1      91.613  80.465  85.790  1.00  0.00     0.012 C 
ATOM     24  C   UNL     1      91.354  82.011  87.810  1.00  0.00     0.012 C 
ENDBRANCH  21  22
ENDBRANCH  19  20
ENDBRANCH  18  19
ENDBRANCH  17  18
ENDBRANCH   1  17
TORSDOF 10
ENDMDL
MODEL 8
REMARK VINA RESULT:    -5.779     15.565     17.785
REMARK INTER + INTRA:          -9.656
REMARK INTER:                  -8.993
REMARK INTRA:                  -0.663
REMARK UNBOUND:                -0.668
REMARK SMILES COc1cc(CNC(=O)CCCC/C=C/C(C)C)ccc1O
REMARK SMILES IDX 10 1 8 2 7 3 9 5 6 6 5 7 3 8 21 9 4 10 20 11 19 12 2 13 1 14
REMARK SMILES IDX 22 15 11 17 12 18 13 19 14 20 15 21 16 22 17 23 18 24
REMARK H PARENT 7 4 22 16
REMARK Flexibility Score: inf
ROOT
ATOM      1  C   UNL     1      76.069  92.585  71.577  1.00  0.00     0.100 C 
ENDROOT
BRANCH   1   2
ATOM      2  C   UNL     1      77.130  92.913  72.548  1.00  0.00     0.220 C 
ATOM      3  N   UNL     1      76.849  93.657  73.654  1.00  0.00    -0.352 N 
ATOM      4  H   UNL     1      75.889  93.968  73.726  1.00  0.00     0.163 HD
ATOM      5  O   UNL     1      78.285  92.470  72.337  1.00  0.00    -0.275 OA
BRANCH   3   6
ATOM      6  C   UNL     1      77.794  94.002  74.668  1.00  0.00     0.151 C 
BRANCH   6   7
ATOM      7  C   UNL     1      77.197  93.903  76.028  1.00  0.00    -0.025 A 
ATOM      8  C   UNL     1      75.452  93.028  77.528  1.00  0.00     0.160 A 
ATOM      9  C   UNL     1      76.058  93.686  78.618  1.00  0.00     0.157 A 
ATOM     10  C   UNL     1      76.025  93.144  76.244  1.00  0.00     0.056 A 
ATOM     11  C   UNL     1      77.217  94.462  78.414  1.00  0.00     0.050 A 
ATOM     12  C   UNL     1      77.788  94.562  77.131  1.00  0.00     0.009 A 
BRANCH   8  13
ATOM     13  O   UNL     1      74.288  92.326  77.710  1.00  0.00    -0.493 OA
ATOM     14  C   UNL     1      73.895  91.536  76.572  1.00  0.00     0.278 C 
ENDBRANCH   8  13
BRANCH   9  15
ATOM     15  O   UNL     1      75.540  93.584  79.869  1.00  0.00    -0.504 OA
ATOM     16  H   UNL     1      74.593  93.436  79.813  1.00  0.00     0.293 HD
ENDBRANCH   9  15
ENDBRANCH   6   7
ENDBRANCH   3   6
ENDBRANCH   1   2
BRANCH   1  17
ATOM     17  C   UNL     1      76.081  91.078  71.205  1.00  0.00     0.010 C 
BRANCH  17  18
ATOM     18  C   UNL     1      74.665  90.436  71.236  1.00  0.00     0.005 C 
BRANCH  18  19
ATOM     19  C   UNL     1      74.686  88.939  70.826  1.00  0.00     0.027 C 
BRANCH  19  20
ATOM     20  C   UNL     1      75.978  88.535  70.293  1.00  0.00    -0.031 C 
ATOM     21  C   UNL     1      76.295  87.272  69.953  1.00  0.00    -0.028 C 
BRANCH  21  22
ATOM     22  C   UNL     1      77.594  86.892  69.399  1.00  0.00     0.005 C 
ATOM     23  C   UNL     1      77.953  85.411  69.701  1.00  0.00     0.012 C 
ATOM     24  C   UNL     1      77.629  87.170  67.874  1.00  0.00     0.012 C 
ENDBRANCH  21  22
ENDBRANCH  19  20
ENDBRANCH  18  19
ENDBRANCH  17  18
ENDBRANCH   1  17
TORSDOF 10
ENDMDL
MODEL 9
REMARK VINA RESULT:    -5.741      4.543      8.779
REMARK INTER + INTRA:          -9.598
REMARK INTER:                  -8.625
REMARK INTRA:                  -0.972
REMARK UNBOUND:                -0.668
REMARK SMILES COc1cc(CNC(=O)CCCC/C=C/C(C)C)ccc1O
REMARK SMILES IDX 10 1 8 2 7 3 9 5 6 6 5 7 3 8 21 9 4 10 20 11 19 12 2 13 1 14
REMARK SMILES IDX 22 15 11 17 12 18 13 19 14 20 15 21 16 22 17 23 18 24
REMARK H PARENT 7 4 22 16
REMARK Flexibility Score: inf
ROOT
ATOM      1  C   UNL     1      94.550 100.617  71.069  1.00  0.00     0.100 C 
ENDROOT
BRANCH   1   2
ATOM      2  C   UNL     1      93.082 100.729  71.172  1.00  0.00     0.220 C 
ATOM      3  N   UNL     1      92.348  99.720  71.721  1.00  0.00    -0.352 N 
ATOM      4  H   UNL     1      92.884  98.914  72.014  1.00  0.00     0.163 HD
ATOM      5  O   UNL     1      92.538 101.783  70.762  1.00  0.00    -0.275 OA
BRANCH   3   6
ATOM      6  C   UNL     1      90.931  99.744  71.895  1.00  0.00     0.151 C 
BRANCH   6   7
ATOM      7  C   UNL     1      90.231  99.067  70.769  1.00  0.00    -0.025 A 
ATOM      8  C   UNL     1      89.076  99.191  68.598  1.00  0.00     0.160 A 
ATOM      9  C   UNL     1      88.911  97.790  68.605  1.00  0.00     0.157 A 
ATOM     10  C   UNL     1      89.732  99.816  69.680  1.00  0.00     0.056 A 
ATOM     11  C   UNL     1      89.386  97.033  69.694  1.00  0.00     0.050 A 
ATOM     12  C   UNL     1      90.050  97.664  70.763  1.00  0.00     0.009 A 
BRANCH   8  13
ATOM     13  O   UNL     1      88.557  99.940  67.572  1.00  0.00    -0.493 OA
ATOM     14  C   UNL     1      88.891 101.338  67.639  1.00  0.00     0.278 C 
ENDBRANCH   8  13
BRANCH   9  15
ATOM     15  O   UNL     1      88.296  97.157  67.573  1.00  0.00    -0.504 OA
ATOM     16  H   UNL     1      87.360  97.369  67.579  1.00  0.00     0.293 HD
ENDBRANCH   9  15
ENDBRANCH   6   7
ENDBRANCH   3   6
ENDBRANCH   1   2
BRANCH   1  17
ATOM     17  C   UNL     1      95.008  99.135  71.003  1.00  0.00     0.010 C 
BRANCH  17  18
ATOM     18  C   UNL     1      96.535  98.963  71.238  1.00  0.00     0.005 C 
BRANCH  18  19
ATOM     19  C   UNL     1      96.848  97.929  72.353  1.00  0.00     0.027 C 
BRANCH  19  20
ATOM     20  C   UNL     1      95.995  98.107  73.519  1.00  0.00    -0.031 C 
ATOM     21  C   UNL     1      95.557  97.100  74.296  1.00  0.00    -0.028 C 
BRANCH  21  22
ATOM     22  C   UNL     1      94.716  97.303  75.475  1.00  0.00     0.005 C 
ATOM     23  C   UNL     1      93.513  98.243  75.186  1.00  0.00     0.012 C 
ATOM     24  C   UNL     1      94.231  95.939  76.030  1.00  0.00     0.012 C 
ENDBRANCH  21  22
ENDBRANCH  19  20
ENDBRANCH  18  19
ENDBRANCH  17  18
ENDBRANCH   1  17
TORSDOF 10
ENDMDL
MODEL 10
REMARK VINA RESULT:    -5.651     18.966     21.527
REMARK INTER + INTRA:          -9.457
REMARK INTER:                  -8.697
REMARK INTRA:                  -0.760
REMARK UNBOUND:                -0.668
REMARK SMILES COc1cc(CNC(=O)CCCC/C=C/C(C)C)ccc1O
REMARK SMILES IDX 10 1 8 2 7 3 9 5 6 6 5 7 3 8 21 9 4 10 20 11 19 12 2 13 1 14
REMARK SMILES IDX 22 15 11 17 12 18 13 19 14 20 15 21 16 22 17 23 18 24
REMARK H PARENT 7 4 22 16
REMARK Flexibility Score: inf
ROOT
ATOM      1  C   UNL     1      77.381  86.948  67.909  1.00  0.00     0.100 C 
ENDROOT
BRANCH   1   2
ATOM      2  C   UNL     1      76.029  86.890  68.498  1.00  0.00     0.220 C 
ATOM      3  N   UNL     1      75.831  87.212  69.807  1.00  0.00    -0.352 N 
ATOM      4  H   UNL     1      76.668  87.460  70.317  1.00  0.00     0.163 HD
ATOM      5  O   UNL     1      75.073  86.560  67.756  1.00  0.00    -0.275 OA
BRANCH   3   6
ATOM      6  C   UNL     1      74.562  87.219  70.462  1.00  0.00     0.151 C 
BRANCH   6   7
ATOM      7  C   UNL     1      74.292  88.529  71.116  1.00  0.00    -0.025 A 
ATOM      8  C   UNL     1      74.832  90.912  71.412  1.00  0.00     0.160 A 
ATOM      9  C   UNL     1      73.777  91.038  72.339  1.00  0.00     0.157 A 
ATOM     10  C   UNL     1      75.081  89.660  70.812  1.00  0.00     0.056 A 
ATOM     11  C   UNL     1      72.994  89.914  72.667  1.00  0.00     0.050 A 
ATOM     12  C   UNL     1      73.242  88.670  72.054  1.00  0.00     0.009 A 
BRANCH   8  13
ATOM     13  O   UNL     1      75.639  91.988  71.138  1.00  0.00    -0.493 OA
ATOM     14  C   UNL     1      75.213  92.769  70.007  1.00  0.00     0.278 C 
ENDBRANCH   8  13
BRANCH   9  15
ATOM     15  O   UNL     1      73.503  92.232  72.925  1.00  0.00    -0.504 OA
ATOM     16  H   UNL     1      72.805  92.118  73.574  1.00  0.00     0.293 HD
ENDBRANCH   9  15
ENDBRANCH   6   7
ENDBRANCH   3   6
ENDBRANCH   1   2
BRANCH   1  17
ATOM     17  C   UNL     1      78.323  85.883  68.532  1.00  0.00     0.010 C 
BRANCH  17  18
ATOM     18  C   UNL     1      77.886  84.426  68.210  1.00  0.00     0.005 C 
BRANCH  18  19
ATOM     19  C   UNL     1      78.338  83.973  66.795  1.00  0.00     0.027 C 
BRANCH  19  20
ATOM     20  C   UNL     1      77.263  83.325  66.059  1.00  0.00    -0.031 C 
ATOM     21  C   UNL     1      77.167  81.995  65.875  1.00  0.00    -0.028 C 
BRANCH  21  22
ATOM     22  C   UNL     1      76.067  81.363  65.148  1.00  0.00     0.005 C 
ATOM     23  C   UNL     1      74.693  81.606  65.832  1.00  0.00     0.012 C 
ATOM     24  C   UNL     1      76.046  81.852  63.677  1.00  0.00     0.012 C 
ENDBRANCH  21  22
ENDBRANCH  19  20
ENDBRANCH  18  19
ENDBRANCH  17  18
ENDBRANCH   1  17
TORSDOF 10
ENDMDL
