MODEL 1
REMARK VINA RESULT:    -6.176      0.000      0.000
REMARK INTER + INTRA:         -10.595
REMARK INTER:                  -9.967
REMARK INTRA:                  -0.627
REMARK UNBOUND:                -0.627
REMARK SMILES COc1cc(CNC(=O)CCCCC/C=C/C(C)C)ccc1O
REMARK SMILES IDX 11 1 10 2 8 3 7 4 9 6 6 7 5 8 3 9 22 10 4 11 21 12 20 13
REMARK SMILES IDX 2 14 1 15 23 16 12 18 13 19 14 20 15 21 16 22 17 23 18 24
REMARK SMILES IDX 19 25
REMARK H PARENT 7 5 23 17
REMARK Flexibility Score: inf
ROOT
ATOM      1  C   UNL     1      97.030  82.571  85.744  1.00  0.00     0.010 C 
ENDROOT
BRANCH   1   2
ATOM      2  C   UNL     1      97.840  83.386  84.704  1.00  0.00     0.100 C 
BRANCH   2   3
ATOM      3  C   UNL     1      98.328  82.588  83.564  1.00  0.00     0.220 C 
ATOM      4  N   UNL     1      99.051  83.187  82.577  1.00  0.00    -0.352 N 
ATOM      5  H   UNL     1      99.141  84.189  82.669  1.00  0.00     0.163 HD
ATOM      6  O   UNL     1      98.094  81.356  83.556  1.00  0.00    -0.275 OA
BRANCH   4   7
ATOM      7  C   UNL     1      99.662  82.519  81.475  1.00  0.00     0.151 C 
BRANCH   7   8
ATOM      8  C   UNL     1      99.071  82.911  80.169  1.00  0.00    -0.025 A 
ATOM      9  C   UNL     1      99.309  83.341  77.759  1.00  0.00     0.160 A 
ATOM     10  C   UNL     1      97.948  83.712  77.692  1.00  0.00     0.157 A 
ATOM     11  C   UNL     1      99.861  82.952  78.997  1.00  0.00     0.056 A 
ATOM     12  C   UNL     1      97.148  83.658  78.848  1.00  0.00     0.050 A 
ATOM     13  C   UNL     1      97.703  83.251  80.076  1.00  0.00     0.009 A 
BRANCH   9  14
ATOM     14  O   UNL     1     100.074  83.305  76.624  1.00  0.00    -0.493 OA
ATOM     15  C   UNL     1     101.445  83.686  76.826  1.00  0.00     0.278 C 
ENDBRANCH   9  14
BRANCH  10  16
ATOM     16  O   UNL     1      97.385  84.119  76.527  1.00  0.00    -0.504 OA
ATOM     17  H   UNL     1      97.625  83.508  75.826  1.00  0.00     0.293 HD
ENDBRANCH  10  16
ENDBRANCH   7   8
ENDBRANCH   4   7
ENDBRANCH   2   3
ENDBRANCH   1   2
BRANCH   1  18
ATOM     18  C   UNL     1      95.686  83.267  86.078  1.00  0.00     0.001 C 
BRANCH  18  19
ATOM     19  C   UNL     1      94.849  82.525  87.151  1.00  0.00     0.004 C 
BRANCH  19  20
ATOM     20  C   UNL     1      93.737  81.655  86.502  1.00  0.00     0.027 C 
BRANCH  20  21
ATOM     21  C   UNL     1      92.394  82.010  86.928  1.00  0.00    -0.031 C 
ATOM     22  C   UNL     1      92.008  81.948  88.214  1.00  0.00    -0.028 C 
BRANCH  22  23
ATOM     23  C   UNL     1      90.668  82.303  88.675  1.00  0.00     0.005 C 
ATOM     24  C   UNL     1      90.641  83.774  89.169  1.00  0.00     0.012 C 
ATOM     25  C   UNL     1      89.627  82.038  87.554  1.00  0.00     0.012 C 
ENDBRANCH  22  23
ENDBRANCH  20  21
ENDBRANCH  19  20
ENDBRANCH  18  19
ENDBRANCH   1  18
TORSDOF 11
ENDMDL
MODEL 2
REMARK VINA RESULT:    -6.150     25.268     27.538
REMARK INTER + INTRA:         -10.552
REMARK INTER:                  -9.636
REMARK INTRA:                  -0.916
REMARK UNBOUND:                -0.627
REMARK SMILES COc1cc(CNC(=O)CCCCC/C=C/C(C)C)ccc1O
REMARK SMILES IDX 11 1 10 2 8 3 7 4 9 6 6 7 5 8 3 9 22 10 4 11 21 12 20 13
REMARK SMILES IDX 2 14 1 15 23 16 12 18 13 19 14 20 15 21 16 22 17 23 18 24
REMARK SMILES IDX 19 25
REMARK H PARENT 7 5 23 17
REMARK Flexibility Score: inf
ROOT
ATOM      1  C   UNL     1      75.452  80.943  64.050  1.00  0.00     0.010 C 
ENDROOT
BRANCH   1   2
ATOM      2  C   UNL     1      76.063  82.360  64.201  1.00  0.00     0.100 C 
BRANCH   2   3
ATOM      3  C   UNL     1      77.033  82.481  65.305  1.00  0.00     0.220 C 
ATOM      4  N   UNL     1      77.462  83.712  65.699  1.00  0.00    -0.352 N 
ATOM      5  H   UNL     1      77.122  84.478  65.133  1.00  0.00     0.163 HD
ATOM      6  O   UNL     1      77.411  81.435  65.883  1.00  0.00    -0.275 OA
BRANCH   4   7
ATOM      7  C   UNL     1      78.319  83.976  66.808  1.00  0.00     0.151 C 
BRANCH   7   8
ATOM      8  C   UNL     1      77.772  85.015  67.719  1.00  0.00    -0.025 A 
ATOM      9  C   UNL     1      76.483  85.639  69.719  1.00  0.00     0.160 A 
ATOM     10  C   UNL     1      76.686  87.004  69.423  1.00  0.00     0.157 A 
ATOM     11  C   UNL     1      77.019  84.656  68.862  1.00  0.00     0.056 A 
ATOM     12  C   UNL     1      77.447  87.373  68.298  1.00  0.00     0.050 A 
ATOM     13  C   UNL     1      77.995  86.385  67.459  1.00  0.00     0.009 A 
BRANCH   9  14
ATOM     14  O   UNL     1      75.819  85.269  70.858  1.00  0.00    -0.493 OA
ATOM     15  C   UNL     1      76.124  83.939  71.311  1.00  0.00     0.278 C 
ENDBRANCH   9  14
BRANCH  10  16
ATOM     16  O   UNL     1      76.163  87.981  70.206  1.00  0.00    -0.504 OA
ATOM     17  H   UNL     1      75.502  88.469  69.709  1.00  0.00     0.293 HD
ENDBRANCH  10  16
ENDBRANCH   7   8
ENDBRANCH   4   7
ENDBRANCH   2   3
ENDBRANCH   1   2
BRANCH   1  18
ATOM     18  C   UNL     1      74.349  80.923  62.961  1.00  0.00     0.001 C 
BRANCH  18  19
ATOM     19  C   UNL     1      73.041  80.226  63.412  1.00  0.00     0.004 C 
BRANCH  19  20
ATOM     20  C   UNL     1      71.882  81.249  63.579  1.00  0.00     0.027 C 
BRANCH  20  21
ATOM     21  C   UNL     1      71.895  81.944  64.854  1.00  0.00    -0.031 C 
ATOM     22  C   UNL     1      70.833  82.633  65.308  1.00  0.00    -0.028 C 
BRANCH  22  23
ATOM     23  C   UNL     1      70.812  83.337  66.588  1.00  0.00     0.005 C 
ATOM     24  C   UNL     1      70.056  82.498  67.652  1.00  0.00     0.012 C 
ATOM     25  C   UNL     1      72.258  83.687  67.032  1.00  0.00     0.012 C 
ENDBRANCH  22  23
ENDBRANCH  20  21
ENDBRANCH  19  20
ENDBRANCH  18  19
ENDBRANCH   1  18
TORSDOF 11
ENDMDL
MODEL 3
REMARK VINA RESULT:    -6.125     25.135     27.310
REMARK INTER + INTRA:         -10.511
REMARK INTER:                  -9.098
REMARK INTRA:                  -1.414
REMARK UNBOUND:                -0.627
REMARK SMILES COc1cc(CNC(=O)CCCCC/C=C/C(C)C)ccc1O
REMARK SMILES IDX 11 1 10 2 8 3 7 4 9 6 6 7 5 8 3 9 22 10 4 11 21 12 20 13
REMARK SMILES IDX 2 14 1 15 23 16 12 18 13 19 14 20 15 21 16 22 17 23 18 24
REMARK SMILES IDX 19 25
REMARK H PARENT 7 5 23 17
REMARK Flexibility Score: inf
ROOT
ATOM      1  C   UNL     1      75.669  87.063  66.236  1.00  0.00     0.010 C 
ENDROOT
BRANCH   1   2
ATOM      2  C   UNL     1      76.567  87.013  64.973  1.00  0.00     0.100 C 
BRANCH   2   3
ATOM      3  C   UNL     1      76.809  85.651  64.461  1.00  0.00     0.220 C 
ATOM      4  N   UNL     1      77.057  84.634  65.332  1.00  0.00    -0.352 N 
ATOM      5  H   UNL     1      77.130  84.917  66.300  1.00  0.00     0.163 HD
ATOM      6  O   UNL     1      76.739  85.458  63.225  1.00  0.00    -0.275 OA
BRANCH   4   7
ATOM      7  C   UNL     1      77.212  83.260  64.981  1.00  0.00     0.151 C 
BRANCH   7   8
ATOM      8  C   UNL     1      75.931  82.508  65.036  1.00  0.00    -0.025 A 
ATOM      9  C   UNL     1      73.673  82.199  65.961  1.00  0.00     0.160 A 
ATOM     10  C   UNL     1      73.512  81.037  65.176  1.00  0.00     0.157 A 
ATOM     11  C   UNL     1      74.883  82.920  65.892  1.00  0.00     0.056 A 
ATOM     12  C   UNL     1      74.541  80.628  64.308  1.00  0.00     0.050 A 
ATOM     13  C   UNL     1      75.738  81.364  64.231  1.00  0.00     0.009 A 
BRANCH   9  14
ATOM     14  O   UNL     1      72.646  82.656  66.743  1.00  0.00    -0.493 OA
ATOM     15  C   UNL     1      71.902  83.740  66.162  1.00  0.00     0.278 C 
ENDBRANCH   9  14
BRANCH  10  16
ATOM     16  O   UNL     1      72.374  80.300  65.234  1.00  0.00    -0.504 OA
ATOM     17  H   UNL     1      72.420  79.700  65.982  1.00  0.00     0.293 HD
ENDBRANCH  10  16
ENDBRANCH   7   8
ENDBRANCH   4   7
ENDBRANCH   2   3
ENDBRANCH   1   2
BRANCH   1  18
ATOM     18  C   UNL     1      75.753  88.447  66.928  1.00  0.00     0.001 C 
BRANCH  18  19
ATOM     19  C   UNL     1      74.899  88.552  68.217  1.00  0.00     0.004 C 
BRANCH  19  20
ATOM     20  C   UNL     1      75.769  88.361  69.491  1.00  0.00     0.027 C 
BRANCH  20  21
ATOM     21  C   UNL     1      75.957  86.970  69.866  1.00  0.00    -0.031 C 
ATOM     22  C   UNL     1      77.150  86.356  69.776  1.00  0.00    -0.028 C 
BRANCH  22  23
ATOM     23  C   UNL     1      77.373  84.961  70.150  1.00  0.00     0.005 C 
ATOM     24  C   UNL     1      76.285  84.493  71.153  1.00  0.00     0.012 C 
ATOM     25  C   UNL     1      77.431  84.067  68.882  1.00  0.00     0.012 C 
ENDBRANCH  22  23
ENDBRANCH  20  21
ENDBRANCH  19  20
ENDBRANCH  18  19
ENDBRANCH   1  18
TORSDOF 11
ENDMDL
MODEL 4
REMARK VINA RESULT:    -6.085     25.785     28.434
REMARK INTER + INTRA:         -10.447
REMARK INTER:                  -8.946
REMARK INTRA:                  -1.501
REMARK UNBOUND:                -0.627
REMARK SMILES COc1cc(CNC(=O)CCCCC/C=C/C(C)C)ccc1O
REMARK SMILES IDX 11 1 10 2 8 3 7 4 9 6 6 7 5 8 3 9 22 10 4 11 21 12 20 13
REMARK SMILES IDX 2 14 1 15 23 16 12 18 13 19 14 20 15 21 16 22 17 23 18 24
REMARK SMILES IDX 19 25
REMARK H PARENT 7 5 23 17
REMARK Flexibility Score: inf
ROOT
ATOM      1  C   UNL     1      75.065  81.633  62.967  1.00  0.00     0.010 C 
ENDROOT
BRANCH   1   2
ATOM      2  C   UNL     1      73.936  80.575  63.063  1.00  0.00     0.100 C 
BRANCH   2   3
ATOM      3  C   UNL     1      72.982  80.813  64.162  1.00  0.00     0.220 C 
ATOM      4  N   UNL     1      72.910  82.042  64.743  1.00  0.00    -0.352 N 
ATOM      5  H   UNL     1      73.596  82.706  64.410  1.00  0.00     0.163 HD
ATOM      6  O   UNL     1      72.226  79.875  64.508  1.00  0.00    -0.275 OA
BRANCH   4   7
ATOM      7  C   UNL     1      71.971  82.434  65.743  1.00  0.00     0.151 C 
BRANCH   7   8
ATOM      8  C   UNL     1      72.523  83.444  66.682  1.00  0.00    -0.025 A 
ATOM      9  C   UNL     1      72.257  84.918  68.633  1.00  0.00     0.160 A 
ATOM     10  C   UNL     1      73.565  85.411  68.438  1.00  0.00     0.157 A 
ATOM     11  C   UNL     1      71.743  83.946  67.750  1.00  0.00     0.056 A 
ATOM     12  C   UNL     1      74.356  84.907  67.390  1.00  0.00     0.050 A 
ATOM     13  C   UNL     1      73.843  83.923  66.524  1.00  0.00     0.009 A 
BRANCH   9  14
ATOM     14  O   UNL     1      71.510  85.337  69.702  1.00  0.00    -0.493 OA
ATOM     15  C   UNL     1      70.714  84.304  70.306  1.00  0.00     0.278 C 
ENDBRANCH   9  14
BRANCH  10  16
ATOM     16  O   UNL     1      74.086  86.367  69.248  1.00  0.00    -0.504 OA
ATOM     17  H   UNL     1      74.754  86.863  68.768  1.00  0.00     0.293 HD
ENDBRANCH  10  16
ENDBRANCH   7   8
ENDBRANCH   4   7
ENDBRANCH   2   3
ENDBRANCH   1   2
BRANCH   1  18
ATOM     18  C   UNL     1      76.089  81.465  64.119  1.00  0.00     0.001 C 
BRANCH  18  19
ATOM     19  C   UNL     1      76.566  82.808  64.729  1.00  0.00     0.004 C 
BRANCH  19  20
ATOM     20  C   UNL     1      77.513  82.575  65.939  1.00  0.00     0.027 C 
BRANCH  20  21
ATOM     21  C   UNL     1      77.977  83.803  66.562  1.00  0.00    -0.031 C 
ATOM     22  C   UNL     1      77.805  84.054  67.872  1.00  0.00    -0.028 C 
BRANCH  22  23
ATOM     23  C   UNL     1      78.264  85.275  68.530  1.00  0.00     0.005 C 
ATOM     24  C   UNL     1      77.954  86.511  67.644  1.00  0.00     0.012 C 
ATOM     25  C   UNL     1      77.637  85.391  69.945  1.00  0.00     0.012 C 
ENDBRANCH  22  23
ENDBRANCH  20  21
ENDBRANCH  19  20
ENDBRANCH  18  19
ENDBRANCH   1  18
TORSDOF 11
ENDMDL
MODEL 5
REMARK VINA RESULT:    -5.985     26.207     28.464
REMARK INTER + INTRA:         -10.286
REMARK INTER:                  -9.364
REMARK INTRA:                  -0.922
REMARK UNBOUND:                -0.627
REMARK SMILES COc1cc(CNC(=O)CCCCC/C=C/C(C)C)ccc1O
REMARK SMILES IDX 11 1 10 2 8 3 7 4 9 6 6 7 5 8 3 9 22 10 4 11 21 12 20 13
REMARK SMILES IDX 2 14 1 15 23 16 12 18 13 19 14 20 15 21 16 22 17 23 18 24
REMARK SMILES IDX 19 25
REMARK H PARENT 7 5 23 17
REMARK Flexibility Score: inf
ROOT
ATOM      1  C   UNL     1      77.475  83.381  66.067  1.00  0.00     0.010 C 
ENDROOT
BRANCH   1   2
ATOM      2  C   UNL     1      76.366  82.400  66.526  1.00  0.00     0.100 C 
BRANCH   2   3
ATOM      3  C   UNL     1      75.415  82.028  65.461  1.00  0.00     0.220 C 
ATOM      4  N   UNL     1      74.425  81.130  65.720  1.00  0.00    -0.352 N 
ATOM      5  H   UNL     1      74.462  80.716  66.641  1.00  0.00     0.163 HD
ATOM      6  O   UNL     1      75.523  82.587  64.344  1.00  0.00    -0.275 OA
BRANCH   4   7
ATOM      7  C   UNL     1      73.386  80.757  64.815  1.00  0.00     0.151 C 
BRANCH   7   8
ATOM      8  C   UNL     1      72.146  81.552  65.009  1.00  0.00    -0.025 A 
ATOM      9  C   UNL     1      70.507  82.627  66.495  1.00  0.00     0.160 A 
ATOM     10  C   UNL     1      69.750  83.024  65.371  1.00  0.00     0.157 A 
ATOM     11  C   UNL     1      71.693  81.888  66.306  1.00  0.00     0.056 A 
ATOM     12  C   UNL     1      70.200  82.711  64.076  1.00  0.00     0.050 A 
ATOM     13  C   UNL     1      71.395  81.990  63.895  1.00  0.00     0.009 A 
BRANCH   9  14
ATOM     14  O   UNL     1      70.125  83.002  67.755  1.00  0.00    -0.493 OA
ATOM     15  C   UNL     1      70.870  84.108  68.291  1.00  0.00     0.278 C 
ENDBRANCH   9  14
BRANCH  10  16
ATOM     16  O   UNL     1      68.589  83.712  65.511  1.00  0.00    -0.504 OA
ATOM     17  H   UNL     1      68.750  84.508  66.024  1.00  0.00     0.293 HD
ENDBRANCH  10  16
ENDBRANCH   7   8
ENDBRANCH   4   7
ENDBRANCH   2   3
ENDBRANCH   1   2
BRANCH   1  18
ATOM     18  C   UNL     1      78.307  83.889  67.272  1.00  0.00     0.001 C 
BRANCH  18  19
ATOM     19  C   UNL     1      77.454  84.211  68.525  1.00  0.00     0.004 C 
BRANCH  19  20
ATOM     20  C   UNL     1      78.064  85.387  69.339  1.00  0.00     0.027 C 
BRANCH  20  21
ATOM     21  C   UNL     1      77.132  86.474  69.584  1.00  0.00    -0.031 C 
ATOM     22  C   UNL     1      75.964  86.289  70.225  1.00  0.00    -0.028 C 
BRANCH  22  23
ATOM     23  C   UNL     1      75.009  87.361  70.491  1.00  0.00     0.005 C 
ATOM     24  C   UNL     1      75.706  88.743  70.379  1.00  0.00     0.012 C 
ATOM     25  C   UNL     1      73.786  87.239  69.542  1.00  0.00     0.012 C 
ENDBRANCH  22  23
ENDBRANCH  20  21
ENDBRANCH  19  20
ENDBRANCH  18  19
ENDBRANCH   1  18
TORSDOF 11
ENDMDL
MODEL 6
REMARK VINA RESULT:    -5.952     25.229     27.560
REMARK INTER + INTRA:         -10.233
REMARK INTER:                  -9.097
REMARK INTRA:                  -1.136
REMARK UNBOUND:                -0.627
REMARK SMILES COc1cc(CNC(=O)CCCCC/C=C/C(C)C)ccc1O
REMARK SMILES IDX 11 1 10 2 8 3 7 4 9 6 6 7 5 8 3 9 22 10 4 11 21 12 20 13
REMARK SMILES IDX 2 14 1 15 23 16 12 18 13 19 14 20 15 21 16 22 17 23 18 24
REMARK SMILES IDX 19 25
REMARK H PARENT 7 5 23 17
REMARK Flexibility Score: inf
ROOT
ATOM      1  C   UNL     1      75.634  82.704  65.735  1.00  0.00     0.010 C 
ENDROOT
BRANCH   1   2
ATOM      2  C   UNL     1      77.179  82.695  65.856  1.00  0.00     0.100 C 
BRANCH   2   3
ATOM      3  C   UNL     1      77.695  83.436  67.022  1.00  0.00     0.220 C 
ATOM      4  N   UNL     1      76.861  83.740  68.055  1.00  0.00    -0.352 N 
ATOM      5  H   UNL     1      75.894  83.486  67.905  1.00  0.00     0.163 HD
ATOM      6  O   UNL     1      78.913  83.734  67.048  1.00  0.00    -0.275 OA
BRANCH   4   7
ATOM      7  C   UNL     1      77.249  84.363  69.279  1.00  0.00     0.151 C 
BRANCH   7   8
ATOM      8  C   UNL     1      76.476  85.601  69.559  1.00  0.00    -0.025 A 
ATOM      9  C   UNL     1      74.328  86.743  69.919  1.00  0.00     0.160 A 
ATOM     10  C   UNL     1      75.005  87.976  70.042  1.00  0.00     0.157 A 
ATOM     11  C   UNL     1      75.066  85.568  69.670  1.00  0.00     0.056 A 
ATOM     12  C   UNL     1      76.408  88.018  69.951  1.00  0.00     0.050 A 
ATOM     13  C   UNL     1      77.140  86.838  69.722  1.00  0.00     0.009 A 
BRANCH   9  14
ATOM     14  O   UNL     1      72.971  86.678  70.093  1.00  0.00    -0.493 OA
ATOM     15  C   UNL     1      72.385  85.432  69.681  1.00  0.00     0.278 C 
ENDBRANCH   9  14
BRANCH  10  16
ATOM     16  O   UNL     1      74.330  89.133  70.254  1.00  0.00    -0.504 OA
ATOM     17  H   UNL     1      73.597  89.193  69.635  1.00  0.00     0.293 HD
ENDBRANCH  10  16
ENDBRANCH   7   8
ENDBRANCH   4   7
ENDBRANCH   2   3
ENDBRANCH   1   2
BRANCH   1  18
ATOM     18  C   UNL     1      75.070  81.262  65.662  1.00  0.00     0.001 C 
BRANCH  18  19
ATOM     19  C   UNL     1      74.305  80.959  64.348  1.00  0.00     0.004 C 
BRANCH  19  20
ATOM     20  C   UNL     1      72.868  80.439  64.636  1.00  0.00     0.027 C 
BRANCH  20  21
ATOM     21  C   UNL     1      72.116  81.278  65.554  1.00  0.00    -0.031 C 
ATOM     22  C   UNL     1      71.390  82.330  65.136  1.00  0.00    -0.028 C 
BRANCH  22  23
ATOM     23  C   UNL     1      70.620  83.188  66.031  1.00  0.00     0.005 C 
ATOM     24  C   UNL     1      70.428  82.496  67.407  1.00  0.00     0.012 C 
ATOM     25  C   UNL     1      71.300  84.578  66.160  1.00  0.00     0.012 C 
ENDBRANCH  22  23
ENDBRANCH  20  21
ENDBRANCH  19  20
ENDBRANCH  18  19
ENDBRANCH   1  18
TORSDOF 11
ENDMDL
MODEL 7
REMARK VINA RESULT:    -5.915     31.166     33.887
REMARK INTER + INTRA:         -10.174
REMARK INTER:                  -8.307
REMARK INTRA:                  -1.866
REMARK UNBOUND:                -0.627
REMARK SMILES COc1cc(CNC(=O)CCCCC/C=C/C(C)C)ccc1O
REMARK SMILES IDX 11 1 10 2 8 3 7 4 9 6 6 7 5 8 3 9 22 10 4 11 21 12 20 13
REMARK SMILES IDX 2 14 1 15 23 16 12 18 13 19 14 20 15 21 16 22 17 23 18 24
REMARK SMILES IDX 19 25
REMARK H PARENT 7 5 23 17
REMARK Flexibility Score: inf
ROOT
ATOM      1  C   UNL     1      68.006  84.319  71.994  1.00  0.00     0.010 C 
ENDROOT
BRANCH   1   2
ATOM      2  C   UNL     1      67.604  84.246  70.498  1.00  0.00     0.100 C 
BRANCH   2   3
ATOM      3  C   UNL     1      66.362  83.492  70.247  1.00  0.00     0.220 C 
ATOM      4  N   UNL     1      66.042  82.430  71.037  1.00  0.00    -0.352 N 
ATOM      5  H   UNL     1      66.746  82.185  71.720  1.00  0.00     0.163 HD
ATOM      6  O   UNL     1      65.605  83.880  69.325  1.00  0.00    -0.275 OA
BRANCH   4   7
ATOM      7  C   UNL     1      64.832  81.677  70.966  1.00  0.00     0.151 C 
BRANCH   7   8
ATOM      8  C   UNL     1      63.887  82.009  72.063  1.00  0.00    -0.025 A 
ATOM      9  C   UNL     1      62.175  83.482  73.037  1.00  0.00     0.160 A 
ATOM     10  C   UNL     1      62.125  82.663  74.186  1.00  0.00     0.157 A 
ATOM     11  C   UNL     1      63.060  83.154  71.990  1.00  0.00     0.056 A 
ATOM     12  C   UNL     1      62.930  81.512  74.263  1.00  0.00     0.050 A 
ATOM     13  C   UNL     1      63.797  81.181  73.205  1.00  0.00     0.009 A 
BRANCH   9  14
ATOM     14  O   UNL     1      61.332  84.555  72.914  1.00  0.00    -0.493 OA
ATOM     15  C   UNL     1      60.560  84.560  71.701  1.00  0.00     0.278 C 
ENDBRANCH   9  14
BRANCH  10  16
ATOM     16  O   UNL     1      61.308  82.960  75.228  1.00  0.00    -0.504 OA
ATOM     17  H   UNL     1      60.410  83.076  74.906  1.00  0.00     0.293 HD
ENDBRANCH  10  16
ENDBRANCH   7   8
ENDBRANCH   4   7
ENDBRANCH   2   3
ENDBRANCH   1   2
BRANCH   1  18
ATOM     18  C   UNL     1      67.510  85.636  72.643  1.00  0.00     0.001 C 
BRANCH  18  19
ATOM     19  C   UNL     1      66.943  85.450  74.073  1.00  0.00     0.004 C 
BRANCH  19  20
ATOM     20  C   UNL     1      65.551  84.758  74.046  1.00  0.00     0.027 C 
BRANCH  20  21
ATOM     21  C   UNL     1      64.909  84.686  75.347  1.00  0.00    -0.031 C 
ATOM     22  C   UNL     1      65.599  84.793  76.496  1.00  0.00    -0.028 C 
BRANCH  22  23
ATOM     23  C   UNL     1      64.982  84.731  77.819  1.00  0.00     0.005 C 
ATOM     24  C   UNL     1      63.592  84.046  77.733  1.00  0.00     0.012 C 
ATOM     25  C   UNL     1      65.930  84.016  78.820  1.00  0.00     0.012 C 
ENDBRANCH  22  23
ENDBRANCH  20  21
ENDBRANCH  19  20
ENDBRANCH  18  19
ENDBRANCH   1  18
TORSDOF 11
ENDMDL
MODEL 8
REMARK VINA RESULT:    -5.714     23.742     25.487
REMARK INTER + INTRA:          -9.848
REMARK INTER:                  -9.220
REMARK INTRA:                  -0.628
REMARK UNBOUND:                -0.627
REMARK SMILES COc1cc(CNC(=O)CCCCC/C=C/C(C)C)ccc1O
REMARK SMILES IDX 11 1 10 2 8 3 7 4 9 6 6 7 5 8 3 9 22 10 4 11 21 12 20 13
REMARK SMILES IDX 2 14 1 15 23 16 12 18 13 19 14 20 15 21 16 22 17 23 18 24
REMARK SMILES IDX 19 25
REMARK H PARENT 7 5 23 17
REMARK Flexibility Score: inf
ROOT
ATOM      1  C   UNL     1      75.301  92.277  72.439  1.00  0.00     0.010 C 
ENDROOT
BRANCH   1   2
ATOM      2  C   UNL     1      75.725  91.506  71.162  1.00  0.00     0.100 C 
BRANCH   2   3
ATOM      3  C   UNL     1      75.028  90.220  70.977  1.00  0.00     0.220 C 
ATOM      4  N   UNL     1      75.727  89.119  70.586  1.00  0.00    -0.352 N 
ATOM      5  H   UNL     1      76.701  89.292  70.375  1.00  0.00     0.163 HD
ATOM      6  O   UNL     1      73.800  90.167  71.227  1.00  0.00    -0.275 OA
BRANCH   4   7
ATOM      7  C   UNL     1      75.198  87.800  70.464  1.00  0.00     0.151 C 
BRANCH   7   8
ATOM      8  C   UNL     1      76.098  86.890  69.709  1.00  0.00    -0.025 A 
ATOM      9  C   UNL     1      76.543  84.708  68.667  1.00  0.00     0.160 A 
ATOM     10  C   UNL     1      77.840  85.142  68.314  1.00  0.00     0.157 A 
ATOM     11  C   UNL     1      75.687  85.580  69.368  1.00  0.00     0.056 A 
ATOM     12  C   UNL     1      78.253  86.448  68.633  1.00  0.00     0.050 A 
ATOM     13  C   UNL     1      77.385  87.320  69.316  1.00  0.00     0.009 A 
BRANCH   9  14
ATOM     14  O   UNL     1      76.100  83.469  68.284  1.00  0.00    -0.493 OA
ATOM     15  C   UNL     1      75.747  83.375  66.894  1.00  0.00     0.278 C 
ENDBRANCH   9  14
BRANCH  10  16
ATOM     16  O   UNL     1      78.705  84.323  67.664  1.00  0.00    -0.504 OA
ATOM     17  H   UNL     1      78.429  84.229  66.749  1.00  0.00     0.293 HD
ENDBRANCH  10  16
ENDBRANCH   7   8
ENDBRANCH   4   7
ENDBRANCH   2   3
ENDBRANCH   1   2
BRANCH   1  18
ATOM     18  C   UNL     1      76.471  93.129  72.993  1.00  0.00     0.001 C 
BRANCH  18  19
ATOM     19  C   UNL     1      77.871  92.612  72.576  1.00  0.00     0.004 C 
BRANCH  19  20
ATOM     20  C   UNL     1      78.895  93.776  72.464  1.00  0.00     0.027 C 
BRANCH  20  21
ATOM     21  C   UNL     1      78.316  95.019  71.983  1.00  0.00    -0.031 C 
ATOM     22  C   UNL     1      78.706  95.595  70.832  1.00  0.00    -0.028 C 
BRANCH  22  23
ATOM     23  C   UNL     1      78.141  96.840  70.318  1.00  0.00     0.005 C 
ATOM     24  C   UNL     1      78.279  97.969  71.374  1.00  0.00     0.012 C 
ATOM     25  C   UNL     1      78.806  97.214  68.965  1.00  0.00     0.012 C 
ENDBRANCH  22  23
ENDBRANCH  20  21
ENDBRANCH  19  20
ENDBRANCH  18  19
ENDBRANCH   1  18
TORSDOF 11
ENDMDL
MODEL 9
REMARK VINA RESULT:    -5.650     23.819     25.827
REMARK INTER + INTRA:          -9.746
REMARK INTER:                  -8.743
REMARK INTRA:                  -1.003
REMARK UNBOUND:                -0.627
REMARK SMILES COc1cc(CNC(=O)CCCCC/C=C/C(C)C)ccc1O
REMARK SMILES IDX 11 1 10 2 8 3 7 4 9 6 6 7 5 8 3 9 22 10 4 11 21 12 20 13
REMARK SMILES IDX 2 14 1 15 23 16 12 18 13 19 14 20 15 21 16 22 17 23 18 24
REMARK SMILES IDX 19 25
REMARK H PARENT 7 5 23 17
REMARK Flexibility Score: inf
ROOT
ATOM      1  C   UNL     1      72.441  88.599  71.213  1.00  0.00     0.010 C 
ENDROOT
BRANCH   1   2
ATOM      2  C   UNL     1      72.433  89.155  72.660  1.00  0.00     0.100 C 
BRANCH   2   3
ATOM      3  C   UNL     1      72.647  90.612  72.745  1.00  0.00     0.220 C 
ATOM      4  N   UNL     1      73.411  91.128  73.747  1.00  0.00    -0.352 N 
ATOM      5  H   UNL     1      73.727  90.450  74.427  1.00  0.00     0.163 HD
ATOM      6  O   UNL     1      72.145  91.340  71.856  1.00  0.00    -0.275 OA
BRANCH   4   7
ATOM      7  C   UNL     1      73.775  92.500  73.890  1.00  0.00     0.151 C 
BRANCH   7   8
ATOM      8  C   UNL     1      75.202  92.750  73.557  1.00  0.00    -0.025 A 
ATOM      9  C   UNL     1      77.411  93.645  74.162  1.00  0.00     0.160 A 
ATOM     10  C   UNL     1      77.909  93.272  72.895  1.00  0.00     0.157 A 
ATOM     11  C   UNL     1      76.062  93.390  74.480  1.00  0.00     0.056 A 
ATOM     12  C   UNL     1      77.067  92.620  71.975  1.00  0.00     0.050 A 
ATOM     13  C   UNL     1      75.726  92.351  72.308  1.00  0.00     0.009 A 
BRANCH   9  14
ATOM     14  O   UNL     1      78.244  94.201  75.097  1.00  0.00    -0.493 OA
ATOM     15  C   UNL     1      78.051  95.612  75.291  1.00  0.00     0.278 C 
ENDBRANCH   9  14
BRANCH  10  16
ATOM     16  O   UNL     1      79.193  93.525  72.539  1.00  0.00    -0.504 OA
ATOM     17  H   UNL     1      79.715  92.725  72.637  1.00  0.00     0.293 HD
ENDBRANCH  10  16
ENDBRANCH   7   8
ENDBRANCH   4   7
ENDBRANCH   2   3
ENDBRANCH   1   2
BRANCH   1  18
ATOM     18  C   UNL     1      73.797  87.925  70.880  1.00  0.00     0.001 C 
BRANCH  18  19
ATOM     19  C   UNL     1      74.993  88.909  70.858  1.00  0.00     0.004 C 
BRANCH  19  20
ATOM     20  C   UNL     1      76.154  88.371  69.975  1.00  0.00     0.027 C 
BRANCH  20  21
ATOM     21  C   UNL     1      76.368  86.939  70.100  1.00  0.00    -0.031 C 
ATOM     22  C   UNL     1      76.490  86.134  69.029  1.00  0.00    -0.028 C 
BRANCH  22  23
ATOM     23  C   UNL     1      76.711  84.693  69.121  1.00  0.00     0.005 C 
ATOM     24  C   UNL     1      77.938  84.282  68.265  1.00  0.00     0.012 C 
ATOM     25  C   UNL     1      76.859  84.267  70.607  1.00  0.00     0.012 C 
ENDBRANCH  22  23
ENDBRANCH  20  21
ENDBRANCH  19  20
ENDBRANCH  18  19
ENDBRANCH   1  18
TORSDOF 11
ENDMDL
MODEL 10
REMARK VINA RESULT:    -5.622      3.262     10.184
REMARK INTER + INTRA:          -9.700
REMARK INTER:                  -9.080
REMARK INTRA:                  -0.620
REMARK UNBOUND:                -0.627
REMARK SMILES COc1cc(CNC(=O)CCCCC/C=C/C(C)C)ccc1O
REMARK SMILES IDX 11 1 10 2 8 3 7 4 9 6 6 7 5 8 3 9 22 10 4 11 21 12 20 13
REMARK SMILES IDX 2 14 1 15 23 16 12 18 13 19 14 20 15 21 16 22 17 23 18 24
REMARK SMILES IDX 19 25
REMARK H PARENT 7 5 23 17
REMARK Flexibility Score: inf
ROOT
ATOM      1  C   UNL     1      98.826  82.376  84.032  1.00  0.00     0.010 C 
ENDROOT
BRANCH   1   2
ATOM      2  C   UNL     1      97.431  83.052  84.003  1.00  0.00     0.100 C 
BRANCH   2   3
ATOM      3  C   UNL     1      97.032  83.662  85.285  1.00  0.00     0.220 C 
ATOM      4  N   UNL     1      95.767  83.483  85.757  1.00  0.00    -0.352 N 
ATOM      5  H   UNL     1      95.151  82.984  85.130  1.00  0.00     0.163 HD
ATOM      6  O   UNL     1      97.893  84.303  85.932  1.00  0.00    -0.275 OA
BRANCH   4   7
ATOM      7  C   UNL     1      95.282  83.933  87.021  1.00  0.00     0.151 C 
BRANCH   7   8
ATOM      8  C   UNL     1      93.886  83.498  87.285  1.00  0.00    -0.025 A 
ATOM      9  C   UNL     1      92.024  81.939  86.896  1.00  0.00     0.160 A 
ATOM     10  C   UNL     1      91.205  82.705  87.753  1.00  0.00     0.157 A 
ATOM     11  C   UNL     1      93.353  82.345  86.661  1.00  0.00     0.056 A 
ATOM     12  C   UNL     1      91.729  83.844  88.392  1.00  0.00     0.050 A 
ATOM     13  C   UNL     1      93.063  84.231  88.168  1.00  0.00     0.009 A 
BRANCH   9  14
ATOM     14  O   UNL     1      91.551  80.781  86.338  1.00  0.00    -0.493 OA
ATOM     15  C   UNL     1      91.873  79.595  87.084  1.00  0.00     0.278 C 
ENDBRANCH   9  14
BRANCH  10  16
ATOM     16  O   UNL     1      89.912  82.364  87.983  1.00  0.00    -0.504 OA
ATOM     17  H   UNL     1      89.873  81.466  88.320  1.00  0.00     0.293 HD
ENDBRANCH  10  16
ENDBRANCH   7   8
ENDBRANCH   4   7
ENDBRANCH   2   3
ENDBRANCH   1   2
BRANCH   1  18
ATOM     18  C   UNL     1      99.502  82.429  82.638  1.00  0.00     0.001 C 
BRANCH  18  19
ATOM     19  C   UNL     1      98.629  83.097  81.547  1.00  0.00     0.004 C 
BRANCH  19  20
ATOM     20  C   UNL     1      98.730  82.336  80.195  1.00  0.00     0.027 C 
BRANCH  20  21
ATOM     21  C   UNL     1      98.346  83.135  79.044  1.00  0.00    -0.031 C 
ATOM     22  C   UNL     1      98.719  82.817  77.792  1.00  0.00    -0.028 C 
BRANCH  22  23
ATOM     23  C   UNL     1      98.346  83.596  76.614  1.00  0.00     0.005 C 
ATOM     24  C   UNL     1      97.481  84.817  77.028  1.00  0.00     0.012 C 
ATOM     25  C   UNL     1      99.615  84.014  75.822  1.00  0.00     0.012 C 
ENDBRANCH  22  23
ENDBRANCH  20  21
ENDBRANCH  19  20
ENDBRANCH  18  19
ENDBRANCH   1  18
TORSDOF 11
ENDMDL
