MODEL 1
REMARK VINA RESULT:    -6.110      0.000      0.000
REMARK INTER + INTRA:         -11.260
REMARK INTER:                 -10.040
REMARK INTRA:                  -1.220
REMARK UNBOUND:                -1.220
REMARK SMILES CCCCC[C@H](O)CC(=O)CCc1ccc(O)c(OC)c1
REMARK SMILES IDX 8 1 6 2 7 3 5 5 4 6 3 7 2 8 1 9 9 10 10 11 11 12 12 13 13 14
REMARK SMILES IDX 21 15 14 16 18 17 15 18 16 19 19 20 20 21 17 22
REMARK H PARENT 7 4 17 23
REMARK Flexibility Score: inf
ROOT
ATOM      1  C   UNL     1      94.750  96.521  76.574  1.00  0.00     0.107 C 
ENDROOT
BRANCH   1   2
ATOM      2  C   UNL     1      93.367  95.871  76.485  1.00  0.00     0.121 C 
BRANCH   2   3
ATOM      3  O   UNL     1      93.493  94.525  76.032  1.00  0.00    -0.393 OA
ATOM      4  H   UNL     1      94.415  94.391  75.750  1.00  0.00     0.210 HD
ENDBRANCH   2   3
BRANCH   2   5
ATOM      5  C   UNL     1      92.610  95.886  77.818  1.00  0.00     0.032 C 
BRANCH   5   6
ATOM      6  C   UNL     1      91.144  96.301  77.644  1.00  0.00     0.003 C 
BRANCH   6   7
ATOM      7  C   UNL     1      90.193  95.112  77.473  1.00  0.00    -0.000 C 
BRANCH   7   8
ATOM      8  C   UNL     1      90.706  93.821  78.108  1.00  0.00    -0.003 C 
ATOM      9  C   UNL     1      89.564  92.987  78.668  1.00  0.00     0.004 C 
ENDBRANCH   7   8
ENDBRANCH   6   7
ENDBRANCH   5   6
ENDBRANCH   2   5
ENDBRANCH   1   2
BRANCH   1  10
ATOM     10  C   UNL     1      94.689  98.033  76.712  1.00  0.00     0.135 C 
ATOM     11  O   UNL     1      93.982  98.709  75.965  1.00  0.00    -0.300 OA
BRANCH  10  12
ATOM     12  C   UNL     1      95.505  98.648  77.839  1.00  0.00     0.080 C 
BRANCH  12  13
ATOM     13  C   UNL     1      96.453  97.660  78.522  1.00  0.00     0.043 C 
BRANCH  13  14
ATOM     14  C   UNL     1      95.970  97.223  79.885  1.00  0.00    -0.044 A 
ATOM     15  C   UNL     1      95.651  95.885  80.116  1.00  0.00     0.054 A 
ATOM     16  C   UNL     1      95.843  98.159  80.912  1.00  0.00     0.008 A 
ATOM     17  C   UNL     1      95.206  95.483  81.376  1.00  0.00     0.160 A 
ATOM     18  C   UNL     1      95.398  97.756  82.172  1.00  0.00     0.050 A 
ATOM     19  C   UNL     1      95.079  96.418  82.403  1.00  0.00     0.157 A 
BRANCH  17  20
ATOM     20  O   UNL     1      94.896  94.173  81.590  1.00  0.00    -0.493 OA
ATOM     21  C   UNL     1      95.213  93.254  80.546  1.00  0.00     0.278 C 
ENDBRANCH  17  20
BRANCH  19  22
ATOM     22  O   UNL     1      94.646  96.037  83.637  1.00  0.00    -0.504 OA
ATOM     23  H   UNL     1      94.755  96.781  84.255  1.00  0.00     0.293 HD
ENDBRANCH  19  22
ENDBRANCH  13  14
ENDBRANCH  12  13
ENDBRANCH  10  12
ENDBRANCH   1  10
TORSDOF 12
ENDMDL
MODEL 2
REMARK VINA RESULT:    -5.962      1.515      6.385
REMARK INTER + INTRA:         -11.016
REMARK INTER:                  -9.422
REMARK INTRA:                  -1.594
REMARK UNBOUND:                -1.220
REMARK SMILES CCCCC[C@H](O)CC(=O)CCc1ccc(O)c(OC)c1
REMARK SMILES IDX 8 1 6 2 7 3 5 5 4 6 3 7 2 8 1 9 9 10 10 11 11 12 12 13 13 14
REMARK SMILES IDX 21 15 14 16 18 17 15 18 16 19 19 20 20 21 17 22
REMARK H PARENT 7 4 17 23
REMARK Flexibility Score: inf
ROOT
ATOM      1  C   UNL     1      95.989  95.239  81.739  1.00  0.00     0.107 C 
ENDROOT
BRANCH   1   2
ATOM      2  C   UNL     1      94.961  96.230  82.291  1.00  0.00     0.121 C 
BRANCH   2   3
ATOM      3  O   UNL     1      94.906  96.129  83.712  1.00  0.00    -0.393 OA
ATOM      4  H   UNL     1      95.670  95.600  84.002  1.00  0.00     0.210 HD
ENDBRANCH   2   3
BRANCH   2   5
ATOM      5  C   UNL     1      95.258  97.683  81.899  1.00  0.00     0.032 C 
BRANCH   5   6
ATOM      6  C   UNL     1      95.656  97.813  80.424  1.00  0.00     0.003 C 
BRANCH   6   7
ATOM      7  C   UNL     1      96.990  98.538  80.217  1.00  0.00    -0.000 C 
BRANCH   7   8
ATOM      8  C   UNL     1      97.457  98.557  78.763  1.00  0.00    -0.003 C 
ATOM      9  C   UNL     1      96.342  98.140  77.817  1.00  0.00     0.004 C 
ENDBRANCH   7   8
ENDBRANCH   6   7
ENDBRANCH   5   6
ENDBRANCH   2   5
ENDBRANCH   1   2
BRANCH   1  10
ATOM     10  C   UNL     1      95.428  93.838  81.558  1.00  0.00     0.135 C 
ATOM     11  O   UNL     1      94.922  93.232  82.502  1.00  0.00    -0.300 OA
BRANCH  10  12
ATOM     12  C   UNL     1      95.485  93.258  80.153  1.00  0.00     0.080 C 
BRANCH  12  13
ATOM     13  C   UNL     1      95.473  94.316  79.049  1.00  0.00     0.043 C 
BRANCH  13  14
ATOM     14  C   UNL     1      94.083  94.640  78.555  1.00  0.00    -0.044 A 
ATOM     15  C   UNL     1      93.912  95.472  77.448  1.00  0.00     0.054 A 
ATOM     16  C   UNL     1      92.971  94.107  79.205  1.00  0.00     0.008 A 
ATOM     17  C   UNL     1      92.628  95.770  76.992  1.00  0.00     0.160 A 
ATOM     18  C   UNL     1      91.686  94.404  78.749  1.00  0.00     0.050 A 
ATOM     19  C   UNL     1      91.515  95.236  77.643  1.00  0.00     0.157 A 
BRANCH  17  20
ATOM     20  O   UNL     1      92.473  96.584  75.911  1.00  0.00    -0.493 OA
ATOM     21  C   UNL     1      93.310  97.738  75.844  1.00  0.00     0.278 C 
ENDBRANCH  17  20
BRANCH  19  22
ATOM     22  O   UNL     1      90.256  95.520  77.207  1.00  0.00    -0.504 OA
ATOM     23  H   UNL     1      90.024  96.425  77.477  1.00  0.00     0.293 HD
ENDBRANCH  19  22
ENDBRANCH  13  14
ENDBRANCH  12  13
ENDBRANCH  10  12
ENDBRANCH   1  10
TORSDOF 12
ENDMDL
MODEL 3
REMARK VINA RESULT:    -5.700      1.421      2.206
REMARK INTER + INTRA:         -10.586
REMARK INTER:                  -9.432
REMARK INTRA:                  -1.155
REMARK UNBOUND:                -1.220
REMARK SMILES CCCCC[C@H](O)CC(=O)CCc1ccc(O)c(OC)c1
REMARK SMILES IDX 8 1 6 2 7 3 5 5 4 6 3 7 2 8 1 9 9 10 10 11 11 12 12 13 13 14
REMARK SMILES IDX 21 15 14 16 18 17 15 18 16 19 19 20 20 21 17 22
REMARK H PARENT 7 4 17 23
REMARK Flexibility Score: inf
ROOT
ATOM      1  C   UNL     1      95.451  97.291  76.002  1.00  0.00     0.107 C 
ENDROOT
BRANCH   1   2
ATOM      2  C   UNL     1      94.158  96.598  75.562  1.00  0.00     0.121 C 
BRANCH   2   3
ATOM      3  O   UNL     1      94.343  95.184  75.567  1.00  0.00    -0.393 OA
ATOM      4  H   UNL     1      94.604  94.915  74.669  1.00  0.00     0.210 HD
ENDBRANCH   2   3
BRANCH   2   5
ATOM      5  C   UNL     1      92.957  96.953  76.446  1.00  0.00     0.032 C 
BRANCH   5   6
ATOM      6  C   UNL     1      92.134  95.716  76.826  1.00  0.00     0.003 C 
BRANCH   6   7
ATOM      7  C   UNL     1      90.795  96.057  77.487  1.00  0.00    -0.000 C 
BRANCH   7   8
ATOM      8  C   UNL     1      89.926  94.834  77.777  1.00  0.00    -0.003 C 
ATOM      9  C   UNL     1      90.737  93.718  78.417  1.00  0.00     0.004 C 
ENDBRANCH   7   8
ENDBRANCH   6   7
ENDBRANCH   5   6
ENDBRANCH   2   5
ENDBRANCH   1   2
BRANCH   1  10
ATOM     10  C   UNL     1      95.213  98.432  76.977  1.00  0.00     0.135 C 
ATOM     11  O   UNL     1      94.812  99.528  76.584  1.00  0.00    -0.300 OA
BRANCH  10  12
ATOM     12  C   UNL     1      95.450  98.132  78.449  1.00  0.00     0.080 C 
BRANCH  12  13
ATOM     13  C   UNL     1      96.476  97.023  78.693  1.00  0.00     0.043 C 
BRANCH  13  14
ATOM     14  C   UNL     1      95.920  95.867  79.489  1.00  0.00    -0.044 A 
ATOM     15  C   UNL     1      96.372  95.632  80.787  1.00  0.00     0.054 A 
ATOM     16  C   UNL     1      94.954  95.033  78.924  1.00  0.00     0.008 A 
ATOM     17  C   UNL     1      95.857  94.563  81.521  1.00  0.00     0.160 A 
ATOM     18  C   UNL     1      94.438  93.965  79.659  1.00  0.00     0.050 A 
ATOM     19  C   UNL     1      94.891  93.730  80.957  1.00  0.00     0.157 A 
BRANCH  17  20
ATOM     20  O   UNL     1      96.307  94.343  82.789  1.00  0.00    -0.493 OA
ATOM     21  C   UNL     1      97.425  95.114  83.222  1.00  0.00     0.278 C 
ENDBRANCH  17  20
BRANCH  19  22
ATOM     22  O   UNL     1      94.380  92.684  81.665  1.00  0.00    -0.504 OA
ATOM     23  H   UNL     1      93.684  93.013  82.258  1.00  0.00     0.293 HD
ENDBRANCH  19  22
ENDBRANCH  13  14
ENDBRANCH  12  13
ENDBRANCH  10  12
ENDBRANCH   1  10
TORSDOF 12
ENDMDL
MODEL 4
REMARK VINA RESULT:    -5.586      1.943      3.408
REMARK INTER + INTRA:         -10.398
REMARK INTER:                  -9.128
REMARK INTRA:                  -1.270
REMARK UNBOUND:                -1.220
REMARK SMILES CCCCC[C@H](O)CC(=O)CCc1ccc(O)c(OC)c1
REMARK SMILES IDX 8 1 6 2 7 3 5 5 4 6 3 7 2 8 1 9 9 10 10 11 11 12 12 13 13 14
REMARK SMILES IDX 21 15 14 16 18 17 15 18 16 19 19 20 20 21 17 22
REMARK H PARENT 7 4 17 23
REMARK Flexibility Score: inf
ROOT
ATOM      1  C   UNL     1      93.490  95.746  78.761  1.00  0.00     0.107 C 
ENDROOT
BRANCH   1   2
ATOM      2  C   UNL     1      93.206  95.445  77.287  1.00  0.00     0.121 C 
BRANCH   2   3
ATOM      3  O   UNL     1      93.156  94.035  77.083  1.00  0.00    -0.393 OA
ATOM      4  H   UNL     1      92.819  93.876  76.183  1.00  0.00     0.210 HD
ENDBRANCH   2   3
BRANCH   2   5
ATOM      5  C   UNL     1      91.901  96.075  76.786  1.00  0.00     0.032 C 
BRANCH   5   6
ATOM      6  C   UNL     1      90.741  95.852  77.764  1.00  0.00     0.003 C 
BRANCH   6   7
ATOM      7  C   UNL     1      89.542  95.140  77.129  1.00  0.00    -0.000 C 
BRANCH   7   8
ATOM      8  C   UNL     1      89.043  93.943  77.937  1.00  0.00    -0.003 C 
ATOM      9  C   UNL     1      90.188  93.237  78.646  1.00  0.00     0.004 C 
ENDBRANCH   7   8
ENDBRANCH   6   7
ENDBRANCH   5   6
ENDBRANCH   2   5
ENDBRANCH   1   2
BRANCH   1  10
ATOM     10  C   UNL     1      94.061  94.555  79.513  1.00  0.00     0.135 C 
ATOM     11  O   UNL     1      93.324  93.774  80.113  1.00  0.00    -0.300 OA
BRANCH  10  12
ATOM     12  C   UNL     1      95.569  94.364  79.442  1.00  0.00     0.080 C 
BRANCH  12  13
ATOM     13  C   UNL     1      96.300  94.766  80.724  1.00  0.00     0.043 C 
BRANCH  13  14
ATOM     14  C   UNL     1      96.077  96.211  81.104  1.00  0.00    -0.044 A 
ATOM     15  C   UNL     1      96.599  97.230  80.308  1.00  0.00     0.054 A 
ATOM     16  C   UNL     1      95.350  96.525  82.252  1.00  0.00     0.008 A 
ATOM     17  C   UNL     1      96.392  98.564  80.659  1.00  0.00     0.160 A 
ATOM     18  C   UNL     1      95.142  97.859  82.604  1.00  0.00     0.050 A 
ATOM     19  C   UNL     1      95.664  98.879  81.807  1.00  0.00     0.157 A 
BRANCH  17  20
ATOM     20  O   UNL     1      96.907  99.552  79.874  1.00  0.00    -0.493 OA
ATOM     21  C   UNL     1      96.202  99.858  78.672  1.00  0.00     0.278 C 
ENDBRANCH  17  20
BRANCH  19  22
ATOM     22  O   UNL     1      95.455 100.177  82.161  1.00  0.00    -0.504 OA
ATOM     23  H   UNL     1      94.530 100.285  82.441  1.00  0.00     0.293 HD
ENDBRANCH  19  22
ENDBRANCH  13  14
ENDBRANCH  12  13
ENDBRANCH  10  12
ENDBRANCH   1  10
TORSDOF 12
ENDMDL
MODEL 5
REMARK VINA RESULT:    -5.427     21.761     26.114
REMARK INTER + INTRA:         -10.137
REMARK INTER:                  -8.360
REMARK INTRA:                  -1.778
REMARK UNBOUND:                -1.220
REMARK SMILES CCCCC[C@H](O)CC(=O)CCc1ccc(O)c(OC)c1
REMARK SMILES IDX 8 1 6 2 7 3 5 5 4 6 3 7 2 8 1 9 9 10 10 11 11 12 12 13 13 14
REMARK SMILES IDX 21 15 14 16 18 17 15 18 16 19 19 20 20 21 17 22
REMARK H PARENT 7 4 17 23
REMARK Flexibility Score: inf
ROOT
ATOM      1  C   UNL     1      73.397  82.239  64.822  1.00  0.00     0.107 C 
ENDROOT
BRANCH   1   2
ATOM      2  C   UNL     1      72.109  81.530  65.249  1.00  0.00     0.121 C 
BRANCH   2   3
ATOM      3  O   UNL     1      72.390  80.169  65.568  1.00  0.00    -0.393 OA
ATOM      4  H   UNL     1      72.482  80.103  66.535  1.00  0.00     0.210 HD
ENDBRANCH   2   3
BRANCH   2   5
ATOM      5  C   UNL     1      71.425  82.198  66.447  1.00  0.00     0.032 C 
BRANCH   5   6
ATOM      6  C   UNL     1      71.483  83.729  66.364  1.00  0.00     0.003 C 
BRANCH   6   7
ATOM      7  C   UNL     1      72.122  84.379  67.596  1.00  0.00    -0.000 C 
BRANCH   7   8
ATOM      8  C   UNL     1      73.645  84.478  67.514  1.00  0.00    -0.003 C 
ATOM      9  C   UNL     1      74.128  85.879  67.859  1.00  0.00     0.004 C 
ENDBRANCH   7   8
ENDBRANCH   6   7
ENDBRANCH   5   6
ENDBRANCH   2   5
ENDBRANCH   1   2
BRANCH   1  10
ATOM     10  C   UNL     1      74.613  81.327  64.840  1.00  0.00     0.135 C 
ATOM     11  O   UNL     1      74.855  80.576  63.896  1.00  0.00    -0.300 OA
BRANCH  10  12
ATOM     12  C   UNL     1      75.524  81.430  66.054  1.00  0.00     0.080 C 
BRANCH  12  13
ATOM     13  C   UNL     1      76.942  81.898  65.720  1.00  0.00     0.043 C 
BRANCH  13  14
ATOM     14  C   UNL     1      77.179  83.352  66.054  1.00  0.00    -0.044 A 
ATOM     15  C   UNL     1      77.787  83.700  67.260  1.00  0.00     0.054 A 
ATOM     16  C   UNL     1      76.790  84.346  65.156  1.00  0.00     0.008 A 
ATOM     17  C   UNL     1      78.007  85.043  67.567  1.00  0.00     0.160 A 
ATOM     18  C   UNL     1      77.009  85.689  65.463  1.00  0.00     0.050 A 
ATOM     19  C   UNL     1      77.617  86.037  66.669  1.00  0.00     0.157 A 
BRANCH  17  20
ATOM     20  O   UNL     1      78.601  85.372  68.748  1.00  0.00    -0.493 OA
ATOM     21  C   UNL     1      77.759  85.452  69.897  1.00  0.00     0.278 C 
ENDBRANCH  17  20
BRANCH  19  22
ATOM     22  O   UNL     1      77.826  87.352  66.958  1.00  0.00    -0.504 OA
ATOM     23  H   UNL     1      77.317  87.586  67.753  1.00  0.00     0.293 HD
ENDBRANCH  19  22
ENDBRANCH  13  14
ENDBRANCH  12  13
ENDBRANCH  10  12
ENDBRANCH   1  10
TORSDOF 12
ENDMDL
MODEL 6
REMARK VINA RESULT:    -5.424     31.950     35.057
REMARK INTER + INTRA:         -10.132
REMARK INTER:                  -8.864
REMARK INTRA:                  -1.268
REMARK UNBOUND:                -1.220
REMARK SMILES CCCCC[C@H](O)CC(=O)CCc1ccc(O)c(OC)c1
REMARK SMILES IDX 8 1 6 2 7 3 5 5 4 6 3 7 2 8 1 9 9 10 10 11 11 12 12 13 13 14
REMARK SMILES IDX 21 15 14 16 18 17 15 18 16 19 19 20 20 21 17 22
REMARK H PARENT 7 4 17 23
REMARK Flexibility Score: inf
ROOT
ATOM      1  C   UNL     1      62.780  84.048  69.565  1.00  0.00     0.107 C 
ENDROOT
BRANCH   1   2
ATOM      2  C   UNL     1      61.535  84.143  70.451  1.00  0.00     0.121 C 
BRANCH   2   3
ATOM      3  O   UNL     1      61.864  84.785  71.680  1.00  0.00    -0.393 OA
ATOM      4  H   UNL     1      62.614  84.306  72.075  1.00  0.00     0.210 HD
ENDBRANCH   2   3
BRANCH   2   5
ATOM      5  C   UNL     1      60.379  84.896  69.782  1.00  0.00     0.032 C 
BRANCH   5   6
ATOM      6  C   UNL     1      59.019  84.511  70.376  1.00  0.00     0.003 C 
BRANCH   6   7
ATOM      7  C   UNL     1      58.456  85.564  71.336  1.00  0.00    -0.000 C 
BRANCH   7   8
ATOM      8  C   UNL     1      58.972  86.976  71.066  1.00  0.00    -0.003 C 
ATOM      9  C   UNL     1      58.070  87.720  70.094  1.00  0.00     0.004 C 
ENDBRANCH   7   8
ENDBRANCH   6   7
ENDBRANCH   5   6
ENDBRANCH   2   5
ENDBRANCH   1   2
BRANCH   1  10
ATOM     10  C   UNL     1      63.410  82.664  69.570  1.00  0.00     0.135 C 
ATOM     11  O   UNL     1      62.856  81.715  69.015  1.00  0.00    -0.300 OA
BRANCH  10  12
ATOM     12  C   UNL     1      64.764  82.534  70.250  1.00  0.00     0.080 C 
BRANCH  12  13
ATOM     13  C   UNL     1      64.776  81.538  71.411  1.00  0.00     0.043 C 
BRANCH  13  14
ATOM     14  C   UNL     1      63.912  81.971  72.572  1.00  0.00    -0.044 A 
ATOM     15  C   UNL     1      64.334  83.005  73.408  1.00  0.00     0.054 A 
ATOM     16  C   UNL     1      62.691  81.338  72.807  1.00  0.00     0.008 A 
ATOM     17  C   UNL     1      63.535  83.405  74.479  1.00  0.00     0.160 A 
ATOM     18  C   UNL     1      61.892  81.738  73.878  1.00  0.00     0.050 A 
ATOM     19  C   UNL     1      62.314  82.771  74.714  1.00  0.00     0.157 A 
BRANCH  17  20
ATOM     20  O   UNL     1      63.958  84.415  75.290  1.00  0.00    -0.493 OA
ATOM     21  C   UNL     1      64.940  84.090  76.272  1.00  0.00     0.278 C 
ENDBRANCH  17  20
BRANCH  19  22
ATOM     22  O   UNL     1      61.526  83.153  75.757  1.00  0.00    -0.504 OA
ATOM     23  H   UNL     1      60.617  83.285  75.435  1.00  0.00     0.293 HD
ENDBRANCH  19  22
ENDBRANCH  13  14
ENDBRANCH  12  13
ENDBRANCH  10  12
ENDBRANCH   1  10
TORSDOF 12
ENDMDL
MODEL 7
REMARK VINA RESULT:    -5.304     33.377     34.987
REMARK INTER + INTRA:          -9.936
REMARK INTER:                  -8.467
REMARK INTRA:                  -1.469
REMARK UNBOUND:                -1.220
REMARK SMILES CCCCC[C@H](O)CC(=O)CCc1ccc(O)c(OC)c1
REMARK SMILES IDX 8 1 6 2 7 3 5 5 4 6 3 7 2 8 1 9 9 10 10 11 11 12 12 13 13 14
REMARK SMILES IDX 21 15 14 16 18 17 15 18 16 19 19 20 20 21 17 22
REMARK H PARENT 7 4 17 23
REMARK Flexibility Score: inf
ROOT
ATOM      1  C   UNL     1      61.952  83.754  75.759  1.00  0.00     0.107 C 
ENDROOT
BRANCH   1   2
ATOM      2  C   UNL     1      62.144  85.188  75.260  1.00  0.00     0.121 C 
BRANCH   2   3
ATOM      3  O   UNL     1      63.531  85.520  75.266  1.00  0.00    -0.393 OA
ATOM      4  H   UNL     1      63.710  86.034  76.072  1.00  0.00     0.210 HD
ENDBRANCH   2   3
BRANCH   2   5
ATOM      5  C   UNL     1      61.577  85.414  73.853  1.00  0.00     0.032 C 
BRANCH   5   6
ATOM      6  C   UNL     1      60.044  85.419  73.844  1.00  0.00     0.003 C 
BRANCH   6   7
ATOM      7  C   UNL     1      59.446  85.706  72.462  1.00  0.00    -0.000 C 
BRANCH   7   8
ATOM      8  C   UNL     1      58.838  84.477  71.790  1.00  0.00    -0.003 C 
ATOM      9  C   UNL     1      58.579  84.724  70.312  1.00  0.00     0.004 C 
ENDBRANCH   7   8
ENDBRANCH   6   7
ENDBRANCH   5   6
ENDBRANCH   2   5
ENDBRANCH   1   2
BRANCH   1  10
ATOM     10  C   UNL     1      63.006  82.793  75.233  1.00  0.00     0.135 C 
ATOM     11  O   UNL     1      64.154  82.808  75.677  1.00  0.00    -0.300 OA
BRANCH  10  12
ATOM     12  C   UNL     1      62.554  81.797  74.176  1.00  0.00     0.080 C 
BRANCH  12  13
ATOM     13  C   UNL     1      63.707  81.164  73.395  1.00  0.00     0.043 C 
BRANCH  13  14
ATOM     14  C   UNL     1      63.889  81.761  72.020  1.00  0.00    -0.044 A 
ATOM     15  C   UNL     1      62.933  82.639  71.509  1.00  0.00     0.054 A 
ATOM     16  C   UNL     1      65.013  81.434  71.262  1.00  0.00     0.008 A 
ATOM     17  C   UNL     1      63.103  83.191  70.239  1.00  0.00     0.160 A 
ATOM     18  C   UNL     1      65.183  81.986  69.992  1.00  0.00     0.050 A 
ATOM     19  C   UNL     1      64.227  82.864  69.480  1.00  0.00     0.157 A 
BRANCH  17  20
ATOM     20  O   UNL     1      62.162  84.046  69.749  1.00  0.00    -0.493 OA
ATOM     21  C   UNL     1      62.264  85.414  70.142  1.00  0.00     0.278 C 
ENDBRANCH  17  20
BRANCH  19  22
ATOM     22  O   UNL     1      64.404  83.396  68.239  1.00  0.00    -0.504 OA
ATOM     23  H   UNL     1      65.146  82.943  67.803  1.00  0.00     0.293 HD
ENDBRANCH  19  22
ENDBRANCH  13  14
ENDBRANCH  12  13
ENDBRANCH  10  12
ENDBRANCH   1  10
TORSDOF 12
ENDMDL
MODEL 8
REMARK VINA RESULT:    -5.279     22.360     27.153
REMARK INTER + INTRA:          -9.895
REMARK INTER:                  -8.895
REMARK INTRA:                  -1.000
REMARK UNBOUND:                -1.220
REMARK SMILES CCCCC[C@H](O)CC(=O)CCc1ccc(O)c(OC)c1
REMARK SMILES IDX 8 1 6 2 7 3 5 5 4 6 3 7 2 8 1 9 9 10 10 11 11 12 12 13 13 14
REMARK SMILES IDX 21 15 14 16 18 17 15 18 16 19 19 20 20 21 17 22
REMARK H PARENT 7 4 17 23
REMARK Flexibility Score: inf
ROOT
ATOM      1  C   UNL     1      76.400  84.414  66.293  1.00  0.00     0.107 C 
ENDROOT
BRANCH   1   2
ATOM      2  C   UNL     1      77.609  84.669  67.196  1.00  0.00     0.121 C 
BRANCH   2   3
ATOM      3  O   UNL     1      78.750  83.987  66.680  1.00  0.00    -0.393 OA
ATOM      4  H   UNL     1      78.556  83.735  65.760  1.00  0.00     0.210 HD
ENDBRANCH   2   3
BRANCH   2   5
ATOM      5  C   UNL     1      77.939  86.158  67.351  1.00  0.00     0.032 C 
BRANCH   5   6
ATOM      6  C   UNL     1      78.299  86.522  68.796  1.00  0.00     0.003 C 
BRANCH   6   7
ATOM      7  C   UNL     1      77.180  86.214  69.796  1.00  0.00    -0.000 C 
BRANCH   7   8
ATOM      8  C   UNL     1      77.484  85.029  70.711  1.00  0.00    -0.003 C 
ATOM      9  C   UNL     1      76.231  84.221  71.007  1.00  0.00     0.004 C 
ENDBRANCH   7   8
ENDBRANCH   6   7
ENDBRANCH   5   6
ENDBRANCH   2   5
ENDBRANCH   1   2
BRANCH   1  10
ATOM     10  C   UNL     1      76.504  83.114  65.511  1.00  0.00     0.135 C 
ATOM     11  O   UNL     1      77.082  83.073  64.425  1.00  0.00    -0.300 OA
BRANCH  10  12
ATOM     12  C   UNL     1      75.901  81.878  66.160  1.00  0.00     0.080 C 
BRANCH  12  13
ATOM     13  C   UNL     1      75.249  80.916  65.165  1.00  0.00     0.043 C 
BRANCH  13  14
ATOM     14  C   UNL     1      73.839  81.312  64.797  1.00  0.00    -0.044 A 
ATOM     15  C   UNL     1      73.067  82.055  65.689  1.00  0.00     0.054 A 
ATOM     16  C   UNL     1      73.309  80.933  63.563  1.00  0.00     0.008 A 
ATOM     17  C   UNL     1      71.765  82.420  65.347  1.00  0.00     0.160 A 
ATOM     18  C   UNL     1      72.007  81.299  63.221  1.00  0.00     0.050 A 
ATOM     19  C   UNL     1      71.235  82.042  64.113  1.00  0.00     0.157 A 
BRANCH  17  20
ATOM     20  O   UNL     1      71.020  83.146  66.228  1.00  0.00    -0.493 OA
ATOM     21  C   UNL     1      70.343  82.422  67.254  1.00  0.00     0.278 C 
ENDBRANCH  17  20
BRANCH  19  22
ATOM     22  O   UNL     1      69.965  82.393  63.769  1.00  0.00    -0.504 OA
ATOM     23  H   UNL     1      69.476  81.594  63.504  1.00  0.00     0.293 HD
ENDBRANCH  19  22
ENDBRANCH  13  14
ENDBRANCH  12  13
ENDBRANCH  10  12
ENDBRANCH   1  10
TORSDOF 12
ENDMDL
MODEL 9
REMARK VINA RESULT:    -5.272      2.220      6.785
REMARK INTER + INTRA:          -9.882
REMARK INTER:                  -8.989
REMARK INTRA:                  -0.893
REMARK UNBOUND:                -1.220
REMARK SMILES CCCCC[C@H](O)CC(=O)CCc1ccc(O)c(OC)c1
REMARK SMILES IDX 8 1 6 2 7 3 5 5 4 6 3 7 2 8 1 9 9 10 10 11 11 12 12 13 13 14
REMARK SMILES IDX 21 15 14 16 18 17 15 18 16 19 19 20 20 21 17 22
REMARK H PARENT 7 4 17 23
REMARK Flexibility Score: inf
ROOT
ATOM      1  C   UNL     1      94.118  94.059  78.883  1.00  0.00     0.107 C 
ENDROOT
BRANCH   1   2
ATOM      2  C   UNL     1      94.444  94.288  80.360  1.00  0.00     0.121 C 
BRANCH   2   3
ATOM      3  O   UNL     1      94.006  93.172  81.132  1.00  0.00    -0.393 OA
ATOM      4  H   UNL     1      93.034  93.146  81.091  1.00  0.00     0.210 HD
ENDBRANCH   2   3
BRANCH   2   5
ATOM      5  C   UNL     1      95.938  94.523  80.616  1.00  0.00     0.032 C 
BRANCH   5   6
ATOM      6  C   UNL     1      96.216  95.932  81.155  1.00  0.00     0.003 C 
BRANCH   6   7
ATOM      7  C   UNL     1      94.965  96.634  81.692  1.00  0.00    -0.000 C 
BRANCH   7   8
ATOM      8  C   UNL     1      95.244  98.016  82.280  1.00  0.00    -0.003 C 
ATOM      9  C   UNL     1      95.983  97.915  83.606  1.00  0.00     0.004 C 
ENDBRANCH   7   8
ENDBRANCH   6   7
ENDBRANCH   5   6
ENDBRANCH   2   5
ENDBRANCH   1   2
BRANCH   1  10
ATOM     10  C   UNL     1      92.721  94.523  78.502  1.00  0.00     0.135 C 
ATOM     11  O   UNL     1      91.727  94.065  79.064  1.00  0.00    -0.300 OA
BRANCH  10  12
ATOM     12  C   UNL     1      92.629  95.603  77.435  1.00  0.00     0.080 C 
BRANCH  12  13
ATOM     13  C   UNL     1      93.673  95.462  76.325  1.00  0.00     0.043 C 
BRANCH  13  14
ATOM     14  C   UNL     1      93.955  96.761  75.609  1.00  0.00    -0.044 A 
ATOM     15  C   UNL     1      95.156  96.932  74.921  1.00  0.00     0.054 A 
ATOM     16  C   UNL     1      93.013  97.791  75.637  1.00  0.00     0.008 A 
ATOM     17  C   UNL     1      95.414  98.133  74.259  1.00  0.00     0.160 A 
ATOM     18  C   UNL     1      93.272  98.991  74.975  1.00  0.00     0.050 A 
ATOM     19  C   UNL     1      94.473  99.162  74.286  1.00  0.00     0.157 A 
BRANCH  17  20
ATOM     20  O   UNL     1      96.591  98.289  73.590  1.00  0.00    -0.493 OA
ATOM     21  C   UNL     1      96.641  97.810  72.247  1.00  0.00     0.278 C 
ENDBRANCH  17  20
BRANCH  19  22
ATOM     22  O   UNL     1      94.715 100.339  73.644  1.00  0.00    -0.504 OA
ATOM     23  H   UNL     1      93.892 100.857  73.612  1.00  0.00     0.293 HD
ENDBRANCH  19  22
ENDBRANCH  13  14
ENDBRANCH  12  13
ENDBRANCH  10  12
ENDBRANCH   1  10
TORSDOF 12
ENDMDL
MODEL 10
REMARK VINA RESULT:    -5.225     12.316     15.530
REMARK INTER + INTRA:          -9.805
REMARK INTER:                  -8.932
REMARK INTRA:                  -0.874
REMARK UNBOUND:                -1.220
REMARK SMILES CCCCC[C@H](O)CC(=O)CCc1ccc(O)c(OC)c1
REMARK SMILES IDX 8 1 6 2 7 3 5 5 4 6 3 7 2 8 1 9 9 10 10 11 11 12 12 13 13 14
REMARK SMILES IDX 21 15 14 16 18 17 15 18 16 19 19 20 20 21 17 22
REMARK H PARENT 7 4 17 23
REMARK Flexibility Score: inf
ROOT
ATOM      1  C   UNL     1      95.252  87.385  89.718  1.00  0.00     0.107 C 
ENDROOT
BRANCH   1   2
ATOM      2  C   UNL     1      96.272  88.084  88.815  1.00  0.00     0.121 C 
BRANCH   2   3
ATOM      3  O   UNL     1      96.292  87.459  87.534  1.00  0.00    -0.393 OA
ATOM      4  H   UNL     1      95.474  86.939  87.444  1.00  0.00     0.210 HD
ENDBRANCH   2   3
BRANCH   2   5
ATOM      5  C   UNL     1      95.991  89.582  88.641  1.00  0.00     0.032 C 
BRANCH   5   6
ATOM      6  C   UNL     1      94.848  90.063  89.542  1.00  0.00     0.003 C 
BRANCH   6   7
ATOM      7  C   UNL     1      95.053  91.485  90.075  1.00  0.00    -0.000 C 
BRANCH   7   8
ATOM      8  C   UNL     1      93.752  92.191  90.453  1.00  0.00    -0.003 C 
ATOM      9  C   UNL     1      92.655  91.191  90.785  1.00  0.00     0.004 C 
ENDBRANCH   7   8
ENDBRANCH   6   7
ENDBRANCH   5   6
ENDBRANCH   2   5
ENDBRANCH   1   2
BRANCH   1  10
ATOM     10  C   UNL     1      95.173  85.887  89.477  1.00  0.00     0.135 C 
ATOM     11  O   UNL     1      96.193  85.199  89.427  1.00  0.00    -0.300 OA
BRANCH  10  12
ATOM     12  C   UNL     1      93.780  85.289  89.351  1.00  0.00     0.080 C 
BRANCH  12  13
ATOM     13  C   UNL     1      93.447  84.798  87.941  1.00  0.00     0.043 C 
BRANCH  13  14
ATOM     14  C   UNL     1      92.298  83.819  87.910  1.00  0.00    -0.044 A 
ATOM     15  C   UNL     1      92.269  82.806  86.951  1.00  0.00     0.054 A 
ATOM     16  C   UNL     1      91.265  83.927  88.842  1.00  0.00     0.008 A 
ATOM     17  C   UNL     1      91.207  81.902  86.925  1.00  0.00     0.160 A 
ATOM     18  C   UNL     1      90.204  83.023  88.816  1.00  0.00     0.050 A 
ATOM     19  C   UNL     1      90.175  82.010  87.857  1.00  0.00     0.157 A 
BRANCH  17  20
ATOM     20  O   UNL     1      91.190  80.917  85.984  1.00  0.00    -0.493 OA
ATOM     21  C   UNL     1      91.958  79.746  86.255  1.00  0.00     0.278 C 
ENDBRANCH  17  20
BRANCH  19  22
ATOM     22  O   UNL     1      89.133  81.133  87.841  1.00  0.00    -0.504 OA
ATOM     23  H   UNL     1      89.225  80.518  88.589  1.00  0.00     0.293 HD
ENDBRANCH  19  22
ENDBRANCH  13  14
ENDBRANCH  12  13
ENDBRANCH  10  12
ENDBRANCH   1  10
TORSDOF 12
ENDMDL
