MODEL 1
REMARK VINA RESULT:    -5.973      0.000      0.000
REMARK INTER + INTRA:         -10.455
REMARK INTER:                  -9.640
REMARK INTRA:                  -0.815
REMARK UNBOUND:                -0.815
REMARK SMILES CCCCCCCCC(=O)NCc1ccc(O)c(OC)c1
REMARK SMILES IDX 7 1 6 2 5 3 4 4 3 5 2 6 1 7 8 8 9 9 10 10 11 11 12 13 13 14
REMARK SMILES IDX 21 15 14 16 18 17 15 18 16 19 19 20 20 21 17 22
REMARK H PARENT 11 12 17 23
REMARK Flexibility Score: inf
ROOT
ATOM      1  C   UNL     1      92.304  94.228  77.236  1.00  0.00     0.010 C 
ENDROOT
BRANCH   1   2
ATOM      2  C   UNL     1      90.829  94.053  76.775  1.00  0.00     0.001 C 
BRANCH   2   3
ATOM      3  C   UNL     1      90.091  92.936  77.572  1.00  0.00     0.000 C 
BRANCH   3   4
ATOM      4  C   UNL     1      89.968  91.592  76.799  1.00  0.00    -0.000 C 
BRANCH   4   5
ATOM      5  C   UNL     1      90.054  91.776  75.257  1.00  0.00    -0.000 C 
BRANCH   5   6
ATOM      6  C   UNL     1      91.167  90.905  74.614  1.00  0.00    -0.003 C 
ATOM      7  C   UNL     1      90.794  89.408  74.549  1.00  0.00     0.004 C 
ENDBRANCH   5   6
ENDBRANCH   4   5
ENDBRANCH   3   4
ENDBRANCH   2   3
ENDBRANCH   1   2
BRANCH   1   8
ATOM      8  C   UNL     1      92.737  93.236  78.352  1.00  0.00     0.100 C 
BRANCH   8   9
ATOM      9  C   UNL     1      94.194  93.321  78.615  1.00  0.00     0.220 C 
ATOM     10  O   UNL     1      94.962  93.534  77.646  1.00  0.00    -0.275 OA
ATOM     11  N   UNL     1      94.678  93.199  79.886  1.00  0.00    -0.352 N 
ATOM     12  H   UNL     1      93.985  92.944  80.574  1.00  0.00     0.163 HD
BRANCH  11  13
ATOM     13  C   UNL     1      96.037  93.402  80.286  1.00  0.00     0.151 C 
BRANCH  13  14
ATOM     14  C   UNL     1      96.401  94.831  80.474  1.00  0.00    -0.025 A 
ATOM     15  C   UNL     1      97.293  95.464  79.575  1.00  0.00     0.056 A 
ATOM     16  C   UNL     1      95.872  95.581  81.550  1.00  0.00     0.009 A 
ATOM     17  C   UNL     1      97.635  96.827  79.731  1.00  0.00     0.160 A 
ATOM     18  C   UNL     1      96.208  96.937  81.711  1.00  0.00     0.050 A 
ATOM     19  C   UNL     1      97.093  97.561  80.810  1.00  0.00     0.157 A 
BRANCH  17  20
ATOM     20  O   UNL     1      98.531  97.427  78.883  1.00  0.00    -0.493 OA
ATOM     21  C   UNL     1      97.991  97.752  77.590  1.00  0.00     0.278 C 
ENDBRANCH  17  20
BRANCH  19  22
ATOM     22  O   UNL     1      97.432  98.863  80.990  1.00  0.00    -0.504 OA
ATOM     23  H   UNL     1      97.149  99.150  81.861  1.00  0.00     0.293 HD
ENDBRANCH  19  22
ENDBRANCH  13  14
ENDBRANCH  11  13
ENDBRANCH   8   9
ENDBRANCH   1   8
TORSDOF 11
ENDMDL
MODEL 2
REMARK VINA RESULT:    -5.809     11.146     12.886
REMARK INTER + INTRA:         -10.189
REMARK INTER:                  -8.233
REMARK INTRA:                  -1.956
REMARK UNBOUND:                -0.815
REMARK SMILES CCCCCCCCC(=O)NCc1ccc(O)c(OC)c1
REMARK SMILES IDX 7 1 6 2 5 3 4 4 3 5 2 6 1 7 8 8 9 9 10 10 11 11 12 13 13 14
REMARK SMILES IDX 21 15 14 16 18 17 15 18 16 19 19 20 20 21 17 22
REMARK H PARENT 11 12 17 23
REMARK Flexibility Score: inf
ROOT
ATOM      1  C   UNL     1      87.300 101.015  66.939  1.00  0.00     0.010 C 
ENDROOT
BRANCH   1   2
ATOM      2  C   UNL     1      87.979 102.229  66.241  1.00  0.00     0.001 C 
BRANCH   2   3
ATOM      3  C   UNL     1      88.890 103.033  67.215  1.00  0.00     0.000 C 
BRANCH   3   4
ATOM      4  C   UNL     1      89.937 102.159  67.961  1.00  0.00    -0.000 C 
BRANCH   4   5
ATOM      5  C   UNL     1      91.398 102.637  67.721  1.00  0.00    -0.000 C 
BRANCH   5   6
ATOM      6  C   UNL     1      92.235 101.609  66.912  1.00  0.00    -0.003 C 
ATOM      7  C   UNL     1      91.618 101.283  65.534  1.00  0.00     0.004 C 
ENDBRANCH   5   6
ENDBRANCH   4   5
ENDBRANCH   3   4
ENDBRANCH   2   3
ENDBRANCH   1   2
BRANCH   1   8
ATOM      8  C   UNL     1      87.625  99.646  66.278  1.00  0.00     0.100 C 
BRANCH   8   9
ATOM      9  C   UNL     1      88.700  98.935  67.011  1.00  0.00     0.220 C 
ATOM     10  O   UNL     1      89.757  98.656  66.396  1.00  0.00    -0.275 OA
ATOM     11  N   UNL     1      88.549  98.621  68.332  1.00  0.00    -0.352 N 
ATOM     12  H   UNL     1      87.630  98.813  68.704  1.00  0.00     0.163 HD
BRANCH  11  13
ATOM     13  C   UNL     1      89.559  98.067  69.180  1.00  0.00     0.151 C 
BRANCH  13  14
ATOM     14  C   UNL     1      90.363  99.088  69.904  1.00  0.00    -0.025 A 
ATOM     15  C   UNL     1      91.759  99.181  69.686  1.00  0.00     0.056 A 
ATOM     16  C   UNL     1      89.755  99.977  70.819  1.00  0.00     0.009 A 
ATOM     17  C   UNL     1      92.533 100.158  70.353  1.00  0.00     0.160 A 
ATOM     18  C   UNL     1      90.520 100.951  71.486  1.00  0.00     0.050 A 
ATOM     19  C   UNL     1      91.907 101.040  71.262  1.00  0.00     0.157 A 
BRANCH  17  20
ATOM     20  O   UNL     1      93.892 100.219  70.172  1.00  0.00    -0.493 OA
ATOM     21  C   UNL     1      94.585  99.002  70.500  1.00  0.00     0.278 C 
ENDBRANCH  17  20
BRANCH  19  22
ATOM     22  O   UNL     1      92.641 101.966  71.930  1.00  0.00    -0.504 OA
ATOM     23  H   UNL     1      93.058 101.555  72.691  1.00  0.00     0.293 HD
ENDBRANCH  19  22
ENDBRANCH  13  14
ENDBRANCH  11  13
ENDBRANCH   8   9
ENDBRANCH   1   8
TORSDOF 11
ENDMDL
MODEL 3
REMARK VINA RESULT:    -5.689     11.208     12.989
REMARK INTER + INTRA:          -9.996
REMARK INTER:                  -8.088
REMARK INTRA:                  -1.907
REMARK UNBOUND:                -0.815
REMARK SMILES CCCCCCCCC(=O)NCc1ccc(O)c(OC)c1
REMARK SMILES IDX 7 1 6 2 5 3 4 4 3 5 2 6 1 7 8 8 9 9 10 10 11 11 12 13 13 14
REMARK SMILES IDX 21 15 14 16 18 17 15 18 16 19 19 20 20 21 17 22
REMARK H PARENT 11 12 17 23
REMARK Flexibility Score: inf
ROOT
ATOM      1  C   UNL     1      87.250 100.259  66.958  1.00  0.00     0.010 C 
ENDROOT
BRANCH   1   2
ATOM      2  C   UNL     1      87.397 101.681  66.344  1.00  0.00     0.001 C 
BRANCH   2   3
ATOM      3  C   UNL     1      88.408 102.563  67.135  1.00  0.00     0.000 C 
BRANCH   3   4
ATOM      4  C   UNL     1      89.644 103.001  66.300  1.00  0.00    -0.000 C 
BRANCH   4   5
ATOM      5  C   UNL     1      90.719 101.883  66.188  1.00  0.00    -0.000 C 
BRANCH   5   6
ATOM      6  C   UNL     1      91.415 101.586  67.544  1.00  0.00    -0.003 C 
ATOM      7  C   UNL     1      92.951 101.736  67.476  1.00  0.00     0.004 C 
ENDBRANCH   5   6
ENDBRANCH   4   5
ENDBRANCH   3   4
ENDBRANCH   2   3
ENDBRANCH   1   2
BRANCH   1   8
ATOM      8  C   UNL     1      88.227  99.210  66.358  1.00  0.00     0.100 C 
BRANCH   8   9
ATOM      9  C   UNL     1      89.143  98.672  67.393  1.00  0.00     0.220 C 
ATOM     10  O   UNL     1      90.271  98.260  67.032  1.00  0.00    -0.275 OA
ATOM     11  N   UNL     1      88.772  98.656  68.707  1.00  0.00    -0.352 N 
ATOM     12  H   UNL     1      87.815  98.929  68.874  1.00  0.00     0.163 HD
BRANCH  11  13
ATOM     13  C   UNL     1      89.612  98.296  69.808  1.00  0.00     0.151 C 
BRANCH  13  14
ATOM     14  C   UNL     1      90.394  99.433  70.364  1.00  0.00    -0.025 A 
ATOM     15  C   UNL     1      89.740 100.630  70.742  1.00  0.00     0.056 A 
ATOM     16  C   UNL     1      91.797  99.343  70.520  1.00  0.00     0.009 A 
ATOM     17  C   UNL     1      90.468 101.712  71.288  1.00  0.00     0.160 A 
ATOM     18  C   UNL     1      92.526 100.415  71.063  1.00  0.00     0.050 A 
ATOM     19  C   UNL     1      91.869 101.602  71.441  1.00  0.00     0.157 A 
BRANCH  17  20
ATOM     20  O   UNL     1      89.838 102.886  71.616  1.00  0.00    -0.493 OA
ATOM     21  C   UNL     1      89.175 102.863  72.892  1.00  0.00     0.278 C 
ENDBRANCH  17  20
BRANCH  19  22
ATOM     22  O   UNL     1      92.585 102.642  71.939  1.00  0.00    -0.504 OA
ATOM     23  H   UNL     1      93.291 102.865  71.328  1.00  0.00     0.293 HD
ENDBRANCH  19  22
ENDBRANCH  13  14
ENDBRANCH  11  13
ENDBRANCH   8   9
ENDBRANCH   1   8
TORSDOF 11
ENDMDL
MODEL 4
REMARK VINA RESULT:    -5.639      2.392      4.133
REMARK INTER + INTRA:          -9.916
REMARK INTER:                  -8.729
REMARK INTRA:                  -1.187
REMARK UNBOUND:                -0.815
REMARK SMILES CCCCCCCCC(=O)NCc1ccc(O)c(OC)c1
REMARK SMILES IDX 7 1 6 2 5 3 4 4 3 5 2 6 1 7 8 8 9 9 10 10 11 11 12 13 13 14
REMARK SMILES IDX 21 15 14 16 18 17 15 18 16 19 19 20 20 21 17 22
REMARK H PARENT 11 12 17 23
REMARK Flexibility Score: inf
ROOT
ATOM      1  C   UNL     1      92.163  94.605  77.563  1.00  0.00     0.010 C 
ENDROOT
BRANCH   1   2
ATOM      2  C   UNL     1      91.960  94.498  76.024  1.00  0.00     0.001 C 
BRANCH   2   3
ATOM      3  C   UNL     1      93.267  94.804  75.235  1.00  0.00     0.000 C 
BRANCH   3   4
ATOM      4  C   UNL     1      93.969  96.121  75.672  1.00  0.00    -0.000 C 
BRANCH   4   5
ATOM      5  C   UNL     1      94.040  97.171  74.527  1.00  0.00    -0.000 C 
BRANCH   5   6
ATOM      6  C   UNL     1      95.373  97.100  73.735  1.00  0.00    -0.003 C 
ATOM      7  C   UNL     1      96.616  97.096  74.651  1.00  0.00     0.004 C 
ENDBRANCH   5   6
ENDBRANCH   4   5
ENDBRANCH   3   4
ENDBRANCH   2   3
ENDBRANCH   1   2
BRANCH   1   8
ATOM      8  C   UNL     1      92.407  93.239  78.262  1.00  0.00     0.100 C 
BRANCH   8   9
ATOM      9  C   UNL     1      93.795  93.134  78.772  1.00  0.00     0.220 C 
ATOM     10  O   UNL     1      93.966  92.787  79.966  1.00  0.00    -0.275 OA
ATOM     11  N   UNL     1      94.857  93.381  77.950  1.00  0.00    -0.352 N 
ATOM     12  H   UNL     1      94.606  93.735  77.039  1.00  0.00     0.163 HD
BRANCH  11  13
ATOM     13  C   UNL     1      96.234  93.178  78.280  1.00  0.00     0.151 C 
BRANCH  13  14
ATOM     14  C   UNL     1      96.897  94.378  78.857  1.00  0.00    -0.025 A 
ATOM     15  C   UNL     1      97.458  94.328  80.155  1.00  0.00     0.056 A 
ATOM     16  C   UNL     1      96.977  95.586  78.125  1.00  0.00     0.009 A 
ATOM     17  C   UNL     1      98.107  95.456  80.709  1.00  0.00     0.160 A 
ATOM     18  C   UNL     1      97.621  96.711  78.670  1.00  0.00     0.050 A 
ATOM     19  C   UNL     1      98.180  96.653  79.962  1.00  0.00     0.157 A 
BRANCH  17  20
ATOM     20  O   UNL     1      98.613  95.418  81.984  1.00  0.00    -0.493 OA
ATOM     21  C   UNL     1      99.103  94.126  82.385  1.00  0.00     0.278 C 
ENDBRANCH  17  20
BRANCH  19  22
ATOM     22  O   UNL     1      98.776  97.752  80.490  1.00  0.00    -0.504 OA
ATOM     23  H   UNL     1      98.278  98.536  80.243  1.00  0.00     0.293 HD
ENDBRANCH  19  22
ENDBRANCH  13  14
ENDBRANCH  11  13
ENDBRANCH   8   9
ENDBRANCH   1   8
TORSDOF 11
ENDMDL
MODEL 5
REMARK VINA RESULT:    -5.571     11.231     13.880
REMARK INTER + INTRA:          -9.805
REMARK INTER:                  -9.182
REMARK INTRA:                  -0.623
REMARK UNBOUND:                -0.815
REMARK SMILES CCCCCCCCC(=O)NCc1ccc(O)c(OC)c1
REMARK SMILES IDX 7 1 6 2 5 3 4 4 3 5 2 6 1 7 8 8 9 9 10 10 11 11 12 13 13 14
REMARK SMILES IDX 21 15 14 16 18 17 15 18 16 19 19 20 20 21 17 22
REMARK H PARENT 11 12 17 23
REMARK Flexibility Score: inf
ROOT
ATOM      1  C   UNL     1      91.035  99.602  71.082  1.00  0.00     0.010 C 
ENDROOT
BRANCH   1   2
ATOM      2  C   UNL     1      92.268 100.092  71.895  1.00  0.00     0.001 C 
BRANCH   2   3
ATOM      3  C   UNL     1      92.977  98.929  72.648  1.00  0.00     0.000 C 
BRANCH   3   4
ATOM      4  C   UNL     1      94.254  99.368  73.420  1.00  0.00    -0.000 C 
BRANCH   4   5
ATOM      5  C   UNL     1      94.867  98.219  74.270  1.00  0.00    -0.000 C 
BRANCH   5   6
ATOM      6  C   UNL     1      93.957  96.961  74.315  1.00  0.00    -0.003 C 
ATOM      7  C   UNL     1      94.182  96.103  75.579  1.00  0.00     0.004 C 
ENDBRANCH   5   6
ENDBRANCH   4   5
ENDBRANCH   3   4
ENDBRANCH   2   3
ENDBRANCH   1   2
BRANCH   1   8
ATOM      8  C   UNL     1      91.400  98.932  69.728  1.00  0.00     0.100 C 
BRANCH   8   9
ATOM      9  C   UNL     1      90.188  98.649  68.922  1.00  0.00     0.220 C 
ATOM     10  O   UNL     1      89.145  98.292  69.520  1.00  0.00    -0.275 OA
ATOM     11  N   UNL     1      90.206  98.803  67.565  1.00  0.00    -0.352 N 
ATOM     12  H   UNL     1      91.116  99.009  67.180  1.00  0.00     0.163 HD
BRANCH  11  13
ATOM     13  C   UNL     1      89.072  98.699  66.697  1.00  0.00     0.151 C 
BRANCH  13  14
ATOM     14  C   UNL     1      88.332  99.977  66.519  1.00  0.00    -0.025 A 
ATOM     15  C   UNL     1      89.028 101.210  66.524  1.00  0.00     0.056 A 
ATOM     16  C   UNL     1      86.929  99.986  66.345  1.00  0.00     0.009 A 
ATOM     17  C   UNL     1      88.340 102.431  66.338  1.00  0.00     0.160 A 
ATOM     18  C   UNL     1      86.240 101.197  66.159  1.00  0.00     0.050 A 
ATOM     19  C   UNL     1      86.938 102.420  66.162  1.00  0.00     0.157 A 
BRANCH  17  20
ATOM     20  O   UNL     1      89.011 103.627  66.386  1.00  0.00    -0.493 OA
ATOM     21  C   UNL     1      89.360 104.054  67.715  1.00  0.00     0.278 C 
ENDBRANCH  17  20
BRANCH  19  22
ATOM     22  O   UNL     1      86.260 103.586  66.009  1.00  0.00    -0.504 OA
ATOM     23  H   UNL     1      85.802 103.581  65.165  1.00  0.00     0.293 HD
ENDBRANCH  19  22
ENDBRANCH  13  14
ENDBRANCH  11  13
ENDBRANCH   8   9
ENDBRANCH   1   8
TORSDOF 11
ENDMDL
MODEL 6
REMARK VINA RESULT:    -5.536      2.519      4.842
REMARK INTER + INTRA:          -9.748
REMARK INTER:                  -8.389
REMARK INTRA:                  -1.359
REMARK UNBOUND:                -0.815
REMARK SMILES CCCCCCCCC(=O)NCc1ccc(O)c(OC)c1
REMARK SMILES IDX 7 1 6 2 5 3 4 4 3 5 2 6 1 7 8 8 9 9 10 10 11 11 12 13 13 14
REMARK SMILES IDX 21 15 14 16 18 17 15 18 16 19 19 20 20 21 17 22
REMARK H PARENT 11 12 17 23
REMARK Flexibility Score: inf
ROOT
ATOM      1  C   UNL     1      92.867  96.088  76.185  1.00  0.00     0.010 C 
ENDROOT
BRANCH   1   2
ATOM      2  C   UNL     1      93.397  96.108  74.723  1.00  0.00     0.001 C 
BRANCH   2   3
ATOM      3  C   UNL     1      94.810  95.464  74.600  1.00  0.00     0.000 C 
BRANCH   3   4
ATOM      4  C   UNL     1      95.853  96.372  73.889  1.00  0.00    -0.000 C 
BRANCH   4   5
ATOM      5  C   UNL     1      96.633  97.280  74.882  1.00  0.00    -0.000 C 
BRANCH   5   6
ATOM      6  C   UNL     1      96.600  96.739  76.336  1.00  0.00    -0.003 C 
ATOM      7  C   UNL     1      97.370  97.638  77.329  1.00  0.00     0.004 C 
ENDBRANCH   5   6
ENDBRANCH   4   5
ENDBRANCH   3   4
ENDBRANCH   2   3
ENDBRANCH   1   2
BRANCH   1   8
ATOM      8  C   UNL     1      92.056  94.812  76.544  1.00  0.00     0.100 C 
BRANCH   8   9
ATOM      9  C   UNL     1      92.628  94.121  77.724  1.00  0.00     0.220 C 
ATOM     10  O   UNL     1      91.926  93.264  78.311  1.00  0.00    -0.275 OA
ATOM     11  N   UNL     1      93.900  94.396  78.139  1.00  0.00    -0.352 N 
ATOM     12  H   UNL     1      94.342  95.161  77.651  1.00  0.00     0.163 HD
BRANCH  11  13
ATOM     13  C   UNL     1      94.611  93.702  79.169  1.00  0.00     0.151 C 
BRANCH  13  14
ATOM     14  C   UNL     1      95.826  94.415  79.646  1.00  0.00    -0.025 A 
ATOM     15  C   UNL     1      95.750  95.285  80.759  1.00  0.00     0.056 A 
ATOM     16  C   UNL     1      97.072  94.241  78.999  1.00  0.00     0.009 A 
ATOM     17  C   UNL     1      96.900  95.956  81.235  1.00  0.00     0.160 A 
ATOM     18  C   UNL     1      98.219  94.905  79.468  1.00  0.00     0.050 A 
ATOM     19  C   UNL     1      98.137  95.768  80.578  1.00  0.00     0.157 A 
BRANCH  17  20
ATOM     20  O   UNL     1      96.815  96.832  82.288  1.00  0.00    -0.493 OA
ATOM     21  C   UNL     1      96.316  98.133  81.933  1.00  0.00     0.278 C 
ENDBRANCH  17  20
BRANCH  19  22
ATOM     22  O   UNL     1      99.245  96.425  81.006  1.00  0.00    -0.504 OA
ATOM     23  H   UNL     1      99.687  96.828  80.256  1.00  0.00     0.293 HD
ENDBRANCH  19  22
ENDBRANCH  13  14
ENDBRANCH  11  13
ENDBRANCH   8   9
ENDBRANCH   1   8
TORSDOF 11
ENDMDL
MODEL 7
REMARK VINA RESULT:    -5.368     21.884     24.837
REMARK INTER + INTRA:          -9.478
REMARK INTER:                  -8.873
REMARK INTRA:                  -0.605
REMARK UNBOUND:                -0.815
REMARK SMILES CCCCCCCCC(=O)NCc1ccc(O)c(OC)c1
REMARK SMILES IDX 7 1 6 2 5 3 4 4 3 5 2 6 1 7 8 8 9 9 10 10 11 11 12 13 13 14
REMARK SMILES IDX 21 15 14 16 18 17 15 18 16 19 19 20 20 21 17 22
REMARK H PARENT 11 12 17 23
REMARK Flexibility Score: inf
ROOT
ATOM      1  C   UNL     1      75.864  81.954  65.158  1.00  0.00     0.010 C 
ENDROOT
BRANCH   1   2
ATOM      2  C   UNL     1      75.051  81.660  63.864  1.00  0.00     0.001 C 
BRANCH   2   3
ATOM      3  C   UNL     1      73.543  82.013  64.023  1.00  0.00     0.000 C 
BRANCH   3   4
ATOM      4  C   UNL     1      72.688  80.860  64.621  1.00  0.00    -0.000 C 
BRANCH   4   5
ATOM      5  C   UNL     1      71.303  80.718  63.929  1.00  0.00    -0.000 C 
BRANCH   5   6
ATOM      6  C   UNL     1      70.398  81.961  64.147  1.00  0.00    -0.003 C 
ATOM      7  C   UNL     1      70.147  82.267  65.640  1.00  0.00     0.004 C 
ENDBRANCH   5   6
ENDBRANCH   4   5
ENDBRANCH   3   4
ENDBRANCH   2   3
ENDBRANCH   1   2
BRANCH   1   8
ATOM      8  C   UNL     1      75.242  83.062  66.053  1.00  0.00     0.100 C 
BRANCH   8   9
ATOM      9  C   UNL     1      76.292  83.892  66.691  1.00  0.00     0.220 C 
ATOM     10  O   UNL     1      77.435  83.907  66.175  1.00  0.00    -0.275 OA
ATOM     11  N   UNL     1      76.007  84.642  67.797  1.00  0.00    -0.352 N 
ATOM     12  H   UNL     1      75.086  84.489  68.179  1.00  0.00     0.163 HD
BRANCH  11  13
ATOM     13  C   UNL     1      76.887  85.585  68.416  1.00  0.00     0.151 C 
BRANCH  13  14
ATOM     14  C   UNL     1      76.574  87.002  68.092  1.00  0.00    -0.025 A 
ATOM     15  C   UNL     1      75.323  87.556  68.454  1.00  0.00     0.056 A 
ATOM     16  C   UNL     1      77.512  87.818  67.418  1.00  0.00     0.009 A 
ATOM     17  C   UNL     1      75.017  88.907  68.168  1.00  0.00     0.160 A 
ATOM     18  C   UNL     1      77.214  89.162  67.131  1.00  0.00     0.050 A 
ATOM     19  C   UNL     1      75.969  89.708  67.497  1.00  0.00     0.157 A 
BRANCH  17  20
ATOM     20  O   UNL     1      73.788  89.430  68.483  1.00  0.00    -0.493 OA
ATOM     21  C   UNL     1      73.723  90.039  69.784  1.00  0.00     0.278 C 
ENDBRANCH  17  20
BRANCH  19  22
ATOM     22  O   UNL     1      75.681  90.999  67.192  1.00  0.00    -0.504 OA
ATOM     23  H   UNL     1      76.498  91.491  67.081  1.00  0.00     0.293 HD
ENDBRANCH  19  22
ENDBRANCH  13  14
ENDBRANCH  11  13
ENDBRANCH   8   9
ENDBRANCH   1   8
TORSDOF 11
ENDMDL
MODEL 8
REMARK VINA RESULT:    -5.365     22.123     25.243
REMARK INTER + INTRA:          -9.474
REMARK INTER:                  -8.625
REMARK INTRA:                  -0.849
REMARK UNBOUND:                -0.815
REMARK SMILES CCCCCCCCC(=O)NCc1ccc(O)c(OC)c1
REMARK SMILES IDX 7 1 6 2 5 3 4 4 3 5 2 6 1 7 8 8 9 9 10 10 11 11 12 13 13 14
REMARK SMILES IDX 21 15 14 16 18 17 15 18 16 19 19 20 20 21 17 22
REMARK H PARENT 11 12 17 23
REMARK Flexibility Score: inf
ROOT
ATOM      1  C   UNL     1      75.552  81.681  64.516  1.00  0.00     0.010 C 
ENDROOT
BRANCH   1   2
ATOM      2  C   UNL     1      74.941  81.754  63.087  1.00  0.00     0.001 C 
BRANCH   2   3
ATOM      3  C   UNL     1      73.424  82.106  63.113  1.00  0.00     0.000 C 
BRANCH   3   4
ATOM      4  C   UNL     1      72.492  80.862  63.144  1.00  0.00    -0.000 C 
BRANCH   4   5
ATOM      5  C   UNL     1      71.162  81.127  63.905  1.00  0.00    -0.000 C 
BRANCH   5   6
ATOM      6  C   UNL     1      71.385  81.863  65.254  1.00  0.00    -0.003 C 
ATOM      7  C   UNL     1      70.072  82.391  65.874  1.00  0.00     0.004 C 
ENDBRANCH   5   6
ENDBRANCH   4   5
ENDBRANCH   3   4
ENDBRANCH   2   3
ENDBRANCH   1   2
BRANCH   1   8
ATOM      8  C   UNL     1      75.127  82.854  65.443  1.00  0.00     0.100 C 
BRANCH   8   9
ATOM      9  C   UNL     1      76.286  83.707  65.800  1.00  0.00     0.220 C 
ATOM     10  O   UNL     1      77.249  83.769  64.999  1.00  0.00    -0.275 OA
ATOM     11  N   UNL     1      76.286  84.427  66.960  1.00  0.00    -0.352 N 
ATOM     12  H   UNL     1      75.504  84.237  67.570  1.00  0.00     0.163 HD
BRANCH  11  13
ATOM     13  C   UNL     1      77.273  85.388  67.347  1.00  0.00     0.151 C 
BRANCH  13  14
ATOM     14  C   UNL     1      76.870  86.798  67.098  1.00  0.00    -0.025 A 
ATOM     15  C   UNL     1      76.498  87.213  65.796  1.00  0.00     0.056 A 
ATOM     16  C   UNL     1      76.855  87.746  68.146  1.00  0.00     0.009 A 
ATOM     17  C   UNL     1      76.096  88.545  65.547  1.00  0.00     0.160 A 
ATOM     18  C   UNL     1      76.455  89.073  67.906  1.00  0.00     0.050 A 
ATOM     19  C   UNL     1      76.083  89.478  66.609  1.00  0.00     0.157 A 
BRANCH  17  20
ATOM     20  O   UNL     1      75.776  88.956  64.278  1.00  0.00    -0.493 OA
ATOM     21  C   UNL     1      75.295  87.903  63.422  1.00  0.00     0.278 C 
ENDBRANCH  17  20
BRANCH  19  22
ATOM     22  O   UNL     1      75.725  90.767  66.381  1.00  0.00    -0.504 OA
ATOM     23  H   UNL     1      76.453  91.232  65.961  1.00  0.00     0.293 HD
ENDBRANCH  19  22
ENDBRANCH  13  14
ENDBRANCH  11  13
ENDBRANCH   8   9
ENDBRANCH   1   8
TORSDOF 11
ENDMDL
MODEL 9
REMARK VINA RESULT:    -5.346     11.652     14.244
REMARK INTER + INTRA:          -9.443
REMARK INTER:                  -8.823
REMARK INTRA:                  -0.619
REMARK UNBOUND:                -0.815
REMARK SMILES CCCCCCCCC(=O)NCc1ccc(O)c(OC)c1
REMARK SMILES IDX 7 1 6 2 5 3 4 4 3 5 2 6 1 7 8 8 9 9 10 10 11 11 12 13 13 14
REMARK SMILES IDX 21 15 14 16 18 17 15 18 16 19 19 20 20 21 17 22
REMARK H PARENT 11 12 17 23
REMARK Flexibility Score: inf
ROOT
ATOM      1  C   UNL     1      91.128 100.015  70.808  1.00  0.00     0.010 C 
ENDROOT
BRANCH   1   2
ATOM      2  C   UNL     1      92.394 100.435  71.608  1.00  0.00     0.001 C 
BRANCH   2   3
ATOM      3  C   UNL     1      93.397  99.257  71.784  1.00  0.00     0.000 C 
BRANCH   3   4
ATOM      4  C   UNL     1      94.694  99.406  70.939  1.00  0.00    -0.000 C 
BRANCH   4   5
ATOM      5  C   UNL     1      95.643  98.181  71.076  1.00  0.00    -0.000 C 
BRANCH   5   6
ATOM      6  C   UNL     1      95.687  97.314  69.789  1.00  0.00    -0.003 C 
ATOM      7  C   UNL     1      96.927  97.601  68.914  1.00  0.00     0.004 C 
ENDBRANCH   5   6
ENDBRANCH   4   5
ENDBRANCH   3   4
ENDBRANCH   2   3
ENDBRANCH   1   2
BRANCH   1   8
ATOM      8  C   UNL     1      91.401  98.945  69.714  1.00  0.00     0.100 C 
BRANCH   8   9
ATOM      9  C   UNL     1      90.180  98.660  68.921  1.00  0.00     0.220 C 
ATOM     10  O   UNL     1      89.141  98.313  69.532  1.00  0.00    -0.275 OA
ATOM     11  N   UNL     1      90.186  98.802  67.563  1.00  0.00    -0.352 N 
ATOM     12  H   UNL     1      91.094  98.999  67.168  1.00  0.00     0.163 HD
BRANCH  11  13
ATOM     13  C   UNL     1      89.045  98.695  66.707  1.00  0.00     0.151 C 
BRANCH  13  14
ATOM     14  C   UNL     1      88.315  99.977  66.515  1.00  0.00    -0.025 A 
ATOM     15  C   UNL     1      89.020 101.204  66.513  1.00  0.00     0.056 A 
ATOM     16  C   UNL     1      86.913  99.995  66.335  1.00  0.00     0.009 A 
ATOM     17  C   UNL     1      88.343 102.429  66.314  1.00  0.00     0.160 A 
ATOM     18  C   UNL     1      86.233 101.210  66.136  1.00  0.00     0.050 A 
ATOM     19  C   UNL     1      86.941 102.427  66.132  1.00  0.00     0.157 A 
BRANCH  17  20
ATOM     20  O   UNL     1      89.022 103.621  66.355  1.00  0.00    -0.493 OA
ATOM     21  C   UNL     1      89.137 104.188  67.672  1.00  0.00     0.278 C 
ENDBRANCH  17  20
BRANCH  19  22
ATOM     22  O   UNL     1      86.272 103.597  65.967  1.00  0.00    -0.504 OA
ATOM     23  H   UNL     1      86.900 104.302  65.791  1.00  0.00     0.293 HD
ENDBRANCH  19  22
ENDBRANCH  13  14
ENDBRANCH  11  13
ENDBRANCH   8   9
ENDBRANCH   1   8
TORSDOF 11
ENDMDL
MODEL 10
REMARK VINA RESULT:    -5.339      8.013      9.242
REMARK INTER + INTRA:          -9.431
REMARK INTER:                  -8.813
REMARK INTRA:                  -0.618
REMARK UNBOUND:                -0.815
REMARK SMILES CCCCCCCCC(=O)NCc1ccc(O)c(OC)c1
REMARK SMILES IDX 7 1 6 2 5 3 4 4 3 5 2 6 1 7 8 8 9 9 10 10 11 11 12 13 13 14
REMARK SMILES IDX 21 15 14 16 18 17 15 18 16 19 19 20 20 21 17 22
REMARK H PARENT 11 12 17 23
REMARK Flexibility Score: inf
ROOT
ATOM      1  C   UNL     1      90.236  98.595  70.112  1.00  0.00     0.010 C 
ENDROOT
BRANCH   1   2
ATOM      2  C   UNL     1      89.200  98.948  69.007  1.00  0.00     0.001 C 
BRANCH   2   3
ATOM      3  C   UNL     1      89.417  98.115  67.709  1.00  0.00     0.000 C 
BRANCH   3   4
ATOM      4  C   UNL     1      88.893  98.812  66.422  1.00  0.00    -0.000 C 
BRANCH   4   5
ATOM      5  C   UNL     1      89.022 100.361  66.484  1.00  0.00    -0.000 C 
BRANCH   5   6
ATOM      6  C   UNL     1      87.643 101.070  66.564  1.00  0.00    -0.003 C 
ATOM      7  C   UNL     1      86.461 100.119  66.277  1.00  0.00     0.004 C 
ENDBRANCH   5   6
ENDBRANCH   4   5
ENDBRANCH   3   4
ENDBRANCH   2   3
ENDBRANCH   1   2
BRANCH   1   8
ATOM      8  C   UNL     1      90.526  99.761  71.099  1.00  0.00     0.100 C 
BRANCH   8   9
ATOM      9  C   UNL     1      91.979  99.900  71.359  1.00  0.00     0.220 C 
ATOM     10  O   UNL     1      92.605 100.812  70.768  1.00  0.00    -0.275 OA
ATOM     11  N   UNL     1      92.607  99.071  72.244  1.00  0.00    -0.352 N 
ATOM     12  H   UNL     1      92.031  98.321  72.595  1.00  0.00     0.163 HD
BRANCH  11  13
ATOM     13  C   UNL     1      93.964  99.193  72.684  1.00  0.00     0.151 C 
BRANCH  13  14
ATOM     14  C   UNL     1      94.349  98.204  73.726  1.00  0.00    -0.025 A 
ATOM     15  C   UNL     1      95.686  98.136  74.184  1.00  0.00     0.056 A 
ATOM     16  C   UNL     1      93.394  97.316  74.273  1.00  0.00     0.009 A 
ATOM     17  C   UNL     1      96.063  97.213  75.187  1.00  0.00     0.160 A 
ATOM     18  C   UNL     1      93.763  96.396  75.272  1.00  0.00     0.050 A 
ATOM     19  C   UNL     1      95.094  96.336  75.725  1.00  0.00     0.157 A 
BRANCH  17  20
ATOM     20  O   UNL     1      97.369  97.120  75.599  1.00  0.00    -0.493 OA
ATOM     21  C   UNL     1      97.895  98.332  76.167  1.00  0.00     0.278 C 
ENDBRANCH  17  20
BRANCH  19  22
ATOM     22  O   UNL     1      95.446  95.426  76.669  1.00  0.00    -0.504 OA
ATOM     23  H   UNL     1      94.664  94.954  76.965  1.00  0.00     0.293 HD
ENDBRANCH  19  22
ENDBRANCH  13  14
ENDBRANCH  11  13
ENDBRANCH   8   9
ENDBRANCH   1   8
TORSDOF 11
ENDMDL
