MODEL 1
REMARK VINA RESULT:    -7.551      0.000      0.000
REMARK INTER + INTRA:         -14.154
REMARK INTER:                 -12.848
REMARK INTRA:                  -1.305
REMARK UNBOUND:                -1.305
REMARK SMILES C=C(C)[C@]12C[C@@H](C)[C@@]34O[C@](Cc5ccccc5)(O[C@@H]1[C@@H]3C=C(COC(=O)Cc1ccc(O)cc1)C[C@]1(O)C(=O)C(C)=C[C@@H]41)O2
REMARK SMILES IDX 23 1 22 2 21 3 20 4 9 5 8 6 10 7 6 8 18 10 44 11 19 12 5 13
REMARK SMILES IDX 7 14 4 15 11 16 12 17 13 18 17 19 14 20 16 21 15 22 2 23
REMARK SMILES IDX 3 24 1 25 35 26 36 27 43 28 38 29 42 30 39 32 40 33 41 34
REMARK SMILES IDX 37 35 24 37 25 38 26 39 27 40 28 41 29 42 34 43 30 44 33 45
REMARK SMILES IDX 31 46 32 47
REMARK H PARENT 37 36 32 48
REMARK Flexibility Score: 90.00
ROOT
ATOM      1  C   UNL     1      78.108  92.684  90.404  1.00  0.00     0.264 C 
ENDROOT
BRANCH   1   2
ATOM      2  C   UNL     1      78.411  91.262  89.993  1.00  0.00    -0.033 C 
ATOM      3  C   UNL     1      79.168  91.039  88.899  1.00  0.00    -0.015 C 
BRANCH   3   4
ATOM      4  C   UNL     1      79.548  89.722  88.241  1.00  0.00     0.078 C 
ATOM      5  O   UNL     1      81.734  89.051  89.183  1.00  0.00    -0.319 OA
ATOM      6  C   UNL     1      80.329  88.657  89.095  1.00  0.00     0.095 CG0
ATOM      7  C   UNL     1      82.315  89.536  87.958  1.00  0.00     0.289 C 
ATOM      8  C   UNL     1      80.222  87.267  88.342  1.00  0.00     0.023 C 
ATOM      9  G   UNL     1      79.832  88.658  90.570  1.00  0.00     0.000 G0
ATOM     10  O   UNL     1      81.593  90.653  87.449  1.00  0.00    -0.320 OA
ATOM     11  O   UNL     1      82.291  88.557  86.922  1.00  0.00    -0.313 OA
ATOM     12  C   UNL     1      80.406  89.993  86.980  1.00  0.00     0.170 C 
ATOM     13  C   UNL     1      80.186  87.455  86.795  1.00  0.00     0.049 C 
ATOM     14  C   UNL     1      81.302  86.233  88.704  1.00  0.00     0.011 C 
ATOM     15  C   UNL     1      80.971  88.693  86.357  1.00  0.00     0.122 C 
BRANCH   7  16
ATOM     16  C   UNL     1      83.750  89.937  88.239  1.00  0.00     0.135 C 
BRANCH  16  17
ATOM     17  C   UNL     1      84.429  90.504  87.018  1.00  0.00    -0.040 A 
ATOM     18  C   UNL     1      85.277  89.700  86.256  1.00  0.00     0.004 A 
ATOM     19  C   UNL     1      84.210  91.831  86.651  1.00  0.00     0.004 A 
ATOM     20  C   UNL     1      85.905  90.224  85.125  1.00  0.00     0.000 A 
ATOM     21  C   UNL     1      84.838  92.355  85.521  1.00  0.00     0.000 A 
ATOM     22  C   UNL     1      85.685  91.552  84.759  1.00  0.00     0.000 A 
ENDBRANCH  16  17
ENDBRANCH   7  16
BRANCH  15  23
ATOM     23  C   UNL     1      81.102  88.794  84.872  1.00  0.00    -0.046 C 
ATOM     24  C   UNL     1      80.243  87.865  84.067  1.00  0.00     0.042 C 
ATOM     25  C   UNL     1      81.942  89.664  84.292  1.00  0.00     0.010 C 
ENDBRANCH  15  23
ENDBRANCH   3   4
BRANCH   2  26
ATOM     26  C   UNL     1      77.797  90.230  90.921  1.00  0.00     0.078 C 
BRANCH  26  27
ATOM     27  C   UNL     1      78.282  88.789  90.780  1.00  0.00     0.140 C 
ATOM     28  C   UNL     1      79.808  88.704  90.568  1.00  0.00     0.086 CG0
ATOM     29  C   UNL     1      78.085  87.984  92.048  1.00  0.00     0.190 C 
ATOM     30  C   UNL     1      80.233  87.617  91.515  1.00  0.00    -0.010 C 
ATOM     31  G   UNL     1      80.293  88.662  89.089  1.00  0.00     0.000 G0
ATOM     32  O   UNL     1      77.052  87.929  92.699  1.00  0.00    -0.291 OA
ATOM     33  C   UNL     1      79.297  87.211  92.378  1.00  0.00    -0.008 C 
ATOM     34  C   UNL     1      79.382  86.236  93.485  1.00  0.00     0.048 C 
BRANCH  27  35
ATOM     35  O   UNL     1      77.529  88.081  89.810  1.00  0.00    -0.381 OA
ATOM     36  H   UNL     1      77.931  88.234  88.938  1.00  0.00     0.212 HD
ENDBRANCH  27  35
ENDBRANCH  26  27
ENDBRANCH   2  26
ENDBRANCH   1   2
BRANCH   1  37
ATOM     37  O   UNL     1      79.319  93.377  90.615  1.00  0.00    -0.461 OA
BRANCH  37  38
ATOM     38  C   UNL     1      79.241  94.751  90.615  1.00  0.00     0.310 C 
ATOM     39  O   UNL     1      78.230  95.397  90.378  1.00  0.00    -0.252 OA
BRANCH  38  40
ATOM     40  C   UNL     1      80.593  95.332  90.953  1.00  0.00     0.158 C 
BRANCH  40  41
ATOM     41  C   UNL     1      81.482  95.494  89.747  1.00  0.00    -0.037 A 
ATOM     42  C   UNL     1      81.027  96.204  88.636  1.00  0.00     0.008 A 
ATOM     43  C   UNL     1      82.759  94.934  89.741  1.00  0.00     0.008 A 
ATOM     44  C   UNL     1      81.849  96.353  87.519  1.00  0.00     0.046 A 
ATOM     45  C   UNL     1      83.582  95.083  88.625  1.00  0.00     0.046 A 
ATOM     46  C   UNL     1      83.127  95.792  87.513  1.00  0.00     0.115 A 
BRANCH  46  47
ATOM     47  O   UNL     1      83.929  95.937  86.424  1.00  0.00    -0.508 OA
ATOM     48  H   UNL     1      83.387  96.228  85.669  1.00  0.00     0.293 HD
ENDBRANCH  46  47
ENDBRANCH  40  41
ENDBRANCH  38  40
ENDBRANCH  37  38
ENDBRANCH   1  37
TORSDOF 10
ENDMDL
MODEL 2
REMARK VINA RESULT:    -7.067     17.395     23.106
REMARK INTER + INTRA:         -13.330
REMARK INTER:                 -12.898
REMARK INTRA:                  -0.432
REMARK UNBOUND:                -1.305
REMARK SMILES C=C(C)[C@]12C[C@@H](C)[C@@]34O[C@](Cc5ccccc5)(O[C@@H]1[C@@H]3C=C(COC(=O)Cc1ccc(O)cc1)C[C@]1(O)C(=O)C(C)=C[C@@H]41)O2
REMARK SMILES IDX 23 1 22 2 21 3 20 4 9 5 8 6 10 7 6 8 18 10 44 11 19 12 5 13
REMARK SMILES IDX 7 14 4 15 11 16 12 17 13 18 17 19 14 20 16 21 15 22 2 23
REMARK SMILES IDX 3 24 1 25 35 26 36 27 43 28 38 29 42 30 39 32 40 33 41 34
REMARK SMILES IDX 37 35 24 37 25 38 26 39 27 40 28 41 29 42 34 43 30 44 33 45
REMARK SMILES IDX 31 46 32 47
REMARK H PARENT 37 36 32 48
REMARK Flexibility Score: 90.00
ROOT
ATOM      1  C   UNL     1      94.475  96.502  74.173  1.00  0.00     0.264 C 
ENDROOT
BRANCH   1   2
ATOM      2  C   UNL     1      94.748  97.932  73.770  1.00  0.00    -0.033 C 
ATOM      3  C   UNL     1      94.611  98.290  72.476  1.00  0.00    -0.015 C 
BRANCH   3   4
ATOM      4  C   UNL     1      94.895  99.626  71.809  1.00  0.00     0.078 C 
ATOM      5  O   UNL     1      92.765 100.882  71.777  1.00  0.00    -0.319 OA
ATOM      6  C   UNL     1      94.122 100.897  72.320  1.00  0.00     0.095 CG0
ATOM      7  C   UNL     1      92.661 100.504  70.391  1.00  0.00     0.289 C 
ATOM      8  C   UNL     1      94.889 102.174  71.779  1.00  0.00     0.023 C 
ATOM      9  G   UNL     1      93.924 100.840  73.863  1.00  0.00     0.000 G0
ATOM     10  O   UNL     1      93.223  99.214  70.163  1.00  0.00    -0.320 OA
ATOM     11  O   UNL     1      93.372 101.391  69.532  1.00  0.00    -0.313 OA
ATOM     12  C   UNL     1      94.620  99.524  70.288  1.00  0.00     0.170 C 
ATOM     13  C   UNL     1      95.533 101.907  70.385  1.00  0.00     0.049 C 
ATOM     14  C   UNL     1      94.058 103.467  71.718  1.00  0.00     0.011 C 
ATOM     15  C   UNL     1      94.725 100.893  69.573  1.00  0.00     0.122 C 
BRANCH   7  16
ATOM     16  C   UNL     1      91.194 100.499  70.009  1.00  0.00     0.135 C 
BRANCH  16  17
ATOM     17  C   UNL     1      90.899  99.511  68.908  1.00  0.00    -0.040 A 
ATOM     18  C   UNL     1      91.057  99.886  67.575  1.00  0.00     0.004 A 
ATOM     19  C   UNL     1      90.467  98.224  69.226  1.00  0.00     0.004 A 
ATOM     20  C   UNL     1      90.784  98.971  66.556  1.00  0.00     0.000 A 
ATOM     21  C   UNL     1      90.194  97.310  68.207  1.00  0.00     0.000 A 
ATOM     22  C   UNL     1      90.352  97.684  66.873  1.00  0.00     0.000 A 
ENDBRANCH  16  17
ENDBRANCH   7  16
BRANCH  15  23
ATOM     23  C   UNL     1      95.220 100.757  68.170  1.00  0.00    -0.046 C 
ATOM     24  C   UNL     1      96.517 100.025  67.993  1.00  0.00     0.042 C 
ATOM     25  C   UNL     1      94.542 101.260  67.127  1.00  0.00     0.010 C 
ENDBRANCH  15  23
ENDBRANCH   3   4
BRANCH   2  26
ATOM     26  C   UNL     1      95.151  98.814  74.937  1.00  0.00     0.078 C 
BRANCH  26  27
ATOM     27  C   UNL     1      95.132 100.324  74.710  1.00  0.00     0.140 C 
ATOM     28  C   UNL     1      93.916 100.774  73.874  1.00  0.00     0.086 CG0
ATOM     29  C   UNL     1      94.948 101.102  75.995  1.00  0.00     0.190 C 
ATOM     30  C   UNL     1      93.396 101.967  74.626  1.00  0.00    -0.010 C 
ATOM     31  G   UNL     1      94.141 100.879  72.337  1.00  0.00     0.000 G0
ATOM     32  O   UNL     1      95.580 100.925  77.026  1.00  0.00    -0.291 OA
ATOM     33  C   UNL     1      93.935 102.162  75.833  1.00  0.00    -0.008 C 
ATOM     34  C   UNL     1      93.615 103.168  76.867  1.00  0.00     0.048 C 
BRANCH  27  35
ATOM     35  O   UNL     1      96.374 100.789  74.208  1.00  0.00    -0.381 OA
ATOM     36  H   UNL     1      96.590 101.626  74.652  1.00  0.00     0.212 HD
ENDBRANCH  27  35
ENDBRANCH  26  27
ENDBRANCH   2  26
ENDBRANCH   1   2
BRANCH   1  37
ATOM     37  O   UNL     1      95.342  96.141  75.227  1.00  0.00    -0.461 OA
BRANCH  37  38
ATOM     38  C   UNL     1      95.279  94.831  75.645  1.00  0.00     0.310 C 
ATOM     39  O   UNL     1      95.914  93.907  75.157  1.00  0.00    -0.252 OA
BRANCH  38  40
ATOM     40  C   UNL     1      94.307  94.715  76.794  1.00  0.00     0.158 C 
BRANCH  40  41
ATOM     41  C   UNL     1      93.120  93.844  76.475  1.00  0.00    -0.037 A 
ATOM     42  C   UNL     1      92.471  93.148  77.495  1.00  0.00     0.008 A 
ATOM     43  C   UNL     1      92.670  93.732  75.160  1.00  0.00     0.008 A 
ATOM     44  C   UNL     1      91.373  92.339  77.199  1.00  0.00     0.046 A 
ATOM     45  C   UNL     1      91.572  92.925  74.863  1.00  0.00     0.046 A 
ATOM     46  C   UNL     1      90.923  92.228  75.883  1.00  0.00     0.115 A 
BRANCH  46  47
ATOM     47  O   UNL     1      89.852  91.440  75.594  1.00  0.00    -0.508 OA
ATOM     48  H   UNL     1      89.139  91.996  75.235  1.00  0.00     0.293 HD
ENDBRANCH  46  47
ENDBRANCH  40  41
ENDBRANCH  38  40
ENDBRANCH  37  38
ENDBRANCH   1  37
TORSDOF 10
ENDMDL
MODEL 3
REMARK VINA RESULT:    -6.953     16.914     21.441
REMARK INTER + INTRA:         -13.135
REMARK INTER:                 -12.297
REMARK INTRA:                  -0.839
REMARK UNBOUND:                -1.305
REMARK SMILES C=C(C)[C@]12C[C@@H](C)[C@@]34O[C@](Cc5ccccc5)(O[C@@H]1[C@@H]3C=C(COC(=O)Cc1ccc(O)cc1)C[C@]1(O)C(=O)C(C)=C[C@@H]41)O2
REMARK SMILES IDX 23 1 22 2 21 3 20 4 9 5 8 6 10 7 6 8 18 10 44 11 19 12 5 13
REMARK SMILES IDX 7 14 4 15 11 16 12 17 13 18 17 19 14 20 16 21 15 22 2 23
REMARK SMILES IDX 3 24 1 25 35 26 36 27 43 28 38 29 42 30 39 32 40 33 41 34
REMARK SMILES IDX 37 35 24 37 25 38 26 39 27 40 28 41 29 42 34 43 30 44 33 45
REMARK SMILES IDX 31 46 32 47
REMARK H PARENT 37 36 32 48
REMARK Flexibility Score: 90.00
ROOT
ATOM      1  C   UNL     1      93.668  93.817  76.995  1.00  0.00     0.264 C 
ENDROOT
BRANCH   1   2
ATOM      2  C   UNL     1      94.906  94.639  76.721  1.00  0.00    -0.033 C 
ATOM      3  C   UNL     1      95.083  95.176  75.496  1.00  0.00    -0.015 C 
BRANCH   3   4
ATOM      4  C   UNL     1      96.261  95.967  74.950  1.00  0.00     0.078 C 
ATOM      5  O   UNL     1      95.744  98.360  75.297  1.00  0.00    -0.319 OA
ATOM      6  C   UNL     1      96.672  97.298  75.681  1.00  0.00     0.095 CG0
ATOM      7  C   UNL     1      95.400  98.401  73.899  1.00  0.00     0.289 C 
ATOM      8  C   UNL     1      98.132  97.679  75.199  1.00  0.00     0.023 C 
ATOM      9  G   UNL     1      96.490  97.162  77.221  1.00  0.00     0.000 G0
ATOM     10  O   UNL     1      94.832  97.166  73.470  1.00  0.00    -0.320 OA
ATOM     11  O   UNL     1      96.538  98.611  73.066  1.00  0.00    -0.313 OA
ATOM     12  C   UNL     1      96.005  96.337  73.469  1.00  0.00     0.170 C 
ATOM     13  C   UNL     1      98.377  97.250  73.720  1.00  0.00     0.049 C 
ATOM     14  C   UNL     1      98.522  99.157  75.373  1.00  0.00     0.011 C 
ATOM     15  C   UNL     1      97.087  97.288  72.900  1.00  0.00     0.122 C 
BRANCH   7  16
ATOM     16  C   UNL     1      94.405  99.524  73.687  1.00  0.00     0.135 C 
BRANCH  16  17
ATOM     17  C   UNL     1      94.115  99.756  72.225  1.00  0.00    -0.040 A 
ATOM     18  C   UNL     1      93.283  98.878  71.531  1.00  0.00     0.004 A 
ATOM     19  C   UNL     1      94.678 100.849  71.568  1.00  0.00     0.004 A 
ATOM     20  C   UNL     1      93.015  99.092  70.179  1.00  0.00     0.000 A 
ATOM     21  C   UNL     1      94.409 101.064  70.216  1.00  0.00     0.000 A 
ATOM     22  C   UNL     1      93.578 100.186  69.522  1.00  0.00     0.000 A 
ENDBRANCH  16  17
ENDBRANCH   7  16
BRANCH  15  23
ATOM     23  C   UNL     1      97.326  97.058  71.443  1.00  0.00    -0.046 C 
ATOM     24  C   UNL     1      96.981  98.195  70.528  1.00  0.00     0.042 C 
ATOM     25  C   UNL     1      97.821  95.901  70.979  1.00  0.00     0.010 C 
ENDBRANCH  15  23
ENDBRANCH   3   4
BRANCH   2  26
ATOM     26  C   UNL     1      95.821  94.757  77.926  1.00  0.00     0.078 C 
BRANCH  26  27
ATOM     27  C   UNL     1      96.950  95.783  77.846  1.00  0.00     0.140 C 
ATOM     28  C   UNL     1      96.484  97.118  77.229  1.00  0.00     0.086 CG0
ATOM     29  C   UNL     1      97.442  96.211  79.213  1.00  0.00     0.190 C 
ATOM     30  C   UNL     1      97.063  98.152  78.154  1.00  0.00    -0.010 C 
ATOM     31  G   UNL     1      96.685  97.269  75.693  1.00  0.00     0.000 G0
ATOM     32  O   UNL     1      97.737  95.456  80.128  1.00  0.00    -0.291 OA
ATOM     33  C   UNL     1      97.583  97.677  79.290  1.00  0.00    -0.008 C 
ATOM     34  C   UNL     1      98.154  98.395  80.448  1.00  0.00     0.048 C 
BRANCH  27  35
ATOM     35  O   UNL     1      98.103  95.237  77.227  1.00  0.00    -0.381 OA
ATOM     36  H   UNL     1      97.845  94.422  76.763  1.00  0.00     0.212 HD
ENDBRANCH  27  35
ENDBRANCH  26  27
ENDBRANCH   2  26
ENDBRANCH   1   2
BRANCH   1  37
ATOM     37  O   UNL     1      92.553  94.439  76.392  1.00  0.00    -0.461 OA
BRANCH  37  38
ATOM     38  C   UNL     1      91.418  93.670  76.275  1.00  0.00     0.310 C 
ATOM     39  O   UNL     1      90.360  93.887  76.848  1.00  0.00    -0.252 OA
BRANCH  38  40
ATOM     40  C   UNL     1      91.683  92.521  75.331  1.00  0.00     0.158 C 
BRANCH  40  41
ATOM     41  C   UNL     1      90.538  92.260  74.387  1.00  0.00    -0.037 A 
ATOM     42  C   UNL     1      89.755  91.116  74.539  1.00  0.00     0.008 A 
ATOM     43  C   UNL     1      90.261  93.162  73.360  1.00  0.00     0.008 A 
ATOM     44  C   UNL     1      88.696  90.873  73.664  1.00  0.00     0.046 A 
ATOM     45  C   UNL     1      89.201  92.920  72.485  1.00  0.00     0.046 A 
ATOM     46  C   UNL     1      88.419  91.776  72.637  1.00  0.00     0.115 A 
BRANCH  46  47
ATOM     47  O   UNL     1      87.386  91.539  71.784  1.00  0.00    -0.508 OA
ATOM     48  H   UNL     1      87.190  92.355  71.291  1.00  0.00     0.293 HD
ENDBRANCH  46  47
ENDBRANCH  40  41
ENDBRANCH  38  40
ENDBRANCH  37  38
ENDBRANCH   1  37
TORSDOF 10
ENDMDL
MODEL 4
REMARK VINA RESULT:    -6.863     13.453     17.589
REMARK INTER + INTRA:         -12.983
REMARK INTER:                 -12.703
REMARK INTRA:                  -0.279
REMARK UNBOUND:                -1.305
REMARK SMILES C=C(C)[C@]12C[C@@H](C)[C@@]34O[C@](Cc5ccccc5)(O[C@@H]1[C@@H]3C=C(COC(=O)Cc1ccc(O)cc1)C[C@]1(O)C(=O)C(C)=C[C@@H]41)O2
REMARK SMILES IDX 23 1 22 2 21 3 20 4 9 5 8 6 10 7 6 8 18 10 44 11 19 12 5 13
REMARK SMILES IDX 7 14 4 15 11 16 12 17 13 18 17 19 14 20 16 21 15 22 2 23
REMARK SMILES IDX 3 24 1 25 35 26 36 27 43 28 38 29 42 30 39 32 40 33 41 34
REMARK SMILES IDX 37 35 24 37 25 38 26 39 27 40 28 41 29 42 34 43 30 44 33 45
REMARK SMILES IDX 31 46 32 47
REMARK H PARENT 37 36 32 48
REMARK Flexibility Score: 90.00
ROOT
ATOM      1  C   UNL     1      96.372  81.292  84.067  1.00  0.00     0.264 C 
ENDROOT
BRANCH   1   2
ATOM      2  C   UNL     1      95.148  81.826  84.775  1.00  0.00    -0.033 C 
ATOM      3  C   UNL     1      93.990  81.137  84.700  1.00  0.00    -0.015 C 
BRANCH   3   4
ATOM      4  C   UNL     1      92.618  81.492  85.250  1.00  0.00     0.078 C 
ATOM      5  O   UNL     1      92.454  80.469  87.496  1.00  0.00    -0.319 OA
ATOM      6  C   UNL     1      92.475  81.752  86.795  1.00  0.00     0.095 CG0
ATOM      7  C   UNL     1      91.656  79.443  86.876  1.00  0.00     0.289 C 
ATOM      8  C   UNL     1      91.098  82.499  87.030  1.00  0.00     0.023 C 
ATOM      9  G   UNL     1      93.734  82.478  87.353  1.00  0.00     0.000 G0
ATOM     10  O   UNL     1      92.084  79.189  85.541  1.00  0.00    -0.320 OA
ATOM     11  O   UNL     1      90.282  79.810  86.777  1.00  0.00    -0.313 OA
ATOM     12  C   UNL     1      91.604  80.378  84.894  1.00  0.00     0.170 C 
ATOM     13  C   UNL     1      90.017  82.044  86.003  1.00  0.00     0.049 C 
ATOM     14  C   UNL     1      90.524  82.396  88.454  1.00  0.00     0.011 C 
ATOM     15  C   UNL     1      90.226  80.593  85.567  1.00  0.00     0.122 C 
BRANCH   7  16
ATOM     16  C   UNL     1      91.783  78.179  87.704  1.00  0.00     0.135 C 
BRANCH  16  17
ATOM     17  C   UNL     1      90.673  77.199  87.414  1.00  0.00    -0.040 A 
ATOM     18  C   UNL     1      90.740  76.385  86.283  1.00  0.00     0.004 A 
ATOM     19  C   UNL     1      89.582  77.107  88.277  1.00  0.00     0.004 A 
ATOM     20  C   UNL     1      89.714  75.478  86.016  1.00  0.00     0.000 A 
ATOM     21  C   UNL     1      88.556  76.200  88.009  1.00  0.00     0.000 A 
ATOM     22  C   UNL     1      88.622  75.386  86.879  1.00  0.00     0.000 A 
ENDBRANCH  16  17
ENDBRANCH   7  16
BRANCH  15  23
ATOM     23  C   UNL     1      89.103  80.079  84.726  1.00  0.00    -0.046 C 
ATOM     24  C   UNL     1      87.912  80.981  84.589  1.00  0.00     0.042 C 
ATOM     25  C   UNL     1      89.157  78.880  84.127  1.00  0.00     0.010 C 
ENDBRANCH  15  23
ENDBRANCH   3   4
BRANCH   2  26
ATOM     26  C   UNL     1      95.406  83.126  85.514  1.00  0.00     0.078 C 
BRANCH  26  27
ATOM     27  C   UNL     1      94.305  83.630  86.444  1.00  0.00     0.140 C 
ATOM     28  C   UNL     1      93.727  82.506  87.328  1.00  0.00     0.086 CG0
ATOM     29  C   UNL     1      94.820  84.618  87.470  1.00  0.00     0.190 C 
ATOM     30  C   UNL     1      93.678  83.126  88.697  1.00  0.00    -0.010 C 
ATOM     31  G   UNL     1      92.468  81.777  86.775  1.00  0.00     0.000 G0
ATOM     32  O   UNL     1      95.526  85.586  87.229  1.00  0.00    -0.291 OA
ATOM     33  C   UNL     1      94.308  84.299  88.816  1.00  0.00    -0.008 C 
ATOM     34  C   UNL     1      94.531  85.142  90.009  1.00  0.00     0.048 C 
BRANCH  27  35
ATOM     35  O   UNL     1      93.321  84.363  85.734  1.00  0.00    -0.381 OA
ATOM     36  H   UNL     1      93.246  85.245  86.135  1.00  0.00     0.212 HD
ENDBRANCH  27  35
ENDBRANCH  26  27
ENDBRANCH   2  26
ENDBRANCH   1   2
BRANCH   1  37
ATOM     37  O   UNL     1      96.395  81.780  82.743  1.00  0.00    -0.461 OA
BRANCH  37  38
ATOM     38  C   UNL     1      97.638  81.918  82.169  1.00  0.00     0.310 C 
ATOM     39  O   UNL     1      98.436  82.808  82.427  1.00  0.00    -0.252 OA
BRANCH  38  40
ATOM     40  C   UNL     1      97.860  80.804  81.174  1.00  0.00     0.158 C 
BRANCH  40  41
ATOM     41  C   UNL     1      97.548  81.210  79.757  1.00  0.00    -0.037 A 
ATOM     42  C   UNL     1      96.994  82.464  79.497  1.00  0.00     0.008 A 
ATOM     43  C   UNL     1      97.811  80.333  78.706  1.00  0.00     0.008 A 
ATOM     44  C   UNL     1      96.704  82.840  78.185  1.00  0.00     0.046 A 
ATOM     45  C   UNL     1      97.522  80.709  77.393  1.00  0.00     0.046 A 
ATOM     46  C   UNL     1      96.968  81.961  77.133  1.00  0.00     0.115 A 
BRANCH  46  47
ATOM     47  O   UNL     1      96.684  82.328  75.854  1.00  0.00    -0.508 OA
ATOM     48  H   UNL     1      96.112  83.115  75.870  1.00  0.00     0.293 HD
ENDBRANCH  46  47
ENDBRANCH  40  41
ENDBRANCH  38  40
ENDBRANCH  37  38
ENDBRANCH   1  37
TORSDOF 10
ENDMDL
MODEL 5
REMARK VINA RESULT:    -6.680     15.323     21.052
REMARK INTER + INTRA:         -12.672
REMARK INTER:                 -11.911
REMARK INTRA:                  -0.761
REMARK UNBOUND:                -1.305
REMARK SMILES C=C(C)[C@]12C[C@@H](C)[C@@]34O[C@](Cc5ccccc5)(O[C@@H]1[C@@H]3C=C(COC(=O)Cc1ccc(O)cc1)C[C@]1(O)C(=O)C(C)=C[C@@H]41)O2
REMARK SMILES IDX 23 1 22 2 21 3 20 4 9 5 8 6 10 7 6 8 18 10 44 11 19 12 5 13
REMARK SMILES IDX 7 14 4 15 11 16 12 17 13 18 17 19 14 20 16 21 15 22 2 23
REMARK SMILES IDX 3 24 1 25 35 26 36 27 43 28 38 29 42 30 39 32 40 33 41 34
REMARK SMILES IDX 37 35 24 37 25 38 26 39 27 40 28 41 29 42 34 43 30 44 33 45
REMARK SMILES IDX 31 46 32 47
REMARK H PARENT 37 36 32 48
REMARK Flexibility Score: 90.00
ROOT
ATOM      1  C   UNL     1      93.511  93.934  76.734  1.00  0.00     0.264 C 
ENDROOT
BRANCH   1   2
ATOM      2  C   UNL     1      94.815  94.682  76.575  1.00  0.00    -0.033 C 
ATOM      3  C   UNL     1      95.098  95.270  75.395  1.00  0.00    -0.015 C 
BRANCH   3   4
ATOM      4  C   UNL     1      96.355  96.006  74.960  1.00  0.00     0.078 C 
ATOM      5  O   UNL     1      95.984  98.406  75.427  1.00  0.00    -0.319 OA
ATOM      6  C   UNL     1      96.814  97.260  75.791  1.00  0.00     0.095 CG0
ATOM      7  C   UNL     1      95.721  98.552  74.018  1.00  0.00     0.289 C 
ATOM      8  C   UNL     1      98.322  97.563  75.410  1.00  0.00     0.023 C 
ATOM      9  G   UNL     1      96.539  97.048  77.309  1.00  0.00     0.000 G0
ATOM     10  O   UNL     1      95.095  97.388  73.485  1.00  0.00    -0.320 OA
ATOM     11  O   UNL     1      96.915  98.729  73.259  1.00  0.00    -0.313 OA
ATOM     12  C   UNL     1      96.207  96.479  73.493  1.00  0.00     0.170 C 
ATOM     13  C   UNL     1      98.618  97.205  73.921  1.00  0.00     0.049 C 
ATOM     14  C   UNL     1      98.801  98.997  75.694  1.00  0.00     0.011 C 
ATOM     15  C   UNL     1      97.381  97.381  73.039  1.00  0.00     0.122 C 
BRANCH   7  16
ATOM     16  C   UNL     1      94.818  99.754  73.826  1.00  0.00     0.135 C 
BRANCH  16  17
ATOM     17  C   UNL     1      95.160 100.877  74.773  1.00  0.00    -0.040 A 
ATOM     18  C   UNL     1      94.314 101.170  75.842  1.00  0.00     0.004 A 
ATOM     19  C   UNL     1      96.323 101.621  74.579  1.00  0.00     0.004 A 
ATOM     20  C   UNL     1      94.631 102.209  76.718  1.00  0.00     0.000 A 
ATOM     21  C   UNL     1      96.640 102.659  75.455  1.00  0.00     0.000 A 
ATOM     22  C   UNL     1      95.794 102.953  76.524  1.00  0.00     0.000 A 
ENDBRANCH  16  17
ENDBRANCH   7  16
BRANCH  15  23
ATOM     23  C   UNL     1      97.684  97.220  71.585  1.00  0.00    -0.046 C 
ATOM     24  C   UNL     1      97.761  98.484  70.781  1.00  0.00     0.042 C 
ATOM     25  C   UNL     1      97.877  96.014  71.031  1.00  0.00     0.010 C 
ENDBRANCH  15  23
ENDBRANCH   3   4
BRANCH   2  26
ATOM     26  C   UNL     1      95.664  94.672  77.832  1.00  0.00     0.078 C 
BRANCH  26  27
ATOM     27  C   UNL     1      96.864  95.617  77.872  1.00  0.00     0.140 C 
ATOM     28  C   UNL     1      96.526  97.013  77.309  1.00  0.00     0.086 CG0
ATOM     29  C   UNL     1      97.306  95.934  79.285  1.00  0.00     0.190 C 
ATOM     30  C   UNL     1      97.121  97.952  78.321  1.00  0.00    -0.010 C 
ATOM     31  G   UNL     1      96.823  97.232  75.797  1.00  0.00     0.000 G0
ATOM     32  O   UNL     1      97.496  95.112  80.169  1.00  0.00    -0.291 OA
ATOM     33  C   UNL     1      97.542  97.380  79.454  1.00  0.00    -0.008 C 
ATOM     34  C   UNL     1      98.095  97.992  80.680  1.00  0.00     0.048 C 
BRANCH  27  35
ATOM     35  O   UNL     1      98.010  95.024  77.284  1.00  0.00    -0.381 OA
ATOM     36  H   UNL     1      97.990  95.201  76.328  1.00  0.00     0.212 HD
ENDBRANCH  27  35
ENDBRANCH  26  27
ENDBRANCH   2  26
ENDBRANCH   1   2
BRANCH   1  37
ATOM     37  O   UNL     1      92.459  94.716  76.210  1.00  0.00    -0.461 OA
BRANCH  37  38
ATOM     38  C   UNL     1      91.594  94.075  75.354  1.00  0.00     0.310 C 
ATOM     39  O   UNL     1      91.858  93.744  74.206  1.00  0.00    -0.252 OA
BRANCH  38  40
ATOM     40  C   UNL     1      90.274  93.844  76.050  1.00  0.00     0.158 C 
BRANCH  40  41
ATOM     41  C   UNL     1      90.146  92.456  76.622  1.00  0.00    -0.037 A 
ATOM     42  C   UNL     1      89.681  91.412  75.822  1.00  0.00     0.008 A 
ATOM     43  C   UNL     1      90.491  92.215  77.951  1.00  0.00     0.008 A 
ATOM     44  C   UNL     1      89.561  90.127  76.352  1.00  0.00     0.046 A 
ATOM     45  C   UNL     1      90.373  90.930  78.482  1.00  0.00     0.046 A 
ATOM     46  C   UNL     1      89.907  89.886  77.682  1.00  0.00     0.115 A 
BRANCH  46  47
ATOM     47  O   UNL     1      89.790  88.633  78.199  1.00  0.00    -0.508 OA
ATOM     48  H   UNL     1      89.377  88.691  79.078  1.00  0.00     0.293 HD
ENDBRANCH  46  47
ENDBRANCH  40  41
ENDBRANCH  38  40
ENDBRANCH  37  38
ENDBRANCH   1  37
TORSDOF 10
ENDMDL
MODEL 6
REMARK VINA RESULT:    -6.593     19.220     22.913
REMARK INTER + INTRA:         -12.523
REMARK INTER:                 -11.568
REMARK INTRA:                  -0.955
REMARK UNBOUND:                -1.305
REMARK SMILES C=C(C)[C@]12C[C@@H](C)[C@@]34O[C@](Cc5ccccc5)(O[C@@H]1[C@@H]3C=C(COC(=O)Cc1ccc(O)cc1)C[C@]1(O)C(=O)C(C)=C[C@@H]41)O2
REMARK SMILES IDX 23 1 22 2 21 3 20 4 9 5 8 6 10 7 6 8 18 10 44 11 19 12 5 13
REMARK SMILES IDX 7 14 4 15 11 16 12 17 13 18 17 19 14 20 16 21 15 22 2 23
REMARK SMILES IDX 3 24 1 25 35 26 36 27 43 28 38 29 42 30 39 32 40 33 41 34
REMARK SMILES IDX 37 35 24 37 25 38 26 39 27 40 28 41 29 42 34 43 30 44 33 45
REMARK SMILES IDX 31 46 32 47
REMARK H PARENT 37 36 32 48
REMARK Flexibility Score: 90.00
ROOT
ATOM      1  C   UNL     1      67.389  86.840  76.112  1.00  0.00     0.264 C 
ENDROOT
BRANCH   1   2
ATOM      2  C   UNL     1      66.517  86.619  74.898  1.00  0.00    -0.033 C 
ATOM      3  C   UNL     1      65.706  85.541  74.857  1.00  0.00    -0.015 C 
BRANCH   3   4
ATOM      4  C   UNL     1      64.800  85.058  73.735  1.00  0.00     0.078 C 
ATOM      5  O   UNL     1      62.569  86.048  74.134  1.00  0.00    -0.319 OA
ATOM      6  C   UNL     1      63.690  86.034  73.197  1.00  0.00     0.095 CG0
ATOM      7  C   UNL     1      62.185  84.760  74.653  1.00  0.00     0.289 C 
ATOM      8  C   UNL     1      63.197  85.474  71.799  1.00  0.00     0.023 C 
ATOM      9  G   UNL     1      64.204  87.503  73.184  1.00  0.00     0.000 G0
ATOM     10  O   UNL     1      63.276  84.118  75.307  1.00  0.00    -0.320 OA
ATOM     11  O   UNL     1      61.770  83.864  73.625  1.00  0.00    -0.313 OA
ATOM     12  C   UNL     1      64.075  83.760  74.168  1.00  0.00     0.170 C 
ATOM     13  C   UNL     1      63.244  83.916  71.758  1.00  0.00     0.049 C 
ATOM     14  C   UNL     1      61.806  85.954  71.348  1.00  0.00     0.011 C 
ATOM     15  C   UNL     1      63.009  83.306  73.141  1.00  0.00     0.122 C 
BRANCH   7  16
ATOM     16  C   UNL     1      61.047  84.964  75.634  1.00  0.00     0.135 C 
BRANCH  16  17
ATOM     17  C   UNL     1      61.095  86.326  76.281  1.00  0.00    -0.040 A 
ATOM     18  C   UNL     1      61.961  86.561  77.348  1.00  0.00     0.004 A 
ATOM     19  C   UNL     1      60.271  87.349  75.812  1.00  0.00     0.004 A 
ATOM     20  C   UNL     1      62.005  87.821  77.946  1.00  0.00     0.000 A 
ATOM     21  C   UNL     1      60.315  88.609  76.410  1.00  0.00     0.000 A 
ATOM     22  C   UNL     1      61.182  88.844  77.477  1.00  0.00     0.000 A 
ENDBRANCH  16  17
ENDBRANCH   7  16
BRANCH  15  23
ATOM     23  C   UNL     1      62.870  81.819  73.096  1.00  0.00    -0.046 C 
ATOM     24  C   UNL     1      61.476  81.290  72.925  1.00  0.00     0.042 C 
ATOM     25  C   UNL     1      63.929  81.004  73.202  1.00  0.00     0.010 C 
ENDBRANCH  15  23
ENDBRANCH   3   4
BRANCH   2  26
ATOM     26  C   UNL     1      66.677  87.699  73.845  1.00  0.00     0.078 C 
BRANCH  26  27
ATOM     27  C   UNL     1      65.674  87.705  72.693  1.00  0.00     0.140 C 
ATOM     28  C   UNL     1      64.224  87.503  73.181  1.00  0.00     0.086 CG0
ATOM     29  C   UNL     1      65.598  89.048  71.997  1.00  0.00     0.190 C 
ATOM     30  C   UNL     1      63.454  88.556  72.434  1.00  0.00    -0.010 C 
ATOM     31  G   UNL     1      63.702  86.037  73.191  1.00  0.00     0.000 G0
ATOM     32  O   UNL     1      66.557  89.700  71.611  1.00  0.00    -0.291 OA
ATOM     33  C   UNL     1      64.197  89.455  71.782  1.00  0.00    -0.008 C 
ATOM     34  C   UNL     1      63.790  90.656  71.024  1.00  0.00     0.048 C 
BRANCH  27  35
ATOM     35  O   UNL     1      66.061  86.811  71.663  1.00  0.00    -0.381 OA
ATOM     36  H   UNL     1      66.903  87.121  71.289  1.00  0.00     0.212 HD
ENDBRANCH  27  35
ENDBRANCH  26  27
ENDBRANCH   2  26
ENDBRANCH   1   2
BRANCH   1  37
ATOM     37  O   UNL     1      66.789  86.230  77.235  1.00  0.00    -0.461 OA
BRANCH  37  38
ATOM     38  C   UNL     1      66.329  87.080  78.214  1.00  0.00     0.310 C 
ATOM     39  O   UNL     1      66.689  88.239  78.365  1.00  0.00    -0.252 OA
BRANCH  38  40
ATOM     40  C   UNL     1      65.314  86.360  79.070  1.00  0.00     0.158 C 
BRANCH  40  41
ATOM     41  C   UNL     1      65.883  85.881  80.380  1.00  0.00    -0.037 A 
ATOM     42  C   UNL     1      67.082  85.168  80.401  1.00  0.00     0.008 A 
ATOM     43  C   UNL     1      65.212  86.151  81.572  1.00  0.00     0.008 A 
ATOM     44  C   UNL     1      67.609  84.724  81.614  1.00  0.00     0.046 A 
ATOM     45  C   UNL     1      65.739  85.708  82.786  1.00  0.00     0.046 A 
ATOM     46  C   UNL     1      66.936  84.994  82.807  1.00  0.00     0.115 A 
BRANCH  46  47
ATOM     47  O   UNL     1      67.450  84.561  83.990  1.00  0.00    -0.508 OA
ATOM     48  H   UNL     1      67.573  85.325  84.580  1.00  0.00     0.293 HD
ENDBRANCH  46  47
ENDBRANCH  40  41
ENDBRANCH  38  40
ENDBRANCH  37  38
ENDBRANCH   1  37
TORSDOF 10
ENDMDL
MODEL 7
REMARK VINA RESULT:    -6.580     21.449     24.828
REMARK INTER + INTRA:         -12.501
REMARK INTER:                 -12.464
REMARK INTRA:                  -0.037
REMARK UNBOUND:                -1.305
REMARK SMILES C=C(C)[C@]12C[C@@H](C)[C@@]34O[C@](Cc5ccccc5)(O[C@@H]1[C@@H]3C=C(COC(=O)Cc1ccc(O)cc1)C[C@]1(O)C(=O)C(C)=C[C@@H]41)O2
REMARK SMILES IDX 23 1 22 2 21 3 20 4 9 5 8 6 10 7 6 8 18 10 44 11 19 12 5 13
REMARK SMILES IDX 7 14 4 15 11 16 12 17 13 18 17 19 14 20 16 21 15 22 2 23
REMARK SMILES IDX 3 24 1 25 35 26 36 27 43 28 38 29 42 30 39 32 40 33 41 34
REMARK SMILES IDX 37 35 24 37 25 38 26 39 27 40 28 41 29 42 34 43 30 44 33 45
REMARK SMILES IDX 31 46 32 47
REMARK H PARENT 37 36 32 48
REMARK Flexibility Score: 90.00
ROOT
ATOM      1  C   UNL     1      64.219  88.380  74.597  1.00  0.00     0.264 C 
ENDROOT
BRANCH   1   2
ATOM      2  C   UNL     1      63.124  87.901  73.671  1.00  0.00    -0.033 C 
ATOM      3  C   UNL     1      63.298  86.754  72.982  1.00  0.00    -0.015 C 
BRANCH   3   4
ATOM      4  C   UNL     1      62.396  86.105  71.945  1.00  0.00     0.078 C 
ATOM      5  O   UNL     1      60.907  84.548  73.158  1.00  0.00    -0.319 OA
ATOM      6  C   UNL     1      60.914  85.765  72.349  1.00  0.00     0.095 CG0
ATOM      7  C   UNL     1      61.770  83.494  72.692  1.00  0.00     0.289 C 
ATOM      8  C   UNL     1      60.099  85.512  71.015  1.00  0.00     0.023 C 
ATOM      9  G   UNL     1      60.333  86.860  73.290  1.00  0.00     0.000 G0
ATOM     10  O   UNL     1      63.122  83.934  72.600  1.00  0.00    -0.320 OA
ATOM     11  O   UNL     1      61.422  83.046  71.383  1.00  0.00    -0.313 OA
ATOM     12  C   UNL     1      63.032  84.784  71.447  1.00  0.00     0.170 C 
ATOM     13  C   UNL     1      60.992  84.866  69.912  1.00  0.00     0.049 C 
ATOM     14  C   UNL     1      58.810  84.687  71.174  1.00  0.00     0.011 C 
ATOM     15  C   UNL     1      62.088  83.986  70.515  1.00  0.00     0.122 C 
BRANCH   7  16
ATOM     16  C   UNL     1      61.673  82.334  73.664  1.00  0.00     0.135 C 
BRANCH  16  17
ATOM     17  C   UNL     1      63.018  81.709  73.936  1.00  0.00    -0.040 A 
ATOM     18  C   UNL     1      63.619  81.863  75.184  1.00  0.00     0.004 A 
ATOM     19  C   UNL     1      63.659  80.976  72.938  1.00  0.00     0.004 A 
ATOM     20  C   UNL     1      64.863  81.283  75.436  1.00  0.00     0.000 A 
ATOM     21  C   UNL     1      64.903  80.396  73.190  1.00  0.00     0.000 A 
ATOM     22  C   UNL     1      65.505  80.550  74.438  1.00  0.00     0.000 A 
ENDBRANCH  16  17
ENDBRANCH   7  16
BRANCH  15  23
ATOM     23  C   UNL     1      62.841  83.216  69.479  1.00  0.00    -0.046 C 
ATOM     24  C   UNL     1      62.563  81.743  69.417  1.00  0.00     0.042 C 
ATOM     25  C   UNL     1      63.715  83.808  68.651  1.00  0.00     0.010 C 
ENDBRANCH  15  23
ENDBRANCH   3   4
BRANCH   2  26
ATOM     26  C   UNL     1      61.917  88.820  73.651  1.00  0.00     0.078 C 
BRANCH  26  27
ATOM     27  C   UNL     1      60.680  88.331  72.899  1.00  0.00     0.140 C 
ATOM     28  C   UNL     1      60.314  86.877  73.260  1.00  0.00     0.086 CG0
ATOM     29  C   UNL     1      59.428  89.088  73.288  1.00  0.00     0.190 C 
ATOM     30  C   UNL     1      58.829  86.935  73.484  1.00  0.00    -0.010 C 
ATOM     31  G   UNL     1      60.905  85.772  72.337  1.00  0.00     0.000 G0
ATOM     32  O   UNL     1      59.326  90.304  73.349  1.00  0.00    -0.291 OA
ATOM     33  C   UNL     1      58.305  88.164  73.533  1.00  0.00    -0.008 C 
ATOM     34  C   UNL     1      56.921  88.598  73.813  1.00  0.00     0.048 C 
BRANCH  27  35
ATOM     35  O   UNL     1      60.796  88.563  71.505  1.00  0.00    -0.381 OA
ATOM     36  H   UNL     1      60.735  89.521  71.348  1.00  0.00     0.212 HD
ENDBRANCH  27  35
ENDBRANCH  26  27
ENDBRANCH   2  26
ENDBRANCH   1   2
BRANCH   1  37
ATOM     37  O   UNL     1      63.805  88.210  75.936  1.00  0.00    -0.461 OA
BRANCH  37  38
ATOM     38  C   UNL     1      63.232  86.998  76.246  1.00  0.00     0.310 C 
ATOM     39  O   UNL     1      62.041  86.738  76.144  1.00  0.00    -0.252 OA
BRANCH  38  40
ATOM     40  C   UNL     1      64.299  86.045  76.728  1.00  0.00     0.158 C 
BRANCH  40  41
ATOM     41  C   UNL     1      64.850  86.416  78.080  1.00  0.00    -0.037 A 
ATOM     42  C   UNL     1      66.165  86.087  78.412  1.00  0.00     0.008 A 
ATOM     43  C   UNL     1      64.047  87.088  79.001  1.00  0.00     0.008 A 
ATOM     44  C   UNL     1      66.675  86.430  79.664  1.00  0.00     0.046 A 
ATOM     45  C   UNL     1      64.557  87.431  80.254  1.00  0.00     0.046 A 
ATOM     46  C   UNL     1      65.871  87.102  80.585  1.00  0.00     0.115 A 
BRANCH  46  47
ATOM     47  O   UNL     1      66.369  87.435  81.807  1.00  0.00    -0.508 OA
ATOM     48  H   UNL     1      65.842  86.992  82.494  1.00  0.00     0.293 HD
ENDBRANCH  46  47
ENDBRANCH  40  41
ENDBRANCH  38  40
ENDBRANCH  37  38
ENDBRANCH   1  37
TORSDOF 10
ENDMDL
MODEL 8
REMARK VINA RESULT:    -6.527     12.848     16.053
REMARK INTER + INTRA:         -12.411
REMARK INTER:                 -11.825
REMARK INTRA:                  -0.586
REMARK UNBOUND:                -1.305
REMARK SMILES C=C(C)[C@]12C[C@@H](C)[C@@]34O[C@](Cc5ccccc5)(O[C@@H]1[C@@H]3C=C(COC(=O)Cc1ccc(O)cc1)C[C@]1(O)C(=O)C(C)=C[C@@H]41)O2
REMARK SMILES IDX 23 1 22 2 21 3 20 4 9 5 8 6 10 7 6 8 18 10 44 11 19 12 5 13
REMARK SMILES IDX 7 14 4 15 11 16 12 17 13 18 17 19 14 20 16 21 15 22 2 23
REMARK SMILES IDX 3 24 1 25 35 26 36 27 43 28 38 29 42 30 39 32 40 33 41 34
REMARK SMILES IDX 37 35 24 37 25 38 26 39 27 40 28 41 29 42 34 43 30 44 33 45
REMARK SMILES IDX 31 46 32 47
REMARK H PARENT 37 36 32 48
REMARK Flexibility Score: 90.00
ROOT
ATOM      1  C   UNL     1      92.987  85.803  88.103  1.00  0.00     0.264 C 
ENDROOT
BRANCH   1   2
ATOM      2  C   UNL     1      93.130  84.561  87.255  1.00  0.00    -0.033 C 
ATOM      3  C   UNL     1      94.322  84.283  86.689  1.00  0.00    -0.015 C 
BRANCH   3   4
ATOM      4  C   UNL     1      94.702  83.154  85.744  1.00  0.00     0.078 C 
ATOM      5  O   UNL     1      95.522  81.288  87.144  1.00  0.00    -0.319 OA
ATOM      6  C   UNL     1      94.462  81.672  86.214  1.00  0.00     0.095 CG0
ATOM      7  C   UNL     1      96.850  81.703  86.771  1.00  0.00     0.289 C 
ATOM      8  C   UNL     1      94.531  80.745  84.930  1.00  0.00     0.023 C 
ATOM      9  G   UNL     1      93.153  81.562  87.049  1.00  0.00     0.000 G0
ATOM     10  O   UNL     1      96.923  83.116  86.605  1.00  0.00    -0.320 OA
ATOM     11  O   UNL     1      97.261  81.147  85.524  1.00  0.00    -0.313 OA
ATOM     12  C   UNL     1      96.202  83.262  85.372  1.00  0.00     0.170 C 
ATOM     13  C   UNL     1      95.545  81.295  83.881  1.00  0.00     0.049 C 
ATOM     14  C   UNL     1      94.832  79.261  85.202  1.00  0.00     0.011 C 
ATOM     15  C   UNL     1      96.697  82.048  84.548  1.00  0.00     0.122 C 
BRANCH   7  16
ATOM     16  C   UNL     1      97.808  81.263  87.859  1.00  0.00     0.135 C 
BRANCH  16  17
ATOM     17  C   UNL     1      99.238  81.238  87.379  1.00  0.00    -0.040 A 
ATOM     18  C   UNL     1      99.790  80.054  86.891  1.00  0.00     0.004 A 
ATOM     19  C   UNL     1     100.008  82.400  87.423  1.00  0.00     0.004 A 
ATOM     20  C   UNL     1     101.112  80.032  86.446  1.00  0.00     0.000 A 
ATOM     21  C   UNL     1     101.330  82.378  86.978  1.00  0.00     0.000 A 
ATOM     22  C   UNL     1     101.881  81.194  86.490  1.00  0.00     0.000 A 
ENDBRANCH  16  17
ENDBRANCH   7  16
BRANCH  15  23
ATOM     23  C   UNL     1      97.772  82.426  83.581  1.00  0.00    -0.046 C 
ATOM     24  C   UNL     1      97.571  83.715  82.840  1.00  0.00     0.042 C 
ATOM     25  C   UNL     1      98.853  81.658  83.387  1.00  0.00     0.010 C 
ENDBRANCH  15  23
ENDBRANCH   3   4
BRANCH   2  26
ATOM     26  C   UNL     1      91.848  83.754  87.159  1.00  0.00     0.078 C 
BRANCH  26  27
ATOM     27  C   UNL     1      91.942  82.368  86.524  1.00  0.00     0.140 C 
ATOM     28  C   UNL     1      93.152  81.567  87.047  1.00  0.00     0.086 CG0
ATOM     29  C   UNL     1      90.776  81.478  86.900  1.00  0.00     0.190 C 
ATOM     30  C   UNL     1      92.574  80.210  87.340  1.00  0.00    -0.010 C 
ATOM     31  G   UNL     1      94.460  81.675  86.210  1.00  0.00     0.000 G0
ATOM     32  O   UNL     1      89.597  81.794  86.845  1.00  0.00    -0.291 OA
ATOM     33  C   UNL     1      91.241  80.134  87.294  1.00  0.00    -0.008 C 
ATOM     34  C   UNL     1      90.341  79.003  87.599  1.00  0.00     0.048 C 
BRANCH  27  35
ATOM     35  O   UNL     1      91.871  82.440  85.110  1.00  0.00    -0.381 OA
ATOM     36  H   UNL     1      91.166  83.065  84.870  1.00  0.00     0.212 HD
ENDBRANCH  27  35
ENDBRANCH  26  27
ENDBRANCH   2  26
ENDBRANCH   1   2
BRANCH   1  37
ATOM     37  O   UNL     1      94.185  86.022  88.816  1.00  0.00    -0.461 OA
BRANCH  37  38
ATOM     38  C   UNL     1      94.243  87.171  89.570  1.00  0.00     0.310 C 
ATOM     39  O   UNL     1      94.010  87.237  90.769  1.00  0.00    -0.252 OA
BRANCH  38  40
ATOM     40  C   UNL     1      94.637  88.333  88.689  1.00  0.00     0.158 C 
BRANCH  40  41
ATOM     41  C   UNL     1      93.925  89.611  89.048  1.00  0.00    -0.037 A 
ATOM     42  C   UNL     1      94.659  90.742  89.405  1.00  0.00     0.008 A 
ATOM     43  C   UNL     1      92.531  89.664  89.024  1.00  0.00     0.008 A 
ATOM     44  C   UNL     1      94.000  91.926  89.739  1.00  0.00     0.046 A 
ATOM     45  C   UNL     1      91.872  90.848  89.357  1.00  0.00     0.046 A 
ATOM     46  C   UNL     1      92.606  91.978  89.715  1.00  0.00     0.115 A 
BRANCH  46  47
ATOM     47  O   UNL     1      91.963  93.132  90.040  1.00  0.00    -0.508 OA
ATOM     48  H   UNL     1      91.093  92.914  90.417  1.00  0.00     0.293 HD
ENDBRANCH  46  47
ENDBRANCH  40  41
ENDBRANCH  38  40
ENDBRANCH  37  38
ENDBRANCH   1  37
TORSDOF 10
ENDMDL
MODEL 9
REMARK VINA RESULT:    -6.454     18.990     24.476
REMARK INTER + INTRA:         -12.287
REMARK INTER:                 -12.283
REMARK INTRA:                  -0.004
REMARK UNBOUND:                -1.305
REMARK SMILES C=C(C)[C@]12C[C@@H](C)[C@@]34O[C@](Cc5ccccc5)(O[C@@H]1[C@@H]3C=C(COC(=O)Cc1ccc(O)cc1)C[C@]1(O)C(=O)C(C)=C[C@@H]41)O2
REMARK SMILES IDX 23 1 22 2 21 3 20 4 9 5 8 6 10 7 6 8 18 10 44 11 19 12 5 13
REMARK SMILES IDX 7 14 4 15 11 16 12 17 13 18 17 19 14 20 16 21 15 22 2 23
REMARK SMILES IDX 3 24 1 25 35 26 36 27 43 28 38 29 42 30 39 32 40 33 41 34
REMARK SMILES IDX 37 35 24 37 25 38 26 39 27 40 28 41 29 42 34 43 30 44 33 45
REMARK SMILES IDX 31 46 32 47
REMARK H PARENT 37 36 32 48
REMARK Flexibility Score: 90.00
ROOT
ATOM      1  C   UNL     1      94.431  98.353  71.771  1.00  0.00     0.264 C 
ENDROOT
BRANCH   1   2
ATOM      2  C   UNL     1      93.972  99.764  71.484  1.00  0.00    -0.033 C 
ATOM      3  C   UNL     1      94.019 100.228  70.219  1.00  0.00    -0.015 C 
BRANCH   3   4
ATOM      4  C   UNL     1      93.691 101.614  69.686  1.00  0.00     0.078 C 
ATOM      5  O   UNL     1      91.314 101.580  69.005  1.00  0.00    -0.319 OA
ATOM      6  C   UNL     1      92.251 102.194  69.944  1.00  0.00     0.095 CG0
ATOM      7  C   UNL     1      91.792 101.455  67.652  1.00  0.00     0.289 C 
ATOM      8  C   UNL     1      92.309 103.755  69.682  1.00  0.00     0.023 C 
ATOM      9  G   UNL     1      91.727 101.770  71.347  1.00  0.00     0.000 G0
ATOM     10  O   UNL     1      93.000 100.701  67.597  1.00  0.00    -0.320 OA
ATOM     11  O   UNL     1      92.099 102.717  67.065  1.00  0.00    -0.313 OA
ATOM     12  C   UNL     1      93.917 101.656  68.155  1.00  0.00     0.170 C 
ATOM     13  C   UNL     1      93.327 104.109  68.555  1.00  0.00     0.049 C 
ATOM     14  C   UNL     1      90.958 104.425  69.377  1.00  0.00     0.011 C 
ATOM     15  C   UNL     1      93.441 102.987  67.522  1.00  0.00     0.122 C 
BRANCH   7  16
ATOM     16  C   UNL     1      90.720 100.765  66.831  1.00  0.00     0.135 C 
BRANCH  16  17
ATOM     17  C   UNL     1      90.510  99.335  67.262  1.00  0.00    -0.040 A 
ATOM     18  C   UNL     1      90.331  98.337  66.305  1.00  0.00     0.004 A 
ATOM     19  C   UNL     1      90.495  99.012  68.619  1.00  0.00     0.004 A 
ATOM     20  C   UNL     1      90.137  97.014  66.704  1.00  0.00     0.000 A 
ATOM     21  C   UNL     1      90.301  97.688  69.018  1.00  0.00     0.000 A 
ATOM     22  C   UNL     1      90.122  96.691  68.061  1.00  0.00     0.000 A 
ENDBRANCH  16  17
ENDBRANCH   7  16
BRANCH  15  23
ATOM     23  C   UNL     1      94.270 103.375  66.341  1.00  0.00    -0.046 C 
ATOM     24  C   UNL     1      95.751 103.186  66.482  1.00  0.00     0.042 C 
ATOM     25  C   UNL     1      93.722 103.865  65.220  1.00  0.00     0.010 C 
ENDBRANCH  15  23
ENDBRANCH   3   4
BRANCH   2  26
ATOM     26  C   UNL     1      93.489 100.496  72.723  1.00  0.00     0.078 C 
BRANCH  26  27
ATOM     27  C   UNL     1      92.766 101.825  72.510  1.00  0.00     0.140 C 
ATOM     28  C   UNL     1      91.741 101.754  71.359  1.00  0.00     0.086 CG0
ATOM     29  C   UNL     1      91.901 102.209  73.692  1.00  0.00     0.190 C 
ATOM     30  C   UNL     1      90.521 102.417  71.936  1.00  0.00    -0.010 C 
ATOM     31  G   UNL     1      92.256 102.189  69.956  1.00  0.00     0.000 G0
ATOM     32  O   UNL     1      92.257 102.203  74.861  1.00  0.00    -0.291 OA
ATOM     33  C   UNL     1      90.568 102.659  73.249  1.00  0.00    -0.008 C 
ATOM     34  C   UNL     1      89.538 103.214  74.151  1.00  0.00     0.048 C 
BRANCH  27  35
ATOM     35  O   UNL     1      93.682 102.901  72.397  1.00  0.00    -0.381 OA
ATOM     36  H   UNL     1      93.214 103.662  72.014  1.00  0.00     0.212 HD
ENDBRANCH  27  35
ENDBRANCH  26  27
ENDBRANCH   2  26
ENDBRANCH   1   2
BRANCH   1  37
ATOM     37  O   UNL     1      95.374  98.374  72.822  1.00  0.00    -0.461 OA
BRANCH  37  38
ATOM     38  C   UNL     1      96.262  97.324  72.862  1.00  0.00     0.310 C 
ATOM     39  O   UNL     1      96.746  96.775  71.882  1.00  0.00    -0.252 OA
BRANCH  38  40
ATOM     40  C   UNL     1      96.543  96.957  74.299  1.00  0.00     0.158 C 
BRANCH  40  41
ATOM     41  C   UNL     1      95.585  95.928  74.842  1.00  0.00    -0.037 A 
ATOM     42  C   UNL     1      94.209  96.146  74.762  1.00  0.00     0.008 A 
ATOM     43  C   UNL     1      96.073  94.759  75.424  1.00  0.00     0.008 A 
ATOM     44  C   UNL     1      93.322  95.194  75.265  1.00  0.00     0.046 A 
ATOM     45  C   UNL     1      95.186  93.806  75.926  1.00  0.00     0.046 A 
ATOM     46  C   UNL     1      93.811  94.024  75.848  1.00  0.00     0.115 A 
BRANCH  46  47
ATOM     47  O   UNL     1      92.945  93.096  76.338  1.00  0.00    -0.508 OA
ATOM     48  H   UNL     1      92.570  93.425  77.174  1.00  0.00     0.293 HD
ENDBRANCH  46  47
ENDBRANCH  40  41
ENDBRANCH  38  40
ENDBRANCH  37  38
ENDBRANCH   1  37
TORSDOF 10
ENDMDL
MODEL 10
REMARK VINA RESULT:    -6.325     17.713     23.055
REMARK INTER + INTRA:         -12.067
REMARK INTER:                 -12.045
REMARK INTRA:                  -0.023
REMARK UNBOUND:                -1.305
REMARK SMILES C=C(C)[C@]12C[C@@H](C)[C@@]34O[C@](Cc5ccccc5)(O[C@@H]1[C@@H]3C=C(COC(=O)Cc1ccc(O)cc1)C[C@]1(O)C(=O)C(C)=C[C@@H]41)O2
REMARK SMILES IDX 23 1 22 2 21 3 20 4 9 5 8 6 10 7 6 8 18 10 44 11 19 12 5 13
REMARK SMILES IDX 7 14 4 15 11 16 12 17 13 18 17 19 14 20 16 21 15 22 2 23
REMARK SMILES IDX 3 24 1 25 35 26 36 27 43 28 38 29 42 30 39 32 40 33 41 34
REMARK SMILES IDX 37 35 24 37 25 38 26 39 27 40 28 41 29 42 34 43 30 44 33 45
REMARK SMILES IDX 31 46 32 47
REMARK H PARENT 37 36 32 48
REMARK Flexibility Score: 90.00
ROOT
ATOM      1  C   UNL     1      95.102  96.869  74.178  1.00  0.00     0.264 C 
ENDROOT
BRANCH   1   2
ATOM      2  C   UNL     1      94.913  98.311  73.770  1.00  0.00    -0.033 C 
ATOM      3  C   UNL     1      94.652  98.602  72.478  1.00  0.00    -0.015 C 
BRANCH   3   4
ATOM      4  C   UNL     1      94.499  99.957  71.806  1.00  0.00     0.078 C 
ATOM      5  O   UNL     1      92.090 100.514  71.849  1.00  0.00    -0.319 OA
ATOM      6  C   UNL     1      93.396 100.940  72.346  1.00  0.00     0.095 CG0
ATOM      7  C   UNL     1      92.059 100.111  70.467  1.00  0.00     0.289 C 
ATOM      8  C   UNL     1      93.725 102.384  71.784  1.00  0.00     0.023 C 
ATOM      9  G   UNL     1      93.275 100.837  73.895  1.00  0.00     0.000 G0
ATOM     10  O   UNL     1      92.975  99.049  70.216  1.00  0.00    -0.320 OA
ATOM     11  O   UNL     1      92.441 101.165  69.586  1.00  0.00    -0.313 OA
ATOM     12  C   UNL     1      94.217  99.765  70.295  1.00  0.00     0.170 C 
ATOM     13  C   UNL     1      94.373 102.313  70.368  1.00  0.00     0.049 C 
ATOM     14  C   UNL     1      92.541 103.367  71.754  1.00  0.00     0.011 C 
ATOM     15  C   UNL     1      93.882 101.097  69.581  1.00  0.00     0.122 C 
BRANCH   7  16
ATOM     16  C   UNL     1      90.649  99.662  70.134  1.00  0.00     0.135 C 
BRANCH  16  17
ATOM     17  C   UNL     1      90.567  99.014  68.775  1.00  0.00    -0.040 A 
ATOM     18  C   UNL     1      90.599  99.801  67.624  1.00  0.00     0.004 A 
ATOM     19  C   UNL     1      90.459  97.628  68.670  1.00  0.00     0.004 A 
ATOM     20  C   UNL     1      90.523  99.201  66.366  1.00  0.00     0.000 A 
ATOM     21  C   UNL     1      90.384  97.028  67.413  1.00  0.00     0.000 A 
ATOM     22  C   UNL     1      90.416  97.814  66.262  1.00  0.00     0.000 A 
ENDBRANCH  16  17
ENDBRANCH   7  16
BRANCH  15  23
ATOM     23  C   UNL     1      94.348 101.106  68.161  1.00  0.00    -0.046 C 
ATOM     24  C   UNL     1      95.758 100.653  67.925  1.00  0.00     0.042 C 
ATOM     25  C   UNL     1      93.551 101.497  67.156  1.00  0.00     0.010 C 
ENDBRANCH  15  23
ENDBRANCH   3   4
BRANCH   2  26
ATOM     26  C   UNL     1      95.041  99.281  74.930  1.00  0.00     0.078 C 
BRANCH  26  27
ATOM     27  C   UNL     1      94.609 100.725  74.683  1.00  0.00     0.140 C 
ATOM     28  C   UNL     1      93.286 100.812  73.895  1.00  0.00     0.086 CG0
ATOM     29  C   UNL     1      94.272 101.456  75.965  1.00  0.00     0.190 C 
ATOM     30  C   UNL     1      92.494 101.841  74.653  1.00  0.00    -0.010 C 
ATOM     31  G   UNL     1      93.416 100.936  72.349  1.00  0.00     0.000 G0
ATOM     32  O   UNL     1      94.967 101.480  76.970  1.00  0.00    -0.291 OA
ATOM     33  C   UNL     1      93.006 102.202  75.833  1.00  0.00    -0.008 C 
ATOM     34  C   UNL     1      92.468 103.111  76.866  1.00  0.00     0.048 C 
BRANCH  27  35
ATOM     35  O   UNL     1      95.661 101.492  74.122  1.00  0.00    -0.381 OA
ATOM     36  H   UNL     1      95.564 102.412  74.423  1.00  0.00     0.212 HD
ENDBRANCH  27  35
ENDBRANCH  26  27
ENDBRANCH   2  26
ENDBRANCH   1   2
BRANCH   1  37
ATOM     37  O   UNL     1      96.360  96.721  74.801  1.00  0.00    -0.461 OA
BRANCH  37  38
ATOM     38  C   UNL     1      96.430  95.797  75.818  1.00  0.00     0.310 C 
ATOM     39  O   UNL     1      96.311  94.588  75.678  1.00  0.00    -0.252 OA
BRANCH  38  40
ATOM     40  C   UNL     1      96.677  96.507  77.127  1.00  0.00     0.158 C 
BRANCH  40  41
ATOM     41  C   UNL     1      96.374  95.649  78.328  1.00  0.00    -0.037 A 
ATOM     42  C   UNL     1      97.255  95.625  79.409  1.00  0.00     0.008 A 
ATOM     43  C   UNL     1      95.213  94.877  78.359  1.00  0.00     0.008 A 
ATOM     44  C   UNL     1      96.976  94.829  80.520  1.00  0.00     0.046 A 
ATOM     45  C   UNL     1      94.933  94.081  79.470  1.00  0.00     0.046 A 
ATOM     46  C   UNL     1      95.814  94.057  80.550  1.00  0.00     0.115 A 
BRANCH  46  47
ATOM     47  O   UNL     1      95.541  93.281  81.634  1.00  0.00    -0.508 OA
ATOM     48  H   UNL     1      94.779  92.711  81.431  1.00  0.00     0.293 HD
ENDBRANCH  46  47
ENDBRANCH  40  41
ENDBRANCH  38  40
ENDBRANCH  37  38
ENDBRANCH   1  37
TORSDOF 10
ENDMDL
