MODEL 1
REMARK VINA RESULT:    -6.177      0.000      0.000
REMARK INTER + INTRA:         -10.441
REMARK INTER:                  -9.969
REMARK INTRA:                  -0.472
REMARK UNBOUND:                -0.472
REMARK SMILES COc1cc(CNC(=O)CCCCCCC(C)C)ccc1O
REMARK SMILES IDX 11 1 10 2 8 3 7 4 9 6 6 7 5 8 3 9 21 10 4 11 20 12 19 13
REMARK SMILES IDX 2 14 1 15 22 16 12 18 13 19 14 20 15 21 16 22 17 23 18 24
REMARK H PARENT 7 5 22 17
REMARK Flexibility Score: inf
ROOT
ATOM      1  C   UNL     1      93.149  99.431  71.491  1.00  0.00     0.010 C 
ENDROOT
BRANCH   1   2
ATOM      2  C   UNL     1      92.948  99.075  72.990  1.00  0.00     0.100 C 
BRANCH   2   3
ATOM      3  C   UNL     1      94.046  98.254  73.548  1.00  0.00     0.220 C 
ATOM      4  N   UNL     1      93.772  97.092  74.207  1.00  0.00    -0.352 N 
ATOM      5  H   UNL     1      92.788  96.887  74.308  1.00  0.00     0.163 HD
ATOM      6  O   UNL     1      95.230  98.639  73.380  1.00  0.00    -0.275 OA
BRANCH   4   7
ATOM      7  C   UNL     1      94.750  96.191  74.736  1.00  0.00     0.151 C 
BRANCH   7   8
ATOM      8  C   UNL     1      94.221  95.321  75.823  1.00  0.00    -0.025 A 
ATOM      9  C   UNL     1      92.766  93.479  76.557  1.00  0.00     0.160 A 
ATOM     10  C   UNL     1      93.239  93.630  77.879  1.00  0.00     0.157 A 
ATOM     11  C   UNL     1      93.246  94.337  75.545  1.00  0.00     0.056 A 
ATOM     12  C   UNL     1      94.181  94.632  78.176  1.00  0.00     0.050 A 
ATOM     13  C   UNL     1      94.677  95.466  77.154  1.00  0.00     0.009 A 
BRANCH   9  14
ATOM     14  O   UNL     1      91.821  92.534  76.265  1.00  0.00    -0.493 OA
ATOM     15  C   UNL     1      90.557  93.085  75.854  1.00  0.00     0.278 C 
ENDBRANCH   9  14
BRANCH  10  16
ATOM     16  O   UNL     1      92.794  92.820  78.875  1.00  0.00    -0.504 OA
ATOM     17  H   UNL     1      93.133  91.932  78.740  1.00  0.00     0.293 HD
ENDBRANCH  10  16
ENDBRANCH   7   8
ENDBRANCH   4   7
ENDBRANCH   2   3
ENDBRANCH   1   2
BRANCH   1  18
ATOM     18  C   UNL     1      91.855 100.005  70.846  1.00  0.00     0.001 C 
BRANCH  18  19
ATOM     19  C   UNL     1      90.665  99.005  70.830  1.00  0.00     0.000 C 
BRANCH  19  20
ATOM     20  C   UNL     1      90.250  98.632  69.379  1.00  0.00     0.000 C 
BRANCH  20  21
ATOM     21  C   UNL     1      89.048  99.450  68.831  1.00  0.00     0.003 C 
BRANCH  21  22
ATOM     22  C   UNL     1      88.671  99.136  67.346  1.00  0.00    -0.017 C 
ATOM     23  C   UNL     1      89.924  99.248  66.432  1.00  0.00     0.007 C 
ATOM     24  C   UNL     1      87.514 100.019  66.794  1.00  0.00     0.007 C 
ENDBRANCH  21  22
ENDBRANCH  20  21
ENDBRANCH  19  20
ENDBRANCH  18  19
ENDBRANCH   1  18
TORSDOF 11
ENDMDL
MODEL 2
REMARK VINA RESULT:    -5.988      1.538      2.735
REMARK INTER + INTRA:         -10.136
REMARK INTER:                  -9.536
REMARK INTRA:                  -0.600
REMARK UNBOUND:                -0.472
REMARK SMILES COc1cc(CNC(=O)CCCCCCC(C)C)ccc1O
REMARK SMILES IDX 11 1 10 2 8 3 7 4 9 6 6 7 5 8 3 9 21 10 4 11 20 12 19 13
REMARK SMILES IDX 2 14 1 15 22 16 12 18 13 19 14 20 15 21 16 22 17 23 18 24
REMARK H PARENT 7 5 22 17
REMARK Flexibility Score: inf
ROOT
ATOM      1  C   UNL     1      92.186  99.640  70.921  1.00  0.00     0.010 C 
ENDROOT
BRANCH   1   2
ATOM      2  C   UNL     1      92.798  99.692  72.348  1.00  0.00     0.100 C 
BRANCH   2   3
ATOM      3  C   UNL     1      94.033  98.888  72.484  1.00  0.00     0.220 C 
ATOM      4  N   UNL     1      94.278  98.189  73.631  1.00  0.00    -0.352 N 
ATOM      5  H   UNL     1      93.585  98.312  74.354  1.00  0.00     0.163 HD
ATOM      6  O   UNL     1      94.833  98.844  71.517  1.00  0.00    -0.275 OA
BRANCH   4   7
ATOM      7  C   UNL     1      95.405  97.335  73.853  1.00  0.00     0.151 C 
BRANCH   7   8
ATOM      8  C   UNL     1      95.153  96.288  74.882  1.00  0.00    -0.025 A 
ATOM      9  C   UNL     1      95.405  95.462  77.184  1.00  0.00     0.160 A 
ATOM     10  C   UNL     1      94.641  94.319  76.860  1.00  0.00     0.157 A 
ATOM     11  C   UNL     1      95.670  96.427  76.190  1.00  0.00     0.056 A 
ATOM     12  C   UNL     1      94.155  94.151  75.551  1.00  0.00     0.050 A 
ATOM     13  C   UNL     1      94.399  95.133  74.571  1.00  0.00     0.009 A 
BRANCH   9  14
ATOM     14  O   UNL     1      95.916  95.616  78.444  1.00  0.00    -0.493 OA
ATOM     15  C   UNL     1      97.324  95.333  78.537  1.00  0.00     0.278 C 
ENDBRANCH   9  14
BRANCH  10  16
ATOM     16  O   UNL     1      94.371  93.373  77.797  1.00  0.00    -0.504 OA
ATOM     17  H   UNL     1      93.921  93.780  78.541  1.00  0.00     0.293 HD
ENDBRANCH  10  16
ENDBRANCH   7   8
ENDBRANCH   4   7
ENDBRANCH   2   3
ENDBRANCH   1   2
BRANCH   1  18
ATOM     18  C   UNL     1      90.631  99.650  70.948  1.00  0.00     0.001 C 
BRANCH  18  19
ATOM     19  C   UNL     1      89.988  98.299  70.525  1.00  0.00     0.000 C 
BRANCH  19  20
ATOM     20  C   UNL     1      89.358  98.386  69.106  1.00  0.00     0.000 C 
BRANCH  20  21
ATOM     21  C   UNL     1      88.866  99.807  68.713  1.00  0.00     0.003 C 
BRANCH  21  22
ATOM     22  C   UNL     1      88.869 100.094  67.176  1.00  0.00    -0.017 C 
ATOM     23  C   UNL     1      87.415 100.233  66.646  1.00  0.00     0.007 C 
ATOM     24  C   UNL     1      89.654  99.037  66.344  1.00  0.00     0.007 C 
ENDBRANCH  21  22
ENDBRANCH  20  21
ENDBRANCH  19  20
ENDBRANCH  18  19
ENDBRANCH   1  18
TORSDOF 11
ENDMDL
MODEL 3
REMARK VINA RESULT:    -5.894     15.459     18.943
REMARK INTER + INTRA:          -9.983
REMARK INTER:                  -9.275
REMARK INTRA:                  -0.709
REMARK UNBOUND:                -0.472
REMARK SMILES COc1cc(CNC(=O)CCCCCCC(C)C)ccc1O
REMARK SMILES IDX 11 1 10 2 8 3 7 4 9 6 6 7 5 8 3 9 21 10 4 11 20 12 19 13
REMARK SMILES IDX 2 14 1 15 22 16 12 18 13 19 14 20 15 21 16 22 17 23 18 24
REMARK H PARENT 7 5 22 17
REMARK Flexibility Score: inf
ROOT
ATOM      1  C   UNL     1      97.168  82.068  78.450  1.00  0.00     0.010 C 
ENDROOT
BRANCH   1   2
ATOM      2  C   UNL     1      95.966  82.499  77.565  1.00  0.00     0.100 C 
BRANCH   2   3
ATOM      3  C   UNL     1      96.370  82.985  76.226  1.00  0.00     0.220 C 
ATOM      4  N   UNL     1      97.546  82.573  75.669  1.00  0.00    -0.352 N 
ATOM      5  H   UNL     1      98.102  81.970  76.257  1.00  0.00     0.163 HD
ATOM      6  O   UNL     1      95.599  83.760  75.609  1.00  0.00    -0.275 OA
BRANCH   4   7
ATOM      7  C   UNL     1      98.010  82.928  74.363  1.00  0.00     0.151 C 
BRANCH   7   8
ATOM      8  C   UNL     1      97.941  81.805  73.389  1.00  0.00    -0.025 A 
ATOM      9  C   UNL     1      99.026  80.368  71.714  1.00  0.00     0.160 A 
ATOM     10  C   UNL     1      97.828  79.635  71.563  1.00  0.00     0.157 A 
ATOM     11  C   UNL     1      99.068  81.456  72.610  1.00  0.00     0.056 A 
ATOM     12  C   UNL     1      96.688  79.997  72.303  1.00  0.00     0.050 A 
ATOM     13  C   UNL     1      96.746  81.067  73.218  1.00  0.00     0.009 A 
BRANCH   9  14
ATOM     14  O   UNL     1     100.129  80.049  70.969  1.00  0.00    -0.493 OA
ATOM     15  C   UNL     1     101.079  81.124  70.852  1.00  0.00     0.278 C 
ENDBRANCH   9  14
BRANCH  10  16
ATOM     16  O   UNL     1      97.759  78.583  70.705  1.00  0.00    -0.504 OA
ATOM     17  H   UNL     1      97.522  78.899  69.830  1.00  0.00     0.293 HD
ENDBRANCH  10  16
ENDBRANCH   7   8
ENDBRANCH   4   7
ENDBRANCH   2   3
ENDBRANCH   1   2
BRANCH   1  18
ATOM     18  C   UNL     1      96.796  82.012  79.959  1.00  0.00     0.001 C 
BRANCH  18  19
ATOM     19  C   UNL     1      97.814  81.220  80.827  1.00  0.00     0.000 C 
BRANCH  19  20
ATOM     20  C   UNL     1      97.268  79.816  81.211  1.00  0.00     0.000 C 
BRANCH  20  21
ATOM     21  C   UNL     1      96.217  79.833  82.356  1.00  0.00     0.003 C 
BRANCH  21  22
ATOM     22  C   UNL     1      96.386  81.005  83.376  1.00  0.00    -0.017 C 
ATOM     23  C   UNL     1      97.297  80.570  84.558  1.00  0.00     0.007 C 
ATOM     24  C   UNL     1      95.036  81.571  83.909  1.00  0.00     0.007 C 
ENDBRANCH  21  22
ENDBRANCH  20  21
ENDBRANCH  19  20
ENDBRANCH  18  19
ENDBRANCH   1  18
TORSDOF 11
ENDMDL
MODEL 4
REMARK VINA RESULT:    -5.892     19.596     22.481
REMARK INTER + INTRA:          -9.981
REMARK INTER:                  -8.141
REMARK INTRA:                  -1.840
REMARK UNBOUND:                -0.472
REMARK SMILES COc1cc(CNC(=O)CCCCCCC(C)C)ccc1O
REMARK SMILES IDX 11 1 10 2 8 3 7 4 9 6 6 7 5 8 3 9 21 10 4 11 20 12 19 13
REMARK SMILES IDX 2 14 1 15 22 16 12 18 13 19 14 20 15 21 16 22 17 23 18 24
REMARK H PARENT 7 5 22 17
REMARK Flexibility Score: inf
ROOT
ATOM      1  C   UNL     1      75.390  89.750  68.917  1.00  0.00     0.010 C 
ENDROOT
BRANCH   1   2
ATOM      2  C   UNL     1      74.067  88.939  68.995  1.00  0.00     0.100 C 
BRANCH   2   3
ATOM      3  C   UNL     1      73.521  88.581  67.666  1.00  0.00     0.220 C 
ATOM      4  N   UNL     1      73.730  87.337  67.147  1.00  0.00    -0.352 N 
ATOM      5  H   UNL     1      74.306  86.734  67.717  1.00  0.00     0.163 HD
ATOM      6  O   UNL     1      72.845  89.436  67.044  1.00  0.00    -0.275 OA
BRANCH   4   7
ATOM      7  C   UNL     1      73.204  86.861  65.904  1.00  0.00     0.151 C 
BRANCH   7   8
ATOM      8  C   UNL     1      73.859  85.612  65.429  1.00  0.00    -0.025 A 
ATOM      9  C   UNL     1      73.965  83.155  65.363  1.00  0.00     0.160 A 
ATOM     10  C   UNL     1      75.075  83.224  64.494  1.00  0.00     0.157 A 
ATOM     11  C   UNL     1      73.378  84.347  65.838  1.00  0.00     0.056 A 
ATOM     12  C   UNL     1      75.588  84.477  64.111  1.00  0.00     0.050 A 
ATOM     13  C   UNL     1      74.979  85.663  64.566  1.00  0.00     0.009 A 
BRANCH   9  14
ATOM     14  O   UNL     1      73.483  81.942  65.773  1.00  0.00    -0.493 OA
ATOM     15  C   UNL     1      72.227  81.582  65.169  1.00  0.00     0.278 C 
ENDBRANCH   9  14
BRANCH  10  16
ATOM     16  O   UNL     1      75.661  82.093  64.022  1.00  0.00    -0.504 OA
ATOM     17  H   UNL     1      75.764  82.160  63.069  1.00  0.00     0.293 HD
ENDBRANCH  10  16
ENDBRANCH   7   8
ENDBRANCH   4   7
ENDBRANCH   2   3
ENDBRANCH   1   2
BRANCH   1  18
ATOM     18  C   UNL     1      76.058  89.650  67.516  1.00  0.00     0.001 C 
BRANCH  18  19
ATOM     19  C   UNL     1      77.409  88.882  67.519  1.00  0.00     0.000 C 
BRANCH  19  20
ATOM     20  C   UNL     1      77.220  87.390  67.124  1.00  0.00     0.000 C 
BRANCH  20  21
ATOM     21  C   UNL     1      77.108  86.420  68.333  1.00  0.00     0.003 C 
BRANCH  21  22
ATOM     22  C   UNL     1      76.391  85.067  68.017  1.00  0.00    -0.017 C 
ATOM     23  C   UNL     1      75.708  84.502  69.294  1.00  0.00     0.007 C 
ATOM     24  C   UNL     1      77.326  83.997  67.380  1.00  0.00     0.007 C 
ENDBRANCH  21  22
ENDBRANCH  20  21
ENDBRANCH  19  20
ENDBRANCH  18  19
ENDBRANCH   1  18
TORSDOF 11
ENDMDL
MODEL 5
REMARK VINA RESULT:    -5.866     19.947     22.580
REMARK INTER + INTRA:          -9.940
REMARK INTER:                  -9.009
REMARK INTRA:                  -0.931
REMARK UNBOUND:                -0.472
REMARK SMILES COc1cc(CNC(=O)CCCCCCC(C)C)ccc1O
REMARK SMILES IDX 11 1 10 2 8 3 7 4 9 6 6 7 5 8 3 9 21 10 4 11 20 12 19 13
REMARK SMILES IDX 2 14 1 15 22 16 12 18 13 19 14 20 15 21 16 22 17 23 18 24
REMARK H PARENT 7 5 22 17
REMARK Flexibility Score: inf
ROOT
ATOM      1  C   UNL     1      76.633  88.091  66.348  1.00  0.00     0.010 C 
ENDROOT
BRANCH   1   2
ATOM      2  C   UNL     1      77.209  87.055  67.353  1.00  0.00     0.100 C 
BRANCH   2   3
ATOM      3  C   UNL     1      77.221  85.672  66.826  1.00  0.00     0.220 C 
ATOM      4  N   UNL     1      76.605  85.380  65.643  1.00  0.00    -0.352 N 
ATOM      5  H   UNL     1      76.127  86.159  65.214  1.00  0.00     0.163 HD
ATOM      6  O   UNL     1      77.828  84.786  67.475  1.00  0.00    -0.275 OA
BRANCH   4   7
ATOM      7  C   UNL     1      76.601  84.097  65.009  1.00  0.00     0.151 C 
BRANCH   7   8
ATOM      8  C   UNL     1      75.309  83.373  65.159  1.00  0.00    -0.025 A 
ATOM      9  C   UNL     1      72.856  83.406  65.321  1.00  0.00     0.160 A 
ATOM     10  C   UNL     1      72.839  81.996  65.400  1.00  0.00     0.157 A 
ATOM     11  C   UNL     1      74.089  84.083  65.220  1.00  0.00     0.056 A 
ATOM     12  C   UNL     1      74.050  81.280  65.379  1.00  0.00     0.050 A 
ATOM     13  C   UNL     1      75.276  81.961  65.249  1.00  0.00     0.009 A 
BRANCH   9  14
ATOM     14  O   UNL     1      71.687  84.115  65.380  1.00  0.00    -0.493 OA
ATOM     15  C   UNL     1      71.524  84.865  66.598  1.00  0.00     0.278 C 
ENDBRANCH   9  14
BRANCH  10  16
ATOM     16  O   UNL     1      71.666  81.318  65.499  1.00  0.00    -0.504 OA
ATOM     17  H   UNL     1      70.978  81.801  65.035  1.00  0.00     0.293 HD
ENDBRANCH  10  16
ENDBRANCH   7   8
ENDBRANCH   4   7
ENDBRANCH   2   3
ENDBRANCH   1   2
BRANCH   1  18
ATOM     18  C   UNL     1      75.540  88.990  66.993  1.00  0.00     0.001 C 
BRANCH  18  19
ATOM     19  C   UNL     1      76.101  90.040  67.992  1.00  0.00     0.000 C 
BRANCH  19  20
ATOM     20  C   UNL     1      75.100  90.323  69.147  1.00  0.00     0.000 C 
BRANCH  20  21
ATOM     21  C   UNL     1      74.002  89.237  69.319  1.00  0.00     0.003 C 
BRANCH  21  22
ATOM     22  C   UNL     1      72.795  89.669  70.214  1.00  0.00    -0.017 C 
ATOM     23  C   UNL     1      71.467  89.590  69.410  1.00  0.00     0.007 C 
ATOM     24  C   UNL     1      72.963  91.080  70.852  1.00  0.00     0.007 C 
ENDBRANCH  21  22
ENDBRANCH  20  21
ENDBRANCH  19  20
ENDBRANCH  18  19
ENDBRANCH   1  18
TORSDOF 11
ENDMDL
MODEL 6
REMARK VINA RESULT:    -5.653     15.311     18.385
REMARK INTER + INTRA:          -9.596
REMARK INTER:                  -8.813
REMARK INTRA:                  -0.783
REMARK UNBOUND:                -0.472
REMARK SMILES COc1cc(CNC(=O)CCCCCCC(C)C)ccc1O
REMARK SMILES IDX 11 1 10 2 8 3 7 4 9 6 6 7 5 8 3 9 21 10 4 11 20 12 19 13
REMARK SMILES IDX 2 14 1 15 22 16 12 18 13 19 14 20 15 21 16 22 17 23 18 24
REMARK H PARENT 7 5 22 17
REMARK Flexibility Score: inf
ROOT
ATOM      1  C   UNL     1      98.026  80.896  79.047  1.00  0.00     0.010 C 
ENDROOT
BRANCH   1   2
ATOM      2  C   UNL     1      97.083  82.061  78.637  1.00  0.00     0.100 C 
BRANCH   2   3
ATOM      3  C   UNL     1      96.578  81.944  77.250  1.00  0.00     0.220 C 
ATOM      4  N   UNL     1      96.513  83.044  76.445  1.00  0.00    -0.352 N 
ATOM      5  H   UNL     1      96.789  83.907  76.889  1.00  0.00     0.163 HD
ATOM      6  O   UNL     1      96.236  80.812  76.828  1.00  0.00    -0.275 OA
BRANCH   4   7
ATOM      7  C   UNL     1      96.098  83.041  75.075  1.00  0.00     0.151 C 
BRANCH   7   8
ATOM      8  C   UNL     1      97.183  82.647  74.135  1.00  0.00    -0.025 A 
ATOM      9  C   UNL     1      99.249  83.194  72.917  1.00  0.00     0.160 A 
ATOM     10  C   UNL     1      99.278  81.889  72.377  1.00  0.00     0.157 A 
ATOM     11  C   UNL     1      98.193  83.568  73.775  1.00  0.00     0.056 A 
ATOM     12  C   UNL     1      98.257  80.976  72.697  1.00  0.00     0.050 A 
ATOM     13  C   UNL     1      97.222  81.347  73.577  1.00  0.00     0.009 A 
BRANCH   9  14
ATOM     14  O   UNL     1     100.215  84.102  72.581  1.00  0.00    -0.493 OA
ATOM     15  C   UNL     1     101.386  84.038  73.416  1.00  0.00     0.278 C 
ENDBRANCH   9  14
BRANCH  10  16
ATOM     16  O   UNL     1     100.282  81.502  71.547  1.00  0.00    -0.504 OA
ATOM     17  H   UNL     1      99.974  80.784  70.988  1.00  0.00     0.293 HD
ENDBRANCH  10  16
ENDBRANCH   7   8
ENDBRANCH   4   7
ENDBRANCH   2   3
ENDBRANCH   1   2
BRANCH   1  18
ATOM     18  C   UNL     1      97.455  80.068  80.233  1.00  0.00     0.001 C 
BRANCH  18  19
ATOM     19  C   UNL     1      98.263  80.225  81.552  1.00  0.00     0.000 C 
BRANCH  19  20
ATOM     20  C   UNL     1      97.395  80.843  82.684  1.00  0.00     0.000 C 
BRANCH  20  21
ATOM     21  C   UNL     1      97.053  82.344  82.478  1.00  0.00     0.003 C 
BRANCH  21  22
ATOM     22  C   UNL     1      95.652  82.773  83.024  1.00  0.00    -0.017 C 
ATOM     23  C   UNL     1      95.754  84.131  83.776  1.00  0.00     0.007 C 
ATOM     24  C   UNL     1      94.978  81.699  83.928  1.00  0.00     0.007 C 
ENDBRANCH  21  22
ENDBRANCH  20  21
ENDBRANCH  19  20
ENDBRANCH  18  19
ENDBRANCH   1  18
TORSDOF 11
ENDMDL
MODEL 7
REMARK VINA RESULT:    -5.547     18.994     20.958
REMARK INTER + INTRA:          -9.424
REMARK INTER:                  -7.916
REMARK INTRA:                  -1.508
REMARK UNBOUND:                -0.472
REMARK SMILES COc1cc(CNC(=O)CCCCCCC(C)C)ccc1O
REMARK SMILES IDX 11 1 10 2 8 3 7 4 9 6 6 7 5 8 3 9 21 10 4 11 20 12 19 13
REMARK SMILES IDX 2 14 1 15 22 16 12 18 13 19 14 20 15 21 16 22 17 23 18 24
REMARK H PARENT 7 5 22 17
REMARK Flexibility Score: inf
ROOT
ATOM      1  C   UNL     1      74.620  85.425  69.187  1.00  0.00     0.010 C 
ENDROOT
BRANCH   1   2
ATOM      2  C   UNL     1      73.835  85.710  67.877  1.00  0.00     0.100 C 
BRANCH   2   3
ATOM      3  C   UNL     1      73.039  86.957  67.932  1.00  0.00     0.220 C 
ATOM      4  N   UNL     1      72.890  87.628  69.111  1.00  0.00    -0.352 N 
ATOM      5  H   UNL     1      73.320  87.181  69.907  1.00  0.00     0.163 HD
ATOM      6  O   UNL     1      72.528  87.392  66.871  1.00  0.00    -0.275 OA
BRANCH   4   7
ATOM      7  C   UNL     1      72.194  88.868  69.273  1.00  0.00     0.151 C 
BRANCH   7   8
ATOM      8  C   UNL     1      73.075  89.981  69.720  1.00  0.00    -0.025 A 
ATOM      9  C   UNL     1      73.430  92.006  71.070  1.00  0.00     0.160 A 
ATOM     10  C   UNL     1      74.763  92.082  70.610  1.00  0.00     0.157 A 
ATOM     11  C   UNL     1      72.592  90.969  70.608  1.00  0.00     0.056 A 
ATOM     12  C   UNL     1      75.243  91.127  69.696  1.00  0.00     0.050 A 
ATOM     13  C   UNL     1      74.410  90.078  69.261  1.00  0.00     0.009 A 
BRANCH   9  14
ATOM     14  O   UNL     1      72.941  92.952  71.929  1.00  0.00    -0.493 OA
ATOM     15  C   UNL     1      72.764  92.478  73.276  1.00  0.00     0.278 C 
ENDBRANCH   9  14
BRANCH  10  16
ATOM     16  O   UNL     1      75.592  93.071  71.037  1.00  0.00    -0.504 OA
ATOM     17  H   UNL     1      75.082  93.868  71.197  1.00  0.00     0.293 HD
ENDBRANCH  10  16
ENDBRANCH   7   8
ENDBRANCH   4   7
ENDBRANCH   2   3
ENDBRANCH   1   2
BRANCH   1  18
ATOM     18  C   UNL     1      75.972  84.705  68.917  1.00  0.00     0.001 C 
BRANCH  18  19
ATOM     19  C   UNL     1      77.182  85.673  68.792  1.00  0.00     0.000 C 
BRANCH  19  20
ATOM     20  C   UNL     1      77.341  86.207  67.341  1.00  0.00     0.000 C 
BRANCH  20  21
ATOM     21  C   UNL     1      77.133  87.740  67.199  1.00  0.00     0.003 C 
BRANCH  21  22
ATOM     22  C   UNL     1      76.535  88.190  65.826  1.00  0.00    -0.017 C 
ATOM     23  C   UNL     1      75.598  89.416  66.017  1.00  0.00     0.007 C 
ATOM     24  C   UNL     1      75.796  87.053  65.062  1.00  0.00     0.007 C 
ENDBRANCH  21  22
ENDBRANCH  20  21
ENDBRANCH  19  20
ENDBRANCH  18  19
ENDBRANCH   1  18
TORSDOF 11
ENDMDL
MODEL 8
REMARK VINA RESULT:    -5.535     16.265     18.844
REMARK INTER + INTRA:          -9.405
REMARK INTER:                  -8.630
REMARK INTRA:                  -0.775
REMARK UNBOUND:                -0.472
REMARK SMILES COc1cc(CNC(=O)CCCCCCC(C)C)ccc1O
REMARK SMILES IDX 11 1 10 2 8 3 7 4 9 6 6 7 5 8 3 9 21 10 4 11 20 12 19 13
REMARK SMILES IDX 2 14 1 15 22 16 12 18 13 19 14 20 15 21 16 22 17 23 18 24
REMARK H PARENT 7 5 22 17
REMARK Flexibility Score: inf
ROOT
ATOM      1  C   UNL     1      75.597  89.960  68.958  1.00  0.00     0.010 C 
ENDROOT
BRANCH   1   2
ATOM      2  C   UNL     1      74.089  89.868  69.321  1.00  0.00     0.100 C 
BRANCH   2   3
ATOM      3  C   UNL     1      73.651  90.917  70.269  1.00  0.00     0.220 C 
ATOM      4  N   UNL     1      74.455  91.988  70.532  1.00  0.00    -0.352 N 
ATOM      5  H   UNL     1      75.352  91.965  70.069  1.00  0.00     0.163 HD
ATOM      6  O   UNL     1      72.520  90.811  70.804  1.00  0.00    -0.275 OA
BRANCH   4   7
ATOM      7  C   UNL     1      74.114  93.088  71.382  1.00  0.00     0.151 C 
BRANCH   7   8
ATOM      8  C   UNL     1      75.122  93.339  72.449  1.00  0.00    -0.025 A 
ATOM      9  C   UNL     1      75.687  93.586  74.830  1.00  0.00     0.160 A 
ATOM     10  C   UNL     1      77.045  93.773  74.491  1.00  0.00     0.157 A 
ATOM     11  C   UNL     1      74.735  93.390  73.807  1.00  0.00     0.056 A 
ATOM     12  C   UNL     1      77.437  93.763  73.140  1.00  0.00     0.050 A 
ATOM     13  C   UNL     1      76.486  93.537  72.126  1.00  0.00     0.009 A 
BRANCH   9  14
ATOM     14  O   UNL     1      75.289  93.633  76.138  1.00  0.00    -0.493 OA
ATOM     15  C   UNL     1      73.884  93.381  76.326  1.00  0.00     0.278 C 
ENDBRANCH   9  14
BRANCH  10  16
ATOM     16  O   UNL     1      77.983  93.965  75.455  1.00  0.00    -0.504 OA
ATOM     17  H   UNL     1      77.965  93.228  76.070  1.00  0.00     0.293 HD
ENDBRANCH  10  16
ENDBRANCH   7   8
ENDBRANCH   4   7
ENDBRANCH   2   3
ENDBRANCH   1   2
BRANCH   1  18
ATOM     18  C   UNL     1      75.819  90.345  67.468  1.00  0.00     0.001 C 
BRANCH  18  19
ATOM     19  C   UNL     1      76.829  89.424  66.726  1.00  0.00     0.000 C 
BRANCH  19  20
ATOM     20  C   UNL     1      77.176  88.163  67.566  1.00  0.00     0.000 C 
BRANCH  20  21
ATOM     21  C   UNL     1      77.253  86.849  66.740  1.00  0.00     0.003 C 
BRANCH  21  22
ATOM     22  C   UNL     1      76.739  85.578  67.492  1.00  0.00    -0.017 C 
ATOM     23  C   UNL     1      76.950  85.730  69.025  1.00  0.00     0.007 C 
ATOM     24  C   UNL     1      77.376  84.251  66.984  1.00  0.00     0.007 C 
ENDBRANCH  21  22
ENDBRANCH  20  21
ENDBRANCH  19  20
ENDBRANCH  18  19
ENDBRANCH   1  18
TORSDOF 11
ENDMDL
MODEL 9
REMARK VINA RESULT:    -5.523     19.068     21.288
REMARK INTER + INTRA:          -9.385
REMARK INTER:                  -7.590
REMARK INTRA:                  -1.795
REMARK UNBOUND:                -0.472
REMARK SMILES COc1cc(CNC(=O)CCCCCCC(C)C)ccc1O
REMARK SMILES IDX 11 1 10 2 8 3 7 4 9 6 6 7 5 8 3 9 21 10 4 11 20 12 19 13
REMARK SMILES IDX 2 14 1 15 22 16 12 18 13 19 14 20 15 21 16 22 17 23 18 24
REMARK H PARENT 7 5 22 17
REMARK Flexibility Score: inf
ROOT
ATOM      1  C   UNL     1      74.598  87.791  64.674  1.00  0.00     0.010 C 
ENDROOT
BRANCH   1   2
ATOM      2  C   UNL     1      73.656  86.767  65.365  1.00  0.00     0.100 C 
BRANCH   2   3
ATOM      3  C   UNL     1      72.966  87.316  66.554  1.00  0.00     0.220 C 
ATOM      4  N   UNL     1      73.558  87.260  67.782  1.00  0.00    -0.352 N 
ATOM      5  H   UNL     1      74.450  86.786  67.798  1.00  0.00     0.163 HD
ATOM      6  O   UNL     1      71.842  87.854  66.402  1.00  0.00    -0.275 OA
BRANCH   4   7
ATOM      7  C   UNL     1      73.015  87.807  68.988  1.00  0.00     0.151 C 
BRANCH   7   8
ATOM      8  C   UNL     1      73.599  89.129  69.347  1.00  0.00    -0.025 A 
ATOM      9  C   UNL     1      73.401  91.312  70.463  1.00  0.00     0.160 A 
ATOM     10  C   UNL     1      74.720  91.632  70.074  1.00  0.00     0.157 A 
ATOM     11  C   UNL     1      72.845  90.073  70.081  1.00  0.00     0.056 A 
ATOM     12  C   UNL     1      75.467  90.717  69.310  1.00  0.00     0.050 A 
ATOM     13  C   UNL     1      74.916  89.470  68.957  1.00  0.00     0.009 A 
BRANCH   9  14
ATOM     14  O   UNL     1      72.653  92.211  71.172  1.00  0.00    -0.493 OA
ATOM     15  C   UNL     1      72.428  91.826  72.541  1.00  0.00     0.278 C 
ENDBRANCH   9  14
BRANCH  10  16
ATOM     16  O   UNL     1      75.281  92.819  70.426  1.00  0.00    -0.504 OA
ATOM     17  H   UNL     1      75.770  93.175  69.680  1.00  0.00     0.293 HD
ENDBRANCH  10  16
ENDBRANCH   7   8
ENDBRANCH   4   7
ENDBRANCH   2   3
ENDBRANCH   1   2
BRANCH   1  18
ATOM     18  C   UNL     1      76.099  87.454  64.901  1.00  0.00     0.001 C 
BRANCH  18  19
ATOM     19  C   UNL     1      76.720  88.163  66.137  1.00  0.00     0.000 C 
BRANCH  19  20
ATOM     20  C   UNL     1      77.132  87.142  67.235  1.00  0.00     0.000 C 
BRANCH  20  21
ATOM     21  C   UNL     1      77.226  85.673  66.736  1.00  0.00     0.003 C 
BRANCH  21  22
ATOM     22  C   UNL     1      76.634  84.612  67.721  1.00  0.00    -0.017 C 
ATOM     23  C   UNL     1      75.333  83.995  67.138  1.00  0.00     0.007 C 
ATOM     24  C   UNL     1      76.381  85.164  69.155  1.00  0.00     0.007 C 
ENDBRANCH  21  22
ENDBRANCH  20  21
ENDBRANCH  19  20
ENDBRANCH  18  19
ENDBRANCH   1  18
TORSDOF 11
ENDMDL
MODEL 10
REMARK VINA RESULT:    -5.405     23.005     25.657
REMARK INTER + INTRA:          -9.195
REMARK INTER:                  -8.605
REMARK INTRA:                  -0.591
REMARK UNBOUND:                -0.472
REMARK SMILES COc1cc(CNC(=O)CCCCCCC(C)C)ccc1O
REMARK SMILES IDX 11 1 10 2 8 3 7 4 9 6 6 7 5 8 3 9 21 10 4 11 20 12 19 13
REMARK SMILES IDX 2 14 1 15 22 16 12 18 13 19 14 20 15 21 16 22 17 23 18 24
REMARK H PARENT 7 5 22 17
REMARK Flexibility Score: inf
ROOT
ATOM      1  C   UNL     1      68.585  83.918  69.382  1.00  0.00     0.010 C 
ENDROOT
BRANCH   1   2
ATOM      2  C   UNL     1      69.483  84.580  68.301  1.00  0.00     0.100 C 
BRANCH   2   3
ATOM      3  C   UNL     1      70.340  85.663  68.836  1.00  0.00     0.220 C 
ATOM      4  N   UNL     1      71.599  85.850  68.347  1.00  0.00    -0.352 N 
ATOM      5  H   UNL     1      71.885  85.177  67.651  1.00  0.00     0.163 HD
ATOM      6  O   UNL     1      69.873  86.415  69.726  1.00  0.00    -0.275 OA
BRANCH   4   7
ATOM      7  C   UNL     1      72.493  86.896  68.744  1.00  0.00     0.151 C 
BRANCH   7   8
ATOM      8  C   UNL     1      73.927  86.508  68.652  1.00  0.00    -0.025 A 
ATOM      9  C   UNL     1      76.173  86.862  67.713  1.00  0.00     0.160 A 
ATOM     10  C   UNL     1      76.672  85.804  68.503  1.00  0.00     0.157 A 
ATOM     11  C   UNL     1      74.803  87.193  67.779  1.00  0.00     0.056 A 
ATOM     12  C   UNL     1      75.802  85.088  69.346  1.00  0.00     0.050 A 
ATOM     13  C   UNL     1      74.442  85.444  69.429  1.00  0.00     0.009 A 
BRANCH   9  14
ATOM     14  O   UNL     1      77.002  87.539  66.861  1.00  0.00    -0.493 OA
ATOM     15  C   UNL     1      77.365  88.852  67.325  1.00  0.00     0.278 C 
ENDBRANCH   9  14
BRANCH  10  16
ATOM     16  O   UNL     1      77.987  85.462  68.459  1.00  0.00    -0.504 OA
ATOM     17  H   UNL     1      78.473  86.125  67.963  1.00  0.00     0.293 HD
ENDBRANCH  10  16
ENDBRANCH   7   8
ENDBRANCH   4   7
ENDBRANCH   2   3
ENDBRANCH   1   2
BRANCH   1  18
ATOM     18  C   UNL     1      67.166  84.552  69.436  1.00  0.00     0.001 C 
BRANCH  18  19
ATOM     19  C   UNL     1      66.657  84.828  70.879  1.00  0.00     0.000 C 
BRANCH  19  20
ATOM     20  C   UNL     1      65.283  84.149  71.140  1.00  0.00     0.000 C 
BRANCH  20  21
ATOM     21  C   UNL     1      64.641  83.504  69.880  1.00  0.00     0.003 C 
BRANCH  21  22
ATOM     22  C   UNL     1      64.305  81.984  70.027  1.00  0.00    -0.017 C 
ATOM     23  C   UNL     1      63.192  81.574  69.022  1.00  0.00     0.007 C 
ATOM     24  C   UNL     1      63.912  81.568  71.475  1.00  0.00     0.007 C 
ENDBRANCH  21  22
ENDBRANCH  20  21
ENDBRANCH  19  20
ENDBRANCH  18  19
ENDBRANCH   1  18
TORSDOF 11
ENDMDL
