MODEL 1
REMARK VINA RESULT:    -7.608      0.000      0.000
REMARK INTER + INTRA:          -9.276
REMARK INTER:                  -8.942
REMARK INTRA:                  -0.334
REMARK UNBOUND:                -0.334
REMARK SMILES O=C(/C=C/C=C/c1ccc2c(c1)OCO2)N1CCCCC1
REMARK SMILES IDX 3 1 4 2 2 3 1 4 16 5 17 6 21 7 18 8 20 9 19 10 5 11 6 12
REMARK SMILES IDX 7 13 12 14 8 15 11 16 9 17 13 18 10 19 14 20 15 21
REMARK H PARENT
REMARK Flexibility Score: inf
ROOT
ATOM      1  C   UNL     1      96.492  83.219  82.932  1.00  0.00     0.071 C 
ATOM      2  C   UNL     1      97.000  82.606  81.865  1.00  0.00     0.006 C 
ENDROOT
BRANCH   1   3
ATOM      3  C   UNL     1      96.515  82.502  84.222  1.00  0.00     0.246 C 
ATOM      4  O   UNL     1      97.612  82.317  84.751  1.00  0.00    -0.270 OA
ATOM      5  N   UNL     1      95.297  82.077  84.751  1.00  0.00    -0.339 N 
ATOM      6  C   UNL     1      95.289  81.357  86.028  1.00  0.00     0.120 C 
ATOM      7  C   UNL     1      93.975  82.239  84.128  1.00  0.00     0.120 C 
ATOM      8  C   UNL     1      94.329  82.000  87.024  1.00  0.00     0.022 C 
ATOM      9  C   UNL     1      92.981  82.878  85.098  1.00  0.00     0.022 C 
ATOM     10  C   UNL     1      92.931  82.131  86.427  1.00  0.00     0.004 C 
ENDBRANCH   1   3
BRANCH   2  11
ATOM     11  C   UNL     1      97.022  83.228  80.558  1.00  0.00     0.001 C 
ATOM     12  C   UNL     1      97.421  82.580  79.451  1.00  0.00     0.008 C 
BRANCH  12  13
ATOM     13  C   UNL     1      97.471  83.166  78.101  1.00  0.00    -0.022 A 
ATOM     14  C   UNL     1      98.574  82.915  77.296  1.00  0.00     0.058 A 
ATOM     15  C   UNL     1      96.406  83.959  77.667  1.00  0.00     0.012 A 
ATOM     16  C   UNL     1      98.574  83.485  76.040  1.00  0.00     0.166 A 
ATOM     17  C   UNL     1      96.433  84.524  76.390  1.00  0.00     0.051 A 
ATOM     18  O   UNL     1      99.558  83.360  75.107  1.00  0.00    -0.454 OA
ATOM     19  C   UNL     1      97.533  84.269  75.599  1.00  0.00     0.165 A 
ATOM     20  C   UNL     1      99.019  84.153  74.030  1.00  0.00     0.468 C 
ATOM     21  O   UNL     1      97.733  84.732  74.335  1.00  0.00    -0.454 OA
ENDBRANCH  12  13
ENDBRANCH   2  11
TORSDOF 3
ENDMDL
MODEL 2
REMARK VINA RESULT:    -7.380      2.784      9.331
REMARK INTER + INTRA:          -9.008
REMARK INTER:                  -8.707
REMARK INTRA:                  -0.301
REMARK UNBOUND:                -0.334
REMARK SMILES O=C(/C=C/C=C/c1ccc2c(c1)OCO2)N1CCCCC1
REMARK SMILES IDX 3 1 4 2 2 3 1 4 16 5 17 6 21 7 18 8 20 9 19 10 5 11 6 12
REMARK SMILES IDX 7 13 12 14 8 15 11 16 9 17 13 18 10 19 14 20 15 21
REMARK H PARENT
REMARK Flexibility Score: inf
ROOT
ATOM      1  C   UNL     1      97.389  83.140  78.468  1.00  0.00     0.071 C 
ATOM      2  C   UNL     1      97.711  83.026  79.755  1.00  0.00     0.006 C 
ENDROOT
BRANCH   1   3
ATOM      3  C   UNL     1      98.424  82.832  77.462  1.00  0.00     0.246 C 
ATOM      4  O   UNL     1      99.250  81.963  77.743  1.00  0.00    -0.270 OA
ATOM      5  N   UNL     1      98.402  83.549  76.266  1.00  0.00    -0.339 N 
ATOM      6  C   UNL     1      99.421  83.269  75.250  1.00  0.00     0.120 C 
ATOM      7  C   UNL     1      97.462  84.623  75.914  1.00  0.00     0.120 C 
ATOM      8  C   UNL     1      98.790  82.973  73.894  1.00  0.00     0.022 C 
ATOM      9  C   UNL     1      96.809  84.365  74.556  1.00  0.00     0.022 C 
ATOM     10  C   UNL     1      97.850  84.098  73.472  1.00  0.00     0.004 C 
ENDBRANCH   1   3
BRANCH   2  11
ATOM     11  C   UNL     1      96.765  83.306  80.813  1.00  0.00     0.001 C 
ATOM     12  C   UNL     1      96.906  82.827  82.060  1.00  0.00     0.008 C 
BRANCH  12  13
ATOM     13  C   UNL     1      95.971  83.074  83.170  1.00  0.00    -0.022 A 
ATOM     14  C   UNL     1      95.943  84.328  83.764  1.00  0.00     0.058 A 
ATOM     15  C   UNL     1      95.136  82.038  83.596  1.00  0.00     0.012 A 
ATOM     16  C   UNL     1      95.050  84.511  84.800  1.00  0.00     0.166 A 
ATOM     17  C   UNL     1      94.241  82.250  84.647  1.00  0.00     0.051 A 
ATOM     18  O   UNL     1      94.874  85.660  85.508  1.00  0.00    -0.454 OA
ATOM     19  C   UNL     1      94.222  83.500  85.230  1.00  0.00     0.165 A 
ATOM     20  C   UNL     1      93.841  85.258  86.431  1.00  0.00     0.468 C 
ATOM     21  O   UNL     1      93.422  83.889  86.260  1.00  0.00    -0.454 OA
ENDBRANCH  12  13
ENDBRANCH   2  11
TORSDOF 3
ENDMDL
MODEL 3
REMARK VINA RESULT:    -7.370      3.225      9.447
REMARK INTER + INTRA:          -8.997
REMARK INTER:                  -8.620
REMARK INTRA:                  -0.377
REMARK UNBOUND:                -0.334
REMARK SMILES O=C(/C=C/C=C/c1ccc2c(c1)OCO2)N1CCCCC1
REMARK SMILES IDX 3 1 4 2 2 3 1 4 16 5 17 6 21 7 18 8 20 9 19 10 5 11 6 12
REMARK SMILES IDX 7 13 12 14 8 15 11 16 9 17 13 18 10 19 14 20 15 21
REMARK H PARENT
REMARK Flexibility Score: inf
ROOT
ATOM      1  C   UNL     1      97.649  83.914  77.109  1.00  0.00     0.071 C 
ATOM      2  C   UNL     1      96.570  83.775  77.877  1.00  0.00     0.006 C 
ENDROOT
BRANCH   1   3
ATOM      3  C   UNL     1      97.448  84.179  75.670  1.00  0.00     0.246 C 
ATOM      4  O   UNL     1      96.297  84.395  75.287  1.00  0.00    -0.270 OA
ATOM      5  N   UNL     1      98.570  84.163  74.843  1.00  0.00    -0.339 N 
ATOM      6  C   UNL     1      98.401  84.417  73.409  1.00  0.00     0.120 C 
ATOM      7  C   UNL     1      99.949  83.866  75.256  1.00  0.00     0.120 C 
ATOM      8  C   UNL     1      99.330  85.526  72.927  1.00  0.00     0.022 C 
ATOM      9  C   UNL     1     100.914  84.955  74.787  1.00  0.00     0.022 C 
ATOM     10  C   UNL     1     100.779  85.221  73.290  1.00  0.00     0.004 C 
ENDBRANCH   1   3
BRANCH   2  11
ATOM     11  C   UNL     1      96.666  83.513  79.297  1.00  0.00     0.001 C 
ATOM     12  C   UNL     1      97.446  82.546  79.807  1.00  0.00     0.008 C 
BRANCH  12  13
ATOM     13  C   UNL     1      97.574  82.232  81.240  1.00  0.00    -0.022 A 
ATOM     14  C   UNL     1      98.555  81.340  81.651  1.00  0.00     0.058 A 
ATOM     15  C   UNL     1      96.703  82.840  82.147  1.00  0.00     0.012 A 
ATOM     16  C   UNL     1      98.636  81.078  83.003  1.00  0.00     0.166 A 
ATOM     17  C   UNL     1      96.807  82.557  83.511  1.00  0.00     0.051 A 
ATOM     18  O   UNL     1      99.525  80.237  83.601  1.00  0.00    -0.454 OA
ATOM     19  C   UNL     1      97.786  81.670  83.909  1.00  0.00     0.165 A 
ATOM     20  C   UNL     1      99.137  80.367  84.984  1.00  0.00     0.468 C 
ATOM     21  O   UNL     1      98.035  81.275  85.187  1.00  0.00    -0.454 OA
ENDBRANCH  12  13
ENDBRANCH   2  11
TORSDOF 3
ENDMDL
MODEL 4
REMARK VINA RESULT:    -7.356     13.483     16.567
REMARK INTER + INTRA:          -8.980
REMARK INTER:                  -8.597
REMARK INTRA:                  -0.383
REMARK UNBOUND:                -0.334
REMARK SMILES O=C(/C=C/C=C/c1ccc2c(c1)OCO2)N1CCCCC1
REMARK SMILES IDX 3 1 4 2 2 3 1 4 16 5 17 6 21 7 18 8 20 9 19 10 5 11 6 12
REMARK SMILES IDX 7 13 12 14 8 15 11 16 9 17 13 18 10 19 14 20 15 21
REMARK H PARENT
REMARK Flexibility Score: inf
ROOT
ATOM      1  C   UNL     1      94.677  97.620  76.064  1.00  0.00     0.071 C 
ATOM      2  C   UNL     1      93.733  97.396  76.976  1.00  0.00     0.006 C 
ENDROOT
BRANCH   1   3
ATOM      3  C   UNL     1      95.351  98.934  76.068  1.00  0.00     0.246 C 
ATOM      4  O   UNL     1      96.149  99.161  76.978  1.00  0.00    -0.270 OA
ATOM      5  N   UNL     1      95.036  99.829  75.047  1.00  0.00    -0.339 N 
ATOM      6  C   UNL     1      95.684 101.143  75.028  1.00  0.00     0.120 C 
ATOM      7  C   UNL     1      94.057  99.610  73.971  1.00  0.00     0.120 C 
ATOM      8  C   UNL     1      96.336 101.424  73.678  1.00  0.00     0.022 C 
ATOM      9  C   UNL     1      94.673  99.885  72.600  1.00  0.00     0.022 C 
ATOM     10  C   UNL     1      95.331 101.261  72.542  1.00  0.00     0.004 C 
ENDBRANCH   1   3
BRANCH   2  11
ATOM     11  C   UNL     1      93.017  96.141  77.051  1.00  0.00     0.001 C 
ATOM     12  C   UNL     1      92.119  95.760  76.128  1.00  0.00     0.008 C 
BRANCH  12  13
ATOM     13  C   UNL     1      91.358  94.500  76.160  1.00  0.00    -0.022 A 
ATOM     14  C   UNL     1      91.291  93.722  75.012  1.00  0.00     0.058 A 
ATOM     15  C   UNL     1      90.723  94.122  77.345  1.00  0.00     0.012 A 
ATOM     16  C   UNL     1      90.567  92.550  75.091  1.00  0.00     0.166 A 
ATOM     17  C   UNL     1      89.996  92.930  77.397  1.00  0.00     0.051 A 
ATOM     18  O   UNL     1      90.383  91.656  74.081  1.00  0.00    -0.454 OA
ATOM     19  C   UNL     1      89.937  92.164  76.252  1.00  0.00     0.165 A 
ATOM     20  C   UNL     1      89.566  90.665  74.736  1.00  0.00     0.468 C 
ATOM     21  O   UNL     1      89.279  90.981  76.114  1.00  0.00    -0.454 OA
ENDBRANCH  12  13
ENDBRANCH   2  11
TORSDOF 3
ENDMDL
MODEL 5
REMARK VINA RESULT:    -6.831     17.971     18.631
REMARK INTER + INTRA:          -8.363
REMARK INTER:                  -8.022
REMARK INTRA:                  -0.341
REMARK UNBOUND:                -0.334
REMARK SMILES O=C(/C=C/C=C/c1ccc2c(c1)OCO2)N1CCCCC1
REMARK SMILES IDX 3 1 4 2 2 3 1 4 16 5 17 6 21 7 18 8 20 9 19 10 5 11 6 12
REMARK SMILES IDX 7 13 12 14 8 15 11 16 9 17 13 18 10 19 14 20 15 21
REMARK H PARENT
REMARK Flexibility Score: inf
ROOT
ATOM      1  C   UNL     1      86.429  69.938  71.991  1.00  0.00     0.071 C 
ATOM      2  C   UNL     1      87.550  70.085  71.287  1.00  0.00     0.006 C 
ENDROOT
BRANCH   1   3
ATOM      3  C   UNL     1      86.495  69.167  73.249  1.00  0.00     0.246 C 
ATOM      4  O   UNL     1      87.356  69.488  74.069  1.00  0.00    -0.270 OA
ATOM      5  N   UNL     1      85.583  68.127  73.422  1.00  0.00    -0.339 N 
ATOM      6  C   UNL     1      85.627  67.341  74.658  1.00  0.00     0.120 C 
ATOM      7  C   UNL     1      84.572  67.687  72.449  1.00  0.00     0.120 C 
ATOM      8  C   UNL     1      84.260  67.282  75.331  1.00  0.00     0.022 C 
ATOM      9  C   UNL     1      83.185  67.612  73.088  1.00  0.00     0.022 C 
ATOM     10  C   UNL     1      83.196  66.775  74.363  1.00  0.00     0.004 C 
ENDBRANCH   1   3
BRANCH   2  11
ATOM     11  C   UNL     1      87.585  70.823  70.042  1.00  0.00     0.001 C 
ATOM     12  C   UNL     1      88.648  71.547  69.657  1.00  0.00     0.008 C 
BRANCH  12  13
ATOM     13  C   UNL     1      88.734  72.322  68.408  1.00  0.00    -0.022 A 
ATOM     14  C   UNL     1      89.906  73.008  68.118  1.00  0.00     0.058 A 
ATOM     15  C   UNL     1      87.634  72.344  67.547  1.00  0.00     0.012 A 
ATOM     16  C   UNL     1      89.938  73.719  66.935  1.00  0.00     0.166 A 
ATOM     17  C   UNL     1      87.694  73.072  66.357  1.00  0.00     0.051 A 
ATOM     18  O   UNL     1      90.988  74.454  66.475  1.00  0.00    -0.454 OA
ATOM     19  C   UNL     1      88.862  73.750  66.078  1.00  0.00     0.165 A 
ATOM     20  C   UNL     1      90.451  74.951  65.232  1.00  0.00     0.468 C 
ATOM     21  O   UNL     1      89.103  74.508  64.974  1.00  0.00    -0.454 OA
ENDBRANCH  12  13
ENDBRANCH   2  11
TORSDOF 3
ENDMDL
MODEL 6
REMARK VINA RESULT:    -6.809      7.855     10.399
REMARK INTER + INTRA:          -8.337
REMARK INTER:                  -8.129
REMARK INTRA:                  -0.208
REMARK UNBOUND:                -0.334
REMARK SMILES O=C(/C=C/C=C/c1ccc2c(c1)OCO2)N1CCCCC1
REMARK SMILES IDX 3 1 4 2 2 3 1 4 16 5 17 6 21 7 18 8 20 9 19 10 5 11 6 12
REMARK SMILES IDX 7 13 12 14 8 15 11 16 9 17 13 18 10 19 14 20 15 21
REMARK H PARENT
REMARK Flexibility Score: inf
ROOT
ATOM      1  C   UNL     1      93.288  83.190  86.934  1.00  0.00     0.071 C 
ATOM      2  C   UNL     1      93.944  84.158  86.297  1.00  0.00     0.006 C 
ENDROOT
BRANCH   1   3
ATOM      3  C   UNL     1      93.444  81.806  86.444  1.00  0.00     0.246 C 
ATOM      4  O   UNL     1      94.201  81.062  87.069  1.00  0.00    -0.270 OA
ATOM      5  N   UNL     1      92.730  81.436  85.305  1.00  0.00    -0.339 N 
ATOM      6  C   UNL     1      92.868  80.070  84.791  1.00  0.00     0.120 C 
ATOM      7  C   UNL     1      91.854  82.307  84.508  1.00  0.00     0.120 C 
ATOM      8  C   UNL     1      91.509  79.403  84.610  1.00  0.00     0.022 C 
ATOM      9  C   UNL     1      90.480  81.670  84.300  1.00  0.00     0.022 C 
ATOM     10  C   UNL     1      90.593  80.256  83.738  1.00  0.00     0.004 C 
ENDBRANCH   1   3
BRANCH   2  11
ATOM     11  C   UNL     1      93.854  85.544  86.703  1.00  0.00     0.001 C 
ATOM     12  C   UNL     1      93.357  85.922  87.892  1.00  0.00     0.008 C 
BRANCH  12  13
ATOM     13  C   UNL     1      93.235  87.316  88.352  1.00  0.00    -0.022 A 
ATOM     14  C   UNL     1      94.080  88.280  87.817  1.00  0.00     0.058 A 
ATOM     15  C   UNL     1      92.273  87.631  89.314  1.00  0.00     0.012 A 
ATOM     16  C   UNL     1      93.927  89.571  88.279  1.00  0.00     0.166 A 
ATOM     17  C   UNL     1      92.140  88.946  89.764  1.00  0.00     0.051 A 
ATOM     18  O   UNL     1      94.655  90.652  87.882  1.00  0.00    -0.454 OA
ATOM     19  C   UNL     1      92.983  89.896  89.226  1.00  0.00     0.165 A 
ATOM     20  C   UNL     1      94.062  91.692  88.687  1.00  0.00     0.468 C 
ATOM     21  O   UNL     1      93.001  91.220  89.542  1.00  0.00    -0.454 OA
ENDBRANCH  12  13
ENDBRANCH   2  11
TORSDOF 3
ENDMDL
MODEL 7
REMARK VINA RESULT:    -6.551     13.463     17.021
REMARK INTER + INTRA:          -8.034
REMARK INTER:                  -7.631
REMARK INTRA:                  -0.403
REMARK UNBOUND:                -0.334
REMARK SMILES O=C(/C=C/C=C/c1ccc2c(c1)OCO2)N1CCCCC1
REMARK SMILES IDX 3 1 4 2 2 3 1 4 16 5 17 6 21 7 18 8 20 9 19 10 5 11 6 12
REMARK SMILES IDX 7 13 12 14 8 15 11 16 9 17 13 18 10 19 14 20 15 21
REMARK H PARENT
REMARK Flexibility Score: inf
ROOT
ATOM      1  C   UNL     1      95.465  98.141  74.890  1.00  0.00     0.071 C 
ATOM      2  C   UNL     1      94.783  98.283  76.025  1.00  0.00     0.006 C 
ENDROOT
BRANCH   1   3
ATOM      3  C   UNL     1      96.448  99.184  74.535  1.00  0.00     0.246 C 
ATOM      4  O   UNL     1      96.920  99.856  75.452  1.00  0.00    -0.270 OA
ATOM      5  N   UNL     1      96.770  99.340  73.188  1.00  0.00    -0.339 N 
ATOM      6  C   UNL     1      97.739 100.371  72.803  1.00  0.00     0.120 C 
ATOM      7  C   UNL     1      96.194  98.588  72.063  1.00  0.00     0.120 C 
ATOM      8  C   UNL     1      98.860  99.791  71.948  1.00  0.00     0.022 C 
ATOM      9  C   UNL     1      97.289  97.993  71.177  1.00  0.00     0.022 C 
ATOM     10  C   UNL     1      98.297  99.051  70.739  1.00  0.00     0.004 C 
ENDBRANCH   1   3
BRANCH   2  11
ATOM     11  C   UNL     1      93.799  97.314  76.458  1.00  0.00     0.001 C 
ATOM     12  C   UNL     1      93.520  96.200  75.762  1.00  0.00     0.008 C 
BRANCH  12  13
ATOM     13  C   UNL     1      92.525  95.188  76.152  1.00  0.00    -0.022 A 
ATOM     14  C   UNL     1      92.036  94.315  75.189  1.00  0.00     0.058 A 
ATOM     15  C   UNL     1      92.099  95.133  77.481  1.00  0.00     0.012 A 
ATOM     16  C   UNL     1      91.106  93.384  75.602  1.00  0.00     0.166 A 
ATOM     17  C   UNL     1      91.155  94.180  77.872  1.00  0.00     0.051 A 
ATOM     18  O   UNL     1      90.509  92.447  74.814  1.00  0.00    -0.454 OA
ATOM     19  C   UNL     1      90.677  93.318  76.908  1.00  0.00     0.165 A 
ATOM     20  C   UNL     1      89.658  91.785  75.771  1.00  0.00     0.468 C 
ATOM     21  O   UNL     1      89.759  92.332  77.102  1.00  0.00    -0.454 OA
ENDBRANCH  12  13
ENDBRANCH   2  11
TORSDOF 3
ENDMDL
MODEL 8
REMARK VINA RESULT:    -6.515      7.877     10.718
REMARK INTER + INTRA:          -7.992
REMARK INTER:                  -7.578
REMARK INTRA:                  -0.414
REMARK UNBOUND:                -0.334
REMARK SMILES O=C(/C=C/C=C/c1ccc2c(c1)OCO2)N1CCCCC1
REMARK SMILES IDX 3 1 4 2 2 3 1 4 16 5 17 6 21 7 18 8 20 9 19 10 5 11 6 12
REMARK SMILES IDX 7 13 12 14 8 15 11 16 9 17 13 18 10 19 14 20 15 21
REMARK H PARENT
REMARK Flexibility Score: inf
ROOT
ATOM      1  C   UNL     1      90.805  75.354  83.694  1.00  0.00     0.071 C 
ATOM      2  C   UNL     1      89.854  76.199  84.088  1.00  0.00     0.006 C 
ENDROOT
BRANCH   1   3
ATOM      3  C   UNL     1      90.409  73.972  83.357  1.00  0.00     0.246 C 
ATOM      4  O   UNL     1      89.960  73.271  84.264  1.00  0.00    -0.270 OA
ATOM      5  N   UNL     1      90.575  73.552  82.038  1.00  0.00    -0.339 N 
ATOM      6  C   UNL     1      90.196  72.183  81.674  1.00  0.00     0.120 C 
ATOM      7  C   UNL     1      91.148  74.344  80.939  1.00  0.00     0.120 C 
ATOM      8  C   UNL     1      89.247  72.167  80.481  1.00  0.00     0.022 C 
ATOM      9  C   UNL     1      90.226  74.348  79.720  1.00  0.00     0.022 C 
ATOM     10  C   UNL     1      89.838  72.933  79.301  1.00  0.00     0.004 C 
ENDBRANCH   1   3
BRANCH   2  11
ATOM     11  C   UNL     1      90.144  77.573  84.440  1.00  0.00     0.001 C 
ATOM     12  C   UNL     1      91.191  78.247  83.936  1.00  0.00     0.008 C 
BRANCH  12  13
ATOM     13  C   UNL     1      91.536  79.640  84.266  1.00  0.00    -0.022 A 
ATOM     14  C   UNL     1      92.746  79.906  84.893  1.00  0.00     0.058 A 
ATOM     15  C   UNL     1      90.636  80.657  83.938  1.00  0.00     0.012 A 
ATOM     16  C   UNL     1      93.025  81.227  85.180  1.00  0.00     0.166 A 
ATOM     17  C   UNL     1      90.943  81.985  84.241  1.00  0.00     0.051 A 
ATOM     18  O   UNL     1      94.150  81.690  85.790  1.00  0.00    -0.454 OA
ATOM     19  C   UNL     1      92.148  82.238  84.863  1.00  0.00     0.165 A 
ATOM     20  C   UNL     1      93.883  83.107  85.820  1.00  0.00     0.468 C 
ATOM     21  O   UNL     1      92.614  83.462  85.234  1.00  0.00    -0.454 OA
ENDBRANCH  12  13
ENDBRANCH   2  11
TORSDOF 3
ENDMDL
MODEL 9
REMARK VINA RESULT:    -6.462      7.922     10.591
REMARK INTER + INTRA:          -7.929
REMARK INTER:                  -7.795
REMARK INTRA:                  -0.134
REMARK UNBOUND:                -0.334
REMARK SMILES O=C(/C=C/C=C/c1ccc2c(c1)OCO2)N1CCCCC1
REMARK SMILES IDX 3 1 4 2 2 3 1 4 16 5 17 6 21 7 18 8 20 9 19 10 5 11 6 12
REMARK SMILES IDX 7 13 12 14 8 15 11 16 9 17 13 18 10 19 14 20 15 21
REMARK H PARENT
REMARK Flexibility Score: inf
ROOT
ATOM      1  C   UNL     1      94.021  83.886  87.757  1.00  0.00     0.071 C 
ATOM      2  C   UNL     1      93.171  84.780  87.257  1.00  0.00     0.006 C 
ENDROOT
BRANCH   1   3
ATOM      3  C   UNL     1      93.595  82.473  87.805  1.00  0.00     0.246 C 
ATOM      4  O   UNL     1      93.421  81.968  88.915  1.00  0.00    -0.270 OA
ATOM      5  N   UNL     1      93.422  81.805  86.593  1.00  0.00    -0.339 N 
ATOM      6  C   UNL     1      93.004  80.400  86.609  1.00  0.00     0.120 C 
ATOM      7  C   UNL     1      93.663  82.360  85.253  1.00  0.00     0.120 C 
ATOM      8  C   UNL     1      91.777  80.174  85.733  1.00  0.00     0.022 C 
ATOM      9  C   UNL     1      92.453  82.150  84.342  1.00  0.00     0.022 C 
ATOM     10  C   UNL     1      92.014  80.689  84.317  1.00  0.00     0.004 C 
ENDBRANCH   1   3
BRANCH   2  11
ATOM     11  C   UNL     1      93.499  86.187  87.169  1.00  0.00     0.001 C 
ATOM     12  C   UNL     1      93.509  86.999  88.239  1.00  0.00     0.008 C 
BRANCH  12  13
ATOM     13  C   UNL     1      93.827  88.437  88.205  1.00  0.00    -0.022 A 
ATOM     14  C   UNL     1      93.356  89.257  89.221  1.00  0.00     0.058 A 
ATOM     15  C   UNL     1      94.594  88.937  87.149  1.00  0.00     0.012 A 
ATOM     16  C   UNL     1      93.679  90.596  89.146  1.00  0.00     0.166 A 
ATOM     17  C   UNL     1      94.906  90.297  87.098  1.00  0.00     0.051 A 
ATOM     18  O   UNL     1      93.314  91.557  90.038  1.00  0.00    -0.454 OA
ATOM     19  C   UNL     1      94.434  91.103  88.112  1.00  0.00     0.165 A 
ATOM     20  C   UNL     1      93.923  92.724  89.450  1.00  0.00     0.468 C 
ATOM     21  O   UNL     1      94.636  92.443  88.228  1.00  0.00    -0.454 OA
ENDBRANCH  12  13
ENDBRANCH   2  11
TORSDOF 3
ENDMDL
MODEL 10
REMARK VINA RESULT:    -6.392     23.880     25.549
REMARK INTER + INTRA:          -7.847
REMARK INTER:                  -7.505
REMARK INTRA:                  -0.342
REMARK UNBOUND:                -0.334
REMARK SMILES O=C(/C=C/C=C/c1ccc2c(c1)OCO2)N1CCCCC1
REMARK SMILES IDX 3 1 4 2 2 3 1 4 16 5 17 6 21 7 18 8 20 9 19 10 5 11 6 12
REMARK SMILES IDX 7 13 12 14 8 15 11 16 9 17 13 18 10 19 14 20 15 21
REMARK H PARENT
REMARK Flexibility Score: inf
ROOT
ATOM      1  C   UNL     1      72.712  91.012  71.697  1.00  0.00     0.071 C 
ATOM      2  C   UNL     1      73.808  91.495  71.114  1.00  0.00     0.006 C 
ENDROOT
BRANCH   1   3
ATOM      3  C   UNL     1      71.792  91.967  72.347  1.00  0.00     0.246 C 
ATOM      4  O   UNL     1      70.907  92.468  71.651  1.00  0.00    -0.270 OA
ATOM      5  N   UNL     1      71.990  92.242  73.699  1.00  0.00    -0.339 N 
ATOM      6  C   UNL     1      71.095  93.190  74.370  1.00  0.00     0.120 C 
ATOM      7  C   UNL     1      73.060  91.699  74.549  1.00  0.00     0.120 C 
ATOM      8  C   UNL     1      70.491  92.587  75.634  1.00  0.00     0.022 C 
ATOM      9  C   UNL     1      72.494  91.088  75.830  1.00  0.00     0.022 C 
ATOM     10  C   UNL     1      71.580  92.064  76.565  1.00  0.00     0.004 C 
ENDBRANCH   1   3
BRANCH   2  11
ATOM     11  C   UNL     1      74.769  90.639  70.452  1.00  0.00     0.001 C 
ATOM     12  C   UNL     1      74.440  89.447  69.928  1.00  0.00     0.008 C 
BRANCH  12  13
ATOM     13  C   UNL     1      75.377  88.534  69.253  1.00  0.00    -0.022 A 
ATOM     14  C   UNL     1      75.137  87.167  69.294  1.00  0.00     0.058 A 
ATOM     15  C   UNL     1      76.483  89.069  68.587  1.00  0.00     0.012 A 
ATOM     16  C   UNL     1      76.043  86.353  68.647  1.00  0.00     0.166 A 
ATOM     17  C   UNL     1      77.385  88.221  67.940  1.00  0.00     0.051 A 
ATOM     18  O   UNL     1      75.985  84.995  68.574  1.00  0.00    -0.454 OA
ATOM     19  C   UNL     1      77.137  86.865  67.987  1.00  0.00     0.165 A 
ATOM     20  C   UNL     1      77.165  84.710  67.795  1.00  0.00     0.468 C 
ATOM     21  O   UNL     1      77.901  85.893  67.419  1.00  0.00    -0.454 OA
ENDBRANCH  12  13
ENDBRANCH   2  11
TORSDOF 3
ENDMDL
