MODEL 1
REMARK VINA RESULT:    -5.828      0.000      0.000
REMARK INTER + INTRA:         -10.136
REMARK INTER:                  -9.065
REMARK INTRA:                  -1.071
REMARK UNBOUND:                -1.071
REMARK SMILES COc1cc(CNC(=O)CCCCCC(C)C)ccc1O
REMARK SMILES IDX 10 1 8 2 7 3 9 5 6 6 5 7 3 8 20 9 4 10 19 11 18 12 2 13 1 14
REMARK SMILES IDX 21 15 11 17 12 18 13 19 14 20 15 21 16 22 17 23
REMARK H PARENT 7 4 21 16
REMARK Flexibility Score: inf
ROOT
ATOM      1  C   UNL     1      78.187  86.156  69.071  1.00  0.00     0.100 C 
ENDROOT
BRANCH   1   2
ATOM      2  C   UNL     1      77.972  85.767  67.662  1.00  0.00     0.220 C 
ATOM      3  N   UNL     1      78.255  84.493  67.268  1.00  0.00    -0.352 N 
ATOM      4  H   UNL     1      78.727  83.929  67.961  1.00  0.00     0.163 HD
ATOM      5  O   UNL     1      77.492  86.609  66.864  1.00  0.00    -0.275 OA
BRANCH   3   6
ATOM      6  C   UNL     1      77.935  83.937  65.993  1.00  0.00     0.151 C 
BRANCH   6   7
ATOM      7  C   UNL     1      76.679  83.140  66.001  1.00  0.00    -0.025 A 
ATOM      8  C   UNL     1      74.256  82.983  66.390  1.00  0.00     0.160 A 
ATOM      9  C   UNL     1      74.274  81.642  65.952  1.00  0.00     0.157 A 
ATOM     10  C   UNL     1      75.460  83.718  66.429  1.00  0.00     0.056 A 
ATOM     11  C   UNL     1      75.485  81.049  65.549  1.00  0.00     0.050 A 
ATOM     12  C   UNL     1      76.677  81.793  65.568  1.00  0.00     0.009 A 
BRANCH   8  13
ATOM     13  O   UNL     1      73.091  83.573  66.805  1.00  0.00    -0.493 OA
ATOM     14  C   UNL     1      73.208  84.988  67.044  1.00  0.00     0.278 C 
ENDBRANCH   8  13
BRANCH   9  15
ATOM     15  O   UNL     1      73.123  80.926  65.913  1.00  0.00    -0.504 OA
ATOM     16  H   UNL     1      73.074  80.444  65.084  1.00  0.00     0.293 HD
ENDBRANCH   9  15
ENDBRANCH   6   7
ENDBRANCH   3   6
ENDBRANCH   1   2
BRANCH   1  17
ATOM     17  C   UNL     1      77.791  85.065  70.102  1.00  0.00     0.010 C 
BRANCH  17  18
ATOM     18  C   UNL     1      76.342  84.556  69.868  1.00  0.00     0.001 C 
BRANCH  18  19
ATOM     19  C   UNL     1      75.295  85.226  70.796  1.00  0.00     0.000 C 
BRANCH  19  20
ATOM     20  C   UNL     1      74.652  86.485  70.145  1.00  0.00     0.003 C 
BRANCH  20  21
ATOM     21  C   UNL     1      75.014  87.842  70.832  1.00  0.00    -0.017 C 
ATOM     22  C   UNL     1      73.750  88.506  71.453  1.00  0.00     0.007 C 
ATOM     23  C   UNL     1      75.721  88.838  69.868  1.00  0.00     0.007 C 
ENDBRANCH  20  21
ENDBRANCH  19  20
ENDBRANCH  18  19
ENDBRANCH  17  18
ENDBRANCH   1  17
TORSDOF 10
ENDMDL
MODEL 2
REMARK VINA RESULT:    -5.646      1.643      2.799
REMARK INTER + INTRA:          -9.853
REMARK INTER:                  -8.649
REMARK INTRA:                  -1.204
REMARK UNBOUND:                -1.071
REMARK SMILES COc1cc(CNC(=O)CCCCCC(C)C)ccc1O
REMARK SMILES IDX 10 1 8 2 7 3 9 5 6 6 5 7 3 8 20 9 4 10 19 11 18 12 2 13 1 14
REMARK SMILES IDX 21 15 11 17 12 18 13 19 14 20 15 21 16 22 17 23
REMARK H PARENT 7 4 21 16
REMARK Flexibility Score: inf
ROOT
ATOM      1  C   UNL     1      76.851  87.320  65.488  1.00  0.00     0.100 C 
ENDROOT
BRANCH   1   2
ATOM      2  C   UNL     1      76.985  86.030  64.780  1.00  0.00     0.220 C 
ATOM      3  N   UNL     1      77.241  84.897  65.493  1.00  0.00    -0.352 N 
ATOM      4  H   UNL     1      77.456  85.049  66.468  1.00  0.00     0.163 HD
ATOM      5  O   UNL     1      76.817  85.998  63.536  1.00  0.00    -0.275 OA
BRANCH   3   6
ATOM      6  C   UNL     1      77.223  83.571  64.964  1.00  0.00     0.151 C 
BRANCH   6   7
ATOM      7  C   UNL     1      75.940  82.860  65.213  1.00  0.00    -0.025 A 
ATOM      8  C   UNL     1      73.682  82.813  66.186  1.00  0.00     0.160 A 
ATOM      9  C   UNL     1      73.472  81.533  65.631  1.00  0.00     0.157 A 
ATOM     10  C   UNL     1      74.921  83.460  65.990  1.00  0.00     0.056 A 
ATOM     11  C   UNL     1      74.489  80.915  64.879  1.00  0.00     0.050 A 
ATOM     12  C   UNL     1      75.711  81.575  64.667  1.00  0.00     0.009 A 
BRANCH   8  13
ATOM     13  O   UNL     1      72.713  83.423  66.937  1.00  0.00    -0.493 OA
ATOM     14  C   UNL     1      72.705  84.859  66.823  1.00  0.00     0.278 C 
ENDBRANCH   8  13
BRANCH   9  15
ATOM     15  O   UNL     1      72.286  80.901  65.815  1.00  0.00    -0.504 OA
ATOM     16  H   UNL     1      72.386  80.221  66.485  1.00  0.00     0.293 HD
ENDBRANCH   9  15
ENDBRANCH   6   7
ENDBRANCH   3   6
ENDBRANCH   1   2
BRANCH   1  17
ATOM     17  C   UNL     1      77.394  87.308  66.943  1.00  0.00     0.010 C 
BRANCH  17  18
ATOM     18  C   UNL     1      76.244  87.400  67.984  1.00  0.00     0.001 C 
BRANCH  18  19
ATOM     19  C   UNL     1      76.743  87.406  69.453  1.00  0.00     0.000 C 
BRANCH  19  20
ATOM     20  C   UNL     1      77.790  86.287  69.724  1.00  0.00     0.003 C 
BRANCH  20  21
ATOM     21  C   UNL     1      77.187  84.901  70.122  1.00  0.00    -0.017 C 
ATOM     22  C   UNL     1      77.157  83.936  68.900  1.00  0.00     0.007 C 
ATOM     23  C   UNL     1      75.766  85.017  70.746  1.00  0.00     0.007 C 
ENDBRANCH  20  21
ENDBRANCH  19  20
ENDBRANCH  18  19
ENDBRANCH  17  18
ENDBRANCH   1  17
TORSDOF 10
ENDMDL
MODEL 3
REMARK VINA RESULT:    -5.631      2.320      6.199
REMARK INTER + INTRA:          -9.829
REMARK INTER:                  -8.794
REMARK INTRA:                  -1.035
REMARK UNBOUND:                -1.071
REMARK SMILES COc1cc(CNC(=O)CCCCCC(C)C)ccc1O
REMARK SMILES IDX 10 1 8 2 7 3 9 5 6 6 5 7 3 8 20 9 4 10 19 11 18 12 2 13 1 14
REMARK SMILES IDX 21 15 11 17 12 18 13 19 14 20 15 21 16 22 17 23
REMARK H PARENT 7 4 21 16
REMARK Flexibility Score: inf
ROOT
ATOM      1  C   UNL     1      75.827  81.312  65.072  1.00  0.00     0.100 C 
ENDROOT
BRANCH   1   2
ATOM      2  C   UNL     1      76.481  82.634  65.171  1.00  0.00     0.220 C 
ATOM      3  N   UNL     1      77.538  82.796  66.016  1.00  0.00    -0.352 N 
ATOM      4  H   UNL     1      77.719  82.012  66.626  1.00  0.00     0.163 HD
ATOM      5  O   UNL     1      76.074  83.570  64.441  1.00  0.00    -0.275 OA
BRANCH   3   6
ATOM      6  C   UNL     1      78.365  83.958  66.083  1.00  0.00     0.151 C 
BRANCH   6   7
ATOM      7  C   UNL     1      77.933  84.923  67.130  1.00  0.00    -0.025 A 
ATOM      8  C   UNL     1      77.476  85.447  69.488  1.00  0.00     0.160 A 
ATOM      9  C   UNL     1      77.176  86.779  69.132  1.00  0.00     0.157 A 
ATOM     10  C   UNL     1      77.834  84.523  68.483  1.00  0.00     0.056 A 
ATOM     11  C   UNL     1      77.246  87.181  67.785  1.00  0.00     0.050 A 
ATOM     12  C   UNL     1      77.627  86.262  66.792  1.00  0.00     0.009 A 
BRANCH   8  13
ATOM     13  O   UNL     1      77.395  85.031  70.791  1.00  0.00    -0.493 OA
ATOM     14  C   UNL     1      76.194  84.294  71.093  1.00  0.00     0.278 C 
ENDBRANCH   8  13
BRANCH   9  15
ATOM     15  O   UNL     1      76.828  87.675  70.090  1.00  0.00    -0.504 OA
ATOM     16  H   UNL     1      76.033  88.140  69.820  1.00  0.00     0.293 HD
ENDBRANCH   9  15
ENDBRANCH   6   7
ENDBRANCH   3   6
ENDBRANCH   1   2
BRANCH   1  17
ATOM     17  C   UNL     1      74.769  81.206  63.941  1.00  0.00     0.010 C 
BRANCH  17  18
ATOM     18  C   UNL     1      73.445  80.574  64.453  1.00  0.00     0.001 C 
BRANCH  18  19
ATOM     19  C   UNL     1      72.182  81.142  63.754  1.00  0.00     0.000 C 
BRANCH  19  20
ATOM     20  C   UNL     1      71.538  82.309  64.558  1.00  0.00     0.003 C 
BRANCH  20  21
ATOM     21  C   UNL     1      71.928  82.361  66.072  1.00  0.00    -0.017 C 
ATOM     22  C   UNL     1      70.658  82.418  66.971  1.00  0.00     0.007 C 
ATOM     23  C   UNL     1      72.876  83.548  66.411  1.00  0.00     0.007 C 
ENDBRANCH  20  21
ENDBRANCH  19  20
ENDBRANCH  18  19
ENDBRANCH  17  18
ENDBRANCH   1  17
TORSDOF 10
ENDMDL
MODEL 4
REMARK VINA RESULT:    -5.514     21.953     25.008
REMARK INTER + INTRA:          -9.647
REMARK INTER:                  -8.447
REMARK INTRA:                  -1.200
REMARK UNBOUND:                -1.071
REMARK SMILES COc1cc(CNC(=O)CCCCCC(C)C)ccc1O
REMARK SMILES IDX 10 1 8 2 7 3 9 5 6 6 5 7 3 8 20 9 4 10 19 11 18 12 2 13 1 14
REMARK SMILES IDX 21 15 11 17 12 18 13 19 14 20 15 21 16 22 17 23
REMARK H PARENT 7 4 21 16
REMARK Flexibility Score: inf
ROOT
ATOM      1  C   UNL     1      95.456  94.713  81.283  1.00  0.00     0.100 C 
ENDROOT
BRANCH   1   2
ATOM      2  C   UNL     1      95.448  96.127  80.852  1.00  0.00     0.220 C 
ATOM      3  N   UNL     1      96.180  96.499  79.764  1.00  0.00    -0.352 N 
ATOM      4  H   UNL     1      96.794  95.785  79.401  1.00  0.00     0.163 HD
ATOM      5  O   UNL     1      94.731  96.949  81.473  1.00  0.00    -0.275 OA
BRANCH   3   6
ATOM      6  C   UNL     1      96.128  97.782  79.139  1.00  0.00     0.151 C 
BRANCH   6   7
ATOM      7  C   UNL     1      96.027  97.706  77.656  1.00  0.00    -0.025 A 
ATOM      8  C   UNL     1      96.790  98.411  75.428  1.00  0.00     0.160 A 
ATOM      9  C   UNL     1      95.880  97.511  74.834  1.00  0.00     0.157 A 
ATOM     10  C   UNL     1      96.844  98.516  76.834  1.00  0.00     0.056 A 
ATOM     11  C   UNL     1      95.043  96.719  75.642  1.00  0.00     0.050 A 
ATOM     12  C   UNL     1      95.119  96.811  77.042  1.00  0.00     0.009 A 
BRANCH   8  13
ATOM     13  O   UNL     1      97.599  99.206  74.659  1.00  0.00    -0.493 OA
ATOM     14  C   UNL     1      98.407 100.123  75.420  1.00  0.00     0.278 C 
ENDBRANCH   8  13
BRANCH   9  15
ATOM     15  O   UNL     1      95.818  97.404  73.483  1.00  0.00    -0.504 OA
ATOM     16  H   UNL     1      96.085  98.234  73.083  1.00  0.00     0.293 HD
ENDBRANCH   9  15
ENDBRANCH   6   7
ENDBRANCH   3   6
ENDBRANCH   1   2
BRANCH   1  17
ATOM     17  C   UNL     1      94.938  93.716  80.211  1.00  0.00     0.010 C 
BRANCH  17  18
ATOM     18  C   UNL     1      93.472  94.026  79.801  1.00  0.00     0.001 C 
BRANCH  18  19
ATOM     19  C   UNL     1      93.248  94.022  78.266  1.00  0.00     0.000 C 
BRANCH  19  20
ATOM     20  C   UNL     1      91.756  93.790  77.890  1.00  0.00     0.003 C 
BRANCH  20  21
ATOM     21  C   UNL     1      90.848  95.060  77.977  1.00  0.00    -0.017 C 
ATOM     22  C   UNL     1      89.431  94.770  77.399  1.00  0.00     0.007 C 
ATOM     23  C   UNL     1      91.471  96.298  77.270  1.00  0.00     0.007 C 
ENDBRANCH  20  21
ENDBRANCH  19  20
ENDBRANCH  18  19
ENDBRANCH  17  18
ENDBRANCH   1  17
TORSDOF 10
ENDMDL
MODEL 5
REMARK VINA RESULT:    -5.347      5.309      9.997
REMARK INTER + INTRA:          -9.388
REMARK INTER:                  -8.649
REMARK INTRA:                  -0.739
REMARK UNBOUND:                -1.071
REMARK SMILES COc1cc(CNC(=O)CCCCCC(C)C)ccc1O
REMARK SMILES IDX 10 1 8 2 7 3 9 5 6 6 5 7 3 8 20 9 4 10 19 11 18 12 2 13 1 14
REMARK SMILES IDX 21 15 11 17 12 18 13 19 14 20 15 21 16 22 17 23
REMARK H PARENT 7 4 21 16
REMARK Flexibility Score: inf
ROOT
ATOM      1  C   UNL     1      75.663  88.657  69.693  1.00  0.00     0.100 C 
ENDROOT
BRANCH   1   2
ATOM      2  C   UNL     1      75.053  89.424  70.799  1.00  0.00     0.220 C 
ATOM      3  N   UNL     1      75.345  90.747  70.938  1.00  0.00    -0.352 N 
ATOM      4  H   UNL     1      76.080  91.086  70.334  1.00  0.00     0.163 HD
ATOM      5  O   UNL     1      74.242  88.847  71.565  1.00  0.00    -0.275 OA
BRANCH   3   6
ATOM      6  C   UNL     1      74.700  91.641  71.846  1.00  0.00     0.151 C 
BRANCH   6   7
ATOM      7  C   UNL     1      75.655  92.391  72.705  1.00  0.00    -0.025 A 
ATOM      8  C   UNL     1      77.822  93.514  73.007  1.00  0.00     0.160 A 
ATOM      9  C   UNL     1      77.447  93.879  74.318  1.00  0.00     0.157 A 
ATOM     10  C   UNL     1      76.932  92.757  72.216  1.00  0.00     0.056 A 
ATOM     11  C   UNL     1      76.191  93.497  74.824  1.00  0.00     0.050 A 
ATOM     12  C   UNL     1      75.300  92.764  74.022  1.00  0.00     0.009 A 
BRANCH   8  13
ATOM     13  O   UNL     1      79.048  93.859  72.503  1.00  0.00    -0.493 OA
ATOM     14  C   UNL     1      79.050  95.103  71.776  1.00  0.00     0.278 C 
ENDBRANCH   8  13
BRANCH   9  15
ATOM     15  O   UNL     1      78.297  94.605  75.088  1.00  0.00    -0.504 OA
ATOM     16  H   UNL     1      78.245  95.530  74.837  1.00  0.00     0.293 HD
ENDBRANCH   9  15
ENDBRANCH   6   7
ENDBRANCH   3   6
ENDBRANCH   1   2
BRANCH   1  17
ATOM     17  C   UNL     1      76.059  87.203  70.065  1.00  0.00     0.010 C 
BRANCH  17  18
ATOM     18  C   UNL     1      77.510  86.873  69.620  1.00  0.00     0.001 C 
BRANCH  18  19
ATOM     19  C   UNL     1      77.936  85.416  69.940  1.00  0.00     0.000 C 
BRANCH  19  20
ATOM     20  C   UNL     1      76.798  84.393  69.653  1.00  0.00     0.003 C 
BRANCH  20  21
ATOM     21  C   UNL     1      76.777  83.821  68.198  1.00  0.00    -0.017 C 
ATOM     22  C   UNL     1      78.195  83.882  67.556  1.00  0.00     0.007 C 
ATOM     23  C   UNL     1      75.744  84.538  67.281  1.00  0.00     0.007 C 
ENDBRANCH  20  21
ENDBRANCH  19  20
ENDBRANCH  18  19
ENDBRANCH  17  18
ENDBRANCH   1  17
TORSDOF 10
ENDMDL
MODEL 6
REMARK VINA RESULT:    -5.343      2.570      6.052
REMARK INTER + INTRA:          -9.381
REMARK INTER:                  -8.261
REMARK INTRA:                  -1.119
REMARK UNBOUND:                -1.071
REMARK SMILES COc1cc(CNC(=O)CCCCCC(C)C)ccc1O
REMARK SMILES IDX 10 1 8 2 7 3 9 5 6 6 5 7 3 8 20 9 4 10 19 11 18 12 2 13 1 14
REMARK SMILES IDX 21 15 11 17 12 18 13 19 14 20 15 21 16 22 17 23
REMARK H PARENT 7 4 21 16
REMARK Flexibility Score: inf
ROOT
ATOM      1  C   UNL     1      74.749  80.881  63.336  1.00  0.00     0.100 C 
ENDROOT
BRANCH   1   2
ATOM      2  C   UNL     1      75.170  82.294  63.429  1.00  0.00     0.220 C 
ATOM      3  N   UNL     1      76.373  82.599  63.992  1.00  0.00    -0.352 N 
ATOM      4  H   UNL     1      76.843  81.822  64.436  1.00  0.00     0.163 HD
ATOM      5  O   UNL     1      74.427  83.184  62.946  1.00  0.00    -0.275 OA
BRANCH   3   6
ATOM      6  C   UNL     1      76.977  83.892  63.991  1.00  0.00     0.151 C 
BRANCH   6   7
ATOM      7  C   UNL     1      77.429  84.327  65.340  1.00  0.00    -0.025 A 
ATOM      8  C   UNL     1      77.664  86.082  67.047  1.00  0.00     0.160 A 
ATOM      9  C   UNL     1      78.229  85.140  67.934  1.00  0.00     0.157 A 
ATOM     10  C   UNL     1      77.285  85.674  65.751  1.00  0.00     0.056 A 
ATOM     11  C   UNL     1      78.402  83.805  67.526  1.00  0.00     0.050 A 
ATOM     12  C   UNL     1      78.000  83.400  66.242  1.00  0.00     0.009 A 
BRANCH   8  13
ATOM     13  O   UNL     1      77.505  87.391  67.417  1.00  0.00    -0.493 OA
ATOM     14  C   UNL     1      76.485  87.595  68.413  1.00  0.00     0.278 C 
ENDBRANCH   8  13
BRANCH   9  15
ATOM     15  O   UNL     1      78.599  85.522  69.182  1.00  0.00    -0.504 OA
ATOM     16  H   UNL     1      78.875  84.752  69.684  1.00  0.00     0.293 HD
ENDBRANCH   9  15
ENDBRANCH   6   7
ENDBRANCH   3   6
ENDBRANCH   1   2
BRANCH   1  17
ATOM     17  C   UNL     1      73.249  80.683  62.987  1.00  0.00     0.010 C 
BRANCH  17  18
ATOM     18  C   UNL     1      72.394  80.424  64.258  1.00  0.00     0.001 C 
BRANCH  18  19
ATOM     19  C   UNL     1      71.720  81.703  64.819  1.00  0.00     0.000 C 
BRANCH  19  20
ATOM     20  C   UNL     1      72.140  81.992  66.290  1.00  0.00     0.003 C 
BRANCH  20  21
ATOM     21  C   UNL     1      72.614  83.456  66.565  1.00  0.00    -0.017 C 
ATOM     22  C   UNL     1      72.095  84.425  65.462  1.00  0.00     0.007 C 
ATOM     23  C   UNL     1      74.160  83.577  66.698  1.00  0.00     0.007 C 
ENDBRANCH  20  21
ENDBRANCH  19  20
ENDBRANCH  18  19
ENDBRANCH  17  18
ENDBRANCH   1  17
TORSDOF 10
ENDMDL
MODEL 7
REMARK VINA RESULT:    -5.236      2.379      6.143
REMARK INTER + INTRA:          -9.214
REMARK INTER:                  -8.190
REMARK INTRA:                  -1.024
REMARK UNBOUND:                -1.071
REMARK SMILES COc1cc(CNC(=O)CCCCCC(C)C)ccc1O
REMARK SMILES IDX 10 1 8 2 7 3 9 5 6 6 5 7 3 8 20 9 4 10 19 11 18 12 2 13 1 14
REMARK SMILES IDX 21 15 11 17 12 18 13 19 14 20 15 21 16 22 17 23
REMARK H PARENT 7 4 21 16
REMARK Flexibility Score: inf
ROOT
ATOM      1  C   UNL     1      76.207  81.524  64.825  1.00  0.00     0.100 C 
ENDROOT
BRANCH   1   2
ATOM      2  C   UNL     1      76.981  82.748  65.119  1.00  0.00     0.220 C 
ATOM      3  N   UNL     1      77.538  82.908  66.353  1.00  0.00    -0.352 N 
ATOM      4  H   UNL     1      77.263  82.216  67.036  1.00  0.00     0.163 HD
ATOM      5  O   UNL     1      77.144  83.598  64.210  1.00  0.00    -0.275 OA
BRANCH   3   6
ATOM      6  C   UNL     1      78.446  83.948  66.716  1.00  0.00     0.151 C 
BRANCH   6   7
ATOM      7  C   UNL     1      77.837  84.969  67.610  1.00  0.00    -0.025 A 
ATOM      8  C   UNL     1      76.170  86.733  68.008  1.00  0.00     0.160 A 
ATOM      9  C   UNL     1      76.633  86.868  69.334  1.00  0.00     0.157 A 
ATOM     10  C   UNL     1      76.787  85.798  67.149  1.00  0.00     0.056 A 
ATOM     11  C   UNL     1      77.694  86.067  69.795  1.00  0.00     0.050 A 
ATOM     12  C   UNL     1      78.288  85.122  68.942  1.00  0.00     0.009 A 
BRANCH   8  13
ATOM     13  O   UNL     1      75.151  87.517  67.534  1.00  0.00    -0.493 OA
ATOM     14  C   UNL     1      75.584  88.549  66.627  1.00  0.00     0.278 C 
ENDBRANCH   8  13
BRANCH   9  15
ATOM     15  O   UNL     1      76.048  87.765  70.167  1.00  0.00    -0.504 OA
ATOM     16  H   UNL     1      76.586  87.868  70.956  1.00  0.00     0.293 HD
ENDBRANCH   9  15
ENDBRANCH   6   7
ENDBRANCH   3   6
ENDBRANCH   1   2
BRANCH   1  17
ATOM     17  C   UNL     1      75.366  81.598  63.522  1.00  0.00     0.010 C 
BRANCH  17  18
ATOM     18  C   UNL     1      74.203  80.567  63.532  1.00  0.00     0.001 C 
BRANCH  18  19
ATOM     19  C   UNL     1      72.801  81.222  63.649  1.00  0.00     0.000 C 
BRANCH  19  20
ATOM     20  C   UNL     1      72.232  81.137  65.095  1.00  0.00     0.003 C 
BRANCH  20  21
ATOM     21  C   UNL     1      71.934  82.516  65.769  1.00  0.00    -0.017 C 
ATOM     22  C   UNL     1      73.231  83.132  66.369  1.00  0.00     0.007 C 
ATOM     23  C   UNL     1      70.829  82.428  66.862  1.00  0.00     0.007 C 
ENDBRANCH  20  21
ENDBRANCH  19  20
ENDBRANCH  18  19
ENDBRANCH  17  18
ENDBRANCH   1  17
TORSDOF 10
ENDMDL
MODEL 8
REMARK VINA RESULT:    -5.192     10.833     12.718
REMARK INTER + INTRA:          -9.146
REMARK INTER:                  -7.737
REMARK INTRA:                  -1.409
REMARK UNBOUND:                -1.071
REMARK SMILES COc1cc(CNC(=O)CCCCCC(C)C)ccc1O
REMARK SMILES IDX 10 1 8 2 7 3 9 5 6 6 5 7 3 8 20 9 4 10 19 11 18 12 2 13 1 14
REMARK SMILES IDX 21 15 11 17 12 18 13 19 14 20 15 21 16 22 17 23
REMARK H PARENT 7 4 21 16
REMARK Flexibility Score: inf
ROOT
ATOM      1  C   UNL     1      67.706  84.362  70.746  1.00  0.00     0.100 C 
ENDROOT
BRANCH   1   2
ATOM      2  C   UNL     1      66.436  83.675  70.436  1.00  0.00     0.220 C 
ATOM      3  N   UNL     1      66.147  82.492  71.049  1.00  0.00    -0.352 N 
ATOM      4  H   UNL     1      66.904  82.097  71.588  1.00  0.00     0.163 HD
ATOM      5  O   UNL     1      65.628  84.218  69.643  1.00  0.00    -0.275 OA
BRANCH   3   6
ATOM      6  C   UNL     1      64.893  81.813  70.975  1.00  0.00     0.151 C 
BRANCH   6   7
ATOM      7  C   UNL     1      63.997  82.115  72.124  1.00  0.00    -0.025 A 
ATOM      8  C   UNL     1      62.379  83.596  73.234  1.00  0.00     0.160 A 
ATOM      9  C   UNL     1      62.240  82.658  74.279  1.00  0.00     0.157 A 
ATOM     10  C   UNL     1      63.270  83.327  72.173  1.00  0.00     0.056 A 
ATOM     11  C   UNL     1      62.979  81.461  74.253  1.00  0.00     0.050 A 
ATOM     12  C   UNL     1      63.846  81.188  73.182  1.00  0.00     0.009 A 
BRANCH   8  13
ATOM     13  O   UNL     1      61.684  84.777  73.250  1.00  0.00    -0.493 OA
ATOM     14  C   UNL     1      60.503  84.768  72.425  1.00  0.00     0.278 C 
ENDBRANCH   8  13
BRANCH   9  15
ATOM     15  O   UNL     1      61.388  82.907  75.305  1.00  0.00    -0.504 OA
ATOM     16  H   UNL     1      61.284  83.856  75.411  1.00  0.00     0.293 HD
ENDBRANCH   9  15
ENDBRANCH   6   7
ENDBRANCH   3   6
ENDBRANCH   1   2
BRANCH   1  17
ATOM     17  C   UNL     1      67.943  84.613  72.260  1.00  0.00     0.010 C 
BRANCH  17  18
ATOM     18  C   UNL     1      66.895  85.598  72.848  1.00  0.00     0.001 C 
BRANCH  18  19
ATOM     19  C   UNL     1      66.163  85.045  74.099  1.00  0.00     0.000 C 
BRANCH  19  20
ATOM     20  C   UNL     1      67.012  85.199  75.394  1.00  0.00     0.003 C 
BRANCH  20  21
ATOM     21  C   UNL     1      66.552  84.310  76.595  1.00  0.00    -0.017 C 
ATOM     22  C   UNL     1      65.112  83.766  76.363  1.00  0.00     0.007 C 
ATOM     23  C   UNL     1      66.630  85.052  77.961  1.00  0.00     0.007 C 
ENDBRANCH  20  21
ENDBRANCH  19  20
ENDBRANCH  18  19
ENDBRANCH  17  18
ENDBRANCH   1  17
TORSDOF 10
ENDMDL
MODEL 9
REMARK VINA RESULT:    -5.088     25.822     29.034
REMARK INTER + INTRA:          -8.984
REMARK INTER:                  -8.545
REMARK INTRA:                  -0.439
REMARK UNBOUND:                -1.071
REMARK SMILES COc1cc(CNC(=O)CCCCCC(C)C)ccc1O
REMARK SMILES IDX 10 1 8 2 7 3 9 5 6 6 5 7 3 8 20 9 4 10 19 11 18 12 2 13 1 14
REMARK SMILES IDX 21 15 11 17 12 18 13 19 14 20 15 21 16 22 17 23
REMARK H PARENT 7 4 21 16
REMARK Flexibility Score: inf
ROOT
ATOM      1  C   UNL     1      95.848  94.802  81.864  1.00  0.00     0.100 C 
ENDROOT
BRANCH   1   2
ATOM      2  C   UNL     1      95.517  96.018  82.635  1.00  0.00     0.220 C 
ATOM      3  N   UNL     1      96.371  96.449  83.606  1.00  0.00    -0.352 N 
ATOM      4  H   UNL     1      97.125  95.813  83.821  1.00  0.00     0.163 HD
ATOM      5  O   UNL     1      94.473  96.654  82.350  1.00  0.00    -0.275 OA
BRANCH   3   6
ATOM      6  C   UNL     1      96.264  97.690  84.303  1.00  0.00     0.151 C 
BRANCH   6   7
ATOM      7  C   UNL     1      97.166  97.778  85.483  1.00  0.00    -0.025 A 
ATOM      8  C   UNL     1      99.298  97.236  86.581  1.00  0.00     0.160 A 
ATOM      9  C   UNL     1      98.912  98.000  87.703  1.00  0.00     0.157 A 
ATOM     10  C   UNL     1      98.416  97.114  85.487  1.00  0.00     0.056 A 
ATOM     11  C   UNL     1      97.660  98.642  87.721  1.00  0.00     0.050 A 
ATOM     12  C   UNL     1      96.796  98.537  86.618  1.00  0.00     0.009 A 
BRANCH   8  13
ATOM     13  O   UNL     1     100.505  96.587  86.552  1.00  0.00    -0.493 OA
ATOM     14  C   UNL     1     101.575  97.372  85.994  1.00  0.00     0.278 C 
ENDBRANCH   8  13
BRANCH   9  15
ATOM     15  O   UNL     1      99.752  98.122  88.761  1.00  0.00    -0.504 OA
ATOM     16  H   UNL     1     100.318  97.348  88.811  1.00  0.00     0.293 HD
ENDBRANCH   9  15
ENDBRANCH   6   7
ENDBRANCH   3   6
ENDBRANCH   1   2
BRANCH   1  17
ATOM     17  C   UNL     1      95.505  94.891  80.353  1.00  0.00     0.010 C 
BRANCH  17  18
ATOM     18  C   UNL     1      94.244  94.054  80.002  1.00  0.00     0.001 C 
BRANCH  18  19
ATOM     19  C   UNL     1      93.580  94.471  78.663  1.00  0.00     0.000 C 
BRANCH  19  20
ATOM     20  C   UNL     1      92.026  94.434  78.740  1.00  0.00     0.003 C 
BRANCH  20  21
ATOM     21  C   UNL     1      91.300  95.598  77.990  1.00  0.00    -0.017 C 
ATOM     22  C   UNL     1      89.961  95.107  77.365  1.00  0.00     0.007 C 
ATOM     23  C   UNL     1      92.189  96.260  76.897  1.00  0.00     0.007 C 
ENDBRANCH  20  21
ENDBRANCH  19  20
ENDBRANCH  18  19
ENDBRANCH  17  18
ENDBRANCH   1  17
TORSDOF 10
ENDMDL
MODEL 10
REMARK VINA RESULT:    -5.085     24.451     26.741
REMARK INTER + INTRA:          -8.979
REMARK INTER:                  -8.384
REMARK INTRA:                  -0.595
REMARK UNBOUND:                -1.071
REMARK SMILES COc1cc(CNC(=O)CCCCCC(C)C)ccc1O
REMARK SMILES IDX 10 1 8 2 7 3 9 5 6 6 5 7 3 8 20 9 4 10 19 11 18 12 2 13 1 14
REMARK SMILES IDX 21 15 11 17 12 18 13 19 14 20 15 21 16 22 17 23
REMARK H PARENT 7 4 21 16
REMARK Flexibility Score: inf
ROOT
ATOM      1  C   UNL     1      97.715  83.381  80.099  1.00  0.00     0.100 C 
ENDROOT
BRANCH   1   2
ATOM      2  C   UNL     1      97.914  82.934  78.704  1.00  0.00     0.220 C 
ATOM      3  N   UNL     1      97.900  83.854  77.698  1.00  0.00    -0.352 N 
ATOM      4  H   UNL     1      97.617  84.783  77.975  1.00  0.00     0.163 HD
ATOM      5  O   UNL     1      98.134  81.719  78.480  1.00  0.00    -0.275 OA
BRANCH   3   6
ATOM      6  C   UNL     1      98.248  83.589  76.339  1.00  0.00     0.151 C 
BRANCH   6   7
ATOM      7  C   UNL     1      99.671  83.893  76.030  1.00  0.00    -0.025 A 
ATOM      8  C   UNL     1     102.042  83.239  76.037  1.00  0.00     0.160 A 
ATOM      9  C   UNL     1     102.374  84.444  75.381  1.00  0.00     0.157 A 
ATOM     10  C   UNL     1     100.696  82.980  76.374  1.00  0.00     0.056 A 
ATOM     11  C   UNL     1     101.366  85.371  75.058  1.00  0.00     0.050 A 
ATOM     12  C   UNL     1     100.025  85.096  75.374  1.00  0.00     0.009 A 
BRANCH   8  13
ATOM     13  O   UNL     1     103.010  82.332  76.379  1.00  0.00    -0.493 OA
ATOM     14  C   UNL     1     103.029  82.000  77.780  1.00  0.00     0.278 C 
ENDBRANCH   8  13
BRANCH   9  15
ATOM     15  O   UNL     1     103.665  84.703  75.055  1.00  0.00    -0.504 OA
ATOM     16  H   UNL     1     104.104  85.125  75.796  1.00  0.00     0.293 HD
ENDBRANCH   9  15
ENDBRANCH   6   7
ENDBRANCH   3   6
ENDBRANCH   1   2
BRANCH   1  17
ATOM     17  C   UNL     1      98.945  83.163  81.021  1.00  0.00     0.010 C 
BRANCH  17  18
ATOM     18  C   UNL     1      98.799  81.872  81.873  1.00  0.00     0.001 C 
BRANCH  18  19
ATOM     19  C   UNL     1      98.161  82.122  83.265  1.00  0.00     0.000 C 
BRANCH  19  20
ATOM     20  C   UNL     1      97.899  83.634  83.530  1.00  0.00     0.003 C 
BRANCH  20  21
ATOM     21  C   UNL     1      96.820  83.936  84.620  1.00  0.00    -0.017 C 
ATOM     22  C   UNL     1      97.160  85.246  85.390  1.00  0.00     0.007 C 
ATOM     23  C   UNL     1      96.628  82.762  85.623  1.00  0.00     0.007 C 
ENDBRANCH  20  21
ENDBRANCH  19  20
ENDBRANCH  18  19
ENDBRANCH  17  18
ENDBRANCH   1  17
TORSDOF 10
ENDMDL
