MODEL 1
REMARK VINA RESULT:    -5.258      0.000      0.000
REMARK INTER + INTRA:         -10.673
REMARK INTER:                  -8.485
REMARK INTRA:                  -2.188
REMARK UNBOUND:                -2.188
REMARK SMILES COc1cc(CNC(=O)CCCCC/C=C/C(C)C)ccc1O
REMARK SMILES IDX 11 1 10 2 8 3 7 4 9 6 6 7 5 8 3 9 22 10 4 11 21 12 20 13
REMARK SMILES IDX 2 14 1 15 23 16 12 18 13 19 14 20 15 21 16 22 17 23 18 24
REMARK SMILES IDX 19 25
REMARK H PARENT 7 5 23 17
REMARK Flexibility Score: inf
ROOT
ATOM      1  C   UNL     1      72.574  83.256  65.615  1.00  0.00     0.010 C 
ENDROOT
BRANCH   1   2
ATOM      2  C   UNL     1      73.273  81.872  65.633  1.00  0.00     0.100 C 
BRANCH   2   3
ATOM      3  C   UNL     1      74.745  81.943  65.588  1.00  0.00     0.220 C 
ATOM      4  N   UNL     1      75.355  82.931  64.876  1.00  0.00    -0.352 N 
ATOM      5  H   UNL     1      74.725  83.523  64.352  1.00  0.00     0.163 HD
ATOM      6  O   UNL     1      75.403  81.103  66.247  1.00  0.00    -0.275 OA
BRANCH   4   7
ATOM      7  C   UNL     1      76.760  83.171  64.826  1.00  0.00     0.151 C 
BRANCH   7   8
ATOM      8  C   UNL     1      77.217  84.112  65.882  1.00  0.00    -0.025 A 
ATOM      9  C   UNL     1      77.491  86.406  66.726  1.00  0.00     0.160 A 
ATOM     10  C   UNL     1      78.139  85.905  67.875  1.00  0.00     0.157 A 
ATOM     11  C   UNL     1      77.043  85.508  65.735  1.00  0.00     0.056 A 
ATOM     12  C   UNL     1      78.302  84.517  68.040  1.00  0.00     0.050 A 
ATOM     13  C   UNL     1      77.835  83.626  67.056  1.00  0.00     0.009 A 
BRANCH   9  14
ATOM     14  O   UNL     1      77.249  87.748  66.597  1.00  0.00    -0.493 OA
ATOM     15  C   UNL     1      75.870  88.077  66.358  1.00  0.00     0.278 C 
ENDBRANCH   9  14
BRANCH  10  16
ATOM     16  O   UNL     1      78.610  86.736  68.838  1.00  0.00    -0.504 OA
ATOM     17  H   UNL     1      77.941  86.849  69.518  1.00  0.00     0.293 HD
ENDBRANCH  10  16
ENDBRANCH   7   8
ENDBRANCH   4   7
ENDBRANCH   2   3
ENDBRANCH   1   2
BRANCH   1  18
ATOM     18  C   UNL     1      72.355  83.791  67.054  1.00  0.00     0.001 C 
BRANCH  18  19
ATOM     19  C   UNL     1      73.273  84.983  67.422  1.00  0.00     0.004 C 
BRANCH  19  20
ATOM     20  C   UNL     1      74.530  84.511  68.204  1.00  0.00     0.027 C 
BRANCH  20  21
ATOM     21  C   UNL     1      74.854  85.346  69.348  1.00  0.00    -0.031 C 
ATOM     22  C   UNL     1      74.476  86.633  69.429  1.00  0.00    -0.028 C 
BRANCH  22  23
ATOM     23  C   UNL     1      74.781  87.497  70.566  1.00  0.00     0.005 C 
ATOM     24  C   UNL     1      75.925  88.480  70.203  1.00  0.00     0.012 C 
ATOM     25  C   UNL     1      73.499  88.234  71.040  1.00  0.00     0.012 C 
ENDBRANCH  22  23
ENDBRANCH  20  21
ENDBRANCH  19  20
ENDBRANCH  18  19
ENDBRANCH   1  18
TORSDOF 11
ENDMDL
MODEL 2
REMARK VINA RESULT:    -5.135      2.344      5.267
REMARK INTER + INTRA:         -10.475
REMARK INTER:                  -9.337
REMARK INTRA:                  -1.138
REMARK UNBOUND:                -2.188
REMARK SMILES COc1cc(CNC(=O)CCCCC/C=C/C(C)C)ccc1O
REMARK SMILES IDX 11 1 10 2 8 3 7 4 9 6 6 7 5 8 3 9 22 10 4 11 21 12 20 13
REMARK SMILES IDX 2 14 1 15 23 16 12 18 13 19 14 20 15 21 16 22 17 23 18 24
REMARK SMILES IDX 19 25
REMARK H PARENT 7 5 23 17
REMARK Flexibility Score: inf
ROOT
ATOM      1  C   UNL     1      76.407  87.894  69.313  1.00  0.00     0.010 C 
ENDROOT
BRANCH   1   2
ATOM      2  C   UNL     1      77.639  86.957  69.396  1.00  0.00     0.100 C 
BRANCH   2   3
ATOM      3  C   UNL     1      77.941  86.249  68.138  1.00  0.00     0.220 C 
ATOM      4  N   UNL     1      78.111  84.898  68.144  1.00  0.00    -0.352 N 
ATOM      5  H   UNL     1      78.088  84.475  69.062  1.00  0.00     0.163 HD
ATOM      6  O   UNL     1      77.992  86.916  67.077  1.00  0.00    -0.275 OA
BRANCH   4   7
ATOM      7  C   UNL     1      78.310  84.082  66.991  1.00  0.00     0.151 C 
BRANCH   7   8
ATOM      8  C   UNL     1      77.096  83.308  66.623  1.00  0.00    -0.025 A 
ATOM      9  C   UNL     1      74.657  82.995  66.697  1.00  0.00     0.160 A 
ATOM     10  C   UNL     1      74.789  81.797  65.961  1.00  0.00     0.157 A 
ATOM     11  C   UNL     1      75.810  83.736  67.029  1.00  0.00     0.056 A 
ATOM     12  C   UNL     1      76.061  81.371  65.537  1.00  0.00     0.050 A 
ATOM     13  C   UNL     1      77.205  82.126  65.856  1.00  0.00     0.009 A 
BRANCH   9  14
ATOM     14  O   UNL     1      73.417  83.465  67.039  1.00  0.00    -0.493 OA
ATOM     15  C   UNL     1      72.915  84.490  66.165  1.00  0.00     0.278 C 
ENDBRANCH   9  14
BRANCH  10  16
ATOM     16  O   UNL     1      73.708  81.041  65.645  1.00  0.00    -0.504 OA
ATOM     17  H   UNL     1      73.014  81.190  66.292  1.00  0.00     0.293 HD
ENDBRANCH  10  16
ENDBRANCH   7   8
ENDBRANCH   4   7
ENDBRANCH   2   3
ENDBRANCH   1   2
BRANCH   1  18
ATOM     18  C   UNL     1      75.326  87.490  70.348  1.00  0.00     0.001 C 
BRANCH  18  19
ATOM     19  C   UNL     1      74.665  86.119  70.055  1.00  0.00     0.004 C 
BRANCH  19  20
ATOM     20  C   UNL     1      73.153  86.278  69.731  1.00  0.00     0.027 C 
BRANCH  20  21
ATOM     21  C   UNL     1      72.396  85.043  69.855  1.00  0.00    -0.031 C 
ATOM     22  C   UNL     1      71.063  85.032  70.031  1.00  0.00    -0.028 C 
BRANCH  22  23
ATOM     23  C   UNL     1      70.273  83.809  70.154  1.00  0.00     0.005 C 
ATOM     24  C   UNL     1      68.997  84.075  70.996  1.00  0.00     0.012 C 
ATOM     25  C   UNL     1      69.943  83.240  68.747  1.00  0.00     0.012 C 
ENDBRANCH  22  23
ENDBRANCH  20  21
ENDBRANCH  19  20
ENDBRANCH  18  19
ENDBRANCH   1  18
TORSDOF 11
ENDMDL
MODEL 3
REMARK VINA RESULT:    -5.093     24.275     26.915
REMARK INTER + INTRA:         -10.407
REMARK INTER:                  -9.693
REMARK INTRA:                  -0.714
REMARK UNBOUND:                -2.188
REMARK SMILES COc1cc(CNC(=O)CCCCC/C=C/C(C)C)ccc1O
REMARK SMILES IDX 11 1 10 2 8 3 7 4 9 6 6 7 5 8 3 9 22 10 4 11 21 12 20 13
REMARK SMILES IDX 2 14 1 15 23 16 12 18 13 19 14 20 15 21 16 22 17 23 18 24
REMARK SMILES IDX 19 25
REMARK H PARENT 7 5 23 17
REMARK Flexibility Score: inf
ROOT
ATOM      1  C   UNL     1      97.047  83.015  84.650  1.00  0.00     0.010 C 
ENDROOT
BRANCH   1   2
ATOM      2  C   UNL     1      96.418  84.328  85.185  1.00  0.00     0.100 C 
BRANCH   2   3
ATOM      3  C   UNL     1      95.543  84.140  86.357  1.00  0.00     0.220 C 
ATOM      4  N   UNL     1      94.766  83.025  86.451  1.00  0.00    -0.352 N 
ATOM      5  H   UNL     1      94.798  82.420  85.642  1.00  0.00     0.163 HD
ATOM      6  O   UNL     1      95.568  85.004  87.264  1.00  0.00    -0.275 OA
BRANCH   4   7
ATOM      7  C   UNL     1      93.952  82.673  87.568  1.00  0.00     0.151 C 
BRANCH   7   8
ATOM      8  C   UNL     1      92.615  82.165  87.164  1.00  0.00    -0.025 A 
ATOM      9  C   UNL     1      91.225  80.636  85.830  1.00  0.00     0.160 A 
ATOM     10  C   UNL     1      90.061  81.236  86.358  1.00  0.00     0.157 A 
ATOM     11  C   UNL     1      92.491  81.110  86.230  1.00  0.00     0.056 A 
ATOM     12  C   UNL     1      90.172  82.274  87.301  1.00  0.00     0.050 A 
ATOM     13  C   UNL     1      91.440  82.728  87.709  1.00  0.00     0.009 A 
BRANCH   9  14
ATOM     14  O   UNL     1      91.129  79.568  84.979  1.00  0.00    -0.493 OA
ATOM     15  C   UNL     1      91.548  78.319  85.554  1.00  0.00     0.278 C 
ENDBRANCH   9  14
BRANCH  10  16
ATOM     16  O   UNL     1      88.824  80.829  85.978  1.00  0.00    -0.504 OA
ATOM     17  H   UNL     1      88.487  81.420  85.300  1.00  0.00     0.293 HD
ENDBRANCH  10  16
ENDBRANCH   7   8
ENDBRANCH   4   7
ENDBRANCH   2   3
ENDBRANCH   1   2
BRANCH   1  18
ATOM     18  C   UNL     1      97.794  83.257  83.314  1.00  0.00     0.001 C 
BRANCH  18  19
ATOM     19  C   UNL     1      98.613  82.035  82.827  1.00  0.00     0.004 C 
BRANCH  19  20
ATOM     20  C   UNL     1      99.862  82.476  82.014  1.00  0.00     0.027 C 
BRANCH  20  21
ATOM     21  C   UNL     1      99.555  82.911  80.662  1.00  0.00    -0.031 C 
ATOM     22  C   UNL     1      98.747  82.210  79.848  1.00  0.00    -0.028 C 
BRANCH  22  23
ATOM     23  C   UNL     1      98.414  82.622  78.486  1.00  0.00     0.005 C 
ATOM     24  C   UNL     1      97.414  83.808  78.513  1.00  0.00     0.012 C 
ATOM     25  C   UNL     1      99.708  82.958  77.696  1.00  0.00     0.012 C 
ENDBRANCH  22  23
ENDBRANCH  20  21
ENDBRANCH  19  20
ENDBRANCH  18  19
ENDBRANCH   1  18
TORSDOF 11
ENDMDL
MODEL 4
REMARK VINA RESULT:    -4.884     25.499     28.310
REMARK INTER + INTRA:         -10.070
REMARK INTER:                  -9.044
REMARK INTRA:                  -1.026
REMARK UNBOUND:                -2.188
REMARK SMILES COc1cc(CNC(=O)CCCCC/C=C/C(C)C)ccc1O
REMARK SMILES IDX 11 1 10 2 8 3 7 4 9 6 6 7 5 8 3 9 22 10 4 11 21 12 20 13
REMARK SMILES IDX 2 14 1 15 23 16 12 18 13 19 14 20 15 21 16 22 17 23 18 24
REMARK SMILES IDX 19 25
REMARK H PARENT 7 5 23 17
REMARK Flexibility Score: inf
ROOT
ATOM      1  C   UNL     1      97.429  83.261  77.706  1.00  0.00     0.010 C 
ENDROOT
BRANCH   1   2
ATOM      2  C   UNL     1      97.702  83.932  79.077  1.00  0.00     0.100 C 
BRANCH   2   3
ATOM      3  C   UNL     1      98.169  83.000  80.119  1.00  0.00     0.220 C 
ATOM      4  N   UNL     1      98.238  83.412  81.416  1.00  0.00    -0.352 N 
ATOM      5  H   UNL     1      98.023  84.389  81.559  1.00  0.00     0.163 HD
ATOM      6  O   UNL     1      98.456  81.826  79.784  1.00  0.00    -0.275 OA
BRANCH   4   7
ATOM      7  C   UNL     1      98.578  82.589  82.531  1.00  0.00     0.151 C 
BRANCH   7   8
ATOM      8  C   UNL     1      98.150  83.176  83.826  1.00  0.00    -0.025 A 
ATOM      9  C   UNL     1      98.448  83.444  86.253  1.00  0.00     0.160 A 
ATOM     10  C   UNL     1      97.294  84.257  86.304  1.00  0.00     0.157 A 
ATOM     11  C   UNL     1      98.861  82.903  85.018  1.00  0.00     0.056 A 
ATOM     12  C   UNL     1      96.589  84.549  85.122  1.00  0.00     0.050 A 
ATOM     13  C   UNL     1      97.019  84.021  83.891  1.00  0.00     0.009 A 
BRANCH   9  14
ATOM     14  O   UNL     1      99.191  83.225  87.382  1.00  0.00    -0.493 OA
ATOM     15  C   UNL     1     100.329  84.093  87.514  1.00  0.00     0.278 C 
ENDBRANCH   9  14
BRANCH  10  16
ATOM     16  O   UNL     1      96.847  84.773  87.476  1.00  0.00    -0.504 OA
ATOM     17  H   UNL     1      96.077  85.322  87.310  1.00  0.00     0.293 HD
ENDBRANCH  10  16
ENDBRANCH   7   8
ENDBRANCH   4   7
ENDBRANCH   2   3
ENDBRANCH   1   2
BRANCH   1  18
ATOM     18  C   UNL     1      98.283  83.908  76.586  1.00  0.00     0.001 C 
BRANCH  18  19
ATOM     19  C   UNL     1      99.382  82.973  76.022  1.00  0.00     0.004 C 
BRANCH  19  20
ATOM     20  C   UNL     1     100.768  83.280  76.656  1.00  0.00     0.027 C 
BRANCH  20  21
ATOM     21  C   UNL     1     101.125  82.384  77.743  1.00  0.00    -0.031 C 
ATOM     22  C   UNL     1     102.403  82.138  78.082  1.00  0.00    -0.028 C 
BRANCH  22  23
ATOM     23  C   UNL     1     102.794  81.248  79.171  1.00  0.00     0.005 C 
ATOM     24  C   UNL     1     104.323  81.341  79.419  1.00  0.00     0.012 C 
ATOM     25  C   UNL     1     101.969  81.566  80.448  1.00  0.00     0.012 C 
ENDBRANCH  22  23
ENDBRANCH  20  21
ENDBRANCH  19  20
ENDBRANCH  18  19
ENDBRANCH   1  18
TORSDOF 11
ENDMDL
MODEL 5
REMARK VINA RESULT:    -4.871     19.495     21.756
REMARK INTER + INTRA:         -10.049
REMARK INTER:                  -8.519
REMARK INTRA:                  -1.530
REMARK UNBOUND:                -2.188
REMARK SMILES COc1cc(CNC(=O)CCCCC/C=C/C(C)C)ccc1O
REMARK SMILES IDX 11 1 10 2 8 3 7 4 9 6 6 7 5 8 3 9 22 10 4 11 21 12 20 13
REMARK SMILES IDX 2 14 1 15 23 16 12 18 13 19 14 20 15 21 16 22 17 23 18 24
REMARK SMILES IDX 19 25
REMARK H PARENT 7 5 23 17
REMARK Flexibility Score: inf
ROOT
ATOM      1  C   UNL     1      84.504  64.271  75.478  1.00  0.00     0.010 C 
ENDROOT
BRANCH   1   2
ATOM      2  C   UNL     1      85.934  63.842  75.058  1.00  0.00     0.100 C 
BRANCH   2   3
ATOM      3  C   UNL     1      86.858  64.969  74.836  1.00  0.00     0.220 C 
ATOM      4  N   UNL     1      87.125  65.387  73.567  1.00  0.00    -0.352 N 
ATOM      5  H   UNL     1      86.707  64.822  72.841  1.00  0.00     0.163 HD
ATOM      6  O   UNL     1      87.347  65.545  75.836  1.00  0.00    -0.275 OA
BRANCH   4   7
ATOM      7  C   UNL     1      87.919  66.519  73.217  1.00  0.00     0.151 C 
BRANCH   7   8
ATOM      8  C   UNL     1      87.151  67.547  72.468  1.00  0.00    -0.025 A 
ATOM      9  C   UNL     1      87.076  69.639  71.177  1.00  0.00     0.160 A 
ATOM     10  C   UNL     1      85.671  69.532  71.086  1.00  0.00     0.157 A 
ATOM     11  C   UNL     1      87.803  68.652  71.874  1.00  0.00     0.056 A 
ATOM     12  C   UNL     1      85.013  68.428  71.658  1.00  0.00     0.050 A 
ATOM     13  C   UNL     1      85.748  67.437  72.335  1.00  0.00     0.009 A 
BRANCH   9  14
ATOM     14  O   UNL     1      87.735  70.663  70.549  1.00  0.00    -0.493 OA
ATOM     15  C   UNL     1      89.152  70.460  70.423  1.00  0.00     0.278 C 
ENDBRANCH   9  14
BRANCH  10  16
ATOM     16  O   UNL     1      84.932  70.475  70.449  1.00  0.00    -0.504 OA
ATOM     17  H   UNL     1      85.433  70.827  69.710  1.00  0.00     0.293 HD
ENDBRANCH  10  16
ENDBRANCH   7   8
ENDBRANCH   4   7
ENDBRANCH   2   3
ENDBRANCH   1   2
BRANCH   1  18
ATOM     18  C   UNL     1      83.717  64.846  74.273  1.00  0.00     0.001 C 
BRANCH  18  19
ATOM     19  C   UNL     1      82.974  66.169  74.588  1.00  0.00     0.004 C 
BRANCH  19  20
ATOM     20  C   UNL     1      81.707  66.333  73.702  1.00  0.00     0.027 C 
BRANCH  20  21
ATOM     21  C   UNL     1      81.660  65.418  72.575  1.00  0.00    -0.031 C 
ATOM     22  C   UNL     1      82.232  65.704  71.392  1.00  0.00    -0.028 C 
BRANCH  22  23
ATOM     23  C   UNL     1      82.207  64.804  70.242  1.00  0.00     0.005 C 
ATOM     24  C   UNL     1      82.352  65.610  68.924  1.00  0.00     0.012 C 
ATOM     25  C   UNL     1      83.303  63.713  70.390  1.00  0.00     0.012 C 
ENDBRANCH  22  23
ENDBRANCH  20  21
ENDBRANCH  19  20
ENDBRANCH  18  19
ENDBRANCH   1  18
TORSDOF 11
ENDMDL
MODEL 6
REMARK VINA RESULT:    -4.791      7.260     11.133
REMARK INTER + INTRA:          -9.921
REMARK INTER:                  -9.193
REMARK INTRA:                  -0.728
REMARK UNBOUND:                -2.188
REMARK SMILES COc1cc(CNC(=O)CCCCC/C=C/C(C)C)ccc1O
REMARK SMILES IDX 11 1 10 2 8 3 7 4 9 6 6 7 5 8 3 9 22 10 4 11 21 12 20 13
REMARK SMILES IDX 2 14 1 15 23 16 12 18 13 19 14 20 15 21 16 22 17 23 18 24
REMARK SMILES IDX 19 25
REMARK H PARENT 7 5 23 17
REMARK Flexibility Score: inf
ROOT
ATOM      1  C   UNL     1      74.936  91.611  71.870  1.00  0.00     0.010 C 
ENDROOT
BRANCH   1   2
ATOM      2  C   UNL     1      76.384  92.087  71.584  1.00  0.00     0.100 C 
BRANCH   2   3
ATOM      3  C   UNL     1      76.846  93.171  72.472  1.00  0.00     0.220 C 
ATOM      4  N   UNL     1      77.357  92.871  73.698  1.00  0.00    -0.352 N 
ATOM      5  H   UNL     1      77.312  91.892  73.946  1.00  0.00     0.163 HD
ATOM      6  O   UNL     1      76.792  94.350  72.050  1.00  0.00    -0.275 OA
BRANCH   4   7
ATOM      7  C   UNL     1      77.925  93.808  74.611  1.00  0.00     0.151 C 
BRANCH   7   8
ATOM      8  C   UNL     1      77.281  93.766  75.950  1.00  0.00    -0.025 A 
ATOM      9  C   UNL     1      75.482  92.980  77.430  1.00  0.00     0.160 A 
ATOM     10  C   UNL     1      76.028  93.733  78.493  1.00  0.00     0.157 A 
ATOM     11  C   UNL     1      76.106  93.010  76.167  1.00  0.00     0.056 A 
ATOM     12  C   UNL     1      77.206  94.475  78.293  1.00  0.00     0.050 A 
ATOM     13  C   UNL     1      77.835  94.484  77.034  1.00  0.00     0.009 A 
BRANCH   9  14
ATOM     14  O   UNL     1      74.386  92.185  77.637  1.00  0.00    -0.493 OA
ATOM     15  C   UNL     1      73.149  92.760  77.183  1.00  0.00     0.278 C 
ENDBRANCH   9  14
BRANCH  10  16
ATOM     16  O   UNL     1      75.442  93.754  79.716  1.00  0.00    -0.504 OA
ATOM     17  H   UNL     1      75.758  93.010  80.234  1.00  0.00     0.293 HD
ENDBRANCH  10  16
ENDBRANCH   7   8
ENDBRANCH   4   7
ENDBRANCH   2   3
ENDBRANCH   1   2
BRANCH   1  18
ATOM     18  C   UNL     1      74.447  90.622  70.782  1.00  0.00     0.001 C 
BRANCH  18  19
ATOM     19  C   UNL     1      74.894  89.158  71.025  1.00  0.00     0.004 C 
BRANCH  19  20
ATOM     20  C   UNL     1      76.040  88.747  70.059  1.00  0.00     0.027 C 
BRANCH  20  21
ATOM     21  C   UNL     1      76.420  87.349  70.165  1.00  0.00    -0.031 C 
ATOM     22  C   UNL     1      77.464  86.834  69.491  1.00  0.00    -0.028 C 
BRANCH  22  23
ATOM     23  C   UNL     1      77.876  85.436  69.580  1.00  0.00     0.005 C 
ATOM     24  C   UNL     1      76.830  84.618  70.385  1.00  0.00     0.012 C 
ATOM     25  C   UNL     1      78.113  84.854  68.160  1.00  0.00     0.012 C 
ENDBRANCH  22  23
ENDBRANCH  20  21
ENDBRANCH  19  20
ENDBRANCH  18  19
ENDBRANCH   1  18
TORSDOF 11
ENDMDL
MODEL 7
REMARK VINA RESULT:    -4.709      3.439      5.856
REMARK INTER + INTRA:          -9.788
REMARK INTER:                  -8.534
REMARK INTRA:                  -1.253
REMARK UNBOUND:                -2.188
REMARK SMILES COc1cc(CNC(=O)CCCCC/C=C/C(C)C)ccc1O
REMARK SMILES IDX 11 1 10 2 8 3 7 4 9 6 6 7 5 8 3 9 22 10 4 11 21 12 20 13
REMARK SMILES IDX 2 14 1 15 23 16 12 18 13 19 14 20 15 21 16 22 17 23 18 24
REMARK SMILES IDX 19 25
REMARK H PARENT 7 5 23 17
REMARK Flexibility Score: inf
ROOT
ATOM      1  C   UNL     1      75.515  81.982  64.206  1.00  0.00     0.010 C 
ENDROOT
BRANCH   1   2
ATOM      2  C   UNL     1      74.618  80.790  63.782  1.00  0.00     0.100 C 
BRANCH   2   3
ATOM      3  C   UNL     1      73.188  80.975  64.091  1.00  0.00     0.220 C 
ATOM      4  N   UNL     1      72.621  82.207  63.965  1.00  0.00    -0.352 N 
ATOM      5  H   UNL     1      73.268  82.947  63.728  1.00  0.00     0.163 HD
ATOM      6  O   UNL     1      72.516  79.971  64.427  1.00  0.00    -0.275 OA
BRANCH   4   7
ATOM      7  C   UNL     1      71.236  82.505  64.137  1.00  0.00     0.151 C 
BRANCH   7   8
ATOM      8  C   UNL     1      70.928  83.028  65.493  1.00  0.00    -0.025 A 
ATOM      9  C   UNL     1      69.295  83.626  67.232  1.00  0.00     0.160 A 
ATOM     10  C   UNL     1      70.344  84.078  68.061  1.00  0.00     0.157 A 
ATOM     11  C   UNL     1      69.593  83.114  65.953  1.00  0.00     0.056 A 
ATOM     12  C   UNL     1      71.677  83.982  67.621  1.00  0.00     0.050 A 
ATOM     13  C   UNL     1      71.968  83.451  66.351  1.00  0.00     0.009 A 
BRANCH   9  14
ATOM     14  O   UNL     1      68.002  83.634  67.684  1.00  0.00    -0.493 OA
ATOM     15  C   UNL     1      67.023  83.341  66.673  1.00  0.00     0.278 C 
ENDBRANCH   9  14
BRANCH  10  16
ATOM     16  O   UNL     1      70.097  84.604  69.287  1.00  0.00    -0.504 OA
ATOM     17  H   UNL     1      70.858  85.114  69.575  1.00  0.00     0.293 HD
ENDBRANCH  10  16
ENDBRANCH   7   8
ENDBRANCH   4   7
ENDBRANCH   2   3
ENDBRANCH   1   2
BRANCH   1  18
ATOM     18  C   UNL     1      76.519  81.561  65.309  1.00  0.00     0.001 C 
BRANCH  18  19
ATOM     19  C   UNL     1      76.901  82.711  66.275  1.00  0.00     0.004 C 
BRANCH  19  20
ATOM     20  C   UNL     1      75.641  83.465  66.785  1.00  0.00     0.027 C 
BRANCH  20  21
ATOM     21  C   UNL     1      75.872  84.237  67.994  1.00  0.00    -0.031 C 
ATOM     22  C   UNL     1      76.874  83.957  68.846  1.00  0.00    -0.028 C 
BRANCH  22  23
ATOM     23  C   UNL     1      77.136  84.717  70.065  1.00  0.00     0.005 C 
ATOM     24  C   UNL     1      77.128  86.239  69.762  1.00  0.00     0.012 C 
ATOM     25  C   UNL     1      76.114  84.331  71.169  1.00  0.00     0.012 C 
ENDBRANCH  22  23
ENDBRANCH  20  21
ENDBRANCH  19  20
ENDBRANCH  18  19
ENDBRANCH   1  18
TORSDOF 11
ENDMDL
MODEL 8
REMARK VINA RESULT:    -4.673     25.442     27.980
REMARK INTER + INTRA:          -9.730
REMARK INTER:                  -8.425
REMARK INTRA:                  -1.305
REMARK UNBOUND:                -2.188
REMARK SMILES COc1cc(CNC(=O)CCCCC/C=C/C(C)C)ccc1O
REMARK SMILES IDX 11 1 10 2 8 3 7 4 9 6 6 7 5 8 3 9 22 10 4 11 21 12 20 13
REMARK SMILES IDX 2 14 1 15 23 16 12 18 13 19 14 20 15 21 16 22 17 23 18 24
REMARK SMILES IDX 19 25
REMARK H PARENT 7 5 23 17
REMARK Flexibility Score: inf
ROOT
ATOM      1  C   UNL     1     100.020  78.729  84.272  1.00  0.00     0.010 C 
ENDROOT
BRANCH   1   2
ATOM      2  C   UNL     1      99.086  79.255  83.152  1.00  0.00     0.100 C 
BRANCH   2   3
ATOM      3  C   UNL     1      99.746  80.166  82.198  1.00  0.00     0.220 C 
ATOM      4  N   UNL     1      99.461  81.497  82.223  1.00  0.00    -0.352 N 
ATOM      5  H   UNL     1      98.733  81.760  82.874  1.00  0.00     0.163 HD
ATOM      6  O   UNL     1     100.594  79.688  81.408  1.00  0.00    -0.275 OA
BRANCH   4   7
ATOM      7  C   UNL     1     100.095  82.497  81.427  1.00  0.00     0.151 C 
BRANCH   7   8
ATOM      8  C   UNL     1      99.292  82.873  80.235  1.00  0.00    -0.025 A 
ATOM      9  C   UNL     1      99.119  83.266  77.813  1.00  0.00     0.160 A 
ATOM     10  C   UNL     1      97.768  83.645  77.972  1.00  0.00     0.157 A 
ATOM     11  C   UNL     1      99.872  82.892  78.945  1.00  0.00     0.056 A 
ATOM     12  C   UNL     1      97.176  83.614  79.248  1.00  0.00     0.050 A 
ATOM     13  C   UNL     1      97.930  83.221  80.370  1.00  0.00     0.009 A 
BRANCH   9  14
ATOM     14  O   UNL     1      99.679  83.208  76.565  1.00  0.00    -0.493 OA
ATOM     15  C   UNL     1     100.476  82.034  76.332  1.00  0.00     0.278 C 
ENDBRANCH   9  14
BRANCH  10  16
ATOM     16  O   UNL     1      97.017  84.039  76.913  1.00  0.00    -0.504 OA
ATOM     17  H   UNL     1      96.108  83.759  77.045  1.00  0.00     0.293 HD
ENDBRANCH  10  16
ENDBRANCH   7   8
ENDBRANCH   4   7
ENDBRANCH   2   3
ENDBRANCH   1   2
BRANCH   1  18
ATOM     18  C   UNL     1      99.958  79.639  85.526  1.00  0.00     0.001 C 
BRANCH  18  19
ATOM     19  C   UNL     1     101.010  80.777  85.522  1.00  0.00     0.004 C 
BRANCH  19  20
ATOM     20  C   UNL     1     100.459  82.060  86.205  1.00  0.00     0.027 C 
BRANCH  20  21
ATOM     21  C   UNL     1      99.037  82.270  85.994  1.00  0.00    -0.031 C 
ATOM     22  C   UNL     1      98.561  82.987  84.960  1.00  0.00    -0.028 C 
BRANCH  22  23
ATOM     23  C   UNL     1      97.138  83.211  84.718  1.00  0.00     0.005 C 
ATOM     24  C   UNL     1      96.285  82.365  85.700  1.00  0.00     0.012 C 
ATOM     25  C   UNL     1      96.811  84.727  84.806  1.00  0.00     0.012 C 
ENDBRANCH  22  23
ENDBRANCH  20  21
ENDBRANCH  19  20
ENDBRANCH  18  19
ENDBRANCH   1  18
TORSDOF 11
ENDMDL
MODEL 9
REMARK VINA RESULT:    -4.619     23.284     25.523
REMARK INTER + INTRA:          -9.642
REMARK INTER:                  -7.577
REMARK INTRA:                  -2.065
REMARK UNBOUND:                -2.188
REMARK SMILES COc1cc(CNC(=O)CCCCC/C=C/C(C)C)ccc1O
REMARK SMILES IDX 11 1 10 2 8 3 7 4 9 6 6 7 5 8 3 9 22 10 4 11 21 12 20 13
REMARK SMILES IDX 2 14 1 15 23 16 12 18 13 19 14 20 15 21 16 22 17 23 18 24
REMARK SMILES IDX 19 25
REMARK H PARENT 7 5 23 17
REMARK Flexibility Score: inf
ROOT
ATOM      1  C   UNL     1      64.068  63.351  77.606  1.00  0.00     0.010 C 
ENDROOT
BRANCH   1   2
ATOM      2  C   UNL     1      63.454  64.772  77.684  1.00  0.00     0.100 C 
BRANCH   2   3
ATOM      3  C   UNL     1      62.886  65.109  79.002  1.00  0.00     0.220 C 
ATOM      4  N   UNL     1      62.353  66.344  79.215  1.00  0.00    -0.352 N 
ATOM      5  H   UNL     1      62.456  66.987  78.442  1.00  0.00     0.163 HD
ATOM      6  O   UNL     1      62.874  64.224  79.890  1.00  0.00    -0.275 OA
BRANCH   4   7
ATOM      7  C   UNL     1      61.688  66.767  80.405  1.00  0.00     0.151 C 
BRANCH   7   8
ATOM      8  C   UNL     1      62.566  67.566  81.298  1.00  0.00    -0.025 A 
ATOM      9  C   UNL     1      63.623  69.704  81.899  1.00  0.00     0.160 A 
ATOM     10  C   UNL     1      64.286  69.073  82.974  1.00  0.00     0.157 A 
ATOM     11  C   UNL     1      62.776  68.946  81.065  1.00  0.00     0.056 A 
ATOM     12  C   UNL     1      64.071  67.706  83.226  1.00  0.00     0.050 A 
ATOM     13  C   UNL     1      63.209  66.960  82.400  1.00  0.00     0.009 A 
BRANCH   9  14
ATOM     14  O   UNL     1      63.756  71.053  81.699  1.00  0.00    -0.493 OA
ATOM     15  C   UNL     1      64.284  71.406  80.409  1.00  0.00     0.278 C 
ENDBRANCH   9  14
BRANCH  10  16
ATOM     16  O   UNL     1      65.130  69.761  83.783  1.00  0.00    -0.504 OA
ATOM     17  H   UNL     1      64.737  69.848  84.655  1.00  0.00     0.293 HD
ENDBRANCH  10  16
ENDBRANCH   7   8
ENDBRANCH   4   7
ENDBRANCH   2   3
ENDBRANCH   1   2
BRANCH   1  18
ATOM     18  C   UNL     1      65.449  63.375  76.902  1.00  0.00     0.001 C 
BRANCH  18  19
ATOM     19  C   UNL     1      66.648  63.269  77.878  1.00  0.00     0.004 C 
BRANCH  19  20
ATOM     20  C   UNL     1      66.175  62.957  79.325  1.00  0.00     0.027 C 
BRANCH  20  21
ATOM     21  C   UNL     1      66.382  64.053  80.257  1.00  0.00    -0.031 C 
ATOM     22  C   UNL     1      66.575  65.319  79.846  1.00  0.00    -0.028 C 
BRANCH  22  23
ATOM     23  C   UNL     1      66.781  66.442  80.756  1.00  0.00     0.005 C 
ATOM     24  C   UNL     1      68.290  66.601  81.083  1.00  0.00     0.012 C 
ATOM     25  C   UNL     1      66.168  67.737  80.158  1.00  0.00     0.012 C 
ENDBRANCH  22  23
ENDBRANCH  20  21
ENDBRANCH  19  20
ENDBRANCH  18  19
ENDBRANCH   1  18
TORSDOF 11
ENDMDL
MODEL 10
REMARK VINA RESULT:    -4.566      2.336      4.594
REMARK INTER + INTRA:          -9.556
REMARK INTER:                  -7.686
REMARK INTRA:                  -1.870
REMARK UNBOUND:                -2.188
REMARK SMILES COc1cc(CNC(=O)CCCCC/C=C/C(C)C)ccc1O
REMARK SMILES IDX 11 1 10 2 8 3 7 4 9 6 6 7 5 8 3 9 22 10 4 11 21 12 20 13
REMARK SMILES IDX 2 14 1 15 23 16 12 18 13 19 14 20 15 21 16 22 17 23 18 24
REMARK SMILES IDX 19 25
REMARK H PARENT 7 5 23 17
REMARK Flexibility Score: inf
ROOT
ATOM      1  C   UNL     1      74.734  84.531  65.420  1.00  0.00     0.010 C 
ENDROOT
BRANCH   1   2
ATOM      2  C   UNL     1      73.279  84.535  65.955  1.00  0.00     0.100 C 
BRANCH   2   3
ATOM      3  C   UNL     1      73.170  84.826  67.397  1.00  0.00     0.220 C 
ATOM      4  N   UNL     1      74.260  85.269  68.083  1.00  0.00    -0.352 N 
ATOM      5  H   UNL     1      75.114  85.297  67.544  1.00  0.00     0.163 HD
ATOM      6  O   UNL     1      72.052  84.694  67.948  1.00  0.00    -0.275 OA
BRANCH   4   7
ATOM      7  C   UNL     1      74.269  85.677  69.450  1.00  0.00     0.151 C 
BRANCH   7   8
ATOM      8  C   UNL     1      74.481  87.139  69.609  1.00  0.00    -0.025 A 
ATOM      9  C   UNL     1      74.937  89.350  68.633  1.00  0.00     0.160 A 
ATOM     10  C   UNL     1      74.937  89.919  69.925  1.00  0.00     0.157 A 
ATOM     11  C   UNL     1      74.719  87.965  68.486  1.00  0.00     0.056 A 
ATOM     12  C   UNL     1      74.684  89.110  71.048  1.00  0.00     0.050 A 
ATOM     13  C   UNL     1      74.447  87.732  70.891  1.00  0.00     0.009 A 
BRANCH   9  14
ATOM     14  O   UNL     1      75.095  90.142  67.527  1.00  0.00    -0.493 OA
ATOM     15  C   UNL     1      73.924  90.233  66.698  1.00  0.00     0.278 C 
ENDBRANCH   9  14
BRANCH  10  16
ATOM     16  O   UNL     1      75.171  91.242  70.113  1.00  0.00    -0.504 OA
ATOM     17  H   UNL     1      75.105  91.701  69.271  1.00  0.00     0.293 HD
ENDBRANCH  10  16
ENDBRANCH   7   8
ENDBRANCH   4   7
ENDBRANCH   2   3
ENDBRANCH   1   2
BRANCH   1  18
ATOM     18  C   UNL     1      75.266  83.085  65.255  1.00  0.00     0.001 C 
BRANCH  18  19
ATOM     19  C   UNL     1      76.023  82.553  66.498  1.00  0.00     0.004 C 
BRANCH  19  20
ATOM     20  C   UNL     1      77.563  82.645  66.306  1.00  0.00     0.027 C 
BRANCH  20  21
ATOM     21  C   UNL     1      78.123  83.932  66.683  1.00  0.00    -0.031 C 
ATOM     22  C   UNL     1      77.761  84.571  67.809  1.00  0.00    -0.028 C 
BRANCH  22  23
ATOM     23  C   UNL     1      78.309  85.862  68.219  1.00  0.00     0.005 C 
ATOM     24  C   UNL     1      77.852  86.975  67.239  1.00  0.00     0.012 C 
ATOM     25  C   UNL     1      77.914  86.171  69.688  1.00  0.00     0.012 C 
ENDBRANCH  22  23
ENDBRANCH  20  21
ENDBRANCH  19  20
ENDBRANCH  18  19
ENDBRANCH   1  18
TORSDOF 11
ENDMDL
