MODEL 1
REMARK VINA RESULT:    -5.462      0.000      0.000
REMARK INTER + INTRA:         -11.061
REMARK INTER:                  -8.815
REMARK INTRA:                  -2.246
REMARK UNBOUND:                -2.246
REMARK SMILES COc1cc(CNC(=O)CCCCC/C=C/C(C)C)ccc1O
REMARK SMILES IDX 11 1 10 2 8 3 7 4 9 6 6 7 5 8 3 9 22 10 4 11 21 12 20 13
REMARK SMILES IDX 2 14 1 15 23 16 12 18 13 19 14 20 15 21 16 22 17 23 18 24
REMARK SMILES IDX 19 25
REMARK H PARENT 7 5 23 17
REMARK Flexibility Score: inf
ROOT
ATOM      1  C   UNL     1      94.431  96.903  75.406  1.00  0.00     0.010 C 
ENDROOT
BRANCH   1   2
ATOM      2  C   UNL     1      94.339  98.221  76.216  1.00  0.00     0.100 C 
BRANCH   2   3
ATOM      3  C   UNL     1      95.468  98.437  77.141  1.00  0.00     0.220 C 
ATOM      4  N   UNL     1      95.787  97.479  78.055  1.00  0.00    -0.352 N 
ATOM      5  H   UNL     1      95.155  96.691  78.078  1.00  0.00     0.163 HD
ATOM      6  O   UNL     1      96.135  99.493  77.031  1.00  0.00    -0.275 OA
BRANCH   4   7
ATOM      7  C   UNL     1      96.907  97.516  78.939  1.00  0.00     0.151 C 
BRANCH   7   8
ATOM      8  C   UNL     1      96.519  97.328  80.361  1.00  0.00    -0.025 A 
ATOM      9  C   UNL     1      97.128  96.846  82.695  1.00  0.00     0.160 A 
ATOM     10  C   UNL     1      95.766  96.916  83.063  1.00  0.00     0.157 A 
ATOM     11  C   UNL     1      97.492  97.043  81.347  1.00  0.00     0.056 A 
ATOM     12  C   UNL     1      94.792  97.215  82.093  1.00  0.00     0.050 A 
ATOM     13  C   UNL     1      95.166  97.430  80.754  1.00  0.00     0.009 A 
BRANCH   9  14
ATOM     14  O   UNL     1      98.092  96.642  83.645  1.00  0.00    -0.493 OA
ATOM     15  C   UNL     1      98.727  97.846  84.106  1.00  0.00     0.278 C 
ENDBRANCH   9  14
BRANCH  10  16
ATOM     16  O   UNL     1      95.371  96.704  84.343  1.00  0.00    -0.504 OA
ATOM     17  H   UNL     1      95.935  97.204  84.939  1.00  0.00     0.293 HD
ENDBRANCH  10  16
ENDBRANCH   7   8
ENDBRANCH   4   7
ENDBRANCH   2   3
ENDBRANCH   1   2
BRANCH   1  18
ATOM     18  C   UNL     1      93.641  95.764  76.100  1.00  0.00     0.001 C 
BRANCH  18  19
ATOM     19  C   UNL     1      92.399  96.256  76.885  1.00  0.00     0.004 C 
BRANCH  19  20
ATOM     20  C   UNL     1      92.341  95.628  78.306  1.00  0.00     0.027 C 
BRANCH  20  21
ATOM     21  C   UNL     1      93.563  94.944  78.692  1.00  0.00    -0.031 C 
ATOM     22  C   UNL     1      93.617  94.110  79.746  1.00  0.00    -0.028 C 
BRANCH  22  23
ATOM     23  C   UNL     1      94.828  93.403  80.157  1.00  0.00     0.005 C 
ATOM     24  C   UNL     1      96.021  93.809  79.252  1.00  0.00     0.012 C 
ATOM     25  C   UNL     1      95.115  93.660  81.662  1.00  0.00     0.012 C 
ENDBRANCH  22  23
ENDBRANCH  20  21
ENDBRANCH  19  20
ENDBRANCH  18  19
ENDBRANCH   1  18
TORSDOF 11
ENDMDL
MODEL 2
REMARK VINA RESULT:    -5.217      2.364      4.745
REMARK INTER + INTRA:         -10.666
REMARK INTER:                  -9.258
REMARK INTRA:                  -1.408
REMARK UNBOUND:                -2.246
REMARK SMILES COc1cc(CNC(=O)CCCCC/C=C/C(C)C)ccc1O
REMARK SMILES IDX 11 1 10 2 8 3 7 4 9 6 6 7 5 8 3 9 22 10 4 11 21 12 20 13
REMARK SMILES IDX 2 14 1 15 23 16 12 18 13 19 14 20 15 21 16 22 17 23 18 24
REMARK SMILES IDX 19 25
REMARK H PARENT 7 5 23 17
REMARK Flexibility Score: inf
ROOT
ATOM      1  C   UNL     1      95.806  93.763  79.446  1.00  0.00     0.010 C 
ENDROOT
BRANCH   1   2
ATOM      2  C   UNL     1      95.183  93.510  80.844  1.00  0.00     0.100 C 
BRANCH   2   3
ATOM      3  C   UNL     1      95.493  94.555  81.837  1.00  0.00     0.220 C 
ATOM      4  N   UNL     1      94.838  95.748  81.793  1.00  0.00    -0.352 N 
ATOM      5  H   UNL     1      94.213  95.857  81.006  1.00  0.00     0.163 HD
ATOM      6  O   UNL     1      96.335  94.297  82.730  1.00  0.00    -0.275 OA
BRANCH   4   7
ATOM      7  C   UNL     1      94.970  96.803  82.745  1.00  0.00     0.151 C 
BRANCH   7   8
ATOM      8  C   UNL     1      95.320  98.102  82.114  1.00  0.00    -0.025 A 
ATOM      9  C   UNL     1      96.113  99.390  80.175  1.00  0.00     0.160 A 
ATOM     10  C   UNL     1      96.037 100.578  80.934  1.00  0.00     0.157 A 
ATOM     11  C   UNL     1      95.764  98.162  80.772  1.00  0.00     0.056 A 
ATOM     12  C   UNL     1      95.581 100.533  82.264  1.00  0.00     0.050 A 
ATOM     13  C   UNL     1      95.215  99.305  82.847  1.00  0.00     0.009 A 
BRANCH   9  14
ATOM     14  O   UNL     1      96.472  99.434  78.854  1.00  0.00    -0.493 OA
ATOM     15  C   UNL     1      97.845  99.090  78.606  1.00  0.00     0.278 C 
ENDBRANCH   9  14
BRANCH  10  16
ATOM     16  O   UNL     1      96.391 101.776  80.405  1.00  0.00    -0.504 OA
ATOM     17  H   UNL     1      97.082 102.170  80.943  1.00  0.00     0.293 HD
ENDBRANCH  10  16
ENDBRANCH   7   8
ENDBRANCH   4   7
ENDBRANCH   2   3
ENDBRANCH   1   2
BRANCH   1  18
ATOM     18  C   UNL     1      94.716  94.131  78.407  1.00  0.00     0.001 C 
BRANCH  18  19
ATOM     19  C   UNL     1      94.502  95.656  78.241  1.00  0.00     0.004 C 
BRANCH  19  20
ATOM     20  C   UNL     1      93.060  96.074  78.641  1.00  0.00     0.027 C 
BRANCH  20  21
ATOM     21  C   UNL     1      92.054  95.072  78.332  1.00  0.00    -0.031 C 
ATOM     22  C   UNL     1      91.386  95.060  77.165  1.00  0.00    -0.028 C 
BRANCH  22  23
ATOM     23  C   UNL     1      90.374  94.064  76.822  1.00  0.00     0.005 C 
ATOM     24  C   UNL     1      91.052  92.752  76.344  1.00  0.00     0.012 C 
ATOM     25  C   UNL     1      89.421  93.831  78.025  1.00  0.00     0.012 C 
ENDBRANCH  22  23
ENDBRANCH  20  21
ENDBRANCH  19  20
ENDBRANCH  18  19
ENDBRANCH   1  18
TORSDOF 11
ENDMDL
MODEL 3
REMARK VINA RESULT:    -5.068      6.100     10.103
REMARK INTER + INTRA:         -10.425
REMARK INTER:                  -9.721
REMARK INTRA:                  -0.704
REMARK UNBOUND:                -2.246
REMARK SMILES COc1cc(CNC(=O)CCCCC/C=C/C(C)C)ccc1O
REMARK SMILES IDX 11 1 10 2 8 3 7 4 9 6 6 7 5 8 3 9 22 10 4 11 21 12 20 13
REMARK SMILES IDX 2 14 1 15 23 16 12 18 13 19 14 20 15 21 16 22 17 23 18 24
REMARK SMILES IDX 19 25
REMARK H PARENT 7 5 23 17
REMARK Flexibility Score: inf
ROOT
ATOM      1  C   UNL     1      95.362  98.612  74.309  1.00  0.00     0.010 C 
ENDROOT
BRANCH   1   2
ATOM      2  C   UNL     1      93.907  99.109  74.505  1.00  0.00     0.100 C 
BRANCH   2   3
ATOM      3  C   UNL     1      93.401  99.938  73.395  1.00  0.00     0.220 C 
ATOM      4  N   UNL     1      92.092  99.856  73.030  1.00  0.00    -0.352 N 
ATOM      5  H   UNL     1      91.560  99.152  73.521  1.00  0.00     0.163 HD
ATOM      6  O   UNL     1      94.193 100.734  72.838  1.00  0.00    -0.275 OA
BRANCH   4   7
ATOM      7  C   UNL     1      91.454 100.667  72.044  1.00  0.00     0.151 C 
BRANCH   7   8
ATOM      8  C   UNL     1      90.566  99.883  71.147  1.00  0.00    -0.025 A 
ATOM      9  C   UNL     1      89.338  99.649  69.028  1.00  0.00     0.160 A 
ATOM     10  C   UNL     1      88.828  98.406  69.462  1.00  0.00     0.157 A 
ATOM     11  C   UNL     1      90.194 100.381  69.876  1.00  0.00     0.056 A 
ATOM     12  C   UNL     1      89.204  97.893  70.717  1.00  0.00     0.050 A 
ATOM     13  C   UNL     1      90.075  98.621  71.549  1.00  0.00     0.009 A 
BRANCH   9  14
ATOM     14  O   UNL     1      89.048 100.117  67.774  1.00  0.00    -0.493 OA
ATOM     15  C   UNL     1      88.480 101.437  67.755  1.00  0.00     0.278 C 
ENDBRANCH   9  14
BRANCH  10  16
ATOM     16  O   UNL     1      87.979  97.684  68.689  1.00  0.00    -0.504 OA
ATOM     17  H   UNL     1      88.485  97.134  68.086  1.00  0.00     0.293 HD
ENDBRANCH  10  16
ENDBRANCH   7   8
ENDBRANCH   4   7
ENDBRANCH   2   3
ENDBRANCH   1   2
BRANCH   1  18
ATOM     18  C   UNL     1      95.516  97.137  74.762  1.00  0.00     0.001 C 
BRANCH  18  19
ATOM     19  C   UNL     1      95.155  96.902  76.251  1.00  0.00     0.004 C 
BRANCH  19  20
ATOM     20  C   UNL     1      94.304  95.614  76.432  1.00  0.00     0.027 C 
BRANCH  20  21
ATOM     21  C   UNL     1      94.473  94.979  77.727  1.00  0.00    -0.031 C 
ATOM     22  C   UNL     1      95.129  95.574  78.739  1.00  0.00    -0.028 C 
BRANCH  22  23
ATOM     23  C   UNL     1      95.312  94.964  80.054  1.00  0.00     0.005 C 
ATOM     24  C   UNL     1      94.981  95.989  81.173  1.00  0.00     0.012 C 
ATOM     25  C   UNL     1      94.461  93.671  80.170  1.00  0.00     0.012 C 
ENDBRANCH  22  23
ENDBRANCH  20  21
ENDBRANCH  19  20
ENDBRANCH  18  19
ENDBRANCH   1  18
TORSDOF 11
ENDMDL
MODEL 4
REMARK VINA RESULT:    -5.023     12.779     14.464
REMARK INTER + INTRA:         -10.353
REMARK INTER:                  -9.369
REMARK INTRA:                  -0.984
REMARK UNBOUND:                -2.246
REMARK SMILES COc1cc(CNC(=O)CCCCC/C=C/C(C)C)ccc1O
REMARK SMILES IDX 11 1 10 2 8 3 7 4 9 6 6 7 5 8 3 9 22 10 4 11 21 12 20 13
REMARK SMILES IDX 2 14 1 15 23 16 12 18 13 19 14 20 15 21 16 22 17 23 18 24
REMARK SMILES IDX 19 25
REMARK H PARENT 7 5 23 17
REMARK Flexibility Score: inf
ROOT
ATOM      1  C   UNL     1      99.468  82.171  79.439  1.00  0.00     0.010 C 
ENDROOT
BRANCH   1   2
ATOM      2  C   UNL     1      99.512  83.176  80.619  1.00  0.00     0.100 C 
BRANCH   2   3
ATOM      3  C   UNL     1      98.607  82.834  81.732  1.00  0.00     0.220 C 
ATOM      4  N   UNL     1      98.882  81.762  82.526  1.00  0.00    -0.352 N 
ATOM      5  H   UNL     1      99.682  81.217  82.235  1.00  0.00     0.163 HD
ATOM      6  O   UNL     1      97.617  83.574  81.944  1.00  0.00    -0.275 OA
BRANCH   4   7
ATOM      7  C   UNL     1      98.148  81.380  83.688  1.00  0.00     0.151 C 
BRANCH   7   8
ATOM      8  C   UNL     1      98.487  82.206  84.876  1.00  0.00    -0.025 A 
ATOM      9  C   UNL     1      97.935  84.017  86.445  1.00  0.00     0.160 A 
ATOM     10  C   UNL     1      99.164  83.814  87.110  1.00  0.00     0.157 A 
ATOM     11  C   UNL     1      97.610  83.219  85.330  1.00  0.00     0.056 A 
ATOM     12  C   UNL     1     100.036  82.799  86.678  1.00  0.00     0.050 A 
ATOM     13  C   UNL     1      99.695  81.993  85.575  1.00  0.00     0.009 A 
BRANCH   9  14
ATOM     14  O   UNL     1      97.040  84.944  86.911  1.00  0.00    -0.493 OA
ATOM     15  C   UNL     1      96.049  85.340  85.949  1.00  0.00     0.278 C 
ENDBRANCH   9  14
BRANCH  10  16
ATOM     16  O   UNL     1      99.527  84.580  88.170  1.00  0.00    -0.504 OA
ATOM     17  H   UNL     1      99.194  85.472  88.048  1.00  0.00     0.293 HD
ENDBRANCH  10  16
ENDBRANCH   7   8
ENDBRANCH   4   7
ENDBRANCH   2   3
ENDBRANCH   1   2
BRANCH   1  18
ATOM     18  C   UNL     1      98.042  82.073  78.840  1.00  0.00     0.001 C 
BRANCH  18  19
ATOM     19  C   UNL     1      97.432  83.445  78.457  1.00  0.00     0.004 C 
BRANCH  19  20
ATOM     20  C   UNL     1      97.436  83.658  76.918  1.00  0.00     0.027 C 
BRANCH  20  21
ATOM     21  C   UNL     1      98.631  84.318  76.422  1.00  0.00    -0.031 C 
ATOM     22  C   UNL     1      99.629  83.644  75.824  1.00  0.00    -0.028 C 
BRANCH  22  23
ATOM     23  C   UNL     1     100.841  84.278  75.311  1.00  0.00     0.005 C 
ATOM     24  C   UNL     1     100.525  85.712  74.807  1.00  0.00     0.012 C 
ATOM     25  C   UNL     1     101.954  84.265  76.394  1.00  0.00     0.012 C 
ENDBRANCH  22  23
ENDBRANCH  20  21
ENDBRANCH  19  20
ENDBRANCH  18  19
ENDBRANCH   1  18
TORSDOF 11
ENDMDL
MODEL 5
REMARK VINA RESULT:    -5.014     13.258     16.349
REMARK INTER + INTRA:         -10.337
REMARK INTER:                  -9.655
REMARK INTRA:                  -0.683
REMARK UNBOUND:                -2.246
REMARK SMILES COc1cc(CNC(=O)CCCCC/C=C/C(C)C)ccc1O
REMARK SMILES IDX 11 1 10 2 8 3 7 4 9 6 6 7 5 8 3 9 22 10 4 11 21 12 20 13
REMARK SMILES IDX 2 14 1 15 23 16 12 18 13 19 14 20 15 21 16 22 17 23 18 24
REMARK SMILES IDX 19 25
REMARK H PARENT 7 5 23 17
REMARK Flexibility Score: inf
ROOT
ATOM      1  C   UNL     1      97.859  84.348  85.683  1.00  0.00     0.010 C 
ENDROOT
BRANCH   1   2
ATOM      2  C   UNL     1      96.349  84.683  85.566  1.00  0.00     0.100 C 
BRANCH   2   3
ATOM      3  C   UNL     1      95.530  84.155  86.673  1.00  0.00     0.220 C 
ATOM      4  N   UNL     1      94.697  83.100  86.457  1.00  0.00    -0.352 N 
ATOM      5  H   UNL     1      94.648  82.792  85.496  1.00  0.00     0.163 HD
ATOM      6  O   UNL     1      95.656  84.675  87.807  1.00  0.00    -0.275 OA
BRANCH   4   7
ATOM      7  C   UNL     1      93.925  82.434  87.455  1.00  0.00     0.151 C 
BRANCH   7   8
ATOM      8  C   UNL     1      92.633  81.921  86.932  1.00  0.00    -0.025 A 
ATOM      9  C   UNL     1      91.360  80.265  85.633  1.00  0.00     0.160 A 
ATOM     10  C   UNL     1      90.169  80.978  85.893  1.00  0.00     0.157 A 
ATOM     11  C   UNL     1      92.582  80.746  86.146  1.00  0.00     0.056 A 
ATOM     12  C   UNL     1      90.205  82.138  86.688  1.00  0.00     0.050 A 
ATOM     13  C   UNL     1      91.426  82.600  87.213  1.00  0.00     0.009 A 
BRANCH   9  14
ATOM     14  O   UNL     1      91.324  79.088  84.934  1.00  0.00    -0.493 OA
ATOM     15  C   UNL     1      91.441  77.914  85.755  1.00  0.00     0.278 C 
ENDBRANCH   9  14
BRANCH  10  16
ATOM     16  O   UNL     1      88.977  80.565  85.394  1.00  0.00    -0.504 OA
ATOM     17  H   UNL     1      89.040  80.489  84.438  1.00  0.00     0.293 HD
ENDBRANCH  10  16
ENDBRANCH   7   8
ENDBRANCH   4   7
ENDBRANCH   2   3
ENDBRANCH   1   2
BRANCH   1  18
ATOM     18  C   UNL     1      98.189  83.001  84.990  1.00  0.00     0.001 C 
BRANCH  18  19
ATOM     19  C   UNL     1      98.127  83.065  83.443  1.00  0.00     0.004 C 
BRANCH  19  20
ATOM     20  C   UNL     1      98.835  81.842  82.796  1.00  0.00     0.027 C 
BRANCH  20  21
ATOM     21  C   UNL     1      98.960  81.936  81.351  1.00  0.00    -0.031 C 
ATOM     22  C   UNL     1      98.582  83.030  80.667  1.00  0.00    -0.028 C 
BRANCH  22  23
ATOM     23  C   UNL     1      98.701  83.158  79.216  1.00  0.00     0.005 C 
ATOM     24  C   UNL     1      98.999  81.776  78.577  1.00  0.00     0.012 C 
ATOM     25  C   UNL     1      97.422  83.816  78.629  1.00  0.00     0.012 C 
ENDBRANCH  22  23
ENDBRANCH  20  21
ENDBRANCH  19  20
ENDBRANCH  18  19
ENDBRANCH   1  18
TORSDOF 11
ENDMDL
MODEL 6
REMARK VINA RESULT:    -4.911     13.469     16.155
REMARK INTER + INTRA:         -10.172
REMARK INTER:                  -8.942
REMARK INTRA:                  -1.230
REMARK UNBOUND:                -2.246
REMARK SMILES COc1cc(CNC(=O)CCCCC/C=C/C(C)C)ccc1O
REMARK SMILES IDX 11 1 10 2 8 3 7 4 9 6 6 7 5 8 3 9 22 10 4 11 21 12 20 13
REMARK SMILES IDX 2 14 1 15 23 16 12 18 13 19 14 20 15 21 16 22 17 23 18 24
REMARK SMILES IDX 19 25
REMARK H PARENT 7 5 23 17
REMARK Flexibility Score: inf
ROOT
ATOM      1  C   UNL     1     104.802  81.335  79.539  1.00  0.00     0.010 C 
ENDROOT
BRANCH   1   2
ATOM      2  C   UNL     1     103.765  80.573  80.404  1.00  0.00     0.100 C 
BRANCH   2   3
ATOM      3  C   UNL     1     102.708  81.432  80.968  1.00  0.00     0.220 C 
ATOM      4  N   UNL     1     101.476  81.461  80.388  1.00  0.00    -0.352 N 
ATOM      5  H   UNL     1     101.399  80.922  79.536  1.00  0.00     0.163 HD
ATOM      6  O   UNL     1     102.964  82.090  82.004  1.00  0.00    -0.275 OA
BRANCH   4   7
ATOM      7  C   UNL     1     100.341  82.168  80.885  1.00  0.00     0.151 C 
BRANCH   7   8
ATOM      8  C   UNL     1      99.422  82.607  79.803  1.00  0.00    -0.025 A 
ATOM      9  C   UNL     1      98.938  82.937  77.415  1.00  0.00     0.160 A 
ATOM     10  C   UNL     1      97.685  83.497  77.747  1.00  0.00     0.157 A 
ATOM     11  C   UNL     1      99.799  82.506  78.444  1.00  0.00     0.056 A 
ATOM     12  C   UNL     1      97.292  83.588  79.095  1.00  0.00     0.050 A 
ATOM     13  C   UNL     1      98.150  83.136  80.115  1.00  0.00     0.009 A 
BRANCH   9  14
ATOM     14  O   UNL     1      99.293  82.764  76.103  1.00  0.00    -0.493 OA
ATOM     15  C   UNL     1      99.517  81.394  75.731  1.00  0.00     0.278 C 
ENDBRANCH   9  14
BRANCH  10  16
ATOM     16  O   UNL     1      96.839  83.950  76.788  1.00  0.00    -0.504 OA
ATOM     17  H   UNL     1      96.467  84.793  77.062  1.00  0.00     0.293 HD
ENDBRANCH  10  16
ENDBRANCH   7   8
ENDBRANCH   4   7
ENDBRANCH   2   3
ENDBRANCH   1   2
BRANCH   1  18
ATOM     18  C   UNL     1     104.488  81.185  78.028  1.00  0.00     0.001 C 
BRANCH  18  19
ATOM     19  C   UNL     1     103.309  82.068  77.546  1.00  0.00     0.004 C 
BRANCH  19  20
ATOM     20  C   UNL     1     103.660  82.813  76.228  1.00  0.00     0.027 C 
BRANCH  20  21
ATOM     21  C   UNL     1     102.591  83.665  75.736  1.00  0.00    -0.031 C 
ATOM     22  C   UNL     1     102.507  84.042  74.448  1.00  0.00    -0.028 C 
BRANCH  22  23
ATOM     23  C   UNL     1     101.443  84.893  73.921  1.00  0.00     0.005 C 
ATOM     24  C   UNL     1     100.773  85.690  75.072  1.00  0.00     0.012 C 
ATOM     25  C   UNL     1     102.000  85.821  72.807  1.00  0.00     0.012 C 
ENDBRANCH  22  23
ENDBRANCH  20  21
ENDBRANCH  19  20
ENDBRANCH  18  19
ENDBRANCH   1  18
TORSDOF 11
ENDMDL
MODEL 7
REMARK VINA RESULT:    -4.819     13.151     15.610
REMARK INTER + INTRA:         -10.023
REMARK INTER:                  -9.408
REMARK INTRA:                  -0.615
REMARK UNBOUND:                -2.246
REMARK SMILES COc1cc(CNC(=O)CCCCC/C=C/C(C)C)ccc1O
REMARK SMILES IDX 11 1 10 2 8 3 7 4 9 6 6 7 5 8 3 9 22 10 4 11 21 12 20 13
REMARK SMILES IDX 2 14 1 15 23 16 12 18 13 19 14 20 15 21 16 22 17 23 18 24
REMARK SMILES IDX 19 25
REMARK H PARENT 7 5 23 17
REMARK Flexibility Score: inf
ROOT
ATOM      1  C   UNL     1      96.769  83.780  86.002  1.00  0.00     0.010 C 
ENDROOT
BRANCH   1   2
ATOM      2  C   UNL     1      97.253  84.333  84.637  1.00  0.00     0.100 C 
BRANCH   2   3
ATOM      3  C   UNL     1      98.072  83.382  83.861  1.00  0.00     0.220 C 
ATOM      4  N   UNL     1      98.093  83.458  82.501  1.00  0.00    -0.352 N 
ATOM      5  H   UNL     1      97.463  84.144  82.108  1.00  0.00     0.163 HD
ATOM      6  O   UNL     1      98.766  82.546  84.486  1.00  0.00    -0.275 OA
BRANCH   4   7
ATOM      7  C   UNL     1      98.911  82.669  81.639  1.00  0.00     0.151 C 
BRANCH   7   8
ATOM      8  C   UNL     1      98.736  83.020  80.206  1.00  0.00    -0.025 A 
ATOM      9  C   UNL     1      99.638  83.199  77.925  1.00  0.00     0.160 A 
ATOM     10  C   UNL     1      98.411  83.741  77.483  1.00  0.00     0.157 A 
ATOM     11  C   UNL     1      99.793  82.851  79.282  1.00  0.00     0.056 A 
ATOM     12  C   UNL     1      97.346  83.898  78.389  1.00  0.00     0.050 A 
ATOM     13  C   UNL     1      97.504  83.530  79.739  1.00  0.00     0.009 A 
BRANCH   9  14
ATOM     14  O   UNL     1     100.650  82.961  77.034  1.00  0.00    -0.493 OA
ATOM     15  C   UNL     1     100.623  81.648  76.449  1.00  0.00     0.278 C 
ENDBRANCH   9  14
BRANCH  10  16
ATOM     16  O   UNL     1      98.230  84.115  76.192  1.00  0.00    -0.504 OA
ATOM     17  H   UNL     1      99.049  83.992  75.706  1.00  0.00     0.293 HD
ENDBRANCH  10  16
ENDBRANCH   7   8
ENDBRANCH   4   7
ENDBRANCH   2   3
ENDBRANCH   1   2
BRANCH   1  18
ATOM     18  C   UNL     1      95.579  82.803  85.820  1.00  0.00     0.001 C 
BRANCH  18  19
ATOM     19  C   UNL     1      94.836  82.474  87.139  1.00  0.00     0.004 C 
BRANCH  19  20
ATOM     20  C   UNL     1      93.837  81.298  86.949  1.00  0.00     0.027 C 
BRANCH  20  21
ATOM     21  C   UNL     1      92.457  81.652  87.231  1.00  0.00    -0.031 C 
ATOM     22  C   UNL     1      92.124  82.770  87.900  1.00  0.00    -0.028 C 
BRANCH  22  23
ATOM     23  C   UNL     1      90.746  83.157  88.194  1.00  0.00     0.005 C 
ATOM     24  C   UNL     1      89.818  81.914  88.155  1.00  0.00     0.012 C 
ATOM     25  C   UNL     1      90.677  83.902  89.555  1.00  0.00     0.012 C 
ENDBRANCH  22  23
ENDBRANCH  20  21
ENDBRANCH  19  20
ENDBRANCH  18  19
ENDBRANCH   1  18
TORSDOF 11
ENDMDL
MODEL 8
REMARK VINA RESULT:    -4.736     12.821     15.105
REMARK INTER + INTRA:          -9.889
REMARK INTER:                  -8.985
REMARK INTRA:                  -0.905
REMARK UNBOUND:                -2.246
REMARK SMILES COc1cc(CNC(=O)CCCCC/C=C/C(C)C)ccc1O
REMARK SMILES IDX 11 1 10 2 8 3 7 4 9 6 6 7 5 8 3 9 22 10 4 11 21 12 20 13
REMARK SMILES IDX 2 14 1 15 23 16 12 18 13 19 14 20 15 21 16 22 17 23 18 24
REMARK SMILES IDX 19 25
REMARK H PARENT 7 5 23 17
REMARK Flexibility Score: inf
ROOT
ATOM      1  C   UNL     1      96.516  83.777  86.255  1.00  0.00     0.010 C 
ENDROOT
BRANCH   1   2
ATOM      2  C   UNL     1      96.750  84.257  84.800  1.00  0.00     0.100 C 
BRANCH   2   3
ATOM      3  C   UNL     1      97.777  83.488  84.072  1.00  0.00     0.220 C 
ATOM      4  N   UNL     1      97.782  83.484  82.710  1.00  0.00    -0.352 N 
ATOM      5  H   UNL     1      97.006  83.971  82.284  1.00  0.00     0.163 HD
ATOM      6  O   UNL     1      98.652  82.885  84.737  1.00  0.00    -0.275 OA
BRANCH   4   7
ATOM      7  C   UNL     1      98.769  82.866  81.886  1.00  0.00     0.151 C 
BRANCH   7   8
ATOM      8  C   UNL     1      98.537  83.104  80.438  1.00  0.00    -0.025 A 
ATOM      9  C   UNL     1      99.364  83.157  78.123  1.00  0.00     0.160 A 
ATOM     10  C   UNL     1      98.102  83.613  77.683  1.00  0.00     0.157 A 
ATOM     11  C   UNL     1      99.575  82.915  79.495  1.00  0.00     0.056 A 
ATOM     12  C   UNL     1      97.058  83.788  78.610  1.00  0.00     0.050 A 
ATOM     13  C   UNL     1      97.270  83.525  79.976  1.00  0.00     0.009 A 
BRANCH   9  14
ATOM     14  O   UNL     1     100.360  82.900  77.219  1.00  0.00    -0.493 OA
ATOM     15  C   UNL     1     100.813  81.536  77.215  1.00  0.00     0.278 C 
ENDBRANCH   9  14
BRANCH  10  16
ATOM     16  O   UNL     1      97.867  83.884  76.375  1.00  0.00    -0.504 OA
ATOM     17  H   UNL     1      97.698  84.824  76.269  1.00  0.00     0.293 HD
ENDBRANCH  10  16
ENDBRANCH   7   8
ENDBRANCH   4   7
ENDBRANCH   2   3
ENDBRANCH   1   2
BRANCH   1  18
ATOM     18  C   UNL     1      95.432  82.670  86.312  1.00  0.00     0.001 C 
BRANCH  18  19
ATOM     19  C   UNL     1      94.495  82.778  87.541  1.00  0.00     0.004 C 
BRANCH  19  20
ATOM     20  C   UNL     1      93.374  83.830  87.310  1.00  0.00     0.027 C 
BRANCH  20  21
ATOM     21  C   UNL     1      93.554  85.053  88.074  1.00  0.00    -0.031 C 
ATOM     22  C   UNL     1      94.513  85.182  89.009  1.00  0.00    -0.028 C 
BRANCH  22  23
ATOM     23  C   UNL     1      94.723  86.399  89.789  1.00  0.00     0.005 C 
ATOM     24  C   UNL     1      95.295  86.048  91.188  1.00  0.00     0.012 C 
ATOM     25  C   UNL     1      95.634  87.386  89.010  1.00  0.00     0.012 C 
ENDBRANCH  22  23
ENDBRANCH  20  21
ENDBRANCH  19  20
ENDBRANCH  18  19
ENDBRANCH   1  18
TORSDOF 11
ENDMDL
MODEL 9
REMARK VINA RESULT:    -4.731     18.847     20.909
REMARK INTER + INTRA:          -9.881
REMARK INTER:                  -8.920
REMARK INTRA:                  -0.961
REMARK UNBOUND:                -2.246
REMARK SMILES COc1cc(CNC(=O)CCCCC/C=C/C(C)C)ccc1O
REMARK SMILES IDX 11 1 10 2 8 3 7 4 9 6 6 7 5 8 3 9 22 10 4 11 21 12 20 13
REMARK SMILES IDX 2 14 1 15 23 16 12 18 13 19 14 20 15 21 16 22 17 23 18 24
REMARK SMILES IDX 19 25
REMARK H PARENT 7 5 23 17
REMARK Flexibility Score: inf
ROOT
ATOM      1  C   UNL     1      75.225  92.696  71.687  1.00  0.00     0.010 C 
ENDROOT
BRANCH   1   2
ATOM      2  C   UNL     1      76.750  92.737  71.411  1.00  0.00     0.100 C 
BRANCH   2   3
ATOM      3  C   UNL     1      77.577  92.860  72.626  1.00  0.00     0.220 C 
ATOM      4  N   UNL     1      77.100  93.540  73.705  1.00  0.00    -0.352 N 
ATOM      5  H   UNL     1      76.206  93.989  73.558  1.00  0.00     0.163 HD
ATOM      6  O   UNL     1      78.695  92.292  72.645  1.00  0.00    -0.275 OA
BRANCH   4   7
ATOM      7  C   UNL     1      77.751  93.652  74.969  1.00  0.00     0.151 C 
BRANCH   7   8
ATOM      8  C   UNL     1      76.827  93.423  76.110  1.00  0.00    -0.025 A 
ATOM      9  C   UNL     1      76.059  93.974  78.381  1.00  0.00     0.160 A 
ATOM     10  C   UNL     1      75.097  92.944  78.304  1.00  0.00     0.157 A 
ATOM     11  C   UNL     1      76.922  94.200  77.289  1.00  0.00     0.056 A 
ATOM     12  C   UNL     1      74.983  92.176  77.131  1.00  0.00     0.050 A 
ATOM     13  C   UNL     1      75.834  92.420  76.038  1.00  0.00     0.009 A 
BRANCH   9  14
ATOM     14  O   UNL     1      76.120  94.784  79.484  1.00  0.00    -0.493 OA
ATOM     15  C   UNL     1      75.628  96.116  79.262  1.00  0.00     0.278 C 
ENDBRANCH   9  14
BRANCH  10  16
ATOM     16  O   UNL     1      74.267  92.676  79.344  1.00  0.00    -0.504 OA
ATOM     17  H   UNL     1      73.423  92.366  79.007  1.00  0.00     0.293 HD
ENDBRANCH  10  16
ENDBRANCH   7   8
ENDBRANCH   4   7
ENDBRANCH   2   3
ENDBRANCH   1   2
BRANCH   1  18
ATOM     18  C   UNL     1      74.726  91.238  71.858  1.00  0.00     0.001 C 
BRANCH  18  19
ATOM     19  C   UNL     1      75.334  90.248  70.833  1.00  0.00     0.004 C 
BRANCH  19  20
ATOM     20  C   UNL     1      74.672  88.846  70.938  1.00  0.00     0.027 C 
BRANCH  20  21
ATOM     21  C   UNL     1      75.527  87.760  70.490  1.00  0.00    -0.031 C 
ATOM     22  C   UNL     1      76.700  87.978  69.869  1.00  0.00    -0.028 C 
BRANCH  22  23
ATOM     23  C   UNL     1      77.585  86.909  69.412  1.00  0.00     0.005 C 
ATOM     24  C   UNL     1      77.029  85.527  69.848  1.00  0.00     0.012 C 
ATOM     25  C   UNL     1      77.792  87.004  67.876  1.00  0.00     0.012 C 
ENDBRANCH  22  23
ENDBRANCH  20  21
ENDBRANCH  19  20
ENDBRANCH  18  19
ENDBRANCH   1  18
TORSDOF 11
ENDMDL
MODEL 10
REMARK VINA RESULT:    -4.687     12.279     14.913
REMARK INTER + INTRA:          -9.810
REMARK INTER:                  -8.970
REMARK INTRA:                  -0.840
REMARK UNBOUND:                -2.246
REMARK SMILES COc1cc(CNC(=O)CCCCC/C=C/C(C)C)ccc1O
REMARK SMILES IDX 11 1 10 2 8 3 7 4 9 6 6 7 5 8 3 9 22 10 4 11 21 12 20 13
REMARK SMILES IDX 2 14 1 15 23 16 12 18 13 19 14 20 15 21 16 22 17 23 18 24
REMARK SMILES IDX 19 25
REMARK H PARENT 7 5 23 17
REMARK Flexibility Score: inf
ROOT
ATOM      1  C   UNL     1     102.336  80.907  80.341  1.00  0.00     0.010 C 
ENDROOT
BRANCH   1   2
ATOM      2  C   UNL     1     101.727  82.062  81.177  1.00  0.00     0.100 C 
BRANCH   2   3
ATOM      3  C   UNL     1     100.406  81.753  81.755  1.00  0.00     0.220 C 
ATOM      4  N   UNL     1      99.659  82.748  82.309  1.00  0.00    -0.352 N 
ATOM      5  H   UNL     1     100.117  83.648  82.347  1.00  0.00     0.163 HD
ATOM      6  O   UNL     1      99.985  80.574  81.684  1.00  0.00    -0.275 OA
BRANCH   4   7
ATOM      7  C   UNL     1      98.332  82.606  82.814  1.00  0.00     0.151 C 
BRANCH   7   8
ATOM      8  C   UNL     1      98.169  83.195  84.168  1.00  0.00    -0.025 A 
ATOM      9  C   UNL     1      97.295  84.963  85.637  1.00  0.00     0.160 A 
ATOM     10  C   UNL     1      97.907  84.342  86.748  1.00  0.00     0.157 A 
ATOM     11  C   UNL     1      97.438  84.391  84.357  1.00  0.00     0.056 A 
ATOM     12  C   UNL     1      98.622  83.143  86.574  1.00  0.00     0.050 A 
ATOM     13  C   UNL     1      98.743  82.567  85.296  1.00  0.00     0.009 A 
BRANCH   9  14
ATOM     14  O   UNL     1      96.524  86.082  85.808  1.00  0.00    -0.493 OA
ATOM     15  C   UNL     1      95.218  85.819  86.349  1.00  0.00     0.278 C 
ENDBRANCH   9  14
BRANCH  10  16
ATOM     16  O   UNL     1      97.818  84.875  87.992  1.00  0.00    -0.504 OA
ATOM     17  H   UNL     1      97.855  84.171  88.644  1.00  0.00     0.293 HD
ENDBRANCH  10  16
ENDBRANCH   7   8
ENDBRANCH   4   7
ENDBRANCH   2   3
ENDBRANCH   1   2
BRANCH   1  18
ATOM     18  C   UNL     1     103.269  81.452  79.230  1.00  0.00     0.001 C 
BRANCH  18  19
ATOM     19  C   UNL     1     102.644  81.404  77.812  1.00  0.00     0.004 C 
BRANCH  19  20
ATOM     20  C   UNL     1     101.872  82.713  77.488  1.00  0.00     0.027 C 
BRANCH  20  21
ATOM     21  C   UNL     1     100.444  82.627  77.742  1.00  0.00    -0.031 C 
ATOM     22  C   UNL     1      99.571  83.526  77.253  1.00  0.00    -0.028 C 
BRANCH  22  23
ATOM     23  C   UNL     1      98.130  83.465  77.485  1.00  0.00     0.005 C 
ATOM     24  C   UNL     1      97.837  83.257  78.994  1.00  0.00     0.012 C 
ATOM     25  C   UNL     1      97.441  84.736  76.920  1.00  0.00     0.012 C 
ENDBRANCH  22  23
ENDBRANCH  20  21
ENDBRANCH  19  20
ENDBRANCH  18  19
ENDBRANCH   1  18
TORSDOF 11
ENDMDL
