MODEL 1
REMARK VINA RESULT:    -6.626      0.000      0.000
REMARK INTER + INTRA:         -12.159
REMARK INTER:                 -10.886
REMARK INTRA:                  -1.273
REMARK UNBOUND:                -1.273
REMARK SMILES CCCCC[C@H](O)CC(=O)CCc1ccc(O)c(OC)c1
REMARK SMILES IDX 8 1 6 2 7 3 5 5 4 6 3 7 2 8 1 9 9 10 10 11 11 12 12 13 13 14
REMARK SMILES IDX 21 15 14 16 18 17 15 18 16 19 19 20 20 21 17 22
REMARK H PARENT 7 4 17 23
REMARK Flexibility Score: inf
ROOT
ATOM      1  C   UNL     1      92.560  92.556  75.186  1.00  0.00     0.107 C 
ENDROOT
BRANCH   1   2
ATOM      2  C   UNL     1      91.898  92.670  73.811  1.00  0.00     0.121 C 
BRANCH   2   3
ATOM      3  O   UNL     1      92.149  91.488  73.054  1.00  0.00    -0.393 OA
ATOM      4  H   UNL     1      91.434  90.856  73.243  1.00  0.00     0.210 HD
ENDBRANCH   2   3
BRANCH   2   5
ATOM      5  C   UNL     1      90.384  92.905  73.891  1.00  0.00     0.032 C 
BRANCH   5   6
ATOM      6  C   UNL     1      89.754  93.080  72.504  1.00  0.00     0.003 C 
BRANCH   6   7
ATOM      7  C   UNL     1      88.484  92.246  72.306  1.00  0.00    -0.000 C 
BRANCH   7   8
ATOM      8  C   UNL     1      88.750  90.748  72.166  1.00  0.00    -0.003 C 
ATOM      9  C   UNL     1      88.086  89.960  73.284  1.00  0.00     0.004 C 
ENDBRANCH   7   8
ENDBRANCH   6   7
ENDBRANCH   5   6
ENDBRANCH   2   5
ENDBRANCH   1   2
BRANCH   1  10
ATOM     10  C   UNL     1      92.078  93.611  76.168  1.00  0.00     0.135 C 
ATOM     11  O   UNL     1      92.127  94.808  75.885  1.00  0.00    -0.300 OA
BRANCH  10  12
ATOM     12  C   UNL     1      91.500  93.107  77.481  1.00  0.00     0.080 C 
BRANCH  12  13
ATOM     13  C   UNL     1      90.085  92.539  77.353  1.00  0.00     0.043 C 
BRANCH  13  14
ATOM     14  C   UNL     1      90.025  91.045  77.562  1.00  0.00    -0.044 A 
ATOM     15  C   UNL     1      90.009  90.186  76.463  1.00  0.00     0.054 A 
ATOM     16  C   UNL     1      89.986  90.523  78.855  1.00  0.00     0.008 A 
ATOM     17  C   UNL     1      89.955  88.806  76.657  1.00  0.00     0.160 A 
ATOM     18  C   UNL     1      89.931  89.143  79.050  1.00  0.00     0.050 A 
ATOM     19  C   UNL     1      89.916  88.285  77.951  1.00  0.00     0.157 A 
BRANCH  17  20
ATOM     20  O   UNL     1      89.940  87.977  75.576  1.00  0.00    -0.493 OA
ATOM     21  C   UNL     1      91.193  87.701  74.953  1.00  0.00     0.278 C 
ENDBRANCH  17  20
BRANCH  19  22
ATOM     22  O   UNL     1      89.862  86.939  78.153  1.00  0.00    -0.504 OA
ATOM     23  H   UNL     1      90.171  86.485  77.350  1.00  0.00     0.293 HD
ENDBRANCH  19  22
ENDBRANCH  13  14
ENDBRANCH  12  13
ENDBRANCH  10  12
ENDBRANCH   1  10
TORSDOF 12
ENDMDL
MODEL 2
REMARK VINA RESULT:    -6.364     11.535     15.020
REMARK INTER + INTRA:         -11.729
REMARK INTER:                  -9.680
REMARK INTRA:                  -2.049
REMARK UNBOUND:                -1.273
REMARK SMILES CCCCC[C@H](O)CC(=O)CCc1ccc(O)c(OC)c1
REMARK SMILES IDX 8 1 6 2 7 3 5 5 4 6 3 7 2 8 1 9 9 10 10 11 11 12 12 13 13 14
REMARK SMILES IDX 21 15 14 16 18 17 15 18 16 19 19 20 20 21 17 22
REMARK H PARENT 7 4 17 23
REMARK Flexibility Score: inf
ROOT
ATOM      1  C   UNL     1      80.294  85.861  85.176  1.00  0.00     0.107 C 
ENDROOT
BRANCH   1   2
ATOM      2  C   UNL     1      81.500  85.500  86.047  1.00  0.00     0.121 C 
BRANCH   2   3
ATOM      3  O   UNL     1      82.632  85.236  85.221  1.00  0.00    -0.393 OA
ATOM      4  H   UNL     1      83.317  85.893  85.436  1.00  0.00     0.210 HD
ENDBRANCH   2   3
BRANCH   2   5
ATOM      5  C   UNL     1      81.859  86.594  87.060  1.00  0.00     0.032 C 
BRANCH   5   6
ATOM      6  C   UNL     1      81.027  86.487  88.343  1.00  0.00     0.003 C 
BRANCH   6   7
ATOM      7  C   UNL     1      79.699  87.248  88.271  1.00  0.00    -0.000 C 
BRANCH   7   8
ATOM      8  C   UNL     1      79.088  87.544  89.640  1.00  0.00    -0.003 C 
ATOM      9  C   UNL     1      79.595  88.864  90.199  1.00  0.00     0.004 C 
ENDBRANCH   7   8
ENDBRANCH   6   7
ENDBRANCH   5   6
ENDBRANCH   2   5
ENDBRANCH   1   2
BRANCH   1  10
ATOM     10  C   UNL     1      80.555  87.045  84.259  1.00  0.00     0.135 C 
ATOM     11  O   UNL     1      81.288  86.934  83.276  1.00  0.00    -0.300 OA
BRANCH  10  12
ATOM     12  C   UNL     1      79.832  88.340  84.595  1.00  0.00     0.080 C 
BRANCH  12  13
ATOM     13  C   UNL     1      80.682  89.593  84.376  1.00  0.00     0.043 C 
BRANCH  13  14
ATOM     14  C   UNL     1      81.655  89.853  85.502  1.00  0.00    -0.044 A 
ATOM     15  C   UNL     1      83.015  89.599  85.321  1.00  0.00     0.054 A 
ATOM     16  C   UNL     1      81.193  90.346  86.722  1.00  0.00     0.008 A 
ATOM     17  C   UNL     1      83.913  89.840  86.361  1.00  0.00     0.160 A 
ATOM     18  C   UNL     1      82.091  90.588  87.762  1.00  0.00     0.050 A 
ATOM     19  C   UNL     1      83.451  90.334  87.582  1.00  0.00     0.157 A 
BRANCH  17  20
ATOM     20  O   UNL     1      85.238  89.588  86.174  1.00  0.00    -0.493 OA
ATOM     21  C   UNL     1      85.929  90.414  85.238  1.00  0.00     0.278 C 
ENDBRANCH  17  20
BRANCH  19  22
ATOM     22  O   UNL     1      84.318  90.573  88.605  1.00  0.00    -0.504 OA
ATOM     23  H   UNL     1      84.115  89.969  89.340  1.00  0.00     0.293 HD
ENDBRANCH  19  22
ENDBRANCH  13  14
ENDBRANCH  12  13
ENDBRANCH  10  12
ENDBRANCH   1  10
TORSDOF 12
ENDMDL
MODEL 3
REMARK VINA RESULT:    -6.296     11.577     14.373
REMARK INTER + INTRA:         -11.617
REMARK INTER:                  -9.681
REMARK INTRA:                  -1.936
REMARK UNBOUND:                -1.273
REMARK SMILES CCCCC[C@H](O)CC(=O)CCc1ccc(O)c(OC)c1
REMARK SMILES IDX 8 1 6 2 7 3 5 5 4 6 3 7 2 8 1 9 9 10 10 11 11 12 12 13 13 14
REMARK SMILES IDX 21 15 14 16 18 17 15 18 16 19 19 20 20 21 17 22
REMARK H PARENT 7 4 17 23
REMARK Flexibility Score: inf
ROOT
ATOM      1  C   UNL     1      84.203  91.250  87.003  1.00  0.00     0.107 C 
ENDROOT
BRANCH   1   2
ATOM      2  C   UNL     1      83.747  90.433  88.214  1.00  0.00     0.121 C 
BRANCH   2   3
ATOM      3  O   UNL     1      84.261  91.015  89.410  1.00  0.00    -0.393 OA
ATOM      4  H   UNL     1      85.213  91.171  89.280  1.00  0.00     0.210 HD
ENDBRANCH   2   3
BRANCH   2   5
ATOM      5  C   UNL     1      82.222  90.320  88.323  1.00  0.00     0.032 C 
BRANCH   5   6
ATOM      6  C   UNL     1      81.749  88.861  88.301  1.00  0.00     0.003 C 
BRANCH   6   7
ATOM      7  C   UNL     1      80.225  88.718  88.235  1.00  0.00    -0.000 C 
BRANCH   7   8
ATOM      8  C   UNL     1      79.749  87.269  88.159  1.00  0.00    -0.003 C 
ATOM      9  C   UNL     1      80.025  86.526  89.458  1.00  0.00     0.004 C 
ENDBRANCH   7   8
ENDBRANCH   6   7
ENDBRANCH   5   6
ENDBRANCH   2   5
ENDBRANCH   1   2
BRANCH   1  10
ATOM     10  C   UNL     1      84.919  90.414  85.955  1.00  0.00     0.135 C 
ATOM     11  O   UNL     1      86.060  89.994  86.152  1.00  0.00    -0.300 OA
BRANCH  10  12
ATOM     12  C   UNL     1      84.140  90.093  84.689  1.00  0.00     0.080 C 
BRANCH  12  13
ATOM     13  C   UNL     1      82.661  90.474  84.764  1.00  0.00     0.043 C 
BRANCH  13  14
ATOM     14  C   UNL     1      81.738  89.280  84.702  1.00  0.00    -0.044 A 
ATOM     15  C   UNL     1      82.243  87.996  84.909  1.00  0.00     0.054 A 
ATOM     16  C   UNL     1      80.380  89.461  84.438  1.00  0.00     0.008 A 
ATOM     17  C   UNL     1      81.389  86.894  84.853  1.00  0.00     0.160 A 
ATOM     18  C   UNL     1      79.527  88.359  84.381  1.00  0.00     0.050 A 
ATOM     19  C   UNL     1      80.031  87.076  84.588  1.00  0.00     0.157 A 
BRANCH  17  20
ATOM     20  O   UNL     1      81.894  85.645  85.056  1.00  0.00    -0.493 OA
ATOM     21  C   UNL     1      82.602  85.422  86.274  1.00  0.00     0.278 C 
ENDBRANCH  17  20
BRANCH  19  22
ATOM     22  O   UNL     1      79.188  86.008  84.530  1.00  0.00    -0.504 OA
ATOM     23  H   UNL     1      79.473  85.344  85.182  1.00  0.00     0.293 HD
ENDBRANCH  19  22
ENDBRANCH  13  14
ENDBRANCH  12  13
ENDBRANCH  10  12
ENDBRANCH   1  10
TORSDOF 12
ENDMDL
MODEL 4
REMARK VINA RESULT:    -6.273      2.780      5.435
REMARK INTER + INTRA:         -11.580
REMARK INTER:                 -10.577
REMARK INTRA:                  -1.004
REMARK UNBOUND:                -1.273
REMARK SMILES CCCCC[C@H](O)CC(=O)CCc1ccc(O)c(OC)c1
REMARK SMILES IDX 8 1 6 2 7 3 5 5 4 6 3 7 2 8 1 9 9 10 10 11 11 12 12 13 13 14
REMARK SMILES IDX 21 15 14 16 18 17 15 18 16 19 19 20 20 21 17 22
REMARK H PARENT 7 4 17 23
REMARK Flexibility Score: inf
ROOT
ATOM      1  C   UNL     1      92.870  94.087  76.839  1.00  0.00     0.107 C 
ENDROOT
BRANCH   1   2
ATOM      2  C   UNL     1      94.307  94.032  76.314  1.00  0.00     0.121 C 
BRANCH   2   3
ATOM      3  O   UNL     1      94.539  95.124  75.426  1.00  0.00    -0.393 OA
ATOM      4  H   UNL     1      94.980  95.829  75.931  1.00  0.00     0.210 HD
ENDBRANCH   2   3
BRANCH   2   5
ATOM      5  C   UNL     1      95.356  94.059  77.432  1.00  0.00     0.032 C 
BRANCH   5   6
ATOM      6  C   UNL     1      94.745  94.437  78.787  1.00  0.00     0.003 C 
BRANCH   6   7
ATOM      7  C   UNL     1      95.657  95.328  79.636  1.00  0.00    -0.000 C 
BRANCH   7   8
ATOM      8  C   UNL     1      95.399  95.214  81.138  1.00  0.00    -0.003 C 
ATOM      9  C   UNL     1      95.866  93.872  81.680  1.00  0.00     0.004 C 
ENDBRANCH   7   8
ENDBRANCH   6   7
ENDBRANCH   5   6
ENDBRANCH   2   5
ENDBRANCH   1   2
BRANCH   1  10
ATOM     10  C   UNL     1      91.829  94.019  75.734  1.00  0.00     0.135 C 
ATOM     11  O   UNL     1      92.163  93.892  74.556  1.00  0.00    -0.300 OA
BRANCH  10  12
ATOM     12  C   UNL     1      90.371  94.070  76.166  1.00  0.00     0.080 C 
BRANCH  12  13
ATOM     13  C   UNL     1      90.015  93.049  77.248  1.00  0.00     0.043 C 
BRANCH  13  14
ATOM     14  C   UNL     1      89.839  91.650  76.707  1.00  0.00    -0.044 A 
ATOM     15  C   UNL     1      89.236  91.453  75.465  1.00  0.00     0.054 A 
ATOM     16  C   UNL     1      90.281  90.555  77.450  1.00  0.00     0.008 A 
ATOM     17  C   UNL     1      89.075  90.160  74.965  1.00  0.00     0.160 A 
ATOM     18  C   UNL     1      90.120  89.262  76.951  1.00  0.00     0.050 A 
ATOM     19  C   UNL     1      89.517  89.065  75.708  1.00  0.00     0.157 A 
BRANCH  17  20
ATOM     20  O   UNL     1      88.484  89.980  73.751  1.00  0.00    -0.493 OA
ATOM     21  C   UNL     1      89.135  90.558  72.621  1.00  0.00     0.278 C 
ENDBRANCH  17  20
BRANCH  19  22
ATOM     22  O   UNL     1      89.365  87.799  75.231  1.00  0.00    -0.504 OA
ATOM     23  H   UNL     1      89.707  87.760  74.321  1.00  0.00     0.293 HD
ENDBRANCH  19  22
ENDBRANCH  13  14
ENDBRANCH  12  13
ENDBRANCH  10  12
ENDBRANCH   1  10
TORSDOF 12
ENDMDL
MODEL 5
REMARK VINA RESULT:    -5.938      3.881      6.596
REMARK INTER + INTRA:         -11.030
REMARK INTER:                 -10.258
REMARK INTRA:                  -0.772
REMARK UNBOUND:                -1.273
REMARK SMILES CCCCC[C@H](O)CC(=O)CCc1ccc(O)c(OC)c1
REMARK SMILES IDX 8 1 6 2 7 3 5 5 4 6 3 7 2 8 1 9 9 10 10 11 11 12 12 13 13 14
REMARK SMILES IDX 21 15 14 16 18 17 15 18 16 19 19 20 20 21 17 22
REMARK H PARENT 7 4 17 23
REMARK Flexibility Score: inf
ROOT
ATOM      1  C   UNL     1      94.898  93.971  77.068  1.00  0.00     0.107 C 
ENDROOT
BRANCH   1   2
ATOM      2  C   UNL     1      94.829  94.523  78.494  1.00  0.00     0.121 C 
BRANCH   2   3
ATOM      3  O   UNL     1      94.453  93.486  79.396  1.00  0.00    -0.393 OA
ATOM      4  H   UNL     1      94.310  93.889  80.270  1.00  0.00     0.210 HD
ENDBRANCH   2   3
BRANCH   2   5
ATOM      5  C   UNL     1      96.151  95.145  78.962  1.00  0.00     0.032 C 
BRANCH   5   6
ATOM      6  C   UNL     1      96.362  94.983  80.472  1.00  0.00     0.003 C 
BRANCH   6   7
ATOM      7  C   UNL     1      95.793  96.145  81.292  1.00  0.00    -0.000 C 
BRANCH   7   8
ATOM      8  C   UNL     1      96.837  97.191  81.677  1.00  0.00    -0.003 C 
ATOM      9  C   UNL     1      96.200  98.552  81.909  1.00  0.00     0.004 C 
ENDBRANCH   7   8
ENDBRANCH   6   7
ENDBRANCH   5   6
ENDBRANCH   2   5
ENDBRANCH   1   2
BRANCH   1  10
ATOM     10  C   UNL     1      94.269  94.897  76.040  1.00  0.00     0.135 C 
ATOM     11  O   UNL     1      94.910  95.825  75.547  1.00  0.00    -0.300 OA
BRANCH  10  12
ATOM     12  C   UNL     1      92.838  94.586  75.628  1.00  0.00     0.080 C 
BRANCH  12  13
ATOM     13  C   UNL     1      92.660  93.190  75.029  1.00  0.00     0.043 C 
BRANCH  13  14
ATOM     14  C   UNL     1      91.823  92.277  75.893  1.00  0.00    -0.044 A 
ATOM     15  C   UNL     1      91.388  91.050  75.394  1.00  0.00     0.054 A 
ATOM     16  C   UNL     1      91.486  92.662  77.191  1.00  0.00     0.008 A 
ATOM     17  C   UNL     1      90.616  90.206  76.193  1.00  0.00     0.160 A 
ATOM     18  C   UNL     1      90.714  91.819  77.990  1.00  0.00     0.050 A 
ATOM     19  C   UNL     1      90.278  90.591  77.491  1.00  0.00     0.157 A 
BRANCH  17  20
ATOM     20  O   UNL     1      90.196  89.010  75.695  1.00  0.00    -0.493 OA
ATOM     21  C   UNL     1      91.030  87.879  75.936  1.00  0.00     0.278 C 
ENDBRANCH  17  20
BRANCH  19  22
ATOM     22  O   UNL     1      89.525  89.777  78.281  1.00  0.00    -0.504 OA
ATOM     23  H   UNL     1      89.940  89.715  79.159  1.00  0.00     0.293 HD
ENDBRANCH  19  22
ENDBRANCH  13  14
ENDBRANCH  12  13
ENDBRANCH  10  12
ENDBRANCH   1  10
TORSDOF 12
ENDMDL
MODEL 6
REMARK VINA RESULT:    -5.730      3.457      6.593
REMARK INTER + INTRA:         -10.687
REMARK INTER:                  -9.961
REMARK INTRA:                  -0.727
REMARK UNBOUND:                -1.273
REMARK SMILES CCCCC[C@H](O)CC(=O)CCc1ccc(O)c(OC)c1
REMARK SMILES IDX 8 1 6 2 7 3 5 5 4 6 3 7 2 8 1 9 9 10 10 11 11 12 12 13 13 14
REMARK SMILES IDX 21 15 14 16 18 17 15 18 16 19 19 20 20 21 17 22
REMARK H PARENT 7 4 17 23
REMARK Flexibility Score: inf
ROOT
ATOM      1  C   UNL     1      94.017  94.325  76.812  1.00  0.00     0.107 C 
ENDROOT
BRANCH   1   2
ATOM      2  C   UNL     1      95.489  93.953  76.618  1.00  0.00     0.121 C 
BRANCH   2   3
ATOM      3  O   UNL     1      95.873  94.186  75.265  1.00  0.00    -0.393 OA
ATOM      4  H   UNL     1      96.723  93.738  75.115  1.00  0.00     0.210 HD
ENDBRANCH   2   3
BRANCH   2   5
ATOM      5  C   UNL     1      96.431  94.725  77.550  1.00  0.00     0.032 C 
BRANCH   5   6
ATOM      6  C   UNL     1      95.846  94.883  78.959  1.00  0.00     0.003 C 
BRANCH   6   7
ATOM      7  C   UNL     1      96.712  95.746  79.882  1.00  0.00    -0.000 C 
BRANCH   7   8
ATOM      8  C   UNL     1      96.769  95.236  81.321  1.00  0.00    -0.003 C 
ATOM      9  C   UNL     1      95.375  95.077  81.908  1.00  0.00     0.004 C 
ENDBRANCH   7   8
ENDBRANCH   6   7
ENDBRANCH   5   6
ENDBRANCH   2   5
ENDBRANCH   1   2
BRANCH   1  10
ATOM     10  C   UNL     1      93.251  94.424  75.503  1.00  0.00     0.135 C 
ATOM     11  O   UNL     1      93.310  95.440  74.810  1.00  0.00    -0.300 OA
BRANCH  10  12
ATOM     12  C   UNL     1      92.456  93.197  75.083  1.00  0.00     0.080 C 
BRANCH  12  13
ATOM     13  C   UNL     1      90.963  93.293  75.400  1.00  0.00     0.043 C 
BRANCH  13  14
ATOM     14  C   UNL     1      90.095  92.598  74.378  1.00  0.00    -0.044 A 
ATOM     15  C   UNL     1      89.647  91.298  74.611  1.00  0.00     0.054 A 
ATOM     16  C   UNL     1      89.742  93.257  73.200  1.00  0.00     0.008 A 
ATOM     17  C   UNL     1      88.844  90.657  73.666  1.00  0.00     0.160 A 
ATOM     18  C   UNL     1      88.939  92.617  72.255  1.00  0.00     0.050 A 
ATOM     19  C   UNL     1      88.491  91.317  72.489  1.00  0.00     0.157 A 
BRANCH  17  20
ATOM     20  O   UNL     1      88.413  89.387  73.905  1.00  0.00    -0.493 OA
ATOM     21  C   UNL     1      89.247  88.561  74.716  1.00  0.00     0.278 C 
ENDBRANCH  17  20
BRANCH  19  22
ATOM     22  O   UNL     1      87.708  90.702  71.559  1.00  0.00    -0.504 OA
ATOM     23  H   UNL     1      86.814  90.585  71.925  1.00  0.00     0.293 HD
ENDBRANCH  19  22
ENDBRANCH  13  14
ENDBRANCH  12  13
ENDBRANCH  10  12
ENDBRANCH   1  10
TORSDOF 12
ENDMDL
MODEL 7
REMARK VINA RESULT:    -5.725     12.052     14.614
REMARK INTER + INTRA:         -10.679
REMARK INTER:                  -8.948
REMARK INTRA:                  -1.731
REMARK UNBOUND:                -1.273
REMARK SMILES CCCCC[C@H](O)CC(=O)CCc1ccc(O)c(OC)c1
REMARK SMILES IDX 8 1 6 2 7 3 5 5 4 6 3 7 2 8 1 9 9 10 10 11 11 12 12 13 13 14
REMARK SMILES IDX 21 15 14 16 18 17 15 18 16 19 19 20 20 21 17 22
REMARK H PARENT 7 4 17 23
REMARK Flexibility Score: inf
ROOT
ATOM      1  C   UNL     1      84.032  90.410  87.418  1.00  0.00     0.107 C 
ENDROOT
BRANCH   1   2
ATOM      2  C   UNL     1      84.961  90.539  86.209  1.00  0.00     0.121 C 
BRANCH   2   3
ATOM      3  O   UNL     1      86.008  89.575  86.298  1.00  0.00    -0.393 OA
ATOM      4  H   UNL     1      85.754  88.922  86.974  1.00  0.00     0.210 HD
ENDBRANCH   2   3
BRANCH   2   5
ATOM      5  C   UNL     1      84.231  90.369  84.871  1.00  0.00     0.032 C 
BRANCH   5   6
ATOM      6  C   UNL     1      83.244  89.196  84.897  1.00  0.00     0.003 C 
BRANCH   6   7
ATOM      7  C   UNL     1      81.880  89.537  84.287  1.00  0.00    -0.000 C 
BRANCH   7   8
ATOM      8  C   UNL     1      80.974  88.323  84.096  1.00  0.00    -0.003 C 
ATOM      9  C   UNL     1      79.550  88.618  84.543  1.00  0.00     0.004 C 
ENDBRANCH   7   8
ENDBRANCH   6   7
ENDBRANCH   5   6
ENDBRANCH   2   5
ENDBRANCH   1   2
BRANCH   1  10
ATOM     10  C   UNL     1      83.207  91.661  87.672  1.00  0.00     0.135 C 
ATOM     11  O   UNL     1      83.643  92.776  87.382  1.00  0.00    -0.300 OA
BRANCH  10  12
ATOM     12  C   UNL     1      81.817  91.455  88.253  1.00  0.00     0.080 C 
BRANCH  12  13
ATOM     13  C   UNL     1      80.955  90.477  87.453  1.00  0.00     0.043 C 
BRANCH  13  14
ATOM     14  C   UNL     1      80.651  89.203  88.206  1.00  0.00    -0.044 A 
ATOM     15  C   UNL     1      81.280  88.012  87.843  1.00  0.00     0.054 A 
ATOM     16  C   UNL     1      79.742  89.219  89.264  1.00  0.00     0.008 A 
ATOM     17  C   UNL     1      80.999  86.836  88.540  1.00  0.00     0.160 A 
ATOM     18  C   UNL     1      79.462  88.043  89.961  1.00  0.00     0.050 A 
ATOM     19  C   UNL     1      80.090  86.852  89.598  1.00  0.00     0.157 A 
BRANCH  17  20
ATOM     20  O   UNL     1      81.619  85.679  88.176  1.00  0.00    -0.493 OA
ATOM     21  C   UNL     1      82.276  85.665  86.910  1.00  0.00     0.278 C 
ENDBRANCH  17  20
BRANCH  19  22
ATOM     22  O   UNL     1      79.809  85.711  90.286  1.00  0.00    -0.504 OA
ATOM     23  H   UNL     1      79.951  85.869  91.235  1.00  0.00     0.293 HD
ENDBRANCH  19  22
ENDBRANCH  13  14
ENDBRANCH  12  13
ENDBRANCH  10  12
ENDBRANCH   1  10
TORSDOF 12
ENDMDL
MODEL 8
REMARK VINA RESULT:    -5.585     11.858     15.047
REMARK INTER + INTRA:         -10.449
REMARK INTER:                  -8.259
REMARK INTRA:                  -2.191
REMARK UNBOUND:                -1.273
REMARK SMILES CCCCC[C@H](O)CC(=O)CCc1ccc(O)c(OC)c1
REMARK SMILES IDX 8 1 6 2 7 3 5 5 4 6 3 7 2 8 1 9 9 10 10 11 11 12 12 13 13 14
REMARK SMILES IDX 21 15 14 16 18 17 15 18 16 19 19 20 20 21 17 22
REMARK H PARENT 7 4 17 23
REMARK Flexibility Score: inf
ROOT
ATOM      1  C   UNL     1      80.453  87.548  86.043  1.00  0.00     0.107 C 
ENDROOT
BRANCH   1   2
ATOM      2  C   UNL     1      81.718  86.992  85.386  1.00  0.00     0.121 C 
BRANCH   2   3
ATOM      3  O   UNL     1      81.746  87.353  84.007  1.00  0.00    -0.393 OA
ATOM      4  H   UNL     1      82.048  88.276  83.947  1.00  0.00     0.210 HD
ENDBRANCH   2   3
BRANCH   2   5
ATOM      5  C   UNL     1      83.007  87.476  86.061  1.00  0.00     0.032 C 
BRANCH   5   6
ATOM      6  C   UNL     1      83.526  88.781  85.444  1.00  0.00     0.003 C 
BRANCH   6   7
ATOM      7  C   UNL     1      84.440  89.575  86.382  1.00  0.00    -0.000 C 
BRANCH   7   8
ATOM      8  C   UNL     1      85.482  90.419  85.652  1.00  0.00    -0.003 C 
ATOM      9  C   UNL     1      84.987  91.840  85.429  1.00  0.00     0.004 C 
ENDBRANCH   7   8
ENDBRANCH   6   7
ENDBRANCH   5   6
ENDBRANCH   2   5
ENDBRANCH   1   2
BRANCH   1  10
ATOM     10  C   UNL     1      79.893  88.764  85.322  1.00  0.00     0.135 C 
ATOM     11  O   UNL     1      79.176  88.636  84.330  1.00  0.00    -0.300 OA
BRANCH  10  12
ATOM     12  C   UNL     1      80.227  90.123  85.917  1.00  0.00     0.080 C 
BRANCH  12  13
ATOM     13  C   UNL     1      79.974  90.215  87.423  1.00  0.00     0.043 C 
BRANCH  13  14
ATOM     14  C   UNL     1      81.220  90.531  88.215  1.00  0.00    -0.044 A 
ATOM     15  C   UNL     1      81.727  89.599  89.120  1.00  0.00     0.054 A 
ATOM     16  C   UNL     1      81.864  91.757  88.040  1.00  0.00     0.008 A 
ATOM     17  C   UNL     1      82.879  89.893  89.850  1.00  0.00     0.160 A 
ATOM     18  C   UNL     1      83.016  92.050  88.770  1.00  0.00     0.050 A 
ATOM     19  C   UNL     1      83.523  91.118  89.675  1.00  0.00     0.157 A 
BRANCH  17  20
ATOM     20  O   UNL     1      83.365  88.975  90.732  1.00  0.00    -0.493 OA
ATOM     21  C   UNL     1      82.727  88.899  92.006  1.00  0.00     0.278 C 
ENDBRANCH  17  20
BRANCH  19  22
ATOM     22  O   UNL     1      84.649  91.416  90.383  1.00  0.00    -0.504 OA
ATOM     23  H   UNL     1      85.132  90.592  90.570  1.00  0.00     0.293 HD
ENDBRANCH  19  22
ENDBRANCH  13  14
ENDBRANCH  12  13
ENDBRANCH  10  12
ENDBRANCH   1  10
TORSDOF 12
ENDMDL
MODEL 9
REMARK VINA RESULT:    -5.583     12.224     15.079
REMARK INTER + INTRA:         -10.447
REMARK INTER:                  -9.129
REMARK INTRA:                  -1.317
REMARK UNBOUND:                -1.273
REMARK SMILES CCCCC[C@H](O)CC(=O)CCc1ccc(O)c(OC)c1
REMARK SMILES IDX 8 1 6 2 7 3 5 5 4 6 3 7 2 8 1 9 9 10 10 11 11 12 12 13 13 14
REMARK SMILES IDX 21 15 14 16 18 17 15 18 16 19 19 20 20 21 17 22
REMARK H PARENT 7 4 17 23
REMARK Flexibility Score: inf
ROOT
ATOM      1  C   UNL     1      83.709  90.303  85.377  1.00  0.00     0.107 C 
ENDROOT
BRANCH   1   2
ATOM      2  C   UNL     1      84.356  89.748  86.649  1.00  0.00     0.121 C 
BRANCH   2   3
ATOM      3  O   UNL     1      85.772  89.704  86.490  1.00  0.00    -0.393 OA
ATOM      4  H   UNL     1      86.090  88.871  86.880  1.00  0.00     0.210 HD
ENDBRANCH   2   3
BRANCH   2   5
ATOM      5  C   UNL     1      84.013  90.563  87.902  1.00  0.00     0.032 C 
BRANCH   5   6
ATOM      6  C   UNL     1      83.202  91.820  87.567  1.00  0.00     0.003 C 
BRANCH   6   7
ATOM      7  C   UNL     1      82.923  92.705  88.787  1.00  0.00    -0.000 C 
BRANCH   7   8
ATOM      8  C   UNL     1      82.673  94.170  88.436  1.00  0.00    -0.003 C 
ATOM      9  C   UNL     1      83.731  94.700  87.480  1.00  0.00     0.004 C 
ENDBRANCH   7   8
ENDBRANCH   6   7
ENDBRANCH   5   6
ENDBRANCH   2   5
ENDBRANCH   1   2
BRANCH   1  10
ATOM     10  C   UNL     1      82.696  89.351  84.760  1.00  0.00     0.135 C 
ATOM     11  O   UNL     1      83.003  88.191  84.488  1.00  0.00    -0.300 OA
BRANCH  10  12
ATOM     12  C   UNL     1      81.292  89.894  84.546  1.00  0.00     0.080 C 
BRANCH  12  13
ATOM     13  C   UNL     1      80.187  88.941  85.004  1.00  0.00     0.043 C 
BRANCH  13  14
ATOM     14  C   UNL     1      80.404  88.411  86.402  1.00  0.00    -0.044 A 
ATOM     15  C   UNL     1      80.571  89.297  87.466  1.00  0.00     0.054 A 
ATOM     16  C   UNL     1      80.437  87.034  86.628  1.00  0.00     0.008 A 
ATOM     17  C   UNL     1      80.771  88.806  88.756  1.00  0.00     0.160 A 
ATOM     18  C   UNL     1      80.637  86.543  87.918  1.00  0.00     0.050 A 
ATOM     19  C   UNL     1      80.804  87.429  88.982  1.00  0.00     0.157 A 
BRANCH  17  20
ATOM     20  O   UNL     1      80.934  89.681  89.788  1.00  0.00    -0.493 OA
ATOM     21  C   UNL     1      79.753  90.266  90.334  1.00  0.00     0.278 C 
ENDBRANCH  17  20
BRANCH  19  22
ATOM     22  O   UNL     1      80.998  86.939  90.238  1.00  0.00    -0.504 OA
ATOM     23  H   UNL     1      81.845  87.272  90.581  1.00  0.00     0.293 HD
ENDBRANCH  19  22
ENDBRANCH  13  14
ENDBRANCH  12  13
ENDBRANCH  10  12
ENDBRANCH   1  10
TORSDOF 12
ENDMDL
MODEL 10
REMARK VINA RESULT:    -5.518     11.692     14.878
REMARK INTER + INTRA:         -10.339
REMARK INTER:                  -8.301
REMARK INTRA:                  -2.038
REMARK UNBOUND:                -1.273
REMARK SMILES CCCCC[C@H](O)CC(=O)CCc1ccc(O)c(OC)c1
REMARK SMILES IDX 8 1 6 2 7 3 5 5 4 6 3 7 2 8 1 9 9 10 10 11 11 12 12 13 13 14
REMARK SMILES IDX 21 15 14 16 18 17 15 18 16 19 19 20 20 21 17 22
REMARK H PARENT 7 4 17 23
REMARK Flexibility Score: inf
ROOT
ATOM      1  C   UNL     1      80.654  87.453  85.941  1.00  0.00     0.107 C 
ENDROOT
BRANCH   1   2
ATOM      2  C   UNL     1      81.951  87.151  85.186  1.00  0.00     0.121 C 
BRANCH   2   3
ATOM      3  O   UNL     1      81.910  87.753  83.894  1.00  0.00    -0.393 OA
ATOM      4  H   UNL     1      80.985  87.994  83.707  1.00  0.00     0.210 HD
ENDBRANCH   2   3
BRANCH   2   5
ATOM      5  C   UNL     1      83.203  87.633  85.928  1.00  0.00     0.032 C 
BRANCH   5   6
ATOM      6  C   UNL     1      83.551  89.087  85.587  1.00  0.00     0.003 C 
BRANCH   6   7
ATOM      7  C   UNL     1      84.566  89.710  86.551  1.00  0.00    -0.000 C 
BRANCH   7   8
ATOM      8  C   UNL     1      85.747  90.378  85.849  1.00  0.00    -0.003 C 
ATOM      9  C   UNL     1      85.328  91.673  85.170  1.00  0.00     0.004 C 
ENDBRANCH   7   8
ENDBRANCH   6   7
ENDBRANCH   5   6
ENDBRANCH   2   5
ENDBRANCH   1   2
BRANCH   1  10
ATOM     10  C   UNL     1      79.978  88.733  85.476  1.00  0.00     0.135 C 
ATOM     11  O   UNL     1      79.285  88.749  84.458  1.00  0.00    -0.300 OA
BRANCH  10  12
ATOM     12  C   UNL     1      80.168  89.962  86.352  1.00  0.00     0.080 C 
BRANCH  12  13
ATOM     13  C   UNL     1      80.142  89.658  87.851  1.00  0.00     0.043 C 
BRANCH  13  14
ATOM     14  C   UNL     1      81.363  90.167  88.579  1.00  0.00    -0.044 A 
ATOM     15  C   UNL     1      81.707  91.517  88.505  1.00  0.00     0.054 A 
ATOM     16  C   UNL     1      82.147  89.287  89.326  1.00  0.00     0.008 A 
ATOM     17  C   UNL     1      82.835  91.986  89.179  1.00  0.00     0.160 A 
ATOM     18  C   UNL     1      83.275  89.756  90.000  1.00  0.00     0.050 A 
ATOM     19  C   UNL     1      83.619  91.106  89.926  1.00  0.00     0.157 A 
BRANCH  17  20
ATOM     20  O   UNL     1      83.162  93.307  89.099  1.00  0.00    -0.493 OA
ATOM     21  C   UNL     1      83.431  93.830  87.800  1.00  0.00     0.278 C 
ENDBRANCH  17  20
BRANCH  19  22
ATOM     22  O   UNL     1      84.722  91.553  90.588  1.00  0.00    -0.504 OA
ATOM     23  H   UNL     1      84.581  92.479  90.850  1.00  0.00     0.293 HD
ENDBRANCH  19  22
ENDBRANCH  13  14
ENDBRANCH  12  13
ENDBRANCH  10  12
ENDBRANCH   1  10
TORSDOF 12
ENDMDL
