MODEL 1
REMARK VINA RESULT:    -7.215      0.000      0.000
REMARK INTER + INTRA:          -8.881
REMARK INTER:                  -8.480
REMARK INTRA:                  -0.401
REMARK UNBOUND:                -0.401
REMARK SMILES O=C(/C=C/C=C/c1ccc2c(c1)OCO2)N1CCCCC1
REMARK SMILES IDX 3 1 4 2 2 3 1 4 16 5 17 6 21 7 18 8 20 9 19 10 5 11 6 12
REMARK SMILES IDX 7 13 12 14 8 15 11 16 9 17 13 18 10 19 14 20 15 21
REMARK H PARENT
REMARK Flexibility Score: inf
ROOT
ATOM      1  C   UNL     1      99.010  82.998  81.010  1.00  0.00     0.071 C 
ATOM      2  C   UNL     1      98.945  82.108  81.999  1.00  0.00     0.006 C 
ENDROOT
BRANCH   1   3
ATOM      3  C   UNL     1      99.849  82.674  79.839  1.00  0.00     0.246 C 
ATOM      4  O   UNL     1     100.884  82.038  80.039  1.00  0.00    -0.270 OA
ATOM      5  N   UNL     1      99.417  83.114  78.589  1.00  0.00    -0.339 N 
ATOM      6  C   UNL     1     100.232  82.812  77.408  1.00  0.00     0.120 C 
ATOM      7  C   UNL     1      98.213  83.913  78.317  1.00  0.00     0.120 C 
ATOM      8  C   UNL     1      99.405  82.138  76.318  1.00  0.00     0.022 C 
ATOM      9  C   UNL     1      97.358  83.271  77.225  1.00  0.00     0.022 C 
ATOM     10  C   UNL     1      98.175  82.971  75.971  1.00  0.00     0.004 C 
ENDBRANCH   1   3
BRANCH   2  11
ATOM     11  C   UNL     1      98.150  82.336  83.187  1.00  0.00     0.001 C 
ATOM     12  C   UNL     1      97.790  83.563  83.597  1.00  0.00     0.008 C 
BRANCH  12  13
ATOM     13  C   UNL     1      96.991  83.851  84.799  1.00  0.00    -0.022 A 
ATOM     14  C   UNL     1      96.862  85.166  85.226  1.00  0.00     0.058 A 
ATOM     15  C   UNL     1      96.384  82.792  85.479  1.00  0.00     0.012 A 
ATOM     16  C   UNL     1      96.103  85.386  86.357  1.00  0.00     0.166 A 
ATOM     17  C   UNL     1      95.621  83.044  86.622  1.00  0.00     0.051 A 
ATOM     18  O   UNL     1      95.859  86.596  86.932  1.00  0.00    -0.454 OA
ATOM     19  C   UNL     1      95.499  84.353  87.037  1.00  0.00     0.165 A 
ATOM     20  C   UNL     1      95.034  86.208  88.049  1.00  0.00     0.468 C 
ATOM     21  O   UNL     1      94.801  84.786  88.122  1.00  0.00    -0.454 OA
ENDBRANCH  12  13
ENDBRANCH   2  11
TORSDOF 3
ENDMDL
MODEL 2
REMARK VINA RESULT:    -7.138     23.867     26.035
REMARK INTER + INTRA:          -8.791
REMARK INTER:                  -8.380
REMARK INTRA:                  -0.411
REMARK UNBOUND:                -0.401
REMARK SMILES O=C(/C=C/C=C/c1ccc2c(c1)OCO2)N1CCCCC1
REMARK SMILES IDX 3 1 4 2 2 3 1 4 16 5 17 6 21 7 18 8 20 9 19 10 5 11 6 12
REMARK SMILES IDX 7 13 12 14 8 15 11 16 9 17 13 18 10 19 14 20 15 21
REMARK H PARENT
REMARK Flexibility Score: inf
ROOT
ATOM      1  C   UNL     1      76.038  91.760  71.531  1.00  0.00     0.071 C 
ATOM      2  C   UNL     1      74.952  90.998  71.412  1.00  0.00     0.006 C 
ENDROOT
BRANCH   1   3
ATOM      3  C   UNL     1      75.856  93.174  71.917  1.00  0.00     0.246 C 
ATOM      4  O   UNL     1      74.990  93.818  71.325  1.00  0.00    -0.270 OA
ATOM      5  N   UNL     1      76.679  93.685  72.919  1.00  0.00    -0.339 N 
ATOM      6  C   UNL     1      76.526  95.087  73.319  1.00  0.00     0.120 C 
ATOM      7  C   UNL     1      77.753  92.961  73.615  1.00  0.00     0.120 C 
ATOM      8  C   UNL     1      76.338  95.218  74.827  1.00  0.00     0.022 C 
ATOM      9  C   UNL     1      77.602  93.072  75.132  1.00  0.00     0.022 C 
ATOM     10  C   UNL     1      77.469  94.525  75.581  1.00  0.00     0.004 C 
ENDBRANCH   1   3
BRANCH   2  11
ATOM     11  C   UNL     1      75.029  89.602  71.039  1.00  0.00     0.001 C 
ATOM     12  C   UNL     1      76.103  89.070  70.433  1.00  0.00     0.008 C 
BRANCH  12  13
ATOM     13  C   UNL     1      76.230  87.661  70.025  1.00  0.00    -0.022 A 
ATOM     14  C   UNL     1      77.370  87.255  69.345  1.00  0.00     0.058 A 
ATOM     15  C   UNL     1      75.199  86.770  70.334  1.00  0.00     0.012 A 
ATOM     16  C   UNL     1      77.444  85.925  68.984  1.00  0.00     0.166 A 
ATOM     17  C   UNL     1      75.300  85.429  69.957  1.00  0.00     0.051 A 
ATOM     18  O   UNL     1      78.472  85.335  68.314  1.00  0.00    -0.454 OA
ATOM     19  C   UNL     1      76.436  85.036  69.282  1.00  0.00     0.165 A 
ATOM     20  C   UNL     1      77.999  83.976  68.225  1.00  0.00     0.468 C 
ATOM     21  O   UNL     1      76.707  83.779  68.836  1.00  0.00    -0.454 OA
ENDBRANCH  12  13
ENDBRANCH   2  11
TORSDOF 3
ENDMDL
MODEL 3
REMARK VINA RESULT:    -7.075      2.749      8.823
REMARK INTER + INTRA:          -8.717
REMARK INTER:                  -8.326
REMARK INTRA:                  -0.392
REMARK UNBOUND:                -0.401
REMARK SMILES O=C(/C=C/C=C/c1ccc2c(c1)OCO2)N1CCCCC1
REMARK SMILES IDX 3 1 4 2 2 3 1 4 16 5 17 6 21 7 18 8 20 9 19 10 5 11 6 12
REMARK SMILES IDX 7 13 12 14 8 15 11 16 9 17 13 18 10 19 14 20 15 21
REMARK H PARENT
REMARK Flexibility Score: inf
ROOT
ATOM      1  C   UNL     1      97.133  83.107  85.138  1.00  0.00     0.071 C 
ATOM      2  C   UNL     1      97.797  82.090  84.592  1.00  0.00     0.006 C 
ENDROOT
BRANCH   1   3
ATOM      3  C   UNL     1      96.748  83.003  86.559  1.00  0.00     0.246 C 
ATOM      4  O   UNL     1      97.110  81.999  87.174  1.00  0.00    -0.270 OA
ATOM      5  N   UNL     1      95.997  84.042  87.107  1.00  0.00    -0.339 N 
ATOM      6  C   UNL     1      95.595  83.963  88.515  1.00  0.00     0.120 C 
ATOM      7  C   UNL     1      95.509  85.231  86.394  1.00  0.00     0.120 C 
ATOM      8  C   UNL     1      95.996  85.220  89.280  1.00  0.00     0.022 C 
ATOM      9  C   UNL     1      95.889  86.514  87.133  1.00  0.00     0.022 C 
ATOM     10  C   UNL     1      95.457  86.472  88.596  1.00  0.00     0.004 C 
ENDBRANCH   1   3
BRANCH   2  11
ATOM     11  C   UNL     1      98.217  82.100  83.207  1.00  0.00     0.001 C 
ATOM     12  C   UNL     1      97.923  83.105  82.366  1.00  0.00     0.008 C 
BRANCH  12  13
ATOM     13  C   UNL     1      98.317  83.162  80.948  1.00  0.00    -0.022 A 
ATOM     14  C   UNL     1      97.369  83.513  79.996  1.00  0.00     0.058 A 
ATOM     15  C   UNL     1      99.636  82.861  80.599  1.00  0.00     0.012 A 
ATOM     16  C   UNL     1      97.786  83.553  78.682  1.00  0.00     0.166 A 
ATOM     17  C   UNL     1     100.031  82.910  79.260  1.00  0.00     0.051 A 
ATOM     18  O   UNL     1      97.012  83.872  77.608  1.00  0.00    -0.454 OA
ATOM     19  C   UNL     1      99.082  83.260  78.323  1.00  0.00     0.165 A 
ATOM     20  C   UNL     1      97.966  83.746  76.534  1.00  0.00     0.468 C 
ATOM     21  O   UNL     1      99.282  83.358  76.981  1.00  0.00    -0.454 OA
ENDBRANCH  12  13
ENDBRANCH   2  11
TORSDOF 3
ENDMDL
MODEL 4
REMARK VINA RESULT:    -7.015      3.188      8.961
REMARK INTER + INTRA:          -8.646
REMARK INTER:                  -8.313
REMARK INTRA:                  -0.333
REMARK UNBOUND:                -0.401
REMARK SMILES O=C(/C=C/C=C/c1ccc2c(c1)OCO2)N1CCCCC1
REMARK SMILES IDX 3 1 4 2 2 3 1 4 16 5 17 6 21 7 18 8 20 9 19 10 5 11 6 12
REMARK SMILES IDX 7 13 12 14 8 15 11 16 9 17 13 18 10 19 14 20 15 21
REMARK H PARENT
REMARK Flexibility Score: inf
ROOT
ATOM      1  C   UNL     1      97.441  83.860  84.863  1.00  0.00     0.071 C 
ATOM      2  C   UNL     1      97.882  82.739  84.295  1.00  0.00     0.006 C 
ENDROOT
BRANCH   1   3
ATOM      3  C   UNL     1      96.931  83.783  86.247  1.00  0.00     0.246 C 
ATOM      4  O   UNL     1      95.715  83.661  86.399  1.00  0.00    -0.270 OA
ATOM      5  N   UNL     1      97.857  83.857  87.286  1.00  0.00    -0.339 N 
ATOM      6  C   UNL     1      97.380  83.789  88.670  1.00  0.00     0.120 C 
ATOM      7  C   UNL     1      99.308  84.047  87.144  1.00  0.00     0.120 C 
ATOM      8  C   UNL     1      98.117  82.714  89.461  1.00  0.00     0.022 C 
ATOM      9  C   UNL     1     100.084  82.988  87.928  1.00  0.00     0.022 C 
ATOM     10  C   UNL     1      99.627  82.915  89.382  1.00  0.00     0.004 C 
ENDBRANCH   1   3
BRANCH   2  11
ATOM     11  C   UNL     1      98.400  82.714  82.944  1.00  0.00     0.001 C 
ATOM     12  C   UNL     1      97.730  83.227  81.899  1.00  0.00     0.008 C 
BRANCH  12  13
ATOM     13  C   UNL     1      98.206  83.222  80.505  1.00  0.00    -0.022 A 
ATOM     14  C   UNL     1      97.320  83.546  79.487  1.00  0.00     0.058 A 
ATOM     15  C   UNL     1      99.538  82.890  80.246  1.00  0.00     0.012 A 
ATOM     16  C   UNL     1      97.813  83.527  78.199  1.00  0.00     0.166 A 
ATOM     17  C   UNL     1     100.011  82.878  78.931  1.00  0.00     0.051 A 
ATOM     18  O   UNL     1      97.106  83.811  77.070  1.00  0.00    -0.454 OA
ATOM     19  C   UNL     1      99.122  83.202  77.928  1.00  0.00     0.165 A 
ATOM     20  C   UNL     1      98.118  83.629  76.059  1.00  0.00     0.468 C 
ATOM     21  O   UNL     1      99.400  83.243  76.596  1.00  0.00    -0.454 OA
ENDBRANCH  12  13
ENDBRANCH   2  11
TORSDOF 3
ENDMDL
MODEL 5
REMARK VINA RESULT:    -6.828     25.068     26.141
REMARK INTER + INTRA:          -8.426
REMARK INTER:                  -8.037
REMARK INTRA:                  -0.389
REMARK UNBOUND:                -0.401
REMARK SMILES O=C(/C=C/C=C/c1ccc2c(c1)OCO2)N1CCCCC1
REMARK SMILES IDX 3 1 4 2 2 3 1 4 16 5 17 6 21 7 18 8 20 9 19 10 5 11 6 12
REMARK SMILES IDX 7 13 12 14 8 15 11 16 9 17 13 18 10 19 14 20 15 21
REMARK H PARENT
REMARK Flexibility Score: inf
ROOT
ATOM      1  C   UNL     1      77.262  85.288  67.984  1.00  0.00     0.071 C 
ATOM      2  C   UNL     1      76.846  85.178  69.244  1.00  0.00     0.006 C 
ENDROOT
BRANCH   1   3
ATOM      3  C   UNL     1      77.621  84.051  67.261  1.00  0.00     0.246 C 
ATOM      4  O   UNL     1      78.751  83.595  67.441  1.00  0.00    -0.270 OA
ATOM      5  N   UNL     1      76.662  83.488  66.421  1.00  0.00    -0.339 N 
ATOM      6  C   UNL     1      76.992  82.263  65.686  1.00  0.00     0.120 C 
ATOM      7  C   UNL     1      75.322  84.028  66.147  1.00  0.00     0.120 C 
ATOM      8  C   UNL     1      75.946  81.178  65.913  1.00  0.00     0.022 C 
ATOM      9  C   UNL     1      74.244  82.966  66.361  1.00  0.00     0.022 C 
ATOM     10  C   UNL     1      74.547  81.688  65.583  1.00  0.00     0.004 C 
ENDBRANCH   1   3
BRANCH   2  11
ATOM     11  C   UNL     1      76.472  86.331  70.035  1.00  0.00     0.001 C 
ATOM     12  C   UNL     1      75.423  87.112  69.729  1.00  0.00     0.008 C 
BRANCH  12  13
ATOM     13  C   UNL     1      75.003  88.300  70.492  1.00  0.00    -0.022 A 
ATOM     14  C   UNL     1      75.749  89.466  70.390  1.00  0.00     0.058 A 
ATOM     15  C   UNL     1      73.865  88.220  71.298  1.00  0.00     0.012 A 
ATOM     16  C   UNL     1      75.316  90.552  71.123  1.00  0.00     0.166 A 
ATOM     17  C   UNL     1      73.450  89.335  72.030  1.00  0.00     0.051 A 
ATOM     18  O   UNL     1      75.908  91.778  71.159  1.00  0.00    -0.454 OA
ATOM     19  C   UNL     1      74.197  90.489  71.921  1.00  0.00     0.165 A 
ATOM     20  C   UNL     1      75.036  92.478  72.069  1.00  0.00     0.468 C 
ATOM     21  O   UNL     1      73.948  91.666  72.557  1.00  0.00    -0.454 OA
ENDBRANCH  12  13
ENDBRANCH   2  11
TORSDOF 3
ENDMDL
MODEL 6
REMARK VINA RESULT:    -6.580      3.103      8.939
REMARK INTER + INTRA:          -8.135
REMARK INTER:                  -7.744
REMARK INTRA:                  -0.392
REMARK UNBOUND:                -0.401
REMARK SMILES O=C(/C=C/C=C/c1ccc2c(c1)OCO2)N1CCCCC1
REMARK SMILES IDX 3 1 4 2 2 3 1 4 16 5 17 6 21 7 18 8 20 9 19 10 5 11 6 12
REMARK SMILES IDX 7 13 12 14 8 15 11 16 9 17 13 18 10 19 14 20 15 21
REMARK H PARENT
REMARK Flexibility Score: inf
ROOT
ATOM      1  C   UNL     1      96.020  82.945  85.992  1.00  0.00     0.071 C 
ATOM      2  C   UNL     1      96.416  84.037  85.341  1.00  0.00     0.006 C 
ENDROOT
BRANCH   1   3
ATOM      3  C   UNL     1      95.359  83.117  87.301  1.00  0.00     0.246 C 
ATOM      4  O   UNL     1      95.879  83.893  88.104  1.00  0.00    -0.270 OA
ATOM      5  N   UNL     1      94.195  82.388  87.542  1.00  0.00    -0.339 N 
ATOM      6  C   UNL     1      93.519  82.534  88.835  1.00  0.00     0.120 C 
ATOM      7  C   UNL     1      93.571  81.421  86.628  1.00  0.00     0.120 C 
ATOM      8  C   UNL     1      92.044  82.877  88.656  1.00  0.00     0.022 C 
ATOM      9  C   UNL     1      92.087  81.729  86.425  1.00  0.00     0.022 C 
ATOM     10  C   UNL     1      91.352  81.858  87.756  1.00  0.00     0.004 C 
ENDBRANCH   1   3
BRANCH   2  11
ATOM     11  C   UNL     1      97.073  83.969  84.053  1.00  0.00     0.001 C 
ATOM     12  C   UNL     1      97.818  82.919  83.672  1.00  0.00     0.008 C 
BRANCH  12  13
ATOM     13  C   UNL     1      98.514  82.803  82.379  1.00  0.00    -0.022 A 
ATOM     14  C   UNL     1      97.921  83.335  81.242  1.00  0.00     0.058 A 
ATOM     15  C   UNL     1      99.753  82.159  82.332  1.00  0.00     0.012 A 
ATOM     16  C   UNL     1      98.611  83.201  80.055  1.00  0.00     0.166 A 
ATOM     17  C   UNL     1     100.430  82.038  81.117  1.00  0.00     0.051 A 
ATOM     18  O   UNL     1      98.200  83.652  78.838  1.00  0.00    -0.454 OA
ATOM     19  C   UNL     1      99.832  82.570  79.994  1.00  0.00     0.165 A 
ATOM     20  C   UNL     1      99.300  83.233  78.004  1.00  0.00     0.468 C 
ATOM     21  O   UNL     1     100.339  82.546  78.731  1.00  0.00    -0.454 OA
ENDBRANCH  12  13
ENDBRANCH   2  11
TORSDOF 3
ENDMDL
MODEL 7
REMARK VINA RESULT:    -6.542      2.049      3.234
REMARK INTER + INTRA:          -8.090
REMARK INTER:                  -7.984
REMARK INTRA:                  -0.106
REMARK UNBOUND:                -0.401
REMARK SMILES O=C(/C=C/C=C/c1ccc2c(c1)OCO2)N1CCCCC1
REMARK SMILES IDX 3 1 4 2 2 3 1 4 16 5 17 6 21 7 18 8 20 9 19 10 5 11 6 12
REMARK SMILES IDX 7 13 12 14 8 15 11 16 9 17 13 18 10 19 14 20 15 21
REMARK H PARENT
REMARK Flexibility Score: inf
ROOT
ATOM      1  C   UNL     1      97.825  83.247  78.383  1.00  0.00     0.071 C 
ATOM      2  C   UNL     1      98.406  83.563  79.538  1.00  0.00     0.006 C 
ENDROOT
BRANCH   1   3
ATOM      3  C   UNL     1      98.494  83.660  77.133  1.00  0.00     0.246 C 
ATOM      4  O   UNL     1      97.933  84.513  76.442  1.00  0.00    -0.270 OA
ATOM      5  N   UNL     1      99.709  83.056  76.816  1.00  0.00    -0.339 N 
ATOM      6  C   UNL     1     100.394  83.441  75.578  1.00  0.00     0.120 C 
ATOM      7  C   UNL     1     100.385  82.004  77.590  1.00  0.00     0.120 C 
ATOM      8  C   UNL     1     101.839  83.850  75.846  1.00  0.00     0.022 C 
ATOM      9  C   UNL     1     101.840  82.376  77.876  1.00  0.00     0.022 C 
ATOM     10  C   UNL     1     102.586  82.755  76.600  1.00  0.00     0.004 C 
ENDBRANCH   1   3
BRANCH   2  11
ATOM     11  C   UNL     1      97.827  83.202  80.815  1.00  0.00     0.001 C 
ATOM     12  C   UNL     1      98.571  82.856  81.878  1.00  0.00     0.008 C 
BRANCH  12  13
ATOM     13  C   UNL     1      98.034  82.473  83.195  1.00  0.00    -0.022 A 
ATOM     14  C   UNL     1      97.334  83.413  83.939  1.00  0.00     0.058 A 
ATOM     15  C   UNL     1      98.245  81.173  83.660  1.00  0.00     0.012 A 
ATOM     16  C   UNL     1      96.851  83.007  85.166  1.00  0.00     0.166 A 
ATOM     17  C   UNL     1      97.745  80.788  84.906  1.00  0.00     0.051 A 
ATOM     18  O   UNL     1      96.144  83.776  86.040  1.00  0.00    -0.454 OA
ATOM     19  C   UNL     1      97.050  81.729  85.637  1.00  0.00     0.165 A 
ATOM     20  C   UNL     1      95.922  82.839  87.113  1.00  0.00     0.468 C 
ATOM     21  O   UNL     1      96.494  81.538  86.864  1.00  0.00    -0.454 OA
ENDBRANCH  12  13
ENDBRANCH   2  11
TORSDOF 3
ENDMDL
MODEL 8
REMARK VINA RESULT:    -6.450      8.357     10.867
REMARK INTER + INTRA:          -7.982
REMARK INTER:                  -7.585
REMARK INTRA:                  -0.398
REMARK UNBOUND:                -0.401
REMARK SMILES O=C(/C=C/C=C/c1ccc2c(c1)OCO2)N1CCCCC1
REMARK SMILES IDX 3 1 4 2 2 3 1 4 16 5 17 6 21 7 18 8 20 9 19 10 5 11 6 12
REMARK SMILES IDX 7 13 12 14 8 15 11 16 9 17 13 18 10 19 14 20 15 21
REMARK H PARENT
REMARK Flexibility Score: inf
ROOT
ATOM      1  C   UNL     1      94.592  86.968  89.574  1.00  0.00     0.071 C 
ATOM      2  C   UNL     1      94.874  86.292  88.462  1.00  0.00     0.006 C 
ENDROOT
BRANCH   1   3
ATOM      3  C   UNL     1      95.470  88.097  89.942  1.00  0.00     0.246 C 
ATOM      4  O   UNL     1      96.673  87.982  89.705  1.00  0.00    -0.270 OA
ATOM      5  N   UNL     1      94.881  89.211  90.538  1.00  0.00    -0.339 N 
ATOM      6  C   UNL     1      95.729  90.345  90.920  1.00  0.00     0.120 C 
ATOM      7  C   UNL     1      93.459  89.364  90.878  1.00  0.00     0.120 C 
ATOM      8  C   UNL     1      95.202  91.653  90.341  1.00  0.00     0.022 C 
ATOM      9  C   UNL     1      92.894  90.670  90.317  1.00  0.00     0.022 C 
ATOM     10  C   UNL     1      93.742  91.872  90.723  1.00  0.00     0.004 C 
ENDBRANCH   1   3
BRANCH   2  11
ATOM     11  C   UNL     1      94.073  85.171  88.019  1.00  0.00     0.001 C 
ATOM     12  C   UNL     1      92.893  84.856  88.577  1.00  0.00     0.008 C 
BRANCH  12  13
ATOM     13  C   UNL     1      92.042  83.724  88.171  1.00  0.00    -0.022 A 
ATOM     14  C   UNL     1      92.467  82.895  87.142  1.00  0.00     0.058 A 
ATOM     15  C   UNL     1      90.830  83.516  88.834  1.00  0.00     0.012 A 
ATOM     16  C   UNL     1      91.636  81.848  86.798  1.00  0.00     0.166 A 
ATOM     17  C   UNL     1      90.008  82.449  88.466  1.00  0.00     0.051 A 
ATOM     18  O   UNL     1      91.871  80.930  85.821  1.00  0.00    -0.454 OA
ATOM     19  C   UNL     1      90.439  81.631  87.442  1.00  0.00     0.165 A 
ATOM     20  C   UNL     1      90.689  80.111  85.923  1.00  0.00     0.468 C 
ATOM     21  O   UNL     1      89.776  80.550  86.949  1.00  0.00    -0.454 OA
ENDBRANCH  12  13
ENDBRANCH   2  11
TORSDOF 3
ENDMDL
MODEL 9
REMARK VINA RESULT:    -6.347      8.080     10.690
REMARK INTER + INTRA:          -7.861
REMARK INTER:                  -7.466
REMARK INTRA:                  -0.395
REMARK UNBOUND:                -0.401
REMARK SMILES O=C(/C=C/C=C/c1ccc2c(c1)OCO2)N1CCCCC1
REMARK SMILES IDX 3 1 4 2 2 3 1 4 16 5 17 6 21 7 18 8 20 9 19 10 5 11 6 12
REMARK SMILES IDX 7 13 12 14 8 15 11 16 9 17 13 18 10 19 14 20 15 21
REMARK H PARENT
REMARK Flexibility Score: inf
ROOT
ATOM      1  C   UNL     1      95.174  87.092  89.563  1.00  0.00     0.071 C 
ATOM      2  C   UNL     1      95.386  86.501  88.389  1.00  0.00     0.006 C 
ENDROOT
BRANCH   1   3
ATOM      3  C   UNL     1      95.871  88.365  89.836  1.00  0.00     0.246 C 
ATOM      4  O   UNL     1      97.055  88.447  89.508  1.00  0.00    -0.270 OA
ATOM      5  N   UNL     1      95.144  89.384  90.449  1.00  0.00    -0.339 N 
ATOM      6  C   UNL     1      95.811  90.658  90.738  1.00  0.00     0.120 C 
ATOM      7  C   UNL     1      93.745  89.308  90.895  1.00  0.00     0.120 C 
ATOM      8  C   UNL     1      95.027  91.837  90.171  1.00  0.00     0.022 C 
ATOM      9  C   UNL     1      92.926  90.477  90.350  1.00  0.00     0.022 C 
ATOM     10  C   UNL     1      93.582  91.819  90.661  1.00  0.00     0.004 C 
ENDBRANCH   1   3
BRANCH   2  11
ATOM     11  C   UNL     1      94.749  85.251  88.030  1.00  0.00     0.001 C 
ATOM     12  C   UNL     1      93.428  85.046  88.160  1.00  0.00     0.008 C 
BRANCH  12  13
ATOM     13  C   UNL     1      92.731  83.794  87.819  1.00  0.00    -0.022 A 
ATOM     14  C   UNL     1      91.419  83.617  88.235  1.00  0.00     0.058 A 
ATOM     15  C   UNL     1      93.411  82.818  87.085  1.00  0.00     0.012 A 
ATOM     16  C   UNL     1      90.808  82.428  87.891  1.00  0.00     0.166 A 
ATOM     17  C   UNL     1      92.769  81.624  86.751  1.00  0.00     0.051 A 
ATOM     18  O   UNL     1      89.534  82.066  88.204  1.00  0.00    -0.454 OA
ATOM     19  C   UNL     1      91.465  81.458  87.168  1.00  0.00     0.165 A 
ATOM     20  C   UNL     1      89.463  80.759  87.598  1.00  0.00     0.468 C 
ATOM     21  O   UNL     1      90.684  80.367  86.939  1.00  0.00    -0.454 OA
ENDBRANCH  12  13
ENDBRANCH   2  11
TORSDOF 3
ENDMDL
MODEL 10
REMARK VINA RESULT:    -6.256      3.851      9.215
REMARK INTER + INTRA:          -7.754
REMARK INTER:                  -7.417
REMARK INTRA:                  -0.337
REMARK UNBOUND:                -0.401
REMARK SMILES O=C(/C=C/C=C/c1ccc2c(c1)OCO2)N1CCCCC1
REMARK SMILES IDX 3 1 4 2 2 3 1 4 16 5 17 6 21 7 18 8 20 9 19 10 5 11 6 12
REMARK SMILES IDX 7 13 12 14 8 15 11 16 9 17 13 18 10 19 14 20 15 21
REMARK H PARENT
REMARK Flexibility Score: inf
ROOT
ATOM      1  C   UNL     1      94.550  82.187  86.565  1.00  0.00     0.071 C 
ATOM      2  C   UNL     1      95.862  82.331  86.740  1.00  0.00     0.006 C 
ENDROOT
BRANCH   1   3
ATOM      3  C   UNL     1      93.663  82.435  87.720  1.00  0.00     0.246 C 
ATOM      4  O   UNL     1      94.106  83.125  88.639  1.00  0.00    -0.270 OA
ATOM      5  N   UNL     1      92.389  81.870  87.694  1.00  0.00    -0.339 N 
ATOM      6  C   UNL     1      91.489  82.095  88.829  1.00  0.00     0.120 C 
ATOM      7  C   UNL     1      91.843  81.005  86.638  1.00  0.00     0.120 C 
ATOM      8  C   UNL     1      90.139  82.637  88.370  1.00  0.00     0.022 C 
ATOM      9  C   UNL     1      90.486  81.515  86.153  1.00  0.00     0.022 C 
ATOM     10  C   UNL     1      89.518  81.731  87.312  1.00  0.00     0.004 C 
ENDBRANCH   1   3
BRANCH   2  11
ATOM     11  C   UNL     1      96.810  82.109  85.669  1.00  0.00     0.001 C 
ATOM     12  C   UNL     1      97.055  83.022  84.716  1.00  0.00     0.008 C 
BRANCH  12  13
ATOM     13  C   UNL     1      98.002  82.846  83.601  1.00  0.00    -0.022 A 
ATOM     14  C   UNL     1      99.182  82.150  83.821  1.00  0.00     0.058 A 
ATOM     15  C   UNL     1      97.685  83.384  82.352  1.00  0.00     0.012 A 
ATOM     16  C   UNL     1     100.036  82.010  82.747  1.00  0.00     0.166 A 
ATOM     17  C   UNL     1      98.568  83.228  81.281  1.00  0.00     0.051 A 
ATOM     18  O   UNL     1     101.236  81.366  82.759  1.00  0.00    -0.454 OA
ATOM     19  C   UNL     1      99.738  82.535  81.510  1.00  0.00     0.165 A 
ATOM     20  C   UNL     1     101.658  81.545  81.392  1.00  0.00     0.468 C 
ATOM     21  O   UNL     1     100.712  82.286  80.593  1.00  0.00    -0.454 OA
ENDBRANCH  12  13
ENDBRANCH   2  11
TORSDOF 3
ENDMDL
