MODEL 1
REMARK VINA RESULT:    -8.001      0.000      0.000
REMARK INTER + INTRA:          -9.701
REMARK INTER:                  -9.404
REMARK INTRA:                  -0.297
REMARK UNBOUND:                -0.297
REMARK SMILES O=C(/C=C/C=C/c1ccc2c(c1)OCO2)N1CCCCC1
REMARK SMILES IDX 3 1 4 2 2 3 1 4 16 5 17 6 21 7 18 8 20 9 19 10 5 11 6 12
REMARK SMILES IDX 7 13 12 14 8 15 11 16 9 17 13 18 10 19 14 20 15 21
REMARK H PARENT
REMARK Flexibility Score: inf
ROOT
ATOM      1  C   UNL     1      96.476  83.540  83.103  1.00  0.00     0.071 C 
ATOM      2  C   UNL     1      97.255  82.584  82.600  1.00  0.00     0.006 C 
ENDROOT
BRANCH   1   3
ATOM      3  C   UNL     1      96.167  83.496  84.546  1.00  0.00     0.246 C 
ATOM      4  O   UNL     1      96.866  84.177  85.298  1.00  0.00    -0.270 OA
ATOM      5  N   UNL     1      95.112  82.686  84.960  1.00  0.00    -0.339 N 
ATOM      6  C   UNL     1      94.785  82.618  86.388  1.00  0.00     0.120 C 
ATOM      7  C   UNL     1      94.286  81.827  84.099  1.00  0.00     0.120 C 
ATOM      8  C   UNL     1      93.309  82.911  86.636  1.00  0.00     0.022 C 
ATOM      9  C   UNL     1      92.796  82.089  84.321  1.00  0.00     0.022 C 
ATOM     10  C   UNL     1      92.422  81.996  85.798  1.00  0.00     0.004 C 
ENDBRANCH   1   3
BRANCH   2  11
ATOM     11  C   UNL     1      97.613  82.542  81.198  1.00  0.00     0.001 C 
ATOM     12  C   UNL     1      96.955  83.241  80.259  1.00  0.00     0.008 C 
BRANCH  12  13
ATOM     13  C   UNL     1      97.272  83.229  78.821  1.00  0.00    -0.022 A 
ATOM     14  C   UNL     1      96.505  83.996  77.953  1.00  0.00     0.058 A 
ATOM     15  C   UNL     1      98.336  82.445  78.368  1.00  0.00     0.012 A 
ATOM     16  C   UNL     1      96.841  83.951  76.616  1.00  0.00     0.166 A 
ATOM     17  C   UNL     1      98.653  82.419  77.008  1.00  0.00     0.051 A 
ATOM     18  O   UNL     1      96.214  84.627  75.613  1.00  0.00    -0.454 OA
ATOM     19  C   UNL     1      97.886  83.184  76.155  1.00  0.00     0.165 A 
ATOM     20  C   UNL     1      96.982  84.198  74.471  1.00  0.00     0.468 C 
ATOM     21  O   UNL     1      98.045  83.282  74.807  1.00  0.00    -0.454 OA
ENDBRANCH  12  13
ENDBRANCH   2  11
TORSDOF 3
ENDMDL
MODEL 2
REMARK VINA RESULT:    -7.661      3.065      9.280
REMARK INTER + INTRA:          -9.302
REMARK INTER:                  -8.917
REMARK INTRA:                  -0.385
REMARK UNBOUND:                -0.297
REMARK SMILES O=C(/C=C/C=C/c1ccc2c(c1)OCO2)N1CCCCC1
REMARK SMILES IDX 3 1 4 2 2 3 1 4 16 5 17 6 21 7 18 8 20 9 19 10 5 11 6 12
REMARK SMILES IDX 7 13 12 14 8 15 11 16 9 17 13 18 10 19 14 20 15 21
REMARK H PARENT
REMARK Flexibility Score: inf
ROOT
ATOM      1  C   UNL     1      97.506  83.935  76.828  1.00  0.00     0.071 C 
ATOM      2  C   UNL     1      96.369  83.927  77.520  1.00  0.00     0.006 C 
ENDROOT
BRANCH   1   3
ATOM      3  C   UNL     1      97.455  84.352  75.412  1.00  0.00     0.246 C 
ATOM      4  O   UNL     1      96.358  84.671  74.953  1.00  0.00    -0.270 OA
ATOM      5  N   UNL     1      98.648  84.353  74.692  1.00  0.00    -0.339 N 
ATOM      6  C   UNL     1      98.628  84.757  73.283  1.00  0.00     0.120 C 
ATOM      7  C   UNL     1      99.967  83.936  75.193  1.00  0.00     0.120 C 
ATOM      8  C   UNL     1      99.652  85.852  73.003  1.00  0.00     0.022 C 
ATOM      9  C   UNL     1     101.023  85.008  74.927  1.00  0.00     0.022 C 
ATOM     10  C   UNL     1     101.044  85.429  73.460  1.00  0.00     0.004 C 
ENDBRANCH   1   3
BRANCH   2  11
ATOM     11  C   UNL     1      96.318  83.534  78.912  1.00  0.00     0.001 C 
ATOM     12  C   UNL     1      97.412  83.184  79.609  1.00  0.00     0.008 C 
BRANCH  12  13
ATOM     13  C   UNL     1      97.416  82.769  81.022  1.00  0.00    -0.022 A 
ATOM     14  C   UNL     1      96.684  83.504  81.944  1.00  0.00     0.058 A 
ATOM     15  C   UNL     1      98.157  81.644  81.395  1.00  0.00     0.012 A 
ATOM     16  C   UNL     1      96.719  83.075  83.255  1.00  0.00     0.166 A 
ATOM     17  C   UNL     1      98.175  81.233  82.729  1.00  0.00     0.051 A 
ATOM     18  O   UNL     1      96.074  83.658  84.303  1.00  0.00    -0.454 OA
ATOM     19  C   UNL     1      97.444  81.970  83.638  1.00  0.00     0.165 A 
ATOM     20  C   UNL     1      96.474  82.795  85.387  1.00  0.00     0.468 C 
ATOM     21  O   UNL     1      97.344  81.721  84.972  1.00  0.00    -0.454 OA
ENDBRANCH  12  13
ENDBRANCH   2  11
TORSDOF 3
ENDMDL
MODEL 3
REMARK VINA RESULT:    -7.445      4.327      9.144
REMARK INTER + INTRA:          -9.048
REMARK INTER:                  -8.703
REMARK INTRA:                  -0.346
REMARK UNBOUND:                -0.297
REMARK SMILES O=C(/C=C/C=C/c1ccc2c(c1)OCO2)N1CCCCC1
REMARK SMILES IDX 3 1 4 2 2 3 1 4 16 5 17 6 21 7 18 8 20 9 19 10 5 11 6 12
REMARK SMILES IDX 7 13 12 14 8 15 11 16 9 17 13 18 10 19 14 20 15 21
REMARK H PARENT
REMARK Flexibility Score: inf
ROOT
ATOM      1  C   UNL     1      94.810  82.043  84.419  1.00  0.00     0.071 C 
ATOM      2  C   UNL     1      93.802  81.173  84.408  1.00  0.00     0.006 C 
ENDROOT
BRANCH   1   3
ATOM      3  C   UNL     1      96.186  81.511  84.352  1.00  0.00     0.246 C 
ATOM      4  O   UNL     1      96.499  80.639  85.163  1.00  0.00    -0.270 OA
ATOM      5  N   UNL     1      97.038  82.035  83.381  1.00  0.00    -0.339 N 
ATOM      6  C   UNL     1      98.412  81.531  83.293  1.00  0.00     0.120 C 
ATOM      7  C   UNL     1      96.714  83.106  82.427  1.00  0.00     0.120 C 
ATOM      8  C   UNL     1      98.749  81.076  81.877  1.00  0.00     0.022 C 
ATOM      9  C   UNL     1      97.042  82.689  80.994  1.00  0.00     0.022 C 
ATOM     10  C   UNL     1      98.477  82.186  80.867  1.00  0.00     0.004 C 
ENDBRANCH   1   3
BRANCH   2  11
ATOM     11  C   UNL     1      92.419  81.598  84.471  1.00  0.00     0.001 C 
ATOM     12  C   UNL     1      91.392  80.764  84.240  1.00  0.00     0.008 C 
BRANCH  12  13
ATOM     13  C   UNL     1      89.970  81.145  84.282  1.00  0.00    -0.022 A 
ATOM     14  C   UNL     1      89.606  82.332  84.903  1.00  0.00     0.058 A 
ATOM     15  C   UNL     1      89.025  80.299  83.697  1.00  0.00     0.012 A 
ATOM     16  C   UNL     1      88.263  82.646  84.917  1.00  0.00     0.166 A 
ATOM     17  C   UNL     1      87.671  80.641  83.725  1.00  0.00     0.051 A 
ATOM     18  O   UNL     1      87.708  83.758  85.473  1.00  0.00    -0.454 OA
ATOM     19  C   UNL     1      87.320  81.823  84.344  1.00  0.00     0.165 A 
ATOM     20  C   UNL     1      86.312  83.542  85.186  1.00  0.00     0.468 C 
ATOM     21  O   UNL     1      86.058  82.316  84.469  1.00  0.00    -0.454 OA
ENDBRANCH  12  13
ENDBRANCH   2  11
TORSDOF 3
ENDMDL
MODEL 4
REMARK VINA RESULT:    -7.400      2.697      9.036
REMARK INTER + INTRA:          -8.995
REMARK INTER:                  -8.685
REMARK INTRA:                  -0.310
REMARK UNBOUND:                -0.297
REMARK SMILES O=C(/C=C/C=C/c1ccc2c(c1)OCO2)N1CCCCC1
REMARK SMILES IDX 3 1 4 2 2 3 1 4 16 5 17 6 21 7 18 8 20 9 19 10 5 11 6 12
REMARK SMILES IDX 7 13 12 14 8 15 11 16 9 17 13 18 10 19 14 20 15 21
REMARK H PARENT
REMARK Flexibility Score: inf
ROOT
ATOM      1  C   UNL     1      97.346  82.918  78.468  1.00  0.00     0.071 C 
ATOM      2  C   UNL     1      97.675  83.092  79.746  1.00  0.00     0.006 C 
ENDROOT
BRANCH   1   3
ATOM      3  C   UNL     1      98.433  82.688  77.496  1.00  0.00     0.246 C 
ATOM      4  O   UNL     1      99.281  81.842  77.780  1.00  0.00    -0.270 OA
ATOM      5  N   UNL     1      98.431  83.448  76.327  1.00  0.00    -0.339 N 
ATOM      6  C   UNL     1      99.501  83.246  75.345  1.00  0.00     0.120 C 
ATOM      7  C   UNL     1      97.463  84.497  75.974  1.00  0.00     0.120 C 
ATOM      8  C   UNL     1      98.937  82.978  73.954  1.00  0.00     0.022 C 
ATOM      9  C   UNL     1      96.877  84.265  74.582  1.00  0.00     0.022 C 
ATOM     10  C   UNL     1      97.971  84.080  73.534  1.00  0.00     0.004 C 
ENDBRANCH   1   3
BRANCH   2  11
ATOM     11  C   UNL     1      96.680  83.323  80.772  1.00  0.00     0.001 C 
ATOM     12  C   UNL     1      96.922  83.124  82.077  1.00  0.00     0.008 C 
BRANCH  12  13
ATOM     13  C   UNL     1      95.946  83.335  83.160  1.00  0.00    -0.022 A 
ATOM     14  C   UNL     1      95.918  84.559  83.815  1.00  0.00     0.058 A 
ATOM     15  C   UNL     1      95.074  82.297  83.497  1.00  0.00     0.012 A 
ATOM     16  C   UNL     1      94.986  84.709  84.821  1.00  0.00     0.166 A 
ATOM     17  C   UNL     1      94.140  82.477  84.520  1.00  0.00     0.051 A 
ATOM     18  O   UNL     1      94.803  85.825  85.579  1.00  0.00    -0.454 OA
ATOM     19  C   UNL     1      94.120  83.696  85.165  1.00  0.00     0.165 A 
ATOM     20  C   UNL     1      93.724  85.400  86.437  1.00  0.00     0.468 C 
ATOM     21  O   UNL     1      93.286  84.050  86.180  1.00  0.00    -0.454 OA
ENDBRANCH  12  13
ENDBRANCH   2  11
TORSDOF 3
ENDMDL
MODEL 5
REMARK VINA RESULT:    -7.169     12.881     15.014
REMARK INTER + INTRA:          -8.724
REMARK INTER:                  -8.351
REMARK INTRA:                  -0.373
REMARK UNBOUND:                -0.297
REMARK SMILES O=C(/C=C/C=C/c1ccc2c(c1)OCO2)N1CCCCC1
REMARK SMILES IDX 3 1 4 2 2 3 1 4 16 5 17 6 21 7 18 8 20 9 19 10 5 11 6 12
REMARK SMILES IDX 7 13 12 14 8 15 11 16 9 17 13 18 10 19 14 20 15 21
REMARK H PARENT
REMARK Flexibility Score: inf
ROOT
ATOM      1  C   UNL     1      94.073  95.318  77.605  1.00  0.00     0.071 C 
ATOM      2  C   UNL     1      94.575  96.536  77.796  1.00  0.00     0.006 C 
ENDROOT
BRANCH   1   3
ATOM      3  C   UNL     1      93.427  95.028  76.309  1.00  0.00     0.246 C 
ATOM      4  O   UNL     1      94.130  95.076  75.299  1.00  0.00    -0.270 OA
ATOM      5  N   UNL     1      92.066  94.724  76.315  1.00  0.00    -0.339 N 
ATOM      6  C   UNL     1      91.396  94.437  75.043  1.00  0.00     0.120 C 
ATOM      7  C   UNL     1      91.186  94.701  77.493  1.00  0.00     0.120 C 
ATOM      8  C   UNL     1      90.645  93.111  75.096  1.00  0.00     0.022 C 
ATOM      9  C   UNL     1      90.412  93.386  77.579  1.00  0.00     0.022 C 
ATOM     10  C   UNL     1      89.680  93.076  76.276  1.00  0.00     0.004 C 
ENDBRANCH   1   3
BRANCH   2  11
ATOM     11  C   UNL     1      95.226  96.915  79.032  1.00  0.00     0.001 C 
ATOM     12  C   UNL     1      96.215  96.193  79.583  1.00  0.00     0.008 C 
BRANCH  12  13
ATOM     13  C   UNL     1      96.905  96.528  80.840  1.00  0.00    -0.022 A 
ATOM     14  C   UNL     1      96.820  97.823  81.333  1.00  0.00     0.058 A 
ATOM     15  C   UNL     1      97.627  95.532  81.503  1.00  0.00     0.012 A 
ATOM     16  C   UNL     1      97.483  98.088  82.514  1.00  0.00     0.166 A 
ATOM     17  C   UNL     1      98.288  95.828  82.697  1.00  0.00     0.051 A 
ATOM     18  O   UNL     1      97.522  99.288  83.155  1.00  0.00    -0.454 OA
ATOM     19  C   UNL     1      98.198  97.117  83.178  1.00  0.00     0.165 A 
ATOM     20  C   UNL     1      98.341  98.963  84.297  1.00  0.00     0.468 C 
ATOM     21  O   UNL     1      98.773  97.587  84.318  1.00  0.00    -0.454 OA
ENDBRANCH  12  13
ENDBRANCH   2  11
TORSDOF 3
ENDMDL
MODEL 6
REMARK VINA RESULT:    -7.034      1.702      2.484
REMARK INTER + INTRA:          -8.565
REMARK INTER:                  -8.238
REMARK INTRA:                  -0.327
REMARK UNBOUND:                -0.297
REMARK SMILES O=C(/C=C/C=C/c1ccc2c(c1)OCO2)N1CCCCC1
REMARK SMILES IDX 3 1 4 2 2 3 1 4 16 5 17 6 21 7 18 8 20 9 19 10 5 11 6 12
REMARK SMILES IDX 7 13 12 14 8 15 11 16 9 17 13 18 10 19 14 20 15 21
REMARK H PARENT
REMARK Flexibility Score: inf
ROOT
ATOM      1  C   UNL     1      96.694  82.367  82.056  1.00  0.00     0.071 C 
ATOM      2  C   UNL     1      96.595  83.359  81.172  1.00  0.00     0.006 C 
ENDROOT
BRANCH   1   3
ATOM      3  C   UNL     1      96.064  82.550  83.379  1.00  0.00     0.246 C 
ATOM      4  O   UNL     1      95.753  83.695  83.707  1.00  0.00    -0.270 OA
ATOM      5  N   UNL     1      95.869  81.417  84.167  1.00  0.00    -0.339 N 
ATOM      6  C   UNL     1      95.251  81.568  85.488  1.00  0.00     0.120 C 
ATOM      7  C   UNL     1      96.267  80.043  83.828  1.00  0.00     0.120 C 
ATOM      8  C   UNL     1      94.058  80.633  85.655  1.00  0.00     0.022 C 
ATOM      9  C   UNL     1      95.097  79.073  83.987  1.00  0.00     0.022 C 
ATOM     10  C   UNL     1      94.451  79.188  85.365  1.00  0.00     0.004 C 
ENDBRANCH   1   3
BRANCH   2  11
ATOM     11  C   UNL     1      97.179  83.273  79.851  1.00  0.00     0.001 C 
ATOM     12  C   UNL     1      96.508  83.605  78.737  1.00  0.00     0.008 C 
BRANCH  12  13
ATOM     13  C   UNL     1      97.050  83.530  77.370  1.00  0.00    -0.022 A 
ATOM     14  C   UNL     1      97.970  82.537  77.062  1.00  0.00     0.058 A 
ATOM     15  C   UNL     1      96.623  84.460  76.419  1.00  0.00     0.012 A 
ATOM     16  C   UNL     1      98.449  82.506  75.768  1.00  0.00     0.166 A 
ATOM     17  C   UNL     1      97.125  84.406  75.116  1.00  0.00     0.051 A 
ATOM     18  O   UNL     1      99.353  81.617  75.273  1.00  0.00    -0.454 OA
ATOM     19  C   UNL     1      98.038  83.416  74.821  1.00  0.00     0.165 A 
ATOM     20  C   UNL     1      99.463  82.069  73.908  1.00  0.00     0.468 C 
ATOM     21  O   UNL     1      98.632  83.210  73.614  1.00  0.00    -0.454 OA
ENDBRANCH  12  13
ENDBRANCH   2  11
TORSDOF 3
ENDMDL
MODEL 7
REMARK VINA RESULT:    -6.938      3.016      9.274
REMARK INTER + INTRA:          -8.452
REMARK INTER:                  -8.140
REMARK INTRA:                  -0.313
REMARK UNBOUND:                -0.297
REMARK SMILES O=C(/C=C/C=C/c1ccc2c(c1)OCO2)N1CCCCC1
REMARK SMILES IDX 3 1 4 2 2 3 1 4 16 5 17 6 21 7 18 8 20 9 19 10 5 11 6 12
REMARK SMILES IDX 7 13 12 14 8 15 11 16 9 17 13 18 10 19 14 20 15 21
REMARK H PARENT
REMARK Flexibility Score: inf
ROOT
ATOM      1  C   UNL     1      97.679  83.376  78.112  1.00  0.00     0.071 C 
ATOM      2  C   UNL     1      96.834  83.457  79.138  1.00  0.00     0.006 C 
ENDROOT
BRANCH   1   3
ATOM      3  C   UNL     1      97.234  83.895  76.803  1.00  0.00     0.246 C 
ATOM      4  O   UNL     1      96.138  84.456  76.756  1.00  0.00    -0.270 OA
ATOM      5  N   UNL     1      98.079  83.712  75.710  1.00  0.00    -0.339 N 
ATOM      6  C   UNL     1      97.661  84.212  74.396  1.00  0.00     0.120 C 
ATOM      7  C   UNL     1      99.371  83.010  75.718  1.00  0.00     0.120 C 
ATOM      8  C   UNL     1      98.732  85.101  73.773  1.00  0.00     0.022 C 
ATOM      9  C   UNL     1     100.471  83.869  75.096  1.00  0.00     0.022 C 
ATOM     10  C   UNL     1     100.075  84.380  73.714  1.00  0.00     0.004 C 
ENDBRANCH   1   3
BRANCH   2  11
ATOM     11  C   UNL     1      97.180  82.975  80.458  1.00  0.00     0.001 C 
ATOM     12  C   UNL     1      96.563  83.402  81.572  1.00  0.00     0.008 C 
BRANCH  12  13
ATOM     13  C   UNL     1      96.880  82.952  82.938  1.00  0.00    -0.022 A 
ATOM     14  C   UNL     1      97.560  81.755  83.115  1.00  0.00     0.058 A 
ATOM     15  C   UNL     1      96.487  83.744  84.020  1.00  0.00     0.012 A 
ATOM     16  C   UNL     1      97.834  81.376  84.413  1.00  0.00     0.166 A 
ATOM     17  C   UNL     1      96.777  83.336  85.324  1.00  0.00     0.051 A 
ATOM     18  O   UNL     1      98.486  80.242  84.792  1.00  0.00    -0.454 OA
ATOM     19  C   UNL     1      97.453  82.145  85.488  1.00  0.00     0.165 A 
ATOM     20  C   UNL     1      98.473  80.385  86.227  1.00  0.00     0.468 C 
ATOM     21  O   UNL     1      97.819  81.590  86.676  1.00  0.00    -0.454 OA
ENDBRANCH  12  13
ENDBRANCH   2  11
TORSDOF 3
ENDMDL
MODEL 8
REMARK VINA RESULT:    -6.885     17.823     18.714
REMARK INTER + INTRA:          -8.390
REMARK INTER:                  -8.047
REMARK INTRA:                  -0.343
REMARK UNBOUND:                -0.297
REMARK SMILES O=C(/C=C/C=C/c1ccc2c(c1)OCO2)N1CCCCC1
REMARK SMILES IDX 3 1 4 2 2 3 1 4 16 5 17 6 21 7 18 8 20 9 19 10 5 11 6 12
REMARK SMILES IDX 7 13 12 14 8 15 11 16 9 17 13 18 10 19 14 20 15 21
REMARK H PARENT
REMARK Flexibility Score: inf
ROOT
ATOM      1  C   UNL     1      86.715  70.090  71.684  1.00  0.00     0.071 C 
ATOM      2  C   UNL     1      87.827  70.316  70.988  1.00  0.00     0.006 C 
ENDROOT
BRANCH   1   3
ATOM      3  C   UNL     1      86.840  69.424  72.995  1.00  0.00     0.246 C 
ATOM      4  O   UNL     1      87.710  69.837  73.763  1.00  0.00    -0.270 OA
ATOM      5  N   UNL     1      85.970  68.371  73.274  1.00  0.00    -0.339 N 
ATOM      6  C   UNL     1      86.073  67.686  74.567  1.00  0.00     0.120 C 
ATOM      7  C   UNL     1      84.951  67.821  72.368  1.00  0.00     0.120 C 
ATOM      8  C   UNL     1      84.726  67.636  75.280  1.00  0.00     0.022 C 
ATOM      9  C   UNL     1      83.584  67.751  73.049  1.00  0.00     0.022 C 
ATOM     10  C   UNL     1      83.657  67.018  74.385  1.00  0.00     0.004 C 
ENDBRANCH   1   3
BRANCH   2  11
ATOM     11  C   UNL     1      87.807  70.963  69.693  1.00  0.00     0.001 C 
ATOM     12  C   UNL     1      88.697  71.902  69.335  1.00  0.00     0.008 C 
BRANCH  12  13
ATOM     13  C   UNL     1      88.717  72.597  68.037  1.00  0.00    -0.022 A 
ATOM     14  C   UNL     1      89.856  73.294  67.661  1.00  0.00     0.058 A 
ATOM     15  C   UNL     1      87.586  72.534  67.218  1.00  0.00     0.012 A 
ATOM     16  C   UNL     1      89.827  73.928  66.436  1.00  0.00     0.166 A 
ATOM     17  C   UNL     1      87.584  73.185  65.982  1.00  0.00     0.051 A 
ATOM     18  O   UNL     1      90.838  74.660  65.891  1.00  0.00    -0.454 OA
ATOM     19  C   UNL     1      88.721  73.875  65.618  1.00  0.00     0.165 A 
ATOM     20  C   UNL     1      90.244  75.060  64.640  1.00  0.00     0.468 C 
ATOM     21  O   UNL     1      88.901  74.566  64.460  1.00  0.00    -0.454 OA
ENDBRANCH  12  13
ENDBRANCH   2  11
TORSDOF 3
ENDMDL
MODEL 9
REMARK VINA RESULT:    -6.860      6.975     10.035
REMARK INTER + INTRA:          -8.360
REMARK INTER:                  -8.001
REMARK INTRA:                  -0.359
REMARK UNBOUND:                -0.297
REMARK SMILES O=C(/C=C/C=C/c1ccc2c(c1)OCO2)N1CCCCC1
REMARK SMILES IDX 3 1 4 2 2 3 1 4 16 5 17 6 21 7 18 8 20 9 19 10 5 11 6 12
REMARK SMILES IDX 7 13 12 14 8 15 11 16 9 17 13 18 10 19 14 20 15 21
REMARK H PARENT
REMARK Flexibility Score: inf
ROOT
ATOM      1  C   UNL     1      94.392  83.108  86.454  1.00  0.00     0.071 C 
ATOM      2  C   UNL     1      93.627  83.753  87.332  1.00  0.00     0.006 C 
ENDROOT
BRANCH   1   3
ATOM      3  C   UNL     1      94.249  81.642  86.353  1.00  0.00     0.246 C 
ATOM      4  O   UNL     1      94.848  80.953  87.181  1.00  0.00    -0.270 OA
ATOM      5  N   UNL     1      93.452  81.135  85.328  1.00  0.00    -0.339 N 
ATOM      6  C   UNL     1      93.295  79.683  85.199  1.00  0.00     0.120 C 
ATOM      7  C   UNL     1      92.759  81.922  84.296  1.00  0.00     0.120 C 
ATOM      8  C   UNL     1      91.824  79.284  85.152  1.00  0.00     0.022 C 
ATOM      9  C   UNL     1      91.280  81.547  84.215  1.00  0.00     0.022 C 
ATOM     10  C   UNL     1      91.087  80.042  84.052  1.00  0.00     0.004 C 
ENDBRANCH   1   3
BRANCH   2  11
ATOM     11  C   UNL     1      93.695  85.189  87.503  1.00  0.00     0.001 C 
ATOM     12  C   UNL     1      93.019  85.839  88.464  1.00  0.00     0.008 C 
BRANCH  12  13
ATOM     13  C   UNL     1      93.046  87.296  88.677  1.00  0.00    -0.022 A 
ATOM     14  C   UNL     1      93.938  88.069  87.947  1.00  0.00     0.058 A 
ATOM     15  C   UNL     1      92.172  87.860  89.609  1.00  0.00     0.012 A 
ATOM     16  C   UNL     1      93.926  89.429  88.181  1.00  0.00     0.166 A 
ATOM     17  C   UNL     1      92.181  89.240  89.827  1.00  0.00     0.051 A 
ATOM     18  O   UNL     1      94.720  90.351  87.571  1.00  0.00    -0.454 OA
ATOM     19  C   UNL     1      93.071  89.999  89.096  1.00  0.00     0.165 A 
ATOM     20  C   UNL     1      94.268  91.565  88.205  1.00  0.00     0.468 C 
ATOM     21  O   UNL     1      93.222  91.349  89.174  1.00  0.00    -0.454 OA
ENDBRANCH  12  13
ENDBRANCH   2  11
TORSDOF 3
ENDMDL
MODEL 10
REMARK VINA RESULT:    -6.765      1.877      2.542
REMARK INTER + INTRA:          -8.248
REMARK INTER:                  -7.926
REMARK INTRA:                  -0.323
REMARK UNBOUND:                -0.297
REMARK SMILES O=C(/C=C/C=C/c1ccc2c(c1)OCO2)N1CCCCC1
REMARK SMILES IDX 3 1 4 2 2 3 1 4 16 5 17 6 21 7 18 8 20 9 19 10 5 11 6 12
REMARK SMILES IDX 7 13 12 14 8 15 11 16 9 17 13 18 10 19 14 20 15 21
REMARK H PARENT
REMARK Flexibility Score: inf
ROOT
ATOM      1  C   UNL     1      96.686  83.594  83.753  1.00  0.00     0.071 C 
ATOM      2  C   UNL     1      96.264  82.901  82.698  1.00  0.00     0.006 C 
ENDROOT
BRANCH   1   3
ATOM      3  C   UNL     1      96.319  83.106  85.097  1.00  0.00     0.246 C 
ATOM      4  O   UNL     1      95.276  83.536  85.593  1.00  0.00    -0.270 OA
ATOM      5  N   UNL     1      97.176  82.198  85.717  1.00  0.00    -0.339 N 
ATOM      6  C   UNL     1      96.840  81.700  87.054  1.00  0.00     0.120 C 
ATOM      7  C   UNL     1      98.449  81.699  85.176  1.00  0.00     0.120 C 
ATOM      8  C   UNL     1      96.854  80.176  87.100  1.00  0.00     0.022 C 
ATOM      9  C   UNL     1      98.503  80.171  85.210  1.00  0.00     0.022 C 
ATOM     10  C   UNL     1      98.185  79.626  86.599  1.00  0.00     0.004 C 
ENDBRANCH   1   3
BRANCH   2  11
ATOM     11  C   UNL     1      96.573  83.300  81.341  1.00  0.00     0.001 C 
ATOM     12  C   UNL     1      97.069  82.449  80.429  1.00  0.00     0.008 C 
BRANCH  12  13
ATOM     13  C   UNL     1      97.409  82.803  79.040  1.00  0.00    -0.022 A 
ATOM     14  C   UNL     1      96.555  83.633  78.327  1.00  0.00     0.058 A 
ATOM     15  C   UNL     1      98.582  82.293  78.478  1.00  0.00     0.012 A 
ATOM     16  C   UNL     1      96.916  83.937  77.030  1.00  0.00     0.166 A 
ATOM     17  C   UNL     1      98.923  82.616  77.163  1.00  0.00     0.051 A 
ATOM     18  O   UNL     1      96.216  84.728  76.172  1.00  0.00    -0.454 OA
ATOM     19  C   UNL     1      98.068  83.442  76.464  1.00  0.00     0.165 A 
ATOM     20  C   UNL     1      97.057  84.676  75.002  1.00  0.00     0.468 C 
ATOM     21  O   UNL     1      98.234  83.861  75.180  1.00  0.00    -0.454 OA
ENDBRANCH  12  13
ENDBRANCH   2  11
TORSDOF 3
ENDMDL
