MODEL 1
REMARK VINA RESULT:    -5.872      0.000      0.000
REMARK INTER + INTRA:         -10.235
REMARK INTER:                  -9.476
REMARK INTRA:                  -0.759
REMARK UNBOUND:                -0.759
REMARK SMILES CCCCCCCCC(=O)NCc1ccc(O)c(OC)c1
REMARK SMILES IDX 7 1 6 2 5 3 4 4 3 5 2 6 1 7 8 8 9 9 10 10 11 11 12 13 13 14
REMARK SMILES IDX 21 15 14 16 18 17 15 18 16 19 19 20 20 21 17 22
REMARK H PARENT 11 12 17 23
REMARK Flexibility Score: inf
ROOT
ATOM      1  C   UNL     1      92.805  94.232  77.542  1.00  0.00     0.010 C 
ENDROOT
BRANCH   1   2
ATOM      2  C   UNL     1      91.635  95.129  77.044  1.00  0.00     0.001 C 
BRANCH   2   3
ATOM      3  C   UNL     1      90.298  94.338  76.923  1.00  0.00     0.000 C 
BRANCH   3   4
ATOM      4  C   UNL     1      90.323  92.953  77.627  1.00  0.00    -0.000 C 
BRANCH   4   5
ATOM      5  C   UNL     1      90.006  91.780  76.656  1.00  0.00    -0.000 C 
BRANCH   5   6
ATOM      6  C   UNL     1      90.928  91.775  75.407  1.00  0.00    -0.003 C 
ATOM      7  C   UNL     1      90.881  90.440  74.632  1.00  0.00     0.004 C 
ENDBRANCH   5   6
ENDBRANCH   4   5
ENDBRANCH   3   4
ENDBRANCH   2   3
ENDBRANCH   1   2
BRANCH   1   8
ATOM      8  C   UNL     1      94.066  95.029  77.979  1.00  0.00     0.100 C 
BRANCH   8   9
ATOM      9  C   UNL     1      95.065  94.146  78.626  1.00  0.00     0.220 C 
ATOM     10  O   UNL     1      95.887  93.541  77.897  1.00  0.00    -0.275 OA
ATOM     11  N   UNL     1      95.103  94.021  79.986  1.00  0.00    -0.352 N 
ATOM     12  H   UNL     1      94.345  94.481  80.468  1.00  0.00     0.163 HD
BRANCH  11  13
ATOM     13  C   UNL     1      96.100  93.317  80.733  1.00  0.00     0.151 C 
BRANCH  13  14
ATOM     14  C   UNL     1      97.125  94.201  81.350  1.00  0.00    -0.025 A 
ATOM     15  C   UNL     1      96.840  95.568  81.580  1.00  0.00     0.056 A 
ATOM     16  C   UNL     1      98.395  93.697  81.715  1.00  0.00     0.009 A 
ATOM     17  C   UNL     1      97.798  96.417  82.182  1.00  0.00     0.160 A 
ATOM     18  C   UNL     1      99.351  94.536  82.315  1.00  0.00     0.050 A 
ATOM     19  C   UNL     1      99.061  95.895  82.543  1.00  0.00     0.157 A 
BRANCH  17  20
ATOM     20  O   UNL     1      97.536  97.751  82.365  1.00  0.00    -0.493 OA
ATOM     21  C   UNL     1      97.517  98.520  81.149  1.00  0.00     0.278 C 
ENDBRANCH  17  20
BRANCH  19  22
ATOM     22  O   UNL     1     100.000  96.702  83.098  1.00  0.00    -0.504 OA
ATOM     23  H   UNL     1      99.905  96.695  84.053  1.00  0.00     0.293 HD
ENDBRANCH  19  22
ENDBRANCH  13  14
ENDBRANCH  11  13
ENDBRANCH   8   9
ENDBRANCH   1   8
TORSDOF 11
ENDMDL
MODEL 2
REMARK VINA RESULT:    -5.366     13.501     15.868
REMARK INTER + INTRA:          -9.419
REMARK INTER:                  -8.824
REMARK INTRA:                  -0.595
REMARK UNBOUND:                -0.759
REMARK SMILES CCCCCCCCC(=O)NCc1ccc(O)c(OC)c1
REMARK SMILES IDX 7 1 6 2 5 3 4 4 3 5 2 6 1 7 8 8 9 9 10 10 11 11 12 13 13 14
REMARK SMILES IDX 21 15 14 16 18 17 15 18 16 19 19 20 20 21 17 22
REMARK H PARENT 11 12 17 23
REMARK Flexibility Score: inf
ROOT
ATOM      1  C   UNL     1      95.878  80.319  83.273  1.00  0.00     0.010 C 
ENDROOT
BRANCH   1   2
ATOM      2  C   UNL     1      96.692  79.930  82.005  1.00  0.00     0.001 C 
BRANCH   2   3
ATOM      3  C   UNL     1      97.034  81.167  81.122  1.00  0.00     0.000 C 
BRANCH   3   4
ATOM      4  C   UNL     1      98.167  80.907  80.090  1.00  0.00    -0.000 C 
BRANCH   4   5
ATOM      5  C   UNL     1      97.647  80.870  78.625  1.00  0.00    -0.000 C 
BRANCH   5   6
ATOM      6  C   UNL     1      97.171  82.261  78.126  1.00  0.00    -0.003 C 
ATOM      7  C   UNL     1      95.935  82.177  77.203  1.00  0.00     0.004 C 
ENDBRANCH   5   6
ENDBRANCH   4   5
ENDBRANCH   3   4
ENDBRANCH   2   3
ENDBRANCH   1   2
BRANCH   1   8
ATOM      8  C   UNL     1      95.813  81.850  83.534  1.00  0.00     0.100 C 
BRANCH   8   9
ATOM      9  C   UNL     1      94.991  82.159  84.729  1.00  0.00     0.220 C 
ATOM     10  O   UNL     1      95.571  82.583  85.757  1.00  0.00    -0.275 OA
ATOM     11  N   UNL     1      93.634  82.011  84.695  1.00  0.00    -0.352 N 
ATOM     12  H   UNL     1      93.282  81.583  83.851  1.00  0.00     0.163 HD
BRANCH  11  13
ATOM     13  C   UNL     1      92.724  82.406  85.726  1.00  0.00     0.151 C 
BRANCH  13  14
ATOM     14  C   UNL     1      91.397  81.738  85.646  1.00  0.00    -0.025 A 
ATOM     15  C   UNL     1      91.154  80.754  84.658  1.00  0.00     0.056 A 
ATOM     16  C   UNL     1      90.359  82.074  86.545  1.00  0.00     0.009 A 
ATOM     17  C   UNL     1      89.904  80.098  84.581  1.00  0.00     0.160 A 
ATOM     18  C   UNL     1      89.114  81.424  86.474  1.00  0.00     0.050 A 
ATOM     19  C   UNL     1      88.880  80.444  85.491  1.00  0.00     0.157 A 
BRANCH  17  20
ATOM     20  O   UNL     1      89.656  79.174  83.597  1.00  0.00    -0.493 OA
ATOM     21  C   UNL     1      90.193  77.867  83.867  1.00  0.00     0.278 C 
ENDBRANCH  17  20
BRANCH  19  22
ATOM     22  O   UNL     1      87.665  79.842  85.414  1.00  0.00    -0.504 OA
ATOM     23  H   UNL     1      87.641  79.092  86.012  1.00  0.00     0.293 HD
ENDBRANCH  19  22
ENDBRANCH  13  14
ENDBRANCH  11  13
ENDBRANCH   8   9
ENDBRANCH   1   8
TORSDOF 11
ENDMDL
MODEL 3
REMARK VINA RESULT:    -5.297     25.301     30.116
REMARK INTER + INTRA:          -9.308
REMARK INTER:                  -7.945
REMARK INTRA:                  -1.362
REMARK UNBOUND:                -0.759
REMARK SMILES CCCCCCCCC(=O)NCc1ccc(O)c(OC)c1
REMARK SMILES IDX 7 1 6 2 5 3 4 4 3 5 2 6 1 7 8 8 9 9 10 10 11 11 12 13 13 14
REMARK SMILES IDX 21 15 14 16 18 17 15 18 16 19 19 20 20 21 17 22
REMARK H PARENT 11 12 17 23
REMARK Flexibility Score: inf
ROOT
ATOM      1  C   UNL     1      81.387  66.108  76.346  1.00  0.00     0.010 C 
ENDROOT
BRANCH   1   2
ATOM      2  C   UNL     1      80.141  66.128  75.414  1.00  0.00     0.001 C 
BRANCH   2   3
ATOM      3  C   UNL     1      80.284  65.142  74.217  1.00  0.00     0.000 C 
BRANCH   3   4
ATOM      4  C   UNL     1      80.673  65.833  72.879  1.00  0.00    -0.000 C 
BRANCH   4   5
ATOM      5  C   UNL     1      81.980  65.257  72.264  1.00  0.00    -0.000 C 
BRANCH   5   6
ATOM      6  C   UNL     1      82.049  65.451  70.725  1.00  0.00    -0.003 C 
ATOM      7  C   UNL     1      80.807  66.169  70.154  1.00  0.00     0.004 C 
ENDBRANCH   5   6
ENDBRANCH   4   5
ENDBRANCH   3   4
ENDBRANCH   2   3
ENDBRANCH   1   2
BRANCH   1   8
ATOM      8  C   UNL     1      82.376  64.947  76.049  1.00  0.00     0.100 C 
BRANCH   8   9
ATOM      9  C   UNL     1      83.717  65.461  75.679  1.00  0.00     0.220 C 
ATOM     10  O   UNL     1      84.630  64.632  75.452  1.00  0.00    -0.275 OA
ATOM     11  N   UNL     1      83.936  66.804  75.561  1.00  0.00    -0.352 N 
ATOM     12  H   UNL     1      83.160  67.381  75.849  1.00  0.00     0.163 HD
BRANCH  11  13
ATOM     13  C   UNL     1      85.137  67.414  75.077  1.00  0.00     0.151 C 
BRANCH  13  14
ATOM     14  C   UNL     1      84.914  68.386  73.973  1.00  0.00    -0.025 A 
ATOM     15  C   UNL     1      85.340  69.729  74.109  1.00  0.00     0.056 A 
ATOM     16  C   UNL     1      84.273  67.991  72.776  1.00  0.00     0.009 A 
ATOM     17  C   UNL     1      85.151  70.659  73.061  1.00  0.00     0.160 A 
ATOM     18  C   UNL     1      84.082  68.912  71.730  1.00  0.00     0.050 A 
ATOM     19  C   UNL     1      84.512  70.245  71.870  1.00  0.00     0.157 A 
BRANCH  17  20
ATOM     20  O   UNL     1      85.527  71.970  73.211  1.00  0.00    -0.493 OA
ATOM     21  C   UNL     1      86.171  72.258  74.464  1.00  0.00     0.278 C 
ENDBRANCH  17  20
BRANCH  19  22
ATOM     22  O   UNL     1      84.299  71.133  70.866  1.00  0.00    -0.504 OA
ATOM     23  H   UNL     1      85.045  71.118  70.262  1.00  0.00     0.293 HD
ENDBRANCH  19  22
ENDBRANCH  13  14
ENDBRANCH  11  13
ENDBRANCH   8   9
ENDBRANCH   1   8
TORSDOF 11
ENDMDL
MODEL 4
REMARK VINA RESULT:    -5.289     12.346     13.743
REMARK INTER + INTRA:          -9.294
REMARK INTER:                  -8.901
REMARK INTRA:                  -0.393
REMARK UNBOUND:                -0.759
REMARK SMILES CCCCCCCCC(=O)NCc1ccc(O)c(OC)c1
REMARK SMILES IDX 7 1 6 2 5 3 4 4 3 5 2 6 1 7 8 8 9 9 10 10 11 11 12 13 13 14
REMARK SMILES IDX 21 15 14 16 18 17 15 18 16 19 19 20 20 21 17 22
REMARK H PARENT 11 12 17 23
REMARK Flexibility Score: inf
ROOT
ATOM      1  C   UNL     1      96.307  82.383  76.561  1.00  0.00     0.010 C 
ENDROOT
BRANCH   1   2
ATOM      2  C   UNL     1      96.307  83.365  75.354  1.00  0.00     0.001 C 
BRANCH   2   3
ATOM      3  C   UNL     1      97.048  82.779  74.117  1.00  0.00     0.000 C 
BRANCH   3   4
ATOM      4  C   UNL     1      98.571  83.090  74.093  1.00  0.00    -0.000 C 
BRANCH   4   5
ATOM      5  C   UNL     1      99.126  83.265  72.650  1.00  0.00    -0.000 C 
BRANCH   5   6
ATOM      6  C   UNL     1     100.178  84.402  72.550  1.00  0.00    -0.003 C 
ATOM      7  C   UNL     1     101.394  84.178  73.476  1.00  0.00     0.004 C 
ENDBRANCH   5   6
ENDBRANCH   4   5
ENDBRANCH   3   4
ENDBRANCH   2   3
ENDBRANCH   1   2
BRANCH   1   8
ATOM      8  C   UNL     1      97.710  82.164  77.193  1.00  0.00     0.100 C 
BRANCH   8   9
ATOM      9  C   UNL     1      97.633  81.291  78.389  1.00  0.00     0.220 C 
ATOM     10  O   UNL     1      97.133  80.147  78.259  1.00  0.00    -0.275 OA
ATOM     11  N   UNL     1      98.122  81.714  79.591  1.00  0.00    -0.352 N 
ATOM     12  H   UNL     1      98.421  82.678  79.603  1.00  0.00     0.163 HD
BRANCH  11  13
ATOM     13  C   UNL     1      98.234  80.919  80.775  1.00  0.00     0.151 C 
BRANCH  13  14
ATOM     14  C   UNL     1      97.483  81.463  81.938  1.00  0.00    -0.025 A 
ATOM     15  C   UNL     1      97.702  80.940  83.235  1.00  0.00     0.056 A 
ATOM     16  C   UNL     1      96.540  82.503  81.772  1.00  0.00     0.009 A 
ATOM     17  C   UNL     1      97.008  81.459  84.353  1.00  0.00     0.160 A 
ATOM     18  C   UNL     1      95.848  83.025  82.879  1.00  0.00     0.050 A 
ATOM     19  C   UNL     1      96.072  82.501  84.167  1.00  0.00     0.157 A 
BRANCH  17  20
ATOM     20  O   UNL     1      97.190  80.922  85.602  1.00  0.00    -0.493 OA
ATOM     21  C   UNL     1      96.723  79.568  85.735  1.00  0.00     0.278 C 
ENDBRANCH  17  20
BRANCH  19  22
ATOM     22  O   UNL     1      95.379  82.993  85.226  1.00  0.00    -0.504 OA
ATOM     23  H   UNL     1      94.839  83.733  84.939  1.00  0.00     0.293 HD
ENDBRANCH  19  22
ENDBRANCH  13  14
ENDBRANCH  11  13
ENDBRANCH   8   9
ENDBRANCH   1   8
TORSDOF 11
ENDMDL
MODEL 5
REMARK VINA RESULT:    -5.139     11.166     15.042
REMARK INTER + INTRA:          -9.052
REMARK INTER:                  -8.345
REMARK INTRA:                  -0.707
REMARK UNBOUND:                -0.759
REMARK SMILES CCCCCCCCC(=O)NCc1ccc(O)c(OC)c1
REMARK SMILES IDX 7 1 6 2 5 3 4 4 3 5 2 6 1 7 8 8 9 9 10 10 11 11 12 13 13 14
REMARK SMILES IDX 21 15 14 16 18 17 15 18 16 19 19 20 20 21 17 22
REMARK H PARENT 11 12 17 23
REMARK Flexibility Score: inf
ROOT
ATOM      1  C   UNL     1      92.184  99.560  71.702  1.00  0.00     0.010 C 
ENDROOT
BRANCH   1   2
ATOM      2  C   UNL     1      93.616  99.315  71.145  1.00  0.00     0.001 C 
BRANCH   2   3
ATOM      3  C   UNL     1      94.697  99.347  72.266  1.00  0.00     0.000 C 
BRANCH   3   4
ATOM      4  C   UNL     1      94.145  99.006  73.679  1.00  0.00    -0.000 C 
BRANCH   4   5
ATOM      5  C   UNL     1      94.994  97.929  74.411  1.00  0.00    -0.000 C 
BRANCH   5   6
ATOM      6  C   UNL     1      94.448  96.492  74.195  1.00  0.00    -0.003 C 
ATOM      7  C   UNL     1      93.372  96.097  75.232  1.00  0.00     0.004 C 
ENDBRANCH   5   6
ENDBRANCH   4   5
ENDBRANCH   3   4
ENDBRANCH   2   3
ENDBRANCH   1   2
BRANCH   1   8
ATOM      8  C   UNL     1      91.310 100.485  70.809  1.00  0.00     0.100 C 
BRANCH   8   9
ATOM      9  C   UNL     1      90.594  99.711  69.768  1.00  0.00     0.220 C 
ATOM     10  O   UNL     1      89.831  98.785  70.134  1.00  0.00    -0.275 OA
ATOM     11  N   UNL     1      90.744 100.021  68.446  1.00  0.00    -0.352 N 
ATOM     12  H   UNL     1      91.445 100.722  68.259  1.00  0.00     0.163 HD
BRANCH  11  13
ATOM     13  C   UNL     1      90.005  99.447  67.364  1.00  0.00     0.151 C 
BRANCH  13  14
ATOM     14  C   UNL     1      88.836 100.260  66.935  1.00  0.00    -0.025 A 
ATOM     15  C   UNL     1      88.960 101.662  66.787  1.00  0.00     0.056 A 
ATOM     16  C   UNL     1      87.586  99.654  66.671  1.00  0.00     0.009 A 
ATOM     17  C   UNL     1      87.862 102.446  66.363  1.00  0.00     0.160 A 
ATOM     18  C   UNL     1      86.491 100.428  66.248  1.00  0.00     0.050 A 
ATOM     19  C   UNL     1      86.622 101.822  66.101  1.00  0.00     0.157 A 
BRANCH  17  20
ATOM     20  O   UNL     1      87.972 103.810  66.262  1.00  0.00    -0.493 OA
ATOM     21  C   UNL     1      89.323 104.283  66.115  1.00  0.00     0.278 C 
ENDBRANCH  17  20
BRANCH  19  22
ATOM     22  O   UNL     1      85.551 102.564  65.719  1.00  0.00    -0.504 OA
ATOM     23  H   UNL     1      84.763 102.241  66.163  1.00  0.00     0.293 HD
ENDBRANCH  19  22
ENDBRANCH  13  14
ENDBRANCH  11  13
ENDBRANCH   8   9
ENDBRANCH   1   8
TORSDOF 11
ENDMDL
MODEL 6
REMARK VINA RESULT:    -5.127     12.989     15.485
REMARK INTER + INTRA:          -9.032
REMARK INTER:                  -7.903
REMARK INTRA:                  -1.130
REMARK UNBOUND:                -0.759
REMARK SMILES CCCCCCCCC(=O)NCc1ccc(O)c(OC)c1
REMARK SMILES IDX 7 1 6 2 5 3 4 4 3 5 2 6 1 7 8 8 9 9 10 10 11 11 12 13 13 14
REMARK SMILES IDX 21 15 14 16 18 17 15 18 16 19 19 20 20 21 17 22
REMARK H PARENT 11 12 17 23
REMARK Flexibility Score: inf
ROOT
ATOM      1  C   UNL     1      98.220  78.574  81.857  1.00  0.00     0.010 C 
ENDROOT
BRANCH   1   2
ATOM      2  C   UNL     1      96.740  79.025  81.690  1.00  0.00     0.001 C 
BRANCH   2   3
ATOM      3  C   UNL     1      96.577  80.568  81.822  1.00  0.00     0.000 C 
BRANCH   3   4
ATOM      4  C   UNL     1      95.877  81.013  83.137  1.00  0.00    -0.000 C 
BRANCH   4   5
ATOM      5  C   UNL     1      96.887  81.341  84.274  1.00  0.00    -0.000 C 
BRANCH   5   6
ATOM      6  C   UNL     1      96.672  80.461  85.534  1.00  0.00    -0.003 C 
ATOM      7  C   UNL     1      97.418  79.111  85.458  1.00  0.00     0.004 C 
ENDBRANCH   5   6
ENDBRANCH   4   5
ENDBRANCH   3   4
ENDBRANCH   2   3
ENDBRANCH   1   2
BRANCH   1   8
ATOM      8  C   UNL     1      99.257  79.629  81.382  1.00  0.00     0.100 C 
BRANCH   8   9
ATOM      9  C   UNL     1      99.515  79.514  79.926  1.00  0.00     0.220 C 
ATOM     10  O   UNL     1     100.063  78.470  79.499  1.00  0.00    -0.275 OA
ATOM     11  N   UNL     1      99.137  80.512  79.074  1.00  0.00    -0.352 N 
ATOM     12  H   UNL     1      98.786  81.341  79.531  1.00  0.00     0.163 HD
BRANCH  11  13
ATOM     13  C   UNL     1      99.202  80.460  77.645  1.00  0.00     0.151 C 
BRANCH  13  14
ATOM     14  C   UNL     1      98.198  81.322  76.966  1.00  0.00    -0.025 A 
ATOM     15  C   UNL     1      98.347  81.645  75.596  1.00  0.00     0.056 A 
ATOM     16  C   UNL     1      97.085  81.835  77.671  1.00  0.00     0.009 A 
ATOM     17  C   UNL     1      97.392  82.450  74.933  1.00  0.00     0.160 A 
ATOM     18  C   UNL     1      96.131  82.635  77.017  1.00  0.00     0.050 A 
ATOM     19  C   UNL     1      96.284  82.950  75.653  1.00  0.00     0.157 A 
BRANCH  17  20
ATOM     20  O   UNL     1      97.560  82.796  73.616  1.00  0.00    -0.493 OA
ATOM     21  C   UNL     1      98.786  83.499  73.344  1.00  0.00     0.278 C 
ENDBRANCH  17  20
BRANCH  19  22
ATOM     22  O   UNL     1      95.372  83.746  75.037  1.00  0.00    -0.504 OA
ATOM     23  H   UNL     1      95.789  84.573  74.784  1.00  0.00     0.293 HD
ENDBRANCH  19  22
ENDBRANCH  13  14
ENDBRANCH  11  13
ENDBRANCH   8   9
ENDBRANCH   1   8
TORSDOF 11
ENDMDL
MODEL 7
REMARK VINA RESULT:    -5.000     11.435     12.825
REMARK INTER + INTRA:          -8.828
REMARK INTER:                  -8.173
REMARK INTRA:                  -0.655
REMARK UNBOUND:                -0.759
REMARK SMILES CCCCCCCCC(=O)NCc1ccc(O)c(OC)c1
REMARK SMILES IDX 7 1 6 2 5 3 4 4 3 5 2 6 1 7 8 8 9 9 10 10 11 11 12 13 13 14
REMARK SMILES IDX 21 15 14 16 18 17 15 18 16 19 19 20 20 21 17 22
REMARK H PARENT 11 12 17 23
REMARK Flexibility Score: inf
ROOT
ATOM      1  C   UNL     1      96.740  82.294  82.605  1.00  0.00     0.010 C 
ENDROOT
BRANCH   1   2
ATOM      2  C   UNL     1      96.681  82.183  81.054  1.00  0.00     0.001 C 
BRANCH   2   3
ATOM      3  C   UNL     1      97.785  81.241  80.489  1.00  0.00     0.000 C 
BRANCH   3   4
ATOM      4  C   UNL     1      97.451  80.656  79.087  1.00  0.00    -0.000 C 
BRANCH   4   5
ATOM      5  C   UNL     1      97.852  81.611  77.927  1.00  0.00    -0.000 C 
BRANCH   5   6
ATOM      6  C   UNL     1      96.701  81.825  76.907  1.00  0.00    -0.003 C 
ATOM      7  C   UNL     1      95.661  82.862  77.385  1.00  0.00     0.004 C 
ENDBRANCH   5   6
ENDBRANCH   4   5
ENDBRANCH   3   4
ENDBRANCH   2   3
ENDBRANCH   1   2
BRANCH   1   8
ATOM      8  C   UNL     1      96.243  83.658  83.158  1.00  0.00     0.100 C 
BRANCH   8   9
ATOM      9  C   UNL     1      95.657  83.511  84.512  1.00  0.00     0.220 C 
ATOM     10  O   UNL     1      96.011  82.530  85.210  1.00  0.00    -0.275 OA
ATOM     11  N   UNL     1      94.778  84.439  84.993  1.00  0.00    -0.352 N 
ATOM     12  H   UNL     1      94.498  85.136  84.319  1.00  0.00     0.163 HD
BRANCH  11  13
ATOM     13  C   UNL     1      94.257  84.485  86.325  1.00  0.00     0.151 C 
BRANCH  13  14
ATOM     14  C   UNL     1      95.173  85.124  87.307  1.00  0.00    -0.025 A 
ATOM     15  C   UNL     1      95.593  84.412  88.457  1.00  0.00     0.056 A 
ATOM     16  C   UNL     1      95.636  86.446  87.116  1.00  0.00     0.009 A 
ATOM     17  C   UNL     1      96.477  85.000  89.391  1.00  0.00     0.160 A 
ATOM     18  C   UNL     1      96.516  87.036  88.041  1.00  0.00     0.050 A 
ATOM     19  C   UNL     1      96.932  86.321  89.181  1.00  0.00     0.157 A 
BRANCH  17  20
ATOM     20  O   UNL     1      96.849  84.324  90.525  1.00  0.00    -0.493 OA
ATOM     21  C   UNL     1      95.884  84.386  91.591  1.00  0.00     0.278 C 
ENDBRANCH  17  20
BRANCH  19  22
ATOM     22  O   UNL     1      97.760  86.909  90.081  1.00  0.00    -0.504 OA
ATOM     23  H   UNL     1      97.260  87.155  90.863  1.00  0.00     0.293 HD
ENDBRANCH  19  22
ENDBRANCH  13  14
ENDBRANCH  11  13
ENDBRANCH   8   9
ENDBRANCH   1   8
TORSDOF 11
ENDMDL
MODEL 8
REMARK VINA RESULT:    -4.858     13.221     15.705
REMARK INTER + INTRA:          -8.598
REMARK INTER:                  -6.796
REMARK INTRA:                  -1.802
REMARK UNBOUND:                -0.759
REMARK SMILES CCCCCCCCC(=O)NCc1ccc(O)c(OC)c1
REMARK SMILES IDX 7 1 6 2 5 3 4 4 3 5 2 6 1 7 8 8 9 9 10 10 11 11 12 13 13 14
REMARK SMILES IDX 21 15 14 16 18 17 15 18 16 19 19 20 20 21 17 22
REMARK H PARENT 11 12 17 23
REMARK Flexibility Score: inf
ROOT
ATOM      1  C   UNL     1      98.558  81.456  78.991  1.00  0.00     0.010 C 
ENDROOT
BRANCH   1   2
ATOM      2  C   UNL     1      98.759  79.949  79.323  1.00  0.00     0.001 C 
BRANCH   2   3
ATOM      3  C   UNL     1      97.456  79.122  79.118  1.00  0.00     0.000 C 
BRANCH   3   4
ATOM      4  C   UNL     1      97.500  78.180  77.882  1.00  0.00    -0.000 C 
BRANCH   4   5
ATOM      5  C   UNL     1      96.697  78.738  76.673  1.00  0.00    -0.000 C 
BRANCH   5   6
ATOM      6  C   UNL     1      97.546  78.811  75.375  1.00  0.00    -0.003 C 
ATOM      7  C   UNL     1      99.056  78.980  75.655  1.00  0.00     0.004 C 
ENDBRANCH   5   6
ENDBRANCH   4   5
ENDBRANCH   3   4
ENDBRANCH   2   3
ENDBRANCH   1   2
BRANCH   1   8
ATOM      8  C   UNL     1      97.068  81.877  78.855  1.00  0.00     0.100 C 
BRANCH   8   9
ATOM      9  C   UNL     1      96.752  82.304  77.470  1.00  0.00     0.220 C 
ATOM     10  O   UNL     1      95.601  82.740  77.230  1.00  0.00    -0.275 OA
ATOM     11  N   UNL     1      97.704  82.249  76.493  1.00  0.00    -0.352 N 
ATOM     12  H   UNL     1      98.565  81.803  76.773  1.00  0.00     0.163 HD
BRANCH  11  13
ATOM     13  C   UNL     1      97.567  82.760  75.163  1.00  0.00     0.151 C 
BRANCH  13  14
ATOM     14  C   UNL     1      98.685  82.385  74.257  1.00  0.00    -0.025 A 
ATOM     15  C   UNL     1      98.431  81.630  73.087  1.00  0.00     0.056 A 
ATOM     16  C   UNL     1     100.015  82.770  74.545  1.00  0.00     0.009 A 
ATOM     17  C   UNL     1      99.481  81.281  72.207  1.00  0.00     0.160 A 
ATOM     18  C   UNL     1     101.064  82.427  73.674  1.00  0.00     0.050 A 
ATOM     19  C   UNL     1     100.803  81.677  72.510  1.00  0.00     0.157 A 
BRANCH  17  20
ATOM     20  O   UNL     1      99.239  80.512  71.096  1.00  0.00    -0.493 OA
ATOM     21  C   UNL     1      98.854  79.158  71.390  1.00  0.00     0.278 C 
ENDBRANCH  17  20
BRANCH  19  22
ATOM     22  O   UNL     1     101.826  81.328  71.689  1.00  0.00    -0.504 OA
ATOM     23  H   UNL     1     102.254  82.120  71.356  1.00  0.00     0.293 HD
ENDBRANCH  19  22
ENDBRANCH  13  14
ENDBRANCH  11  13
ENDBRANCH   8   9
ENDBRANCH   1   8
TORSDOF 11
ENDMDL
MODEL 9
REMARK VINA RESULT:    -4.836     24.196     27.357
REMARK INTER + INTRA:          -8.564
REMARK INTER:                  -7.404
REMARK INTRA:                  -1.160
REMARK UNBOUND:                -0.759
REMARK SMILES CCCCCCCCC(=O)NCc1ccc(O)c(OC)c1
REMARK SMILES IDX 7 1 6 2 5 3 4 4 3 5 2 6 1 7 8 8 9 9 10 10 11 11 12 13 13 14
REMARK SMILES IDX 21 15 14 16 18 17 15 18 16 19 19 20 20 21 17 22
REMARK H PARENT 11 12 17 23
REMARK Flexibility Score: inf
ROOT
ATOM      1  C   UNL     1      70.158  85.233  65.990  1.00  0.00     0.010 C 
ENDROOT
BRANCH   1   2
ATOM      2  C   UNL     1      69.131  84.065  65.968  1.00  0.00     0.001 C 
BRANCH   2   3
ATOM      3  C   UNL     1      69.825  82.672  65.893  1.00  0.00     0.000 C 
BRANCH   3   4
ATOM      4  C   UNL     1      71.333  82.743  65.524  1.00  0.00    -0.000 C 
BRANCH   4   5
ATOM      5  C   UNL     1      71.879  81.396  64.969  1.00  0.00    -0.000 C 
BRANCH   5   6
ATOM      6  C   UNL     1      73.401  81.450  64.665  1.00  0.00    -0.003 C 
ATOM      7  C   UNL     1      74.270  81.359  65.939  1.00  0.00     0.004 C 
ENDBRANCH   5   6
ENDBRANCH   4   5
ENDBRANCH   3   4
ENDBRANCH   2   3
ENDBRANCH   1   2
BRANCH   1   8
ATOM      8  C   UNL     1      70.003  86.184  67.210  1.00  0.00     0.100 C 
BRANCH   8   9
ATOM      9  C   UNL     1      71.324  86.612  67.731  1.00  0.00     0.220 C 
ATOM     10  O   UNL     1      71.613  87.832  67.689  1.00  0.00    -0.275 OA
ATOM     11  N   UNL     1      72.187  85.701  68.268  1.00  0.00    -0.352 N 
ATOM     12  H   UNL     1      71.893  84.740  68.173  1.00  0.00     0.163 HD
BRANCH  11  13
ATOM     13  C   UNL     1      73.421  86.005  68.926  1.00  0.00     0.151 C 
BRANCH  13  14
ATOM     14  C   UNL     1      74.617  85.426  68.260  1.00  0.00    -0.025 A 
ATOM     15  C   UNL     1      74.608  85.182  66.865  1.00  0.00     0.056 A 
ATOM     16  C   UNL     1      75.778  85.105  69.000  1.00  0.00     0.009 A 
ATOM     17  C   UNL     1      75.744  84.647  66.215  1.00  0.00     0.160 A 
ATOM     18  C   UNL     1      76.912  84.575  68.359  1.00  0.00     0.050 A 
ATOM     19  C   UNL     1      76.896  84.337  66.971  1.00  0.00     0.157 A 
BRANCH  17  20
ATOM     20  O   UNL     1      75.718  84.372  64.871  1.00  0.00    -0.493 OA
ATOM     21  C   UNL     1      74.890  85.264  64.103  1.00  0.00     0.278 C 
ENDBRANCH  17  20
BRANCH  19  22
ATOM     22  O   UNL     1      77.986  83.799  66.366  1.00  0.00    -0.504 OA
ATOM     23  H   UNL     1      78.600  84.499  66.131  1.00  0.00     0.293 HD
ENDBRANCH  19  22
ENDBRANCH  13  14
ENDBRANCH  11  13
ENDBRANCH   8   9
ENDBRANCH   1   8
TORSDOF 11
ENDMDL
MODEL 10
REMARK VINA RESULT:    -4.822     11.865     14.692
REMARK INTER + INTRA:          -8.541
REMARK INTER:                  -7.985
REMARK INTRA:                  -0.556
REMARK UNBOUND:                -0.759
REMARK SMILES CCCCCCCCC(=O)NCc1ccc(O)c(OC)c1
REMARK SMILES IDX 7 1 6 2 5 3 4 4 3 5 2 6 1 7 8 8 9 9 10 10 11 11 12 13 13 14
REMARK SMILES IDX 21 15 14 16 18 17 15 18 16 19 19 20 20 21 17 22
REMARK H PARENT 11 12 17 23
REMARK Flexibility Score: inf
ROOT
ATOM      1  C   UNL     1      94.150  83.576  87.714  1.00  0.00     0.010 C 
ENDROOT
BRANCH   1   2
ATOM      2  C   UNL     1      93.951  85.065  88.118  1.00  0.00     0.001 C 
BRANCH   2   3
ATOM      3  C   UNL     1      95.235  85.680  88.750  1.00  0.00     0.000 C 
BRANCH   3   4
ATOM      4  C   UNL     1      95.630  87.059  88.149  1.00  0.00    -0.000 C 
BRANCH   4   5
ATOM      5  C   UNL     1      96.695  87.803  89.004  1.00  0.00    -0.000 C 
BRANCH   5   6
ATOM      6  C   UNL     1      96.269  89.254  89.357  1.00  0.00    -0.003 C 
ATOM      7  C   UNL     1      94.981  89.695  88.627  1.00  0.00     0.004 C 
ENDBRANCH   5   6
ENDBRANCH   4   5
ENDBRANCH   3   4
ENDBRANCH   2   3
ENDBRANCH   1   2
BRANCH   1   8
ATOM      8  C   UNL     1      93.788  83.271  86.234  1.00  0.00     0.100 C 
BRANCH   8   9
ATOM      9  C   UNL     1      94.953  83.475  85.340  1.00  0.00     0.220 C 
ATOM     10  O   UNL     1      96.022  83.899  85.842  1.00  0.00    -0.275 OA
ATOM     11  N   UNL     1      94.867  83.181  84.009  1.00  0.00    -0.352 N 
ATOM     12  H   UNL     1      93.940  82.931  83.696  1.00  0.00     0.163 HD
BRANCH  11  13
ATOM     13  C   UNL     1      95.952  83.201  83.077  1.00  0.00     0.151 C 
BRANCH  13  14
ATOM     14  C   UNL     1      96.274  81.868  82.500  1.00  0.00    -0.025 A 
ATOM     15  C   UNL     1      96.951  81.773  81.261  1.00  0.00     0.056 A 
ATOM     16  C   UNL     1      95.908  80.678  83.171  1.00  0.00     0.009 A 
ATOM     17  C   UNL     1      97.278  80.513  80.708  1.00  0.00     0.160 A 
ATOM     18  C   UNL     1      96.232  79.422  82.627  1.00  0.00     0.050 A 
ATOM     19  C   UNL     1      96.909  79.335  81.395  1.00  0.00     0.157 A 
BRANCH  17  20
ATOM     20  O   UNL     1      97.897  80.423  79.487  1.00  0.00    -0.493 OA
ATOM     21  C   UNL     1      97.983  81.671  78.776  1.00  0.00     0.278 C 
ENDBRANCH  17  20
BRANCH  19  22
ATOM     22  O   UNL     1      97.192  78.118  80.865  1.00  0.00    -0.504 OA
ATOM     23  H   UNL     1      97.965  77.752  81.301  1.00  0.00     0.293 HD
ENDBRANCH  19  22
ENDBRANCH  13  14
ENDBRANCH  11  13
ENDBRANCH   8   9
ENDBRANCH   1   8
TORSDOF 11
ENDMDL
