MODEL 1
REMARK VINA RESULT:    -6.876      0.000      0.000
REMARK INTER + INTRA:         -12.937
REMARK INTER:                 -12.101
REMARK INTRA:                  -0.836
REMARK UNBOUND:                -0.836
REMARK SMILES C=C(C)[C@]12C[C@@H](C)[C@@]34O[C@](Cc5ccccc5)(O[C@@H]1[C@@H]3C=C(COC(=O)Cc1ccc(O)c(OC)c1)C[C@]1(O)C(=O)C(C)=C[C@@H]41)O2
REMARK SMILES IDX 23 1 22 2 21 3 20 4 9 5 8 6 10 7 6 8 18 9 46 10 19 11 5 12
REMARK SMILES IDX 7 13 4 14 45 15 38 16 44 17 40 18 42 20 41 21 43 22 39 23
REMARK SMILES IDX 11 25 12 26 13 27 17 28 14 29 16 30 15 31 2 32 3 33 1 34
REMARK SMILES IDX 37 35 24 37 25 38 26 39 27 40 28 41 36 42 29 43 33 44 30 45
REMARK SMILES IDX 31 46 34 47 35 48 32 49
REMARK H PARENT 39 24 32 50
REMARK Flexibility Score: 90.00
ROOT
ATOM      1  C   UNL     1      96.331  82.531  84.709  1.00  0.00     0.264 C 
ENDROOT
BRANCH   1   2
ATOM      2  C   UNL     1      95.025  82.693  85.451  1.00  0.00    -0.033 C 
ATOM      3  C   UNL     1      93.995  81.872  85.162  1.00  0.00    -0.015 C 
BRANCH   3   4
ATOM      4  C   UNL     1      92.575  81.879  85.702  1.00  0.00     0.078 C 
ATOM      5  O   UNL     1      92.537  80.352  87.647  1.00  0.00    -0.319 OA
ATOM      6  C   UNL     1      92.364  81.749  87.257  1.00  0.00     0.095 C 
ATOM      7  C   UNL     1      91.925  79.386  86.771  1.00  0.00     0.289 C 
ATOM      8  C   UNL     1      90.881  82.203  87.580  1.00  0.00     0.023 C 
ATOM      9  O   UNL     1      92.411  79.517  85.438  1.00  0.00    -0.320 OA
ATOM     10  O   UNL     1      90.512  79.554  86.684  1.00  0.00    -0.313 OA
ATOM     11  C   UNL     1      91.759  80.736  85.050  1.00  0.00     0.170 C 
ATOM     12  C   UNL     1      89.906  81.839  86.418  1.00  0.00     0.049 C 
ATOM     13  C   UNL     1      90.308  81.688  88.909  1.00  0.00     0.011 C 
ATOM     14  C   UNL     1      90.352  80.577  85.680  1.00  0.00     0.122 C 
BRANCH   6  15
ATOM     15  C   UNL     1      93.480  82.509  88.030  1.00  0.00     0.086 C 
ATOM     16  C   UNL     1      93.859  83.901  87.483  1.00  0.00     0.140 CG0
ATOM     17  C   UNL     1      93.324  82.744  89.506  1.00  0.00    -0.010 C 
ATOM     18  C   UNL     1      94.197  84.667  88.745  1.00  0.00     0.190 C 
ATOM     19  G   UNL     1      95.031  83.838  86.505  1.00  0.00     0.000 G0
ATOM     20  C   UNL     1      93.743  83.936  89.944  1.00  0.00    -0.008 C 
ATOM     21  O   UNL     1      94.727  85.766  88.786  1.00  0.00    -0.291 OA
ATOM     22  C   UNL     1      93.818  84.473  91.318  1.00  0.00     0.048 C 
BRANCH  16  23
ATOM     23  O   UNL     1      92.766  84.619  86.935  1.00  0.00    -0.381 OA
ATOM     24  H   UNL     1      92.988  85.565  86.935  1.00  0.00     0.212 HD
ENDBRANCH  16  23
ENDBRANCH   6  15
BRANCH   7  25
ATOM     25  C   UNL     1      92.239  78.000  87.297  1.00  0.00     0.135 C 
BRANCH  25  26
ATOM     26  C   UNL     1      91.338  76.950  86.696  1.00  0.00    -0.040 A 
ATOM     27  C   UNL     1      91.634  76.413  85.442  1.00  0.00     0.004 A 
ATOM     28  C   UNL     1      90.211  76.515  87.393  1.00  0.00     0.004 A 
ATOM     29  C   UNL     1      90.801  75.442  84.886  1.00  0.00     0.000 A 
ATOM     30  C   UNL     1      89.379  75.543  86.836  1.00  0.00     0.000 A 
ATOM     31  C   UNL     1      89.674  75.007  85.583  1.00  0.00     0.000 A 
ENDBRANCH  25  26
ENDBRANCH   7  25
BRANCH  14  32
ATOM     32  C   UNL     1      89.342  80.106  84.685  1.00  0.00    -0.046 C 
ATOM     33  C   UNL     1      88.100  80.937  84.558  1.00  0.00     0.042 C 
ATOM     34  C   UNL     1      89.534  79.002  83.947  1.00  0.00     0.010 C 
ENDBRANCH  14  32
ENDBRANCH   3   4
BRANCH   2  35
ATOM     35  C   UNL     1      95.058  83.811  86.477  1.00  0.00     0.078 CG0
ATOM     36  G   UNL     1      93.885  83.901  87.451  1.00  0.00     0.000 G0
ENDBRANCH   2  35
ENDBRANCH   1   2
BRANCH   1  37
ATOM     37  O   UNL     1      96.065  82.209  83.361  1.00  0.00    -0.461 OA
BRANCH  37  38
ATOM     38  C   UNL     1      97.088  82.435  82.469  1.00  0.00     0.310 C 
ATOM     39  O   UNL     1      97.731  83.472  82.385  1.00  0.00    -0.252 OA
BRANCH  38  40
ATOM     40  C   UNL     1      97.290  81.207  81.613  1.00  0.00     0.158 C 
BRANCH  40  41
ATOM     41  C   UNL     1      97.394  81.525  80.144  1.00  0.00    -0.033 A 
ATOM     42  C   UNL     1      98.370  80.904  79.363  1.00  0.00     0.054 A 
ATOM     43  C   UNL     1      96.515  82.438  79.564  1.00  0.00     0.008 A 
ATOM     44  C   UNL     1      98.466  81.198  78.003  1.00  0.00     0.160 A 
ATOM     45  C   UNL     1      96.611  82.733  78.203  1.00  0.00     0.050 A 
ATOM     46  C   UNL     1      97.586  82.113  77.423  1.00  0.00     0.157 A 
BRANCH  44  47
ATOM     47  O   UNL     1      99.423  80.586  77.251  1.00  0.00    -0.493 OA
ATOM     48  C   UNL     1      99.973  79.373  77.764  1.00  0.00     0.278 C 
ENDBRANCH  44  47
BRANCH  46  49
ATOM     49  O   UNL     1      97.670  82.407  76.096  1.00  0.00    -0.504 OA
ATOM     50  H   UNL     1      98.566  82.200  75.782  1.00  0.00     0.293 HD
ENDBRANCH  46  49
ENDBRANCH  40  41
ENDBRANCH  38  40
ENDBRANCH  37  38
ENDBRANCH   1  37
TORSDOF 11
ENDMDL
MODEL 2
REMARK VINA RESULT:    -6.732     15.949     20.476
REMARK INTER + INTRA:         -12.685
REMARK INTER:                 -10.453
REMARK INTRA:                  -2.232
REMARK UNBOUND:                -0.836
REMARK SMILES C=C(C)[C@]12C[C@@H](C)[C@@]34O[C@](Cc5ccccc5)(O[C@@H]1[C@@H]3C=C(COC(=O)Cc1ccc(O)c(OC)c1)C[C@]1(O)C(=O)C(C)=C[C@@H]41)O2
REMARK SMILES IDX 23 1 22 2 21 3 20 4 9 5 8 6 10 7 6 8 18 9 46 10 19 11 5 12
REMARK SMILES IDX 7 13 4 14 45 15 38 16 44 17 40 18 42 20 41 21 43 22 39 23
REMARK SMILES IDX 11 25 12 26 13 27 17 28 14 29 16 30 15 31 2 32 3 33 1 34
REMARK SMILES IDX 37 35 24 37 25 38 26 39 27 40 28 41 36 42 29 43 33 44 30 45
REMARK SMILES IDX 31 46 34 47 35 48 32 49
REMARK H PARENT 39 24 32 50
REMARK Flexibility Score: 90.00
ROOT
ATOM      1  C   UNL     1      88.541  70.571  75.359  1.00  0.00     0.264 C 
ENDROOT
BRANCH   1   2
ATOM      2  C   UNL     1      88.487  69.972  73.973  1.00  0.00    -0.033 C 
ATOM      3  C   UNL     1      87.564  69.028  73.698  1.00  0.00    -0.015 C 
BRANCH   3   4
ATOM      4  C   UNL     1      87.355  68.226  72.424  1.00  0.00     0.078 C 
ATOM      5  O   UNL     1      85.700  69.458  71.060  1.00  0.00    -0.319 OA
ATOM      6  C   UNL     1      87.089  69.006  71.083  1.00  0.00     0.095 C 
ATOM      7  C   UNL     1      84.731  68.497  71.519  1.00  0.00     0.289 C 
ATOM      8  C   UNL     1      87.331  67.997  69.885  1.00  0.00     0.023 C 
ATOM      9  O   UNL     1      85.016  68.070  72.849  1.00  0.00    -0.320 OA
ATOM     10  O   UNL     1      84.727  67.313  70.727  1.00  0.00    -0.313 OA
ATOM     11  C   UNL     1      86.168  67.248  72.608  1.00  0.00     0.170 C 
ATOM     12  C   UNL     1      86.932  66.541  70.275  1.00  0.00     0.049 C 
ATOM     13  C   UNL     1      86.654  68.375  68.558  1.00  0.00     0.011 C 
ATOM     14  C   UNL     1      85.791  66.520  71.293  1.00  0.00     0.122 C 
BRANCH   6  15
ATOM     15  C   UNL     1      87.926  70.317  71.033  1.00  0.00     0.086 C 
ATOM     16  C   UNL     1      89.389  70.209  71.509  1.00  0.00     0.140 CG0
ATOM     17  C   UNL     1      88.034  71.072  69.737  1.00  0.00    -0.010 C 
ATOM     18  C   UNL     1      90.099  71.197  70.608  1.00  0.00     0.190 C 
ATOM     19  G   UNL     1      89.541  70.554  72.990  1.00  0.00     0.000 G0
ATOM     20  C   UNL     1      89.235  71.602  69.482  1.00  0.00    -0.008 C 
ATOM     21  O   UNL     1      91.250  71.581  70.746  1.00  0.00    -0.291 OA
ATOM     22  C   UNL     1      89.678  72.462  68.366  1.00  0.00     0.048 C 
BRANCH  16  23
ATOM     23  O   UNL     1      90.002  68.968  71.200  1.00  0.00    -0.381 OA
ATOM     24  H   UNL     1      90.619  69.105  70.462  1.00  0.00     0.212 HD
ENDBRANCH  16  23
ENDBRANCH   6  15
BRANCH   7  25
ATOM     25  C   UNL     1      83.361  69.143  71.472  1.00  0.00     0.135 C 
BRANCH  25  26
ATOM     26  C   UNL     1      82.255  68.138  71.681  1.00  0.00    -0.040 A 
ATOM     27  C   UNL     1      81.869  67.785  72.974  1.00  0.00     0.004 A 
ATOM     28  C   UNL     1      81.617  67.564  70.582  1.00  0.00     0.004 A 
ATOM     29  C   UNL     1      80.846  66.857  73.168  1.00  0.00     0.000 A 
ATOM     30  C   UNL     1      80.594  66.635  70.776  1.00  0.00     0.000 A 
ATOM     31  C   UNL     1      80.209  66.282  72.069  1.00  0.00     0.000 A 
ENDBRANCH  25  26
ENDBRANCH   7  25
BRANCH  14  32
ATOM     32  C   UNL     1      85.270  65.143  71.544  1.00  0.00    -0.046 C 
ATOM     33  C   UNL     1      85.501  64.587  72.917  1.00  0.00     0.042 C 
ATOM     34  C   UNL     1      84.631  64.442  70.595  1.00  0.00     0.010 C 
ENDBRANCH  14  32
ENDBRANCH   3   4
BRANCH   2  35
ATOM     35  C   UNL     1      89.527  70.553  73.033  1.00  0.00     0.078 CG0
ATOM     36  G   UNL     1      89.383  70.229  71.547  1.00  0.00     0.000 G0
ENDBRANCH   2  35
ENDBRANCH   1   2
BRANCH   1  37
ATOM     37  O   UNL     1      87.310  70.348  76.012  1.00  0.00    -0.461 OA
BRANCH  37  38
ATOM     38  C   UNL     1      87.371  69.691  77.219  1.00  0.00     0.310 C 
ATOM     39  O   UNL     1      88.403  69.348  77.780  1.00  0.00    -0.252 OA
BRANCH  38  40
ATOM     40  C   UNL     1      85.972  69.460  77.740  1.00  0.00     0.158 C 
BRANCH  40  41
ATOM     41  C   UNL     1      85.376  68.160  77.266  1.00  0.00    -0.033 A 
ATOM     42  C   UNL     1      85.923  66.947  77.686  1.00  0.00     0.054 A 
ATOM     43  C   UNL     1      84.277  68.169  76.407  1.00  0.00     0.008 A 
ATOM     44  C   UNL     1      85.371  65.743  77.247  1.00  0.00     0.160 A 
ATOM     45  C   UNL     1      83.725  66.965  75.968  1.00  0.00     0.050 A 
ATOM     46  C   UNL     1      84.271  65.753  76.388  1.00  0.00     0.157 A 
BRANCH  44  47
ATOM     47  O   UNL     1      85.913  64.566  77.664  1.00  0.00    -0.493 OA
ATOM     48  C   UNL     1      86.302  64.480  79.034  1.00  0.00     0.278 C 
ENDBRANCH  44  47
BRANCH  46  49
ATOM     49  O   UNL     1      83.723  64.584  75.953  1.00  0.00    -0.504 OA
ATOM     50  H   UNL     1      83.324  64.122  76.709  1.00  0.00     0.293 HD
ENDBRANCH  46  49
ENDBRANCH  40  41
ENDBRANCH  38  40
ENDBRANCH  37  38
ENDBRANCH   1  37
TORSDOF 11
ENDMDL
MODEL 3
REMARK VINA RESULT:    -6.611      1.703      2.118
REMARK INTER + INTRA:         -12.471
REMARK INTER:                 -11.545
REMARK INTRA:                  -0.927
REMARK UNBOUND:                -0.836
REMARK SMILES C=C(C)[C@]12C[C@@H](C)[C@@]34O[C@](Cc5ccccc5)(O[C@@H]1[C@@H]3C=C(COC(=O)Cc1ccc(O)c(OC)c1)C[C@]1(O)C(=O)C(C)=C[C@@H]41)O2
REMARK SMILES IDX 23 1 22 2 21 3 20 4 9 5 8 6 10 7 6 8 18 9 46 10 19 11 5 12
REMARK SMILES IDX 7 13 4 14 45 15 38 16 44 17 40 18 42 20 41 21 43 22 39 23
REMARK SMILES IDX 11 25 12 26 13 27 17 28 14 29 16 30 15 31 2 32 3 33 1 34
REMARK SMILES IDX 37 35 24 37 25 38 26 39 27 40 28 41 36 42 29 43 33 44 30 45
REMARK SMILES IDX 31 46 34 47 35 48 32 49
REMARK H PARENT 39 24 32 50
REMARK Flexibility Score: 90.00
ROOT
ATOM      1  C   UNL     1      96.777  81.813  84.353  1.00  0.00     0.264 C 
ENDROOT
BRANCH   1   2
ATOM      2  C   UNL     1      95.493  82.371  84.920  1.00  0.00    -0.033 C 
ATOM      3  C   UNL     1      94.479  81.531  85.209  1.00  0.00    -0.015 C 
BRANCH   3   4
ATOM      4  C   UNL     1      93.078  81.844  85.708  1.00  0.00     0.078 C 
ATOM      5  O   UNL     1      93.155  81.743  88.179  1.00  0.00    -0.319 OA
ATOM      6  C   UNL     1      92.925  82.646  87.054  1.00  0.00     0.095 C 
ATOM      7  C   UNL     1      92.544  80.444  88.061  1.00  0.00     0.289 C 
ATOM      8  C   UNL     1      91.440  83.196  87.119  1.00  0.00     0.023 C 
ATOM      9  O   UNL     1      92.980  79.773  86.881  1.00  0.00    -0.320 OA
ATOM     10  O   UNL     1      91.125  80.521  87.957  1.00  0.00    -0.313 OA
ATOM     11  C   UNL     1      92.277  80.531  85.885  1.00  0.00     0.170 C 
ATOM     12  C   UNL     1      90.438  82.216  86.435  1.00  0.00     0.049 C 
ATOM     13  C   UNL     1      90.929  83.552  88.524  1.00  0.00     0.011 C 
ATOM     14  C   UNL     1      90.898  80.762  86.553  1.00  0.00     0.122 C 
BRANCH   6  15
ATOM     15  C   UNL     1      94.043  83.722  87.186  1.00  0.00     0.086 C 
ATOM     16  C   UNL     1      94.377  84.514  85.905  1.00  0.00     0.140 CG0
ATOM     17  C   UNL     1      93.917  84.790  88.235  1.00  0.00    -0.010 C 
ATOM     18  C   UNL     1      94.729  85.882  86.451  1.00  0.00     0.190 C 
ATOM     19  G   UNL     1      95.527  83.884  85.120  1.00  0.00     0.000 G0
ATOM     20  C   UNL     1      94.320  86.009  87.863  1.00  0.00    -0.008 C 
ATOM     21  O   UNL     1      95.236  86.791  85.811  1.00  0.00    -0.291 OA
ATOM     22  C   UNL     1      94.416  87.260  88.643  1.00  0.00     0.048 C 
BRANCH  16  23
ATOM     23  O   UNL     1      93.256  84.760  85.073  1.00  0.00    -0.381 OA
ATOM     24  H   UNL     1      93.554  84.761  84.148  1.00  0.00     0.212 HD
ENDBRANCH  16  23
ENDBRANCH   6  15
BRANCH   7  25
ATOM     25  C   UNL     1      92.919  79.629  89.282  1.00  0.00     0.135 C 
BRANCH  25  26
ATOM     26  C   UNL     1      92.002  78.447  89.476  1.00  0.00    -0.040 A 
ATOM     27  C   UNL     1      92.124  77.327  88.651  1.00  0.00     0.004 A 
ATOM     28  C   UNL     1      91.034  78.471  90.479  1.00  0.00     0.004 A 
ATOM     29  C   UNL     1      91.276  76.234  88.830  1.00  0.00     0.000 A 
ATOM     30  C   UNL     1      90.187  77.377  90.658  1.00  0.00     0.000 A 
ATOM     31  C   UNL     1      90.308  76.259  89.833  1.00  0.00     0.000 A 
ENDBRANCH  25  26
ENDBRANCH   7  25
BRANCH  14  32
ATOM     32  C   UNL     1      89.870  79.793  86.068  1.00  0.00    -0.046 C 
ATOM     33  C   UNL     1      89.577  79.818  84.598  1.00  0.00     0.042 C 
ATOM     34  C   UNL     1      89.243  78.948  86.901  1.00  0.00     0.010 C 
ENDBRANCH  14  32
ENDBRANCH   3   4
BRANCH   2  35
ATOM     35  C   UNL     1      95.528  83.877  85.101  1.00  0.00     0.078 CG0
ATOM     36  G   UNL     1      94.391  84.511  85.902  1.00  0.00     0.000 G0
ENDBRANCH   2  35
ENDBRANCH   1   2
BRANCH   1  37
ATOM     37  O   UNL     1      96.661  81.706  82.950  1.00  0.00    -0.461 OA
BRANCH  37  38
ATOM     38  C   UNL     1      97.810  81.923  82.226  1.00  0.00     0.310 C 
ATOM     39  O   UNL     1      98.603  82.833  82.422  1.00  0.00    -0.252 OA
BRANCH  38  40
ATOM     40  C   UNL     1      97.939  80.865  81.155  1.00  0.00     0.158 C 
BRANCH  40  41
ATOM     41  C   UNL     1      97.634  81.386  79.775  1.00  0.00    -0.033 A 
ATOM     42  C   UNL     1      98.359  80.919  78.677  1.00  0.00     0.054 A 
ATOM     43  C   UNL     1      96.627  82.334  79.593  1.00  0.00     0.008 A 
ATOM     44  C   UNL     1      98.077  81.401  77.399  1.00  0.00     0.160 A 
ATOM     45  C   UNL     1      96.345  82.816  78.315  1.00  0.00     0.050 A 
ATOM     46  C   UNL     1      97.070  82.350  77.218  1.00  0.00     0.157 A 
BRANCH  44  47
ATOM     47  O   UNL     1      98.791  80.938  76.336  1.00  0.00    -0.493 OA
ATOM     48  C   UNL     1      98.174  79.939  75.526  1.00  0.00     0.278 C 
ENDBRANCH  44  47
BRANCH  46  49
ATOM     49  O   UNL     1      96.785  82.827  75.975  1.00  0.00    -0.504 OA
ATOM     50  H   UNL     1      97.171  83.714  75.880  1.00  0.00     0.293 HD
ENDBRANCH  46  49
ENDBRANCH  40  41
ENDBRANCH  38  40
ENDBRANCH  37  38
ENDBRANCH   1  37
TORSDOF 11
ENDMDL
MODEL 4
REMARK VINA RESULT:    -6.606     17.633     21.073
REMARK INTER + INTRA:         -12.463
REMARK INTER:                 -11.465
REMARK INTRA:                  -0.997
REMARK UNBOUND:                -0.836
REMARK SMILES C=C(C)[C@]12C[C@@H](C)[C@@]34O[C@](Cc5ccccc5)(O[C@@H]1[C@@H]3C=C(COC(=O)Cc1ccc(O)c(OC)c1)C[C@]1(O)C(=O)C(C)=C[C@@H]41)O2
REMARK SMILES IDX 23 1 22 2 21 3 20 4 9 5 8 6 10 7 6 8 18 9 46 10 19 11 5 12
REMARK SMILES IDX 7 13 4 14 45 15 38 16 44 17 40 18 42 20 41 21 43 22 39 23
REMARK SMILES IDX 11 25 12 26 13 27 17 28 14 29 16 30 15 31 2 32 3 33 1 34
REMARK SMILES IDX 37 35 24 37 25 38 26 39 27 40 28 41 36 42 29 43 33 44 30 45
REMARK SMILES IDX 31 46 34 47 35 48 32 49
REMARK H PARENT 39 24 32 50
REMARK Flexibility Score: 90.00
ROOT
ATOM      1  C   UNL     1      87.730  70.864  69.358  1.00  0.00     0.264 C 
ENDROOT
BRANCH   1   2
ATOM      2  C   UNL     1      87.509  69.551  70.070  1.00  0.00    -0.033 C 
ATOM      3  C   UNL     1      86.779  69.530  71.204  1.00  0.00    -0.015 C 
BRANCH   3   4
ATOM      4  C   UNL     1      86.479  68.369  72.137  1.00  0.00     0.078 C 
ATOM      5  O   UNL     1      84.345  67.371  71.383  1.00  0.00    -0.319 OA
ATOM      6  C   UNL     1      85.771  67.095  71.543  1.00  0.00     0.095 C 
ATOM      7  C   UNL     1      83.727  68.075  72.478  1.00  0.00     0.289 C 
ATOM      8  C   UNL     1      85.961  65.912  72.581  1.00  0.00     0.023 C 
ATOM      9  O   UNL     1      84.375  69.320  72.724  1.00  0.00    -0.320 OA
ATOM     10  O   UNL     1      83.808  67.350  73.702  1.00  0.00    -0.313 OA
ATOM     11  C   UNL     1      85.599  68.854  73.315  1.00  0.00     0.170 C 
ATOM     12  C   UNL     1      85.978  66.438  74.049  1.00  0.00     0.049 C 
ATOM     13  C   UNL     1      84.950  64.760  72.462  1.00  0.00     0.011 C 
ATOM     14  C   UNL     1      85.114  67.689  74.213  1.00  0.00     0.122 C 
BRANCH   6  15
ATOM     15  C   UNL     1      86.275  66.805  70.100  1.00  0.00     0.086 C 
ATOM     16  C   UNL     1      87.790  66.968  69.863  1.00  0.00     0.140 CG0
ATOM     17  C   UNL     1      85.962  65.481  69.462  1.00  0.00    -0.010 C 
ATOM     18  C   UNL     1      88.078  65.891  68.839  1.00  0.00     0.190 C 
ATOM     19  G   UNL     1      88.149  68.365  69.359  1.00  0.00     0.000 G0
ATOM     20  C   UNL     1      86.945  64.954  68.725  1.00  0.00    -0.008 C 
ATOM     21  O   UNL     1      89.123  65.765  68.218  1.00  0.00    -0.291 OA
ATOM     22  C   UNL     1      86.963  63.728  67.900  1.00  0.00     0.048 C 
BRANCH  16  23
ATOM     23  O   UNL     1      88.588  66.599  70.976  1.00  0.00    -0.381 OA
ATOM     24  H   UNL     1      88.551  65.633  71.074  1.00  0.00     0.212 HD
ENDBRANCH  16  23
ENDBRANCH   6  15
BRANCH   7  25
ATOM     25  C   UNL     1      82.272  68.315  72.127  1.00  0.00     0.135 C 
BRANCH  25  26
ATOM     26  C   UNL     1      81.406  67.126  72.460  1.00  0.00    -0.040 A 
ATOM     27  C   UNL     1      81.049  66.222  71.459  1.00  0.00     0.004 A 
ATOM     28  C   UNL     1      80.965  66.929  73.768  1.00  0.00     0.004 A 
ATOM     29  C   UNL     1      80.248  65.122  71.767  1.00  0.00     0.000 A 
ATOM     30  C   UNL     1      80.164  65.828  74.076  1.00  0.00     0.000 A 
ATOM     31  C   UNL     1      79.806  64.925  73.075  1.00  0.00     0.000 A 
ENDBRANCH  25  26
ENDBRANCH   7  25
BRANCH  14  32
ATOM     32  C   UNL     1      84.967  68.103  75.640  1.00  0.00    -0.046 C 
ATOM     33  C   UNL     1      83.834  67.479  76.398  1.00  0.00     0.042 C 
ATOM     34  C   UNL     1      85.802  68.984  76.212  1.00  0.00     0.010 C 
ENDBRANCH  14  32
ENDBRANCH   3   4
BRANCH   2  35
ATOM     35  C   UNL     1      88.167  68.376  69.371  1.00  0.00     0.078 CG0
ATOM     36  G   UNL     1      87.789  66.976  69.850  1.00  0.00     0.000 G0
ENDBRANCH   2  35
ENDBRANCH   1   2
BRANCH   1  37
ATOM     37  O   UNL     1      86.668  71.092  68.457  1.00  0.00    -0.461 OA
BRANCH  37  38
ATOM     38  C   UNL     1      87.015  71.579  67.218  1.00  0.00     0.310 C 
ATOM     39  O   UNL     1      87.216  70.894  66.225  1.00  0.00    -0.252 OA
BRANCH  38  40
ATOM     40  C   UNL     1      87.107  73.085  67.276  1.00  0.00     0.158 C 
BRANCH  40  41
ATOM     41  C   UNL     1      88.413  73.616  66.741  1.00  0.00    -0.033 A 
ATOM     42  C   UNL     1      89.571  73.525  67.514  1.00  0.00     0.054 A 
ATOM     43  C   UNL     1      88.463  74.195  65.474  1.00  0.00     0.008 A 
ATOM     44  C   UNL     1      90.780  74.016  67.019  1.00  0.00     0.160 A 
ATOM     45  C   UNL     1      89.672  74.686  64.979  1.00  0.00     0.050 A 
ATOM     46  C   UNL     1      90.829  74.597  65.751  1.00  0.00     0.157 A 
BRANCH  44  47
ATOM     47  O   UNL     1      91.903  73.923  67.782  1.00  0.00    -0.493 OA
ATOM     48  C   UNL     1      92.522  72.640  67.872  1.00  0.00     0.278 C 
ENDBRANCH  44  47
BRANCH  46  49
ATOM     49  O   UNL     1      92.004  75.078  65.256  1.00  0.00    -0.504 OA
ATOM     50  H   UNL     1      92.088  74.811  64.325  1.00  0.00     0.293 HD
ENDBRANCH  46  49
ENDBRANCH  40  41
ENDBRANCH  38  40
ENDBRANCH  37  38
ENDBRANCH   1  37
TORSDOF 11
ENDMDL
MODEL 5
REMARK VINA RESULT:    -6.578      1.848      3.599
REMARK INTER + INTRA:         -12.413
REMARK INTER:                 -11.825
REMARK INTRA:                  -0.588
REMARK UNBOUND:                -0.836
REMARK SMILES C=C(C)[C@]12C[C@@H](C)[C@@]34O[C@](Cc5ccccc5)(O[C@@H]1[C@@H]3C=C(COC(=O)Cc1ccc(O)c(OC)c1)C[C@]1(O)C(=O)C(C)=C[C@@H]41)O2
REMARK SMILES IDX 23 1 22 2 21 3 20 4 9 5 8 6 10 7 6 8 18 9 46 10 19 11 5 12
REMARK SMILES IDX 7 13 4 14 45 15 38 16 44 17 40 18 42 20 41 21 43 22 39 23
REMARK SMILES IDX 11 25 12 26 13 27 17 28 14 29 16 30 15 31 2 32 3 33 1 34
REMARK SMILES IDX 37 35 24 37 25 38 26 39 27 40 28 41 36 42 29 43 33 44 30 45
REMARK SMILES IDX 31 46 34 47 35 48 32 49
REMARK H PARENT 39 24 32 50
REMARK Flexibility Score: 90.00
ROOT
ATOM      1  C   UNL     1      96.527  81.545  84.689  1.00  0.00     0.264 C 
ENDROOT
BRANCH   1   2
ATOM      2  C   UNL     1      95.264  82.207  85.188  1.00  0.00    -0.033 C 
ATOM      3  C   UNL     1      94.196  81.444  85.493  1.00  0.00    -0.015 C 
BRANCH   3   4
ATOM      4  C   UNL     1      92.803  81.865  85.934  1.00  0.00     0.078 C 
ATOM      5  O   UNL     1      92.808  81.887  88.408  1.00  0.00    -0.319 OA
ATOM      6  C   UNL     1      92.664  82.744  87.233  1.00  0.00     0.095 C 
ATOM      7  C   UNL     1      92.123  80.622  88.337  1.00  0.00     0.289 C 
ATOM      8  C   UNL     1      91.213  83.382  87.226  1.00  0.00     0.023 C 
ATOM      9  O   UNL     1      92.549  79.866  87.206  1.00  0.00    -0.320 OA
ATOM     10  O   UNL     1      90.714  80.778  88.187  1.00  0.00    -0.313 OA
ATOM     11  C   UNL     1      91.919  80.612  86.152  1.00  0.00     0.170 C 
ATOM     12  C   UNL     1      90.172  82.429  86.563  1.00  0.00     0.049 C 
ATOM     13  C   UNL     1      90.688  83.841  88.596  1.00  0.00     0.011 C 
ATOM     14  C   UNL     1      90.540  80.959  86.767  1.00  0.00     0.122 C 
BRANCH   6  15
ATOM     15  C   UNL     1      93.840  83.756  87.343  1.00  0.00     0.086 C 
ATOM     16  C   UNL     1      94.247  84.471  86.037  1.00  0.00     0.140 CG0
ATOM     17  C   UNL     1      93.757  84.876  88.343  1.00  0.00    -0.010 C 
ATOM     18  C   UNL     1      94.668  85.838  86.532  1.00  0.00     0.190 C 
ATOM     19  G   UNL     1      95.373  83.740  85.307  1.00  0.00     0.000 G0
ATOM     20  C   UNL     1      94.239  86.051  87.927  1.00  0.00    -0.008 C 
ATOM     21  O   UNL     1      95.241  86.687  85.865  1.00  0.00    -0.291 OA
ATOM     22  C   UNL     1      94.395  87.327  88.655  1.00  0.00     0.048 C 
BRANCH  16  23
ATOM     23  O   UNL     1      93.159  84.745  85.170  1.00  0.00    -0.381 OA
ATOM     24  H   UNL     1      93.491  84.764  84.257  1.00  0.00     0.212 HD
ENDBRANCH  16  23
ENDBRANCH   6  15
BRANCH   7  25
ATOM     25  C   UNL     1      92.415  79.851  89.608  1.00  0.00     0.135 C 
BRANCH  25  26
ATOM     26  C   UNL     1      93.677  80.329  90.282  1.00  0.00    -0.040 A 
ATOM     27  C   UNL     1      93.617  81.352  91.229  1.00  0.00     0.004 A 
ATOM     28  C   UNL     1      94.904  79.749  89.959  1.00  0.00     0.004 A 
ATOM     29  C   UNL     1      94.784  81.795  91.853  1.00  0.00     0.000 A 
ATOM     30  C   UNL     1      96.071  80.192  90.583  1.00  0.00     0.000 A 
ATOM     31  C   UNL     1      96.010  81.215  91.530  1.00  0.00     0.000 A 
ENDBRANCH  25  26
ENDBRANCH   7  25
BRANCH  14  32
ATOM     32  C   UNL     1      89.468  80.029  86.301  1.00  0.00    -0.046 C 
ATOM     33  C   UNL     1      88.480  80.593  85.324  1.00  0.00     0.042 C 
ATOM     34  C   UNL     1      89.393  78.760  86.732  1.00  0.00     0.010 C 
ENDBRANCH  14  32
ENDBRANCH   3   4
BRANCH   2  35
ATOM     35  C   UNL     1      95.384  83.716  85.290  1.00  0.00     0.078 CG0
ATOM     36  G   UNL     1      94.269  84.458  86.025  1.00  0.00     0.000 G0
ENDBRANCH   2  35
ENDBRANCH   1   2
BRANCH   1  37
ATOM     37  O   UNL     1      97.046  82.286  83.605  1.00  0.00    -0.461 OA
BRANCH  37  38
ATOM     38  C   UNL     1      96.950  81.698  82.365  1.00  0.00     0.310 C 
ATOM     39  O   UNL     1      97.049  80.498  82.147  1.00  0.00    -0.252 OA
BRANCH  38  40
ATOM     40  C   UNL     1      96.705  82.761  81.320  1.00  0.00     0.158 C 
BRANCH  40  41
ATOM     41  C   UNL     1      97.446  82.503  80.034  1.00  0.00    -0.033 A 
ATOM     42  C   UNL     1      96.773  82.585  78.814  1.00  0.00     0.054 A 
ATOM     43  C   UNL     1      98.802  82.182  80.062  1.00  0.00     0.008 A 
ATOM     44  C   UNL     1      97.459  82.346  77.622  1.00  0.00     0.160 A 
ATOM     45  C   UNL     1      99.488  81.943  78.871  1.00  0.00     0.050 A 
ATOM     46  C   UNL     1      98.817  82.025  77.652  1.00  0.00     0.157 A 
BRANCH  44  47
ATOM     47  O   UNL     1      96.792  82.428  76.438  1.00  0.00    -0.493 OA
ATOM     48  C   UNL     1      97.062  83.566  75.620  1.00  0.00     0.278 C 
ENDBRANCH  44  47
BRANCH  46  49
ATOM     49  O   UNL     1      99.497  81.791  76.495  1.00  0.00    -0.504 OA
ATOM     50  H   UNL     1     100.421  81.577  76.709  1.00  0.00     0.293 HD
ENDBRANCH  46  49
ENDBRANCH  40  41
ENDBRANCH  38  40
ENDBRANCH  37  38
ENDBRANCH   1  37
TORSDOF 11
ENDMDL
MODEL 6
REMARK VINA RESULT:    -6.453      4.717     11.232
REMARK INTER + INTRA:         -12.193
REMARK INTER:                 -10.562
REMARK INTRA:                  -1.632
REMARK UNBOUND:                -0.836
REMARK SMILES C=C(C)[C@]12C[C@@H](C)[C@@]34O[C@](Cc5ccccc5)(O[C@@H]1[C@@H]3C=C(COC(=O)Cc1ccc(O)c(OC)c1)C[C@]1(O)C(=O)C(C)=C[C@@H]41)O2
REMARK SMILES IDX 23 1 22 2 21 3 20 4 9 5 8 6 10 7 6 8 18 9 46 10 19 11 5 12
REMARK SMILES IDX 7 13 4 14 45 15 38 16 44 17 40 18 42 20 41 21 43 22 39 23
REMARK SMILES IDX 11 25 12 26 13 27 17 28 14 29 16 30 15 31 2 32 3 33 1 34
REMARK SMILES IDX 37 35 24 37 25 38 26 39 27 40 28 41 36 42 29 43 33 44 30 45
REMARK SMILES IDX 31 46 34 47 35 48 32 49
REMARK H PARENT 39 24 32 50
REMARK Flexibility Score: 90.00
ROOT
ATOM      1  C   UNL     1      99.662  78.464  83.664  1.00  0.00     0.264 C 
ENDROOT
BRANCH   1   2
ATOM      2  C   UNL     1      99.247  78.143  82.248  1.00  0.00    -0.033 C 
ATOM      3  C   UNL     1      98.953  79.151  81.402  1.00  0.00    -0.015 C 
BRANCH   3   4
ATOM      4  C   UNL     1      98.444  79.093  79.971  1.00  0.00     0.078 C 
ATOM      5  O   UNL     1     100.430  79.128  78.497  1.00  0.00    -0.319 OA
ATOM      6  C   UNL     1      99.294  78.306  78.905  1.00  0.00     0.095 C 
ATOM      7  C   UNL     1     100.134  80.520  78.273  1.00  0.00     0.289 C 
ATOM      8  C   UNL     1      98.363  78.039  77.651  1.00  0.00     0.023 C 
ATOM      9  O   UNL     1      99.570  81.122  79.435  1.00  0.00    -0.320 OA
ATOM     10  O   UNL     1      99.174  80.709  77.237  1.00  0.00    -0.313 OA
ATOM     11  C   UNL     1      98.263  80.528  79.418  1.00  0.00     0.170 C 
ATOM     12  C   UNL     1      97.345  79.202  77.438  1.00  0.00     0.049 C 
ATOM     13  C   UNL     1      99.098  77.756  76.331  1.00  0.00     0.011 C 
ATOM     14  C   UNL     1      97.909  80.542  77.910  1.00  0.00     0.122 C 
BRANCH   6  15
ATOM     15  C   UNL     1      99.939  77.039  79.540  1.00  0.00     0.086 C 
ATOM     16  C   UNL     1      99.041  76.224  80.493  1.00  0.00     0.140 CG0
ATOM     17  C   UNL     1     100.540  75.992  78.645  1.00  0.00    -0.010 C 
ATOM     18  C   UNL     1      99.502  74.804  80.241  1.00  0.00     0.190 C 
ATOM     19  G   UNL     1      99.216  76.646  81.952  1.00  0.00     0.000 G0
ATOM     20  C   UNL     1     100.336  74.727  79.027  1.00  0.00    -0.008 C 
ATOM     21  O   UNL     1      99.194  73.830  80.911  1.00  0.00    -0.291 OA
ATOM     22  C   UNL     1     100.840  73.465  78.447  1.00  0.00     0.048 C 
BRANCH  16  23
ATOM     23  O   UNL     1      97.673  76.207  80.120  1.00  0.00    -0.381 OA
ATOM     24  H   UNL     1      97.611  76.418  79.173  1.00  0.00     0.212 HD
ENDBRANCH  16  23
ENDBRANCH   6  15
BRANCH   7  25
ATOM     25  C   UNL     1     101.423  81.227  77.904  1.00  0.00     0.135 C 
BRANCH  25  26
ATOM     26  C   UNL     1     102.626  80.580  78.545  1.00  0.00    -0.040 A 
ATOM     27  C   UNL     1     103.688  80.145  77.753  1.00  0.00     0.004 A 
ATOM     28  C   UNL     1     102.676  80.418  79.929  1.00  0.00     0.004 A 
ATOM     29  C   UNL     1     104.801  79.546  78.345  1.00  0.00     0.000 A 
ATOM     30  C   UNL     1     103.789  79.819  80.522  1.00  0.00     0.000 A 
ATOM     31  C   UNL     1     104.851  79.384  79.729  1.00  0.00     0.000 A 
ENDBRANCH  25  26
ENDBRANCH   7  25
BRANCH  14  32
ATOM     32  C   UNL     1      97.029  81.695  77.551  1.00  0.00    -0.046 C 
ATOM     33  C   UNL     1      97.033  82.107  76.109  1.00  0.00     0.042 C 
ATOM     34  C   UNL     1      96.278  82.326  78.466  1.00  0.00     0.010 C 
ENDBRANCH  14  32
ENDBRANCH   3   4
BRANCH   2  35
ATOM     35  C   UNL     1      99.224  76.654  81.957  1.00  0.00     0.078 CG0
ATOM     36  G   UNL     1      99.065  76.229  80.499  1.00  0.00     0.000 G0
ENDBRANCH   2  35
ENDBRANCH   1   2
BRANCH   1  37
ATOM     37  O   UNL     1      98.594  79.103  84.331  1.00  0.00    -0.461 OA
BRANCH  37  38
ATOM     38  C   UNL     1      97.528  78.305  84.675  1.00  0.00     0.310 C 
ATOM     39  O   UNL     1      97.575  77.370  85.462  1.00  0.00    -0.252 OA
BRANCH  38  40
ATOM     40  C   UNL     1      96.295  78.762  83.931  1.00  0.00     0.158 C 
BRANCH  40  41
ATOM     41  C   UNL     1      96.001  80.227  84.123  1.00  0.00    -0.033 A 
ATOM     42  C   UNL     1      96.429  81.155  83.172  1.00  0.00     0.054 A 
ATOM     43  C   UNL     1      95.302  80.656  85.251  1.00  0.00     0.008 A 
ATOM     44  C   UNL     1      96.157  82.511  83.350  1.00  0.00     0.160 A 
ATOM     45  C   UNL     1      95.030  82.013  85.429  1.00  0.00     0.050 A 
ATOM     46  C   UNL     1      95.458  82.940  84.479  1.00  0.00     0.157 A 
BRANCH  44  47
ATOM     47  O   UNL     1      96.580  83.407  82.416  1.00  0.00    -0.493 OA
ATOM     48  C   UNL     1      97.903  83.239  81.908  1.00  0.00     0.278 C 
ENDBRANCH  44  47
BRANCH  46  49
ATOM     49  O   UNL     1      95.186  84.262  84.663  1.00  0.00    -0.504 OA
ATOM     50  H   UNL     1      95.060  84.430  85.612  1.00  0.00     0.293 HD
ENDBRANCH  46  49
ENDBRANCH  40  41
ENDBRANCH  38  40
ENDBRANCH  37  38
ENDBRANCH   1  37
TORSDOF 11
ENDMDL
MODEL 7
REMARK VINA RESULT:    -6.219     17.705     22.019
REMARK INTER + INTRA:         -11.781
REMARK INTER:                 -10.771
REMARK INTRA:                  -1.011
REMARK UNBOUND:                -0.836
REMARK SMILES C=C(C)[C@]12C[C@@H](C)[C@@]34O[C@](Cc5ccccc5)(O[C@@H]1[C@@H]3C=C(COC(=O)Cc1ccc(O)c(OC)c1)C[C@]1(O)C(=O)C(C)=C[C@@H]41)O2
REMARK SMILES IDX 23 1 22 2 21 3 20 4 9 5 8 6 10 7 6 8 18 9 46 10 19 11 5 12
REMARK SMILES IDX 7 13 4 14 45 15 38 16 44 17 40 18 42 20 41 21 43 22 39 23
REMARK SMILES IDX 11 25 12 26 13 27 17 28 14 29 16 30 15 31 2 32 3 33 1 34
REMARK SMILES IDX 37 35 24 37 25 38 26 39 27 40 28 41 36 42 29 43 33 44 30 45
REMARK SMILES IDX 31 46 34 47 35 48 32 49
REMARK H PARENT 39 24 32 50
REMARK Flexibility Score: 90.00
ROOT
ATOM      1  C   UNL     1      86.791  69.708  71.890  1.00  0.00     0.264 C 
ENDROOT
BRANCH   1   2
ATOM      2  C   UNL     1      87.865  69.630  70.830  1.00  0.00    -0.033 C 
ATOM      3  C   UNL     1      87.539  69.860  69.543  1.00  0.00    -0.015 C 
BRANCH   3   4
ATOM      4  C   UNL     1      88.405  69.769  68.297  1.00  0.00     0.078 C 
ATOM      5  O   UNL     1      89.349  72.022  67.909  1.00  0.00    -0.319 OA
ATOM      6  C   UNL     1      89.712  70.643  68.228  1.00  0.00     0.095 C 
ATOM      7  C   UNL     1      88.346  72.175  66.887  1.00  0.00     0.289 C 
ATOM      8  C   UNL     1      90.619  70.058  67.068  1.00  0.00     0.023 C 
ATOM      9  O   UNL     1      87.145  71.490  67.235  1.00  0.00    -0.320 OA
ATOM     10  O   UNL     1      88.756  71.623  65.639  1.00  0.00    -0.313 OA
ATOM     11  C   UNL     1      87.567  70.130  67.046  1.00  0.00     0.170 C 
ATOM     12  C   UNL     1      89.757  69.480  65.904  1.00  0.00     0.049 C 
ATOM     13  C   UNL     1      91.665  71.029  66.495  1.00  0.00     0.011 C 
ATOM     14  C   UNL     1      88.428  70.223  65.761  1.00  0.00     0.122 C 
BRANCH   6  15
ATOM     15  C   UNL     1      90.390  70.733  69.626  1.00  0.00     0.086 C 
ATOM     16  C   UNL     1      90.458  69.421  70.434  1.00  0.00     0.140 CG0
ATOM     17  C   UNL     1      91.785  71.283  69.734  1.00  0.00    -0.010 C 
ATOM     18  C   UNL     1      91.773  69.560  71.172  1.00  0.00     0.190 C 
ATOM     19  G   UNL     1      89.269  69.264  71.381  1.00  0.00     0.000 G0
ATOM     20  C   UNL     1      92.578  70.663  70.614  1.00  0.00    -0.008 C 
ATOM     21  O   UNL     1      92.158  68.834  72.077  1.00  0.00    -0.291 OA
ATOM     22  C   UNL     1      93.958  70.977  71.037  1.00  0.00     0.048 C 
BRANCH  16  23
ATOM     23  O   UNL     1      90.639  68.263  69.635  1.00  0.00    -0.381 OA
ATOM     24  H   UNL     1      91.010  68.535  68.780  1.00  0.00     0.212 HD
ENDBRANCH  16  23
ENDBRANCH   6  15
BRANCH   7  25
ATOM     25  C   UNL     1      88.061  73.653  66.718  1.00  0.00     0.135 C 
BRANCH  25  26
ATOM     26  C   UNL     1      89.176  74.364  65.992  1.00  0.00    -0.040 A 
ATOM     27  C   UNL     1      89.043  74.667  64.636  1.00  0.00     0.004 A 
ATOM     28  C   UNL     1      90.339  74.719  66.675  1.00  0.00     0.004 A 
ATOM     29  C   UNL     1      90.074  75.325  63.964  1.00  0.00     0.000 A 
ATOM     30  C   UNL     1      91.370  75.376  66.003  1.00  0.00     0.000 A 
ATOM     31  C   UNL     1      91.237  75.679  64.648  1.00  0.00     0.000 A 
ENDBRANCH  25  26
ENDBRANCH   7  25
BRANCH  14  32
ATOM     32  C   UNL     1      87.667  69.810  64.544  1.00  0.00    -0.046 C 
ATOM     33  C   UNL     1      86.362  69.111  64.785  1.00  0.00     0.042 C 
ATOM     34  C   UNL     1      88.124  70.051  63.306  1.00  0.00     0.010 C 
ENDBRANCH  14  32
ENDBRANCH   3   4
BRANCH   2  35
ATOM     35  C   UNL     1      89.233  69.293  71.394  1.00  0.00     0.078 CG0
ATOM     36  G   UNL     1      90.424  69.392  70.442  1.00  0.00     0.000 G0
ENDBRANCH   2  35
ENDBRANCH   1   2
BRANCH   1  37
ATOM     37  O   UNL     1      85.801  68.738  71.624  1.00  0.00    -0.461 OA
BRANCH  37  38
ATOM     38  C   UNL     1      84.495  69.167  71.690  1.00  0.00     0.310 C 
ATOM     39  O   UNL     1      84.145  70.327  71.858  1.00  0.00    -0.252 OA
BRANCH  38  40
ATOM     40  C   UNL     1      83.567  67.987  71.524  1.00  0.00     0.158 C 
BRANCH  40  41
ATOM     41  C   UNL     1      82.965  67.525  72.826  1.00  0.00    -0.033 A 
ATOM     42  C   UNL     1      83.794  67.180  73.894  1.00  0.00     0.054 A 
ATOM     43  C   UNL     1      81.580  67.442  72.963  1.00  0.00     0.008 A 
ATOM     44  C   UNL     1      83.236  66.752  75.099  1.00  0.00     0.160 A 
ATOM     45  C   UNL     1      81.022  67.014  74.168  1.00  0.00     0.050 A 
ATOM     46  C   UNL     1      81.850  66.669  75.236  1.00  0.00     0.157 A 
BRANCH  44  47
ATOM     47  O   UNL     1      84.055  66.417  76.134  1.00  0.00    -0.493 OA
ATOM     48  C   UNL     1      84.586  67.488  76.914  1.00  0.00     0.278 C 
ENDBRANCH  44  47
BRANCH  46  49
ATOM     49  O   UNL     1      81.294  66.254  76.408  1.00  0.00    -0.504 OA
ATOM     50  H   UNL     1      81.935  66.388  77.127  1.00  0.00     0.293 HD
ENDBRANCH  46  49
ENDBRANCH  40  41
ENDBRANCH  38  40
ENDBRANCH  37  38
ENDBRANCH   1  37
TORSDOF 11
ENDMDL
MODEL 8
REMARK VINA RESULT:    -5.947     15.865     20.485
REMARK INTER + INTRA:         -11.303
REMARK INTER:                  -9.705
REMARK INTRA:                  -1.599
REMARK UNBOUND:                -0.836
REMARK SMILES C=C(C)[C@]12C[C@@H](C)[C@@]34O[C@](Cc5ccccc5)(O[C@@H]1[C@@H]3C=C(COC(=O)Cc1ccc(O)c(OC)c1)C[C@]1(O)C(=O)C(C)=C[C@@H]41)O2
REMARK SMILES IDX 23 1 22 2 21 3 20 4 9 5 8 6 10 7 6 8 18 9 46 10 19 11 5 12
REMARK SMILES IDX 7 13 4 14 45 15 38 16 44 17 40 18 42 20 41 21 43 22 39 23
REMARK SMILES IDX 11 25 12 26 13 27 17 28 14 29 16 30 15 31 2 32 3 33 1 34
REMARK SMILES IDX 37 35 24 37 25 38 26 39 27 40 28 41 36 42 29 43 33 44 30 45
REMARK SMILES IDX 31 46 34 47 35 48 32 49
REMARK H PARENT 39 24 32 50
REMARK Flexibility Score: 90.00
ROOT
ATOM      1  C   UNL     1      88.350  70.908  74.992  1.00  0.00     0.264 C 
ENDROOT
BRANCH   1   2
ATOM      2  C   UNL     1      88.019  69.989  73.839  1.00  0.00    -0.033 C 
ATOM      3  C   UNL     1      87.254  68.901  74.061  1.00  0.00    -0.015 C 
BRANCH   3   4
ATOM      4  C   UNL     1      86.848  67.795  73.102  1.00  0.00     0.078 C 
ATOM      5  O   UNL     1      84.670  68.449  72.128  1.00  0.00    -0.319 OA
ATOM      6  C   UNL     1      86.068  68.188  71.792  1.00  0.00     0.095 C 
ATOM      7  C   UNL     1      84.073  67.517  73.050  1.00  0.00     0.289 C 
ATOM      8  C   UNL     1      86.147  66.956  70.799  1.00  0.00     0.023 C 
ATOM      9  O   UNL     1      84.801  67.463  74.274  1.00  0.00    -0.320 OA
ATOM     10  O   UNL     1      84.070  66.184  72.545  1.00  0.00    -0.313 OA
ATOM     11  C   UNL     1      85.972  66.753  73.840  1.00  0.00     0.170 C 
ATOM     12  C   UNL     1      86.160  65.601  71.569  1.00  0.00     0.049 C 
ATOM     13  C   UNL     1      85.061  66.915  69.711  1.00  0.00     0.011 C 
ATOM     14  C   UNL     1      85.382  65.688  72.883  1.00  0.00     0.122 C 
BRANCH   6  15
ATOM     15  C   UNL     1      86.590  69.540  71.224  1.00  0.00     0.086 C 
ATOM     16  C   UNL     1      88.119  69.743  71.249  1.00  0.00     0.140 CG0
ATOM     17  C   UNL     1      86.205  69.951  69.831  1.00  0.00    -0.010 C 
ATOM     18  C   UNL     1      88.360  70.554  69.993  1.00  0.00     0.190 C 
ATOM     19  G   UNL     1      88.584  70.467  72.512  1.00  0.00     0.000 G0
ATOM     20  C   UNL     1      87.169  70.548  69.123  1.00  0.00    -0.008 C 
ATOM     21  O   UNL     1      89.410  71.104  69.697  1.00  0.00    -0.291 OA
ATOM     22  C   UNL     1      87.127  71.148  67.773  1.00  0.00     0.048 C 
BRANCH  16  23
ATOM     23  O   UNL     1      88.859  68.554  71.032  1.00  0.00    -0.381 OA
ATOM     24  H   UNL     1      89.468  68.430  71.778  1.00  0.00     0.212 HD
ENDBRANCH  16  23
ENDBRANCH   6  15
BRANCH   7  25
ATOM     25  C   UNL     1      82.650  67.959  73.319  1.00  0.00     0.135 C 
BRANCH  25  26
ATOM     26  C   UNL     1      81.653  67.203  72.476  1.00  0.00    -0.040 A 
ATOM     27  C   UNL     1      81.300  67.684  71.215  1.00  0.00     0.004 A 
ATOM     28  C   UNL     1      81.086  66.023  72.956  1.00  0.00     0.004 A 
ATOM     29  C   UNL     1      80.379  66.985  70.434  1.00  0.00     0.000 A 
ATOM     30  C   UNL     1      80.165  65.324  72.175  1.00  0.00     0.000 A 
ATOM     31  C   UNL     1      79.812  65.806  70.915  1.00  0.00     0.000 A 
ENDBRANCH  25  26
ENDBRANCH   7  25
BRANCH  14  32
ATOM     32  C   UNL     1      85.226  64.360  73.548  1.00  0.00    -0.046 C 
ATOM     33  C   UNL     1      83.848  64.018  74.030  1.00  0.00     0.042 C 
ATOM     34  C   UNL     1      86.261  63.520  73.706  1.00  0.00     0.010 C 
ENDBRANCH  14  32
ENDBRANCH   3   4
BRANCH   2  35
ATOM     35  C   UNL     1      88.619  70.446  72.523  1.00  0.00     0.078 CG0
ATOM     36  G   UNL     1      88.115  69.766  71.251  1.00  0.00     0.000 G0
ENDBRANCH   2  35
ENDBRANCH   1   2
BRANCH   1  37
ATOM     37  O   UNL     1      87.468  70.650  76.062  1.00  0.00    -0.461 OA
BRANCH  37  38
ATOM     38  C   UNL     1      87.992  69.958  77.129  1.00  0.00     0.310 C 
ATOM     39  O   UNL     1      89.166  69.636  77.249  1.00  0.00    -0.252 OA
BRANCH  38  40
ATOM     40  C   UNL     1      86.895  69.659  78.124  1.00  0.00     0.158 C 
BRANCH  40  41
ATOM     41  C   UNL     1      86.693  68.183  78.352  1.00  0.00    -0.033 A 
ATOM     42  C   UNL     1      87.520  67.495  79.241  1.00  0.00     0.054 A 
ATOM     43  C   UNL     1      85.681  67.505  77.674  1.00  0.00     0.008 A 
ATOM     44  C   UNL     1      87.333  66.129  79.451  1.00  0.00     0.160 A 
ATOM     45  C   UNL     1      85.494  66.138  77.884  1.00  0.00     0.050 A 
ATOM     46  C   UNL     1      86.320  65.450  78.772  1.00  0.00     0.157 A 
BRANCH  44  47
ATOM     47  O   UNL     1      88.146  65.468  80.321  1.00  0.00    -0.493 OA
ATOM     48  C   UNL     1      89.453  65.131  79.859  1.00  0.00     0.278 C 
ENDBRANCH  44  47
BRANCH  46  49
ATOM     49  O   UNL     1      86.127  64.117  78.970  1.00  0.00    -0.504 OA
ATOM     50  H   UNL     1      85.581  63.765  78.247  1.00  0.00     0.293 HD
ENDBRANCH  46  49
ENDBRANCH  40  41
ENDBRANCH  38  40
ENDBRANCH  37  38
ENDBRANCH   1  37
TORSDOF 11
ENDMDL
MODEL 9
REMARK VINA RESULT:    -5.892      5.070     11.899
REMARK INTER + INTRA:         -11.205
REMARK INTER:                 -10.592
REMARK INTRA:                  -0.614
REMARK UNBOUND:                -0.836
REMARK SMILES C=C(C)[C@]12C[C@@H](C)[C@@]34O[C@](Cc5ccccc5)(O[C@@H]1[C@@H]3C=C(COC(=O)Cc1ccc(O)c(OC)c1)C[C@]1(O)C(=O)C(C)=C[C@@H]41)O2
REMARK SMILES IDX 23 1 22 2 21 3 20 4 9 5 8 6 10 7 6 8 18 9 46 10 19 11 5 12
REMARK SMILES IDX 7 13 4 14 45 15 38 16 44 17 40 18 42 20 41 21 43 22 39 23
REMARK SMILES IDX 11 25 12 26 13 27 17 28 14 29 16 30 15 31 2 32 3 33 1 34
REMARK SMILES IDX 37 35 24 37 25 38 26 39 27 40 28 41 36 42 29 43 33 44 30 45
REMARK SMILES IDX 31 46 34 47 35 48 32 49
REMARK H PARENT 39 24 32 50
REMARK Flexibility Score: 90.00
ROOT
ATOM      1  C   UNL     1      99.891  79.356  83.190  1.00  0.00     0.264 C 
ENDROOT
BRANCH   1   2
ATOM      2  C   UNL     1      99.523  78.871  81.807  1.00  0.00    -0.033 C 
ATOM      3  C   UNL     1      99.224  79.772  80.850  1.00  0.00    -0.015 C 
BRANCH   3   4
ATOM      4  C   UNL     1      98.755  79.543  79.422  1.00  0.00     0.078 C 
ATOM      5  O   UNL     1     100.777  79.499  77.998  1.00  0.00    -0.319 OA
ATOM      6  C   UNL     1      99.660  78.681  78.466  1.00  0.00     0.095 C 
ATOM      7  C   UNL     1     100.438  80.847  77.620  1.00  0.00     0.289 C 
ATOM      8  C   UNL     1      98.773  78.248  77.226  1.00  0.00     0.023 C 
ATOM      9  O   UNL     1      99.822  81.546  78.699  1.00  0.00    -0.320 OA
ATOM     10  O   UNL     1      99.500  80.889  76.549  1.00  0.00    -0.313 OA
ATOM     11  C   UNL     1      98.538  80.904  78.715  1.00  0.00     0.170 C 
ATOM     12  C   UNL     1      97.720  79.342  76.868  1.00  0.00     0.049 C 
ATOM     13  C   UNL     1      99.553  77.856  75.961  1.00  0.00     0.011 C 
ATOM     14  C   UNL     1      98.224  80.745  77.207  1.00  0.00     0.122 C 
BRANCH   6  15
ATOM     15  C   UNL     1     100.333  77.514  79.246  1.00  0.00     0.086 C 
ATOM     16  C   UNL     1      99.436  76.761  80.249  1.00  0.00     0.140 CG0
ATOM     17  C   UNL     1     101.007  76.410  78.481  1.00  0.00    -0.010 C 
ATOM     18  C   UNL     1      99.963  75.344  80.158  1.00  0.00     0.190 C 
ATOM     19  G   UNL     1      99.542  77.335  81.662  1.00  0.00     0.000 G0
ATOM     20  C   UNL     1     100.841  75.182  78.984  1.00  0.00    -0.008 C 
ATOM     21  O   UNL     1      99.671  74.430  80.914  1.00  0.00    -0.291 OA
ATOM     22  C   UNL     1     101.415  73.891  78.552  1.00  0.00     0.048 C 
BRANCH  16  23
ATOM     23  O   UNL     1      98.084  76.647  79.837  1.00  0.00    -0.381 OA
ATOM     24  H   UNL     1      97.679  77.529  79.866  1.00  0.00     0.212 HD
ENDBRANCH  16  23
ENDBRANCH   6  15
BRANCH   7  25
ATOM     25  C   UNL     1     101.710  81.559  77.207  1.00  0.00     0.135 C 
BRANCH  25  26
ATOM     26  C   UNL     1     101.599  82.162  75.829  1.00  0.00    -0.040 A 
ATOM     27  C   UNL     1     100.795  83.284  75.622  1.00  0.00     0.004 A 
ATOM     28  C   UNL     1     102.300  81.600  74.763  1.00  0.00     0.004 A 
ATOM     29  C   UNL     1     100.691  83.842  74.347  1.00  0.00     0.000 A 
ATOM     30  C   UNL     1     102.196  82.158  73.488  1.00  0.00     0.000 A 
ATOM     31  C   UNL     1     101.392  83.279  73.281  1.00  0.00     0.000 A 
ENDBRANCH  25  26
ENDBRANCH   7  25
BRANCH  14  32
ATOM     32  C   UNL     1      97.313  81.819  76.707  1.00  0.00    -0.046 C 
ATOM     33  C   UNL     1      97.129  81.892  75.221  1.00  0.00     0.042 C 
ATOM     34  C   UNL     1      96.695  82.670  77.541  1.00  0.00     0.010 C 
ENDBRANCH  14  32
ENDBRANCH   3   4
BRANCH   2  35
ATOM     35  C   UNL     1      99.550  77.359  81.681  1.00  0.00     0.078 CG0
ATOM     36  G   UNL     1      99.434  76.773  80.274  1.00  0.00     0.000 G0
ENDBRANCH   2  35
ENDBRANCH   1   2
BRANCH   1  37
ATOM     37  O   UNL     1      99.023  80.404  83.563  1.00  0.00    -0.461 OA
BRANCH  37  38
ATOM     38  C   UNL     1      97.756  80.035  83.950  1.00  0.00     0.310 C 
ATOM     39  O   UNL     1      97.497  79.223  84.828  1.00  0.00    -0.252 OA
BRANCH  38  40
ATOM     40  C   UNL     1      96.738  80.786  83.124  1.00  0.00     0.158 C 
BRANCH  40  41
ATOM     41  C   UNL     1      96.470  82.176  83.643  1.00  0.00    -0.033 A 
ATOM     42  C   UNL     1      95.822  82.350  84.867  1.00  0.00     0.054 A 
ATOM     43  C   UNL     1      96.869  83.286  82.901  1.00  0.00     0.008 A 
ATOM     44  C   UNL     1      95.574  83.636  85.347  1.00  0.00     0.160 A 
ATOM     45  C   UNL     1      96.621  84.573  83.381  1.00  0.00     0.050 A 
ATOM     46  C   UNL     1      95.973  84.748  84.603  1.00  0.00     0.157 A 
BRANCH  44  47
ATOM     47  O   UNL     1      94.941  83.794  86.543  1.00  0.00    -0.493 OA
ATOM     48  C   UNL     1      95.573  84.638  87.504  1.00  0.00     0.278 C 
ENDBRANCH  44  47
BRANCH  46  49
ATOM     49  O   UNL     1      95.738  86.008  85.063  1.00  0.00    -0.504 OA
ATOM     50  H   UNL     1      94.822  86.256  84.852  1.00  0.00     0.293 HD
ENDBRANCH  46  49
ENDBRANCH  40  41
ENDBRANCH  38  40
ENDBRANCH  37  38
ENDBRANCH   1  37
TORSDOF 11
ENDMDL
MODEL 10
REMARK VINA RESULT:    -5.732      5.168     12.528
REMARK INTER + INTRA:         -10.924
REMARK INTER:                  -9.396
REMARK INTRA:                  -1.528
REMARK UNBOUND:                -0.836
REMARK SMILES C=C(C)[C@]12C[C@@H](C)[C@@]34O[C@](Cc5ccccc5)(O[C@@H]1[C@@H]3C=C(COC(=O)Cc1ccc(O)c(OC)c1)C[C@]1(O)C(=O)C(C)=C[C@@H]41)O2
REMARK SMILES IDX 23 1 22 2 21 3 20 4 9 5 8 6 10 7 6 8 18 9 46 10 19 11 5 12
REMARK SMILES IDX 7 13 4 14 45 15 38 16 44 17 40 18 42 20 41 21 43 22 39 23
REMARK SMILES IDX 11 25 12 26 13 27 17 28 14 29 16 30 15 31 2 32 3 33 1 34
REMARK SMILES IDX 37 35 24 37 25 38 26 39 27 40 28 41 36 42 29 43 33 44 30 45
REMARK SMILES IDX 31 46 34 47 35 48 32 49
REMARK H PARENT 39 24 32 50
REMARK Flexibility Score: 90.00
ROOT
ATOM      1  C   UNL     1     100.983  78.000  81.816  1.00  0.00     0.264 C 
ENDROOT
BRANCH   1   2
ATOM      2  C   UNL     1     100.285  78.031  80.476  1.00  0.00    -0.033 C 
ATOM      3  C   UNL     1      99.909  79.216  79.956  1.00  0.00    -0.015 C 
BRANCH   3   4
ATOM      4  C   UNL     1      99.135  79.508  78.681  1.00  0.00     0.078 C 
ATOM      5  O   UNL     1     100.804  79.857  76.889  1.00  0.00    -0.319 OA
ATOM      6  C   UNL     1      99.715  78.982  77.315  1.00  0.00     0.095 C 
ATOM      7  C   UNL     1     100.562  81.268  77.053  1.00  0.00     0.289 C 
ATOM      8  C   UNL     1      98.548  79.038  76.245  1.00  0.00     0.023 C 
ATOM      9  O   UNL     1     100.268  81.587  78.411  1.00  0.00    -0.320 OA
ATOM     10  O   UNL     1      99.437  81.715  76.301  1.00  0.00    -0.313 OA
ATOM     11  C   UNL     1      98.945  81.037  78.519  1.00  0.00     0.170 C 
ATOM     12  C   UNL     1      97.585  80.235  76.511  1.00  0.00     0.049 C 
ATOM     13  C   UNL     1      99.001  79.063  74.776  1.00  0.00     0.011 C 
ATOM     14  C   UNL     1      98.314  81.415  77.156  1.00  0.00     0.122 C 
BRANCH   6  15
ATOM     15  C   UNL     1     100.386  77.590  77.501  1.00  0.00     0.086 C 
ATOM     16  C   UNL     1      99.630  76.584  78.394  1.00  0.00     0.140 CG0
ATOM     17  C   UNL     1     100.747  76.779  76.288  1.00  0.00    -0.010 C 
ATOM     18  C   UNL     1      99.948  75.259  77.734  1.00  0.00     0.190 C 
ATOM     19  G   UNL     1     100.094  76.640  79.848  1.00  0.00     0.000 G0
ATOM     20  C   UNL     1     100.539  75.462  76.397  1.00  0.00    -0.008 C 
ATOM     21  O   UNL     1      99.709  74.158  78.205  1.00  0.00    -0.291 OA
ATOM     22  C   UNL     1     100.849  74.369  75.454  1.00  0.00     0.048 C 
BRANCH  16  23
ATOM     23  O   UNL     1      98.218  76.680  78.297  1.00  0.00    -0.381 OA
ATOM     24  H   UNL     1      97.991  77.577  78.003  1.00  0.00     0.212 HD
ENDBRANCH  16  23
ENDBRANCH   6  15
BRANCH   7  25
ATOM     25  C   UNL     1     101.800  82.018  76.607  1.00  0.00     0.135 C 
BRANCH  25  26
ATOM     26  C   UNL     1     101.654  82.569  75.211  1.00  0.00    -0.040 A 
ATOM     27  C   UNL     1     101.308  83.908  75.022  1.00  0.00     0.004 A 
ATOM     28  C   UNL     1     101.867  81.742  74.109  1.00  0.00     0.004 A 
ATOM     29  C   UNL     1     101.174  84.418  73.730  1.00  0.00     0.000 A 
ATOM     30  C   UNL     1     101.733  82.252  72.817  1.00  0.00     0.000 A 
ATOM     31  C   UNL     1     101.386  83.590  72.628  1.00  0.00     0.000 A 
ENDBRANCH  25  26
ENDBRANCH   7  25
BRANCH  14  32
ATOM     32  C   UNL     1      97.458  82.635  77.253  1.00  0.00    -0.046 C 
ATOM     33  C   UNL     1      97.671  83.680  76.198  1.00  0.00     0.042 C 
ATOM     34  C   UNL     1      96.550  82.789  78.229  1.00  0.00     0.010 C 
ENDBRANCH  14  32
ENDBRANCH   3   4
BRANCH   2  35
ATOM     35  C   UNL     1     100.103  76.653  79.868  1.00  0.00     0.078 CG0
ATOM     36  G   UNL     1      99.643  76.586  78.413  1.00  0.00     0.000 G0
ENDBRANCH   2  35
ENDBRANCH   1   2
BRANCH   1  37
ATOM     37  O   UNL     1     100.912  79.278  82.409  1.00  0.00    -0.461 OA
BRANCH  37  38
ATOM     38  C   UNL     1     100.858  79.310  83.783  1.00  0.00     0.310 C 
ATOM     39  O   UNL     1     100.958  78.333  84.512  1.00  0.00    -0.252 OA
BRANCH  38  40
ATOM     40  C   UNL     1     100.655  80.733  84.247  1.00  0.00     0.158 C 
BRANCH  40  41
ATOM     41  C   UNL     1      99.217  81.177  84.170  1.00  0.00    -0.033 A 
ATOM     42  C   UNL     1      98.251  80.555  84.962  1.00  0.00     0.054 A 
ATOM     43  C   UNL     1      98.851  82.210  83.308  1.00  0.00     0.008 A 
ATOM     44  C   UNL     1      96.920  80.966  84.891  1.00  0.00     0.160 A 
ATOM     45  C   UNL     1      97.520  82.621  83.236  1.00  0.00     0.050 A 
ATOM     46  C   UNL     1      96.554  82.000  84.027  1.00  0.00     0.157 A 
BRANCH  44  47
ATOM     47  O   UNL     1      95.986  80.351  85.669  1.00  0.00    -0.493 OA
ATOM     48  C   UNL     1      95.898  80.770  87.030  1.00  0.00     0.278 C 
ENDBRANCH  44  47
BRANCH  46  49
ATOM     49  O   UNL     1      95.258  82.410  83.950  1.00  0.00    -0.504 OA
ATOM     50  H   UNL     1      95.050  82.951  84.731  1.00  0.00     0.293 HD
ENDBRANCH  46  49
ENDBRANCH  40  41
ENDBRANCH  38  40
ENDBRANCH  37  38
ENDBRANCH   1  37
TORSDOF 11
ENDMDL
