MODEL 1
REMARK VINA RESULT:    -7.843      0.000      0.000
REMARK INTER + INTRA:         -14.013
REMARK INTER:                 -13.344
REMARK INTRA:                  -0.669
REMARK UNBOUND:                -0.669
REMARK SMILES C=C(C)[C@]12C[C@@H](C)[C@@]34O[C@](Cc5ccccc5)(O[C@@H]1[C@@H]3C=C(COC(=O)Cc1ccc(O)cc1)C[C@]1(O)C(=O)C(C)=C[C@@H]41)O2
REMARK SMILES IDX 23 1 22 2 21 3 20 4 9 5 8 6 10 7 6 8 18 10 44 11 19 12 5 13
REMARK SMILES IDX 7 14 4 15 11 16 12 17 13 18 17 19 14 20 16 21 15 22 2 23
REMARK SMILES IDX 3 24 1 25 35 26 36 27 43 28 38 29 42 30 39 32 40 33 41 34
REMARK SMILES IDX 37 35 24 37 25 38 26 39 27 40 28 41 29 42 34 43 30 44 33 45
REMARK SMILES IDX 31 46 32 47
REMARK H PARENT 37 36 32 48
REMARK Flexibility Score: 90.00
ROOT
ATOM      1  C   UNL     1      93.616  97.570  75.304  1.00  0.00     0.264 C 
ENDROOT
BRANCH   1   2
ATOM      2  C   UNL     1      93.584  99.025  74.896  1.00  0.00    -0.033 C 
ATOM      3  C   UNL     1      93.313  99.344  73.614  1.00  0.00    -0.015 C 
BRANCH   3   4
ATOM      4  C   UNL     1      93.297 100.708  72.942  1.00  0.00     0.078 C 
ATOM      5  O   UNL     1      90.968 101.533  73.045  1.00  0.00    -0.319 OA
ATOM      6  C   UNL     1      92.326 101.809  73.508  1.00  0.00     0.095 CG0
ATOM      7  C   UNL     1      90.856 101.137  71.664  1.00  0.00     0.289 C 
ATOM      8  C   UNL     1      92.801 103.207  72.934  1.00  0.00     0.023 C 
ATOM      9  G   UNL     1      92.233 101.720  75.059  1.00  0.00     0.000 G0
ATOM     10  O   UNL     1      91.640  99.978  71.393  1.00  0.00    -0.320 OA
ATOM     11  O   UNL     1      91.333 102.142  70.772  1.00  0.00    -0.313 OA
ATOM     12  C   UNL     1      92.957 100.550  71.439  1.00  0.00     0.170 C 
ATOM     13  C   UNL     1      93.402 103.064  71.502  1.00  0.00     0.049 C 
ATOM     14  C   UNL     1      91.736 104.317  72.931  1.00  0.00     0.011 C 
ATOM     15  C   UNL     1      92.756 101.911  70.730  1.00  0.00     0.122 C 
BRANCH   7  16
ATOM     16  C   UNL     1      89.397 100.851  71.369  1.00  0.00     0.135 C 
BRANCH  16  17
ATOM     17  C   UNL     1      89.232  99.828  70.273  1.00  0.00    -0.040 A 
ATOM     18  C   UNL     1      89.118  98.475  70.592  1.00  0.00     0.004 A 
ATOM     19  C   UNL     1      89.193 100.236  68.940  1.00  0.00     0.004 A 
ATOM     20  C   UNL     1      88.965  97.529  69.577  1.00  0.00     0.000 A 
ATOM     21  C   UNL     1      89.039  99.290  67.925  1.00  0.00     0.000 A 
ATOM     22  C   UNL     1      88.925  97.938  68.245  1.00  0.00     0.000 A 
ENDBRANCH  16  17
ENDBRANCH   7  16
BRANCH  15  23
ATOM     23  C   UNL     1      93.184 101.868  69.299  1.00  0.00    -0.046 C 
ATOM     24  C   UNL     1      92.151 102.267  68.288  1.00  0.00     0.042 C 
ATOM     25  C   UNL     1      94.421 101.493  68.940  1.00  0.00     0.010 C 
ENDBRANCH  15  23
ENDBRANCH   3   4
BRANCH   2  26
ATOM     26  C   UNL     1      93.868  99.972  76.047  1.00  0.00     0.078 C 
BRANCH  26  27
ATOM     27  C   UNL     1      93.601 101.457  75.810  1.00  0.00     0.140 C 
ATOM     28  C   UNL     1      92.261 101.701  75.086  1.00  0.00     0.086 CG0
ATOM     29  C   UNL     1      93.417 102.226  77.102  1.00  0.00     0.190 C 
ATOM     30  C   UNL     1      91.636 102.818  75.873  1.00  0.00    -0.010 C 
ATOM     31  G   UNL     1      92.330 101.806  73.534  1.00  0.00     0.000 G0
ATOM     32  O   UNL     1      94.157 102.168  78.072  1.00  0.00    -0.291 OA
ATOM     33  C   UNL     1      92.245 103.118  77.024  1.00  0.00    -0.008 C 
ATOM     34  C   UNL     1      91.869 104.086  78.075  1.00  0.00     0.048 C 
BRANCH  27  35
ATOM     35  O   UNL     1      94.709 102.091  75.194  1.00  0.00    -0.381 OA
ATOM     36  H   UNL     1      95.315 101.403  74.870  1.00  0.00     0.212 HD
ENDBRANCH  27  35
ENDBRANCH  26  27
ENDBRANCH   2  26
ENDBRANCH   1   2
BRANCH   1  37
ATOM     37  O   UNL     1      94.656  97.369  76.237  1.00  0.00    -0.461 OA
BRANCH  37  38
ATOM     38  C   UNL     1      94.573  96.229  77.003  1.00  0.00     0.310 C 
ATOM     39  O   UNL     1      95.161  95.182  76.770  1.00  0.00    -0.252 OA
BRANCH  38  40
ATOM     40  C   UNL     1      93.647  96.473  78.171  1.00  0.00     0.158 C 
BRANCH  40  41
ATOM     41  C   UNL     1      92.408  95.618  78.127  1.00  0.00    -0.037 A 
ATOM     42  C   UNL     1      91.293  96.043  77.403  1.00  0.00     0.008 A 
ATOM     43  C   UNL     1      92.373  94.403  78.809  1.00  0.00     0.008 A 
ATOM     44  C   UNL     1      90.144  95.252  77.362  1.00  0.00     0.046 A 
ATOM     45  C   UNL     1      91.225  93.611  78.769  1.00  0.00     0.046 A 
ATOM     46  C   UNL     1      90.111  94.035  78.046  1.00  0.00     0.115 A 
BRANCH  46  47
ATOM     47  O   UNL     1      88.990  93.264  78.006  1.00  0.00    -0.508 OA
ATOM     48  H   UNL     1      88.211  93.843  77.935  1.00  0.00     0.293 HD
ENDBRANCH  46  47
ENDBRANCH  40  41
ENDBRANCH  38  40
ENDBRANCH  37  38
ENDBRANCH   1  37
TORSDOF 10
ENDMDL
MODEL 2
REMARK VINA RESULT:    -7.693     27.762     31.844
REMARK INTER + INTRA:         -13.759
REMARK INTER:                 -11.819
REMARK INTRA:                  -1.940
REMARK UNBOUND:                -0.669
REMARK SMILES C=C(C)[C@]12C[C@@H](C)[C@@]34O[C@](Cc5ccccc5)(O[C@@H]1[C@@H]3C=C(COC(=O)Cc1ccc(O)cc1)C[C@]1(O)C(=O)C(C)=C[C@@H]41)O2
REMARK SMILES IDX 23 1 22 2 21 3 20 4 9 5 8 6 10 7 6 8 18 10 44 11 19 12 5 13
REMARK SMILES IDX 7 14 4 15 11 16 12 17 13 18 17 19 14 20 16 21 15 22 2 23
REMARK SMILES IDX 3 24 1 25 35 26 36 27 43 28 38 29 42 30 39 32 40 33 41 34
REMARK SMILES IDX 37 35 24 37 25 38 26 39 27 40 28 41 29 42 34 43 30 44 33 45
REMARK SMILES IDX 31 46 32 47
REMARK H PARENT 37 36 32 48
REMARK Flexibility Score: 90.00
ROOT
ATOM      1  C   UNL     1      67.848  87.209  73.121  1.00  0.00     0.264 C 
ENDROOT
BRANCH   1   2
ATOM      2  C   UNL     1      67.396  85.927  72.459  1.00  0.00    -0.033 C 
ATOM      3  C   UNL     1      66.151  85.466  72.696  1.00  0.00    -0.015 C 
BRANCH   3   4
ATOM      4  C   UNL     1      65.490  84.182  72.220  1.00  0.00     0.078 C 
ATOM      5  O   UNL     1      64.275  84.726  70.136  1.00  0.00    -0.319 OA
ATOM      6  C   UNL     1      65.376  83.928  70.672  1.00  0.00     0.095 CG0
ATOM      7  C   UNL     1      63.079  84.741  70.938  1.00  0.00     0.289 C 
ATOM      8  C   UNL     1      65.060  82.390  70.461  1.00  0.00     0.023 C 
ATOM      9  G   UNL     1      66.637  84.458  69.930  1.00  0.00     0.000 G0
ATOM     10  O   UNL     1      63.345  85.216  72.255  1.00  0.00    -0.320 OA
ATOM     11  O   UNL     1      62.520  83.440  71.104  1.00  0.00    -0.313 OA
ATOM     12  C   UNL     1      64.054  84.088  72.791  1.00  0.00     0.170 C 
ATOM     13  C   UNL     1      64.186  81.821  71.621  1.00  0.00     0.049 C 
ATOM     14  C   UNL     1      64.416  82.026  69.112  1.00  0.00     0.011 C 
ATOM     15  C   UNL     1      63.263  82.889  72.211  1.00  0.00     0.122 C 
BRANCH   7  16
ATOM     16  C   UNL     1      62.065  85.643  70.262  1.00  0.00     0.135 C 
BRANCH  16  17
ATOM     17  C   UNL     1      60.661  85.381  70.748  1.00  0.00    -0.040 A 
ATOM     18  C   UNL     1      60.214  85.961  71.934  1.00  0.00     0.004 A 
ATOM     19  C   UNL     1      59.812  84.559  70.008  1.00  0.00     0.004 A 
ATOM     20  C   UNL     1      58.915  85.719  72.382  1.00  0.00     0.000 A 
ATOM     21  C   UNL     1      58.512  84.317  70.457  1.00  0.00     0.000 A 
ATOM     22  C   UNL     1      58.065  84.897  71.643  1.00  0.00     0.000 A 
ENDBRANCH  16  17
ENDBRANCH   7  16
BRANCH  15  23
ATOM     23  C   UNL     1      62.291  82.327  73.196  1.00  0.00    -0.046 C 
ATOM     24  C   UNL     1      62.611  80.966  73.739  1.00  0.00     0.042 C 
ATOM     25  C   UNL     1      61.195  83.001  73.575  1.00  0.00     0.010 C 
ENDBRANCH  15  23
ENDBRANCH   3   4
BRANCH   2  26
ATOM     26  C   UNL     1      68.459  85.310  71.569  1.00  0.00     0.078 C 
BRANCH  26  27
ATOM     27  C   UNL     1      68.015  84.197  70.622  1.00  0.00     0.140 C 
ATOM     28  C   UNL     1      66.657  84.502  69.957  1.00  0.00     0.086 CG0
ATOM     29  C   UNL     1      68.935  84.050  69.428  1.00  0.00     0.190 C 
ATOM     30  C   UNL     1      66.891  84.166  68.511  1.00  0.00    -0.010 C 
ATOM     31  G   UNL     1      65.399  83.937  70.679  1.00  0.00     0.000 G0
ATOM     32  O   UNL     1      70.154  83.983  69.478  1.00  0.00    -0.291 OA
ATOM     33  C   UNL     1      68.164  83.935  68.176  1.00  0.00    -0.008 C 
ATOM     34  C   UNL     1      68.765  83.661  66.854  1.00  0.00     0.048 C 
BRANCH  27  35
ATOM     35  O   UNL     1      68.073  82.928  71.251  1.00  0.00    -0.381 OA
ATOM     36  H   UNL     1      68.653  82.351  70.725  1.00  0.00     0.212 HD
ENDBRANCH  27  35
ENDBRANCH  26  27
ENDBRANCH   2  26
ENDBRANCH   1   2
BRANCH   1  37
ATOM     37  O   UNL     1      66.829  87.674  73.980  1.00  0.00    -0.461 OA
BRANCH  37  38
ATOM     38  C   UNL     1      67.185  87.868  75.295  1.00  0.00     0.310 C 
ATOM     39  O   UNL     1      67.402  88.955  75.811  1.00  0.00    -0.252 OA
BRANCH  38  40
ATOM     40  C   UNL     1      67.265  86.534  75.997  1.00  0.00     0.158 C 
BRANCH  40  41
ATOM     41  C   UNL     1      65.916  85.890  76.192  1.00  0.00    -0.037 A 
ATOM     42  C   UNL     1      65.810  84.501  76.265  1.00  0.00     0.008 A 
ATOM     43  C   UNL     1      64.774  86.683  76.299  1.00  0.00     0.008 A 
ATOM     44  C   UNL     1      64.561  83.905  76.444  1.00  0.00     0.046 A 
ATOM     45  C   UNL     1      63.525  86.087  76.478  1.00  0.00     0.046 A 
ATOM     46  C   UNL     1      63.418  84.699  76.551  1.00  0.00     0.115 A 
BRANCH  46  47
ATOM     47  O   UNL     1      62.201  84.118  76.725  1.00  0.00    -0.508 OA
ATOM     48  H   UNL     1      61.953  84.178  77.664  1.00  0.00     0.293 HD
ENDBRANCH  46  47
ENDBRANCH  40  41
ENDBRANCH  38  40
ENDBRANCH  37  38
ENDBRANCH   1  37
TORSDOF 10
ENDMDL
MODEL 3
REMARK VINA RESULT:    -7.688      1.599      2.047
REMARK INTER + INTRA:         -13.750
REMARK INTER:                 -13.037
REMARK INTRA:                  -0.713
REMARK UNBOUND:                -0.669
REMARK SMILES C=C(C)[C@]12C[C@@H](C)[C@@]34O[C@](Cc5ccccc5)(O[C@@H]1[C@@H]3C=C(COC(=O)Cc1ccc(O)cc1)C[C@]1(O)C(=O)C(C)=C[C@@H]41)O2
REMARK SMILES IDX 23 1 22 2 21 3 20 4 9 5 8 6 10 7 6 8 18 10 44 11 19 12 5 13
REMARK SMILES IDX 7 14 4 15 11 16 12 17 13 18 17 19 14 20 16 21 15 22 2 23
REMARK SMILES IDX 3 24 1 25 35 26 36 27 43 28 38 29 42 30 39 32 40 33 41 34
REMARK SMILES IDX 37 35 24 37 25 38 26 39 27 40 28 41 29 42 34 43 30 44 33 45
REMARK SMILES IDX 31 46 32 47
REMARK H PARENT 37 36 32 48
REMARK Flexibility Score: 90.00
ROOT
ATOM      1  C   UNL     1      95.068  99.342  73.782  1.00  0.00     0.264 C 
ENDROOT
BRANCH   1   2
ATOM      2  C   UNL     1      94.271 100.577  73.433  1.00  0.00    -0.033 C 
ATOM      3  C   UNL     1      93.560 100.600  72.286  1.00  0.00    -0.015 C 
BRANCH   3   4
ATOM      4  C   UNL     1      92.748 101.731  71.676  1.00  0.00     0.078 C 
ATOM      5  O   UNL     1      90.423 101.462  72.476  1.00  0.00    -0.319 OA
ATOM      6  C   UNL     1      91.579 102.355  72.524  1.00  0.00     0.095 CG0
ATOM      7  C   UNL     1      90.133 100.901  71.181  1.00  0.00     0.289 C 
ATOM      8  C   UNL     1      91.196 103.744  71.864  1.00  0.00     0.023 C 
ATOM      9  G   UNL     1      91.961 102.415  74.032  1.00  0.00     0.000 G0
ATOM     10  O   UNL     1      91.249 100.178  70.669  1.00  0.00    -0.320 OA
ATOM     11  O   UNL     1      89.843 101.901  70.208  1.00  0.00    -0.313 OA
ATOM     12  C   UNL     1      92.123 101.268  70.337  1.00  0.00     0.170 C 
ATOM     13  C   UNL     1      91.383 103.712  70.316  1.00  0.00     0.049 C 
ATOM     14  C   UNL     1      89.789 104.269  72.196  1.00  0.00     0.011 C 
ATOM     15  C   UNL     1      91.146 102.313  69.746  1.00  0.00     0.122 C 
BRANCH   7  16
ATOM     16  C   UNL     1      88.942  99.974  71.323  1.00  0.00     0.135 C 
BRANCH  16  17
ATOM     17  C   UNL     1      89.004  98.820  70.353  1.00  0.00    -0.040 A 
ATOM     18  C   UNL     1      89.510  97.588  70.766  1.00  0.00     0.004 A 
ATOM     19  C   UNL     1      88.555  98.986  69.043  1.00  0.00     0.004 A 
ATOM     20  C   UNL     1      89.567  96.521  69.868  1.00  0.00     0.000 A 
ATOM     21  C   UNL     1      88.612  97.919  68.146  1.00  0.00     0.000 A 
ATOM     22  C   UNL     1      89.118  96.687  68.559  1.00  0.00     0.000 A 
ENDBRANCH  16  17
ENDBRANCH   7  16
BRANCH  15  23
ATOM     23  C   UNL     1      91.141 102.295  68.252  1.00  0.00    -0.046 C 
ATOM     24  C   UNL     1      89.799 102.417  67.593  1.00  0.00     0.042 C 
ATOM     25  C   UNL     1      92.272 102.176  67.540  1.00  0.00     0.010 C 
ENDBRANCH  15  23
ENDBRANCH   3   4
BRANCH   2  26
ATOM     26  C   UNL     1      94.380 101.672  74.477  1.00  0.00     0.078 C 
BRANCH  26  27
ATOM     27  C   UNL     1      93.410 102.846  74.360  1.00  0.00     0.140 C 
ATOM     28  C   UNL     1      91.973 102.387  74.038  1.00  0.00     0.086 CG0
ATOM     29  C   UNL     1      93.229 103.582  75.672  1.00  0.00     0.190 C 
ATOM     30  C   UNL     1      91.128 103.181  74.995  1.00  0.00    -0.010 C 
ATOM     31  G   UNL     1      91.587 102.349  72.530  1.00  0.00     0.000 G0
ATOM     32  O   UNL     1      94.134 103.963  76.400  1.00  0.00    -0.291 OA
ATOM     33  C   UNL     1      91.803 103.840  75.942  1.00  0.00    -0.008 C 
ATOM     34  C   UNL     1      91.307 104.641  77.080  1.00  0.00     0.048 C 
BRANCH  27  35
ATOM     35  O   UNL     1      93.904 103.842  73.480  1.00  0.00    -0.381 OA
ATOM     36  H   UNL     1      93.146 104.272  73.048  1.00  0.00     0.212 HD
ENDBRANCH  27  35
ENDBRANCH  26  27
ENDBRANCH   2  26
ENDBRANCH   1   2
BRANCH   1  37
ATOM     37  O   UNL     1      95.120  99.202  75.186  1.00  0.00    -0.461 OA
BRANCH  37  38
ATOM     38  C   UNL     1      95.831  98.125  75.664  1.00  0.00     0.310 C 
ATOM     39  O   UNL     1      96.804  98.197  76.401  1.00  0.00    -0.252 OA
BRANCH  38  40
ATOM     40  C   UNL     1      95.223  96.847  75.138  1.00  0.00     0.158 C 
BRANCH  40  41
ATOM     41  C   UNL     1      94.156  96.288  76.043  1.00  0.00    -0.037 A 
ATOM     42  C   UNL     1      92.887  96.867  76.067  1.00  0.00     0.008 A 
ATOM     43  C   UNL     1      94.436  95.192  76.858  1.00  0.00     0.008 A 
ATOM     44  C   UNL     1      91.899  96.350  76.905  1.00  0.00     0.046 A 
ATOM     45  C   UNL     1      93.449  94.674  77.697  1.00  0.00     0.046 A 
ATOM     46  C   UNL     1      92.181  95.253  77.720  1.00  0.00     0.115 A 
BRANCH  46  47
ATOM     47  O   UNL     1      91.217  94.749  78.539  1.00  0.00    -0.508 OA
ATOM     48  H   UNL     1      90.777  95.485  78.998  1.00  0.00     0.293 HD
ENDBRANCH  46  47
ENDBRANCH  40  41
ENDBRANCH  38  40
ENDBRANCH  37  38
ENDBRANCH   1  37
TORSDOF 10
ENDMDL
MODEL 4
REMARK VINA RESULT:    -7.138     29.120     31.963
REMARK INTER + INTRA:         -12.813
REMARK INTER:                 -10.886
REMARK INTRA:                  -1.927
REMARK UNBOUND:                -0.669
REMARK SMILES C=C(C)[C@]12C[C@@H](C)[C@@]34O[C@](Cc5ccccc5)(O[C@@H]1[C@@H]3C=C(COC(=O)Cc1ccc(O)cc1)C[C@]1(O)C(=O)C(C)=C[C@@H]41)O2
REMARK SMILES IDX 23 1 22 2 21 3 20 4 9 5 8 6 10 7 6 8 18 10 44 11 19 12 5 13
REMARK SMILES IDX 7 14 4 15 11 16 12 17 13 18 17 19 14 20 16 21 15 22 2 23
REMARK SMILES IDX 3 24 1 25 35 26 36 27 43 28 38 29 42 30 39 32 40 33 41 34
REMARK SMILES IDX 37 35 24 37 25 38 26 39 27 40 28 41 29 42 34 43 30 44 33 45
REMARK SMILES IDX 31 46 32 47
REMARK H PARENT 37 36 32 48
REMARK Flexibility Score: 90.00
ROOT
ATOM      1  C   UNL     1      67.143  84.620  72.308  1.00  0.00     0.264 C 
ENDROOT
BRANCH   1   2
ATOM      2  C   UNL     1      66.530  85.402  73.446  1.00  0.00    -0.033 C 
ATOM      3  C   UNL     1      65.450  86.175  73.208  1.00  0.00    -0.015 C 
BRANCH   3   4
ATOM      4  C   UNL     1      64.703  87.106  74.150  1.00  0.00     0.078 C 
ATOM      5  O   UNL     1      62.863  85.792  75.153  1.00  0.00    -0.319 OA
ATOM      6  C   UNL     1      64.098  86.506  75.472  1.00  0.00     0.095 CG0
ATOM      7  C   UNL     1      61.992  86.457  74.218  1.00  0.00     0.289 C 
ATOM      8  C   UNL     1      63.769  87.715  76.441  1.00  0.00     0.023 C 
ATOM      9  G   UNL     1      65.036  85.413  76.063  1.00  0.00     0.000 G0
ATOM     10  O   UNL     1      62.660  86.722  72.987  1.00  0.00    -0.320 OA
ATOM     11  O   UNL     1      61.550  87.725  74.697  1.00  0.00    -0.313 OA
ATOM     12  C   UNL     1      63.532  87.786  73.398  1.00  0.00     0.170 C 
ATOM     13  C   UNL     1      63.333  88.983  75.646  1.00  0.00     0.049 C 
ATOM     14  C   UNL     1      62.731  87.420  77.538  1.00  0.00     0.011 C 
ATOM     15  C   UNL     1      62.626  88.617  74.340  1.00  0.00     0.122 C 
BRANCH   7  16
ATOM     16  C   UNL     1      60.792  85.565  73.970  1.00  0.00     0.135 C 
BRANCH  16  17
ATOM     17  C   UNL     1      60.001  86.003  72.763  1.00  0.00    -0.040 A 
ATOM     18  C   UNL     1      59.749  85.102  71.729  1.00  0.00     0.004 A 
ATOM     19  C   UNL     1      59.521  87.310  72.682  1.00  0.00     0.004 A 
ATOM     20  C   UNL     1      59.016  85.508  70.613  1.00  0.00     0.000 A 
ATOM     21  C   UNL     1      58.789  87.716  71.566  1.00  0.00     0.000 A 
ATOM     22  C   UNL     1      58.537  86.815  70.532  1.00  0.00     0.000 A 
ENDBRANCH  16  17
ENDBRANCH   7  16
BRANCH  15  23
ATOM     23  C   UNL     1      62.041  89.807  73.651  1.00  0.00    -0.046 C 
ATOM     24  C   UNL     1      61.336  90.799  74.527  1.00  0.00     0.042 C 
ATOM     25  C   UNL     1      62.141  89.978  72.324  1.00  0.00     0.010 C 
ENDBRANCH  15  23
ENDBRANCH   3   4
BRANCH   2  26
ATOM     26  C   UNL     1      67.246  85.193  74.767  1.00  0.00     0.078 C 
BRANCH  26  27
ATOM     27  C   UNL     1      66.566  85.734  76.023  1.00  0.00     0.140 C 
ATOM     28  C   UNL     1      65.057  85.416  76.053  1.00  0.00     0.086 CG0
ATOM     29  C   UNL     1      67.064  85.063  77.286  1.00  0.00     0.190 C 
ATOM     30  C   UNL     1      64.832  84.915  77.452  1.00  0.00    -0.010 C 
ATOM     31  G   UNL     1      64.114  86.511  75.473  1.00  0.00     0.000 G0
ATOM     32  O   UNL     1      68.238  84.897  77.584  1.00  0.00    -0.291 OA
ATOM     33  C   UNL     1      65.940  84.680  78.161  1.00  0.00    -0.008 C 
ATOM     34  C   UNL     1      66.100  84.116  79.517  1.00  0.00     0.048 C 
BRANCH  27  35
ATOM     35  O   UNL     1      66.867  87.104  76.227  1.00  0.00    -0.381 OA
ATOM     36  H   UNL     1      66.042  87.613  76.153  1.00  0.00     0.212 HD
ENDBRANCH  27  35
ENDBRANCH  26  27
ENDBRANCH   2  26
ENDBRANCH   1   2
BRANCH   1  37
ATOM     37  O   UNL     1      66.471  84.939  71.108  1.00  0.00    -0.461 OA
BRANCH  37  38
ATOM     38  C   UNL     1      66.310  83.909  70.210  1.00  0.00     0.310 C 
ATOM     39  O   UNL     1      67.221  83.298  69.670  1.00  0.00    -0.252 OA
BRANCH  38  40
ATOM     40  C   UNL     1      64.837  83.652  69.997  1.00  0.00     0.158 C 
BRANCH  40  41
ATOM     41  C   UNL     1      64.190  82.944  71.158  1.00  0.00    -0.037 A 
ATOM     42  C   UNL     1      63.119  83.536  71.828  1.00  0.00     0.008 A 
ATOM     43  C   UNL     1      64.661  81.696  71.565  1.00  0.00     0.008 A 
ATOM     44  C   UNL     1      62.520  82.880  72.904  1.00  0.00     0.046 A 
ATOM     45  C   UNL     1      64.063  81.039  72.641  1.00  0.00     0.046 A 
ATOM     46  C   UNL     1      62.992  81.631  73.310  1.00  0.00     0.115 A 
BRANCH  46  47
ATOM     47  O   UNL     1      62.409  80.992  74.360  1.00  0.00    -0.508 OA
ATOM     48  H   UNL     1      62.763  81.359  75.189  1.00  0.00     0.293 HD
ENDBRANCH  46  47
ENDBRANCH  40  41
ENDBRANCH  38  40
ENDBRANCH  37  38
ENDBRANCH   1  37
TORSDOF 10
ENDMDL
MODEL 5
REMARK VINA RESULT:    -7.091     22.367     26.755
REMARK INTER + INTRA:         -12.734
REMARK INTER:                 -12.032
REMARK INTRA:                  -0.702
REMARK UNBOUND:                -0.669
REMARK SMILES C=C(C)[C@]12C[C@@H](C)[C@@]34O[C@](Cc5ccccc5)(O[C@@H]1[C@@H]3C=C(COC(=O)Cc1ccc(O)cc1)C[C@]1(O)C(=O)C(C)=C[C@@H]41)O2
REMARK SMILES IDX 23 1 22 2 21 3 20 4 9 5 8 6 10 7 6 8 18 10 44 11 19 12 5 13
REMARK SMILES IDX 7 14 4 15 11 16 12 17 13 18 17 19 14 20 16 21 15 22 2 23
REMARK SMILES IDX 3 24 1 25 35 26 36 27 43 28 38 29 42 30 39 32 40 33 41 34
REMARK SMILES IDX 37 35 24 37 25 38 26 39 27 40 28 41 29 42 34 43 30 44 33 45
REMARK SMILES IDX 31 46 32 47
REMARK H PARENT 37 36 32 48
REMARK Flexibility Score: 90.00
ROOT
ATOM      1  C   UNL     1      69.336  82.802  69.060  1.00  0.00     0.264 C 
ENDROOT
BRANCH   1   2
ATOM      2  C   UNL     1      70.313  83.476  68.125  1.00  0.00    -0.033 C 
ATOM      3  C   UNL     1      70.589  84.786  68.293  1.00  0.00    -0.015 C 
BRANCH   3   4
ATOM      4  C   UNL     1      71.464  85.704  67.454  1.00  0.00     0.078 C 
ATOM      5  O   UNL     1      73.719  85.674  68.469  1.00  0.00    -0.319 OA
ATOM      6  C   UNL     1      72.978  85.322  67.260  1.00  0.00     0.095 CG0
ATOM      7  C   UNL     1      73.382  86.949  69.048  1.00  0.00     0.289 C 
ATOM      8  C   UNL     1      73.533  86.168  66.041  1.00  0.00     0.023 C 
ATOM      9  G   UNL     1      73.148  83.780  67.136  1.00  0.00     0.000 G0
ATOM     10  O   UNL     1      71.995  87.024  69.365  1.00  0.00    -0.320 OA
ATOM     11  O   UNL     1      73.633  88.033  68.157  1.00  0.00    -0.313 OA
ATOM     12  C   UNL     1      71.442  87.135  68.044  1.00  0.00     0.170 C 
ATOM     13  C   UNL     1      72.850  87.568  65.958  1.00  0.00     0.049 C 
ATOM     14  C   UNL     1      75.060  86.342  65.998  1.00  0.00     0.011 C 
ATOM     15  C   UNL     1      72.445  88.082  67.340  1.00  0.00     0.122 C 
BRANCH   7  16
ATOM     16  C   UNL     1      74.206  87.131  70.308  1.00  0.00     0.135 C 
BRANCH  16  17
ATOM     17  C   UNL     1      75.536  86.424  70.221  1.00  0.00    -0.040 A 
ATOM     18  C   UNL     1      75.687  85.152  70.770  1.00  0.00     0.004 A 
ATOM     19  C   UNL     1      76.615  87.045  69.592  1.00  0.00     0.004 A 
ATOM     20  C   UNL     1      76.917  84.498  70.690  1.00  0.00     0.000 A 
ATOM     21  C   UNL     1      77.845  86.391  69.511  1.00  0.00     0.000 A 
ATOM     22  C   UNL     1      77.995  85.118  70.060  1.00  0.00     0.000 A 
ENDBRANCH  16  17
ENDBRANCH   7  16
BRANCH  15  23
ATOM     23  C   UNL     1      71.956  89.493  67.306  1.00  0.00    -0.046 C 
ATOM     24  C   UNL     1      70.678  89.733  66.558  1.00  0.00     0.042 C 
ATOM     25  C   UNL     1      72.621  90.489  67.909  1.00  0.00     0.010 C 
ENDBRANCH  15  23
ENDBRANCH   3   4
BRANCH   2  26
ATOM     26  C   UNL     1      70.884  82.536  67.080  1.00  0.00     0.078 C 
BRANCH  26  27
ATOM     27  C   UNL     1      72.060  83.046  66.250  1.00  0.00     0.140 C 
ATOM     28  C   UNL     1      73.118  83.762  67.116  1.00  0.00     0.086 CG0
ATOM     29  C   UNL     1      72.859  81.922  65.625  1.00  0.00     0.190 C 
ATOM     30  C   UNL     1      74.418  83.186  66.629  1.00  0.00    -0.010 C 
ATOM     31  G   UNL     1      72.968  85.306  67.245  1.00  0.00     0.000 G0
ATOM     32  O   UNL     1      72.390  80.983  65.000  1.00  0.00    -0.291 OA
ATOM     33  C   UNL     1      74.307  82.133  65.812  1.00  0.00    -0.008 C 
ATOM     34  C   UNL     1      75.354  81.278  65.216  1.00  0.00     0.048 C 
BRANCH  27  35
ATOM     35  O   UNL     1      71.620  83.808  65.138  1.00  0.00    -0.381 OA
ATOM     36  H   UNL     1      72.279  83.723  64.428  1.00  0.00     0.212 HD
ENDBRANCH  27  35
ENDBRANCH  26  27
ENDBRANCH   2  26
ENDBRANCH   1   2
BRANCH   1  37
ATOM     37  O   UNL     1      69.479  83.344  70.355  1.00  0.00    -0.461 OA
BRANCH  37  38
ATOM     38  C   UNL     1      68.358  83.930  70.895  1.00  0.00     0.310 C 
ATOM     39  O   UNL     1      68.309  84.478  71.988  1.00  0.00    -0.252 OA
BRANCH  38  40
ATOM     40  C   UNL     1      67.203  83.792  69.932  1.00  0.00     0.158 C 
BRANCH  40  41
ATOM     41  C   UNL     1      65.925  83.361  70.604  1.00  0.00    -0.037 A 
ATOM     42  C   UNL     1      65.822  82.083  71.153  1.00  0.00     0.008 A 
ATOM     43  C   UNL     1      64.845  84.240  70.678  1.00  0.00     0.008 A 
ATOM     44  C   UNL     1      64.639  81.683  71.774  1.00  0.00     0.046 A 
ATOM     45  C   UNL     1      63.661  83.841  71.300  1.00  0.00     0.046 A 
ATOM     46  C   UNL     1      63.558  82.563  71.848  1.00  0.00     0.115 A 
BRANCH  46  47
ATOM     47  O   UNL     1      62.404  82.173  72.454  1.00  0.00    -0.508 OA
ATOM     48  H   UNL     1      62.595  81.946  73.381  1.00  0.00     0.293 HD
ENDBRANCH  46  47
ENDBRANCH  40  41
ENDBRANCH  38  40
ENDBRANCH  37  38
ENDBRANCH   1  37
TORSDOF 10
ENDMDL
MODEL 6
REMARK VINA RESULT:    -6.983      1.623      2.248
REMARK INTER + INTRA:         -12.550
REMARK INTER:                 -12.272
REMARK INTRA:                  -0.278
REMARK UNBOUND:                -0.669
REMARK SMILES C=C(C)[C@]12C[C@@H](C)[C@@]34O[C@](Cc5ccccc5)(O[C@@H]1[C@@H]3C=C(COC(=O)Cc1ccc(O)cc1)C[C@]1(O)C(=O)C(C)=C[C@@H]41)O2
REMARK SMILES IDX 23 1 22 2 21 3 20 4 9 5 8 6 10 7 6 8 18 10 44 11 19 12 5 13
REMARK SMILES IDX 7 14 4 15 11 16 12 17 13 18 17 19 14 20 16 21 15 22 2 23
REMARK SMILES IDX 3 24 1 25 35 26 36 27 43 28 38 29 42 30 39 32 40 33 41 34
REMARK SMILES IDX 37 35 24 37 25 38 26 39 27 40 28 41 29 42 34 43 30 44 33 45
REMARK SMILES IDX 31 46 32 47
REMARK H PARENT 37 36 32 48
REMARK Flexibility Score: 90.00
ROOT
ATOM      1  C   UNL     1      92.879  97.980  75.329  1.00  0.00     0.264 C 
ENDROOT
BRANCH   1   2
ATOM      2  C   UNL     1      93.045  99.399  74.838  1.00  0.00    -0.033 C 
ATOM      3  C   UNL     1      92.963  99.653  73.515  1.00  0.00    -0.015 C 
BRANCH   3   4
ATOM      4  C   UNL     1      93.165 100.962  72.769  1.00  0.00     0.078 C 
ATOM      5  O   UNL     1      90.943 102.030  72.572  1.00  0.00    -0.319 OA
ATOM      6  C   UNL     1      92.270 102.194  73.163  1.00  0.00     0.095 CG0
ATOM      7  C   UNL     1      90.930 101.555  71.213  1.00  0.00     0.289 C 
ATOM      8  C   UNL     1      92.953 103.493  72.566  1.00  0.00     0.023 C 
ATOM      9  G   UNL     1      92.011 102.221  74.698  1.00  0.00     0.000 G0
ATOM     10  O   UNL     1      91.604 100.305  71.095  1.00  0.00    -0.320 OA
ATOM     11  O   UNL     1      91.603 102.441  70.321  1.00  0.00    -0.313 OA
ATOM     12  C   UNL     1      92.965 100.738  71.250  1.00  0.00     0.170 C 
ATOM     13  C   UNL     1      93.676 103.191  71.217  1.00  0.00     0.049 C 
ATOM     14  C   UNL     1      92.023 104.705  72.384  1.00  0.00     0.011 C 
ATOM     15  C   UNL     1      92.989 102.062  70.448  1.00  0.00     0.122 C 
BRANCH   7  16
ATOM     16  C   UNL     1      89.486 101.402  70.778  1.00  0.00     0.135 C 
BRANCH  16  17
ATOM     17  C   UNL     1      89.297 100.234  69.842  1.00  0.00    -0.040 A 
ATOM     18  C   UNL     1      89.039  98.963  70.356  1.00  0.00     0.004 A 
ATOM     19  C   UNL     1      89.379 100.426  68.463  1.00  0.00     0.004 A 
ATOM     20  C   UNL     1      88.864  97.883  69.490  1.00  0.00     0.000 A 
ATOM     21  C   UNL     1      89.204  99.346  67.598  1.00  0.00     0.000 A 
ATOM     22  C   UNL     1      88.946  98.075  68.111  1.00  0.00     0.000 A 
ENDBRANCH  16  17
ENDBRANCH   7  16
BRANCH  15  23
ATOM     23  C   UNL     1      93.552 101.877  69.076  1.00  0.00    -0.046 C 
ATOM     24  C   UNL     1      92.698 102.356  67.940  1.00  0.00     0.042 C 
ATOM     25  C   UNL     1      94.752 101.314  68.872  1.00  0.00     0.010 C 
ENDBRANCH  15  23
ENDBRANCH   3   4
BRANCH   2  26
ATOM     26  C   UNL     1      93.285 100.393  75.959  1.00  0.00     0.078 C 
BRANCH  26  27
ATOM     27  C   UNL     1      93.246 101.877  75.596  1.00  0.00     0.140 C 
ATOM     28  C   UNL     1      92.034 102.229  74.710  1.00  0.00     0.086 CG0
ATOM     29  C   UNL     1      93.034 102.764  76.805  1.00  0.00     0.190 C 
ATOM     30  C   UNL     1      91.486 103.477  75.346  1.00  0.00    -0.010 C 
ATOM     31  G   UNL     1      92.276 102.200  73.173  1.00  0.00     0.000 G0
ATOM     32  O   UNL     1      93.656 102.690  77.854  1.00  0.00    -0.291 OA
ATOM     33  C   UNL     1      92.007 103.788  76.537  1.00  0.00    -0.008 C 
ATOM     34  C   UNL     1      91.659 104.877  77.472  1.00  0.00     0.048 C 
BRANCH  27  35
ATOM     35  O   UNL     1      94.487 102.314  75.069  1.00  0.00    -0.381 OA
ATOM     36  H   UNL     1      94.931 102.859  75.741  1.00  0.00     0.212 HD
ENDBRANCH  27  35
ENDBRANCH  26  27
ENDBRANCH   2  26
ENDBRANCH   1   2
BRANCH   1  37
ATOM     37  O   UNL     1      94.006  97.618  76.100  1.00  0.00    -0.461 OA
BRANCH  37  38
ATOM     38  C   UNL     1      93.837  96.561  76.964  1.00  0.00     0.310 C 
ATOM     39  O   UNL     1      92.757  96.130  77.343  1.00  0.00    -0.252 OA
BRANCH  38  40
ATOM     40  C   UNL     1      95.188  96.021  77.368  1.00  0.00     0.158 C 
BRANCH  40  41
ATOM     41  C   UNL     1      95.253  95.630  78.822  1.00  0.00    -0.037 A 
ATOM     42  C   UNL     1      95.140  96.606  79.812  1.00  0.00     0.008 A 
ATOM     43  C   UNL     1      95.428  94.293  79.178  1.00  0.00     0.008 A 
ATOM     44  C   UNL     1      95.201  96.245  81.159  1.00  0.00     0.046 A 
ATOM     45  C   UNL     1      95.489  93.931  80.524  1.00  0.00     0.046 A 
ATOM     46  C   UNL     1      95.376  94.907  81.514  1.00  0.00     0.115 A 
BRANCH  46  47
ATOM     47  O   UNL     1      95.437  94.555  82.827  1.00  0.00    -0.508 OA
ATOM     48  H   UNL     1      95.838  95.284  83.331  1.00  0.00     0.293 HD
ENDBRANCH  46  47
ENDBRANCH  40  41
ENDBRANCH  38  40
ENDBRANCH  37  38
ENDBRANCH   1  37
TORSDOF 10
ENDMDL
MODEL 7
REMARK VINA RESULT:    -6.927     21.087     25.505
REMARK INTER + INTRA:         -12.456
REMARK INTER:                 -11.861
REMARK INTRA:                  -0.594
REMARK UNBOUND:                -0.669
REMARK SMILES C=C(C)[C@]12C[C@@H](C)[C@@]34O[C@](Cc5ccccc5)(O[C@@H]1[C@@H]3C=C(COC(=O)Cc1ccc(O)cc1)C[C@]1(O)C(=O)C(C)=C[C@@H]41)O2
REMARK SMILES IDX 23 1 22 2 21 3 20 4 9 5 8 6 10 7 6 8 18 10 44 11 19 12 5 13
REMARK SMILES IDX 7 14 4 15 11 16 12 17 13 18 17 19 14 20 16 21 15 22 2 23
REMARK SMILES IDX 3 24 1 25 35 26 36 27 43 28 38 29 42 30 39 32 40 33 41 34
REMARK SMILES IDX 37 35 24 37 25 38 26 39 27 40 28 41 29 42 34 43 30 44 33 45
REMARK SMILES IDX 31 46 32 47
REMARK H PARENT 37 36 32 48
REMARK Flexibility Score: 90.00
ROOT
ATOM      1  C   UNL     1      70.240  84.230  68.044  1.00  0.00     0.264 C 
ENDROOT
BRANCH   1   2
ATOM      2  C   UNL     1      71.523  84.552  67.313  1.00  0.00    -0.033 C 
ATOM      3  C   UNL     1      72.059  85.784  67.434  1.00  0.00    -0.015 C 
BRANCH   3   4
ATOM      4  C   UNL     1      73.282  86.376  66.752  1.00  0.00     0.078 C 
ATOM      5  O   UNL     1      75.204  85.990  68.261  1.00  0.00    -0.319 OA
ATOM      6  C   UNL     1      74.667  85.654  66.943  1.00  0.00     0.095 CG0
ATOM      7  C   UNL     1      75.069  87.372  68.646  1.00  0.00     0.289 C 
ATOM      8  C   UNL     1      75.649  86.197  65.824  1.00  0.00     0.023 C 
ATOM      9  G   UNL     1      74.485  84.109  66.981  1.00  0.00     0.000 G0
ATOM     10  O   UNL     1      73.706  87.784  68.626  1.00  0.00    -0.320 OA
ATOM     11  O   UNL     1      75.751  88.252  67.756  1.00  0.00    -0.313 OA
ATOM     12  C   UNL     1      73.481  87.842  67.209  1.00  0.00     0.170 C 
ATOM     13  C   UNL     1      75.353  87.688  65.478  1.00  0.00     0.049 C 
ATOM     14  C   UNL     1      77.149  86.030  66.122  1.00  0.00     0.011 C 
ATOM     15  C   UNL     1      74.805  88.451  66.685  1.00  0.00     0.122 C 
BRANCH   7  16
ATOM     16  C   UNL     1      75.633  87.531  70.044  1.00  0.00     0.135 C 
BRANCH  16  17
ATOM     17  C   UNL     1      74.887  88.572  70.840  1.00  0.00    -0.040 A 
ATOM     18  C   UNL     1      73.753  88.214  71.568  1.00  0.00     0.004 A 
ATOM     19  C   UNL     1      75.332  89.894  70.848  1.00  0.00     0.004 A 
ATOM     20  C   UNL     1      73.063  89.177  72.305  1.00  0.00     0.000 A 
ATOM     21  C   UNL     1      74.642  90.857  71.585  1.00  0.00     0.000 A 
ATOM     22  C   UNL     1      73.508  90.498  72.313  1.00  0.00     0.000 A 
ENDBRANCH  16  17
ENDBRANCH   7  16
BRANCH  15  23
ATOM     23  C   UNL     1      74.686  89.919  66.430  1.00  0.00    -0.046 C 
ATOM     24  C   UNL     1      74.214  90.317  65.063  1.00  0.00     0.042 C 
ATOM     25  C   UNL     1      74.983  90.828  67.370  1.00  0.00     0.010 C 
ENDBRANCH  15  23
ENDBRANCH   3   4
BRANCH   2  26
ATOM     26  C   UNL     1      72.061  83.382  66.511  1.00  0.00     0.078 C 
BRANCH  26  27
ATOM     27  C   UNL     1      73.470  83.519  65.937  1.00  0.00     0.140 C 
ATOM     28  C   UNL     1      74.464  84.104  66.962  1.00  0.00     0.086 CG0
ATOM     29  C   UNL     1      74.094  82.180  65.606  1.00  0.00     0.190 C 
ATOM     30  C   UNL     1      75.664  83.207  66.836  1.00  0.00    -0.010 C 
ATOM     31  G   UNL     1      74.657  85.648  66.926  1.00  0.00     0.000 G0
ATOM     32  O   UNL     1      73.557  81.286  64.969  1.00  0.00    -0.291 OA
ATOM     33  C   UNL     1      75.481  82.104  66.105  1.00  0.00    -0.008 C 
ATOM     34  C   UNL     1      76.397  80.976  65.837  1.00  0.00     0.048 C 
BRANCH  27  35
ATOM     35  O   UNL     1      73.460  84.203  64.695  1.00  0.00    -0.381 OA
ATOM     36  H   UNL     1      74.308  84.042  64.249  1.00  0.00     0.212 HD
ENDBRANCH  27  35
ENDBRANCH  26  27
ENDBRANCH   2  26
ENDBRANCH   1   2
BRANCH   1  37
ATOM     37  O   UNL     1      70.157  85.020  69.211  1.00  0.00    -0.461 OA
BRANCH  37  38
ATOM     38  C   UNL     1      69.892  84.347  70.382  1.00  0.00     0.310 C 
ATOM     39  O   UNL     1      70.603  83.479  70.869  1.00  0.00    -0.252 OA
BRANCH  38  40
ATOM     40  C   UNL     1      68.593  84.847  70.967  1.00  0.00     0.158 C 
BRANCH  40  41
ATOM     41  C   UNL     1      67.395  84.071  70.487  1.00  0.00    -0.037 A 
ATOM     42  C   UNL     1      66.977  82.933  71.178  1.00  0.00     0.008 A 
ATOM     43  C   UNL     1      66.703  84.489  69.351  1.00  0.00     0.008 A 
ATOM     44  C   UNL     1      65.868  82.214  70.732  1.00  0.00     0.046 A 
ATOM     45  C   UNL     1      65.593  83.770  68.905  1.00  0.00     0.046 A 
ATOM     46  C   UNL     1      65.176  82.633  69.596  1.00  0.00     0.115 A 
BRANCH  46  47
ATOM     47  O   UNL     1      64.094  81.930  69.161  1.00  0.00    -0.508 OA
ATOM     48  H   UNL     1      64.335  80.990  69.093  1.00  0.00     0.293 HD
ENDBRANCH  46  47
ENDBRANCH  40  41
ENDBRANCH  38  40
ENDBRANCH  37  38
ENDBRANCH   1  37
TORSDOF 10
ENDMDL
MODEL 8
REMARK VINA RESULT:    -6.904     28.479     32.704
REMARK INTER + INTRA:         -12.415
REMARK INTER:                 -10.584
REMARK INTRA:                  -1.831
REMARK UNBOUND:                -0.669
REMARK SMILES C=C(C)[C@]12C[C@@H](C)[C@@]34O[C@](Cc5ccccc5)(O[C@@H]1[C@@H]3C=C(COC(=O)Cc1ccc(O)cc1)C[C@]1(O)C(=O)C(C)=C[C@@H]41)O2
REMARK SMILES IDX 23 1 22 2 21 3 20 4 9 5 8 6 10 7 6 8 18 10 44 11 19 12 5 13
REMARK SMILES IDX 7 14 4 15 11 16 12 17 13 18 17 19 14 20 16 21 15 22 2 23
REMARK SMILES IDX 3 24 1 25 35 26 36 27 43 28 38 29 42 30 39 32 40 33 41 34
REMARK SMILES IDX 37 35 24 37 25 38 26 39 27 40 28 41 29 42 34 43 30 44 33 45
REMARK SMILES IDX 31 46 32 47
REMARK H PARENT 37 36 32 48
REMARK Flexibility Score: 90.00
ROOT
ATOM      1  C   UNL     1      64.126  88.586  71.910  1.00  0.00     0.264 C 
ENDROOT
BRANCH   1   2
ATOM      2  C   UNL     1      63.738  87.163  72.236  1.00  0.00    -0.033 C 
ATOM      3  C   UNL     1      63.917  86.201  71.306  1.00  0.00    -0.015 C 
BRANCH   3   4
ATOM      4  C   UNL     1      63.543  84.729  71.356  1.00  0.00     0.078 C 
ATOM      5  O   UNL     1      65.520  83.512  72.210  1.00  0.00    -0.319 OA
ATOM      6  C   UNL     1      64.131  83.846  72.519  1.00  0.00     0.095 CG0
ATOM      7  C   UNL     1      65.773  83.137  70.842  1.00  0.00     0.289 C 
ATOM      8  C   UNL     1      63.275  82.515  72.589  1.00  0.00     0.023 C 
ATOM      9  G   UNL     1      64.212  84.660  73.843  1.00  0.00     0.000 G0
ATOM     10  O   UNL     1      65.374  84.166  69.941  1.00  0.00    -0.320 OA
ATOM     11  O   UNL     1      65.040  81.978  70.453  1.00  0.00    -0.313 OA
ATOM     12  C   UNL     1      63.946  84.038  70.030  1.00  0.00     0.170 C 
ATOM     13  C   UNL     1      62.775  82.080  71.178  1.00  0.00     0.049 C 
ATOM     14  C   UNL     1      63.963  81.322  73.276  1.00  0.00     0.011 C 
ATOM     15  C   UNL     1      63.749  82.503  70.077  1.00  0.00     0.122 C 
BRANCH   7  16
ATOM     16  C   UNL     1      67.257  82.869  70.691  1.00  0.00     0.135 C 
BRANCH  16  17
ATOM     17  C   UNL     1      68.056  84.145  70.591  1.00  0.00    -0.040 A 
ATOM     18  C   UNL     1      68.691  84.479  69.396  1.00  0.00     0.004 A 
ATOM     19  C   UNL     1      68.159  84.989  71.696  1.00  0.00     0.004 A 
ATOM     20  C   UNL     1      69.429  85.659  69.304  1.00  0.00     0.000 A 
ATOM     21  C   UNL     1      68.897  86.170  71.604  1.00  0.00     0.000 A 
ATOM     22  C   UNL     1      69.532  86.504  70.409  1.00  0.00     0.000 A 
ENDBRANCH  16  17
ENDBRANCH   7  16
BRANCH  15  23
ATOM     23  C   UNL     1      63.385  81.943  68.741  1.00  0.00    -0.046 C 
ATOM     24  C   UNL     1      62.085  82.413  68.158  1.00  0.00     0.042 C 
ATOM     25  C   UNL     1      64.174  81.068  68.100  1.00  0.00     0.010 C 
ENDBRANCH  15  23
ENDBRANCH   3   4
BRANCH   2  26
ATOM     26  C   UNL     1      63.178  87.003  73.637  1.00  0.00     0.078 C 
BRANCH  26  27
ATOM     27  C   UNL     1      62.986  85.579  74.154  1.00  0.00     0.140 C 
ATOM     28  C   UNL     1      64.201  84.679  73.850  1.00  0.00     0.086 CG0
ATOM     29  C   UNL     1      62.905  85.517  75.665  1.00  0.00     0.190 C 
ATOM     30  C   UNL     1      64.444  83.967  75.152  1.00  0.00    -0.010 C 
ATOM     31  G   UNL     1      64.131  83.855  72.531  1.00  0.00     0.000 G0
ATOM     32  O   UNL     1      62.201  86.227  76.366  1.00  0.00    -0.291 OA
ATOM     33  C   UNL     1      63.753  84.432  76.196  1.00  0.00    -0.008 C 
ATOM     34  C   UNL     1      63.798  84.037  77.619  1.00  0.00     0.048 C 
BRANCH  27  35
ATOM     35  O   UNL     1      61.749  85.035  73.727  1.00  0.00    -0.381 OA
ATOM     36  H   UNL     1      61.907  84.133  73.400  1.00  0.00     0.212 HD
ENDBRANCH  27  35
ENDBRANCH  26  27
ENDBRANCH   2  26
ENDBRANCH   1   2
BRANCH   1  37
ATOM     37  O   UNL     1      63.406  89.019  70.776  1.00  0.00    -0.461 OA
BRANCH  37  38
ATOM     38  C   UNL     1      62.116  89.441  71.000  1.00  0.00     0.310 C 
ATOM     39  O   UNL     1      61.752  90.111  71.956  1.00  0.00    -0.252 OA
BRANCH  38  40
ATOM     40  C   UNL     1      61.224  88.949  69.885  1.00  0.00     0.158 C 
BRANCH  40  41
ATOM     41  C   UNL     1      60.406  87.745  70.274  1.00  0.00    -0.037 A 
ATOM     42  C   UNL     1      59.298  87.895  71.109  1.00  0.00     0.008 A 
ATOM     43  C   UNL     1      60.756  86.481  69.801  1.00  0.00     0.008 A 
ATOM     44  C   UNL     1      58.541  86.780  71.470  1.00  0.00     0.046 A 
ATOM     45  C   UNL     1      59.999  85.366  70.162  1.00  0.00     0.046 A 
ATOM     46  C   UNL     1      58.892  85.515  70.997  1.00  0.00     0.115 A 
BRANCH  46  47
ATOM     47  O   UNL     1      58.154  84.428  71.350  1.00  0.00    -0.508 OA
ATOM     48  H   UNL     1      58.486  83.651  70.867  1.00  0.00     0.293 HD
ENDBRANCH  46  47
ENDBRANCH  40  41
ENDBRANCH  38  40
ENDBRANCH  37  38
ENDBRANCH   1  37
TORSDOF 10
ENDMDL
MODEL 9
REMARK VINA RESULT:    -6.900     27.914     32.166
REMARK INTER + INTRA:         -12.409
REMARK INTER:                 -10.983
REMARK INTRA:                  -1.426
REMARK UNBOUND:                -0.669
REMARK SMILES C=C(C)[C@]12C[C@@H](C)[C@@]34O[C@](Cc5ccccc5)(O[C@@H]1[C@@H]3C=C(COC(=O)Cc1ccc(O)cc1)C[C@]1(O)C(=O)C(C)=C[C@@H]41)O2
REMARK SMILES IDX 23 1 22 2 21 3 20 4 9 5 8 6 10 7 6 8 18 10 44 11 19 12 5 13
REMARK SMILES IDX 7 14 4 15 11 16 12 17 13 18 17 19 14 20 16 21 15 22 2 23
REMARK SMILES IDX 3 24 1 25 35 26 36 27 43 28 38 29 42 30 39 32 40 33 41 34
REMARK SMILES IDX 37 35 24 37 25 38 26 39 27 40 28 41 29 42 34 43 30 44 33 45
REMARK SMILES IDX 31 46 32 47
REMARK H PARENT 37 36 32 48
REMARK Flexibility Score: 90.00
ROOT
ATOM      1  C   UNL     1      64.052  81.633  72.368  1.00  0.00     0.264 C 
ENDROOT
BRANCH   1   2
ATOM      2  C   UNL     1      63.428  82.680  73.261  1.00  0.00    -0.033 C 
ATOM      3  C   UNL     1      63.965  82.916  74.476  1.00  0.00    -0.015 C 
BRANCH   3   4
ATOM      4  C   UNL     1      63.488  83.848  75.578  1.00  0.00     0.078 C 
ATOM      5  O   UNL     1      64.639  86.011  75.240  1.00  0.00    -0.319 OA
ATOM      6  C   UNL     1      63.322  85.377  75.245  1.00  0.00     0.095 CG0
ATOM      7  C   UNL     1      65.518  85.613  76.310  1.00  0.00     0.289 C 
ATOM      8  C   UNL     1      62.435  86.022  76.388  1.00  0.00     0.023 C 
ATOM      9  G   UNL     1      62.792  85.573  73.795  1.00  0.00     0.000 G0
ATOM     10  O   UNL     1      65.726  84.204  76.313  1.00  0.00    -0.320 OA
ATOM     11  O   UNL     1      64.984  85.926  77.595  1.00  0.00    -0.313 OA
ATOM     12  C   UNL     1      64.446  83.761  76.792  1.00  0.00     0.170 C 
ATOM     13  C   UNL     1      62.685  85.335  77.765  1.00  0.00     0.049 C 
ATOM     14  C   UNL     1      62.569  87.547  76.547  1.00  0.00     0.011 C 
ATOM     15  C   UNL     1      64.116  84.809  77.883  1.00  0.00     0.122 C 
BRANCH   7  16
ATOM     16  C   UNL     1      66.842  86.327  76.127  1.00  0.00     0.135 C 
BRANCH  16  17
ATOM     17  C   UNL     1      67.242  86.416  74.676  1.00  0.00    -0.040 A 
ATOM     18  C   UNL     1      67.423  87.662  74.077  1.00  0.00     0.004 A 
ATOM     19  C   UNL     1      67.430  85.251  73.933  1.00  0.00     0.004 A 
ATOM     20  C   UNL     1      67.793  87.744  72.734  1.00  0.00     0.000 A 
ATOM     21  C   UNL     1      67.800  85.333  72.590  1.00  0.00     0.000 A 
ATOM     22  C   UNL     1      67.981  86.579  71.991  1.00  0.00     0.000 A 
ENDBRANCH  16  17
ENDBRANCH   7  16
BRANCH  15  23
ATOM     23  C   UNL     1      64.433  84.310  79.255  1.00  0.00    -0.046 C 
ATOM     24  C   UNL     1      65.869  83.967  79.519  1.00  0.00     0.042 C 
ATOM     25  C   UNL     1      63.487  84.175  80.196  1.00  0.00     0.010 C 
ENDBRANCH  15  23
ENDBRANCH   3   4
BRANCH   2  26
ATOM     26  C   UNL     1      62.228  83.361  72.631  1.00  0.00     0.078 C 
BRANCH  26  27
ATOM     27  C   UNL     1      61.659  84.581  73.353  1.00  0.00     0.140 C 
ATOM     28  C   UNL     1      62.762  85.568  73.789  1.00  0.00     0.086 CG0
ATOM     29  C   UNL     1      60.795  85.438  72.452  1.00  0.00     0.190 C 
ATOM     30  C   UNL     1      62.219  86.907  73.371  1.00  0.00    -0.010 C 
ATOM     31  G   UNL     1      63.314  85.385  75.233  1.00  0.00     0.000 G0
ATOM     32  O   UNL     1      59.898  85.026  71.731  1.00  0.00    -0.291 OA
ATOM     33  C   UNL     1      61.132  86.867  72.596  1.00  0.00    -0.008 C 
ATOM     34  C   UNL     1      60.388  87.964  71.943  1.00  0.00     0.048 C 
BRANCH  27  35
ATOM     35  O   UNL     1      60.783  84.202  74.401  1.00  0.00    -0.381 OA
ATOM     36  H   UNL     1      60.532  83.272  74.270  1.00  0.00     0.212 HD
ENDBRANCH  27  35
ENDBRANCH  26  27
ENDBRANCH   2  26
ENDBRANCH   1   2
BRANCH   1  37
ATOM     37  O   UNL     1      63.613  81.829  71.041  1.00  0.00    -0.461 OA
BRANCH  37  38
ATOM     38  C   UNL     1      64.597  81.976  70.091  1.00  0.00     0.310 C 
ATOM     39  O   UNL     1      64.477  81.696  68.906  1.00  0.00    -0.252 OA
BRANCH  38  40
ATOM     40  C   UNL     1      65.843  82.533  70.737  1.00  0.00     0.158 C 
BRANCH  40  41
ATOM     41  C   UNL     1      66.541  83.558  69.882  1.00  0.00    -0.037 A 
ATOM     42  C   UNL     1      65.816  84.613  69.327  1.00  0.00     0.008 A 
ATOM     43  C   UNL     1      67.911  83.454  69.644  1.00  0.00     0.008 A 
ATOM     44  C   UNL     1      66.462  85.562  68.534  1.00  0.00     0.046 A 
ATOM     45  C   UNL     1      68.557  84.403  68.852  1.00  0.00     0.046 A 
ATOM     46  C   UNL     1      67.833  85.457  68.297  1.00  0.00     0.115 A 
BRANCH  46  47
ATOM     47  O   UNL     1      68.462  86.382  67.523  1.00  0.00    -0.508 OA
ATOM     48  H   UNL     1      68.199  87.272  67.818  1.00  0.00     0.293 HD
ENDBRANCH  46  47
ENDBRANCH  40  41
ENDBRANCH  38  40
ENDBRANCH  37  38
ENDBRANCH   1  37
TORSDOF 10
ENDMDL
MODEL 10
REMARK VINA RESULT:    -6.875     21.492     25.931
REMARK INTER + INTRA:         -12.366
REMARK INTER:                 -11.777
REMARK INTRA:                  -0.589
REMARK UNBOUND:                -0.669
REMARK SMILES C=C(C)[C@]12C[C@@H](C)[C@@]34O[C@](Cc5ccccc5)(O[C@@H]1[C@@H]3C=C(COC(=O)Cc1ccc(O)cc1)C[C@]1(O)C(=O)C(C)=C[C@@H]41)O2
REMARK SMILES IDX 23 1 22 2 21 3 20 4 9 5 8 6 10 7 6 8 18 10 44 11 19 12 5 13
REMARK SMILES IDX 7 14 4 15 11 16 12 17 13 18 17 19 14 20 16 21 15 22 2 23
REMARK SMILES IDX 3 24 1 25 35 26 36 27 43 28 38 29 42 30 39 32 40 33 41 34
REMARK SMILES IDX 37 35 24 37 25 38 26 39 27 40 28 41 29 42 34 43 30 44 33 45
REMARK SMILES IDX 31 46 32 47
REMARK H PARENT 37 36 32 48
REMARK Flexibility Score: 90.00
ROOT
ATOM      1  C   UNL     1      69.802  84.393  67.174  1.00  0.00     0.264 C 
ENDROOT
BRANCH   1   2
ATOM      2  C   UNL     1      71.118  84.761  66.528  1.00  0.00    -0.033 C 
ATOM      3  C   UNL     1      71.623  85.997  66.720  1.00  0.00    -0.015 C 
BRANCH   3   4
ATOM      4  C   UNL     1      72.872  86.632  66.129  1.00  0.00     0.078 C 
ATOM      5  O   UNL     1      74.715  86.220  67.726  1.00  0.00    -0.319 OA
ATOM      6  C   UNL     1      74.256  85.925  66.370  1.00  0.00     0.095 CG0
ATOM      7  C   UNL     1      74.535  87.584  68.153  1.00  0.00     0.289 C 
ATOM      8  C   UNL     1      75.288  86.524  65.327  1.00  0.00     0.023 C 
ATOM      9  G   UNL     1      74.100  84.377  66.341  1.00  0.00     0.000 G0
ATOM     10  O   UNL     1      73.168  87.976  68.073  1.00  0.00    -0.320 OA
ATOM     11  O   UNL     1      75.249  88.507  67.334  1.00  0.00    -0.313 OA
ATOM     12  C   UNL     1      73.020  88.083  66.648  1.00  0.00     0.170 C 
ATOM     13  C   UNL     1      74.986  88.022  65.019  1.00  0.00     0.049 C 
ATOM     14  C   UNL     1      76.772  86.369  65.701  1.00  0.00     0.011 C 
ATOM     15  C   UNL     1      74.360  88.732  66.221  1.00  0.00     0.122 C 
BRANCH   7  16
ATOM     16  C   UNL     1      75.019  87.701  69.585  1.00  0.00     0.135 C 
BRANCH  16  17
ATOM     17  C   UNL     1      75.852  86.513  70.000  1.00  0.00    -0.040 A 
ATOM     18  C   UNL     1      75.291  85.507  70.784  1.00  0.00     0.004 A 
ATOM     19  C   UNL     1      77.185  86.424  69.598  1.00  0.00     0.004 A 
ATOM     20  C   UNL     1      76.061  84.408  71.167  1.00  0.00     0.000 A 
ATOM     21  C   UNL     1      77.956  85.325  69.981  1.00  0.00     0.000 A 
ATOM     22  C   UNL     1      77.394  84.319  70.765  1.00  0.00     0.000 A 
ENDBRANCH  16  17
ENDBRANCH   7  16
BRANCH  15  23
ATOM     23  C   UNL     1      74.229  90.205  66.013  1.00  0.00    -0.046 C 
ATOM     24  C   UNL     1      74.871  91.079  67.050  1.00  0.00     0.042 C 
ATOM     25  C   UNL     1      73.575  90.718  64.961  1.00  0.00     0.010 C 
ENDBRANCH  15  23
ENDBRANCH   3   4
BRANCH   2  26
ATOM     26  C   UNL     1      71.721  83.629  65.718  1.00  0.00     0.078 C 
BRANCH  26  27
ATOM     27  C   UNL     1      73.161  83.805  65.238  1.00  0.00     0.140 C 
ATOM     28  C   UNL     1      74.078  84.375  66.339  1.00  0.00     0.086 CG0
ATOM     29  C   UNL     1      73.828  82.485  64.910  1.00  0.00     0.190 C 
ATOM     30  C   UNL     1      75.300  83.502  66.264  1.00  0.00    -0.010 C 
ATOM     31  G   UNL     1      74.246  85.923  66.358  1.00  0.00     0.000 G0
ATOM     32  O   UNL     1      73.347  81.602  64.216  1.00  0.00    -0.291 OA
ATOM     33  C   UNL     1      75.181  82.417  65.492  1.00  0.00    -0.008 C 
ATOM     34  C   UNL     1      76.132  81.312  65.252  1.00  0.00     0.048 C 
BRANCH  27  35
ATOM     35  O   UNL     1      73.215  84.524  64.017  1.00  0.00    -0.381 OA
ATOM     36  H   UNL     1      73.787  84.036  63.399  1.00  0.00     0.212 HD
ENDBRANCH  27  35
ENDBRANCH  26  27
ENDBRANCH   2  26
ENDBRANCH   1   2
BRANCH   1  37
ATOM     37  O   UNL     1      69.861  84.686  68.553  1.00  0.00    -0.461 OA
BRANCH  37  38
ATOM     38  C   UNL     1      69.484  83.675  69.406  1.00  0.00     0.310 C 
ATOM     39  O   UNL     1      69.965  82.551  69.420  1.00  0.00    -0.252 OA
BRANCH  38  40
ATOM     40  C   UNL     1      68.387  84.169  70.319  1.00  0.00     0.158 C 
BRANCH  40  41
ATOM     41  C   UNL     1      67.059  83.509  70.053  1.00  0.00    -0.037 A 
ATOM     42  C   UNL     1      66.314  82.989  71.111  1.00  0.00     0.008 A 
ATOM     43  C   UNL     1      66.574  83.418  68.748  1.00  0.00     0.008 A 
ATOM     44  C   UNL     1      65.084  82.377  70.864  1.00  0.00     0.046 A 
ATOM     45  C   UNL     1      65.344  82.807  68.501  1.00  0.00     0.046 A 
ATOM     46  C   UNL     1      64.600  82.286  69.559  1.00  0.00     0.115 A 
BRANCH  46  47
ATOM     47  O   UNL     1      63.401  81.689  69.319  1.00  0.00    -0.508 OA
ATOM     48  H   UNL     1      62.707  82.372  69.296  1.00  0.00     0.293 HD
ENDBRANCH  46  47
ENDBRANCH  40  41
ENDBRANCH  38  40
ENDBRANCH  37  38
ENDBRANCH   1  37
TORSDOF 10
ENDMDL
