MODEL 1
REMARK VINA RESULT:    -5.954      0.000      0.000
REMARK INTER + INTRA:         -10.564
REMARK INTER:                  -9.608
REMARK INTRA:                  -0.955
REMARK UNBOUND:                -0.955
REMARK SMILES COc1cc(CNC(=O)CCCCCCC(C)C)ccc1O
REMARK SMILES IDX 11 1 10 2 8 3 7 4 9 6 6 7 5 8 3 9 21 10 4 11 20 12 19 13
REMARK SMILES IDX 2 14 1 15 22 16 12 18 13 19 14 20 15 21 16 22 17 23 18 24
REMARK H PARENT 7 5 22 17
REMARK Flexibility Score: inf
ROOT
ATOM      1  C   UNL     1      76.935  84.700  67.626  1.00  0.00     0.010 C 
ENDROOT
BRANCH   1   2
ATOM      2  C   UNL     1      77.909  83.592  67.137  1.00  0.00     0.100 C 
BRANCH   2   3
ATOM      3  C   UNL     1      77.530  83.016  65.827  1.00  0.00     0.220 C 
ATOM      4  N   UNL     1      76.874  81.821  65.763  1.00  0.00    -0.352 N 
ATOM      5  H   UNL     1      76.725  81.374  66.656  1.00  0.00     0.163 HD
ATOM      6  O   UNL     1      77.802  83.661  64.785  1.00  0.00    -0.275 OA
BRANCH   4   7
ATOM      7  C   UNL     1      76.408  81.198  64.562  1.00  0.00     0.151 C 
BRANCH   7   8
ATOM      8  C   UNL     1      74.931  81.279  64.393  1.00  0.00    -0.025 A 
ATOM      9  C   UNL     1      72.696  81.648  65.350  1.00  0.00     0.160 A 
ATOM     10  C   UNL     1      72.119  81.479  64.073  1.00  0.00     0.157 A 
ATOM     11  C   UNL     1      74.093  81.528  65.504  1.00  0.00     0.056 A 
ATOM     12  C   UNL     1      72.939  81.192  62.967  1.00  0.00     0.050 A 
ATOM     13  C   UNL     1      74.336  81.103  63.122  1.00  0.00     0.009 A 
BRANCH   9  14
ATOM     14  O   UNL     1      71.904  81.888  66.440  1.00  0.00    -0.493 OA
ATOM     15  C   UNL     1      71.879  83.268  66.846  1.00  0.00     0.278 C 
ENDBRANCH   9  14
BRANCH  10  16
ATOM     16  O   UNL     1      70.776  81.587  63.896  1.00  0.00    -0.504 OA
ATOM     17  H   UNL     1      70.590  81.793  62.976  1.00  0.00     0.293 HD
ENDBRANCH  10  16
ENDBRANCH   7   8
ENDBRANCH   4   7
ENDBRANCH   2   3
ENDBRANCH   1   2
BRANCH   1  18
ATOM     18  C   UNL     1      77.190  86.060  66.915  1.00  0.00     0.001 C 
BRANCH  18  19
ATOM     19  C   UNL     1      77.897  87.113  67.813  1.00  0.00     0.000 C 
BRANCH  19  20
ATOM     20  C   UNL     1      77.507  86.945  69.308  1.00  0.00     0.000 C 
BRANCH  20  21
ATOM     21  C   UNL     1      76.477  87.989  69.820  1.00  0.00     0.003 C 
BRANCH  21  22
ATOM     22  C   UNL     1      75.197  87.374  70.476  1.00  0.00    -0.017 C 
ATOM     23  C   UNL     1      74.387  86.559  69.429  1.00  0.00     0.007 C 
ATOM     24  C   UNL     1      74.285  88.426  71.173  1.00  0.00     0.007 C 
ENDBRANCH  21  22
ENDBRANCH  20  21
ENDBRANCH  19  20
ENDBRANCH  18  19
ENDBRANCH   1  18
TORSDOF 11
ENDMDL
MODEL 2
REMARK VINA RESULT:    -5.718      1.592      2.283
REMARK INTER + INTRA:         -10.183
REMARK INTER:                  -8.788
REMARK INTRA:                  -1.395
REMARK UNBOUND:                -0.955
REMARK SMILES COc1cc(CNC(=O)CCCCCCC(C)C)ccc1O
REMARK SMILES IDX 11 1 10 2 8 3 7 4 9 6 6 7 5 8 3 9 21 10 4 11 20 12 19 13
REMARK SMILES IDX 2 14 1 15 22 16 12 18 13 19 14 20 15 21 16 22 17 23 18 24
REMARK H PARENT 7 5 22 17
REMARK Flexibility Score: inf
ROOT
ATOM      1  C   UNL     1      76.934  83.598  67.509  1.00  0.00     0.010 C 
ENDROOT
BRANCH   1   2
ATOM      2  C   UNL     1      77.644  83.383  66.144  1.00  0.00     0.100 C 
BRANCH   2   3
ATOM      3  C   UNL     1      76.798  82.689  65.147  1.00  0.00     0.220 C 
ATOM      4  N   UNL     1      76.016  81.635  65.522  1.00  0.00    -0.352 N 
ATOM      5  H   UNL     1      76.107  81.366  66.490  1.00  0.00     0.163 HD
ATOM      6  O   UNL     1      76.799  83.105  63.963  1.00  0.00    -0.275 OA
BRANCH   4   7
ATOM      7  C   UNL     1      75.117  80.927  64.662  1.00  0.00     0.151 C 
BRANCH   7   8
ATOM      8  C   UNL     1      73.710  81.405  64.762  1.00  0.00    -0.025 A 
ATOM      9  C   UNL     1      71.917  82.493  66.047  1.00  0.00     0.160 A 
ATOM     10  C   UNL     1      71.044  82.358  64.946  1.00  0.00     0.157 A 
ATOM     11  C   UNL     1      73.236  81.999  65.954  1.00  0.00     0.056 A 
ATOM     12  C   UNL     1      71.493  81.733  63.768  1.00  0.00     0.050 A 
ATOM     13  C   UNL     1      72.819  81.269  63.672  1.00  0.00     0.009 A 
BRANCH   9  14
ATOM     14  O   UNL     1      71.479  83.063  67.211  1.00  0.00    -0.493 OA
ATOM     15  C   UNL     1      71.930  84.417  67.399  1.00  0.00     0.278 C 
ENDBRANCH   9  14
BRANCH  10  16
ATOM     16  O   UNL     1      69.768  82.823  65.008  1.00  0.00    -0.504 OA
ATOM     17  H   UNL     1      69.776  83.782  64.971  1.00  0.00     0.293 HD
ENDBRANCH  10  16
ENDBRANCH   7   8
ENDBRANCH   4   7
ENDBRANCH   2   3
ENDBRANCH   1   2
BRANCH   1  18
ATOM     18  C   UNL     1      77.888  84.207  68.576  1.00  0.00     0.001 C 
BRANCH  18  19
ATOM     19  C   UNL     1      77.168  85.111  69.617  1.00  0.00     0.000 C 
BRANCH  19  20
ATOM     20  C   UNL     1      77.540  86.608  69.428  1.00  0.00     0.000 C 
BRANCH  20  21
ATOM     21  C   UNL     1      78.240  86.926  68.078  1.00  0.00     0.003 C 
BRANCH  21  22
ATOM     22  C   UNL     1      77.360  87.724  67.061  1.00  0.00    -0.017 C 
ATOM     23  C   UNL     1      76.013  88.140  67.718  1.00  0.00     0.007 C 
ATOM     24  C   UNL     1      77.104  86.967  65.725  1.00  0.00     0.007 C 
ENDBRANCH  21  22
ENDBRANCH  20  21
ENDBRANCH  19  20
ENDBRANCH  18  19
ENDBRANCH   1  18
TORSDOF 11
ENDMDL
MODEL 3
REMARK VINA RESULT:    -5.477     25.827     27.827
REMARK INTER + INTRA:          -9.795
REMARK INTER:                  -9.205
REMARK INTRA:                  -0.591
REMARK UNBOUND:                -0.955
REMARK SMILES COc1cc(CNC(=O)CCCCCCC(C)C)ccc1O
REMARK SMILES IDX 11 1 10 2 8 3 7 4 9 6 6 7 5 8 3 9 21 10 4 11 20 12 19 13
REMARK SMILES IDX 2 14 1 15 22 16 12 18 13 19 14 20 15 21 16 22 17 23 18 24
REMARK H PARENT 7 5 22 17
REMARK Flexibility Score: inf
ROOT
ATOM      1  C   UNL     1      97.495  82.855  84.314  1.00  0.00     0.010 C 
ENDROOT
BRANCH   1   2
ATOM      2  C   UNL     1      97.159  84.371  84.347  1.00  0.00     0.100 C 
BRANCH   2   3
ATOM      3  C   UNL     1      96.330  84.762  85.510  1.00  0.00     0.220 C 
ATOM      4  N   UNL     1      95.531  83.843  86.126  1.00  0.00    -0.352 N 
ATOM      5  H   UNL     1      95.531  82.929  85.697  1.00  0.00     0.163 HD
ATOM      6  O   UNL     1      96.398  85.944  85.927  1.00  0.00    -0.275 OA
BRANCH   4   7
ATOM      7  C   UNL     1      94.733  84.090  87.289  1.00  0.00     0.151 C 
BRANCH   7   8
ATOM      8  C   UNL     1      93.483  83.283  87.325  1.00  0.00    -0.025 A 
ATOM      9  C   UNL     1      91.191  82.941  88.150  1.00  0.00     0.160 A 
ATOM     10  C   UNL     1      91.080  81.773  87.365  1.00  0.00     0.157 A 
ATOM     11  C   UNL     1      92.396  83.675  88.138  1.00  0.00     0.056 A 
ATOM     12  C   UNL     1      92.169  81.350  86.581  1.00  0.00     0.050 A 
ATOM     13  C   UNL     1      93.359  82.104  86.552  1.00  0.00     0.009 A 
BRANCH   9  14
ATOM     14  O   UNL     1      90.152  83.340  88.946  1.00  0.00    -0.493 OA
ATOM     15  C   UNL     1      90.297  82.953  90.325  1.00  0.00     0.278 C 
ENDBRANCH   9  14
BRANCH  10  16
ATOM     16  O   UNL     1      89.933  81.045  87.358  1.00  0.00    -0.504 OA
ATOM     17  H   UNL     1      89.409  81.283  86.589  1.00  0.00     0.293 HD
ENDBRANCH  10  16
ENDBRANCH   7   8
ENDBRANCH   4   7
ENDBRANCH   2   3
ENDBRANCH   1   2
BRANCH   1  18
ATOM     18  C   UNL     1      98.425  82.486  83.124  1.00  0.00     0.001 C 
BRANCH  18  19
ATOM     19  C   UNL     1      98.041  83.183  81.789  1.00  0.00     0.000 C 
BRANCH  19  20
ATOM     20  C   UNL     1      99.212  83.144  80.766  1.00  0.00     0.000 C 
BRANCH  20  21
ATOM     21  C   UNL     1      98.921  82.298  79.496  1.00  0.00     0.003 C 
BRANCH  21  22
ATOM     22  C   UNL     1      98.789  83.127  78.177  1.00  0.00    -0.017 C 
ATOM     23  C   UNL     1      97.530  84.037  78.231  1.00  0.00     0.007 C 
ATOM     24  C   UNL     1      98.776  82.255  76.888  1.00  0.00     0.007 C 
ENDBRANCH  21  22
ENDBRANCH  20  21
ENDBRANCH  19  20
ENDBRANCH  18  19
ENDBRANCH   1  18
TORSDOF 11
ENDMDL
MODEL 4
REMARK VINA RESULT:    -5.463     25.498     27.793
REMARK INTER + INTRA:          -9.772
REMARK INTER:                  -9.148
REMARK INTRA:                  -0.625
REMARK UNBOUND:                -0.955
REMARK SMILES COc1cc(CNC(=O)CCCCCCC(C)C)ccc1O
REMARK SMILES IDX 11 1 10 2 8 3 7 4 9 6 6 7 5 8 3 9 21 10 4 11 20 12 19 13
REMARK SMILES IDX 2 14 1 15 22 16 12 18 13 19 14 20 15 21 16 22 17 23 18 24
REMARK H PARENT 7 5 22 17
REMARK Flexibility Score: inf
ROOT
ATOM      1  C   UNL     1      97.253  81.385  85.097  1.00  0.00     0.010 C 
ENDROOT
BRANCH   1   2
ATOM      2  C   UNL     1      98.083  82.653  84.756  1.00  0.00     0.100 C 
BRANCH   2   3
ATOM      3  C   UNL     1      99.087  82.426  83.693  1.00  0.00     0.220 C 
ATOM      4  N   UNL     1      98.869  82.890  82.429  1.00  0.00    -0.352 N 
ATOM      5  H   UNL     1      97.976  83.341  82.293  1.00  0.00     0.163 HD
ATOM      6  O   UNL     1     100.148  81.822  83.986  1.00  0.00    -0.275 OA
BRANCH   4   7
ATOM      7  C   UNL     1      99.790  82.782  81.338  1.00  0.00     0.151 C 
BRANCH   7   8
ATOM      8  C   UNL     1      99.164  83.043  80.013  1.00  0.00    -0.025 A 
ATOM      9  C   UNL     1      99.337  83.164  77.563  1.00  0.00     0.160 A 
ATOM     10  C   UNL     1      97.967  83.495  77.480  1.00  0.00     0.157 A 
ATOM     11  C   UNL     1      99.928  82.959  78.827  1.00  0.00     0.056 A 
ATOM     12  C   UNL     1      97.204  83.619  78.656  1.00  0.00     0.050 A 
ATOM     13  C   UNL     1      97.794  83.384  79.913  1.00  0.00     0.009 A 
BRANCH   9  14
ATOM     14  O   UNL     1     100.097  83.080  76.428  1.00  0.00    -0.493 OA
ATOM     15  C   UNL     1     101.146  84.063  76.358  1.00  0.00     0.278 C 
ENDBRANCH   9  14
BRANCH  10  16
ATOM     16  O   UNL     1      97.371  83.700  76.276  1.00  0.00    -0.504 OA
ATOM     17  H   UNL     1      97.879  84.342  75.774  1.00  0.00     0.293 HD
ENDBRANCH  10  16
ENDBRANCH   7   8
ENDBRANCH   4   7
ENDBRANCH   2   3
ENDBRANCH   1   2
BRANCH   1  18
ATOM     18  C   UNL     1      96.398  81.571  86.383  1.00  0.00     0.001 C 
BRANCH  18  19
ATOM     19  C   UNL     1      95.270  82.632  86.237  1.00  0.00     0.000 C 
BRANCH  19  20
ATOM     20  C   UNL     1      94.087  82.345  87.204  1.00  0.00     0.000 C 
BRANCH  20  21
ATOM     21  C   UNL     1      92.784  81.880  86.496  1.00  0.00     0.003 C 
BRANCH  21  22
ATOM     22  C   UNL     1      92.173  80.557  87.063  1.00  0.00    -0.017 C 
ATOM     23  C   UNL     1      93.140  79.364  86.822  1.00  0.00     0.007 C 
ATOM     24  C   UNL     1      90.757  80.232  86.502  1.00  0.00     0.007 C 
ENDBRANCH  21  22
ENDBRANCH  20  21
ENDBRANCH  19  20
ENDBRANCH  18  19
ENDBRANCH   1  18
TORSDOF 11
ENDMDL
MODEL 5
REMARK VINA RESULT:    -5.418      2.030      3.036
REMARK INTER + INTRA:          -9.698
REMARK INTER:                  -8.381
REMARK INTRA:                  -1.318
REMARK UNBOUND:                -0.955
REMARK SMILES COc1cc(CNC(=O)CCCCCCC(C)C)ccc1O
REMARK SMILES IDX 11 1 10 2 8 3 7 4 9 6 6 7 5 8 3 9 21 10 4 11 20 12 19 13
REMARK SMILES IDX 2 14 1 15 22 16 12 18 13 19 14 20 15 21 16 22 17 23 18 24
REMARK H PARENT 7 5 22 17
REMARK Flexibility Score: inf
ROOT
ATOM      1  C   UNL     1      77.547  84.354  66.862  1.00  0.00     0.010 C 
ENDROOT
BRANCH   1   2
ATOM      2  C   UNL     1      77.619  83.189  65.837  1.00  0.00     0.100 C 
BRANCH   2   3
ATOM      3  C   UNL     1      76.341  82.953  65.128  1.00  0.00     0.220 C 
ATOM      4  N   UNL     1      75.249  82.501  65.809  1.00  0.00    -0.352 N 
ATOM      5  H   UNL     1      75.411  82.311  66.787  1.00  0.00     0.163 HD
ATOM      6  O   UNL     1      76.281  83.202  63.899  1.00  0.00    -0.275 OA
BRANCH   4   7
ATOM      7  C   UNL     1      73.950  82.294  65.243  1.00  0.00     0.151 C 
BRANCH   7   8
ATOM      8  C   UNL     1      72.845  82.753  66.127  1.00  0.00    -0.025 A 
ATOM      9  C   UNL     1      71.939  84.380  67.734  1.00  0.00     0.160 A 
ATOM     10  C   UNL     1      70.725  83.661  67.781  1.00  0.00     0.157 A 
ATOM     11  C   UNL     1      72.994  83.912  66.923  1.00  0.00     0.056 A 
ATOM     12  C   UNL     1      70.578  82.485  67.023  1.00  0.00     0.050 A 
ATOM     13  C   UNL     1      71.625  82.039  66.194  1.00  0.00     0.009 A 
BRANCH   9  14
ATOM     14  O   UNL     1      72.107  85.503  68.497  1.00  0.00    -0.493 OA
ATOM     15  C   UNL     1      72.015  86.730  67.752  1.00  0.00     0.278 C 
ENDBRANCH   9  14
BRANCH  10  16
ATOM     16  O   UNL     1      69.692  84.088  68.555  1.00  0.00    -0.504 OA
ATOM     17  H   UNL     1      69.303  83.337  69.011  1.00  0.00     0.293 HD
ENDBRANCH  10  16
ENDBRANCH   7   8
ENDBRANCH   4   7
ENDBRANCH   2   3
ENDBRANCH   1   2
BRANCH   1  18
ATOM     18  C   UNL     1      77.169  85.705  66.189  1.00  0.00     0.001 C 
BRANCH  18  19
ATOM     19  C   UNL     1      77.477  86.950  67.067  1.00  0.00     0.000 C 
BRANCH  19  20
ATOM     20  C   UNL     1      78.249  86.562  68.360  1.00  0.00     0.000 C 
BRANCH  20  21
ATOM     21  C   UNL     1      77.453  86.798  69.673  1.00  0.00     0.003 C 
BRANCH  21  22
ATOM     22  C   UNL     1      76.220  85.855  69.865  1.00  0.00    -0.017 C 
ATOM     23  C   UNL     1      75.018  86.644  70.456  1.00  0.00     0.007 C 
ATOM     24  C   UNL     1      76.525  84.597  70.732  1.00  0.00     0.007 C 
ENDBRANCH  21  22
ENDBRANCH  20  21
ENDBRANCH  19  20
ENDBRANCH  18  19
ENDBRANCH   1  18
TORSDOF 11
ENDMDL
MODEL 6
REMARK VINA RESULT:    -5.219     25.042     27.257
REMARK INTER + INTRA:          -9.377
REMARK INTER:                  -8.807
REMARK INTRA:                  -0.571
REMARK UNBOUND:                -0.955
REMARK SMILES COc1cc(CNC(=O)CCCCCCC(C)C)ccc1O
REMARK SMILES IDX 11 1 10 2 8 3 7 4 9 6 6 7 5 8 3 9 21 10 4 11 20 12 19 13
REMARK SMILES IDX 2 14 1 15 22 16 12 18 13 19 14 20 15 21 16 22 17 23 18 24
REMARK H PARENT 7 5 22 17
REMARK Flexibility Score: inf
ROOT
ATOM      1  C   UNL     1      97.633  81.847  84.611  1.00  0.00     0.010 C 
ENDROOT
BRANCH   1   2
ATOM      2  C   UNL     1      96.925  83.202  84.890  1.00  0.00     0.100 C 
BRANCH   2   3
ATOM      3  C   UNL     1      95.919  83.124  85.973  1.00  0.00     0.220 C 
ATOM      4  N   UNL     1      95.264  81.954  86.223  1.00  0.00    -0.352 N 
ATOM      5  H   UNL     1      95.494  81.200  85.592  1.00  0.00     0.163 HD
ATOM      6  O   UNL     1      95.703  84.147  86.668  1.00  0.00    -0.275 OA
BRANCH   4   7
ATOM      7  C   UNL     1      94.318  81.745  87.277  1.00  0.00     0.151 C 
BRANCH   7   8
ATOM      8  C   UNL     1      92.949  81.431  86.782  1.00  0.00    -0.025 A 
ATOM      9  C   UNL     1      91.340  79.824  85.846  1.00  0.00     0.160 A 
ATOM     10  C   UNL     1      90.331  80.812  85.879  1.00  0.00     0.157 A 
ATOM     11  C   UNL     1      92.643  80.146  86.279  1.00  0.00     0.056 A 
ATOM     12  C   UNL     1      90.634  82.106  86.341  1.00  0.00     0.050 A 
ATOM     13  C   UNL     1      91.930  82.412  86.799  1.00  0.00     0.009 A 
BRANCH   9  14
ATOM     14  O   UNL     1      91.067  78.574  85.362  1.00  0.00    -0.493 OA
ATOM     15  C   UNL     1      92.175  77.661  85.455  1.00  0.00     0.278 C 
ENDBRANCH   9  14
BRANCH  10  16
ATOM     16  O   UNL     1      89.067  80.531  85.467  1.00  0.00    -0.504 OA
ATOM     17  H   UNL     1      88.679  79.875  86.051  1.00  0.00     0.293 HD
ENDBRANCH  10  16
ENDBRANCH   7   8
ENDBRANCH   4   7
ENDBRANCH   2   3
ENDBRANCH   1   2
BRANCH   1  18
ATOM     18  C   UNL     1      98.648  81.947  83.437  1.00  0.00     0.001 C 
BRANCH  18  19
ATOM     19  C   UNL     1      98.182  82.879  82.283  1.00  0.00     0.000 C 
BRANCH  19  20
ATOM     20  C   UNL     1      99.027  82.661  80.996  1.00  0.00     0.000 C 
BRANCH  20  21
ATOM     21  C   UNL     1      98.518  83.452  79.758  1.00  0.00     0.003 C 
BRANCH  21  22
ATOM     22  C   UNL     1      98.722  82.721  78.391  1.00  0.00    -0.017 C 
ATOM     23  C   UNL     1      97.789  83.328  77.306  1.00  0.00     0.007 C 
ATOM     24  C   UNL     1      98.532  81.177  78.472  1.00  0.00     0.007 C 
ENDBRANCH  21  22
ENDBRANCH  20  21
ENDBRANCH  19  20
ENDBRANCH  18  19
ENDBRANCH   1  18
TORSDOF 11
ENDMDL
MODEL 7
REMARK VINA RESULT:    -5.056     25.924     29.093
REMARK INTER + INTRA:          -9.115
REMARK INTER:                  -8.342
REMARK INTRA:                  -0.774
REMARK UNBOUND:                -0.955
REMARK SMILES COc1cc(CNC(=O)CCCCCCC(C)C)ccc1O
REMARK SMILES IDX 11 1 10 2 8 3 7 4 9 6 6 7 5 8 3 9 21 10 4 11 20 12 19 13
REMARK SMILES IDX 2 14 1 15 22 16 12 18 13 19 14 20 15 21 16 22 17 23 18 24
REMARK H PARENT 7 5 22 17
REMARK Flexibility Score: inf
ROOT
ATOM      1  C   UNL     1      99.930  81.943  82.561  1.00  0.00     0.010 C 
ENDROOT
BRANCH   1   2
ATOM      2  C   UNL     1      99.226  82.101  83.937  1.00  0.00     0.100 C 
BRANCH   2   3
ATOM      3  C   UNL     1      98.246  83.210  83.969  1.00  0.00     0.220 C 
ATOM      4  N   UNL     1      98.203  84.061  85.035  1.00  0.00    -0.352 N 
ATOM      5  H   UNL     1      98.846  83.836  85.780  1.00  0.00     0.163 HD
ATOM      6  O   UNL     1      97.478  83.363  82.988  1.00  0.00    -0.275 OA
BRANCH   4   7
ATOM      7  C   UNL     1      97.341  85.199  85.149  1.00  0.00     0.151 C 
BRANCH   7   8
ATOM      8  C   UNL     1      96.332  85.063  86.235  1.00  0.00    -0.025 A 
ATOM      9  C   UNL     1      95.154  86.007  88.177  1.00  0.00     0.160 A 
ATOM     10  C   UNL     1      94.380  84.831  88.281  1.00  0.00     0.157 A 
ATOM     11  C   UNL     1      96.135  86.107  87.168  1.00  0.00     0.056 A 
ATOM     12  C   UNL     1      94.593  83.770  87.382  1.00  0.00     0.050 A 
ATOM     13  C   UNL     1      95.555  83.888  86.360  1.00  0.00     0.009 A 
BRANCH   9  14
ATOM     14  O   UNL     1      94.982  87.029  89.070  1.00  0.00    -0.493 OA
ATOM     15  C   UNL     1      95.959  88.078  88.946  1.00  0.00     0.278 C 
ENDBRANCH   9  14
BRANCH  10  16
ATOM     16  O   UNL     1      93.428  84.706  89.244  1.00  0.00    -0.504 OA
ATOM     17  H   UNL     1      92.560  84.831  88.853  1.00  0.00     0.293 HD
ENDBRANCH  10  16
ENDBRANCH   7   8
ENDBRANCH   4   7
ENDBRANCH   2   3
ENDBRANCH   1   2
BRANCH   1  18
ATOM     18  C   UNL     1      99.473  80.659  81.812  1.00  0.00     0.001 C 
BRANCH  18  19
ATOM     19  C   UNL     1      99.865  80.638  80.308  1.00  0.00     0.000 C 
BRANCH  19  20
ATOM     20  C   UNL     1      98.807  81.365  79.431  1.00  0.00     0.000 C 
BRANCH  20  21
ATOM     21  C   UNL     1      99.313  82.684  78.784  1.00  0.00     0.003 C 
BRANCH  21  22
ATOM     22  C   UNL     1      98.188  83.715  78.444  1.00  0.00    -0.017 C 
ATOM     23  C   UNL     1      96.999  83.570  79.436  1.00  0.00     0.007 C 
ATOM     24  C   UNL     1      97.684  83.629  76.973  1.00  0.00     0.007 C 
ENDBRANCH  21  22
ENDBRANCH  20  21
ENDBRANCH  19  20
ENDBRANCH  18  19
ENDBRANCH   1  18
TORSDOF 11
ENDMDL
MODEL 8
REMARK VINA RESULT:    -5.044     28.668     31.643
REMARK INTER + INTRA:          -9.096
REMARK INTER:                  -7.868
REMARK INTRA:                  -1.228
REMARK UNBOUND:                -0.955
REMARK SMILES COc1cc(CNC(=O)CCCCCCC(C)C)ccc1O
REMARK SMILES IDX 11 1 10 2 8 3 7 4 9 6 6 7 5 8 3 9 21 10 4 11 20 12 19 13
REMARK SMILES IDX 2 14 1 15 22 16 12 18 13 19 14 20 15 21 16 22 17 23 18 24
REMARK H PARENT 7 5 22 17
REMARK Flexibility Score: inf
ROOT
ATOM      1  C   UNL     1      93.222  83.983  90.369  1.00  0.00     0.010 C 
ENDROOT
BRANCH   1   2
ATOM      2  C   UNL     1      91.795  84.582  90.514  1.00  0.00     0.100 C 
BRANCH   2   3
ATOM      3  C   UNL     1      91.796  86.026  90.837  1.00  0.00     0.220 C 
ATOM      4  N   UNL     1      92.972  86.682  91.057  1.00  0.00    -0.352 N 
ATOM      5  H   UNL     1      93.794  86.096  91.023  1.00  0.00     0.163 HD
ATOM      6  O   UNL     1      90.699  86.634  90.879  1.00  0.00    -0.275 OA
BRANCH   4   7
ATOM      7  C   UNL     1      93.100  88.084  91.318  1.00  0.00     0.151 C 
BRANCH   7   8
ATOM      8  C   UNL     1      94.464  88.611  91.039  1.00  0.00    -0.025 A 
ATOM      9  C   UNL     1      96.847  88.770  91.626  1.00  0.00     0.160 A 
ATOM     10  C   UNL     1      97.076  89.575  90.488  1.00  0.00     0.157 A 
ATOM     11  C   UNL     1      95.542  88.311  91.902  1.00  0.00     0.056 A 
ATOM     12  C   UNL     1      96.003  89.912  89.642  1.00  0.00     0.050 A 
ATOM     13  C   UNL     1      94.709  89.426  89.908  1.00  0.00     0.009 A 
BRANCH   9  14
ATOM     14  O   UNL     1      97.875  88.469  92.477  1.00  0.00    -0.493 OA
ATOM     15  C   UNL     1      97.811  89.166  93.734  1.00  0.00     0.278 C 
ENDBRANCH   9  14
BRANCH  10  16
ATOM     16  O   UNL     1      98.322  90.033  90.198  1.00  0.00    -0.504 OA
ATOM     17  H   UNL     1      98.461  90.877  90.634  1.00  0.00     0.293 HD
ENDBRANCH  10  16
ENDBRANCH   7   8
ENDBRANCH   4   7
ENDBRANCH   2   3
ENDBRANCH   1   2
BRANCH   1  18
ATOM     18  C   UNL     1      93.491  83.446  88.935  1.00  0.00     0.001 C 
BRANCH  18  19
ATOM     19  C   UNL     1      93.379  84.532  87.828  1.00  0.00     0.000 C 
BRANCH  19  20
ATOM     20  C   UNL     1      94.531  85.571  87.928  1.00  0.00     0.000 C 
BRANCH  20  21
ATOM     21  C   UNL     1      95.925  85.018  87.519  1.00  0.00     0.003 C 
BRANCH  21  22
ATOM     22  C   UNL     1      96.070  84.679  86.000  1.00  0.00    -0.017 C 
ATOM     23  C   UNL     1      96.170  83.141  85.793  1.00  0.00     0.007 C 
ATOM     24  C   UNL     1      97.264  85.400  85.309  1.00  0.00     0.007 C 
ENDBRANCH  21  22
ENDBRANCH  20  21
ENDBRANCH  19  20
ENDBRANCH  18  19
ENDBRANCH   1  18
TORSDOF 11
ENDMDL
MODEL 9
REMARK VINA RESULT:    -5.042     12.194     15.193
REMARK INTER + INTRA:          -9.092
REMARK INTER:                  -7.698
REMARK INTRA:                  -1.394
REMARK UNBOUND:                -0.955
REMARK SMILES COc1cc(CNC(=O)CCCCCCC(C)C)ccc1O
REMARK SMILES IDX 11 1 10 2 8 3 7 4 9 6 6 7 5 8 3 9 21 10 4 11 20 12 19 13
REMARK SMILES IDX 2 14 1 15 22 16 12 18 13 19 14 20 15 21 16 22 17 23 18 24
REMARK H PARENT 7 5 22 17
REMARK Flexibility Score: inf
ROOT
ATOM      1  C   UNL     1      60.667  86.071  73.840  1.00  0.00     0.010 C 
ENDROOT
BRANCH   1   2
ATOM      2  C   UNL     1      61.153  85.325  75.114  1.00  0.00     0.100 C 
BRANCH   2   3
ATOM      3  C   UNL     1      61.887  84.075  74.816  1.00  0.00     0.220 C 
ATOM      4  N   UNL     1      63.026  84.107  74.066  1.00  0.00    -0.352 N 
ATOM      5  H   UNL     1      63.275  85.021  73.716  1.00  0.00     0.163 HD
ATOM      6  O   UNL     1      61.454  82.996  75.288  1.00  0.00    -0.275 OA
BRANCH   4   7
ATOM      7  C   UNL     1      63.848  82.975  73.763  1.00  0.00     0.151 C 
BRANCH   7   8
ATOM      8  C   UNL     1      63.913  82.669  72.307  1.00  0.00    -0.025 A 
ATOM      9  C   UNL     1      63.108  83.047  70.014  1.00  0.00     0.160 A 
ATOM     10  C   UNL     1      64.060  82.125  69.526  1.00  0.00     0.157 A 
ATOM     11  C   UNL     1      63.029  83.297  71.400  1.00  0.00     0.056 A 
ATOM     12  C   UNL     1      64.919  81.465  70.423  1.00  0.00     0.050 A 
ATOM     13  C   UNL     1      64.855  81.742  71.802  1.00  0.00     0.009 A 
BRANCH   9  14
ATOM     14  O   UNL     1      62.241  83.665  69.155  1.00  0.00    -0.493 OA
ATOM     15  C   UNL     1      62.551  85.049  68.914  1.00  0.00     0.278 C 
ENDBRANCH   9  14
BRANCH  10  16
ATOM     16  O   UNL     1      64.157  81.863  68.196  1.00  0.00    -0.504 OA
ATOM     17  H   UNL     1      64.075  80.918  68.050  1.00  0.00     0.293 HD
ENDBRANCH  10  16
ENDBRANCH   7   8
ENDBRANCH   4   7
ENDBRANCH   2   3
ENDBRANCH   1   2
BRANCH   1  18
ATOM     18  C   UNL     1      59.762  85.176  72.946  1.00  0.00     0.001 C 
BRANCH  18  19
ATOM     19  C   UNL     1      59.888  85.478  71.426  1.00  0.00     0.000 C 
BRANCH  19  20
ATOM     20  C   UNL     1      58.534  85.943  70.821  1.00  0.00     0.000 C 
BRANCH  20  21
ATOM     21  C   UNL     1      58.505  87.438  70.397  1.00  0.00     0.003 C 
BRANCH  21  22
ATOM     22  C   UNL     1      59.085  88.427  71.460  1.00  0.00    -0.017 C 
ATOM     23  C   UNL     1      58.003  89.455  71.894  1.00  0.00     0.007 C 
ATOM     24  C   UNL     1      60.377  89.160  70.993  1.00  0.00     0.007 C 
ENDBRANCH  21  22
ENDBRANCH  20  21
ENDBRANCH  19  20
ENDBRANCH  18  19
ENDBRANCH   1  18
TORSDOF 11
ENDMDL
MODEL 10
REMARK VINA RESULT:    -4.982      7.234     12.169
REMARK INTER + INTRA:          -8.996
REMARK INTER:                  -8.207
REMARK INTRA:                  -0.789
REMARK UNBOUND:                -0.955
REMARK SMILES COc1cc(CNC(=O)CCCCCCC(C)C)ccc1O
REMARK SMILES IDX 11 1 10 2 8 3 7 4 9 6 6 7 5 8 3 9 21 10 4 11 20 12 19 13
REMARK SMILES IDX 2 14 1 15 22 16 12 18 13 19 14 20 15 21 16 22 17 23 18 24
REMARK H PARENT 7 5 22 17
REMARK Flexibility Score: inf
ROOT
ATOM      1  C   UNL     1      74.882  87.891  70.626  1.00  0.00     0.010 C 
ENDROOT
BRANCH   1   2
ATOM      2  C   UNL     1      75.713  89.194  70.460  1.00  0.00     0.100 C 
BRANCH   2   3
ATOM      3  C   UNL     1      75.018  90.399  70.967  1.00  0.00     0.220 C 
ATOM      4  N   UNL     1      75.728  91.516  71.296  1.00  0.00    -0.352 N 
ATOM      5  H   UNL     1      76.729  91.422  71.206  1.00  0.00     0.163 HD
ATOM      6  O   UNL     1      73.766  90.376  71.063  1.00  0.00    -0.275 OA
BRANCH   4   7
ATOM      7  C   UNL     1      75.161  92.754  71.740  1.00  0.00     0.151 C 
BRANCH   7   8
ATOM      8  C   UNL     1      76.083  93.547  72.599  1.00  0.00    -0.025 A 
ATOM      9  C   UNL     1      77.039  95.713  73.266  1.00  0.00     0.160 A 
ATOM     10  C   UNL     1      77.805  95.070  74.263  1.00  0.00     0.157 A 
ATOM     11  C   UNL     1      76.199  94.945  72.431  1.00  0.00     0.056 A 
ATOM     12  C   UNL     1      77.727  93.674  74.414  1.00  0.00     0.050 A 
ATOM     13  C   UNL     1      76.865  92.918  73.596  1.00  0.00     0.009 A 
BRANCH   9  14
ATOM     14  O   UNL     1      77.137  97.065  73.084  1.00  0.00    -0.493 OA
ATOM     15  C   UNL     1      77.903  97.441  71.925  1.00  0.00     0.278 C 
ENDBRANCH   9  14
BRANCH  10  16
ATOM     16  O   UNL     1      78.623  95.784  75.080  1.00  0.00    -0.504 OA
ATOM     17  H   UNL     1      79.383  96.093  74.581  1.00  0.00     0.293 HD
ENDBRANCH  10  16
ENDBRANCH   7   8
ENDBRANCH   4   7
ENDBRANCH   2   3
ENDBRANCH   1   2
BRANCH   1  18
ATOM     18  C   UNL     1      75.614  86.650  70.040  1.00  0.00     0.001 C 
BRANCH  18  19
ATOM     19  C   UNL     1      77.109  86.908  69.697  1.00  0.00     0.000 C 
BRANCH  19  20
ATOM     20  C   UNL     1      77.927  85.587  69.676  1.00  0.00     0.000 C 
BRANCH  20  21
ATOM     21  C   UNL     1      77.060  84.302  69.572  1.00  0.00     0.003 C 
BRANCH  21  22
ATOM     22  C   UNL     1      76.975  83.688  68.136  1.00  0.00    -0.017 C 
ATOM     23  C   UNL     1      78.275  83.992  67.338  1.00  0.00     0.007 C 
ATOM     24  C   UNL     1      75.723  84.147  67.333  1.00  0.00     0.007 C 
ENDBRANCH  21  22
ENDBRANCH  20  21
ENDBRANCH  19  20
ENDBRANCH  18  19
ENDBRANCH   1  18
TORSDOF 11
ENDMDL
