MODEL 1
REMARK VINA RESULT:    -6.017      0.000      0.000
REMARK INTER + INTRA:         -10.654
REMARK INTER:                  -9.711
REMARK INTRA:                  -0.943
REMARK UNBOUND:                -0.943
REMARK SMILES CCCCCCCCC(=O)NCc1ccc(O)c(OC)c1
REMARK SMILES IDX 7 1 6 2 5 3 4 4 3 5 2 6 1 7 8 8 9 9 10 10 11 11 12 13 13 14
REMARK SMILES IDX 21 15 14 16 18 17 15 18 16 19 19 20 20 21 17 22
REMARK H PARENT 11 12 17 23
REMARK Flexibility Score: inf
ROOT
ATOM      1  C   UNL     1      77.575  86.259  66.781  1.00  0.00     0.010 C 
ENDROOT
BRANCH   1   2
ATOM      2  C   UNL     1      77.779  87.402  67.817  1.00  0.00     0.001 C 
BRANCH   2   3
ATOM      3  C   UNL     1      77.535  86.923  69.278  1.00  0.00     0.000 C 
BRANCH   3   4
ATOM      4  C   UNL     1      76.295  87.576  69.953  1.00  0.00    -0.000 C 
BRANCH   4   5
ATOM      5  C   UNL     1      75.254  86.527  70.439  1.00  0.00    -0.000 C 
BRANCH   5   6
ATOM      6  C   UNL     1      75.671  85.071  70.096  1.00  0.00    -0.003 C 
ATOM      7  C   UNL     1      76.003  84.232  71.350  1.00  0.00     0.004 C 
ENDBRANCH   5   6
ENDBRANCH   4   5
ENDBRANCH   3   4
ENDBRANCH   2   3
ENDBRANCH   1   2
BRANCH   1   8
ATOM      8  C   UNL     1      77.941  84.848  67.321  1.00  0.00     0.100 C 
BRANCH   8   9
ATOM      9  C   UNL     1      77.811  83.815  66.265  1.00  0.00     0.220 C 
ATOM     10  O   UNL     1      78.505  83.936  65.226  1.00  0.00    -0.275 OA
ATOM     11  N   UNL     1      76.978  82.747  66.436  1.00  0.00    -0.352 N 
ATOM     12  H   UNL     1      76.405  82.794  67.266  1.00  0.00     0.163 HD
BRANCH  11  13
ATOM     13  C   UNL     1      76.872  81.621  65.561  1.00  0.00     0.151 C 
BRANCH  13  14
ATOM     14  C   UNL     1      75.496  81.387  65.046  1.00  0.00    -0.025 A 
ATOM     15  C   UNL     1      74.375  81.620  65.879  1.00  0.00     0.056 A 
ATOM     16  C   UNL     1      75.282  80.926  63.726  1.00  0.00     0.009 A 
ATOM     17  C   UNL     1      73.061  81.418  65.398  1.00  0.00     0.160 A 
ATOM     18  C   UNL     1      73.977  80.725  63.242  1.00  0.00     0.050 A 
ATOM     19  C   UNL     1      72.866  80.961  64.075  1.00  0.00     0.157 A 
BRANCH  17  20
ATOM     20  O   UNL     1      71.977  81.604  66.219  1.00  0.00    -0.493 OA
ATOM     21  C   UNL     1      71.557  82.974  66.338  1.00  0.00     0.278 C 
ENDBRANCH  17  20
BRANCH  19  22
ATOM     22  O   UNL     1      71.612  80.738  63.607  1.00  0.00    -0.504 OA
ATOM     23  H   UNL     1      71.005  80.655  64.346  1.00  0.00     0.293 HD
ENDBRANCH  19  22
ENDBRANCH  13  14
ENDBRANCH  11  13
ENDBRANCH   8   9
ENDBRANCH   1   8
TORSDOF 11
ENDMDL
MODEL 2
REMARK VINA RESULT:    -5.599     24.125     28.393
REMARK INTER + INTRA:          -9.978
REMARK INTER:                  -9.033
REMARK INTRA:                  -0.945
REMARK UNBOUND:                -0.943
REMARK SMILES CCCCCCCCC(=O)NCc1ccc(O)c(OC)c1
REMARK SMILES IDX 7 1 6 2 5 3 4 4 3 5 2 6 1 7 8 8 9 9 10 10 11 11 12 13 13 14
REMARK SMILES IDX 21 15 14 16 18 17 15 18 16 19 19 20 20 21 17 22
REMARK H PARENT 11 12 17 23
REMARK Flexibility Score: inf
ROOT
ATOM      1  C   UNL     1      93.513  94.070  79.443  1.00  0.00     0.010 C 
ENDROOT
BRANCH   1   2
ATOM      2  C   UNL     1      93.323  95.593  79.190  1.00  0.00     0.001 C 
BRANCH   2   3
ATOM      3  C   UNL     1      93.638  95.989  77.717  1.00  0.00     0.000 C 
BRANCH   3   4
ATOM      4  C   UNL     1      92.375  96.334  76.877  1.00  0.00    -0.000 C 
BRANCH   4   5
ATOM      5  C   UNL     1      91.051  96.005  77.623  1.00  0.00    -0.000 C 
BRANCH   5   6
ATOM      6  C   UNL     1      90.290  94.810  76.988  1.00  0.00    -0.003 C 
ATOM      7  C   UNL     1      89.448  94.021  78.014  1.00  0.00     0.004 C 
ENDBRANCH   5   6
ENDBRANCH   4   5
ENDBRANCH   3   4
ENDBRANCH   2   3
ENDBRANCH   1   2
BRANCH   1   8
ATOM      8  C   UNL     1      94.979  93.663  79.761  1.00  0.00     0.100 C 
BRANCH   8   9
ATOM      9  C   UNL     1      95.370  94.078  81.130  1.00  0.00     0.220 C 
ATOM     10  O   UNL     1      94.885  93.451  82.103  1.00  0.00    -0.275 OA
ATOM     11  N   UNL     1      96.257  95.099  81.319  1.00  0.00    -0.352 N 
ATOM     12  H   UNL     1      96.516  95.589  80.475  1.00  0.00     0.163 HD
BRANCH  11  13
ATOM     13  C   UNL     1      96.817  95.497  82.574  1.00  0.00     0.151 C 
BRANCH  13  14
ATOM     14  C   UNL     1      96.416  96.864  83.004  1.00  0.00    -0.025 A 
ATOM     15  C   UNL     1      96.784  97.344  84.284  1.00  0.00     0.056 A 
ATOM     16  C   UNL     1      95.663  97.703  82.151  1.00  0.00     0.009 A 
ATOM     17  C   UNL     1      96.425  98.647  84.700  1.00  0.00     0.160 A 
ATOM     18  C   UNL     1      95.304  99.000  82.559  1.00  0.00     0.050 A 
ATOM     19  C   UNL     1      95.675  99.472  83.832  1.00  0.00     0.157 A 
BRANCH  17  20
ATOM     20  O   UNL     1      96.745  99.095  85.957  1.00  0.00    -0.493 OA
ATOM     21  C   UNL     1      96.416  98.174  87.012  1.00  0.00     0.278 C 
ENDBRANCH  17  20
BRANCH  19  22
ATOM     22  O   UNL     1      95.300 100.716  84.227  1.00  0.00    -0.504 OA
ATOM     23  H   UNL     1      94.565 101.015  83.686  1.00  0.00     0.293 HD
ENDBRANCH  19  22
ENDBRANCH  13  14
ENDBRANCH  11  13
ENDBRANCH   8   9
ENDBRANCH   1   8
TORSDOF 11
ENDMDL
MODEL 3
REMARK VINA RESULT:    -5.571      1.929      2.606
REMARK INTER + INTRA:          -9.934
REMARK INTER:                  -8.605
REMARK INTRA:                  -1.329
REMARK UNBOUND:                -0.943
REMARK SMILES CCCCCCCCC(=O)NCc1ccc(O)c(OC)c1
REMARK SMILES IDX 7 1 6 2 5 3 4 4 3 5 2 6 1 7 8 8 9 9 10 10 11 11 12 13 13 14
REMARK SMILES IDX 21 15 14 16 18 17 15 18 16 19 19 20 20 21 17 22
REMARK H PARENT 11 12 17 23
REMARK Flexibility Score: inf
ROOT
ATOM      1  C   UNL     1      77.343  86.966  66.283  1.00  0.00     0.010 C 
ENDROOT
BRANCH   1   2
ATOM      2  C   UNL     1      76.271  87.348  67.345  1.00  0.00     0.001 C 
BRANCH   2   3
ATOM      3  C   UNL     1      76.883  87.509  68.768  1.00  0.00     0.000 C 
BRANCH   3   4
ATOM      4  C   UNL     1      78.029  86.504  69.075  1.00  0.00    -0.000 C 
BRANCH   4   5
ATOM      5  C   UNL     1      77.531  85.239  69.831  1.00  0.00    -0.000 C 
BRANCH   5   6
ATOM      6  C   UNL     1      77.125  84.091  68.868  1.00  0.00    -0.003 C 
ATOM      7  C   UNL     1      78.205  83.788  67.806  1.00  0.00     0.004 C 
ENDBRANCH   5   6
ENDBRANCH   4   5
ENDBRANCH   3   4
ENDBRANCH   2   3
ENDBRANCH   1   2
BRANCH   1   8
ATOM      8  C   UNL     1      76.897  87.227  64.817  1.00  0.00     0.100 C 
BRANCH   8   9
ATOM      9  C   UNL     1      76.583  85.960  64.114  1.00  0.00     0.220 C 
ATOM     10  O   UNL     1      75.831  86.006  63.111  1.00  0.00    -0.275 OA
ATOM     11  N   UNL     1      77.125  84.780  64.537  1.00  0.00    -0.352 N 
ATOM     12  H   UNL     1      77.643  84.844  65.401  1.00  0.00     0.163 HD
BRANCH  11  13
ATOM     13  C   UNL     1      77.014  83.521  63.865  1.00  0.00     0.151 C 
BRANCH  13  14
ATOM     14  C   UNL     1      75.864  82.696  64.321  1.00  0.00    -0.025 A 
ATOM     15  C   UNL     1      74.633  82.743  63.624  1.00  0.00     0.056 A 
ATOM     16  C   UNL     1      75.975  81.857  65.453  1.00  0.00     0.009 A 
ATOM     17  C   UNL     1      73.536  81.952  64.035  1.00  0.00     0.160 A 
ATOM     18  C   UNL     1      74.888  81.066  65.867  1.00  0.00     0.050 A 
ATOM     19  C   UNL     1      73.667  81.116  65.167  1.00  0.00     0.157 A 
BRANCH  17  20
ATOM     20  O   UNL     1      72.331  82.030  63.384  1.00  0.00    -0.493 OA
ATOM     21  C   UNL     1      71.957  83.365  62.997  1.00  0.00     0.278 C 
ENDBRANCH  17  20
BRANCH  19  22
ATOM     22  O   UNL     1      72.615  80.369  65.591  1.00  0.00    -0.504 OA
ATOM     23  H   UNL     1      72.393  79.720  64.919  1.00  0.00     0.293 HD
ENDBRANCH  19  22
ENDBRANCH  13  14
ENDBRANCH  11  13
ENDBRANCH   8   9
ENDBRANCH   1   8
TORSDOF 11
ENDMDL
MODEL 4
REMARK VINA RESULT:    -5.444      2.305      4.015
REMARK INTER + INTRA:          -9.728
REMARK INTER:                  -7.874
REMARK INTRA:                  -1.854
REMARK UNBOUND:                -0.943
REMARK SMILES CCCCCCCCC(=O)NCc1ccc(O)c(OC)c1
REMARK SMILES IDX 7 1 6 2 5 3 4 4 3 5 2 6 1 7 8 8 9 9 10 10 11 11 12 13 13 14
REMARK SMILES IDX 21 15 14 16 18 17 15 18 16 19 19 20 20 21 17 22
REMARK H PARENT 11 12 17 23
REMARK Flexibility Score: inf
ROOT
ATOM      1  C   UNL     1      76.392  85.061  70.456  1.00  0.00     0.010 C 
ENDROOT
BRANCH   1   2
ATOM      2  C   UNL     1      77.757  85.440  69.812  1.00  0.00     0.001 C 
BRANCH   2   3
ATOM      3  C   UNL     1      77.805  86.931  69.368  1.00  0.00     0.000 C 
BRANCH   3   4
ATOM      4  C   UNL     1      78.164  87.127  67.868  1.00  0.00    -0.000 C 
BRANCH   4   5
ATOM      5  C   UNL     1      77.667  85.956  66.974  1.00  0.00    -0.000 C 
BRANCH   5   6
ATOM      6  C   UNL     1      76.721  86.432  65.839  1.00  0.00    -0.003 C 
ATOM      7  C   UNL     1      75.835  87.625  66.257  1.00  0.00     0.004 C 
ENDBRANCH   5   6
ENDBRANCH   4   5
ENDBRANCH   3   4
ENDBRANCH   2   3
ENDBRANCH   1   2
BRANCH   1   8
ATOM      8  C   UNL     1      75.303  86.161  70.317  1.00  0.00     0.100 C 
BRANCH   8   9
ATOM      9  C   UNL     1      74.386  85.872  69.189  1.00  0.00     0.220 C 
ATOM     10  O   UNL     1      73.458  86.683  68.954  1.00  0.00    -0.275 OA
ATOM     11  N   UNL     1      74.569  84.765  68.411  1.00  0.00    -0.352 N 
ATOM     12  H   UNL     1      75.289  84.138  68.740  1.00  0.00     0.163 HD
BRANCH  11  13
ATOM     13  C   UNL     1      73.845  84.453  67.217  1.00  0.00     0.151 C 
BRANCH  13  14
ATOM     14  C   UNL     1      74.548  83.498  66.319  1.00  0.00    -0.025 A 
ATOM     15  C   UNL     1      74.025  83.210  65.036  1.00  0.00     0.056 A 
ATOM     16  C   UNL     1      75.741  82.860  66.728  1.00  0.00     0.009 A 
ATOM     17  C   UNL     1      74.691  82.318  64.165  1.00  0.00     0.160 A 
ATOM     18  C   UNL     1      76.409  81.972  65.866  1.00  0.00     0.050 A 
ATOM     19  C   UNL     1      75.885  81.693  64.589  1.00  0.00     0.157 A 
BRANCH  17  20
ATOM     20  O   UNL     1      74.161  82.009  62.938  1.00  0.00    -0.493 OA
ATOM     21  C   UNL     1      72.734  81.829  62.942  1.00  0.00     0.278 C 
ENDBRANCH  17  20
BRANCH  19  22
ATOM     22  O   UNL     1      76.523  80.814  63.775  1.00  0.00    -0.504 OA
ATOM     23  H   UNL     1      75.960  80.051  63.624  1.00  0.00     0.293 HD
ENDBRANCH  19  22
ENDBRANCH  13  14
ENDBRANCH  11  13
ENDBRANCH   8   9
ENDBRANCH   1   8
TORSDOF 11
ENDMDL
MODEL 5
REMARK VINA RESULT:    -5.278     23.812     26.500
REMARK INTER + INTRA:          -9.461
REMARK INTER:                  -8.490
REMARK INTRA:                  -0.971
REMARK UNBOUND:                -0.943
REMARK SMILES CCCCCCCCC(=O)NCc1ccc(O)c(OC)c1
REMARK SMILES IDX 7 1 6 2 5 3 4 4 3 5 2 6 1 7 8 8 9 9 10 10 11 11 12 13 13 14
REMARK SMILES IDX 21 15 14 16 18 17 15 18 16 19 19 20 20 21 17 22
REMARK H PARENT 11 12 17 23
REMARK Flexibility Score: inf
ROOT
ATOM      1  C   UNL     1      95.833  94.313  79.785  1.00  0.00     0.010 C 
ENDROOT
BRANCH   1   2
ATOM      2  C   UNL     1      96.619  95.188  80.803  1.00  0.00     0.001 C 
BRANCH   2   3
ATOM      3  C   UNL     1      96.798  96.653  80.305  1.00  0.00     0.000 C 
BRANCH   3   4
ATOM      4  C   UNL     1      95.532  97.536  80.488  1.00  0.00    -0.000 C 
BRANCH   4   5
ATOM      5  C   UNL     1      94.859  97.341  81.877  1.00  0.00    -0.000 C 
BRANCH   5   6
ATOM      6  C   UNL     1      95.474  98.255  82.970  1.00  0.00    -0.003 C 
ATOM      7  C   UNL     1      95.501  99.744  82.563  1.00  0.00     0.004 C 
ENDBRANCH   5   6
ENDBRANCH   4   5
ENDBRANCH   3   4
ENDBRANCH   2   3
ENDBRANCH   1   2
BRANCH   1   8
ATOM      8  C   UNL     1      94.317  94.185  80.104  1.00  0.00     0.100 C 
BRANCH   8   9
ATOM      9  C   UNL     1      93.495  94.310  78.876  1.00  0.00     0.220 C 
ATOM     10  O   UNL     1      92.269  94.059  78.952  1.00  0.00    -0.275 OA
ATOM     11  N   UNL     1      94.060  94.718  77.701  1.00  0.00    -0.352 N 
ATOM     12  H   UNL     1      95.065  94.809  77.731  1.00  0.00     0.163 HD
BRANCH  11  13
ATOM     13  C   UNL     1      93.354  95.011  76.492  1.00  0.00     0.151 C 
BRANCH  13  14
ATOM     14  C   UNL     1      93.695  96.334  75.902  1.00  0.00    -0.025 A 
ATOM     15  C   UNL     1      94.998  96.578  75.406  1.00  0.00     0.056 A 
ATOM     16  C   UNL     1      92.732  97.367  75.829  1.00  0.00     0.009 A 
ATOM     17  C   UNL     1      95.331  97.824  74.827  1.00  0.00     0.160 A 
ATOM     18  C   UNL     1      93.058  98.608  75.254  1.00  0.00     0.050 A 
ATOM     19  C   UNL     1      94.355  98.843  74.759  1.00  0.00     0.157 A 
BRANCH  17  20
ATOM     20  O   UNL     1      96.606  98.072  74.385  1.00  0.00    -0.493 OA
ATOM     21  C   UNL     1      97.510  98.514  75.414  1.00  0.00     0.278 C 
ENDBRANCH  17  20
BRANCH  19  22
ATOM     22  O   UNL     1      94.667 100.054  74.231  1.00  0.00    -0.504 OA
ATOM     23  H   UNL     1      95.496 100.362  74.604  1.00  0.00     0.293 HD
ENDBRANCH  19  22
ENDBRANCH  13  14
ENDBRANCH  11  13
ENDBRANCH   8   9
ENDBRANCH   1   8
TORSDOF 11
ENDMDL
MODEL 6
REMARK VINA RESULT:    -5.202      3.802      5.901
REMARK INTER + INTRA:          -9.339
REMARK INTER:                  -8.789
REMARK INTRA:                  -0.550
REMARK UNBOUND:                -0.943
REMARK SMILES CCCCCCCCC(=O)NCc1ccc(O)c(OC)c1
REMARK SMILES IDX 7 1 6 2 5 3 4 4 3 5 2 6 1 7 8 8 9 9 10 10 11 11 12 13 13 14
REMARK SMILES IDX 21 15 14 16 18 17 15 18 16 19 19 20 20 21 17 22
REMARK H PARENT 11 12 17 23
REMARK Flexibility Score: inf
ROOT
ATOM      1  C   UNL     1      75.221  89.292  70.188  1.00  0.00     0.010 C 
ENDROOT
BRANCH   1   2
ATOM      2  C   UNL     1      74.964  90.427  71.221  1.00  0.00     0.001 C 
BRANCH   2   3
ATOM      3  C   UNL     1      75.889  91.657  70.987  1.00  0.00     0.000 C 
BRANCH   3   4
ATOM      4  C   UNL     1      76.353  92.351  72.299  1.00  0.00    -0.000 C 
BRANCH   4   5
ATOM      5  C   UNL     1      77.902  92.434  72.419  1.00  0.00    -0.000 C 
BRANCH   5   6
ATOM      6  C   UNL     1      78.418  93.898  72.462  1.00  0.00    -0.003 C 
ATOM      7  C   UNL     1      77.520  94.874  71.670  1.00  0.00     0.004 C 
ENDBRANCH   5   6
ENDBRANCH   4   5
ENDBRANCH   3   4
ENDBRANCH   2   3
ENDBRANCH   1   2
BRANCH   1   8
ATOM      8  C   UNL     1      74.900  87.869  70.724  1.00  0.00     0.100 C 
BRANCH   8   9
ATOM      9  C   UNL     1      75.919  86.884  70.286  1.00  0.00     0.220 C 
ATOM     10  O   UNL     1      77.022  87.314  69.872  1.00  0.00    -0.275 OA
ATOM     11  N   UNL     1      75.666  85.544  70.361  1.00  0.00    -0.352 N 
ATOM     12  H   UNL     1      74.720  85.312  70.625  1.00  0.00     0.163 HD
BRANCH  11  13
ATOM     13  C   UNL     1      76.611  84.500  70.105  1.00  0.00     0.151 C 
BRANCH  13  14
ATOM     14  C   UNL     1      76.818  84.219  68.659  1.00  0.00    -0.025 A 
ATOM     15  C   UNL     1      75.715  83.913  67.827  1.00  0.00     0.056 A 
ATOM     16  C   UNL     1      78.113  84.249  68.091  1.00  0.00     0.009 A 
ATOM     17  C   UNL     1      75.895  83.661  66.448  1.00  0.00     0.160 A 
ATOM     18  C   UNL     1      78.299  84.000  66.720  1.00  0.00     0.050 A 
ATOM     19  C   UNL     1      77.196  83.698  65.898  1.00  0.00     0.157 A 
BRANCH  17  20
ATOM     20  O   UNL     1      74.829  83.323  65.652  1.00  0.00    -0.493 OA
ATOM     21  C   UNL     1      73.990  84.433  65.289  1.00  0.00     0.278 C 
ENDBRANCH  17  20
BRANCH  19  22
ATOM     22  O   UNL     1      77.389  83.432  64.580  1.00  0.00    -0.504 OA
ATOM     23  H   UNL     1      76.866  82.667  64.329  1.00  0.00     0.293 HD
ENDBRANCH  19  22
ENDBRANCH  13  14
ENDBRANCH  11  13
ENDBRANCH   8   9
ENDBRANCH   1   8
TORSDOF 11
ENDMDL
MODEL 7
REMARK VINA RESULT:    -5.193     26.285     29.354
REMARK INTER + INTRA:          -9.324
REMARK INTER:                  -8.509
REMARK INTRA:                  -0.816
REMARK UNBOUND:                -0.943
REMARK SMILES CCCCCCCCC(=O)NCc1ccc(O)c(OC)c1
REMARK SMILES IDX 7 1 6 2 5 3 4 4 3 5 2 6 1 7 8 8 9 9 10 10 11 11 12 13 13 14
REMARK SMILES IDX 21 15 14 16 18 17 15 18 16 19 19 20 20 21 17 22
REMARK H PARENT 11 12 17 23
REMARK Flexibility Score: inf
ROOT
ATOM      1  C   UNL     1     101.783  80.942  80.376  1.00  0.00     0.010 C 
ENDROOT
BRANCH   1   2
ATOM      2  C   UNL     1     101.926  81.759  79.059  1.00  0.00     0.001 C 
BRANCH   2   3
ATOM      3  C   UNL     1     100.601  81.796  78.242  1.00  0.00     0.000 C 
BRANCH   3   4
ATOM      4  C   UNL     1      99.965  83.211  78.142  1.00  0.00    -0.000 C 
BRANCH   4   5
ATOM      5  C   UNL     1      98.789  83.270  77.126  1.00  0.00    -0.000 C 
BRANCH   5   6
ATOM      6  C   UNL     1      97.482  83.819  77.759  1.00  0.00    -0.003 C 
ATOM      7  C   UNL     1      97.321  83.422  79.243  1.00  0.00     0.004 C 
ENDBRANCH   5   6
ENDBRANCH   4   5
ENDBRANCH   3   4
ENDBRANCH   2   3
ENDBRANCH   1   2
BRANCH   1   8
ATOM      8  C   UNL     1     101.444  81.808  81.621  1.00  0.00     0.100 C 
BRANCH   8   9
ATOM      9  C   UNL     1      99.993  81.774  81.924  1.00  0.00     0.220 C 
ATOM     10  O   UNL     1      99.366  80.708  81.714  1.00  0.00    -0.275 OA
ATOM     11  N   UNL     1      99.368  82.870  82.446  1.00  0.00    -0.352 N 
ATOM     12  H   UNL     1      99.944  83.697  82.493  1.00  0.00     0.163 HD
BRANCH  11  13
ATOM     13  C   UNL     1      98.015  82.918  82.910  1.00  0.00     0.151 C 
BRANCH  13  14
ATOM     14  C   UNL     1      97.866  83.494  84.273  1.00  0.00    -0.025 A 
ATOM     15  C   UNL     1      98.790  83.161  85.292  1.00  0.00     0.056 A 
ATOM     16  C   UNL     1      96.804  84.377  84.577  1.00  0.00     0.009 A 
ATOM     17  C   UNL     1      98.672  83.715  86.587  1.00  0.00     0.160 A 
ATOM     18  C   UNL     1      96.681  84.932  85.863  1.00  0.00     0.050 A 
ATOM     19  C   UNL     1      97.606  84.598  86.871  1.00  0.00     0.157 A 
BRANCH  17  20
ATOM     20  O   UNL     1      99.544  83.358  87.585  1.00  0.00    -0.493 OA
ATOM     21  C   UNL     1     100.675  84.237  87.720  1.00  0.00     0.278 C 
ENDBRANCH  17  20
BRANCH  19  22
ATOM     22  O   UNL     1      97.463  85.118  88.117  1.00  0.00    -0.504 OA
ATOM     23  H   UNL     1      97.909  84.553  88.752  1.00  0.00     0.293 HD
ENDBRANCH  19  22
ENDBRANCH  13  14
ENDBRANCH  11  13
ENDBRANCH   8   9
ENDBRANCH   1   8
TORSDOF 11
ENDMDL
MODEL 8
REMARK VINA RESULT:    -5.145      2.525      6.374
REMARK INTER + INTRA:          -9.247
REMARK INTER:                  -7.950
REMARK INTRA:                  -1.296
REMARK UNBOUND:                -0.943
REMARK SMILES CCCCCCCCC(=O)NCc1ccc(O)c(OC)c1
REMARK SMILES IDX 7 1 6 2 5 3 4 4 3 5 2 6 1 7 8 8 9 9 10 10 11 11 12 13 13 14
REMARK SMILES IDX 21 15 14 16 18 17 15 18 16 19 19 20 20 21 17 22
REMARK H PARENT 11 12 17 23
REMARK Flexibility Score: inf
ROOT
ATOM      1  C   UNL     1      77.187  83.934  65.787  1.00  0.00     0.010 C 
ENDROOT
BRANCH   1   2
ATOM      2  C   UNL     1      75.724  83.868  66.315  1.00  0.00     0.001 C 
BRANCH   2   3
ATOM      3  C   UNL     1      75.401  82.501  66.986  1.00  0.00     0.000 C 
BRANCH   3   4
ATOM      4  C   UNL     1      75.378  81.305  65.993  1.00  0.00    -0.000 C 
BRANCH   4   5
ATOM      5  C   UNL     1      74.164  81.355  65.022  1.00  0.00    -0.000 C 
BRANCH   5   6
ATOM      6  C   UNL     1      72.821  81.609  65.758  1.00  0.00    -0.003 C 
ATOM      7  C   UNL     1      71.731  82.195  64.834  1.00  0.00     0.004 C 
ENDBRANCH   5   6
ENDBRANCH   4   5
ENDBRANCH   3   4
ENDBRANCH   2   3
ENDBRANCH   1   2
BRANCH   1   8
ATOM      8  C   UNL     1      78.262  83.928  66.910  1.00  0.00     0.100 C 
BRANCH   8   9
ATOM      9  C   UNL     1      78.135  85.119  67.784  1.00  0.00     0.220 C 
ATOM     10  O   UNL     1      78.270  86.254  67.268  1.00  0.00    -0.275 OA
ATOM     11  N   UNL     1      77.849  84.977  69.112  1.00  0.00    -0.352 N 
ATOM     12  H   UNL     1      77.847  84.021  69.439  1.00  0.00     0.163 HD
BRANCH  11  13
ATOM     13  C   UNL     1      77.564  86.042  70.024  1.00  0.00     0.151 C 
BRANCH  13  14
ATOM     14  C   UNL     1      76.148  86.498  69.992  1.00  0.00    -0.025 A 
ATOM     15  C   UNL     1      75.109  85.576  69.723  1.00  0.00     0.056 A 
ATOM     16  C   UNL     1      75.816  87.852  70.226  1.00  0.00     0.009 A 
ATOM     17  C   UNL     1      73.757  85.992  69.706  1.00  0.00     0.160 A 
ATOM     18  C   UNL     1      74.474  88.272  70.212  1.00  0.00     0.050 A 
ATOM     19  C   UNL     1      73.444  87.349  69.946  1.00  0.00     0.157 A 
BRANCH  17  20
ATOM     20  O   UNL     1      72.755  85.105  69.403  1.00  0.00    -0.493 OA
ATOM     21  C   UNL     1      72.565  84.891  67.994  1.00  0.00     0.278 C 
ENDBRANCH  17  20
BRANCH  19  22
ATOM     22  O   UNL     1      72.154  87.769  69.907  1.00  0.00    -0.504 OA
ATOM     23  H   UNL     1      71.697  87.471  70.697  1.00  0.00     0.293 HD
ENDBRANCH  19  22
ENDBRANCH  13  14
ENDBRANCH  11  13
ENDBRANCH   8   9
ENDBRANCH   1   8
TORSDOF 11
ENDMDL
MODEL 9
REMARK VINA RESULT:    -5.133     25.242     27.978
REMARK INTER + INTRA:          -9.227
REMARK INTER:                  -8.249
REMARK INTRA:                  -0.978
REMARK UNBOUND:                -0.943
REMARK SMILES CCCCCCCCC(=O)NCc1ccc(O)c(OC)c1
REMARK SMILES IDX 7 1 6 2 5 3 4 4 3 5 2 6 1 7 8 8 9 9 10 10 11 11 12 13 13 14
REMARK SMILES IDX 21 15 14 16 18 17 15 18 16 19 19 20 20 21 17 22
REMARK H PARENT 11 12 17 23
REMARK Flexibility Score: inf
ROOT
ATOM      1  C   UNL     1      99.152  78.647  84.341  1.00  0.00     0.010 C 
ENDROOT
BRANCH   1   2
ATOM      2  C   UNL     1      97.804  79.198  84.888  1.00  0.00     0.001 C 
BRANCH   2   3
ATOM      3  C   UNL     1      97.979  80.562  85.618  1.00  0.00     0.000 C 
BRANCH   3   4
ATOM      4  C   UNL     1      96.675  81.091  86.280  1.00  0.00    -0.000 C 
BRANCH   4   5
ATOM      5  C   UNL     1      96.253  82.488  85.742  1.00  0.00    -0.000 C 
BRANCH   5   6
ATOM      6  C   UNL     1      97.157  82.976  84.578  1.00  0.00    -0.003 C 
ATOM      7  C   UNL     1      97.345  84.509  84.567  1.00  0.00     0.004 C 
ENDBRANCH   5   6
ENDBRANCH   4   5
ENDBRANCH   3   4
ENDBRANCH   2   3
ENDBRANCH   1   2
BRANCH   1   8
ATOM      8  C   UNL     1      99.319  78.803  82.804  1.00  0.00     0.100 C 
BRANCH   8   9
ATOM      9  C   UNL     1      99.936  80.106  82.458  1.00  0.00     0.220 C 
ATOM     10  O   UNL     1     101.188  80.184  82.435  1.00  0.00    -0.275 OA
ATOM     11  N   UNL     1      99.156  81.182  82.144  1.00  0.00    -0.352 N 
ATOM     12  H   UNL     1      98.166  81.034  82.278  1.00  0.00     0.163 HD
BRANCH  11  13
ATOM     13  C   UNL     1      99.627  82.444  81.660  1.00  0.00     0.151 C 
BRANCH  13  14
ATOM     14  C   UNL     1      98.966  82.892  80.406  1.00  0.00    -0.025 A 
ATOM     15  C   UNL     1      99.681  82.892  79.184  1.00  0.00     0.056 A 
ATOM     16  C   UNL     1      97.621  83.327  80.409  1.00  0.00     0.009 A 
ATOM     17  C   UNL     1      99.061  83.298  77.981  1.00  0.00     0.160 A 
ATOM     18  C   UNL     1      96.997  83.731  79.215  1.00  0.00     0.050 A 
ATOM     19  C   UNL     1      97.714  83.726  78.002  1.00  0.00     0.157 A 
BRANCH  17  20
ATOM     20  O   UNL     1      99.768  83.338  76.805  1.00  0.00    -0.493 OA
ATOM     21  C   UNL     1     101.165  83.637  76.969  1.00  0.00     0.278 C 
ENDBRANCH  17  20
BRANCH  19  22
ATOM     22  O   UNL     1      97.112  84.144  76.860  1.00  0.00    -0.504 OA
ATOM     23  H   UNL     1      96.302  84.612  77.078  1.00  0.00     0.293 HD
ENDBRANCH  19  22
ENDBRANCH  13  14
ENDBRANCH  11  13
ENDBRANCH   8   9
ENDBRANCH   1   8
TORSDOF 11
ENDMDL
MODEL 10
REMARK VINA RESULT:    -5.103     23.729     26.249
REMARK INTER + INTRA:          -9.179
REMARK INTER:                  -8.540
REMARK INTRA:                  -0.639
REMARK UNBOUND:                -0.943
REMARK SMILES CCCCCCCCC(=O)NCc1ccc(O)c(OC)c1
REMARK SMILES IDX 7 1 6 2 5 3 4 4 3 5 2 6 1 7 8 8 9 9 10 10 11 11 12 13 13 14
REMARK SMILES IDX 21 15 14 16 18 17 15 18 16 19 19 20 20 21 17 22
REMARK H PARENT 11 12 17 23
REMARK Flexibility Score: inf
ROOT
ATOM      1  C   UNL     1      95.510  94.493  79.746  1.00  0.00     0.010 C 
ENDROOT
BRANCH   1   2
ATOM      2  C   UNL     1      95.908  95.476  80.885  1.00  0.00     0.001 C 
BRANCH   2   3
ATOM      3  C   UNL     1      94.842  96.592  81.098  1.00  0.00     0.000 C 
BRANCH   3   4
ATOM      4  C   UNL     1      94.772  97.120  82.559  1.00  0.00    -0.000 C 
BRANCH   4   5
ATOM      5  C   UNL     1      95.910  98.129  82.887  1.00  0.00    -0.000 C 
BRANCH   5   6
ATOM      6  C   UNL     1      95.662  99.529  82.265  1.00  0.00    -0.003 C 
ATOM      7  C   UNL     1      94.980 100.509  83.245  1.00  0.00     0.004 C 
ENDBRANCH   5   6
ENDBRANCH   4   5
ENDBRANCH   3   4
ENDBRANCH   2   3
ENDBRANCH   1   2
BRANCH   1   8
ATOM      8  C   UNL     1      94.097  93.868  79.918  1.00  0.00     0.100 C 
BRANCH   8   9
ATOM      9  C   UNL     1      93.178  94.305  78.840  1.00  0.00     0.220 C 
ATOM     10  O   UNL     1      91.944  94.163  79.016  1.00  0.00    -0.275 OA
ATOM     11  N   UNL     1      93.668  94.873  77.699  1.00  0.00    -0.352 N 
ATOM     12  H   UNL     1      94.674  94.859  77.624  1.00  0.00     0.163 HD
BRANCH  11  13
ATOM     13  C   UNL     1      92.885  95.460  76.655  1.00  0.00     0.151 C 
BRANCH  13  14
ATOM     14  C   UNL     1      93.593  96.527  75.899  1.00  0.00    -0.025 A 
ATOM     15  C   UNL     1      92.942  97.751  75.616  1.00  0.00     0.056 A 
ATOM     16  C   UNL     1      94.920  96.339  75.447  1.00  0.00     0.009 A 
ATOM     17  C   UNL     1      93.609  98.781  74.913  1.00  0.00     0.160 A 
ATOM     18  C   UNL     1      95.589  97.360  74.749  1.00  0.00     0.050 A 
ATOM     19  C   UNL     1      94.936  98.577  74.473  1.00  0.00     0.157 A 
BRANCH  17  20
ATOM     20  O   UNL     1      92.962  99.951  74.603  1.00  0.00    -0.493 OA
ATOM     21  C   UNL     1      92.361  99.963  73.296  1.00  0.00     0.278 C 
ENDBRANCH  17  20
BRANCH  19  22
ATOM     22  O   UNL     1      95.581  99.546  73.774  1.00  0.00    -0.504 OA
ATOM     23  H   UNL     1      95.436  99.412  72.834  1.00  0.00     0.293 HD
ENDBRANCH  19  22
ENDBRANCH  13  14
ENDBRANCH  11  13
ENDBRANCH   8   9
ENDBRANCH   1   8
TORSDOF 11
ENDMDL
