MODEL 1
REMARK VINA RESULT:    -7.564      0.000      0.000
REMARK INTER + INTRA:         -13.666
REMARK INTER:                 -12.870
REMARK INTRA:                  -0.796
REMARK UNBOUND:                -0.796
REMARK SMILES C=C(C)[C@]12C[C@@H](C)[C@@]34O[C@](Cc5ccccc5)(O[C@@H]1[C@@H]3C=C(COC(=O)Cc1ccc(O)cc1)C[C@]1(O)C(=O)C(C)=C[C@@H]41)O2
REMARK SMILES IDX 23 1 22 2 21 3 20 4 9 5 8 6 10 7 6 8 18 10 44 11 19 12 5 13
REMARK SMILES IDX 7 14 4 15 11 16 12 17 13 18 17 19 14 20 16 21 15 22 2 23
REMARK SMILES IDX 3 24 1 25 35 26 36 27 43 28 38 29 42 30 39 32 40 33 41 34
REMARK SMILES IDX 37 35 24 37 25 38 26 39 27 40 28 41 29 42 34 43 30 44 33 45
REMARK SMILES IDX 31 46 32 47
REMARK H PARENT 37 36 32 48
REMARK Flexibility Score: 90.00
ROOT
ATOM      1  C   UNL     1      93.770  95.612  75.267  1.00  0.00     0.264 C 
ENDROOT
BRANCH   1   2
ATOM      2  C   UNL     1      94.592  96.744  74.695  1.00  0.00    -0.033 C 
ATOM      3  C   UNL     1      94.217  97.306  73.527  1.00  0.00    -0.015 C 
BRANCH   3   4
ATOM      4  C   UNL     1      94.905  98.391  72.713  1.00  0.00     0.078 C 
ATOM      5  O   UNL     1      93.935 100.551  73.427  1.00  0.00    -0.319 OA
ATOM      6  C   UNL     1      95.177  99.781  73.398  1.00  0.00     0.095 CG0
ATOM      7  C   UNL     1      93.151 100.500  72.219  1.00  0.00     0.289 C 
ATOM      8  C   UNL     1      96.248 100.547  72.517  1.00  0.00     0.023 C 
ATOM      9  G   UNL     1      95.553  99.595  74.897  1.00  0.00     0.000 G0
ATOM     10  O   UNL     1      92.811  99.160  71.878  1.00  0.00    -0.320 OA
ATOM     11  O   UNL     1      93.857 101.017  71.093  1.00  0.00    -0.313 OA
ATOM     12  C   UNL     1      94.089  98.682  71.430  1.00  0.00     0.170 C 
ATOM     13  C   UNL     1      96.093 100.207  71.003  1.00  0.00     0.049 C 
ATOM     14  C   UNL     1      96.280 102.075  72.696  1.00  0.00     0.011 C 
ATOM     15  C   UNL     1      94.641  99.894  70.639  1.00  0.00     0.122 C 
BRANCH   7  16
ATOM     16  C   UNL     1      91.889 101.311  72.438  1.00  0.00     0.135 C 
BRANCH  16  17
ATOM     17  C   UNL     1      91.137 101.547  71.152  1.00  0.00    -0.040 A 
ATOM     18  C   UNL     1      90.426 100.505  70.558  1.00  0.00     0.004 A 
ATOM     19  C   UNL     1      91.154 102.808  70.558  1.00  0.00     0.004 A 
ATOM     20  C   UNL     1      89.730 100.724  69.368  1.00  0.00     0.000 A 
ATOM     21  C   UNL     1      90.458 103.027  69.368  1.00  0.00     0.000 A 
ATOM     22  C   UNL     1      89.747 101.985  68.774  1.00  0.00     0.000 A 
ENDBRANCH  16  17
ENDBRANCH   7  16
BRANCH  15  23
ATOM     23  C   UNL     1      94.438  99.743  69.167  1.00  0.00    -0.046 C 
ATOM     24  C   UNL     1      93.625 100.812  68.498  1.00  0.00     0.042 C 
ATOM     25  C   UNL     1      94.952  98.712  68.482  1.00  0.00     0.010 C 
ENDBRANCH  15  23
ENDBRANCH   3   4
BRANCH   2  26
ATOM     26  C   UNL     1      95.781  97.114  75.561  1.00  0.00     0.078 C 
BRANCH  26  27
ATOM     27  C   UNL     1      96.525  98.402  75.213  1.00  0.00     0.140 C 
ATOM     28  C   UNL     1      95.562  99.569  74.912  1.00  0.00     0.086 CG0
ATOM     29  C   UNL     1      97.331  98.938  76.377  1.00  0.00     0.190 C 
ATOM     30  C   UNL     1      96.146 100.715  75.689  1.00  0.00    -0.010 C 
ATOM     31  G   UNL     1      95.182  99.775  73.417  1.00  0.00     0.000 G0
ATOM     32  O   UNL     1      98.098  98.284  77.068  1.00  0.00    -0.291 OA
ATOM     33  C   UNL     1      97.123 100.389  76.542  1.00  0.00    -0.008 C 
ATOM     34  C   UNL     1      97.859 101.227  77.510  1.00  0.00     0.048 C 
BRANCH  27  35
ATOM     35  O   UNL     1      97.494  98.183  74.202  1.00  0.00    -0.381 OA
ATOM     36  H   UNL     1      97.336  97.308  73.810  1.00  0.00     0.212 HD
ENDBRANCH  27  35
ENDBRANCH  26  27
ENDBRANCH   2  26
ENDBRANCH   1   2
BRANCH   1  37
ATOM     37  O   UNL     1      92.743  96.145  76.076  1.00  0.00    -0.461 OA
BRANCH  37  38
ATOM     38  C   UNL     1      92.264  95.322  77.070  1.00  0.00     0.310 C 
ATOM     39  O   UNL     1      92.945  94.815  77.950  1.00  0.00    -0.252 OA
BRANCH  38  40
ATOM     40  C   UNL     1      90.774  95.146  76.903  1.00  0.00     0.158 C 
BRANCH  40  41
ATOM     41  C   UNL     1      90.404  93.819  76.294  1.00  0.00    -0.037 A 
ATOM     42  C   UNL     1      90.558  93.613  74.923  1.00  0.00     0.008 A 
ATOM     43  C   UNL     1      89.906  92.795  77.100  1.00  0.00     0.008 A 
ATOM     44  C   UNL     1      90.214  92.384  74.358  1.00  0.00     0.046 A 
ATOM     45  C   UNL     1      89.563  91.566  76.536  1.00  0.00     0.046 A 
ATOM     46  C   UNL     1      89.717  91.361  75.166  1.00  0.00     0.115 A 
BRANCH  46  47
ATOM     47  O   UNL     1      89.381  90.163  74.615  1.00  0.00    -0.508 OA
ATOM     48  H   UNL     1      88.683  89.751  75.154  1.00  0.00     0.293 HD
ENDBRANCH  46  47
ENDBRANCH  40  41
ENDBRANCH  38  40
ENDBRANCH  37  38
ENDBRANCH   1  37
TORSDOF 10
ENDMDL
MODEL 2
REMARK VINA RESULT:    -7.130     17.653     21.116
REMARK INTER + INTRA:         -12.928
REMARK INTER:                 -12.523
REMARK INTRA:                  -0.406
REMARK UNBOUND:                -0.796
REMARK SMILES C=C(C)[C@]12C[C@@H](C)[C@@]34O[C@](Cc5ccccc5)(O[C@@H]1[C@@H]3C=C(COC(=O)Cc1ccc(O)cc1)C[C@]1(O)C(=O)C(C)=C[C@@H]41)O2
REMARK SMILES IDX 23 1 22 2 21 3 20 4 9 5 8 6 10 7 6 8 18 10 44 11 19 12 5 13
REMARK SMILES IDX 7 14 4 15 11 16 12 17 13 18 17 19 14 20 16 21 15 22 2 23
REMARK SMILES IDX 3 24 1 25 35 26 36 27 43 28 38 29 42 30 39 32 40 33 41 34
REMARK SMILES IDX 37 35 24 37 25 38 26 39 27 40 28 41 29 42 34 43 30 44 33 45
REMARK SMILES IDX 31 46 32 47
REMARK H PARENT 37 36 32 48
REMARK Flexibility Score: 90.00
ROOT
ATOM      1  C   UNL     1      93.128  87.523  88.512  1.00  0.00     0.264 C 
ENDROOT
BRANCH   1   2
ATOM      2  C   UNL     1      93.379  86.051  88.748  1.00  0.00    -0.033 C 
ATOM      3  C   UNL     1      93.506  85.226  87.688  1.00  0.00    -0.015 C 
BRANCH   3   4
ATOM      4  C   UNL     1      93.684  83.716  87.657  1.00  0.00     0.078 C 
ATOM      5  O   UNL     1      96.116  83.279  87.579  1.00  0.00    -0.319 OA
ATOM      6  C   UNL     1      94.922  83.093  88.400  1.00  0.00     0.095 CG0
ATOM      7  C   UNL     1      95.940  83.030  86.171  1.00  0.00     0.289 C 
ATOM      8  C   UNL     1      94.644  81.543  88.577  1.00  0.00     0.023 C 
ATOM      9  G   UNL     1      95.228  83.871  89.713  1.00  0.00     0.000 G0
ATOM     10  O   UNL     1      94.916  83.855  85.623  1.00  0.00    -0.320 OA
ATOM     11  O   UNL     1      95.537  81.688  85.904  1.00  0.00    -0.313 OA
ATOM     12  C   UNL     1      93.756  83.226  86.190  1.00  0.00     0.170 C 
ATOM     13  C   UNL     1      93.819  80.970  87.385  1.00  0.00     0.049 C 
ATOM     14  C   UNL     1      95.890  80.669  88.801  1.00  0.00     0.011 C 
ATOM     15  C   UNL     1      94.106  81.721  86.084  1.00  0.00     0.122 C 
BRANCH   7  16
ATOM     16  C   UNL     1      97.255  83.310  85.471  1.00  0.00     0.135 C 
BRANCH  16  17
ATOM     17  C   UNL     1      97.239  82.856  84.033  1.00  0.00    -0.040 A 
ATOM     18  C   UNL     1      97.904  81.687  83.663  1.00  0.00     0.004 A 
ATOM     19  C   UNL     1      96.559  83.605  83.073  1.00  0.00     0.004 A 
ATOM     20  C   UNL     1      97.889  81.267  82.332  1.00  0.00     0.000 A 
ATOM     21  C   UNL     1      96.543  83.185  81.743  1.00  0.00     0.000 A 
ATOM     22  C   UNL     1      97.208  82.017  81.373  1.00  0.00     0.000 A 
ENDBRANCH  16  17
ENDBRANCH   7  16
BRANCH  15  23
ATOM     23  C   UNL     1      93.468  81.078  84.896  1.00  0.00    -0.046 C 
ATOM     24  C   UNL     1      94.267  80.007  84.214  1.00  0.00     0.042 C 
ATOM     25  C   UNL     1      92.250  81.438  84.464  1.00  0.00     0.010 C 
ENDBRANCH  15  23
ENDBRANCH   3   4
BRANCH   2  26
ATOM     26  C   UNL     1      93.464  85.690  90.219  1.00  0.00     0.078 C 
BRANCH  26  27
ATOM     27  C   UNL     1      93.964  84.289  90.566  1.00  0.00     0.140 C 
ATOM     28  C   UNL     1      95.197  83.886  89.730  1.00  0.00     0.086 CG0
ATOM     29  C   UNL     1      94.489  84.195  91.983  1.00  0.00     0.190 C 
ATOM     30  C   UNL     1      96.135  83.302  90.749  1.00  0.00    -0.010 C 
ATOM     31  G   UNL     1      94.907  83.098  88.419  1.00  0.00     0.000 G0
ATOM     32  O   UNL     1      93.911  84.602  92.980  1.00  0.00    -0.291 OA
ATOM     33  C   UNL     1      95.780  83.484  92.024  1.00  0.00    -0.008 C 
ATOM     34  C   UNL     1      96.490  83.125  93.270  1.00  0.00     0.048 C 
BRANCH  27  35
ATOM     35  O   UNL     1      92.912  83.339  90.530  1.00  0.00    -0.381 OA
ATOM     36  H   UNL     1      92.656  83.201  89.603  1.00  0.00     0.212 HD
ENDBRANCH  27  35
ENDBRANCH  26  27
ENDBRANCH   2  26
ENDBRANCH   1   2
BRANCH   1  37
ATOM     37  O   UNL     1      93.975  88.280  89.349  1.00  0.00    -0.461 OA
BRANCH  37  38
ATOM     38  C   UNL     1      93.391  89.341  90.004  1.00  0.00     0.310 C 
ATOM     39  O   UNL     1      93.212  89.409  91.211  1.00  0.00    -0.252 OA
BRANCH  38  40
ATOM     40  C   UNL     1      93.009  90.403  89.001  1.00  0.00     0.158 C 
BRANCH  40  41
ATOM     41  C   UNL     1      93.015  91.792  89.584  1.00  0.00    -0.037 A 
ATOM     42  C   UNL     1      94.093  92.645  89.345  1.00  0.00     0.008 A 
ATOM     43  C   UNL     1      91.943  92.226  90.364  1.00  0.00     0.008 A 
ATOM     44  C   UNL     1      94.099  93.931  89.887  1.00  0.00     0.046 A 
ATOM     45  C   UNL     1      91.948  93.512  90.905  1.00  0.00     0.046 A 
ATOM     46  C   UNL     1      93.026  94.364  90.667  1.00  0.00     0.115 A 
BRANCH  46  47
ATOM     47  O   UNL     1      93.032  95.618  91.195  1.00  0.00    -0.508 OA
ATOM     48  H   UNL     1      93.650  95.641  91.946  1.00  0.00     0.293 HD
ENDBRANCH  46  47
ENDBRANCH  40  41
ENDBRANCH  38  40
ENDBRANCH  37  38
ENDBRANCH   1  37
TORSDOF 10
ENDMDL
MODEL 3
REMARK VINA RESULT:    -7.010      5.083      9.235
REMARK INTER + INTRA:         -12.724
REMARK INTER:                 -12.859
REMARK INTRA:                   0.135
REMARK UNBOUND:                -0.796
REMARK SMILES C=C(C)[C@]12C[C@@H](C)[C@@]34O[C@](Cc5ccccc5)(O[C@@H]1[C@@H]3C=C(COC(=O)Cc1ccc(O)cc1)C[C@]1(O)C(=O)C(C)=C[C@@H]41)O2
REMARK SMILES IDX 23 1 22 2 21 3 20 4 9 5 8 6 10 7 6 8 18 10 44 11 19 12 5 13
REMARK SMILES IDX 7 14 4 15 11 16 12 17 13 18 17 19 14 20 16 21 15 22 2 23
REMARK SMILES IDX 3 24 1 25 35 26 36 27 43 28 38 29 42 30 39 32 40 33 41 34
REMARK SMILES IDX 37 35 24 37 25 38 26 39 27 40 28 41 29 42 34 43 30 44 33 45
REMARK SMILES IDX 31 46 32 47
REMARK H PARENT 37 36 32 48
REMARK Flexibility Score: 90.00
ROOT
ATOM      1  C   UNL     1      94.650  96.987  76.543  1.00  0.00     0.264 C 
ENDROOT
BRANCH   1   2
ATOM      2  C   UNL     1      95.744  97.846  77.134  1.00  0.00    -0.033 C 
ATOM      3  C   UNL     1      95.638  98.260  78.414  1.00  0.00    -0.015 C 
BRANCH   3   4
ATOM      4  C   UNL     1      96.550  99.180  79.209  1.00  0.00     0.078 C 
ATOM      5  O   UNL     1      98.200  97.742  80.360  1.00  0.00    -0.319 OA
ATOM      6  C   UNL     1      98.067  98.791  79.351  1.00  0.00     0.095 CG0
ATOM      7  C   UNL     1      97.405  97.927  81.547  1.00  0.00     0.289 C 
ATOM      8  C   UNL     1      98.850 100.082  79.831  1.00  0.00     0.023 C 
ATOM      9  G   UNL     1      98.596  98.138  78.040  1.00  0.00     0.000 G0
ATOM     10  O   UNL     1      96.020  98.038  81.231  1.00  0.00    -0.320 OA
ATOM     11  O   UNL     1      97.739  99.126  82.242  1.00  0.00    -0.313 OA
ATOM     12  C   UNL     1      96.001  99.350  80.647  1.00  0.00     0.170 C 
ATOM     13  C   UNL     1      97.970 100.973  80.760  1.00  0.00     0.049 C 
ATOM     14  C   UNL     1     100.205  99.819  80.511  1.00  0.00     0.011 C 
ATOM     15  C   UNL     1      96.970 100.139  81.562  1.00  0.00     0.122 C 
BRANCH   7  16
ATOM     16  C   UNL     1      97.629  96.736  82.458  1.00  0.00     0.135 C 
BRANCH  16  17
ATOM     17  C   UNL     1      98.567  97.061  83.594  1.00  0.00    -0.040 A 
ATOM     18  C   UNL     1      99.747  96.335  83.752  1.00  0.00     0.004 A 
ATOM     19  C   UNL     1      98.254  98.087  84.484  1.00  0.00     0.004 A 
ATOM     20  C   UNL     1     100.616  96.636  84.802  1.00  0.00     0.000 A 
ATOM     21  C   UNL     1      99.122  98.387  85.535  1.00  0.00     0.000 A 
ATOM     22  C   UNL     1     100.302  97.662  85.693  1.00  0.00     0.000 A 
ENDBRANCH  16  17
ENDBRANCH   7  16
BRANCH  15  23
ATOM     23  C   UNL     1      96.242 100.945  82.587  1.00  0.00    -0.046 C 
ATOM     24  C   UNL     1      97.072 101.487  83.714  1.00  0.00     0.042 C 
ATOM     25  C   UNL     1      94.923 101.172  82.506  1.00  0.00     0.010 C 
ENDBRANCH  15  23
ENDBRANCH   3   4
BRANCH   2  26
ATOM     26  C   UNL     1      96.869  98.133  76.157  1.00  0.00     0.078 C 
BRANCH  26  27
ATOM     27  C   UNL     1      98.122  98.805  76.715  1.00  0.00     0.140 C 
ATOM     28  C   UNL     1      98.593  98.159  78.035  1.00  0.00     0.086 CG0
ATOM     29  C   UNL     1      99.327  98.621  75.816  1.00  0.00     0.190 C 
ATOM     30  C   UNL     1     100.074  97.999  77.838  1.00  0.00    -0.010 C 
ATOM     31  G   UNL     1      98.062  98.812  79.344  1.00  0.00     0.000 G0
ATOM     32  O   UNL     1      99.348  98.819  74.611  1.00  0.00    -0.291 OA
ATOM     33  C   UNL     1     100.514  98.224  76.596  1.00  0.00    -0.008 C 
ATOM     34  C   UNL     1     101.871  98.085  76.028  1.00  0.00     0.048 C 
BRANCH  27  35
ATOM     35  O   UNL     1      97.967 100.212  76.789  1.00  0.00    -0.381 OA
ATOM     36  H   UNL     1      97.173 100.460  76.285  1.00  0.00     0.212 HD
ENDBRANCH  27  35
ENDBRANCH  26  27
ENDBRANCH   2  26
ENDBRANCH   1   2
BRANCH   1  37
ATOM     37  O   UNL     1      93.578  96.901  77.458  1.00  0.00    -0.461 OA
BRANCH  37  38
ATOM     38  C   UNL     1      92.993  95.664  77.593  1.00  0.00     0.310 C 
ATOM     39  O   UNL     1      93.563  94.656  77.986  1.00  0.00    -0.252 OA
BRANCH  38  40
ATOM     40  C   UNL     1      91.542  95.745  77.183  1.00  0.00     0.158 C 
BRANCH  40  41
ATOM     41  C   UNL     1      90.986  94.423  76.721  1.00  0.00    -0.037 A 
ATOM     42  C   UNL     1      91.182  94.006  75.405  1.00  0.00     0.008 A 
ATOM     43  C   UNL     1      90.276  93.616  77.609  1.00  0.00     0.008 A 
ATOM     44  C   UNL     1      90.667  92.782  74.976  1.00  0.00     0.046 A 
ATOM     45  C   UNL     1      89.761  92.392  77.182  1.00  0.00     0.046 A 
ATOM     46  C   UNL     1      89.956  91.975  75.865  1.00  0.00     0.115 A 
BRANCH  46  47
ATOM     47  O   UNL     1      89.453  90.782  75.447  1.00  0.00    -0.508 OA
ATOM     48  H   UNL     1      89.858  90.551  74.593  1.00  0.00     0.293 HD
ENDBRANCH  46  47
ENDBRANCH  40  41
ENDBRANCH  38  40
ENDBRANCH  37  38
ENDBRANCH   1  37
TORSDOF 10
ENDMDL
MODEL 4
REMARK VINA RESULT:    -7.003     15.530     21.143
REMARK INTER + INTRA:         -12.711
REMARK INTER:                 -12.068
REMARK INTRA:                  -0.643
REMARK UNBOUND:                -0.796
REMARK SMILES C=C(C)[C@]12C[C@@H](C)[C@@]34O[C@](Cc5ccccc5)(O[C@@H]1[C@@H]3C=C(COC(=O)Cc1ccc(O)cc1)C[C@]1(O)C(=O)C(C)=C[C@@H]41)O2
REMARK SMILES IDX 23 1 22 2 21 3 20 4 9 5 8 6 10 7 6 8 18 10 44 11 19 12 5 13
REMARK SMILES IDX 7 14 4 15 11 16 12 17 13 18 17 19 14 20 16 21 15 22 2 23
REMARK SMILES IDX 3 24 1 25 35 26 36 27 43 28 38 29 42 30 39 32 40 33 41 34
REMARK SMILES IDX 37 35 24 37 25 38 26 39 27 40 28 41 29 42 34 43 30 44 33 45
REMARK SMILES IDX 31 46 32 47
REMARK H PARENT 37 36 32 48
REMARK Flexibility Score: 90.00
ROOT
ATOM      1  C   UNL     1      96.741  83.547  80.104  1.00  0.00     0.264 C 
ENDROOT
BRANCH   1   2
ATOM      2  C   UNL     1      97.173  82.468  81.070  1.00  0.00    -0.033 C 
ATOM      3  C   UNL     1      97.073  82.693  82.397  1.00  0.00    -0.015 C 
BRANCH   3   4
ATOM      4  C   UNL     1      97.504  81.813  83.560  1.00  0.00     0.078 C 
ATOM      5  O   UNL     1      95.547  80.436  84.185  1.00  0.00    -0.319 OA
ATOM      6  C   UNL     1      96.909  80.360  83.660  1.00  0.00     0.095 CG0
ATOM      7  C   UNL     1      95.360  81.352  85.281  1.00  0.00     0.289 C 
ATOM      8  C   UNL     1      97.814  79.540  84.668  1.00  0.00     0.023 C 
ATOM      9  G   UNL     1      96.744  79.731  82.246  1.00  0.00     0.000 G0
ATOM     10  O   UNL     1      95.751  82.675  84.923  1.00  0.00    -0.320 OA
ATOM     11  O   UNL     1      96.154  81.009  86.415  1.00  0.00    -0.313 OA
ATOM     12  C   UNL     1      97.179  82.517  84.900  1.00  0.00     0.170 C 
ATOM     13  C   UNL     1      98.383  80.452  85.798  1.00  0.00     0.049 C 
ATOM     14  C   UNL     1      97.149  78.304  85.298  1.00  0.00     0.011 C 
ATOM     15  C   UNL     1      97.435  81.606  86.126  1.00  0.00     0.122 C 
BRANCH   7  16
ATOM     16  C   UNL     1      93.895  81.337  85.668  1.00  0.00     0.135 C 
BRANCH  16  17
ATOM     17  C   UNL     1      93.693  81.639  87.132  1.00  0.00    -0.040 A 
ATOM     18  C   UNL     1      93.890  82.933  87.612  1.00  0.00     0.004 A 
ATOM     19  C   UNL     1      93.308  80.622  88.006  1.00  0.00     0.004 A 
ATOM     20  C   UNL     1      93.703  83.212  88.966  1.00  0.00     0.000 A 
ATOM     21  C   UNL     1      93.120  80.901  89.360  1.00  0.00     0.000 A 
ATOM     22  C   UNL     1      93.318  82.196  89.840  1.00  0.00     0.000 A 
ENDBRANCH  16  17
ENDBRANCH   7  16
BRANCH  15  23
ATOM     23  C   UNL     1      97.872  82.385  87.323  1.00  0.00    -0.046 C 
ATOM     24  C   UNL     1      98.819  83.520  87.065  1.00  0.00     0.042 C 
ATOM     25  C   UNL     1      97.443  82.088  88.558  1.00  0.00     0.010 C 
ENDBRANCH  15  23
ENDBRANCH   3   4
BRANCH   2  26
ATOM     26  C   UNL     1      97.676  81.215  80.378  1.00  0.00     0.078 C 
BRANCH  26  27
ATOM     27  C   UNL     1      97.921  79.986  81.251  1.00  0.00     0.140 C 
ATOM     28  C   UNL     1      96.759  79.725  82.231  1.00  0.00     0.086 CG0
ATOM     29  C   UNL     1      97.964  78.703  80.448  1.00  0.00     0.190 C 
ATOM     30  C   UNL     1      96.514  78.247  82.098  1.00  0.00    -0.010 C 
ATOM     31  G   UNL     1      96.904  80.351  83.649  1.00  0.00     0.000 G0
ATOM     32  O   UNL     1      98.615  78.527  79.429  1.00  0.00    -0.291 OA
ATOM     33  C   UNL     1      97.154  77.650  81.089  1.00  0.00    -0.008 C 
ATOM     34  C   UNL     1      97.089  76.252  80.616  1.00  0.00     0.048 C 
BRANCH  27  35
ATOM     35  O   UNL     1      99.194  80.037  81.873  1.00  0.00    -0.381 OA
ATOM     36  H   UNL     1      99.364  80.954  82.148  1.00  0.00     0.212 HD
ENDBRANCH  27  35
ENDBRANCH  26  27
ENDBRANCH   2  26
ENDBRANCH   1   2
BRANCH   1  37
ATOM     37  O   UNL     1      97.522  83.462  78.931  1.00  0.00    -0.461 OA
BRANCH  37  38
ATOM     38  C   UNL     1      96.836  83.523  77.739  1.00  0.00     0.310 C 
ATOM     39  O   UNL     1      95.847  84.211  77.533  1.00  0.00    -0.252 OA
BRANCH  38  40
ATOM     40  C   UNL     1      97.495  82.611  76.732  1.00  0.00     0.158 C 
BRANCH  40  41
ATOM     41  C   UNL     1      98.231  83.361  75.653  1.00  0.00    -0.037 A 
ATOM     42  C   UNL     1      97.536  83.854  74.548  1.00  0.00     0.008 A 
ATOM     43  C   UNL     1      99.606  83.563  75.757  1.00  0.00     0.008 A 
ATOM     44  C   UNL     1      98.217  84.548  73.548  1.00  0.00     0.046 A 
ATOM     45  C   UNL     1     100.288  84.258  74.757  1.00  0.00     0.046 A 
ATOM     46  C   UNL     1      99.594  84.750  73.653  1.00  0.00     0.115 A 
BRANCH  46  47
ATOM     47  O   UNL     1     100.258  85.427  72.677  1.00  0.00    -0.508 OA
ATOM     48  H   UNL     1     100.245  86.377  72.886  1.00  0.00     0.293 HD
ENDBRANCH  46  47
ENDBRANCH  40  41
ENDBRANCH  38  40
ENDBRANCH  37  38
ENDBRANCH   1  37
TORSDOF 10
ENDMDL
MODEL 5
REMARK VINA RESULT:    -6.657     15.534     21.065
REMARK INTER + INTRA:         -12.123
REMARK INTER:                 -11.664
REMARK INTRA:                  -0.459
REMARK UNBOUND:                -0.796
REMARK SMILES C=C(C)[C@]12C[C@@H](C)[C@@]34O[C@](Cc5ccccc5)(O[C@@H]1[C@@H]3C=C(COC(=O)Cc1ccc(O)cc1)C[C@]1(O)C(=O)C(C)=C[C@@H]41)O2
REMARK SMILES IDX 23 1 22 2 21 3 20 4 9 5 8 6 10 7 6 8 18 10 44 11 19 12 5 13
REMARK SMILES IDX 7 14 4 15 11 16 12 17 13 18 17 19 14 20 16 21 15 22 2 23
REMARK SMILES IDX 3 24 1 25 35 26 36 27 43 28 38 29 42 30 39 32 40 33 41 34
REMARK SMILES IDX 37 35 24 37 25 38 26 39 27 40 28 41 29 42 34 43 30 44 33 45
REMARK SMILES IDX 31 46 32 47
REMARK H PARENT 37 36 32 48
REMARK Flexibility Score: 90.00
ROOT
ATOM      1  C   UNL     1      97.203  80.615  80.936  1.00  0.00     0.264 C 
ENDROOT
BRANCH   1   2
ATOM      2  C   UNL     1      97.422  80.926  82.398  1.00  0.00    -0.033 C 
ATOM      3  C   UNL     1      96.429  81.504  83.105  1.00  0.00    -0.015 C 
BRANCH   3   4
ATOM      4  C   UNL     1      96.422  81.981  84.549  1.00  0.00     0.078 C 
ATOM      5  O   UNL     1      95.528  80.125  85.917  1.00  0.00    -0.319 OA
ATOM      6  C   UNL     1      96.723  80.934  85.684  1.00  0.00     0.095 CG0
ATOM      7  C   UNL     1      94.286  80.854  85.941  1.00  0.00     0.289 C 
ATOM      8  C   UNL     1      97.073  81.743  87.001  1.00  0.00     0.023 C 
ATOM      9  G   UNL     1      97.801  79.911  85.222  1.00  0.00     0.000 G0
ATOM     10  O   UNL     1      94.083  81.570  84.726  1.00  0.00    -0.320 OA
ATOM     11  O   UNL     1      94.252  81.834  86.975  1.00  0.00    -0.313 OA
ATOM     12  C   UNL     1      95.052  82.618  84.886  1.00  0.00     0.170 C 
ATOM     13  C   UNL     1      96.276  83.081  87.079  1.00  0.00     0.049 C 
ATOM     14  C   UNL     1      96.898  80.968  88.319  1.00  0.00     0.011 C 
ATOM     15  C   UNL     1      94.916  82.972  86.388  1.00  0.00     0.122 C 
BRANCH   7  16
ATOM     16  C   UNL     1      93.158  79.863  86.147  1.00  0.00     0.135 C 
BRANCH  16  17
ATOM     17  C   UNL     1      91.915  80.253  85.387  1.00  0.00    -0.040 A 
ATOM     18  C   UNL     1      91.419  79.419  84.386  1.00  0.00     0.004 A 
ATOM     19  C   UNL     1      91.262  81.449  85.686  1.00  0.00     0.004 A 
ATOM     20  C   UNL     1      90.269  79.780  83.683  1.00  0.00     0.000 A 
ATOM     21  C   UNL     1      90.112  81.810  84.983  1.00  0.00     0.000 A 
ATOM     22  C   UNL     1      89.616  80.976  83.982  1.00  0.00     0.000 A 
ENDBRANCH  16  17
ENDBRANCH   7  16
BRANCH  15  23
ATOM     23  C   UNL     1      94.063  84.179  86.605  1.00  0.00    -0.046 C 
ATOM     24  C   UNL     1      93.435  84.310  87.961  1.00  0.00     0.042 C 
ATOM     25  C   UNL     1      93.869  85.093  85.643  1.00  0.00     0.010 C 
ENDBRANCH  15  23
ENDBRANCH   3   4
BRANCH   2  26
ATOM     26  C   UNL     1      98.797  80.519  82.895  1.00  0.00     0.078 C 
BRANCH  26  27
ATOM     27  C   UNL     1      99.017  80.504  84.406  1.00  0.00     0.140 C 
ATOM     28  C   UNL     1      97.807  79.922  85.167  1.00  0.00     0.086 CG0
ATOM     29  C   UNL     1     100.139  79.576  84.820  1.00  0.00     0.190 C 
ATOM     30  C   UNL     1      98.436  78.976  86.152  1.00  0.00    -0.010 C 
ATOM     31  G   UNL     1      96.750  80.950  85.664  1.00  0.00     0.000 G0
ATOM     32  O   UNL     1     101.253  79.544  84.318  1.00  0.00    -0.291 OA
ATOM     33  C   UNL     1      99.738  78.739  85.966  1.00  0.00    -0.008 C 
ATOM     34  C   UNL     1     100.648  77.818  86.679  1.00  0.00     0.048 C 
BRANCH  27  35
ATOM     35  O   UNL     1      99.435  81.773  84.881  1.00  0.00    -0.381 OA
ATOM     36  H   UNL     1     100.064  82.148  84.242  1.00  0.00     0.212 HD
ENDBRANCH  27  35
ENDBRANCH  26  27
ENDBRANCH   2  26
ENDBRANCH   1   2
BRANCH   1  37
ATOM     37  O   UNL     1      98.302  81.090  80.188  1.00  0.00    -0.461 OA
BRANCH  37  38
ATOM     38  C   UNL     1      98.064  82.181  79.384  1.00  0.00     0.310 C 
ATOM     39  O   UNL     1      98.101  83.347  79.753  1.00  0.00    -0.252 OA
BRANCH  38  40
ATOM     40  C   UNL     1      97.751  81.715  77.982  1.00  0.00     0.158 C 
BRANCH  40  41
ATOM     41  C   UNL     1      98.103  82.736  76.932  1.00  0.00    -0.037 A 
ATOM     42  C   UNL     1      99.415  82.834  76.466  1.00  0.00     0.008 A 
ATOM     43  C   UNL     1      97.119  83.583  76.424  1.00  0.00     0.008 A 
ATOM     44  C   UNL     1      99.741  83.779  75.493  1.00  0.00     0.046 A 
ATOM     45  C   UNL     1      97.445  84.529  75.451  1.00  0.00     0.046 A 
ATOM     46  C   UNL     1      98.755  84.627  74.986  1.00  0.00     0.115 A 
BRANCH  46  47
ATOM     47  O   UNL     1      99.074  85.550  74.038  1.00  0.00    -0.508 OA
ATOM     48  H   UNL     1      99.007  86.439  74.428  1.00  0.00     0.293 HD
ENDBRANCH  46  47
ENDBRANCH  40  41
ENDBRANCH  38  40
ENDBRANCH  37  38
ENDBRANCH   1  37
TORSDOF 10
ENDMDL
MODEL 6
REMARK VINA RESULT:    -6.391     18.091     22.065
REMARK INTER + INTRA:         -11.670
REMARK INTER:                  -9.777
REMARK INTRA:                  -1.893
REMARK UNBOUND:                -0.796
REMARK SMILES C=C(C)[C@]12C[C@@H](C)[C@@]34O[C@](Cc5ccccc5)(O[C@@H]1[C@@H]3C=C(COC(=O)Cc1ccc(O)cc1)C[C@]1(O)C(=O)C(C)=C[C@@H]41)O2
REMARK SMILES IDX 23 1 22 2 21 3 20 4 9 5 8 6 10 7 6 8 18 10 44 11 19 12 5 13
REMARK SMILES IDX 7 14 4 15 11 16 12 17 13 18 17 19 14 20 16 21 15 22 2 23
REMARK SMILES IDX 3 24 1 25 35 26 36 27 43 28 38 29 42 30 39 32 40 33 41 34
REMARK SMILES IDX 37 35 24 37 25 38 26 39 27 40 28 41 29 42 34 43 30 44 33 45
REMARK SMILES IDX 31 46 32 47
REMARK H PARENT 37 36 32 48
REMARK Flexibility Score: 90.00
ROOT
ATOM      1  C   UNL     1      95.944  76.172  86.738  1.00  0.00     0.264 C 
ENDROOT
BRANCH   1   2
ATOM      2  C   UNL     1      96.385  77.616  86.677  1.00  0.00    -0.033 C 
ATOM      3  C   UNL     1      97.229  78.006  85.699  1.00  0.00    -0.015 C 
BRANCH   3   4
ATOM      4  C   UNL     1      97.874  79.363  85.465  1.00  0.00     0.078 C 
ATOM      5  O   UNL     1      96.405  80.598  83.904  1.00  0.00    -0.319 OA
ATOM      6  C   UNL     1      96.937  80.611  85.265  1.00  0.00     0.095 CG0
ATOM      7  C   UNL     1      97.355  80.256  82.876  1.00  0.00     0.289 C 
ATOM      8  C   UNL     1      97.821  81.911  85.469  1.00  0.00     0.023 C 
ATOM      9  G   UNL     1      95.678  80.510  86.175  1.00  0.00     0.000 G0
ATOM     10  O   UNL     1      97.941  78.980  83.115  1.00  0.00    -0.320 OA
ATOM     11  O   UNL     1      98.444  81.175  82.817  1.00  0.00    -0.313 OA
ATOM     12  C   UNL     1      98.797  79.300  84.223  1.00  0.00     0.170 C 
ATOM     13  C   UNL     1      99.286  81.689  84.982  1.00  0.00     0.049 C 
ATOM     14  C   UNL     1      97.262  83.196  84.835  1.00  0.00     0.011 C 
ATOM     15  C   UNL     1      99.353  80.689  83.827  1.00  0.00     0.122 C 
BRANCH   7  16
ATOM     16  C   UNL     1      96.630  80.247  81.545  1.00  0.00     0.135 C 
BRANCH  16  17
ATOM     17  C   UNL     1      97.231  81.224  80.565  1.00  0.00    -0.040 A 
ATOM     18  C   UNL     1      97.985  80.758  79.489  1.00  0.00     0.004 A 
ATOM     19  C   UNL     1      97.033  82.594  80.738  1.00  0.00     0.004 A 
ATOM     20  C   UNL     1      98.541  81.662  78.583  1.00  0.00     0.000 A 
ATOM     21  C   UNL     1      97.589  83.498  79.831  1.00  0.00     0.000 A 
ATOM     22  C   UNL     1      98.342  83.032  78.755  1.00  0.00     0.000 A 
ENDBRANCH  16  17
ENDBRANCH   7  16
BRANCH  15  23
ATOM     23  C   UNL     1     100.717  80.598  83.226  1.00  0.00    -0.046 C 
ATOM     24  C   UNL     1     100.822  80.934  81.768  1.00  0.00     0.042 C 
ATOM     25  C   UNL     1     101.788  80.235  83.948  1.00  0.00     0.010 C 
ENDBRANCH  15  23
ENDBRANCH   3   4
BRANCH   2  26
ATOM     26  C   UNL     1      95.780  78.471  87.774  1.00  0.00     0.078 C 
BRANCH  26  27
ATOM     27  C   UNL     1      95.929  79.985  87.641  1.00  0.00     0.140 C 
ATOM     28  C   UNL     1      95.688  80.471  86.197  1.00  0.00     0.086 CG0
ATOM     29  C   UNL     1      94.874  80.743  88.419  1.00  0.00     0.190 C 
ATOM     30  C   UNL     1      94.784  81.659  86.374  1.00  0.00    -0.010 C 
ATOM     31  G   UNL     1      96.952  80.601  85.297  1.00  0.00     0.000 G0
ATOM     32  O   UNL     1      94.569  80.536  89.584  1.00  0.00    -0.291 OA
ATOM     33  C   UNL     1      94.288  81.823  87.604  1.00  0.00    -0.008 C 
ATOM     34  C   UNL     1      93.319  82.815  88.115  1.00  0.00     0.048 C 
BRANCH  27  35
ATOM     35  O   UNL     1      97.151  80.437  88.201  1.00  0.00    -0.381 OA
ATOM     36  H   UNL     1      97.349  81.317  87.837  1.00  0.00     0.212 HD
ENDBRANCH  27  35
ENDBRANCH  26  27
ENDBRANCH   2  26
ENDBRANCH   1   2
BRANCH   1  37
ATOM     37  O   UNL     1      96.105  75.580  85.467  1.00  0.00    -0.461 OA
BRANCH  37  38
ATOM     38  C   UNL     1      94.952  75.173  84.836  1.00  0.00     0.310 C 
ATOM     39  O   UNL     1      94.286  74.197  85.152  1.00  0.00    -0.252 OA
BRANCH  38  40
ATOM     40  C   UNL     1      94.640  76.116  83.699  1.00  0.00     0.158 C 
BRANCH  40  41
ATOM     41  C   UNL     1      93.425  76.968  83.960  1.00  0.00    -0.037 A 
ATOM     42  C   UNL     1      93.567  78.225  84.548  1.00  0.00     0.008 A 
ATOM     43  C   UNL     1      92.157  76.501  83.613  1.00  0.00     0.008 A 
ATOM     44  C   UNL     1      92.442  79.014  84.790  1.00  0.00     0.046 A 
ATOM     45  C   UNL     1      91.032  77.289  83.854  1.00  0.00     0.046 A 
ATOM     46  C   UNL     1      91.174  78.545  84.443  1.00  0.00     0.115 A 
BRANCH  46  47
ATOM     47  O   UNL     1      90.077  79.315  84.679  1.00  0.00    -0.508 OA
ATOM     48  H   UNL     1      89.283  78.826  84.400  1.00  0.00     0.293 HD
ENDBRANCH  46  47
ENDBRANCH  40  41
ENDBRANCH  38  40
ENDBRANCH  37  38
ENDBRANCH   1  37
TORSDOF 10
ENDMDL
MODEL 7
REMARK VINA RESULT:    -6.244     16.355     20.570
REMARK INTER + INTRA:         -11.419
REMARK INTER:                 -10.468
REMARK INTRA:                  -0.952
REMARK UNBOUND:                -0.796
REMARK SMILES C=C(C)[C@]12C[C@@H](C)[C@@]34O[C@](Cc5ccccc5)(O[C@@H]1[C@@H]3C=C(COC(=O)Cc1ccc(O)cc1)C[C@]1(O)C(=O)C(C)=C[C@@H]41)O2
REMARK SMILES IDX 23 1 22 2 21 3 20 4 9 5 8 6 10 7 6 8 18 10 44 11 19 12 5 13
REMARK SMILES IDX 7 14 4 15 11 16 12 17 13 18 17 19 14 20 16 21 15 22 2 23
REMARK SMILES IDX 3 24 1 25 35 26 36 27 43 28 38 29 42 30 39 32 40 33 41 34
REMARK SMILES IDX 37 35 24 37 25 38 26 39 27 40 28 41 29 42 34 43 30 44 33 45
REMARK SMILES IDX 31 46 32 47
REMARK H PARENT 37 36 32 48
REMARK Flexibility Score: 90.00
ROOT
ATOM      1  C   UNL     1      97.107  76.227  82.348  1.00  0.00     0.264 C 
ENDROOT
BRANCH   1   2
ATOM      2  C   UNL     1      97.662  77.632  82.292  1.00  0.00    -0.033 C 
ATOM      3  C   UNL     1      98.453  77.988  81.259  1.00  0.00    -0.015 C 
BRANCH   3   4
ATOM      4  C   UNL     1      99.187  79.296  81.011  1.00  0.00     0.078 C 
ATOM      5  O   UNL     1      97.699  80.709  79.632  1.00  0.00    -0.319 OA
ATOM      6  C   UNL     1      98.348  80.624  80.939  1.00  0.00     0.095 CG0
ATOM      7  C   UNL     1      98.521  80.332  78.511  1.00  0.00     0.289 C 
ATOM      8  C   UNL     1      99.353  81.837  81.103  1.00  0.00     0.023 C 
ATOM      9  G   UNL     1      97.169  80.590  81.955  1.00  0.00     0.000 G0
ATOM     10  O   UNL     1      99.014  79.003  78.654  1.00  0.00    -0.320 OA
ATOM     11  O   UNL     1      99.675  81.160  78.383  1.00  0.00    -0.313 OA
ATOM     12  C   UNL     1      99.989  79.207  79.689  1.00  0.00     0.170 C 
ATOM     13  C   UNL     1     100.745  81.515  80.478  1.00  0.00     0.049 C 
ATOM     14  C   UNL     1      98.853  83.188  80.566  1.00  0.00     0.011 C 
ATOM     15  C   UNL     1     100.624  80.561  79.289  1.00  0.00     0.122 C 
BRANCH   7  16
ATOM     16  C   UNL     1      97.684  80.436  77.251  1.00  0.00     0.135 C 
BRANCH  16  17
ATOM     17  C   UNL     1      97.718  81.824  76.662  1.00  0.00    -0.040 A 
ATOM     18  C   UNL     1      98.511  82.089  75.546  1.00  0.00     0.004 A 
ATOM     19  C   UNL     1      96.955  82.842  77.233  1.00  0.00     0.004 A 
ATOM     20  C   UNL     1      98.542  83.373  75.000  1.00  0.00     0.000 A 
ATOM     21  C   UNL     1      96.985  84.126  76.688  1.00  0.00     0.000 A 
ATOM     22  C   UNL     1      97.779  84.391  75.572  1.00  0.00     0.000 A 
ENDBRANCH  16  17
ENDBRANCH   7  16
BRANCH  15  23
ATOM     23  C   UNL     1     101.918  80.381  78.564  1.00  0.00    -0.046 C 
ATOM     24  C   UNL     1     101.993  79.215  77.623  1.00  0.00     0.042 C 
ATOM     25  C   UNL     1     102.954  81.214  78.743  1.00  0.00     0.010 C 
ENDBRANCH  15  23
ENDBRANCH   3   4
BRANCH   2  26
ATOM     26  C   UNL     1      97.223  78.492  83.462  1.00  0.00     0.078 C 
BRANCH  26  27
ATOM     27  C   UNL     1      97.510  79.990  83.373  1.00  0.00     0.140 C 
ATOM     28  C   UNL     1      97.176  80.567  81.982  1.00  0.00     0.086 CG0
ATOM     29  C   UNL     1      96.619  80.806  84.286  1.00  0.00     0.190 C 
ATOM     30  C   UNL     1      96.418  81.826  82.297  1.00  0.00    -0.010 C 
ATOM     31  G   UNL     1      98.350  80.618  80.961  1.00  0.00     0.000 G0
ATOM     32  O   UNL     1      96.413  80.573  85.467  1.00  0.00    -0.291 OA
ATOM     33  C   UNL     1      96.065  81.976  83.578  1.00  0.00    -0.008 C 
ATOM     34  C   UNL     1      95.257  83.030  84.225  1.00  0.00     0.048 C 
BRANCH  27  35
ATOM     35  O   UNL     1      98.821  80.295  83.820  1.00  0.00    -0.381 OA
ATOM     36  H   UNL     1      99.278  80.786  83.116  1.00  0.00     0.212 HD
ENDBRANCH  27  35
ENDBRANCH  26  27
ENDBRANCH   2  26
ENDBRANCH   1   2
BRANCH   1  37
ATOM     37  O   UNL     1      96.098  76.085  81.371  1.00  0.00    -0.461 OA
BRANCH  37  38
ATOM     38  C   UNL     1      95.007  75.328  81.731  1.00  0.00     0.310 C 
ATOM     39  O   UNL     1      94.308  74.691  80.956  1.00  0.00    -0.252 OA
BRANCH  38  40
ATOM     40  C   UNL     1      94.809  75.409  83.225  1.00  0.00     0.158 C 
BRANCH  40  41
ATOM     41  C   UNL     1      93.666  76.309  83.619  1.00  0.00    -0.037 A 
ATOM     42  C   UNL     1      93.924  77.537  84.229  1.00  0.00     0.008 A 
ATOM     43  C   UNL     1      92.351  75.915  83.375  1.00  0.00     0.008 A 
ATOM     44  C   UNL     1      92.867  78.371  84.594  1.00  0.00     0.046 A 
ATOM     45  C   UNL     1      91.293  76.749  83.740  1.00  0.00     0.046 A 
ATOM     46  C   UNL     1      91.551  77.976  84.350  1.00  0.00     0.115 A 
BRANCH  46  47
ATOM     47  O   UNL     1      90.520  78.789  84.707  1.00  0.00    -0.508 OA
ATOM     48  H   UNL     1      89.680  78.349  84.485  1.00  0.00     0.293 HD
ENDBRANCH  46  47
ENDBRANCH  40  41
ENDBRANCH  38  40
ENDBRANCH  37  38
ENDBRANCH   1  37
TORSDOF 10
ENDMDL
MODEL 8
REMARK VINA RESULT:    -6.212     20.790     24.508
REMARK INTER + INTRA:         -11.366
REMARK INTER:                 -10.814
REMARK INTRA:                  -0.552
REMARK UNBOUND:                -0.796
REMARK SMILES C=C(C)[C@]12C[C@@H](C)[C@@]34O[C@](Cc5ccccc5)(O[C@@H]1[C@@H]3C=C(COC(=O)Cc1ccc(O)cc1)C[C@]1(O)C(=O)C(C)=C[C@@H]41)O2
REMARK SMILES IDX 23 1 22 2 21 3 20 4 9 5 8 6 10 7 6 8 18 10 44 11 19 12 5 13
REMARK SMILES IDX 7 14 4 15 11 16 12 17 13 18 17 19 14 20 16 21 15 22 2 23
REMARK SMILES IDX 3 24 1 25 35 26 36 27 43 28 38 29 42 30 39 32 40 33 41 34
REMARK SMILES IDX 37 35 24 37 25 38 26 39 27 40 28 41 29 42 34 43 30 44 33 45
REMARK SMILES IDX 31 46 32 47
REMARK H PARENT 37 36 32 48
REMARK Flexibility Score: 90.00
ROOT
ATOM      1  C   UNL     1      70.205  85.593  67.193  1.00  0.00     0.264 C 
ENDROOT
BRANCH   1   2
ATOM      2  C   UNL     1      71.526  86.319  67.085  1.00  0.00    -0.033 C 
ATOM      3  C   UNL     1      71.584  87.631  67.395  1.00  0.00    -0.015 C 
BRANCH   3   4
ATOM      4  C   UNL     1      72.756  88.594  67.298  1.00  0.00     0.078 C 
ATOM      5  O   UNL     1      73.897  88.563  69.492  1.00  0.00    -0.319 OA
ATOM      6  C   UNL     1      74.078  88.245  68.077  1.00  0.00     0.095 CG0
ATOM      7  C   UNL     1      73.227  89.809  69.762  1.00  0.00     0.289 C 
ATOM      8  C   UNL     1      75.237  89.146  67.482  1.00  0.00     0.023 C 
ATOM      9  G   UNL     1      74.345  86.712  68.055  1.00  0.00     0.000 G0
ATOM     10  O   UNL     1      71.941  89.849  69.152  1.00  0.00    -0.320 OA
ATOM     11  O   UNL     1      73.936  90.930  69.240  1.00  0.00    -0.313 OA
ATOM     12  C   UNL     1      72.321  90.002  67.775  1.00  0.00     0.170 C 
ATOM     13  C   UNL     1      74.702  90.537  67.021  1.00  0.00     0.049 C 
ATOM     14  C   UNL     1      76.455  89.348  68.399  1.00  0.00     0.011 C 
ATOM     15  C   UNL     1      73.509  90.991  67.863  1.00  0.00     0.122 C 
BRANCH   7  16
ATOM     16  C   UNL     1      73.087  89.957  71.264  1.00  0.00     0.135 C 
BRANCH  16  17
ATOM     17  C   UNL     1      73.074  91.403  71.693  1.00  0.00    -0.040 A 
ATOM     18  C   UNL     1      71.862  92.045  71.945  1.00  0.00     0.004 A 
ATOM     19  C   UNL     1      74.274  92.098  71.836  1.00  0.00     0.004 A 
ATOM     20  C   UNL     1      71.850  93.383  72.342  1.00  0.00     0.000 A 
ATOM     21  C   UNL     1      74.262  93.436  72.232  1.00  0.00     0.000 A 
ATOM     22  C   UNL     1      73.050  94.077  72.485  1.00  0.00     0.000 A 
ENDBRANCH  16  17
ENDBRANCH   7  16
BRANCH  15  23
ATOM     23  C   UNL     1      73.094  92.394  67.561  1.00  0.00    -0.046 C 
ATOM     24  C   UNL     1      73.709  93.464  68.414  1.00  0.00     0.042 C 
ATOM     25  C   UNL     1      72.222  92.682  66.584  1.00  0.00     0.010 C 
ENDBRANCH  15  23
ENDBRANCH   3   4
BRANCH   2  26
ATOM     26  C   UNL     1      72.662  85.424  66.628  1.00  0.00     0.078 C 
BRANCH  26  27
ATOM     27  C   UNL     1      74.076  85.997  66.703  1.00  0.00     0.140 C 
ATOM     28  C   UNL     1      74.345  86.713  68.043  1.00  0.00     0.086 CG0
ATOM     29  C   UNL     1      75.139  84.919  66.691  1.00  0.00     0.190 C 
ATOM     30  C   UNL     1      75.694  86.193  68.453  1.00  0.00    -0.010 C 
ATOM     31  G   UNL     1      74.078  88.246  68.066  1.00  0.00     0.000 G0
ATOM     32  O   UNL     1      75.196  83.989  65.901  1.00  0.00    -0.291 OA
ATOM     33  C   UNL     1      76.155  85.167  67.732  1.00  0.00    -0.008 C 
ATOM     34  C   UNL     1      77.384  84.363  67.897  1.00  0.00     0.048 C 
BRANCH  27  35
ATOM     35  O   UNL     1      74.378  86.783  65.562  1.00  0.00    -0.381 OA
ATOM     36  H   UNL     1      74.281  86.226  64.772  1.00  0.00     0.212 HD
ENDBRANCH  27  35
ENDBRANCH  26  27
ENDBRANCH   2  26
ENDBRANCH   1   2
BRANCH   1  37
ATOM     37  O   UNL     1      69.876  85.422  68.556  1.00  0.00    -0.461 OA
BRANCH  37  38
ATOM     38  C   UNL     1      69.512  84.151  68.938  1.00  0.00     0.310 C 
ATOM     39  O   UNL     1      70.288  83.227  69.136  1.00  0.00    -0.252 OA
BRANCH  38  40
ATOM     40  C   UNL     1      68.010  84.077  69.074  1.00  0.00     0.158 C 
BRANCH  40  41
ATOM     41  C   UNL     1      67.514  84.590  70.401  1.00  0.00    -0.037 A 
ATOM     42  C   UNL     1      66.169  84.924  70.561  1.00  0.00     0.008 A 
ATOM     43  C   UNL     1      68.399  84.731  71.469  1.00  0.00     0.008 A 
ATOM     44  C   UNL     1      65.710  85.400  71.790  1.00  0.00     0.046 A 
ATOM     45  C   UNL     1      67.940  85.205  72.698  1.00  0.00     0.046 A 
ATOM     46  C   UNL     1      66.596  85.540  72.859  1.00  0.00     0.115 A 
BRANCH  46  47
ATOM     47  O   UNL     1      66.148  86.004  74.057  1.00  0.00    -0.508 OA
ATOM     48  H   UNL     1      65.447  86.661  73.899  1.00  0.00     0.293 HD
ENDBRANCH  46  47
ENDBRANCH  40  41
ENDBRANCH  38  40
ENDBRANCH  37  38
ENDBRANCH   1  37
TORSDOF 10
ENDMDL
MODEL 9
REMARK VINA RESULT:    -6.187     18.494     21.691
REMARK INTER + INTRA:         -11.324
REMARK INTER:                 -10.655
REMARK INTRA:                  -0.669
REMARK UNBOUND:                -0.796
REMARK SMILES C=C(C)[C@]12C[C@@H](C)[C@@]34O[C@](Cc5ccccc5)(O[C@@H]1[C@@H]3C=C(COC(=O)Cc1ccc(O)cc1)C[C@]1(O)C(=O)C(C)=C[C@@H]41)O2
REMARK SMILES IDX 23 1 22 2 21 3 20 4 9 5 8 6 10 7 6 8 18 10 44 11 19 12 5 13
REMARK SMILES IDX 7 14 4 15 11 16 12 17 13 18 17 19 14 20 16 21 15 22 2 23
REMARK SMILES IDX 3 24 1 25 35 26 36 27 43 28 38 29 42 30 39 32 40 33 41 34
REMARK SMILES IDX 37 35 24 37 25 38 26 39 27 40 28 41 29 42 34 43 30 44 33 45
REMARK SMILES IDX 31 46 32 47
REMARK H PARENT 37 36 32 48
REMARK Flexibility Score: 90.00
ROOT
ATOM      1  C   UNL     1      96.161  81.850  85.944  1.00  0.00     0.264 C 
ENDROOT
BRANCH   1   2
ATOM      2  C   UNL     1      96.448  80.756  84.941  1.00  0.00    -0.033 C 
ATOM      3  C   UNL     1      96.896  81.089  83.713  1.00  0.00    -0.015 C 
BRANCH   3   4
ATOM      4  C   UNL     1      97.183  80.196  82.516  1.00  0.00     0.078 C 
ATOM      5  O   UNL     1      99.577  79.586  82.628  1.00  0.00    -0.319 OA
ATOM      6  C   UNL     1      98.226  79.031  82.683  1.00  0.00     0.095 CG0
ATOM      7  C   UNL     1      99.791  80.584  81.611  1.00  0.00     0.289 C 
ATOM      8  C   UNL     1      98.022  78.028  81.474  1.00  0.00     0.023 C 
ATOM      9  G   UNL     1      98.125  78.398  84.102  1.00  0.00     0.000 G0
ATOM     10  O   UNL     1      98.889  81.677  81.759  1.00  0.00    -0.320 OA
ATOM     11  O   UNL     1      99.567  80.076  80.298  1.00  0.00    -0.313 OA
ATOM     12  C   UNL     1      97.669  81.056  81.323  1.00  0.00     0.170 C 
ATOM     13  C   UNL     1      97.578  78.775  80.179  1.00  0.00     0.049 C 
ATOM     14  C   UNL     1      99.226  77.125  81.154  1.00  0.00     0.011 C 
ATOM     15  C   UNL     1      98.140  80.196  80.125  1.00  0.00     0.122 C 
BRANCH   7  16
ATOM     16  C   UNL     1     101.219  81.078  81.724  1.00  0.00     0.135 C 
BRANCH  16  17
ATOM     17  C   UNL     1     101.966  80.957  80.419  1.00  0.00    -0.040 A 
ATOM     18  C   UNL     1     103.229  80.368  80.390  1.00  0.00     0.004 A 
ATOM     19  C   UNL     1     101.391  81.434  79.241  1.00  0.00     0.004 A 
ATOM     20  C   UNL     1     103.919  80.256  79.182  1.00  0.00     0.000 A 
ATOM     21  C   UNL     1     102.081  81.321  78.034  1.00  0.00     0.000 A 
ATOM     22  C   UNL     1     103.345  80.732  78.005  1.00  0.00     0.000 A 
ENDBRANCH  16  17
ENDBRANCH   7  16
BRANCH  15  23
ATOM     23  C   UNL     1      97.880  80.867  78.816  1.00  0.00    -0.046 C 
ATOM     24  C   UNL     1      97.387  82.282  78.883  1.00  0.00     0.042 C 
ATOM     25  C   UNL     1      98.075  80.239  77.647  1.00  0.00     0.010 C 
ENDBRANCH  15  23
ENDBRANCH   3   4
BRANCH   2  26
ATOM     26  C   UNL     1      96.185  79.365  85.486  1.00  0.00     0.078 C 
BRANCH  26  27
ATOM     27  C   UNL     1      96.675  78.184  84.650  1.00  0.00     0.140 C 
ATOM     28  C   UNL     1      98.106  78.400  84.117  1.00  0.00     0.086 CG0
ATOM     29  C   UNL     1      96.820  76.916  85.466  1.00  0.00     0.190 C 
ATOM     30  C   UNL     1      98.788  77.091  84.403  1.00  0.00    -0.010 C 
ATOM     31  G   UNL     1      98.221  79.026  82.696  1.00  0.00     0.000 G0
ATOM     32  O   UNL     1      95.977  76.463  86.226  1.00  0.00    -0.291 OA
ATOM     33  C   UNL     1      98.103  76.247  85.181  1.00  0.00    -0.008 C 
ATOM     34  C   UNL     1      98.489  74.929  85.726  1.00  0.00     0.048 C 
BRANCH  27  35
ATOM     35  O   UNL     1      95.736  77.835  83.647  1.00  0.00    -0.381 OA
ATOM     36  H   UNL     1      95.785  76.874  83.502  1.00  0.00     0.212 HD
ENDBRANCH  27  35
ENDBRANCH  26  27
ENDBRANCH   2  26
ENDBRANCH   1   2
BRANCH   1  37
ATOM     37  O   UNL     1      95.289  82.796  85.365  1.00  0.00    -0.461 OA
BRANCH  37  38
ATOM     38  C   UNL     1      93.948  82.627  85.626  1.00  0.00     0.310 C 
ATOM     39  O   UNL     1      93.447  82.610  86.741  1.00  0.00    -0.252 OA
BRANCH  38  40
ATOM     40  C   UNL     1      93.198  82.466  84.325  1.00  0.00     0.158 C 
BRANCH  40  41
ATOM     41  C   UNL     1      92.293  81.262  84.314  1.00  0.00    -0.037 A 
ATOM     42  C   UNL     1      92.803  80.002  84.629  1.00  0.00     0.008 A 
ATOM     43  C   UNL     1      90.944  81.406  83.989  1.00  0.00     0.008 A 
ATOM     44  C   UNL     1      91.964  78.887  84.618  1.00  0.00     0.046 A 
ATOM     45  C   UNL     1      90.105  80.291  83.979  1.00  0.00     0.046 A 
ATOM     46  C   UNL     1      90.615  79.032  84.293  1.00  0.00     0.115 A 
BRANCH  46  47
ATOM     47  O   UNL     1      89.798  77.944  84.281  1.00  0.00    -0.508 OA
ATOM     48  H   UNL     1      89.990  77.397  85.063  1.00  0.00     0.293 HD
ENDBRANCH  46  47
ENDBRANCH  40  41
ENDBRANCH  38  40
ENDBRANCH  37  38
ENDBRANCH   1  37
TORSDOF 10
ENDMDL
MODEL 10
REMARK VINA RESULT:    -5.879     16.201     20.968
REMARK INTER + INTRA:         -10.799
REMARK INTER:                 -10.223
REMARK INTRA:                  -0.576
REMARK UNBOUND:                -0.796
REMARK SMILES C=C(C)[C@]12C[C@@H](C)[C@@]34O[C@](Cc5ccccc5)(O[C@@H]1[C@@H]3C=C(COC(=O)Cc1ccc(O)cc1)C[C@]1(O)C(=O)C(C)=C[C@@H]41)O2
REMARK SMILES IDX 23 1 22 2 21 3 20 4 9 5 8 6 10 7 6 8 18 10 44 11 19 12 5 13
REMARK SMILES IDX 7 14 4 15 11 16 12 17 13 18 17 19 14 20 16 21 15 22 2 23
REMARK SMILES IDX 3 24 1 25 35 26 36 27 43 28 38 29 42 30 39 32 40 33 41 34
REMARK SMILES IDX 37 35 24 37 25 38 26 39 27 40 28 41 29 42 34 43 30 44 33 45
REMARK SMILES IDX 31 46 32 47
REMARK H PARENT 37 36 32 48
REMARK Flexibility Score: 90.00
ROOT
ATOM      1  C   UNL     1      77.454  94.094  75.049  1.00  0.00     0.264 C 
ENDROOT
BRANCH   1   2
ATOM      2  C   UNL     1      75.949  93.954  75.064  1.00  0.00    -0.033 C 
ATOM      3  C   UNL     1      75.282  93.881  73.894  1.00  0.00    -0.015 C 
BRANCH   3   4
ATOM      4  C   UNL     1      73.785  93.814  73.638  1.00  0.00     0.078 C 
ATOM      5  O   UNL     1      73.181  91.419  73.515  1.00  0.00    -0.319 OA
ATOM      6  C   UNL     1      72.966  92.640  74.290  1.00  0.00     0.095 CG0
ATOM      7  C   UNL     1      73.157  91.587  72.084  1.00  0.00     0.289 C 
ATOM      8  C   UNL     1      71.433  93.035  74.231  1.00  0.00     0.023 C 
ATOM      9  G   UNL     1      73.515  92.302  75.706  1.00  0.00     0.000 G0
ATOM     10  O   UNL     1      74.130  92.537  71.658  1.00  0.00    -0.320 OA
ATOM     11  O   UNL     1      71.905  92.083  71.616  1.00  0.00    -0.313 OA
ATOM     12  C   UNL     1      73.514  93.751  72.115  1.00  0.00     0.170 C 
ATOM     13  C   UNL     1      71.107  93.877  72.960  1.00  0.00     0.049 C 
ATOM     14  C   UNL     1      70.443  91.861  74.332  1.00  0.00     0.011 C 
ATOM     15  C   UNL     1      72.019  93.511  71.789  1.00  0.00     0.122 C 
BRANCH   7  16
ATOM     16  C   UNL     1      73.438  90.242  71.444  1.00  0.00     0.135 C 
BRANCH  16  17
ATOM     17  C   UNL     1      73.962  90.383  70.036  1.00  0.00    -0.040 A 
ATOM     18  C   UNL     1      75.146  89.747  69.665  1.00  0.00     0.004 A 
ATOM     19  C   UNL     1      73.260  91.150  69.106  1.00  0.00     0.004 A 
ATOM     20  C   UNL     1      75.630  89.877  68.363  1.00  0.00     0.000 A 
ATOM     21  C   UNL     1      73.744  91.280  67.804  1.00  0.00     0.000 A 
ATOM     22  C   UNL     1      74.928  90.644  67.433  1.00  0.00     0.000 A 
ENDBRANCH  16  17
ENDBRANCH   7  16
BRANCH  15  23
ATOM     23  C   UNL     1      71.610  94.172  70.513  1.00  0.00    -0.046 C 
ATOM     24  C   UNL     1      72.334  95.438  70.162  1.00  0.00     0.042 C 
ATOM     25  C   UNL     1      70.649  93.664  69.728  1.00  0.00     0.010 C 
ENDBRANCH  15  23
ENDBRANCH   3   4
BRANCH   2  26
ATOM     26  C   UNL     1      75.369  93.905  76.465  1.00  0.00     0.078 C 
BRANCH  26  27
ATOM     27  C   UNL     1      73.895  93.529  76.598  1.00  0.00     0.140 C 
ATOM     28  C   UNL     1      73.519  92.320  75.715  1.00  0.00     0.086 CG0
ATOM     29  C   UNL     1      73.543  93.039  77.987  1.00  0.00     0.190 C 
ATOM     30  C   UNL     1      72.711  91.451  76.638  1.00  0.00    -0.010 C 
ATOM     31  G   UNL     1      72.966  92.651  74.299  1.00  0.00     0.000 G0
ATOM     32  O   UNL     1      73.843  93.598  79.031  1.00  0.00    -0.291 OA
ATOM     33  C   UNL     1      72.728  91.812  77.925  1.00  0.00    -0.008 C 
ATOM     34  C   UNL     1      72.126  91.156  79.104  1.00  0.00     0.048 C 
BRANCH  27  35
ATOM     35  O   UNL     1      73.054  94.656  76.414  1.00  0.00    -0.381 OA
ATOM     36  H   UNL     1      72.129  94.364  76.490  1.00  0.00     0.212 HD
ENDBRANCH  27  35
ENDBRANCH  26  27
ENDBRANCH   2  26
ENDBRANCH   1   2
BRANCH   1  37
ATOM     37  O   UNL     1      77.871  94.506  73.765  1.00  0.00    -0.461 OA
BRANCH  37  38
ATOM     38  C   UNL     1      78.356  95.789  73.666  1.00  0.00     0.310 C 
ATOM     39  O   UNL     1      79.435  96.168  74.100  1.00  0.00    -0.252 OA
BRANCH  38  40
ATOM     40  C   UNL     1      77.352  96.653  72.941  1.00  0.00     0.158 C 
BRANCH  40  41
ATOM     41  C   UNL     1      77.898  97.247  71.669  1.00  0.00    -0.037 A 
ATOM     42  C   UNL     1      78.611  98.446  71.709  1.00  0.00     0.008 A 
ATOM     43  C   UNL     1      77.691  96.600  70.451  1.00  0.00     0.008 A 
ATOM     44  C   UNL     1      79.116  98.997  70.531  1.00  0.00     0.046 A 
ATOM     45  C   UNL     1      78.196  97.151  69.273  1.00  0.00     0.046 A 
ATOM     46  C   UNL     1      78.908  98.349  69.312  1.00  0.00     0.115 A 
BRANCH  46  47
ATOM     47  O   UNL     1      79.400  98.887  68.164  1.00  0.00    -0.508 OA
ATOM     48  H   UNL     1      80.334  99.124  68.301  1.00  0.00     0.293 HD
ENDBRANCH  46  47
ENDBRANCH  40  41
ENDBRANCH  38  40
ENDBRANCH  37  38
ENDBRANCH   1  37
TORSDOF 10
ENDMDL
