MODEL 1
REMARK VINA RESULT:    -7.160      0.000      0.000
REMARK INTER + INTRA:         -13.013
REMARK INTER:                 -11.764
REMARK INTRA:                  -1.248
REMARK UNBOUND:                -1.248
REMARK SMILES CCCCC[C@H](O)CC(=O)CCc1ccc(O)c(OC)c1
REMARK SMILES IDX 8 1 6 2 7 3 5 5 4 6 3 7 2 8 1 9 9 10 10 11 11 12 12 13 13 14
REMARK SMILES IDX 21 15 14 16 18 17 15 18 16 19 19 20 20 21 17 22
REMARK H PARENT 7 4 17 23
REMARK Flexibility Score: inf
ROOT
ATOM      1  C   UNL     1      90.133  92.584  73.182  1.00  0.00     0.107 C 
ENDROOT
BRANCH   1   2
ATOM      2  C   UNL     1      91.402  92.386  74.014  1.00  0.00     0.121 C 
BRANCH   2   3
ATOM      3  O   UNL     1      92.371  91.667  73.254  1.00  0.00    -0.393 OA
ATOM      4  H   UNL     1      92.590  92.200  72.470  1.00  0.00     0.210 HD
ENDBRANCH   2   3
BRANCH   2   5
ATOM      5  C   UNL     1      92.017  93.706  74.495  1.00  0.00     0.032 C 
BRANCH   5   6
ATOM      6  C   UNL     1      91.595  94.050  75.928  1.00  0.00     0.003 C 
BRANCH   6   7
ATOM      7  C   UNL     1      92.750  93.986  76.932  1.00  0.00    -0.000 C 
BRANCH   7   8
ATOM      8  C   UNL     1      94.109  94.329  76.325  1.00  0.00    -0.003 C 
ATOM      9  C   UNL     1      95.243  94.010  77.287  1.00  0.00     0.004 C 
ENDBRANCH   7   8
ENDBRANCH   6   7
ENDBRANCH   5   6
ENDBRANCH   2   5
ENDBRANCH   1   2
BRANCH   1  10
ATOM     10  C   UNL     1      89.984  91.559  72.069  1.00  0.00     0.135 C 
ATOM     11  O   UNL     1      90.577  91.696  70.999  1.00  0.00    -0.300 OA
BRANCH  10  12
ATOM     12  C   UNL     1      89.110  90.350  72.368  1.00  0.00     0.080 C 
BRANCH  12  13
ATOM     13  C   UNL     1      88.387  90.431  73.713  1.00  0.00     0.043 C 
BRANCH  13  14
ATOM     14  C   UNL     1      89.082  89.654  74.807  1.00  0.00    -0.044 A 
ATOM     15  C   UNL     1      89.220  90.210  76.078  1.00  0.00     0.054 A 
ATOM     16  C   UNL     1      89.586  88.380  74.544  1.00  0.00     0.008 A 
ATOM     17  C   UNL     1      89.861  89.491  77.087  1.00  0.00     0.160 A 
ATOM     18  C   UNL     1      90.227  87.661  75.553  1.00  0.00     0.050 A 
ATOM     19  C   UNL     1      90.365  88.217  76.824  1.00  0.00     0.157 A 
BRANCH  17  20
ATOM     20  O   UNL     1      89.990  90.045  78.325  1.00  0.00    -0.493 OA
ATOM     21  C   UNL     1      90.451  91.393  78.388  1.00  0.00     0.278 C 
ENDBRANCH  17  20
BRANCH  19  22
ATOM     22  O   UNL     1      90.992  87.506  77.801  1.00  0.00    -0.504 OA
ATOM     23  H   UNL     1      91.396  86.713  77.407  1.00  0.00     0.293 HD
ENDBRANCH  19  22
ENDBRANCH  13  14
ENDBRANCH  12  13
ENDBRANCH  10  12
ENDBRANCH   1  10
TORSDOF 12
ENDMDL
MODEL 2
REMARK VINA RESULT:    -6.892      1.654      4.744
REMARK INTER + INTRA:         -12.572
REMARK INTER:                 -11.025
REMARK INTRA:                  -1.547
REMARK UNBOUND:                -1.248
REMARK SMILES CCCCC[C@H](O)CC(=O)CCc1ccc(O)c(OC)c1
REMARK SMILES IDX 8 1 6 2 7 3 5 5 4 6 3 7 2 8 1 9 9 10 10 11 11 12 12 13 13 14
REMARK SMILES IDX 21 15 14 16 18 17 15 18 16 19 19 20 20 21 17 22
REMARK H PARENT 7 4 17 23
REMARK Flexibility Score: inf
ROOT
ATOM      1  C   UNL     1      91.424  93.814  75.104  1.00  0.00     0.107 C 
ENDROOT
BRANCH   1   2
ATOM      2  C   UNL     1      91.629  92.919  73.880  1.00  0.00     0.121 C 
BRANCH   2   3
ATOM      3  O   UNL     1      92.563  91.886  74.187  1.00  0.00    -0.393 OA
ATOM      4  H   UNL     1      93.118  92.196  74.924  1.00  0.00     0.210 HD
ENDBRANCH   2   3
BRANCH   2   5
ATOM      5  C   UNL     1      90.327  92.288  73.372  1.00  0.00     0.032 C 
BRANCH   5   6
ATOM      6  C   UNL     1      90.549  91.438  72.116  1.00  0.00     0.003 C 
BRANCH   6   7
ATOM      7  C   UNL     1      89.264  90.799  71.580  1.00  0.00    -0.000 C 
BRANCH   7   8
ATOM      8  C   UNL     1      87.990  91.397  72.174  1.00  0.00    -0.003 C 
ATOM      9  C   UNL     1      87.055  90.312  72.688  1.00  0.00     0.004 C 
ENDBRANCH   7   8
ENDBRANCH   6   7
ENDBRANCH   5   6
ENDBRANCH   2   5
ENDBRANCH   1   2
BRANCH   1  10
ATOM     10  C   UNL     1      92.410  93.525  76.225  1.00  0.00     0.135 C 
ATOM     11  O   UNL     1      93.612  93.751  76.084  1.00  0.00    -0.300 OA
BRANCH  10  12
ATOM     12  C   UNL     1      91.827  92.993  77.525  1.00  0.00     0.080 C 
BRANCH  12  13
ATOM     13  C   UNL     1      90.378  92.520  77.402  1.00  0.00     0.043 C 
BRANCH  13  14
ATOM     14  C   UNL     1      90.223  91.030  77.596  1.00  0.00    -0.044 A 
ATOM     15  C   UNL     1      90.298  90.172  76.499  1.00  0.00     0.054 A 
ATOM     16  C   UNL     1      90.005  90.513  78.873  1.00  0.00     0.008 A 
ATOM     17  C   UNL     1      90.156  88.796  76.680  1.00  0.00     0.160 A 
ATOM     18  C   UNL     1      89.862  89.137  79.054  1.00  0.00     0.050 A 
ATOM     19  C   UNL     1      89.937  88.279  77.958  1.00  0.00     0.157 A 
BRANCH  17  20
ATOM     20  O   UNL     1      90.230  87.967  75.601  1.00  0.00    -0.493 OA
ATOM     21  C   UNL     1      90.688  88.538  74.377  1.00  0.00     0.278 C 
ENDBRANCH  17  20
BRANCH  19  22
ATOM     22  O   UNL     1      89.797  86.937  78.147  1.00  0.00    -0.504 OA
ATOM     23  H   UNL     1      89.269  86.784  78.949  1.00  0.00     0.293 HD
ENDBRANCH  19  22
ENDBRANCH  13  14
ENDBRANCH  12  13
ENDBRANCH  10  12
ENDBRANCH   1  10
TORSDOF 12
ENDMDL
MODEL 3
REMARK VINA RESULT:    -6.176     12.549     15.584
REMARK INTER + INTRA:         -11.395
REMARK INTER:                  -9.727
REMARK INTRA:                  -1.668
REMARK UNBOUND:                -1.248
REMARK SMILES CCCCC[C@H](O)CC(=O)CCc1ccc(O)c(OC)c1
REMARK SMILES IDX 8 1 6 2 7 3 5 5 4 6 3 7 2 8 1 9 9 10 10 11 11 12 12 13 13 14
REMARK SMILES IDX 21 15 14 16 18 17 15 18 16 19 19 20 20 21 17 22
REMARK H PARENT 7 4 17 23
REMARK Flexibility Score: inf
ROOT
ATOM      1  C   UNL     1      81.859  87.347  84.707  1.00  0.00     0.107 C 
ENDROOT
BRANCH   1   2
ATOM      2  C   UNL     1      81.329  86.010  85.232  1.00  0.00     0.121 C 
BRANCH   2   3
ATOM      3  O   UNL     1      81.496  85.001  84.239  1.00  0.00    -0.393 OA
ATOM      4  H   UNL     1      82.441  84.963  84.009  1.00  0.00     0.210 HD
ENDBRANCH   2   3
BRANCH   2   5
ATOM      5  C   UNL     1      82.013  85.560  86.529  1.00  0.00     0.032 C 
BRANCH   5   6
ATOM      6  C   UNL     1      81.679  86.484  87.706  1.00  0.00     0.003 C 
BRANCH   6   7
ATOM      7  C   UNL     1      80.177  86.726  87.881  1.00  0.00    -0.000 C 
BRANCH   7   8
ATOM      8  C   UNL     1      79.721  86.723  89.339  1.00  0.00    -0.003 C 
ATOM      9  C   UNL     1      78.732  87.846  89.613  1.00  0.00     0.004 C 
ENDBRANCH   7   8
ENDBRANCH   6   7
ENDBRANCH   5   6
ENDBRANCH   2   5
ENDBRANCH   1   2
BRANCH   1  10
ATOM     10  C   UNL     1      80.807  88.155  83.966  1.00  0.00     0.135 C 
ATOM     11  O   UNL     1      80.040  87.615  83.169  1.00  0.00    -0.300 OA
BRANCH  10  12
ATOM     12  C   UNL     1      80.728  89.638  84.295  1.00  0.00     0.080 C 
BRANCH  12  13
ATOM     13  C   UNL     1      80.243  89.927  85.717  1.00  0.00     0.043 C 
BRANCH  13  14
ATOM     14  C   UNL     1      81.368  90.250  86.672  1.00  0.00    -0.044 A 
ATOM     15  C   UNL     1      82.683  90.297  86.211  1.00  0.00     0.054 A 
ATOM     16  C   UNL     1      81.090  90.500  88.016  1.00  0.00     0.008 A 
ATOM     17  C   UNL     1      83.721  90.596  87.094  1.00  0.00     0.160 A 
ATOM     18  C   UNL     1      82.128  90.798  88.899  1.00  0.00     0.050 A 
ATOM     19  C   UNL     1      83.443  90.846  88.438  1.00  0.00     0.157 A 
BRANCH  17  20
ATOM     20  O   UNL     1      85.002  90.639  86.632  1.00  0.00    -0.493 OA
ATOM     21  C   UNL     1      85.353  91.742  85.798  1.00  0.00     0.278 C 
ENDBRANCH  17  20
BRANCH  19  22
ATOM     22  O   UNL     1      84.448  91.139  89.310  1.00  0.00    -0.504 OA
ATOM     23  H   UNL     1      84.596  92.100  89.311  1.00  0.00     0.293 HD
ENDBRANCH  19  22
ENDBRANCH  13  14
ENDBRANCH  12  13
ENDBRANCH  10  12
ENDBRANCH   1  10
TORSDOF 12
ENDMDL
MODEL 4
REMARK VINA RESULT:    -6.036      2.397      6.574
REMARK INTER + INTRA:         -11.166
REMARK INTER:                 -10.237
REMARK INTRA:                  -0.930
REMARK UNBOUND:                -1.248
REMARK SMILES CCCCC[C@H](O)CC(=O)CCc1ccc(O)c(OC)c1
REMARK SMILES IDX 8 1 6 2 7 3 5 5 4 6 3 7 2 8 1 9 9 10 10 11 11 12 12 13 13 14
REMARK SMILES IDX 21 15 14 16 18 17 15 18 16 19 19 20 20 21 17 22
REMARK H PARENT 7 4 17 23
REMARK Flexibility Score: inf
ROOT
ATOM      1  C   UNL     1      91.106  91.452  75.304  1.00  0.00     0.107 C 
ENDROOT
BRANCH   1   2
ATOM      2  C   UNL     1      90.000  91.885  74.338  1.00  0.00     0.121 C 
BRANCH   2   3
ATOM      3  O   UNL     1      90.569  92.239  73.080  1.00  0.00    -0.393 OA
ATOM      4  H   UNL     1      90.757  91.416  72.596  1.00  0.00     0.210 HD
ENDBRANCH   2   3
BRANCH   2   5
ATOM      5  C   UNL     1      88.933  90.804  74.124  1.00  0.00     0.032 C 
BRANCH   5   6
ATOM      6  C   UNL     1      89.552  89.446  73.768  1.00  0.00     0.003 C 
BRANCH   6   7
ATOM      7  C   UNL     1      89.066  88.305  74.667  1.00  0.00    -0.000 C 
BRANCH   7   8
ATOM      8  C   UNL     1      90.176  87.666  75.499  1.00  0.00    -0.003 C 
ATOM      9  C   UNL     1      91.371  87.293  74.636  1.00  0.00     0.004 C 
ENDBRANCH   7   8
ENDBRANCH   6   7
ENDBRANCH   5   6
ENDBRANCH   2   5
ENDBRANCH   1   2
BRANCH   1  10
ATOM     10  C   UNL     1      90.673  91.489  76.760  1.00  0.00     0.135 C 
ATOM     11  O   UNL     1      89.965  90.600  77.233  1.00  0.00    -0.300 OA
BRANCH  10  12
ATOM     12  C   UNL     1      91.195  92.647  77.597  1.00  0.00     0.080 C 
BRANCH  12  13
ATOM     13  C   UNL     1      91.305  93.963  76.826  1.00  0.00     0.043 C 
BRANCH  13  14
ATOM     14  C   UNL     1      92.734  94.380  76.567  1.00  0.00    -0.044 A 
ATOM     15  C   UNL     1      93.717  94.136  77.526  1.00  0.00     0.054 A 
ATOM     16  C   UNL     1      93.069  95.010  75.368  1.00  0.00     0.008 A 
ATOM     17  C   UNL     1      95.036  94.520  77.285  1.00  0.00     0.160 A 
ATOM     18  C   UNL     1      94.389  95.395  75.127  1.00  0.00     0.050 A 
ATOM     19  C   UNL     1      95.372  95.150  76.086  1.00  0.00     0.157 A 
BRANCH  17  20
ATOM     20  O   UNL     1      95.987  94.277  78.229  1.00  0.00    -0.493 OA
ATOM     21  C   UNL     1      96.071  95.195  79.318  1.00  0.00     0.278 C 
ENDBRANCH  17  20
BRANCH  19  22
ATOM     22  O   UNL     1      96.656  95.530  75.840  1.00  0.00    -0.504 OA
ATOM     23  H   UNL     1      97.254  94.801  76.079  1.00  0.00     0.293 HD
ENDBRANCH  19  22
ENDBRANCH  13  14
ENDBRANCH  12  13
ENDBRANCH  10  12
ENDBRANCH   1  10
TORSDOF 12
ENDMDL
MODEL 5
REMARK VINA RESULT:    -5.867     13.014     15.560
REMARK INTER + INTRA:         -10.888
REMARK INTER:                  -9.447
REMARK INTRA:                  -1.441
REMARK UNBOUND:                -1.248
REMARK SMILES CCCCC[C@H](O)CC(=O)CCc1ccc(O)c(OC)c1
REMARK SMILES IDX 8 1 6 2 7 3 5 5 4 6 3 7 2 8 1 9 9 10 10 11 11 12 12 13 13 14
REMARK SMILES IDX 21 15 14 16 18 17 15 18 16 19 19 20 20 21 17 22
REMARK H PARENT 7 4 17 23
REMARK Flexibility Score: inf
ROOT
ATOM      1  C   UNL     1      81.731  85.829  87.674  1.00  0.00     0.107 C 
ENDROOT
BRANCH   1   2
ATOM      2  C   UNL     1      81.905  86.046  86.169  1.00  0.00     0.121 C 
BRANCH   2   3
ATOM      3  O   UNL     1      82.796  85.066  85.639  1.00  0.00    -0.393 OA
ATOM      4  H   UNL     1      83.643  85.148  86.112  1.00  0.00     0.210 HD
ENDBRANCH   2   3
BRANCH   2   5
ATOM      5  C   UNL     1      80.581  85.993  85.397  1.00  0.00     0.032 C 
BRANCH   5   6
ATOM      6  C   UNL     1      80.741  86.457  83.944  1.00  0.00     0.003 C 
BRANCH   6   7
ATOM      7  C   UNL     1      79.800  87.605  83.567  1.00  0.00    -0.000 C 
BRANCH   7   8
ATOM      8  C   UNL     1      79.842  88.778  84.545  1.00  0.00    -0.003 C 
ATOM      9  C   UNL     1      80.993  89.721  84.231  1.00  0.00     0.004 C 
ENDBRANCH   7   8
ENDBRANCH   6   7
ENDBRANCH   5   6
ENDBRANCH   2   5
ENDBRANCH   1   2
BRANCH   1  10
ATOM     10  C   UNL     1      80.794  86.838  88.317  1.00  0.00     0.135 C 
ATOM     11  O   UNL     1      79.589  86.609  88.416  1.00  0.00    -0.300 OA
BRANCH  10  12
ATOM     12  C   UNL     1      81.430  88.108  88.862  1.00  0.00     0.080 C 
BRANCH  12  13
ATOM     13  C   UNL     1      81.160  89.347  88.007  1.00  0.00     0.043 C 
BRANCH  13  14
ATOM     14  C   UNL     1      82.423  89.996  87.492  1.00  0.00    -0.044 A 
ATOM     15  C   UNL     1      82.574  91.381  87.562  1.00  0.00     0.054 A 
ATOM     16  C   UNL     1      83.438  89.210  86.945  1.00  0.00     0.008 A 
ATOM     17  C   UNL     1      83.740  91.980  87.086  1.00  0.00     0.160 A 
ATOM     18  C   UNL     1      84.605  89.809  86.470  1.00  0.00     0.050 A 
ATOM     19  C   UNL     1      84.755  91.194  86.540  1.00  0.00     0.157 A 
BRANCH  17  20
ATOM     20  O   UNL     1      83.876  93.334  87.159  1.00  0.00    -0.493 OA
ATOM     21  C   UNL     1      83.199  93.996  88.225  1.00  0.00     0.278 C 
ENDBRANCH  17  20
BRANCH  19  22
ATOM     22  O   UNL     1      85.899  91.767  86.072  1.00  0.00    -0.504 OA
ATOM     23  H   UNL     1      86.526  91.871  86.809  1.00  0.00     0.293 HD
ENDBRANCH  19  22
ENDBRANCH  13  14
ENDBRANCH  12  13
ENDBRANCH  10  12
ENDBRANCH   1  10
TORSDOF 12
ENDMDL
MODEL 6
REMARK VINA RESULT:    -5.695      3.039      6.700
REMARK INTER + INTRA:         -10.606
REMARK INTER:                  -9.405
REMARK INTRA:                  -1.201
REMARK UNBOUND:                -1.248
REMARK SMILES CCCCC[C@H](O)CC(=O)CCc1ccc(O)c(OC)c1
REMARK SMILES IDX 8 1 6 2 7 3 5 5 4 6 3 7 2 8 1 9 9 10 10 11 11 12 12 13 13 14
REMARK SMILES IDX 21 15 14 16 18 17 15 18 16 19 19 20 20 21 17 22
REMARK H PARENT 7 4 17 23
REMARK Flexibility Score: inf
ROOT
ATOM      1  C   UNL     1      91.587  92.373  73.902  1.00  0.00     0.107 C 
ENDROOT
BRANCH   1   2
ATOM      2  C   UNL     1      90.286  91.811  73.324  1.00  0.00     0.121 C 
BRANCH   2   3
ATOM      3  O   UNL     1      90.519  91.305  72.012  1.00  0.00    -0.393 OA
ATOM      4  H   UNL     1      91.122  91.920  71.558  1.00  0.00     0.210 HD
ENDBRANCH   2   3
BRANCH   2   5
ATOM      5  C   UNL     1      89.674  90.703  74.190  1.00  0.00     0.032 C 
BRANCH   5   6
ATOM      6  C   UNL     1      90.747  89.863  74.894  1.00  0.00     0.003 C 
BRANCH   6   7
ATOM      7  C   UNL     1      90.612  89.862  76.420  1.00  0.00    -0.000 C 
BRANCH   7   8
ATOM      8  C   UNL     1      89.856  91.070  76.969  1.00  0.00    -0.003 C 
ATOM      9  C   UNL     1      90.722  91.882  77.920  1.00  0.00     0.004 C 
ENDBRANCH   7   8
ENDBRANCH   6   7
ENDBRANCH   5   6
ENDBRANCH   2   5
ENDBRANCH   1   2
BRANCH   1  10
ATOM     10  C   UNL     1      91.382  93.655  74.694  1.00  0.00     0.135 C 
ATOM     11  O   UNL     1      90.266  93.974  75.103  1.00  0.00    -0.300 OA
BRANCH  10  12
ATOM     12  C   UNL     1      92.624  94.482  74.986  1.00  0.00     0.080 C 
BRANCH  12  13
ATOM     13  C   UNL     1      93.873  93.642  75.259  1.00  0.00     0.043 C 
BRANCH  13  14
ATOM     14  C   UNL     1      94.666  94.129  76.448  1.00  0.00    -0.044 A 
ATOM     15  C   UNL     1      95.946  94.653  76.266  1.00  0.00     0.054 A 
ATOM     16  C   UNL     1      94.118  94.054  77.729  1.00  0.00     0.008 A 
ATOM     17  C   UNL     1      96.677  95.103  77.365  1.00  0.00     0.160 A 
ATOM     18  C   UNL     1      94.850  94.505  78.828  1.00  0.00     0.050 A 
ATOM     19  C   UNL     1      96.129  95.029  78.646  1.00  0.00     0.157 A 
BRANCH  17  20
ATOM     20  O   UNL     1      97.927  95.613  77.175  1.00  0.00    -0.493 OA
ATOM     21  C   UNL     1      98.124  96.433  76.025  1.00  0.00     0.278 C 
ENDBRANCH  17  20
BRANCH  19  22
ATOM     22  O   UNL     1      96.834  95.466  79.727  1.00  0.00    -0.504 OA
ATOM     23  H   UNL     1      96.295  95.342  80.527  1.00  0.00     0.293 HD
ENDBRANCH  19  22
ENDBRANCH  13  14
ENDBRANCH  12  13
ENDBRANCH  10  12
ENDBRANCH   1  10
TORSDOF 12
ENDMDL
MODEL 7
REMARK VINA RESULT:    -5.546      3.985      7.698
REMARK INTER + INTRA:         -10.361
REMARK INTER:                  -9.521
REMARK INTRA:                  -0.839
REMARK UNBOUND:                -1.248
REMARK SMILES CCCCC[C@H](O)CC(=O)CCc1ccc(O)c(OC)c1
REMARK SMILES IDX 8 1 6 2 7 3 5 5 4 6 3 7 2 8 1 9 9 10 10 11 11 12 12 13 13 14
REMARK SMILES IDX 21 15 14 16 18 17 15 18 16 19 19 20 20 21 17 22
REMARK H PARENT 7 4 17 23
REMARK Flexibility Score: inf
ROOT
ATOM      1  C   UNL     1      92.200  92.885  75.903  1.00  0.00     0.107 C 
ENDROOT
BRANCH   1   2
ATOM      2  C   UNL     1      91.724  92.666  74.465  1.00  0.00     0.121 C 
BRANCH   2   3
ATOM      3  O   UNL     1      92.569  91.719  73.815  1.00  0.00    -0.393 OA
ATOM      4  H   UNL     1      93.209  92.214  73.274  1.00  0.00     0.210 HD
ENDBRANCH   2   3
BRANCH   2   5
ATOM      5  C   UNL     1      90.270  92.187  74.380  1.00  0.00     0.032 C 
BRANCH   5   6
ATOM      6  C   UNL     1      89.712  91.794  75.754  1.00  0.00     0.003 C 
BRANCH   6   7
ATOM      7  C   UNL     1      89.738  90.283  76.009  1.00  0.00    -0.000 C 
BRANCH   7   8
ATOM      8  C   UNL     1      89.792  89.914  77.491  1.00  0.00    -0.003 C 
ATOM      9  C   UNL     1      90.283  91.080  78.335  1.00  0.00     0.004 C 
ENDBRANCH   7   8
ENDBRANCH   6   7
ENDBRANCH   5   6
ENDBRANCH   2   5
ENDBRANCH   1   2
BRANCH   1  10
ATOM     10  C   UNL     1      93.439  93.760  75.994  1.00  0.00     0.135 C 
ATOM     11  O   UNL     1      94.069  94.072  74.983  1.00  0.00    -0.300 OA
BRANCH  10  12
ATOM     12  C   UNL     1      93.822  94.259  77.379  1.00  0.00     0.080 C 
BRANCH  12  13
ATOM     13  C   UNL     1      95.272  93.957  77.762  1.00  0.00     0.043 C 
BRANCH  13  14
ATOM     14  C   UNL     1      95.636  94.455  79.141  1.00  0.00    -0.044 A 
ATOM     15  C   UNL     1      96.050  95.775  79.319  1.00  0.00     0.054 A 
ATOM     16  C   UNL     1      95.557  93.595  80.236  1.00  0.00     0.008 A 
ATOM     17  C   UNL     1      96.385  96.234  80.592  1.00  0.00     0.160 A 
ATOM     18  C   UNL     1      95.892  94.054  81.510  1.00  0.00     0.050 A 
ATOM     19  C   UNL     1      96.307  95.374  81.688  1.00  0.00     0.157 A 
BRANCH  17  20
ATOM     20  O   UNL     1      96.790  97.525  80.754  1.00  0.00    -0.493 OA
ATOM     21  C   UNL     1      97.175  98.235  79.578  1.00  0.00     0.278 C 
ENDBRANCH  17  20
BRANCH  19  22
ATOM     22  O   UNL     1      96.631  95.811  82.936  1.00  0.00    -0.504 OA
ATOM     23  H   UNL     1      95.828  95.830  83.484  1.00  0.00     0.293 HD
ENDBRANCH  19  22
ENDBRANCH  13  14
ENDBRANCH  12  13
ENDBRANCH  10  12
ENDBRANCH   1  10
TORSDOF 12
ENDMDL
MODEL 8
REMARK VINA RESULT:    -5.462     22.971     26.774
REMARK INTER + INTRA:         -10.223
REMARK INTER:                  -7.960
REMARK INTRA:                  -2.263
REMARK UNBOUND:                -1.248
REMARK SMILES CCCCC[C@H](O)CC(=O)CCc1ccc(O)c(OC)c1
REMARK SMILES IDX 8 1 6 2 7 3 5 5 4 6 3 7 2 8 1 9 9 10 10 11 11 12 12 13 13 14
REMARK SMILES IDX 21 15 14 16 18 17 15 18 16 19 19 20 20 21 17 22
REMARK H PARENT 7 4 17 23
REMARK Flexibility Score: inf
ROOT
ATOM      1  C   UNL     1      81.787  64.873  76.456  1.00  0.00     0.107 C 
ENDROOT
BRANCH   1   2
ATOM      2  C   UNL     1      81.560  66.359  76.170  1.00  0.00     0.121 C 
BRANCH   2   3
ATOM      3  O   UNL     1      82.757  67.090  76.427  1.00  0.00    -0.393 OA
ATOM      4  H   UNL     1      83.072  66.842  77.314  1.00  0.00     0.210 HD
ENDBRANCH   2   3
BRANCH   2   5
ATOM      5  C   UNL     1      81.103  66.631  74.732  1.00  0.00     0.032 C 
BRANCH   5   6
ATOM      6  C   UNL     1      80.197  65.516  74.195  1.00  0.00     0.003 C 
BRANCH   6   7
ATOM      7  C   UNL     1      80.285  65.341  72.676  1.00  0.00    -0.000 C 
BRANCH   7   8
ATOM      8  C   UNL     1      80.231  66.658  71.904  1.00  0.00    -0.003 C 
ATOM      9  C   UNL     1      79.892  66.428  70.439  1.00  0.00     0.004 C 
ENDBRANCH   7   8
ENDBRANCH   6   7
ENDBRANCH   5   6
ENDBRANCH   2   5
ENDBRANCH   1   2
BRANCH   1  10
ATOM     10  C   UNL     1      83.248  64.464  76.359  1.00  0.00     0.135 C 
ATOM     11  O   UNL     1      84.046  64.752  77.251  1.00  0.00    -0.300 OA
BRANCH  10  12
ATOM     12  C   UNL     1      83.649  63.652  75.137  1.00  0.00     0.080 C 
BRANCH  12  13
ATOM     13  C   UNL     1      84.869  64.211  74.401  1.00  0.00     0.043 C 
BRANCH  13  14
ATOM     14  C   UNL     1      84.519  65.304  73.420  1.00  0.00    -0.044 A 
ATOM     15  C   UNL     1      84.738  66.640  73.756  1.00  0.00     0.054 A 
ATOM     16  C   UNL     1      83.976  64.977  72.177  1.00  0.00     0.008 A 
ATOM     17  C   UNL     1      84.415  67.648  72.848  1.00  0.00     0.160 A 
ATOM     18  C   UNL     1      83.653  65.985  71.269  1.00  0.00     0.050 A 
ATOM     19  C   UNL     1      83.872  67.321  71.605  1.00  0.00     0.157 A 
BRANCH  17  20
ATOM     20  O   UNL     1      84.633  68.950  73.187  1.00  0.00    -0.493 OA
ATOM     21  C   UNL     1      85.983  69.410  73.157  1.00  0.00     0.278 C 
ENDBRANCH  17  20
BRANCH  19  22
ATOM     22  O   UNL     1      83.553  68.298  70.711  1.00  0.00    -0.504 OA
ATOM     23  H   UNL     1      82.644  68.600  70.882  1.00  0.00     0.293 HD
ENDBRANCH  19  22
ENDBRANCH  13  14
ENDBRANCH  12  13
ENDBRANCH  10  12
ENDBRANCH   1  10
TORSDOF 12
ENDMDL
MODEL 9
REMARK VINA RESULT:    -5.401     22.662     26.486
REMARK INTER + INTRA:         -10.123
REMARK INTER:                  -7.925
REMARK INTRA:                  -2.198
REMARK UNBOUND:                -1.248
REMARK SMILES CCCCC[C@H](O)CC(=O)CCc1ccc(O)c(OC)c1
REMARK SMILES IDX 8 1 6 2 7 3 5 5 4 6 3 7 2 8 1 9 9 10 10 11 11 12 12 13 13 14
REMARK SMILES IDX 21 15 14 16 18 17 15 18 16 19 19 20 20 21 17 22
REMARK H PARENT 7 4 17 23
REMARK Flexibility Score: inf
ROOT
ATOM      1  C   UNL     1      83.344  64.200  75.359  1.00  0.00     0.107 C 
ENDROOT
BRANCH   1   2
ATOM      2  C   UNL     1      83.018  65.285  76.389  1.00  0.00     0.121 C 
BRANCH   2   3
ATOM      3  O   UNL     1      83.929  66.372  76.251  1.00  0.00    -0.393 OA
ATOM      4  H   UNL     1      84.832  66.014  76.312  1.00  0.00     0.210 HD
ENDBRANCH   2   3
BRANCH   2   5
ATOM      5  C   UNL     1      81.582  65.811  76.272  1.00  0.00     0.032 C 
BRANCH   5   6
ATOM      6  C   UNL     1      81.336  66.521  74.936  1.00  0.00     0.003 C 
BRANCH   6   7
ATOM      7  C   UNL     1      80.058  66.058  74.229  1.00  0.00    -0.000 C 
BRANCH   7   8
ATOM      8  C   UNL     1      80.269  64.859  73.306  1.00  0.00    -0.003 C 
ATOM      9  C   UNL     1      79.822  63.564  73.968  1.00  0.00     0.004 C 
ENDBRANCH   7   8
ENDBRANCH   6   7
ENDBRANCH   5   6
ENDBRANCH   2   5
ENDBRANCH   1   2
BRANCH   1  10
ATOM     10  C   UNL     1      84.798  64.218  74.915  1.00  0.00     0.135 C 
ATOM     11  O   UNL     1      85.705  63.965  75.708  1.00  0.00    -0.300 OA
BRANCH  10  12
ATOM     12  C   UNL     1      85.058  64.518  73.447  1.00  0.00     0.080 C 
BRANCH  12  13
ATOM     13  C   UNL     1      83.796  64.869  72.657  1.00  0.00     0.043 C 
BRANCH  13  14
ATOM     14  C   UNL     1      83.720  66.329  72.281  1.00  0.00    -0.044 A 
ATOM     15  C   UNL     1      84.609  67.243  72.848  1.00  0.00     0.054 A 
ATOM     16  C   UNL     1      82.760  66.765  71.367  1.00  0.00     0.008 A 
ATOM     17  C   UNL     1      84.538  68.592  72.499  1.00  0.00     0.160 A 
ATOM     18  C   UNL     1      82.690  68.113  71.018  1.00  0.00     0.050 A 
ATOM     19  C   UNL     1      83.578  69.027  71.585  1.00  0.00     0.157 A 
BRANCH  17  20
ATOM     20  O   UNL     1      85.411  69.475  73.059  1.00  0.00    -0.493 OA
ATOM     21  C   UNL     1      86.685  69.613  72.433  1.00  0.00     0.278 C 
ENDBRANCH  17  20
BRANCH  19  22
ATOM     22  O   UNL     1      83.500  70.341  71.236  1.00  0.00    -0.504 OA
ATOM     23  H   UNL     1      84.395  70.674  71.050  1.00  0.00     0.293 HD
ENDBRANCH  19  22
ENDBRANCH  13  14
ENDBRANCH  12  13
ENDBRANCH  10  12
ENDBRANCH   1  10
TORSDOF 12
ENDMDL
MODEL 10
REMARK VINA RESULT:    -5.374     12.665     15.836
REMARK INTER + INTRA:         -10.077
REMARK INTER:                  -8.745
REMARK INTRA:                  -1.332
REMARK UNBOUND:                -1.248
REMARK SMILES CCCCC[C@H](O)CC(=O)CCc1ccc(O)c(OC)c1
REMARK SMILES IDX 8 1 6 2 7 3 5 5 4 6 3 7 2 8 1 9 9 10 10 11 11 12 12 13 13 14
REMARK SMILES IDX 21 15 14 16 18 17 15 18 16 19 19 20 20 21 17 22
REMARK H PARENT 7 4 17 23
REMARK Flexibility Score: inf
ROOT
ATOM      1  C   UNL     1      82.276  87.040  86.768  1.00  0.00     0.107 C 
ENDROOT
BRANCH   1   2
ATOM      2  C   UNL     1      81.975  86.027  85.661  1.00  0.00     0.121 C 
BRANCH   2   3
ATOM      3  O   UNL     1      82.465  84.742  86.036  1.00  0.00    -0.393 OA
ATOM      4  H   UNL     1      82.227  84.115  85.330  1.00  0.00     0.210 HD
ENDBRANCH   2   3
BRANCH   2   5
ATOM      5  C   UNL     1      80.480  85.922  85.334  1.00  0.00     0.032 C 
BRANCH   5   6
ATOM      6  C   UNL     1      79.917  87.238  84.784  1.00  0.00     0.003 C 
BRANCH   6   7
ATOM      7  C   UNL     1      80.882  87.964  83.841  1.00  0.00    -0.000 C 
BRANCH   7   8
ATOM      8  C   UNL     1      81.042  89.451  84.155  1.00  0.00    -0.003 C 
ATOM      9  C   UNL     1      80.275  89.838  85.410  1.00  0.00     0.004 C 
ENDBRANCH   7   8
ENDBRANCH   6   7
ENDBRANCH   5   6
ENDBRANCH   2   5
ENDBRANCH   1   2
BRANCH   1  10
ATOM     10  C   UNL     1      81.438  86.823  88.018  1.00  0.00     0.135 C 
ATOM     11  O   UNL     1      81.477  85.755  88.628  1.00  0.00    -0.300 OA
BRANCH  10  12
ATOM     12  C   UNL     1      80.598  88.000  88.489  1.00  0.00     0.080 C 
BRANCH  12  13
ATOM     13  C   UNL     1      81.307  88.893  89.509  1.00  0.00     0.043 C 
BRANCH  13  14
ATOM     14  C   UNL     1      82.071  90.029  88.871  1.00  0.00    -0.044 A 
ATOM     15  C   UNL     1      83.296  89.785  88.252  1.00  0.00     0.054 A 
ATOM     16  C   UNL     1      81.550  91.323  88.901  1.00  0.00     0.008 A 
ATOM     17  C   UNL     1      84.001  90.835  87.662  1.00  0.00     0.160 A 
ATOM     18  C   UNL     1      82.254  92.373  88.311  1.00  0.00     0.050 A 
ATOM     19  C   UNL     1      83.480  92.129  87.692  1.00  0.00     0.157 A 
BRANCH  17  20
ATOM     20  O   UNL     1      85.197  90.584  87.061  1.00  0.00    -0.493 OA
ATOM     21  C   UNL     1      85.160  90.104  85.718  1.00  0.00     0.278 C 
ENDBRANCH  17  20
BRANCH  19  22
ATOM     22  O   UNL     1      84.158  93.162  87.120  1.00  0.00    -0.504 OA
ATOM     23  H   UNL     1      83.676  93.990  87.288  1.00  0.00     0.293 HD
ENDBRANCH  19  22
ENDBRANCH  13  14
ENDBRANCH  12  13
ENDBRANCH  10  12
ENDBRANCH   1  10
TORSDOF 12
ENDMDL
