MODEL 1
REMARK VINA RESULT:    -6.347      0.000      0.000
REMARK INTER + INTRA:         -11.702
REMARK INTER:                 -10.429
REMARK INTRA:                  -1.273
REMARK UNBOUND:                -1.273
REMARK SMILES CCCCC[C@H](O)CC(=O)CCc1ccc(O)c(OC)c1
REMARK SMILES IDX 8 1 6 2 7 3 5 5 4 6 3 7 2 8 1 9 9 10 10 11 11 12 12 13 13 14
REMARK SMILES IDX 21 15 14 16 18 17 15 18 16 19 19 20 20 21 17 22
REMARK H PARENT 7 4 17 23
REMARK Flexibility Score: inf
ROOT
ATOM      1  C   UNL     1      90.050  91.267  74.885  1.00  0.00     0.107 C 
ENDROOT
BRANCH   1   2
ATOM      2  C   UNL     1      91.113  90.575  74.028  1.00  0.00     0.121 C 
BRANCH   2   3
ATOM      3  O   UNL     1      92.290  91.377  73.978  1.00  0.00    -0.393 OA
ATOM      4  H   UNL     1      92.341  91.883  74.808  1.00  0.00     0.210 HD
ENDBRANCH   2   3
BRANCH   2   5
ATOM      5  C   UNL     1      91.476  89.175  74.537  1.00  0.00     0.032 C 
BRANCH   5   6
ATOM      6  C   UNL     1      90.331  88.535  75.331  1.00  0.00     0.003 C 
BRANCH   6   7
ATOM      7  C   UNL     1      90.799  87.827  76.607  1.00  0.00    -0.000 C 
BRANCH   7   8
ATOM      8  C   UNL     1      89.899  88.082  77.814  1.00  0.00    -0.003 C 
ATOM      9  C   UNL     1      89.795  89.567  78.124  1.00  0.00     0.004 C 
ENDBRANCH   7   8
ENDBRANCH   6   7
ENDBRANCH   5   6
ENDBRANCH   2   5
ENDBRANCH   1   2
BRANCH   1  10
ATOM     10  C   UNL     1      90.256  92.769  74.992  1.00  0.00     0.135 C 
ATOM     11  O   UNL     1      90.176  93.491  73.998  1.00  0.00    -0.300 OA
BRANCH  10  12
ATOM     12  C   UNL     1      90.516  93.325  76.384  1.00  0.00     0.080 C 
BRANCH  12  13
ATOM     13  C   UNL     1      91.138  94.723  76.382  1.00  0.00     0.043 C 
BRANCH  13  14
ATOM     14  C   UNL     1      92.647  94.698  76.356  1.00  0.00    -0.044 A 
ATOM     15  C   UNL     1      93.358  94.291  77.485  1.00  0.00     0.054 A 
ATOM     16  C   UNL     1      93.331  95.084  75.202  1.00  0.00     0.008 A 
ATOM     17  C   UNL     1      94.753  94.268  77.459  1.00  0.00     0.160 A 
ATOM     18  C   UNL     1      94.726  95.061  75.177  1.00  0.00     0.050 A 
ATOM     19  C   UNL     1      95.436  94.654  76.306  1.00  0.00     0.157 A 
BRANCH  17  20
ATOM     20  O   UNL     1      95.436  93.869  78.568  1.00  0.00    -0.493 OA
ATOM     21  C   UNL     1      95.466  94.773  79.672  1.00  0.00     0.278 C 
ENDBRANCH  17  20
BRANCH  19  22
ATOM     22  O   UNL     1      96.798  94.636  76.269  1.00  0.00    -0.504 OA
ATOM     23  H   UNL     1      97.141  94.829  77.158  1.00  0.00     0.293 HD
ENDBRANCH  19  22
ENDBRANCH  13  14
ENDBRANCH  12  13
ENDBRANCH  10  12
ENDBRANCH   1  10
TORSDOF 12
ENDMDL
MODEL 2
REMARK VINA RESULT:    -6.203      1.782      2.707
REMARK INTER + INTRA:         -11.464
REMARK INTER:                  -9.984
REMARK INTRA:                  -1.480
REMARK UNBOUND:                -1.273
REMARK SMILES CCCCC[C@H](O)CC(=O)CCc1ccc(O)c(OC)c1
REMARK SMILES IDX 8 1 6 2 7 3 5 5 4 6 3 7 2 8 1 9 9 10 10 11 11 12 12 13 13 14
REMARK SMILES IDX 21 15 14 16 18 17 15 18 16 19 19 20 20 21 17 22
REMARK H PARENT 7 4 17 23
REMARK Flexibility Score: inf
ROOT
ATOM      1  C   UNL     1      88.977  91.411  74.469  1.00  0.00     0.107 C 
ENDROOT
BRANCH   1   2
ATOM      2  C   UNL     1      88.677  89.945  74.145  1.00  0.00     0.121 C 
BRANCH   2   3
ATOM      3  O   UNL     1      87.778  89.868  73.042  1.00  0.00    -0.393 OA
ATOM      4  H   UNL     1      87.467  88.949  72.975  1.00  0.00     0.210 HD
ENDBRANCH   2   3
BRANCH   2   5
ATOM      5  C   UNL     1      89.938  89.131  73.828  1.00  0.00     0.032 C 
BRANCH   5   6
ATOM      6  C   UNL     1      90.084  87.913  74.748  1.00  0.00     0.003 C 
BRANCH   6   7
ATOM      7  C   UNL     1      90.912  88.198  76.005  1.00  0.00    -0.000 C 
BRANCH   7   8
ATOM      8  C   UNL     1      90.095  88.169  77.295  1.00  0.00    -0.003 C 
ATOM      9  C   UNL     1      89.736  89.573  77.756  1.00  0.00     0.004 C 
ENDBRANCH   7   8
ENDBRANCH   6   7
ENDBRANCH   5   6
ENDBRANCH   2   5
ENDBRANCH   1   2
BRANCH   1  10
ATOM     10  C   UNL     1      89.385  92.220  73.249  1.00  0.00     0.135 C 
ATOM     11  O   UNL     1      88.596  92.412  72.324  1.00  0.00    -0.300 OA
BRANCH  10  12
ATOM     12  C   UNL     1      90.789  92.806  73.258  1.00  0.00     0.080 C 
BRANCH  12  13
ATOM     13  C   UNL     1      91.811  91.945  74.002  1.00  0.00     0.043 C 
BRANCH  13  14
ATOM     14  C   UNL     1      92.474  92.670  75.148  1.00  0.00    -0.044 A 
ATOM     15  C   UNL     1      93.630  93.419  74.925  1.00  0.00     0.054 A 
ATOM     16  C   UNL     1      91.930  92.592  76.431  1.00  0.00     0.008 A 
ATOM     17  C   UNL     1      94.241  94.089  75.985  1.00  0.00     0.160 A 
ATOM     18  C   UNL     1      92.541  93.263  77.490  1.00  0.00     0.050 A 
ATOM     19  C   UNL     1      93.697  94.011  77.267  1.00  0.00     0.157 A 
BRANCH  17  20
ATOM     20  O   UNL     1      95.370  94.817  75.755  1.00  0.00    -0.493 OA
ATOM     21  C   UNL     1      95.196  96.146  75.269  1.00  0.00     0.278 C 
ENDBRANCH  17  20
BRANCH  19  22
ATOM     22  O   UNL     1      94.284  94.661  78.309  1.00  0.00    -0.504 OA
ATOM     23  H   UNL     1      93.791  95.480  78.491  1.00  0.00     0.293 HD
ENDBRANCH  19  22
ENDBRANCH  13  14
ENDBRANCH  12  13
ENDBRANCH  10  12
ENDBRANCH   1  10
TORSDOF 12
ENDMDL
MODEL 3
REMARK VINA RESULT:    -5.988      1.865      3.444
REMARK INTER + INTRA:         -11.111
REMARK INTER:                  -9.798
REMARK INTRA:                  -1.313
REMARK UNBOUND:                -1.273
REMARK SMILES CCCCC[C@H](O)CC(=O)CCc1ccc(O)c(OC)c1
REMARK SMILES IDX 8 1 6 2 7 3 5 5 4 6 3 7 2 8 1 9 9 10 10 11 11 12 12 13 13 14
REMARK SMILES IDX 21 15 14 16 18 17 15 18 16 19 19 20 20 21 17 22
REMARK H PARENT 7 4 17 23
REMARK Flexibility Score: inf
ROOT
ATOM      1  C   UNL     1      91.062  91.674  76.582  1.00  0.00     0.107 C 
ENDROOT
BRANCH   1   2
ATOM      2  C   UNL     1      90.243  90.621  75.832  1.00  0.00     0.121 C 
BRANCH   2   3
ATOM      3  O   UNL     1      89.011  91.189  75.393  1.00  0.00    -0.393 OA
ATOM      4  H   UNL     1      88.499  90.487  74.955  1.00  0.00     0.210 HD
ENDBRANCH   2   3
BRANCH   2   5
ATOM      5  C   UNL     1      90.985  90.031  74.626  1.00  0.00     0.032 C 
BRANCH   5   6
ATOM      6  C   UNL     1      91.670  91.114  73.784  1.00  0.00     0.003 C 
BRANCH   6   7
ATOM      7  C   UNL     1      90.855  91.535  72.558  1.00  0.00    -0.000 C 
BRANCH   7   8
ATOM      8  C   UNL     1      90.031  90.401  71.951  1.00  0.00    -0.003 C 
ATOM      9  C   UNL     1      88.568  90.793  71.807  1.00  0.00     0.004 C 
ENDBRANCH   7   8
ENDBRANCH   6   7
ENDBRANCH   5   6
ENDBRANCH   2   5
ENDBRANCH   1   2
BRANCH   1  10
ATOM     10  C   UNL     1      90.282  92.949  76.859  1.00  0.00     0.135 C 
ATOM     11  O   UNL     1      89.208  92.916  77.459  1.00  0.00    -0.300 OA
BRANCH  10  12
ATOM     12  C   UNL     1      90.919  94.252  76.399  1.00  0.00     0.080 C 
BRANCH  12  13
ATOM     13  C   UNL     1      92.128  94.055  75.482  1.00  0.00     0.043 C 
BRANCH  13  14
ATOM     14  C   UNL     1      93.435  94.442  76.134  1.00  0.00    -0.044 A 
ATOM     15  C   UNL     1      94.392  95.152  75.410  1.00  0.00     0.054 A 
ATOM     16  C   UNL     1      93.682  94.090  77.461  1.00  0.00     0.008 A 
ATOM     17  C   UNL     1      95.598  95.510  76.014  1.00  0.00     0.160 A 
ATOM     18  C   UNL     1      94.888  94.448  78.065  1.00  0.00     0.050 A 
ATOM     19  C   UNL     1      95.846  95.157  77.341  1.00  0.00     0.157 A 
BRANCH  17  20
ATOM     20  O   UNL     1      96.527  96.202  75.296  1.00  0.00    -0.493 OA
ATOM     21  C   UNL     1      96.043  97.032  74.241  1.00  0.00     0.278 C 
ENDBRANCH  17  20
BRANCH  19  22
ATOM     22  O   UNL     1      97.020  95.501  77.941  1.00  0.00    -0.504 OA
ATOM     23  H   UNL     1      96.932  95.378  78.901  1.00  0.00     0.293 HD
ENDBRANCH  19  22
ENDBRANCH  13  14
ENDBRANCH  12  13
ENDBRANCH  10  12
ENDBRANCH   1  10
TORSDOF 12
ENDMDL
MODEL 4
REMARK VINA RESULT:    -5.953      1.459      2.498
REMARK INTER + INTRA:         -11.054
REMARK INTER:                 -10.030
REMARK INTRA:                  -1.025
REMARK UNBOUND:                -1.273
REMARK SMILES CCCCC[C@H](O)CC(=O)CCc1ccc(O)c(OC)c1
REMARK SMILES IDX 8 1 6 2 7 3 5 5 4 6 3 7 2 8 1 9 9 10 10 11 11 12 12 13 13 14
REMARK SMILES IDX 21 15 14 16 18 17 15 18 16 19 19 20 20 21 17 22
REMARK H PARENT 7 4 17 23
REMARK Flexibility Score: inf
ROOT
ATOM      1  C   UNL     1      91.727  91.318  73.889  1.00  0.00     0.107 C 
ENDROOT
BRANCH   1   2
ATOM      2  C   UNL     1      90.479  91.052  73.043  1.00  0.00     0.121 C 
BRANCH   2   3
ATOM      3  O   UNL     1      90.652  91.604  71.740  1.00  0.00    -0.393 OA
ATOM      4  H   UNL     1      91.310  91.061  71.272  1.00  0.00     0.210 HD
ENDBRANCH   2   3
BRANCH   2   5
ATOM      5  C   UNL     1      90.145  89.560  72.919  1.00  0.00     0.032 C 
BRANCH   5   6
ATOM      6  C   UNL     1      89.848  88.921  74.281  1.00  0.00     0.003 C 
BRANCH   6   7
ATOM      7  C   UNL     1      90.792  87.764  74.626  1.00  0.00    -0.000 C 
BRANCH   7   8
ATOM      8  C   UNL     1      91.185  87.714  76.101  1.00  0.00    -0.003 C 
ATOM      9  C   UNL     1      90.096  88.301  76.986  1.00  0.00     0.004 C 
ENDBRANCH   7   8
ENDBRANCH   6   7
ENDBRANCH   5   6
ENDBRANCH   2   5
ENDBRANCH   1   2
BRANCH   1  10
ATOM     10  C   UNL     1      91.423  92.053  75.184  1.00  0.00     0.135 C 
ATOM     11  O   UNL     1      91.437  91.464  76.265  1.00  0.00    -0.300 OA
BRANCH  10  12
ATOM     12  C   UNL     1      91.152  93.546  75.073  1.00  0.00     0.080 C 
BRANCH  12  13
ATOM     13  C   UNL     1      91.561  94.339  76.316  1.00  0.00     0.043 C 
BRANCH  13  14
ATOM     14  C   UNL     1      93.053  94.543  76.423  1.00  0.00    -0.044 A 
ATOM     15  C   UNL     1      93.738  95.229  75.421  1.00  0.00     0.054 A 
ATOM     16  C   UNL     1      93.747  94.044  77.527  1.00  0.00     0.008 A 
ATOM     17  C   UNL     1      95.117  95.417  75.522  1.00  0.00     0.160 A 
ATOM     18  C   UNL     1      95.125  94.232  77.628  1.00  0.00     0.050 A 
ATOM     19  C   UNL     1      95.810  94.918  76.625  1.00  0.00     0.157 A 
BRANCH  17  20
ATOM     20  O   UNL     1      95.775  96.088  74.536  1.00  0.00    -0.493 OA
ATOM     21  C   UNL     1      95.112  97.215  73.965  1.00  0.00     0.278 C 
ENDBRANCH  17  20
BRANCH  19  22
ATOM     22  O   UNL     1      97.156  95.096  76.735  1.00  0.00    -0.504 OA
ATOM     23  H   UNL     1      97.336  96.023  76.968  1.00  0.00     0.293 HD
ENDBRANCH  19  22
ENDBRANCH  13  14
ENDBRANCH  12  13
ENDBRANCH  10  12
ENDBRANCH   1  10
TORSDOF 12
ENDMDL
MODEL 5
REMARK VINA RESULT:    -5.681     13.043     16.312
REMARK INTER + INTRA:         -10.607
REMARK INTER:                  -9.004
REMARK INTRA:                  -1.603
REMARK UNBOUND:                -1.273
REMARK SMILES CCCCC[C@H](O)CC(=O)CCc1ccc(O)c(OC)c1
REMARK SMILES IDX 8 1 6 2 7 3 5 5 4 6 3 7 2 8 1 9 9 10 10 11 11 12 12 13 13 14
REMARK SMILES IDX 21 15 14 16 18 17 15 18 16 19 19 20 20 21 17 22
REMARK H PARENT 7 4 17 23
REMARK Flexibility Score: inf
ROOT
ATOM      1  C   UNL     1      83.027  91.120  87.332  1.00  0.00     0.107 C 
ENDROOT
BRANCH   1   2
ATOM      2  C   UNL     1      83.494  90.246  88.499  1.00  0.00     0.121 C 
BRANCH   2   3
ATOM      3  O   UNL     1      84.322  91.009  89.373  1.00  0.00    -0.393 OA
ATOM      4  H   UNL     1      84.758  91.699  88.843  1.00  0.00     0.210 HD
ENDBRANCH   2   3
BRANCH   2   5
ATOM      5  C   UNL     1      82.333  89.644  89.301  1.00  0.00     0.032 C 
BRANCH   5   6
ATOM      6  C   UNL     1      80.985  89.834  88.594  1.00  0.00     0.003 C 
BRANCH   6   7
ATOM      7  C   UNL     1      80.025  88.657  88.794  1.00  0.00    -0.000 C 
BRANCH   7   8
ATOM      8  C   UNL     1      80.662  87.460  89.496  1.00  0.00    -0.003 C 
ATOM      9  C   UNL     1      79.606  86.513  90.046  1.00  0.00     0.004 C 
ENDBRANCH   7   8
ENDBRANCH   6   7
ENDBRANCH   5   6
ENDBRANCH   2   5
ENDBRANCH   1   2
BRANCH   1  10
ATOM     10  C   UNL     1      84.017  91.154  86.180  1.00  0.00     0.135 C 
ATOM     11  O   UNL     1      84.933  91.977  86.157  1.00  0.00    -0.300 OA
BRANCH  10  12
ATOM     12  C   UNL     1      83.842  90.100  85.098  1.00  0.00     0.080 C 
BRANCH  12  13
ATOM     13  C   UNL     1      82.452  90.101  84.458  1.00  0.00     0.043 C 
BRANCH  13  14
ATOM     14  C   UNL     1      81.685  88.824  84.707  1.00  0.00    -0.044 A 
ATOM     15  C   UNL     1      82.135  87.915  85.665  1.00  0.00     0.054 A 
ATOM     16  C   UNL     1      80.527  88.554  83.978  1.00  0.00     0.008 A 
ATOM     17  C   UNL     1      81.425  86.737  85.894  1.00  0.00     0.160 A 
ATOM     18  C   UNL     1      79.817  87.375  84.207  1.00  0.00     0.050 A 
ATOM     19  C   UNL     1      80.267  86.466  85.165  1.00  0.00     0.157 A 
BRANCH  17  20
ATOM     20  O   UNL     1      81.874  85.856  86.832  1.00  0.00    -0.493 OA
ATOM     21  C   UNL     1      82.915  84.964  86.437  1.00  0.00     0.278 C 
ENDBRANCH  17  20
BRANCH  19  22
ATOM     22  O   UNL     1      79.565  85.319  85.380  1.00  0.00    -0.504 OA
ATOM     23  H   UNL     1      79.214  84.999  84.531  1.00  0.00     0.293 HD
ENDBRANCH  19  22
ENDBRANCH  13  14
ENDBRANCH  12  13
ENDBRANCH  10  12
ENDBRANCH   1  10
TORSDOF 12
ENDMDL
MODEL 6
REMARK VINA RESULT:    -5.376      3.177      8.523
REMARK INTER + INTRA:         -10.106
REMARK INTER:                  -9.440
REMARK INTRA:                  -0.666
REMARK UNBOUND:                -1.273
REMARK SMILES CCCCC[C@H](O)CC(=O)CCc1ccc(O)c(OC)c1
REMARK SMILES IDX 8 1 6 2 7 3 5 5 4 6 3 7 2 8 1 9 9 10 10 11 11 12 12 13 13 14
REMARK SMILES IDX 21 15 14 16 18 17 15 18 16 19 19 20 20 21 17 22
REMARK H PARENT 7 4 17 23
REMARK Flexibility Score: inf
ROOT
ATOM      1  C   UNL     1      96.488  95.113  80.366  1.00  0.00     0.107 C 
ENDROOT
BRANCH   1   2
ATOM      2  C   UNL     1      95.702  95.913  81.407  1.00  0.00     0.121 C 
BRANCH   2   3
ATOM      3  O   UNL     1      95.279  95.050  82.461  1.00  0.00    -0.393 OA
ATOM      4  H   UNL     1      95.116  95.599  83.247  1.00  0.00     0.210 HD
ENDBRANCH   2   3
BRANCH   2   5
ATOM      5  C   UNL     1      96.503  97.078  81.999  1.00  0.00     0.032 C 
BRANCH   5   6
ATOM      6  C   UNL     1      96.315  98.373  81.200  1.00  0.00     0.003 C 
BRANCH   6   7
ATOM      7  C   UNL     1      95.947  99.577  82.074  1.00  0.00    -0.000 C 
BRANCH   7   8
ATOM      8  C   UNL     1      95.356 100.745  81.288  1.00  0.00    -0.003 C 
ATOM      9  C   UNL     1      96.328 101.912  81.214  1.00  0.00     0.004 C 
ENDBRANCH   7   8
ENDBRANCH   6   7
ENDBRANCH   5   6
ENDBRANCH   2   5
ENDBRANCH   1   2
BRANCH   1  10
ATOM     10  C   UNL     1      95.718  93.918  79.826  1.00  0.00     0.135 C 
ATOM     11  O   UNL     1      95.097  93.172  80.582  1.00  0.00    -0.300 OA
BRANCH  10  12
ATOM     12  C   UNL     1      95.722  93.730  78.317  1.00  0.00     0.080 C 
BRANCH  12  13
ATOM     13  C   UNL     1      94.768  94.670  77.577  1.00  0.00     0.043 C 
BRANCH  13  14
ATOM     14  C   UNL     1      93.675  93.940  76.834  1.00  0.00    -0.044 A 
ATOM     15  C   UNL     1      92.505  93.572  77.498  1.00  0.00     0.054 A 
ATOM     16  C   UNL     1      93.836  93.633  75.482  1.00  0.00     0.008 A 
ATOM     17  C   UNL     1      91.496  92.898  76.810  1.00  0.00     0.160 A 
ATOM     18  C   UNL     1      92.827  92.960  74.794  1.00  0.00     0.050 A 
ATOM     19  C   UNL     1      91.657  92.592  75.459  1.00  0.00     0.157 A 
BRANCH  17  20
ATOM     20  O   UNL     1      90.357  92.543  77.470  1.00  0.00    -0.493 OA
ATOM     21  C   UNL     1      90.394  91.329  78.218  1.00  0.00     0.278 C 
ENDBRANCH  17  20
BRANCH  19  22
ATOM     22  O   UNL     1      90.678  91.934  74.776  1.00  0.00    -0.504 OA
ATOM     23  H   UNL     1      90.798  90.976  74.895  1.00  0.00     0.293 HD
ENDBRANCH  19  22
ENDBRANCH  13  14
ENDBRANCH  12  13
ENDBRANCH  10  12
ENDBRANCH   1  10
TORSDOF 12
ENDMDL
MODEL 7
REMARK VINA RESULT:    -5.219     25.793     28.662
REMARK INTER + INTRA:          -9.849
REMARK INTER:                  -8.816
REMARK INTRA:                  -1.032
REMARK UNBOUND:                -1.273
REMARK SMILES CCCCC[C@H](O)CC(=O)CCc1ccc(O)c(OC)c1
REMARK SMILES IDX 8 1 6 2 7 3 5 5 4 6 3 7 2 8 1 9 9 10 10 11 11 12 12 13 13 14
REMARK SMILES IDX 21 15 14 16 18 17 15 18 16 19 19 20 20 21 17 22
REMARK H PARENT 7 4 17 23
REMARK Flexibility Score: inf
ROOT
ATOM      1  C   UNL     1      81.788  65.688  74.435  1.00  0.00     0.107 C 
ENDROOT
BRANCH   1   2
ATOM      2  C   UNL     1      80.395  65.968  73.865  1.00  0.00     0.121 C 
BRANCH   2   3
ATOM      3  O   UNL     1      80.241  67.366  73.632  1.00  0.00    -0.393 OA
ATOM      4  H   UNL     1      80.333  67.822  74.486  1.00  0.00     0.210 HD
ENDBRANCH   2   3
BRANCH   2   5
ATOM      5  C   UNL     1      80.113  65.205  72.565  1.00  0.00     0.032 C 
BRANCH   5   6
ATOM      6  C   UNL     1      80.129  66.127  71.340  1.00  0.00     0.003 C 
BRANCH   6   7
ATOM      7  C   UNL     1      81.359  65.929  70.448  1.00  0.00    -0.000 C 
BRANCH   7   8
ATOM      8  C   UNL     1      82.563  66.771  70.869  1.00  0.00    -0.003 C 
ATOM      9  C   UNL     1      82.222  68.253  70.891  1.00  0.00     0.004 C 
ENDBRANCH   7   8
ENDBRANCH   6   7
ENDBRANCH   5   6
ENDBRANCH   2   5
ENDBRANCH   1   2
BRANCH   1  10
ATOM     10  C   UNL     1      81.870  65.898  75.938  1.00  0.00     0.135 C 
ATOM     11  O   UNL     1      81.576  66.981  76.442  1.00  0.00    -0.300 OA
BRANCH  10  12
ATOM     12  C   UNL     1      82.287  64.696  76.772  1.00  0.00     0.080 C 
BRANCH  12  13
ATOM     13  C   UNL     1      83.711  64.215  76.489  1.00  0.00     0.043 C 
BRANCH  13  14
ATOM     14  C   UNL     1      84.632  64.358  77.677  1.00  0.00    -0.044 A 
ATOM     15  C   UNL     1      85.331  65.547  77.879  1.00  0.00     0.054 A 
ATOM     16  C   UNL     1      84.783  63.299  78.573  1.00  0.00     0.008 A 
ATOM     17  C   UNL     1      86.181  65.678  78.977  1.00  0.00     0.160 A 
ATOM     18  C   UNL     1      85.633  63.430  79.672  1.00  0.00     0.050 A 
ATOM     19  C   UNL     1      86.332  64.620  79.873  1.00  0.00     0.157 A 
BRANCH  17  20
ATOM     20  O   UNL     1      86.860  66.845  79.164  1.00  0.00    -0.493 OA
ATOM     21  C   UNL     1      86.464  67.959  78.366  1.00  0.00     0.278 C 
ENDBRANCH  17  20
BRANCH  19  22
ATOM     22  O   UNL     1      87.159  64.736  80.950  1.00  0.00    -0.504 OA
ATOM     23  H   UNL     1      88.076  64.590  80.661  1.00  0.00     0.293 HD
ENDBRANCH  19  22
ENDBRANCH  13  14
ENDBRANCH  12  13
ENDBRANCH  10  12
ENDBRANCH   1  10
TORSDOF 12
ENDMDL
MODEL 8
REMARK VINA RESULT:    -5.209      2.757      8.299
REMARK INTER + INTRA:          -9.831
REMARK INTER:                  -8.839
REMARK INTRA:                  -0.992
REMARK UNBOUND:                -1.273
REMARK SMILES CCCCC[C@H](O)CC(=O)CCc1ccc(O)c(OC)c1
REMARK SMILES IDX 8 1 6 2 7 3 5 5 4 6 3 7 2 8 1 9 9 10 10 11 11 12 12 13 13 14
REMARK SMILES IDX 21 15 14 16 18 17 15 18 16 19 19 20 20 21 17 22
REMARK H PARENT 7 4 17 23
REMARK Flexibility Score: inf
ROOT
ATOM      1  C   UNL     1      96.159  95.406  80.019  1.00  0.00     0.107 C 
ENDROOT
BRANCH   1   2
ATOM      2  C   UNL     1      95.661  95.993  81.342  1.00  0.00     0.121 C 
BRANCH   2   3
ATOM      3  O   UNL     1      96.044  95.144  82.422  1.00  0.00    -0.393 OA
ATOM      4  H   UNL     1      96.786  95.570  82.886  1.00  0.00     0.210 HD
ENDBRANCH   2   3
BRANCH   2   5
ATOM      5  C   UNL     1      96.183  97.411  81.605  1.00  0.00     0.032 C 
BRANCH   5   6
ATOM      6  C   UNL     1      97.641  97.579  81.160  1.00  0.00     0.003 C 
BRANCH   6   7
ATOM      7  C   UNL     1      98.642  97.492  82.317  1.00  0.00    -0.000 C 
BRANCH   7   8
ATOM      8  C   UNL     1      99.930  96.754  81.958  1.00  0.00    -0.003 C 
ATOM      9  C   UNL     1      99.728  95.837  80.760  1.00  0.00     0.004 C 
ENDBRANCH   7   8
ENDBRANCH   6   7
ENDBRANCH   5   6
ENDBRANCH   2   5
ENDBRANCH   1   2
BRANCH   1  10
ATOM     10  C   UNL     1      95.595  94.025  79.730  1.00  0.00     0.135 C 
ATOM     11  O   UNL     1      95.134  93.328  80.634  1.00  0.00    -0.300 OA
BRANCH  10  12
ATOM     12  C   UNL     1      95.592  93.580  78.275  1.00  0.00     0.080 C 
BRANCH  12  13
ATOM     13  C   UNL     1      94.886  94.559  77.335  1.00  0.00     0.043 C 
BRANCH  13  14
ATOM     14  C   UNL     1      93.673  93.961  76.661  1.00  0.00    -0.044 A 
ATOM     15  C   UNL     1      92.552  93.619  77.417  1.00  0.00     0.054 A 
ATOM     16  C   UNL     1      93.675  93.753  75.281  1.00  0.00     0.008 A 
ATOM     17  C   UNL     1      91.433  93.068  76.793  1.00  0.00     0.160 A 
ATOM     18  C   UNL     1      92.556  93.202  74.657  1.00  0.00     0.050 A 
ATOM     19  C   UNL     1      91.435  92.859  75.413  1.00  0.00     0.157 A 
BRANCH  17  20
ATOM     20  O   UNL     1      90.344  92.736  77.541  1.00  0.00    -0.493 OA
ATOM     21  C   UNL     1      90.388  91.489  78.232  1.00  0.00     0.278 C 
ENDBRANCH  17  20
BRANCH  19  22
ATOM     22  O   UNL     1      90.348  92.322  74.793  1.00  0.00    -0.504 OA
ATOM     23  H   UNL     1      90.639  91.596  74.215  1.00  0.00     0.293 HD
ENDBRANCH  19  22
ENDBRANCH  13  14
ENDBRANCH  12  13
ENDBRANCH  10  12
ENDBRANCH   1  10
TORSDOF 12
ENDMDL
MODEL 9
REMARK VINA RESULT:    -5.096     13.065     16.358
REMARK INTER + INTRA:          -9.645
REMARK INTER:                  -7.894
REMARK INTRA:                  -1.752
REMARK UNBOUND:                -1.273
REMARK SMILES CCCCC[C@H](O)CC(=O)CCc1ccc(O)c(OC)c1
REMARK SMILES IDX 8 1 6 2 7 3 5 5 4 6 3 7 2 8 1 9 9 10 10 11 11 12 12 13 13 14
REMARK SMILES IDX 21 15 14 16 18 17 15 18 16 19 19 20 20 21 17 22
REMARK H PARENT 7 4 17 23
REMARK Flexibility Score: inf
ROOT
ATOM      1  C   UNL     1      82.619  90.088  90.248  1.00  0.00     0.107 C 
ENDROOT
BRANCH   1   2
ATOM      2  C   UNL     1      83.541  91.024  89.463  1.00  0.00     0.121 C 
BRANCH   2   3
ATOM      3  O   UNL     1      84.607  91.467  90.301  1.00  0.00    -0.393 OA
ATOM      4  H   UNL     1      84.740  92.417  90.135  1.00  0.00     0.210 HD
ENDBRANCH   2   3
BRANCH   2   5
ATOM      5  C   UNL     1      84.127  90.373  88.204  1.00  0.00     0.032 C 
BRANCH   5   6
ATOM      6  C   UNL     1      84.287  91.377  87.057  1.00  0.00     0.003 C 
BRANCH   6   7
ATOM      7  C   UNL     1      83.496  90.995  85.802  1.00  0.00    -0.000 C 
BRANCH   7   8
ATOM      8  C   UNL     1      84.359  90.396  84.692  1.00  0.00    -0.003 C 
ATOM      9  C   UNL     1      85.841  90.559  84.995  1.00  0.00     0.004 C 
ENDBRANCH   7   8
ENDBRANCH   6   7
ENDBRANCH   5   6
ENDBRANCH   2   5
ENDBRANCH   1   2
BRANCH   1  10
ATOM     10  C   UNL     1      81.159  90.508  90.195  1.00  0.00     0.135 C 
ATOM     11  O   UNL     1      80.433  90.400  91.182  1.00  0.00    -0.300 OA
BRANCH  10  12
ATOM     12  C   UNL     1      80.668  91.104  88.884  1.00  0.00     0.080 C 
BRANCH  12  13
ATOM     13  C   UNL     1      79.656  90.224  88.149  1.00  0.00     0.043 C 
BRANCH  13  14
ATOM     14  C   UNL     1      80.241  89.531  86.941  1.00  0.00    -0.044 A 
ATOM     15  C   UNL     1      81.137  88.476  87.108  1.00  0.00     0.054 A 
ATOM     16  C   UNL     1      79.884  89.948  85.658  1.00  0.00     0.008 A 
ATOM     17  C   UNL     1      81.676  87.836  85.991  1.00  0.00     0.160 A 
ATOM     18  C   UNL     1      80.423  89.309  84.542  1.00  0.00     0.050 A 
ATOM     19  C   UNL     1      81.319  88.253  84.708  1.00  0.00     0.157 A 
BRANCH  17  20
ATOM     20  O   UNL     1      82.550  86.806  86.166  1.00  0.00    -0.493 OA
ATOM     21  C   UNL     1      81.993  85.506  86.345  1.00  0.00     0.278 C 
ENDBRANCH  17  20
BRANCH  19  22
ATOM     22  O   UNL     1      81.838  87.636  83.611  1.00  0.00    -0.504 OA
ATOM     23  H   UNL     1      81.155  87.069  83.213  1.00  0.00     0.293 HD
ENDBRANCH  19  22
ENDBRANCH  13  14
ENDBRANCH  12  13
ENDBRANCH  10  12
ENDBRANCH   1  10
TORSDOF 12
ENDMDL
MODEL 10
REMARK VINA RESULT:    -5.078     26.511     28.964
REMARK INTER + INTRA:          -9.616
REMARK INTER:                  -8.499
REMARK INTRA:                  -1.118
REMARK UNBOUND:                -1.273
REMARK SMILES CCCCC[C@H](O)CC(=O)CCc1ccc(O)c(OC)c1
REMARK SMILES IDX 8 1 6 2 7 3 5 5 4 6 3 7 2 8 1 9 9 10 10 11 11 12 12 13 13 14
REMARK SMILES IDX 21 15 14 16 18 17 15 18 16 19 19 20 20 21 17 22
REMARK H PARENT 7 4 17 23
REMARK Flexibility Score: inf
ROOT
ATOM      1  C   UNL     1      82.402  64.817  76.517  1.00  0.00     0.107 C 
ENDROOT
BRANCH   1   2
ATOM      2  C   UNL     1      82.212  66.226  75.952  1.00  0.00     0.121 C 
BRANCH   2   3
ATOM      3  O   UNL     1      83.298  66.550  75.087  1.00  0.00    -0.393 OA
ATOM      4  H   UNL     1      83.418  65.808  74.469  1.00  0.00     0.210 HD
ENDBRANCH   2   3
BRANCH   2   5
ATOM      5  C   UNL     1      80.892  66.395  75.190  1.00  0.00     0.032 C 
BRANCH   5   6
ATOM      6  C   UNL     1      81.119  66.719  73.708  1.00  0.00     0.003 C 
BRANCH   6   7
ATOM      7  C   UNL     1      80.700  65.584  72.769  1.00  0.00    -0.000 C 
BRANCH   7   8
ATOM      8  C   UNL     1      80.054  66.070  71.472  1.00  0.00    -0.003 C 
ATOM      9  C   UNL     1      80.791  67.273  70.903  1.00  0.00     0.004 C 
ENDBRANCH   7   8
ENDBRANCH   6   7
ENDBRANCH   5   6
ENDBRANCH   2   5
ENDBRANCH   1   2
BRANCH   1  10
ATOM     10  C   UNL     1      83.406  63.990  75.731  1.00  0.00     0.135 C 
ATOM     11  O   UNL     1      83.161  63.618  74.584  1.00  0.00    -0.300 OA
BRANCH  10  12
ATOM     12  C   UNL     1      84.731  63.693  76.418  1.00  0.00     0.080 C 
BRANCH  12  13
ATOM     13  C   UNL     1      84.583  62.938  77.740  1.00  0.00     0.043 C 
BRANCH  13  14
ATOM     14  C   UNL     1      85.098  63.716  78.928  1.00  0.00    -0.044 A 
ATOM     15  C   UNL     1      85.744  64.937  78.735  1.00  0.00     0.054 A 
ATOM     16  C   UNL     1      84.927  63.213  80.218  1.00  0.00     0.008 A 
ATOM     17  C   UNL     1      86.218  65.655  79.832  1.00  0.00     0.160 A 
ATOM     18  C   UNL     1      85.402  63.931  81.315  1.00  0.00     0.050 A 
ATOM     19  C   UNL     1      86.048  65.152  81.122  1.00  0.00     0.157 A 
BRANCH  17  20
ATOM     20  O   UNL     1      86.848  66.846  79.632  1.00  0.00    -0.493 OA
ATOM     21  C   UNL     1      88.202  66.796  79.186  1.00  0.00     0.278 C 
ENDBRANCH  17  20
BRANCH  19  22
ATOM     22  O   UNL     1      86.507  65.844  82.202  1.00  0.00    -0.504 OA
ATOM     23  H   UNL     1      86.554  66.789  81.976  1.00  0.00     0.293 HD
ENDBRANCH  19  22
ENDBRANCH  13  14
ENDBRANCH  12  13
ENDBRANCH  10  12
ENDBRANCH   1  10
TORSDOF 12
ENDMDL
