MODEL 1
REMARK VINA RESULT:    -5.859      0.000      0.000
REMARK INTER + INTRA:         -12.830
REMARK INTER:                 -10.312
REMARK INTRA:                  -2.518
REMARK UNBOUND:                -2.518
REMARK SMILES C=C(C)[C@]12C[C@@H](C)[C@@]34O[C@](Cc5ccccc5)(O[C@@H]1[C@@H]3C=C(COC(=O)Cc1ccc(O)c(OC)c1)C[C@]1(O)C(=O)C(C)=C[C@@H]41)O2
REMARK SMILES IDX 23 1 22 2 21 3 20 4 9 5 8 6 10 7 6 8 18 9 46 10 19 11 5 12
REMARK SMILES IDX 7 13 4 14 45 15 38 16 44 17 40 18 42 20 41 21 43 22 39 23
REMARK SMILES IDX 11 25 12 26 13 27 17 28 14 29 16 30 15 31 2 32 3 33 1 34
REMARK SMILES IDX 37 35 24 37 25 38 26 39 27 40 28 41 36 42 29 43 33 44 30 45
REMARK SMILES IDX 31 46 34 47 35 48 32 49
REMARK H PARENT 39 24 32 50
REMARK Flexibility Score: 90.00
ROOT
ATOM      1  C   UNL     1      67.598  87.080  72.246  1.00  0.00     0.264 C 
ENDROOT
BRANCH   1   2
ATOM      2  C   UNL     1      66.548  86.890  73.315  1.00  0.00    -0.033 C 
ATOM      3  C   UNL     1      65.328  86.431  72.968  1.00  0.00    -0.015 C 
BRANCH   3   4
ATOM      4  C   UNL     1      64.092  86.229  73.829  1.00  0.00     0.078 C 
ATOM      5  O   UNL     1      64.147  83.889  74.630  1.00  0.00    -0.319 OA
ATOM      6  C   UNL     1      64.198  85.278  75.079  1.00  0.00     0.095 C 
ATOM      7  C   UNL     1      63.168  83.606  73.611  1.00  0.00     0.289 C 
ATOM      8  C   UNL     1      62.952  85.573  76.013  1.00  0.00     0.023 C 
ATOM      9  O   UNL     1      63.373  84.418  72.458  1.00  0.00    -0.320 OA
ATOM     10  O   UNL     1      61.840  83.883  74.046  1.00  0.00    -0.313 OA
ATOM     11  C   UNL     1      62.929  85.688  72.961  1.00  0.00     0.170 C 
ATOM     12  C   UNL     1      61.695  85.970  75.179  1.00  0.00     0.049 C 
ATOM     13  C   UNL     1      62.581  84.448  76.992  1.00  0.00     0.011 C 
ATOM     14  C   UNL     1      61.691  85.298  73.806  1.00  0.00     0.122 C 
BRANCH   6  15
ATOM     15  C   UNL     1      65.591  85.415  75.760  1.00  0.00     0.086 C 
ATOM     16  C   UNL     1      66.144  86.849  75.894  1.00  0.00     0.140 CG0
ATOM     17  C   UNL     1      65.802  84.829  77.128  1.00  0.00    -0.010 C 
ATOM     18  C   UNL     1      66.899  86.786  77.205  1.00  0.00     0.190 C 
ATOM     19  G   UNL     1      67.043  87.232  74.719  1.00  0.00     0.000 G0
ATOM     20  C   UNL     1      66.556  85.562  77.954  1.00  0.00    -0.008 C 
ATOM     21  O   UNL     1      67.656  87.646  77.629  1.00  0.00    -0.291 OA
ATOM     22  C   UNL     1      67.033  85.267  79.321  1.00  0.00     0.048 C 
BRANCH  16  23
ATOM     23  O   UNL     1      65.147  87.830  76.125  1.00  0.00    -0.381 OA
ATOM     24  H   UNL     1      64.458  87.441  76.688  1.00  0.00     0.212 HD
ENDBRANCH  16  23
ENDBRANCH   6  15
BRANCH   7  25
ATOM     25  C   UNL     1      63.283  82.143  73.234  1.00  0.00     0.135 C 
BRANCH  25  26
ATOM     26  C   UNL     1      63.757  81.961  71.814  1.00  0.00    -0.040 A 
ATOM     27  C   UNL     1      65.101  81.685  71.558  1.00  0.00     0.004 A 
ATOM     28  C   UNL     1      62.854  82.066  70.757  1.00  0.00     0.004 A 
ATOM     29  C   UNL     1      65.540  81.516  70.245  1.00  0.00     0.000 A 
ATOM     30  C   UNL     1      63.293  81.897  69.444  1.00  0.00     0.000 A 
ATOM     31  C   UNL     1      64.637  81.622  69.188  1.00  0.00     0.000 A 
ENDBRANCH  25  26
ENDBRANCH   7  25
BRANCH  14  32
ATOM     32  C   UNL     1      60.413  85.517  73.063  1.00  0.00    -0.046 C 
ATOM     33  C   UNL     1      59.344  86.275  73.793  1.00  0.00     0.042 C 
ATOM     34  C   UNL     1      60.232  85.062  71.814  1.00  0.00     0.010 C 
ENDBRANCH  14  32
ENDBRANCH   3   4
BRANCH   2  35
ATOM     35  C   UNL     1      67.040  87.253  74.703  1.00  0.00     0.078 CG0
ATOM     36  G   UNL     1      66.159  86.849  75.885  1.00  0.00     0.000 G0
ENDBRANCH   2  35
ENDBRANCH   1   2
BRANCH   1  37
ATOM     37  O   UNL     1      67.945  85.824  71.703  1.00  0.00    -0.461 OA
BRANCH  37  38
ATOM     38  C   UNL     1      68.360  85.821  70.392  1.00  0.00     0.310 C 
ATOM     39  O   UNL     1      68.858  86.776  69.811  1.00  0.00    -0.252 OA
BRANCH  38  40
ATOM     40  C   UNL     1      68.107  84.462  69.785  1.00  0.00     0.158 C 
BRANCH  40  41
ATOM     41  C   UNL     1      67.038  84.482  68.723  1.00  0.00    -0.033 A 
ATOM     42  C   UNL     1      65.869  85.218  68.924  1.00  0.00     0.054 A 
ATOM     43  C   UNL     1      67.217  83.768  67.539  1.00  0.00     0.008 A 
ATOM     44  C   UNL     1      64.879  85.237  67.941  1.00  0.00     0.160 A 
ATOM     45  C   UNL     1      66.227  83.787  66.556  1.00  0.00     0.050 A 
ATOM     46  C   UNL     1      65.058  84.521  66.756  1.00  0.00     0.157 A 
BRANCH  44  47
ATOM     47  O   UNL     1      63.742  85.958  68.149  1.00  0.00    -0.493 OA
ATOM     48  C   UNL     1      62.689  85.315  68.865  1.00  0.00     0.278 C 
ENDBRANCH  44  47
BRANCH  46  49
ATOM     49  O   UNL     1      64.100  84.533  65.789  1.00  0.00    -0.504 OA
ATOM     50  H   UNL     1      64.419  85.055  65.034  1.00  0.00     0.293 HD
ENDBRANCH  46  49
ENDBRANCH  40  41
ENDBRANCH  38  40
ENDBRANCH  37  38
ENDBRANCH   1  37
TORSDOF 11
ENDMDL
MODEL 2
REMARK VINA RESULT:    -5.721      6.418     11.031
REMARK INTER + INTRA:         -12.586
REMARK INTER:                 -10.199
REMARK INTRA:                  -2.387
REMARK UNBOUND:                -2.518
REMARK SMILES C=C(C)[C@]12C[C@@H](C)[C@@]34O[C@](Cc5ccccc5)(O[C@@H]1[C@@H]3C=C(COC(=O)Cc1ccc(O)c(OC)c1)C[C@]1(O)C(=O)C(C)=C[C@@H]41)O2
REMARK SMILES IDX 23 1 22 2 21 3 20 4 9 5 8 6 10 7 6 8 18 9 46 10 19 11 5 12
REMARK SMILES IDX 7 13 4 14 45 15 38 16 44 17 40 18 42 20 41 21 43 22 39 23
REMARK SMILES IDX 11 25 12 26 13 27 17 28 14 29 16 30 15 31 2 32 3 33 1 34
REMARK SMILES IDX 37 35 24 37 25 38 26 39 27 40 28 41 36 42 29 43 33 44 30 45
REMARK SMILES IDX 31 46 34 47 35 48 32 49
REMARK H PARENT 39 24 32 50
REMARK Flexibility Score: 90.00
ROOT
ATOM      1  C   UNL     1      71.698  89.201  72.315  1.00  0.00     0.264 C 
ENDROOT
BRANCH   1   2
ATOM      2  C   UNL     1      72.956  89.139  71.480  1.00  0.00    -0.033 C 
ATOM      3  C   UNL     1      73.483  87.938  71.170  1.00  0.00    -0.015 C 
BRANCH   3   4
ATOM      4  C   UNL     1      74.764  87.610  70.421  1.00  0.00     0.078 C 
ATOM      5  O   UNL     1      74.158  87.354  68.036  1.00  0.00    -0.319 OA
ATOM      6  C   UNL     1      74.941  88.171  68.960  1.00  0.00     0.095 C 
ATOM      7  C   UNL     1      74.229  85.933  68.258  1.00  0.00     0.289 C 
ATOM      8  C   UNL     1      76.477  88.059  68.586  1.00  0.00     0.023 C 
ATOM      9  O   UNL     1      73.814  85.594  69.579  1.00  0.00    -0.320 OA
ATOM     10  O   UNL     1      75.556  85.431  68.130  1.00  0.00    -0.313 OA
ATOM     11  C   UNL     1      74.942  86.075  70.327  1.00  0.00     0.170 C 
ATOM     12  C   UNL     1      77.137  86.812  69.251  1.00  0.00     0.049 C 
ATOM     13  C   UNL     1      76.791  88.062  67.081  1.00  0.00     0.011 C 
ATOM     14  C   UNL     1      76.137  85.669  69.429  1.00  0.00     0.122 C 
BRANCH   6  15
ATOM     15  C   UNL     1      74.326  89.595  68.837  1.00  0.00     0.086 C 
ATOM     16  C   UNL     1      74.608  90.561  70.007  1.00  0.00     0.140 CG0
ATOM     17  C   UNL     1      74.624  90.424  67.619  1.00  0.00    -0.010 C 
ATOM     18  C   UNL     1      74.702  91.901  69.307  1.00  0.00     0.190 C 
ATOM     19  G   UNL     1      73.503  90.528  71.062  1.00  0.00     0.000 G0
ATOM     20  C   UNL     1      74.813  91.728  67.847  1.00  0.00    -0.008 C 
ATOM     21  O   UNL     1      74.736  92.988  69.862  1.00  0.00    -0.291 OA
ATOM     22  C   UNL     1      75.040  92.836  66.896  1.00  0.00     0.048 C 
BRANCH  16  23
ATOM     23  O   UNL     1      75.888  90.394  70.593  1.00  0.00    -0.381 OA
ATOM     24  H   UNL     1      76.088  91.182  71.125  1.00  0.00     0.212 HD
ENDBRANCH  16  23
ENDBRANCH   6  15
BRANCH   7  25
ATOM     25  C   UNL     1      73.330  85.249  67.248  1.00  0.00     0.135 C 
BRANCH  25  26
ATOM     26  C   UNL     1      72.242  86.166  66.746  1.00  0.00    -0.040 A 
ATOM     27  C   UNL     1      71.205  86.548  67.597  1.00  0.00     0.004 A 
ATOM     28  C   UNL     1      72.274  86.633  65.432  1.00  0.00     0.004 A 
ATOM     29  C   UNL     1      70.199  87.397  67.134  1.00  0.00     0.000 A 
ATOM     30  C   UNL     1      71.268  87.481  64.969  1.00  0.00     0.000 A 
ATOM     31  C   UNL     1      70.231  87.863  65.820  1.00  0.00     0.000 A 
ENDBRANCH  25  26
ENDBRANCH   7  25
BRANCH  14  32
ATOM     32  C   UNL     1      76.785  84.406  69.894  1.00  0.00    -0.046 C 
ATOM     33  C   UNL     1      77.506  83.608  68.849  1.00  0.00     0.042 C 
ATOM     34  C   UNL     1      76.725  84.008  71.174  1.00  0.00     0.010 C 
ENDBRANCH  14  32
ENDBRANCH   3   4
BRANCH   2  35
ATOM     35  C   UNL     1      73.472  90.508  71.080  1.00  0.00     0.078 CG0
ATOM     36  G   UNL     1      74.575  90.558  70.023  1.00  0.00     0.000 G0
ENDBRANCH   2  35
ENDBRANCH   1   2
BRANCH   1  37
ATOM     37  O   UNL     1      70.898  88.072  72.039  1.00  0.00    -0.461 OA
BRANCH  37  38
ATOM     38  C   UNL     1      69.784  88.290  71.262  1.00  0.00     0.310 C 
ATOM     39  O   UNL     1      69.634  89.235  70.499  1.00  0.00    -0.252 OA
BRANCH  38  40
ATOM     40  C   UNL     1      68.780  87.187  71.498  1.00  0.00     0.158 C 
BRANCH  40  41
ATOM     41  C   UNL     1      69.111  85.921  70.750  1.00  0.00    -0.033 A 
ATOM     42  C   UNL     1      68.384  85.574  69.610  1.00  0.00     0.054 A 
ATOM     43  C   UNL     1      70.144  85.097  71.196  1.00  0.00     0.008 A 
ATOM     44  C   UNL     1      68.690  84.403  68.918  1.00  0.00     0.160 A 
ATOM     45  C   UNL     1      70.450  83.925  70.503  1.00  0.00     0.050 A 
ATOM     46  C   UNL     1      69.723  83.578  69.365  1.00  0.00     0.157 A 
BRANCH  44  47
ATOM     47  O   UNL     1      67.973  84.075  67.807  1.00  0.00    -0.493 OA
ATOM     48  C   UNL     1      67.056  85.051  67.316  1.00  0.00     0.278 C 
ENDBRANCH  44  47
BRANCH  46  49
ATOM     49  O   UNL     1      70.032  82.432  68.696  1.00  0.00    -0.504 OA
ATOM     50  H   UNL     1      70.833  82.043  69.087  1.00  0.00     0.293 HD
ENDBRANCH  46  49
ENDBRANCH  40  41
ENDBRANCH  38  40
ENDBRANCH  37  38
ENDBRANCH   1  37
TORSDOF 11
ENDMDL
MODEL 3
REMARK VINA RESULT:    -5.417      7.298     12.143
REMARK INTER + INTRA:         -12.051
REMARK INTER:                 -10.046
REMARK INTRA:                  -2.005
REMARK UNBOUND:                -2.518
REMARK SMILES C=C(C)[C@]12C[C@@H](C)[C@@]34O[C@](Cc5ccccc5)(O[C@@H]1[C@@H]3C=C(COC(=O)Cc1ccc(O)c(OC)c1)C[C@]1(O)C(=O)C(C)=C[C@@H]41)O2
REMARK SMILES IDX 23 1 22 2 21 3 20 4 9 5 8 6 10 7 6 8 18 9 46 10 19 11 5 12
REMARK SMILES IDX 7 13 4 14 45 15 38 16 44 17 40 18 42 20 41 21 43 22 39 23
REMARK SMILES IDX 11 25 12 26 13 27 17 28 14 29 16 30 15 31 2 32 3 33 1 34
REMARK SMILES IDX 37 35 24 37 25 38 26 39 27 40 28 41 36 42 29 43 33 44 30 45
REMARK SMILES IDX 31 46 34 47 35 48 32 49
REMARK H PARENT 39 24 32 50
REMARK Flexibility Score: 90.00
ROOT
ATOM      1  C   UNL     1      72.053  89.675  70.184  1.00  0.00     0.264 C 
ENDROOT
BRANCH   1   2
ATOM      2  C   UNL     1      73.159  89.412  69.189  1.00  0.00    -0.033 C 
ATOM      3  C   UNL     1      73.842  88.251  69.254  1.00  0.00    -0.015 C 
BRANCH   3   4
ATOM      4  C   UNL     1      75.032  87.785  68.432  1.00  0.00     0.078 C 
ATOM      5  O   UNL     1      74.128  86.516  66.510  1.00  0.00    -0.319 OA
ATOM      6  C   UNL     1      74.880  87.716  66.866  1.00  0.00     0.095 C 
ATOM      7  C   UNL     1      74.489  85.325  67.235  1.00  0.00     0.289 C 
ATOM      8  C   UNL     1      76.335  87.625  66.246  1.00  0.00     0.023 C 
ATOM      9  O   UNL     1      74.348  85.512  68.641  1.00  0.00    -0.320 OA
ATOM     10  O   UNL     1      75.851  84.958  67.030  1.00  0.00    -0.313 OA
ATOM     11  C   UNL     1      75.470  86.373  68.894  1.00  0.00     0.170 C 
ATOM     12  C   UNL     1      77.305  86.836  67.179  1.00  0.00     0.049 C 
ATOM     13  C   UNL     1      76.412  87.048  64.823  1.00  0.00     0.011 C 
ATOM     14  C   UNL     1      76.568  85.766  67.986  1.00  0.00     0.122 C 
BRANCH   6  15
ATOM     15  C   UNL     1      74.004  88.892  66.345  1.00  0.00     0.086 C 
ATOM     16  C   UNL     1      74.273  90.273  66.978  1.00  0.00     0.140 CG0
ATOM     17  C   UNL     1      73.965  89.185  64.871  1.00  0.00    -0.010 C 
ATOM     18  C   UNL     1      74.019  91.217  65.822  1.00  0.00     0.190 C 
ATOM     19  G   UNL     1      73.359  90.549  68.171  1.00  0.00     0.000 G0
ATOM     20  C   UNL     1      73.945  90.482  64.545  1.00  0.00    -0.008 C 
ATOM     21  O   UNL     1      73.934  92.433  65.905  1.00  0.00    -0.291 OA
ATOM     22  C   UNL     1      73.825  91.128  63.222  1.00  0.00     0.048 C 
BRANCH  16  23
ATOM     23  O   UNL     1      75.634  90.499  67.306  1.00  0.00    -0.381 OA
ATOM     24  H   UNL     1      75.681  90.807  68.226  1.00  0.00     0.212 HD
ENDBRANCH  16  23
ENDBRANCH   6  15
BRANCH   7  25
ATOM     25  C   UNL     1      73.587  84.197  66.776  1.00  0.00     0.135 C 
BRANCH  25  26
ATOM     26  C   UNL     1      74.340  83.156  65.986  1.00  0.00    -0.040 A 
ATOM     27  C   UNL     1      75.039  82.147  66.650  1.00  0.00     0.004 A 
ATOM     28  C   UNL     1      74.338  83.202  64.592  1.00  0.00     0.004 A 
ATOM     29  C   UNL     1      75.736  81.184  65.919  1.00  0.00     0.000 A 
ATOM     30  C   UNL     1      75.036  82.239  63.861  1.00  0.00     0.000 A 
ATOM     31  C   UNL     1      75.734  81.231  64.525  1.00  0.00     0.000 A 
ENDBRANCH  25  26
ENDBRANCH   7  25
BRANCH  14  32
ATOM     32  C   UNL     1      77.498  84.879  68.747  1.00  0.00    -0.046 C 
ATOM     33  C   UNL     1      78.301  83.907  67.934  1.00  0.00     0.042 C 
ATOM     34  C   UNL     1      77.610  84.947  70.082  1.00  0.00     0.010 C 
ENDBRANCH  14  32
ENDBRANCH   3   4
BRANCH   2  35
ATOM     35  C   UNL     1      73.353  90.547  68.201  1.00  0.00     0.078 CG0
ATOM     36  G   UNL     1      74.248  90.276  66.993  1.00  0.00     0.000 G0
ENDBRANCH   2  35
ENDBRANCH   1   2
BRANCH   1  37
ATOM     37  O   UNL     1      71.555  88.445  70.664  1.00  0.00    -0.461 OA
BRANCH  37  38
ATOM     38  C   UNL     1      70.280  88.109  70.272  1.00  0.00     0.310 C 
ATOM     39  O   UNL     1      69.306  88.063  71.011  1.00  0.00    -0.252 OA
BRANCH  38  40
ATOM     40  C   UNL     1      70.271  87.807  68.791  1.00  0.00     0.158 C 
BRANCH  40  41
ATOM     41  C   UNL     1      70.324  86.331  68.492  1.00  0.00    -0.033 A 
ATOM     42  C   UNL     1      69.741  85.835  67.325  1.00  0.00     0.054 A 
ATOM     43  C   UNL     1      70.955  85.462  69.380  1.00  0.00     0.008 A 
ATOM     44  C   UNL     1      69.790  84.469  67.048  1.00  0.00     0.160 A 
ATOM     45  C   UNL     1      71.005  84.095  69.103  1.00  0.00     0.050 A 
ATOM     46  C   UNL     1      70.422  83.599  67.937  1.00  0.00     0.157 A 
BRANCH  44  47
ATOM     47  O   UNL     1      69.218  83.996  65.906  1.00  0.00    -0.493 OA
ATOM     48  C   UNL     1      67.847  83.607  65.981  1.00  0.00     0.278 C 
ENDBRANCH  44  47
BRANCH  46  49
ATOM     49  O   UNL     1      70.477  82.263  67.676  1.00  0.00    -0.504 OA
ATOM     50  H   UNL     1      70.893  81.810  68.429  1.00  0.00     0.293 HD
ENDBRANCH  46  49
ENDBRANCH  40  41
ENDBRANCH  38  40
ENDBRANCH  37  38
ENDBRANCH   1  37
TORSDOF 11
ENDMDL
MODEL 4
REMARK VINA RESULT:    -5.237     31.525     35.376
REMARK INTER + INTRA:         -11.735
REMARK INTER:                 -10.191
REMARK INTRA:                  -1.544
REMARK UNBOUND:                -2.518
REMARK SMILES C=C(C)[C@]12C[C@@H](C)[C@@]34O[C@](Cc5ccccc5)(O[C@@H]1[C@@H]3C=C(COC(=O)Cc1ccc(O)c(OC)c1)C[C@]1(O)C(=O)C(C)=C[C@@H]41)O2
REMARK SMILES IDX 23 1 22 2 21 3 20 4 9 5 8 6 10 7 6 8 18 9 46 10 19 11 5 12
REMARK SMILES IDX 7 13 4 14 45 15 38 16 44 17 40 18 42 20 41 21 43 22 39 23
REMARK SMILES IDX 11 25 12 26 13 27 17 28 14 29 16 30 15 31 2 32 3 33 1 34
REMARK SMILES IDX 37 35 24 37 25 38 26 39 27 40 28 41 36 42 29 43 33 44 30 45
REMARK SMILES IDX 31 46 34 47 35 48 32 49
REMARK H PARENT 39 24 32 50
REMARK Flexibility Score: 90.00
ROOT
ATOM      1  C   UNL     1      92.149  84.611  88.354  1.00  0.00     0.264 C 
ENDROOT
BRANCH   1   2
ATOM      2  C   UNL     1      92.870  83.358  87.916  1.00  0.00    -0.033 C 
ATOM      3  C   UNL     1      94.165  83.436  87.550  1.00  0.00    -0.015 C 
BRANCH   3   4
ATOM      4  C   UNL     1      95.081  82.352  87.005  1.00  0.00     0.078 C 
ATOM      5  O   UNL     1      96.245  81.350  88.944  1.00  0.00    -0.319 OA
ATOM      6  C   UNL     1      95.302  81.054  87.869  1.00  0.00     0.095 C 
ATOM      7  C   UNL     1      97.385  82.145  88.563  1.00  0.00     0.289 C 
ATOM      8  C   UNL     1      95.920  79.946  86.920  1.00  0.00     0.023 C 
ATOM      9  O   UNL     1      96.981  83.389  87.998  1.00  0.00    -0.320 OA
ATOM     10  O   UNL     1      98.179  81.508  87.566  1.00  0.00    -0.313 OA
ATOM     11  C   UNL     1      96.486  82.940  86.728  1.00  0.00     0.170 C 
ATOM     12  C   UNL     1      96.843  80.576  85.832  1.00  0.00     0.049 C 
ATOM     13  C   UNL     1      96.672  78.811  87.634  1.00  0.00     0.011 C 
ATOM     14  C   UNL     1      97.517  81.854  86.332  1.00  0.00     0.122 C 
BRANCH   6  15
ATOM     15  C   UNL     1      93.990  80.650  88.603  1.00  0.00     0.086 C 
ATOM     16  C   UNL     1      92.691  80.750  87.778  1.00  0.00     0.140 CG0
ATOM     17  C   UNL     1      93.893  79.294  89.245  1.00  0.00    -0.010 C 
ATOM     18  C   UNL     1      91.872  79.596  88.317  1.00  0.00     0.190 C 
ATOM     19  G   UNL     1      91.994  82.098  87.961  1.00  0.00     0.000 G0
ATOM     20  C   UNL     1      92.707  78.688  89.126  1.00  0.00    -0.008 C 
ATOM     21  O   UNL     1      90.690  79.397  88.084  1.00  0.00    -0.291 OA
ATOM     22  C   UNL     1      92.232  77.408  89.690  1.00  0.00     0.048 C 
BRANCH  16  23
ATOM     23  O   UNL     1      92.856  80.436  86.406  1.00  0.00    -0.381 OA
ATOM     24  H   UNL     1      93.772  80.639  86.152  1.00  0.00     0.212 HD
ENDBRANCH  16  23
ENDBRANCH   6  15
BRANCH   7  25
ATOM     25  C   UNL     1      98.227  82.392  89.799  1.00  0.00     0.135 C 
BRANCH  25  26
ATOM     26  C   UNL     1      99.703  82.378  89.489  1.00  0.00    -0.040 A 
ATOM     27  C   UNL     1     100.286  83.459  88.827  1.00  0.00     0.004 A 
ATOM     28  C   UNL     1     100.485  81.287  89.865  1.00  0.00     0.004 A 
ATOM     29  C   UNL     1     101.651  83.447  88.540  1.00  0.00     0.000 A 
ATOM     30  C   UNL     1     101.850  81.275  89.578  1.00  0.00     0.000 A 
ATOM     31  C   UNL     1     102.433  82.356  88.915  1.00  0.00     0.000 A 
ENDBRANCH  25  26
ENDBRANCH   7  25
BRANCH  14  32
ATOM     32  C   UNL     1      98.541  82.374  85.377  1.00  0.00    -0.046 C 
ATOM     33  C   UNL     1      98.052  83.345  84.344  1.00  0.00     0.042 C 
ATOM     34  C   UNL     1      99.827  81.994  85.440  1.00  0.00     0.010 C 
ENDBRANCH  14  32
ENDBRANCH   3   4
BRANCH   2  35
ATOM     35  C   UNL     1      91.992  82.121  87.958  1.00  0.00     0.078 CG0
ATOM     36  G   UNL     1      92.677  80.771  87.756  1.00  0.00     0.000 G0
ENDBRANCH   2  35
ENDBRANCH   1   2
BRANCH   1  37
ATOM     37  O   UNL     1      91.536  84.385  89.605  1.00  0.00    -0.461 OA
BRANCH  37  38
ATOM     38  C   UNL     1      91.660  85.391  90.534  1.00  0.00     0.310 C 
ATOM     39  O   UNL     1      90.764  86.154  90.868  1.00  0.00    -0.252 OA
BRANCH  38  40
ATOM     40  C   UNL     1      93.070  85.406  91.076  1.00  0.00     0.158 C 
BRANCH  40  41
ATOM     41  C   UNL     1      93.851  86.622  90.650  1.00  0.00    -0.033 A 
ATOM     42  C   UNL     1      93.494  87.883  91.130  1.00  0.00     0.054 A 
ATOM     43  C   UNL     1      94.929  86.488  89.776  1.00  0.00     0.008 A 
ATOM     44  C   UNL     1      94.216  89.009  90.736  1.00  0.00     0.160 A 
ATOM     45  C   UNL     1      95.652  87.615  89.382  1.00  0.00     0.050 A 
ATOM     46  C   UNL     1      95.296  88.875  89.861  1.00  0.00     0.157 A 
BRANCH  44  47
ATOM     47  O   UNL     1      93.859  90.235  91.211  1.00  0.00    -0.493 OA
ATOM     48  C   UNL     1      94.173  90.519  92.573  1.00  0.00     0.278 C 
ENDBRANCH  44  47
BRANCH  46  49
ATOM     49  O   UNL     1      96.009  89.967  89.470  1.00  0.00    -0.504 OA
ATOM     50  H   UNL     1      95.581  90.363  88.692  1.00  0.00     0.293 HD
ENDBRANCH  46  49
ENDBRANCH  40  41
ENDBRANCH  38  40
ENDBRANCH  37  38
ENDBRANCH   1  37
TORSDOF 11
ENDMDL
MODEL 5
REMARK VINA RESULT:    -5.064     31.411     35.609
REMARK INTER + INTRA:         -11.430
REMARK INTER:                  -9.556
REMARK INTRA:                  -1.874
REMARK UNBOUND:                -2.518
REMARK SMILES C=C(C)[C@]12C[C@@H](C)[C@@]34O[C@](Cc5ccccc5)(O[C@@H]1[C@@H]3C=C(COC(=O)Cc1ccc(O)c(OC)c1)C[C@]1(O)C(=O)C(C)=C[C@@H]41)O2
REMARK SMILES IDX 23 1 22 2 21 3 20 4 9 5 8 6 10 7 6 8 18 9 46 10 19 11 5 12
REMARK SMILES IDX 7 13 4 14 45 15 38 16 44 17 40 18 42 20 41 21 43 22 39 23
REMARK SMILES IDX 11 25 12 26 13 27 17 28 14 29 16 30 15 31 2 32 3 33 1 34
REMARK SMILES IDX 37 35 24 37 25 38 26 39 27 40 28 41 36 42 29 43 33 44 30 45
REMARK SMILES IDX 31 46 34 47 35 48 32 49
REMARK H PARENT 39 24 32 50
REMARK Flexibility Score: 90.00
ROOT
ATOM      1  C   UNL     1      91.795  82.155  87.700  1.00  0.00     0.264 C 
ENDROOT
BRANCH   1   2
ATOM      2  C   UNL     1      92.954  81.220  87.441  1.00  0.00    -0.033 C 
ATOM      3  C   UNL     1      94.102  81.717  86.938  1.00  0.00    -0.015 C 
BRANCH   3   4
ATOM      4  C   UNL     1      95.368  80.988  86.522  1.00  0.00     0.078 C 
ATOM      5  O   UNL     1      96.877  80.989  88.482  1.00  0.00    -0.319 OA
ATOM      6  C   UNL     1      96.115  80.112  87.596  1.00  0.00     0.095 C 
ATOM      7  C   UNL     1      97.587  82.059  87.830  1.00  0.00     0.289 C 
ATOM      8  C   UNL     1      97.113  79.153  86.824  1.00  0.00     0.023 C 
ATOM      9  O   UNL     1      96.701  82.883  87.077  1.00  0.00    -0.320 OA
ATOM     10  O   UNL     1      98.552  81.579  86.898  1.00  0.00    -0.313 OA
ATOM     11  C   UNL     1      96.406  82.002  85.982  1.00  0.00     0.170 C 
ATOM     12  C   UNL     1      97.678  79.832  85.539  1.00  0.00     0.049 C 
ATOM     13  C   UNL     1      98.275  78.597  87.662  1.00  0.00     0.011 C 
ATOM     14  C   UNL     1      97.783  81.349  85.699  1.00  0.00     0.122 C 
BRANCH   6  15
ATOM     15  C   UNL     1      95.096  79.402  88.534  1.00  0.00     0.086 C 
ATOM     16  C   UNL     1      93.860  78.782  87.850  1.00  0.00     0.140 CG0
ATOM     17  C   UNL     1      95.574  78.309  89.448  1.00  0.00    -0.010 C 
ATOM     18  C   UNL     1      93.597  77.557  88.700  1.00  0.00     0.190 C 
ATOM     19  G   UNL     1      92.672  79.743  87.825  1.00  0.00     0.000 G0
ATOM     20  C   UNL     1      94.742  77.271  89.584  1.00  0.00    -0.008 C 
ATOM     21  O   UNL     1      92.598  76.855  88.640  1.00  0.00    -0.291 OA
ATOM     22  C   UNL     1      94.843  76.077  90.448  1.00  0.00     0.048 C 
BRANCH  16  23
ATOM     23  O   UNL     1      94.123  78.250  86.562  1.00  0.00    -0.381 OA
ATOM     24  H   UNL     1      94.896  78.709  86.192  1.00  0.00     0.212 HD
ENDBRANCH  16  23
ENDBRANCH   6  15
BRANCH   7  25
ATOM     25  C   UNL     1      98.279  82.888  88.893  1.00  0.00     0.135 C 
BRANCH  25  26
ATOM     26  C   UNL     1      99.781  82.783  88.803  1.00  0.00    -0.040 A 
ATOM     27  C   UNL     1     100.514  83.796  88.184  1.00  0.00     0.004 A 
ATOM     28  C   UNL     1     100.437  81.675  89.338  1.00  0.00     0.004 A 
ATOM     29  C   UNL     1     101.903  83.700  88.100  1.00  0.00     0.000 A 
ATOM     30  C   UNL     1     101.826  81.579  89.255  1.00  0.00     0.000 A 
ATOM     31  C   UNL     1     102.559  82.592  88.635  1.00  0.00     0.000 A 
ENDBRANCH  25  26
ENDBRANCH   7  25
BRANCH  14  32
ATOM     32  C   UNL     1      98.489  82.001  84.555  1.00  0.00    -0.046 C 
ATOM     33  C   UNL     1      99.976  81.813  84.501  1.00  0.00     0.042 C 
ATOM     34  C   UNL     1      97.830  82.713  83.629  1.00  0.00     0.010 C 
ENDBRANCH  14  32
ENDBRANCH   3   4
BRANCH   2  35
ATOM     35  C   UNL     1      92.650  79.780  87.809  1.00  0.00     0.078 CG0
ATOM     36  G   UNL     1      93.828  78.808  87.856  1.00  0.00     0.000 G0
ENDBRANCH   2  35
ENDBRANCH   1   2
BRANCH   1  37
ATOM     37  O   UNL     1      91.756  82.481  89.072  1.00  0.00    -0.461 OA
BRANCH  37  38
ATOM     38  C   UNL     1      91.996  83.798  89.391  1.00  0.00     0.310 C 
ATOM     39  O   UNL     1      91.223  84.723  89.186  1.00  0.00    -0.252 OA
BRANCH  38  40
ATOM     40  C   UNL     1      93.359  83.921  90.030  1.00  0.00     0.158 C 
BRANCH  40  41
ATOM     41  C   UNL     1      94.016  85.251  89.763  1.00  0.00    -0.033 A 
ATOM     42  C   UNL     1      94.703  85.461  88.567  1.00  0.00     0.054 A 
ATOM     43  C   UNL     1      93.937  86.271  90.710  1.00  0.00     0.008 A 
ATOM     44  C   UNL     1      95.311  86.692  88.319  1.00  0.00     0.160 A 
ATOM     45  C   UNL     1      94.545  87.502  90.463  1.00  0.00     0.050 A 
ATOM     46  C   UNL     1      95.232  87.713  89.268  1.00  0.00     0.157 A 
BRANCH  44  47
ATOM     47  O   UNL     1      95.979  86.886  87.148  1.00  0.00    -0.493 OA
ATOM     48  C   UNL     1      95.943  85.822  86.197  1.00  0.00     0.278 C 
ENDBRANCH  44  47
BRANCH  46  49
ATOM     49  O   UNL     1      95.820  88.919  89.036  1.00  0.00    -0.504 OA
ATOM     50  H   UNL     1      95.608  89.207  88.132  1.00  0.00     0.293 HD
ENDBRANCH  46  49
ENDBRANCH  40  41
ENDBRANCH  38  40
ENDBRANCH  37  38
ENDBRANCH   1  37
TORSDOF 11
ENDMDL
MODEL 6
REMARK VINA RESULT:    -4.789      2.744      6.915
REMARK INTER + INTRA:         -10.947
REMARK INTER:                 -10.479
REMARK INTRA:                  -0.467
REMARK UNBOUND:                -2.518
REMARK SMILES C=C(C)[C@]12C[C@@H](C)[C@@]34O[C@](Cc5ccccc5)(O[C@@H]1[C@@H]3C=C(COC(=O)Cc1ccc(O)c(OC)c1)C[C@]1(O)C(=O)C(C)=C[C@@H]41)O2
REMARK SMILES IDX 23 1 22 2 21 3 20 4 9 5 8 6 10 7 6 8 18 9 46 10 19 11 5 12
REMARK SMILES IDX 7 13 4 14 45 15 38 16 44 17 40 18 42 20 41 21 43 22 39 23
REMARK SMILES IDX 11 25 12 26 13 27 17 28 14 29 16 30 15 31 2 32 3 33 1 34
REMARK SMILES IDX 37 35 24 37 25 38 26 39 27 40 28 41 36 42 29 43 33 44 30 45
REMARK SMILES IDX 31 46 34 47 35 48 32 49
REMARK H PARENT 39 24 32 50
REMARK Flexibility Score: 90.00
ROOT
ATOM      1  C   UNL     1      63.216  88.215  75.844  1.00  0.00     0.264 C 
ENDROOT
BRANCH   1   2
ATOM      2  C   UNL     1      62.276  87.386  75.000  1.00  0.00    -0.033 C 
ATOM      3  C   UNL     1      61.713  87.936  73.906  1.00  0.00    -0.015 C 
BRANCH   3   4
ATOM      4  C   UNL     1      60.689  87.348  72.949  1.00  0.00     0.078 C 
ATOM      5  O   UNL     1      61.952  86.299  71.098  1.00  0.00    -0.319 OA
ATOM      6  C   UNL     1      61.044  86.007  72.204  1.00  0.00     0.095 C 
ATOM      7  C   UNL     1      61.625  87.469  70.324  1.00  0.00     0.289 C 
ATOM      8  C   UNL     1      59.695  85.407  71.629  1.00  0.00     0.023 C 
ATOM      9  O   UNL     1      61.567  88.633  71.144  1.00  0.00    -0.320 OA
ATOM     10  O   UNL     1      60.343  87.368  69.708  1.00  0.00    -0.313 OA
ATOM     11  C   UNL     1      60.341  88.383  71.850  1.00  0.00     0.170 C 
ATOM     12  C   UNL     1      58.700  86.533  71.212  1.00  0.00     0.049 C 
ATOM     13  C   UNL     1      59.857  84.413  70.468  1.00  0.00     0.011 C 
ATOM     14  C   UNL     1      59.433  87.791  70.744  1.00  0.00     0.122 C 
BRANCH   6  15
ATOM     15  C   UNL     1      61.855  85.059  73.134  1.00  0.00     0.086 C 
ATOM     16  C   UNL     1      61.373  84.963  74.596  1.00  0.00     0.140 CG0
ATOM     17  C   UNL     1      62.046  83.622  72.734  1.00  0.00    -0.010 C 
ATOM     18  C   UNL     1      61.672  83.520  74.944  1.00  0.00     0.190 C 
ATOM     19  G   UNL     1      62.100  85.948  75.509  1.00  0.00     0.000 G0
ATOM     20  C   UNL     1      61.977  82.736  73.732  1.00  0.00    -0.008 C 
ATOM     21  O   UNL     1      61.623  83.037  76.065  1.00  0.00    -0.291 OA
ATOM     22  C   UNL     1      62.194  81.275  73.724  1.00  0.00     0.048 C 
BRANCH  16  23
ATOM     23  O   UNL     1      59.966  85.062  74.744  1.00  0.00    -0.381 OA
ATOM     24  H   UNL     1      59.739  85.992  74.906  1.00  0.00     0.212 HD
ENDBRANCH  16  23
ENDBRANCH   6  15
BRANCH   7  25
ATOM     25  C   UNL     1      62.686  87.646  69.257  1.00  0.00     0.135 C 
BRANCH  25  26
ATOM     26  C   UNL     1      63.334  86.336  68.882  1.00  0.00    -0.040 A 
ATOM     27  C   UNL     1      62.589  85.157  68.911  1.00  0.00     0.004 A 
ATOM     28  C   UNL     1      64.676  86.305  68.503  1.00  0.00     0.004 A 
ATOM     29  C   UNL     1      63.188  83.945  68.563  1.00  0.00     0.000 A 
ATOM     30  C   UNL     1      65.274  85.093  68.156  1.00  0.00     0.000 A 
ATOM     31  C   UNL     1      64.530  83.914  68.186  1.00  0.00     0.000 A 
ENDBRANCH  25  26
ENDBRANCH   7  25
BRANCH  14  32
ATOM     32  C   UNL     1      58.509  88.814  70.169  1.00  0.00    -0.046 C 
ATOM     33  C   UNL     1      58.764  89.212  68.746  1.00  0.00     0.042 C 
ATOM     34  C   UNL     1      57.507  89.347  70.885  1.00  0.00     0.010 C 
ENDBRANCH  14  32
ENDBRANCH   3   4
BRANCH   2  35
ATOM     35  C   UNL     1      62.093  85.975  75.526  1.00  0.00     0.078 CG0
ATOM     36  G   UNL     1      61.385  84.975  74.613  1.00  0.00     0.000 G0
ENDBRANCH   2  35
ENDBRANCH   1   2
BRANCH   1  37
ATOM     37  O   UNL     1      64.221  88.766  75.019  1.00  0.00    -0.461 OA
BRANCH  37  38
ATOM     38  C   UNL     1      65.508  88.694  75.498  1.00  0.00     0.310 C 
ATOM     39  O   UNL     1      66.116  89.619  76.021  1.00  0.00    -0.252 OA
BRANCH  38  40
ATOM     40  C   UNL     1      66.052  87.302  75.278  1.00  0.00     0.158 C 
BRANCH  40  41
ATOM     41  C   UNL     1      65.844  86.396  76.464  1.00  0.00    -0.033 A 
ATOM     42  C   UNL     1      65.822  86.929  77.754  1.00  0.00     0.054 A 
ATOM     43  C   UNL     1      65.673  85.025  76.273  1.00  0.00     0.008 A 
ATOM     44  C   UNL     1      65.629  86.090  78.852  1.00  0.00     0.160 A 
ATOM     45  C   UNL     1      65.480  84.186  77.371  1.00  0.00     0.050 A 
ATOM     46  C   UNL     1      65.458  84.718  78.660  1.00  0.00     0.157 A 
BRANCH  44  47
ATOM     47  O   UNL     1      65.610  86.621  80.105  1.00  0.00    -0.493 OA
ATOM     48  C   UNL     1      66.584  87.621  80.401  1.00  0.00     0.278 C 
ENDBRANCH  44  47
BRANCH  46  49
ATOM     49  O   UNL     1      65.268  83.889  79.724  1.00  0.00    -0.504 OA
ATOM     50  H   UNL     1      65.683  83.031  79.535  1.00  0.00     0.293 HD
ENDBRANCH  46  49
ENDBRANCH  40  41
ENDBRANCH  38  40
ENDBRANCH  37  38
ENDBRANCH   1  37
TORSDOF 11
ENDMDL
MODEL 7
REMARK VINA RESULT:    -4.690      2.260      3.918
REMARK INTER + INTRA:         -10.773
REMARK INTER:                 -10.039
REMARK INTRA:                  -0.734
REMARK UNBOUND:                -2.518
REMARK SMILES C=C(C)[C@]12C[C@@H](C)[C@@]34O[C@](Cc5ccccc5)(O[C@@H]1[C@@H]3C=C(COC(=O)Cc1ccc(O)c(OC)c1)C[C@]1(O)C(=O)C(C)=C[C@@H]41)O2
REMARK SMILES IDX 23 1 22 2 21 3 20 4 9 5 8 6 10 7 6 8 18 9 46 10 19 11 5 12
REMARK SMILES IDX 7 13 4 14 45 15 38 16 44 17 40 18 42 20 41 21 43 22 39 23
REMARK SMILES IDX 11 25 12 26 13 27 17 28 14 29 16 30 15 31 2 32 3 33 1 34
REMARK SMILES IDX 37 35 24 37 25 38 26 39 27 40 28 41 36 42 29 43 33 44 30 45
REMARK SMILES IDX 31 46 34 47 35 48 32 49
REMARK H PARENT 39 24 32 50
REMARK Flexibility Score: 90.00
ROOT
ATOM      1  C   UNL     1      67.984  87.246  71.581  1.00  0.00     0.264 C 
ENDROOT
BRANCH   1   2
ATOM      2  C   UNL     1      66.922  87.001  72.628  1.00  0.00    -0.033 C 
ATOM      3  C   UNL     1      65.688  86.621  72.238  1.00  0.00    -0.015 C 
BRANCH   3   4
ATOM      4  C   UNL     1      64.441  86.390  73.075  1.00  0.00     0.078 C 
ATOM      5  O   UNL     1      64.411  83.991  73.678  1.00  0.00    -0.319 OA
ATOM      6  C   UNL     1      64.507  85.335  74.242  1.00  0.00     0.095 C 
ATOM      7  C   UNL     1      63.430  83.828  72.636  1.00  0.00     0.289 C 
ATOM      8  C   UNL     1      63.265  85.593  75.193  1.00  0.00     0.023 C 
ATOM      9  O   UNL     1      63.669  84.726  71.555  1.00  0.00    -0.320 OA
ATOM     10  O   UNL     1      62.109  84.112  73.088  1.00  0.00    -0.313 OA
ATOM     11  C   UNL     1      63.265  85.963  72.162  1.00  0.00     0.170 C 
ATOM     12  C   UNL     1      62.028  86.101  74.391  1.00  0.00     0.049 C 
ATOM     13  C   UNL     1      62.850  84.403  76.074  1.00  0.00     0.011 C 
ATOM     14  C   UNL     1      62.009  85.546  72.967  1.00  0.00     0.122 C 
BRANCH   6  15
ATOM     15  C   UNL     1      65.899  85.367  74.937  1.00  0.00     0.086 C 
ATOM     16  C   UNL     1      66.493  86.766  75.205  1.00  0.00     0.140 CG0
ATOM     17  C   UNL     1      66.086  84.651  76.245  1.00  0.00    -0.010 C 
ATOM     18  C   UNL     1      67.238  86.559  76.506  1.00  0.00     0.190 C 
ATOM     19  G   UNL     1      67.409  87.230  74.073  1.00  0.00     0.000 G0
ATOM     20  C   UNL     1      66.856  85.282  77.138  1.00  0.00    -0.008 C 
ATOM     21  O   UNL     1      68.017  87.354  77.010  1.00  0.00    -0.291 OA
ATOM     22  C   UNL     1      67.317  84.847  78.472  1.00  0.00     0.048 C 
BRANCH  16  23
ATOM     23  O   UNL     1      65.523  87.750  75.523  1.00  0.00    -0.381 OA
ATOM     24  H   UNL     1      65.040  87.979  74.711  1.00  0.00     0.212 HD
ENDBRANCH  16  23
ENDBRANCH   6  15
BRANCH   7  25
ATOM     25  C   UNL     1      63.498  82.398  72.139  1.00  0.00     0.135 C 
BRANCH  25  26
ATOM     26  C   UNL     1      63.426  82.319  70.634  1.00  0.00    -0.040 A 
ATOM     27  C   UNL     1      62.305  82.809  69.963  1.00  0.00     0.004 A 
ATOM     28  C   UNL     1      64.479  81.758  69.913  1.00  0.00     0.004 A 
ATOM     29  C   UNL     1      62.237  82.736  68.571  1.00  0.00     0.000 A 
ATOM     30  C   UNL     1      64.412  81.685  68.521  1.00  0.00     0.000 A 
ATOM     31  C   UNL     1      63.291  82.174  67.851  1.00  0.00     0.000 A 
ENDBRANCH  25  26
ENDBRANCH   7  25
BRANCH  14  32
ATOM     32  C   UNL     1      60.744  85.870  72.240  1.00  0.00    -0.046 C 
ATOM     33  C   UNL     1      59.647  86.481  73.061  1.00  0.00     0.042 C 
ATOM     34  C   UNL     1      60.598  85.629  70.929  1.00  0.00     0.010 C 
ENDBRANCH  14  32
ENDBRANCH   3   4
BRANCH   2  35
ATOM     35  C   UNL     1      67.420  87.220  74.044  1.00  0.00     0.078 CG0
ATOM     36  G   UNL     1      66.503  86.778  75.183  1.00  0.00     0.000 G0
ENDBRANCH   2  35
ENDBRANCH   1   2
BRANCH   1  37
ATOM     37  O   UNL     1      68.330  86.021  70.972  1.00  0.00    -0.461 OA
BRANCH  37  38
ATOM     38  C   UNL     1      68.540  86.055  69.613  1.00  0.00     0.310 C 
ATOM     39  O   UNL     1      68.118  85.229  68.816  1.00  0.00    -0.252 OA
BRANCH  38  40
ATOM     40  C   UNL     1      69.369  87.268  69.261  1.00  0.00     0.158 C 
BRANCH  40  41
ATOM     41  C   UNL     1      70.850  87.034  69.418  1.00  0.00    -0.033 A 
ATOM     42  C   UNL     1      71.504  86.125  68.586  1.00  0.00     0.054 A 
ATOM     43  C   UNL     1      71.565  87.725  70.395  1.00  0.00     0.008 A 
ATOM     44  C   UNL     1      72.874  85.908  68.731  1.00  0.00     0.160 A 
ATOM     45  C   UNL     1      72.936  87.508  70.540  1.00  0.00     0.050 A 
ATOM     46  C   UNL     1      73.590  86.600  69.709  1.00  0.00     0.157 A 
BRANCH  44  47
ATOM     47  O   UNL     1      73.502  85.018  67.913  1.00  0.00    -0.493 OA
ATOM     48  C   UNL     1      72.680  84.260  67.027  1.00  0.00     0.278 C 
ENDBRANCH  44  47
BRANCH  46  49
ATOM     49  O   UNL     1      74.929  86.397  69.859  1.00  0.00    -0.504 OA
ATOM     50  H   UNL     1      75.070  85.632  70.442  1.00  0.00     0.293 HD
ENDBRANCH  46  49
ENDBRANCH  40  41
ENDBRANCH  38  40
ENDBRANCH  37  38
ENDBRANCH   1  37
TORSDOF 11
ENDMDL
MODEL 8
REMARK VINA RESULT:    -4.527     32.094     35.977
REMARK INTER + INTRA:         -10.484
REMARK INTER:                  -9.529
REMARK INTRA:                  -0.956
REMARK UNBOUND:                -2.518
REMARK SMILES C=C(C)[C@]12C[C@@H](C)[C@@]34O[C@](Cc5ccccc5)(O[C@@H]1[C@@H]3C=C(COC(=O)Cc1ccc(O)c(OC)c1)C[C@]1(O)C(=O)C(C)=C[C@@H]41)O2
REMARK SMILES IDX 23 1 22 2 21 3 20 4 9 5 8 6 10 7 6 8 18 9 46 10 19 11 5 12
REMARK SMILES IDX 7 13 4 14 45 15 38 16 44 17 40 18 42 20 41 21 43 22 39 23
REMARK SMILES IDX 11 25 12 26 13 27 17 28 14 29 16 30 15 31 2 32 3 33 1 34
REMARK SMILES IDX 37 35 24 37 25 38 26 39 27 40 28 41 36 42 29 43 33 44 30 45
REMARK SMILES IDX 31 46 34 47 35 48 32 49
REMARK H PARENT 39 24 32 50
REMARK Flexibility Score: 90.00
ROOT
ATOM      1  C   UNL     1      98.120  77.817  85.713  1.00  0.00     0.264 C 
ENDROOT
BRANCH   1   2
ATOM      2  C   UNL     1      98.763  79.024  85.071  1.00  0.00    -0.033 C 
ATOM      3  C   UNL     1      99.507  78.861  83.958  1.00  0.00    -0.015 C 
BRANCH   3   4
ATOM      4  C   UNL     1     100.311  79.887  83.176  1.00  0.00     0.078 C 
ATOM      5  O   UNL     1      98.823  80.774  81.410  1.00  0.00    -0.319 OA
ATOM      6  C   UNL     1      99.563  81.152  82.612  1.00  0.00     0.095 C 
ATOM      7  C   UNL     1      99.528  79.908  80.500  1.00  0.00     0.289 C 
ATOM      8  C   UNL     1     100.662  82.230  82.233  1.00  0.00     0.023 C 
ATOM      9  O   UNL     1      99.936  78.704  81.143  1.00  0.00    -0.320 OA
ATOM     10  O   UNL     1     100.723  80.504  80.003  1.00  0.00    -0.313 OA
ATOM     11  C   UNL     1     100.999  79.206  81.968  1.00  0.00     0.170 C 
ATOM     12  C   UNL     1     101.975  81.555  81.732  1.00  0.00     0.049 C 
ATOM     13  C   UNL     1     100.217  83.298  81.221  1.00  0.00     0.011 C 
ATOM     14  C   UNL     1     101.696  80.225  81.031  1.00  0.00     0.122 C 
BRANCH   6  15
ATOM     15  C   UNL     1      98.468  81.635  83.606  1.00  0.00     0.086 C 
ATOM     16  C   UNL     1      98.860  81.644  85.098  1.00  0.00     0.140 CG0
ATOM     17  C   UNL     1      97.831  82.982  83.404  1.00  0.00    -0.010 C 
ATOM     18  C   UNL     1      98.103  82.844  85.628  1.00  0.00     0.190 C 
ATOM     19  G   UNL     1      98.470  80.347  85.805  1.00  0.00     0.000 G0
ATOM     20  C   UNL     1      97.588  83.674  84.522  1.00  0.00    -0.008 C 
ATOM     21  O   UNL     1      97.968  83.132  86.807  1.00  0.00    -0.291 OA
ATOM     22  C   UNL     1      96.910  84.973  84.708  1.00  0.00     0.048 C 
BRANCH  16  23
ATOM     23  O   UNL     1     100.220  81.972  85.332  1.00  0.00    -0.381 OA
ATOM     24  H   UNL     1     100.441  81.730  86.246  1.00  0.00     0.212 HD
ENDBRANCH  16  23
ENDBRANCH   6  15
BRANCH   7  25
ATOM     25  C   UNL     1      98.605  79.583  79.342  1.00  0.00     0.135 C 
BRANCH  25  26
ATOM     26  C   UNL     1      98.657  80.637  78.264  1.00  0.00    -0.040 A 
ATOM     27  C   UNL     1      99.206  80.333  77.018  1.00  0.00     0.004 A 
ATOM     28  C   UNL     1      98.156  81.915  78.512  1.00  0.00     0.004 A 
ATOM     29  C   UNL     1      99.255  81.308  76.021  1.00  0.00     0.000 A 
ATOM     30  C   UNL     1      98.205  82.889  77.515  1.00  0.00     0.000 A 
ATOM     31  C   UNL     1      98.755  82.585  76.270  1.00  0.00     0.000 A 
ENDBRANCH  25  26
ENDBRANCH   7  25
BRANCH  14  32
ATOM     32  C   UNL     1     102.913  79.650  80.383  1.00  0.00    -0.046 C 
ATOM     33  C   UNL     1     103.706  78.679  81.207  1.00  0.00     0.042 C 
ATOM     34  C   UNL     1     103.278  79.983  79.136  1.00  0.00     0.010 C 
ENDBRANCH  14  32
ENDBRANCH   3   4
BRANCH   2  35
ATOM     35  C   UNL     1      98.461  80.319  85.802  1.00  0.00     0.078 CG0
ATOM     36  G   UNL     1      98.847  81.622  85.104  1.00  0.00     0.000 G0
ENDBRANCH   2  35
ENDBRANCH   1   2
BRANCH   1  37
ATOM     37  O   UNL     1      98.157  77.960  87.117  1.00  0.00    -0.461 OA
BRANCH  37  38
ATOM     38  C   UNL     1      97.030  77.563  87.798  1.00  0.00     0.310 C 
ATOM     39  O   UNL     1      96.845  76.446  88.260  1.00  0.00    -0.252 OA
BRANCH  38  40
ATOM     40  C   UNL     1      96.060  78.719  87.885  1.00  0.00     0.158 C 
BRANCH  40  41
ATOM     41  C   UNL     1      94.749  78.439  87.198  1.00  0.00    -0.033 A 
ATOM     42  C   UNL     1      93.694  79.346  87.313  1.00  0.00     0.054 A 
ATOM     43  C   UNL     1      94.589  77.275  86.447  1.00  0.00     0.008 A 
ATOM     44  C   UNL     1      92.480  79.087  86.676  1.00  0.00     0.160 A 
ATOM     45  C   UNL     1      93.375  77.016  85.811  1.00  0.00     0.050 A 
ATOM     46  C   UNL     1      92.321  77.922  85.925  1.00  0.00     0.157 A 
BRANCH  44  47
ATOM     47  O   UNL     1      91.458  79.980  86.796  1.00  0.00    -0.493 OA
ATOM     48  C   UNL     1      91.138  80.426  88.112  1.00  0.00     0.278 C 
ENDBRANCH  44  47
BRANCH  46  49
ATOM     49  O   UNL     1      91.140  77.659  85.298  1.00  0.00    -0.504 OA
ATOM     50  H   UNL     1      90.429  78.151  85.743  1.00  0.00     0.293 HD
ENDBRANCH  46  49
ENDBRANCH  40  41
ENDBRANCH  38  40
ENDBRANCH  37  38
ENDBRANCH   1  37
TORSDOF 11
ENDMDL
MODEL 9
REMARK VINA RESULT:    -4.403      7.938     12.040
REMARK INTER + INTRA:         -10.267
REMARK INTER:                  -8.734
REMARK INTRA:                  -1.533
REMARK UNBOUND:                -2.518
REMARK SMILES C=C(C)[C@]12C[C@@H](C)[C@@]34O[C@](Cc5ccccc5)(O[C@@H]1[C@@H]3C=C(COC(=O)Cc1ccc(O)c(OC)c1)C[C@]1(O)C(=O)C(C)=C[C@@H]41)O2
REMARK SMILES IDX 23 1 22 2 21 3 20 4 9 5 8 6 10 7 6 8 18 9 46 10 19 11 5 12
REMARK SMILES IDX 7 13 4 14 45 15 38 16 44 17 40 18 42 20 41 21 43 22 39 23
REMARK SMILES IDX 11 25 12 26 13 27 17 28 14 29 16 30 15 31 2 32 3 33 1 34
REMARK SMILES IDX 37 35 24 37 25 38 26 39 27 40 28 41 36 42 29 43 33 44 30 45
REMARK SMILES IDX 31 46 34 47 35 48 32 49
REMARK H PARENT 39 24 32 50
REMARK Flexibility Score: 90.00
ROOT
ATOM      1  C   UNL     1      71.879  89.116  71.832  1.00  0.00     0.264 C 
ENDROOT
BRANCH   1   2
ATOM      2  C   UNL     1      73.152  89.083  71.018  1.00  0.00    -0.033 C 
ATOM      3  C   UNL     1      73.688  87.893  70.680  1.00  0.00    -0.015 C 
BRANCH   3   4
ATOM      4  C   UNL     1      74.983  87.593  69.944  1.00  0.00     0.078 C 
ATOM      5  O   UNL     1      74.422  87.414  67.542  1.00  0.00    -0.319 OA
ATOM      6  C   UNL     1      75.186  88.202  68.507  1.00  0.00     0.095 C 
ATOM      7  C   UNL     1      74.492  85.986  67.718  1.00  0.00     0.289 C 
ATOM      8  C   UNL     1      76.729  88.104  68.158  1.00  0.00     0.023 C 
ATOM      9  O   UNL     1      74.054  85.604  69.020  1.00  0.00    -0.320 OA
ATOM     10  O   UNL     1      75.823  85.491  67.599  1.00  0.00    -0.313 OA
ATOM     11  C   UNL     1      75.166  86.062  69.804  1.00  0.00     0.170 C 
ATOM     12  C   UNL     1      77.379  86.837  68.794  1.00  0.00     0.049 C 
ATOM     13  C   UNL     1      77.071  88.157  66.660  1.00  0.00     0.011 C 
ATOM     14  C   UNL     1      76.378  85.688  68.916  1.00  0.00     0.122 C 
BRANCH   6  15
ATOM     15  C   UNL     1      74.570  89.628  68.419  1.00  0.00     0.086 C 
ATOM     16  C   UNL     1      74.810  90.548  69.634  1.00  0.00     0.140 CG0
ATOM     17  C   UNL     1      74.904  90.504  67.245  1.00  0.00    -0.010 C 
ATOM     18  C   UNL     1      74.922  91.914  68.990  1.00  0.00     0.190 C 
ATOM     19  G   UNL     1      73.671  90.472  70.650  1.00  0.00     0.000 G0
ATOM     20  C   UNL     1      75.081  91.799  67.528  1.00  0.00    -0.008 C 
ATOM     21  O   UNL     1      74.934  92.980  69.588  1.00  0.00    -0.291 OA
ATOM     22  C   UNL     1      75.335  92.944  66.630  1.00  0.00     0.048 C 
BRANCH  16  23
ATOM     23  O   UNL     1      76.071  90.362  70.254  1.00  0.00    -0.381 OA
ATOM     24  H   UNL     1      76.490  89.575  69.868  1.00  0.00     0.212 HD
ENDBRANCH  16  23
ENDBRANCH   6  15
BRANCH   7  25
ATOM     25  C   UNL     1      73.614  85.334  66.670  1.00  0.00     0.135 C 
BRANCH  25  26
ATOM     26  C   UNL     1      74.205  84.044  66.160  1.00  0.00    -0.040 A 
ATOM     27  C   UNL     1      73.546  82.836  66.390  1.00  0.00     0.004 A 
ATOM     28  C   UNL     1      75.410  84.058  65.458  1.00  0.00     0.004 A 
ATOM     29  C   UNL     1      74.093  81.642  65.918  1.00  0.00     0.000 A 
ATOM     30  C   UNL     1      75.957  82.864  64.986  1.00  0.00     0.000 A 
ATOM     31  C   UNL     1      75.298  81.656  65.217  1.00  0.00     0.000 A 
ENDBRANCH  25  26
ENDBRANCH   7  25
BRANCH  14  32
ATOM     32  C   UNL     1      77.021  84.411  69.351  1.00  0.00    -0.046 C 
ATOM     33  C   UNL     1      76.827  84.029  70.788  1.00  0.00     0.042 C 
ATOM     34  C   UNL     1      77.730  83.649  68.505  1.00  0.00     0.010 C 
ENDBRANCH  14  32
ENDBRANCH   3   4
BRANCH   2  35
ATOM     35  C   UNL     1      73.671  90.466  70.671  1.00  0.00     0.078 CG0
ATOM     36  G   UNL     1      74.800  90.551  69.645  1.00  0.00     0.000 G0
ENDBRANCH   2  35
ENDBRANCH   1   2
BRANCH   1  37
ATOM     37  O   UNL     1      70.844  88.488  71.106  1.00  0.00    -0.461 OA
BRANCH  37  38
ATOM     38  C   UNL     1      69.706  89.232  70.900  1.00  0.00     0.310 C 
ATOM     39  O   UNL     1      68.589  88.771  70.710  1.00  0.00    -0.252 OA
BRANCH  38  40
ATOM     40  C   UNL     1      70.050  90.703  70.945  1.00  0.00     0.158 C 
BRANCH  40  41
ATOM     41  C   UNL     1      69.849  91.394  69.621  1.00  0.00    -0.033 A 
ATOM     42  C   UNL     1      70.871  91.393  68.671  1.00  0.00     0.054 A 
ATOM     43  C   UNL     1      68.641  92.034  69.345  1.00  0.00     0.008 A 
ATOM     44  C   UNL     1      70.685  92.033  67.446  1.00  0.00     0.160 A 
ATOM     45  C   UNL     1      68.455  92.674  68.119  1.00  0.00     0.050 A 
ATOM     46  C   UNL     1      69.476  92.674  67.170  1.00  0.00     0.157 A 
BRANCH  44  47
ATOM     47  O   UNL     1      71.690  92.026  66.527  1.00  0.00    -0.493 OA
ATOM     48  C   UNL     1      71.649  91.007  65.529  1.00  0.00     0.278 C 
ENDBRANCH  44  47
BRANCH  46  49
ATOM     49  O   UNL     1      69.283  93.301  65.977  1.00  0.00    -0.504 OA
ATOM     50  H   UNL     1      69.174  92.631  65.281  1.00  0.00     0.293 HD
ENDBRANCH  46  49
ENDBRANCH  40  41
ENDBRANCH  38  40
ENDBRANCH  37  38
ENDBRANCH   1  37
TORSDOF 11
ENDMDL
MODEL 10
REMARK VINA RESULT:    -4.277     34.799     38.328
REMARK INTER + INTRA:         -10.045
REMARK INTER:                  -8.709
REMARK INTRA:                  -1.336
REMARK UNBOUND:                -2.518
REMARK SMILES C=C(C)[C@]12C[C@@H](C)[C@@]34O[C@](Cc5ccccc5)(O[C@@H]1[C@@H]3C=C(COC(=O)Cc1ccc(O)c(OC)c1)C[C@]1(O)C(=O)C(C)=C[C@@H]41)O2
REMARK SMILES IDX 23 1 22 2 21 3 20 4 9 5 8 6 10 7 6 8 18 9 46 10 19 11 5 12
REMARK SMILES IDX 7 13 4 14 45 15 38 16 44 17 40 18 42 20 41 21 43 22 39 23
REMARK SMILES IDX 11 25 12 26 13 27 17 28 14 29 16 30 15 31 2 32 3 33 1 34
REMARK SMILES IDX 37 35 24 37 25 38 26 39 27 40 28 41 36 42 29 43 33 44 30 45
REMARK SMILES IDX 31 46 34 47 35 48 32 49
REMARK H PARENT 39 24 32 50
REMARK Flexibility Score: 90.00
ROOT
ATOM      1  C   UNL     1      99.860  75.971  83.255  1.00  0.00     0.264 C 
ENDROOT
BRANCH   1   2
ATOM      2  C   UNL     1     100.041  77.471  83.241  1.00  0.00    -0.033 C 
ATOM      3  C   UNL     1     100.570  78.061  82.151  1.00  0.00    -0.015 C 
BRANCH   3   4
ATOM      4  C   UNL     1     100.922  79.521  81.919  1.00  0.00     0.078 C 
ATOM      5  O   UNL     1      98.937  80.588  80.900  1.00  0.00    -0.319 OA
ATOM      6  C   UNL     1      99.789  80.600  82.087  1.00  0.00     0.095 C 
ATOM      7  C   UNL     1      99.632  80.487  79.643  1.00  0.00     0.289 C 
ATOM      8  C   UNL     1     100.489  82.016  82.214  1.00  0.00     0.023 C 
ATOM      9  O   UNL     1     100.445  79.318  79.594  1.00  0.00    -0.320 OA
ATOM     10  O   UNL     1     100.519  81.582  79.426  1.00  0.00    -0.313 OA
ATOM     11  C   UNL     1     101.497  79.704  80.492  1.00  0.00     0.170 C 
ATOM     12  C   UNL     1     101.798  82.083  81.368  1.00  0.00     0.049 C 
ATOM     13  C   UNL     1      99.600  83.225  81.877  1.00  0.00     0.011 C 
ATOM     14  C   UNL     1     101.718  81.193  80.128  1.00  0.00     0.122 C 
BRANCH   6  15
ATOM     15  C   UNL     1      98.833  80.220  83.255  1.00  0.00     0.086 C 
ATOM     16  C   UNL     1      99.505  79.673  84.532  1.00  0.00     0.140 CG0
ATOM     17  C   UNL     1      97.867  81.245  83.779  1.00  0.00    -0.010 C 
ATOM     18  C   UNL     1      98.605  80.207  85.627  1.00  0.00     0.190 C 
ATOM     19  G   UNL     1      99.586  78.148  84.533  1.00  0.00     0.000 G0
ATOM     20  C   UNL     1      97.696  81.245  85.105  1.00  0.00    -0.008 C 
ATOM     21  O   UNL     1      98.646  79.874  86.802  1.00  0.00    -0.291 OA
ATOM     22  C   UNL     1      96.779  82.041  85.947  1.00  0.00     0.048 C 
BRANCH  16  23
ATOM     23  O   UNL     1     100.765  80.259  84.813  1.00  0.00    -0.381 OA
ATOM     24  H   UNL     1     100.619  81.168  85.123  1.00  0.00     0.212 HD
ENDBRANCH  16  23
ENDBRANCH   6  15
BRANCH   7  25
ATOM     25  C   UNL     1      98.603  80.443  78.532  1.00  0.00     0.135 C 
BRANCH  25  26
ATOM     26  C   UNL     1      98.327  81.811  77.961  1.00  0.00    -0.040 A 
ATOM     27  C   UNL     1      98.699  82.107  76.649  1.00  0.00     0.004 A 
ATOM     28  C   UNL     1      97.700  82.780  78.743  1.00  0.00     0.004 A 
ATOM     29  C   UNL     1      98.444  83.373  76.120  1.00  0.00     0.000 A 
ATOM     30  C   UNL     1      97.445  84.046  78.214  1.00  0.00     0.000 A 
ATOM     31  C   UNL     1      97.818  84.342  76.903  1.00  0.00     0.000 A 
ENDBRANCH  25  26
ENDBRANCH   7  25
BRANCH  14  32
ATOM     32  C   UNL     1     102.882  81.380  79.211  1.00  0.00    -0.046 C 
ATOM     33  C   UNL     1     102.558  81.789  77.805  1.00  0.00     0.042 C 
ATOM     34  C   UNL     1     104.145  81.191  79.620  1.00  0.00     0.010 C 
ENDBRANCH  14  32
ENDBRANCH   3   4
BRANCH   2  35
ATOM     35  C   UNL     1      99.571  78.139  84.520  1.00  0.00     0.078 CG0
ATOM     36  G   UNL     1      99.512  79.665  84.530  1.00  0.00     0.000 G0
ENDBRANCH   2  35
ENDBRANCH   1   2
BRANCH   1  37
ATOM     37  O   UNL     1      99.932  75.504  84.585  1.00  0.00    -0.461 OA
BRANCH  37  38
ATOM     38  C   UNL     1     101.101  74.875  84.947  1.00  0.00     0.310 C 
ATOM     39  O   UNL     1     101.391  74.534  86.085  1.00  0.00    -0.252 OA
BRANCH  38  40
ATOM     40  C   UNL     1     101.964  74.674  83.725  1.00  0.00     0.158 C 
BRANCH  40  41
ATOM     41  C   UNL     1     103.276  75.412  83.803  1.00  0.00    -0.033 A 
ATOM     42  C   UNL     1     104.254  75.001  84.710  1.00  0.00     0.054 A 
ATOM     43  C   UNL     1     103.513  76.505  82.970  1.00  0.00     0.008 A 
ATOM     44  C   UNL     1     105.468  75.684  84.783  1.00  0.00     0.160 A 
ATOM     45  C   UNL     1     104.727  77.188  83.043  1.00  0.00     0.050 A 
ATOM     46  C   UNL     1     105.704  76.778  83.949  1.00  0.00     0.157 A 
BRANCH  44  47
ATOM     47  O   UNL     1     106.415  75.274  85.672  1.00  0.00    -0.493 OA
ATOM     48  C   UNL     1     106.030  74.274  86.614  1.00  0.00     0.278 C 
ENDBRANCH  44  47
BRANCH  46  49
ATOM     49  O   UNL     1     106.886  77.452  84.010  1.00  0.00    -0.504 OA
ATOM     50  H   UNL     1     106.786  78.309  83.563  1.00  0.00     0.293 HD
ENDBRANCH  46  49
ENDBRANCH  40  41
ENDBRANCH  38  40
ENDBRANCH  37  38
ENDBRANCH   1  37
TORSDOF 11
ENDMDL
