MODEL 1
REMARK VINA RESULT:    -7.351      0.000      0.000
REMARK INTER + INTRA:          -8.971
REMARK INTER:                  -8.640
REMARK INTRA:                  -0.331
REMARK UNBOUND:                -0.331
REMARK SMILES O=C(/C=C/C=C/c1ccc2c(c1)OCO2)N1CCCCC1
REMARK SMILES IDX 3 1 4 2 2 3 1 4 16 5 17 6 21 7 18 8 20 9 19 10 5 11 6 12
REMARK SMILES IDX 7 13 12 14 8 15 11 16 9 17 13 18 10 19 14 20 15 21
REMARK H PARENT
REMARK Flexibility Score: inf
ROOT
ATOM      1  C   UNL     1      96.201  82.023  82.684  1.00  0.00     0.071 C 
ATOM      2  C   UNL     1      97.051  81.748  81.697  1.00  0.00     0.006 C 
ENDROOT
BRANCH   1   3
ATOM      3  C   UNL     1      96.600  81.673  84.062  1.00  0.00     0.246 C 
ATOM      4  O   UNL     1      97.804  81.659  84.319  1.00  0.00    -0.270 OA
ATOM      5  N   UNL     1      95.589  81.377  84.975  1.00  0.00    -0.339 N 
ATOM      6  C   UNL     1      95.955  81.020  86.349  1.00  0.00     0.120 C 
ATOM      7  C   UNL     1      94.146  81.339  84.693  1.00  0.00     0.120 C 
ATOM      8  C   UNL     1      95.211  81.881  87.365  1.00  0.00     0.022 C 
ATOM      9  C   UNL     1      93.364  82.189  85.694  1.00  0.00     0.022 C 
ATOM     10  C   UNL     1      93.704  81.819  87.135  1.00  0.00     0.004 C 
ENDBRANCH   1   3
BRANCH   2  11
ATOM     11  C   UNL     1      96.750  82.054  80.314  1.00  0.00     0.001 C 
ATOM     12  C   UNL     1      97.586  81.758  79.306  1.00  0.00     0.008 C 
BRANCH  12  13
ATOM     13  C   UNL     1      97.333  82.053  77.885  1.00  0.00    -0.022 A 
ATOM     14  C   UNL     1      98.294  81.712  76.943  1.00  0.00     0.058 A 
ATOM     15  C   UNL     1      96.131  82.668  77.525  1.00  0.00     0.012 A 
ATOM     16  C   UNL     1      98.011  82.008  75.625  1.00  0.00     0.166 A 
ATOM     17  C   UNL     1      95.871  82.957  76.183  1.00  0.00     0.051 A 
ATOM     18  O   UNL     1      98.820  81.756  74.560  1.00  0.00    -0.454 OA
ATOM     19  C   UNL     1      96.832  82.614  75.255  1.00  0.00     0.165 A 
ATOM     20  C   UNL     1      98.018  82.271  73.478  1.00  0.00     0.468 C 
ATOM     21  O   UNL     1      96.755  82.817  73.912  1.00  0.00    -0.454 OA
ENDBRANCH  12  13
ENDBRANCH   2  11
TORSDOF 3
ENDMDL
MODEL 2
REMARK VINA RESULT:    -7.016      2.992      9.255
REMARK INTER + INTRA:          -8.578
REMARK INTER:                  -8.313
REMARK INTRA:                  -0.265
REMARK UNBOUND:                -0.331
REMARK SMILES O=C(/C=C/C=C/c1ccc2c(c1)OCO2)N1CCCCC1
REMARK SMILES IDX 3 1 4 2 2 3 1 4 16 5 17 6 21 7 18 8 20 9 19 10 5 11 6 12
REMARK SMILES IDX 7 13 12 14 8 15 11 16 9 17 13 18 10 19 14 20 15 21
REMARK H PARENT
REMARK Flexibility Score: inf
ROOT
ATOM      1  C   UNL     1      97.339  80.785  78.149  1.00  0.00     0.071 C 
ATOM      2  C   UNL     1      97.923  81.571  79.051  1.00  0.00     0.006 C 
ENDROOT
BRANCH   1   3
ATOM      3  C   UNL     1      98.153  80.303  77.015  1.00  0.00     0.246 C 
ATOM      4  O   UNL     1      98.743  79.231  77.154  1.00  0.00    -0.270 OA
ATOM      5  N   UNL     1      98.204  81.095  75.869  1.00  0.00    -0.339 N 
ATOM      6  C   UNL     1      99.009  80.645  74.729  1.00  0.00     0.120 C 
ATOM      7  C   UNL     1      97.551  82.400  75.684  1.00  0.00     0.120 C 
ATOM      8  C   UNL     1      98.192  80.632  73.442  1.00  0.00     0.022 C 
ATOM      9  C   UNL     1      96.724  82.427  74.399  1.00  0.00     0.022 C 
ATOM     10  C   UNL     1      97.546  81.990  73.190  1.00  0.00     0.004 C 
ENDBRANCH   1   3
BRANCH   2  11
ATOM     11  C   UNL     1      97.208  82.093  80.196  1.00  0.00     0.001 C 
ATOM     12  C   UNL     1      97.052  81.398  81.334  1.00  0.00     0.008 C 
BRANCH  12  13
ATOM     13  C   UNL     1      96.328  81.877  82.524  1.00  0.00    -0.022 A 
ATOM     14  C   UNL     1      96.288  83.239  82.787  1.00  0.00     0.058 A 
ATOM     15  C   UNL     1      95.700  80.946  83.355  1.00  0.00     0.012 A 
ATOM     16  C   UNL     1      95.597  83.639  83.913  1.00  0.00     0.166 A 
ATOM     17  C   UNL     1      95.008  81.378  84.488  1.00  0.00     0.051 A 
ATOM     18  O   UNL     1      95.444  84.922  84.342  1.00  0.00    -0.454 OA
ATOM     19  C   UNL     1      94.974  82.734  84.741  1.00  0.00     0.165 A 
ATOM     20  C   UNL     1      94.655  84.722  85.532  1.00  0.00     0.468 C 
ATOM     21  O   UNL     1      94.353  83.336  85.791  1.00  0.00    -0.454 OA
ENDBRANCH  12  13
ENDBRANCH   2  11
TORSDOF 3
ENDMDL
MODEL 3
REMARK VINA RESULT:    -6.827      1.218      2.045
REMARK INTER + INTRA:          -8.355
REMARK INTER:                  -8.001
REMARK INTRA:                  -0.355
REMARK UNBOUND:                -0.331
REMARK SMILES O=C(/C=C/C=C/c1ccc2c(c1)OCO2)N1CCCCC1
REMARK SMILES IDX 3 1 4 2 2 3 1 4 16 5 17 6 21 7 18 8 20 9 19 10 5 11 6 12
REMARK SMILES IDX 7 13 12 14 8 15 11 16 9 17 13 18 10 19 14 20 15 21
REMARK H PARENT
REMARK Flexibility Score: inf
ROOT
ATOM      1  C   UNL     1      95.727  81.406  83.566  1.00  0.00     0.071 C 
ATOM      2  C   UNL     1      96.651  82.221  83.061  1.00  0.00     0.006 C 
ENDROOT
BRANCH   1   3
ATOM      3  C   UNL     1      95.708  81.200  85.028  1.00  0.00     0.246 C 
ATOM      4  O   UNL     1      96.792  81.091  85.601  1.00  0.00    -0.270 OA
ATOM      5  N   UNL     1      94.467  81.136  85.659  1.00  0.00    -0.339 N 
ATOM      6  C   UNL     1      94.416  80.927  87.109  1.00  0.00     0.120 C 
ATOM      7  C   UNL     1      93.153  81.216  85.003  1.00  0.00     0.120 C 
ATOM      8  C   UNL     1      93.564  81.989  87.796  1.00  0.00     0.022 C 
ATOM      9  C   UNL     1      92.267  82.270  85.667  1.00  0.00     0.022 C 
ATOM     10  C   UNL     1      92.173  82.059  87.176  1.00  0.00     0.004 C 
ENDBRANCH   1   3
BRANCH   2  11
ATOM     11  C   UNL     1      96.749  82.486  81.641  1.00  0.00     0.001 C 
ATOM     12  C   UNL     1      97.095  81.545  80.748  1.00  0.00     0.008 C 
BRANCH  12  13
ATOM     13  C   UNL     1      97.218  81.761  79.297  1.00  0.00    -0.022 A 
ATOM     14  C   UNL     1      96.192  82.407  78.621  1.00  0.00     0.058 A 
ATOM     15  C   UNL     1      98.366  81.311  78.640  1.00  0.00     0.012 A 
ATOM     16  C   UNL     1      96.353  82.587  77.263  1.00  0.00     0.166 A 
ATOM     17  C   UNL     1      98.503  81.507  77.263  1.00  0.00     0.051 A 
ATOM     18  O   UNL     1      95.464  83.192  76.427  1.00  0.00    -0.454 OA
ATOM     19  C   UNL     1      97.477  82.149  76.601  1.00  0.00     0.165 A 
ATOM     20  C   UNL     1      96.157  83.086  75.166  1.00  0.00     0.468 C 
ATOM     21  O   UNL     1      97.435  82.425  75.270  1.00  0.00    -0.454 OA
ENDBRANCH  12  13
ENDBRANCH   2  11
TORSDOF 3
ENDMDL
MODEL 4
REMARK VINA RESULT:    -6.794     14.286     17.559
REMARK INTER + INTRA:          -8.317
REMARK INTER:                  -7.911
REMARK INTRA:                  -0.406
REMARK UNBOUND:                -0.331
REMARK SMILES O=C(/C=C/C=C/c1ccc2c(c1)OCO2)N1CCCCC1
REMARK SMILES IDX 3 1 4 2 2 3 1 4 16 5 17 6 21 7 18 8 20 9 19 10 5 11 6 12
REMARK SMILES IDX 7 13 12 14 8 15 11 16 9 17 13 18 10 19 14 20 15 21
REMARK H PARENT
REMARK Flexibility Score: inf
ROOT
ATOM      1  C   UNL     1      94.665  97.744  73.915  1.00  0.00     0.071 C 
ATOM      2  C   UNL     1      93.594  97.016  74.223  1.00  0.00     0.006 C 
ENDROOT
BRANCH   1   3
ATOM      3  C   UNL     1      94.618  98.566  72.689  1.00  0.00     0.246 C 
ATOM      4  O   UNL     1      94.007  99.634  72.743  1.00  0.00    -0.270 OA
ATOM      5  N   UNL     1      95.263  98.077  71.555  1.00  0.00    -0.339 N 
ATOM      6  C   UNL     1      95.229  98.867  70.321  1.00  0.00     0.120 C 
ATOM      7  C   UNL     1      95.963  96.788  71.440  1.00  0.00     0.120 C 
ATOM      8  C   UNL     1      96.631  99.094  69.765  1.00  0.00     0.022 C 
ATOM      9  C   UNL     1      97.374  96.973  70.882  1.00  0.00     0.022 C 
ATOM     10  C   UNL     1      97.366  97.770  69.581  1.00  0.00     0.004 C 
ENDBRANCH   1   3
BRANCH   2  11
ATOM     11  C   UNL     1      93.545  96.179  75.403  1.00  0.00     0.001 C 
ATOM     12  C   UNL     1      94.648  95.777  76.054  1.00  0.00     0.008 C 
BRANCH  12  13
ATOM     13  C   UNL     1      94.656  94.921  77.253  1.00  0.00    -0.022 A 
ATOM     14  C   UNL     1      95.777  94.915  78.071  1.00  0.00     0.058 A 
ATOM     15  C   UNL     1      93.533  94.137  77.533  1.00  0.00     0.012 A 
ATOM     16  C   UNL     1      95.736  94.097  79.182  1.00  0.00     0.166 A 
ATOM     17  C   UNL     1      93.520  93.318  78.664  1.00  0.00     0.051 A 
ATOM     18  O   UNL     1      96.730  93.951  80.102  1.00  0.00    -0.454 OA
ATOM     19  C   UNL     1      94.638  93.320  79.471  1.00  0.00     0.165 A 
ATOM     20  C   UNL     1      96.133  92.994  81.001  1.00  0.00     0.468 C 
ATOM     21  O   UNL     1      94.806  92.590  80.607  1.00  0.00    -0.454 OA
ENDBRANCH  12  13
ENDBRANCH   2  11
TORSDOF 3
ENDMDL
MODEL 5
REMARK VINA RESULT:    -6.732      2.259      2.618
REMARK INTER + INTRA:          -8.244
REMARK INTER:                  -7.857
REMARK INTRA:                  -0.387
REMARK UNBOUND:                -0.331
REMARK SMILES O=C(/C=C/C=C/c1ccc2c(c1)OCO2)N1CCCCC1
REMARK SMILES IDX 3 1 4 2 2 3 1 4 16 5 17 6 21 7 18 8 20 9 19 10 5 11 6 12
REMARK SMILES IDX 7 13 12 14 8 15 11 16 9 17 13 18 10 19 14 20 15 21
REMARK H PARENT
REMARK Flexibility Score: inf
ROOT
ATOM      1  C   UNL     1      97.807  81.278  82.165  1.00  0.00     0.071 C 
ATOM      2  C   UNL     1      96.683  81.730  81.613  1.00  0.00     0.006 C 
ENDROOT
BRANCH   1   3
ATOM      3  C   UNL     1      97.745  80.765  83.548  1.00  0.00     0.246 C 
ATOM      4  O   UNL     1      97.892  81.575  84.463  1.00  0.00    -0.270 OA
ATOM      5  N   UNL     1      97.528  79.399  83.724  1.00  0.00    -0.339 N 
ATOM      6  C   UNL     1      97.467  78.858  85.086  1.00  0.00     0.120 C 
ATOM      7  C   UNL     1      97.393  78.395  82.658  1.00  0.00     0.120 C 
ATOM      8  C   UNL     1      96.195  78.046  85.306  1.00  0.00     0.022 C 
ATOM      9  C   UNL     1      96.129  77.556  82.846  1.00  0.00     0.022 C 
ATOM     10  C   UNL     1      96.053  76.957  84.247  1.00  0.00     0.004 C 
ENDBRANCH   1   3
BRANCH   2  11
ATOM     11  C   UNL     1      96.644  82.253  80.264  1.00  0.00     0.001 C 
ATOM     12  C   UNL     1      97.063  81.550  79.200  1.00  0.00     0.008 C 
BRANCH  12  13
ATOM     13  C   UNL     1      97.053  82.035  77.810  1.00  0.00    -0.022 A 
ATOM     14  C   UNL     1      98.169  81.822  77.012  1.00  0.00     0.058 A 
ATOM     15  C   UNL     1      95.920  82.698  77.331  1.00  0.00     0.012 A 
ATOM     16  C   UNL     1      98.113  82.295  75.717  1.00  0.00     0.166 A 
ATOM     17  C   UNL     1      95.890  83.166  76.016  1.00  0.00     0.051 A 
ATOM     18  O   UNL     1      99.098  82.187  74.784  1.00  0.00    -0.454 OA
ATOM     19  C   UNL     1      97.004  82.949  75.232  1.00  0.00     0.165 A 
ATOM     20  C   UNL     1      98.485  82.847  73.658  1.00  0.00     0.468 C 
ATOM     21  O   UNL     1      97.155  83.333  73.935  1.00  0.00    -0.454 OA
ENDBRANCH  12  13
ENDBRANCH   2  11
TORSDOF 3
ENDMDL
MODEL 6
REMARK VINA RESULT:    -6.603     13.300     14.134
REMARK INTER + INTRA:          -8.092
REMARK INTER:                  -7.690
REMARK INTRA:                  -0.402
REMARK UNBOUND:                -0.331
REMARK SMILES O=C(/C=C/C=C/c1ccc2c(c1)OCO2)N1CCCCC1
REMARK SMILES IDX 3 1 4 2 2 3 1 4 16 5 17 6 21 7 18 8 20 9 19 10 5 11 6 12
REMARK SMILES IDX 7 13 12 14 8 15 11 16 9 17 13 18 10 19 14 20 15 21
REMARK H PARENT
REMARK Flexibility Score: inf
ROOT
ATOM      1  C   UNL     1      96.912  95.341  80.102  1.00  0.00     0.071 C 
ATOM      2  C   UNL     1      96.364  94.128  80.067  1.00  0.00     0.006 C 
ENDROOT
BRANCH   1   3
ATOM      3  C   UNL     1      98.064  95.557  81.001  1.00  0.00     0.246 C 
ATOM      4  O   UNL     1      99.136  95.038  80.687  1.00  0.00    -0.270 OA
ATOM      5  N   UNL     1      97.861  96.328  82.144  1.00  0.00    -0.339 N 
ATOM      6  C   UNL     1      98.985  96.556  83.058  1.00  0.00     0.120 C 
ATOM      7  C   UNL     1      96.588  96.926  82.574  1.00  0.00     0.120 C 
ATOM      8  C   UNL     1      99.185  98.041  83.336  1.00  0.00     0.022 C 
ATOM      9  C   UNL     1      96.748  98.417  82.867  1.00  0.00     0.022 C 
ATOM     10  C   UNL     1      97.895  98.681  83.839  1.00  0.00     0.004 C 
ENDBRANCH   1   3
BRANCH   2  11
ATOM     11  C   UNL     1      95.232  93.820  79.220  1.00  0.00     0.001 C 
ATOM     12  C   UNL     1      94.459  94.768  78.667  1.00  0.00     0.008 C 
BRANCH  12  13
ATOM     13  C   UNL     1      93.293  94.510  77.805  1.00  0.00    -0.022 A 
ATOM     14  C   UNL     1      93.008  93.205  77.426  1.00  0.00     0.058 A 
ATOM     15  C   UNL     1      92.504  95.587  77.392  1.00  0.00     0.012 A 
ATOM     16  C   UNL     1      91.906  93.014  76.619  1.00  0.00     0.166 A 
ATOM     17  C   UNL     1      91.394  95.365  76.574  1.00  0.00     0.051 A 
ATOM     18  O   UNL     1      91.464  91.818  76.141  1.00  0.00    -0.454 OA
ATOM     19  C   UNL     1      91.120  94.065  76.204  1.00  0.00     0.165 A 
ATOM     20  C   UNL     1      90.312  92.234  75.380  1.00  0.00     0.468 C 
ATOM     21  O   UNL     1      90.087  93.659  75.416  1.00  0.00    -0.454 OA
ENDBRANCH  12  13
ENDBRANCH   2  11
TORSDOF 3
ENDMDL
MODEL 7
REMARK VINA RESULT:    -6.568      2.941      9.763
REMARK INTER + INTRA:          -8.051
REMARK INTER:                  -7.720
REMARK INTRA:                  -0.331
REMARK UNBOUND:                -0.331
REMARK SMILES O=C(/C=C/C=C/c1ccc2c(c1)OCO2)N1CCCCC1
REMARK SMILES IDX 3 1 4 2 2 3 1 4 16 5 17 6 21 7 18 8 20 9 19 10 5 11 6 12
REMARK SMILES IDX 7 13 12 14 8 15 11 16 9 17 13 18 10 19 14 20 15 21
REMARK H PARENT
REMARK Flexibility Score: inf
ROOT
ATOM      1  C   UNL     1      97.482  81.577  76.999  1.00  0.00     0.071 C 
ATOM      2  C   UNL     1      97.193  82.102  78.188  1.00  0.00     0.006 C 
ENDROOT
BRANCH   1   3
ATOM      3  C   UNL     1      97.410  82.457  75.815  1.00  0.00     0.246 C 
ATOM      4  O   UNL     1      96.519  83.306  75.791  1.00  0.00    -0.270 OA
ATOM      5  N   UNL     1      98.350  82.263  74.804  1.00  0.00    -0.339 N 
ATOM      6  C   UNL     1      98.301  83.118  73.614  1.00  0.00     0.120 C 
ATOM      7  C   UNL     1      99.398  81.232  74.777  1.00  0.00     0.120 C 
ATOM      8  C   UNL     1      99.652  83.768  73.338  1.00  0.00     0.022 C 
ATOM      9  C   UNL     1     100.771  81.846  74.500  1.00  0.00     0.022 C 
ATOM     10  C   UNL     1     100.755  82.719  73.248  1.00  0.00     0.004 C 
ENDBRANCH   1   3
BRANCH   2  11
ATOM     11  C   UNL     1      97.235  81.320  79.405  1.00  0.00     0.001 C 
ATOM     12  C   UNL     1      96.760  81.773  80.577  1.00  0.00     0.008 C 
BRANCH  12  13
ATOM     13  C   UNL     1      96.785  81.024  81.844  1.00  0.00    -0.022 A 
ATOM     14  C   UNL     1      96.812  81.725  83.042  1.00  0.00     0.058 A 
ATOM     15  C   UNL     1      96.782  79.627  81.806  1.00  0.00     0.012 A 
ATOM     16  C   UNL     1      96.834  80.979  84.203  1.00  0.00     0.166 A 
ATOM     17  C   UNL     1      96.805  78.898  82.997  1.00  0.00     0.051 A 
ATOM     18  O   UNL     1      96.863  81.476  85.471  1.00  0.00    -0.454 OA
ATOM     19  C   UNL     1      96.831  79.603  84.181  1.00  0.00     0.165 A 
ATOM     20  C   UNL     1      96.877  80.258  86.243  1.00  0.00     0.468 C 
ATOM     21  O   UNL     1      96.857  79.066  85.431  1.00  0.00    -0.454 OA
ENDBRANCH  12  13
ENDBRANCH   2  11
TORSDOF 3
ENDMDL
MODEL 8
REMARK VINA RESULT:    -6.568     16.509     18.408
REMARK INTER + INTRA:          -8.051
REMARK INTER:                  -7.668
REMARK INTRA:                  -0.383
REMARK UNBOUND:                -0.331
REMARK SMILES O=C(/C=C/C=C/c1ccc2c(c1)OCO2)N1CCCCC1
REMARK SMILES IDX 3 1 4 2 2 3 1 4 16 5 17 6 21 7 18 8 20 9 19 10 5 11 6 12
REMARK SMILES IDX 7 13 12 14 8 15 11 16 9 17 13 18 10 19 14 20 15 21
REMARK H PARENT
REMARK Flexibility Score: inf
ROOT
ATOM      1  C   UNL     1      93.652  96.945  74.792  1.00  0.00     0.071 C 
ATOM      2  C   UNL     1      94.406  97.946  74.342  1.00  0.00     0.006 C 
ENDROOT
BRANCH   1   3
ATOM      3  C   UNL     1      94.291  95.922  75.644  1.00  0.00     0.246 C 
ATOM      4  O   UNL     1      95.495  96.044  75.873  1.00  0.00    -0.270 OA
ATOM      5  N   UNL     1      93.491  94.887  76.127  1.00  0.00    -0.339 N 
ATOM      6  C   UNL     1      94.099  93.854  76.971  1.00  0.00     0.120 C 
ATOM      7  C   UNL     1      92.064  94.685  75.839  1.00  0.00     0.120 C 
ATOM      8  C   UNL     1      93.332  93.681  78.278  1.00  0.00     0.022 C 
ATOM      9  C   UNL     1      91.260  94.502  77.126  1.00  0.00     0.022 C 
ATOM     10  C   UNL     1      91.854  93.412  78.013  1.00  0.00     0.004 C 
ENDBRANCH   1   3
BRANCH   2  11
ATOM     11  C   UNL     1      93.870  98.995  73.501  1.00  0.00     0.001 C 
ATOM     12  C   UNL     1      92.958  98.764  72.543  1.00  0.00     0.008 C 
BRANCH  12  13
ATOM     13  C   UNL     1      92.387  99.790  71.655  1.00  0.00    -0.022 A 
ATOM     14  C   UNL     1      91.368  99.436  70.781  1.00  0.00     0.058 A 
ATOM     15  C   UNL     1      92.887 101.093  71.717  1.00  0.00     0.012 A 
ATOM     16  C   UNL     1      90.865 100.433  69.970  1.00  0.00     0.166 A 
ATOM     17  C   UNL     1      92.359 102.082  70.884  1.00  0.00     0.051 A 
ATOM     18  O   UNL     1      89.871 100.288  69.051  1.00  0.00    -0.454 OA
ATOM     19  C   UNL     1      91.347 101.721  70.019  1.00  0.00     0.165 A 
ATOM     20  C   UNL     1      89.782 101.629  68.528  1.00  0.00     0.468 C 
ATOM     21  O   UNL     1      90.716 102.544  69.138  1.00  0.00    -0.454 OA
ENDBRANCH  12  13
ENDBRANCH   2  11
TORSDOF 3
ENDMDL
MODEL 9
REMARK VINA RESULT:    -6.558      1.753      2.082
REMARK INTER + INTRA:          -8.039
REMARK INTER:                  -7.686
REMARK INTRA:                  -0.353
REMARK UNBOUND:                -0.331
REMARK SMILES O=C(/C=C/C=C/c1ccc2c(c1)OCO2)N1CCCCC1
REMARK SMILES IDX 3 1 4 2 2 3 1 4 16 5 17 6 21 7 18 8 20 9 19 10 5 11 6 12
REMARK SMILES IDX 7 13 12 14 8 15 11 16 9 17 13 18 10 19 14 20 15 21
REMARK H PARENT
REMARK Flexibility Score: inf
ROOT
ATOM      1  C   UNL     1      95.324  82.039  83.664  1.00  0.00     0.071 C 
ATOM      2  C   UNL     1      96.400  82.467  83.006  1.00  0.00     0.006 C 
ENDROOT
BRANCH   1   3
ATOM      3  C   UNL     1      95.420  81.893  85.130  1.00  0.00     0.246 C 
ATOM      4  O   UNL     1      95.848  80.825  85.569  1.00  0.00    -0.270 OA
ATOM      5  N   UNL     1      95.014  82.969  85.919  1.00  0.00    -0.339 N 
ATOM      6  C   UNL     1      95.092  82.851  87.378  1.00  0.00     0.120 C 
ATOM      7  C   UNL     1      94.457  84.240  85.434  1.00  0.00     0.120 C 
ATOM      8  C   UNL     1      95.863  84.015  87.990  1.00  0.00     0.022 C 
ATOM      9  C   UNL     1      95.202  85.434  86.030  1.00  0.00     0.022 C 
ATOM     10  C   UNL     1      95.273  85.352  87.552  1.00  0.00     0.004 C 
ENDBRANCH   1   3
BRANCH   2  11
ATOM     11  C   UNL     1      96.404  82.642  81.569  1.00  0.00     0.001 C 
ATOM     12  C   UNL     1      97.035  81.798  80.736  1.00  0.00     0.008 C 
BRANCH  12  13
ATOM     13  C   UNL     1      97.077  81.933  79.271  1.00  0.00    -0.022 A 
ATOM     14  C   UNL     1      98.215  81.527  78.588  1.00  0.00     0.058 A 
ATOM     15  C   UNL     1      95.970  82.468  78.607  1.00  0.00     0.012 A 
ATOM     16  C   UNL     1      98.207  81.672  77.215  1.00  0.00     0.166 A 
ATOM     17  C   UNL     1      95.989  82.604  77.217  1.00  0.00     0.051 A 
ATOM     18  O   UNL     1      99.221  81.336  76.371  1.00  0.00    -0.454 OA
ATOM     19  C   UNL     1      97.124  82.197  76.548  1.00  0.00     0.165 A 
ATOM     20  C   UNL     1      98.654  81.707  75.099  1.00  0.00     0.468 C 
ATOM     21  O   UNL     1      97.324  82.254  75.203  1.00  0.00    -0.454 OA
ENDBRANCH  12  13
ENDBRANCH   2  11
TORSDOF 3
ENDMDL
MODEL 10
REMARK VINA RESULT:    -6.512     14.251     15.947
REMARK INTER + INTRA:          -7.985
REMARK INTER:                  -7.652
REMARK INTRA:                  -0.333
REMARK UNBOUND:                -0.331
REMARK SMILES O=C(/C=C/C=C/c1ccc2c(c1)OCO2)N1CCCCC1
REMARK SMILES IDX 3 1 4 2 2 3 1 4 16 5 17 6 21 7 18 8 20 9 19 10 5 11 6 12
REMARK SMILES IDX 7 13 12 14 8 15 11 16 9 17 13 18 10 19 14 20 15 21
REMARK H PARENT
REMARK Flexibility Score: inf
ROOT
ATOM      1  C   UNL     1      94.527  94.755  75.308  1.00  0.00     0.071 C 
ATOM      2  C   UNL     1      94.055  95.973  75.047  1.00  0.00     0.006 C 
ENDROOT
BRANCH   1   3
ATOM      3  C   UNL     1      93.971  94.029  76.467  1.00  0.00     0.246 C 
ATOM      4  O   UNL     1      92.980  93.324  76.275  1.00  0.00    -0.270 OA
ATOM      5  N   UNL     1      94.602  94.192  77.700  1.00  0.00    -0.339 N 
ATOM      6  C   UNL     1      94.070  93.488  78.870  1.00  0.00     0.120 C 
ATOM      7  C   UNL     1      95.758  95.058  77.976  1.00  0.00     0.120 C 
ATOM      8  C   UNL     1      95.155  92.683  79.577  1.00  0.00     0.022 C 
ATOM      9  C   UNL     1      96.868  94.287  78.689  1.00  0.00     0.022 C 
ATOM     10  C   UNL     1      96.348  93.566  79.930  1.00  0.00     0.004 C 
ENDBRANCH   1   3
BRANCH   2  11
ATOM     11  C   UNL     1      94.537  96.762  73.934  1.00  0.00     0.001 C 
ATOM     12  C   UNL     1      95.456  96.309  73.066  1.00  0.00     0.008 C 
BRANCH  12  13
ATOM     13  C   UNL     1      95.987  97.072  71.923  1.00  0.00    -0.022 A 
ATOM     14  C   UNL     1      96.281  98.418  72.087  1.00  0.00     0.058 A 
ATOM     15  C   UNL     1      96.180  96.418  70.703  1.00  0.00     0.012 A 
ATOM     16  C   UNL     1      96.776  99.090  70.988  1.00  0.00     0.166 A 
ATOM     17  C   UNL     1      96.682  97.122  69.607  1.00  0.00     0.051 A 
ATOM     18  O   UNL     1      97.121 100.406  70.946  1.00  0.00    -0.454 OA
ATOM     19  C   UNL     1      96.971  98.459  69.781  1.00  0.00     0.165 A 
ATOM     20  C   UNL     1      97.556 100.532  69.577  1.00  0.00     0.468 C 
ATOM     21  O   UNL     1      97.464  99.301  68.832  1.00  0.00    -0.454 OA
ENDBRANCH  12  13
ENDBRANCH   2  11
TORSDOF 3
ENDMDL
