MODEL 1
REMARK VINA RESULT:    -6.038      0.000      0.000
REMARK INTER + INTRA:         -10.985
REMARK INTER:                 -10.097
REMARK INTRA:                  -0.888
REMARK UNBOUND:                -0.888
REMARK SMILES COc1cc(CNC(=O)CCCCCCCC(C)C)ccc1O
REMARK SMILES IDX 11 1 10 2 8 3 9 4 7 5 6 7 5 8 4 9 20 10 3 11 21 12 22 13
REMARK SMILES IDX 2 14 1 15 23 16 12 18 13 19 14 20 15 21 16 22 17 23 18 24
REMARK SMILES IDX 19 25
REMARK H PARENT 7 6 23 17
REMARK Flexibility Score: inf
ROOT
ATOM      1  C   UNL     1      94.297  96.846  73.488  1.00  0.00     0.010 C 
ENDROOT
BRANCH   1   2
ATOM      2  C   UNL     1      95.588  97.429  72.918  1.00  0.00     0.100 C 
BRANCH   2   3
ATOM      3  C   UNL     1      95.374  98.788  72.274  1.00  0.00     0.220 C 
ATOM      4  O   UNL     1      96.154  99.279  71.462  1.00  0.00    -0.275 OA
ATOM      5  N   UNL     1      94.208  99.388  72.724  1.00  0.00    -0.352 N 
ATOM      6  H   UNL     1      93.629  98.909  73.408  1.00  0.00     0.163 HD
BRANCH   5   7
ATOM      7  C   UNL     1      93.773 100.691  72.275  1.00  0.00     0.151 C 
BRANCH   7   8
ATOM      8  C   UNL     1      92.327 100.692  71.874  1.00  0.00    -0.025 A 
ATOM      9  C   UNL     1      91.422 101.487  72.567  1.00  0.00     0.056 A 
ATOM     10  C   UNL     1      91.908  99.899  70.813  1.00  0.00     0.009 A 
ATOM     11  C   UNL     1      90.078 101.488  72.194  1.00  0.00     0.160 A 
ATOM     12  C   UNL     1      90.563  99.899  70.441  1.00  0.00     0.050 A 
ATOM     13  C   UNL     1      89.648 100.694  71.131  1.00  0.00     0.157 A 
BRANCH  11  14
ATOM     14  O   UNL     1      89.193 102.268  72.877  1.00  0.00    -0.493 OA
ATOM     15  C   UNL     1      89.383 102.382  74.286  1.00  0.00     0.278 C 
ENDBRANCH  11  14
BRANCH  13  16
ATOM     16  O   UNL     1      88.338 100.687  70.757  1.00  0.00    -0.504 OA
ATOM     17  H   UNL     1      87.864 101.376  71.253  1.00  0.00     0.293 HD
ENDBRANCH  13  16
ENDBRANCH   7   8
ENDBRANCH   5   7
ENDBRANCH   2   3
ENDBRANCH   1   2
BRANCH   1  18
ATOM     18  C   UNL     1      94.446  96.313  74.916  1.00  0.00     0.001 C 
BRANCH  18  19
ATOM     19  C   UNL     1      93.382  95.304  75.363  1.00  0.00     0.000 C 
BRANCH  19  20
ATOM     20  C   UNL     1      93.037  95.408  76.851  1.00  0.00     0.000 C 
BRANCH  20  21
ATOM     21  C   UNL     1      91.531  95.487  77.123  1.00  0.00     0.000 C 
BRANCH  21  22
ATOM     22  C   UNL     1      90.930  94.160  77.600  1.00  0.00     0.003 C 
BRANCH  22  23
ATOM     23  C   UNL     1      89.806  93.632  76.687  1.00  0.00    -0.017 C 
ATOM     24  C   UNL     1      89.820  92.102  76.681  1.00  0.00     0.007 C 
ATOM     25  C   UNL     1      89.921  94.153  75.254  1.00  0.00     0.007 C 
ENDBRANCH  22  23
ENDBRANCH  21  22
ENDBRANCH  20  21
ENDBRANCH  19  20
ENDBRANCH  18  19
ENDBRANCH   1  18
TORSDOF 12
ENDMDL
MODEL 2
REMARK VINA RESULT:    -5.920     15.754     18.309
REMARK INTER + INTRA:         -10.787
REMARK INTER:                  -9.990
REMARK INTRA:                  -0.797
REMARK UNBOUND:                -0.888
REMARK SMILES COc1cc(CNC(=O)CCCCCCCC(C)C)ccc1O
REMARK SMILES IDX 11 1 10 2 8 3 9 4 7 5 6 7 5 8 4 9 20 10 3 11 21 12 22 13
REMARK SMILES IDX 2 14 1 15 23 16 12 18 13 19 14 20 15 21 16 22 17 23 18 24
REMARK SMILES IDX 19 25
REMARK H PARENT 7 6 23 17
REMARK Flexibility Score: inf
ROOT
ATOM      1  C   UNL     1      98.437  82.277  78.608  1.00  0.00     0.010 C 
ENDROOT
BRANCH   1   2
ATOM      2  C   UNL     1      98.156  83.183  79.805  1.00  0.00     0.100 C 
BRANCH   2   3
ATOM      3  C   UNL     1      97.747  82.398  81.040  1.00  0.00     0.220 C 
ATOM      4  O   UNL     1      98.019  81.213  81.206  1.00  0.00    -0.275 OA
ATOM      5  N   UNL     1      97.033  83.186  81.931  1.00  0.00    -0.352 N 
ATOM      6  H   UNL     1      96.845  84.158  81.702  1.00  0.00     0.163 HD
BRANCH   5   7
ATOM      7  C   UNL     1      96.518  82.682  83.183  1.00  0.00     0.151 C 
BRANCH   7   8
ATOM      8  C   UNL     1      95.795  83.744  83.960  1.00  0.00    -0.025 A 
ATOM      9  C   UNL     1      94.991  83.382  85.034  1.00  0.00     0.056 A 
ATOM     10  C   UNL     1      95.937  85.078  83.597  1.00  0.00     0.009 A 
ATOM     11  C   UNL     1      94.319  84.369  85.756  1.00  0.00     0.160 A 
ATOM     12  C   UNL     1      95.263  86.064  84.318  1.00  0.00     0.050 A 
ATOM     13  C   UNL     1      94.454  85.710  85.398  1.00  0.00     0.157 A 
BRANCH  11  14
ATOM     14  O   UNL     1      93.531  84.010  86.808  1.00  0.00    -0.493 OA
ATOM     15  C   UNL     1      93.670  82.677  87.297  1.00  0.00     0.278 C 
ENDBRANCH  11  14
BRANCH  13  16
ATOM     16  O   UNL     1      93.804  86.683  86.095  1.00  0.00    -0.504 OA
ATOM     17  H   UNL     1      93.078  87.031  85.549  1.00  0.00     0.293 HD
ENDBRANCH  13  16
ENDBRANCH   7   8
ENDBRANCH   5   7
ENDBRANCH   2   3
ENDBRANCH   1   2
BRANCH   1  18
ATOM     18  C   UNL     1      97.387  82.386  77.499  1.00  0.00     0.001 C 
BRANCH  18  19
ATOM     19  C   UNL     1      96.441  83.587  77.597  1.00  0.00     0.000 C 
BRANCH  19  20
ATOM     20  C   UNL     1      96.593  84.574  76.436  1.00  0.00     0.000 C 
BRANCH  20  21
ATOM     21  C   UNL     1      97.739  84.220  75.482  1.00  0.00     0.000 C 
BRANCH  21  22
ATOM     22  C   UNL     1      97.466  84.625  74.030  1.00  0.00     0.003 C 
BRANCH  22  23
ATOM     23  C   UNL     1      98.735  84.668  73.155  1.00  0.00    -0.017 C 
ATOM     24  C   UNL     1      99.065  83.261  72.653  1.00  0.00     0.007 C 
ATOM     25  C   UNL     1      99.940  85.244  73.899  1.00  0.00     0.007 C 
ENDBRANCH  22  23
ENDBRANCH  21  22
ENDBRANCH  20  21
ENDBRANCH  19  20
ENDBRANCH  18  19
ENDBRANCH   1  18
TORSDOF 12
ENDMDL
MODEL 3
REMARK VINA RESULT:    -5.814     18.316     20.739
REMARK INTER + INTRA:         -10.611
REMARK INTER:                  -9.752
REMARK INTRA:                  -0.858
REMARK UNBOUND:                -0.888
REMARK SMILES COc1cc(CNC(=O)CCCCCCCC(C)C)ccc1O
REMARK SMILES IDX 11 1 10 2 8 3 9 4 7 5 6 7 5 8 4 9 20 10 3 11 21 12 22 13
REMARK SMILES IDX 2 14 1 15 23 16 12 18 13 19 14 20 15 21 16 22 17 23 18 24
REMARK SMILES IDX 19 25
REMARK H PARENT 7 6 23 17
REMARK Flexibility Score: inf
ROOT
ATOM      1  C   UNL     1      91.848  78.322  84.103  1.00  0.00     0.010 C 
ENDROOT
BRANCH   1   2
ATOM      2  C   UNL     1      93.056  78.683  84.965  1.00  0.00     0.100 C 
BRANCH   2   3
ATOM      3  C   UNL     1      94.371  78.285  84.315  1.00  0.00     0.220 C 
ATOM      4  O   UNL     1      94.734  77.119  84.189  1.00  0.00    -0.275 OA
ATOM      5  N   UNL     1      95.091  79.395  83.901  1.00  0.00    -0.352 N 
ATOM      6  H   UNL     1      94.714  80.326  84.058  1.00  0.00     0.163 HD
BRANCH   5   7
ATOM      7  C   UNL     1      96.382  79.297  83.259  1.00  0.00     0.151 C 
BRANCH   7   8
ATOM      8  C   UNL     1      96.684  80.502  82.417  1.00  0.00    -0.025 A 
ATOM      9  C   UNL     1      97.175  80.336  81.128  1.00  0.00     0.056 A 
ATOM     10  C   UNL     1      96.469  81.773  82.936  1.00  0.00     0.009 A 
ATOM     11  C   UNL     1      97.456  81.456  80.346  1.00  0.00     0.160 A 
ATOM     12  C   UNL     1      96.751  82.894  82.154  1.00  0.00     0.050 A 
ATOM     13  C   UNL     1      97.244  82.736  80.860  1.00  0.00     0.157 A 
BRANCH  11  14
ATOM     14  O   UNL     1      97.938  81.289  79.083  1.00  0.00    -0.493 OA
ATOM     15  C   UNL     1      99.340  81.060  78.950  1.00  0.00     0.278 C 
ENDBRANCH  11  14
BRANCH  13  16
ATOM     16  O   UNL     1      97.513  83.838  80.106  1.00  0.00    -0.504 OA
ATOM     17  H   UNL     1      97.639  83.566  79.181  1.00  0.00     0.293 HD
ENDBRANCH  13  16
ENDBRANCH   7   8
ENDBRANCH   5   7
ENDBRANCH   2   3
ENDBRANCH   1   2
BRANCH   1  18
ATOM     18  C   UNL     1      90.946  79.517  83.786  1.00  0.00     0.001 C 
BRANCH  18  19
ATOM     19  C   UNL     1      91.491  80.889  84.197  1.00  0.00     0.000 C 
BRANCH  19  20
ATOM     20  C   UNL     1      90.536  81.674  85.101  1.00  0.00     0.000 C 
BRANCH  20  21
ATOM     21  C   UNL     1      89.275  82.160  84.378  1.00  0.00     0.000 C 
BRANCH  21  22
ATOM     22  C   UNL     1      88.025  81.343  84.724  1.00  0.00     0.003 C 
BRANCH  22  23
ATOM     23  C   UNL     1      86.861  81.554  83.737  1.00  0.00    -0.017 C 
ATOM     24  C   UNL     1      87.061  80.671  82.503  1.00  0.00     0.007 C 
ATOM     25  C   UNL     1      86.716  83.014  83.305  1.00  0.00     0.007 C 
ENDBRANCH  22  23
ENDBRANCH  21  22
ENDBRANCH  20  21
ENDBRANCH  19  20
ENDBRANCH  18  19
ENDBRANCH   1  18
TORSDOF 12
ENDMDL
MODEL 4
REMARK VINA RESULT:    -5.766     17.590     19.878
REMARK INTER + INTRA:         -10.531
REMARK INTER:                  -9.579
REMARK INTRA:                  -0.952
REMARK UNBOUND:                -0.888
REMARK SMILES COc1cc(CNC(=O)CCCCCCCC(C)C)ccc1O
REMARK SMILES IDX 11 1 10 2 8 3 9 4 7 5 6 7 5 8 4 9 20 10 3 11 21 12 22 13
REMARK SMILES IDX 2 14 1 15 23 16 12 18 13 19 14 20 15 21 16 22 17 23 18 24
REMARK SMILES IDX 19 25
REMARK H PARENT 7 6 23 17
REMARK Flexibility Score: inf
ROOT
ATOM      1  C   UNL     1      93.088  84.547  88.135  1.00  0.00     0.010 C 
ENDROOT
BRANCH   1   2
ATOM      2  C   UNL     1      93.363  85.161  86.763  1.00  0.00     0.100 C 
BRANCH   2   3
ATOM      3  C   UNL     1      93.534  84.107  85.681  1.00  0.00     0.220 C 
ATOM      4  O   UNL     1      94.577  83.949  85.054  1.00  0.00    -0.275 OA
ATOM      5  N   UNL     1      92.373  83.371  85.499  1.00  0.00    -0.352 N 
ATOM      6  H   UNL     1      91.551  83.581  86.060  1.00  0.00     0.163 HD
BRANCH   5   7
ATOM      7  C   UNL     1      92.263  82.310  84.525  1.00  0.00     0.151 C 
BRANCH   7   8
ATOM      8  C   UNL     1      90.845  81.849  84.354  1.00  0.00    -0.025 A 
ATOM      9  C   UNL     1      89.808  82.771  84.431  1.00  0.00     0.056 A 
ATOM     10  C   UNL     1      90.583  80.504  84.121  1.00  0.00     0.009 A 
ATOM     11  C   UNL     1      88.490  82.342  84.273  1.00  0.00     0.160 A 
ATOM     12  C   UNL     1      89.264  80.075  83.963  1.00  0.00     0.050 A 
ATOM     13  C   UNL     1      88.218  80.994  84.039  1.00  0.00     0.157 A 
BRANCH  11  14
ATOM     14  O   UNL     1      87.476  83.249  84.350  1.00  0.00    -0.493 OA
ATOM     15  C   UNL     1      87.168  83.768  85.642  1.00  0.00     0.278 C 
ENDBRANCH  11  14
BRANCH  13  16
ATOM     16  O   UNL     1      86.935  80.563  83.882  1.00  0.00    -0.504 OA
ATOM     17  H   UNL     1      86.947  79.645  83.563  1.00  0.00     0.293 HD
ENDBRANCH  13  16
ENDBRANCH   7   8
ENDBRANCH   5   7
ENDBRANCH   2   3
ENDBRANCH   1   2
BRANCH   1  18
ATOM     18  C   UNL     1      94.042  85.041  89.226  1.00  0.00     0.001 C 
BRANCH  18  19
ATOM     19  C   UNL     1      93.864  86.502  89.653  1.00  0.00     0.000 C 
BRANCH  19  20
ATOM     20  C   UNL     1      92.759  86.697  90.695  1.00  0.00     0.000 C 
BRANCH  20  21
ATOM     21  C   UNL     1      91.998  88.018  90.537  1.00  0.00     0.000 C 
BRANCH  21  22
ATOM     22  C   UNL     1      92.264  88.714  89.198  1.00  0.00     0.003 C 
BRANCH  22  23
ATOM     23  C   UNL     1      92.369  90.248  89.314  1.00  0.00    -0.017 C 
ATOM     24  C   UNL     1      93.476  90.761  88.390  1.00  0.00     0.007 C 
ATOM     25  C   UNL     1      92.639  90.711  90.746  1.00  0.00     0.007 C 
ENDBRANCH  22  23
ENDBRANCH  21  22
ENDBRANCH  20  21
ENDBRANCH  19  20
ENDBRANCH  18  19
ENDBRANCH   1  18
TORSDOF 12
ENDMDL
MODEL 5
REMARK VINA RESULT:    -5.723     15.895     18.850
REMARK INTER + INTRA:         -10.458
REMARK INTER:                  -9.780
REMARK INTRA:                  -0.678
REMARK UNBOUND:                -0.888
REMARK SMILES COc1cc(CNC(=O)CCCCCCCC(C)C)ccc1O
REMARK SMILES IDX 11 1 10 2 8 3 9 4 7 5 6 7 5 8 4 9 20 10 3 11 21 12 22 13
REMARK SMILES IDX 2 14 1 15 23 16 12 18 13 19 14 20 15 21 16 22 17 23 18 24
REMARK SMILES IDX 19 25
REMARK H PARENT 7 6 23 17
REMARK Flexibility Score: inf
ROOT
ATOM      1  C   UNL     1      97.390  81.834  79.105  1.00  0.00     0.010 C 
ENDROOT
BRANCH   1   2
ATOM      2  C   UNL     1      97.994  81.638  80.494  1.00  0.00     0.100 C 
BRANCH   2   3
ATOM      3  C   UNL     1      97.136  80.748  81.377  1.00  0.00     0.220 C 
ATOM      4  O   UNL     1      97.000  79.542  81.189  1.00  0.00    -0.275 OA
ATOM      5  N   UNL     1      96.534  81.469  82.397  1.00  0.00    -0.352 N 
ATOM      6  H   UNL     1      96.697  82.470  82.468  1.00  0.00     0.163 HD
BRANCH   5   7
ATOM      7  C   UNL     1      95.659  80.864  83.375  1.00  0.00     0.151 C 
BRANCH   7   8
ATOM      8  C   UNL     1      94.814  81.884  84.081  1.00  0.00    -0.025 A 
ATOM      9  C   UNL     1      95.359  83.121  84.408  1.00  0.00     0.056 A 
ATOM     10  C   UNL     1      93.496  81.582  84.400  1.00  0.00     0.009 A 
ATOM     11  C   UNL     1      94.573  84.069  85.063  1.00  0.00     0.160 A 
ATOM     12  C   UNL     1      92.711  82.531  85.056  1.00  0.00     0.050 A 
ATOM     13  C   UNL     1      93.249  83.774  85.388  1.00  0.00     0.157 A 
BRANCH  11  14
ATOM     14  O   UNL     1      95.111  85.279  85.383  1.00  0.00    -0.493 OA
ATOM     15  C   UNL     1      95.377  86.175  84.305  1.00  0.00     0.278 C 
ENDBRANCH  11  14
BRANCH  13  16
ATOM     16  O   UNL     1      92.472  84.691  86.028  1.00  0.00    -0.504 OA
ATOM     17  H   UNL     1      92.911  85.559  85.991  1.00  0.00     0.293 HD
ENDBRANCH  13  16
ENDBRANCH   7   8
ENDBRANCH   5   7
ENDBRANCH   2   3
ENDBRANCH   1   2
BRANCH   1  18
ATOM     18  C   UNL     1      97.572  83.251  78.554  1.00  0.00     0.001 C 
BRANCH  18  19
ATOM     19  C   UNL     1      97.597  83.373  77.027  1.00  0.00     0.000 C 
BRANCH  19  20
ATOM     20  C   UNL     1      96.742  84.528  76.498  1.00  0.00     0.000 C 
BRANCH  20  21
ATOM     21  C   UNL     1      96.721  84.620  74.968  1.00  0.00     0.000 C 
BRANCH  21  22
ATOM     22  C   UNL     1      97.704  83.660  74.289  1.00  0.00     0.003 C 
BRANCH  22  23
ATOM     23  C   UNL     1      98.465  84.294  73.109  1.00  0.00    -0.017 C 
ATOM     24  C   UNL     1      99.285  83.222  72.386  1.00  0.00     0.007 C 
ATOM     25  C   UNL     1      99.385  85.434  73.549  1.00  0.00     0.007 C 
ENDBRANCH  22  23
ENDBRANCH  21  22
ENDBRANCH  20  21
ENDBRANCH  19  20
ENDBRANCH  18  19
ENDBRANCH   1  18
TORSDOF 12
ENDMDL
MODEL 6
REMARK VINA RESULT:    -5.671     19.285     21.803
REMARK INTER + INTRA:         -10.371
REMARK INTER:                  -9.112
REMARK INTRA:                  -1.259
REMARK UNBOUND:                -0.888
REMARK SMILES COc1cc(CNC(=O)CCCCCCCC(C)C)ccc1O
REMARK SMILES IDX 11 1 10 2 8 3 9 4 7 5 6 7 5 8 4 9 20 10 3 11 21 12 22 13
REMARK SMILES IDX 2 14 1 15 23 16 12 18 13 19 14 20 15 21 16 22 17 23 18 24
REMARK SMILES IDX 19 25
REMARK H PARENT 7 6 23 17
REMARK Flexibility Score: inf
ROOT
ATOM      1  C   UNL     1      89.920  76.494  84.646  1.00  0.00     0.010 C 
ENDROOT
BRANCH   1   2
ATOM      2  C   UNL     1      90.927  75.645  83.874  1.00  0.00     0.100 C 
BRANCH   2   3
ATOM      3  C   UNL     1      92.223  76.390  83.600  1.00  0.00     0.220 C 
ATOM      4  O   UNL     1      92.976  76.113  82.671  1.00  0.00    -0.275 OA
ATOM      5  N   UNL     1      92.437  77.398  84.528  1.00  0.00    -0.352 N 
ATOM      6  H   UNL     1      91.760  77.547  85.273  1.00  0.00     0.163 HD
BRANCH   5   7
ATOM      7  C   UNL     1      93.601  78.254  84.502  1.00  0.00     0.151 C 
BRANCH   7   8
ATOM      8  C   UNL     1      93.234  79.704  84.630  1.00  0.00    -0.025 A 
ATOM      9  C   UNL     1      94.177  80.680  84.330  1.00  0.00     0.056 A 
ATOM     10  C   UNL     1      91.957  80.055  85.048  1.00  0.00     0.009 A 
ATOM     11  C   UNL     1      93.836  82.028  84.449  1.00  0.00     0.160 A 
ATOM     12  C   UNL     1      91.617  81.403  85.169  1.00  0.00     0.050 A 
ATOM     13  C   UNL     1      92.556  82.389  84.869  1.00  0.00     0.157 A 
BRANCH  11  14
ATOM     14  O   UNL     1      94.763  82.982  84.155  1.00  0.00    -0.493 OA
ATOM     15  C   UNL     1      96.134  82.631  84.335  1.00  0.00     0.278 C 
ENDBRANCH  11  14
BRANCH  13  16
ATOM     16  O   UNL     1      92.211  83.702  84.989  1.00  0.00    -0.504 OA
ATOM     17  H   UNL     1      92.424  84.004  85.889  1.00  0.00     0.293 HD
ENDBRANCH  13  16
ENDBRANCH   7   8
ENDBRANCH   5   7
ENDBRANCH   2   3
ENDBRANCH   1   2
BRANCH   1  18
ATOM     18  C   UNL     1      89.376  77.678  83.842  1.00  0.00     0.001 C 
BRANCH  18  19
ATOM     19  C   UNL     1      88.427  78.614  84.597  1.00  0.00     0.000 C 
BRANCH  19  20
ATOM     20  C   UNL     1      87.622  79.534  83.674  1.00  0.00     0.000 C 
BRANCH  20  21
ATOM     21  C   UNL     1      88.244  80.924  83.505  1.00  0.00     0.000 C 
BRANCH  21  22
ATOM     22  C   UNL     1      88.026  81.837  84.716  1.00  0.00     0.003 C 
BRANCH  22  23
ATOM     23  C   UNL     1      86.785  82.743  84.586  1.00  0.00    -0.017 C 
ATOM     24  C   UNL     1      86.470  82.979  83.107  1.00  0.00     0.007 C 
ATOM     25  C   UNL     1      86.964  84.087  85.294  1.00  0.00     0.007 C 
ENDBRANCH  22  23
ENDBRANCH  21  22
ENDBRANCH  20  21
ENDBRANCH  19  20
ENDBRANCH  18  19
ENDBRANCH   1  18
TORSDOF 12
ENDMDL
MODEL 7
REMARK VINA RESULT:    -5.517     16.819     18.954
REMARK INTER + INTRA:         -10.114
REMARK INTER:                  -9.292
REMARK INTRA:                  -0.823
REMARK UNBOUND:                -0.888
REMARK SMILES COc1cc(CNC(=O)CCCCCCCC(C)C)ccc1O
REMARK SMILES IDX 11 1 10 2 8 3 9 4 7 5 6 7 5 8 4 9 20 10 3 11 21 12 22 13
REMARK SMILES IDX 2 14 1 15 23 16 12 18 13 19 14 20 15 21 16 22 17 23 18 24
REMARK SMILES IDX 19 25
REMARK H PARENT 7 6 23 17
REMARK Flexibility Score: inf
ROOT
ATOM      1  C   UNL     1      94.651  89.360  87.588  1.00  0.00     0.010 C 
ENDROOT
BRANCH   1   2
ATOM      2  C   UNL     1      94.200  88.424  88.708  1.00  0.00     0.100 C 
BRANCH   2   3
ATOM      3  C   UNL     1      93.422  87.228  88.185  1.00  0.00     0.220 C 
ATOM      4  O   UNL     1      92.497  86.705  88.799  1.00  0.00    -0.275 OA
ATOM      5  N   UNL     1      93.897  86.813  86.949  1.00  0.00    -0.352 N 
ATOM      6  H   UNL     1      94.678  87.302  86.521  1.00  0.00     0.163 HD
BRANCH   5   7
ATOM      7  C   UNL     1      93.338  85.689  86.233  1.00  0.00     0.151 C 
BRANCH   7   8
ATOM      8  C   UNL     1      94.323  85.090  85.272  1.00  0.00    -0.025 A 
ATOM      9  C   UNL     1      94.488  83.711  85.227  1.00  0.00     0.056 A 
ATOM     10  C   UNL     1      95.060  85.921  84.437  1.00  0.00     0.009 A 
ATOM     11  C   UNL     1      95.403  83.154  84.333  1.00  0.00     0.160 A 
ATOM     12  C   UNL     1      95.976  85.364  83.544  1.00  0.00     0.050 A 
ATOM     13  C   UNL     1      96.148  83.981  83.492  1.00  0.00     0.157 A 
BRANCH  11  14
ATOM     14  O   UNL     1      95.563  81.802  84.293  1.00  0.00    -0.493 OA
ATOM     15  C   UNL     1      94.393  81.006  84.480  1.00  0.00     0.278 C 
ENDBRANCH  11  14
BRANCH  13  16
ATOM     16  O   UNL     1      97.045  83.450  82.615  1.00  0.00    -0.504 OA
ATOM     17  H   UNL     1      96.794  82.529  82.425  1.00  0.00     0.293 HD
ENDBRANCH  13  16
ENDBRANCH   7   8
ENDBRANCH   5   7
ENDBRANCH   2   3
ENDBRANCH   1   2
BRANCH   1  18
ATOM     18  C   UNL     1      94.125  90.790  87.740  1.00  0.00     0.001 C 
BRANCH  18  19
ATOM     19  C   UNL     1      93.088  91.003  88.848  1.00  0.00     0.000 C 
BRANCH  19  20
ATOM     20  C   UNL     1      93.581  91.921  89.970  1.00  0.00     0.000 C 
BRANCH  20  21
ATOM     21  C   UNL     1      92.495  92.856  90.514  1.00  0.00     0.000 C 
BRANCH  21  22
ATOM     22  C   UNL     1      93.059  94.093  91.221  1.00  0.00     0.003 C 
BRANCH  22  23
ATOM     23  C   UNL     1      94.216  94.765  90.455  1.00  0.00    -0.017 C 
ATOM     24  C   UNL     1      95.106  95.535  91.433  1.00  0.00     0.007 C 
ATOM     25  C   UNL     1      93.722  95.708  89.357  1.00  0.00     0.007 C 
ENDBRANCH  22  23
ENDBRANCH  21  22
ENDBRANCH  20  21
ENDBRANCH  19  20
ENDBRANCH  18  19
ENDBRANCH   1  18
TORSDOF 12
ENDMDL
MODEL 8
REMARK VINA RESULT:    -5.420      5.128      7.890
REMARK INTER + INTRA:          -9.952
REMARK INTER:                  -9.291
REMARK INTRA:                  -0.661
REMARK UNBOUND:                -0.888
REMARK SMILES COc1cc(CNC(=O)CCCCCCCC(C)C)ccc1O
REMARK SMILES IDX 11 1 10 2 8 3 9 4 7 5 6 7 5 8 4 9 20 10 3 11 21 12 22 13
REMARK SMILES IDX 2 14 1 15 23 16 12 18 13 19 14 20 15 21 16 22 17 23 18 24
REMARK SMILES IDX 19 25
REMARK H PARENT 7 6 23 17
REMARK Flexibility Score: inf
ROOT
ATOM      1  C   UNL     1      94.423  98.204  75.312  1.00  0.00     0.010 C 
ENDROOT
BRANCH   1   2
ATOM      2  C   UNL     1      95.652  98.178  74.405  1.00  0.00     0.100 C 
BRANCH   2   3
ATOM      3  C   UNL     1      96.952  98.237  75.191  1.00  0.00     0.220 C 
ATOM      4  O   UNL     1      98.060  98.196  74.664  1.00  0.00    -0.275 OA
ATOM      5  N   UNL     1      96.719  98.334  76.555  1.00  0.00    -0.352 N 
ATOM      6  H   UNL     1      95.764  98.350  76.901  1.00  0.00     0.163 HD
BRANCH   5   7
ATOM      7  C   UNL     1      97.785  98.398  77.529  1.00  0.00     0.151 C 
BRANCH   7   8
ATOM      8  C   UNL     1      97.264  98.340  78.935  1.00  0.00    -0.025 A 
ATOM      9  C   UNL     1      98.000  97.686  79.915  1.00  0.00     0.056 A 
ATOM     10  C   UNL     1      96.050  98.942  79.243  1.00  0.00     0.009 A 
ATOM     11  C   UNL     1      97.516  97.632  81.222  1.00  0.00     0.160 A 
ATOM     12  C   UNL     1      95.565  98.887  80.550  1.00  0.00     0.050 A 
ATOM     13  C   UNL     1      96.297  98.233  81.540  1.00  0.00     0.157 A 
BRANCH  11  14
ATOM     14  O   UNL     1      98.240  96.989  82.180  1.00  0.00    -0.493 OA
ATOM     15  C   UNL     1      98.247  95.562  82.138  1.00  0.00     0.278 C 
ENDBRANCH  11  14
BRANCH  13  16
ATOM     16  O   UNL     1      95.814  98.188  82.812  1.00  0.00    -0.504 OA
ATOM     17  H   UNL     1      94.976  97.694  82.815  1.00  0.00     0.293 HD
ENDBRANCH  13  16
ENDBRANCH   7   8
ENDBRANCH   5   7
ENDBRANCH   2   3
ENDBRANCH   1   2
BRANCH   1  18
ATOM     18  C   UNL     1      94.146  96.866  76.002  1.00  0.00     0.001 C 
BRANCH  18  19
ATOM     19  C   UNL     1      92.975  96.858  76.990  1.00  0.00     0.000 C 
BRANCH  19  20
ATOM     20  C   UNL     1      92.606  95.455  77.480  1.00  0.00     0.000 C 
BRANCH  20  21
ATOM     21  C   UNL     1      91.151  95.070  77.188  1.00  0.00     0.000 C 
BRANCH  21  22
ATOM     22  C   UNL     1      90.879  94.813  75.702  1.00  0.00     0.003 C 
BRANCH  22  23
ATOM     23  C   UNL     1      89.937  93.620  75.447  1.00  0.00    -0.017 C 
ATOM     24  C   UNL     1      89.937  92.692  76.664  1.00  0.00     0.007 C 
ATOM     25  C   UNL     1      90.320  92.828  74.196  1.00  0.00     0.007 C 
ENDBRANCH  22  23
ENDBRANCH  21  22
ENDBRANCH  20  21
ENDBRANCH  19  20
ENDBRANCH  18  19
ENDBRANCH   1  18
TORSDOF 12
ENDMDL
MODEL 9
REMARK VINA RESULT:    -5.416     18.231     20.913
REMARK INTER + INTRA:          -9.946
REMARK INTER:                  -9.163
REMARK INTRA:                  -0.782
REMARK UNBOUND:                -0.888
REMARK SMILES COc1cc(CNC(=O)CCCCCCCC(C)C)ccc1O
REMARK SMILES IDX 11 1 10 2 8 3 9 4 7 5 6 7 5 8 4 9 20 10 3 11 21 12 22 13
REMARK SMILES IDX 2 14 1 15 23 16 12 18 13 19 14 20 15 21 16 22 17 23 18 24
REMARK SMILES IDX 19 25
REMARK H PARENT 7 6 23 17
REMARK Flexibility Score: inf
ROOT
ATOM      1  C   UNL     1      90.988  78.085  84.990  1.00  0.00     0.010 C 
ENDROOT
BRANCH   1   2
ATOM      2  C   UNL     1      92.152  79.073  85.048  1.00  0.00     0.100 C 
BRANCH   2   3
ATOM      3  C   UNL     1      93.401  78.535  84.371  1.00  0.00     0.220 C 
ATOM      4  O   UNL     1      93.443  77.452  83.795  1.00  0.00    -0.275 OA
ATOM      5  N   UNL     1      94.467  79.414  84.497  1.00  0.00    -0.352 N 
ATOM      6  H   UNL     1      94.341  80.287  85.002  1.00  0.00     0.163 HD
BRANCH   5   7
ATOM      7  C   UNL     1      95.776  79.142  83.949  1.00  0.00     0.151 C 
BRANCH   7   8
ATOM      8  C   UNL     1      96.280  80.278  83.108  1.00  0.00    -0.025 A 
ATOM      9  C   UNL     1      96.324  81.561  83.640  1.00  0.00     0.056 A 
ATOM     10  C   UNL     1      96.699  80.035  81.805  1.00  0.00     0.009 A 
ATOM     11  C   UNL     1      96.792  82.617  82.858  1.00  0.00     0.160 A 
ATOM     12  C   UNL     1      97.167  81.092  81.023  1.00  0.00     0.050 A 
ATOM     13  C   UNL     1      97.213  82.382  81.549  1.00  0.00     0.157 A 
BRANCH  11  14
ATOM     14  O   UNL     1      96.832  83.873  83.383  1.00  0.00    -0.493 OA
ATOM     15  C   UNL     1      95.591  84.444  83.793  1.00  0.00     0.278 C 
ENDBRANCH  11  14
BRANCH  13  16
ATOM     16  O   UNL     1      97.673  83.405  80.776  1.00  0.00    -0.504 OA
ATOM     17  H   UNL     1      97.289  84.240  81.093  1.00  0.00     0.293 HD
ENDBRANCH  13  16
ENDBRANCH   7   8
ENDBRANCH   5   7
ENDBRANCH   2   3
ENDBRANCH   1   2
BRANCH   1  18
ATOM     18  C   UNL     1      89.923  78.457  83.956  1.00  0.00     0.001 C 
BRANCH  18  19
ATOM     19  C   UNL     1      88.500  78.626  84.499  1.00  0.00     0.000 C 
BRANCH  19  20
ATOM     20  C   UNL     1      87.707  79.725  83.785  1.00  0.00     0.000 C 
BRANCH  20  21
ATOM     21  C   UNL     1      88.482  81.039  83.639  1.00  0.00     0.000 C 
BRANCH  21  22
ATOM     22  C   UNL     1      88.253  82.011  84.801  1.00  0.00     0.003 C 
BRANCH  22  23
ATOM     23  C   UNL     1      87.532  83.308  84.384  1.00  0.00    -0.017 C 
ATOM     24  C   UNL     1      86.778  83.889  85.582  1.00  0.00     0.007 C 
ATOM     25  C   UNL     1      86.562  83.092  83.222  1.00  0.00     0.007 C 
ENDBRANCH  22  23
ENDBRANCH  21  22
ENDBRANCH  20  21
ENDBRANCH  19  20
ENDBRANCH  18  19
ENDBRANCH   1  18
TORSDOF 12
ENDMDL
MODEL 10
REMARK VINA RESULT:    -5.283      2.200      2.976
REMARK INTER + INTRA:          -9.722
REMARK INTER:                  -8.955
REMARK INTRA:                  -0.767
REMARK UNBOUND:                -0.888
REMARK SMILES COc1cc(CNC(=O)CCCCCCCC(C)C)ccc1O
REMARK SMILES IDX 11 1 10 2 8 3 9 4 7 5 6 7 5 8 4 9 20 10 3 11 21 12 22 13
REMARK SMILES IDX 2 14 1 15 23 16 12 18 13 19 14 20 15 21 16 22 17 23 18 24
REMARK SMILES IDX 19 25
REMARK H PARENT 7 6 23 17
REMARK Flexibility Score: inf
ROOT
ATOM      1  C   UNL     1      94.399  98.746  75.032  1.00  0.00     0.010 C 
ENDROOT
BRANCH   1   2
ATOM      2  C   UNL     1      94.565  98.777  73.514  1.00  0.00     0.100 C 
BRANCH   2   3
ATOM      3  C   UNL     1      94.391 100.174  72.942  1.00  0.00     0.220 C 
ATOM      4  O   UNL     1      94.982 100.571  71.941  1.00  0.00    -0.275 OA
ATOM      5  N   UNL     1      93.498 100.925  73.692  1.00  0.00    -0.352 N 
ATOM      6  H   UNL     1      93.064 100.514  74.514  1.00  0.00     0.163 HD
BRANCH   5   7
ATOM      7  C   UNL     1      93.160 102.292  73.370  1.00  0.00     0.151 C 
BRANCH   7   8
ATOM      8  C   UNL     1      91.798 102.668  73.879  1.00  0.00    -0.025 A 
ATOM      9  C   UNL     1      91.656 103.774  74.708  1.00  0.00     0.056 A 
ATOM     10  C   UNL     1      90.695 101.905  73.517  1.00  0.00     0.009 A 
ATOM     11  C   UNL     1      90.391 104.123  75.181  1.00  0.00     0.160 A 
ATOM     12  C   UNL     1      89.430 102.254  73.991  1.00  0.00     0.050 A 
ATOM     13  C   UNL     1      89.277 103.363  74.823  1.00  0.00     0.157 A 
BRANCH  11  14
ATOM     14  O   UNL     1      90.255 105.208  75.994  1.00  0.00    -0.493 OA
ATOM     15  C   UNL     1      90.764 105.090  77.322  1.00  0.00     0.278 C 
ENDBRANCH  11  14
BRANCH  13  16
ATOM     16  O   UNL     1      88.037 103.694  75.278  1.00  0.00    -0.504 OA
ATOM     17  H   UNL     1      87.618 104.299  74.642  1.00  0.00     0.293 HD
ENDBRANCH  13  16
ENDBRANCH   7   8
ENDBRANCH   5   7
ENDBRANCH   2   3
ENDBRANCH   1   2
BRANCH   1  18
ATOM     18  C   UNL     1      94.365  97.329  75.613  1.00  0.00     0.001 C 
BRANCH  18  19
ATOM     19  C   UNL     1      93.932  97.223  77.079  1.00  0.00     0.000 C 
BRANCH  19  20
ATOM     20  C   UNL     1      93.142  95.948  77.385  1.00  0.00     0.000 C 
BRANCH  20  21
ATOM     21  C   UNL     1      91.718  95.962  76.819  1.00  0.00     0.000 C 
BRANCH  21  22
ATOM     22  C   UNL     1      91.585  95.209  75.491  1.00  0.00     0.003 C 
BRANCH  22  23
ATOM     23  C   UNL     1      90.321  94.332  75.406  1.00  0.00    -0.017 C 
ATOM     24  C   UNL     1      89.562  94.387  76.734  1.00  0.00     0.007 C 
ATOM     25  C   UNL     1      90.640  92.878  75.056  1.00  0.00     0.007 C 
ENDBRANCH  22  23
ENDBRANCH  21  22
ENDBRANCH  20  21
ENDBRANCH  19  20
ENDBRANCH  18  19
ENDBRANCH   1  18
TORSDOF 12
ENDMDL
