MODEL 1
REMARK VINA RESULT:    -6.179      0.000      0.000
REMARK INTER + INTRA:         -10.766
REMARK INTER:                  -9.973
REMARK INTRA:                  -0.793
REMARK UNBOUND:                -0.793
REMARK SMILES COc1cc(CNC(=O)CCCCCCC(C)C)ccc1O
REMARK SMILES IDX 11 1 10 2 8 3 7 4 9 6 6 7 5 8 3 9 21 10 4 11 20 12 19 13
REMARK SMILES IDX 2 14 1 15 22 16 12 18 13 19 14 20 15 21 16 22 17 23 18 24
REMARK H PARENT 7 5 22 17
REMARK Flexibility Score: inf
ROOT
ATOM      1  C   UNL     1      92.390  94.325  76.344  1.00  0.00     0.010 C 
ENDROOT
BRANCH   1   2
ATOM      2  C   UNL     1      93.525  93.718  75.475  1.00  0.00     0.100 C 
BRANCH   2   3
ATOM      3  C   UNL     1      94.880  94.101  75.932  1.00  0.00     0.220 C 
ATOM      4  N   UNL     1      95.049  94.742  77.125  1.00  0.00    -0.352 N 
ATOM      5  H   UNL     1      94.192  94.957  77.613  1.00  0.00     0.163 HD
ATOM      6  O   UNL     1      95.865  93.801  75.214  1.00  0.00    -0.275 OA
BRANCH   4   7
ATOM      7  C   UNL     1      96.311  95.108  77.694  1.00  0.00     0.151 C 
BRANCH   7   8
ATOM      8  C   UNL     1      96.240  95.369  79.158  1.00  0.00    -0.025 A 
ATOM      9  C   UNL     1      96.638  96.853  81.078  1.00  0.00     0.160 A 
ATOM     10  C   UNL     1      96.068  95.893  81.942  1.00  0.00     0.157 A 
ATOM     11  C   UNL     1      96.736  96.577  79.698  1.00  0.00     0.056 A 
ATOM     12  C   UNL     1      95.605  94.670  81.422  1.00  0.00     0.050 A 
ATOM     13  C   UNL     1      95.680  94.413  80.039  1.00  0.00     0.009 A 
BRANCH   9  14
ATOM     14  O   UNL     1      97.126  98.029  81.579  1.00  0.00    -0.493 OA
ATOM     15  C   UNL     1      96.215  99.136  81.454  1.00  0.00     0.278 C 
ENDBRANCH   9  14
BRANCH  10  16
ATOM     16  O   UNL     1      95.961  96.131  83.276  1.00  0.00    -0.504 OA
ATOM     17  H   UNL     1      95.090  96.487  83.468  1.00  0.00     0.293 HD
ENDBRANCH  10  16
ENDBRANCH   7   8
ENDBRANCH   4   7
ENDBRANCH   2   3
ENDBRANCH   1   2
BRANCH   1  18
ATOM     18  C   UNL     1      91.673  93.249  77.208  1.00  0.00     0.001 C 
BRANCH  18  19
ATOM     19  C   UNL     1      90.271  92.846  76.671  1.00  0.00     0.000 C 
BRANCH  19  20
ATOM     20  C   UNL     1      90.216  91.340  76.289  1.00  0.00     0.000 C 
BRANCH  20  21
ATOM     21  C   UNL     1      91.088  90.962  75.060  1.00  0.00     0.003 C 
BRANCH  21  22
ATOM     22  C   UNL     1      90.620  89.678  74.300  1.00  0.00    -0.017 C 
ATOM     23  C   UNL     1      89.070  89.570  74.319  1.00  0.00     0.007 C 
ATOM     24  C   UNL     1      91.265  88.365  74.836  1.00  0.00     0.007 C 
ENDBRANCH  21  22
ENDBRANCH  20  21
ENDBRANCH  19  20
ENDBRANCH  18  19
ENDBRANCH   1  18
TORSDOF 11
ENDMDL
MODEL 2
REMARK VINA RESULT:    -5.809      1.856      2.753
REMARK INTER + INTRA:         -10.168
REMARK INTER:                  -9.271
REMARK INTRA:                  -0.897
REMARK UNBOUND:                -0.793
REMARK SMILES COc1cc(CNC(=O)CCCCCCC(C)C)ccc1O
REMARK SMILES IDX 11 1 10 2 8 3 7 4 9 6 6 7 5 8 3 9 21 10 4 11 20 12 19 13
REMARK SMILES IDX 2 14 1 15 22 16 12 18 13 19 14 20 15 21 16 22 17 23 18 24
REMARK H PARENT 7 5 22 17
REMARK Flexibility Score: inf
ROOT
ATOM      1  C   UNL     1      93.828  94.700  75.910  1.00  0.00     0.010 C 
ENDROOT
BRANCH   1   2
ATOM      2  C   UNL     1      93.561  94.166  77.344  1.00  0.00     0.100 C 
BRANCH   2   3
ATOM      3  C   UNL     1      94.790  94.030  78.157  1.00  0.00     0.220 C 
ATOM      4  N   UNL     1      94.713  93.958  79.517  1.00  0.00    -0.352 N 
ATOM      5  H   UNL     1      93.780  94.048  79.891  1.00  0.00     0.163 HD
ATOM      6  O   UNL     1      95.896  93.959  77.567  1.00  0.00    -0.275 OA
BRANCH   4   7
ATOM      7  C   UNL     1      95.825  93.768  80.399  1.00  0.00     0.151 C 
BRANCH   7   8
ATOM      8  C   UNL     1      96.450  95.046  80.837  1.00  0.00    -0.025 A 
ATOM      9  C   UNL     1      98.461  96.397  81.261  1.00  0.00     0.160 A 
ATOM     10  C   UNL     1      97.650  97.493  81.629  1.00  0.00     0.157 A 
ATOM     11  C   UNL     1      97.857  95.179  80.887  1.00  0.00     0.056 A 
ATOM     12  C   UNL     1      96.249  97.361  81.621  1.00  0.00     0.050 A 
ATOM     13  C   UNL     1      95.652  96.151  81.218  1.00  0.00     0.009 A 
BRANCH   9  14
ATOM     14  O   UNL     1      99.825  96.503  81.304  1.00  0.00    -0.493 OA
ATOM     15  C   UNL     1     100.509  95.458  80.589  1.00  0.00     0.278 C 
ENDBRANCH   9  14
BRANCH  10  16
ATOM     16  O   UNL     1      98.205  98.678  81.996  1.00  0.00    -0.504 OA
ATOM     17  H   UNL     1      97.552  99.205  82.464  1.00  0.00     0.293 HD
ENDBRANCH  10  16
ENDBRANCH   7   8
ENDBRANCH   4   7
ENDBRANCH   2   3
ENDBRANCH   1   2
BRANCH   1  18
ATOM     18  C   UNL     1      92.548  94.676  75.026  1.00  0.00     0.001 C 
BRANCH  18  19
ATOM     19  C   UNL     1      91.291  94.129  75.760  1.00  0.00     0.000 C 
BRANCH  19  20
ATOM     20  C   UNL     1      90.794  92.798  75.128  1.00  0.00     0.000 C 
BRANCH  20  21
ATOM     21  C   UNL     1      91.268  91.522  75.876  1.00  0.00     0.003 C 
BRANCH  21  22
ATOM     22  C   UNL     1      90.192  90.879  76.812  1.00  0.00    -0.017 C 
ATOM     23  C   UNL     1      90.307  91.458  78.250  1.00  0.00     0.007 C 
ATOM     24  C   UNL     1      90.242  89.323  76.845  1.00  0.00     0.007 C 
ENDBRANCH  21  22
ENDBRANCH  20  21
ENDBRANCH  19  20
ENDBRANCH  18  19
ENDBRANCH   1  18
TORSDOF 11
ENDMDL
MODEL 3
REMARK VINA RESULT:    -5.752     18.734     20.668
REMARK INTER + INTRA:         -10.075
REMARK INTER:                  -9.063
REMARK INTRA:                  -1.012
REMARK UNBOUND:                -0.793
REMARK SMILES COc1cc(CNC(=O)CCCCCCC(C)C)ccc1O
REMARK SMILES IDX 11 1 10 2 8 3 7 4 9 6 6 7 5 8 3 9 21 10 4 11 20 12 19 13
REMARK SMILES IDX 2 14 1 15 22 16 12 18 13 19 14 20 15 21 16 22 17 23 18 24
REMARK H PARENT 7 5 22 17
REMARK Flexibility Score: inf
ROOT
ATOM      1  C   UNL     1      77.965  88.793  65.067  1.00  0.00     0.010 C 
ENDROOT
BRANCH   1   2
ATOM      2  C   UNL     1      76.733  89.702  64.806  1.00  0.00     0.100 C 
BRANCH   2   3
ATOM      3  C   UNL     1      77.094  91.046  64.302  1.00  0.00     0.220 C 
ATOM      4  N   UNL     1      76.553  92.163  64.870  1.00  0.00    -0.352 N 
ATOM      5  H   UNL     1      75.880  91.981  65.600  1.00  0.00     0.163 HD
ATOM      6  O   UNL     1      77.923  91.134  63.364  1.00  0.00    -0.275 OA
BRANCH   4   7
ATOM      7  C   UNL     1      76.870  93.511  64.506  1.00  0.00     0.151 C 
BRANCH   7   8
ATOM      8  C   UNL     1      77.717  94.206  65.514  1.00  0.00    -0.025 A 
ATOM      9  C   UNL     1      78.053  95.035  67.805  1.00  0.00     0.160 A 
ATOM     10  C   UNL     1      79.342  95.491  67.453  1.00  0.00     0.157 A 
ATOM     11  C   UNL     1      77.245  94.414  66.830  1.00  0.00     0.056 A 
ATOM     12  C   UNL     1      79.808  95.325  66.136  1.00  0.00     0.050 A 
ATOM     13  C   UNL     1      79.007  94.678  65.175  1.00  0.00     0.009 A 
BRANCH   9  14
ATOM     14  O   UNL     1      77.575  95.227  69.072  1.00  0.00    -0.493 OA
ATOM     15  C   UNL     1      76.407  94.444  69.376  1.00  0.00     0.278 C 
ENDBRANCH   9  14
BRANCH  10  16
ATOM     16  O   UNL     1      80.143  96.095  68.371  1.00  0.00    -0.504 OA
ATOM     17  H   UNL     1      80.563  96.861  67.973  1.00  0.00     0.293 HD
ENDBRANCH  10  16
ENDBRANCH   7   8
ENDBRANCH   4   7
ENDBRANCH   2   3
ENDBRANCH   1   2
BRANCH   1  18
ATOM     18  C   UNL     1      77.985  88.234  66.518  1.00  0.00     0.001 C 
BRANCH  18  19
ATOM     19  C   UNL     1      76.574  88.093  67.155  1.00  0.00     0.000 C 
BRANCH  19  20
ATOM     20  C   UNL     1      76.342  86.664  67.721  1.00  0.00     0.000 C 
BRANCH  20  21
ATOM     21  C   UNL     1      77.600  85.752  67.687  1.00  0.00     0.003 C 
BRANCH  21  22
ATOM     22  C   UNL     1      77.449  84.467  66.810  1.00  0.00    -0.017 C 
ATOM     23  C   UNL     1      78.103  84.679  65.416  1.00  0.00     0.007 C 
ATOM     24  C   UNL     1      75.975  83.987  66.653  1.00  0.00     0.007 C 
ENDBRANCH  21  22
ENDBRANCH  20  21
ENDBRANCH  19  20
ENDBRANCH  18  19
ENDBRANCH   1  18
TORSDOF 11
ENDMDL
MODEL 4
REMARK VINA RESULT:    -5.634     29.042     32.058
REMARK INTER + INTRA:          -9.886
REMARK INTER:                  -8.382
REMARK INTRA:                  -1.504
REMARK UNBOUND:                -0.793
REMARK SMILES COc1cc(CNC(=O)CCCCCCC(C)C)ccc1O
REMARK SMILES IDX 11 1 10 2 8 3 7 4 9 6 6 7 5 8 3 9 21 10 4 11 20 12 19 13
REMARK SMILES IDX 2 14 1 15 22 16 12 18 13 19 14 20 15 21 16 22 17 23 18 24
REMARK H PARENT 7 5 22 17
REMARK Flexibility Score: inf
ROOT
ATOM      1  C   UNL     1      62.247  83.952  71.543  1.00  0.00     0.010 C 
ENDROOT
BRANCH   1   2
ATOM      2  C   UNL     1      60.952  84.382  72.286  1.00  0.00     0.100 C 
BRANCH   2   3
ATOM      3  C   UNL     1      61.213  85.002  73.604  1.00  0.00     0.220 C 
ATOM      4  N   UNL     1      62.063  84.407  74.490  1.00  0.00    -0.352 N 
ATOM      5  H   UNL     1      62.438  83.521  74.184  1.00  0.00     0.163 HD
ATOM      6  O   UNL     1      60.657  86.095  73.876  1.00  0.00    -0.275 OA
BRANCH   4   7
ATOM      7  C   UNL     1      62.435  84.941  75.765  1.00  0.00     0.151 C 
BRANCH   7   8
ATOM      8  C   UNL     1      63.860  85.367  75.830  1.00  0.00    -0.025 A 
ATOM      9  C   UNL     1      65.750  86.293  77.102  1.00  0.00     0.160 A 
ATOM     10  C   UNL     1      66.586  86.141  75.975  1.00  0.00     0.157 A 
ATOM     11  C   UNL     1      64.391  85.923  77.016  1.00  0.00     0.056 A 
ATOM     12  C   UNL     1      66.059  85.625  74.777  1.00  0.00     0.050 A 
ATOM     13  C   UNL     1      64.709  85.230  74.707  1.00  0.00     0.009 A 
BRANCH   9  14
ATOM     14  O   UNL     1      66.242  86.831  78.260  1.00  0.00    -0.493 OA
ATOM     15  C   UNL     1      65.612  88.067  78.639  1.00  0.00     0.278 C 
ENDBRANCH   9  14
BRANCH  10  16
ATOM     16  O   UNL     1      67.898  86.490  76.029  1.00  0.00    -0.504 OA
ATOM     17  H   UNL     1      68.038  87.093  76.762  1.00  0.00     0.293 HD
ENDBRANCH  10  16
ENDBRANCH   7   8
ENDBRANCH   4   7
ENDBRANCH   2   3
ENDBRANCH   1   2
BRANCH   1  18
ATOM     18  C   UNL     1      62.340  82.409  71.371  1.00  0.00     0.001 C 
BRANCH  18  19
ATOM     19  C   UNL     1      61.422  81.614  72.341  1.00  0.00     0.000 C 
BRANCH  19  20
ATOM     20  C   UNL     1      62.241  80.927  73.470  1.00  0.00     0.000 C 
BRANCH  20  21
ATOM     21  C   UNL     1      63.781  80.995  73.272  1.00  0.00     0.003 C 
BRANCH  21  22
ATOM     22  C   UNL     1      64.617  80.622  74.539  1.00  0.00    -0.017 C 
ATOM     23  C   UNL     1      64.314  81.610  75.701  1.00  0.00     0.007 C 
ATOM     24  C   UNL     1      66.150  80.543  74.276  1.00  0.00     0.007 C 
ENDBRANCH  21  22
ENDBRANCH  20  21
ENDBRANCH  19  20
ENDBRANCH  18  19
ENDBRANCH   1  18
TORSDOF 11
ENDMDL
MODEL 5
REMARK VINA RESULT:    -5.623     12.224     14.372
REMARK INTER + INTRA:          -9.868
REMARK INTER:                  -9.252
REMARK INTRA:                  -0.616
REMARK UNBOUND:                -0.793
REMARK SMILES COc1cc(CNC(=O)CCCCCCC(C)C)ccc1O
REMARK SMILES IDX 11 1 10 2 8 3 7 4 9 6 6 7 5 8 3 9 21 10 4 11 20 12 19 13
REMARK SMILES IDX 2 14 1 15 22 16 12 18 13 19 14 20 15 21 16 22 17 23 18 24
REMARK H PARENT 7 5 22 17
REMARK Flexibility Score: inf
ROOT
ATOM      1  C   UNL     1      95.401  81.406  84.200  1.00  0.00     0.010 C 
ENDROOT
BRANCH   1   2
ATOM      2  C   UNL     1      95.895  82.863  84.414  1.00  0.00     0.100 C 
BRANCH   2   3
ATOM      3  C   UNL     1      96.990  83.250  83.497  1.00  0.00     0.220 C 
ATOM      4  N   UNL     1      97.568  82.320  82.682  1.00  0.00    -0.352 N 
ATOM      5  H   UNL     1      97.217  81.381  82.800  1.00  0.00     0.163 HD
ATOM      6  O   UNL     1      97.356  84.451  83.469  1.00  0.00    -0.275 OA
BRANCH   4   7
ATOM      7  C   UNL     1      98.590  82.589  81.717  1.00  0.00     0.151 C 
BRANCH   7   8
ATOM      8  C   UNL     1      98.083  82.618  80.317  1.00  0.00    -0.025 A 
ATOM      9  C   UNL     1      98.514  82.698  77.897  1.00  0.00     0.160 A 
ATOM     10  C   UNL     1      97.126  82.629  77.646  1.00  0.00     0.157 A 
ATOM     11  C   UNL     1      98.980  82.711  79.229  1.00  0.00     0.056 A 
ATOM     12  C   UNL     1      96.221  82.575  78.721  1.00  0.00     0.050 A 
ATOM     13  C   UNL     1      96.695  82.559  80.048  1.00  0.00     0.009 A 
BRANCH   9  14
ATOM     14  O   UNL     1      99.400  82.790  76.859  1.00  0.00    -0.493 OA
ATOM     15  C   UNL     1     100.199  81.608  76.672  1.00  0.00     0.278 C 
ENDBRANCH   9  14
BRANCH  10  16
ATOM     16  O   UNL     1      96.649  82.616  76.373  1.00  0.00    -0.504 OA
ATOM     17  H   UNL     1      95.850  83.147  76.327  1.00  0.00     0.293 HD
ENDBRANCH  10  16
ENDBRANCH   7   8
ENDBRANCH   4   7
ENDBRANCH   2   3
ENDBRANCH   1   2
BRANCH   1  18
ATOM     18  C   UNL     1      93.918  81.220  84.631  1.00  0.00     0.001 C 
BRANCH  18  19
ATOM     19  C   UNL     1      93.708  80.096  85.685  1.00  0.00     0.000 C 
BRANCH  19  20
ATOM     20  C   UNL     1      92.307  79.436  85.546  1.00  0.00     0.000 C 
BRANCH  20  21
ATOM     21  C   UNL     1      91.229  80.358  84.912  1.00  0.00     0.003 C 
BRANCH  21  22
ATOM     22  C   UNL     1      89.764  79.825  85.036  1.00  0.00    -0.017 C 
ATOM     23  C   UNL     1      89.496  78.721  83.975  1.00  0.00     0.007 C 
ATOM     24  C   UNL     1      88.682  80.942  84.945  1.00  0.00     0.007 C 
ENDBRANCH  21  22
ENDBRANCH  20  21
ENDBRANCH  19  20
ENDBRANCH  18  19
ENDBRANCH   1  18
TORSDOF 11
ENDMDL
MODEL 6
REMARK VINA RESULT:    -5.553     11.243     13.138
REMARK INTER + INTRA:          -9.755
REMARK INTER:                  -8.510
REMARK INTRA:                  -1.246
REMARK UNBOUND:                -0.793
REMARK SMILES COc1cc(CNC(=O)CCCCCCC(C)C)ccc1O
REMARK SMILES IDX 11 1 10 2 8 3 7 4 9 6 6 7 5 8 3 9 21 10 4 11 20 12 19 13
REMARK SMILES IDX 2 14 1 15 22 16 12 18 13 19 14 20 15 21 16 22 17 23 18 24
REMARK H PARENT 7 5 22 17
REMARK Flexibility Score: inf
ROOT
ATOM      1  C   UNL     1      96.831  81.623  78.319  1.00  0.00     0.010 C 
ENDROOT
BRANCH   1   2
ATOM      2  C   UNL     1      98.059  80.958  79.000  1.00  0.00     0.100 C 
BRANCH   2   3
ATOM      3  C   UNL     1      97.845  80.669  80.436  1.00  0.00     0.220 C 
ATOM      4  N   UNL     1      97.129  81.531  81.214  1.00  0.00    -0.352 N 
ATOM      5  H   UNL     1      96.818  82.366  80.740  1.00  0.00     0.163 HD
ATOM      6  O   UNL     1      98.314  79.606  80.912  1.00  0.00    -0.275 OA
BRANCH   4   7
ATOM      7  C   UNL     1      96.810  81.328  82.595  1.00  0.00     0.151 C 
BRANCH   7   8
ATOM      8  C   UNL     1      96.505  82.593  83.318  1.00  0.00    -0.025 A 
ATOM      9  C   UNL     1      95.401  83.772  85.173  1.00  0.00     0.160 A 
ATOM     10  C   UNL     1      95.954  84.993  84.729  1.00  0.00     0.157 A 
ATOM     11  C   UNL     1      95.665  82.587  84.455  1.00  0.00     0.056 A 
ATOM     12  C   UNL     1      96.760  85.018  83.577  1.00  0.00     0.050 A 
ATOM     13  C   UNL     1      97.043  83.826  82.881  1.00  0.00     0.009 A 
BRANCH   9  14
ATOM     14  O   UNL     1      94.583  83.742  86.270  1.00  0.00    -0.493 OA
ATOM     15  C   UNL     1      93.209  83.449  85.961  1.00  0.00     0.278 C 
ENDBRANCH   9  14
BRANCH  10  16
ATOM     16  O   UNL     1      95.716  86.150  85.400  1.00  0.00    -0.504 OA
ATOM     17  H   UNL     1      96.031  86.067  86.303  1.00  0.00     0.293 HD
ENDBRANCH  10  16
ENDBRANCH   7   8
ENDBRANCH   4   7
ENDBRANCH   2   3
ENDBRANCH   1   2
BRANCH   1  18
ATOM     18  C   UNL     1      97.046  83.144  78.078  1.00  0.00     0.001 C 
BRANCH  18  19
ATOM     19  C   UNL     1      97.054  83.546  76.576  1.00  0.00     0.000 C 
BRANCH  19  20
ATOM     20  C   UNL     1      97.444  82.348  75.666  1.00  0.00     0.000 C 
BRANCH  20  21
ATOM     21  C   UNL     1      98.776  82.544  74.891  1.00  0.00     0.003 C 
BRANCH  21  22
ATOM     22  C   UNL     1      99.955  81.645  75.388  1.00  0.00    -0.017 C 
ATOM     23  C   UNL     1      99.453  80.203  75.683  1.00  0.00     0.007 C 
ATOM     24  C   UNL     1     100.706  82.224  76.623  1.00  0.00     0.007 C 
ENDBRANCH  21  22
ENDBRANCH  20  21
ENDBRANCH  19  20
ENDBRANCH  18  19
ENDBRANCH   1  18
TORSDOF 11
ENDMDL
MODEL 7
REMARK VINA RESULT:    -5.533     29.185     32.072
REMARK INTER + INTRA:          -9.723
REMARK INTER:                  -8.134
REMARK INTRA:                  -1.589
REMARK UNBOUND:                -0.793
REMARK SMILES COc1cc(CNC(=O)CCCCCCC(C)C)ccc1O
REMARK SMILES IDX 11 1 10 2 8 3 7 4 9 6 6 7 5 8 3 9 21 10 4 11 20 12 19 13
REMARK SMILES IDX 2 14 1 15 22 16 12 18 13 19 14 20 15 21 16 22 17 23 18 24
REMARK H PARENT 7 5 22 17
REMARK Flexibility Score: inf
ROOT
ATOM      1  C   UNL     1      62.191  83.451  71.446  1.00  0.00     0.010 C 
ENDROOT
BRANCH   1   2
ATOM      2  C   UNL     1      60.957  83.916  72.268  1.00  0.00     0.100 C 
BRANCH   2   3
ATOM      3  C   UNL     1      61.248  85.055  73.166  1.00  0.00     0.220 C 
ATOM      4  N   UNL     1      61.780  84.839  74.404  1.00  0.00    -0.352 N 
ATOM      5  H   UNL     1      61.904  83.867  74.645  1.00  0.00     0.163 HD
ATOM      6  O   UNL     1      61.018  86.219  72.756  1.00  0.00    -0.275 OA
BRANCH   4   7
ATOM      7  C   UNL     1      62.155  85.862  75.333  1.00  0.00     0.151 C 
BRANCH   7   8
ATOM      8  C   UNL     1      63.628  85.971  75.522  1.00  0.00    -0.025 A 
ATOM      9  C   UNL     1      65.875  86.323  74.586  1.00  0.00     0.160 A 
ATOM     10  C   UNL     1      66.431  86.225  75.880  1.00  0.00     0.157 A 
ATOM     11  C   UNL     1      64.482  86.177  74.415  1.00  0.00     0.056 A 
ATOM     12  C   UNL     1      65.596  85.981  76.985  1.00  0.00     0.050 A 
ATOM     13  C   UNL     1      64.203  85.865  76.810  1.00  0.00     0.009 A 
BRANCH   9  14
ATOM     14  O   UNL     1      66.683  86.521  73.500  1.00  0.00    -0.493 OA
ATOM     15  C   UNL     1      65.973  86.923  72.315  1.00  0.00     0.278 C 
ENDBRANCH   9  14
BRANCH  10  16
ATOM     16  O   UNL     1      67.770  86.359  76.075  1.00  0.00    -0.504 OA
ATOM     17  H   UNL     1      68.047  87.234  75.793  1.00  0.00     0.293 HD
ENDBRANCH  10  16
ENDBRANCH   7   8
ENDBRANCH   4   7
ENDBRANCH   2   3
ENDBRANCH   1   2
BRANCH   1  18
ATOM     18  C   UNL     1      62.494  81.939  71.646  1.00  0.00     0.001 C 
BRANCH  18  19
ATOM     19  C   UNL     1      61.819  81.326  72.905  1.00  0.00     0.000 C 
BRANCH  19  20
ATOM     20  C   UNL     1      62.858  80.634  73.832  1.00  0.00     0.000 C 
BRANCH  20  21
ATOM     21  C   UNL     1      64.274  80.494  73.208  1.00  0.00     0.003 C 
BRANCH  21  22
ATOM     22  C   UNL     1      65.376  81.368  73.892  1.00  0.00    -0.017 C 
ATOM     23  C   UNL     1      66.398  80.466  74.640  1.00  0.00     0.007 C 
ATOM     24  C   UNL     1      64.806  82.456  74.849  1.00  0.00     0.007 C 
ENDBRANCH  21  22
ENDBRANCH  20  21
ENDBRANCH  19  20
ENDBRANCH  18  19
ENDBRANCH   1  18
TORSDOF 11
ENDMDL
MODEL 8
REMARK VINA RESULT:    -5.321     20.931     22.503
REMARK INTER + INTRA:          -9.381
REMARK INTER:                  -8.356
REMARK INTRA:                  -1.025
REMARK UNBOUND:                -0.793
REMARK SMILES COc1cc(CNC(=O)CCCCCCC(C)C)ccc1O
REMARK SMILES IDX 11 1 10 2 8 3 7 4 9 6 6 7 5 8 3 9 21 10 4 11 20 12 19 13
REMARK SMILES IDX 2 14 1 15 22 16 12 18 13 19 14 20 15 21 16 22 17 23 18 24
REMARK H PARENT 7 5 22 17
REMARK Flexibility Score: inf
ROOT
ATOM      1  C   UNL     1      75.707  83.916  67.630  1.00  0.00     0.010 C 
ENDROOT
BRANCH   1   2
ATOM      2  C   UNL     1      75.179  84.697  68.865  1.00  0.00     0.100 C 
BRANCH   2   3
ATOM      3  C   UNL     1      74.217  85.766  68.513  1.00  0.00     0.220 C 
ATOM      4  N   UNL     1      74.643  87.053  68.360  1.00  0.00    -0.352 N 
ATOM      5  H   UNL     1      75.625  87.197  68.547  1.00  0.00     0.163 HD
ATOM      6  O   UNL     1      73.013  85.458  68.338  1.00  0.00    -0.275 OA
BRANCH   4   7
ATOM      7  C   UNL     1      73.819  88.155  67.966  1.00  0.00     0.151 C 
BRANCH   7   8
ATOM      8  C   UNL     1      73.812  89.266  68.957  1.00  0.00    -0.025 A 
ATOM      9  C   UNL     1      74.743  91.387  69.785  1.00  0.00     0.160 A 
ATOM     10  C   UNL     1      73.778  91.410  70.815  1.00  0.00     0.157 A 
ATOM     11  C   UNL     1      74.765  90.307  68.876  1.00  0.00     0.056 A 
ATOM     12  C   UNL     1      72.849  90.360  70.929  1.00  0.00     0.050 A 
ATOM     13  C   UNL     1      72.858  89.301  70.001  1.00  0.00     0.009 A 
BRANCH   9  14
ATOM     14  O   UNL     1      75.676  92.383  69.689  1.00  0.00    -0.493 OA
ATOM     15  C   UNL     1      75.539  93.194  68.508  1.00  0.00     0.278 C 
ENDBRANCH   9  14
BRANCH  10  16
ATOM     16  O   UNL     1      73.735  92.437  71.705  1.00  0.00    -0.504 OA
ATOM     17  H   UNL     1      74.547  92.946  71.645  1.00  0.00     0.293 HD
ENDBRANCH  10  16
ENDBRANCH   7   8
ENDBRANCH   4   7
ENDBRANCH   2   3
ENDBRANCH   1   2
BRANCH   1  18
ATOM     18  C   UNL     1      77.177  84.289  67.285  1.00  0.00     0.001 C 
BRANCH  18  19
ATOM     19  C   UNL     1      77.488  84.270  65.762  1.00  0.00     0.000 C 
BRANCH  19  20
ATOM     20  C   UNL     1      78.429  85.438  65.356  1.00  0.00     0.000 C 
BRANCH  20  21
ATOM     21  C   UNL     1      77.698  86.659  64.731  1.00  0.00     0.003 C 
BRANCH  21  22
ATOM     22  C   UNL     1      78.003  88.026  65.427  1.00  0.00    -0.017 C 
ATOM     23  C   UNL     1      77.944  87.874  66.973  1.00  0.00     0.007 C 
ATOM     24  C   UNL     1      77.078  89.187  64.957  1.00  0.00     0.007 C 
ENDBRANCH  21  22
ENDBRANCH  20  21
ENDBRANCH  19  20
ENDBRANCH  18  19
ENDBRANCH   1  18
TORSDOF 11
ENDMDL
MODEL 9
REMARK VINA RESULT:    -5.240     12.269     14.358
REMARK INTER + INTRA:          -9.251
REMARK INTER:                  -8.491
REMARK INTRA:                  -0.759
REMARK UNBOUND:                -0.793
REMARK SMILES COc1cc(CNC(=O)CCCCCCC(C)C)ccc1O
REMARK SMILES IDX 11 1 10 2 8 3 7 4 9 6 6 7 5 8 3 9 21 10 4 11 20 12 19 13
REMARK SMILES IDX 2 14 1 15 22 16 12 18 13 19 14 20 15 21 16 22 17 23 18 24
REMARK H PARENT 7 5 22 17
REMARK Flexibility Score: inf
ROOT
ATOM      1  C   UNL     1      95.554  81.192  84.160  1.00  0.00     0.010 C 
ENDROOT
BRANCH   1   2
ATOM      2  C   UNL     1      95.893  82.702  84.299  1.00  0.00     0.100 C 
BRANCH   2   3
ATOM      3  C   UNL     1      96.985  83.142  83.402  1.00  0.00     0.220 C 
ATOM      4  N   UNL     1      97.531  82.272  82.503  1.00  0.00    -0.352 N 
ATOM      5  H   UNL     1      97.161  81.334  82.547  1.00  0.00     0.163 HD
ATOM      6  O   UNL     1      97.378  84.332  83.470  1.00  0.00    -0.275 OA
BRANCH   4   7
ATOM      7  C   UNL     1      98.548  82.599  81.550  1.00  0.00     0.151 C 
BRANCH   7   8
ATOM      8  C   UNL     1      98.055  82.603  80.145  1.00  0.00    -0.025 A 
ATOM      9  C   UNL     1      98.505  82.728  77.731  1.00  0.00     0.160 A 
ATOM     10  C   UNL     1      97.128  82.568  77.463  1.00  0.00     0.157 A 
ATOM     11  C   UNL     1      98.955  82.763  79.067  1.00  0.00     0.056 A 
ATOM     12  C   UNL     1      96.217  82.447  78.528  1.00  0.00     0.050 A 
ATOM     13  C   UNL     1      96.677  82.454  79.860  1.00  0.00     0.009 A 
BRANCH   9  14
ATOM     14  O   UNL     1      99.395  82.887  76.703  1.00  0.00    -0.493 OA
ATOM     15  C   UNL     1     100.117  81.687  76.372  1.00  0.00     0.278 C 
ENDBRANCH   9  14
BRANCH  10  16
ATOM     16  O   UNL     1      96.666  82.533  76.185  1.00  0.00    -0.504 OA
ATOM     17  H   UNL     1      96.625  83.426  75.836  1.00  0.00     0.293 HD
ENDBRANCH  10  16
ENDBRANCH   7   8
ENDBRANCH   4   7
ENDBRANCH   2   3
ENDBRANCH   1   2
BRANCH   1  18
ATOM     18  C   UNL     1      94.190  80.834  84.816  1.00  0.00     0.001 C 
BRANCH  18  19
ATOM     19  C   UNL     1      93.326  82.074  85.181  1.00  0.00     0.000 C 
BRANCH  19  20
ATOM     20  C   UNL     1      93.180  82.235  86.721  1.00  0.00     0.000 C 
BRANCH  20  21
ATOM     21  C   UNL     1      93.270  83.704  87.219  1.00  0.00     0.003 C 
BRANCH  21  22
ATOM     22  C   UNL     1      92.146  84.121  88.223  1.00  0.00    -0.017 C 
ATOM     23  C   UNL     1      90.746  83.765  87.649  1.00  0.00     0.007 C 
ATOM     24  C   UNL     1      92.201  85.621  88.635  1.00  0.00     0.007 C 
ENDBRANCH  21  22
ENDBRANCH  20  21
ENDBRANCH  19  20
ENDBRANCH  18  19
ENDBRANCH   1  18
TORSDOF 11
ENDMDL
MODEL 10
REMARK VINA RESULT:    -5.146      6.155      9.028
REMARK INTER + INTRA:          -9.099
REMARK INTER:                  -8.376
REMARK INTRA:                  -0.723
REMARK UNBOUND:                -0.793
REMARK SMILES COc1cc(CNC(=O)CCCCCCC(C)C)ccc1O
REMARK SMILES IDX 11 1 10 2 8 3 7 4 9 6 6 7 5 8 3 9 21 10 4 11 20 12 19 13
REMARK SMILES IDX 2 14 1 15 22 16 12 18 13 19 14 20 15 21 16 22 17 23 18 24
REMARK H PARENT 7 5 22 17
REMARK Flexibility Score: inf
ROOT
ATOM      1  C   UNL     1      94.765  96.719  74.435  1.00  0.00     0.010 C 
ENDROOT
BRANCH   1   2
ATOM      2  C   UNL     1      94.015  97.973  73.909  1.00  0.00     0.100 C 
BRANCH   2   3
ATOM      3  C   UNL     1      94.095  98.130  72.439  1.00  0.00     0.220 C 
ATOM      4  N   UNL     1      95.219  97.748  71.766  1.00  0.00    -0.352 N 
ATOM      5  H   UNL     1      95.967  97.409  72.353  1.00  0.00     0.163 HD
ATOM      6  O   UNL     1      93.102  98.596  71.828  1.00  0.00    -0.275 OA
BRANCH   4   7
ATOM      7  C   UNL     1      95.388  97.798  70.345  1.00  0.00     0.151 C 
BRANCH   7   8
ATOM      8  C   UNL     1      96.683  97.222  69.888  1.00  0.00    -0.025 A 
ATOM      9  C   UNL     1      98.550  97.185  68.287  1.00  0.00     0.160 A 
ATOM     10  C   UNL     1      99.173  96.161  69.034  1.00  0.00     0.157 A 
ATOM     11  C   UNL     1      97.303  97.693  68.708  1.00  0.00     0.056 A 
ATOM     12  C   UNL     1      98.547  95.657  70.189  1.00  0.00     0.050 A 
ATOM     13  C   UNL     1      97.316  96.190  70.620  1.00  0.00     0.009 A 
BRANCH   9  14
ATOM     14  O   UNL     1      99.131  97.655  67.141  1.00  0.00    -0.493 OA
ATOM     15  C   UNL     1      99.228  99.090  67.086  1.00  0.00     0.278 C 
ENDBRANCH   9  14
BRANCH  10  16
ATOM     16  O   UNL     1     100.373  95.651  68.651  1.00  0.00    -0.504 OA
ATOM     17  H   UNL     1     100.588  94.894  69.201  1.00  0.00     0.293 HD
ENDBRANCH  10  16
ENDBRANCH   7   8
ENDBRANCH   4   7
ENDBRANCH   2   3
ENDBRANCH   1   2
BRANCH   1  18
ATOM     18  C   UNL     1      93.790  95.576  74.837  1.00  0.00     0.001 C 
BRANCH  18  19
ATOM     19  C   UNL     1      94.231  94.792  76.104  1.00  0.00     0.000 C 
BRANCH  19  20
ATOM     20  C   UNL     1      93.027  94.495  77.042  1.00  0.00     0.000 C 
BRANCH  20  21
ATOM     21  C   UNL     1      92.338  93.128  76.780  1.00  0.00     0.003 C 
BRANCH  21  22
ATOM     22  C   UNL     1      90.806  93.219  76.479  1.00  0.00    -0.017 C 
ATOM     23  C   UNL     1      90.375  94.701  76.296  1.00  0.00     0.007 C 
ATOM     24  C   UNL     1      89.916  92.521  77.550  1.00  0.00     0.007 C 
ENDBRANCH  21  22
ENDBRANCH  20  21
ENDBRANCH  19  20
ENDBRANCH  18  19
ENDBRANCH   1  18
TORSDOF 11
ENDMDL
