MODEL 1
REMARK VINA RESULT:    -6.501      0.000      0.000
REMARK INTER + INTRA:         -10.772
REMARK INTER:                 -10.112
REMARK INTRA:                  -0.661
REMARK UNBOUND:                -0.661
REMARK SMILES CCCCC/C=C/C(=O)CCc1ccc(O)c(OC)c1
REMARK SMILES IDX 6 1 7 2 8 3 9 4 10 5 11 6 12 7 17 8 20 9 15 10 14 11 13 12
REMARK SMILES IDX 18 13 19 14 16 15 5 17 4 18 3 19 2 20 1 21
REMARK H PARENT 16 16
REMARK Flexibility Score: inf
ROOT
ATOM      1  C   UNL     1      94.008  96.549  75.336  1.00  0.00    -0.023 C 
ATOM      2  C   UNL     1      93.824  96.623  76.660  1.00  0.00     0.043 C 
ENDROOT
BRANCH   2   3
ATOM      3  C   UNL     1      92.803  95.762  77.316  1.00  0.00     0.155 C 
ATOM      4  O   UNL     1      93.100  94.966  78.205  1.00  0.00    -0.295 OA
BRANCH   3   5
ATOM      5  C   UNL     1      91.384  95.880  76.796  1.00  0.00     0.085 C 
BRANCH   5   6
ATOM      6  C   UNL     1      90.534  94.682  77.225  1.00  0.00     0.044 C 
BRANCH   6   7
ATOM      7  C   UNL     1      90.392  93.643  76.138  1.00  0.00    -0.044 A 
ATOM      8  C   UNL     1      89.736  91.441  75.447  1.00  0.00     0.160 A 
ATOM      9  C   UNL     1      89.867  92.400  76.451  1.00  0.00     0.054 A 
ATOM     10  C   UNL     1      90.132  91.737  74.143  1.00  0.00     0.157 A 
ATOM     11  C   UNL     1      90.660  92.994  73.843  1.00  0.00     0.050 A 
ATOM     12  C   UNL     1      90.791  93.953  74.848  1.00  0.00     0.008 A 
BRANCH   8  13
ATOM     13  O   UNL     1      89.220  90.218  75.752  1.00  0.00    -0.493 OA
ATOM     14  C   UNL     1      90.148  89.186  76.082  1.00  0.00     0.278 C 
ENDBRANCH   8  13
BRANCH  10  15
ATOM     15  O   UNL     1      90.009  90.810  73.153  1.00  0.00    -0.504 OA
ATOM     16  H   UNL     1      90.604  91.058  72.426  1.00  0.00     0.293 HD
ENDBRANCH  10  15
ENDBRANCH   6   7
ENDBRANCH   5   6
ENDBRANCH   3   5
ENDBRANCH   2   3
BRANCH   1  17
ATOM     17  C   UNL     1      95.015  97.383  74.599  1.00  0.00     0.027 C 
BRANCH  17  18
ATOM     18  C   UNL     1      94.713  97.509  73.102  1.00  0.00     0.004 C 
BRANCH  18  19
ATOM     19  C   UNL     1      95.863  97.045  72.203  1.00  0.00     0.000 C 
BRANCH  19  20
ATOM     20  C   UNL     1      95.614  97.431  70.744  1.00  0.00    -0.003 C 
ATOM     21  C   UNL     1      96.899  97.406  69.933  1.00  0.00     0.004 C 
ENDBRANCH  19  20
ENDBRANCH  18  19
ENDBRANCH  17  18
ENDBRANCH   1  17
TORSDOF 10
ENDMDL
MODEL 2
REMARK VINA RESULT:    -6.472     29.094     32.785
REMARK INTER + INTRA:         -10.727
REMARK INTER:                  -9.740
REMARK INTRA:                  -0.987
REMARK UNBOUND:                -0.661
REMARK SMILES CCCCC/C=C/C(=O)CCc1ccc(O)c(OC)c1
REMARK SMILES IDX 6 1 7 2 8 3 9 4 10 5 11 6 12 7 17 8 20 9 15 10 14 11 13 12
REMARK SMILES IDX 18 13 19 14 16 15 5 17 4 18 3 19 2 20 1 21
REMARK H PARENT 16 16
REMARK Flexibility Score: inf
ROOT
ATOM      1  C   UNL     1      78.054  63.671  67.405  1.00  0.00    -0.023 C 
ATOM      2  C   UNL     1      78.284  63.324  68.678  1.00  0.00     0.043 C 
ENDROOT
BRANCH   2   3
ATOM      3  C   UNL     1      79.522  63.788  69.361  1.00  0.00     0.155 C 
ATOM      4  O   UNL     1      80.412  63.007  69.693  1.00  0.00    -0.295 OA
BRANCH   3   5
ATOM      5  C   UNL     1      79.608  65.269  69.674  1.00  0.00     0.085 C 
BRANCH   5   6
ATOM      6  C   UNL     1      79.386  65.536  71.163  1.00  0.00     0.044 C 
BRANCH   6   7
ATOM      7  C   UNL     1      80.613  66.083  71.851  1.00  0.00    -0.044 A 
ATOM      8  C   UNL     1      82.952  66.621  71.804  1.00  0.00     0.160 A 
ATOM      9  C   UNL     1      81.818  66.114  71.168  1.00  0.00     0.054 A 
ATOM     10  C   UNL     1      82.866  67.089  73.115  1.00  0.00     0.157 A 
ATOM     11  C   UNL     1      81.645  67.051  73.790  1.00  0.00     0.050 A 
ATOM     12  C   UNL     1      80.512  66.544  73.154  1.00  0.00     0.008 A 
BRANCH   8  13
ATOM     13  O   UNL     1      84.138  66.652  71.134  1.00  0.00    -0.493 OA
ATOM     14  C   UNL     1      84.903  65.449  71.114  1.00  0.00     0.278 C 
ENDBRANCH   8  13
BRANCH  10  15
ATOM     15  O   UNL     1      83.965  67.586  73.746  1.00  0.00    -0.504 OA
ATOM     16  H   UNL     1      84.485  68.094  73.100  1.00  0.00     0.293 HD
ENDBRANCH  10  15
ENDBRANCH   6   7
ENDBRANCH   5   6
ENDBRANCH   3   5
ENDBRANCH   2   3
BRANCH   1  17
ATOM     17  C   UNL     1      76.831  63.244  66.647  1.00  0.00     0.027 C 
BRANCH  17  18
ATOM     18  C   UNL     1      75.567  63.213  67.512  1.00  0.00     0.004 C 
BRANCH  18  19
ATOM     19  C   UNL     1      74.589  64.354  67.212  1.00  0.00     0.000 C 
BRANCH  19  20
ATOM     20  C   UNL     1      74.306  65.182  68.466  1.00  0.00    -0.003 C 
ATOM     21  C   UNL     1      75.554  65.902  68.951  1.00  0.00     0.004 C 
ENDBRANCH  19  20
ENDBRANCH  18  19
ENDBRANCH  17  18
ENDBRANCH   1  17
TORSDOF 10
ENDMDL
MODEL 3
REMARK VINA RESULT:    -6.313      4.357      8.917
REMARK INTER + INTRA:         -10.479
REMARK INTER:                  -9.896
REMARK INTRA:                  -0.583
REMARK UNBOUND:                -0.661
REMARK SMILES CCCCC/C=C/C(=O)CCc1ccc(O)c(OC)c1
REMARK SMILES IDX 6 1 7 2 8 3 9 4 10 5 11 6 12 7 17 8 20 9 15 10 14 11 13 12
REMARK SMILES IDX 18 13 19 14 16 15 5 17 4 18 3 19 2 20 1 21
REMARK H PARENT 16 16
REMARK Flexibility Score: inf
ROOT
ATOM      1  C   UNL     1      90.997  95.198  76.882  1.00  0.00    -0.023 C 
ATOM      2  C   UNL     1      92.020  94.681  77.574  1.00  0.00     0.043 C 
ENDROOT
BRANCH   2   3
ATOM      3  C   UNL     1      93.223  95.511  77.851  1.00  0.00     0.155 C 
ATOM      4  O   UNL     1      93.349  96.645  77.393  1.00  0.00    -0.295 OA
BRANCH   3   5
ATOM      5  C   UNL     1      94.313  94.865  78.684  1.00  0.00     0.085 C 
BRANCH   5   6
ATOM      6  C   UNL     1      95.647  95.595  78.516  1.00  0.00     0.044 C 
BRANCH   6   7
ATOM      7  C   UNL     1      96.045  96.380  79.744  1.00  0.00    -0.044 A 
ATOM      8  C   UNL     1      96.127  98.457  80.942  1.00  0.00     0.160 A 
ATOM      9  C   UNL     1      95.759  97.734  79.808  1.00  0.00     0.054 A 
ATOM     10  C   UNL     1      96.777  97.818  81.997  1.00  0.00     0.157 A 
ATOM     11  C   UNL     1      97.059  96.454  81.918  1.00  0.00     0.050 A 
ATOM     12  C   UNL     1      96.691  95.730  80.783  1.00  0.00     0.008 A 
BRANCH   8  13
ATOM     13  O   UNL     1      95.845  99.789  81.007  1.00  0.00    -0.493 OA
ATOM     14  C   UNL     1      96.677 100.665  80.249  1.00  0.00     0.278 C 
ENDBRANCH   8  13
BRANCH  10  15
ATOM     15  O   UNL     1      97.141  98.513  83.110  1.00  0.00    -0.504 OA
ATOM     16  H   UNL     1      96.561  99.290  83.188  1.00  0.00     0.293 HD
ENDBRANCH  10  15
ENDBRANCH   6   7
ENDBRANCH   5   6
ENDBRANCH   3   5
ENDBRANCH   2   3
BRANCH   1  17
ATOM     17  C   UNL     1      89.749  94.427  76.562  1.00  0.00     0.027 C 
BRANCH  17  18
ATOM     18  C   UNL     1      89.938  92.910  76.662  1.00  0.00     0.004 C 
BRANCH  18  19
ATOM     19  C   UNL     1      90.237  92.238  75.318  1.00  0.00     0.000 C 
BRANCH  19  20
ATOM     20  C   UNL     1      89.633  90.835  75.255  1.00  0.00    -0.003 C 
ATOM     21  C   UNL     1      90.340  89.969  74.225  1.00  0.00     0.004 C 
ENDBRANCH  19  20
ENDBRANCH  18  19
ENDBRANCH  17  18
ENDBRANCH   1  17
TORSDOF 10
ENDMDL
MODEL 4
REMARK VINA RESULT:    -6.273      3.803      8.022
REMARK INTER + INTRA:         -10.418
REMARK INTER:                  -9.630
REMARK INTRA:                  -0.788
REMARK UNBOUND:                -0.661
REMARK SMILES CCCCC/C=C/C(=O)CCc1ccc(O)c(OC)c1
REMARK SMILES IDX 6 1 7 2 8 3 9 4 10 5 11 6 12 7 17 8 20 9 15 10 14 11 13 12
REMARK SMILES IDX 18 13 19 14 16 15 5 17 4 18 3 19 2 20 1 21
REMARK H PARENT 16 16
REMARK Flexibility Score: inf
ROOT
ATOM      1  C   UNL     1      90.749  95.537  76.821  1.00  0.00    -0.023 C 
ATOM      2  C   UNL     1      92.017  95.422  76.407  1.00  0.00     0.043 C 
ENDROOT
BRANCH   2   3
ATOM      3  C   UNL     1      93.000  96.494  76.720  1.00  0.00     0.155 C 
ATOM      4  O   UNL     1      92.647  97.600  77.125  1.00  0.00    -0.295 OA
BRANCH   3   5
ATOM      5  C   UNL     1      94.459  96.171  76.462  1.00  0.00     0.085 C 
BRANCH   5   6
ATOM      6  C   UNL     1      94.862  94.855  77.130  1.00  0.00     0.044 C 
BRANCH   6   7
ATOM      7  C   UNL     1      95.289  95.034  78.568  1.00  0.00    -0.044 A 
ATOM      8  C   UNL     1      96.636  96.154  80.208  1.00  0.00     0.160 A 
ATOM      9  C   UNL     1      96.243  95.989  78.879  1.00  0.00     0.054 A 
ATOM     10  C   UNL     1      96.072  95.361  81.206  1.00  0.00     0.157 A 
ATOM     11  C   UNL     1      95.113  94.402  80.876  1.00  0.00     0.050 A 
ATOM     12  C   UNL     1      94.719  94.237  79.548  1.00  0.00     0.008 A 
BRANCH   8  13
ATOM     13  O   UNL     1      97.573  97.093  80.517  1.00  0.00    -0.493 OA
ATOM     14  C   UNL     1      98.941  96.706  80.403  1.00  0.00     0.278 C 
ENDBRANCH   8  13
BRANCH  10  15
ATOM     15  O   UNL     1      96.447  95.512  82.507  1.00  0.00    -0.504 OA
ATOM     16  H   UNL     1      95.974  94.850  83.040  1.00  0.00     0.293 HD
ENDBRANCH  10  15
ENDBRANCH   6   7
ENDBRANCH   5   6
ENDBRANCH   3   5
ENDBRANCH   2   3
BRANCH   1  17
ATOM     17  C   UNL     1      89.698  94.501  76.547  1.00  0.00     0.027 C 
BRANCH  17  18
ATOM     18  C   UNL     1      90.202  93.067  76.744  1.00  0.00     0.004 C 
BRANCH  18  19
ATOM     19  C   UNL     1      90.202  92.234  75.459  1.00  0.00     0.000 C 
BRANCH  19  20
ATOM     20  C   UNL     1      89.481  90.901  75.664  1.00  0.00    -0.003 C 
ATOM     21  C   UNL     1      88.958  90.342  74.351  1.00  0.00     0.004 C 
ENDBRANCH  19  20
ENDBRANCH  18  19
ENDBRANCH  17  18
ENDBRANCH   1  17
TORSDOF 10
ENDMDL
MODEL 5
REMARK VINA RESULT:    -6.194      4.035      8.374
REMARK INTER + INTRA:         -10.295
REMARK INTER:                  -9.757
REMARK INTRA:                  -0.538
REMARK UNBOUND:                -0.661
REMARK SMILES CCCCC/C=C/C(=O)CCc1ccc(O)c(OC)c1
REMARK SMILES IDX 6 1 7 2 8 3 9 4 10 5 11 6 12 7 17 8 20 9 15 10 14 11 13 12
REMARK SMILES IDX 18 13 19 14 16 15 5 17 4 18 3 19 2 20 1 21
REMARK H PARENT 16 16
REMARK Flexibility Score: inf
ROOT
ATOM      1  C   UNL     1      90.731  94.744  75.771  1.00  0.00    -0.023 C 
ATOM      2  C   UNL     1      92.045  94.706  76.025  1.00  0.00     0.043 C 
ENDROOT
BRANCH   2   3
ATOM      3  C   UNL     1      92.633  95.633  77.031  1.00  0.00     0.155 C 
ATOM      4  O   UNL     1      92.354  96.830  77.051  1.00  0.00    -0.295 OA
BRANCH   3   5
ATOM      5  C   UNL     1      93.634  95.033  77.998  1.00  0.00     0.085 C 
BRANCH   5   6
ATOM      6  C   UNL     1      95.041  95.580  77.752  1.00  0.00     0.044 C 
BRANCH   6   7
ATOM      7  C   UNL     1      95.530  96.469  78.870  1.00  0.00    -0.044 A 
ATOM      8  C   UNL     1      96.725  96.740  80.934  1.00  0.00     0.160 A 
ATOM      9  C   UNL     1      96.273  95.917  79.901  1.00  0.00     0.054 A 
ATOM     10  C   UNL     1      96.427  98.102  80.922  1.00  0.00     0.157 A 
ATOM     11  C   UNL     1      95.677  98.643  79.877  1.00  0.00     0.050 A 
ATOM     12  C   UNL     1      95.225  97.820  78.845  1.00  0.00     0.008 A 
BRANCH   8  13
ATOM     13  O   UNL     1      97.456  96.199  81.948  1.00  0.00    -0.493 OA
ATOM     14  C   UNL     1      96.936  95.025  82.569  1.00  0.00     0.278 C 
ENDBRANCH   8  13
BRANCH  10  15
ATOM     15  O   UNL     1      96.863  98.915  81.924  1.00  0.00    -0.504 OA
ATOM     16  H   UNL     1      97.784  99.164  81.736  1.00  0.00     0.293 HD
ENDBRANCH  10  15
ENDBRANCH   6   7
ENDBRANCH   5   6
ENDBRANCH   3   5
ENDBRANCH   2   3
BRANCH   1  17
ATOM     17  C   UNL     1      90.063  93.844  74.772  1.00  0.00     0.027 C 
BRANCH  17  18
ATOM     18  C   UNL     1      90.632  92.421  74.768  1.00  0.00     0.004 C 
BRANCH  18  19
ATOM     19  C   UNL     1      89.655  91.371  74.230  1.00  0.00     0.000 C 
BRANCH  19  20
ATOM     20  C   UNL     1      89.402  90.272  75.263  1.00  0.00    -0.003 C 
ATOM     21  C   UNL     1      90.129  88.988  74.899  1.00  0.00     0.004 C 
ENDBRANCH  19  20
ENDBRANCH  18  19
ENDBRANCH  17  18
ENDBRANCH   1  17
TORSDOF 10
ENDMDL
MODEL 6
REMARK VINA RESULT:    -6.061      3.431      7.610
REMARK INTER + INTRA:         -10.087
REMARK INTER:                  -9.103
REMARK INTRA:                  -0.984
REMARK UNBOUND:                -0.661
REMARK SMILES CCCCC/C=C/C(=O)CCc1ccc(O)c(OC)c1
REMARK SMILES IDX 6 1 7 2 8 3 9 4 10 5 11 6 12 7 17 8 20 9 15 10 14 11 13 12
REMARK SMILES IDX 18 13 19 14 16 15 5 17 4 18 3 19 2 20 1 21
REMARK H PARENT 16 16
REMARK Flexibility Score: inf
ROOT
ATOM      1  C   UNL     1      92.929  96.752  77.368  1.00  0.00    -0.023 C 
ATOM      2  C   UNL     1      94.023  96.215  77.924  1.00  0.00     0.043 C 
ENDROOT
BRANCH   2   3
ATOM      3  C   UNL     1      95.131  97.097  78.380  1.00  0.00     0.155 C 
ATOM      4  O   UNL     1      95.116  97.639  79.484  1.00  0.00    -0.295 OA
BRANCH   3   5
ATOM      5  C   UNL     1      96.256  97.336  77.393  1.00  0.00     0.085 C 
BRANCH   5   6
ATOM      6  C   UNL     1      95.909  98.460  76.415  1.00  0.00     0.044 C 
BRANCH   6   7
ATOM      7  C   UNL     1      95.938  98.014  74.972  1.00  0.00    -0.044 A 
ATOM      8  C   UNL     1      97.112  97.806  72.890  1.00  0.00     0.160 A 
ATOM      9  C   UNL     1      97.085  98.219  74.222  1.00  0.00     0.054 A 
ATOM     10  C   UNL     1      95.993  97.195  72.325  1.00  0.00     0.157 A 
ATOM     11  C   UNL     1      94.845  96.996  73.094  1.00  0.00     0.050 A 
ATOM     12  C   UNL     1      94.818  97.409  74.426  1.00  0.00     0.008 A 
BRANCH   8  13
ATOM     13  O   UNL     1      98.238  98.006  72.149  1.00  0.00    -0.493 OA
ATOM     14  C   UNL     1      99.430  98.339  72.859  1.00  0.00     0.278 C 
ENDBRANCH   8  13
BRANCH  10  15
ATOM     15  O   UNL     1      96.007  96.788  71.026  1.00  0.00    -0.504 OA
ATOM     16  H   UNL     1      96.929  96.787  70.716  1.00  0.00     0.293 HD
ENDBRANCH  10  15
ENDBRANCH   6   7
ENDBRANCH   5   6
ENDBRANCH   3   5
ENDBRANCH   2   3
BRANCH   1  17
ATOM     17  C   UNL     1      91.770  95.932  76.882  1.00  0.00     0.027 C 
BRANCH  17  18
ATOM     18  C   UNL     1      91.618  94.602  77.628  1.00  0.00     0.004 C 
BRANCH  18  19
ATOM     19  C   UNL     1      90.335  93.843  77.276  1.00  0.00     0.000 C 
BRANCH  19  20
ATOM     20  C   UNL     1      89.993  93.995  75.793  1.00  0.00    -0.003 C 
ATOM     21  C   UNL     1      90.713  92.957  74.947  1.00  0.00     0.004 C 
ENDBRANCH  19  20
ENDBRANCH  18  19
ENDBRANCH  17  18
ENDBRANCH   1  17
TORSDOF 10
ENDMDL
MODEL 7
REMARK VINA RESULT:    -5.870     16.384     19.527
REMARK INTER + INTRA:          -9.791
REMARK INTER:                  -9.332
REMARK INTRA:                  -0.459
REMARK UNBOUND:                -0.661
REMARK SMILES CCCCC/C=C/C(=O)CCc1ccc(O)c(OC)c1
REMARK SMILES IDX 6 1 7 2 8 3 9 4 10 5 11 6 12 7 17 8 20 9 15 10 14 11 13 12
REMARK SMILES IDX 18 13 19 14 16 15 5 17 4 18 3 19 2 20 1 21
REMARK H PARENT 16 16
REMARK Flexibility Score: inf
ROOT
ATOM      1  C   UNL     1      90.226  73.798  81.646  1.00  0.00    -0.023 C 
ATOM      2  C   UNL     1      91.108  74.400  82.454  1.00  0.00     0.043 C 
ENDROOT
BRANCH   2   3
ATOM      3  C   UNL     1      90.655  74.977  83.748  1.00  0.00     0.155 C 
ATOM      4  O   UNL     1      90.165  74.279  84.634  1.00  0.00    -0.295 OA
BRANCH   3   5
ATOM      5  C   UNL     1      90.780  76.480  83.899  1.00  0.00     0.085 C 
BRANCH   5   6
ATOM      6  C   UNL     1      89.463  77.103  84.365  1.00  0.00     0.044 C 
BRANCH   6   7
ATOM      7  C   UNL     1      89.463  78.611  84.277  1.00  0.00    -0.044 A 
ATOM      8  C   UNL     1      88.260  80.687  84.260  1.00  0.00     0.160 A 
ATOM      9  C   UNL     1      88.259  79.295  84.341  1.00  0.00     0.054 A 
ATOM     10  C   UNL     1      89.463  81.378  84.117  1.00  0.00     0.157 A 
ATOM     11  C   UNL     1      90.667  80.675  84.054  1.00  0.00     0.050 A 
ATOM     12  C   UNL     1      90.666  79.282  84.135  1.00  0.00     0.008 A 
BRANCH   8  13
ATOM     13  O   UNL     1      87.078  81.362  84.322  1.00  0.00    -0.493 OA
ATOM     14  C   UNL     1      86.525  81.817  83.088  1.00  0.00     0.278 C 
ENDBRANCH   8  13
BRANCH  10  15
ATOM     15  O   UNL     1      89.476  82.737  84.037  1.00  0.00    -0.504 OA
ATOM     16  H   UNL     1      90.218  83.002  83.467  1.00  0.00     0.293 HD
ENDBRANCH  10  15
ENDBRANCH   6   7
ENDBRANCH   5   6
ENDBRANCH   3   5
ENDBRANCH   2   3
BRANCH   1  17
ATOM     17  C   UNL     1      90.604  73.192  80.325  1.00  0.00     0.027 C 
BRANCH  17  18
ATOM     18  C   UNL     1      90.060  73.977  79.126  1.00  0.00     0.004 C 
BRANCH  18  19
ATOM     19  C   UNL     1      90.827  75.272  78.842  1.00  0.00     0.000 C 
BRANCH  19  20
ATOM     20  C   UNL     1      90.500  75.812  77.449  1.00  0.00    -0.003 C 
ATOM     21  C   UNL     1      91.324  77.048  77.123  1.00  0.00     0.004 C 
ENDBRANCH  19  20
ENDBRANCH  18  19
ENDBRANCH  17  18
ENDBRANCH   1  17
TORSDOF 10
ENDMDL
MODEL 8
REMARK VINA RESULT:    -5.844     11.573     13.781
REMARK INTER + INTRA:          -9.750
REMARK INTER:                  -9.056
REMARK INTRA:                  -0.695
REMARK UNBOUND:                -0.661
REMARK SMILES CCCCC/C=C/C(=O)CCc1ccc(O)c(OC)c1
REMARK SMILES IDX 6 1 7 2 8 3 9 4 10 5 11 6 12 7 17 8 20 9 15 10 14 11 13 12
REMARK SMILES IDX 18 13 19 14 16 15 5 17 4 18 3 19 2 20 1 21
REMARK H PARENT 16 16
REMARK Flexibility Score: inf
ROOT
ATOM      1  C   UNL     1      99.055  83.797  75.853  1.00  0.00    -0.023 C 
ATOM      2  C   UNL     1      98.189  83.186  76.672  1.00  0.00     0.043 C 
ENDROOT
BRANCH   2   3
ATOM      3  C   UNL     1      96.908  83.853  77.028  1.00  0.00     0.155 C 
ATOM      4  O   UNL     1      96.342  84.626  76.257  1.00  0.00    -0.295 OA
BRANCH   3   5
ATOM      5  C   UNL     1      96.361  83.572  78.414  1.00  0.00     0.085 C 
BRANCH   5   6
ATOM      6  C   UNL     1      97.487  83.460  79.443  1.00  0.00     0.044 C 
BRANCH   6   7
ATOM      7  C   UNL     1      97.080  82.693  80.678  1.00  0.00    -0.044 A 
ATOM      8  C   UNL     1      96.195  82.672  82.909  1.00  0.00     0.160 A 
ATOM      9  C   UNL     1      96.571  83.381  81.768  1.00  0.00     0.054 A 
ATOM     10  C   UNL     1      96.332  81.285  82.945  1.00  0.00     0.157 A 
ATOM     11  C   UNL     1      96.846  80.606  81.840  1.00  0.00     0.050 A 
ATOM     12  C   UNL     1      97.222  81.315  80.699  1.00  0.00     0.008 A 
BRANCH   8  13
ATOM     13  O   UNL     1      95.695  83.346  83.982  1.00  0.00    -0.493 OA
ATOM     14  C   UNL     1      96.619  84.103  84.761  1.00  0.00     0.278 C 
ENDBRANCH   8  13
BRANCH  10  15
ATOM     15  O   UNL     1      95.967  80.581  84.053  1.00  0.00    -0.504 OA
ATOM     16  H   UNL     1      95.910  81.199  84.802  1.00  0.00     0.293 HD
ENDBRANCH  10  15
ENDBRANCH   6   7
ENDBRANCH   5   6
ENDBRANCH   3   5
ENDBRANCH   2   3
BRANCH   1  17
ATOM     17  C   UNL     1     100.367  83.191  75.446  1.00  0.00     0.027 C 
BRANCH  17  18
ATOM     18  C   UNL     1     101.057  83.957  74.313  1.00  0.00     0.004 C 
BRANCH  18  19
ATOM     19  C   UNL     1     100.481  83.653  72.927  1.00  0.00     0.000 C 
BRANCH  19  20
ATOM     20  C   UNL     1      99.471  84.721  72.503  1.00  0.00    -0.003 C 
ATOM     21  C   UNL     1      99.837  86.087  73.061  1.00  0.00     0.004 C 
ENDBRANCH  19  20
ENDBRANCH  18  19
ENDBRANCH  17  18
ENDBRANCH   1  17
TORSDOF 10
ENDMDL
MODEL 9
REMARK VINA RESULT:    -5.727      1.983      2.799
REMARK INTER + INTRA:          -9.569
REMARK INTER:                  -8.844
REMARK INTRA:                  -0.725
REMARK UNBOUND:                -0.661
REMARK SMILES CCCCC/C=C/C(=O)CCc1ccc(O)c(OC)c1
REMARK SMILES IDX 6 1 7 2 8 3 9 4 10 5 11 6 12 7 17 8 20 9 15 10 14 11 13 12
REMARK SMILES IDX 18 13 19 14 16 15 5 17 4 18 3 19 2 20 1 21
REMARK H PARENT 16 16
REMARK Flexibility Score: inf
ROOT
ATOM      1  C   UNL     1      96.191  97.997  76.122  1.00  0.00    -0.023 C 
ATOM      2  C   UNL     1      96.023  98.483  77.358  1.00  0.00     0.043 C 
ENDROOT
BRANCH   2   3
ATOM      3  C   UNL     1      95.252  97.703  78.364  1.00  0.00     0.155 C 
ATOM      4  O   UNL     1      95.737  97.384  79.448  1.00  0.00    -0.295 OA
BRANCH   3   5
ATOM      5  C   UNL     1      93.855  97.275  77.961  1.00  0.00     0.085 C 
BRANCH   5   6
ATOM      6  C   UNL     1      93.693  95.756  78.043  1.00  0.00     0.044 C 
BRANCH   6   7
ATOM      7  C   UNL     1      92.690  95.218  77.051  1.00  0.00    -0.044 A 
ATOM      8  C   UNL     1      90.661  94.019  76.596  1.00  0.00     0.160 A 
ATOM      9  C   UNL     1      91.588  94.515  77.513  1.00  0.00     0.054 A 
ATOM     10  C   UNL     1      90.848  94.230  75.231  1.00  0.00     0.157 A 
ATOM     11  C   UNL     1      91.963  94.939  74.781  1.00  0.00     0.050 A 
ATOM     12  C   UNL     1      92.890  95.435  75.698  1.00  0.00     0.008 A 
BRANCH   8  13
ATOM     13  O   UNL     1      89.577  93.328  77.048  1.00  0.00    -0.493 OA
ATOM     14  C   UNL     1      89.682  91.906  77.081  1.00  0.00     0.278 C 
ENDBRANCH   8  13
BRANCH  10  15
ATOM     15  O   UNL     1      89.950  93.750  74.326  1.00  0.00    -0.504 OA
ATOM     16  H   UNL     1      89.104  93.607  74.783  1.00  0.00     0.293 HD
ENDBRANCH  10  15
ENDBRANCH   6   7
ENDBRANCH   5   6
ENDBRANCH   3   5
ENDBRANCH   2   3
BRANCH   1  17
ATOM     17  C   UNL     1      96.954  98.723  75.052  1.00  0.00     0.027 C 
BRANCH  17  18
ATOM     18  C   UNL     1      96.997  97.961  73.723  1.00  0.00     0.004 C 
BRANCH  18  19
ATOM     19  C   UNL     1      95.826  98.288  72.790  1.00  0.00     0.000 C 
BRANCH  19  20
ATOM     20  C   UNL     1      95.502  97.105  71.876  1.00  0.00    -0.003 C 
ATOM     21  C   UNL     1      95.791  97.432  70.420  1.00  0.00     0.004 C 
ENDBRANCH  19  20
ENDBRANCH  18  19
ENDBRANCH  17  18
ENDBRANCH   1  17
TORSDOF 10
ENDMDL
MODEL 10
REMARK VINA RESULT:    -5.680      1.214      2.148
REMARK INTER + INTRA:          -9.495
REMARK INTER:                  -9.366
REMARK INTRA:                  -0.129
REMARK UNBOUND:                -0.661
REMARK SMILES CCCCC/C=C/C(=O)CCc1ccc(O)c(OC)c1
REMARK SMILES IDX 6 1 7 2 8 3 9 4 10 5 11 6 12 7 17 8 20 9 15 10 14 11 13 12
REMARK SMILES IDX 18 13 19 14 16 15 5 17 4 18 3 19 2 20 1 21
REMARK H PARENT 16 16
REMARK Flexibility Score: inf
ROOT
ATOM      1  C   UNL     1      95.184  97.425  76.313  1.00  0.00    -0.023 C 
ATOM      2  C   UNL     1      94.140  97.432  77.151  1.00  0.00     0.043 C 
ENDROOT
BRANCH   2   3
ATOM      3  C   UNL     1      93.290  96.218  77.286  1.00  0.00     0.155 C 
ATOM      4  O   UNL     1      93.276  95.547  78.316  1.00  0.00    -0.295 OA
BRANCH   3   5
ATOM      5  C   UNL     1      92.480  95.821  76.068  1.00  0.00     0.085 C 
BRANCH   5   6
ATOM      6  C   UNL     1      91.016  95.568  76.432  1.00  0.00     0.044 C 
BRANCH   6   7
ATOM      7  C   UNL     1      90.630  94.111  76.337  1.00  0.00    -0.044 A 
ATOM      8  C   UNL     1      90.441  92.095  75.049  1.00  0.00     0.160 A 
ATOM      9  C   UNL     1      90.797  93.441  75.135  1.00  0.00     0.054 A 
ATOM     10  C   UNL     1      89.923  91.437  76.164  1.00  0.00     0.157 A 
ATOM     11  C   UNL     1      89.761  92.126  77.367  1.00  0.00     0.050 A 
ATOM     12  C   UNL     1      90.117  93.472  77.453  1.00  0.00     0.008 A 
BRANCH   8  13
ATOM     13  O   UNL     1      90.603  91.434  73.869  1.00  0.00    -0.493 OA
ATOM     14  C   UNL     1      89.480  90.711  73.370  1.00  0.00     0.278 C 
ENDBRANCH   8  13
BRANCH  10  15
ATOM     15  O   UNL     1      89.572  90.123  76.092  1.00  0.00    -0.504 OA
ATOM     16  H   UNL     1      88.679  90.025  76.464  1.00  0.00     0.293 HD
ENDBRANCH  10  15
ENDBRANCH   6   7
ENDBRANCH   5   6
ENDBRANCH   3   5
ENDBRANCH   2   3
BRANCH   1  17
ATOM     17  C   UNL     1      96.089  98.608  76.120  1.00  0.00     0.027 C 
BRANCH  17  18
ATOM     18  C   UNL     1      96.720  98.661  74.725  1.00  0.00     0.004 C 
BRANCH  18  19
ATOM     19  C   UNL     1      95.723  99.006  73.613  1.00  0.00     0.000 C 
BRANCH  19  20
ATOM     20  C   UNL     1      95.427  97.786  72.740  1.00  0.00    -0.003 C 
ATOM     21  C   UNL     1      96.627  97.405  71.888  1.00  0.00     0.004 C 
ENDBRANCH  19  20
ENDBRANCH  18  19
ENDBRANCH  17  18
ENDBRANCH   1  17
TORSDOF 10
ENDMDL
