MODEL 1
REMARK VINA RESULT:    -8.063      0.000      0.000
REMARK INTER + INTRA:          -9.862
REMARK INTER:                  -9.477
REMARK INTRA:                  -0.384
REMARK UNBOUND:                -0.384
REMARK SMILES O=C(/C=C/C=C/c1ccc2c(c1)OCO2)N1CCCCC1
REMARK SMILES IDX 3 1 4 2 2 3 1 4 16 5 17 6 21 7 18 8 20 9 19 10 5 11 6 12
REMARK SMILES IDX 7 13 12 14 8 15 11 16 9 17 13 18 10 19 14 20 15 21
REMARK H PARENT
REMARK Flexibility Score: inf
ROOT
ATOM      1  C   UNL     1      90.971  91.999  75.769  1.00  0.00     0.071 C 
ATOM      2  C   UNL     1      90.981  92.618  76.948  1.00  0.00     0.006 C 
ENDROOT
BRANCH   1   3
ATOM      3  C   UNL     1      89.724  91.334  75.344  1.00  0.00     0.246 C 
ATOM      4  O   UNL     1      88.784  91.325  76.140  1.00  0.00    -0.270 OA
ATOM      5  N   UNL     1      89.695  90.756  74.076  1.00  0.00    -0.339 N 
ATOM      6  C   UNL     1      88.472  90.083  73.628  1.00  0.00     0.120 C 
ATOM      7  C   UNL     1      90.809  90.707  73.118  1.00  0.00     0.120 C 
ATOM      8  C   UNL     1      88.008  90.613  72.275  1.00  0.00     0.022 C 
ATOM      9  C   UNL     1      90.382  91.227  71.745  1.00  0.00     0.022 C 
ATOM     10  C   UNL     1      89.126  90.523  71.241  1.00  0.00     0.004 C 
ENDBRANCH   1   3
BRANCH   2  11
ATOM     11  C   UNL     1      92.156  93.297  77.451  1.00  0.00     0.001 C 
ATOM     12  C   UNL     1      93.212  93.592  76.676  1.00  0.00     0.008 C 
BRANCH  12  13
ATOM     13  C   UNL     1      94.434  94.273  77.137  1.00  0.00    -0.022 A 
ATOM     14  C   UNL     1      94.678  94.375  78.499  1.00  0.00     0.058 A 
ATOM     15  C   UNL     1      95.314  94.800  76.188  1.00  0.00     0.012 A 
ATOM     16  C   UNL     1      95.835  95.021  78.882  1.00  0.00     0.166 A 
ATOM     17  C   UNL     1      96.479  95.449  76.603  1.00  0.00     0.051 A 
ATOM     18  O   UNL     1      96.250  95.223  80.162  1.00  0.00    -0.454 OA
ATOM     19  C   UNL     1      96.712  95.544  77.959  1.00  0.00     0.165 A 
ATOM     20  C   UNL     1      97.487  95.932  79.942  1.00  0.00     0.468 C 
ATOM     21  O   UNL     1      97.786  96.139  78.546  1.00  0.00    -0.454 OA
ENDBRANCH  12  13
ENDBRANCH   2  11
TORSDOF 3
ENDMDL
MODEL 2
REMARK VINA RESULT:    -7.755      2.693      9.162
REMARK INTER + INTRA:          -9.499
REMARK INTER:                  -9.131
REMARK INTRA:                  -0.368
REMARK UNBOUND:                -0.384
REMARK SMILES O=C(/C=C/C=C/c1ccc2c(c1)OCO2)N1CCCCC1
REMARK SMILES IDX 3 1 4 2 2 3 1 4 16 5 17 6 21 7 18 8 20 9 19 10 5 11 6 12
REMARK SMILES IDX 7 13 12 14 8 15 11 16 9 17 13 18 10 19 14 20 15 21
REMARK H PARENT
REMARK Flexibility Score: inf
ROOT
ATOM      1  C   UNL     1      94.787  94.100  76.174  1.00  0.00     0.071 C 
ATOM      2  C   UNL     1      93.555  94.597  76.085  1.00  0.00     0.006 C 
ENDROOT
BRANCH   1   3
ATOM      3  C   UNL     1      95.884  95.021  76.531  1.00  0.00     0.246 C 
ATOM      4  O   UNL     1      96.412  95.658  75.620  1.00  0.00    -0.270 OA
ATOM      5  N   UNL     1      96.252  95.103  77.874  1.00  0.00    -0.339 N 
ATOM      6  C   UNL     1      97.342  96.005  78.259  1.00  0.00     0.120 C 
ATOM      7  C   UNL     1      95.676  94.326  78.981  1.00  0.00     0.120 C 
ATOM      8  C   UNL     1      96.915  96.948  79.378  1.00  0.00     0.022 C 
ATOM      9  C   UNL     1      95.239  95.238  80.128  1.00  0.00     0.022 C 
ATOM     10  C   UNL     1      96.364  96.169  80.569  1.00  0.00     0.004 C 
ENDBRANCH   1   3
BRANCH   2  11
ATOM     11  C   UNL     1      92.416  93.774  75.740  1.00  0.00     0.001 C 
ATOM     12  C   UNL     1      92.346  93.073  74.597  1.00  0.00     0.008 C 
BRANCH  12  13
ATOM     13  C   UNL     1      91.209  92.227  74.194  1.00  0.00    -0.022 A 
ATOM     14  C   UNL     1      90.231  92.761  73.365  1.00  0.00     0.058 A 
ATOM     15  C   UNL     1      91.147  90.910  74.656  1.00  0.00     0.012 A 
ATOM     16  C   UNL     1      89.187  91.930  73.015  1.00  0.00     0.166 A 
ATOM     17  C   UNL     1      90.078  90.091  74.285  1.00  0.00     0.051 A 
ATOM     18  O   UNL     1      88.135  92.263  72.217  1.00  0.00    -0.454 OA
ATOM     19  C   UNL     1      89.112  90.631  73.462  1.00  0.00     0.165 A 
ATOM     20  C   UNL     1      87.391  91.028  72.213  1.00  0.00     0.468 C 
ATOM     21  O   UNL     1      88.005  89.988  73.001  1.00  0.00    -0.454 OA
ENDBRANCH  12  13
ENDBRANCH   2  11
TORSDOF 3
ENDMDL
MODEL 3
REMARK VINA RESULT:    -7.741      1.719      2.104
REMARK INTER + INTRA:          -9.483
REMARK INTER:                  -9.101
REMARK INTRA:                  -0.381
REMARK UNBOUND:                -0.384
REMARK SMILES O=C(/C=C/C=C/c1ccc2c(c1)OCO2)N1CCCCC1
REMARK SMILES IDX 3 1 4 2 2 3 1 4 16 5 17 6 21 7 18 8 20 9 19 10 5 11 6 12
REMARK SMILES IDX 7 13 12 14 8 15 11 16 9 17 13 18 10 19 14 20 15 21
REMARK H PARENT
REMARK Flexibility Score: inf
ROOT
ATOM      1  C   UNL     1      91.784  92.872  74.971  1.00  0.00     0.071 C 
ATOM      2  C   UNL     1      91.790  93.891  75.828  1.00  0.00     0.006 C 
ENDROOT
BRANCH   1   3
ATOM      3  C   UNL     1      90.479  92.373  74.495  1.00  0.00     0.246 C 
ATOM      4  O   UNL     1      89.879  93.054  73.662  1.00  0.00    -0.270 OA
ATOM      5  N   UNL     1      90.011  91.170  75.021  1.00  0.00    -0.339 N 
ATOM      6  C   UNL     1      88.716  90.652  74.571  1.00  0.00     0.120 C 
ATOM      7  C   UNL     1      90.677  90.353  76.047  1.00  0.00     0.120 C 
ATOM      8  C   UNL     1      88.831  89.211  74.084  1.00  0.00     0.022 C 
ATOM      9  C   UNL     1      90.808  88.898  75.597  1.00  0.00     0.022 C 
ATOM     10  C   UNL     1      89.467  88.324  75.149  1.00  0.00     0.004 C 
ENDBRANCH   1   3
BRANCH   2  11
ATOM     11  C   UNL     1      93.019  94.449  76.352  1.00  0.00     0.001 C 
ATOM     12  C   UNL     1      93.616  93.979  77.459  1.00  0.00     0.008 C 
BRANCH  12  13
ATOM     13  C   UNL     1      94.860  94.514  78.039  1.00  0.00    -0.022 A 
ATOM     14  C   UNL     1      95.105  94.336  79.394  1.00  0.00     0.058 A 
ATOM     15  C   UNL     1      95.760  95.186  77.208  1.00  0.00     0.012 A 
ATOM     16  C   UNL     1      96.284  94.853  79.890  1.00  0.00     0.166 A 
ATOM     17  C   UNL     1      96.946  95.700  77.738  1.00  0.00     0.051 A 
ATOM     18  O   UNL     1      96.703  94.785  81.184  1.00  0.00    -0.454 OA
ATOM     19  C   UNL     1      97.180  95.517  79.084  1.00  0.00     0.165 A 
ATOM     20  C   UNL     1      97.964  95.480  81.101  1.00  0.00     0.468 C 
ATOM     21  O   UNL     1      98.273  95.948  79.772  1.00  0.00    -0.454 OA
ENDBRANCH  12  13
ENDBRANCH   2  11
TORSDOF 3
ENDMDL
MODEL 4
REMARK VINA RESULT:    -7.203      6.377      7.338
REMARK INTER + INTRA:          -8.851
REMARK INTER:                  -8.475
REMARK INTRA:                  -0.376
REMARK UNBOUND:                -0.384
REMARK SMILES O=C(/C=C/C=C/c1ccc2c(c1)OCO2)N1CCCCC1
REMARK SMILES IDX 3 1 4 2 2 3 1 4 16 5 17 6 21 7 18 8 20 9 19 10 5 11 6 12
REMARK SMILES IDX 7 13 12 14 8 15 11 16 9 17 13 18 10 19 14 20 15 21
REMARK H PARENT
REMARK Flexibility Score: inf
ROOT
ATOM      1  C   UNL     1      92.599  98.556  70.426  1.00  0.00     0.071 C 
ATOM      2  C   UNL     1      93.877  98.741  70.750  1.00  0.00     0.006 C 
ENDROOT
BRANCH   1   3
ATOM      3  C   UNL     1      92.042  99.352  69.314  1.00  0.00     0.246 C 
ATOM      4  O   UNL     1      92.532 100.463  69.109  1.00  0.00    -0.270 OA
ATOM      5  N   UNL     1      90.998  98.797  68.576  1.00  0.00    -0.339 N 
ATOM      6  C   UNL     1      90.421  99.566  67.470  1.00  0.00     0.120 C 
ATOM      7  C   UNL     1      90.358  97.495  68.820  1.00  0.00     0.120 C 
ATOM      8  C   UNL     1      90.401  98.755  66.179  1.00  0.00     0.022 C 
ATOM      9  C   UNL     1      90.315  96.653  67.545  1.00  0.00     0.022 C 
ATOM     10  C   UNL     1      89.692  97.420  66.382  1.00  0.00     0.004 C 
ENDBRANCH   1   3
BRANCH   2  11
ATOM     11  C   UNL     1      94.512  98.008  71.825  1.00  0.00     0.001 C 
ATOM     12  C   UNL     1      93.935  97.832  73.024  1.00  0.00     0.008 C 
BRANCH  12  13
ATOM     13  C   UNL     1      94.539  97.104  74.153  1.00  0.00    -0.022 A 
ATOM     14  C   UNL     1      93.920  95.954  74.624  1.00  0.00     0.058 A 
ATOM     15  C   UNL     1      95.720  97.591  74.720  1.00  0.00     0.012 A 
ATOM     16  C   UNL     1      94.523  95.306  75.682  1.00  0.00     0.166 A 
ATOM     17  C   UNL     1      96.309  96.915  75.790  1.00  0.00     0.051 A 
ATOM     18  O   UNL     1      94.074  94.171  76.284  1.00  0.00    -0.454 OA
ATOM     19  C   UNL     1      95.686  95.774  76.250  1.00  0.00     0.165 A 
ATOM     20  C   UNL     1      95.084  93.976  77.294  1.00  0.00     0.468 C 
ATOM     21  O   UNL     1      96.111  94.990  77.278  1.00  0.00    -0.454 OA
ENDBRANCH  12  13
ENDBRANCH   2  11
TORSDOF 3
ENDMDL
MODEL 5
REMARK VINA RESULT:    -7.181      3.460      8.828
REMARK INTER + INTRA:          -8.825
REMARK INTER:                  -8.481
REMARK INTRA:                  -0.344
REMARK UNBOUND:                -0.384
REMARK SMILES O=C(/C=C/C=C/c1ccc2c(c1)OCO2)N1CCCCC1
REMARK SMILES IDX 3 1 4 2 2 3 1 4 16 5 17 6 21 7 18 8 20 9 19 10 5 11 6 12
REMARK SMILES IDX 7 13 12 14 8 15 11 16 9 17 13 18 10 19 14 20 15 21
REMARK H PARENT
REMARK Flexibility Score: inf
ROOT
ATOM      1  C   UNL     1      94.633  94.800  75.342  1.00  0.00     0.071 C 
ATOM      2  C   UNL     1      93.374  94.577  74.970  1.00  0.00     0.006 C 
ENDROOT
BRANCH   1   3
ATOM      3  C   UNL     1      95.148  96.181  75.255  1.00  0.00     0.246 C 
ATOM      4  O   UNL     1      94.593  96.947  74.467  1.00  0.00    -0.270 OA
ATOM      5  N   UNL     1      96.229  96.523  76.066  1.00  0.00    -0.339 N 
ATOM      6  C   UNL     1      96.767  97.885  75.997  1.00  0.00     0.120 C 
ATOM      7  C   UNL     1      96.946  95.625  76.984  1.00  0.00     0.120 C 
ATOM      8  C   UNL     1      96.845  98.523  77.380  1.00  0.00     0.022 C 
ATOM      9  C   UNL     1      97.049  96.232  78.383  1.00  0.00     0.022 C 
ATOM     10  C   UNL     1      97.632  97.641  78.345  1.00  0.00     0.004 C 
ENDBRANCH   1   3
BRANCH   2  11
ATOM     11  C   UNL     1      92.779  93.258  75.020  1.00  0.00     0.001 C 
ATOM     12  C   UNL     1      91.927  92.881  75.986  1.00  0.00     0.008 C 
BRANCH  12  13
ATOM     13  C   UNL     1      91.301  91.552  76.088  1.00  0.00    -0.022 A 
ATOM     14  C   UNL     1      91.424  90.663  75.028  1.00  0.00     0.058 A 
ATOM     15  C   UNL     1      90.599  91.221  77.250  1.00  0.00     0.012 A 
ATOM     16  C   UNL     1      90.821  89.431  75.171  1.00  0.00     0.166 A 
ATOM     17  C   UNL     1      89.998  89.966  77.368  1.00  0.00     0.051 A 
ATOM     18  O   UNL     1      90.827  88.428  74.250  1.00  0.00    -0.454 OA
ATOM     19  C   UNL     1      90.127  89.091  76.310  1.00  0.00     0.165 A 
ATOM     20  C   UNL     1      90.059  87.419  74.937  1.00  0.00     0.468 C 
ATOM     21  O   UNL     1      89.611  87.833  76.245  1.00  0.00    -0.454 OA
ENDBRANCH  12  13
ENDBRANCH   2  11
TORSDOF 3
ENDMDL
MODEL 6
REMARK VINA RESULT:    -7.036      3.290      8.549
REMARK INTER + INTRA:          -8.655
REMARK INTER:                  -8.259
REMARK INTRA:                  -0.396
REMARK UNBOUND:                -0.384
REMARK SMILES O=C(/C=C/C=C/c1ccc2c(c1)OCO2)N1CCCCC1
REMARK SMILES IDX 3 1 4 2 2 3 1 4 16 5 17 6 21 7 18 8 20 9 19 10 5 11 6 12
REMARK SMILES IDX 7 13 12 14 8 15 11 16 9 17 13 18 10 19 14 20 15 21
REMARK H PARENT
REMARK Flexibility Score: inf
ROOT
ATOM      1  C   UNL     1      95.884  95.768  75.779  1.00  0.00     0.071 C 
ATOM      2  C   UNL     1      95.679  94.945  76.806  1.00  0.00     0.006 C 
ENDROOT
BRANCH   1   3
ATOM      3  C   UNL     1      97.186  96.458  75.690  1.00  0.00     0.246 C 
ATOM      4  O   UNL     1      97.796  96.659  76.741  1.00  0.00    -0.270 OA
ATOM      5  N   UNL     1      97.635  96.840  74.427  1.00  0.00    -0.339 N 
ATOM      6  C   UNL     1      98.922  97.531  74.308  1.00  0.00     0.120 C 
ATOM      7  C   UNL     1      96.915  96.657  73.158  1.00  0.00     0.120 C 
ATOM      8  C   UNL     1      99.833  96.843  73.297  1.00  0.00     0.022 C 
ATOM      9  C   UNL     1      97.798  95.972  72.115  1.00  0.00     0.022 C 
ATOM     10  C   UNL     1      99.136  96.689  71.949  1.00  0.00     0.004 C 
ENDBRANCH   1   3
BRANCH   2  11
ATOM     11  C   UNL     1      94.436  94.225  76.978  1.00  0.00     0.001 C 
ATOM     12  C   UNL     1      93.715  93.762  75.944  1.00  0.00     0.008 C 
BRANCH  12  13
ATOM     13  C   UNL     1      92.441  93.032  76.063  1.00  0.00    -0.022 A 
ATOM     14  C   UNL     1      91.975  92.306  74.975  1.00  0.00     0.058 A 
ATOM     15  C   UNL     1      91.737  93.089  77.268  1.00  0.00     0.012 A 
ATOM     16  C   UNL     1      90.779  91.638  75.134  1.00  0.00     0.166 A 
ATOM     17  C   UNL     1      90.527  92.403  77.401  1.00  0.00     0.051 A 
ATOM     18  O   UNL     1      90.157  90.877  74.191  1.00  0.00    -0.454 OA
ATOM     19  C   UNL     1      90.073  91.685  76.315  1.00  0.00     0.165 A 
ATOM     20  C   UNL     1      88.983  90.452  74.912  1.00  0.00     0.468 C 
ATOM     21  O   UNL     1      88.923  90.961  76.260  1.00  0.00    -0.454 OA
ENDBRANCH  12  13
ENDBRANCH   2  11
TORSDOF 3
ENDMDL
MODEL 7
REMARK VINA RESULT:    -7.012      3.044      9.103
REMARK INTER + INTRA:          -8.626
REMARK INTER:                  -8.226
REMARK INTRA:                  -0.400
REMARK UNBOUND:                -0.384
REMARK SMILES O=C(/C=C/C=C/c1ccc2c(c1)OCO2)N1CCCCC1
REMARK SMILES IDX 3 1 4 2 2 3 1 4 16 5 17 6 21 7 18 8 20 9 19 10 5 11 6 12
REMARK SMILES IDX 7 13 12 14 8 15 11 16 9 17 13 18 10 19 14 20 15 21
REMARK H PARENT
REMARK Flexibility Score: inf
ROOT
ATOM      1  C   UNL     1      95.697  95.048  76.098  1.00  0.00     0.071 C 
ATOM      2  C   UNL     1      94.595  95.505  75.507  1.00  0.00     0.006 C 
ENDROOT
BRANCH   1   3
ATOM      3  C   UNL     1      96.877  95.934  76.149  1.00  0.00     0.246 C 
ATOM      4  O   UNL     1      97.310  96.366  75.080  1.00  0.00    -0.270 OA
ATOM      5  N   UNL     1      97.424  96.217  77.399  1.00  0.00    -0.339 N 
ATOM      6  C   UNL     1      98.599  97.090  77.481  1.00  0.00     0.120 C 
ATOM      7  C   UNL     1      96.963  95.685  78.690  1.00  0.00     0.120 C 
ATOM      8  C   UNL     1      98.373  98.239  78.458  1.00  0.00     0.022 C 
ATOM      9  C   UNL     1      96.728  96.808  79.700  1.00  0.00     0.022 C 
ATOM     10  C   UNL     1      97.948  97.717  79.826  1.00  0.00     0.004 C 
ENDBRANCH   1   3
BRANCH   2  11
ATOM     11  C   UNL     1      93.389  94.710  75.408  1.00  0.00     0.001 C 
ATOM     12  C   UNL     1      93.004  93.851  76.365  1.00  0.00     0.008 C 
BRANCH  12  13
ATOM     13  C   UNL     1      91.794  93.014  76.312  1.00  0.00    -0.022 A 
ATOM     14  C   UNL     1      91.343  92.556  75.082  1.00  0.00     0.058 A 
ATOM     15  C   UNL     1      91.132  92.704  77.503  1.00  0.00     0.012 A 
ATOM     16  C   UNL     1      90.206  91.775  75.083  1.00  0.00     0.166 A 
ATOM     17  C   UNL     1      89.982  91.912  77.475  1.00  0.00     0.051 A 
ATOM     18  O   UNL     1      89.608  91.234  73.986  1.00  0.00    -0.454 OA
ATOM     19  C   UNL     1      89.543  91.461  76.247  1.00  0.00     0.165 A 
ATOM     20  C   UNL     1      88.495  90.544  74.591  1.00  0.00     0.468 C 
ATOM     21  O   UNL     1      88.448  90.684  76.026  1.00  0.00    -0.454 OA
ENDBRANCH  12  13
ENDBRANCH   2  11
TORSDOF 3
ENDMDL
MODEL 8
REMARK VINA RESULT:    -6.993     12.540     14.095
REMARK INTER + INTRA:          -8.604
REMARK INTER:                  -8.226
REMARK INTRA:                  -0.378
REMARK UNBOUND:                -0.384
REMARK SMILES O=C(/C=C/C=C/c1ccc2c(c1)OCO2)N1CCCCC1
REMARK SMILES IDX 3 1 4 2 2 3 1 4 16 5 17 6 21 7 18 8 20 9 19 10 5 11 6 12
REMARK SMILES IDX 7 13 12 14 8 15 11 16 9 17 13 18 10 19 14 20 15 21
REMARK H PARENT
REMARK Flexibility Score: inf
ROOT
ATOM      1  C   UNL     1      96.026  82.993  83.958  1.00  0.00     0.071 C 
ATOM      2  C   UNL     1      96.404  81.875  83.342  1.00  0.00     0.006 C 
ENDROOT
BRANCH   1   3
ATOM      3  C   UNL     1      95.321  82.871  85.250  1.00  0.00     0.246 C 
ATOM      4  O   UNL     1      95.260  81.753  85.761  1.00  0.00    -0.270 OA
ATOM      5  N   UNL     1      94.767  84.026  85.800  1.00  0.00    -0.339 N 
ATOM      6  C   UNL     1      94.056  83.935  87.078  1.00  0.00     0.120 C 
ATOM      7  C   UNL     1      94.780  85.368  85.197  1.00  0.00     0.120 C 
ATOM      8  C   UNL     1      94.593  84.945  88.087  1.00  0.00     0.022 C 
ATOM      9  C   UNL     1      95.310  86.411  86.181  1.00  0.00     0.022 C 
ATOM     10  C   UNL     1      94.567  86.358  87.514  1.00  0.00     0.004 C 
ENDBRANCH   1   3
BRANCH   2  11
ATOM     11  C   UNL     1      97.100  81.893  82.073  1.00  0.00     0.001 C 
ATOM     12  C   UNL     1      96.650  82.574  81.007  1.00  0.00     0.008 C 
BRANCH  12  13
ATOM     13  C   UNL     1      97.313  82.619  79.693  1.00  0.00    -0.022 A 
ATOM     14  C   UNL     1      96.534  82.685  78.545  1.00  0.00     0.058 A 
ATOM     15  C   UNL     1      98.708  82.596  79.637  1.00  0.00     0.012 A 
ATOM     16  C   UNL     1      97.201  82.726  77.338  1.00  0.00     0.166 A 
ATOM     17  C   UNL     1      99.357  82.638  78.401  1.00  0.00     0.051 A 
ATOM     18  O   UNL     1      96.620  82.790  76.108  1.00  0.00    -0.454 OA
ATOM     19  C   UNL     1      98.575  82.703  77.267  1.00  0.00     0.165 A 
ATOM     20  C   UNL     1      97.784  82.805  75.256  1.00  0.00     0.468 C 
ATOM     21  O   UNL     1      99.027  82.751  75.985  1.00  0.00    -0.454 OA
ENDBRANCH  12  13
ENDBRANCH   2  11
TORSDOF 3
ENDMDL
MODEL 9
REMARK VINA RESULT:    -6.988      4.284      8.220
REMARK INTER + INTRA:          -8.598
REMARK INTER:                  -8.219
REMARK INTRA:                  -0.379
REMARK UNBOUND:                -0.384
REMARK SMILES O=C(/C=C/C=C/c1ccc2c(c1)OCO2)N1CCCCC1
REMARK SMILES IDX 3 1 4 2 2 3 1 4 16 5 17 6 21 7 18 8 20 9 19 10 5 11 6 12
REMARK SMILES IDX 7 13 12 14 8 15 11 16 9 17 13 18 10 19 14 20 15 21
REMARK H PARENT
REMARK Flexibility Score: inf
ROOT
ATOM      1  C   UNL     1      94.653  96.920  74.338  1.00  0.00     0.071 C 
ATOM      2  C   UNL     1      95.032  95.931  75.145  1.00  0.00     0.006 C 
ENDROOT
BRANCH   1   3
ATOM      3  C   UNL     1      95.685  97.860  73.858  1.00  0.00     0.246 C 
ATOM      4  O   UNL     1      96.643  98.081  74.600  1.00  0.00    -0.270 OA
ATOM      5  N   UNL     1      95.505  98.437  72.602  1.00  0.00    -0.339 N 
ATOM      6  C   UNL     1      96.510  99.379  72.101  1.00  0.00     0.120 C 
ATOM      7  C   UNL     1      94.354  98.233  71.709  1.00  0.00     0.120 C 
ATOM      8  C   UNL     1      97.003  98.982  70.714  1.00  0.00     0.022 C 
ATOM      9  C   UNL     1      94.808  97.836  70.304  1.00  0.00     0.022 C 
ATOM     10  C   UNL     1      95.836  98.816  69.745  1.00  0.00     0.004 C 
ENDBRANCH   1   3
BRANCH   2  11
ATOM     11  C   UNL     1      94.094  94.961  75.667  1.00  0.00     0.001 C 
ATOM     12  C   UNL     1      92.933  94.671  75.057  1.00  0.00     0.008 C 
BRANCH  12  13
ATOM     13  C   UNL     1      91.941  93.701  75.548  1.00  0.00    -0.022 A 
ATOM     14  C   UNL     1      92.068  92.365  75.191  1.00  0.00     0.058 A 
ATOM     15  C   UNL     1      90.896  94.151  76.359  1.00  0.00     0.012 A 
ATOM     16  C   UNL     1      91.114  91.494  75.676  1.00  0.00     0.166 A 
ATOM     17  C   UNL     1      89.944  93.247  76.836  1.00  0.00     0.051 A 
ATOM     18  O   UNL     1      91.064  90.154  75.440  1.00  0.00    -0.454 OA
ATOM     19  C   UNL     1      90.080  91.923  76.476  1.00  0.00     0.165 A 
ATOM     20  C   UNL     1      89.882  89.789  76.182  1.00  0.00     0.468 C 
ATOM     21  O   UNL     1      89.253  90.906  76.842  1.00  0.00    -0.454 OA
ENDBRANCH  12  13
ENDBRANCH   2  11
TORSDOF 3
ENDMDL
MODEL 10
REMARK VINA RESULT:    -6.907     21.742     25.534
REMARK INTER + INTRA:          -8.503
REMARK INTER:                  -8.179
REMARK INTRA:                  -0.324
REMARK UNBOUND:                -0.384
REMARK SMILES O=C(/C=C/C=C/c1ccc2c(c1)OCO2)N1CCCCC1
REMARK SMILES IDX 3 1 4 2 2 3 1 4 16 5 17 6 21 7 18 8 20 9 19 10 5 11 6 12
REMARK SMILES IDX 7 13 12 14 8 15 11 16 9 17 13 18 10 19 14 20 15 21
REMARK H PARENT
REMARK Flexibility Score: inf
ROOT
ATOM      1  C   UNL     1      83.970  68.940  72.051  1.00  0.00     0.071 C 
ATOM      2  C   UNL     1      85.235  69.025  71.643  1.00  0.00     0.006 C 
ENDROOT
BRANCH   1   3
ATOM      3  C   UNL     1      83.606  67.836  72.961  1.00  0.00     0.246 C 
ATOM      4  O   UNL     1      84.149  67.806  74.066  1.00  0.00    -0.270 OA
ATOM      5  N   UNL     1      82.678  66.900  72.508  1.00  0.00    -0.339 N 
ATOM      6  C   UNL     1      82.301  65.789  73.387  1.00  0.00     0.120 C 
ATOM      7  C   UNL     1      82.044  66.877  71.181  1.00  0.00     0.120 C 
ATOM      8  C   UNL     1      80.787  65.692  73.544  1.00  0.00     0.022 C 
ATOM      9  C   UNL     1      80.523  66.776  71.297  1.00  0.00     0.022 C 
ATOM     10  C   UNL     1      80.101  65.609  72.185  1.00  0.00     0.004 C 
ENDBRANCH   1   3
BRANCH   2  11
ATOM     11  C   UNL     1      85.687  70.071  70.751  1.00  0.00     0.001 C 
ATOM     12  C   UNL     1      86.853  70.007  70.088  1.00  0.00     0.008 C 
BRANCH  12  13
ATOM     13  C   UNL     1      87.365  71.045  69.177  1.00  0.00    -0.022 A 
ATOM     14  C   UNL     1      88.543  71.705  69.498  1.00  0.00     0.058 A 
ATOM     15  C   UNL     1      86.649  71.337  68.013  1.00  0.00     0.012 A 
ATOM     16  C   UNL     1      88.982  72.668  68.613  1.00  0.00     0.166 A 
ATOM     17  C   UNL     1      87.116  72.317  67.135  1.00  0.00     0.051 A 
ATOM     18  O   UNL     1      90.107  73.422  68.748  1.00  0.00    -0.454 OA
ATOM     19  C   UNL     1      88.288  72.966  67.463  1.00  0.00     0.165 A 
ATOM     20  C   UNL     1      90.043  74.228  67.554  1.00  0.00     0.468 C 
ATOM     21  O   UNL     1      88.891  73.944  66.734  1.00  0.00    -0.454 OA
ENDBRANCH  12  13
ENDBRANCH   2  11
TORSDOF 3
ENDMDL
