MODEL 1
REMARK VINA RESULT:    -5.664      0.000      0.000
REMARK INTER + INTRA:          -9.921
REMARK INTER:                  -9.141
REMARK INTRA:                  -0.780
REMARK UNBOUND:                -0.780
REMARK SMILES CCCCCCCCC(=O)NCc1ccc(O)c(OC)c1
REMARK SMILES IDX 7 1 6 2 5 3 4 4 3 5 2 6 1 7 8 8 9 9 10 10 11 11 12 13 13 14
REMARK SMILES IDX 21 15 14 16 18 17 15 18 16 19 19 20 20 21 17 22
REMARK H PARENT 11 12 17 23
REMARK Flexibility Score: inf
ROOT
ATOM      1  C   UNL     1      92.655  97.591  75.769  1.00  0.00     0.010 C 
ENDROOT
BRANCH   1   2
ATOM      2  C   UNL     1      93.364  96.269  76.183  1.00  0.00     0.001 C 
BRANCH   2   3
ATOM      3  C   UNL     1      93.857  96.303  77.660  1.00  0.00     0.000 C 
BRANCH   3   4
ATOM      4  C   UNL     1      92.961  95.493  78.639  1.00  0.00    -0.000 C 
BRANCH   4   5
ATOM      5  C   UNL     1      92.267  94.282  77.955  1.00  0.00    -0.000 C 
BRANCH   5   6
ATOM      6  C   UNL     1      90.742  94.228  78.242  1.00  0.00    -0.003 C 
ATOM      7  C   UNL     1      89.955  95.341  77.514  1.00  0.00     0.004 C 
ENDBRANCH   5   6
ENDBRANCH   4   5
ENDBRANCH   3   4
ENDBRANCH   2   3
ENDBRANCH   1   2
BRANCH   1   8
ATOM      8  C   UNL     1      93.555  98.557  74.950  1.00  0.00     0.100 C 
BRANCH   8   9
ATOM      9  C   UNL     1      92.748  99.593  74.261  1.00  0.00     0.220 C 
ATOM     10  O   UNL     1      92.591 100.700  74.829  1.00  0.00    -0.275 OA
ATOM     11  N   UNL     1      92.217  99.351  73.026  1.00  0.00    -0.352 N 
ATOM     12  H   UNL     1      92.331  98.402  72.702  1.00  0.00     0.163 HD
BRANCH  11  13
ATOM     13  C   UNL     1      91.545 100.309  72.203  1.00  0.00     0.151 C 
BRANCH  13  14
ATOM     14  C   UNL     1      90.648  99.702  71.184  1.00  0.00    -0.025 A 
ATOM     15  C   UNL     1      90.432 100.354  69.946  1.00  0.00     0.056 A 
ATOM     16  C   UNL     1      89.994  98.473  71.431  1.00  0.00     0.009 A 
ATOM     17  C   UNL     1      89.596  99.780  68.961  1.00  0.00     0.160 A 
ATOM     18  C   UNL     1      89.161  97.897  70.455  1.00  0.00     0.050 A 
ATOM     19  C   UNL     1      88.954  98.549  69.224  1.00  0.00     0.157 A 
BRANCH  17  20
ATOM     20  O   UNL     1      89.355 100.434  67.778  1.00  0.00    -0.493 OA
ATOM     21  C   UNL     1      88.423 101.523  67.887  1.00  0.00     0.278 C 
ENDBRANCH  17  20
BRANCH  19  22
ATOM     22  O   UNL     1      88.127  97.999  68.299  1.00  0.00    -0.504 OA
ATOM     23  H   UNL     1      87.784  97.166  68.632  1.00  0.00     0.293 HD
ENDBRANCH  19  22
ENDBRANCH  13  14
ENDBRANCH  11  13
ENDBRANCH   8   9
ENDBRANCH   1   8
TORSDOF 11
ENDMDL
MODEL 2
REMARK VINA RESULT:    -5.627     20.360     23.239
REMARK INTER + INTRA:          -9.862
REMARK INTER:                  -8.851
REMARK INTRA:                  -1.010
REMARK UNBOUND:                -0.780
REMARK SMILES CCCCCCCCC(=O)NCc1ccc(O)c(OC)c1
REMARK SMILES IDX 7 1 6 2 5 3 4 4 3 5 2 6 1 7 8 8 9 9 10 10 11 11 12 13 13 14
REMARK SMILES IDX 21 15 14 16 18 17 15 18 16 19 19 20 20 21 17 22
REMARK H PARENT 11 12 17 23
REMARK Flexibility Score: inf
ROOT
ATOM      1  C   UNL     1      74.962  81.402  66.240  1.00  0.00     0.010 C 
ENDROOT
BRANCH   1   2
ATOM      2  C   UNL     1      73.988  82.615  66.253  1.00  0.00     0.001 C 
BRANCH   2   3
ATOM      3  C   UNL     1      72.496  82.173  66.177  1.00  0.00     0.000 C 
BRANCH   3   4
ATOM      4  C   UNL     1      72.221  81.074  65.113  1.00  0.00    -0.000 C 
BRANCH   4   5
ATOM      5  C   UNL     1      72.380  81.596  63.656  1.00  0.00    -0.000 C 
BRANCH   5   6
ATOM      6  C   UNL     1      71.427  82.780  63.340  1.00  0.00    -0.003 C 
ATOM      7  C   UNL     1      69.945  82.448  63.623  1.00  0.00     0.004 C 
ENDBRANCH   5   6
ENDBRANCH   4   5
ENDBRANCH   3   4
ENDBRANCH   2   3
ENDBRANCH   1   2
BRANCH   1   8
ATOM      8  C   UNL     1      75.897  81.358  64.999  1.00  0.00     0.100 C 
BRANCH   8   9
ATOM      9  C   UNL     1      76.796  82.536  64.959  1.00  0.00     0.220 C 
ATOM     10  O   UNL     1      76.730  83.302  63.968  1.00  0.00    -0.275 OA
ATOM     11  N   UNL     1      77.652  82.791  65.992  1.00  0.00    -0.352 N 
ATOM     12  H   UNL     1      77.685  82.067  66.695  1.00  0.00     0.163 HD
BRANCH  11  13
ATOM     13  C   UNL     1      78.462  83.962  66.137  1.00  0.00     0.151 C 
BRANCH  13  14
ATOM     14  C   UNL     1      77.986  84.897  67.191  1.00  0.00    -0.025 A 
ATOM     15  C   UNL     1      77.896  84.466  68.537  1.00  0.00     0.056 A 
ATOM     16  C   UNL     1      77.613  86.223  66.873  1.00  0.00     0.009 A 
ATOM     17  C   UNL     1      77.461  85.348  69.553  1.00  0.00     0.160 A 
ATOM     18  C   UNL     1      77.181  87.105  67.879  1.00  0.00     0.050 A 
ATOM     19  C   UNL     1      77.097  86.671  69.216  1.00  0.00     0.157 A 
BRANCH  17  20
ATOM     20  O   UNL     1      77.334  84.917  70.849  1.00  0.00    -0.493 OA
ATOM     21  C   UNL     1      76.122  84.189  71.111  1.00  0.00     0.278 C 
ENDBRANCH  17  20
BRANCH  19  22
ATOM     22  O   UNL     1      76.652  87.523  70.175  1.00  0.00    -0.504 OA
ATOM     23  H   UNL     1      76.904  87.190  71.040  1.00  0.00     0.293 HD
ENDBRANCH  19  22
ENDBRANCH  13  14
ENDBRANCH  11  13
ENDBRANCH   8   9
ENDBRANCH   1   8
TORSDOF 11
ENDMDL
MODEL 3
REMARK VINA RESULT:    -5.578     17.647     20.793
REMARK INTER + INTRA:          -9.783
REMARK INTER:                  -9.016
REMARK INTRA:                  -0.767
REMARK UNBOUND:                -0.780
REMARK SMILES CCCCCCCCC(=O)NCc1ccc(O)c(OC)c1
REMARK SMILES IDX 7 1 6 2 5 3 4 4 3 5 2 6 1 7 8 8 9 9 10 10 11 11 12 13 13 14
REMARK SMILES IDX 21 15 14 16 18 17 15 18 16 19 19 20 20 21 17 22
REMARK H PARENT 11 12 17 23
REMARK Flexibility Score: inf
ROOT
ATOM      1  C   UNL     1      98.587  82.617  82.517  1.00  0.00     0.010 C 
ENDROOT
BRANCH   1   2
ATOM      2  C   UNL     1      99.245  83.131  81.204  1.00  0.00     0.001 C 
BRANCH   2   3
ATOM      3  C   UNL     1      99.293  82.033  80.101  1.00  0.00     0.000 C 
BRANCH   3   4
ATOM      4  C   UNL     1      98.113  82.106  79.092  1.00  0.00    -0.000 C 
BRANCH   4   5
ATOM      5  C   UNL     1      97.397  83.486  79.104  1.00  0.00    -0.000 C 
BRANCH   5   6
ATOM      6  C   UNL     1      97.501  84.223  77.741  1.00  0.00    -0.003 C 
ATOM      7  C   UNL     1      97.905  83.286  76.581  1.00  0.00     0.004 C 
ENDBRANCH   5   6
ENDBRANCH   4   5
ENDBRANCH   3   4
ENDBRANCH   2   3
ENDBRANCH   1   2
BRANCH   1   8
ATOM      8  C   UNL     1      97.475  83.551  83.071  1.00  0.00     0.100 C 
BRANCH   8   9
ATOM      9  C   UNL     1      97.415  83.501  84.552  1.00  0.00     0.220 C 
ATOM     10  O   UNL     1      98.040  84.373  85.202  1.00  0.00    -0.275 OA
ATOM     11  N   UNL     1      96.674  82.544  85.184  1.00  0.00    -0.352 N 
ATOM     12  H   UNL     1      96.286  81.843  84.570  1.00  0.00     0.163 HD
BRANCH  11  13
ATOM     13  C   UNL     1      96.425  82.475  86.592  1.00  0.00     0.151 C 
BRANCH  13  14
ATOM     14  C   UNL     1      95.043  82.870  86.977  1.00  0.00    -0.025 A 
ATOM     15  C   UNL     1      94.000  81.914  86.965  1.00  0.00     0.056 A 
ATOM     16  C   UNL     1      94.747  84.200  87.357  1.00  0.00     0.009 A 
ATOM     17  C   UNL     1      92.685  82.271  87.345  1.00  0.00     0.160 A 
ATOM     18  C   UNL     1      93.442  84.560  87.738  1.00  0.00     0.050 A 
ATOM     19  C   UNL     1      92.409  83.603  87.726  1.00  0.00     0.157 A 
BRANCH  17  20
ATOM     20  O   UNL     1      91.667  81.353  87.292  1.00  0.00    -0.493 OA
ATOM     21  C   UNL     1      91.204  81.063  85.961  1.00  0.00     0.278 C 
ENDBRANCH  17  20
BRANCH  19  22
ATOM     22  O   UNL     1      91.147  83.968  88.069  1.00  0.00    -0.504 OA
ATOM     23  H   UNL     1      90.922  84.793  87.631  1.00  0.00     0.293 HD
ENDBRANCH  19  22
ENDBRANCH  13  14
ENDBRANCH  11  13
ENDBRANCH   8   9
ENDBRANCH   1   8
TORSDOF 11
ENDMDL
MODEL 4
REMARK VINA RESULT:    -5.369     21.853     24.398
REMARK INTER + INTRA:          -9.445
REMARK INTER:                  -8.745
REMARK INTRA:                  -0.701
REMARK UNBOUND:                -0.780
REMARK SMILES CCCCCCCCC(=O)NCc1ccc(O)c(OC)c1
REMARK SMILES IDX 7 1 6 2 5 3 4 4 3 5 2 6 1 7 8 8 9 9 10 10 11 11 12 13 13 14
REMARK SMILES IDX 21 15 14 16 18 17 15 18 16 19 19 20 20 21 17 22
REMARK H PARENT 11 12 17 23
REMARK Flexibility Score: inf
ROOT
ATOM      1  C   UNL     1      71.571  83.248  66.707  1.00  0.00     0.010 C 
ENDROOT
BRANCH   1   2
ATOM      2  C   UNL     1      70.428  83.179  67.761  1.00  0.00     0.001 C 
BRANCH   2   3
ATOM      3  C   UNL     1      70.736  84.042  69.021  1.00  0.00     0.000 C 
BRANCH   3   4
ATOM      4  C   UNL     1      69.980  83.578  70.298  1.00  0.00    -0.000 C 
BRANCH   4   5
ATOM      5  C   UNL     1      68.506  83.173  70.009  1.00  0.00    -0.000 C 
BRANCH   5   6
ATOM      6  C   UNL     1      67.526  83.667  71.106  1.00  0.00    -0.003 C 
ATOM      7  C   UNL     1      68.174  84.676  72.080  1.00  0.00     0.004 C 
ENDBRANCH   5   6
ENDBRANCH   4   5
ENDBRANCH   3   4
ENDBRANCH   2   3
ENDBRANCH   1   2
BRANCH   1   8
ATOM      8  C   UNL     1      71.639  82.008  65.772  1.00  0.00     0.100 C 
BRANCH   8   9
ATOM      9  C   UNL     1      73.038  81.691  65.398  1.00  0.00     0.220 C 
ATOM     10  O   UNL     1      73.275  81.353  64.213  1.00  0.00    -0.275 OA
ATOM     11  N   UNL     1      74.043  81.795  66.316  1.00  0.00    -0.352 N 
ATOM     12  H   UNL     1      73.731  81.990  67.256  1.00  0.00     0.163 HD
BRANCH  11  13
ATOM     13  C   UNL     1      75.441  81.655  66.046  1.00  0.00     0.151 C 
BRANCH  13  14
ATOM     14  C   UNL     1      76.291  82.663  66.734  1.00  0.00    -0.025 A 
ATOM     15  C   UNL     1      75.816  83.324  67.892  1.00  0.00     0.056 A 
ATOM     16  C   UNL     1      77.579  82.982  66.246  1.00  0.00     0.009 A 
ATOM     17  C   UNL     1      76.619  84.272  68.567  1.00  0.00     0.160 A 
ATOM     18  C   UNL     1      78.384  83.923  66.913  1.00  0.00     0.050 A 
ATOM     19  C   UNL     1      77.906  84.574  68.067  1.00  0.00     0.157 A 
BRANCH  17  20
ATOM     20  O   UNL     1      76.141  84.941  69.665  1.00  0.00    -0.493 OA
ATOM     21  C   UNL     1      76.298  84.228  70.904  1.00  0.00     0.278 C 
ENDBRANCH  17  20
BRANCH  19  22
ATOM     22  O   UNL     1      78.679  85.502  68.688  1.00  0.00    -0.504 OA
ATOM     23  H   UNL     1      78.610  85.391  69.639  1.00  0.00     0.293 HD
ENDBRANCH  19  22
ENDBRANCH  13  14
ENDBRANCH  11  13
ENDBRANCH   8   9
ENDBRANCH   1   8
TORSDOF 11
ENDMDL
MODEL 5
REMARK VINA RESULT:    -5.252     33.035     35.650
REMARK INTER + INTRA:          -9.255
REMARK INTER:                  -8.596
REMARK INTRA:                  -0.659
REMARK UNBOUND:                -0.780
REMARK SMILES CCCCCCCCC(=O)NCc1ccc(O)c(OC)c1
REMARK SMILES IDX 7 1 6 2 5 3 4 4 3 5 2 6 1 7 8 8 9 9 10 10 11 11 12 13 13 14
REMARK SMILES IDX 21 15 14 16 18 17 15 18 16 19 19 20 20 21 17 22
REMARK H PARENT 11 12 17 23
REMARK Flexibility Score: inf
ROOT
ATOM      1  C   UNL     1      57.246  88.620  69.481  1.00  0.00     0.010 C 
ENDROOT
BRANCH   1   2
ATOM      2  C   UNL     1      56.218  89.782  69.603  1.00  0.00     0.001 C 
BRANCH   2   3
ATOM      3  C   UNL     1      55.678  90.239  68.216  1.00  0.00     0.000 C 
BRANCH   3   4
ATOM      4  C   UNL     1      54.262  89.690  67.883  1.00  0.00    -0.000 C 
BRANCH   4   5
ATOM      5  C   UNL     1      54.018  89.550  66.353  1.00  0.00    -0.000 C 
BRANCH   5   6
ATOM      6  C   UNL     1      54.432  88.155  65.809  1.00  0.00    -0.003 C 
ATOM      7  C   UNL     1      54.463  87.068  66.906  1.00  0.00     0.004 C 
ENDBRANCH   5   6
ENDBRANCH   4   5
ENDBRANCH   3   4
ENDBRANCH   2   3
ENDBRANCH   1   2
BRANCH   1   8
ATOM      8  C   UNL     1      58.159  88.453  70.727  1.00  0.00     0.100 C 
BRANCH   8   9
ATOM      9  C   UNL     1      59.064  87.288  70.581  1.00  0.00     0.220 C 
ATOM     10  O   UNL     1      59.997  87.360  69.746  1.00  0.00    -0.275 OA
ATOM     11  N   UNL     1      58.899  86.178  71.360  1.00  0.00    -0.352 N 
ATOM     12  H   UNL     1      58.068  86.191  71.934  1.00  0.00     0.163 HD
BRANCH  11  13
ATOM     13  C   UNL     1      59.784  85.055  71.414  1.00  0.00     0.151 C 
BRANCH  13  14
ATOM     14  C   UNL     1      60.367  84.813  72.760  1.00  0.00    -0.025 A 
ATOM     15  C   UNL     1      60.922  83.550  73.080  1.00  0.00     0.056 A 
ATOM     16  C   UNL     1      60.376  85.830  73.742  1.00  0.00     0.009 A 
ATOM     17  C   UNL     1      61.495  83.311  74.350  1.00  0.00     0.160 A 
ATOM     18  C   UNL     1      60.946  85.599  75.007  1.00  0.00     0.050 A 
ATOM     19  C   UNL     1      61.498  84.341  75.317  1.00  0.00     0.157 A 
BRANCH  17  20
ATOM     20  O   UNL     1      61.994  82.074  74.672  1.00  0.00    -0.493 OA
ATOM     21  C   UNL     1      62.525  81.343  73.552  1.00  0.00     0.278 C 
ENDBRANCH  17  20
BRANCH  19  22
ATOM     22  O   UNL     1      62.022  84.119  76.550  1.00  0.00    -0.504 OA
ATOM     23  H   UNL     1      62.168  83.178  76.670  1.00  0.00     0.293 HD
ENDBRANCH  19  22
ENDBRANCH  13  14
ENDBRANCH  11  13
ENDBRANCH   8   9
ENDBRANCH   1   8
TORSDOF 11
ENDMDL
MODEL 6
REMARK VINA RESULT:    -5.251     19.803     22.427
REMARK INTER + INTRA:          -9.255
REMARK INTER:                  -8.338
REMARK INTRA:                  -0.917
REMARK UNBOUND:                -0.780
REMARK SMILES CCCCCCCCC(=O)NCc1ccc(O)c(OC)c1
REMARK SMILES IDX 7 1 6 2 5 3 4 4 3 5 2 6 1 7 8 8 9 9 10 10 11 11 12 13 13 14
REMARK SMILES IDX 21 15 14 16 18 17 15 18 16 19 19 20 20 21 17 22
REMARK H PARENT 11 12 17 23
REMARK Flexibility Score: inf
ROOT
ATOM      1  C   UNL     1      74.843  81.850  66.338  1.00  0.00     0.010 C 
ENDROOT
BRANCH   1   2
ATOM      2  C   UNL     1      74.469  83.327  66.654  1.00  0.00     0.001 C 
BRANCH   2   3
ATOM      3  C   UNL     1      72.929  83.535  66.756  1.00  0.00     0.000 C 
BRANCH   3   4
ATOM      4  C   UNL     1      72.097  82.348  66.194  1.00  0.00    -0.000 C 
BRANCH   4   5
ATOM      5  C   UNL     1      70.636  82.334  66.726  1.00  0.00    -0.000 C 
BRANCH   5   6
ATOM      6  C   UNL     1      70.323  83.549  67.640  1.00  0.00    -0.003 C 
ATOM      7  C   UNL     1      69.857  83.132  69.053  1.00  0.00     0.004 C 
ENDBRANCH   5   6
ENDBRANCH   4   5
ENDBRANCH   3   4
ENDBRANCH   2   3
ENDBRANCH   1   2
BRANCH   1   8
ATOM      8  C   UNL     1      75.899  81.696  65.208  1.00  0.00     0.100 C 
BRANCH   8   9
ATOM      9  C   UNL     1      76.921  82.768  65.274  1.00  0.00     0.220 C 
ATOM     10  O   UNL     1      77.030  83.548  64.298  1.00  0.00    -0.275 OA
ATOM     11  N   UNL     1      77.701  82.915  66.385  1.00  0.00    -0.352 N 
ATOM     12  H   UNL     1      77.591  82.184  67.073  1.00  0.00     0.163 HD
BRANCH  11  13
ATOM     13  C   UNL     1      78.617  83.987  66.627  1.00  0.00     0.151 C 
BRANCH  13  14
ATOM     14  C   UNL     1      78.063  85.070  67.484  1.00  0.00    -0.025 A 
ATOM     15  C   UNL     1      77.439  86.196  66.894  1.00  0.00     0.056 A 
ATOM     16  C   UNL     1      78.152  84.999  68.893  1.00  0.00     0.009 A 
ATOM     17  C   UNL     1      76.892  87.224  67.696  1.00  0.00     0.160 A 
ATOM     18  C   UNL     1      77.609  86.018  69.696  1.00  0.00     0.050 A 
ATOM     19  C   UNL     1      76.987  87.134  69.103  1.00  0.00     0.157 A 
BRANCH  17  20
ATOM     20  O   UNL     1      76.326  88.334  67.122  1.00  0.00    -0.493 OA
ATOM     21  C   UNL     1      75.628  88.070  65.892  1.00  0.00     0.278 C 
ENDBRANCH  17  20
BRANCH  19  22
ATOM     22  O   UNL     1      76.491  88.126  69.886  1.00  0.00    -0.504 OA
ATOM     23  H   UNL     1      77.185  88.457  70.461  1.00  0.00     0.293 HD
ENDBRANCH  19  22
ENDBRANCH  13  14
ENDBRANCH  11  13
ENDBRANCH   8   9
ENDBRANCH   1   8
TORSDOF 11
ENDMDL
MODEL 7
REMARK VINA RESULT:    -5.087     22.348     24.534
REMARK INTER + INTRA:          -8.990
REMARK INTER:                  -8.544
REMARK INTRA:                  -0.446
REMARK UNBOUND:                -0.780
REMARK SMILES CCCCCCCCC(=O)NCc1ccc(O)c(OC)c1
REMARK SMILES IDX 7 1 6 2 5 3 4 4 3 5 2 6 1 7 8 8 9 9 10 10 11 11 12 13 13 14
REMARK SMILES IDX 21 15 14 16 18 17 15 18 16 19 19 20 20 21 17 22
REMARK H PARENT 11 12 17 23
REMARK Flexibility Score: inf
ROOT
ATOM      1  C   UNL     1      69.279  84.199  71.510  1.00  0.00     0.010 C 
ENDROOT
BRANCH   1   2
ATOM      2  C   UNL     1      67.875  83.800  70.971  1.00  0.00     0.001 C 
BRANCH   2   3
ATOM      3  C   UNL     1      66.727  84.269  71.913  1.00  0.00     0.000 C 
BRANCH   3   4
ATOM      4  C   UNL     1      65.319  83.770  71.482  1.00  0.00    -0.000 C 
BRANCH   4   5
ATOM      5  C   UNL     1      65.252  82.224  71.327  1.00  0.00    -0.000 C 
BRANCH   5   6
ATOM      6  C   UNL     1      63.862  81.647  71.710  1.00  0.00    -0.003 C 
ATOM      7  C   UNL     1      63.765  81.254  73.200  1.00  0.00     0.004 C 
ENDBRANCH   5   6
ENDBRANCH   4   5
ENDBRANCH   3   4
ENDBRANCH   2   3
ENDBRANCH   1   2
BRANCH   1   8
ATOM      8  C   UNL     1      70.436  83.936  70.506  1.00  0.00     0.100 C 
BRANCH   8   9
ATOM      9  C   UNL     1      71.141  85.192  70.153  1.00  0.00     0.220 C 
ATOM     10  O   UNL     1      70.517  86.275  70.262  1.00  0.00    -0.275 OA
ATOM     11  N   UNL     1      72.445  85.167  69.748  1.00  0.00    -0.352 N 
ATOM     12  H   UNL     1      72.821  84.240  69.613  1.00  0.00     0.163 HD
BRANCH  11  13
ATOM     13  C   UNL     1      73.271  86.312  69.518  1.00  0.00     0.151 C 
BRANCH  13  14
ATOM     14  C   UNL     1      74.722  85.998  69.428  1.00  0.00    -0.025 A 
ATOM     15  C   UNL     1      75.452  86.330  68.262  1.00  0.00     0.056 A 
ATOM     16  C   UNL     1      75.396  85.363  70.497  1.00  0.00     0.009 A 
ATOM     17  C   UNL     1      76.836  86.054  68.170  1.00  0.00     0.160 A 
ATOM     18  C   UNL     1      76.772  85.087  70.412  1.00  0.00     0.050 A 
ATOM     19  C   UNL     1      77.493  85.422  69.250  1.00  0.00     0.157 A 
BRANCH  17  20
ATOM     20  O   UNL     1      77.532  86.338  67.022  1.00  0.00    -0.493 OA
ATOM     21  C   UNL     1      77.340  87.677  66.533  1.00  0.00     0.278 C 
ENDBRANCH  17  20
BRANCH  19  22
ATOM     22  O   UNL     1      78.815  85.126  69.166  1.00  0.00    -0.504 OA
ATOM     23  H   UNL     1      79.144  84.882  70.035  1.00  0.00     0.293 HD
ENDBRANCH  19  22
ENDBRANCH  13  14
ENDBRANCH  11  13
ENDBRANCH   8   9
ENDBRANCH   1   8
TORSDOF 11
ENDMDL
MODEL 8
REMARK VINA RESULT:    -5.073     18.659     21.771
REMARK INTER + INTRA:          -8.968
REMARK INTER:                  -8.240
REMARK INTRA:                  -0.728
REMARK UNBOUND:                -0.780
REMARK SMILES CCCCCCCCC(=O)NCc1ccc(O)c(OC)c1
REMARK SMILES IDX 7 1 6 2 5 3 4 4 3 5 2 6 1 7 8 8 9 9 10 10 11 11 12 13 13 14
REMARK SMILES IDX 21 15 14 16 18 17 15 18 16 19 19 20 20 21 17 22
REMARK H PARENT 11 12 17 23
REMARK Flexibility Score: inf
ROOT
ATOM      1  C   UNL     1      97.435  83.399  83.316  1.00  0.00     0.010 C 
ENDROOT
BRANCH   1   2
ATOM      2  C   UNL     1      98.188  82.048  83.484  1.00  0.00     0.001 C 
BRANCH   2   3
ATOM      3  C   UNL     1      98.943  81.629  82.188  1.00  0.00     0.000 C 
BRANCH   3   4
ATOM      4  C   UNL     1      99.832  82.755  81.588  1.00  0.00    -0.000 C 
BRANCH   4   5
ATOM      5  C   UNL     1      99.539  83.015  80.083  1.00  0.00    -0.000 C 
BRANCH   5   6
ATOM      6  C   UNL     1      98.180  82.417  79.629  1.00  0.00    -0.003 C 
ATOM      7  C   UNL     1      97.131  83.499  79.291  1.00  0.00     0.004 C 
ENDBRANCH   5   6
ENDBRANCH   4   5
ENDBRANCH   3   4
ENDBRANCH   2   3
ENDBRANCH   1   2
BRANCH   1   8
ATOM      8  C   UNL     1      97.157  84.135  84.656  1.00  0.00     0.100 C 
BRANCH   8   9
ATOM      9  C   UNL     1      96.846  83.177  85.744  1.00  0.00     0.220 C 
ATOM     10  O   UNL     1      97.735  82.931  86.594  1.00  0.00    -0.275 OA
ATOM     11  N   UNL     1      95.610  82.602  85.830  1.00  0.00    -0.352 N 
ATOM     12  H   UNL     1      95.002  82.802  85.049  1.00  0.00     0.163 HD
BRANCH  11  13
ATOM     13  C   UNL     1      95.144  81.778  86.903  1.00  0.00     0.151 C 
BRANCH  13  14
ATOM     14  C   UNL     1      93.684  81.499  86.856  1.00  0.00    -0.025 A 
ATOM     15  C   UNL     1      93.215  80.164  86.825  1.00  0.00     0.056 A 
ATOM     16  C   UNL     1      92.742  82.554  86.839  1.00  0.00     0.009 A 
ATOM     17  C   UNL     1      91.829  79.883  86.798  1.00  0.00     0.160 A 
ATOM     18  C   UNL     1      91.363  82.281  86.813  1.00  0.00     0.050 A 
ATOM     19  C   UNL     1      90.903  80.950  86.785  1.00  0.00     0.157 A 
BRANCH  17  20
ATOM     20  O   UNL     1      91.378  78.589  86.725  1.00  0.00    -0.493 OA
ATOM     21  C   UNL     1      91.412  77.882  87.977  1.00  0.00     0.278 C 
ENDBRANCH  17  20
BRANCH  19  22
ATOM     22  O   UNL     1      89.571  80.697  86.732  1.00  0.00    -0.504 OA
ATOM     23  H   UNL     1      89.322  80.137  87.471  1.00  0.00     0.293 HD
ENDBRANCH  19  22
ENDBRANCH  13  14
ENDBRANCH  11  13
ENDBRANCH   8   9
ENDBRANCH   1   8
TORSDOF 11
ENDMDL
MODEL 9
REMARK VINA RESULT:    -5.012     21.947     24.898
REMARK INTER + INTRA:          -8.868
REMARK INTER:                  -7.894
REMARK INTRA:                  -0.974
REMARK UNBOUND:                -0.780
REMARK SMILES CCCCCCCCC(=O)NCc1ccc(O)c(OC)c1
REMARK SMILES IDX 7 1 6 2 5 3 4 4 3 5 2 6 1 7 8 8 9 9 10 10 11 11 12 13 13 14
REMARK SMILES IDX 21 15 14 16 18 17 15 18 16 19 19 20 20 21 17 22
REMARK H PARENT 11 12 17 23
REMARK Flexibility Score: inf
ROOT
ATOM      1  C   UNL     1      71.890  82.681  66.286  1.00  0.00     0.010 C 
ENDROOT
BRANCH   1   2
ATOM      2  C   UNL     1      70.769  82.364  67.316  1.00  0.00     0.001 C 
BRANCH   2   3
ATOM      3  C   UNL     1      69.467  83.173  67.037  1.00  0.00     0.000 C 
BRANCH   3   4
ATOM      4  C   UNL     1      69.380  83.742  65.593  1.00  0.00    -0.000 C 
BRANCH   4   5
ATOM      5  C   UNL     1      68.168  83.179  64.798  1.00  0.00    -0.000 C 
BRANCH   5   6
ATOM      6  C   UNL     1      68.451  83.074  63.275  1.00  0.00    -0.003 C 
ATOM      7  C   UNL     1      69.960  83.070  62.944  1.00  0.00     0.004 C 
ENDBRANCH   5   6
ENDBRANCH   4   5
ENDBRANCH   3   4
ENDBRANCH   2   3
ENDBRANCH   1   2
BRANCH   1   8
ATOM      8  C   UNL     1      72.268  81.477  65.377  1.00  0.00     0.100 C 
BRANCH   8   9
ATOM      9  C   UNL     1      73.735  81.266  65.343  1.00  0.00     0.220 C 
ATOM     10  O   UNL     1      74.218  80.594  64.400  1.00  0.00    -0.275 OA
ATOM     11  N   UNL     1      74.538  81.817  66.300  1.00  0.00    -0.352 N 
ATOM     12  H   UNL     1      74.040  82.263  67.057  1.00  0.00     0.163 HD
BRANCH  11  13
ATOM     13  C   UNL     1      75.969  81.805  66.299  1.00  0.00     0.151 C 
BRANCH  13  14
ATOM     14  C   UNL     1      76.581  82.972  66.989  1.00  0.00    -0.025 A 
ATOM     15  C   UNL     1      76.030  83.451  68.202  1.00  0.00     0.056 A 
ATOM     16  C   UNL     1      77.713  83.623  66.449  1.00  0.00     0.009 A 
ATOM     17  C   UNL     1      76.612  84.548  68.878  1.00  0.00     0.160 A 
ATOM     18  C   UNL     1      78.297  84.715  67.117  1.00  0.00     0.050 A 
ATOM     19  C   UNL     1      77.746  85.184  68.325  1.00  0.00     0.157 A 
BRANCH  17  20
ATOM     20  O   UNL     1      76.052  85.038  70.031  1.00  0.00    -0.493 OA
ATOM     21  C   UNL     1      76.159  84.152  71.160  1.00  0.00     0.278 C 
ENDBRANCH  17  20
BRANCH  19  22
ATOM     22  O   UNL     1      78.300  86.256  68.948  1.00  0.00    -0.504 OA
ATOM     23  H   UNL     1      79.051  85.968  69.472  1.00  0.00     0.293 HD
ENDBRANCH  19  22
ENDBRANCH  13  14
ENDBRANCH  11  13
ENDBRANCH   8   9
ENDBRANCH   1   8
TORSDOF 11
ENDMDL
MODEL 10
REMARK VINA RESULT:    -4.980     18.625     20.876
REMARK INTER + INTRA:          -8.817
REMARK INTER:                  -8.179
REMARK INTRA:                  -0.638
REMARK UNBOUND:                -0.780
REMARK SMILES CCCCCCCCC(=O)NCc1ccc(O)c(OC)c1
REMARK SMILES IDX 7 1 6 2 5 3 4 4 3 5 2 6 1 7 8 8 9 9 10 10 11 11 12 13 13 14
REMARK SMILES IDX 21 15 14 16 18 17 15 18 16 19 19 20 20 21 17 22
REMARK H PARENT 11 12 17 23
REMARK Flexibility Score: inf
ROOT
ATOM      1  C   UNL     1      96.278  84.780  86.236  1.00  0.00     0.010 C 
ENDROOT
BRANCH   1   2
ATOM      2  C   UNL     1      96.726  84.341  84.813  1.00  0.00     0.001 C 
BRANCH   2   3
ATOM      3  C   UNL     1      97.584  83.042  84.840  1.00  0.00     0.000 C 
BRANCH   3   4
ATOM      4  C   UNL     1      97.849  82.435  83.433  1.00  0.00    -0.000 C 
BRANCH   4   5
ATOM      5  C   UNL     1      98.101  83.521  82.349  1.00  0.00    -0.000 C 
BRANCH   5   6
ATOM      6  C   UNL     1      98.297  82.916  80.933  1.00  0.00    -0.003 C 
ATOM      7  C   UNL     1      97.266  83.440  79.909  1.00  0.00     0.004 C 
ENDBRANCH   5   6
ENDBRANCH   4   5
ENDBRANCH   3   4
ENDBRANCH   2   3
ENDBRANCH   1   2
BRANCH   1   8
ATOM      8  C   UNL     1      95.163  83.886  86.849  1.00  0.00     0.100 C 
BRANCH   8   9
ATOM      9  C   UNL     1      94.780  84.354  88.203  1.00  0.00     0.220 C 
ATOM     10  O   UNL     1      94.934  83.569  89.169  1.00  0.00    -0.275 OA
ATOM     11  N   UNL     1      94.299  85.618  88.390  1.00  0.00    -0.352 N 
ATOM     12  H   UNL     1      94.134  86.133  87.537  1.00  0.00     0.163 HD
BRANCH  11  13
ATOM     13  C   UNL     1      94.030  86.231  89.655  1.00  0.00     0.151 C 
BRANCH  13  14
ATOM     14  C   UNL     1      94.834  87.455  89.913  1.00  0.00    -0.025 A 
ATOM     15  C   UNL     1      94.506  88.307  90.995  1.00  0.00     0.056 A 
ATOM     16  C   UNL     1      95.930  87.792  89.087  1.00  0.00     0.009 A 
ATOM     17  C   UNL     1      95.272  89.465  91.264  1.00  0.00     0.160 A 
ATOM     18  C   UNL     1      96.697  88.942  89.349  1.00  0.00     0.050 A 
ATOM     19  C   UNL     1      96.367  89.784  90.429  1.00  0.00     0.157 A 
BRANCH  17  20
ATOM     20  O   UNL     1      94.928  90.312  92.287  1.00  0.00    -0.493 OA
ATOM     21  C   UNL     1      93.691  91.016  92.078  1.00  0.00     0.278 C 
ENDBRANCH  17  20
BRANCH  19  22
ATOM     22  O   UNL     1      97.096  90.906  90.658  1.00  0.00    -0.504 OA
ATOM     23  H   UNL     1      98.025  90.674  90.734  1.00  0.00     0.293 HD
ENDBRANCH  19  22
ENDBRANCH  13  14
ENDBRANCH  11  13
ENDBRANCH   8   9
ENDBRANCH   1   8
TORSDOF 11
ENDMDL
