MODEL 1
REMARK VINA RESULT:    -7.320      0.000      0.000
REMARK INTER + INTRA:         -13.926
REMARK INTER:                 -12.883
REMARK INTRA:                  -1.043
REMARK UNBOUND:                -1.043
REMARK SMILES C=C(C)[C@]12C[C@@H](C)[C@@]34O[C@](Cc5ccccc5)(O[C@@H]1[C@@H]3C=C(COC(=O)Cc1ccc(O)c(OC)c1)C[C@]1(O)C(=O)C(C)=C[C@@H]41)O2
REMARK SMILES IDX 23 1 22 2 21 3 20 4 9 5 8 6 10 7 6 8 18 9 46 10 19 11 5 12
REMARK SMILES IDX 7 13 4 14 45 15 38 16 44 17 40 18 42 20 41 21 43 22 39 23
REMARK SMILES IDX 11 25 12 26 13 27 17 28 14 29 16 30 15 31 2 32 3 33 1 34
REMARK SMILES IDX 37 35 24 37 25 38 26 39 27 40 28 41 36 42 29 43 33 44 30 45
REMARK SMILES IDX 31 46 34 47 35 48 32 49
REMARK H PARENT 39 24 32 50
REMARK Flexibility Score: 90.00
ROOT
ATOM      1  C   UNL     1      93.767  87.337  87.371  1.00  0.00     0.264 C 
ENDROOT
BRANCH   1   2
ATOM      2  C   UNL     1      93.688  85.867  87.710  1.00  0.00    -0.033 C 
ATOM      3  C   UNL     1      93.350  84.985  86.748  1.00  0.00    -0.015 C 
BRANCH   3   4
ATOM      4  C   UNL     1      93.128  83.485  86.849  1.00  0.00     0.078 C 
ATOM      5  O   UNL     1      95.291  82.401  86.336  1.00  0.00    -0.319 OA
ATOM      6  C   UNL     1      94.302  82.590  87.394  1.00  0.00     0.095 C 
ATOM      7  C   UNL     1      94.752  82.133  85.028  1.00  0.00     0.289 C 
ATOM      8  C   UNL     1      93.688  81.184  87.794  1.00  0.00     0.023 C 
ATOM      9  O   UNL     1      93.874  83.175  84.608  1.00  0.00    -0.320 OA
ATOM     10  O   UNL     1      93.974  80.939  84.998  1.00  0.00    -0.313 OA
ATOM     11  C   UNL     1      92.748  82.915  85.460  1.00  0.00     0.170 C 
ATOM     12  C   UNL     1      92.501  80.794  86.860  1.00  0.00     0.049 C 
ATOM     13  C   UNL     1      94.691  80.021  87.860  1.00  0.00     0.011 C 
ATOM     14  C   UNL     1      92.674  81.368  85.454  1.00  0.00     0.122 C 
BRANCH   6  15
ATOM     15  C   UNL     1      95.078  83.326  88.525  1.00  0.00     0.086 C 
ATOM     16  C   UNL     1      94.218  84.082  89.559  1.00  0.00     0.140 CG0
ATOM     17  C   UNL     1      96.048  82.554  89.375  1.00  0.00    -0.010 C 
ATOM     18  C   UNL     1      95.015  83.912  90.834  1.00  0.00     0.190 C 
ATOM     19  G   UNL     1      94.022  85.550  89.183  1.00  0.00     0.000 G0
ATOM     20  C   UNL     1      96.057  82.879  90.672  1.00  0.00    -0.008 C 
ATOM     21  O   UNL     1      94.808  84.502  91.883  1.00  0.00    -0.291 OA
ATOM     22  C   UNL     1      96.922  82.397  91.768  1.00  0.00     0.048 C 
BRANCH  16  23
ATOM     23  O   UNL     1      92.980  83.453  89.846  1.00  0.00    -0.381 OA
ATOM     24  H   UNL     1      93.065  82.505  89.651  1.00  0.00     0.212 HD
ENDBRANCH  16  23
ENDBRANCH   6  15
BRANCH   7  25
ATOM     25  C   UNL     1      95.905  82.011  84.053  1.00  0.00     0.135 C 
BRANCH  25  26
ATOM     26  C   UNL     1      96.451  80.606  83.997  1.00  0.00    -0.040 A 
ATOM     27  C   UNL     1      96.168  79.791  82.900  1.00  0.00     0.004 A 
ATOM     28  C   UNL     1      97.240  80.121  85.040  1.00  0.00     0.004 A 
ATOM     29  C   UNL     1      96.672  78.492  82.848  1.00  0.00     0.000 A 
ATOM     30  C   UNL     1      97.745  78.822  84.987  1.00  0.00     0.000 A 
ATOM     31  C   UNL     1      97.461  78.007  83.891  1.00  0.00     0.000 A 
ENDBRANCH  25  26
ENDBRANCH   7  25
BRANCH  14  32
ATOM     32  C   UNL     1      91.648  80.859  84.495  1.00  0.00    -0.046 C 
ATOM     33  C   UNL     1      91.685  79.388  84.204  1.00  0.00     0.042 C 
ATOM     34  C   UNL     1      90.744  81.670  83.926  1.00  0.00     0.010 C 
ENDBRANCH  14  32
ENDBRANCH   3   4
BRANCH   2  35
ATOM     35  C   UNL     1      94.024  85.572  89.160  1.00  0.00     0.078 CG0
ATOM     36  G   UNL     1      94.187  84.105  89.555  1.00  0.00     0.000 G0
ENDBRANCH   2  35
ENDBRANCH   1   2
BRANCH   1  37
ATOM     37  O   UNL     1      94.229  88.052  88.497  1.00  0.00    -0.461 OA
BRANCH  37  38
ATOM     38  C   UNL     1      94.930  89.207  88.239  1.00  0.00     0.310 C 
ATOM     39  O   UNL     1      96.128  89.359  88.431  1.00  0.00    -0.252 OA
BRANCH  38  40
ATOM     40  C   UNL     1      93.992  90.253  87.684  1.00  0.00     0.158 C 
BRANCH  40  41
ATOM     41  C   UNL     1      93.587  91.282  88.708  1.00  0.00    -0.033 A 
ATOM     42  C   UNL     1      92.501  91.038  89.550  1.00  0.00     0.054 A 
ATOM     43  C   UNL     1      94.297  92.478  88.814  1.00  0.00     0.008 A 
ATOM     44  C   UNL     1      92.126  91.990  90.498  1.00  0.00     0.160 A 
ATOM     45  C   UNL     1      93.921  93.430  89.762  1.00  0.00     0.050 A 
ATOM     46  C   UNL     1      92.836  93.187  90.603  1.00  0.00     0.157 A 
BRANCH  44  47
ATOM     47  O   UNL     1      91.064  91.741  91.314  1.00  0.00    -0.493 OA
ATOM     48  C   UNL     1      91.309  90.940  92.469  1.00  0.00     0.278 C 
ENDBRANCH  44  47
BRANCH  46  49
ATOM     49  O   UNL     1      92.480  94.123  91.526  1.00  0.00    -0.504 OA
ATOM     50  H   UNL     1      91.510  94.151  91.590  1.00  0.00     0.293 HD
ENDBRANCH  46  49
ENDBRANCH  40  41
ENDBRANCH  38  40
ENDBRANCH  37  38
ENDBRANCH   1  37
TORSDOF 11
ENDMDL
MODEL 2
REMARK VINA RESULT:    -6.792      5.852      9.058
REMARK INTER + INTRA:         -12.998
REMARK INTER:                 -12.533
REMARK INTRA:                  -0.465
REMARK UNBOUND:                -1.043
REMARK SMILES C=C(C)[C@]12C[C@@H](C)[C@@]34O[C@](Cc5ccccc5)(O[C@@H]1[C@@H]3C=C(COC(=O)Cc1ccc(O)c(OC)c1)C[C@]1(O)C(=O)C(C)=C[C@@H]41)O2
REMARK SMILES IDX 23 1 22 2 21 3 20 4 9 5 8 6 10 7 6 8 18 9 46 10 19 11 5 12
REMARK SMILES IDX 7 13 4 14 45 15 38 16 44 17 40 18 42 20 41 21 43 22 39 23
REMARK SMILES IDX 11 25 12 26 13 27 17 28 14 29 16 30 15 31 2 32 3 33 1 34
REMARK SMILES IDX 37 35 24 37 25 38 26 39 27 40 28 41 36 42 29 43 33 44 30 45
REMARK SMILES IDX 31 46 34 47 35 48 32 49
REMARK H PARENT 39 24 32 50
REMARK Flexibility Score: 90.00
ROOT
ATOM      1  C   UNL     1      93.742  77.615  84.797  1.00  0.00     0.264 C 
ENDROOT
BRANCH   1   2
ATOM      2  C   UNL     1      95.179  77.891  84.423  1.00  0.00    -0.033 C 
ATOM      3  C   UNL     1      95.456  78.891  83.562  1.00  0.00    -0.015 C 
BRANCH   3   4
ATOM      4  C   UNL     1      96.792  79.317  82.975  1.00  0.00     0.078 C 
ATOM      5  O   UNL     1      97.704  81.075  84.456  1.00  0.00    -0.319 OA
ATOM      6  C   UNL     1      97.949  79.722  83.962  1.00  0.00     0.095 C 
ATOM      7  C   UNL     1      97.258  82.022  83.467  1.00  0.00     0.289 C 
ATOM      8  C   UNL     1      99.306  79.702  83.144  1.00  0.00     0.023 C 
ATOM      9  O   UNL     1      96.063  81.580  82.829  1.00  0.00    -0.320 OA
ATOM     10  O   UNL     1      98.210  82.199  82.420  1.00  0.00    -0.313 OA
ATOM     11  C   UNL     1      96.587  80.517  82.018  1.00  0.00     0.170 C 
ATOM     12  C   UNL     1      99.085  80.121  81.659  1.00  0.00     0.049 C 
ATOM     13  C   UNL     1     100.451  80.534  83.745  1.00  0.00     0.011 C 
ATOM     14  C   UNL     1      97.928  81.111  81.516  1.00  0.00     0.122 C 
BRANCH   6  15
ATOM     15  C   UNL     1      97.923  78.832  85.238  1.00  0.00     0.086 C 
ATOM     16  C   UNL     1      97.670  77.327  85.011  1.00  0.00     0.140 CG0
ATOM     17  C   UNL     1      99.100  78.851  86.173  1.00  0.00    -0.010 C 
ATOM     18  C   UNL     1      98.507  76.688  86.099  1.00  0.00     0.190 C 
ATOM     19  G   UNL     1      96.189  76.968  85.126  1.00  0.00     0.000 G0
ATOM     20  C   UNL     1      99.436  77.667  86.695  1.00  0.00    -0.008 C 
ATOM     21  O   UNL     1      98.472  75.510  86.420  1.00  0.00    -0.291 OA
ATOM     22  C   UNL     1     100.467  77.327  87.697  1.00  0.00     0.048 C 
BRANCH  16  23
ATOM     23  O   UNL     1      98.233  76.824  83.811  1.00  0.00    -0.381 OA
ATOM     24  H   UNL     1      99.028  76.312  84.035  1.00  0.00     0.212 HD
ENDBRANCH  16  23
ENDBRANCH   6  15
BRANCH   7  25
ATOM     25  C   UNL     1      97.011  83.349  84.155  1.00  0.00     0.135 C 
BRANCH  25  26
ATOM     26  C   UNL     1      95.953  83.242  85.225  1.00  0.00    -0.040 A 
ATOM     27  C   UNL     1      96.325  83.100  86.562  1.00  0.00     0.004 A 
ATOM     28  C   UNL     1      94.603  83.287  84.879  1.00  0.00     0.004 A 
ATOM     29  C   UNL     1      95.347  83.002  87.552  1.00  0.00     0.000 A 
ATOM     30  C   UNL     1      93.625  83.188  85.868  1.00  0.00     0.000 A 
ATOM     31  C   UNL     1      93.998  83.046  87.205  1.00  0.00     0.000 A 
ENDBRANCH  25  26
ENDBRANCH   7  25
BRANCH  14  32
ATOM     32  C   UNL     1      97.813  81.665  80.134  1.00  0.00    -0.046 C 
ATOM     33  C   UNL     1      97.950  80.680  79.011  1.00  0.00     0.042 C 
ATOM     34  C   UNL     1      97.599  82.971  79.909  1.00  0.00     0.010 C 
ENDBRANCH  14  32
ENDBRANCH   3   4
BRANCH   2  35
ATOM     35  C   UNL     1      96.162  76.962  85.110  1.00  0.00     0.078 CG0
ATOM     36  G   UNL     1      97.646  77.308  84.999  1.00  0.00     0.000 G0
ENDBRANCH   2  35
ENDBRANCH   1   2
BRANCH   1  37
ATOM     37  O   UNL     1      93.044  78.837  84.905  1.00  0.00    -0.461 OA
BRANCH  37  38
ATOM     38  C   UNL     1      91.734  78.829  84.486  1.00  0.00     0.310 C 
ATOM     39  O   UNL     1      90.973  77.876  84.578  1.00  0.00    -0.252 OA
BRANCH  38  40
ATOM     40  C   UNL     1      91.385  80.175  83.897  1.00  0.00     0.158 C 
BRANCH  40  41
ATOM     41  C   UNL     1      89.941  80.552  84.107  1.00  0.00    -0.033 A 
ATOM     42  C   UNL     1      89.619  81.746  84.754  1.00  0.00     0.054 A 
ATOM     43  C   UNL     1      88.927  79.709  83.655  1.00  0.00     0.008 A 
ATOM     44  C   UNL     1      88.283  82.095  84.949  1.00  0.00     0.160 A 
ATOM     45  C   UNL     1      87.590  80.058  83.849  1.00  0.00     0.050 A 
ATOM     46  C   UNL     1      87.268  81.251  84.497  1.00  0.00     0.157 A 
BRANCH  44  47
ATOM     47  O   UNL     1      87.981  83.263  85.583  1.00  0.00    -0.493 OA
ATOM     48  C   UNL     1      87.333  84.271  84.809  1.00  0.00     0.278 C 
ENDBRANCH  44  47
BRANCH  46  49
ATOM     49  O   UNL     1      85.960  81.582  84.680  1.00  0.00    -0.504 OA
ATOM     50  H   UNL     1      85.413  80.785  84.570  1.00  0.00     0.293 HD
ENDBRANCH  46  49
ENDBRANCH  40  41
ENDBRANCH  38  40
ENDBRANCH  37  38
ENDBRANCH   1  37
TORSDOF 11
ENDMDL
MODEL 3
REMARK VINA RESULT:    -6.780      4.970     10.154
REMARK INTER + INTRA:         -12.976
REMARK INTER:                 -13.317
REMARK INTRA:                   0.340
REMARK UNBOUND:                -1.043
REMARK SMILES C=C(C)[C@]12C[C@@H](C)[C@@]34O[C@](Cc5ccccc5)(O[C@@H]1[C@@H]3C=C(COC(=O)Cc1ccc(O)c(OC)c1)C[C@]1(O)C(=O)C(C)=C[C@@H]41)O2
REMARK SMILES IDX 23 1 22 2 21 3 20 4 9 5 8 6 10 7 6 8 18 9 46 10 19 11 5 12
REMARK SMILES IDX 7 13 4 14 45 15 38 16 44 17 40 18 42 20 41 21 43 22 39 23
REMARK SMILES IDX 11 25 12 26 13 27 17 28 14 29 16 30 15 31 2 32 3 33 1 34
REMARK SMILES IDX 37 35 24 37 25 38 26 39 27 40 28 41 36 42 29 43 33 44 30 45
REMARK SMILES IDX 31 46 34 47 35 48 32 49
REMARK H PARENT 39 24 32 50
REMARK Flexibility Score: 90.00
ROOT
ATOM      1  C   UNL     1      97.060  80.745  81.191  1.00  0.00     0.264 C 
ENDROOT
BRANCH   1   2
ATOM      2  C   UNL     1      96.555  80.532  82.599  1.00  0.00    -0.033 C 
ATOM      3  C   UNL     1      95.827  81.499  83.192  1.00  0.00    -0.015 C 
BRANCH   3   4
ATOM      4  C   UNL     1      95.276  81.561  84.607  1.00  0.00     0.078 C 
ATOM      5  O   UNL     1      92.984  80.632  84.529  1.00  0.00    -0.319 OA
ATOM      6  C   UNL     1      94.316  80.409  85.088  1.00  0.00     0.095 C 
ATOM      7  C   UNL     1      92.521  81.995  84.564  1.00  0.00     0.289 C 
ATOM      8  C   UNL     1      94.238  80.478  86.669  1.00  0.00     0.023 C 
ATOM      9  O   UNL     1      93.419  82.864  83.880  1.00  0.00    -0.320 OA
ATOM     10  O   UNL     1      92.433  82.502  85.893  1.00  0.00    -0.313 OA
ATOM     11  C   UNL     1      94.508  82.890  84.815  1.00  0.00     0.170 C 
ATOM     12  C   UNL     1      94.353  81.946  87.184  1.00  0.00     0.049 C 
ATOM     13  C   UNL     1      93.005  79.811  87.299  1.00  0.00     0.011 C 
ATOM     14  C   UNL     1      93.775  82.944  86.179  1.00  0.00     0.122 C 
BRANCH   6  15
ATOM     15  C   UNL     1      94.760  79.039  84.500  1.00  0.00     0.086 C 
ATOM     16  C   UNL     1      96.276  78.753  84.512  1.00  0.00     0.140 CG0
ATOM     17  C   UNL     1      94.162  77.774  85.047  1.00  0.00    -0.010 C 
ATOM     18  C   UNL     1      96.324  77.258  84.742  1.00  0.00     0.190 C 
ATOM     19  G   UNL     1      96.952  79.166  83.205  1.00  0.00     0.000 G0
ATOM     20  C   UNL     1      95.008  76.746  85.169  1.00  0.00    -0.008 C 
ATOM     21  O   UNL     1      97.321  76.558  84.644  1.00  0.00    -0.291 OA
ATOM     22  C   UNL     1      94.758  75.351  85.586  1.00  0.00     0.048 C 
BRANCH  16  23
ATOM     23  O   UNL     1      96.953  79.291  85.636  1.00  0.00    -0.381 OA
ATOM     24  H   UNL     1      97.873  79.472  85.383  1.00  0.00     0.212 HD
ENDBRANCH  16  23
ENDBRANCH   6  15
BRANCH   7  25
ATOM     25  C   UNL     1      91.156  82.050  83.910  1.00  0.00     0.135 C 
BRANCH  25  26
ATOM     26  C   UNL     1      90.404  80.751  84.058  1.00  0.00    -0.040 A 
ATOM     27  C   UNL     1      89.017  80.760  84.203  1.00  0.00     0.004 A 
ATOM     28  C   UNL     1      91.096  79.540  84.050  1.00  0.00     0.004 A 
ATOM     29  C   UNL     1      88.321  79.558  84.340  1.00  0.00     0.000 A 
ATOM     30  C   UNL     1      90.401  78.338  84.187  1.00  0.00     0.000 A 
ATOM     31  C   UNL     1      89.014  78.348  84.332  1.00  0.00     0.000 A 
ENDBRANCH  25  26
ENDBRANCH   7  25
BRANCH  14  32
ATOM     32  C   UNL     1      93.708  84.334  86.724  1.00  0.00    -0.046 C 
ATOM     33  C   UNL     1      93.926  85.443  85.739  1.00  0.00     0.042 C 
ATOM     34  C   UNL     1      93.465  84.576  88.022  1.00  0.00     0.010 C 
ENDBRANCH  14  32
ENDBRANCH   3   4
BRANCH   2  35
ATOM     35  C   UNL     1      96.952  79.186  83.175  1.00  0.00     0.078 CG0
ATOM     36  G   UNL     1      96.279  78.758  84.479  1.00  0.00     0.000 G0
ENDBRANCH   2  35
ENDBRANCH   1   2
BRANCH   1  37
ATOM     37  O   UNL     1      97.937  79.695  80.845  1.00  0.00    -0.461 OA
BRANCH  37  38
ATOM     38  C   UNL     1      99.238  80.052  80.576  1.00  0.00     0.310 C 
ATOM     39  O   UNL     1     100.185  79.279  80.537  1.00  0.00    -0.252 OA
BRANCH  38  40
ATOM     40  C   UNL     1      99.313  81.542  80.338  1.00  0.00     0.158 C 
BRANCH  40  41
ATOM     41  C   UNL     1      99.370  81.902  78.876  1.00  0.00    -0.033 A 
ATOM     42  C   UNL     1      98.419  82.767  78.333  1.00  0.00     0.054 A 
ATOM     43  C   UNL     1     100.372  81.371  78.065  1.00  0.00     0.008 A 
ATOM     44  C   UNL     1      98.471  83.101  76.980  1.00  0.00     0.160 A 
ATOM     45  C   UNL     1     100.425  81.704  76.712  1.00  0.00     0.050 A 
ATOM     46  C   UNL     1      99.475  82.568  76.169  1.00  0.00     0.157 A 
BRANCH  44  47
ATOM     47  O   UNL     1      97.537  83.946  76.461  1.00  0.00    -0.493 OA
ATOM     48  C   UNL     1      96.343  84.136  77.219  1.00  0.00     0.278 C 
ENDBRANCH  44  47
BRANCH  46  49
ATOM     49  O   UNL     1      99.536  82.887  74.846  1.00  0.00    -0.504 OA
ATOM     50  H   UNL     1     100.415  83.254  74.649  1.00  0.00     0.293 HD
ENDBRANCH  46  49
ENDBRANCH  40  41
ENDBRANCH  38  40
ENDBRANCH  37  38
ENDBRANCH   1  37
TORSDOF 11
ENDMDL
MODEL 4
REMARK VINA RESULT:    -6.648      6.281      9.968
REMARK INTER + INTRA:         -12.744
REMARK INTER:                 -11.398
REMARK INTRA:                  -1.346
REMARK UNBOUND:                -1.043
REMARK SMILES C=C(C)[C@]12C[C@@H](C)[C@@]34O[C@](Cc5ccccc5)(O[C@@H]1[C@@H]3C=C(COC(=O)Cc1ccc(O)c(OC)c1)C[C@]1(O)C(=O)C(C)=C[C@@H]41)O2
REMARK SMILES IDX 23 1 22 2 21 3 20 4 9 5 8 6 10 7 6 8 18 9 46 10 19 11 5 12
REMARK SMILES IDX 7 13 4 14 45 15 38 16 44 17 40 18 42 20 41 21 43 22 39 23
REMARK SMILES IDX 11 25 12 26 13 27 17 28 14 29 16 30 15 31 2 32 3 33 1 34
REMARK SMILES IDX 37 35 24 37 25 38 26 39 27 40 28 41 36 42 29 43 33 44 30 45
REMARK SMILES IDX 31 46 34 47 35 48 32 49
REMARK H PARENT 39 24 32 50
REMARK Flexibility Score: 90.00
ROOT
ATOM      1  C   UNL     1      95.283  82.551  83.564  1.00  0.00     0.264 C 
ENDROOT
BRANCH   1   2
ATOM      2  C   UNL     1      96.572  82.192  82.862  1.00  0.00    -0.033 C 
ATOM      3  C   UNL     1      97.448  81.369  83.474  1.00  0.00    -0.015 C 
BRANCH   3   4
ATOM      4  C   UNL     1      98.829  80.923  83.021  1.00  0.00     0.078 C 
ATOM      5  O   UNL     1      98.531  78.802  81.784  1.00  0.00    -0.319 OA
ATOM      6  C   UNL     1      98.962  80.190  81.635  1.00  0.00     0.095 C 
ATOM      7  C   UNL     1      98.989  78.139  82.977  1.00  0.00     0.289 C 
ATOM      8  C   UNL     1     100.491  80.221  81.220  1.00  0.00     0.023 C 
ATOM      9  O   UNL     1      98.578  78.839  84.149  1.00  0.00    -0.320 OA
ATOM     10  O   UNL     1     100.411  78.074  83.048  1.00  0.00    -0.313 OA
ATOM     11  C   UNL     1      99.449  79.978  84.080  1.00  0.00     0.170 C 
ATOM     12  C   UNL     1     101.423  80.148  82.468  1.00  0.00     0.049 C 
ATOM     13  C   UNL     1     100.919  79.156  80.198  1.00  0.00     0.011 C 
ATOM     14  C   UNL     1     100.784  79.350  83.606  1.00  0.00     0.122 C 
BRANCH   6  15
ATOM     15  C   UNL     1      97.974  80.794  80.594  1.00  0.00     0.086 C 
ATOM     16  C   UNL     1      97.857  82.332  80.581  1.00  0.00     0.140 CG0
ATOM     17  C   UNL     1      98.130  80.442  79.141  1.00  0.00    -0.010 C 
ATOM     18  C   UNL     1      97.623  82.629  79.115  1.00  0.00     0.190 C 
ATOM     19  G   UNL     1      96.718  82.832  81.468  1.00  0.00     0.000 G0
ATOM     20  C   UNL     1      97.912  81.445  78.284  1.00  0.00    -0.008 C 
ATOM     21  O   UNL     1      97.290  83.711  78.656  1.00  0.00    -0.291 OA
ATOM     22  C   UNL     1      97.894  81.446  76.806  1.00  0.00     0.048 C 
BRANCH  16  23
ATOM     23  O   UNL     1      99.072  83.002  80.873  1.00  0.00    -0.381 OA
ATOM     24  H   UNL     1      99.035  83.322  81.789  1.00  0.00     0.212 HD
ENDBRANCH  16  23
ENDBRANCH   6  15
BRANCH   7  25
ATOM     25  C   UNL     1      98.417  76.736  82.992  1.00  0.00     0.135 C 
BRANCH  25  26
ATOM     26  C   UNL     1      97.049  76.690  83.627  1.00  0.00    -0.040 A 
ATOM     27  C   UNL     1      96.876  76.067  84.864  1.00  0.00     0.004 A 
ATOM     28  C   UNL     1      95.959  77.271  82.980  1.00  0.00     0.004 A 
ATOM     29  C   UNL     1      95.611  76.024  85.452  1.00  0.00     0.000 A 
ATOM     30  C   UNL     1      94.695  77.228  83.569  1.00  0.00     0.000 A 
ATOM     31  C   UNL     1      94.522  76.605  84.805  1.00  0.00     0.000 A 
ENDBRANCH  25  26
ENDBRANCH   7  25
BRANCH  14  32
ATOM     32  C   UNL     1     101.726  79.111  84.740  1.00  0.00    -0.046 C 
ATOM     33  C   UNL     1     102.217  77.704  84.908  1.00  0.00     0.042 C 
ATOM     34  C   UNL     1     102.112  80.099  85.562  1.00  0.00     0.010 C 
ENDBRANCH  14  32
ENDBRANCH   3   4
BRANCH   2  35
ATOM     35  C   UNL     1      96.703  82.834  81.494  1.00  0.00     0.078 CG0
ATOM     36  G   UNL     1      97.834  82.337  80.595  1.00  0.00     0.000 G0
ENDBRANCH   2  35
ENDBRANCH   1   2
BRANCH   1  37
ATOM     37  O   UNL     1      95.205  81.849  84.786  1.00  0.00    -0.461 OA
BRANCH  37  38
ATOM     38  C   UNL     1      94.080  82.073  85.546  1.00  0.00     0.310 C 
ATOM     39  O   UNL     1      94.051  82.092  86.768  1.00  0.00    -0.252 OA
BRANCH  38  40
ATOM     40  C   UNL     1      92.893  82.289  84.637  1.00  0.00     0.158 C 
BRANCH  40  41
ATOM     41  C   UNL     1      92.018  81.068  84.512  1.00  0.00    -0.033 A 
ATOM     42  C   UNL     1      90.721  81.188  84.013  1.00  0.00     0.054 A 
ATOM     43  C   UNL     1      92.506  79.819  84.894  1.00  0.00     0.008 A 
ATOM     44  C   UNL     1      89.911  80.058  83.897  1.00  0.00     0.160 A 
ATOM     45  C   UNL     1      91.696  78.688  84.778  1.00  0.00     0.050 A 
ATOM     46  C   UNL     1      90.399  78.808  84.279  1.00  0.00     0.157 A 
BRANCH  44  47
ATOM     47  O   UNL     1      88.646  80.188  83.409  1.00  0.00    -0.493 OA
ATOM     48  C   UNL     1      87.592  80.309  84.363  1.00  0.00     0.278 C 
ENDBRANCH  44  47
BRANCH  46  49
ATOM     49  O   UNL     1      89.618  77.698  84.169  1.00  0.00    -0.504 OA
ATOM     50  H   UNL     1      89.207  77.686  83.289  1.00  0.00     0.293 HD
ENDBRANCH  46  49
ENDBRANCH  40  41
ENDBRANCH  38  40
ENDBRANCH  37  38
ENDBRANCH   1  37
TORSDOF 11
ENDMDL
MODEL 5
REMARK VINA RESULT:    -6.619     26.763     30.983
REMARK INTER + INTRA:         -12.693
REMARK INTER:                 -11.608
REMARK INTRA:                  -1.085
REMARK UNBOUND:                -1.043
REMARK SMILES C=C(C)[C@]12C[C@@H](C)[C@@]34O[C@](Cc5ccccc5)(O[C@@H]1[C@@H]3C=C(COC(=O)Cc1ccc(O)c(OC)c1)C[C@]1(O)C(=O)C(C)=C[C@@H]41)O2
REMARK SMILES IDX 23 1 22 2 21 3 20 4 9 5 8 6 10 7 6 8 18 9 46 10 19 11 5 12
REMARK SMILES IDX 7 13 4 14 45 15 38 16 44 17 40 18 42 20 41 21 43 22 39 23
REMARK SMILES IDX 11 25 12 26 13 27 17 28 14 29 16 30 15 31 2 32 3 33 1 34
REMARK SMILES IDX 37 35 24 37 25 38 26 39 27 40 28 41 36 42 29 43 33 44 30 45
REMARK SMILES IDX 31 46 34 47 35 48 32 49
REMARK H PARENT 39 24 32 50
REMARK Flexibility Score: 90.00
ROOT
ATOM      1  C   UNL     1      70.528  85.764  66.461  1.00  0.00     0.264 C 
ENDROOT
BRANCH   1   2
ATOM      2  C   UNL     1      71.878  86.437  66.370  1.00  0.00    -0.033 C 
ATOM      3  C   UNL     1      72.011  87.709  66.794  1.00  0.00    -0.015 C 
BRANCH   3   4
ATOM      4  C   UNL     1      73.225  88.623  66.739  1.00  0.00     0.078 C 
ATOM      5  O   UNL     1      74.429  88.350  68.883  1.00  0.00    -0.319 OA
ATOM      6  C   UNL     1      74.551  88.148  67.441  1.00  0.00     0.095 C 
ATOM      7  C   UNL     1      73.829  89.598  69.281  1.00  0.00     0.289 C 
ATOM      8  C   UNL     1      75.735  89.043  66.885  1.00  0.00     0.023 C 
ATOM      9  O   UNL     1      72.528  89.749  68.719  1.00  0.00    -0.320 OA
ATOM     10  O   UNL     1      74.576  90.725  68.831  1.00  0.00    -0.313 OA
ATOM     11  C   UNL     1      72.873  90.002  67.349  1.00  0.00     0.170 C 
ATOM     12  C   UNL     1      75.253  90.491  66.563  1.00  0.00     0.049 C 
ATOM     13  C   UNL     1      76.987  89.108  67.775  1.00  0.00     0.011 C 
ATOM     14  C   UNL     1      74.110  90.925  67.481  1.00  0.00     0.122 C 
BRANCH   6  15
ATOM     15  C   UNL     1      74.742  86.612  67.279  1.00  0.00     0.086 C 
ATOM     16  C   UNL     1      74.417  86.029  65.888  1.00  0.00     0.140 CG0
ATOM     17  C   UNL     1      76.071  85.995  67.615  1.00  0.00    -0.010 C 
ATOM     18  C   UNL     1      75.427  84.908  65.760  1.00  0.00     0.190 C 
ATOM     19  G   UNL     1      72.976  85.532  65.793  1.00  0.00     0.000 G0
ATOM     20  C   UNL     1      76.471  85.016  66.797  1.00  0.00    -0.008 C 
ATOM     21  O   UNL     1      75.425  84.049  64.892  1.00  0.00    -0.291 OA
ATOM     22  C   UNL     1      77.662  84.144  66.867  1.00  0.00     0.048 C 
BRANCH  16  23
ATOM     23  O   UNL     1      74.738  86.897  64.813  1.00  0.00    -0.381 OA
ATOM     24  H   UNL     1      74.845  87.796  65.166  1.00  0.00     0.212 HD
ENDBRANCH  16  23
ENDBRANCH   6  15
BRANCH   7  25
ATOM     25  C   UNL     1      73.740  89.621  70.794  1.00  0.00     0.135 C 
BRANCH  25  26
ATOM     26  C   UNL     1      73.494  91.011  71.324  1.00  0.00    -0.040 A 
ATOM     27  C   UNL     1      72.194  91.431  71.605  1.00  0.00     0.004 A 
ATOM     28  C   UNL     1      74.567  91.877  71.537  1.00  0.00     0.004 A 
ATOM     29  C   UNL     1      71.966  92.717  72.096  1.00  0.00     0.000 A 
ATOM     30  C   UNL     1      74.340  93.163  72.028  1.00  0.00     0.000 A 
ATOM     31  C   UNL     1      73.039  93.582  72.307  1.00  0.00     0.000 A 
ENDBRANCH  25  26
ENDBRANCH   7  25
BRANCH  14  32
ATOM     32  C   UNL     1      73.755  92.367  67.314  1.00  0.00    -0.046 C 
ATOM     33  C   UNL     1      74.281  93.040  66.081  1.00  0.00     0.042 C 
ATOM     34  C   UNL     1      73.008  93.022  68.215  1.00  0.00     0.010 C 
ENDBRANCH  14  32
ENDBRANCH   3   4
BRANCH   2  35
ATOM     35  C   UNL     1      72.953  85.536  65.790  1.00  0.00     0.078 CG0
ATOM     36  G   UNL     1      74.399  86.018  65.894  1.00  0.00     0.000 G0
ENDBRANCH   2  35
ENDBRANCH   1   2
BRANCH   1  37
ATOM     37  O   UNL     1      70.677  84.499  67.069  1.00  0.00    -0.461 OA
BRANCH  37  38
ATOM     38  C   UNL     1      69.787  84.199  68.075  1.00  0.00     0.310 C 
ATOM     39  O   UNL     1      69.855  83.219  68.804  1.00  0.00    -0.252 OA
BRANCH  38  40
ATOM     40  C   UNL     1      68.718  85.265  68.137  1.00  0.00     0.158 C 
BRANCH  40  41
ATOM     41  C   UNL     1      67.401  84.747  68.653  1.00  0.00    -0.033 A 
ATOM     42  C   UNL     1      66.567  84.005  67.815  1.00  0.00     0.054 A 
ATOM     43  C   UNL     1      67.015  85.007  69.968  1.00  0.00     0.008 A 
ATOM     44  C   UNL     1      65.347  83.525  68.293  1.00  0.00     0.160 A 
ATOM     45  C   UNL     1      65.795  84.527  70.445  1.00  0.00     0.050 A 
ATOM     46  C   UNL     1      64.961  83.786  69.608  1.00  0.00     0.157 A 
BRANCH  44  47
ATOM     47  O   UNL     1      64.542  82.802  67.466  1.00  0.00    -0.493 OA
ATOM     48  C   UNL     1      64.805  81.404  67.362  1.00  0.00     0.278 C 
ENDBRANCH  44  47
BRANCH  46  49
ATOM     49  O   UNL     1      63.773  83.322  70.086  1.00  0.00    -0.504 OA
ATOM     50  H   UNL     1      63.879  83.086  71.023  1.00  0.00     0.293 HD
ENDBRANCH  46  49
ENDBRANCH  40  41
ENDBRANCH  38  40
ENDBRANCH  37  38
ENDBRANCH   1  37
TORSDOF 11
ENDMDL
MODEL 6
REMARK VINA RESULT:    -6.161     26.691     30.299
REMARK INTER + INTRA:         -11.886
REMARK INTER:                 -10.810
REMARK INTRA:                  -1.076
REMARK UNBOUND:                -1.043
REMARK SMILES C=C(C)[C@]12C[C@@H](C)[C@@]34O[C@](Cc5ccccc5)(O[C@@H]1[C@@H]3C=C(COC(=O)Cc1ccc(O)c(OC)c1)C[C@]1(O)C(=O)C(C)=C[C@@H]41)O2
REMARK SMILES IDX 23 1 22 2 21 3 20 4 9 5 8 6 10 7 6 8 18 9 46 10 19 11 5 12
REMARK SMILES IDX 7 13 4 14 45 15 38 16 44 17 40 18 42 20 41 21 43 22 39 23
REMARK SMILES IDX 11 25 12 26 13 27 17 28 14 29 16 30 15 31 2 32 3 33 1 34
REMARK SMILES IDX 37 35 24 37 25 38 26 39 27 40 28 41 36 42 29 43 33 44 30 45
REMARK SMILES IDX 31 46 34 47 35 48 32 49
REMARK H PARENT 39 24 32 50
REMARK Flexibility Score: 90.00
ROOT
ATOM      1  C   UNL     1      70.348  85.937  66.935  1.00  0.00     0.264 C 
ENDROOT
BRANCH   1   2
ATOM      2  C   UNL     1      71.714  86.560  66.768  1.00  0.00    -0.033 C 
ATOM      3  C   UNL     1      71.888  87.860  67.080  1.00  0.00    -0.015 C 
BRANCH   3   4
ATOM      4  C   UNL     1      73.125  88.731  66.931  1.00  0.00     0.078 C 
ATOM      5  O   UNL     1      74.362  88.596  69.069  1.00  0.00    -0.319 OA
ATOM      6  C   UNL     1      74.452  88.275  67.647  1.00  0.00     0.095 C 
ATOM      7  C   UNL     1      73.805  89.888  69.376  1.00  0.00     0.289 C 
ATOM      8  C   UNL     1      75.649  89.088  67.001  1.00  0.00     0.023 C 
ATOM      9  O   UNL     1      72.498  90.032  68.826  1.00  0.00    -0.320 OA
ATOM     10  O   UNL     1      74.574  90.954  68.824  1.00  0.00    -0.313 OA
ATOM     11  C   UNL     1      72.824  90.164  67.433  1.00  0.00     0.170 C 
ATOM     12  C   UNL     1      75.201  90.519  66.570  1.00  0.00     0.049 C 
ATOM     13  C   UNL     1      76.919  89.187  67.861  1.00  0.00     0.011 C 
ATOM     14  C   UNL     1      74.088  91.058  67.470  1.00  0.00     0.122 C 
BRANCH   6  15
ATOM     15  C   UNL     1      74.597  86.727  67.606  1.00  0.00     0.086 C 
ATOM     16  C   UNL     1      74.231  86.044  66.271  1.00  0.00     0.140 CG0
ATOM     17  C   UNL     1      75.914  86.100  67.970  1.00  0.00    -0.010 C 
ATOM     18  C   UNL     1      75.207  84.887  66.219  1.00  0.00     0.190 C 
ATOM     19  G   UNL     1      72.775  85.583  66.239  1.00  0.00     0.000 G0
ATOM     20  C   UNL     1      76.272  85.048  67.227  1.00  0.00    -0.008 C 
ATOM     21  O   UNL     1      75.166  83.962  65.423  1.00  0.00    -0.291 OA
ATOM     22  C   UNL     1      77.439  84.150  67.349  1.00  0.00     0.048 C 
BRANCH  16  23
ATOM     23  O   UNL     1      74.557  86.813  65.126  1.00  0.00    -0.381 OA
ATOM     24  H   UNL     1      75.477  86.623  64.879  1.00  0.00     0.212 HD
ENDBRANCH  16  23
ENDBRANCH   6  15
BRANCH   7  25
ATOM     25  C   UNL     1      73.745  90.035  70.883  1.00  0.00     0.135 C 
BRANCH  25  26
ATOM     26  C   UNL     1      73.468  91.458  71.302  1.00  0.00    -0.040 A 
ATOM     27  C   UNL     1      72.152  91.902  71.432  1.00  0.00     0.004 A 
ATOM     28  C   UNL     1      74.526  92.328  71.560  1.00  0.00     0.004 A 
ATOM     29  C   UNL     1      71.895  93.218  71.819  1.00  0.00     0.000 A 
ATOM     30  C   UNL     1      74.269  93.644  71.948  1.00  0.00     0.000 A 
ATOM     31  C   UNL     1      72.953  94.088  72.077  1.00  0.00     0.000 A 
ENDBRANCH  25  26
ENDBRANCH   7  25
BRANCH  14  32
ATOM     32  C   UNL     1      73.770  92.492  67.193  1.00  0.00    -0.046 C 
ATOM     33  C   UNL     1      73.511  92.848  65.759  1.00  0.00     0.042 C 
ATOM     34  C   UNL     1      73.719  93.409  68.171  1.00  0.00     0.010 C 
ENDBRANCH  14  32
ENDBRANCH   3   4
BRANCH   2  35
ATOM     35  C   UNL     1      72.755  85.583  66.254  1.00  0.00     0.078 CG0
ATOM     36  G   UNL     1      74.208  86.054  66.239  1.00  0.00     0.000 G0
ENDBRANCH   2  35
ENDBRANCH   1   2
BRANCH   1  37
ATOM     37  O   UNL     1      70.490  84.550  67.150  1.00  0.00    -0.461 OA
BRANCH  37  38
ATOM     38  C   UNL     1      70.615  84.146  68.459  1.00  0.00     0.310 C 
ATOM     39  O   UNL     1      71.564  84.404  69.187  1.00  0.00    -0.252 OA
BRANCH  38  40
ATOM     40  C   UNL     1      69.401  83.339  68.856  1.00  0.00     0.158 C 
BRANCH  40  41
ATOM     41  C   UNL     1      68.362  84.157  69.580  1.00  0.00    -0.033 A 
ATOM     42  C   UNL     1      68.756  85.205  70.414  1.00  0.00     0.054 A 
ATOM     43  C   UNL     1      67.008  83.867  69.417  1.00  0.00     0.008 A 
ATOM     44  C   UNL     1      67.795  85.961  71.084  1.00  0.00     0.160 A 
ATOM     45  C   UNL     1      66.047  84.624  70.088  1.00  0.00     0.050 A 
ATOM     46  C   UNL     1      66.440  85.670  70.921  1.00  0.00     0.157 A 
BRANCH  44  47
ATOM     47  O   UNL     1      68.192  86.981  71.895  1.00  0.00    -0.493 OA
ATOM     48  C   UNL     1      68.513  88.221  71.268  1.00  0.00     0.278 C 
ENDBRANCH  44  47
BRANCH  46  49
ATOM     49  O   UNL     1      65.493  86.403  71.570  1.00  0.00    -0.504 OA
ATOM     50  H   UNL     1      64.835  86.713  70.924  1.00  0.00     0.293 HD
ENDBRANCH  46  49
ENDBRANCH  40  41
ENDBRANCH  38  40
ENDBRANCH  37  38
ENDBRANCH   1  37
TORSDOF 11
ENDMDL
MODEL 7
REMARK VINA RESULT:    -5.643      5.731      9.121
REMARK INTER + INTRA:         -10.974
REMARK INTER:                  -9.268
REMARK INTRA:                  -1.706
REMARK UNBOUND:                -1.043
REMARK SMILES C=C(C)[C@]12C[C@@H](C)[C@@]34O[C@](Cc5ccccc5)(O[C@@H]1[C@@H]3C=C(COC(=O)Cc1ccc(O)c(OC)c1)C[C@]1(O)C(=O)C(C)=C[C@@H]41)O2
REMARK SMILES IDX 23 1 22 2 21 3 20 4 9 5 8 6 10 7 6 8 18 9 46 10 19 11 5 12
REMARK SMILES IDX 7 13 4 14 45 15 38 16 44 17 40 18 42 20 41 21 43 22 39 23
REMARK SMILES IDX 11 25 12 26 13 27 17 28 14 29 16 30 15 31 2 32 3 33 1 34
REMARK SMILES IDX 37 35 24 37 25 38 26 39 27 40 28 41 36 42 29 43 33 44 30 45
REMARK SMILES IDX 31 46 34 47 35 48 32 49
REMARK H PARENT 39 24 32 50
REMARK Flexibility Score: 90.00
ROOT
ATOM      1  C   UNL     1      92.866  76.843  83.952  1.00  0.00     0.264 C 
ENDROOT
BRANCH   1   2
ATOM      2  C   UNL     1      94.365  76.685  84.054  1.00  0.00    -0.033 C 
ATOM      3  C   UNL     1      95.153  77.246  83.115  1.00  0.00    -0.015 C 
BRANCH   3   4
ATOM      4  C   UNL     1      96.662  77.169  82.949  1.00  0.00     0.078 C 
ATOM      5  O   UNL     1      97.617  79.120  84.133  1.00  0.00    -0.319 OA
ATOM      6  C   UNL     1      97.571  77.660  84.137  1.00  0.00     0.095 C 
ATOM      7  C   UNL     1      97.763  79.729  82.836  1.00  0.00     0.289 C 
ATOM      8  C   UNL     1      99.029  77.090  83.891  1.00  0.00     0.023 C 
ATOM      9  O   UNL     1      96.712  79.335  81.958  1.00  0.00    -0.320 OA
ATOM     10  O   UNL     1      98.972  79.339  82.189  1.00  0.00    -0.313 OA
ATOM     11  C   UNL     1      97.095  77.975  81.700  1.00  0.00     0.170 C 
ATOM     12  C   UNL     1      99.358  76.999  82.369  1.00  0.00     0.049 C 
ATOM     13  C   UNL     1     100.161  77.839  84.615  1.00  0.00     0.011 C 
ATOM     14  C   UNL     1      98.635  78.082  81.568  1.00  0.00     0.122 C 
BRANCH   6  15
ATOM     15  C   UNL     1      96.933  77.295  85.508  1.00  0.00     0.086 C 
ATOM     16  C   UNL     1      96.311  75.887  85.615  1.00  0.00     0.140 CG0
ATOM     17  C   UNL     1      97.759  77.408  86.758  1.00  0.00    -0.010 C 
ATOM     18  C   UNL     1      96.588  75.516  87.057  1.00  0.00     0.190 C 
ATOM     19  G   UNL     1      94.818  75.889  85.288  1.00  0.00     0.000 G0
ATOM     20  C   UNL     1      97.568  76.439  87.660  1.00  0.00    -0.008 C 
ATOM     21  O   UNL     1      96.114  74.556  87.645  1.00  0.00    -0.291 OA
ATOM     22  C   UNL     1      98.135  76.275  89.015  1.00  0.00     0.048 C 
BRANCH  16  23
ATOM     23  O   UNL     1      97.002  74.896  84.872  1.00  0.00    -0.381 OA
ATOM     24  H   UNL     1      97.924  74.873  85.175  1.00  0.00     0.212 HD
ENDBRANCH  16  23
ENDBRANCH   6  15
BRANCH   7  25
ATOM     25  C   UNL     1      97.746  81.234  83.012  1.00  0.00     0.135 C 
BRANCH  25  26
ATOM     26  C   UNL     1      97.762  81.958  81.689  1.00  0.00    -0.040 A 
ATOM     27  C   UNL     1      96.701  82.794  81.339  1.00  0.00     0.004 A 
ATOM     28  C   UNL     1      98.837  81.795  80.817  1.00  0.00     0.004 A 
ATOM     29  C   UNL     1      96.715  83.464  80.115  1.00  0.00     0.000 A 
ATOM     30  C   UNL     1      98.852  82.465  79.593  1.00  0.00     0.000 A 
ATOM     31  C   UNL     1      97.790  83.299  79.243  1.00  0.00     0.000 A 
ENDBRANCH  25  26
ENDBRANCH   7  25
BRANCH  14  32
ATOM     32  C   UNL     1      99.074  78.129  80.141  1.00  0.00    -0.046 C 
ATOM     33  C   UNL     1      97.996  77.967  79.110  1.00  0.00     0.042 C 
ATOM     34  C   UNL     1     100.359  78.307  79.799  1.00  0.00     0.010 C 
ENDBRANCH  14  32
ENDBRANCH   3   4
BRANCH   2  35
ATOM     35  C   UNL     1      94.798  75.881  85.266  1.00  0.00     0.078 CG0
ATOM     36  G   UNL     1      96.283  75.901  85.624  1.00  0.00     0.000 G0
ENDBRANCH   2  35
ENDBRANCH   1   2
BRANCH   1  37
ATOM     37  O   UNL     1      92.540  78.216  83.964  1.00  0.00    -0.461 OA
BRANCH  37  38
ATOM     38  C   UNL     1      91.230  78.528  84.246  1.00  0.00     0.310 C 
ATOM     39  O   UNL     1      90.324  77.714  84.365  1.00  0.00    -0.252 OA
BRANCH  38  40
ATOM     40  C   UNL     1      91.087  80.025  84.385  1.00  0.00     0.158 C 
BRANCH  40  41
ATOM     41  C   UNL     1      92.168  80.643  85.233  1.00  0.00    -0.033 A 
ATOM     42  C   UNL     1      93.167  81.414  84.637  1.00  0.00     0.054 A 
ATOM     43  C   UNL     1      92.171  80.445  86.614  1.00  0.00     0.008 A 
ATOM     44  C   UNL     1      94.168  81.986  85.422  1.00  0.00     0.160 A 
ATOM     45  C   UNL     1      93.172  81.017  87.399  1.00  0.00     0.050 A 
ATOM     46  C   UNL     1      94.171  81.787  86.803  1.00  0.00     0.157 A 
BRANCH  44  47
ATOM     47  O   UNL     1      95.138  82.736  84.828  1.00  0.00    -0.493 OA
ATOM     48  C   UNL     1      94.898  84.138  84.719  1.00  0.00     0.278 C 
ENDBRANCH  44  47
BRANCH  46  49
ATOM     49  O   UNL     1      95.143  82.342  87.580  1.00  0.00    -0.504 OA
ATOM     50  H   UNL     1      95.949  81.803  87.511  1.00  0.00     0.293 HD
ENDBRANCH  46  49
ENDBRANCH  40  41
ENDBRANCH  38  40
ENDBRANCH  37  38
ENDBRANCH   1  37
TORSDOF 11
ENDMDL
MODEL 8
REMARK VINA RESULT:    -5.599      4.921     13.655
REMARK INTER + INTRA:         -10.898
REMARK INTER:                  -9.976
REMARK INTRA:                  -0.922
REMARK UNBOUND:                -1.043
REMARK SMILES C=C(C)[C@]12C[C@@H](C)[C@@]34O[C@](Cc5ccccc5)(O[C@@H]1[C@@H]3C=C(COC(=O)Cc1ccc(O)c(OC)c1)C[C@]1(O)C(=O)C(C)=C[C@@H]41)O2
REMARK SMILES IDX 23 1 22 2 21 3 20 4 9 5 8 6 10 7 6 8 18 9 46 10 19 11 5 12
REMARK SMILES IDX 7 13 4 14 45 15 38 16 44 17 40 18 42 20 41 21 43 22 39 23
REMARK SMILES IDX 11 25 12 26 13 27 17 28 14 29 16 30 15 31 2 32 3 33 1 34
REMARK SMILES IDX 37 35 24 37 25 38 26 39 27 40 28 41 36 42 29 43 33 44 30 45
REMARK SMILES IDX 31 46 34 47 35 48 32 49
REMARK H PARENT 39 24 32 50
REMARK Flexibility Score: 90.00
ROOT
ATOM      1  C   UNL     1      92.244  91.202  90.696  1.00  0.00     0.264 C 
ENDROOT
BRANCH   1   2
ATOM      2  C   UNL     1      92.632  92.662  90.691  1.00  0.00    -0.033 C 
ATOM      3  C   UNL     1      91.672  93.599  90.826  1.00  0.00    -0.015 C 
BRANCH   3   4
ATOM      4  C   UNL     1      91.789  95.114  90.777  1.00  0.00     0.078 C 
ATOM      5  O   UNL     1      92.130  95.886  93.102  1.00  0.00    -0.319 OA
ATOM      6  C   UNL     1      92.766  95.822  91.788  1.00  0.00     0.095 C 
ATOM      7  C   UNL     1      90.737  96.251  93.096  1.00  0.00     0.289 C 
ATOM      8  C   UNL     1      93.021  97.294  91.258  1.00  0.00     0.023 C 
ATOM      9  O   UNL     1      89.971  95.353  92.296  1.00  0.00    -0.320 OA
ATOM     10  O   UNL     1      90.519  97.544  92.538  1.00  0.00    -0.313 OA
ATOM     11  C   UNL     1      90.396  95.757  90.986  1.00  0.00     0.170 C 
ATOM     12  C   UNL     1      91.763  97.867  90.536  1.00  0.00     0.049 C 
ATOM     13  C   UNL     1      93.506  98.300  92.314  1.00  0.00     0.011 C 
ATOM     14  C   UNL     1      90.468  97.298  91.117  1.00  0.00     0.122 C 
BRANCH   6  15
ATOM     15  C   UNL     1      94.043  94.963  92.016  1.00  0.00     0.086 C 
ATOM     16  C   UNL     1      94.657  94.312  90.759  1.00  0.00     0.140 CG0
ATOM     17  C   UNL     1      95.229  95.575  92.707  1.00  0.00    -0.010 C 
ATOM     18  C   UNL     1      96.139  94.344  91.067  1.00  0.00     0.190 C 
ATOM     19  G   UNL     1      94.138  92.893  90.533  1.00  0.00     0.000 G0
ATOM     20  C   UNL     1      96.422  95.226  92.215  1.00  0.00    -0.008 C 
ATOM     21  O   UNL     1      97.007  93.767  90.430  1.00  0.00    -0.291 OA
ATOM     22  C   UNL     1      97.781  95.561  92.687  1.00  0.00     0.048 C 
BRANCH  16  23
ATOM     23  O   UNL     1      94.537  95.100  89.587  1.00  0.00    -0.381 OA
ATOM     24  H   UNL     1      93.814  94.740  89.048  1.00  0.00     0.212 HD
ENDBRANCH  16  23
ENDBRANCH   6  15
BRANCH   7  25
ATOM     25  C   UNL     1      90.231  96.224  94.524  1.00  0.00     0.135 C 
BRANCH  25  26
ATOM     26  C   UNL     1      88.889  95.544  94.636  1.00  0.00    -0.040 A 
ATOM     27  C   UNL     1      87.717  96.282  94.466  1.00  0.00     0.004 A 
ATOM     28  C   UNL     1      88.820  94.178  94.908  1.00  0.00     0.004 A 
ATOM     29  C   UNL     1      86.476  95.653  94.569  1.00  0.00     0.000 A 
ATOM     30  C   UNL     1      87.578  93.549  95.011  1.00  0.00     0.000 A 
ATOM     31  C   UNL     1      86.407  94.288  94.842  1.00  0.00     0.000 A 
ENDBRANCH  25  26
ENDBRANCH   7  25
BRANCH  14  32
ATOM     32  C   UNL     1      89.250  97.966  90.568  1.00  0.00    -0.046 C 
ATOM     33  C   UNL     1      89.473  98.921  89.433  1.00  0.00     0.042 C 
ATOM     34  C   UNL     1      88.025  97.725  91.061  1.00  0.00     0.010 C 
ENDBRANCH  14  32
ENDBRANCH   3   4
BRANCH   2  35
ATOM     35  C   UNL     1      94.125  92.880  90.536  1.00  0.00     0.078 CG0
ATOM     36  G   UNL     1      94.654  94.292  90.782  1.00  0.00     0.000 G0
ENDBRANCH   2  35
ENDBRANCH   1   2
BRANCH   1  37
ATOM     37  O   UNL     1      92.970  90.528  91.701  1.00  0.00    -0.461 OA
BRANCH  37  38
ATOM     38  C   UNL     1      92.940  89.154  91.657  1.00  0.00     0.310 C 
ATOM     39  O   UNL     1      93.602  88.413  92.370  1.00  0.00    -0.252 OA
BRANCH  38  40
ATOM     40  C   UNL     1      91.966  88.705  90.593  1.00  0.00     0.158 C 
BRANCH  40  41
ATOM     41  C   UNL     1      92.613  87.866  89.521  1.00  0.00    -0.033 A 
ATOM     42  C   UNL     1      93.251  88.482  88.443  1.00  0.00     0.054 A 
ATOM     43  C   UNL     1      92.574  86.474  89.605  1.00  0.00     0.008 A 
ATOM     44  C   UNL     1      93.849  87.705  87.451  1.00  0.00     0.160 A 
ATOM     45  C   UNL     1      93.172  85.698  88.613  1.00  0.00     0.050 A 
ATOM     46  C   UNL     1      93.810  86.313  87.535  1.00  0.00     0.157 A 
BRANCH  44  47
ATOM     47  O   UNL     1      94.468  88.318  86.404  1.00  0.00    -0.493 OA
ATOM     48  C   UNL     1      94.812  89.693  86.568  1.00  0.00     0.278 C 
ENDBRANCH  44  47
BRANCH  46  49
ATOM     49  O   UNL     1      94.391  85.545  86.573  1.00  0.00    -0.504 OA
ATOM     50  H   UNL     1      95.301  85.335  86.843  1.00  0.00     0.293 HD
ENDBRANCH  46  49
ENDBRANCH  40  41
ENDBRANCH  38  40
ENDBRANCH  37  38
ENDBRANCH   1  37
TORSDOF 11
ENDMDL
MODEL 9
REMARK VINA RESULT:    -5.577     19.001     23.439
REMARK INTER + INTRA:         -10.860
REMARK INTER:                 -10.322
REMARK INTRA:                  -0.538
REMARK UNBOUND:                -1.043
REMARK SMILES C=C(C)[C@]12C[C@@H](C)[C@@]34O[C@](Cc5ccccc5)(O[C@@H]1[C@@H]3C=C(COC(=O)Cc1ccc(O)c(OC)c1)C[C@]1(O)C(=O)C(C)=C[C@@H]41)O2
REMARK SMILES IDX 23 1 22 2 21 3 20 4 9 5 8 6 10 7 6 8 18 9 46 10 19 11 5 12
REMARK SMILES IDX 7 13 4 14 45 15 38 16 44 17 40 18 42 20 41 21 43 22 39 23
REMARK SMILES IDX 11 25 12 26 13 27 17 28 14 29 16 30 15 31 2 32 3 33 1 34
REMARK SMILES IDX 37 35 24 37 25 38 26 39 27 40 28 41 36 42 29 43 33 44 30 45
REMARK SMILES IDX 31 46 34 47 35 48 32 49
REMARK H PARENT 39 24 32 50
REMARK Flexibility Score: 90.00
ROOT
ATOM      1  C   UNL     1      94.897  99.862  74.778  1.00  0.00     0.264 C 
ENDROOT
BRANCH   1   2
ATOM      2  C   UNL     1      94.900 100.406  73.368  1.00  0.00    -0.033 C 
ATOM      3  C   UNL     1      93.727 100.689  72.768  1.00  0.00    -0.015 C 
BRANCH   3   4
ATOM      4  C   UNL     1      93.459 101.166  71.350  1.00  0.00     0.078 C 
ATOM      5  O   UNL     1      93.403 103.639  71.421  1.00  0.00    -0.319 OA
ATOM      6  C   UNL     1      94.138 102.503  70.869  1.00  0.00     0.095 C 
ATOM      7  C   UNL     1      91.968 103.524  71.378  1.00  0.00     0.289 C 
ATOM      8  C   UNL     1      94.053 102.542  69.287  1.00  0.00     0.023 C 
ATOM      9  O   UNL     1      91.523 102.356  72.064  1.00  0.00    -0.320 OA
ATOM     10  O   UNL     1      91.475 103.400  70.047  1.00  0.00    -0.313 OA
ATOM     11  C   UNL     1      91.936 101.344  71.134  1.00  0.00     0.170 C 
ATOM     12  C   UNL     1      92.753 101.853  68.768  1.00  0.00     0.049 C 
ATOM     13  C   UNL     1      94.180 103.937  68.654  1.00  0.00     0.011 C 
ATOM     14  C   UNL     1      91.603 101.991  69.766  1.00  0.00     0.122 C 
BRANCH   6  15
ATOM     15  C   UNL     1      95.569 102.640  71.465  1.00  0.00     0.086 C 
ATOM     16  C   UNL     1      96.427 101.358  71.476  1.00  0.00     0.140 CG0
ATOM     17  C   UNL     1      96.502 103.680  70.909  1.00  0.00    -0.010 C 
ATOM     18  C   UNL     1      97.823 101.897  71.246  1.00  0.00     0.190 C 
ATOM     19  G   UNL     1      96.305 100.592  72.792  1.00  0.00     0.000 G0
ATOM     20  C   UNL     1      97.780 103.303  70.800  1.00  0.00    -0.008 C 
ATOM     21  O   UNL     1      98.857 101.257  71.360  1.00  0.00    -0.291 OA
ATOM     22  C   UNL     1      98.967 104.075  70.380  1.00  0.00     0.048 C 
BRANCH  16  23
ATOM     23  O   UNL     1      96.205 100.509  70.361  1.00  0.00    -0.381 OA
ATOM     24  H   UNL     1      95.379 100.020  70.508  1.00  0.00     0.212 HD
ENDBRANCH  16  23
ENDBRANCH   6  15
BRANCH   7  25
ATOM     25  C   UNL     1      91.373 104.757  72.026  1.00  0.00     0.135 C 
BRANCH  25  26
ATOM     26  C   UNL     1      90.669 104.432  73.320  1.00  0.00    -0.040 A 
ATOM     27  C   UNL     1      91.360 104.515  74.530  1.00  0.00     0.004 A 
ATOM     28  C   UNL     1      89.328 104.050  73.308  1.00  0.00     0.004 A 
ATOM     29  C   UNL     1      90.709 104.215  75.727  1.00  0.00     0.000 A 
ATOM     30  C   UNL     1      88.677 103.749  74.506  1.00  0.00     0.000 A 
ATOM     31  C   UNL     1      89.369 103.832  75.714  1.00  0.00     0.000 A 
ENDBRANCH  25  26
ENDBRANCH   7  25
BRANCH  14  32
ATOM     32  C   UNL     1      90.303 101.501  69.215  1.00  0.00    -0.046 C 
ATOM     33  C   UNL     1      90.373 100.757  67.915  1.00  0.00     0.042 C 
ATOM     34  C   UNL     1      89.139 101.714  69.848  1.00  0.00     0.010 C 
ENDBRANCH  14  32
ENDBRANCH   3   4
BRANCH   2  35
ATOM     35  C   UNL     1      96.296 100.573  72.799  1.00  0.00     0.078 CG0
ATOM     36  G   UNL     1      96.428 101.345  71.487  1.00  0.00     0.000 G0
ENDBRANCH   2  35
ENDBRANCH   1   2
BRANCH   1  37
ATOM     37  O   UNL     1      94.146  98.667  74.815  1.00  0.00    -0.461 OA
BRANCH  37  38
ATOM     38  C   UNL     1      94.569  97.710  75.709  1.00  0.00     0.310 C 
ATOM     39  O   UNL     1      95.095  97.941  76.789  1.00  0.00    -0.252 OA
BRANCH  38  40
ATOM     40  C   UNL     1      94.283  96.337  75.149  1.00  0.00     0.158 C 
BRANCH  40  41
ATOM     41  C   UNL     1      93.149  95.638  75.856  1.00  0.00    -0.033 A 
ATOM     42  C   UNL     1      92.056  95.171  75.126  1.00  0.00     0.054 A 
ATOM     43  C   UNL     1      93.193  95.460  77.238  1.00  0.00     0.008 A 
ATOM     44  C   UNL     1      91.006  94.524  75.780  1.00  0.00     0.160 A 
ATOM     45  C   UNL     1      92.144  94.813  77.892  1.00  0.00     0.050 A 
ATOM     46  C   UNL     1      91.051  94.346  77.163  1.00  0.00     0.157 A 
BRANCH  44  47
ATOM     47  O   UNL     1      89.944  94.072  75.057  1.00  0.00    -0.493 OA
ATOM     48  C   UNL     1      90.224  93.167  73.990  1.00  0.00     0.278 C 
ENDBRANCH  44  47
BRANCH  46  49
ATOM     49  O   UNL     1      90.033  93.715  77.812  1.00  0.00    -0.504 OA
ATOM     50  H   UNL     1      90.282  93.586  78.743  1.00  0.00     0.293 HD
ENDBRANCH  46  49
ENDBRANCH  40  41
ENDBRANCH  38  40
ENDBRANCH  37  38
ENDBRANCH   1  37
TORSDOF 11
ENDMDL
MODEL 10
REMARK VINA RESULT:    -5.493      7.207     11.040
REMARK INTER + INTRA:         -10.711
REMARK INTER:                 -10.016
REMARK INTRA:                  -0.695
REMARK UNBOUND:                -1.043
REMARK SMILES C=C(C)[C@]12C[C@@H](C)[C@@]34O[C@](Cc5ccccc5)(O[C@@H]1[C@@H]3C=C(COC(=O)Cc1ccc(O)c(OC)c1)C[C@]1(O)C(=O)C(C)=C[C@@H]41)O2
REMARK SMILES IDX 23 1 22 2 21 3 20 4 9 5 8 6 10 7 6 8 18 9 46 10 19 11 5 12
REMARK SMILES IDX 7 13 4 14 45 15 38 16 44 17 40 18 42 20 41 21 43 22 39 23
REMARK SMILES IDX 11 25 12 26 13 27 17 28 14 29 16 30 15 31 2 32 3 33 1 34
REMARK SMILES IDX 37 35 24 37 25 38 26 39 27 40 28 41 36 42 29 43 33 44 30 45
REMARK SMILES IDX 31 46 34 47 35 48 32 49
REMARK H PARENT 39 24 32 50
REMARK Flexibility Score: 90.00
ROOT
ATOM      1  C   UNL     1      95.950  80.955  83.081  1.00  0.00     0.264 C 
ENDROOT
BRANCH   1   2
ATOM      2  C   UNL     1      97.204  81.139  82.258  1.00  0.00    -0.033 C 
ATOM      3  C   UNL     1      98.293  80.398  82.543  1.00  0.00    -0.015 C 
BRANCH   3   4
ATOM      4  C   UNL     1      99.681  80.446  81.926  1.00  0.00     0.078 C 
ATOM      5  O   UNL     1      99.708  78.795  80.084  1.00  0.00    -0.319 OA
ATOM      6  C   UNL     1      99.818  80.223  80.373  1.00  0.00     0.095 C 
ATOM      7  C   UNL     1     100.420  77.926  80.985  1.00  0.00     0.289 C 
ATOM      8  C   UNL     1     101.254  80.735  79.940  1.00  0.00     0.023 C 
ATOM      9  O   UNL     1      99.996  78.120  82.332  1.00  0.00    -0.320 OA
ATOM     10  O   UNL     1     101.823  78.177  80.983  1.00  0.00    -0.313 OA
ATOM     11  C   UNL     1     100.596  79.396  82.604  1.00  0.00     0.170 C 
ATOM     12  C   UNL     1     102.307  80.505  81.067  1.00  0.00     0.049 C 
ATOM     13  C   UNL     1     101.787  80.163  78.616  1.00  0.00     0.011 C 
ATOM     14  C   UNL     1     101.974  79.273  81.909  1.00  0.00     0.122 C 
BRANCH   6  15
ATOM     15  C   UNL     1      98.621  80.866  79.616  1.00  0.00     0.086 C 
ATOM     16  C   UNL     1      98.181  82.263  80.101  1.00  0.00     0.140 CG0
ATOM     17  C   UNL     1      98.693  81.022  78.122  1.00  0.00    -0.010 C 
ATOM     18  C   UNL     1      97.736  82.929  78.816  1.00  0.00     0.190 C 
ATOM     19  G   UNL     1      97.062  82.187  81.139  1.00  0.00     0.000 G0
ATOM     20  C   UNL     1      98.179  82.158  77.640  1.00  0.00    -0.008 C 
ATOM     21  O   UNL     1      97.135  83.990  78.740  1.00  0.00    -0.291 OA
ATOM     22  C   UNL     1      98.005  82.606  76.243  1.00  0.00     0.048 C 
BRANCH  16  23
ATOM     23  O   UNL     1      99.251  83.077  80.552  1.00  0.00    -0.381 OA
ATOM     24  H   UNL     1      99.416  83.764  79.885  1.00  0.00     0.212 HD
ENDBRANCH  16  23
ENDBRANCH   6  15
BRANCH   7  25
ATOM     25  C   UNL     1     100.161  76.492  80.568  1.00  0.00     0.135 C 
BRANCH  25  26
ATOM     26  C   UNL     1     101.215  75.981  79.617  1.00  0.00    -0.040 A 
ATOM     27  C   UNL     1     102.375  75.388  80.116  1.00  0.00     0.004 A 
ATOM     28  C   UNL     1     101.029  76.100  78.241  1.00  0.00     0.004 A 
ATOM     29  C   UNL     1     103.350  74.915  79.237  1.00  0.00     0.000 A 
ATOM     30  C   UNL     1     102.004  75.628  77.362  1.00  0.00     0.000 A 
ATOM     31  C   UNL     1     103.165  75.035  77.861  1.00  0.00     0.000 A 
ENDBRANCH  25  26
ENDBRANCH   7  25
BRANCH  14  32
ATOM     32  C   UNL     1     103.061  78.926  82.874  1.00  0.00    -0.046 C 
ATOM     33  C   UNL     1     104.465  79.044  82.361  1.00  0.00     0.042 C 
ATOM     34  C   UNL     1     102.796  78.533  84.129  1.00  0.00     0.010 C 
ENDBRANCH  14  32
ENDBRANCH   3   4
BRANCH   2  35
ATOM     35  C   UNL     1      97.051  82.180  81.166  1.00  0.00     0.078 CG0
ATOM     36  G   UNL     1      98.152  82.250  80.108  1.00  0.00     0.000 G0
ENDBRANCH   2  35
ENDBRANCH   1   2
BRANCH   1  37
ATOM     37  O   UNL     1      95.864  79.613  83.508  1.00  0.00    -0.461 OA
BRANCH  37  38
ATOM     38  C   UNL     1      95.406  79.410  84.789  1.00  0.00     0.310 C 
ATOM     39  O   UNL     1      95.577  78.391  85.444  1.00  0.00    -0.252 OA
BRANCH  38  40
ATOM     40  C   UNL     1      94.663  80.639  85.259  1.00  0.00     0.158 C 
BRANCH  40  41
ATOM     41  C   UNL     1      93.219  80.653  84.829  1.00  0.00    -0.033 A 
ATOM     42  C   UNL     1      92.518  79.453  84.698  1.00  0.00     0.054 A 
ATOM     43  C   UNL     1      92.582  81.864  84.561  1.00  0.00     0.008 A 
ATOM     44  C   UNL     1      91.182  79.466  84.299  1.00  0.00     0.160 A 
ATOM     45  C   UNL     1      91.245  81.877  84.163  1.00  0.00     0.050 A 
ATOM     46  C   UNL     1      90.545  80.679  84.031  1.00  0.00     0.157 A 
BRANCH  44  47
ATOM     47  O   UNL     1      90.508  78.288  84.174  1.00  0.00    -0.493 OA
ATOM     48  C   UNL     1      91.207  77.204  83.565  1.00  0.00     0.278 C 
ENDBRANCH  44  47
BRANCH  46  49
ATOM     49  O   UNL     1      89.240  80.704  83.642  1.00  0.00    -0.504 OA
ATOM     50  H   UNL     1      89.079  81.511  83.125  1.00  0.00     0.293 HD
ENDBRANCH  46  49
ENDBRANCH  40  41
ENDBRANCH  38  40
ENDBRANCH  37  38
ENDBRANCH   1  37
TORSDOF 11
ENDMDL
