MODEL 1
REMARK VINA RESULT:    -6.310      0.000      0.000
REMARK INTER + INTRA:         -10.952
REMARK INTER:                 -10.183
REMARK INTRA:                  -0.769
REMARK UNBOUND:                -0.769
REMARK SMILES COc1cc(CNC(=O)CCCCCCC(C)C)ccc1O
REMARK SMILES IDX 11 1 10 2 8 3 7 4 9 6 6 7 5 8 3 9 21 10 4 11 20 12 19 13
REMARK SMILES IDX 2 14 1 15 22 16 12 18 13 19 14 20 15 21 16 22 17 23 18 24
REMARK H PARENT 7 5 22 17
REMARK Flexibility Score: inf
ROOT
ATOM      1  C   UNL     1      98.116  82.684  78.389  1.00  0.00     0.010 C 
ENDROOT
BRANCH   1   2
ATOM      2  C   UNL     1      97.341  83.476  79.478  1.00  0.00     0.100 C 
BRANCH   2   3
ATOM      3  C   UNL     1      97.131  82.705  80.724  1.00  0.00     0.220 C 
ATOM      4  N   UNL     1      96.969  83.351  81.915  1.00  0.00    -0.352 N 
ATOM      5  H   UNL     1      97.050  84.355  81.864  1.00  0.00     0.163 HD
ATOM      6  O   UNL     1      97.082  81.452  80.655  1.00  0.00    -0.275 OA
BRANCH   4   7
ATOM      7  C   UNL     1      96.703  82.715  83.170  1.00  0.00     0.151 C 
BRANCH   7   8
ATOM      8  C   UNL     1      95.610  83.370  83.939  1.00  0.00    -0.025 A 
ATOM      9  C   UNL     1      93.391  83.267  84.995  1.00  0.00     0.160 A 
ATOM     10  C   UNL     1      93.540  84.598  85.443  1.00  0.00     0.157 A 
ATOM     11  C   UNL     1      94.417  82.671  84.232  1.00  0.00     0.056 A 
ATOM     12  C   UNL     1      94.706  85.317  85.125  1.00  0.00     0.050 A 
ATOM     13  C   UNL     1      95.739  84.706  84.388  1.00  0.00     0.009 A 
BRANCH   9  14
ATOM     14  O   UNL     1      92.244  82.571  85.266  1.00  0.00    -0.493 OA
ATOM     15  C   UNL     1      92.117  81.348  84.517  1.00  0.00     0.278 C 
ENDBRANCH   9  14
BRANCH  10  16
ATOM     16  O   UNL     1      92.567  85.198  86.179  1.00  0.00    -0.504 OA
ATOM     17  H   UNL     1      92.888  86.043  86.503  1.00  0.00     0.293 HD
ENDBRANCH  10  16
ENDBRANCH   7   8
ENDBRANCH   4   7
ENDBRANCH   2   3
ENDBRANCH   1   2
BRANCH   1  18
ATOM     18  C   UNL     1      97.543  82.932  76.965  1.00  0.00     0.001 C 
BRANCH  18  19
ATOM     19  C   UNL     1      96.622  84.180  76.868  1.00  0.00     0.000 C 
BRANCH  19  20
ATOM     20  C   UNL     1      96.708  84.848  75.467  1.00  0.00     0.000 C 
BRANCH  20  21
ATOM     21  C   UNL     1      97.697  84.153  74.490  1.00  0.00     0.003 C 
BRANCH  21  22
ATOM     22  C   UNL     1      99.007  84.959  74.208  1.00  0.00    -0.017 C 
ATOM     23  C   UNL     1      99.267  85.056  72.678  1.00  0.00     0.007 C 
ATOM     24  C   UNL     1     100.259  84.391  74.939  1.00  0.00     0.007 C 
ENDBRANCH  21  22
ENDBRANCH  20  21
ENDBRANCH  19  20
ENDBRANCH  18  19
ENDBRANCH   1  18
TORSDOF 11
ENDMDL
MODEL 2
REMARK VINA RESULT:    -6.156      2.235      4.410
REMARK INTER + INTRA:         -10.703
REMARK INTER:                 -10.233
REMARK INTRA:                  -0.471
REMARK UNBOUND:                -0.769
REMARK SMILES COc1cc(CNC(=O)CCCCCCC(C)C)ccc1O
REMARK SMILES IDX 11 1 10 2 8 3 7 4 9 6 6 7 5 8 3 9 21 10 4 11 20 12 19 13
REMARK SMILES IDX 2 14 1 15 22 16 12 18 13 19 14 20 15 21 16 22 17 23 18 24
REMARK H PARENT 7 5 22 17
REMARK Flexibility Score: inf
ROOT
ATOM      1  C   UNL     1      97.078  82.511  82.386  1.00  0.00     0.010 C 
ENDROOT
BRANCH   1   2
ATOM      2  C   UNL     1      96.005  83.576  82.744  1.00  0.00     0.100 C 
BRANCH   2   3
ATOM      3  C   UNL     1      95.206  83.223  83.939  1.00  0.00     0.220 C 
ATOM      4  N   UNL     1      94.563  82.021  84.008  1.00  0.00    -0.352 N 
ATOM      5  H   UNL     1      94.649  81.450  83.181  1.00  0.00     0.163 HD
ATOM      6  O   UNL     1      95.156  84.039  84.892  1.00  0.00    -0.275 OA
BRANCH   4   7
ATOM      7  C   UNL     1      93.813  81.549  85.132  1.00  0.00     0.151 C 
BRANCH   7   8
ATOM      8  C   UNL     1      92.428  81.131  84.779  1.00  0.00    -0.025 A 
ATOM      9  C   UNL     1      90.085  81.708  84.306  1.00  0.00     0.160 A 
ATOM     10  C   UNL     1      89.796  80.347  84.064  1.00  0.00     0.157 A 
ATOM     11  C   UNL     1      91.392  82.087  84.679  1.00  0.00     0.056 A 
ATOM     12  C   UNL     1      90.810  79.382  84.199  1.00  0.00     0.050 A 
ATOM     13  C   UNL     1      92.120  79.770  84.544  1.00  0.00     0.009 A 
BRANCH   9  14
ATOM     14  O   UNL     1      89.097  82.650  84.216  1.00  0.00    -0.493 OA
ATOM     15  C   UNL     1      88.241  82.705  85.371  1.00  0.00     0.278 C 
ENDBRANCH   9  14
BRANCH  10  16
ATOM     16  O   UNL     1      88.546  79.953  83.705  1.00  0.00    -0.504 OA
ATOM     17  H   UNL     1      88.423  80.103  82.765  1.00  0.00     0.293 HD
ENDBRANCH  10  16
ENDBRANCH   7   8
ENDBRANCH   4   7
ENDBRANCH   2   3
ENDBRANCH   1   2
BRANCH   1  18
ATOM     18  C   UNL     1      97.070  82.155  80.873  1.00  0.00     0.001 C 
BRANCH  18  19
ATOM     19  C   UNL     1      97.461  83.341  79.947  1.00  0.00     0.000 C 
BRANCH  19  20
ATOM     20  C   UNL     1      97.990  82.844  78.573  1.00  0.00     0.000 C 
BRANCH  20  21
ATOM     21  C   UNL     1      96.924  82.840  77.443  1.00  0.00     0.003 C 
BRANCH  21  22
ATOM     22  C   UNL     1      97.347  83.605  76.146  1.00  0.00    -0.017 C 
ATOM     23  C   UNL     1      98.891  83.780  76.098  1.00  0.00     0.007 C 
ATOM     24  C   UNL     1      96.637  84.980  75.971  1.00  0.00     0.007 C 
ENDBRANCH  21  22
ENDBRANCH  20  21
ENDBRANCH  19  20
ENDBRANCH  18  19
ENDBRANCH   1  18
TORSDOF 11
ENDMDL
MODEL 3
REMARK VINA RESULT:    -5.891      1.134      2.238
REMARK INTER + INTRA:         -10.276
REMARK INTER:                  -9.672
REMARK INTRA:                  -0.603
REMARK UNBOUND:                -0.769
REMARK SMILES COc1cc(CNC(=O)CCCCCCC(C)C)ccc1O
REMARK SMILES IDX 11 1 10 2 8 3 7 4 9 6 6 7 5 8 3 9 21 10 4 11 20 12 19 13
REMARK SMILES IDX 2 14 1 15 22 16 12 18 13 19 14 20 15 21 16 22 17 23 18 24
REMARK H PARENT 7 5 22 17
REMARK Flexibility Score: inf
ROOT
ATOM      1  C   UNL     1      97.910  83.624  77.755  1.00  0.00     0.010 C 
ENDROOT
BRANCH   1   2
ATOM      2  C   UNL     1      96.707  83.482  78.727  1.00  0.00     0.100 C 
BRANCH   2   3
ATOM      3  C   UNL     1      97.053  82.789  79.989  1.00  0.00     0.220 C 
ATOM      4  N   UNL     1      96.956  83.443  81.183  1.00  0.00    -0.352 N 
ATOM      5  H   UNL     1      96.682  84.412  81.112  1.00  0.00     0.163 HD
ATOM      6  O   UNL     1      97.411  81.587  79.937  1.00  0.00    -0.275 OA
BRANCH   4   7
ATOM      7  C   UNL     1      97.207  82.860  82.466  1.00  0.00     0.151 C 
BRANCH   7   8
ATOM      8  C   UNL     1      96.077  83.031  83.419  1.00  0.00    -0.025 A 
ATOM      9  C   UNL     1      94.881  84.393  85.083  1.00  0.00     0.160 A 
ATOM     10  C   UNL     1      93.900  83.384  85.206  1.00  0.00     0.157 A 
ATOM     11  C   UNL     1      95.970  84.201  84.206  1.00  0.00     0.056 A 
ATOM     12  C   UNL     1      94.017  82.199  84.458  1.00  0.00     0.050 A 
ATOM     13  C   UNL     1      95.091  82.027  83.563  1.00  0.00     0.009 A 
BRANCH   9  14
ATOM     14  O   UNL     1      94.798  85.532  85.835  1.00  0.00    -0.493 OA
ATOM     15  C   UNL     1      94.257  86.660  85.123  1.00  0.00     0.278 C 
ENDBRANCH   9  14
BRANCH  10  16
ATOM     16  O   UNL     1      92.842  83.541  86.044  1.00  0.00    -0.504 OA
ATOM     17  H   UNL     1      92.152  84.037  85.598  1.00  0.00     0.293 HD
ENDBRANCH  10  16
ENDBRANCH   7   8
ENDBRANCH   4   7
ENDBRANCH   2   3
ENDBRANCH   1   2
BRANCH   1  18
ATOM     18  C   UNL     1      97.541  83.218  76.300  1.00  0.00     0.001 C 
BRANCH  18  19
ATOM     19  C   UNL     1      97.131  84.417  75.399  1.00  0.00     0.000 C 
BRANCH  19  20
ATOM     20  C   UNL     1      97.503  84.167  73.911  1.00  0.00     0.000 C 
BRANCH  20  21
ATOM     21  C   UNL     1      98.874  83.465  73.706  1.00  0.00     0.003 C 
BRANCH  21  22
ATOM     22  C   UNL     1      99.941  84.327  72.955  1.00  0.00    -0.017 C 
ATOM     23  C   UNL     1      99.466  85.804  72.845  1.00  0.00     0.007 C 
ATOM     24  C   UNL     1     100.319  83.771  71.551  1.00  0.00     0.007 C 
ENDBRANCH  21  22
ENDBRANCH  20  21
ENDBRANCH  19  20
ENDBRANCH  18  19
ENDBRANCH   1  18
TORSDOF 11
ENDMDL
MODEL 4
REMARK VINA RESULT:    -5.853      7.691      9.968
REMARK INTER + INTRA:         -10.215
REMARK INTER:                  -9.334
REMARK INTRA:                  -0.881
REMARK UNBOUND:                -0.769
REMARK SMILES COc1cc(CNC(=O)CCCCCCC(C)C)ccc1O
REMARK SMILES IDX 11 1 10 2 8 3 7 4 9 6 6 7 5 8 3 9 21 10 4 11 20 12 19 13
REMARK SMILES IDX 2 14 1 15 22 16 12 18 13 19 14 20 15 21 16 22 17 23 18 24
REMARK H PARENT 7 5 22 17
REMARK Flexibility Score: inf
ROOT
ATOM      1  C   UNL     1      92.911  78.468  85.136  1.00  0.00     0.010 C 
ENDROOT
BRANCH   1   2
ATOM      2  C   UNL     1      93.782  79.745  84.977  1.00  0.00     0.100 C 
BRANCH   2   3
ATOM      3  C   UNL     1      92.984  80.976  84.774  1.00  0.00     0.220 C 
ATOM      4  N   UNL     1      91.771  81.119  85.382  1.00  0.00    -0.352 N 
ATOM      5  H   UNL     1      91.473  80.318  85.919  1.00  0.00     0.163 HD
ATOM      6  O   UNL     1      93.459  81.888  84.054  1.00  0.00    -0.275 OA
BRANCH   4   7
ATOM      7  C   UNL     1      90.941  82.283  85.306  1.00  0.00     0.151 C 
BRANCH   7   8
ATOM      8  C   UNL     1      89.595  82.007  84.733  1.00  0.00    -0.025 A 
ATOM      9  C   UNL     1      87.251  82.667  84.388  1.00  0.00     0.160 A 
ATOM     10  C   UNL     1      87.038  81.510  83.608  1.00  0.00     0.157 A 
ATOM     11  C   UNL     1      88.521  82.897  84.959  1.00  0.00     0.056 A 
ATOM     12  C   UNL     1      88.089  80.596  83.408  1.00  0.00     0.050 A 
ATOM     13  C   UNL     1      89.361  80.847  83.957  1.00  0.00     0.009 A 
BRANCH   9  14
ATOM     14  O   UNL     1      86.225  83.542  84.622  1.00  0.00    -0.493 OA
ATOM     15  C   UNL     1      86.339  84.249  85.870  1.00  0.00     0.278 C 
ENDBRANCH   9  14
BRANCH  10  16
ATOM     16  O   UNL     1      85.825  81.262  83.047  1.00  0.00    -0.504 OA
ATOM     17  H   UNL     1      85.255  80.839  83.693  1.00  0.00     0.293 HD
ENDBRANCH  10  16
ENDBRANCH   7   8
ENDBRANCH   4   7
ENDBRANCH   2   3
ENDBRANCH   1   2
BRANCH   1  18
ATOM     18  C   UNL     1      92.062  78.176  83.866  1.00  0.00     0.001 C 
BRANCH  18  19
ATOM     19  C   UNL     1      90.697  77.495  84.169  1.00  0.00     0.000 C 
BRANCH  19  20
ATOM     20  C   UNL     1      90.814  75.945  84.146  1.00  0.00     0.000 C 
BRANCH  20  21
ATOM     21  C   UNL     1      90.838  75.329  82.720  1.00  0.00     0.003 C 
BRANCH  21  22
ATOM     22  C   UNL     1      90.730  73.769  82.683  1.00  0.00    -0.017 C 
ATOM     23  C   UNL     1      92.105  73.137  82.331  1.00  0.00     0.007 C 
ATOM     24  C   UNL     1      89.625  73.241  81.722  1.00  0.00     0.007 C 
ENDBRANCH  21  22
ENDBRANCH  20  21
ENDBRANCH  19  20
ENDBRANCH  18  19
ENDBRANCH   1  18
TORSDOF 11
ENDMDL
MODEL 5
REMARK VINA RESULT:    -5.823      3.066      5.146
REMARK INTER + INTRA:         -10.167
REMARK INTER:                  -9.567
REMARK INTRA:                  -0.601
REMARK UNBOUND:                -0.769
REMARK SMILES COc1cc(CNC(=O)CCCCCCC(C)C)ccc1O
REMARK SMILES IDX 11 1 10 2 8 3 7 4 9 6 6 7 5 8 3 9 21 10 4 11 20 12 19 13
REMARK SMILES IDX 2 14 1 15 22 16 12 18 13 19 14 20 15 21 16 22 17 23 18 24
REMARK H PARENT 7 5 22 17
REMARK Flexibility Score: inf
ROOT
ATOM      1  C   UNL     1      97.074  82.968  83.605  1.00  0.00     0.010 C 
ENDROOT
BRANCH   1   2
ATOM      2  C   UNL     1      96.303  84.307  83.766  1.00  0.00     0.100 C 
BRANCH   2   3
ATOM      3  C   UNL     1      95.449  84.349  84.975  1.00  0.00     0.220 C 
ATOM      4  N   UNL     1      94.227  84.954  84.934  1.00  0.00    -0.352 N 
ATOM      5  H   UNL     1      94.000  85.387  84.051  1.00  0.00     0.163 HD
ATOM      6  O   UNL     1      95.863  83.797  86.023  1.00  0.00    -0.275 OA
BRANCH   4   7
ATOM      7  C   UNL     1      93.294  85.005  86.019  1.00  0.00     0.151 C 
BRANCH   7   8
ATOM      8  C   UNL     1      93.548  86.132  86.958  1.00  0.00    -0.025 A 
ATOM      9  C   UNL     1      93.489  87.061  89.235  1.00  0.00     0.160 A 
ATOM     10  C   UNL     1      94.069  88.259  88.763  1.00  0.00     0.157 A 
ATOM     11  C   UNL     1      93.216  86.016  88.327  1.00  0.00     0.056 A 
ATOM     12  C   UNL     1      94.368  88.401  87.396  1.00  0.00     0.050 A 
ATOM     13  C   UNL     1      94.120  87.342  86.501  1.00  0.00     0.009 A 
BRANCH   9  14
ATOM     14  O   UNL     1      93.158  86.927  90.555  1.00  0.00    -0.493 OA
ATOM     15  C   UNL     1      93.607  85.693  91.144  1.00  0.00     0.278 C 
ENDBRANCH   9  14
BRANCH  10  16
ATOM     16  O   UNL     1      94.342  89.283  89.614  1.00  0.00    -0.504 OA
ATOM     17  H   UNL     1      93.541  89.788  89.773  1.00  0.00     0.293 HD
ENDBRANCH  10  16
ENDBRANCH   7   8
ENDBRANCH   4   7
ENDBRANCH   2   3
ENDBRANCH   1   2
BRANCH   1  18
ATOM     18  C   UNL     1      96.643  82.193  82.328  1.00  0.00     0.001 C 
BRANCH  18  19
ATOM     19  C   UNL     1      96.706  83.043  81.028  1.00  0.00     0.000 C 
BRANCH  19  20
ATOM     20  C   UNL     1      97.973  82.713  80.189  1.00  0.00     0.000 C 
BRANCH  20  21
ATOM     21  C   UNL     1      97.676  82.320  78.715  1.00  0.00     0.003 C 
BRANCH  21  22
ATOM     22  C   UNL     1      97.855  83.483  77.684  1.00  0.00    -0.017 C 
ATOM     23  C   UNL     1      96.470  84.009  77.212  1.00  0.00     0.007 C 
ATOM     24  C   UNL     1      98.740  83.103  76.460  1.00  0.00     0.007 C 
ENDBRANCH  21  22
ENDBRANCH  20  21
ENDBRANCH  19  20
ENDBRANCH  18  19
ENDBRANCH   1  18
TORSDOF 11
ENDMDL
MODEL 6
REMARK VINA RESULT:    -5.759      2.268      4.029
REMARK INTER + INTRA:         -10.063
REMARK INTER:                  -9.317
REMARK INTRA:                  -0.746
REMARK UNBOUND:                -0.769
REMARK SMILES COc1cc(CNC(=O)CCCCCCC(C)C)ccc1O
REMARK SMILES IDX 11 1 10 2 8 3 7 4 9 6 6 7 5 8 3 9 21 10 4 11 20 12 19 13
REMARK SMILES IDX 2 14 1 15 22 16 12 18 13 19 14 20 15 21 16 22 17 23 18 24
REMARK H PARENT 7 5 22 17
REMARK Flexibility Score: inf
ROOT
ATOM      1  C   UNL     1      97.463  82.381  81.967  1.00  0.00     0.010 C 
ENDROOT
BRANCH   1   2
ATOM      2  C   UNL     1      96.251  83.243  82.417  1.00  0.00     0.100 C 
BRANCH   2   3
ATOM      3  C   UNL     1      95.631  82.768  83.675  1.00  0.00     0.220 C 
ATOM      4  N   UNL     1      94.455  83.305  84.109  1.00  0.00    -0.352 N 
ATOM      5  H   UNL     1      94.096  84.053  83.534  1.00  0.00     0.163 HD
ATOM      6  O   UNL     1      96.198  81.849  84.316  1.00  0.00    -0.275 OA
BRANCH   4   7
ATOM      7  C   UNL     1      93.736  82.888  85.275  1.00  0.00     0.151 C 
BRANCH   7   8
ATOM      8  C   UNL     1      92.637  81.930  84.975  1.00  0.00    -0.025 A 
ATOM      9  C   UNL     1      91.782  79.625  84.902  1.00  0.00     0.160 A 
ATOM     10  C   UNL     1      90.533  80.100  84.446  1.00  0.00     0.157 A 
ATOM     11  C   UNL     1      92.828  80.539  85.144  1.00  0.00     0.056 A 
ATOM     12  C   UNL     1      90.343  81.478  84.236  1.00  0.00     0.050 A 
ATOM     13  C   UNL     1      91.383  82.388  84.508  1.00  0.00     0.009 A 
BRANCH   9  14
ATOM     14  O   UNL     1      91.990  78.283  85.072  1.00  0.00    -0.493 OA
ATOM     15  C   UNL     1      92.585  77.639  83.931  1.00  0.00     0.278 C 
ENDBRANCH   9  14
BRANCH  10  16
ATOM     16  O   UNL     1      89.507  79.242  84.204  1.00  0.00    -0.504 OA
ATOM     17  H   UNL     1      88.717  79.742  83.987  1.00  0.00     0.293 HD
ENDBRANCH  10  16
ENDBRANCH   7   8
ENDBRANCH   4   7
ENDBRANCH   2   3
ENDBRANCH   1   2
BRANCH   1  18
ATOM     18  C   UNL     1      97.532  82.229  80.420  1.00  0.00     0.001 C 
BRANCH  18  19
ATOM     19  C   UNL     1      97.209  83.539  79.647  1.00  0.00     0.000 C 
BRANCH  19  20
ATOM     20  C   UNL     1      96.587  83.242  78.254  1.00  0.00     0.000 C 
BRANCH  20  21
ATOM     21  C   UNL     1      97.331  83.915  77.067  1.00  0.00     0.003 C 
BRANCH  21  22
ATOM     22  C   UNL     1      97.931  82.915  76.025  1.00  0.00    -0.017 C 
ATOM     23  C   UNL     1      98.501  81.659  76.742  1.00  0.00     0.007 C 
ATOM     24  C   UNL     1      99.010  83.550  75.099  1.00  0.00     0.007 C 
ENDBRANCH  21  22
ENDBRANCH  20  21
ENDBRANCH  19  20
ENDBRANCH  18  19
ENDBRANCH   1  18
TORSDOF 11
ENDMDL
MODEL 7
REMARK VINA RESULT:    -5.647      2.871      9.387
REMARK INTER + INTRA:          -9.883
REMARK INTER:                  -9.366
REMARK INTRA:                  -0.517
REMARK UNBOUND:                -0.769
REMARK SMILES COc1cc(CNC(=O)CCCCCCC(C)C)ccc1O
REMARK SMILES IDX 11 1 10 2 8 3 7 4 9 6 6 7 5 8 3 9 21 10 4 11 20 12 19 13
REMARK SMILES IDX 2 14 1 15 22 16 12 18 13 19 14 20 15 21 16 22 17 23 18 24
REMARK H PARENT 7 5 22 17
REMARK Flexibility Score: inf
ROOT
ATOM      1  C   UNL     1      94.329  82.747  85.154  1.00  0.00     0.010 C 
ENDROOT
BRANCH   1   2
ATOM      2  C   UNL     1      95.181  83.682  84.253  1.00  0.00     0.100 C 
BRANCH   2   3
ATOM      3  C   UNL     1      96.370  83.015  83.677  1.00  0.00     0.220 C 
ATOM      4  N   UNL     1      96.356  82.576  82.386  1.00  0.00    -0.352 N 
ATOM      5  H   UNL     1      95.478  82.706  81.906  1.00  0.00     0.163 HD
ATOM      6  O   UNL     1      97.394  82.887  84.393  1.00  0.00    -0.275 OA
BRANCH   4   7
ATOM      7  C   UNL     1      97.462  81.971  81.706  1.00  0.00     0.151 C 
BRANCH   7   8
ATOM      8  C   UNL     1      97.450  82.211  80.237  1.00  0.00    -0.025 A 
ATOM      9  C   UNL     1      97.849  81.411  77.946  1.00  0.00     0.160 A 
ATOM     10  C   UNL     1      97.387  82.643  77.433  1.00  0.00     0.157 A 
ATOM     11  C   UNL     1      97.894  81.211  79.342  1.00  0.00     0.056 A 
ATOM     12  C   UNL     1      96.979  83.660  78.315  1.00  0.00     0.050 A 
ATOM     13  C   UNL     1      97.000  83.443  79.707  1.00  0.00     0.009 A 
BRANCH   9  14
ATOM     14  O   UNL     1      98.285  80.430  77.098  1.00  0.00    -0.493 OA
ATOM     15  C   UNL     1      98.615  79.195  77.760  1.00  0.00     0.278 C 
ENDBRANCH   9  14
BRANCH  10  16
ATOM     16  O   UNL     1      97.335  82.864  76.093  1.00  0.00    -0.504 OA
ATOM     17  H   UNL     1      96.626  83.482  75.899  1.00  0.00     0.293 HD
ENDBRANCH  10  16
ENDBRANCH   7   8
ENDBRANCH   4   7
ENDBRANCH   2   3
ENDBRANCH   1   2
BRANCH   1  18
ATOM     18  C   UNL     1      93.388  81.828  84.324  1.00  0.00     0.001 C 
BRANCH  18  19
ATOM     19  C   UNL     1      91.876  82.096  84.566  1.00  0.00     0.000 C 
BRANCH  19  20
ATOM     20  C   UNL     1      91.081  80.771  84.736  1.00  0.00     0.000 C 
BRANCH  20  21
ATOM     21  C   UNL     1      89.947  80.571  83.693  1.00  0.00     0.003 C 
BRANCH  21  22
ATOM     22  C   UNL     1      88.502  80.763  84.259  1.00  0.00    -0.017 C 
ATOM     23  C   UNL     1      87.443  80.336  83.203  1.00  0.00     0.007 C 
ATOM     24  C   UNL     1      88.215  82.207  84.765  1.00  0.00     0.007 C 
ENDBRANCH  21  22
ENDBRANCH  20  21
ENDBRANCH  19  20
ENDBRANCH  18  19
ENDBRANCH   1  18
TORSDOF 11
ENDMDL
MODEL 8
REMARK VINA RESULT:    -5.506      4.155      6.022
REMARK INTER + INTRA:          -9.655
REMARK INTER:                  -8.833
REMARK INTRA:                  -0.822
REMARK UNBOUND:                -0.769
REMARK SMILES COc1cc(CNC(=O)CCCCCCC(C)C)ccc1O
REMARK SMILES IDX 11 1 10 2 8 3 7 4 9 6 6 7 5 8 3 9 21 10 4 11 20 12 19 13
REMARK SMILES IDX 2 14 1 15 22 16 12 18 13 19 14 20 15 21 16 22 17 23 18 24
REMARK H PARENT 7 5 22 17
REMARK Flexibility Score: inf
ROOT
ATOM      1  C   UNL     1      96.715  79.993  81.698  1.00  0.00     0.010 C 
ENDROOT
BRANCH   1   2
ATOM      2  C   UNL     1      97.291  78.578  81.415  1.00  0.00     0.100 C 
BRANCH   2   3
ATOM      3  C   UNL     1      96.477  77.487  81.997  1.00  0.00     0.220 C 
ATOM      4  N   UNL     1      95.922  77.628  83.236  1.00  0.00    -0.352 N 
ATOM      5  H   UNL     1      96.153  78.491  83.705  1.00  0.00     0.163 HD
ATOM      6  O   UNL     1      96.290  76.448  81.318  1.00  0.00    -0.275 OA
BRANCH   4   7
ATOM      7  C   UNL     1      95.072  76.668  83.874  1.00  0.00     0.151 C 
BRANCH   7   8
ATOM      8  C   UNL     1      93.667  77.138  84.026  1.00  0.00    -0.025 A 
ATOM      9  C   UNL     1      91.252  76.744  83.782  1.00  0.00     0.160 A 
ATOM     10  C   UNL     1      90.986  78.009  84.353  1.00  0.00     0.157 A 
ATOM     11  C   UNL     1      92.588  76.328  83.606  1.00  0.00     0.056 A 
ATOM     12  C   UNL     1      92.053  78.841  84.738  1.00  0.00     0.050 A 
ATOM     13  C   UNL     1      93.384  78.406  84.586  1.00  0.00     0.009 A 
BRANCH   9  14
ATOM     14  O   UNL     1      90.223  75.943  83.368  1.00  0.00    -0.493 OA
ATOM     15  C   UNL     1      90.654  74.757  82.676  1.00  0.00     0.278 C 
ENDBRANCH   9  14
BRANCH  10  16
ATOM     16  O   UNL     1      89.709  78.437  84.533  1.00  0.00    -0.504 OA
ATOM     17  H   UNL     1      89.658  78.960  85.336  1.00  0.00     0.293 HD
ENDBRANCH  10  16
ENDBRANCH   7   8
ENDBRANCH   4   7
ENDBRANCH   2   3
ENDBRANCH   1   2
BRANCH   1  18
ATOM     18  C   UNL     1      97.811  81.095  81.642  1.00  0.00     0.001 C 
BRANCH  18  19
ATOM     19  C   UNL     1      97.259  82.537  81.824  1.00  0.00     0.000 C 
BRANCH  19  20
ATOM     20  C   UNL     1      96.932  83.201  80.457  1.00  0.00     0.000 C 
BRANCH  20  21
ATOM     21  C   UNL     1      98.102  83.168  79.436  1.00  0.00     0.003 C 
BRANCH  21  22
ATOM     22  C   UNL     1      97.658  83.152  77.937  1.00  0.00    -0.017 C 
ATOM     23  C   UNL     1      96.294  83.880  77.767  1.00  0.00     0.007 C 
ATOM     24  C   UNL     1      97.595  81.725  77.318  1.00  0.00     0.007 C 
ENDBRANCH  21  22
ENDBRANCH  20  21
ENDBRANCH  19  20
ENDBRANCH  18  19
ENDBRANCH   1  18
TORSDOF 11
ENDMDL
MODEL 9
REMARK VINA RESULT:    -5.456      4.962      7.360
REMARK INTER + INTRA:          -9.575
REMARK INTER:                  -7.953
REMARK INTRA:                  -1.622
REMARK UNBOUND:                -0.769
REMARK SMILES COc1cc(CNC(=O)CCCCCCC(C)C)ccc1O
REMARK SMILES IDX 11 1 10 2 8 3 7 4 9 6 6 7 5 8 3 9 21 10 4 11 20 12 19 13
REMARK SMILES IDX 2 14 1 15 22 16 12 18 13 19 14 20 15 21 16 22 17 23 18 24
REMARK H PARENT 7 5 22 17
REMARK Flexibility Score: inf
ROOT
ATOM      1  C   UNL     1      98.971  82.739  71.997  1.00  0.00     0.010 C 
ENDROOT
BRANCH   1   2
ATOM      2  C   UNL     1      99.468  84.172  72.335  1.00  0.00     0.100 C 
BRANCH   2   3
ATOM      3  C   UNL     1      98.672  84.832  73.393  1.00  0.00     0.220 C 
ATOM      4  N   UNL     1      97.632  84.176  73.984  1.00  0.00    -0.352 N 
ATOM      5  H   UNL     1      97.445  83.257  73.609  1.00  0.00     0.163 HD
ATOM      6  O   UNL     1      98.989  85.993  73.749  1.00  0.00    -0.275 OA
BRANCH   4   7
ATOM      7  C   UNL     1      96.831  84.690  75.054  1.00  0.00     0.151 C 
BRANCH   7   8
ATOM      8  C   UNL     1      97.095  84.022  76.358  1.00  0.00    -0.025 A 
ATOM      9  C   UNL     1      98.498  82.567  77.759  1.00  0.00     0.160 A 
ATOM     10  C   UNL     1      97.631  82.782  78.853  1.00  0.00     0.157 A 
ATOM     11  C   UNL     1      98.214  83.173  76.517  1.00  0.00     0.056 A 
ATOM     12  C   UNL     1      96.493  83.594  78.696  1.00  0.00     0.050 A 
ATOM     13  C   UNL     1      96.232  84.219  77.461  1.00  0.00     0.009 A 
BRANCH   9  14
ATOM     14  O   UNL     1      99.585  81.748  77.891  1.00  0.00    -0.493 OA
ATOM     15  C   UNL     1      99.379  80.422  77.368  1.00  0.00     0.278 C 
ENDBRANCH   9  14
BRANCH  10  16
ATOM     16  O   UNL     1      97.879  82.210  80.061  1.00  0.00    -0.504 OA
ATOM     17  H   UNL     1      97.779  82.868  80.752  1.00  0.00     0.293 HD
ENDBRANCH  10  16
ENDBRANCH   7   8
ENDBRANCH   4   7
ENDBRANCH   2   3
ENDBRANCH   1   2
BRANCH   1  18
ATOM     18  C   UNL     1     100.038  81.655  72.324  1.00  0.00     0.001 C 
BRANCH  18  19
ATOM     19  C   UNL     1     101.290  82.211  73.060  1.00  0.00     0.000 C 
BRANCH  19  20
ATOM     20  C   UNL     1     101.165  82.050  74.601  1.00  0.00     0.000 C 
BRANCH  20  21
ATOM     21  C   UNL     1     102.052  83.030  75.418  1.00  0.00     0.003 C 
BRANCH  21  22
ATOM     22  C   UNL     1     102.640  84.219  74.589  1.00  0.00    -0.017 C 
ATOM     23  C   UNL     1     104.193  84.218  74.664  1.00  0.00     0.007 C 
ATOM     24  C   UNL     1     102.076  85.610  75.004  1.00  0.00     0.007 C 
ENDBRANCH  21  22
ENDBRANCH  20  21
ENDBRANCH  19  20
ENDBRANCH  18  19
ENDBRANCH   1  18
TORSDOF 11
ENDMDL
MODEL 10
REMARK VINA RESULT:    -5.443      3.754      8.991
REMARK INTER + INTRA:          -9.553
REMARK INTER:                  -8.714
REMARK INTRA:                  -0.840
REMARK UNBOUND:                -0.769
REMARK SMILES COc1cc(CNC(=O)CCCCCCC(C)C)ccc1O
REMARK SMILES IDX 11 1 10 2 8 3 7 4 9 6 6 7 5 8 3 9 21 10 4 11 20 12 19 13
REMARK SMILES IDX 2 14 1 15 22 16 12 18 13 19 14 20 15 21 16 22 17 23 18 24
REMARK H PARENT 7 5 22 17
REMARK Flexibility Score: inf
ROOT
ATOM      1  C   UNL     1      97.043  80.061  80.991  1.00  0.00     0.010 C 
ENDROOT
BRANCH   1   2
ATOM      2  C   UNL     1      98.036  79.186  80.177  1.00  0.00     0.100 C 
BRANCH   2   3
ATOM      3  C   UNL     1      98.606  79.886  79.004  1.00  0.00     0.220 C 
ATOM      4  N   UNL     1      99.120  81.143  79.134  1.00  0.00    -0.352 N 
ATOM      5  H   UNL     1      99.032  81.541  80.058  1.00  0.00     0.163 HD
ATOM      6  O   UNL     1      98.628  79.290  77.899  1.00  0.00    -0.275 OA
BRANCH   4   7
ATOM      7  C   UNL     1      99.748  81.892  78.088  1.00  0.00     0.151 C 
BRANCH   7   8
ATOM      8  C   UNL     1      98.790  82.720  77.304  1.00  0.00    -0.025 A 
ATOM      9  C   UNL     1      98.146  83.804  75.193  1.00  0.00     0.160 A 
ATOM     10  C   UNL     1      96.950  84.260  75.789  1.00  0.00     0.157 A 
ATOM     11  C   UNL     1      99.064  83.055  75.958  1.00  0.00     0.056 A 
ATOM     12  C   UNL     1      96.684  83.965  77.139  1.00  0.00     0.050 A 
ATOM     13  C   UNL     1      97.592  83.192  77.889  1.00  0.00     0.009 A 
BRANCH   9  14
ATOM     14  O   UNL     1      98.432  84.119  73.892  1.00  0.00    -0.493 OA
ATOM     15  C   UNL     1      98.279  83.015  72.981  1.00  0.00     0.278 C 
ENDBRANCH   9  14
BRANCH  10  16
ATOM     16  O   UNL     1      96.048  84.984  75.076  1.00  0.00    -0.504 OA
ATOM     17  H   UNL     1      95.209  84.518  75.054  1.00  0.00     0.293 HD
ENDBRANCH  10  16
ENDBRANCH   7   8
ENDBRANCH   4   7
ENDBRANCH   2   3
ENDBRANCH   1   2
BRANCH   1  18
ATOM     18  C   UNL     1      97.650  80.533  82.343  1.00  0.00     0.001 C 
BRANCH  18  19
ATOM     19  C   UNL     1      97.720  82.079  82.493  1.00  0.00     0.000 C 
BRANCH  19  20
ATOM     20  C   UNL     1      96.313  82.696  82.728  1.00  0.00     0.000 C 
BRANCH  20  21
ATOM     21  C   UNL     1      95.524  82.054  83.903  1.00  0.00     0.003 C 
BRANCH  21  22
ATOM     22  C   UNL     1      94.192  82.788  84.270  1.00  0.00    -0.017 C 
ATOM     23  C   UNL     1      94.342  83.543  85.620  1.00  0.00     0.007 C 
ATOM     24  C   UNL     1      92.950  81.849  84.305  1.00  0.00     0.007 C 
ENDBRANCH  21  22
ENDBRANCH  20  21
ENDBRANCH  19  20
ENDBRANCH  18  19
ENDBRANCH   1  18
TORSDOF 11
ENDMDL
