MODEL 1
REMARK VINA RESULT:    -5.623      0.000      0.000
REMARK INTER + INTRA:          -9.840
REMARK INTER:                  -9.075
REMARK INTRA:                  -0.765
REMARK UNBOUND:                -0.765
REMARK SMILES CCCCCCCCC(=O)NCc1ccc(O)c(OC)c1
REMARK SMILES IDX 7 1 6 2 5 3 4 4 3 5 2 6 1 7 8 8 9 9 10 10 11 11 12 13 13 14
REMARK SMILES IDX 21 15 14 16 18 17 15 18 16 19 19 20 20 21 17 22
REMARK H PARENT 11 12 17 23
REMARK Flexibility Score: inf
ROOT
ATOM      1  C   UNL     1      94.634  98.570  73.789  1.00  0.00     0.010 C 
ENDROOT
BRANCH   1   2
ATOM      2  C   UNL     1      93.926  97.395  74.523  1.00  0.00     0.001 C 
BRANCH   2   3
ATOM      3  C   UNL     1      94.567  96.017  74.185  1.00  0.00     0.000 C 
BRANCH   3   4
ATOM      4  C   UNL     1      94.713  95.076  75.413  1.00  0.00    -0.000 C 
BRANCH   4   5
ATOM      5  C   UNL     1      93.552  94.047  75.523  1.00  0.00    -0.000 C 
BRANCH   5   6
ATOM      6  C   UNL     1      92.377  94.566  76.396  1.00  0.00    -0.003 C 
ATOM      7  C   UNL     1      92.173  93.734  77.682  1.00  0.00     0.004 C 
ENDBRANCH   5   6
ENDBRANCH   4   5
ENDBRANCH   3   4
ENDBRANCH   2   3
ENDBRANCH   1   2
BRANCH   1   8
ATOM      8  C   UNL     1      95.182  98.195  72.383  1.00  0.00     0.100 C 
BRANCH   8   9
ATOM      9  C   UNL     1      94.589  99.051  71.327  1.00  0.00     0.220 C 
ATOM     10  O   UNL     1      94.980  98.895  70.146  1.00  0.00    -0.275 OA
ATOM     11  N   UNL     1      93.622  99.964  71.636  1.00  0.00    -0.352 N 
ATOM     12  H   UNL     1      93.446 100.068  72.624  1.00  0.00     0.163 HD
BRANCH  11  13
ATOM     13  C   UNL     1      92.877 100.743  70.694  1.00  0.00     0.151 C 
BRANCH  13  14
ATOM     14  C   UNL     1      91.703 100.033  70.121  1.00  0.00    -0.025 A 
ATOM     15  C   UNL     1      91.391 100.167  68.747  1.00  0.00     0.056 A 
ATOM     16  C   UNL     1      90.880  99.218  70.932  1.00  0.00     0.009 A 
ATOM     17  C   UNL     1      90.288  99.484  68.184  1.00  0.00     0.160 A 
ATOM     18  C   UNL     1      89.782  98.535  70.378  1.00  0.00     0.050 A 
ATOM     19  C   UNL     1      89.478  98.671  69.010  1.00  0.00     0.157 A 
BRANCH  17  20
ATOM     20  O   UNL     1      89.962  99.649  66.862  1.00  0.00    -0.493 OA
ATOM     21  C   UNL     1      89.374 100.925  66.555  1.00  0.00     0.278 C 
ENDBRANCH  17  20
BRANCH  19  22
ATOM     22  O   UNL     1      88.401  98.030  68.490  1.00  0.00    -0.504 OA
ATOM     23  H   UNL     1      87.619  98.251  69.002  1.00  0.00     0.293 HD
ENDBRANCH  19  22
ENDBRANCH  13  14
ENDBRANCH  11  13
ENDBRANCH   8   9
ENDBRANCH   1   8
TORSDOF 11
ENDMDL
MODEL 2
REMARK VINA RESULT:    -5.568     17.162     20.046
REMARK INTER + INTRA:          -9.751
REMARK INTER:                  -8.996
REMARK INTRA:                  -0.754
REMARK UNBOUND:                -0.765
REMARK SMILES CCCCCCCCC(=O)NCc1ccc(O)c(OC)c1
REMARK SMILES IDX 7 1 6 2 5 3 4 4 3 5 2 6 1 7 8 8 9 9 10 10 11 11 12 13 13 14
REMARK SMILES IDX 21 15 14 16 18 17 15 18 16 19 19 20 20 21 17 22
REMARK H PARENT 11 12 17 23
REMARK Flexibility Score: inf
ROOT
ATOM      1  C   UNL     1      96.862  83.263  75.598  1.00  0.00     0.010 C 
ENDROOT
BRANCH   1   2
ATOM      2  C   UNL     1      96.937  82.442  74.278  1.00  0.00     0.001 C 
BRANCH   2   3
ATOM      3  C   UNL     1      98.306  81.719  74.111  1.00  0.00     0.000 C 
BRANCH   3   4
ATOM      4  C   UNL     1      98.744  81.540  72.630  1.00  0.00    -0.000 C 
BRANCH   4   5
ATOM      5  C   UNL     1      99.982  82.406  72.262  1.00  0.00    -0.000 C 
BRANCH   5   6
ATOM      6  C   UNL     1      99.865  83.865  72.780  1.00  0.00    -0.003 C 
ATOM      7  C   UNL     1     100.953  84.224  73.815  1.00  0.00     0.004 C 
ENDBRANCH   5   6
ENDBRANCH   4   5
ENDBRANCH   3   4
ENDBRANCH   2   3
ENDBRANCH   1   2
BRANCH   1   8
ATOM      8  C   UNL     1      95.883  82.673  76.651  1.00  0.00     0.100 C 
BRANCH   8   9
ATOM      9  C   UNL     1      96.574  81.729  77.562  1.00  0.00     0.220 C 
ATOM     10  O   UNL     1      96.692  80.534  77.202  1.00  0.00    -0.275 OA
ATOM     11  N   UNL     1      97.092  82.164  78.749  1.00  0.00    -0.352 N 
ATOM     12  H   UNL     1      96.865  83.120  78.978  1.00  0.00     0.163 HD
BRANCH  11  13
ATOM     13  C   UNL     1      97.897  81.389  79.643  1.00  0.00     0.151 C 
BRANCH  13  14
ATOM     14  C   UNL     1      97.198  80.997  80.895  1.00  0.00    -0.025 A 
ATOM     15  C   UNL     1      96.680  81.989  81.763  1.00  0.00     0.056 A 
ATOM     16  C   UNL     1      97.040  79.636  81.244  1.00  0.00     0.009 A 
ATOM     17  C   UNL     1      95.998  81.631  82.948  1.00  0.00     0.160 A 
ATOM     18  C   UNL     1      96.362  79.273  82.421  1.00  0.00     0.050 A 
ATOM     19  C   UNL     1      95.847  80.265  83.278  1.00  0.00     0.157 A 
BRANCH  17  20
ATOM     20  O   UNL     1      95.535  82.594  83.809  1.00  0.00    -0.493 OA
ATOM     21  C   UNL     1      95.949  83.930  83.476  1.00  0.00     0.278 C 
ENDBRANCH  17  20
BRANCH  19  22
ATOM     22  O   UNL     1      95.218  79.905  84.426  1.00  0.00    -0.504 OA
ATOM     23  H   UNL     1      94.594  80.590  84.677  1.00  0.00     0.293 HD
ENDBRANCH  19  22
ENDBRANCH  13  14
ENDBRANCH  11  13
ENDBRANCH   8   9
ENDBRANCH   1   8
TORSDOF 11
ENDMDL
MODEL 3
REMARK VINA RESULT:    -5.410      3.762      9.037
REMARK INTER + INTRA:          -9.496
REMARK INTER:                  -9.043
REMARK INTRA:                  -0.454
REMARK UNBOUND:                -0.765
REMARK SMILES CCCCCCCCC(=O)NCc1ccc(O)c(OC)c1
REMARK SMILES IDX 7 1 6 2 5 3 4 4 3 5 2 6 1 7 8 8 9 9 10 10 11 11 12 13 13 14
REMARK SMILES IDX 21 15 14 16 18 17 15 18 16 19 19 20 20 21 17 22
REMARK H PARENT 11 12 17 23
REMARK Flexibility Score: inf
ROOT
ATOM      1  C   UNL     1      93.073  99.161  71.722  1.00  0.00     0.010 C 
ENDROOT
BRANCH   1   2
ATOM      2  C   UNL     1      91.701  99.664  71.189  1.00  0.00     0.001 C 
BRANCH   2   3
ATOM      3  C   UNL     1      91.772 100.100  69.696  1.00  0.00     0.000 C 
BRANCH   3   4
ATOM      4  C   UNL     1      90.463  99.831  68.901  1.00  0.00    -0.000 C 
BRANCH   4   5
ATOM      5  C   UNL     1      90.343  98.356  68.424  1.00  0.00    -0.000 C 
BRANCH   5   6
ATOM      6  C   UNL     1      89.279  98.176  67.307  1.00  0.00    -0.003 C 
ATOM      7  C   UNL     1      88.430  99.446  67.077  1.00  0.00     0.004 C 
ENDBRANCH   5   6
ENDBRANCH   4   5
ENDBRANCH   3   4
ENDBRANCH   2   3
ENDBRANCH   1   2
BRANCH   1   8
ATOM      8  C   UNL     1      93.248  99.318  73.259  1.00  0.00     0.100 C 
BRANCH   8   9
ATOM      9  C   UNL     1      94.223  98.338  73.794  1.00  0.00     0.220 C 
ATOM     10  O   UNL     1      95.445  98.552  73.608  1.00  0.00    -0.275 OA
ATOM     11  N   UNL     1      93.797  97.248  74.496  1.00  0.00    -0.352 N 
ATOM     12  H   UNL     1      92.795  97.127  74.512  1.00  0.00     0.163 HD
BRANCH  11  13
ATOM     13  C   UNL     1      94.638  96.312  75.179  1.00  0.00     0.151 C 
BRANCH  13  14
ATOM     14  C   UNL     1      93.896  95.361  76.049  1.00  0.00    -0.025 A 
ATOM     15  C   UNL     1      94.576  94.642  77.061  1.00  0.00     0.056 A 
ATOM     16  C   UNL     1      92.507  95.153  75.880  1.00  0.00     0.009 A 
ATOM     17  C   UNL     1      93.881  93.747  77.907  1.00  0.00     0.160 A 
ATOM     18  C   UNL     1      91.810  94.265  76.718  1.00  0.00     0.050 A 
ATOM     19  C   UNL     1      92.492  93.556  77.725  1.00  0.00     0.157 A 
BRANCH  17  20
ATOM     20  O   UNL     1      94.549  93.020  78.860  1.00  0.00    -0.493 OA
ATOM     21  C   UNL     1      95.893  92.664  78.493  1.00  0.00     0.278 C 
ENDBRANCH  17  20
BRANCH  19  22
ATOM     22  O   UNL     1      91.815  92.680  78.512  1.00  0.00    -0.504 OA
ATOM     23  H   UNL     1      91.007  93.092  78.827  1.00  0.00     0.293 HD
ENDBRANCH  19  22
ENDBRANCH  13  14
ENDBRANCH  11  13
ENDBRANCH   8   9
ENDBRANCH   1   8
TORSDOF 11
ENDMDL
MODEL 4
REMARK VINA RESULT:    -5.399      7.468     11.338
REMARK INTER + INTRA:          -9.479
REMARK INTER:                  -8.488
REMARK INTRA:                  -0.990
REMARK UNBOUND:                -0.765
REMARK SMILES CCCCCCCCC(=O)NCc1ccc(O)c(OC)c1
REMARK SMILES IDX 7 1 6 2 5 3 4 4 3 5 2 6 1 7 8 8 9 9 10 10 11 11 12 13 13 14
REMARK SMILES IDX 21 15 14 16 18 17 15 18 16 19 19 20 20 21 17 22
REMARK H PARENT 11 12 17 23
REMARK Flexibility Score: inf
ROOT
ATOM      1  C   UNL     1      95.746  93.480  78.076  1.00  0.00     0.010 C 
ENDROOT
BRANCH   1   2
ATOM      2  C   UNL     1      94.489  93.604  77.168  1.00  0.00     0.001 C 
BRANCH   2   3
ATOM      3  C   UNL     1      93.314  94.333  77.883  1.00  0.00     0.000 C 
BRANCH   3   4
ATOM      4  C   UNL     1      92.760  95.554  77.095  1.00  0.00    -0.000 C 
BRANCH   4   5
ATOM      5  C   UNL     1      92.926  95.399  75.556  1.00  0.00    -0.000 C 
BRANCH   5   6
ATOM      6  C   UNL     1      93.687  96.591  74.916  1.00  0.00    -0.003 C 
ATOM      7  C   UNL     1      95.157  96.255  74.581  1.00  0.00     0.004 C 
ENDBRANCH   5   6
ENDBRANCH   4   5
ENDBRANCH   3   4
ENDBRANCH   2   3
ENDBRANCH   1   2
BRANCH   1   8
ATOM      8  C   UNL     1      95.538  92.569  79.318  1.00  0.00     0.100 C 
BRANCH   8   9
ATOM      9  C   UNL     1      95.651  93.340  80.579  1.00  0.00     0.220 C 
ATOM     10  O   UNL     1      95.767  92.707  81.656  1.00  0.00    -0.275 OA
ATOM     11  N   UNL     1      95.656  94.706  80.559  1.00  0.00    -0.352 N 
ATOM     12  H   UNL     1      95.470  95.111  79.653  1.00  0.00     0.163 HD
BRANCH  11  13
ATOM     13  C   UNL     1      95.900  95.557  81.683  1.00  0.00     0.151 C 
BRANCH  13  14
ATOM     14  C   UNL     1      96.359  96.923  81.315  1.00  0.00    -0.025 A 
ATOM     15  C   UNL     1      96.068  98.023  82.156  1.00  0.00     0.056 A 
ATOM     16  C   UNL     1      97.087  97.148  80.124  1.00  0.00     0.009 A 
ATOM     17  C   UNL     1      96.514  99.324  81.828  1.00  0.00     0.160 A 
ATOM     18  C   UNL     1      97.533  98.440  79.792  1.00  0.00     0.050 A 
ATOM     19  C   UNL     1      97.243  99.530  80.635  1.00  0.00     0.157 A 
BRANCH  17  20
ATOM     20  O   UNL     1      96.195 100.396  82.623  1.00  0.00    -0.493 OA
ATOM     21  C   UNL     1      96.240 100.117  84.034  1.00  0.00     0.278 C 
ENDBRANCH  17  20
BRANCH  19  22
ATOM     22  O   UNL     1      97.655 100.777  80.293  1.00  0.00    -0.504 OA
ATOM     23  H   UNL     1      98.234 101.122  80.976  1.00  0.00     0.293 HD
ENDBRANCH  19  22
ENDBRANCH  13  14
ENDBRANCH  11  13
ENDBRANCH   8   9
ENDBRANCH   1   8
TORSDOF 11
ENDMDL
MODEL 5
REMARK VINA RESULT:    -5.374      2.582      8.422
REMARK INTER + INTRA:          -9.438
REMARK INTER:                  -8.656
REMARK INTRA:                  -0.782
REMARK UNBOUND:                -0.765
REMARK SMILES CCCCCCCCC(=O)NCc1ccc(O)c(OC)c1
REMARK SMILES IDX 7 1 6 2 5 3 4 4 3 5 2 6 1 7 8 8 9 9 10 10 11 11 12 13 13 14
REMARK SMILES IDX 21 15 14 16 18 17 15 18 16 19 19 20 20 21 17 22
REMARK H PARENT 11 12 17 23
REMARK Flexibility Score: inf
ROOT
ATOM      1  C   UNL     1      90.670  99.011  69.064  1.00  0.00     0.010 C 
ENDROOT
BRANCH   1   2
ATOM      2  C   UNL     1      90.261  97.597  68.561  1.00  0.00     0.001 C 
BRANCH   2   3
ATOM      3  C   UNL     1      89.190  97.660  67.432  1.00  0.00     0.000 C 
BRANCH   3   4
ATOM      4  C   UNL     1      89.176  99.007  66.656  1.00  0.00    -0.000 C 
BRANCH   4   5
ATOM      5  C   UNL     1      87.783  99.698  66.678  1.00  0.00    -0.000 C 
BRANCH   5   6
ATOM      6  C   UNL     1      87.880 101.240  66.533  1.00  0.00    -0.003 C 
ATOM      7  C   UNL     1      89.333 101.759  66.597  1.00  0.00     0.004 C 
ENDBRANCH   5   6
ENDBRANCH   4   5
ENDBRANCH   3   4
ENDBRANCH   2   3
ENDBRANCH   1   2
BRANCH   1   8
ATOM      8  C   UNL     1      90.277  99.290  70.542  1.00  0.00     0.100 C 
BRANCH   8   9
ATOM      9  C   UNL     1      91.360 100.001  71.263  1.00  0.00     0.220 C 
ATOM     10  O   UNL     1      91.286 101.249  71.367  1.00  0.00    -0.275 OA
ATOM     11  N   UNL     1      92.393  99.306  71.823  1.00  0.00    -0.352 N 
ATOM     12  H   UNL     1      92.399  98.321  71.606  1.00  0.00     0.163 HD
BRANCH  11  13
ATOM     13  C   UNL     1      93.416  99.858  72.659  1.00  0.00     0.151 C 
BRANCH  13  14
ATOM     14  C   UNL     1      94.060  98.863  73.557  1.00  0.00    -0.025 A 
ATOM     15  C   UNL     1      93.332  97.739  74.014  1.00  0.00     0.056 A 
ATOM     16  C   UNL     1      95.402  99.021  73.973  1.00  0.00     0.009 A 
ATOM     17  C   UNL     1      93.936  96.776  74.854  1.00  0.00     0.160 A 
ATOM     18  C   UNL     1      96.010  98.066  74.807  1.00  0.00     0.050 A 
ATOM     19  C   UNL     1      95.280  96.949  75.256  1.00  0.00     0.157 A 
BRANCH  17  20
ATOM     20  O   UNL     1      93.216  95.709  75.330  1.00  0.00    -0.493 OA
ATOM     21  C   UNL     1      92.469  95.990  76.527  1.00  0.00     0.278 C 
ENDBRANCH  17  20
BRANCH  19  22
ATOM     22  O   UNL     1      95.866  96.047  76.084  1.00  0.00    -0.504 OA
ATOM     23  H   UNL     1      95.263  95.317  76.242  1.00  0.00     0.293 HD
ENDBRANCH  19  22
ENDBRANCH  13  14
ENDBRANCH  11  13
ENDBRANCH   8   9
ENDBRANCH   1   8
TORSDOF 11
ENDMDL
MODEL 6
REMARK VINA RESULT:    -5.352     16.409     19.377
REMARK INTER + INTRA:          -9.402
REMARK INTER:                  -8.225
REMARK INTRA:                  -1.176
REMARK UNBOUND:                -0.765
REMARK SMILES CCCCCCCCC(=O)NCc1ccc(O)c(OC)c1
REMARK SMILES IDX 7 1 6 2 5 3 4 4 3 5 2 6 1 7 8 8 9 9 10 10 11 11 12 13 13 14
REMARK SMILES IDX 21 15 14 16 18 17 15 18 16 19 19 20 20 21 17 22
REMARK H PARENT 11 12 17 23
REMARK Flexibility Score: inf
ROOT
ATOM      1  C   UNL     1      99.778  83.117  74.171  1.00  0.00     0.010 C 
ENDROOT
BRANCH   1   2
ATOM      2  C   UNL     1     100.822  84.054  73.499  1.00  0.00     0.001 C 
BRANCH   2   3
ATOM      3  C   UNL     1     100.303  84.650  72.157  1.00  0.00     0.000 C 
BRANCH   3   4
ATOM      4  C   UNL     1     101.145  84.233  70.918  1.00  0.00    -0.000 C 
BRANCH   4   5
ATOM      5  C   UNL     1     101.646  82.763  71.000  1.00  0.00    -0.000 C 
BRANCH   5   6
ATOM      6  C   UNL     1     100.801  81.797  70.126  1.00  0.00    -0.003 C 
ATOM      7  C   UNL     1      99.892  80.870  70.963  1.00  0.00     0.004 C 
ENDBRANCH   5   6
ENDBRANCH   4   5
ENDBRANCH   3   4
ENDBRANCH   2   3
ENDBRANCH   1   2
BRANCH   1   8
ATOM      8  C   UNL     1      98.388  83.123  73.475  1.00  0.00     0.100 C 
BRANCH   8   9
ATOM      9  C   UNL     1      97.309  82.752  74.422  1.00  0.00     0.220 C 
ATOM     10  O   UNL     1      96.296  82.166  73.971  1.00  0.00    -0.275 OA
ATOM     11  N   UNL     1      97.434  83.018  75.756  1.00  0.00    -0.352 N 
ATOM     12  H   UNL     1      98.246  83.568  75.997  1.00  0.00     0.163 HD
BRANCH  11  13
ATOM     13  C   UNL     1      96.535  82.588  76.782  1.00  0.00     0.151 C 
BRANCH  13  14
ATOM     14  C   UNL     1      97.205  81.907  77.922  1.00  0.00    -0.025 A 
ATOM     15  C   UNL     1      98.288  81.026  77.689  1.00  0.00     0.056 A 
ATOM     16  C   UNL     1      96.774  82.121  79.252  1.00  0.00     0.009 A 
ATOM     17  C   UNL     1      98.946  80.385  78.763  1.00  0.00     0.160 A 
ATOM     18  C   UNL     1      97.425  81.487  80.325  1.00  0.00     0.050 A 
ATOM     19  C   UNL     1      98.504  80.614  80.086  1.00  0.00     0.157 A 
BRANCH  17  20
ATOM     20  O   UNL     1      99.968  79.499  78.532  1.00  0.00    -0.493 OA
ATOM     21  C   UNL     1     100.758  79.802  77.369  1.00  0.00     0.278 C 
ENDBRANCH  17  20
BRANCH  19  22
ATOM     22  O   UNL     1      99.108  79.986  81.127  1.00  0.00    -0.504 OA
ATOM     23  H   UNL     1      99.935  79.599  80.830  1.00  0.00     0.293 HD
ENDBRANCH  19  22
ENDBRANCH  13  14
ENDBRANCH  11  13
ENDBRANCH   8   9
ENDBRANCH   1   8
TORSDOF 11
ENDMDL
MODEL 7
REMARK VINA RESULT:    -5.300     18.139     21.358
REMARK INTER + INTRA:          -9.319
REMARK INTER:                  -8.858
REMARK INTRA:                  -0.461
REMARK UNBOUND:                -0.765
REMARK SMILES CCCCCCCCC(=O)NCc1ccc(O)c(OC)c1
REMARK SMILES IDX 7 1 6 2 5 3 4 4 3 5 2 6 1 7 8 8 9 9 10 10 11 11 12 13 13 14
REMARK SMILES IDX 21 15 14 16 18 17 15 18 16 19 19 20 20 21 17 22
REMARK H PARENT 11 12 17 23
REMARK Flexibility Score: inf
ROOT
ATOM      1  C   UNL     1      96.215  81.196  83.057  1.00  0.00     0.010 C 
ENDROOT
BRANCH   1   2
ATOM      2  C   UNL     1      97.532  81.187  82.228  1.00  0.00     0.001 C 
BRANCH   2   3
ATOM      3  C   UNL     1      97.276  80.896  80.720  1.00  0.00     0.000 C 
BRANCH   3   4
ATOM      4  C   UNL     1      96.999  82.171  79.874  1.00  0.00    -0.000 C 
BRANCH   4   5
ATOM      5  C   UNL     1      97.081  81.906  78.344  1.00  0.00    -0.000 C 
BRANCH   5   6
ATOM      6  C   UNL     1      95.939  82.604  77.556  1.00  0.00    -0.003 C 
ATOM      7  C   UNL     1      96.273  82.795  76.060  1.00  0.00     0.004 C 
ENDBRANCH   5   6
ENDBRANCH   4   5
ENDBRANCH   3   4
ENDBRANCH   2   3
ENDBRANCH   1   2
BRANCH   1   8
ATOM      8  C   UNL     1      95.614  82.614  83.268  1.00  0.00     0.100 C 
BRANCH   8   9
ATOM      9  C   UNL     1      95.216  82.827  84.681  1.00  0.00     0.220 C 
ATOM     10  O   UNL     1      96.113  82.837  85.557  1.00  0.00    -0.275 OA
ATOM     11  N   UNL     1      93.907  83.035  85.009  1.00  0.00    -0.352 N 
ATOM     12  H   UNL     1      93.261  82.920  84.241  1.00  0.00     0.163 HD
BRANCH  11  13
ATOM     13  C   UNL     1      93.416  83.390  86.305  1.00  0.00     0.151 C 
BRANCH  13  14
ATOM     14  C   UNL     1      92.110  82.765  86.645  1.00  0.00    -0.025 A 
ATOM     15  C   UNL     1      91.338  82.136  85.640  1.00  0.00     0.056 A 
ATOM     16  C   UNL     1      91.615  82.791  87.970  1.00  0.00     0.009 A 
ATOM     17  C   UNL     1      90.103  81.523  85.952  1.00  0.00     0.160 A 
ATOM     18  C   UNL     1      90.388  82.182  88.286  1.00  0.00     0.050 A 
ATOM     19  C   UNL     1      89.626  81.555  87.282  1.00  0.00     0.157 A 
BRANCH  17  20
ATOM     20  O   UNL     1      89.336  80.950  84.968  1.00  0.00    -0.493 OA
ATOM     21  C   UNL     1      88.425  81.860  84.327  1.00  0.00     0.278 C 
ENDBRANCH  17  20
BRANCH  19  22
ATOM     22  O   UNL     1      88.429  80.994  87.592  1.00  0.00    -0.504 OA
ATOM     23  H   UNL     1      88.513  80.494  88.407  1.00  0.00     0.293 HD
ENDBRANCH  19  22
ENDBRANCH  13  14
ENDBRANCH  11  13
ENDBRANCH   8   9
ENDBRANCH   1   8
TORSDOF 11
ENDMDL
MODEL 8
REMARK VINA RESULT:    -5.276      7.144     10.875
REMARK INTER + INTRA:          -9.279
REMARK INTER:                  -8.197
REMARK INTRA:                  -1.083
REMARK UNBOUND:                -0.765
REMARK SMILES CCCCCCCCC(=O)NCc1ccc(O)c(OC)c1
REMARK SMILES IDX 7 1 6 2 5 3 4 4 3 5 2 6 1 7 8 8 9 9 10 10 11 11 12 13 13 14
REMARK SMILES IDX 21 15 14 16 18 17 15 18 16 19 19 20 20 21 17 22
REMARK H PARENT 11 12 17 23
REMARK Flexibility Score: inf
ROOT
ATOM      1  C   UNL     1      95.969  93.476  78.252  1.00  0.00     0.010 C 
ENDROOT
BRANCH   1   2
ATOM      2  C   UNL     1      94.830  93.710  77.219  1.00  0.00     0.001 C 
BRANCH   2   3
ATOM      3  C   UNL     1      93.514  94.200  77.895  1.00  0.00     0.000 C 
BRANCH   3   4
ATOM      4  C   UNL     1      92.913  95.477  77.243  1.00  0.00    -0.000 C 
BRANCH   4   5
ATOM      5  C   UNL     1      92.819  95.373  75.694  1.00  0.00    -0.000 C 
BRANCH   5   6
ATOM      6  C   UNL     1      93.655  96.464  74.972  1.00  0.00    -0.003 C 
ATOM      7  C   UNL     1      94.841  95.881  74.174  1.00  0.00     0.004 C 
ENDBRANCH   5   6
ENDBRANCH   4   5
ENDBRANCH   3   4
ENDBRANCH   2   3
ENDBRANCH   1   2
BRANCH   1   8
ATOM      8  C   UNL     1      95.501  92.774  79.558  1.00  0.00     0.100 C 
BRANCH   8   9
ATOM      9  C   UNL     1      95.873  93.563  80.757  1.00  0.00     0.220 C 
ATOM     10  O   UNL     1      96.524  92.993  81.666  1.00  0.00    -0.275 OA
ATOM     11  N   UNL     1      95.538  94.883  80.851  1.00  0.00    -0.352 N 
ATOM     12  H   UNL     1      94.943  95.217  80.107  1.00  0.00     0.163 HD
BRANCH  11  13
ATOM     13  C   UNL     1      95.958  95.781  81.883  1.00  0.00     0.151 C 
BRANCH  13  14
ATOM     14  C   UNL     1      96.405  97.108  81.381  1.00  0.00    -0.025 A 
ATOM     15  C   UNL     1      97.051  97.214  80.126  1.00  0.00     0.056 A 
ATOM     16  C   UNL     1      96.199  98.280  82.144  1.00  0.00     0.009 A 
ATOM     17  C   UNL     1      97.466  98.471  79.629  1.00  0.00     0.160 A 
ATOM     18  C   UNL     1      96.608  99.533  81.654  1.00  0.00     0.050 A 
ATOM     19  C   UNL     1      97.248  99.632  80.403  1.00  0.00     0.157 A 
BRANCH  17  20
ATOM     20  O   UNL     1      98.129  98.566  78.431  1.00  0.00    -0.493 OA
ATOM     21  C   UNL     1      99.462  98.026  78.452  1.00  0.00     0.278 C 
ENDBRANCH  17  20
BRANCH  19  22
ATOM     22  O   UNL     1      97.664 100.843  79.951  1.00  0.00    -0.504 OA
ATOM     23  H   UNL     1      96.902 101.367  79.694  1.00  0.00     0.293 HD
ENDBRANCH  19  22
ENDBRANCH  13  14
ENDBRANCH  11  13
ENDBRANCH   8   9
ENDBRANCH   1   8
TORSDOF 11
ENDMDL
MODEL 9
REMARK VINA RESULT:    -5.213     28.879     32.348
REMARK INTER + INTRA:          -9.178
REMARK INTER:                  -7.735
REMARK INTRA:                  -1.444
REMARK UNBOUND:                -0.765
REMARK SMILES CCCCCCCCC(=O)NCc1ccc(O)c(OC)c1
REMARK SMILES IDX 7 1 6 2 5 3 4 4 3 5 2 6 1 7 8 8 9 9 10 10 11 11 12 13 13 14
REMARK SMILES IDX 21 15 14 16 18 17 15 18 16 19 19 20 20 21 17 22
REMARK H PARENT 11 12 17 23
REMARK Flexibility Score: inf
ROOT
ATOM      1  C   UNL     1      81.805  64.387  76.171  1.00  0.00     0.010 C 
ENDROOT
BRANCH   1   2
ATOM      2  C   UNL     1      80.729  64.438  75.048  1.00  0.00     0.001 C 
BRANCH   2   3
ATOM      3  C   UNL     1      80.174  65.876  74.829  1.00  0.00     0.000 C 
BRANCH   3   4
ATOM      4  C   UNL     1      80.771  66.596  73.587  1.00  0.00    -0.000 C 
BRANCH   4   5
ATOM      5  C   UNL     1      81.397  65.607  72.563  1.00  0.00    -0.000 C 
BRANCH   5   6
ATOM      6  C   UNL     1      80.905  65.860  71.112  1.00  0.00    -0.003 C 
ATOM      7  C   UNL     1      82.055  66.208  70.141  1.00  0.00     0.004 C 
ENDBRANCH   5   6
ENDBRANCH   4   5
ENDBRANCH   3   4
ENDBRANCH   2   3
ENDBRANCH   1   2
BRANCH   1   8
ATOM      8  C   UNL     1      83.253  64.180  75.646  1.00  0.00     0.100 C 
BRANCH   8   9
ATOM      9  C   UNL     1      84.099  65.368  75.912  1.00  0.00     0.220 C 
ATOM     10  O   UNL     1      84.883  65.334  76.891  1.00  0.00    -0.275 OA
ATOM     11  N   UNL     1      84.042  66.458  75.091  1.00  0.00    -0.352 N 
ATOM     12  H   UNL     1      83.318  66.415  74.389  1.00  0.00     0.163 HD
BRANCH  11  13
ATOM     13  C   UNL     1      84.901  67.601  75.158  1.00  0.00     0.151 C 
BRANCH  13  14
ATOM     14  C   UNL     1      84.756  68.530  74.006  1.00  0.00    -0.025 A 
ATOM     15  C   UNL     1      85.253  69.853  74.091  1.00  0.00     0.056 A 
ATOM     16  C   UNL     1      84.120  68.115  72.813  1.00  0.00     0.009 A 
ATOM     17  C   UNL     1      85.137  70.742  72.998  1.00  0.00     0.160 A 
ATOM     18  C   UNL     1      84.003  68.995  71.722  1.00  0.00     0.050 A 
ATOM     19  C   UNL     1      84.502  70.309  71.812  1.00  0.00     0.157 A 
BRANCH  17  20
ATOM     20  O   UNL     1      85.581  72.037  73.097  1.00  0.00    -0.493 OA
ATOM     21  C   UNL     1      85.857  72.463  74.443  1.00  0.00     0.278 C 
ENDBRANCH  17  20
BRANCH  19  22
ATOM     22  O   UNL     1      84.360  71.159  70.764  1.00  0.00    -0.504 OA
ATOM     23  H   UNL     1      83.838  71.918  71.035  1.00  0.00     0.293 HD
ENDBRANCH  19  22
ENDBRANCH  13  14
ENDBRANCH  11  13
ENDBRANCH   8   9
ENDBRANCH   1   8
TORSDOF 11
ENDMDL
MODEL 10
REMARK VINA RESULT:    -5.205      6.474      9.718
REMARK INTER + INTRA:          -9.165
REMARK INTER:                  -8.623
REMARK INTRA:                  -0.542
REMARK UNBOUND:                -0.765
REMARK SMILES CCCCCCCCC(=O)NCc1ccc(O)c(OC)c1
REMARK SMILES IDX 7 1 6 2 5 3 4 4 3 5 2 6 1 7 8 8 9 9 10 10 11 11 12 13 13 14
REMARK SMILES IDX 21 15 14 16 18 17 15 18 16 19 19 20 20 21 17 22
REMARK H PARENT 11 12 17 23
REMARK Flexibility Score: inf
ROOT
ATOM      1  C   UNL     1      97.207  97.015  82.184  1.00  0.00     0.010 C 
ENDROOT
BRANCH   1   2
ATOM      2  C   UNL     1      96.976  98.432  82.784  1.00  0.00     0.001 C 
BRANCH   2   3
ATOM      3  C   UNL     1      96.315  99.404  81.762  1.00  0.00     0.000 C 
BRANCH   3   4
ATOM      4  C   UNL     1      95.305 100.397  82.403  1.00  0.00    -0.000 C 
BRANCH   4   5
ATOM      5  C   UNL     1      95.254 101.763  81.662  1.00  0.00    -0.000 C 
BRANCH   5   6
ATOM      6  C   UNL     1      95.830 101.682  80.223  1.00  0.00    -0.003 C 
ATOM      7  C   UNL     1      94.996 102.481  79.197  1.00  0.00     0.004 C 
ENDBRANCH   5   6
ENDBRANCH   4   5
ENDBRANCH   3   4
ENDBRANCH   2   3
ENDBRANCH   1   2
BRANCH   1   8
ATOM      8  C   UNL     1      95.919  96.150  82.098  1.00  0.00     0.100 C 
BRANCH   8   9
ATOM      9  C   UNL     1      96.064  95.063  81.101  1.00  0.00     0.220 C 
ATOM     10  O   UNL     1      96.783  94.078  81.395  1.00  0.00    -0.275 OA
ATOM     11  N   UNL     1      95.407  95.125  79.906  1.00  0.00    -0.352 N 
ATOM     12  H   UNL     1      94.928  95.998  79.737  1.00  0.00     0.163 HD
BRANCH  11  13
ATOM     13  C   UNL     1      95.353  94.083  78.926  1.00  0.00     0.151 C 
BRANCH  13  14
ATOM     14  C   UNL     1      94.114  94.094  78.104  1.00  0.00    -0.025 A 
ATOM     15  C   UNL     1      94.034  94.905  76.947  1.00  0.00     0.056 A 
ATOM     16  C   UNL     1      92.998  93.302  78.461  1.00  0.00     0.009 A 
ATOM     17  C   UNL     1      92.869  94.913  76.146  1.00  0.00     0.160 A 
ATOM     18  C   UNL     1      91.837  93.305  77.668  1.00  0.00     0.050 A 
ATOM     19  C   UNL     1      91.765  94.112  76.516  1.00  0.00     0.157 A 
BRANCH  17  20
ATOM     20  O   UNL     1      92.778  95.732  75.049  1.00  0.00    -0.493 OA
ATOM     21  C   UNL     1      94.041  96.248  74.593  1.00  0.00     0.278 C 
ENDBRANCH  17  20
BRANCH  19  22
ATOM     22  O   UNL     1      90.630  94.129  75.772  1.00  0.00    -0.504 OA
ATOM     23  H   UNL     1      90.526  94.992  75.365  1.00  0.00     0.293 HD
ENDBRANCH  19  22
ENDBRANCH  13  14
ENDBRANCH  11  13
ENDBRANCH   8   9
ENDBRANCH   1   8
TORSDOF 11
ENDMDL
