MODEL 1
REMARK VINA RESULT:    -5.979      0.000      0.000
REMARK INTER + INTRA:         -10.302
REMARK INTER:                  -9.300
REMARK INTRA:                  -1.001
REMARK UNBOUND:                -1.001
REMARK SMILES COc1cc(CNC(=O)CCCCCC(C)C)ccc1O
REMARK SMILES IDX 10 1 8 2 7 3 9 5 6 6 5 7 3 8 20 9 4 10 19 11 18 12 2 13 1 14
REMARK SMILES IDX 21 15 11 17 12 18 13 19 14 20 15 21 16 22 17 23
REMARK H PARENT 7 4 21 16
REMARK Flexibility Score: inf
ROOT
ATOM      1  C   UNL     1      77.216  85.271  66.386  1.00  0.00     0.100 C 
ENDROOT
BRANCH   1   2
ATOM      2  C   UNL     1      77.346  84.028  65.598  1.00  0.00     0.220 C 
ATOM      3  N   UNL     1      77.110  82.827  66.198  1.00  0.00    -0.352 N 
ATOM      4  H   UNL     1      76.986  82.870  67.199  1.00  0.00     0.163 HD
ATOM      5  O   UNL     1      77.631  84.107  64.378  1.00  0.00    -0.275 OA
BRANCH   3   6
ATOM      6  C   UNL     1      77.030  81.572  65.522  1.00  0.00     0.151 C 
BRANCH   6   7
ATOM      7  C   UNL     1      75.686  81.305  64.942  1.00  0.00    -0.025 A 
ATOM      8  C   UNL     1      73.243  81.179  65.191  1.00  0.00     0.160 A 
ATOM      9  C   UNL     1      73.122  80.862  63.821  1.00  0.00     0.157 A 
ATOM     10  C   UNL     1      74.525  81.380  65.747  1.00  0.00     0.056 A 
ATOM     11  C   UNL     1      74.272  80.759  63.018  1.00  0.00     0.050 A 
ATOM     12  C   UNL     1      75.544  80.984  63.572  1.00  0.00     0.009 A 
BRANCH   8  13
ATOM     13  O   UNL     1      72.137  81.265  65.995  1.00  0.00    -0.493 OA
ATOM     14  C   UNL     1      71.800  82.612  66.379  1.00  0.00     0.278 C 
ENDBRANCH   8  13
BRANCH   9  15
ATOM     15  O   UNL     1      71.895  80.665  63.278  1.00  0.00    -0.504 OA
ATOM     16  H   UNL     1      71.979  80.555  62.328  1.00  0.00     0.293 HD
ENDBRANCH   9  15
ENDBRANCH   6   7
ENDBRANCH   3   6
ENDBRANCH   1   2
BRANCH   1  17
ATOM     17  C   UNL     1      78.051  85.288  67.694  1.00  0.00     0.010 C 
BRANCH  17  18
ATOM     18  C   UNL     1      78.185  86.725  68.269  1.00  0.00     0.001 C 
BRANCH  18  19
ATOM     19  C   UNL     1      77.530  86.893  69.666  1.00  0.00     0.000 C 
BRANCH  19  20
ATOM     20  C   UNL     1      75.982  87.021  69.579  1.00  0.00     0.003 C 
BRANCH  20  21
ATOM     21  C   UNL     1      75.184  85.933  70.368  1.00  0.00    -0.017 C 
ATOM     22  C   UNL     1      76.087  84.705  70.688  1.00  0.00     0.007 C 
ATOM     23  C   UNL     1      73.897  85.469  69.624  1.00  0.00     0.007 C 
ENDBRANCH  20  21
ENDBRANCH  19  20
ENDBRANCH  18  19
ENDBRANCH  17  18
ENDBRANCH   1  17
TORSDOF 10
ENDMDL
MODEL 2
REMARK VINA RESULT:    -5.656     22.931     27.319
REMARK INTER + INTRA:          -9.799
REMARK INTER:                  -8.741
REMARK INTRA:                  -1.057
REMARK UNBOUND:                -1.001
REMARK SMILES COc1cc(CNC(=O)CCCCCC(C)C)ccc1O
REMARK SMILES IDX 10 1 8 2 7 3 9 5 6 6 5 7 3 8 20 9 4 10 19 11 18 12 2 13 1 14
REMARK SMILES IDX 21 15 11 17 12 18 13 19 14 20 15 21 16 22 17 23
REMARK H PARENT 7 4 21 16
REMARK Flexibility Score: inf
ROOT
ATOM      1  C   UNL     1      94.388  94.924  77.349  1.00  0.00     0.100 C 
ENDROOT
BRANCH   1   2
ATOM      2  C   UNL     1      94.557  94.474  78.746  1.00  0.00     0.220 C 
ATOM      3  N   UNL     1      95.782  94.570  79.336  1.00  0.00    -0.352 N 
ATOM      4  H   UNL     1      96.534  94.828  78.714  1.00  0.00     0.163 HD
ATOM      5  O   UNL     1      93.556  94.052  79.375  1.00  0.00    -0.275 OA
BRANCH   3   6
ATOM      6  C   UNL     1      96.047  94.337  80.720  1.00  0.00     0.151 C 
BRANCH   6   7
ATOM      7  C   UNL     1      96.488  95.560  81.444  1.00  0.00    -0.025 A 
ATOM      8  C   UNL     1      96.557  98.010  81.646  1.00  0.00     0.160 A 
ATOM      9  C   UNL     1      97.270  97.888  82.857  1.00  0.00     0.157 A 
ATOM     10  C   UNL     1      96.187  96.847  80.938  1.00  0.00     0.056 A 
ATOM     11  C   UNL     1      97.598  96.614  83.356  1.00  0.00     0.050 A 
ATOM     12  C   UNL     1      97.206  95.459  82.658  1.00  0.00     0.009 A 
BRANCH   8  13
ATOM     13  O   UNL     1      96.244  99.242  81.133  1.00  0.00    -0.493 OA
ATOM     14  C   UNL     1      96.172  99.272  79.695  1.00  0.00     0.278 C 
ENDBRANCH   8  13
BRANCH   9  15
ATOM     15  O   UNL     1      97.632  99.000  83.545  1.00  0.00    -0.504 OA
ATOM     16  H   UNL     1      96.913  99.635  83.528  1.00  0.00     0.293 HD
ENDBRANCH   9  15
ENDBRANCH   6   7
ENDBRANCH   3   6
ENDBRANCH   1   2
BRANCH   1  17
ATOM     17  C   UNL     1      93.910  96.394  77.204  1.00  0.00     0.010 C 
BRANCH  17  18
ATOM     18  C   UNL     1      92.465  96.473  76.638  1.00  0.00     0.001 C 
BRANCH  18  19
ATOM     19  C   UNL     1      91.369  96.277  77.718  1.00  0.00     0.000 C 
BRANCH  19  20
ATOM     20  C   UNL     1      90.315  95.211  77.300  1.00  0.00     0.003 C 
BRANCH  20  21
ATOM     21  C   UNL     1      90.538  93.788  77.908  1.00  0.00    -0.017 C 
ATOM     22  C   UNL     1      91.197  92.836  76.867  1.00  0.00     0.007 C 
ATOM     23  C   UNL     1      89.228  93.153  78.457  1.00  0.00     0.007 C 
ENDBRANCH  20  21
ENDBRANCH  19  20
ENDBRANCH  18  19
ENDBRANCH  17  18
ENDBRANCH   1  17
TORSDOF 10
ENDMDL
MODEL 3
REMARK VINA RESULT:    -5.635     21.304     24.446
REMARK INTER + INTRA:          -9.766
REMARK INTER:                  -9.099
REMARK INTRA:                  -0.666
REMARK UNBOUND:                -1.001
REMARK SMILES COc1cc(CNC(=O)CCCCCC(C)C)ccc1O
REMARK SMILES IDX 10 1 8 2 7 3 9 5 6 6 5 7 3 8 20 9 4 10 19 11 18 12 2 13 1 14
REMARK SMILES IDX 21 15 11 17 12 18 13 19 14 20 15 21 16 22 17 23
REMARK H PARENT 7 4 21 16
REMARK Flexibility Score: inf
ROOT
ATOM      1  C   UNL     1      92.192  99.975  73.584  1.00  0.00     0.100 C 
ENDROOT
BRANCH   1   2
ATOM      2  C   UNL     1      93.369  99.322  74.194  1.00  0.00     0.220 C 
ATOM      3  N   UNL     1      93.255  98.752  75.427  1.00  0.00    -0.352 N 
ATOM      4  H   UNL     1      92.382  98.936  75.901  1.00  0.00     0.163 HD
ATOM      5  O   UNL     1      94.442  99.270  73.544  1.00  0.00    -0.275 OA
BRANCH   3   6
ATOM      6  C   UNL     1      94.251  97.945  76.054  1.00  0.00     0.151 C 
BRANCH   6   7
ATOM      7  C   UNL     1      93.680  96.836  76.866  1.00  0.00    -0.025 A 
ATOM      8  C   UNL     1      93.801  95.333  78.808  1.00  0.00     0.160 A 
ATOM      9  C   UNL     1      92.559  94.770  78.448  1.00  0.00     0.157 A 
ATOM     10  C   UNL     1      94.363  96.349  78.005  1.00  0.00     0.056 A 
ATOM     11  C   UNL     1      91.884  95.229  77.302  1.00  0.00     0.050 A 
ATOM     12  C   UNL     1      92.436  96.257  76.520  1.00  0.00     0.009 A 
BRANCH   8  13
ATOM     13  O   UNL     1      94.485  94.887  79.909  1.00  0.00    -0.493 OA
ATOM     14  C   UNL     1      95.530  93.945  79.603  1.00  0.00     0.278 C 
ENDBRANCH   8  13
BRANCH   9  15
ATOM     15  O   UNL     1      92.011  93.792  79.212  1.00  0.00    -0.504 OA
ATOM     16  H   UNL     1      91.208  93.472  78.795  1.00  0.00     0.293 HD
ENDBRANCH   9  15
ENDBRANCH   6   7
ENDBRANCH   3   6
ENDBRANCH   1   2
BRANCH   1  17
ATOM     17  C   UNL     1      92.449 100.563  72.171  1.00  0.00     0.010 C 
BRANCH  17  18
ATOM     18  C   UNL     1      91.669  99.784  71.076  1.00  0.00     0.001 C 
BRANCH  18  19
ATOM     19  C   UNL     1      90.145 100.071  71.083  1.00  0.00     0.000 C 
BRANCH  19  20
ATOM     20  C   UNL     1      89.300  98.765  71.140  1.00  0.00     0.003 C 
BRANCH  20  21
ATOM     21  C   UNL     1      88.836  98.219  69.751  1.00  0.00    -0.017 C 
ATOM     22  C   UNL     1      89.789  97.094  69.249  1.00  0.00     0.007 C 
ATOM     23  C   UNL     1      88.713  99.335  68.673  1.00  0.00     0.007 C 
ENDBRANCH  20  21
ENDBRANCH  19  20
ENDBRANCH  18  19
ENDBRANCH  17  18
ENDBRANCH   1  17
TORSDOF 10
ENDMDL
MODEL 4
REMARK VINA RESULT:    -5.608      1.793      2.270
REMARK INTER + INTRA:          -9.724
REMARK INTER:                  -7.986
REMARK INTRA:                  -1.738
REMARK UNBOUND:                -1.001
REMARK SMILES COc1cc(CNC(=O)CCCCCC(C)C)ccc1O
REMARK SMILES IDX 10 1 8 2 7 3 9 5 6 6 5 7 3 8 20 9 4 10 19 11 18 12 2 13 1 14
REMARK SMILES IDX 21 15 11 17 12 18 13 19 14 20 15 21 16 22 17 23
REMARK H PARENT 7 4 21 16
REMARK Flexibility Score: inf
ROOT
ATOM      1  C   UNL     1      76.896  87.508  66.498  1.00  0.00     0.100 C 
ENDROOT
BRANCH   1   2
ATOM      2  C   UNL     1      76.840  86.584  65.346  1.00  0.00     0.220 C 
ATOM      3  N   UNL     1      77.172  85.274  65.521  1.00  0.00    -0.352 N 
ATOM      4  H   UNL     1      77.568  85.053  66.424  1.00  0.00     0.163 HD
ATOM      5  O   UNL     1      76.445  87.018  64.236  1.00  0.00    -0.275 OA
BRANCH   3   6
ATOM      6  C   UNL     1      76.998  84.245  64.548  1.00  0.00     0.151 C 
BRANCH   6   7
ATOM      7  C   UNL     1      75.887  83.311  64.876  1.00  0.00    -0.025 A 
ATOM      8  C   UNL     1      73.482  82.811  64.980  1.00  0.00     0.160 A 
ATOM      9  C   UNL     1      73.774  81.509  65.439  1.00  0.00     0.157 A 
ATOM     10  C   UNL     1      74.538  83.709  64.719  1.00  0.00     0.056 A 
ATOM     11  C   UNL     1      75.111  81.111  65.625  1.00  0.00     0.050 A 
ATOM     12  C   UNL     1      76.159  82.002  65.340  1.00  0.00     0.009 A 
BRANCH   8  13
ATOM     13  O   UNL     1      72.186  83.224  64.812  1.00  0.00    -0.493 OA
ATOM     14  C   UNL     1      71.865  83.596  63.457  1.00  0.00     0.278 C 
ENDBRANCH   8  13
BRANCH   9  15
ATOM     15  O   UNL     1      72.766  80.639  65.695  1.00  0.00    -0.504 OA
ATOM     16  H   UNL     1      72.461  80.251  64.871  1.00  0.00     0.293 HD
ENDBRANCH   9  15
ENDBRANCH   6   7
ENDBRANCH   3   6
ENDBRANCH   1   2
BRANCH   1  17
ATOM     17  C   UNL     1      77.983  87.153  67.548  1.00  0.00     0.010 C 
BRANCH  17  18
ATOM     18  C   UNL     1      77.466  87.359  68.999  1.00  0.00     0.001 C 
BRANCH  18  19
ATOM     19  C   UNL     1      77.626  86.102  69.894  1.00  0.00     0.000 C 
BRANCH  19  20
ATOM     20  C   UNL     1      76.255  85.473  70.277  1.00  0.00     0.003 C 
BRANCH  20  21
ATOM     21  C   UNL     1      75.706  84.419  69.261  1.00  0.00    -0.017 C 
ATOM     22  C   UNL     1      76.872  83.721  68.501  1.00  0.00     0.007 C 
ATOM     23  C   UNL     1      74.695  85.027  68.246  1.00  0.00     0.007 C 
ENDBRANCH  20  21
ENDBRANCH  19  20
ENDBRANCH  18  19
ENDBRANCH  17  18
ENDBRANCH   1  17
TORSDOF 10
ENDMDL
MODEL 5
REMARK VINA RESULT:    -5.456     25.329     28.029
REMARK INTER + INTRA:          -9.487
REMARK INTER:                  -8.492
REMARK INTRA:                  -0.995
REMARK UNBOUND:                -1.001
REMARK SMILES COc1cc(CNC(=O)CCCCCC(C)C)ccc1O
REMARK SMILES IDX 10 1 8 2 7 3 9 5 6 6 5 7 3 8 20 9 4 10 19 11 18 12 2 13 1 14
REMARK SMILES IDX 21 15 11 17 12 18 13 19 14 20 15 21 16 22 17 23
REMARK H PARENT 7 4 21 16
REMARK Flexibility Score: inf
ROOT
ATOM      1  C   UNL     1      99.324  79.434  83.413  1.00  0.00     0.100 C 
ENDROOT
BRANCH   1   2
ATOM      2  C   UNL     1     100.046  80.337  82.493  1.00  0.00     0.220 C 
ATOM      3  N   UNL     1      99.422  81.454  82.024  1.00  0.00    -0.352 N 
ATOM      4  H   UNL     1      98.438  81.515  82.244  1.00  0.00     0.163 HD
ATOM      5  O   UNL     1     101.238  80.077  82.196  1.00  0.00    -0.275 OA
BRANCH   3   6
ATOM      6  C   UNL     1     100.052  82.494  81.275  1.00  0.00     0.151 C 
BRANCH   6   7
ATOM      7  C   UNL     1      99.260  82.924  80.092  1.00  0.00    -0.025 A 
ATOM      8  C   UNL     1      99.115  83.414  77.686  1.00  0.00     0.160 A 
ATOM      9  C   UNL     1      97.736  83.678  77.825  1.00  0.00     0.157 A 
ATOM     10  C   UNL     1      99.872  83.058  78.823  1.00  0.00     0.056 A 
ATOM     11  C   UNL     1      97.122  83.574  79.087  1.00  0.00     0.050 A 
ATOM     12  C   UNL     1      97.876  83.195  80.211  1.00  0.00     0.009 A 
BRANCH   8  13
ATOM     13  O   UNL     1      99.736  83.529  76.470  1.00  0.00    -0.493 OA
ATOM     14  C   UNL     1     101.166  83.366  76.529  1.00  0.00     0.278 C 
ENDBRANCH   8  13
BRANCH   9  15
ATOM     15  O   UNL     1      97.000  84.024  76.740  1.00  0.00    -0.504 OA
ATOM     16  H   UNL     1      96.527  83.254  76.415  1.00  0.00     0.293 HD
ENDBRANCH   9  15
ENDBRANCH   6   7
ENDBRANCH   3   6
ENDBRANCH   1   2
BRANCH   1  17
ATOM     17  C   UNL     1      98.172  80.114  84.201  1.00  0.00     0.010 C 
BRANCH  17  18
ATOM     18  C   UNL     1      98.641  80.591  85.603  1.00  0.00     0.001 C 
BRANCH  18  19
ATOM     19  C   UNL     1      97.515  81.258  86.436  1.00  0.00     0.000 C 
BRANCH  19  20
ATOM     20  C   UNL     1      96.585  82.148  85.561  1.00  0.00     0.003 C 
BRANCH  20  21
ATOM     21  C   UNL     1      97.141  83.576  85.248  1.00  0.00    -0.017 C 
ATOM     22  C   UNL     1      96.204  84.676  85.828  1.00  0.00     0.007 C 
ATOM     23  C   UNL     1      97.368  83.816  83.727  1.00  0.00     0.007 C 
ENDBRANCH  20  21
ENDBRANCH  19  20
ENDBRANCH  18  19
ENDBRANCH  17  18
ENDBRANCH   1  17
TORSDOF 10
ENDMDL
MODEL 6
REMARK VINA RESULT:    -5.297      1.723      2.663
REMARK INTER + INTRA:          -9.241
REMARK INTER:                  -8.129
REMARK INTRA:                  -1.111
REMARK UNBOUND:                -1.001
REMARK SMILES COc1cc(CNC(=O)CCCCCC(C)C)ccc1O
REMARK SMILES IDX 10 1 8 2 7 3 9 5 6 6 5 7 3 8 20 9 4 10 19 11 18 12 2 13 1 14
REMARK SMILES IDX 21 15 11 17 12 18 13 19 14 20 15 21 16 22 17 23
REMARK H PARENT 7 4 21 16
REMARK Flexibility Score: inf
ROOT
ATOM      1  C   UNL     1      78.157  85.417  67.253  1.00  0.00     0.100 C 
ENDROOT
BRANCH   1   2
ATOM      2  C   UNL     1      78.069  83.970  66.971  1.00  0.00     0.220 C 
ATOM      3  N   UNL     1      77.083  83.506  66.152  1.00  0.00    -0.352 N 
ATOM      4  H   UNL     1      76.387  84.191  65.895  1.00  0.00     0.163 HD
ATOM      5  O   UNL     1      78.933  83.201  67.459  1.00  0.00    -0.275 OA
BRANCH   3   6
ATOM      6  C   UNL     1      76.985  82.169  65.659  1.00  0.00     0.151 C 
BRANCH   6   7
ATOM      7  C   UNL     1      75.600  81.789  65.273  1.00  0.00    -0.025 A 
ATOM      8  C   UNL     1      73.175  81.870  65.676  1.00  0.00     0.160 A 
ATOM      9  C   UNL     1      72.957  81.122  64.500  1.00  0.00     0.157 A 
ATOM     10  C   UNL     1      74.495  82.183  66.065  1.00  0.00     0.056 A 
ATOM     11  C   UNL     1      74.049  80.702  63.719  1.00  0.00     0.050 A 
ATOM     12  C   UNL     1      75.360  81.037  64.099  1.00  0.00     0.009 A 
BRANCH   8  13
ATOM     13  O   UNL     1      72.126  82.272  66.461  1.00  0.00    -0.493 OA
ATOM     14  C   UNL     1      72.282  83.595  67.009  1.00  0.00     0.278 C 
ENDBRANCH   8  13
BRANCH   9  15
ATOM     15  O   UNL     1      71.692  80.814  64.119  1.00  0.00    -0.504 OA
ATOM     16  H   UNL     1      71.103  81.535  64.352  1.00  0.00     0.293 HD
ENDBRANCH   9  15
ENDBRANCH   6   7
ENDBRANCH   3   6
ENDBRANCH   1   2
BRANCH   1  17
ATOM     17  C   UNL     1      77.549  85.839  68.618  1.00  0.00     0.010 C 
BRANCH  17  18
ATOM     18  C   UNL     1      77.087  87.323  68.605  1.00  0.00     0.001 C 
BRANCH  18  19
ATOM     19  C   UNL     1      76.803  87.867  67.180  1.00  0.00     0.000 C 
BRANCH  19  20
ATOM     20  C   UNL     1      75.424  87.395  66.634  1.00  0.00     0.003 C 
BRANCH  20  21
ATOM     21  C   UNL     1      75.382  87.122  65.095  1.00  0.00    -0.017 C 
ATOM     22  C   UNL     1      74.656  85.779  64.789  1.00  0.00     0.007 C 
ATOM     23  C   UNL     1      76.795  87.126  64.442  1.00  0.00     0.007 C 
ENDBRANCH  20  21
ENDBRANCH  19  20
ENDBRANCH  18  19
ENDBRANCH  17  18
ENDBRANCH   1  17
TORSDOF 10
ENDMDL
MODEL 7
REMARK VINA RESULT:    -5.274     25.254     27.850
REMARK INTER + INTRA:          -9.204
REMARK INTER:                  -8.413
REMARK INTRA:                  -0.791
REMARK UNBOUND:                -1.001
REMARK SMILES COc1cc(CNC(=O)CCCCCC(C)C)ccc1O
REMARK SMILES IDX 10 1 8 2 7 3 9 5 6 6 5 7 3 8 20 9 4 10 19 11 18 12 2 13 1 14
REMARK SMILES IDX 21 15 11 17 12 18 13 19 14 20 15 21 16 22 17 23
REMARK H PARENT 7 4 21 16
REMARK Flexibility Score: inf
ROOT
ATOM      1  C   UNL     1      98.200  81.149  84.476  1.00  0.00     0.100 C 
ENDROOT
BRANCH   1   2
ATOM      2  C   UNL     1      99.178  81.246  83.373  1.00  0.00     0.220 C 
ATOM      3  N   UNL     1      98.858  81.956  82.254  1.00  0.00    -0.352 N 
ATOM      4  H   UNL     1      97.897  82.264  82.207  1.00  0.00     0.163 HD
ATOM      5  O   UNL     1     100.303  80.705  83.507  1.00  0.00    -0.275 OA
BRANCH   3   6
ATOM      6  C   UNL     1      99.762  82.274  81.196  1.00  0.00     0.151 C 
BRANCH   6   7
ATOM      7  C   UNL     1      99.080  82.805  79.985  1.00  0.00    -0.025 A 
ATOM      8  C   UNL     1      99.099  83.323  77.581  1.00  0.00     0.160 A 
ATOM      9  C   UNL     1      97.759  83.756  77.666  1.00  0.00     0.157 A 
ATOM     10  C   UNL     1      99.757  82.869  78.744  1.00  0.00     0.056 A 
ATOM     11  C   UNL     1      97.084  83.722  78.900  1.00  0.00     0.050 A 
ATOM     12  C   UNL     1      97.737  83.246  80.050  1.00  0.00     0.009 A 
BRANCH   8  13
ATOM     13  O   UNL     1      99.780  83.367  76.393  1.00  0.00    -0.493 OA
ATOM     14  C   UNL     1     101.069  84.004  76.484  1.00  0.00     0.278 C 
ENDBRANCH   8  13
BRANCH   9  15
ATOM     15  O   UNL     1      97.118  84.196  76.554  1.00  0.00    -0.504 OA
ATOM     16  H   UNL     1      97.647  84.874  76.128  1.00  0.00     0.293 HD
ENDBRANCH   9  15
ENDBRANCH   6   7
ENDBRANCH   3   6
ENDBRANCH   1   2
BRANCH   1  17
ATOM     17  C   UNL     1      97.455  82.475  84.787  1.00  0.00     0.010 C 
BRANCH  17  18
ATOM     18  C   UNL     1      98.421  83.557  85.345  1.00  0.00     0.001 C 
BRANCH  18  19
ATOM     19  C   UNL     1      97.706  84.877  85.739  1.00  0.00     0.000 C 
BRANCH  19  20
ATOM     20  C   UNL     1      96.161  84.777  85.586  1.00  0.00     0.003 C 
BRANCH  20  21
ATOM     21  C   UNL     1      95.353  84.963  86.912  1.00  0.00    -0.017 C 
ATOM     22  C   UNL     1      95.811  86.247  87.666  1.00  0.00     0.007 C 
ATOM     23  C   UNL     1      95.447  83.729  87.855  1.00  0.00     0.007 C 
ENDBRANCH  20  21
ENDBRANCH  19  20
ENDBRANCH  18  19
ENDBRANCH  17  18
ENDBRANCH   1  17
TORSDOF 10
ENDMDL
MODEL 8
REMARK VINA RESULT:    -5.208      2.500      4.209
REMARK INTER + INTRA:          -9.101
REMARK INTER:                  -7.286
REMARK INTRA:                  -1.816
REMARK UNBOUND:                -1.001
REMARK SMILES COc1cc(CNC(=O)CCCCCC(C)C)ccc1O
REMARK SMILES IDX 10 1 8 2 7 3 9 5 6 6 5 7 3 8 20 9 4 10 19 11 18 12 2 13 1 14
REMARK SMILES IDX 21 15 11 17 12 18 13 19 14 20 15 21 16 22 17 23
REMARK H PARENT 7 4 21 16
REMARK Flexibility Score: inf
ROOT
ATOM      1  C   UNL     1      74.229  87.650  69.880  1.00  0.00     0.100 C 
ENDROOT
BRANCH   1   2
ATOM      2  C   UNL     1      73.581  86.912  68.776  1.00  0.00     0.220 C 
ATOM      3  N   UNL     1      73.997  85.648  68.480  1.00  0.00    -0.352 N 
ATOM      4  H   UNL     1      74.830  85.350  68.968  1.00  0.00     0.163 HD
ATOM      5  O   UNL     1      72.630  87.451  68.159  1.00  0.00    -0.275 OA
BRANCH   3   6
ATOM      6  C   UNL     1      73.352  84.764  67.564  1.00  0.00     0.151 C 
BRANCH   6   7
ATOM      7  C   UNL     1      74.237  84.328  66.450  1.00  0.00    -0.025 A 
ATOM      8  C   UNL     1      75.176  82.541  65.047  1.00  0.00     0.160 A 
ATOM      9  C   UNL     1      75.871  83.505  64.287  1.00  0.00     0.157 A 
ATOM     10  C   UNL     1      74.379  82.956  66.134  1.00  0.00     0.056 A 
ATOM     11  C   UNL     1      75.759  84.870  64.609  1.00  0.00     0.050 A 
ATOM     12  C   UNL     1      74.944  85.280  65.678  1.00  0.00     0.009 A 
BRANCH   8  13
ATOM     13  O   UNL     1      75.288  81.205  64.762  1.00  0.00    -0.493 OA
ATOM     14  C   UNL     1      74.155  80.663  64.057  1.00  0.00     0.278 C 
ENDBRANCH   8  13
BRANCH   9  15
ATOM     15  O   UNL     1      76.642  83.116  63.240  1.00  0.00    -0.504 OA
ATOM     16  H   UNL     1      76.512  82.179  63.078  1.00  0.00     0.293 HD
ENDBRANCH   9  15
ENDBRANCH   6   7
ENDBRANCH   3   6
ENDBRANCH   1   2
BRANCH   1  17
ATOM     17  C   UNL     1      75.573  87.036  70.356  1.00  0.00     0.010 C 
BRANCH  17  18
ATOM     18  C   UNL     1      76.791  87.783  69.745  1.00  0.00     0.001 C 
BRANCH  18  19
ATOM     19  C   UNL     1      77.148  87.310  68.311  1.00  0.00     0.000 C 
BRANCH  19  20
ATOM     20  C   UNL     1      78.137  86.109  68.316  1.00  0.00     0.003 C 
BRANCH  20  21
ATOM     21  C   UNL     1      77.485  84.716  68.030  1.00  0.00    -0.017 C 
ATOM     22  C   UNL     1      77.074  84.013  69.357  1.00  0.00     0.007 C 
ATOM     23  C   UNL     1      78.403  83.780  67.192  1.00  0.00     0.007 C 
ENDBRANCH  20  21
ENDBRANCH  19  20
ENDBRANCH  18  19
ENDBRANCH  17  18
ENDBRANCH   1  17
TORSDOF 10
ENDMDL
MODEL 9
REMARK VINA RESULT:    -5.203      2.618      4.583
REMARK INTER + INTRA:          -9.095
REMARK INTER:                  -7.106
REMARK INTRA:                  -1.989
REMARK UNBOUND:                -1.001
REMARK SMILES COc1cc(CNC(=O)CCCCCC(C)C)ccc1O
REMARK SMILES IDX 10 1 8 2 7 3 9 5 6 6 5 7 3 8 20 9 4 10 19 11 18 12 2 13 1 14
REMARK SMILES IDX 21 15 11 17 12 18 13 19 14 20 15 21 16 22 17 23
REMARK H PARENT 7 4 21 16
REMARK Flexibility Score: inf
ROOT
ATOM      1  C   UNL     1      74.244  87.667  69.968  1.00  0.00     0.100 C 
ENDROOT
BRANCH   1   2
ATOM      2  C   UNL     1      73.554  86.952  68.875  1.00  0.00     0.220 C 
ATOM      3  N   UNL     1      73.917  85.672  68.578  1.00  0.00    -0.352 N 
ATOM      4  H   UNL     1      74.744  85.344  69.055  1.00  0.00     0.163 HD
ATOM      5  O   UNL     1      72.616  87.525  68.269  1.00  0.00    -0.275 OA
BRANCH   3   6
ATOM      6  C   UNL     1      73.226  84.811  67.673  1.00  0.00     0.151 C 
BRANCH   6   7
ATOM      7  C   UNL     1      74.090  84.308  66.570  1.00  0.00    -0.025 A 
ATOM      8  C   UNL     1      75.537  84.738  64.630  1.00  0.00     0.160 A 
ATOM      9  C   UNL     1      75.788  83.354  64.513  1.00  0.00     0.157 A 
ATOM     10  C   UNL     1      74.676  85.204  65.646  1.00  0.00     0.056 A 
ATOM     11  C   UNL     1      75.189  82.452  65.411  1.00  0.00     0.050 A 
ATOM     12  C   UNL     1      74.351  82.924  66.435  1.00  0.00     0.009 A 
BRANCH   8  13
ATOM     13  O   UNL     1      76.095  85.632  63.754  1.00  0.00    -0.493 OA
ATOM     14  C   UNL     1      76.807  86.708  64.394  1.00  0.00     0.278 C 
ENDBRANCH   8  13
BRANCH   9  15
ATOM     15  O   UNL     1      76.613  82.896  63.539  1.00  0.00    -0.504 OA
ATOM     16  H   UNL     1      77.033  83.638  63.099  1.00  0.00     0.293 HD
ENDBRANCH   9  15
ENDBRANCH   6   7
ENDBRANCH   3   6
ENDBRANCH   1   2
BRANCH   1  17
ATOM     17  C   UNL     1      75.602  87.040  70.384  1.00  0.00     0.010 C 
BRANCH  17  18
ATOM     18  C   UNL     1      76.800  87.790  69.741  1.00  0.00     0.001 C 
BRANCH  18  19
ATOM     19  C   UNL     1      77.078  87.365  68.275  1.00  0.00     0.000 C 
BRANCH  19  20
ATOM     20  C   UNL     1      78.105  86.200  68.183  1.00  0.00     0.003 C 
BRANCH  20  21
ATOM     21  C   UNL     1      77.492  84.805  67.835  1.00  0.00    -0.017 C 
ATOM     22  C   UNL     1      77.084  84.039  69.127  1.00  0.00     0.007 C 
ATOM     23  C   UNL     1      78.443  83.926  66.971  1.00  0.00     0.007 C 
ENDBRANCH  20  21
ENDBRANCH  19  20
ENDBRANCH  18  19
ENDBRANCH  17  18
ENDBRANCH   1  17
TORSDOF 10
ENDMDL
MODEL 10
REMARK VINA RESULT:    -5.196     25.598     28.302
REMARK INTER + INTRA:          -9.084
REMARK INTER:                  -8.646
REMARK INTRA:                  -0.437
REMARK UNBOUND:                -1.001
REMARK SMILES COc1cc(CNC(=O)CCCCCC(C)C)ccc1O
REMARK SMILES IDX 10 1 8 2 7 3 9 5 6 6 5 7 3 8 20 9 4 10 19 11 18 12 2 13 1 14
REMARK SMILES IDX 21 15 11 17 12 18 13 19 14 20 15 21 16 22 17 23
REMARK H PARENT 7 4 21 16
REMARK Flexibility Score: inf
ROOT
ATOM      1  C   UNL     1      98.322  82.014  83.282  1.00  0.00     0.100 C 
ENDROOT
BRANCH   1   2
ATOM      2  C   UNL     1      98.421  83.032  84.348  1.00  0.00     0.220 C 
ATOM      3  N   UNL     1      97.607  84.125  84.307  1.00  0.00    -0.352 N 
ATOM      4  H   UNL     1      97.072  84.225  83.456  1.00  0.00     0.163 HD
ATOM      5  O   UNL     1      99.225  82.848  85.294  1.00  0.00    -0.275 OA
BRANCH   3   6
ATOM      6  C   UNL     1      97.475  85.091  85.350  1.00  0.00     0.151 C 
BRANCH   6   7
ATOM      7  C   UNL     1      96.252  84.897  86.174  1.00  0.00    -0.025 A 
ATOM      8  C   UNL     1      94.590  83.407  87.206  1.00  0.00     0.160 A 
ATOM      9  C   UNL     1      93.961  84.523  87.799  1.00  0.00     0.157 A 
ATOM     10  C   UNL     1      95.720  83.603  86.383  1.00  0.00     0.056 A 
ATOM     11  C   UNL     1      94.466  85.817  87.576  1.00  0.00     0.050 A 
ATOM     12  C   UNL     1      95.605  86.003  86.775  1.00  0.00     0.009 A 
BRANCH   8  13
ATOM     13  O   UNL     1      94.102  82.141  87.395  1.00  0.00    -0.493 OA
ATOM     14  C   UNL     1      92.997  81.808  86.533  1.00  0.00     0.278 C 
ENDBRANCH   8  13
BRANCH   9  15
ATOM     15  O   UNL     1      92.873  84.346  88.590  1.00  0.00    -0.504 OA
ATOM     16  H   UNL     1      92.096  84.698  88.150  1.00  0.00     0.293 HD
ENDBRANCH   9  15
ENDBRANCH   6   7
ENDBRANCH   3   6
ENDBRANCH   1   2
BRANCH   1  17
ATOM     17  C   UNL     1      99.398  82.145  82.171  1.00  0.00     0.010 C 
BRANCH  17  18
ATOM     18  C   UNL     1      98.963  83.150  81.069  1.00  0.00     0.001 C 
BRANCH  18  19
ATOM     19  C   UNL     1      98.582  82.468  79.728  1.00  0.00     0.000 C 
BRANCH  19  20
ATOM     20  C   UNL     1      97.515  83.279  78.938  1.00  0.00     0.003 C 
BRANCH  20  21
ATOM     21  C   UNL     1      97.823  83.469  77.417  1.00  0.00    -0.017 C 
ATOM     22  C   UNL     1      99.303  83.101  77.100  1.00  0.00     0.007 C 
ATOM     23  C   UNL     1      97.511  84.908  76.912  1.00  0.00     0.007 C 
ENDBRANCH  20  21
ENDBRANCH  19  20
ENDBRANCH  18  19
ENDBRANCH  17  18
ENDBRANCH   1  17
TORSDOF 10
ENDMDL
