MODEL 1
REMARK VINA RESULT:    -7.592      0.000      0.000
REMARK INTER + INTRA:         -13.206
REMARK INTER:                 -12.918
REMARK INTRA:                  -0.288
REMARK UNBOUND:                -0.288
REMARK SMILES C=C(C)[C@]12C[C@@H](C)[C@@]34O[C@](Cc5ccccc5)(O[C@@H]1[C@@H]3C=C(COC(=O)Cc1ccc(O)cc1)C[C@]1(O)C(=O)C(C)=C[C@@H]41)O2
REMARK SMILES IDX 23 1 22 2 21 3 20 4 9 5 8 6 10 7 6 8 18 10 44 11 19 12 5 13
REMARK SMILES IDX 7 14 4 15 11 16 12 17 13 18 17 19 14 20 16 21 15 22 2 23
REMARK SMILES IDX 3 24 1 25 35 26 36 27 43 28 38 29 42 30 39 32 40 33 41 34
REMARK SMILES IDX 37 35 24 37 25 38 26 39 27 40 28 41 29 42 34 43 30 44 33 45
REMARK SMILES IDX 31 46 32 47
REMARK H PARENT 37 36 32 48
REMARK Flexibility Score: 90.00
ROOT
ATOM      1  C   UNL     1      93.947  82.435  84.211  1.00  0.00     0.264 C 
ENDROOT
BRANCH   1   2
ATOM      2  C   UNL     1      95.183  81.568  84.264  1.00  0.00    -0.033 C 
ATOM      3  C   UNL     1      95.680  81.058  83.118  1.00  0.00    -0.015 C 
BRANCH   3   4
ATOM      4  C   UNL     1      96.850  80.109  82.911  1.00  0.00     0.078 C 
ATOM      5  O   UNL     1      98.860  81.507  82.565  1.00  0.00    -0.319 OA
ATOM      6  C   UNL     1      98.260  80.527  83.468  1.00  0.00     0.095 CG0
ATOM      7  C   UNL     1      98.713  81.222  81.161  1.00  0.00     0.289 C 
ATOM      8  C   UNL     1      99.165  79.227  83.505  1.00  0.00     0.023 C 
ATOM      9  G   UNL     1      98.119  81.282  84.822  1.00  0.00     0.000 G0
ATOM     10  O   UNL     1      97.340  81.096  80.799  1.00  0.00    -0.320 OA
ATOM     11  O   UNL     1      99.323  79.987  80.792  1.00  0.00    -0.313 OA
ATOM     12  C   UNL     1      97.038  79.827  81.400  1.00  0.00     0.170 C 
ATOM     13  C   UNL     1      98.815  78.252  82.339  1.00  0.00     0.049 C 
ATOM     14  C   UNL     1     100.683  79.478  83.521  1.00  0.00     0.011 C 
ATOM     15  C   UNL     1      98.315  79.003  81.105  1.00  0.00     0.122 C 
BRANCH   7  16
ATOM     16  C   UNL     1      99.348  82.353  80.377  1.00  0.00     0.135 C 
BRANCH  16  17
ATOM     17  C   UNL     1      98.718  82.524  79.018  1.00  0.00    -0.040 A 
ATOM     18  C   UNL     1      97.564  83.293  78.876  1.00  0.00     0.004 A 
ATOM     19  C   UNL     1      99.291  81.913  77.903  1.00  0.00     0.004 A 
ATOM     20  C   UNL     1      96.981  83.451  77.617  1.00  0.00     0.000 A 
ATOM     21  C   UNL     1      98.709  82.071  76.645  1.00  0.00     0.000 A 
ATOM     22  C   UNL     1      97.554  82.840  76.503  1.00  0.00     0.000 A 
ENDBRANCH  16  17
ENDBRANCH   7  16
BRANCH  15  23
ATOM     23  C   UNL     1      98.146  78.110  79.919  1.00  0.00    -0.046 C 
ATOM     24  C   UNL     1      97.908  78.793  78.605  1.00  0.00     0.042 C 
ATOM     25  C   UNL     1      98.204  76.774  80.023  1.00  0.00     0.010 C 
ENDBRANCH  15  23
ENDBRANCH   3   4
BRANCH   2  26
ATOM     26  C   UNL     1      95.726  81.389  85.669  1.00  0.00     0.078 C 
BRANCH  26  27
ATOM     27  C   UNL     1      97.081  80.699  85.812  1.00  0.00     0.140 C 
ATOM     28  C   UNL     1      98.132  81.270  84.837  1.00  0.00     0.086 CG0
ATOM     29  C   UNL     1      97.720  80.949  87.161  1.00  0.00     0.190 C 
ATOM     30  C   UNL     1      99.347  81.458  85.702  1.00  0.00    -0.010 C 
ATOM     31  G   UNL     1      98.273  80.534  83.472  1.00  0.00     0.000 G0
ATOM     32  O   UNL     1      97.164  80.824  88.242  1.00  0.00    -0.291 OA
ATOM     33  C   UNL     1      99.142  81.313  87.015  1.00  0.00    -0.008 C 
ATOM     34  C   UNL     1     100.070  81.501  88.149  1.00  0.00     0.048 C 
BRANCH  27  35
ATOM     35  O   UNL     1      96.954  79.288  85.754  1.00  0.00    -0.381 OA
ATOM     36  H   UNL     1      97.702  78.934  85.244  1.00  0.00     0.212 HD
ENDBRANCH  27  35
ENDBRANCH  26  27
ENDBRANCH   2  26
ENDBRANCH   1   2
BRANCH   1  37
ATOM     37  O   UNL     1      93.378  82.516  85.500  1.00  0.00    -0.461 OA
BRANCH  37  38
ATOM     38  C   UNL     1      92.227  81.791  85.703  1.00  0.00     0.310 C 
ATOM     39  O   UNL     1      91.884  81.301  86.770  1.00  0.00    -0.252 OA
BRANCH  38  40
ATOM     40  C   UNL     1      91.456  81.696  84.408  1.00  0.00     0.158 C 
BRANCH  40  41
ATOM     41  C   UNL     1      90.646  80.431  84.297  1.00  0.00    -0.037 A 
ATOM     42  C   UNL     1      89.259  80.499  84.171  1.00  0.00     0.008 A 
ATOM     43  C   UNL     1      91.283  79.190  84.321  1.00  0.00     0.008 A 
ATOM     44  C   UNL     1      88.508  79.328  84.069  1.00  0.00     0.046 A 
ATOM     45  C   UNL     1      90.533  78.018  84.218  1.00  0.00     0.046 A 
ATOM     46  C   UNL     1      89.146  78.087  84.093  1.00  0.00     0.115 A 
BRANCH  46  47
ATOM     47  O   UNL     1      88.414  76.944  83.994  1.00  0.00    -0.508 OA
ATOM     48  H   UNL     1      87.472  77.162  84.108  1.00  0.00     0.293 HD
ENDBRANCH  46  47
ENDBRANCH  40  41
ENDBRANCH  38  40
ENDBRANCH  37  38
ENDBRANCH   1  37
TORSDOF 10
ENDMDL
MODEL 2
REMARK VINA RESULT:    -7.306     31.334     36.799
REMARK INTER + INTRA:         -12.720
REMARK INTER:                 -12.394
REMARK INTRA:                  -0.326
REMARK UNBOUND:                -0.288
REMARK SMILES C=C(C)[C@]12C[C@@H](C)[C@@]34O[C@](Cc5ccccc5)(O[C@@H]1[C@@H]3C=C(COC(=O)Cc1ccc(O)cc1)C[C@]1(O)C(=O)C(C)=C[C@@H]41)O2
REMARK SMILES IDX 23 1 22 2 21 3 20 4 9 5 8 6 10 7 6 8 18 10 44 11 19 12 5 13
REMARK SMILES IDX 7 14 4 15 11 16 12 17 13 18 17 19 14 20 16 21 15 22 2 23
REMARK SMILES IDX 3 24 1 25 35 26 36 27 43 28 38 29 42 30 39 32 40 33 41 34
REMARK SMILES IDX 37 35 24 37 25 38 26 39 27 40 28 41 29 42 34 43 30 44 33 45
REMARK SMILES IDX 31 46 32 47
REMARK H PARENT 37 36 32 48
REMARK Flexibility Score: 90.00
ROOT
ATOM      1  C   UNL     1      59.463  88.775  71.906  1.00  0.00     0.264 C 
ENDROOT
BRANCH   1   2
ATOM      2  C   UNL     1      60.397  87.851  72.652  1.00  0.00    -0.033 C 
ATOM      3  C   UNL     1      61.021  86.861  71.981  1.00  0.00    -0.015 C 
BRANCH   3   4
ATOM      4  C   UNL     1      61.937  85.767  72.505  1.00  0.00     0.078 C 
ATOM      5  O   UNL     1      64.256  86.595  72.273  1.00  0.00    -0.319 OA
ATOM      6  C   UNL     1      63.253  86.188  73.256  1.00  0.00     0.095 CG0
ATOM      7  C   UNL     1      64.347  85.756  71.105  1.00  0.00     0.289 C 
ATOM      8  C   UNL     1      63.780  84.921  74.048  1.00  0.00     0.023 C 
ATOM      9  G   UNL     1      63.015  87.463  74.117  1.00  0.00     0.000 G0
ATOM     10  O   UNL     1      63.097  85.674  70.427  1.00  0.00    -0.320 OA
ATOM     11  O   UNL     1      64.699  84.413  71.429  1.00  0.00    -0.313 OA
ATOM     12  C   UNL     1      62.369  84.840  71.342  1.00  0.00     0.170 C 
ATOM     13  C   UNL     1      63.459  83.598  73.289  1.00  0.00     0.049 C 
ATOM     14  C   UNL     1      65.273  84.947  74.419  1.00  0.00     0.011 C 
ATOM     15  C   UNL     1      63.437  83.805  71.774  1.00  0.00     0.122 C 
BRANCH   7  16
ATOM     16  C   UNL     1      65.396  86.343  70.181  1.00  0.00     0.135 C 
BRANCH  16  17
ATOM     17  C   UNL     1      66.692  85.574  70.234  1.00  0.00    -0.040 A 
ATOM     18  C   UNL     1      67.627  85.851  71.231  1.00  0.00     0.004 A 
ATOM     19  C   UNL     1      66.956  84.587  69.285  1.00  0.00     0.004 A 
ATOM     20  C   UNL     1      68.826  85.139  71.281  1.00  0.00     0.000 A 
ATOM     21  C   UNL     1      68.155  83.875  69.334  1.00  0.00     0.000 A 
ATOM     22  C   UNL     1      69.089  84.152  70.332  1.00  0.00     0.000 A 
ENDBRANCH  16  17
ENDBRANCH   7  16
BRANCH  15  23
ATOM     23  C   UNL     1      63.311  82.521  71.021  1.00  0.00    -0.046 C 
ATOM     24  C   UNL     1      62.946  81.312  71.830  1.00  0.00     0.042 C 
ATOM     25  C   UNL     1      63.514  82.453  69.697  1.00  0.00     0.010 C 
ENDBRANCH  15  23
ENDBRANCH   3   4
BRANCH   2  26
ATOM     26  C   UNL     1      60.514  88.186  74.127  1.00  0.00     0.078 C 
BRANCH  26  27
ATOM     27  C   UNL     1      61.646  87.520  74.907  1.00  0.00     0.140 C 
ATOM     28  C   UNL     1      62.963  87.479  74.104  1.00  0.00     0.086 CG0
ATOM     29  C   UNL     1      62.041  88.304  76.140  1.00  0.00     0.190 C 
ATOM     30  C   UNL     1      63.994  87.933  75.100  1.00  0.00    -0.010 C 
ATOM     31  G   UNL     1      63.220  86.188  73.274  1.00  0.00     0.000 G0
ATOM     32  O   UNL     1      61.268  88.742  76.979  1.00  0.00    -0.291 OA
ATOM     33  C   UNL     1      63.508  88.428  76.242  1.00  0.00    -0.008 C 
ATOM     34  C   UNL     1      64.211  89.032  77.392  1.00  0.00     0.048 C 
BRANCH  27  35
ATOM     35  O   UNL     1      61.249  86.259  75.421  1.00  0.00    -0.381 OA
ATOM     36  H   UNL     1      60.281  86.193  75.357  1.00  0.00     0.212 HD
ENDBRANCH  27  35
ENDBRANCH  26  27
ENDBRANCH   2  26
ENDBRANCH   1   2
BRANCH   1  37
ATOM     37  O   UNL     1      58.935  88.098  70.785  1.00  0.00    -0.461 OA
BRANCH  37  38
ATOM     38  C   UNL     1      58.686  88.869  69.672  1.00  0.00     0.310 C 
ATOM     39  O   UNL     1      59.442  88.991  68.719  1.00  0.00    -0.252 OA
BRANCH  38  40
ATOM     40  C   UNL     1      57.338  89.535  69.813  1.00  0.00     0.158 C 
BRANCH  40  41
ATOM     41  C   UNL     1      56.533  89.507  68.540  1.00  0.00    -0.037 A 
ATOM     42  C   UNL     1      55.746  90.604  68.188  1.00  0.00     0.008 A 
ATOM     43  C   UNL     1      56.572  88.384  67.714  1.00  0.00     0.008 A 
ATOM     44  C   UNL     1      55.000  90.578  67.009  1.00  0.00     0.046 A 
ATOM     45  C   UNL     1      55.826  88.358  66.535  1.00  0.00     0.046 A 
ATOM     46  C   UNL     1      55.040  89.454  66.183  1.00  0.00     0.115 A 
BRANCH  46  47
ATOM     47  O   UNL     1      54.311  89.429  65.034  1.00  0.00    -0.508 OA
ATOM     48  H   UNL     1      54.179  88.503  64.765  1.00  0.00     0.293 HD
ENDBRANCH  46  47
ENDBRANCH  40  41
ENDBRANCH  38  40
ENDBRANCH  37  38
ENDBRANCH   1  37
TORSDOF 10
ENDMDL
MODEL 3
REMARK VINA RESULT:    -7.206      2.252      3.332
REMARK INTER + INTRA:         -12.549
REMARK INTER:                 -12.503
REMARK INTRA:                  -0.046
REMARK UNBOUND:                -0.288
REMARK SMILES C=C(C)[C@]12C[C@@H](C)[C@@]34O[C@](Cc5ccccc5)(O[C@@H]1[C@@H]3C=C(COC(=O)Cc1ccc(O)cc1)C[C@]1(O)C(=O)C(C)=C[C@@H]41)O2
REMARK SMILES IDX 23 1 22 2 21 3 20 4 9 5 8 6 10 7 6 8 18 10 44 11 19 12 5 13
REMARK SMILES IDX 7 14 4 15 11 16 12 17 13 18 17 19 14 20 16 21 15 22 2 23
REMARK SMILES IDX 3 24 1 25 35 26 36 27 43 28 38 29 42 30 39 32 40 33 41 34
REMARK SMILES IDX 37 35 24 37 25 38 26 39 27 40 28 41 29 42 34 43 30 44 33 45
REMARK SMILES IDX 31 46 32 47
REMARK H PARENT 37 36 32 48
REMARK Flexibility Score: 90.00
ROOT
ATOM      1  C   UNL     1      92.350  79.706  86.126  1.00  0.00     0.264 C 
ENDROOT
BRANCH   1   2
ATOM      2  C   UNL     1      93.830  79.836  86.401  1.00  0.00    -0.033 C 
ATOM      3  C   UNL     1      94.701  79.747  85.374  1.00  0.00    -0.015 C 
BRANCH   3   4
ATOM      4  C   UNL     1      96.221  79.767  85.393  1.00  0.00     0.078 C 
ATOM      5  O   UNL     1      96.915  82.115  85.045  1.00  0.00    -0.319 OA
ATOM      6  C   UNL     1      96.945  81.020  86.012  1.00  0.00     0.095 CG0
ATOM      7  C   UNL     1      97.193  81.741  83.682  1.00  0.00     0.289 C 
ATOM      8  C   UNL     1      98.450  80.612  86.294  1.00  0.00     0.023 C 
ATOM      9  G   UNL     1      96.158  81.564  87.239  1.00  0.00     0.000 G0
ATOM     10  O   UNL     1      96.284  80.745  83.222  1.00  0.00    -0.320 OA
ATOM     11  O   UNL     1      98.493  81.176  83.529  1.00  0.00    -0.313 OA
ATOM     12  C   UNL     1      96.768  79.607  83.953  1.00  0.00     0.170 C 
ATOM     13  C   UNL     1      98.975  79.592  85.239  1.00  0.00     0.049 C 
ATOM     14  C   UNL     1      99.442  81.783  86.409  1.00  0.00     0.011 C 
ATOM     15  C   UNL     1      98.303  79.789  83.878  1.00  0.00     0.122 C 
BRANCH   7  16
ATOM     16  C   UNL     1      97.078  82.980  82.816  1.00  0.00     0.135 C 
BRANCH  16  17
ATOM     17  C   UNL     1      97.551  82.732  81.406  1.00  0.00    -0.040 A 
ATOM     18  C   UNL     1      98.880  82.383  81.167  1.00  0.00     0.004 A 
ATOM     19  C   UNL     1      96.659  82.852  80.341  1.00  0.00     0.004 A 
ATOM     20  C   UNL     1      99.318  82.153  79.862  1.00  0.00     0.000 A 
ATOM     21  C   UNL     1      97.097  82.622  79.036  1.00  0.00     0.000 A 
ATOM     22  C   UNL     1      98.426  82.273  78.797  1.00  0.00     0.000 A 
ENDBRANCH  16  17
ENDBRANCH   7  16
BRANCH  15  23
ATOM     23  C   UNL     1      98.917  78.947  82.808  1.00  0.00    -0.046 C 
ATOM     24  C   UNL     1      98.093  77.791  82.321  1.00  0.00     0.042 C 
ATOM     25  C   UNL     1     100.135  79.208  82.311  1.00  0.00     0.010 C 
ENDBRANCH  15  23
ENDBRANCH   3   4
BRANCH   2  26
ATOM     26  C   UNL     1      94.147  80.067  87.867  1.00  0.00     0.078 C 
BRANCH  26  27
ATOM     27  C   UNL     1      95.579  80.463  88.217  1.00  0.00     0.140 C 
ATOM     28  C   UNL     1      96.139  81.536  87.260  1.00  0.00     0.086 CG0
ATOM     29  C   UNL     1      95.679  81.146  89.565  1.00  0.00     0.190 C 
ATOM     30  C   UNL     1      96.782  82.530  88.187  1.00  0.00    -0.010 C 
ATOM     31  G   UNL     1      96.937  81.009  86.032  1.00  0.00     0.000 G0
ATOM     32  O   UNL     1      95.179  80.740  90.603  1.00  0.00    -0.291 OA
ATOM     33  C   UNL     1      96.520  82.355  89.485  1.00  0.00    -0.008 C 
ATOM     34  C   UNL     1      96.908  83.173  90.653  1.00  0.00     0.048 C 
BRANCH  27  35
ATOM     35  O   UNL     1      96.414  79.325  88.353  1.00  0.00    -0.381 OA
ATOM     36  H   UNL     1      97.012  79.290  87.587  1.00  0.00     0.212 HD
ENDBRANCH  27  35
ENDBRANCH  26  27
ENDBRANCH   2  26
ENDBRANCH   1   2
BRANCH   1  37
ATOM     37  O   UNL     1      91.788  80.993  85.980  1.00  0.00    -0.461 OA
BRANCH  37  38
ATOM     38  C   UNL     1      91.298  81.304  84.732  1.00  0.00     0.310 C 
ATOM     39  O   UNL     1      91.707  82.212  84.023  1.00  0.00    -0.252 OA
BRANCH  38  40
ATOM     40  C   UNL     1      90.181  80.351  84.379  1.00  0.00     0.158 C 
BRANCH  40  41
ATOM     41  C   UNL     1      88.917  81.057  83.959  1.00  0.00    -0.037 A 
ATOM     42  C   UNL     1      88.698  82.381  84.342  1.00  0.00     0.008 A 
ATOM     43  C   UNL     1      87.967  80.388  83.188  1.00  0.00     0.008 A 
ATOM     44  C   UNL     1      87.528  83.034  83.954  1.00  0.00     0.046 A 
ATOM     45  C   UNL     1      86.797  81.041  82.800  1.00  0.00     0.046 A 
ATOM     46  C   UNL     1      86.577  82.364  83.183  1.00  0.00     0.115 A 
BRANCH  46  47
ATOM     47  O   UNL     1      85.436  83.001  82.805  1.00  0.00    -0.508 OA
ATOM     48  H   UNL     1      85.211  83.670  83.475  1.00  0.00     0.293 HD
ENDBRANCH  46  47
ENDBRANCH  40  41
ENDBRANCH  38  40
ENDBRANCH  37  38
ENDBRANCH   1  37
TORSDOF 10
ENDMDL
MODEL 4
REMARK VINA RESULT:    -6.985      2.226      4.238
REMARK INTER + INTRA:         -12.174
REMARK INTER:                 -11.496
REMARK INTRA:                  -0.678
REMARK UNBOUND:                -0.288
REMARK SMILES C=C(C)[C@]12C[C@@H](C)[C@@]34O[C@](Cc5ccccc5)(O[C@@H]1[C@@H]3C=C(COC(=O)Cc1ccc(O)cc1)C[C@]1(O)C(=O)C(C)=C[C@@H]41)O2
REMARK SMILES IDX 23 1 22 2 21 3 20 4 9 5 8 6 10 7 6 8 18 10 44 11 19 12 5 13
REMARK SMILES IDX 7 14 4 15 11 16 12 17 13 18 17 19 14 20 16 21 15 22 2 23
REMARK SMILES IDX 3 24 1 25 35 26 36 27 43 28 38 29 42 30 39 32 40 33 41 34
REMARK SMILES IDX 37 35 24 37 25 38 26 39 27 40 28 41 29 42 34 43 30 44 33 45
REMARK SMILES IDX 31 46 32 47
REMARK H PARENT 37 36 32 48
REMARK Flexibility Score: 90.00
ROOT
ATOM      1  C   UNL     1      93.614  77.107  84.254  1.00  0.00     0.264 C 
ENDROOT
BRANCH   1   2
ATOM      2  C   UNL     1      94.979  77.682  84.554  1.00  0.00    -0.033 C 
ATOM      3  C   UNL     1      95.616  78.398  83.604  1.00  0.00    -0.015 C 
BRANCH   3   4
ATOM      4  C   UNL     1      97.007  79.010  83.627  1.00  0.00     0.078 C 
ATOM      5  O   UNL     1      96.759  81.333  84.437  1.00  0.00    -0.319 OA
ATOM      6  C   UNL     1      97.353  80.039  84.765  1.00  0.00     0.095 CG0
ATOM      7  C   UNL     1      96.884  81.737  83.060  1.00  0.00     0.289 C 
ATOM      8  C   UNL     1      98.930  80.185  84.816  1.00  0.00     0.023 C 
ATOM      9  G   UNL     1      96.676  79.629  86.106  1.00  0.00     0.000 G0
ATOM     10  O   UNL     1      96.309  80.772  82.184  1.00  0.00    -0.320 OA
ATOM     11  O   UNL     1      98.245  81.864  82.654  1.00  0.00    -0.313 OA
ATOM     12  C   UNL     1      97.289  79.727  82.283  1.00  0.00     0.170 C 
ATOM     13  C   UNL     1      99.565  80.031  83.401  1.00  0.00     0.049 C 
ATOM     14  C   UNL     1      99.454  81.474  85.472  1.00  0.00     0.011 C 
ATOM     15  C   UNL     1      98.621  80.516  82.300  1.00  0.00     0.122 C 
BRANCH   7  16
ATOM     16  C   UNL     1      96.180  83.069  82.890  1.00  0.00     0.135 C 
BRANCH  16  17
ATOM     17  C   UNL     1      95.175  83.322  83.985  1.00  0.00    -0.040 A 
ATOM     18  C   UNL     1      95.405  84.327  84.924  1.00  0.00     0.004 A 
ATOM     19  C   UNL     1      94.015  82.551  84.058  1.00  0.00     0.004 A 
ATOM     20  C   UNL     1      94.474  84.561  85.937  1.00  0.00     0.000 A 
ATOM     21  C   UNL     1      93.085  82.785  85.071  1.00  0.00     0.000 A 
ATOM     22  C   UNL     1      93.314  83.790  86.010  1.00  0.00     0.000 A 
ENDBRANCH  16  17
ENDBRANCH   7  16
BRANCH  15  23
ATOM     23  C   UNL     1      99.273  80.548  80.957  1.00  0.00    -0.046 C 
ATOM     24  C   UNL     1     100.511  81.387  80.841  1.00  0.00     0.042 C 
ATOM     25  C   UNL     1      98.779  79.865  79.913  1.00  0.00     0.010 C 
ENDBRANCH  15  23
ENDBRANCH   3   4
BRANCH   2  26
ATOM     26  C   UNL     1      95.465  77.365  85.956  1.00  0.00     0.078 C 
BRANCH  26  27
ATOM     27  C   UNL     1      96.720  78.088  86.440  1.00  0.00     0.140 C 
ATOM     28  C   UNL     1      96.685  79.596  86.119  1.00  0.00     0.086 CG0
ATOM     29  C   UNL     1      96.848  78.079  87.948  1.00  0.00     0.190 C 
ATOM     30  C   UNL     1      97.126  80.238  87.405  1.00  0.00    -0.010 C 
ATOM     31  G   UNL     1      97.354  80.029  84.782  1.00  0.00     0.000 G0
ATOM     32  O   UNL     1      96.730  77.095  88.664  1.00  0.00    -0.291 OA
ATOM     33  C   UNL     1      97.200  79.418  88.458  1.00  0.00    -0.008 C 
ATOM     34  C   UNL     1      97.513  79.711  89.872  1.00  0.00     0.048 C 
BRANCH  27  35
ATOM     35  O   UNL     1      97.898  77.435  85.996  1.00  0.00    -0.381 OA
ATOM     36  H   UNL     1      97.907  76.536  86.365  1.00  0.00     0.212 HD
ENDBRANCH  27  35
ENDBRANCH  26  27
ENDBRANCH   2  26
ENDBRANCH   1   2
BRANCH   1  37
ATOM     37  O   UNL     1      92.753  78.144  83.834  1.00  0.00    -0.461 OA
BRANCH  37  38
ATOM     38  C   UNL     1      91.864  78.613  84.774  1.00  0.00     0.310 C 
ATOM     39  O   UNL     1      92.175  79.140  85.833  1.00  0.00    -0.252 OA
BRANCH  38  40
ATOM     40  C   UNL     1      90.452  78.378  84.294  1.00  0.00     0.158 C 
BRANCH  40  41
ATOM     41  C   UNL     1      89.646  79.647  84.194  1.00  0.00    -0.037 A 
ATOM     42  C   UNL     1      88.275  79.584  83.945  1.00  0.00     0.008 A 
ATOM     43  C   UNL     1      90.270  80.884  84.350  1.00  0.00     0.008 A 
ATOM     44  C   UNL     1      87.529  80.760  83.851  1.00  0.00     0.046 A 
ATOM     45  C   UNL     1      89.525  82.059  84.256  1.00  0.00     0.046 A 
ATOM     46  C   UNL     1      88.154  81.997  84.007  1.00  0.00     0.115 A 
BRANCH  46  47
ATOM     47  O   UNL     1      87.426  83.143  83.914  1.00  0.00    -0.508 OA
ATOM     48  H   UNL     1      88.005  83.901  84.106  1.00  0.00     0.293 HD
ENDBRANCH  46  47
ENDBRANCH  40  41
ENDBRANCH  38  40
ENDBRANCH  37  38
ENDBRANCH   1  37
TORSDOF 10
ENDMDL
MODEL 5
REMARK VINA RESULT:    -6.727     25.726     29.156
REMARK INTER + INTRA:         -11.734
REMARK INTER:                 -10.023
REMARK INTRA:                  -1.711
REMARK UNBOUND:                -0.288
REMARK SMILES C=C(C)[C@]12C[C@@H](C)[C@@]34O[C@](Cc5ccccc5)(O[C@@H]1[C@@H]3C=C(COC(=O)Cc1ccc(O)cc1)C[C@]1(O)C(=O)C(C)=C[C@@H]41)O2
REMARK SMILES IDX 23 1 22 2 21 3 20 4 9 5 8 6 10 7 6 8 18 10 44 11 19 12 5 13
REMARK SMILES IDX 7 14 4 15 11 16 12 17 13 18 17 19 14 20 16 21 15 22 2 23
REMARK SMILES IDX 3 24 1 25 35 26 36 27 43 28 38 29 42 30 39 32 40 33 41 34
REMARK SMILES IDX 37 35 24 37 25 38 26 39 27 40 28 41 29 42 34 43 30 44 33 45
REMARK SMILES IDX 31 46 32 47
REMARK H PARENT 37 36 32 48
REMARK Flexibility Score: 90.00
ROOT
ATOM      1  C   UNL     1      70.671  85.084  66.119  1.00  0.00     0.264 C 
ENDROOT
BRANCH   1   2
ATOM      2  C   UNL     1      71.982  85.835  66.067  1.00  0.00    -0.033 C 
ATOM      3  C   UNL     1      72.026  87.113  66.497  1.00  0.00    -0.015 C 
BRANCH   3   4
ATOM      4  C   UNL     1      73.185  88.097  66.479  1.00  0.00     0.078 C 
ATOM      5  O   UNL     1      74.331  87.900  68.662  1.00  0.00    -0.319 OA
ATOM      6  C   UNL     1      74.513  87.703  67.225  1.00  0.00     0.095 CG0
ATOM      7  C   UNL     1      73.645  89.111  69.035  1.00  0.00     0.289 C 
ATOM      8  C   UNL     1      75.659  88.666  66.705  1.00  0.00     0.023 C 
ATOM      9  G   UNL     1      74.801  86.181  67.075  1.00  0.00     0.000 G0
ATOM     10  O   UNL     1      72.357  89.183  68.431  1.00  0.00    -0.320 OA
ATOM     11  O   UNL     1      74.337  90.281  68.606  1.00  0.00    -0.313 OA
ATOM     12  C   UNL     1      72.732  89.454  67.071  1.00  0.00     0.170 C 
ATOM     13  C   UNL     1      75.104  90.083  66.362  1.00  0.00     0.049 C 
ATOM     14  C   UNL     1      76.876  88.808  67.635  1.00  0.00     0.011 C 
ATOM     15  C   UNL     1      73.906  90.449  67.240  1.00  0.00     0.122 C 
BRANCH   7  16
ATOM     16  C   UNL     1      73.505  89.131  70.544  1.00  0.00     0.135 C 
BRANCH  16  17
ATOM     17  C   UNL     1      73.161  90.505  71.063  1.00  0.00    -0.040 A 
ATOM     18  C   UNL     1      71.830  90.918  71.115  1.00  0.00     0.004 A 
ATOM     19  C   UNL     1      74.175  91.362  71.489  1.00  0.00     0.004 A 
ATOM     20  C   UNL     1      71.512  92.189  71.595  1.00  0.00     0.000 A 
ATOM     21  C   UNL     1      73.856  92.633  71.969  1.00  0.00     0.000 A 
ATOM     22  C   UNL     1      72.525  93.046  72.022  1.00  0.00     0.000 A 
ENDBRANCH  16  17
ENDBRANCH   7  16
BRANCH  15  23
ATOM     23  C   UNL     1      73.472  91.867  67.056  1.00  0.00    -0.046 C 
ATOM     24  C   UNL     1      73.777  92.484  65.723  1.00  0.00     0.042 C 
ATOM     25  C   UNL     1      72.846  92.549  68.026  1.00  0.00     0.010 C 
ENDBRANCH  15  23
ENDBRANCH   3   4
BRANCH   2  26
ATOM     26  C   UNL     1      73.124  85.001  65.518  1.00  0.00     0.078 C 
BRANCH  26  27
ATOM     27  C   UNL     1      74.534  85.575  65.652  1.00  0.00     0.140 C 
ATOM     28  C   UNL     1      74.787  86.183  67.047  1.00  0.00     0.086 CG0
ATOM     29  C   UNL     1      75.605  84.509  65.562  1.00  0.00     0.190 C 
ATOM     30  C   UNL     1      76.137  85.639  67.425  1.00  0.00    -0.010 C 
ATOM     31  G   UNL     1      74.510  87.707  67.192  1.00  0.00     0.000 G0
ATOM     32  O   UNL     1      75.674  83.646  64.700  1.00  0.00    -0.291 OA
ATOM     33  C   UNL     1      76.611  84.678  66.627  1.00  0.00    -0.008 C 
ATOM     34  C   UNL     1      77.844  83.871  66.738  1.00  0.00     0.048 C 
BRANCH  27  35
ATOM     35  O   UNL     1      74.839  86.453  64.581  1.00  0.00    -0.381 OA
ATOM     36  H   UNL     1      74.846  87.363  64.923  1.00  0.00     0.212 HD
ENDBRANCH  27  35
ENDBRANCH  26  27
ENDBRANCH   2  26
ENDBRANCH   1   2
BRANCH   1  37
ATOM     37  O   UNL     1      69.943  85.496  67.256  1.00  0.00    -0.461 OA
BRANCH  37  38
ATOM     38  C   UNL     1      70.174  84.790  68.414  1.00  0.00     0.310 C 
ATOM     39  O   UNL     1      69.960  83.595  68.563  1.00  0.00    -0.252 OA
BRANCH  38  40
ATOM     40  C   UNL     1      70.730  85.718  69.468  1.00  0.00     0.158 C 
BRANCH  40  41
ATOM     41  C   UNL     1      69.661  86.493  70.192  1.00  0.00    -0.037 A 
ATOM     42  C   UNL     1      68.517  85.840  70.653  1.00  0.00     0.008 A 
ATOM     43  C   UNL     1      69.812  87.863  70.401  1.00  0.00     0.008 A 
ATOM     44  C   UNL     1      67.526  86.558  71.323  1.00  0.00     0.046 A 
ATOM     45  C   UNL     1      68.822  88.582  71.071  1.00  0.00     0.046 A 
ATOM     46  C   UNL     1      67.679  87.929  71.532  1.00  0.00     0.115 A 
BRANCH  46  47
ATOM     47  O   UNL     1      66.712  88.630  72.185  1.00  0.00    -0.508 OA
ATOM     48  H   UNL     1      66.288  89.242  71.559  1.00  0.00     0.293 HD
ENDBRANCH  46  47
ENDBRANCH  40  41
ENDBRANCH  38  40
ENDBRANCH  37  38
ENDBRANCH   1  37
TORSDOF 10
ENDMDL
MODEL 6
REMARK VINA RESULT:    -6.651      2.084      3.904
REMARK INTER + INTRA:         -11.605
REMARK INTER:                 -11.167
REMARK INTRA:                  -0.438
REMARK UNBOUND:                -0.288
REMARK SMILES C=C(C)[C@]12C[C@@H](C)[C@@]34O[C@](Cc5ccccc5)(O[C@@H]1[C@@H]3C=C(COC(=O)Cc1ccc(O)cc1)C[C@]1(O)C(=O)C(C)=C[C@@H]41)O2
REMARK SMILES IDX 23 1 22 2 21 3 20 4 9 5 8 6 10 7 6 8 18 10 44 11 19 12 5 13
REMARK SMILES IDX 7 14 4 15 11 16 12 17 13 18 17 19 14 20 16 21 15 22 2 23
REMARK SMILES IDX 3 24 1 25 35 26 36 27 43 28 38 29 42 30 39 32 40 33 41 34
REMARK SMILES IDX 37 35 24 37 25 38 26 39 27 40 28 41 29 42 34 43 30 44 33 45
REMARK SMILES IDX 31 46 32 47
REMARK H PARENT 37 36 32 48
REMARK Flexibility Score: 90.00
ROOT
ATOM      1  C   UNL     1      95.013  77.372  84.624  1.00  0.00     0.264 C 
ENDROOT
BRANCH   1   2
ATOM      2  C   UNL     1      96.368  77.788  84.099  1.00  0.00    -0.033 C 
ATOM      3  C   UNL     1      96.439  78.542  82.983  1.00  0.00    -0.015 C 
BRANCH   3   4
ATOM      4  C   UNL     1      97.663  79.023  82.219  1.00  0.00     0.078 C 
ATOM      5  O   UNL     1      98.212  81.275  83.080  1.00  0.00    -0.319 OA
ATOM      6  C   UNL     1      98.719  79.908  82.977  1.00  0.00     0.095 CG0
ATOM      7  C   UNL     1      97.585  81.790  81.890  1.00  0.00     0.289 C 
ATOM      8  C   UNL     1     100.051  79.906  82.119  1.00  0.00     0.023 C 
ATOM      9  G   UNL     1      98.875  79.440  84.454  1.00  0.00     0.000 G0
ATOM     10  O   UNL     1      96.499  80.964  81.479  1.00  0.00    -0.320 OA
ATOM     11  O   UNL     1      98.479  81.831  80.780  1.00  0.00    -0.313 OA
ATOM     12  C   UNL     1      97.222  79.831  80.974  1.00  0.00     0.170 C 
ATOM     13  C   UNL     1      99.747  79.826  80.592  1.00  0.00     0.049 C 
ATOM     14  C   UNL     1     101.011  81.078  82.387  1.00  0.00     0.011 C 
ATOM     15  C   UNL     1      98.416  80.493  80.243  1.00  0.00     0.122 C 
BRANCH   7  16
ATOM     16  C   UNL     1      97.083  83.189  82.185  1.00  0.00     0.135 C 
BRANCH  16  17
ATOM     17  C   UNL     1      96.357  83.264  83.505  1.00  0.00    -0.040 A 
ATOM     18  C   UNL     1      97.049  83.622  84.662  1.00  0.00     0.004 A 
ATOM     19  C   UNL     1      94.995  82.974  83.568  1.00  0.00     0.004 A 
ATOM     20  C   UNL     1      96.377  83.691  85.883  1.00  0.00     0.000 A 
ATOM     21  C   UNL     1      94.323  83.044  84.789  1.00  0.00     0.000 A 
ATOM     22  C   UNL     1      95.014  83.402  85.946  1.00  0.00     0.000 A 
ENDBRANCH  16  17
ENDBRANCH   7  16
BRANCH  15  23
ATOM     23  C   UNL     1      98.190  80.588  78.770  1.00  0.00    -0.046 C 
ATOM     24  C   UNL     1      98.411  81.937  78.152  1.00  0.00     0.042 C 
ATOM     25  C   UNL     1      97.811  79.529  78.040  1.00  0.00     0.010 C 
ENDBRANCH  15  23
ENDBRANCH   3   4
BRANCH   2  26
ATOM     26  C   UNL     1      97.518  77.280  84.949  1.00  0.00     0.078 C 
BRANCH  26  27
ATOM     27  C   UNL     1      98.898  77.877  84.684  1.00  0.00     0.140 C 
ATOM     28  C   UNL     1      98.842  79.403  84.461  1.00  0.00     0.086 CG0
ATOM     29  C   UNL     1      99.821  77.757  85.878  1.00  0.00     0.190 C 
ATOM     30  C   UNL     1      99.969  79.922  85.310  1.00  0.00    -0.010 C 
ATOM     31  G   UNL     1      98.719  79.876  82.984  1.00  0.00     0.000 G0
ATOM     32  O   UNL     1     100.014  76.738  86.524  1.00  0.00    -0.291 OA
ATOM     33  C   UNL     1     100.521  79.029  86.137  1.00  0.00    -0.008 C 
ATOM     34  C   UNL     1     101.576  79.202  87.157  1.00  0.00     0.048 C 
BRANCH  27  35
ATOM     35  O   UNL     1      99.579  77.174  83.658  1.00  0.00    -0.381 OA
ATOM     36  H   UNL     1      99.933  76.350  84.034  1.00  0.00     0.212 HD
ENDBRANCH  27  35
ENDBRANCH  26  27
ENDBRANCH   2  26
ENDBRANCH   1   2
BRANCH   1  37
ATOM     37  O   UNL     1      94.019  78.195  84.052  1.00  0.00    -0.461 OA
BRANCH  37  38
ATOM     38  C   UNL     1      92.889  78.399  84.811  1.00  0.00     0.310 C 
ATOM     39  O   UNL     1      92.849  79.038  85.852  1.00  0.00    -0.252 OA
BRANCH  38  40
ATOM     40  C   UNL     1      91.713  77.713  84.158  1.00  0.00     0.158 C 
BRANCH  40  41
ATOM     41  C   UNL     1      90.470  78.564  84.144  1.00  0.00    -0.037 A 
ATOM     42  C   UNL     1      90.569  79.941  83.945  1.00  0.00     0.008 A 
ATOM     43  C   UNL     1      89.219  77.976  84.329  1.00  0.00     0.008 A 
ATOM     44  C   UNL     1      89.418  80.730  83.934  1.00  0.00     0.046 A 
ATOM     45  C   UNL     1      88.068  78.763  84.317  1.00  0.00     0.046 A 
ATOM     46  C   UNL     1      88.167  80.140  84.119  1.00  0.00     0.115 A 
BRANCH  46  47
ATOM     47  O   UNL     1      87.045  80.909  84.108  1.00  0.00    -0.508 OA
ATOM     48  H   UNL     1      87.293  81.832  84.295  1.00  0.00     0.293 HD
ENDBRANCH  46  47
ENDBRANCH  40  41
ENDBRANCH  38  40
ENDBRANCH  37  38
ENDBRANCH   1  37
TORSDOF 10
ENDMDL
MODEL 7
REMARK VINA RESULT:    -6.644     25.060     28.224
REMARK INTER + INTRA:         -11.593
REMARK INTER:                 -10.757
REMARK INTRA:                  -0.836
REMARK UNBOUND:                -0.288
REMARK SMILES C=C(C)[C@]12C[C@@H](C)[C@@]34O[C@](Cc5ccccc5)(O[C@@H]1[C@@H]3C=C(COC(=O)Cc1ccc(O)cc1)C[C@]1(O)C(=O)C(C)=C[C@@H]41)O2
REMARK SMILES IDX 23 1 22 2 21 3 20 4 9 5 8 6 10 7 6 8 18 10 44 11 19 12 5 13
REMARK SMILES IDX 7 14 4 15 11 16 12 17 13 18 17 19 14 20 16 21 15 22 2 23
REMARK SMILES IDX 3 24 1 25 35 26 36 27 43 28 38 29 42 30 39 32 40 33 41 34
REMARK SMILES IDX 37 35 24 37 25 38 26 39 27 40 28 41 29 42 34 43 30 44 33 45
REMARK SMILES IDX 31 46 32 47
REMARK H PARENT 37 36 32 48
REMARK Flexibility Score: 90.00
ROOT
ATOM      1  C   UNL     1      73.387  90.784  71.312  1.00  0.00     0.264 C 
ENDROOT
BRANCH   1   2
ATOM      2  C   UNL     1      73.317  91.824  72.406  1.00  0.00    -0.033 C 
ATOM      3  C   UNL     1      74.373  92.639  72.609  1.00  0.00    -0.015 C 
BRANCH   3   4
ATOM      4  C   UNL     1      74.582  93.700  73.677  1.00  0.00     0.078 C 
ATOM      5  O   UNL     1      73.840  95.852  72.710  1.00  0.00    -0.319 OA
ATOM      6  C   UNL     1      73.551  94.885  73.767  1.00  0.00     0.095 CG0
ATOM      7  C   UNL     1      75.236  96.146  72.510  1.00  0.00     0.289 C 
ATOM      8  C   UNL     1      73.740  95.579  75.178  1.00  0.00     0.023 C 
ATOM      9  G   UNL     1      72.109  94.388  73.454  1.00  0.00     0.000 G0
ATOM     10  O   UNL     1      75.977  94.964  72.218  1.00  0.00    -0.320 OA
ATOM     11  O   UNL     1      75.844  96.705  73.672  1.00  0.00    -0.313 OA
ATOM     12  C   UNL     1      75.981  94.344  73.514  1.00  0.00     0.170 C 
ATOM     13  C   UNL     1      75.226  95.529  75.646  1.00  0.00     0.049 C 
ATOM     14  C   UNL     1      73.223  97.025  75.279  1.00  0.00     0.011 C 
ATOM     15  C   UNL     1      76.194  95.549  74.462  1.00  0.00     0.122 C 
BRANCH   7  16
ATOM     16  C   UNL     1      75.355  97.124  71.358  1.00  0.00     0.135 C 
BRANCH  16  17
ATOM     17  C   UNL     1      76.652  96.958  70.606  1.00  0.00    -0.040 A 
ATOM     18  C   UNL     1      76.642  96.497  69.291  1.00  0.00     0.004 A 
ATOM     19  C   UNL     1      77.862  97.267  71.228  1.00  0.00     0.004 A 
ATOM     20  C   UNL     1      77.842  96.344  68.595  1.00  0.00     0.000 A 
ATOM     21  C   UNL     1      79.062  97.114  70.533  1.00  0.00     0.000 A 
ATOM     22  C   UNL     1      79.051  96.653  69.217  1.00  0.00     0.000 A 
ENDBRANCH  16  17
ENDBRANCH   7  16
BRANCH  15  23
ATOM     23  C   UNL     1      77.619  95.684  74.887  1.00  0.00    -0.046 C 
ATOM     24  C   UNL     1      78.230  97.045  74.735  1.00  0.00     0.042 C 
ATOM     25  C   UNL     1      78.314  94.647  75.378  1.00  0.00     0.010 C 
ENDBRANCH  15  23
ENDBRANCH   3   4
BRANCH   2  26
ATOM     26  C   UNL     1      72.000  91.810  73.158  1.00  0.00     0.078 C 
BRANCH  26  27
ATOM     27  C   UNL     1      71.708  92.995  74.077  1.00  0.00     0.140 C 
ATOM     28  C   UNL     1      72.102  94.342  73.436  1.00  0.00     0.086 CG0
ATOM     29  C   UNL     1      70.227  93.178  74.334  1.00  0.00     0.190 C 
ATOM     30  C   UNL     1      70.914  95.221  73.710  1.00  0.00    -0.010 C 
ATOM     31  G   UNL     1      73.531  94.864  73.764  1.00  0.00     0.000 G0
ATOM     32  O   UNL     1      69.452  92.295  74.668  1.00  0.00    -0.291 OA
ATOM     33  C   UNL     1      69.836  94.593  74.188  1.00  0.00    -0.008 C 
ATOM     34  C   UNL     1      68.487  95.115  74.491  1.00  0.00     0.048 C 
BRANCH  27  35
ATOM     35  O   UNL     1      72.254  92.794  75.370  1.00  0.00    -0.381 OA
ATOM     36  H   UNL     1      71.807  92.032  75.777  1.00  0.00     0.212 HD
ENDBRANCH  27  35
ENDBRANCH  26  27
ENDBRANCH   2  26
ENDBRANCH   1   2
BRANCH   1  37
ATOM     37  O   UNL     1      73.229  91.415  70.059  1.00  0.00    -0.461 OA
BRANCH  37  38
ATOM     38  C   UNL     1      74.170  91.110  69.102  1.00  0.00     0.310 C 
ATOM     39  O   UNL     1      74.105  91.435  67.925  1.00  0.00    -0.252 OA
BRANCH  38  40
ATOM     40  C   UNL     1      75.289  90.317  69.732  1.00  0.00     0.158 C 
BRANCH  40  41
ATOM     41  C   UNL     1      75.631  89.069  68.960  1.00  0.00    -0.037 A 
ATOM     42  C   UNL     1      76.870  88.956  68.328  1.00  0.00     0.008 A 
ATOM     43  C   UNL     1      74.710  88.025  68.877  1.00  0.00     0.008 A 
ATOM     44  C   UNL     1      77.186  87.801  67.613  1.00  0.00     0.046 A 
ATOM     45  C   UNL     1      75.026  86.869  68.162  1.00  0.00     0.046 A 
ATOM     46  C   UNL     1      76.264  86.757  67.530  1.00  0.00     0.115 A 
BRANCH  46  47
ATOM     47  O   UNL     1      76.572  85.631  66.832  1.00  0.00    -0.508 OA
ATOM     48  H   UNL     1      76.103  85.649  65.980  1.00  0.00     0.293 HD
ENDBRANCH  46  47
ENDBRANCH  40  41
ENDBRANCH  38  40
ENDBRANCH  37  38
ENDBRANCH   1  37
TORSDOF 10
ENDMDL
MODEL 8
REMARK VINA RESULT:    -6.627     18.873     22.652
REMARK INTER + INTRA:         -11.564
REMARK INTER:                 -11.048
REMARK INTRA:                  -0.516
REMARK UNBOUND:                -0.288
REMARK SMILES C=C(C)[C@]12C[C@@H](C)[C@@]34O[C@](Cc5ccccc5)(O[C@@H]1[C@@H]3C=C(COC(=O)Cc1ccc(O)cc1)C[C@]1(O)C(=O)C(C)=C[C@@H]41)O2
REMARK SMILES IDX 23 1 22 2 21 3 20 4 9 5 8 6 10 7 6 8 18 10 44 11 19 12 5 13
REMARK SMILES IDX 7 14 4 15 11 16 12 17 13 18 17 19 14 20 16 21 15 22 2 23
REMARK SMILES IDX 3 24 1 25 35 26 36 27 43 28 38 29 42 30 39 32 40 33 41 34
REMARK SMILES IDX 37 35 24 37 25 38 26 39 27 40 28 41 29 42 34 43 30 44 33 45
REMARK SMILES IDX 31 46 32 47
REMARK H PARENT 37 36 32 48
REMARK Flexibility Score: 90.00
ROOT
ATOM      1  C   UNL     1      94.318  96.771  73.949  1.00  0.00     0.264 C 
ENDROOT
BRANCH   1   2
ATOM      2  C   UNL     1      94.599  98.161  73.426  1.00  0.00    -0.033 C 
ATOM      3  C   UNL     1      93.796  98.681  72.474  1.00  0.00    -0.015 C 
BRANCH   3   4
ATOM      4  C   UNL     1      93.906 100.006  71.737  1.00  0.00     0.078 C 
ATOM      5  O   UNL     1      92.552 101.646  72.999  1.00  0.00    -0.319 OA
ATOM      6  C   UNL     1      93.917 101.333  72.582  1.00  0.00     0.095 CG0
ATOM      7  C   UNL     1      91.542 101.462  71.988  1.00  0.00     0.289 C 
ATOM      8  C   UNL     1      94.458 102.492  71.647  1.00  0.00     0.023 C 
ATOM      9  G   UNL     1      94.694 101.133  73.916  1.00  0.00     0.000 G0
ATOM     10  O   UNL     1      91.539 100.124  71.497  1.00  0.00    -0.320 OA
ATOM     11  O   UNL     1      91.758 102.290  70.848  1.00  0.00    -0.313 OA
ATOM     12  C   UNL     1      92.747 100.140  70.719  1.00  0.00     0.170 C 
ATOM     13  C   UNL     1      94.037 102.272  70.162  1.00  0.00     0.049 C 
ATOM     14  C   UNL     1      94.080 103.920  72.078  1.00  0.00     0.011 C 
ATOM     15  C   UNL     1      92.700 101.537  70.055  1.00  0.00     0.122 C 
BRANCH   7  16
ATOM     16  C   UNL     1      90.193 101.787  72.599  1.00  0.00     0.135 C 
BRANCH  16  17
ATOM     17  C   UNL     1      89.173 102.162  71.553  1.00  0.00    -0.040 A 
ATOM     18  C   UNL     1      88.703 103.473  71.476  1.00  0.00     0.004 A 
ATOM     19  C   UNL     1      88.702 101.198  70.663  1.00  0.00     0.004 A 
ATOM     20  C   UNL     1      87.760 103.820  70.508  1.00  0.00     0.000 A 
ATOM     21  C   UNL     1      87.758 101.545  69.695  1.00  0.00     0.000 A 
ATOM     22  C   UNL     1      87.288 102.856  69.618  1.00  0.00     0.000 A 
ENDBRANCH  16  17
ENDBRANCH   7  16
BRANCH  15  23
ATOM     23  C   UNL     1      92.189 101.476  68.652  1.00  0.00    -0.046 C 
ATOM     24  C   UNL     1      92.763 102.477  67.694  1.00  0.00     0.042 C 
ATOM     25  C   UNL     1      91.270 100.576  68.271  1.00  0.00     0.010 C 
ENDBRANCH  15  23
ENDBRANCH   3   4
BRANCH   2  26
ATOM     26  C   UNL     1      95.800  98.813  74.083  1.00  0.00     0.078 C 
BRANCH  26  27
ATOM     27  C   UNL     1      96.016 100.303  73.820  1.00  0.00     0.140 C 
ATOM     28  C   UNL     1      94.705 101.109  73.925  1.00  0.00     0.086 CG0
ATOM     29  C   UNL     1      96.884 100.957  74.874  1.00  0.00     0.190 C 
ATOM     30  C   UNL     1      95.092 102.301  74.756  1.00  0.00    -0.010 C 
ATOM     31  G   UNL     1      93.925 101.326  72.595  1.00  0.00     0.000 G0
ATOM     32  O   UNL     1      97.956 100.528  75.274  1.00  0.00    -0.291 OA
ATOM     33  C   UNL     1      96.299 102.234  75.325  1.00  0.00    -0.008 C 
ATOM     34  C   UNL     1      96.965 103.167  76.257  1.00  0.00     0.048 C 
BRANCH  27  35
ATOM     35  O   UNL     1      96.726 100.519  72.613  1.00  0.00    -0.381 OA
ATOM     36  H   UNL     1      97.006 101.450  72.585  1.00  0.00     0.212 HD
ENDBRANCH  27  35
ENDBRANCH  26  27
ENDBRANCH   2  26
ENDBRANCH   1   2
BRANCH   1  37
ATOM     37  O   UNL     1      93.877  96.857  75.287  1.00  0.00    -0.461 OA
BRANCH  37  38
ATOM     38  C   UNL     1      93.198  95.763  75.775  1.00  0.00     0.310 C 
ATOM     39  O   UNL     1      92.954  94.748  75.139  1.00  0.00    -0.252 OA
BRANCH  38  40
ATOM     40  C   UNL     1      92.806  96.013  77.211  1.00  0.00     0.158 C 
BRANCH  40  41
ATOM     41  C   UNL     1      93.987  96.044  78.146  1.00  0.00    -0.037 A 
ATOM     42  C   UNL     1      94.571  97.262  78.493  1.00  0.00     0.008 A 
ATOM     43  C   UNL     1      94.497  94.854  78.666  1.00  0.00     0.008 A 
ATOM     44  C   UNL     1      95.665  97.291  79.358  1.00  0.00     0.046 A 
ATOM     45  C   UNL     1      95.590  94.882  79.531  1.00  0.00     0.046 A 
ATOM     46  C   UNL     1      96.174  96.100  79.877  1.00  0.00     0.115 A 
BRANCH  46  47
ATOM     47  O   UNL     1      97.242  96.128  80.721  1.00  0.00    -0.508 OA
ATOM     48  H   UNL     1      96.953  96.471  81.584  1.00  0.00     0.293 HD
ENDBRANCH  46  47
ENDBRANCH  40  41
ENDBRANCH  38  40
ENDBRANCH  37  38
ENDBRANCH   1  37
TORSDOF 10
ENDMDL
MODEL 9
REMARK VINA RESULT:    -6.592     18.287     22.083
REMARK INTER + INTRA:         -11.505
REMARK INTER:                 -10.758
REMARK INTRA:                  -0.746
REMARK UNBOUND:                -0.288
REMARK SMILES C=C(C)[C@]12C[C@@H](C)[C@@]34O[C@](Cc5ccccc5)(O[C@@H]1[C@@H]3C=C(COC(=O)Cc1ccc(O)cc1)C[C@]1(O)C(=O)C(C)=C[C@@H]41)O2
REMARK SMILES IDX 23 1 22 2 21 3 20 4 9 5 8 6 10 7 6 8 18 10 44 11 19 12 5 13
REMARK SMILES IDX 7 14 4 15 11 16 12 17 13 18 17 19 14 20 16 21 15 22 2 23
REMARK SMILES IDX 3 24 1 25 35 26 36 27 43 28 38 29 42 30 39 32 40 33 41 34
REMARK SMILES IDX 37 35 24 37 25 38 26 39 27 40 28 41 29 42 34 43 30 44 33 45
REMARK SMILES IDX 31 46 32 47
REMARK H PARENT 37 36 32 48
REMARK Flexibility Score: 90.00
ROOT
ATOM      1  C   UNL     1      95.995  98.383  76.259  1.00  0.00     0.264 C 
ENDROOT
BRANCH   1   2
ATOM      2  C   UNL     1      95.854  98.746  74.798  1.00  0.00    -0.033 C 
ATOM      3  C   UNL     1      94.733  99.369  74.379  1.00  0.00    -0.015 C 
BRANCH   3   4
ATOM      4  C   UNL     1      94.319  99.768  72.971  1.00  0.00     0.078 C 
ATOM      5  O   UNL     1      95.067 102.101  72.634  1.00  0.00    -0.319 OA
ATOM      6  C   UNL     1      95.260 100.731  72.159  1.00  0.00     0.095 CG0
ATOM      7  C   UNL     1      93.698 102.483  72.868  1.00  0.00     0.289 C 
ATOM      8  C   UNL     1      94.839 100.641  70.635  1.00  0.00     0.023 C 
ATOM      9  G   UNL     1      96.757 100.425  72.458  1.00  0.00     0.000 G0
ATOM     10  O   UNL     1      93.072 101.616  73.809  1.00  0.00    -0.320 OA
ATOM     11  O   UNL     1      92.904 102.407  71.686  1.00  0.00    -0.313 OA
ATOM     12  C   UNL     1      92.923 100.436  73.003  1.00  0.00     0.170 C 
ATOM     13  C   UNL     1      93.307 100.397  70.478  1.00  0.00     0.049 C 
ATOM     14  C   UNL     1      95.256 101.837  69.761  1.00  0.00     0.011 C 
ATOM     15  C   UNL     1      92.514 101.019  71.628  1.00  0.00     0.122 C 
BRANCH   7  16
ATOM     16  C   UNL     1      93.686 103.905  73.393  1.00  0.00     0.135 C 
BRANCH  16  17
ATOM     17  C   UNL     1      94.113 103.979  74.838  1.00  0.00    -0.040 A 
ATOM     18  C   UNL     1      95.330 103.425  75.234  1.00  0.00     0.004 A 
ATOM     19  C   UNL     1      93.291 104.602  75.776  1.00  0.00     0.004 A 
ATOM     20  C   UNL     1      95.725 103.494  76.571  1.00  0.00     0.000 A 
ATOM     21  C   UNL     1      93.686 104.670  77.112  1.00  0.00     0.000 A 
ATOM     22  C   UNL     1      94.903 104.117  77.509  1.00  0.00     0.000 A 
ENDBRANCH  16  17
ENDBRANCH   7  16
BRANCH  15  23
ATOM     23  C   UNL     1      91.037 100.955  71.408  1.00  0.00    -0.046 C 
ATOM     24  C   UNL     1      90.517  99.701  70.770  1.00  0.00     0.042 C 
ATOM     25  C   UNL     1      90.223 101.961  71.760  1.00  0.00     0.010 C 
ENDBRANCH  15  23
ENDBRANCH   3   4
BRANCH   2  26
ATOM     26  C   UNL     1      97.058  98.345  73.966  1.00  0.00     0.078 C 
BRANCH  26  27
ATOM     27  C   UNL     1      97.133  98.889  72.541  1.00  0.00     0.140 C 
ATOM     28  C   UNL     1      96.762 100.385  72.467  1.00  0.00     0.086 CG0
ATOM     29  C   UNL     1      98.543  98.877  71.989  1.00  0.00     0.190 C 
ATOM     30  C   UNL     1      97.839 100.970  71.596  1.00  0.00    -0.010 C 
ATOM     31  G   UNL     1      95.270 100.706  72.157  1.00  0.00     0.000 G0
ATOM     32  O   UNL     1      99.310  97.926  72.027  1.00  0.00    -0.291 OA
ATOM     33  C   UNL     1      98.867 100.158  71.333  1.00  0.00    -0.008 C 
ATOM     34  C   UNL     1     100.119 100.417  70.594  1.00  0.00     0.048 C 
BRANCH  27  35
ATOM     35  O   UNL     1      96.408  98.074  71.636  1.00  0.00    -0.381 OA
ATOM     36  H   UNL     1      95.556  98.503  71.451  1.00  0.00     0.212 HD
ENDBRANCH  27  35
ENDBRANCH  26  27
ENDBRANCH   2  26
ENDBRANCH   1   2
BRANCH   1  37
ATOM     37  O   UNL     1      94.728  98.036  76.777  1.00  0.00    -0.461 OA
BRANCH  37  38
ATOM     38  C   UNL     1      94.726  97.168  77.845  1.00  0.00     0.310 C 
ATOM     39  O   UNL     1      94.773  97.501  79.021  1.00  0.00    -0.252 OA
BRANCH  38  40
ATOM     40  C   UNL     1      94.658  95.747  77.339  1.00  0.00     0.158 C 
BRANCH  40  41
ATOM     41  C   UNL     1      93.305  95.386  76.783  1.00  0.00    -0.037 A 
ATOM     42  C   UNL     1      93.143  95.191  75.411  1.00  0.00     0.008 A 
ATOM     43  C   UNL     1      92.213  95.246  77.640  1.00  0.00     0.008 A 
ATOM     44  C   UNL     1      91.890  94.857  74.896  1.00  0.00     0.046 A 
ATOM     45  C   UNL     1      90.960  94.912  77.125  1.00  0.00     0.046 A 
ATOM     46  C   UNL     1      90.798  94.718  75.754  1.00  0.00     0.115 A 
BRANCH  46  47
ATOM     47  O   UNL     1      89.576  94.392  75.252  1.00  0.00    -0.508 OA
ATOM     48  H   UNL     1      89.332  93.504  75.565  1.00  0.00     0.293 HD
ENDBRANCH  46  47
ENDBRANCH  40  41
ENDBRANCH  38  40
ENDBRANCH  37  38
ENDBRANCH   1  37
TORSDOF 10
ENDMDL
MODEL 10
REMARK VINA RESULT:    -6.032     31.683     37.300
REMARK INTER + INTRA:         -10.552
REMARK INTER:                 -10.106
REMARK INTRA:                  -0.446
REMARK UNBOUND:                -0.288
REMARK SMILES C=C(C)[C@]12C[C@@H](C)[C@@]34O[C@](Cc5ccccc5)(O[C@@H]1[C@@H]3C=C(COC(=O)Cc1ccc(O)cc1)C[C@]1(O)C(=O)C(C)=C[C@@H]41)O2
REMARK SMILES IDX 23 1 22 2 21 3 20 4 9 5 8 6 10 7 6 8 18 10 44 11 19 12 5 13
REMARK SMILES IDX 7 14 4 15 11 16 12 17 13 18 17 19 14 20 16 21 15 22 2 23
REMARK SMILES IDX 3 24 1 25 35 26 36 27 43 28 38 29 42 30 39 32 40 33 41 34
REMARK SMILES IDX 37 35 24 37 25 38 26 39 27 40 28 41 29 42 34 43 30 44 33 45
REMARK SMILES IDX 31 46 32 47
REMARK H PARENT 37 36 32 48
REMARK Flexibility Score: 90.00
ROOT
ATOM      1  C   UNL     1      60.503  85.877  70.616  1.00  0.00     0.264 C 
ENDROOT
BRANCH   1   2
ATOM      2  C   UNL     1      61.667  86.522  69.899  1.00  0.00    -0.033 C 
ATOM      3  C   UNL     1      62.924  86.248  70.305  1.00  0.00    -0.015 C 
BRANCH   3   4
ATOM      4  C   UNL     1      64.244  86.817  69.809  1.00  0.00     0.078 C 
ATOM      5  O   UNL     1      65.054  85.307  68.025  1.00  0.00    -0.319 OA
ATOM      6  C   UNL     1      64.595  86.671  68.283  1.00  0.00     0.095 CG0
ATOM      7  C   UNL     1      65.954  84.765  69.011  1.00  0.00     0.289 C 
ATOM      8  C   UNL     1      65.767  87.687  67.961  1.00  0.00     0.023 C 
ATOM      9  G   UNL     1      63.319  86.823  67.404  1.00  0.00     0.000 G0
ATOM     10  O   UNL     1      65.367  84.777  70.310  1.00  0.00    -0.320 OA
ATOM     11  O   UNL     1      67.156  85.523  69.124  1.00  0.00    -0.313 OA
ATOM     12  C   UNL     1      65.418  86.184  70.595  1.00  0.00     0.170 C 
ATOM     13  C   UNL     1      66.723  87.862  69.180  1.00  0.00     0.049 C 
ATOM     14  C   UNL     1      66.596  87.365  66.705  1.00  0.00     0.011 C 
ATOM     15  C   UNL     1      66.800  86.591  70.027  1.00  0.00     0.122 C 
BRANCH   7  16
ATOM     16  C   UNL     1      66.291  83.341  68.614  1.00  0.00     0.135 C 
BRANCH  16  17
ATOM     17  C   UNL     1      65.054  82.497  68.429  1.00  0.00    -0.040 A 
ATOM     18  C   UNL     1      64.099  82.428  69.442  1.00  0.00     0.004 A 
ATOM     19  C   UNL     1      64.868  81.786  67.244  1.00  0.00     0.004 A 
ATOM     20  C   UNL     1      62.955  81.647  69.270  1.00  0.00     0.000 A 
ATOM     21  C   UNL     1      63.724  81.006  67.072  1.00  0.00     0.000 A 
ATOM     22  C   UNL     1      62.768  80.936  68.085  1.00  0.00     0.000 A 
ENDBRANCH  16  17
ENDBRANCH   7  16
BRANCH  15  23
ATOM     23  C   UNL     1      67.844  86.673  71.092  1.00  0.00    -0.046 C 
ATOM     24  C   UNL     1      67.628  87.713  72.151  1.00  0.00     0.042 C 
ATOM     25  C   UNL     1      68.913  85.863  71.102  1.00  0.00     0.010 C 
ENDBRANCH  15  23
ENDBRANCH   3   4
BRANCH   2  26
ATOM     26  C   UNL     1      61.238  87.427  68.760  1.00  0.00     0.078 C 
BRANCH  26  27
ATOM     27  C   UNL     1      62.334  87.952  67.835  1.00  0.00     0.140 C 
ATOM     28  C   UNL     1      63.315  86.842  67.404  1.00  0.00     0.086 CG0
ATOM     29  C   UNL     1      61.789  88.437  66.508  1.00  0.00     0.190 C 
ATOM     30  C   UNL     1      63.458  87.057  65.923  1.00  0.00    -0.010 C 
ATOM     31  G   UNL     1      64.592  86.679  68.279  1.00  0.00     0.000 G0
ATOM     32  O   UNL     1      60.839  89.193  66.366  1.00  0.00    -0.291 OA
ATOM     33  C   UNL     1      62.597  87.926  65.385  1.00  0.00    -0.008 C 
ATOM     34  C   UNL     1      62.396  88.316  63.974  1.00  0.00     0.048 C 
BRANCH  27  35
ATOM     35  O   UNL     1      62.968  89.097  68.380  1.00  0.00    -0.381 OA
ATOM     36  H   UNL     1      62.486  89.361  69.182  1.00  0.00     0.212 HD
ENDBRANCH  27  35
ENDBRANCH  26  27
ENDBRANCH   2  26
ENDBRANCH   1   2
BRANCH   1  37
ATOM     37  O   UNL     1      59.979  86.783  71.563  1.00  0.00    -0.461 OA
BRANCH  37  38
ATOM     38  C   UNL     1      58.682  87.195  71.357  1.00  0.00     0.310 C 
ATOM     39  O   UNL     1      57.715  86.452  71.270  1.00  0.00    -0.252 OA
BRANCH  38  40
ATOM     40  C   UNL     1      58.643  88.701  71.255  1.00  0.00     0.158 C 
BRANCH  40  41
ATOM     41  C   UNL     1      57.755  89.191  70.141  1.00  0.00    -0.037 A 
ATOM     42  C   UNL     1      56.954  90.318  70.332  1.00  0.00     0.008 A 
ATOM     43  C   UNL     1      57.733  88.520  68.919  1.00  0.00     0.008 A 
ATOM     44  C   UNL     1      56.131  90.772  69.301  1.00  0.00     0.046 A 
ATOM     45  C   UNL     1      56.911  88.974  67.888  1.00  0.00     0.046 A 
ATOM     46  C   UNL     1      56.110  90.099  68.078  1.00  0.00     0.115 A 
BRANCH  46  47
ATOM     47  O   UNL     1      55.307  90.542  67.073  1.00  0.00    -0.508 OA
ATOM     48  H   UNL     1      55.764  90.412  66.224  1.00  0.00     0.293 HD
ENDBRANCH  46  47
ENDBRANCH  40  41
ENDBRANCH  38  40
ENDBRANCH  37  38
ENDBRANCH   1  37
TORSDOF 10
ENDMDL
