MODEL 1
REMARK VINA RESULT:    -7.075      0.000      0.000
REMARK INTER + INTRA:         -14.357
REMARK INTER:                 -12.039
REMARK INTRA:                  -2.318
REMARK UNBOUND:                -2.318
REMARK SMILES C=C(C)[C@]12C[C@@H](C)[C@@]34O[C@](Cc5ccccc5)(O[C@@H]1[C@@H]3C=C(COC(=O)Cc1ccc(O)cc1)C[C@]1(O)C(=O)C(C)=C[C@@H]41)O2
REMARK SMILES IDX 23 1 22 2 21 3 20 4 9 5 8 6 10 7 6 8 18 10 44 11 19 12 5 13
REMARK SMILES IDX 7 14 4 15 11 16 12 17 13 18 17 19 14 20 16 21 15 22 2 23
REMARK SMILES IDX 3 24 1 25 35 26 36 27 43 28 38 29 42 30 39 32 40 33 41 34
REMARK SMILES IDX 37 35 24 37 25 38 26 39 27 40 28 41 29 42 34 43 30 44 33 45
REMARK SMILES IDX 31 46 32 47
REMARK H PARENT 37 36 32 48
REMARK Flexibility Score: 90.00
ROOT
ATOM      1  C   UNL     1      65.382  87.502  73.931  1.00  0.00     0.264 C 
ENDROOT
BRANCH   1   2
ATOM      2  C   UNL     1      64.114  87.210  73.162  1.00  0.00    -0.033 C 
ATOM      3  C   UNL     1      64.006  86.047  72.487  1.00  0.00    -0.015 C 
BRANCH   3   4
ATOM      4  C   UNL     1      62.883  85.553  71.589  1.00  0.00     0.078 C 
ATOM      5  O   UNL     1      61.354  84.226  73.008  1.00  0.00    -0.319 OA
ATOM      6  C   UNL     1      61.436  85.437  72.194  1.00  0.00     0.095 CG0
ATOM      7  C   UNL     1      61.976  83.058  72.439  1.00  0.00     0.289 C 
ATOM      8  C   UNL     1      60.418  85.325  70.985  1.00  0.00     0.023 C 
ATOM      9  G   UNL     1      61.160  86.597  73.195  1.00  0.00     0.000 G0
ATOM     10  O   UNL     1      63.354  83.290  72.161  1.00  0.00    -0.320 OA
ATOM     11  O   UNL     1      61.390  82.684  71.195  1.00  0.00    -0.313 OA
ATOM     12  C   UNL     1      63.238  84.157  71.022  1.00  0.00     0.170 C 
ATOM     13  C   UNL     1      61.046  84.564  69.777  1.00  0.00     0.049 C 
ATOM     14  C   UNL     1      59.053  84.703  71.326  1.00  0.00     0.011 C 
ATOM     15  C   UNL     1      62.067  83.521  70.235  1.00  0.00     0.122 C 
BRANCH   7  16
ATOM     16  C   UNL     1      61.836  81.917  73.427  1.00  0.00     0.135 C 
BRANCH  16  17
ATOM     17  C   UNL     1      63.175  81.429  73.921  1.00  0.00    -0.040 A 
ATOM     18  C   UNL     1      63.962  80.611  73.112  1.00  0.00     0.004 A 
ATOM     19  C   UNL     1      63.625  81.797  75.189  1.00  0.00     0.004 A 
ATOM     20  C   UNL     1      65.201  80.160  73.569  1.00  0.00     0.000 A 
ATOM     21  C   UNL     1      64.864  81.346  75.647  1.00  0.00     0.000 A 
ATOM     22  C   UNL     1      65.651  80.528  74.837  1.00  0.00     0.000 A 
ENDBRANCH  16  17
ENDBRANCH   7  16
BRANCH  15  23
ATOM     23  C   UNL     1      62.546  82.658  69.113  1.00  0.00    -0.046 C 
ATOM     24  C   UNL     1      63.033  83.373  67.888  1.00  0.00     0.042 C 
ATOM     25  C   UNL     1      62.541  81.319  69.197  1.00  0.00     0.010 C 
ENDBRANCH  15  23
ENDBRANCH   3   4
BRANCH   2  26
ATOM     26  C   UNL     1      63.084  88.319  73.269  1.00  0.00     0.078 C 
BRANCH  26  27
ATOM     27  C   UNL     1      61.682  88.021  72.742  1.00  0.00     0.140 C 
ATOM     28  C   UNL     1      61.170  86.637  73.192  1.00  0.00     0.086 CG0
ATOM     29  C   UNL     1      60.637  88.955  73.315  1.00  0.00     0.190 C 
ATOM     30  C   UNL     1      59.768  86.915  73.655  1.00  0.00    -0.010 C 
ATOM     31  G   UNL     1      61.430  85.458  72.209  1.00  0.00     0.000 G0
ATOM     32  O   UNL     1      60.726  90.173  73.364  1.00  0.00    -0.291 OA
ATOM     33  C   UNL     1      59.446  88.208  73.762  1.00  0.00    -0.008 C 
ATOM     34  C   UNL     1      58.207  88.842  74.256  1.00  0.00     0.048 C 
BRANCH  27  35
ATOM     35  O   UNL     1      61.597  88.236  71.343  1.00  0.00    -0.381 OA
ATOM     36  H   UNL     1      62.476  88.085  70.956  1.00  0.00     0.212 HD
ENDBRANCH  27  35
ENDBRANCH  26  27
ENDBRANCH   2  26
ENDBRANCH   1   2
BRANCH   1  37
ATOM     37  O   UNL     1      65.907  86.295  74.441  1.00  0.00    -0.461 OA
BRANCH  37  38
ATOM     38  C   UNL     1      66.394  86.339  75.727  1.00  0.00     0.310 C 
ATOM     39  O   UNL     1      67.345  87.015  76.095  1.00  0.00    -0.252 OA
BRANCH  38  40
ATOM     40  C   UNL     1      65.574  85.428  76.607  1.00  0.00     0.158 C 
BRANCH  40  41
ATOM     41  C   UNL     1      64.159  85.910  76.797  1.00  0.00    -0.037 A 
ATOM     42  C   UNL     1      63.096  85.184  76.258  1.00  0.00     0.008 A 
ATOM     43  C   UNL     1      63.911  87.082  77.510  1.00  0.00     0.008 A 
ATOM     44  C   UNL     1      61.786  85.632  76.432  1.00  0.00     0.046 A 
ATOM     45  C   UNL     1      62.601  87.529  77.686  1.00  0.00     0.046 A 
ATOM     46  C   UNL     1      61.539  86.804  77.147  1.00  0.00     0.115 A 
BRANCH  46  47
ATOM     47  O   UNL     1      60.261  87.240  77.316  1.00  0.00    -0.508 OA
ATOM     48  H   UNL     1      60.221  88.189  77.103  1.00  0.00     0.293 HD
ENDBRANCH  46  47
ENDBRANCH  40  41
ENDBRANCH  38  40
ENDBRANCH  37  38
ENDBRANCH   1  37
TORSDOF 10
ENDMDL
MODEL 2
REMARK VINA RESULT:    -6.414     29.380     33.568
REMARK INTER + INTRA:         -13.232
REMARK INTER:                 -12.776
REMARK INTRA:                  -0.456
REMARK UNBOUND:                -2.318
REMARK SMILES C=C(C)[C@]12C[C@@H](C)[C@@]34O[C@](Cc5ccccc5)(O[C@@H]1[C@@H]3C=C(COC(=O)Cc1ccc(O)cc1)C[C@]1(O)C(=O)C(C)=C[C@@H]41)O2
REMARK SMILES IDX 23 1 22 2 21 3 20 4 9 5 8 6 10 7 6 8 18 10 44 11 19 12 5 13
REMARK SMILES IDX 7 14 4 15 11 16 12 17 13 18 17 19 14 20 16 21 15 22 2 23
REMARK SMILES IDX 3 24 1 25 35 26 36 27 43 28 38 29 42 30 39 32 40 33 41 34
REMARK SMILES IDX 37 35 24 37 25 38 26 39 27 40 28 41 29 42 34 43 30 44 33 45
REMARK SMILES IDX 31 46 32 47
REMARK H PARENT 37 36 32 48
REMARK Flexibility Score: 90.00
ROOT
ATOM      1  C   UNL     1      96.057  81.785  84.423  1.00  0.00     0.264 C 
ENDROOT
BRANCH   1   2
ATOM      2  C   UNL     1      94.789  82.113  85.176  1.00  0.00    -0.033 C 
ATOM      3  C   UNL     1      93.685  81.367  84.964  1.00  0.00    -0.015 C 
BRANCH   3   4
ATOM      4  C   UNL     1      92.284  81.535  85.530  1.00  0.00     0.078 C 
ATOM      5  O   UNL     1      92.151  80.124  87.557  1.00  0.00    -0.319 OA
ATOM      6  C   UNL     1      92.099  81.509  87.092  1.00  0.00     0.095 CG0
ATOM      7  C   UNL     1      91.432  79.175  86.745  1.00  0.00     0.289 C 
ATOM      8  C   UNL     1      90.672  82.116  87.416  1.00  0.00     0.023 C 
ATOM      9  G   UNL     1      93.298  82.202  87.803  1.00  0.00     0.000 G0
ATOM     10  O   UNL     1      91.897  79.188  85.399  1.00  0.00    -0.320 OA
ATOM     11  O   UNL     1      90.039  79.468  86.674  1.00  0.00    -0.313 OA
ATOM     12  C   UNL     1      91.351  80.440  84.956  1.00  0.00     0.170 C 
ATOM     13  C   UNL     1      89.640  81.783  86.295  1.00  0.00     0.049 C 
ATOM     14  C   UNL     1      90.083  81.728  88.783  1.00  0.00     0.011 C 
ATOM     15  C   UNL     1      89.951  80.448  85.618  1.00  0.00     0.122 C 
BRANCH   7  16
ATOM     16  C   UNL     1      91.628  77.796  87.342  1.00  0.00     0.135 C 
BRANCH  16  17
ATOM     17  C   UNL     1      90.995  76.718  86.497  1.00  0.00    -0.040 A 
ATOM     18  C   UNL     1      91.749  76.061  85.525  1.00  0.00     0.004 A 
ATOM     19  C   UNL     1      89.657  76.378  86.689  1.00  0.00     0.004 A 
ATOM     20  C   UNL     1      91.164  75.064  84.744  1.00  0.00     0.000 A 
ATOM     21  C   UNL     1      89.072  75.381  85.908  1.00  0.00     0.000 A 
ATOM     22  C   UNL     1      89.825  74.725  84.936  1.00  0.00     0.000 A 
ENDBRANCH  16  17
ENDBRANCH   7  16
BRANCH  15  23
ATOM     23  C   UNL     1      88.879  80.022  84.670  1.00  0.00    -0.046 C 
ATOM     24  C   UNL     1      87.708  80.950  84.534  1.00  0.00     0.042 C 
ATOM     25  C   UNL     1      88.957  78.874  83.979  1.00  0.00     0.010 C 
ENDBRANCH  15  23
ENDBRANCH   3   4
BRANCH   2  26
ATOM     26  C   UNL     1      94.944  83.292  86.119  1.00  0.00     0.078 C 
BRANCH  26  27
ATOM     27  C   UNL     1      93.820  83.533  87.125  1.00  0.00     0.140 C 
ATOM     28  C   UNL     1      93.320  82.222  87.766  1.00  0.00     0.086 CG0
ATOM     29  C   UNL     1      94.280  84.329  88.328  1.00  0.00     0.190 C 
ATOM     30  C   UNL     1      93.243  82.556  89.230  1.00  0.00    -0.010 C 
ATOM     31  G   UNL     1      92.104  81.540  87.074  1.00  0.00     0.000 G0
ATOM     32  O   UNL     1      94.923  85.367  88.287  1.00  0.00    -0.291 OA
ATOM     33  C   UNL     1      93.799  83.719  89.582  1.00  0.00    -0.008 C 
ATOM     34  C   UNL     1      93.977  84.322  90.919  1.00  0.00     0.048 C 
BRANCH  27  35
ATOM     35  O   UNL     1      92.787  84.329  86.568  1.00  0.00    -0.381 OA
ATOM     36  H   UNL     1      92.324  84.781  87.293  1.00  0.00     0.212 HD
ENDBRANCH  27  35
ENDBRANCH  26  27
ENDBRANCH   2  26
ENDBRANCH   1   2
BRANCH   1  37
ATOM     37  O   UNL     1      95.922  82.196  83.079  1.00  0.00    -0.461 OA
BRANCH  37  38
ATOM     38  C   UNL     1      97.087  82.519  82.422  1.00  0.00     0.310 C 
ATOM     39  O   UNL     1      97.780  83.498  82.661  1.00  0.00    -0.252 OA
BRANCH  38  40
ATOM     40  C   UNL     1      97.373  81.480  81.365  1.00  0.00     0.158 C 
BRANCH  40  41
ATOM     41  C   UNL     1      97.587  82.076  79.998  1.00  0.00    -0.037 A 
ATOM     42  C   UNL     1      98.881  82.258  79.510  1.00  0.00     0.008 A 
ATOM     43  C   UNL     1      96.490  82.446  79.219  1.00  0.00     0.008 A 
ATOM     44  C   UNL     1      99.078  82.811  78.244  1.00  0.00     0.046 A 
ATOM     45  C   UNL     1      96.687  82.999  77.953  1.00  0.00     0.046 A 
ATOM     46  C   UNL     1      97.981  83.181  77.466  1.00  0.00     0.115 A 
BRANCH  46  47
ATOM     47  O   UNL     1      98.174  83.721  76.232  1.00  0.00    -0.508 OA
ATOM     48  H   UNL     1      97.765  84.604  76.206  1.00  0.00     0.293 HD
ENDBRANCH  46  47
ENDBRANCH  40  41
ENDBRANCH  38  40
ENDBRANCH  37  38
ENDBRANCH   1  37
TORSDOF 10
ENDMDL
MODEL 3
REMARK VINA RESULT:    -6.055      2.039      4.394
REMARK INTER + INTRA:         -12.621
REMARK INTER:                 -11.289
REMARK INTRA:                  -1.332
REMARK UNBOUND:                -2.318
REMARK SMILES C=C(C)[C@]12C[C@@H](C)[C@@]34O[C@](Cc5ccccc5)(O[C@@H]1[C@@H]3C=C(COC(=O)Cc1ccc(O)cc1)C[C@]1(O)C(=O)C(C)=C[C@@H]41)O2
REMARK SMILES IDX 23 1 22 2 21 3 20 4 9 5 8 6 10 7 6 8 18 10 44 11 19 12 5 13
REMARK SMILES IDX 7 14 4 15 11 16 12 17 13 18 17 19 14 20 16 21 15 22 2 23
REMARK SMILES IDX 3 24 1 25 35 26 36 27 43 28 38 29 42 30 39 32 40 33 41 34
REMARK SMILES IDX 37 35 24 37 25 38 26 39 27 40 28 41 29 42 34 43 30 44 33 45
REMARK SMILES IDX 31 46 32 47
REMARK H PARENT 37 36 32 48
REMARK Flexibility Score: 90.00
ROOT
ATOM      1  C   UNL     1      60.463  88.029  78.389  1.00  0.00     0.264 C 
ENDROOT
BRANCH   1   2
ATOM      2  C   UNL     1      60.973  87.847  76.978  1.00  0.00    -0.033 C 
ATOM      3  C   UNL     1      62.065  87.086  76.765  1.00  0.00    -0.015 C 
BRANCH   3   4
ATOM      4  C   UNL     1      62.813  86.810  75.470  1.00  0.00     0.078 C 
ATOM      5  O   UNL     1      61.850  84.745  74.508  1.00  0.00    -0.319 OA
ATOM      6  C   UNL     1      62.019  86.177  74.269  1.00  0.00     0.095 CG0
ATOM      7  C   UNL     1      63.012  84.066  75.022  1.00  0.00     0.289 C 
ATOM      8  C   UNL     1      62.883  86.390  72.958  1.00  0.00     0.023 C 
ATOM      9  G   UNL     1      60.567  86.734  74.210  1.00  0.00     0.000 G0
ATOM     10  O   UNL     1      63.456  84.651  76.243  1.00  0.00    -0.320 OA
ATOM     11  O   UNL     1      64.124  84.143  74.132  1.00  0.00    -0.313 OA
ATOM     12  C   UNL     1      64.017  85.876  75.746  1.00  0.00     0.170 C 
ATOM     13  C   UNL     1      64.411  86.341  73.266  1.00  0.00     0.049 C 
ATOM     14  C   UNL     1      62.567  85.435  71.794  1.00  0.00     0.011 C 
ATOM     15  C   UNL     1      64.721  85.418  74.446  1.00  0.00     0.122 C 
BRANCH   7  16
ATOM     16  C   UNL     1      62.650  82.612  75.252  1.00  0.00     0.135 C 
BRANCH  16  17
ATOM     17  C   UNL     1      63.694  81.674  74.699  1.00  0.00    -0.040 A 
ATOM     18  C   UNL     1      63.492  81.054  73.467  1.00  0.00     0.004 A 
ATOM     19  C   UNL     1      64.861  81.428  75.421  1.00  0.00     0.004 A 
ATOM     20  C   UNL     1      64.458  80.186  72.955  1.00  0.00     0.000 A 
ATOM     21  C   UNL     1      65.827  80.561  74.909  1.00  0.00     0.000 A 
ATOM     22  C   UNL     1      65.625  79.941  73.677  1.00  0.00     0.000 A 
ENDBRANCH  16  17
ENDBRANCH   7  16
BRANCH  15  23
ATOM     23  C   UNL     1      66.188  85.214  74.644  1.00  0.00    -0.046 C 
ATOM     24  C   UNL     1      66.914  86.298  75.384  1.00  0.00     0.042 C 
ATOM     25  C   UNL     1      66.820  84.123  74.187  1.00  0.00     0.010 C 
ENDBRANCH  15  23
ENDBRANCH   3   4
BRANCH   2  26
ATOM     26  C   UNL     1      60.137  88.578  75.944  1.00  0.00     0.078 C 
BRANCH  26  27
ATOM     27  C   UNL     1      60.416  88.267  74.475  1.00  0.00     0.140 C 
ATOM     28  C   UNL     1      60.577  86.755  74.219  1.00  0.00     0.086 CG0
ATOM     29  C   UNL     1      59.253  88.627  73.575  1.00  0.00     0.190 C 
ATOM     30  C   UNL     1      59.739  86.516  72.994  1.00  0.00    -0.010 C 
ATOM     31  G   UNL     1      62.031  86.202  74.269  1.00  0.00     0.000 G0
ATOM     32  O   UNL     1      58.653  89.692  73.585  1.00  0.00    -0.291 OA
ATOM     33  C   UNL     1      58.963  87.539  72.623  1.00  0.00    -0.008 C 
ATOM     34  C   UNL     1      57.966  87.632  71.536  1.00  0.00     0.048 C 
BRANCH  27  35
ATOM     35  O   UNL     1      61.486  89.050  73.974  1.00  0.00    -0.381 OA
ATOM     36  H   UNL     1      61.147  89.939  73.770  1.00  0.00     0.212 HD
ENDBRANCH  27  35
ENDBRANCH  26  27
ENDBRANCH   2  26
ENDBRANCH   1   2
BRANCH   1  37
ATOM     37  O   UNL     1      61.558  88.062  79.280  1.00  0.00    -0.461 OA
BRANCH  37  38
ATOM     38  C   UNL     1      61.488  88.990  80.294  1.00  0.00     0.310 C 
ATOM     39  O   UNL     1      60.459  89.513  80.698  1.00  0.00    -0.252 OA
BRANCH  38  40
ATOM     40  C   UNL     1      62.875  89.259  80.826  1.00  0.00     0.158 C 
BRANCH  40  41
ATOM     41  C   UNL     1      63.904  88.290  80.304  1.00  0.00    -0.037 A 
ATOM     42  C   UNL     1      64.524  88.526  79.077  1.00  0.00     0.008 A 
ATOM     43  C   UNL     1      64.235  87.157  81.046  1.00  0.00     0.008 A 
ATOM     44  C   UNL     1      65.476  87.628  78.593  1.00  0.00     0.046 A 
ATOM     45  C   UNL     1      65.188  86.259  80.563  1.00  0.00     0.046 A 
ATOM     46  C   UNL     1      65.807  86.494  79.336  1.00  0.00     0.115 A 
BRANCH  46  47
ATOM     47  O   UNL     1      66.735  85.619  78.863  1.00  0.00    -0.508 OA
ATOM     48  H   UNL     1      66.858  85.772  77.910  1.00  0.00     0.293 HD
ENDBRANCH  46  47
ENDBRANCH  40  41
ENDBRANCH  38  40
ENDBRANCH  37  38
ENDBRANCH   1  37
TORSDOF 10
ENDMDL
MODEL 4
REMARK VINA RESULT:    -6.044     34.748     37.719
REMARK INTER + INTRA:         -12.603
REMARK INTER:                 -10.325
REMARK INTRA:                  -2.278
REMARK UNBOUND:                -2.318
REMARK SMILES C=C(C)[C@]12C[C@@H](C)[C@@]34O[C@](Cc5ccccc5)(O[C@@H]1[C@@H]3C=C(COC(=O)Cc1ccc(O)cc1)C[C@]1(O)C(=O)C(C)=C[C@@H]41)O2
REMARK SMILES IDX 23 1 22 2 21 3 20 4 9 5 8 6 10 7 6 8 18 10 44 11 19 12 5 13
REMARK SMILES IDX 7 14 4 15 11 16 12 17 13 18 17 19 14 20 16 21 15 22 2 23
REMARK SMILES IDX 3 24 1 25 35 26 36 27 43 28 38 29 42 30 39 32 40 33 41 34
REMARK SMILES IDX 37 35 24 37 25 38 26 39 27 40 28 41 29 42 34 43 30 44 33 45
REMARK SMILES IDX 31 46 32 47
REMARK H PARENT 37 36 32 48
REMARK Flexibility Score: 90.00
ROOT
ATOM      1  C   UNL     1     101.584  82.719  76.422  1.00  0.00     0.264 C 
ENDROOT
BRANCH   1   2
ATOM      2  C   UNL     1     101.195  81.453  77.150  1.00  0.00    -0.033 C 
ATOM      3  C   UNL     1     100.963  81.501  78.478  1.00  0.00    -0.015 C 
BRANCH   3   4
ATOM      4  C   UNL     1     100.637  80.372  79.442  1.00  0.00     0.078 C 
ATOM      5  O   UNL     1      98.172  80.248  79.601  1.00  0.00    -0.319 OA
ATOM      6  C   UNL     1      99.354  79.503  79.171  1.00  0.00     0.095 CG0
ATOM      7  C   UNL     1      98.304  80.939  80.858  1.00  0.00     0.289 C 
ATOM      8  C   UNL     1      99.481  78.179  80.033  1.00  0.00     0.023 C 
ATOM      9  G   UNL     1      99.144  79.288  77.644  1.00  0.00     0.000 G0
ATOM     10  O   UNL     1      99.396  81.853  80.834  1.00  0.00    -0.320 OA
ATOM     11  O   UNL     1      98.569  80.049  81.940  1.00  0.00    -0.313 OA
ATOM     12  C   UNL     1     100.496  80.931  80.879  1.00  0.00     0.170 C 
ATOM     13  C   UNL     1     100.229  78.441  81.376  1.00  0.00     0.049 C 
ATOM     14  C   UNL     1      98.158  77.448  80.321  1.00  0.00     0.011 C 
ATOM     15  C   UNL     1      99.999  79.864  81.885  1.00  0.00     0.122 C 
BRANCH   7  16
ATOM     16  C   UNL     1      97.013  81.687  81.125  1.00  0.00     0.135 C 
BRANCH  16  17
ATOM     17  C   UNL     1      96.937  82.197  82.543  1.00  0.00    -0.040 A 
ATOM     18  C   UNL     1      96.324  81.426  83.529  1.00  0.00     0.004 A 
ATOM     19  C   UNL     1      97.481  83.440  82.865  1.00  0.00     0.004 A 
ATOM     20  C   UNL     1      96.254  81.898  84.841  1.00  0.00     0.000 A 
ATOM     21  C   UNL     1      97.411  83.912  84.177  1.00  0.00     0.000 A 
ATOM     22  C   UNL     1      96.798  83.141  85.164  1.00  0.00     0.000 A 
ENDBRANCH  16  17
ENDBRANCH   7  16
BRANCH  15  23
ATOM     23  C   UNL     1     100.554  80.081  83.255  1.00  0.00    -0.046 C 
ATOM     24  C   UNL     1     101.936  79.552  83.500  1.00  0.00     0.042 C 
ATOM     25  C   UNL     1      99.857  80.713  84.211  1.00  0.00     0.010 C 
ENDBRANCH  15  23
ENDBRANCH   3   4
BRANCH   2  26
ATOM     26  C   UNL     1     101.110  80.243  76.238  1.00  0.00     0.078 C 
BRANCH  26  27
ATOM     27  C   UNL     1     100.447  78.989  76.802  1.00  0.00     0.140 C 
ATOM     28  C   UNL     1      99.182  79.315  77.623  1.00  0.00     0.086 CG0
ATOM     29  C   UNL     1      99.906  78.081  75.718  1.00  0.00     0.190 C 
ATOM     30  C   UNL     1      98.175  78.317  77.126  1.00  0.00    -0.010 C 
ATOM     31  G   UNL     1      99.387  79.495  79.156  1.00  0.00     0.000 G0
ATOM     32  O   UNL     1     100.520  77.719  74.726  1.00  0.00    -0.291 OA
ATOM     33  C   UNL     1      98.539  77.628  76.040  1.00  0.00    -0.008 C 
ATOM     34  C   UNL     1      97.784  76.640  75.243  1.00  0.00     0.048 C 
BRANCH  27  35
ATOM     35  O   UNL     1     101.381  78.174  77.490  1.00  0.00    -0.381 OA
ATOM     36  H   UNL     1     101.032  77.267  77.522  1.00  0.00     0.212 HD
ENDBRANCH  27  35
ENDBRANCH  26  27
ENDBRANCH   2  26
ENDBRANCH   1   2
BRANCH   1  37
ATOM     37  O   UNL     1     101.270  82.584  75.052  1.00  0.00    -0.461 OA
BRANCH  37  38
ATOM     38  C   UNL     1     100.859  83.728  74.408  1.00  0.00     0.310 C 
ATOM     39  O   UNL     1     101.545  84.728  74.246  1.00  0.00    -0.252 OA
BRANCH  38  40
ATOM     40  C   UNL     1      99.436  83.556  73.934  1.00  0.00     0.158 C 
BRANCH  40  41
ATOM     41  C   UNL     1      98.506  83.089  75.023  1.00  0.00    -0.037 A 
ATOM     42  C   UNL     1      97.979  81.798  74.984  1.00  0.00     0.008 A 
ATOM     43  C   UNL     1      98.172  83.946  76.071  1.00  0.00     0.008 A 
ATOM     44  C   UNL     1      97.117  81.365  75.992  1.00  0.00     0.046 A 
ATOM     45  C   UNL     1      97.310  83.514  77.080  1.00  0.00     0.046 A 
ATOM     46  C   UNL     1      96.783  82.224  77.040  1.00  0.00     0.115 A 
BRANCH  46  47
ATOM     47  O   UNL     1      95.942  81.801  78.023  1.00  0.00    -0.508 OA
ATOM     48  H   UNL     1      96.271  82.124  78.880  1.00  0.00     0.293 HD
ENDBRANCH  46  47
ENDBRANCH  40  41
ENDBRANCH  38  40
ENDBRANCH  37  38
ENDBRANCH   1  37
TORSDOF 10
ENDMDL
MODEL 5
REMARK VINA RESULT:    -6.040     26.117     29.658
REMARK INTER + INTRA:         -12.595
REMARK INTER:                 -12.121
REMARK INTRA:                  -0.474
REMARK UNBOUND:                -2.318
REMARK SMILES C=C(C)[C@]12C[C@@H](C)[C@@]34O[C@](Cc5ccccc5)(O[C@@H]1[C@@H]3C=C(COC(=O)Cc1ccc(O)cc1)C[C@]1(O)C(=O)C(C)=C[C@@H]41)O2
REMARK SMILES IDX 23 1 22 2 21 3 20 4 9 5 8 6 10 7 6 8 18 10 44 11 19 12 5 13
REMARK SMILES IDX 7 14 4 15 11 16 12 17 13 18 17 19 14 20 16 21 15 22 2 23
REMARK SMILES IDX 3 24 1 25 35 26 36 27 43 28 38 29 42 30 39 32 40 33 41 34
REMARK SMILES IDX 37 35 24 37 25 38 26 39 27 40 28 41 29 42 34 43 30 44 33 45
REMARK SMILES IDX 31 46 32 47
REMARK H PARENT 37 36 32 48
REMARK Flexibility Score: 90.00
ROOT
ATOM      1  C   UNL     1      87.490  66.528  71.276  1.00  0.00     0.264 C 
ENDROOT
BRANCH   1   2
ATOM      2  C   UNL     1      86.336  66.216  72.201  1.00  0.00    -0.033 C 
ATOM      3  C   UNL     1      86.533  66.254  73.535  1.00  0.00    -0.015 C 
BRANCH   3   4
ATOM      4  C   UNL     1      85.571  65.912  74.662  1.00  0.00     0.078 C 
ATOM      5  O   UNL     1      84.455  68.018  75.321  1.00  0.00    -0.319 OA
ATOM      6  C   UNL     1      84.210  66.696  74.748  1.00  0.00     0.095 CG0
ATOM      7  C   UNL     1      85.356  68.045  76.444  1.00  0.00     0.289 C 
ATOM      8  C   UNL     1      83.247  65.881  75.707  1.00  0.00     0.023 C 
ATOM      9  G   UNL     1      83.648  66.987  73.326  1.00  0.00     0.000 G0
ATOM     10  O   UNL     1      86.623  67.489  76.104  1.00  0.00    -0.320 OA
ATOM     11  O   UNL     1      84.878  67.272  77.542  1.00  0.00    -0.313 OA
ATOM     12  C   UNL     1      86.275  66.098  76.029  1.00  0.00     0.170 C 
ATOM     13  C   UNL     1      84.042  65.159  76.837  1.00  0.00     0.049 C 
ATOM     14  C   UNL     1      82.095  66.688  76.330  1.00  0.00     0.011 C 
ATOM     15  C   UNL     1      85.305  65.931  77.223  1.00  0.00     0.122 C 
BRANCH   7  16
ATOM     16  C   UNL     1      85.529  69.487  76.879  1.00  0.00     0.135 C 
BRANCH  16  17
ATOM     17  C   UNL     1      86.844  69.713  77.583  1.00  0.00    -0.040 A 
ATOM     18  C   UNL     1      86.924  69.585  78.970  1.00  0.00     0.004 A 
ATOM     19  C   UNL     1      87.979  70.049  76.847  1.00  0.00     0.004 A 
ATOM     20  C   UNL     1      88.140  69.793  79.620  1.00  0.00     0.000 A 
ATOM     21  C   UNL     1      89.196  70.257  77.498  1.00  0.00     0.000 A 
ATOM     22  C   UNL     1      89.276  70.129  78.884  1.00  0.00     0.000 A 
ENDBRANCH  16  17
ENDBRANCH   7  16
BRANCH  15  23
ATOM     23  C   UNL     1      85.984  65.356  78.423  1.00  0.00    -0.046 C 
ATOM     24  C   UNL     1      87.309  65.959  78.785  1.00  0.00     0.042 C 
ATOM     25  C   UNL     1      85.441  64.358  79.136  1.00  0.00     0.010 C 
ENDBRANCH  15  23
ENDBRANCH   3   4
BRANCH   2  26
ATOM     26  C   UNL     1      85.051  65.894  71.462  1.00  0.00     0.078 C 
BRANCH  26  27
ATOM     27  C   UNL     1      83.772  65.809  72.292  1.00  0.00     0.140 C 
ATOM     28  C   UNL     1      83.656  66.965  73.307  1.00  0.00     0.086 CG0
ATOM     29  C   UNL     1      82.523  65.987  71.454  1.00  0.00     0.190 C 
ATOM     30  C   UNL     1      82.237  67.434  73.144  1.00  0.00    -0.010 C 
ATOM     31  G   UNL     1      84.208  66.682  74.735  1.00  0.00     0.000 G0
ATOM     32  O   UNL     1      82.284  65.404  70.408  1.00  0.00    -0.291 OA
ATOM     33  C   UNL     1      81.583  66.925  72.096  1.00  0.00    -0.008 C 
ATOM     34  C   UNL     1      80.227  67.216  71.589  1.00  0.00     0.048 C 
BRANCH  27  35
ATOM     35  O   UNL     1      83.612  64.524  72.868  1.00  0.00    -0.381 OA
ATOM     36  H   UNL     1      83.133  64.622  73.709  1.00  0.00     0.212 HD
ENDBRANCH  27  35
ENDBRANCH  26  27
ENDBRANCH   2  26
ENDBRANCH   1   2
BRANCH   1  37
ATOM     37  O   UNL     1      87.051  67.408  70.263  1.00  0.00    -0.461 OA
BRANCH  37  38
ATOM     38  C   UNL     1      87.942  68.383  69.877  1.00  0.00     0.310 C 
ATOM     39  O   UNL     1      88.953  68.188  69.217  1.00  0.00    -0.252 OA
BRANCH  38  40
ATOM     40  C   UNL     1      87.477  69.724  70.393  1.00  0.00     0.158 C 
BRANCH  40  41
ATOM     41  C   UNL     1      87.639  70.830  69.383  1.00  0.00    -0.037 A 
ATOM     42  C   UNL     1      86.671  71.022  68.397  1.00  0.00     0.008 A 
ATOM     43  C   UNL     1      88.757  71.663  69.433  1.00  0.00     0.008 A 
ATOM     44  C   UNL     1      86.821  72.046  67.461  1.00  0.00     0.046 A 
ATOM     45  C   UNL     1      88.907  72.687  68.498  1.00  0.00     0.046 A 
ATOM     46  C   UNL     1      87.940  72.879  67.512  1.00  0.00     0.115 A 
BRANCH  46  47
ATOM     47  O   UNL     1      88.086  73.877  66.599  1.00  0.00    -0.508 OA
ATOM     48  H   UNL     1      88.761  73.614  65.949  1.00  0.00     0.293 HD
ENDBRANCH  46  47
ENDBRANCH  40  41
ENDBRANCH  38  40
ENDBRANCH  37  38
ENDBRANCH   1  37
TORSDOF 10
ENDMDL
MODEL 6
REMARK VINA RESULT:    -5.932      2.181      4.733
REMARK INTER + INTRA:         -12.412
REMARK INTER:                 -10.045
REMARK INTRA:                  -2.366
REMARK UNBOUND:                -2.318
REMARK SMILES C=C(C)[C@]12C[C@@H](C)[C@@]34O[C@](Cc5ccccc5)(O[C@@H]1[C@@H]3C=C(COC(=O)Cc1ccc(O)cc1)C[C@]1(O)C(=O)C(C)=C[C@@H]41)O2
REMARK SMILES IDX 23 1 22 2 21 3 20 4 9 5 8 6 10 7 6 8 18 10 44 11 19 12 5 13
REMARK SMILES IDX 7 14 4 15 11 16 12 17 13 18 17 19 14 20 16 21 15 22 2 23
REMARK SMILES IDX 3 24 1 25 35 26 36 27 43 28 38 29 42 30 39 32 40 33 41 34
REMARK SMILES IDX 37 35 24 37 25 38 26 39 27 40 28 41 29 42 34 43 30 44 33 45
REMARK SMILES IDX 31 46 32 47
REMARK H PARENT 37 36 32 48
REMARK Flexibility Score: 90.00
ROOT
ATOM      1  C   UNL     1      60.796  88.326  78.761  1.00  0.00     0.264 C 
ENDROOT
BRANCH   1   2
ATOM      2  C   UNL     1      61.256  88.072  77.344  1.00  0.00    -0.033 C 
ATOM      3  C   UNL     1      62.399  87.386  77.136  1.00  0.00    -0.015 C 
BRANCH   3   4
ATOM      4  C   UNL     1      63.109  87.067  75.829  1.00  0.00     0.078 C 
ATOM      5  O   UNL     1      62.311  84.844  75.099  1.00  0.00    -0.319 OA
ATOM      6  C   UNL     1      62.327  86.258  74.731  1.00  0.00     0.095 CG0
ATOM      7  C   UNL     1      63.556  84.325  75.605  1.00  0.00     0.289 C 
ATOM      8  C   UNL     1      63.105  86.433  73.362  1.00  0.00     0.023 C 
ATOM      9  G   UNL     1      60.826  86.669  74.704  1.00  0.00     0.000 G0
ATOM     10  O   UNL     1      63.996  85.055  76.746  1.00  0.00    -0.320 OA
ATOM     11  O   UNL     1      64.612  84.426  74.652  1.00  0.00    -0.313 OA
ATOM     12  C   UNL     1      64.410  86.278  76.117  1.00  0.00     0.170 C 
ATOM     13  C   UNL     1      64.643  86.555  73.589  1.00  0.00     0.049 C 
ATOM     14  C   UNL     1      62.830  85.352  72.302  1.00  0.00     0.011 C 
ATOM     15  C   UNL     1      65.096  85.774  74.824  1.00  0.00     0.122 C 
BRANCH   7  16
ATOM     16  C   UNL     1      63.349  82.870  75.975  1.00  0.00     0.135 C 
BRANCH  16  17
ATOM     17  C   UNL     1      63.945  81.934  74.953  1.00  0.00    -0.040 A 
ATOM     18  C   UNL     1      63.330  81.774  73.712  1.00  0.00     0.004 A 
ATOM     19  C   UNL     1      65.111  81.230  75.250  1.00  0.00     0.004 A 
ATOM     20  C   UNL     1      63.882  80.909  72.766  1.00  0.00     0.000 A 
ATOM     21  C   UNL     1      65.663  80.365  74.305  1.00  0.00     0.000 A 
ATOM     22  C   UNL     1      65.048  80.205  73.063  1.00  0.00     0.000 A 
ENDBRANCH  16  17
ENDBRANCH   7  16
BRANCH  15  23
ATOM     23  C   UNL     1      66.583  85.726  74.958  1.00  0.00    -0.046 C 
ATOM     24  C   UNL     1      67.173  86.535  76.076  1.00  0.00     0.042 C 
ATOM     25  C   UNL     1      67.348  85.002  74.128  1.00  0.00     0.010 C 
ENDBRANCH  15  23
ENDBRANCH   3   4
BRANCH   2  26
ATOM     26  C   UNL     1      60.317  88.646  76.300  1.00  0.00     0.078 C 
BRANCH  26  27
ATOM     27  C   UNL     1      60.535  88.214  74.851  1.00  0.00     0.140 C 
ATOM     28  C   UNL     1      60.825  86.703  74.731  1.00  0.00     0.086 CG0
ATOM     29  C   UNL     1      59.291  88.374  74.004  1.00  0.00     0.190 C 
ATOM     30  C   UNL     1      59.941  86.267  73.596  1.00  0.00    -0.010 C 
ATOM     31  G   UNL     1      62.326  86.291  74.732  1.00  0.00     0.000 G0
ATOM     32  O   UNL     1      58.593  89.376  73.955  1.00  0.00    -0.291 OA
ATOM     33  C   UNL     1      59.049  87.173  73.184  1.00  0.00    -0.008 C 
ATOM     34  C   UNL     1      57.985  87.065  72.165  1.00  0.00     0.048 C 
BRANCH  27  35
ATOM     35  O   UNL     1      61.493  89.034  74.204  1.00  0.00    -0.381 OA
ATOM     36  H   UNL     1      61.021  89.721  73.704  1.00  0.00     0.212 HD
ENDBRANCH  27  35
ENDBRANCH  26  27
ENDBRANCH   2  26
ENDBRANCH   1   2
BRANCH   1  37
ATOM     37  O   UNL     1      61.712  89.188  79.402  1.00  0.00    -0.461 OA
BRANCH  37  38
ATOM     38  C   UNL     1      61.735  90.490  78.958  1.00  0.00     0.310 C 
ATOM     39  O   UNL     1      60.759  91.117  78.570  1.00  0.00    -0.252 OA
BRANCH  38  40
ATOM     40  C   UNL     1      63.147  91.021  79.025  1.00  0.00     0.158 C 
BRANCH  40  41
ATOM     41  C   UNL     1      63.968  90.660  77.815  1.00  0.00    -0.037 A 
ATOM     42  C   UNL     1      63.491  90.949  76.536  1.00  0.00     0.008 A 
ATOM     43  C   UNL     1      65.206  90.037  77.971  1.00  0.00     0.008 A 
ATOM     44  C   UNL     1      64.251  90.614  75.415  1.00  0.00     0.046 A 
ATOM     45  C   UNL     1      65.967  89.702  76.851  1.00  0.00     0.046 A 
ATOM     46  C   UNL     1      65.490  89.990  75.573  1.00  0.00     0.115 A 
BRANCH  46  47
ATOM     47  O   UNL     1      66.231  89.664  74.480  1.00  0.00    -0.508 OA
ATOM     48  H   UNL     1      65.667  89.183  73.849  1.00  0.00     0.293 HD
ENDBRANCH  46  47
ENDBRANCH  40  41
ENDBRANCH  38  40
ENDBRANCH  37  38
ENDBRANCH   1  37
TORSDOF 10
ENDMDL
MODEL 7
REMARK VINA RESULT:    -5.894     26.491     29.383
REMARK INTER + INTRA:         -12.346
REMARK INTER:                 -11.624
REMARK INTRA:                  -0.722
REMARK UNBOUND:                -2.318
REMARK SMILES C=C(C)[C@]12C[C@@H](C)[C@@]34O[C@](Cc5ccccc5)(O[C@@H]1[C@@H]3C=C(COC(=O)Cc1ccc(O)cc1)C[C@]1(O)C(=O)C(C)=C[C@@H]41)O2
REMARK SMILES IDX 23 1 22 2 21 3 20 4 9 5 8 6 10 7 6 8 18 10 44 11 19 12 5 13
REMARK SMILES IDX 7 14 4 15 11 16 12 17 13 18 17 19 14 20 16 21 15 22 2 23
REMARK SMILES IDX 3 24 1 25 35 26 36 27 43 28 38 29 42 30 39 32 40 33 41 34
REMARK SMILES IDX 37 35 24 37 25 38 26 39 27 40 28 41 29 42 34 43 30 44 33 45
REMARK SMILES IDX 31 46 32 47
REMARK H PARENT 37 36 32 48
REMARK Flexibility Score: 90.00
ROOT
ATOM      1  C   UNL     1      87.578  70.302  74.106  1.00  0.00     0.264 C 
ENDROOT
BRANCH   1   2
ATOM      2  C   UNL     1      86.504  69.440  74.727  1.00  0.00    -0.033 C 
ATOM      3  C   UNL     1      85.565  68.884  73.934  1.00  0.00    -0.015 C 
BRANCH   3   4
ATOM      4  C   UNL     1      84.351  68.051  74.314  1.00  0.00     0.078 C 
ATOM      5  O   UNL     1      85.056  65.681  74.258  1.00  0.00    -0.319 OA
ATOM      6  C   UNL     1      84.576  66.737  75.148  1.00  0.00     0.095 CG0
ATOM      7  C   UNL     1      84.391  65.602  72.983  1.00  0.00     0.289 C 
ATOM      8  C   UNL     1      83.177  66.310  75.759  1.00  0.00     0.023 C 
ATOM      9  G   UNL     1      85.726  66.926  76.180  1.00  0.00     0.000 G0
ATOM     10  O   UNL     1      84.486  66.833  72.271  1.00  0.00    -0.320 OA
ATOM     11  O   UNL     1      82.995  65.341  73.114  1.00  0.00    -0.313 OA
ATOM     12  C   UNL     1      83.576  67.638  73.038  1.00  0.00     0.170 C 
ATOM     13  C   UNL     1      82.000  66.685  74.807  1.00  0.00     0.049 C 
ATOM     14  C   UNL     1      83.055  64.831  76.163  1.00  0.00     0.011 C 
ATOM     15  C   UNL     1      82.425  66.647  73.338  1.00  0.00     0.122 C 
BRANCH   7  16
ATOM     16  C   UNL     1      85.038  64.493  72.178  1.00  0.00     0.135 C 
BRANCH  16  17
ATOM     17  C   UNL     1      84.954  64.747  70.693  1.00  0.00    -0.040 A 
ATOM     18  C   UNL     1      86.121  64.875  69.940  1.00  0.00     0.004 A 
ATOM     19  C   UNL     1      83.709  64.855  70.075  1.00  0.00     0.004 A 
ATOM     20  C   UNL     1      86.043  65.110  68.567  1.00  0.00     0.000 A 
ATOM     21  C   UNL     1      83.631  65.090  68.701  1.00  0.00     0.000 A 
ATOM     22  C   UNL     1      84.798  65.217  67.948  1.00  0.00     0.000 A 
ENDBRANCH  16  17
ENDBRANCH   7  16
BRANCH  15  23
ATOM     23  C   UNL     1      81.273  66.824  72.403  1.00  0.00    -0.046 C 
ATOM     24  C   UNL     1      81.473  67.805  71.286  1.00  0.00     0.042 C 
ATOM     25  C   UNL     1      80.127  66.145  72.553  1.00  0.00     0.010 C 
ENDBRANCH  15  23
ENDBRANCH   3   4
BRANCH   2  26
ATOM     26  C   UNL     1      86.642  69.308  76.232  1.00  0.00     0.078 C 
BRANCH  26  27
ATOM     27  C   UNL     1      85.734  68.298  76.931  1.00  0.00     0.140 C 
ATOM     28  C   UNL     1      85.702  66.939  76.201  1.00  0.00     0.086 CG0
ATOM     29  C   UNL     1      86.240  67.916  78.306  1.00  0.00     0.190 C 
ATOM     30  C   UNL     1      85.862  65.940  77.313  1.00  0.00    -0.010 C 
ATOM     31  G   UNL     1      84.561  66.747  75.160  1.00  0.00     0.000 G0
ATOM     32  O   UNL     1      86.598  68.701  79.171  1.00  0.00    -0.291 OA
ATOM     33  C   UNL     1      86.192  66.455  78.501  1.00  0.00    -0.008 C 
ATOM     34  C   UNL     1      86.505  65.779  79.777  1.00  0.00     0.048 C 
BRANCH  27  35
ATOM     35  O   UNL     1      84.449  68.843  77.182  1.00  0.00    -0.381 OA
ATOM     36  H   UNL     1      84.556  69.778  77.426  1.00  0.00     0.212 HD
ENDBRANCH  27  35
ENDBRANCH  26  27
ENDBRANCH   2  26
ENDBRANCH   1   2
BRANCH   1  37
ATOM     37  O   UNL     1      88.725  69.515  73.864  1.00  0.00    -0.461 OA
BRANCH  37  38
ATOM     38  C   UNL     1      89.035  69.283  72.544  1.00  0.00     0.310 C 
ATOM     39  O   UNL     1      89.004  68.190  71.996  1.00  0.00    -0.252 OA
BRANCH  38  40
ATOM     40  C   UNL     1      89.418  70.585  71.880  1.00  0.00     0.158 C 
BRANCH  40  41
ATOM     41  C   UNL     1      88.649  70.846  70.612  1.00  0.00    -0.037 A 
ATOM     42  C   UNL     1      87.407  70.242  70.412  1.00  0.00     0.008 A 
ATOM     43  C   UNL     1      89.177  71.692  69.637  1.00  0.00     0.008 A 
ATOM     44  C   UNL     1      86.695  70.483  69.237  1.00  0.00     0.046 A 
ATOM     45  C   UNL     1      88.464  71.934  68.462  1.00  0.00     0.046 A 
ATOM     46  C   UNL     1      87.224  71.330  68.262  1.00  0.00     0.115 A 
BRANCH  46  47
ATOM     47  O   UNL     1      86.529  71.565  67.116  1.00  0.00    -0.508 OA
ATOM     48  H   UNL     1      87.086  71.326  66.354  1.00  0.00     0.293 HD
ENDBRANCH  46  47
ENDBRANCH  40  41
ENDBRANCH  38  40
ENDBRANCH  37  38
ENDBRANCH   1  37
TORSDOF 10
ENDMDL
MODEL 8
REMARK VINA RESULT:    -5.577      2.213      4.370
REMARK INTER + INTRA:         -11.808
REMARK INTER:                  -9.772
REMARK INTRA:                  -2.037
REMARK UNBOUND:                -2.318
REMARK SMILES C=C(C)[C@]12C[C@@H](C)[C@@]34O[C@](Cc5ccccc5)(O[C@@H]1[C@@H]3C=C(COC(=O)Cc1ccc(O)cc1)C[C@]1(O)C(=O)C(C)=C[C@@H]41)O2
REMARK SMILES IDX 23 1 22 2 21 3 20 4 9 5 8 6 10 7 6 8 18 10 44 11 19 12 5 13
REMARK SMILES IDX 7 14 4 15 11 16 12 17 13 18 17 19 14 20 16 21 15 22 2 23
REMARK SMILES IDX 3 24 1 25 35 26 36 27 43 28 38 29 42 30 39 32 40 33 41 34
REMARK SMILES IDX 37 35 24 37 25 38 26 39 27 40 28 41 29 42 34 43 30 44 33 45
REMARK SMILES IDX 31 46 32 47
REMARK H PARENT 37 36 32 48
REMARK Flexibility Score: 90.00
ROOT
ATOM      1  C   UNL     1      66.447  88.022  73.364  1.00  0.00     0.264 C 
ENDROOT
BRANCH   1   2
ATOM      2  C   UNL     1      65.421  87.072  72.790  1.00  0.00    -0.033 C 
ATOM      3  C   UNL     1      65.257  85.859  73.357  1.00  0.00    -0.015 C 
BRANCH   3   4
ATOM      4  C   UNL     1      64.359  84.708  72.931  1.00  0.00     0.078 C 
ATOM      5  O   UNL     1      62.218  84.979  74.139  1.00  0.00    -0.319 OA
ATOM      6  C   UNL     1      62.813  84.972  72.804  1.00  0.00     0.095 CG0
ATOM      7  C   UNL     1      62.687  83.946  75.027  1.00  0.00     0.289 C 
ATOM      8  C   UNL     1      62.192  83.784  71.960  1.00  0.00     0.023 C 
ATOM      9  G   UNL     1      62.540  86.400  72.250  1.00  0.00     0.000 G0
ATOM     10  O   UNL     1      64.100  84.008  75.193  1.00  0.00    -0.320 OA
ATOM     11  O   UNL     1      62.414  82.638  74.529  1.00  0.00    -0.313 OA
ATOM     12  C   UNL     1      64.526  83.520  73.911  1.00  0.00     0.170 C 
ATOM     13  C   UNL     1      62.946  82.443  72.218  1.00  0.00     0.049 C 
ATOM     14  C   UNL     1      60.681  83.563  72.142  1.00  0.00     0.011 C 
ATOM     15  C   UNL     1      63.517  82.379  73.635  1.00  0.00     0.122 C 
BRANCH   7  16
ATOM     16  C   UNL     1      62.004  84.127  76.368  1.00  0.00     0.135 C 
BRANCH  16  17
ATOM     17  C   UNL     1      61.838  85.583  76.727  1.00  0.00    -0.040 A 
ATOM     18  C   UNL     1      62.888  86.280  77.322  1.00  0.00     0.004 A 
ATOM     19  C   UNL     1      60.632  86.232  76.462  1.00  0.00     0.004 A 
ATOM     20  C   UNL     1      62.734  87.626  77.653  1.00  0.00     0.000 A 
ATOM     21  C   UNL     1      60.478  87.579  76.793  1.00  0.00     0.000 A 
ATOM     22  C   UNL     1      61.529  88.275  77.388  1.00  0.00     0.000 A 
ENDBRANCH  16  17
ENDBRANCH   7  16
BRANCH  15  23
ATOM     23  C   UNL     1      64.084  81.036  73.965  1.00  0.00    -0.046 C 
ATOM     24  C   UNL     1      65.580  80.948  74.030  1.00  0.00     0.042 C 
ATOM     25  C   UNL     1      63.300  79.971  74.190  1.00  0.00     0.010 C 
ENDBRANCH  15  23
ENDBRANCH   3   4
BRANCH   2  26
ATOM     26  C   UNL     1      64.676  87.648  71.601  1.00  0.00     0.078 C 
BRANCH  26  27
ATOM     27  C   UNL     1      63.465  86.868  71.092  1.00  0.00     0.140 C 
ATOM     28  C   UNL     1      62.553  86.390  72.242  1.00  0.00     0.086 CG0
ATOM     29  C   UNL     1      62.527  87.726  70.269  1.00  0.00     0.190 C 
ATOM     30  C   UNL     1      61.173  86.743  71.764  1.00  0.00    -0.010 C 
ATOM     31  G   UNL     1      62.830  84.958  72.786  1.00  0.00     0.000 G0
ATOM     32  O   UNL     1      62.861  88.462  69.353  1.00  0.00    -0.291 OA
ATOM     33  C   UNL     1      61.124  87.516  70.675  1.00  0.00    -0.008 C 
ATOM     34  C   UNL     1      59.964  88.115  69.984  1.00  0.00     0.048 C 
BRANCH  27  35
ATOM     35  O   UNL     1      63.850  85.836  70.200  1.00  0.00    -0.381 OA
ATOM     36  H   UNL     1      64.624  86.139  69.696  1.00  0.00     0.212 HD
ENDBRANCH  27  35
ENDBRANCH  26  27
ENDBRANCH   2  26
ENDBRANCH   1   2
BRANCH   1  37
ATOM     37  O   UNL     1      65.804  89.207  73.782  1.00  0.00    -0.461 OA
BRANCH  37  38
ATOM     38  C   UNL     1      65.279  89.197  75.053  1.00  0.00     0.310 C 
ATOM     39  O   UNL     1      64.093  89.071  75.323  1.00  0.00    -0.252 OA
BRANCH  38  40
ATOM     40  C   UNL     1      66.392  89.367  76.059  1.00  0.00     0.158 C 
BRANCH  40  41
ATOM     41  C   UNL     1      66.370  88.321  77.143  1.00  0.00    -0.037 A 
ATOM     42  C   UNL     1      66.146  88.695  78.468  1.00  0.00     0.008 A 
ATOM     43  C   UNL     1      66.573  86.980  76.822  1.00  0.00     0.008 A 
ATOM     44  C   UNL     1      66.127  87.726  79.473  1.00  0.00     0.046 A 
ATOM     45  C   UNL     1      66.553  86.010  77.826  1.00  0.00     0.046 A 
ATOM     46  C   UNL     1      66.330  86.384  79.151  1.00  0.00     0.115 A 
BRANCH  46  47
ATOM     47  O   UNL     1      66.311  85.439  80.130  1.00  0.00    -0.508 OA
ATOM     48  H   UNL     1      65.769  84.688  79.834  1.00  0.00     0.293 HD
ENDBRANCH  46  47
ENDBRANCH  40  41
ENDBRANCH  38  40
ENDBRANCH  37  38
ENDBRANCH   1  37
TORSDOF 10
ENDMDL
MODEL 9
REMARK VINA RESULT:    -5.577     34.617     37.769
REMARK INTER + INTRA:         -11.808
REMARK INTER:                  -9.869
REMARK INTRA:                  -1.938
REMARK UNBOUND:                -2.318
REMARK SMILES C=C(C)[C@]12C[C@@H](C)[C@@]34O[C@](Cc5ccccc5)(O[C@@H]1[C@@H]3C=C(COC(=O)Cc1ccc(O)cc1)C[C@]1(O)C(=O)C(C)=C[C@@H]41)O2
REMARK SMILES IDX 23 1 22 2 21 3 20 4 9 5 8 6 10 7 6 8 18 10 44 11 19 12 5 13
REMARK SMILES IDX 7 14 4 15 11 16 12 17 13 18 17 19 14 20 16 21 15 22 2 23
REMARK SMILES IDX 3 24 1 25 35 26 36 27 43 28 38 29 42 30 39 32 40 33 41 34
REMARK SMILES IDX 37 35 24 37 25 38 26 39 27 40 28 41 29 42 34 43 30 44 33 45
REMARK SMILES IDX 31 46 32 47
REMARK H PARENT 37 36 32 48
REMARK Flexibility Score: 90.00
ROOT
ATOM      1  C   UNL     1     101.820  81.284  77.920  1.00  0.00     0.264 C 
ENDROOT
BRANCH   1   2
ATOM      2  C   UNL     1     101.216  80.385  78.973  1.00  0.00    -0.033 C 
ATOM      3  C   UNL     1     100.852  80.912  80.161  1.00  0.00    -0.015 C 
BRANCH   3   4
ATOM      4  C   UNL     1     100.300  80.219  81.396  1.00  0.00     0.078 C 
ATOM      5  O   UNL     1      97.834  80.298  81.226  1.00  0.00    -0.319 OA
ATOM      6  C   UNL     1      98.974  79.384  81.256  1.00  0.00     0.095 CG0
ATOM      7  C   UNL     1      97.889  81.381  82.173  1.00  0.00     0.289 C 
ATOM      8  C   UNL     1      98.861  78.448  82.530  1.00  0.00     0.023 C 
ATOM      9  G   UNL     1      98.923  78.653  79.883  1.00  0.00     0.000 G0
ATOM     10  O   UNL     1      99.065  82.165  81.996  1.00  0.00    -0.320 OA
ATOM     11  O   UNL     1      97.932  80.921  83.522  1.00  0.00    -0.313 OA
ATOM     12  C   UNL     1     100.051  81.259  82.516  1.00  0.00     0.170 C 
ATOM     13  C   UNL     1      99.470  79.126  83.795  1.00  0.00     0.049 C 
ATOM     14  C   UNL     1      97.445  77.942  82.854  1.00  0.00     0.011 C 
ATOM     15  C   UNL     1      99.331  80.648  83.743  1.00  0.00     0.122 C 
BRANCH   7  16
ATOM     16  C   UNL     1      96.660  82.248  81.975  1.00  0.00     0.135 C 
BRANCH  16  17
ATOM     17  C   UNL     1      96.144  82.804  83.278  1.00  0.00    -0.040 A 
ATOM     18  C   UNL     1      96.431  84.120  83.638  1.00  0.00     0.004 A 
ATOM     19  C   UNL     1      95.378  82.001  84.123  1.00  0.00     0.004 A 
ATOM     20  C   UNL     1      95.952  84.635  84.843  1.00  0.00     0.000 A 
ATOM     21  C   UNL     1      94.899  82.516  85.329  1.00  0.00     0.000 A 
ATOM     22  C   UNL     1      95.187  83.832  85.688  1.00  0.00     0.000 A 
ENDBRANCH  16  17
ENDBRANCH   7  16
BRANCH  15  23
ATOM     23  C   UNL     1      99.742  81.306  85.020  1.00  0.00    -0.046 C 
ATOM     24  C   UNL     1     100.598  80.487  85.941  1.00  0.00     0.042 C 
ATOM     25  C   UNL     1      99.368  82.556  85.327  1.00  0.00     0.010 C 
ENDBRANCH  15  23
ENDBRANCH   3   4
BRANCH   2  26
ATOM     26  C   UNL     1     101.089  78.942  78.523  1.00  0.00     0.078 C 
BRANCH  26  27
ATOM     27  C   UNL     1     100.268  78.004  79.406  1.00  0.00     0.140 C 
ATOM     28  C   UNL     1      98.951  78.653  79.879  1.00  0.00     0.086 CG0
ATOM     29  C   UNL     1      99.778  76.783  78.657  1.00  0.00     0.190 C 
ATOM     30  C   UNL     1      97.926  77.578  79.644  1.00  0.00    -0.010 C 
ATOM     31  G   UNL     1      98.998  79.373  81.259  1.00  0.00     0.000 G0
ATOM     32  O   UNL     1     100.466  76.062  77.951  1.00  0.00    -0.291 OA
ATOM     33  C   UNL     1      98.352  76.528  78.935  1.00  0.00    -0.008 C 
ATOM     34  C   UNL     1      97.612  75.344  78.451  1.00  0.00     0.048 C 
BRANCH  27  35
ATOM     35  O   UNL     1     101.051  77.464  80.457  1.00  0.00    -0.381 OA
ATOM     36  H   UNL     1     101.528  76.689  80.117  1.00  0.00     0.212 HD
ENDBRANCH  27  35
ENDBRANCH  26  27
ENDBRANCH   2  26
ENDBRANCH   1   2
BRANCH   1  37
ATOM     37  O   UNL     1     101.643  80.698  76.648  1.00  0.00    -0.461 OA
BRANCH  37  38
ATOM     38  C   UNL     1     101.153  81.523  75.662  1.00  0.00     0.310 C 
ATOM     39  O   UNL     1     101.747  82.483  75.190  1.00  0.00    -0.252 OA
BRANCH  38  40
ATOM     40  C   UNL     1      99.774  81.060  75.256  1.00  0.00     0.158 C 
BRANCH  40  41
ATOM     41  C   UNL     1      98.705  81.467  76.237  1.00  0.00    -0.037 A 
ATOM     42  C   UNL     1      98.018  80.494  76.962  1.00  0.00     0.008 A 
ATOM     43  C   UNL     1      98.402  82.815  76.420  1.00  0.00     0.008 A 
ATOM     44  C   UNL     1      97.027  80.870  77.870  1.00  0.00     0.046 A 
ATOM     45  C   UNL     1      97.412  83.192  77.328  1.00  0.00     0.046 A 
ATOM     46  C   UNL     1      96.725  82.220  78.052  1.00  0.00     0.115 A 
BRANCH  46  47
ATOM     47  O   UNL     1      95.758  82.586  78.937  1.00  0.00    -0.508 OA
ATOM     48  H   UNL     1      96.130  83.235  79.560  1.00  0.00     0.293 HD
ENDBRANCH  46  47
ENDBRANCH  40  41
ENDBRANCH  38  40
ENDBRANCH  37  38
ENDBRANCH   1  37
TORSDOF 10
ENDMDL
MODEL 10
REMARK VINA RESULT:    -5.563     27.099     30.173
REMARK INTER + INTRA:         -11.784
REMARK INTER:                 -10.793
REMARK INTRA:                  -0.991
REMARK UNBOUND:                -2.318
REMARK SMILES C=C(C)[C@]12C[C@@H](C)[C@@]34O[C@](Cc5ccccc5)(O[C@@H]1[C@@H]3C=C(COC(=O)Cc1ccc(O)cc1)C[C@]1(O)C(=O)C(C)=C[C@@H]41)O2
REMARK SMILES IDX 23 1 22 2 21 3 20 4 9 5 8 6 10 7 6 8 18 10 44 11 19 12 5 13
REMARK SMILES IDX 7 14 4 15 11 16 12 17 13 18 17 19 14 20 16 21 15 22 2 23
REMARK SMILES IDX 3 24 1 25 35 26 36 27 43 28 38 29 42 30 39 32 40 33 41 34
REMARK SMILES IDX 37 35 24 37 25 38 26 39 27 40 28 41 29 42 34 43 30 44 33 45
REMARK SMILES IDX 31 46 32 47
REMARK H PARENT 37 36 32 48
REMARK Flexibility Score: 90.00
ROOT
ATOM      1  C   UNL     1      84.651  70.269  71.880  1.00  0.00     0.264 C 
ENDROOT
BRANCH   1   2
ATOM      2  C   UNL     1      85.994  70.073  71.217  1.00  0.00    -0.033 C 
ATOM      3  C   UNL     1      86.085  70.159  69.874  1.00  0.00    -0.015 C 
BRANCH   3   4
ATOM      4  C   UNL     1      87.286  69.931  68.971  1.00  0.00     0.078 C 
ATOM      5  O   UNL     1      88.371  72.129  68.644  1.00  0.00    -0.319 OA
ATOM      6  C   UNL     1      88.577  70.797  69.209  1.00  0.00     0.095 CG0
ATOM      7  C   UNL     1      87.731  72.158  67.354  1.00  0.00     0.289 C 
ATOM      8  C   UNL     1      89.777  70.088  68.455  1.00  0.00     0.023 C 
ATOM      9  G   UNL     1      88.801  71.050  70.729  1.00  0.00     0.000 G0
ATOM     10  O   UNL     1      86.462  71.512  67.391  1.00  0.00    -0.320 OA
ATOM     11  O   UNL     1      88.485  71.469  66.359  1.00  0.00    -0.313 OA
ATOM     12  C   UNL     1      86.880  70.141  67.491  1.00  0.00     0.170 C 
ATOM     13  C   UNL     1      89.293  69.377  67.154  1.00  0.00     0.049 C 
ATOM     14  C   UNL     1      90.977  70.992  68.125  1.00  0.00     0.011 C 
ATOM     15  C   UNL     1      88.093  70.091  66.531  1.00  0.00     0.122 C 
BRANCH   7  16
ATOM     16  C   UNL     1      87.557  73.606  66.942  1.00  0.00     0.135 C 
BRANCH  16  17
ATOM     17  C   UNL     1      88.826  74.188  66.370  1.00  0.00    -0.040 A 
ATOM     18  C   UNL     1      89.935  74.386  67.190  1.00  0.00     0.004 A 
ATOM     19  C   UNL     1      88.887  74.528  65.018  1.00  0.00     0.004 A 
ATOM     20  C   UNL     1      91.109  74.923  66.660  1.00  0.00     0.000 A 
ATOM     21  C   UNL     1      90.061  75.066  64.488  1.00  0.00     0.000 A 
ATOM     22  C   UNL     1      91.171  75.263  65.309  1.00  0.00     0.000 A 
ENDBRANCH  16  17
ENDBRANCH   7  16
BRANCH  15  23
ATOM     23  C   UNL     1      87.727  69.536  65.192  1.00  0.00    -0.046 C 
ATOM     24  C   UNL     1      88.544  70.018  64.030  1.00  0.00     0.042 C 
ATOM     25  C   UNL     1      86.725  68.658  65.038  1.00  0.00     0.010 C 
ENDBRANCH  15  23
ENDBRANCH   3   4
BRANCH   2  26
ATOM     26  C   UNL     1      87.112  69.800  72.205  1.00  0.00     0.078 C 
BRANCH  26  27
ATOM     27  C   UNL     1      88.541  69.820  71.666  1.00  0.00     0.140 C 
ATOM     28  C   UNL     1      88.799  71.027  70.740  1.00  0.00     0.086 CG0
ATOM     29  C   UNL     1      89.571  70.022  72.757  1.00  0.00     0.190 C 
ATOM     30  C   UNL     1      90.121  71.560  71.219  1.00  0.00    -0.010 C 
ATOM     31  G   UNL     1      88.580  70.784  69.218  1.00  0.00     0.000 G0
ATOM     32  O   UNL     1      89.618  69.402  73.809  1.00  0.00    -0.291 OA
ATOM     33  C   UNL     1      90.568  71.035  72.365  1.00  0.00    -0.008 C 
ATOM     34  C   UNL     1      91.766  71.371  73.160  1.00  0.00     0.048 C 
BRANCH  27  35
ATOM     35  O   UNL     1      88.896  68.573  71.092  1.00  0.00    -0.381 OA
ATOM     36  H   UNL     1      88.307  67.890  71.455  1.00  0.00     0.212 HD
ENDBRANCH  27  35
ENDBRANCH  26  27
ENDBRANCH   2  26
ENDBRANCH   1   2
BRANCH   1  37
ATOM     37  O   UNL     1      83.756  69.277  71.424  1.00  0.00    -0.461 OA
BRANCH  37  38
ATOM     38  C   UNL     1      83.597  68.181  72.239  1.00  0.00     0.310 C 
ATOM     39  O   UNL     1      84.146  68.024  73.320  1.00  0.00    -0.252 OA
BRANCH  38  40
ATOM     40  C   UNL     1      82.641  67.207  71.592  1.00  0.00     0.158 C 
BRANCH  40  41
ATOM     41  C   UNL     1      83.268  66.431  70.463  1.00  0.00    -0.037 A 
ATOM     42  C   UNL     1      82.538  65.438  69.810  1.00  0.00     0.008 A 
ATOM     43  C   UNL     1      84.578  66.705  70.070  1.00  0.00     0.008 A 
ATOM     44  C   UNL     1      83.119  64.718  68.764  1.00  0.00     0.046 A 
ATOM     45  C   UNL     1      85.158  65.987  69.025  1.00  0.00     0.046 A 
ATOM     46  C   UNL     1      84.429  64.993  68.372  1.00  0.00     0.115 A 
BRANCH  46  47
ATOM     47  O   UNL     1      84.995  64.292  67.353  1.00  0.00    -0.508 OA
ATOM     48  H   UNL     1      84.292  63.849  66.846  1.00  0.00     0.293 HD
ENDBRANCH  46  47
ENDBRANCH  40  41
ENDBRANCH  38  40
ENDBRANCH  37  38
ENDBRANCH   1  37
TORSDOF 10
ENDMDL
