MODEL 1
REMARK VINA RESULT:    -6.447      0.000      0.000
REMARK INTER + INTRA:         -11.632
REMARK INTER:                 -10.781
REMARK INTRA:                  -0.851
REMARK UNBOUND:                -0.851
REMARK SMILES COc1cc(CNC(=O)CCCCCCCC(C)C)ccc1O
REMARK SMILES IDX 11 1 10 2 8 3 9 4 7 5 6 7 5 8 4 9 20 10 3 11 21 12 22 13
REMARK SMILES IDX 2 14 1 15 23 16 12 18 13 19 14 20 15 21 16 22 17 23 18 24
REMARK SMILES IDX 19 25
REMARK H PARENT 7 6 23 17
REMARK Flexibility Score: inf
ROOT
ATOM      1  C   UNL     1      94.424  98.451  74.655  1.00  0.00     0.010 C 
ENDROOT
BRANCH   1   2
ATOM      2  C   UNL     1      93.100  99.149  74.959  1.00  0.00     0.100 C 
BRANCH   2   3
ATOM      3  C   UNL     1      92.724 100.166  73.895  1.00  0.00     0.220 C 
ATOM      4  O   UNL     1      93.181 101.305  73.860  1.00  0.00    -0.275 OA
ATOM      5  N   UNL     1      91.807  99.645  72.994  1.00  0.00    -0.352 N 
ATOM      6  H   UNL     1      91.476  98.691  73.109  1.00  0.00     0.163 HD
BRANCH   5   7
ATOM      7  C   UNL     1      91.277 100.407  71.887  1.00  0.00     0.151 C 
BRANCH   7   8
ATOM      8  C   UNL     1      90.381  99.579  71.013  1.00  0.00    -0.025 A 
ATOM      9  C   UNL     1      89.652 100.190  69.999  1.00  0.00     0.056 A 
ATOM     10  C   UNL     1      90.288  98.209  71.227  1.00  0.00     0.009 A 
ATOM     11  C   UNL     1      88.819  99.420  69.188  1.00  0.00     0.160 A 
ATOM     12  C   UNL     1      89.454  97.439  70.415  1.00  0.00     0.050 A 
ATOM     13  C   UNL     1      88.719  98.044  69.396  1.00  0.00     0.157 A 
BRANCH  11  14
ATOM     14  O   UNL     1      88.106 100.023  68.196  1.00  0.00    -0.493 OA
ATOM     15  C   UNL     1      88.540 101.317  67.781  1.00  0.00     0.278 C 
ENDBRANCH  11  14
BRANCH  13  16
ATOM     16  O   UNL     1      87.910  97.282  68.610  1.00  0.00    -0.504 OA
ATOM     17  H   UNL     1      88.229  97.324  67.692  1.00  0.00     0.293 HD
ENDBRANCH  13  16
ENDBRANCH   7   8
ENDBRANCH   5   7
ENDBRANCH   2   3
ENDBRANCH   1   2
BRANCH   1  18
ATOM     18  C   UNL     1      94.577  97.098  75.356  1.00  0.00     0.001 C 
BRANCH  18  19
ATOM     19  C   UNL     1      94.448  97.123  76.882  1.00  0.00     0.000 C 
BRANCH  19  20
ATOM     20  C   UNL     1      93.499  96.052  77.427  1.00  0.00     0.000 C 
BRANCH  20  21
ATOM     21  C   UNL     1      92.150  96.007  76.702  1.00  0.00     0.000 C 
BRANCH  21  22
ATOM     22  C   UNL     1      90.992  95.561  77.601  1.00  0.00     0.003 C 
BRANCH  22  23
ATOM     23  C   UNL     1      90.262  94.305  77.086  1.00  0.00    -0.017 C 
ATOM     24  C   UNL     1      89.485  93.653  78.231  1.00  0.00     0.007 C 
ATOM     25  C   UNL     1      91.218  93.285  76.466  1.00  0.00     0.007 C 
ENDBRANCH  22  23
ENDBRANCH  21  22
ENDBRANCH  20  21
ENDBRANCH  19  20
ENDBRANCH  18  19
ENDBRANCH   1  18
TORSDOF 12
ENDMDL
MODEL 2
REMARK VINA RESULT:    -6.076      1.110      2.151
REMARK INTER + INTRA:         -11.011
REMARK INTER:                 -10.110
REMARK INTRA:                  -0.901
REMARK UNBOUND:                -0.851
REMARK SMILES COc1cc(CNC(=O)CCCCCCCC(C)C)ccc1O
REMARK SMILES IDX 11 1 10 2 8 3 9 4 7 5 6 7 5 8 4 9 20 10 3 11 21 12 22 13
REMARK SMILES IDX 2 14 1 15 23 16 12 18 13 19 14 20 15 21 16 22 17 23 18 24
REMARK SMILES IDX 19 25
REMARK H PARENT 7 6 23 17
REMARK Flexibility Score: inf
ROOT
ATOM      1  C   UNL     1      94.371  97.609  75.028  1.00  0.00     0.010 C 
ENDROOT
BRANCH   1   2
ATOM      2  C   UNL     1      93.033  98.288  75.312  1.00  0.00     0.100 C 
BRANCH   2   3
ATOM      3  C   UNL     1      92.926  99.654  74.656  1.00  0.00     0.220 C 
ATOM      4  O   UNL     1      93.356 100.684  75.169  1.00  0.00    -0.275 OA
ATOM      5  N   UNL     1      92.284  99.581  73.429  1.00  0.00    -0.352 N 
ATOM      6  H   UNL     1      91.952  98.683  73.089  1.00  0.00     0.163 HD
BRANCH   5   7
ATOM      7  C   UNL     1      92.045 100.740  72.600  1.00  0.00     0.151 C 
BRANCH   7   8
ATOM      8  C   UNL     1      91.062 100.452  71.502  1.00  0.00    -0.025 A 
ATOM      9  C   UNL     1      90.459  99.202  71.430  1.00  0.00     0.056 A 
ATOM     10  C   UNL     1      90.765 101.439  70.570  1.00  0.00     0.009 A 
ATOM     11  C   UNL     1      89.546  98.934  70.410  1.00  0.00     0.160 A 
ATOM     12  C   UNL     1      89.852 101.170  69.549  1.00  0.00     0.050 A 
ATOM     13  C   UNL     1      89.242  99.919  69.469  1.00  0.00     0.157 A 
BRANCH  11  14
ATOM     14  O   UNL     1      88.958  97.707  70.341  1.00  0.00    -0.493 OA
ATOM     15  C   UNL     1      89.711  96.661  69.730  1.00  0.00     0.278 C 
ENDBRANCH  11  14
BRANCH  13  16
ATOM     16  O   UNL     1      88.352  99.670  68.469  1.00  0.00    -0.504 OA
ATOM     17  H   UNL     1      88.784  99.832  67.613  1.00  0.00     0.293 HD
ENDBRANCH  13  16
ENDBRANCH   7   8
ENDBRANCH   5   7
ENDBRANCH   2   3
ENDBRANCH   1   2
BRANCH   1  18
ATOM     18  C   UNL     1      94.545  96.274  75.757  1.00  0.00     0.001 C 
BRANCH  18  19
ATOM     19  C   UNL     1      94.694  96.363  77.280  1.00  0.00     0.000 C 
BRANCH  19  20
ATOM     20  C   UNL     1      93.587  95.628  78.040  1.00  0.00     0.000 C 
BRANCH  20  21
ATOM     21  C   UNL     1      92.644  94.835  77.128  1.00  0.00     0.000 C 
BRANCH  21  22
ATOM     22  C   UNL     1      91.796  93.804  77.882  1.00  0.00     0.003 C 
BRANCH  22  23
ATOM     23  C   UNL     1      90.297  93.868  77.532  1.00  0.00    -0.017 C 
ATOM     24  C   UNL     1      89.859  95.329  77.395  1.00  0.00     0.007 C 
ATOM     25  C   UNL     1      89.422  93.165  78.570  1.00  0.00     0.007 C 
ENDBRANCH  22  23
ENDBRANCH  21  22
ENDBRANCH  20  21
ENDBRANCH  19  20
ENDBRANCH  18  19
ENDBRANCH   1  18
TORSDOF 12
ENDMDL
MODEL 3
REMARK VINA RESULT:    -5.814     21.388     24.159
REMARK INTER + INTRA:         -10.574
REMARK INTER:                  -9.099
REMARK INTRA:                  -1.475
REMARK UNBOUND:                -0.851
REMARK SMILES COc1cc(CNC(=O)CCCCCCCC(C)C)ccc1O
REMARK SMILES IDX 11 1 10 2 8 3 9 4 7 5 6 7 5 8 4 9 20 10 3 11 21 12 22 13
REMARK SMILES IDX 2 14 1 15 23 16 12 18 13 19 14 20 15 21 16 22 17 23 18 24
REMARK SMILES IDX 19 25
REMARK H PARENT 7 6 23 17
REMARK Flexibility Score: inf
ROOT
ATOM      1  C   UNL     1      75.562  82.052  63.973  1.00  0.00     0.010 C 
ENDROOT
BRANCH   1   2
ATOM      2  C   UNL     1      74.845  80.792  63.494  1.00  0.00     0.100 C 
BRANCH   2   3
ATOM      3  C   UNL     1      73.437  80.679  64.055  1.00  0.00     0.220 C 
ATOM      4  O   UNL     1      72.630  79.830  63.685  1.00  0.00    -0.275 OA
ATOM      5  N   UNL     1      73.191  81.649  65.015  1.00  0.00    -0.352 N 
ATOM      6  H   UNL     1      73.919  82.319  65.249  1.00  0.00     0.163 HD
BRANCH   5   7
ATOM      7  C   UNL     1      71.925  81.770  65.701  1.00  0.00     0.151 C 
BRANCH   7   8
ATOM      8  C   UNL     1      71.942  82.871  66.720  1.00  0.00    -0.025 A 
ATOM      9  C   UNL     1      70.834  83.070  67.536  1.00  0.00     0.056 A 
ATOM     10  C   UNL     1      73.065  83.680  66.839  1.00  0.00     0.009 A 
ATOM     11  C   UNL     1      70.850  84.094  68.483  1.00  0.00     0.160 A 
ATOM     12  C   UNL     1      73.080  84.705  67.786  1.00  0.00     0.050 A 
ATOM     13  C   UNL     1      71.973  84.912  68.608  1.00  0.00     0.157 A 
BRANCH  11  14
ATOM     14  O   UNL     1      69.762  84.287  69.280  1.00  0.00    -0.493 OA
ATOM     15  C   UNL     1      69.162  83.124  69.849  1.00  0.00     0.278 C 
ENDBRANCH  11  14
BRANCH  13  16
ATOM     16  O   UNL     1      72.001  85.914  69.530  1.00  0.00    -0.504 OA
ATOM     17  H   UNL     1      72.571  86.631  69.201  1.00  0.00     0.293 HD
ENDBRANCH  13  16
ENDBRANCH   7   8
ENDBRANCH   5   7
ENDBRANCH   2   3
ENDBRANCH   1   2
BRANCH   1  18
ATOM     18  C   UNL     1      76.683  81.773  64.977  1.00  0.00     0.001 C 
BRANCH  18  19
ATOM     19  C   UNL     1      76.636  82.593  66.271  1.00  0.00     0.000 C 
BRANCH  19  20
ATOM     20  C   UNL     1      77.881  83.457  66.485  1.00  0.00     0.000 C 
BRANCH  20  21
ATOM     21  C   UNL     1      77.863  84.236  67.805  1.00  0.00     0.000 C 
BRANCH  21  22
ATOM     22  C   UNL     1      76.685  83.866  68.711  1.00  0.00     0.003 C 
BRANCH  22  23
ATOM     23  C   UNL     1      76.438  84.883  69.844  1.00  0.00    -0.017 C 
ATOM     24  C   UNL     1      77.654  85.801  69.989  1.00  0.00     0.007 C 
ATOM     25  C   UNL     1      76.141  84.207  71.183  1.00  0.00     0.007 C 
ENDBRANCH  22  23
ENDBRANCH  21  22
ENDBRANCH  20  21
ENDBRANCH  19  20
ENDBRANCH  18  19
ENDBRANCH   1  18
TORSDOF 12
ENDMDL
MODEL 4
REMARK VINA RESULT:    -5.811     19.610     22.223
REMARK INTER + INTRA:         -10.569
REMARK INTER:                  -9.030
REMARK INTRA:                  -1.539
REMARK UNBOUND:                -0.851
REMARK SMILES COc1cc(CNC(=O)CCCCCCCC(C)C)ccc1O
REMARK SMILES IDX 11 1 10 2 8 3 9 4 7 5 6 7 5 8 4 9 20 10 3 11 21 12 22 13
REMARK SMILES IDX 2 14 1 15 23 16 12 18 13 19 14 20 15 21 16 22 17 23 18 24
REMARK SMILES IDX 19 25
REMARK H PARENT 7 6 23 17
REMARK Flexibility Score: inf
ROOT
ATOM      1  C   UNL     1      76.911  86.767  66.861  1.00  0.00     0.010 C 
ENDROOT
BRANCH   1   2
ATOM      2  C   UNL     1      77.338  87.068  65.426  1.00  0.00     0.100 C 
BRANCH   2   3
ATOM      3  C   UNL     1      76.622  86.190  64.413  1.00  0.00     0.220 C 
ATOM      4  O   UNL     1      75.619  86.548  63.801  1.00  0.00    -0.275 OA
ATOM      5  N   UNL     1      77.238  84.954  64.284  1.00  0.00    -0.352 N 
ATOM      6  H   UNL     1      78.060  84.742  64.843  1.00  0.00     0.163 HD
BRANCH   5   7
ATOM      7  C   UNL     1      76.752  83.927  63.392  1.00  0.00     0.151 C 
BRANCH   7   8
ATOM      8  C   UNL     1      75.717  83.058  64.046  1.00  0.00    -0.025 A 
ATOM      9  C   UNL     1      74.371  83.266  63.769  1.00  0.00     0.056 A 
ATOM     10  C   UNL     1      76.115  82.056  64.922  1.00  0.00     0.009 A 
ATOM     11  C   UNL     1      73.409  82.459  64.377  1.00  0.00     0.160 A 
ATOM     12  C   UNL     1      75.153  81.249  65.530  1.00  0.00     0.050 A 
ATOM     13  C   UNL     1      73.800  81.451  65.258  1.00  0.00     0.157 A 
BRANCH  11  14
ATOM     14  O   UNL     1      72.091  82.666  64.103  1.00  0.00    -0.493 OA
ATOM     15  C   UNL     1      71.562  82.026  62.942  1.00  0.00     0.278 C 
ENDBRANCH  11  14
BRANCH  13  16
ATOM     16  O   UNL     1      72.870  80.656  65.858  1.00  0.00    -0.504 OA
ATOM     17  H   UNL     1      72.449  80.097  65.182  1.00  0.00     0.293 HD
ENDBRANCH  13  16
ENDBRANCH   7   8
ENDBRANCH   5   7
ENDBRANCH   2   3
ENDBRANCH   1   2
BRANCH   1  18
ATOM     18  C   UNL     1      78.018  86.134  67.708  1.00  0.00     0.001 C 
BRANCH  18  19
ATOM     19  C   UNL     1      77.931  84.614  67.885  1.00  0.00     0.000 C 
BRANCH  19  20
ATOM     20  C   UNL     1      77.007  84.190  69.029  1.00  0.00     0.000 C 
BRANCH  20  21
ATOM     21  C   UNL     1      76.800  85.283  70.083  1.00  0.00     0.000 C 
BRANCH  21  22
ATOM     22  C   UNL     1      75.326  85.525  70.425  1.00  0.00     0.003 C 
BRANCH  22  23
ATOM     23  C   UNL     1      74.982  87.011  70.644  1.00  0.00    -0.017 C 
ATOM     24  C   UNL     1      73.729  87.376  69.843  1.00  0.00     0.007 C 
ATOM     25  C   UNL     1      76.130  87.942  70.253  1.00  0.00     0.007 C 
ENDBRANCH  22  23
ENDBRANCH  21  22
ENDBRANCH  20  21
ENDBRANCH  19  20
ENDBRANCH  18  19
ENDBRANCH   1  18
TORSDOF 12
ENDMDL
MODEL 5
REMARK VINA RESULT:    -5.780     20.820     23.597
REMARK INTER + INTRA:         -10.516
REMARK INTER:                  -8.942
REMARK INTRA:                  -1.574
REMARK UNBOUND:                -0.851
REMARK SMILES COc1cc(CNC(=O)CCCCCCCC(C)C)ccc1O
REMARK SMILES IDX 11 1 10 2 8 3 9 4 7 5 6 7 5 8 4 9 20 10 3 11 21 12 22 13
REMARK SMILES IDX 2 14 1 15 23 16 12 18 13 19 14 20 15 21 16 22 17 23 18 24
REMARK SMILES IDX 19 25
REMARK H PARENT 7 6 23 17
REMARK Flexibility Score: inf
ROOT
ATOM      1  C   UNL     1      75.353  81.900  64.074  1.00  0.00     0.010 C 
ENDROOT
BRANCH   1   2
ATOM      2  C   UNL     1      74.515  80.642  63.853  1.00  0.00     0.100 C 
BRANCH   2   3
ATOM      3  C   UNL     1      73.123  80.762  64.453  1.00  0.00     0.220 C 
ATOM      4  O   UNL     1      72.311  79.841  64.458  1.00  0.00    -0.275 OA
ATOM      5  N   UNL     1      72.900  82.027  64.975  1.00  0.00    -0.352 N 
ATOM      6  H   UNL     1      73.631  82.731  64.915  1.00  0.00     0.163 HD
BRANCH   5   7
ATOM      7  C   UNL     1      71.653  82.409  65.597  1.00  0.00     0.151 C 
BRANCH   7   8
ATOM      8  C   UNL     1      71.864  83.363  66.736  1.00  0.00    -0.025 A 
ATOM      9  C   UNL     1      73.042  84.096  66.810  1.00  0.00     0.056 A 
ATOM     10  C   UNL     1      70.878  83.504  67.705  1.00  0.00     0.009 A 
ATOM     11  C   UNL     1      73.237  84.983  67.869  1.00  0.00     0.160 A 
ATOM     12  C   UNL     1      71.074  84.390  68.765  1.00  0.00     0.050 A 
ATOM     13  C   UNL     1      72.253  85.130  68.847  1.00  0.00     0.157 A 
BRANCH  11  14
ATOM     14  O   UNL     1      74.394  85.700  67.939  1.00  0.00    -0.493 OA
ATOM     15  C   UNL     1      74.827  86.349  66.744  1.00  0.00     0.278 C 
ENDBRANCH  11  14
BRANCH  13  16
ATOM     16  O   UNL     1      72.432  85.993  69.886  1.00  0.00    -0.504 OA
ATOM     17  H   UNL     1      72.304  86.903  69.567  1.00  0.00     0.293 HD
ENDBRANCH  13  16
ENDBRANCH   7   8
ENDBRANCH   5   7
ENDBRANCH   2   3
ENDBRANCH   1   2
BRANCH   1  18
ATOM     18  C   UNL     1      76.473  81.715  65.100  1.00  0.00     0.001 C 
BRANCH  18  19
ATOM     19  C   UNL     1      76.494  82.726  66.251  1.00  0.00     0.000 C 
BRANCH  19  20
ATOM     20  C   UNL     1      77.848  83.421  66.421  1.00  0.00     0.000 C 
BRANCH  20  21
ATOM     21  C   UNL     1      77.906  84.353  67.637  1.00  0.00     0.000 C 
BRANCH  21  22
ATOM     22  C   UNL     1      77.046  83.874  68.811  1.00  0.00     0.003 C 
BRANCH  22  23
ATOM     23  C   UNL     1      77.211  84.729  70.082  1.00  0.00    -0.017 C 
ATOM     24  C   UNL     1      75.947  84.630  70.940  1.00  0.00     0.007 C 
ATOM     25  C   UNL     1      77.505  86.196  69.768  1.00  0.00     0.007 C 
ENDBRANCH  22  23
ENDBRANCH  21  22
ENDBRANCH  20  21
ENDBRANCH  19  20
ENDBRANCH  18  19
ENDBRANCH   1  18
TORSDOF 12
ENDMDL
MODEL 6
REMARK VINA RESULT:    -5.755     21.022     23.666
REMARK INTER + INTRA:         -10.475
REMARK INTER:                  -9.584
REMARK INTRA:                  -0.891
REMARK UNBOUND:                -0.851
REMARK SMILES COc1cc(CNC(=O)CCCCCCCC(C)C)ccc1O
REMARK SMILES IDX 11 1 10 2 8 3 9 4 7 5 6 7 5 8 4 9 20 10 3 11 21 12 22 13
REMARK SMILES IDX 2 14 1 15 23 16 12 18 13 19 14 20 15 21 16 22 17 23 18 24
REMARK SMILES IDX 19 25
REMARK H PARENT 7 6 23 17
REMARK Flexibility Score: inf
ROOT
ATOM      1  C   UNL     1      77.563  83.506  65.236  1.00  0.00     0.010 C 
ENDROOT
BRANCH   1   2
ATOM      2  C   UNL     1      76.910  82.164  65.560  1.00  0.00     0.100 C 
BRANCH   2   3
ATOM      3  C   UNL     1      75.868  81.762  64.529  1.00  0.00     0.220 C 
ATOM      4  O   UNL     1      75.943  82.067  63.342  1.00  0.00    -0.275 OA
ATOM      5  N   UNL     1      74.840  81.029  65.102  1.00  0.00    -0.352 N 
ATOM      6  H   UNL     1      74.858  80.835  66.100  1.00  0.00     0.163 HD
BRANCH   5   7
ATOM      7  C   UNL     1      73.716  80.531  64.344  1.00  0.00     0.151 C 
BRANCH   7   8
ATOM      8  C   UNL     1      72.475  81.342  64.580  1.00  0.00    -0.025 A 
ATOM      9  C   UNL     1      72.163  81.761  65.868  1.00  0.00     0.056 A 
ATOM     10  C   UNL     1      71.652  81.665  63.509  1.00  0.00     0.009 A 
ATOM     11  C   UNL     1      71.010  82.514  66.087  1.00  0.00     0.160 A 
ATOM     12  C   UNL     1      70.498  82.419  63.729  1.00  0.00     0.050 A 
ATOM     13  C   UNL     1      70.177  82.843  65.018  1.00  0.00     0.157 A 
BRANCH  11  14
ATOM     14  O   UNL     1      70.706  82.923  67.351  1.00  0.00    -0.493 OA
ATOM     15  C   UNL     1      71.400  84.067  67.847  1.00  0.00     0.278 C 
ENDBRANCH  11  14
BRANCH  13  16
ATOM     16  O   UNL     1      69.048  83.579  65.220  1.00  0.00    -0.504 OA
ATOM     17  H   UNL     1      68.592  83.699  64.369  1.00  0.00     0.293 HD
ENDBRANCH  13  16
ENDBRANCH   7   8
ENDBRANCH   5   7
ENDBRANCH   2   3
ENDBRANCH   1   2
BRANCH   1  18
ATOM     18  C   UNL     1      77.563  84.485  66.413  1.00  0.00     0.001 C 
BRANCH  18  19
ATOM     19  C   UNL     1      78.284  84.004  67.676  1.00  0.00     0.000 C 
BRANCH  19  20
ATOM     20  C   UNL     1      78.099  84.942  68.872  1.00  0.00     0.000 C 
BRANCH  20  21
ATOM     21  C   UNL     1      77.774  86.385  68.471  1.00  0.00     0.000 C 
BRANCH  21  22
ATOM     22  C   UNL     1      77.399  87.275  69.661  1.00  0.00     0.003 C 
BRANCH  22  23
ATOM     23  C   UNL     1      75.891  87.588  69.742  1.00  0.00    -0.017 C 
ATOM     24  C   UNL     1      75.679  88.935  70.437  1.00  0.00     0.007 C 
ATOM     25  C   UNL     1      75.106  86.501  70.477  1.00  0.00     0.007 C 
ENDBRANCH  22  23
ENDBRANCH  21  22
ENDBRANCH  20  21
ENDBRANCH  19  20
ENDBRANCH  18  19
ENDBRANCH   1  18
TORSDOF 12
ENDMDL
MODEL 7
REMARK VINA RESULT:    -5.695     16.300     19.114
REMARK INTER + INTRA:         -10.374
REMARK INTER:                  -9.331
REMARK INTRA:                  -1.043
REMARK UNBOUND:                -0.851
REMARK SMILES COc1cc(CNC(=O)CCCCCCCC(C)C)ccc1O
REMARK SMILES IDX 11 1 10 2 8 3 9 4 7 5 6 7 5 8 4 9 20 10 3 11 21 12 22 13
REMARK SMILES IDX 2 14 1 15 23 16 12 18 13 19 14 20 15 21 16 22 17 23 18 24
REMARK SMILES IDX 19 25
REMARK H PARENT 7 6 23 17
REMARK Flexibility Score: inf
ROOT
ATOM      1  C   UNL     1      74.451  88.918  69.498  1.00  0.00     0.010 C 
ENDROOT
BRANCH   1   2
ATOM      2  C   UNL     1      74.834  87.964  70.628  1.00  0.00     0.100 C 
BRANCH   2   3
ATOM      3  C   UNL     1      75.785  86.872  70.166  1.00  0.00     0.220 C 
ATOM      4  O   UNL     1      75.557  85.674  70.310  1.00  0.00    -0.275 OA
ATOM      5  N   UNL     1      76.924  87.404  69.580  1.00  0.00    -0.352 N 
ATOM      6  H   UNL     1      77.031  88.412  69.515  1.00  0.00     0.163 HD
BRANCH   5   7
ATOM      7  C   UNL     1      77.995  86.583  69.063  1.00  0.00     0.151 C 
BRANCH   7   8
ATOM      8  C   UNL     1      77.713  86.107  67.667  1.00  0.00    -0.025 A 
ATOM      9  C   UNL     1      77.920  84.772  67.341  1.00  0.00     0.056 A 
ATOM     10  C   UNL     1      77.249  87.007  66.716  1.00  0.00     0.009 A 
ATOM     11  C   UNL     1      77.658  84.331  66.044  1.00  0.00     0.160 A 
ATOM     12  C   UNL     1      76.987  86.565  65.418  1.00  0.00     0.050 A 
ATOM     13  C   UNL     1      77.192  85.227  65.082  1.00  0.00     0.157 A 
BRANCH  11  14
ATOM     14  O   UNL     1      77.863  83.021  65.727  1.00  0.00    -0.493 OA
ATOM     15  C   UNL     1      76.731  82.155  65.789  1.00  0.00     0.278 C 
ENDBRANCH  11  14
BRANCH  13  16
ATOM     16  O   UNL     1      76.933  84.808  63.812  1.00  0.00    -0.504 OA
ATOM     17  H   UNL     1      76.800  85.586  63.243  1.00  0.00     0.293 HD
ENDBRANCH  13  16
ENDBRANCH   7   8
ENDBRANCH   5   7
ENDBRANCH   2   3
ENDBRANCH   1   2
BRANCH   1  18
ATOM     18  C   UNL     1      74.835  90.374  69.773  1.00  0.00     0.001 C 
BRANCH  18  19
ATOM     19  C   UNL     1      75.398  90.660  71.169  1.00  0.00     0.000 C 
BRANCH  19  20
ATOM     20  C   UNL     1      74.539  91.634  71.980  1.00  0.00     0.000 C 
BRANCH  20  21
ATOM     21  C   UNL     1      75.350  92.747  72.653  1.00  0.00     0.000 C 
BRANCH  21  22
ATOM     22  C   UNL     1      76.574  93.182  71.841  1.00  0.00     0.003 C 
BRANCH  22  23
ATOM     23  C   UNL     1      77.865  93.276  72.677  1.00  0.00    -0.017 C 
ATOM     24  C   UNL     1      78.618  94.561  72.324  1.00  0.00     0.007 C 
ATOM     25  C   UNL     1      78.783  92.070  72.474  1.00  0.00     0.007 C 
ENDBRANCH  22  23
ENDBRANCH  21  22
ENDBRANCH  20  21
ENDBRANCH  19  20
ENDBRANCH  18  19
ENDBRANCH   1  18
TORSDOF 12
ENDMDL
MODEL 8
REMARK VINA RESULT:    -5.692     20.145     23.086
REMARK INTER + INTRA:         -10.369
REMARK INTER:                  -8.727
REMARK INTRA:                  -1.642
REMARK UNBOUND:                -0.851
REMARK SMILES COc1cc(CNC(=O)CCCCCCCC(C)C)ccc1O
REMARK SMILES IDX 11 1 10 2 8 3 9 4 7 5 6 7 5 8 4 9 20 10 3 11 21 12 22 13
REMARK SMILES IDX 2 14 1 15 23 16 12 18 13 19 14 20 15 21 16 22 17 23 18 24
REMARK SMILES IDX 19 25
REMARK H PARENT 7 6 23 17
REMARK Flexibility Score: inf
ROOT
ATOM      1  C   UNL     1      75.635  82.598  65.947  1.00  0.00     0.010 C 
ENDROOT
BRANCH   1   2
ATOM      2  C   UNL     1      77.129  82.905  65.860  1.00  0.00     0.100 C 
BRANCH   2   3
ATOM      3  C   UNL     1      77.645  83.625  67.094  1.00  0.00     0.220 C 
ATOM      4  O   UNL     1      78.737  84.183  67.141  1.00  0.00    -0.275 OA
ATOM      5  N   UNL     1      76.736  83.560  68.140  1.00  0.00    -0.352 N 
ATOM      6  H   UNL     1      75.858  83.064  68.011  1.00  0.00     0.163 HD
BRANCH   5   7
ATOM      7  C   UNL     1      76.984  84.157  69.432  1.00  0.00     0.151 C 
BRANCH   7   8
ATOM      8  C   UNL     1      76.332  85.503  69.562  1.00  0.00    -0.025 A 
ATOM      9  C   UNL     1      74.948  85.607  69.491  1.00  0.00     0.056 A 
ATOM     10  C   UNL     1      77.120  86.632  69.752  1.00  0.00     0.009 A 
ATOM     11  C   UNL     1      74.343  86.858  69.612  1.00  0.00     0.160 A 
ATOM     12  C   UNL     1      76.514  87.884  69.872  1.00  0.00     0.050 A 
ATOM     13  C   UNL     1      75.126  87.997  69.802  1.00  0.00     0.157 A 
BRANCH  11  14
ATOM     14  O   UNL     1      72.985  86.955  69.542  1.00  0.00    -0.493 OA
ATOM     15  C   UNL     1      72.291  85.887  68.900  1.00  0.00     0.278 C 
ENDBRANCH  11  14
BRANCH  13  16
ATOM     16  O   UNL     1      74.546  89.223  69.922  1.00  0.00    -0.504 OA
ATOM     17  H   UNL     1      75.207  89.854  70.257  1.00  0.00     0.293 HD
ENDBRANCH  13  16
ENDBRANCH   7   8
ENDBRANCH   5   7
ENDBRANCH   2   3
ENDBRANCH   1   2
BRANCH   1  18
ATOM     18  C   UNL     1      75.243  81.277  65.281  1.00  0.00     0.001 C 
BRANCH  18  19
ATOM     19  C   UNL     1      74.634  81.394  63.880  1.00  0.00     0.000 C 
BRANCH  19  20
ATOM     20  C   UNL     1      73.623  80.288  63.566  1.00  0.00     0.000 C 
BRANCH  20  21
ATOM     21  C   UNL     1      72.174  80.680  63.877  1.00  0.00     0.000 C 
BRANCH  21  22
ATOM     22  C   UNL     1      71.922  82.189  63.790  1.00  0.00     0.003 C 
BRANCH  22  23
ATOM     23  C   UNL     1      71.472  82.814  65.125  1.00  0.00    -0.017 C 
ATOM     24  C   UNL     1      72.253  84.105  65.381  1.00  0.00     0.007 C 
ATOM     25  C   UNL     1      71.651  81.861  66.308  1.00  0.00     0.007 C 
ENDBRANCH  22  23
ENDBRANCH  21  22
ENDBRANCH  20  21
ENDBRANCH  19  20
ENDBRANCH  18  19
ENDBRANCH   1  18
TORSDOF 12
ENDMDL
MODEL 9
REMARK VINA RESULT:    -5.591      6.434      9.586
REMARK INTER + INTRA:         -10.201
REMARK INTER:                  -9.217
REMARK INTRA:                  -0.984
REMARK UNBOUND:                -0.851
REMARK SMILES COc1cc(CNC(=O)CCCCCCCC(C)C)ccc1O
REMARK SMILES IDX 11 1 10 2 8 3 9 4 7 5 6 7 5 8 4 9 20 10 3 11 21 12 22 13
REMARK SMILES IDX 2 14 1 15 23 16 12 18 13 19 14 20 15 21 16 22 17 23 18 24
REMARK SMILES IDX 19 25
REMARK H PARENT 7 6 23 17
REMARK Flexibility Score: inf
ROOT
ATOM      1  C   UNL     1      96.104  98.739  75.732  1.00  0.00     0.010 C 
ENDROOT
BRANCH   1   2
ATOM      2  C   UNL     1      95.181  99.517  76.667  1.00  0.00     0.100 C 
BRANCH   2   3
ATOM      3  C   UNL     1      95.858  99.879  77.979  1.00  0.00     0.220 C 
ATOM      4  O   UNL     1      96.354 100.980  78.199  1.00  0.00    -0.275 OA
ATOM      5  N   UNL     1      95.846  98.816  78.869  1.00  0.00    -0.352 N 
ATOM      6  H   UNL     1      95.420  97.935  78.594  1.00  0.00     0.163 HD
BRANCH   5   7
ATOM      7  C   UNL     1      96.432  98.892  80.188  1.00  0.00     0.151 C 
BRANCH   7   8
ATOM      8  C   UNL     1      96.058  97.711  81.037  1.00  0.00    -0.025 A 
ATOM      9  C   UNL     1      96.236  96.425  80.542  1.00  0.00     0.056 A 
ATOM     10  C   UNL     1      95.538  97.917  82.309  1.00  0.00     0.009 A 
ATOM     11  C   UNL     1      95.888  95.328  81.331  1.00  0.00     0.160 A 
ATOM     12  C   UNL     1      95.190  96.820  83.098  1.00  0.00     0.050 A 
ATOM     13  C   UNL     1      95.365  95.526  82.609  1.00  0.00     0.157 A 
BRANCH  11  14
ATOM     14  O   UNL     1      96.063  94.068  80.842  1.00  0.00    -0.493 OA
ATOM     15  C   UNL     1      94.953  93.474  80.172  1.00  0.00     0.278 C 
ENDBRANCH  11  14
BRANCH  13  16
ATOM     16  O   UNL     1      95.023  94.463  83.389  1.00  0.00    -0.504 OA
ATOM     17  H   UNL     1      95.218  94.676  84.318  1.00  0.00     0.293 HD
ENDBRANCH  13  16
ENDBRANCH   7   8
ENDBRANCH   5   7
ENDBRANCH   2   3
ENDBRANCH   1   2
BRANCH   1  18
ATOM     18  C   UNL     1      95.650  97.298  75.486  1.00  0.00     0.001 C 
BRANCH  18  19
ATOM     19  C   UNL     1      94.207  96.977  75.891  1.00  0.00     0.000 C 
BRANCH  19  20
ATOM     20  C   UNL     1      93.958  95.482  76.109  1.00  0.00     0.000 C 
BRANCH  20  21
ATOM     21  C   UNL     1      93.123  95.179  77.358  1.00  0.00     0.000 C 
BRANCH  21  22
ATOM     22  C   UNL     1      92.025  94.138  77.115  1.00  0.00     0.003 C 
BRANCH  22  23
ATOM     23  C   UNL     1      90.673  94.511  77.753  1.00  0.00    -0.017 C 
ATOM     24  C   UNL     1      90.193  93.370  78.654  1.00  0.00     0.007 C 
ATOM     25  C   UNL     1      89.600  94.828  76.710  1.00  0.00     0.007 C 
ENDBRANCH  22  23
ENDBRANCH  21  22
ENDBRANCH  20  21
ENDBRANCH  19  20
ENDBRANCH  18  19
ENDBRANCH   1  18
TORSDOF 12
ENDMDL
MODEL 10
REMARK VINA RESULT:    -5.519     20.254     22.901
REMARK INTER + INTRA:         -10.080
REMARK INTER:                  -8.401
REMARK INTRA:                  -1.679
REMARK UNBOUND:                -0.851
REMARK SMILES COc1cc(CNC(=O)CCCCCCCC(C)C)ccc1O
REMARK SMILES IDX 11 1 10 2 8 3 9 4 7 5 6 7 5 8 4 9 20 10 3 11 21 12 22 13
REMARK SMILES IDX 2 14 1 15 23 16 12 18 13 19 14 20 15 21 16 22 17 23 18 24
REMARK SMILES IDX 19 25
REMARK H PARENT 7 6 23 17
REMARK Flexibility Score: inf
ROOT
ATOM      1  C   UNL     1      77.137  84.431  65.994  1.00  0.00     0.010 C 
ENDROOT
BRANCH   1   2
ATOM      2  C   UNL     1      76.580  83.292  65.142  1.00  0.00     0.100 C 
BRANCH   2   3
ATOM      3  C   UNL     1      75.436  82.563  65.826  1.00  0.00     0.220 C 
ATOM      4  O   UNL     1      75.599  81.594  66.563  1.00  0.00    -0.275 OA
ATOM      5  N   UNL     1      74.209  83.125  65.505  1.00  0.00    -0.352 N 
ATOM      6  H   UNL     1      74.171  83.922  64.875  1.00  0.00     0.163 HD
BRANCH   5   7
ATOM      7  C   UNL     1      72.957  82.617  66.016  1.00  0.00     0.151 C 
BRANCH   7   8
ATOM      8  C   UNL     1      72.337  83.552  67.014  1.00  0.00    -0.025 A 
ATOM      9  C   UNL     1      71.033  83.334  67.442  1.00  0.00     0.056 A 
ATOM     10  C   UNL     1      73.073  84.626  67.498  1.00  0.00     0.009 A 
ATOM     11  C   UNL     1      70.457  84.204  68.368  1.00  0.00     0.160 A 
ATOM     12  C   UNL     1      72.497  85.495  68.425  1.00  0.00     0.050 A 
ATOM     13  C   UNL     1      71.189  85.285  68.860  1.00  0.00     0.157 A 
BRANCH  11  14
ATOM     14  O   UNL     1      69.178  83.988  68.785  1.00  0.00    -0.493 OA
ATOM     15  C   UNL     1      68.999  83.126  69.908  1.00  0.00     0.278 C 
ENDBRANCH  11  14
BRANCH  13  16
ATOM     16  O   UNL     1      70.637  86.140  69.765  1.00  0.00    -0.504 OA
ATOM     17  H   UNL     1      69.774  86.439  69.432  1.00  0.00     0.293 HD
ENDBRANCH  13  16
ENDBRANCH   7   8
ENDBRANCH   5   7
ENDBRANCH   2   3
ENDBRANCH   1   2
BRANCH   1  18
ATOM     18  C   UNL     1      78.285  84.002  66.911  1.00  0.00     0.001 C 
BRANCH  18  19
ATOM     19  C   UNL     1      78.219  84.528  68.349  1.00  0.00     0.000 C 
BRANCH  19  20
ATOM     20  C   UNL     1      76.977  84.053  69.110  1.00  0.00     0.000 C 
BRANCH  20  21
ATOM     21  C   UNL     1      76.638  84.923  70.325  1.00  0.00     0.000 C 
BRANCH  21  22
ATOM     22  C   UNL     1      75.679  86.073  70.000  1.00  0.00     0.003 C 
BRANCH  22  23
ATOM     23  C   UNL     1      76.392  87.419  69.765  1.00  0.00    -0.017 C 
ATOM     24  C   UNL     1      75.669  88.528  70.532  1.00  0.00     0.007 C 
ATOM     25  C   UNL     1      76.474  87.788  68.283  1.00  0.00     0.007 C 
ENDBRANCH  22  23
ENDBRANCH  21  22
ENDBRANCH  20  21
ENDBRANCH  19  20
ENDBRANCH  18  19
ENDBRANCH   1  18
TORSDOF 12
ENDMDL
