MODEL 1
REMARK VINA RESULT:    -5.873      0.000      0.000
REMARK INTER + INTRA:         -10.549
REMARK INTER:                  -9.479
REMARK INTRA:                  -1.070
REMARK UNBOUND:                -1.070
REMARK SMILES COc1cc(CNC(=O)CCCCCCC(C)C)ccc1O
REMARK SMILES IDX 11 1 10 2 8 3 7 4 9 6 6 7 5 8 3 9 21 10 4 11 20 12 19 13
REMARK SMILES IDX 2 14 1 15 22 16 12 18 13 19 14 20 15 21 16 22 17 23 18 24
REMARK H PARENT 7 5 22 17
REMARK Flexibility Score: inf
ROOT
ATOM      1  C   UNL     1      78.016  85.433  68.315  1.00  0.00     0.010 C 
ENDROOT
BRANCH   1   2
ATOM      2  C   UNL     1      77.838  83.896  68.178  1.00  0.00     0.100 C 
BRANCH   2   3
ATOM      3  C   UNL     1      77.874  83.425  66.775  1.00  0.00     0.220 C 
ATOM      4  N   UNL     1      76.976  82.496  66.337  1.00  0.00    -0.352 N 
ATOM      5  H   UNL     1      76.348  82.149  67.047  1.00  0.00     0.163 HD
ATOM      6  O   UNL     1      78.728  83.917  65.997  1.00  0.00    -0.275 OA
BRANCH   4   7
ATOM      7  C   UNL     1      76.878  82.011  64.993  1.00  0.00     0.151 C 
BRANCH   7   8
ATOM      8  C   UNL     1      75.517  81.518  64.645  1.00  0.00    -0.025 A 
ATOM      9  C   UNL     1      73.145  81.227  65.225  1.00  0.00     0.160 A 
ATOM     10  C   UNL     1      72.911  80.620  63.971  1.00  0.00     0.157 A 
ATOM     11  C   UNL     1      74.447  81.653  65.559  1.00  0.00     0.056 A 
ATOM     12  C   UNL     1      73.975  80.444  63.069  1.00  0.00     0.050 A 
ATOM     13  C   UNL     1      75.267  80.899  63.398  1.00  0.00     0.009 A 
BRANCH   9  14
ATOM     14  O   UNL     1      72.125  81.367  66.126  1.00  0.00    -0.493 OA
ATOM     15  C   UNL     1      71.861  82.732  66.495  1.00  0.00     0.278 C 
ENDBRANCH   9  14
BRANCH  10  16
ATOM     16  O   UNL     1      71.667  80.198  63.623  1.00  0.00    -0.504 OA
ATOM     17  H   UNL     1      71.626  79.241  63.681  1.00  0.00     0.293 HD
ENDBRANCH  10  16
ENDBRANCH   7   8
ENDBRANCH   4   7
ENDBRANCH   2   3
ENDBRANCH   1   2
BRANCH   1  18
ATOM     18  C   UNL     1      77.632  85.944  69.732  1.00  0.00     0.001 C 
BRANCH  18  19
ATOM     19  C   UNL     1      76.488  85.132  70.403  1.00  0.00     0.000 C 
BRANCH  19  20
ATOM     20  C   UNL     1      75.088  85.664  69.985  1.00  0.00     0.000 C 
BRANCH  20  21
ATOM     21  C   UNL     1      74.625  86.924  70.768  1.00  0.00     0.003 C 
BRANCH  21  22
ATOM     22  C   UNL     1      74.690  88.256  69.952  1.00  0.00    -0.017 C 
ATOM     23  C   UNL     1      74.855  87.958  68.436  1.00  0.00     0.007 C 
ATOM     24  C   UNL     1      75.799  89.235  70.440  1.00  0.00     0.007 C 
ENDBRANCH  21  22
ENDBRANCH  20  21
ENDBRANCH  19  20
ENDBRANCH  18  19
ENDBRANCH   1  18
TORSDOF 11
ENDMDL
MODEL 2
REMARK VINA RESULT:    -5.752      5.954     11.534
REMARK INTER + INTRA:         -10.353
REMARK INTER:                  -9.367
REMARK INTRA:                  -0.986
REMARK UNBOUND:                -1.070
REMARK SMILES COc1cc(CNC(=O)CCCCCCC(C)C)ccc1O
REMARK SMILES IDX 11 1 10 2 8 3 7 4 9 6 6 7 5 8 3 9 21 10 4 11 20 12 19 13
REMARK SMILES IDX 2 14 1 15 22 16 12 18 13 19 14 20 15 21 16 22 17 23 18 24
REMARK H PARENT 7 5 22 17
REMARK Flexibility Score: inf
ROOT
ATOM      1  C   UNL     1      74.622  87.266  70.699  1.00  0.00     0.010 C 
ENDROOT
BRANCH   1   2
ATOM      2  C   UNL     1      75.507  88.520  70.462  1.00  0.00     0.100 C 
BRANCH   2   3
ATOM      3  C   UNL     1      74.955  89.750  71.074  1.00  0.00     0.220 C 
ATOM      4  N   UNL     1      75.515  90.965  70.806  1.00  0.00    -0.352 N 
ATOM      5  H   UNL     1      76.332  90.930  70.213  1.00  0.00     0.163 HD
ATOM      6  O   UNL     1      73.951  89.651  71.821  1.00  0.00    -0.275 OA
BRANCH   4   7
ATOM      7  C   UNL     1      75.034  92.222  71.292  1.00  0.00     0.151 C 
BRANCH   7   8
ATOM      8  C   UNL     1      75.931  92.842  72.306  1.00  0.00    -0.025 A 
ATOM      9  C   UNL     1      77.992  94.063  72.862  1.00  0.00     0.160 A 
ATOM     10  C   UNL     1      77.625  94.064  74.226  1.00  0.00     0.157 A 
ATOM     11  C   UNL     1      77.153  93.437  71.917  1.00  0.00     0.056 A 
ATOM     12  C   UNL     1      76.431  93.440  74.631  1.00  0.00     0.050 A 
ATOM     13  C   UNL     1      75.584  92.843  73.677  1.00  0.00     0.009 A 
BRANCH   9  14
ATOM     14  O   UNL     1      79.170  94.632  72.464  1.00  0.00    -0.493 OA
ATOM     15  C   UNL     1      79.029  95.548  71.362  1.00  0.00     0.278 C 
ENDBRANCH   9  14
BRANCH  10  16
ATOM     16  O   UNL     1      78.415  94.658  75.159  1.00  0.00    -0.504 OA
ATOM     17  H   UNL     1      78.786  95.466  74.796  1.00  0.00     0.293 HD
ENDBRANCH  10  16
ENDBRANCH   7   8
ENDBRANCH   4   7
ENDBRANCH   2   3
ENDBRANCH   1   2
BRANCH   1  18
ATOM     18  C   UNL     1      75.101  86.044  69.865  1.00  0.00     0.001 C 
BRANCH  18  19
ATOM     19  C   UNL     1      75.602  84.852  70.729  1.00  0.00     0.000 C 
BRANCH  19  20
ATOM     20  C   UNL     1      77.131  84.628  70.562  1.00  0.00     0.000 C 
BRANCH  20  21
ATOM     21  C   UNL     1      77.874  85.799  69.862  1.00  0.00     0.003 C 
BRANCH  21  22
ATOM     22  C   UNL     1      78.340  85.494  68.401  1.00  0.00    -0.017 C 
ATOM     23  C   UNL     1      77.812  86.581  67.423  1.00  0.00     0.007 C 
ATOM     24  C   UNL     1      77.943  84.073  67.902  1.00  0.00     0.007 C 
ENDBRANCH  21  22
ENDBRANCH  20  21
ENDBRANCH  19  20
ENDBRANCH  18  19
ENDBRANCH   1  18
TORSDOF 11
ENDMDL
MODEL 3
REMARK VINA RESULT:    -5.568     21.265     24.856
REMARK INTER + INTRA:         -10.055
REMARK INTER:                  -9.481
REMARK INTRA:                  -0.574
REMARK UNBOUND:                -1.070
REMARK SMILES COc1cc(CNC(=O)CCCCCCC(C)C)ccc1O
REMARK SMILES IDX 11 1 10 2 8 3 7 4 9 6 6 7 5 8 3 9 21 10 4 11 20 12 19 13
REMARK SMILES IDX 2 14 1 15 22 16 12 18 13 19 14 20 15 21 16 22 17 23 18 24
REMARK H PARENT 7 5 22 17
REMARK Flexibility Score: inf
ROOT
ATOM      1  C   UNL     1      92.995  99.663  74.944  1.00  0.00     0.010 C 
ENDROOT
BRANCH   1   2
ATOM      2  C   UNL     1      92.937  98.130  75.187  1.00  0.00     0.100 C 
BRANCH   2   3
ATOM      3  C   UNL     1      94.179  97.584  75.779  1.00  0.00     0.220 C 
ATOM      4  N   UNL     1      94.399  97.674  77.123  1.00  0.00    -0.352 N 
ATOM      5  H   UNL     1      93.682  98.168  77.635  1.00  0.00     0.163 HD
ATOM      6  O   UNL     1      95.008  97.019  75.025  1.00  0.00    -0.275 OA
BRANCH   4   7
ATOM      7  C   UNL     1      95.531  97.134  77.813  1.00  0.00     0.151 C 
BRANCH   7   8
ATOM      8  C   UNL     1      95.181  96.008  78.721  1.00  0.00    -0.025 A 
ATOM      9  C   UNL     1      93.541  94.378  79.559  1.00  0.00     0.160 A 
ATOM     10  C   UNL     1      94.519  93.832  80.419  1.00  0.00     0.157 A 
ATOM     11  C   UNL     1      93.873  95.472  78.733  1.00  0.00     0.056 A 
ATOM     12  C   UNL     1      95.813  94.382  80.445  1.00  0.00     0.050 A 
ATOM     13  C   UNL     1      96.147  95.455  79.596  1.00  0.00     0.009 A 
BRANCH   9  14
ATOM     14  O   UNL     1      92.268  93.877  79.555  1.00  0.00    -0.493 OA
ATOM     15  C   UNL     1      91.616  93.961  78.274  1.00  0.00     0.278 C 
ENDBRANCH   9  14
BRANCH  10  16
ATOM     16  O   UNL     1      94.226  92.780  81.227  1.00  0.00    -0.504 OA
ATOM     17  H   UNL     1      94.035  92.008  80.690  1.00  0.00     0.293 HD
ENDBRANCH  10  16
ENDBRANCH   7   8
ENDBRANCH   4   7
ENDBRANCH   2   3
ENDBRANCH   1   2
BRANCH   1  18
ATOM     18  C   UNL     1      93.168 100.014  73.439  1.00  0.00     0.001 C 
BRANCH  18  19
ATOM     19  C   UNL     1      91.842 100.414  72.732  1.00  0.00     0.000 C 
BRANCH  19  20
ATOM     20  C   UNL     1      91.345  99.296  71.773  1.00  0.00     0.000 C 
BRANCH  20  21
ATOM     21  C   UNL     1      90.169  99.723  70.851  1.00  0.00     0.003 C 
BRANCH  21  22
ATOM     22  C   UNL     1      89.742  98.647  69.801  1.00  0.00    -0.017 C 
ATOM     23  C   UNL     1      88.463  99.103  69.044  1.00  0.00     0.007 C 
ATOM     24  C   UNL     1      89.538  97.227  70.408  1.00  0.00     0.007 C 
ENDBRANCH  21  22
ENDBRANCH  20  21
ENDBRANCH  19  20
ENDBRANCH  18  19
ENDBRANCH   1  18
TORSDOF 11
ENDMDL
MODEL 4
REMARK VINA RESULT:    -5.392     21.702     25.478
REMARK INTER + INTRA:          -9.772
REMARK INTER:                  -9.210
REMARK INTRA:                  -0.561
REMARK UNBOUND:                -1.070
REMARK SMILES COc1cc(CNC(=O)CCCCCCC(C)C)ccc1O
REMARK SMILES IDX 11 1 10 2 8 3 7 4 9 6 6 7 5 8 3 9 21 10 4 11 20 12 19 13
REMARK SMILES IDX 2 14 1 15 22 16 12 18 13 19 14 20 15 21 16 22 17 23 18 24
REMARK H PARENT 7 5 22 17
REMARK Flexibility Score: inf
ROOT
ATOM      1  C   UNL     1      93.066  99.578  74.975  1.00  0.00     0.010 C 
ENDROOT
BRANCH   1   2
ATOM      2  C   UNL     1      92.953  98.054  75.258  1.00  0.00     0.100 C 
BRANCH   2   3
ATOM      3  C   UNL     1      94.189  97.472  75.827  1.00  0.00     0.220 C 
ATOM      4  N   UNL     1      94.440  97.558  77.165  1.00  0.00    -0.352 N 
ATOM      5  H   UNL     1      93.750  98.075  77.690  1.00  0.00     0.163 HD
ATOM      6  O   UNL     1      94.984  96.879  75.056  1.00  0.00    -0.275 OA
BRANCH   4   7
ATOM      7  C   UNL     1      95.569  96.984  77.833  1.00  0.00     0.151 C 
BRANCH   7   8
ATOM      8  C   UNL     1      95.202  95.881  78.762  1.00  0.00    -0.025 A 
ATOM      9  C   UNL     1      95.607  94.618  80.834  1.00  0.00     0.160 A 
ATOM     10  C   UNL     1      94.483  93.807  80.561  1.00  0.00     0.157 A 
ATOM     11  C   UNL     1      95.968  95.634  79.924  1.00  0.00     0.056 A 
ATOM     12  C   UNL     1      93.736  94.017  79.388  1.00  0.00     0.050 A 
ATOM     13  C   UNL     1      94.085  95.053  78.499  1.00  0.00     0.009 A 
BRANCH   9  14
ATOM     14  O   UNL     1      96.363  94.397  81.952  1.00  0.00    -0.493 OA
ATOM     15  C   UNL     1      96.541  95.565  82.773  1.00  0.00     0.278 C 
ENDBRANCH   9  14
BRANCH  10  16
ATOM     16  O   UNL     1      94.113  92.819  81.418  1.00  0.00    -0.504 OA
ATOM     17  H   UNL     1      93.834  93.207  82.251  1.00  0.00     0.293 HD
ENDBRANCH  10  16
ENDBRANCH   7   8
ENDBRANCH   4   7
ENDBRANCH   2   3
ENDBRANCH   1   2
BRANCH   1  18
ATOM     18  C   UNL     1      93.102  99.890  73.452  1.00  0.00     0.001 C 
BRANCH  18  19
ATOM     19  C   UNL     1      91.812 100.577  72.922  1.00  0.00     0.000 C 
BRANCH  19  20
ATOM     20  C   UNL     1      91.062  99.676  71.902  1.00  0.00     0.000 C 
BRANCH  20  21
ATOM     21  C   UNL     1      89.689 100.239  71.442  1.00  0.00     0.003 C 
BRANCH  21  22
ATOM     22  C   UNL     1      89.031  99.463  70.254  1.00  0.00    -0.017 C 
ATOM     23  C   UNL     1      89.204  97.930  70.445  1.00  0.00     0.007 C 
ATOM     24  C   UNL     1      89.556  99.901  68.855  1.00  0.00     0.007 C 
ENDBRANCH  21  22
ENDBRANCH  20  21
ENDBRANCH  19  20
ENDBRANCH  18  19
ENDBRANCH   1  18
TORSDOF 11
ENDMDL
MODEL 5
REMARK VINA RESULT:    -5.226     25.234     28.004
REMARK INTER + INTRA:          -9.504
REMARK INTER:                  -8.445
REMARK INTRA:                  -1.059
REMARK UNBOUND:                -1.070
REMARK SMILES COc1cc(CNC(=O)CCCCCCC(C)C)ccc1O
REMARK SMILES IDX 11 1 10 2 8 3 7 4 9 6 6 7 5 8 3 9 21 10 4 11 20 12 19 13
REMARK SMILES IDX 2 14 1 15 22 16 12 18 13 19 14 20 15 21 16 22 17 23 18 24
REMARK H PARENT 7 5 22 17
REMARK Flexibility Score: inf
ROOT
ATOM      1  C   UNL     1      97.955  82.313  84.862  1.00  0.00     0.010 C 
ENDROOT
BRANCH   1   2
ATOM      2  C   UNL     1      98.402  81.120  83.973  1.00  0.00     0.100 C 
BRANCH   2   3
ATOM      3  C   UNL     1      99.407  81.496  82.953  1.00  0.00     0.220 C 
ATOM      4  N   UNL     1      99.073  81.513  81.630  1.00  0.00    -0.352 N 
ATOM      5  H   UNL     1      98.130  81.213  81.430  1.00  0.00     0.163 HD
ATOM      6  O   UNL     1     100.559  81.820  83.334  1.00  0.00    -0.275 OA
BRANCH   4   7
ATOM      7  C   UNL     1      99.941  81.913  80.565  1.00  0.00     0.151 C 
BRANCH   7   8
ATOM      8  C   UNL     1      99.239  82.667  79.489  1.00  0.00    -0.025 A 
ATOM      9  C   UNL     1      99.207  83.592  77.211  1.00  0.00     0.160 A 
ATOM     10  C   UNL     1      97.893  84.065  77.419  1.00  0.00     0.157 A 
ATOM     11  C   UNL     1      99.876  82.915  78.252  1.00  0.00     0.056 A 
ATOM     12  C   UNL     1      97.263  83.858  78.659  1.00  0.00     0.050 A 
ATOM     13  C   UNL     1      97.926  83.156  79.684  1.00  0.00     0.009 A 
BRANCH   9  14
ATOM     14  O   UNL     1      99.844  83.822  76.021  1.00  0.00    -0.493 OA
ATOM     15  C   UNL     1     101.278  83.741  76.106  1.00  0.00     0.278 C 
ENDBRANCH   9  14
BRANCH  10  16
ATOM     16  O   UNL     1      97.225  84.722  76.434  1.00  0.00    -0.504 OA
ATOM     17  H   UNL     1      96.697  85.425  76.820  1.00  0.00     0.293 HD
ENDBRANCH  10  16
ENDBRANCH   7   8
ENDBRANCH   4   7
ENDBRANCH   2   3
ENDBRANCH   1   2
BRANCH   1  18
ATOM     18  C   UNL     1      97.393  83.494  84.021  1.00  0.00     0.001 C 
BRANCH  18  19
ATOM     19  C   UNL     1      96.548  84.506  84.846  1.00  0.00     0.000 C 
BRANCH  19  20
ATOM     20  C   UNL     1      96.136  83.916  86.224  1.00  0.00     0.000 C 
BRANCH  20  21
ATOM     21  C   UNL     1      96.839  84.584  87.439  1.00  0.00     0.003 C 
BRANCH  21  22
ATOM     22  C   UNL     1      97.459  83.580  88.464  1.00  0.00    -0.017 C 
ATOM     23  C   UNL     1      99.004  83.517  88.297  1.00  0.00     0.007 C 
ATOM     24  C   UNL     1      96.844  82.152  88.392  1.00  0.00     0.007 C 
ENDBRANCH  21  22
ENDBRANCH  20  21
ENDBRANCH  19  20
ENDBRANCH  18  19
ENDBRANCH   1  18
TORSDOF 11
ENDMDL
MODEL 6
REMARK VINA RESULT:    -5.182     12.349     15.881
REMARK INTER + INTRA:          -9.434
REMARK INTER:                  -8.107
REMARK INTRA:                  -1.326
REMARK UNBOUND:                -1.070
REMARK SMILES COc1cc(CNC(=O)CCCCCCC(C)C)ccc1O
REMARK SMILES IDX 11 1 10 2 8 3 7 4 9 6 6 7 5 8 3 9 21 10 4 11 20 12 19 13
REMARK SMILES IDX 2 14 1 15 22 16 12 18 13 19 14 20 15 21 16 22 17 23 18 24
REMARK H PARENT 7 5 22 17
REMARK Flexibility Score: inf
ROOT
ATOM      1  C   UNL     1      61.019  84.308  70.106  1.00  0.00     0.010 C 
ENDROOT
BRANCH   1   2
ATOM      2  C   UNL     1      59.925  85.330  70.520  1.00  0.00     0.100 C 
BRANCH   2   3
ATOM      3  C   UNL     1      60.086  85.832  71.903  1.00  0.00     0.220 C 
ATOM      4  N   UNL     1      59.945  84.986  72.964  1.00  0.00    -0.352 N 
ATOM      5  H   UNL     1      59.687  84.041  72.718  1.00  0.00     0.163 HD
ATOM      6  O   UNL     1      60.378  87.041  72.074  1.00  0.00    -0.275 OA
BRANCH   4   7
ATOM      7  C   UNL     1      60.134  85.344  74.337  1.00  0.00     0.151 C 
BRANCH   7   8
ATOM      8  C   UNL     1      61.359  84.746  74.935  1.00  0.00    -0.025 A 
ATOM      9  C   UNL     1      63.343  84.950  76.375  1.00  0.00     0.160 A 
ATOM     10  C   UNL     1      63.672  83.602  76.116  1.00  0.00     0.157 A 
ATOM     11  C   UNL     1      62.202  85.517  75.769  1.00  0.00     0.056 A 
ATOM     12  C   UNL     1      62.863  82.836  75.257  1.00  0.00     0.050 A 
ATOM     13  C   UNL     1      61.709  83.400  74.679  1.00  0.00     0.009 A 
BRANCH   9  14
ATOM     14  O   UNL     1      64.145  85.715  77.177  1.00  0.00    -0.493 OA
ATOM     15  C   UNL     1      63.439  86.371  78.246  1.00  0.00     0.278 C 
ENDBRANCH   9  14
BRANCH  10  16
ATOM     16  O   UNL     1      64.766  83.031  76.684  1.00  0.00    -0.504 OA
ATOM     17  H   UNL     1      65.552  83.520  76.428  1.00  0.00     0.293 HD
ENDBRANCH  10  16
ENDBRANCH   7   8
ENDBRANCH   4   7
ENDBRANCH   2   3
ENDBRANCH   1   2
BRANCH   1  18
ATOM     18  C   UNL     1      62.204  84.985  69.360  1.00  0.00     0.001 C 
BRANCH  18  19
ATOM     19  C   UNL     1      63.140  83.982  68.629  1.00  0.00     0.000 C 
BRANCH  19  20
ATOM     20  C   UNL     1      62.934  82.529  69.143  1.00  0.00     0.000 C 
BRANCH  20  21
ATOM     21  C   UNL     1      64.244  81.700  69.249  1.00  0.00     0.003 C 
BRANCH  21  22
ATOM     22  C   UNL     1      64.870  81.654  70.681  1.00  0.00    -0.017 C 
ATOM     23  C   UNL     1      63.787  81.946  71.757  1.00  0.00     0.007 C 
ATOM     24  C   UNL     1      66.089  82.605  70.861  1.00  0.00     0.007 C 
ENDBRANCH  21  22
ENDBRANCH  20  21
ENDBRANCH  19  20
ENDBRANCH  18  19
ENDBRANCH   1  18
TORSDOF 11
ENDMDL
MODEL 7
REMARK VINA RESULT:    -5.182      6.550     11.798
REMARK INTER + INTRA:          -9.433
REMARK INTER:                  -8.492
REMARK INTRA:                  -0.940
REMARK UNBOUND:                -1.070
REMARK SMILES COc1cc(CNC(=O)CCCCCCC(C)C)ccc1O
REMARK SMILES IDX 11 1 10 2 8 3 7 4 9 6 6 7 5 8 3 9 21 10 4 11 20 12 19 13
REMARK SMILES IDX 2 14 1 15 22 16 12 18 13 19 14 20 15 21 16 22 17 23 18 24
REMARK H PARENT 7 5 22 17
REMARK Flexibility Score: inf
ROOT
ATOM      1  C   UNL     1      74.565  87.726  70.866  1.00  0.00     0.010 C 
ENDROOT
BRANCH   1   2
ATOM      2  C   UNL     1      75.188  89.144  70.746  1.00  0.00     0.100 C 
BRANCH   2   3
ATOM      3  C   UNL     1      74.471  90.167  71.539  1.00  0.00     0.220 C 
ATOM      4  N   UNL     1      74.974  91.430  71.652  1.00  0.00    -0.352 N 
ATOM      5  H   UNL     1      75.865  91.570  71.198  1.00  0.00     0.163 HD
ATOM      6  O   UNL     1      73.382  89.854  72.081  1.00  0.00    -0.275 OA
BRANCH   4   7
ATOM      7  C   UNL     1      74.341  92.514  72.341  1.00  0.00     0.151 C 
BRANCH   7   8
ATOM      8  C   UNL     1      74.656  92.547  73.795  1.00  0.00    -0.025 A 
ATOM      9  C   UNL     1      76.229  93.030  75.623  1.00  0.00     0.160 A 
ATOM     10  C   UNL     1      75.249  92.656  76.568  1.00  0.00     0.157 A 
ATOM     11  C   UNL     1      75.932  92.955  74.246  1.00  0.00     0.056 A 
ATOM     12  C   UNL     1      73.988  92.212  76.131  1.00  0.00     0.050 A 
ATOM     13  C   UNL     1      73.689  92.167  74.755  1.00  0.00     0.009 A 
BRANCH   9  14
ATOM     14  O   UNL     1      77.472  93.426  76.037  1.00  0.00    -0.493 OA
ATOM     15  C   UNL     1      77.954  94.609  75.373  1.00  0.00     0.278 C 
ENDBRANCH   9  14
BRANCH  10  16
ATOM     16  O   UNL     1      75.507  92.717  77.901  1.00  0.00    -0.504 OA
ATOM     17  H   UNL     1      76.034  93.498  78.089  1.00  0.00     0.293 HD
ENDBRANCH  10  16
ENDBRANCH   7   8
ENDBRANCH   4   7
ENDBRANCH   2   3
ENDBRANCH   1   2
BRANCH   1  18
ATOM     18  C   UNL     1      74.869  86.844  69.621  1.00  0.00     0.001 C 
BRANCH  18  19
ATOM     19  C   UNL     1      75.407  85.428  69.973  1.00  0.00     0.000 C 
BRANCH  19  20
ATOM     20  C   UNL     1      76.953  85.428  70.136  1.00  0.00     0.000 C 
BRANCH  20  21
ATOM     21  C   UNL     1      77.658  86.674  69.533  1.00  0.00     0.003 C 
BRANCH  21  22
ATOM     22  C   UNL     1      78.232  86.464  68.093  1.00  0.00    -0.017 C 
ATOM     23  C   UNL     1      77.552  87.436  67.089  1.00  0.00     0.007 C 
ATOM     24  C   UNL     1      78.126  84.995  67.586  1.00  0.00     0.007 C 
ENDBRANCH  21  22
ENDBRANCH  20  21
ENDBRANCH  19  20
ENDBRANCH  18  19
ENDBRANCH   1  18
TORSDOF 11
ENDMDL
MODEL 8
REMARK VINA RESULT:    -5.141      3.024      6.091
REMARK INTER + INTRA:          -9.367
REMARK INTER:                  -8.462
REMARK INTRA:                  -0.905
REMARK UNBOUND:                -1.070
REMARK SMILES COc1cc(CNC(=O)CCCCCCC(C)C)ccc1O
REMARK SMILES IDX 11 1 10 2 8 3 7 4 9 6 6 7 5 8 3 9 21 10 4 11 20 12 19 13
REMARK SMILES IDX 2 14 1 15 22 16 12 18 13 19 14 20 15 21 16 22 17 23 18 24
REMARK H PARENT 7 5 22 17
REMARK Flexibility Score: inf
ROOT
ATOM      1  C   UNL     1      70.527  82.871  66.557  1.00  0.00     0.010 C 
ENDROOT
BRANCH   1   2
ATOM      2  C   UNL     1      71.603  81.751  66.533  1.00  0.00     0.100 C 
BRANCH   2   3
ATOM      3  C   UNL     1      72.851  82.153  65.846  1.00  0.00     0.220 C 
ATOM      4  N   UNL     1      74.059  81.702  66.290  1.00  0.00    -0.352 N 
ATOM      5  H   UNL     1      74.015  81.132  67.122  1.00  0.00     0.163 HD
ATOM      6  O   UNL     1      72.769  82.895  64.836  1.00  0.00    -0.275 OA
BRANCH   4   7
ATOM      7  C   UNL     1      75.321  81.976  65.674  1.00  0.00     0.151 C 
BRANCH   7   8
ATOM      8  C   UNL     1      76.203  82.844  66.503  1.00  0.00    -0.025 A 
ATOM      9  C   UNL     1      76.503  84.381  68.399  1.00  0.00     0.160 A 
ATOM     10  C   UNL     1      77.884  84.465  68.115  1.00  0.00     0.157 A 
ATOM     11  C   UNL     1      75.671  83.588  67.582  1.00  0.00     0.056 A 
ATOM     12  C   UNL     1      78.417  83.760  67.021  1.00  0.00     0.050 A 
ATOM     13  C   UNL     1      77.586  82.947  66.226  1.00  0.00     0.009 A 
BRANCH   9  14
ATOM     14  O   UNL     1      75.967  85.093  69.437  1.00  0.00    -0.493 OA
ATOM     15  C   UNL     1      74.570  85.399  69.271  1.00  0.00     0.278 C 
ENDBRANCH   9  14
BRANCH  10  16
ATOM     16  O   UNL     1      78.708  85.223  68.885  1.00  0.00    -0.504 OA
ATOM     17  H   UNL     1      78.884  84.765  69.711  1.00  0.00     0.293 HD
ENDBRANCH  10  16
ENDBRANCH   7   8
ENDBRANCH   4   7
ENDBRANCH   2   3
ENDBRANCH   1   2
BRANCH   1  18
ATOM     18  C   UNL     1      70.438  83.570  67.944  1.00  0.00     0.001 C 
BRANCH  18  19
ATOM     19  C   UNL     1      69.613  82.774  68.995  1.00  0.00     0.000 C 
BRANCH  19  20
ATOM     20  C   UNL     1      69.002  83.713  70.072  1.00  0.00     0.000 C 
BRANCH  20  21
ATOM     21  C   UNL     1      70.033  84.268  71.093  1.00  0.00     0.003 C 
BRANCH  21  22
ATOM     22  C   UNL     1      70.053  85.827  71.216  1.00  0.00    -0.017 C 
ATOM     23  C   UNL     1      68.604  86.383  71.305  1.00  0.00     0.007 C 
ATOM     24  C   UNL     1      70.840  86.534  70.073  1.00  0.00     0.007 C 
ENDBRANCH  21  22
ENDBRANCH  20  21
ENDBRANCH  19  20
ENDBRANCH  18  19
ENDBRANCH   1  18
TORSDOF 11
ENDMDL
MODEL 9
REMARK VINA RESULT:    -5.010      3.716      5.557
REMARK INTER + INTRA:          -9.156
REMARK INTER:                  -7.761
REMARK INTRA:                  -1.395
REMARK UNBOUND:                -1.070
REMARK SMILES COc1cc(CNC(=O)CCCCCCC(C)C)ccc1O
REMARK SMILES IDX 11 1 10 2 8 3 7 4 9 6 6 7 5 8 3 9 21 10 4 11 20 12 19 13
REMARK SMILES IDX 2 14 1 15 22 16 12 18 13 19 14 20 15 21 16 22 17 23 18 24
REMARK H PARENT 7 5 22 17
REMARK Flexibility Score: inf
ROOT
ATOM      1  C   UNL     1      75.667  89.124  70.754  1.00  0.00     0.010 C 
ENDROOT
BRANCH   1   2
ATOM      2  C   UNL     1      74.880  87.795  70.586  1.00  0.00     0.100 C 
BRANCH   2   3
ATOM      3  C   UNL     1      75.743  86.643  70.241  1.00  0.00     0.220 C 
ATOM      4  N   UNL     1      76.999  86.847  69.749  1.00  0.00    -0.352 N 
ATOM      5  H   UNL     1      77.245  87.816  69.609  1.00  0.00     0.163 HD
ATOM      6  O   UNL     1      75.305  85.483  70.435  1.00  0.00    -0.275 OA
BRANCH   4   7
ATOM      7  C   UNL     1      77.941  85.815  69.436  1.00  0.00     0.151 C 
BRANCH   7   8
ATOM      8  C   UNL     1      77.766  85.255  68.068  1.00  0.00    -0.025 A 
ATOM      9  C   UNL     1      77.125  85.550  65.712  1.00  0.00     0.160 A 
ATOM     10  C   UNL     1      77.469  84.207  65.448  1.00  0.00     0.157 A 
ATOM     11  C   UNL     1      77.257  86.058  67.022  1.00  0.00     0.056 A 
ATOM     12  C   UNL     1      77.939  83.386  66.490  1.00  0.00     0.050 A 
ATOM     13  C   UNL     1      78.097  83.908  67.788  1.00  0.00     0.009 A 
BRANCH   9  14
ATOM     14  O   UNL     1      76.629  86.345  64.715  1.00  0.00    -0.493 OA
ATOM     15  C   UNL     1      75.195  86.468  64.730  1.00  0.00     0.278 C 
ENDBRANCH   9  14
BRANCH  10  16
ATOM     16  O   UNL     1      77.350  83.690  64.196  1.00  0.00    -0.504 OA
ATOM     17  H   UNL     1      76.459  83.353  64.073  1.00  0.00     0.293 HD
ENDBRANCH  10  16
ENDBRANCH   7   8
ENDBRANCH   4   7
ENDBRANCH   2   3
ENDBRANCH   1   2
BRANCH   1  18
ATOM     18  C   UNL     1      74.731  90.323  71.078  1.00  0.00     0.001 C 
BRANCH  18  19
ATOM     19  C   UNL     1      74.973  91.568  70.178  1.00  0.00     0.000 C 
BRANCH  19  20
ATOM     20  C   UNL     1      73.773  91.825  69.224  1.00  0.00     0.000 C 
BRANCH  20  21
ATOM     21  C   UNL     1      73.439  90.633  68.284  1.00  0.00     0.003 C 
BRANCH  21  22
ATOM     22  C   UNL     1      74.339  90.538  67.009  1.00  0.00    -0.017 C 
ATOM     23  C   UNL     1      75.369  89.382  67.155  1.00  0.00     0.007 C 
ATOM     24  C   UNL     1      75.063  91.870  66.654  1.00  0.00     0.007 C 
ENDBRANCH  21  22
ENDBRANCH  20  21
ENDBRANCH  19  20
ENDBRANCH  18  19
ENDBRANCH   1  18
TORSDOF 11
ENDMDL
MODEL 10
REMARK VINA RESULT:    -5.009     25.098     27.344
REMARK INTER + INTRA:          -9.154
REMARK INTER:                  -8.580
REMARK INTRA:                  -0.574
REMARK UNBOUND:                -1.070
REMARK SMILES COc1cc(CNC(=O)CCCCCCC(C)C)ccc1O
REMARK SMILES IDX 11 1 10 2 8 3 7 4 9 6 6 7 5 8 3 9 21 10 4 11 20 12 19 13
REMARK SMILES IDX 2 14 1 15 22 16 12 18 13 19 14 20 15 21 16 22 17 23 18 24
REMARK H PARENT 7 5 22 17
REMARK Flexibility Score: inf
ROOT
ATOM      1  C   UNL     1      99.122  82.467  82.945  1.00  0.00     0.010 C 
ENDROOT
BRANCH   1   2
ATOM      2  C   UNL     1      97.785  83.118  83.393  1.00  0.00     0.100 C 
BRANCH   2   3
ATOM      3  C   UNL     1      97.458  82.865  84.814  1.00  0.00     0.220 C 
ATOM      4  N   UNL     1      96.260  83.268  85.328  1.00  0.00    -0.352 N 
ATOM      5  H   UNL     1      95.672  83.772  84.681  1.00  0.00     0.163 HD
ATOM      6  O   UNL     1      98.294  82.254  85.524  1.00  0.00    -0.275 OA
BRANCH   4   7
ATOM      7  C   UNL     1      95.813  83.028  86.667  1.00  0.00     0.151 C 
BRANCH   7   8
ATOM      8  C   UNL     1      94.742  81.997  86.752  1.00  0.00    -0.025 A 
ATOM      9  C   UNL     1      92.365  81.380  86.625  1.00  0.00     0.160 A 
ATOM     10  C   UNL     1      92.700  80.030  86.868  1.00  0.00     0.157 A 
ATOM     11  C   UNL     1      93.385  82.354  86.587  1.00  0.00     0.056 A 
ATOM     12  C   UNL     1      94.044  79.668  87.072  1.00  0.00     0.050 A 
ATOM     13  C   UNL     1      95.060  80.642  87.004  1.00  0.00     0.009 A 
BRANCH   9  14
ATOM     14  O   UNL     1      91.057  81.749  86.464  1.00  0.00    -0.493 OA
ATOM     15  C   UNL     1      90.470  82.331  87.642  1.00  0.00     0.278 C 
ENDBRANCH   9  14
BRANCH  10  16
ATOM     16  O   UNL     1      91.739  79.071  86.912  1.00  0.00    -0.504 OA
ATOM     17  H   UNL     1      90.963  79.416  87.360  1.00  0.00     0.293 HD
ENDBRANCH  10  16
ENDBRANCH   7   8
ENDBRANCH   4   7
ENDBRANCH   2   3
ENDBRANCH   1   2
BRANCH   1  18
ATOM     18  C   UNL     1      98.986  81.718  81.589  1.00  0.00     0.001 C 
BRANCH  18  19
ATOM     19  C   UNL     1      99.218  82.624  80.347  1.00  0.00     0.000 C 
BRANCH  19  20
ATOM     20  C   UNL     1      97.915  83.357  79.921  1.00  0.00     0.000 C 
BRANCH  20  21
ATOM     21  C   UNL     1      97.384  82.949  78.519  1.00  0.00     0.003 C 
BRANCH  21  22
ATOM     22  C   UNL     1      98.206  83.526  77.320  1.00  0.00    -0.017 C 
ATOM     23  C   UNL     1      97.619  84.892  76.866  1.00  0.00     0.007 C 
ATOM     24  C   UNL     1      98.316  82.551  76.110  1.00  0.00     0.007 C 
ENDBRANCH  21  22
ENDBRANCH  20  21
ENDBRANCH  19  20
ENDBRANCH  18  19
ENDBRANCH   1  18
TORSDOF 11
ENDMDL
