MODEL 1
REMARK VINA RESULT:    -5.844      0.000      0.000
REMARK INTER + INTRA:         -10.111
REMARK INTER:                  -9.430
REMARK INTRA:                  -0.680
REMARK UNBOUND:                -0.680
REMARK SMILES CCCCCCCCC(=O)NCc1ccc(O)c(OC)c1
REMARK SMILES IDX 7 1 6 2 5 3 4 4 3 5 2 6 1 7 8 8 9 9 10 10 11 11 12 13 13 14
REMARK SMILES IDX 21 15 14 16 18 17 15 18 16 19 19 20 20 21 17 22
REMARK H PARENT 11 12 17 23
REMARK Flexibility Score: inf
ROOT
ATOM      1  C   UNL     1      76.669  84.465  69.212  1.00  0.00     0.010 C 
ENDROOT
BRANCH   1   2
ATOM      2  C   UNL     1      75.987  85.660  69.937  1.00  0.00     0.001 C 
BRANCH   2   3
ATOM      3  C   UNL     1      76.688  87.015  69.627  1.00  0.00     0.000 C 
BRANCH   3   4
ATOM      4  C   UNL     1      75.964  88.250  70.234  1.00  0.00    -0.000 C 
BRANCH   4   5
ATOM      5  C   UNL     1      74.634  87.874  70.947  1.00  0.00    -0.000 C 
BRANCH   5   6
ATOM      6  C   UNL     1      73.610  89.041  70.951  1.00  0.00    -0.003 C 
ATOM      7  C   UNL     1      74.105  90.271  71.744  1.00  0.00     0.004 C 
ENDBRANCH   5   6
ENDBRANCH   4   5
ENDBRANCH   3   4
ENDBRANCH   2   3
ENDBRANCH   1   2
BRANCH   1   8
ATOM      8  C   UNL     1      77.774  84.888  68.204  1.00  0.00     0.100 C 
BRANCH   8   9
ATOM      9  C   UNL     1      77.942  83.878  67.131  1.00  0.00     0.220 C 
ATOM     10  O   UNL     1      79.092  83.685  66.670  1.00  0.00    -0.275 OA
ATOM     11  N   UNL     1      76.871  83.160  66.681  1.00  0.00    -0.352 N 
ATOM     12  H   UNL     1      75.982  83.455  67.058  1.00  0.00     0.163 HD
BRANCH  11  13
ATOM     13  C   UNL     1      76.926  82.068  65.758  1.00  0.00     0.151 C 
BRANCH  13  14
ATOM     14  C   UNL     1      75.596  81.655  65.235  1.00  0.00    -0.025 A 
ATOM     15  C   UNL     1      74.429  81.871  66.007  1.00  0.00     0.056 A 
ATOM     16  C   UNL     1      75.472  81.040  63.968  1.00  0.00     0.009 A 
ATOM     17  C   UNL     1      73.156  81.500  65.515  1.00  0.00     0.160 A 
ATOM     18  C   UNL     1      74.209  80.670  63.473  1.00  0.00     0.050 A 
ATOM     19  C   UNL     1      73.051  80.891  64.245  1.00  0.00     0.157 A 
BRANCH  17  20
ATOM     20  O   UNL     1      72.031  81.672  66.282  1.00  0.00    -0.493 OA
ATOM     21  C   UNL     1      71.654  83.047  66.475  1.00  0.00     0.278 C 
ENDBRANCH  17  20
BRANCH  19  22
ATOM     22  O   UNL     1      71.840  80.505  63.770  1.00  0.00    -0.504 OA
ATOM     23  H   UNL     1      71.452  79.861  64.368  1.00  0.00     0.293 HD
ENDBRANCH  19  22
ENDBRANCH  13  14
ENDBRANCH  11  13
ENDBRANCH   8   9
ENDBRANCH   1   8
TORSDOF 11
ENDMDL
MODEL 2
REMARK VINA RESULT:    -5.678     20.574     22.905
REMARK INTER + INTRA:          -9.844
REMARK INTER:                  -9.206
REMARK INTRA:                  -0.638
REMARK UNBOUND:                -0.680
REMARK SMILES CCCCCCCCC(=O)NCc1ccc(O)c(OC)c1
REMARK SMILES IDX 7 1 6 2 5 3 4 4 3 5 2 6 1 7 8 8 9 9 10 10 11 11 12 13 13 14
REMARK SMILES IDX 21 15 14 16 18 17 15 18 16 19 19 20 20 21 17 22
REMARK H PARENT 11 12 17 23
REMARK Flexibility Score: inf
ROOT
ATOM      1  C   UNL     1      93.596  98.204  75.527  1.00  0.00     0.010 C 
ENDROOT
BRANCH   1   2
ATOM      2  C   UNL     1      92.554  97.073  75.768  1.00  0.00     0.001 C 
BRANCH   2   3
ATOM      3  C   UNL     1      92.789  96.335  77.119  1.00  0.00     0.000 C 
BRANCH   3   4
ATOM      4  C   UNL     1      93.479  94.950  76.965  1.00  0.00    -0.000 C 
BRANCH   4   5
ATOM      5  C   UNL     1      92.872  93.870  77.905  1.00  0.00    -0.000 C 
BRANCH   5   6
ATOM      6  C   UNL     1      91.636  94.388  78.689  1.00  0.00    -0.003 C 
ATOM      7  C   UNL     1      90.319  93.711  78.249  1.00  0.00     0.004 C 
ENDBRANCH   5   6
ENDBRANCH   4   5
ENDBRANCH   3   4
ENDBRANCH   2   3
ENDBRANCH   1   2
BRANCH   1   8
ATOM      8  C   UNL     1      92.961  99.583  75.193  1.00  0.00     0.100 C 
BRANCH   8   9
ATOM      9  C   UNL     1      93.103  99.909  73.754  1.00  0.00     0.220 C 
ATOM     10  O   UNL     1      94.215  99.717  73.207  1.00  0.00    -0.275 OA
ATOM     11  N   UNL     1      92.037 100.377  73.041  1.00  0.00    -0.352 N 
ATOM     12  H   UNL     1      91.217 100.576  73.596  1.00  0.00     0.163 HD
BRANCH  11  13
ATOM     13  C   UNL     1      92.007 100.592  71.626  1.00  0.00     0.151 C 
BRANCH  13  14
ATOM     14  C   UNL     1      90.951  99.817  70.922  1.00  0.00    -0.025 A 
ATOM     15  C   UNL     1      90.488 100.235  69.651  1.00  0.00     0.056 A 
ATOM     16  C   UNL     1      90.389  98.658  71.506  1.00  0.00     0.009 A 
ATOM     17  C   UNL     1      89.497  99.498  68.962  1.00  0.00     0.160 A 
ATOM     18  C   UNL     1      89.404  97.921  70.825  1.00  0.00     0.050 A 
ATOM     19  C   UNL     1      88.950  98.340  69.560  1.00  0.00     0.157 A 
BRANCH  17  20
ATOM     20  O   UNL     1      89.020  99.928  67.750  1.00  0.00    -0.493 OA
ATOM     21  C   UNL     1      88.527 101.279  67.756  1.00  0.00     0.278 C 
ENDBRANCH  17  20
BRANCH  19  22
ATOM     22  O   UNL     1      87.979  97.637  68.923  1.00  0.00    -0.504 OA
ATOM     23  H   UNL     1      87.145  98.108  68.992  1.00  0.00     0.293 HD
ENDBRANCH  19  22
ENDBRANCH  13  14
ENDBRANCH  11  13
ENDBRANCH   8   9
ENDBRANCH   1   8
TORSDOF 11
ENDMDL
MODEL 3
REMARK VINA RESULT:    -5.587      2.370      3.210
REMARK INTER + INTRA:          -9.696
REMARK INTER:                  -7.771
REMARK INTRA:                  -1.925
REMARK UNBOUND:                -0.680
REMARK SMILES CCCCCCCCC(=O)NCc1ccc(O)c(OC)c1
REMARK SMILES IDX 7 1 6 2 5 3 4 4 3 5 2 6 1 7 8 8 9 9 10 10 11 11 12 13 13 14
REMARK SMILES IDX 21 15 14 16 18 17 15 18 16 19 19 20 20 21 17 22
REMARK H PARENT 11 12 17 23
REMARK Flexibility Score: inf
ROOT
ATOM      1  C   UNL     1      78.312  86.106  68.728  1.00  0.00     0.010 C 
ENDROOT
BRANCH   1   2
ATOM      2  C   UNL     1      77.336  86.169  69.938  1.00  0.00     0.001 C 
BRANCH   2   3
ATOM      3  C   UNL     1      76.441  84.898  70.038  1.00  0.00     0.000 C 
BRANCH   3   4
ATOM      4  C   UNL     1      74.917  85.198  69.963  1.00  0.00    -0.000 C 
BRANCH   4   5
ATOM      5  C   UNL     1      74.501  85.861  68.619  1.00  0.00    -0.000 C 
BRANCH   5   6
ATOM      6  C   UNL     1      73.787  84.870  67.661  1.00  0.00    -0.003 C 
ATOM      7  C   UNL     1      73.724  85.382  66.206  1.00  0.00     0.004 C 
ENDBRANCH   5   6
ENDBRANCH   4   5
ENDBRANCH   3   4
ENDBRANCH   2   3
ENDBRANCH   1   2
BRANCH   1   8
ATOM      8  C   UNL     1      77.872  86.978  67.518  1.00  0.00     0.100 C 
BRANCH   8   9
ATOM      9  C   UNL     1      77.509  86.138  66.352  1.00  0.00     0.220 C 
ATOM     10  O   UNL     1      76.900  86.678  65.396  1.00  0.00    -0.275 OA
ATOM     11  N   UNL     1      77.856  84.819  66.311  1.00  0.00    -0.352 N 
ATOM     12  H   UNL     1      78.264  84.468  67.166  1.00  0.00     0.163 HD
BRANCH  11  13
ATOM     13  C   UNL     1      77.690  83.944  65.191  1.00  0.00     0.151 C 
BRANCH  13  14
ATOM     14  C   UNL     1      76.497  83.061  65.289  1.00  0.00    -0.025 A 
ATOM     15  C   UNL     1      75.650  82.880  64.170  1.00  0.00     0.056 A 
ATOM     16  C   UNL     1      76.185  82.393  66.496  1.00  0.00     0.009 A 
ATOM     17  C   UNL     1      74.523  82.030  64.243  1.00  0.00     0.160 A 
ATOM     18  C   UNL     1      75.065  81.546  66.575  1.00  0.00     0.050 A 
ATOM     19  C   UNL     1      74.229  81.368  65.456  1.00  0.00     0.157 A 
BRANCH  17  20
ATOM     20  O   UNL     1      73.680  81.889  63.170  1.00  0.00    -0.493 OA
ATOM     21  C   UNL     1      72.827  83.024  62.938  1.00  0.00     0.278 C 
ENDBRANCH  17  20
BRANCH  19  22
ATOM     22  O   UNL     1      73.135  80.569  65.551  1.00  0.00    -0.504 OA
ATOM     23  H   UNL     1      73.230  79.824  64.953  1.00  0.00     0.293 HD
ENDBRANCH  19  22
ENDBRANCH  13  14
ENDBRANCH  11  13
ENDBRANCH   8   9
ENDBRANCH   1   8
TORSDOF 11
ENDMDL
MODEL 4
REMARK VINA RESULT:    -5.514      5.862     11.135
REMARK INTER + INTRA:          -9.579
REMARK INTER:                  -8.783
REMARK INTRA:                  -0.796
REMARK UNBOUND:                -0.680
REMARK SMILES CCCCCCCCC(=O)NCc1ccc(O)c(OC)c1
REMARK SMILES IDX 7 1 6 2 5 3 4 4 3 5 2 6 1 7 8 8 9 9 10 10 11 11 12 13 13 14
REMARK SMILES IDX 21 15 14 16 18 17 15 18 16 19 19 20 20 21 17 22
REMARK H PARENT 11 12 17 23
REMARK Flexibility Score: inf
ROOT
ATOM      1  C   UNL     1      75.305  86.975  70.276  1.00  0.00     0.010 C 
ENDROOT
BRANCH   1   2
ATOM      2  C   UNL     1      75.217  85.486  70.719  1.00  0.00     0.001 C 
BRANCH   2   3
ATOM      3  C   UNL     1      76.377  84.628  70.133  1.00  0.00     0.000 C 
BRANCH   3   4
ATOM      4  C   UNL     1      77.720  85.399  69.997  1.00  0.00    -0.000 C 
BRANCH   4   5
ATOM      5  C   UNL     1      78.205  85.503  68.523  1.00  0.00    -0.000 C 
BRANCH   5   6
ATOM      6  C   UNL     1      78.151  86.956  67.979  1.00  0.00    -0.003 C 
ATOM      7  C   UNL     1      77.361  87.072  66.657  1.00  0.00     0.004 C 
ENDBRANCH   5   6
ENDBRANCH   4   5
ENDBRANCH   3   4
ENDBRANCH   2   3
ENDBRANCH   1   2
BRANCH   1   8
ATOM      8  C   UNL     1      74.375  87.927  71.080  1.00  0.00     0.100 C 
BRANCH   8   9
ATOM      9  C   UNL     1      74.842  89.332  71.001  1.00  0.00     0.220 C 
ATOM     10  O   UNL     1      75.898  89.573  70.368  1.00  0.00    -0.275 OA
ATOM     11  N   UNL     1      74.121  90.336  71.580  1.00  0.00    -0.352 N 
ATOM     12  H   UNL     1      73.338  90.022  72.135  1.00  0.00     0.163 HD
BRANCH  11  13
ATOM     13  C   UNL     1      74.388  91.736  71.454  1.00  0.00     0.151 C 
BRANCH  13  14
ATOM     14  C   UNL     1      75.320  92.265  72.486  1.00  0.00    -0.025 A 
ATOM     15  C   UNL     1      76.662  92.563  72.148  1.00  0.00     0.056 A 
ATOM     16  C   UNL     1      74.888  92.476  73.816  1.00  0.00     0.009 A 
ATOM     17  C   UNL     1      77.554  93.083  73.114  1.00  0.00     0.160 A 
ATOM     18  C   UNL     1      75.771  92.993  74.781  1.00  0.00     0.050 A 
ATOM     19  C   UNL     1      77.104  93.290  74.437  1.00  0.00     0.157 A 
BRANCH  17  20
ATOM     20  O   UNL     1      78.866  93.332  72.795  1.00  0.00    -0.493 OA
ATOM     21  C   UNL     1      79.099  94.637  72.236  1.00  0.00     0.278 C 
ENDBRANCH  17  20
BRANCH  19  22
ATOM     22  O   UNL     1      77.956  93.764  75.382  1.00  0.00    -0.504 OA
ATOM     23  H   UNL     1      77.519  93.758  76.238  1.00  0.00     0.293 HD
ENDBRANCH  19  22
ENDBRANCH  13  14
ENDBRANCH  11  13
ENDBRANCH   8   9
ENDBRANCH   1   8
TORSDOF 11
ENDMDL
MODEL 5
REMARK VINA RESULT:    -5.470     20.144     23.267
REMARK INTER + INTRA:          -9.508
REMARK INTER:                  -8.786
REMARK INTRA:                  -0.721
REMARK UNBOUND:                -0.680
REMARK SMILES CCCCCCCCC(=O)NCc1ccc(O)c(OC)c1
REMARK SMILES IDX 7 1 6 2 5 3 4 4 3 5 2 6 1 7 8 8 9 9 10 10 11 11 12 13 13 14
REMARK SMILES IDX 21 15 14 16 18 17 15 18 16 19 19 20 20 21 17 22
REMARK H PARENT 11 12 17 23
REMARK Flexibility Score: inf
ROOT
ATOM      1  C   UNL     1      94.226  98.217  75.626  1.00  0.00     0.010 C 
ENDROOT
BRANCH   1   2
ATOM      2  C   UNL     1      94.314  96.692  75.330  1.00  0.00     0.001 C 
BRANCH   2   3
ATOM      3  C   UNL     1      94.549  95.854  76.622  1.00  0.00     0.000 C 
BRANCH   3   4
ATOM      4  C   UNL     1      93.682  96.309  77.830  1.00  0.00    -0.000 C 
BRANCH   4   5
ATOM      5  C   UNL     1      92.204  95.839  77.718  1.00  0.00    -0.000 C 
BRANCH   5   6
ATOM      6  C   UNL     1      91.942  94.509  78.476  1.00  0.00    -0.003 C 
ATOM      7  C   UNL     1      93.095  94.126  79.431  1.00  0.00     0.004 C 
ENDBRANCH   5   6
ENDBRANCH   4   5
ENDBRANCH   3   4
ENDBRANCH   2   3
ENDBRANCH   1   2
BRANCH   1   8
ATOM      8  C   UNL     1      92.914  98.881  75.121  1.00  0.00     0.100 C 
BRANCH   8   9
ATOM      9  C   UNL     1      93.149  99.670  73.888  1.00  0.00     0.220 C 
ATOM     10  O   UNL     1      94.329  99.981  73.596  1.00  0.00    -0.275 OA
ATOM     11  N   UNL     1      92.106 100.022  73.080  1.00  0.00    -0.352 N 
ATOM     12  H   UNL     1      91.195  99.797  73.453  1.00  0.00     0.163 HD
BRANCH  11  13
ATOM     13  C   UNL     1      92.216 100.656  71.802  1.00  0.00     0.151 C 
BRANCH  13  14
ATOM     14  C   UNL     1      91.100 100.333  70.873  1.00  0.00    -0.025 A 
ATOM     15  C   UNL     1      90.433  99.088  70.966  1.00  0.00     0.056 A 
ATOM     16  C   UNL     1      90.689 101.254  69.882  1.00  0.00     0.009 A 
ATOM     17  C   UNL     1      89.360  98.773  70.101  1.00  0.00     0.160 A 
ATOM     18  C   UNL     1      89.621 100.948  69.020  1.00  0.00     0.050 A 
ATOM     19  C   UNL     1      88.960  99.709  69.120  1.00  0.00     0.157 A 
BRANCH  17  20
ATOM     20  O   UNL     1      88.743  97.550  70.165  1.00  0.00    -0.493 OA
ATOM     21  C   UNL     1      89.646  96.443  70.334  1.00  0.00     0.278 C 
ENDBRANCH  17  20
BRANCH  19  22
ATOM     22  O   UNL     1      87.949  99.412  68.265  1.00  0.00    -0.504 OA
ATOM     23  H   UNL     1      87.824  98.460  68.236  1.00  0.00     0.293 HD
ENDBRANCH  19  22
ENDBRANCH  13  14
ENDBRANCH  11  13
ENDBRANCH   8   9
ENDBRANCH   1   8
TORSDOF 11
ENDMDL
MODEL 6
REMARK VINA RESULT:    -5.407      2.640      4.125
REMARK INTER + INTRA:          -9.407
REMARK INTER:                  -8.685
REMARK INTRA:                  -0.722
REMARK UNBOUND:                -0.680
REMARK SMILES CCCCCCCCC(=O)NCc1ccc(O)c(OC)c1
REMARK SMILES IDX 7 1 6 2 5 3 4 4 3 5 2 6 1 7 8 8 9 9 10 10 11 11 12 13 13 14
REMARK SMILES IDX 21 15 14 16 18 17 15 18 16 19 19 20 20 21 17 22
REMARK H PARENT 11 12 17 23
REMARK Flexibility Score: inf
ROOT
ATOM      1  C   UNL     1      76.710  82.983  66.359  1.00  0.00     0.010 C 
ENDROOT
BRANCH   1   2
ATOM      2  C   UNL     1      77.980  83.866  66.185  1.00  0.00     0.001 C 
BRANCH   2   3
ATOM      3  C   UNL     1      78.067  84.991  67.259  1.00  0.00     0.000 C 
BRANCH   3   4
ATOM      4  C   UNL     1      77.984  84.469  68.721  1.00  0.00    -0.000 C 
BRANCH   4   5
ATOM      5  C   UNL     1      77.639  85.592  69.740  1.00  0.00    -0.000 C 
BRANCH   5   6
ATOM      6  C   UNL     1      76.236  85.406  70.379  1.00  0.00    -0.003 C 
ATOM      7  C   UNL     1      76.150  84.157  71.284  1.00  0.00     0.004 C 
ENDBRANCH   5   6
ENDBRANCH   4   5
ENDBRANCH   3   4
ENDBRANCH   2   3
ENDBRANCH   1   2
BRANCH   1   8
ATOM      8  C   UNL     1      76.800  81.604  65.648  1.00  0.00     0.100 C 
BRANCH   8   9
ATOM      9  C   UNL     1      75.571  81.317  64.870  1.00  0.00     0.220 C 
ATOM     10  O   UNL     1      75.634  81.361  63.619  1.00  0.00    -0.275 OA
ATOM     11  N   UNL     1      74.409  80.985  65.507  1.00  0.00    -0.352 N 
ATOM     12  H   UNL     1      74.446  81.064  66.513  1.00  0.00     0.163 HD
BRANCH  11  13
ATOM     13  C   UNL     1      73.202  80.551  64.871  1.00  0.00     0.151 C 
BRANCH  13  14
ATOM     14  C   UNL     1      72.055  81.479  65.062  1.00  0.00    -0.025 A 
ATOM     15  C   UNL     1      71.704  81.919  66.361  1.00  0.00     0.056 A 
ATOM     16  C   UNL     1      71.297  81.933  63.959  1.00  0.00     0.009 A 
ATOM     17  C   UNL     1      70.627  82.815  66.556  1.00  0.00     0.160 A 
ATOM     18  C   UNL     1      70.225  82.824  64.146  1.00  0.00     0.050 A 
ATOM     19  C   UNL     1      69.883  83.261  65.440  1.00  0.00     0.157 A 
BRANCH  17  20
ATOM     20  O   UNL     1      70.262  83.207  67.819  1.00  0.00    -0.493 OA
ATOM     21  C   UNL     1      71.086  84.248  68.374  1.00  0.00     0.278 C 
ENDBRANCH  17  20
BRANCH  19  22
ATOM     22  O   UNL     1      68.830  84.100  65.614  1.00  0.00    -0.504 OA
ATOM     23  H   UNL     1      69.112  85.004  65.456  1.00  0.00     0.293 HD
ENDBRANCH  19  22
ENDBRANCH  13  14
ENDBRANCH  11  13
ENDBRANCH   8   9
ENDBRANCH   1   8
TORSDOF 11
ENDMDL
MODEL 7
REMARK VINA RESULT:    -5.384      2.670      5.908
REMARK INTER + INTRA:          -9.369
REMARK INTER:                  -8.628
REMARK INTRA:                  -0.741
REMARK UNBOUND:                -0.680
REMARK SMILES CCCCCCCCC(=O)NCc1ccc(O)c(OC)c1
REMARK SMILES IDX 7 1 6 2 5 3 4 4 3 5 2 6 1 7 8 8 9 9 10 10 11 11 12 13 13 14
REMARK SMILES IDX 21 15 14 16 18 17 15 18 16 19 19 20 20 21 17 22
REMARK H PARENT 11 12 17 23
REMARK Flexibility Score: inf
ROOT
ATOM      1  C   UNL     1      75.366  81.968  66.005  1.00  0.00     0.010 C 
ENDROOT
BRANCH   1   2
ATOM      2  C   UNL     1      76.904  81.903  65.781  1.00  0.00     0.001 C 
BRANCH   2   3
ATOM      3  C   UNL     1      77.560  83.316  65.786  1.00  0.00     0.000 C 
BRANCH   3   4
ATOM      4  C   UNL     1      78.310  83.654  67.105  1.00  0.00    -0.000 C 
BRANCH   4   5
ATOM      5  C   UNL     1      78.063  85.115  67.578  1.00  0.00    -0.000 C 
BRANCH   5   6
ATOM      6  C   UNL     1      77.743  85.204  69.095  1.00  0.00    -0.003 C 
ATOM      7  C   UNL     1      77.602  86.659  69.594  1.00  0.00     0.004 C 
ENDBRANCH   5   6
ENDBRANCH   4   5
ENDBRANCH   3   4
ENDBRANCH   2   3
ENDBRANCH   1   2
BRANCH   1   8
ATOM      8  C   UNL     1      74.563  80.936  65.164  1.00  0.00     0.100 C 
BRANCH   8   9
ATOM      9  C   UNL     1      73.106  81.208  65.224  1.00  0.00     0.220 C 
ATOM     10  O   UNL     1      72.315  80.245  65.077  1.00  0.00    -0.275 OA
ATOM     11  N   UNL     1      72.645  82.471  65.463  1.00  0.00    -0.352 N 
ATOM     12  H   UNL     1      73.362  83.181  65.479  1.00  0.00     0.163 HD
BRANCH  11  13
ATOM     13  C   UNL     1      71.278  82.833  65.682  1.00  0.00     0.151 C 
BRANCH  13  14
ATOM     14  C   UNL     1      70.966  83.171  67.096  1.00  0.00    -0.025 A 
ATOM     15  C   UNL     1      71.747  84.126  67.790  1.00  0.00     0.056 A 
ATOM     16  C   UNL     1      69.892  82.547  67.772  1.00  0.00     0.009 A 
ATOM     17  C   UNL     1      71.451  84.470  69.129  1.00  0.00     0.160 A 
ATOM     18  C   UNL     1      69.592  82.886  69.104  1.00  0.00     0.050 A 
ATOM     19  C   UNL     1      70.371  83.839  69.787  1.00  0.00     0.157 A 
BRANCH  17  20
ATOM     20  O   UNL     1      72.235  85.365  69.813  1.00  0.00    -0.493 OA
ATOM     21  C   UNL     1      71.885  86.743  69.593  1.00  0.00     0.278 C 
ENDBRANCH  17  20
BRANCH  19  22
ATOM     22  O   UNL     1      70.091  84.139  71.081  1.00  0.00    -0.504 OA
ATOM     23  H   UNL     1      69.972  85.087  71.171  1.00  0.00     0.293 HD
ENDBRANCH  19  22
ENDBRANCH  13  14
ENDBRANCH  11  13
ENDBRANCH   8   9
ENDBRANCH   1   8
TORSDOF 11
ENDMDL
MODEL 8
REMARK VINA RESULT:    -5.381      1.684      2.163
REMARK INTER + INTRA:          -9.364
REMARK INTER:                  -8.095
REMARK INTRA:                  -1.269
REMARK UNBOUND:                -0.680
REMARK SMILES CCCCCCCCC(=O)NCc1ccc(O)c(OC)c1
REMARK SMILES IDX 7 1 6 2 5 3 4 4 3 5 2 6 1 7 8 8 9 9 10 10 11 11 12 13 13 14
REMARK SMILES IDX 21 15 14 16 18 17 15 18 16 19 19 20 20 21 17 22
REMARK H PARENT 11 12 17 23
REMARK Flexibility Score: inf
ROOT
ATOM      1  C   UNL     1      78.339  86.440  67.955  1.00  0.00     0.010 C 
ENDROOT
BRANCH   1   2
ATOM      2  C   UNL     1      77.198  86.921  67.012  1.00  0.00     0.001 C 
BRANCH   2   3
ATOM      3  C   UNL     1      76.261  87.956  67.701  1.00  0.00     0.000 C 
BRANCH   3   4
ATOM      4  C   UNL     1      74.816  87.433  67.936  1.00  0.00    -0.000 C 
BRANCH   4   5
ATOM      5  C   UNL     1      74.784  86.074  68.692  1.00  0.00    -0.000 C 
BRANCH   5   6
ATOM      6  C   UNL     1      75.104  86.226  70.204  1.00  0.00    -0.003 C 
ATOM      7  C   UNL     1      75.573  84.905  70.853  1.00  0.00     0.004 C 
ENDBRANCH   5   6
ENDBRANCH   4   5
ENDBRANCH   3   4
ENDBRANCH   2   3
ENDBRANCH   1   2
BRANCH   1   8
ATOM      8  C   UNL     1      78.178  84.972  68.440  1.00  0.00     0.100 C 
BRANCH   8   9
ATOM      9  C   UNL     1      78.085  84.033  67.296  1.00  0.00     0.220 C 
ATOM     10  O   UNL     1      79.084  83.905  66.548  1.00  0.00    -0.275 OA
ATOM     11  N   UNL     1      76.947  83.308  67.085  1.00  0.00    -0.352 N 
ATOM     12  H   UNL     1      76.178  83.551  67.692  1.00  0.00     0.163 HD
BRANCH  11  13
ATOM     13  C   UNL     1      76.785  82.274  66.110  1.00  0.00     0.151 C 
BRANCH  13  14
ATOM     14  C   UNL     1      75.387  82.118  65.625  1.00  0.00    -0.025 A 
ATOM     15  C   UNL     1      74.397  83.062  65.991  1.00  0.00     0.056 A 
ATOM     16  C   UNL     1      75.021  81.031  64.799  1.00  0.00     0.009 A 
ATOM     17  C   UNL     1      73.069  82.937  65.525  1.00  0.00     0.160 A 
ATOM     18  C   UNL     1      73.701  80.902  64.331  1.00  0.00     0.050 A 
ATOM     19  C   UNL     1      72.722  81.846  64.696  1.00  0.00     0.157 A 
BRANCH  17  20
ATOM     20  O   UNL     1      72.102  83.829  65.915  1.00  0.00    -0.493 OA
ATOM     21  C   UNL     1      71.718  83.715  67.297  1.00  0.00     0.278 C 
ENDBRANCH  17  20
BRANCH  19  22
ATOM     22  O   UNL     1      71.445  81.697  64.262  1.00  0.00    -0.504 OA
ATOM     23  H   UNL     1      71.444  81.223  63.427  1.00  0.00     0.293 HD
ENDBRANCH  19  22
ENDBRANCH  13  14
ENDBRANCH  11  13
ENDBRANCH   8   9
ENDBRANCH   1   8
TORSDOF 11
ENDMDL
MODEL 9
REMARK VINA RESULT:    -5.336      2.644      7.066
REMARK INTER + INTRA:          -9.292
REMARK INTER:                  -8.423
REMARK INTRA:                  -0.869
REMARK UNBOUND:                -0.680
REMARK SMILES CCCCCCCCC(=O)NCc1ccc(O)c(OC)c1
REMARK SMILES IDX 7 1 6 2 5 3 4 4 3 5 2 6 1 7 8 8 9 9 10 10 11 11 12 13 13 14
REMARK SMILES IDX 21 15 14 16 18 17 15 18 16 19 19 20 20 21 17 22
REMARK H PARENT 11 12 17 23
REMARK Flexibility Score: inf
ROOT
ATOM      1  C   UNL     1      77.335  84.184  65.719  1.00  0.00     0.010 C 
ENDROOT
BRANCH   1   2
ATOM      2  C   UNL     1      76.950  83.217  64.563  1.00  0.00     0.001 C 
BRANCH   2   3
ATOM      3  C   UNL     1      76.312  81.897  65.087  1.00  0.00     0.000 C 
BRANCH   3   4
ATOM      4  C   UNL     1      75.487  81.131  64.015  1.00  0.00    -0.000 C 
BRANCH   4   5
ATOM      5  C   UNL     1      73.984  81.000  64.395  1.00  0.00    -0.000 C 
BRANCH   5   6
ATOM      6  C   UNL     1      73.633  81.757  65.704  1.00  0.00    -0.003 C 
ATOM      7  C   UNL     1      72.128  81.698  66.046  1.00  0.00     0.004 C 
ENDBRANCH   5   6
ENDBRANCH   4   5
ENDBRANCH   3   4
ENDBRANCH   2   3
ENDBRANCH   1   2
BRANCH   1   8
ATOM      8  C   UNL     1      78.014  83.481  66.928  1.00  0.00     0.100 C 
BRANCH   8   9
ATOM      9  C   UNL     1      77.990  84.341  68.136  1.00  0.00     0.220 C 
ATOM     10  O   UNL     1      78.732  85.351  68.163  1.00  0.00    -0.275 OA
ATOM     11  N   UNL     1      77.155  84.050  69.177  1.00  0.00    -0.352 N 
ATOM     12  H   UNL     1      76.668  83.170  69.088  1.00  0.00     0.163 HD
BRANCH  11  13
ATOM     13  C   UNL     1      76.937  84.872  70.328  1.00  0.00     0.151 C 
BRANCH  13  14
ATOM     14  C   UNL     1      75.972  85.980  70.101  1.00  0.00    -0.025 A 
ATOM     15  C   UNL     1      74.592  85.704  69.951  1.00  0.00     0.056 A 
ATOM     16  C   UNL     1      76.411  87.322  70.027  1.00  0.00     0.009 A 
ATOM     17  C   UNL     1      73.660  86.749  69.752  1.00  0.00     0.160 A 
ATOM     18  C   UNL     1      75.489  88.366  69.830  1.00  0.00     0.050 A 
ATOM     19  C   UNL     1      74.117  88.084  69.685  1.00  0.00     0.157 A 
BRANCH  17  20
ATOM     20  O   UNL     1      72.329  86.475  69.564  1.00  0.00    -0.493 OA
ATOM     21  C   UNL     1      71.979  85.093  69.758  1.00  0.00     0.278 C 
ENDBRANCH  17  20
BRANCH  19  22
ATOM     22  O   UNL     1      73.239  89.096  69.467  1.00  0.00    -0.504 OA
ATOM     23  H   UNL     1      72.734  89.259  70.268  1.00  0.00     0.293 HD
ENDBRANCH  19  22
ENDBRANCH  13  14
ENDBRANCH  11  13
ENDBRANCH   8   9
ENDBRANCH   1   8
TORSDOF 11
ENDMDL
MODEL 10
REMARK VINA RESULT:    -5.204     24.398     28.616
REMARK INTER + INTRA:          -9.078
REMARK INTER:                  -8.474
REMARK INTRA:                  -0.604
REMARK UNBOUND:                -0.680
REMARK SMILES CCCCCCCCC(=O)NCc1ccc(O)c(OC)c1
REMARK SMILES IDX 7 1 6 2 5 3 4 4 3 5 2 6 1 7 8 8 9 9 10 10 11 11 12 13 13 14
REMARK SMILES IDX 21 15 14 16 18 17 15 18 16 19 19 20 20 21 17 22
REMARK H PARENT 11 12 17 23
REMARK Flexibility Score: inf
ROOT
ATOM      1  C   UNL     1      94.893  94.750  78.692  1.00  0.00     0.010 C 
ENDROOT
BRANCH   1   2
ATOM      2  C   UNL     1      93.779  94.774  77.606  1.00  0.00     0.001 C 
BRANCH   2   3
ATOM      3  C   UNL     1      92.368  95.022  78.215  1.00  0.00     0.000 C 
BRANCH   3   4
ATOM      4  C   UNL     1      91.515  96.052  77.422  1.00  0.00    -0.000 C 
BRANCH   4   5
ATOM      5  C   UNL     1      89.988  95.786  77.541  1.00  0.00    -0.000 C 
BRANCH   5   6
ATOM      6  C   UNL     1      89.595  94.355  77.083  1.00  0.00    -0.003 C 
ATOM      7  C   UNL     1      89.098  93.468  78.245  1.00  0.00     0.004 C 
ENDBRANCH   5   6
ENDBRANCH   4   5
ENDBRANCH   3   4
ENDBRANCH   2   3
ENDBRANCH   1   2
BRANCH   1   8
ATOM      8  C   UNL     1      94.395  95.134  80.113  1.00  0.00     0.100 C 
BRANCH   8   9
ATOM      9  C   UNL     1      95.530  95.426  81.022  1.00  0.00     0.220 C 
ATOM     10  O   UNL     1      96.695  95.247  80.596  1.00  0.00    -0.275 OA
ATOM     11  N   UNL     1      95.305  95.906  82.281  1.00  0.00    -0.352 N 
ATOM     12  H   UNL     1      94.332  95.930  82.551  1.00  0.00     0.163 HD
BRANCH  11  13
ATOM     13  C   UNL     1      96.309  96.356  83.195  1.00  0.00     0.151 C 
BRANCH  13  14
ATOM     14  C   UNL     1      96.049  97.710  83.755  1.00  0.00    -0.025 A 
ATOM     15  C   UNL     1      96.355  97.991  85.108  1.00  0.00     0.056 A 
ATOM     16  C   UNL     1      95.492  98.733  82.954  1.00  0.00     0.009 A 
ATOM     17  C   UNL     1      96.129  99.278  85.650  1.00  0.00     0.160 A 
ATOM     18  C   UNL     1      95.267 100.015  83.487  1.00  0.00     0.050 A 
ATOM     19  C   UNL     1      95.576 100.289  84.833  1.00  0.00     0.157 A 
BRANCH  17  20
ATOM     20  O   UNL     1      96.387  99.537  86.973  1.00  0.00    -0.493 OA
ATOM     21  C   UNL     1      97.067  98.472  87.660  1.00  0.00     0.278 C 
ENDBRANCH  17  20
BRANCH  19  22
ATOM     22  O   UNL     1      95.329 101.522  85.345  1.00  0.00    -0.504 OA
ATOM     23  H   UNL     1      94.533 101.492  85.882  1.00  0.00     0.293 HD
ENDBRANCH  19  22
ENDBRANCH  13  14
ENDBRANCH  11  13
ENDBRANCH   8   9
ENDBRANCH   1   8
TORSDOF 11
ENDMDL
