MODEL 1
REMARK VINA RESULT:    -7.207      0.000      0.000
REMARK INTER + INTRA:          -8.872
REMARK INTER:                  -8.470
REMARK INTRA:                  -0.402
REMARK UNBOUND:                -0.402
REMARK SMILES O=C(/C=C/C=C/c1ccc2c(c1)OCO2)N1CCCCC1
REMARK SMILES IDX 3 1 4 2 2 3 1 4 16 5 17 6 21 7 18 8 20 9 19 10 5 11 6 12
REMARK SMILES IDX 7 13 12 14 8 15 11 16 9 17 13 18 10 19 14 20 15 21
REMARK H PARENT
REMARK Flexibility Score: inf
ROOT
ATOM      1  C   UNL     1      99.198  82.845  81.019  1.00  0.00     0.071 C 
ATOM      2  C   UNL     1      99.161  81.981  82.033  1.00  0.00     0.006 C 
ENDROOT
BRANCH   1   3
ATOM      3  C   UNL     1      99.947  82.460  79.807  1.00  0.00     0.246 C 
ATOM      4  O   UNL     1     100.931  81.734  79.952  1.00  0.00    -0.270 OA
ATOM      5  N   UNL     1      99.494  82.948  78.582  1.00  0.00    -0.339 N 
ATOM      6  C   UNL     1     100.221  82.588  77.360  1.00  0.00     0.120 C 
ATOM      7  C   UNL     1      98.352  83.851  78.374  1.00  0.00     0.120 C 
ATOM      8  C   UNL     1      99.286  81.999  76.309  1.00  0.00     0.022 C 
ATOM      9  C   UNL     1      97.392  83.296  77.322  1.00  0.00     0.022 C 
ATOM     10  C   UNL     1      98.118  82.939  76.028  1.00  0.00     0.004 C 
ENDBRANCH   1   3
BRANCH   2  11
ATOM     11  C   UNL     1      98.453  82.268  83.262  1.00  0.00     0.001 C 
ATOM     12  C   UNL     1      97.715  83.377  83.434  1.00  0.00     0.008 C 
BRANCH  12  13
ATOM     13  C   UNL     1      96.983  83.721  84.665  1.00  0.00    -0.022 A 
ATOM     14  C   UNL     1      96.884  85.054  85.041  1.00  0.00     0.058 A 
ATOM     15  C   UNL     1      96.407  82.696  85.420  1.00  0.00     0.012 A 
ATOM     16  C   UNL     1      96.187  85.327  86.201  1.00  0.00     0.166 A 
ATOM     17  C   UNL     1      95.708  83.001  86.590  1.00  0.00     0.051 A 
ATOM     18  O   UNL     1      95.981  86.561  86.736  1.00  0.00    -0.454 OA
ATOM     19  C   UNL     1      95.615  84.328  86.955  1.00  0.00     0.165 A 
ATOM     20  C   UNL     1      95.215  86.227  87.911  1.00  0.00     0.468 C 
ATOM     21  O   UNL     1      94.978  84.811  88.056  1.00  0.00    -0.454 OA
ENDBRANCH  12  13
ENDBRANCH   2  11
TORSDOF 3
ENDMDL
MODEL 2
REMARK VINA RESULT:    -7.125      2.816      8.687
REMARK INTER + INTRA:          -8.776
REMARK INTER:                  -8.414
REMARK INTRA:                  -0.362
REMARK UNBOUND:                -0.402
REMARK SMILES O=C(/C=C/C=C/c1ccc2c(c1)OCO2)N1CCCCC1
REMARK SMILES IDX 3 1 4 2 2 3 1 4 16 5 17 6 21 7 18 8 20 9 19 10 5 11 6 12
REMARK SMILES IDX 7 13 12 14 8 15 11 16 9 17 13 18 10 19 14 20 15 21
REMARK H PARENT
REMARK Flexibility Score: inf
ROOT
ATOM      1  C   UNL     1      98.466  83.436  85.331  1.00  0.00     0.071 C 
ATOM      2  C   UNL     1      98.202  82.443  84.484  1.00  0.00     0.006 C 
ENDROOT
BRANCH   1   3
ATOM      3  C   UNL     1      97.983  83.310  86.721  1.00  0.00     0.246 C 
ATOM      4  O   UNL     1      98.681  82.673  87.510  1.00  0.00    -0.270 OA
ATOM      5  N   UNL     1      96.769  83.916  87.044  1.00  0.00    -0.339 N 
ATOM      6  C   UNL     1      96.262  83.803  88.415  1.00  0.00     0.120 C 
ATOM      7  C   UNL     1      95.888  84.644  86.120  1.00  0.00     0.120 C 
ATOM      8  C   UNL     1      95.926  85.172  88.998  1.00  0.00     0.022 C 
ATOM      9  C   UNL     1      95.526  86.023  86.672  1.00  0.00     0.022 C 
ATOM     10  C   UNL     1      94.967  85.933  88.089  1.00  0.00     0.004 C 
ENDBRANCH   1   3
BRANCH   2  11
ATOM     11  C   UNL     1      98.634  82.475  83.103  1.00  0.00     0.001 C 
ATOM     12  C   UNL     1      97.941  83.104  82.140  1.00  0.00     0.008 C 
BRANCH  12  13
ATOM     13  C   UNL     1      98.329  83.161  80.720  1.00  0.00    -0.022 A 
ATOM     14  C   UNL     1      97.379  83.522  79.774  1.00  0.00     0.058 A 
ATOM     15  C   UNL     1      99.644  82.851  80.364  1.00  0.00     0.012 A 
ATOM     16  C   UNL     1      97.791  83.561  78.458  1.00  0.00     0.166 A 
ATOM     17  C   UNL     1     100.033  82.898  79.024  1.00  0.00     0.051 A 
ATOM     18  O   UNL     1      97.014  83.888  77.388  1.00  0.00    -0.454 OA
ATOM     19  C   UNL     1      99.082  83.258  78.092  1.00  0.00     0.165 A 
ATOM     20  C   UNL     1      97.962  83.757  76.310  1.00  0.00     0.468 C 
ATOM     21  O   UNL     1      99.276  83.357  76.749  1.00  0.00    -0.454 OA
ENDBRANCH  12  13
ENDBRANCH   2  11
TORSDOF 3
ENDMDL
MODEL 3
REMARK VINA RESULT:    -7.062     23.950     26.175
REMARK INTER + INTRA:          -8.703
REMARK INTER:                  -8.281
REMARK INTRA:                  -0.422
REMARK UNBOUND:                -0.402
REMARK SMILES O=C(/C=C/C=C/c1ccc2c(c1)OCO2)N1CCCCC1
REMARK SMILES IDX 3 1 4 2 2 3 1 4 16 5 17 6 21 7 18 8 20 9 19 10 5 11 6 12
REMARK SMILES IDX 7 13 12 14 8 15 11 16 9 17 13 18 10 19 14 20 15 21
REMARK H PARENT
REMARK Flexibility Score: inf
ROOT
ATOM      1  C   UNL     1      75.869  91.708  71.390  1.00  0.00     0.071 C 
ATOM      2  C   UNL     1      74.837  90.870  71.474  1.00  0.00     0.006 C 
ENDROOT
BRANCH   1   3
ATOM      3  C   UNL     1      75.668  93.103  71.828  1.00  0.00     0.246 C 
ATOM      4  O   UNL     1      74.762  93.743  71.293  1.00  0.00    -0.270 OA
ATOM      5  N   UNL     1      76.519  93.604  72.812  1.00  0.00    -0.339 N 
ATOM      6  C   UNL     1      76.347  94.988  73.264  1.00  0.00     0.120 C 
ATOM      7  C   UNL     1      77.638  92.886  73.441  1.00  0.00     0.120 C 
ATOM      8  C   UNL     1      76.219  95.067  74.781  1.00  0.00     0.022 C 
ATOM      9  C   UNL     1      77.546  92.946  74.966  1.00  0.00     0.022 C 
ATOM     10  C   UNL     1      77.396  94.380  75.466  1.00  0.00     0.004 C 
ENDBRANCH   1   3
BRANCH   2  11
ATOM     11  C   UNL     1      74.936  89.484  71.069  1.00  0.00     0.001 C 
ATOM     12  C   UNL     1      76.003  88.991  70.419  1.00  0.00     0.008 C 
BRANCH  12  13
ATOM     13  C   UNL     1      76.152  87.594  69.977  1.00  0.00    -0.022 A 
ATOM     14  C   UNL     1      77.342  87.197  69.383  1.00  0.00     0.058 A 
ATOM     15  C   UNL     1      75.090  86.707  70.169  1.00  0.00     0.012 A 
ATOM     16  C   UNL     1      77.434  85.879  68.986  1.00  0.00     0.166 A 
ATOM     17  C   UNL     1      75.210  85.377  69.758  1.00  0.00     0.051 A 
ATOM     18  O   UNL     1      78.510  85.299  68.387  1.00  0.00    -0.454 OA
ATOM     19  C   UNL     1      76.397  84.993  69.168  1.00  0.00     0.165 A 
ATOM     20  C   UNL     1      78.033  83.949  68.213  1.00  0.00     0.468 C 
ATOM     21  O   UNL     1      76.693  83.747  68.707  1.00  0.00    -0.454 OA
ENDBRANCH  12  13
ENDBRANCH   2  11
TORSDOF 3
ENDMDL
MODEL 4
REMARK VINA RESULT:    -6.907     24.908     26.243
REMARK INTER + INTRA:          -8.520
REMARK INTER:                  -8.135
REMARK INTRA:                  -0.385
REMARK UNBOUND:                -0.402
REMARK SMILES O=C(/C=C/C=C/c1ccc2c(c1)OCO2)N1CCCCC1
REMARK SMILES IDX 3 1 4 2 2 3 1 4 16 5 17 6 21 7 18 8 20 9 19 10 5 11 6 12
REMARK SMILES IDX 7 13 12 14 8 15 11 16 9 17 13 18 10 19 14 20 15 21
REMARK H PARENT
REMARK Flexibility Score: inf
ROOT
ATOM      1  C   UNL     1      76.821  85.337  68.229  1.00  0.00     0.071 C 
ATOM      2  C   UNL     1      77.599  86.230  68.838  1.00  0.00     0.006 C 
ENDROOT
BRANCH   1   3
ATOM      3  C   UNL     1      77.464  84.340  67.350  1.00  0.00     0.246 C 
ATOM      4  O   UNL     1      78.681  84.183  67.463  1.00  0.00    -0.270 OA
ATOM      5  N   UNL     1      76.655  83.649  66.450  1.00  0.00    -0.339 N 
ATOM      6  C   UNL     1      77.266  82.658  65.560  1.00  0.00     0.120 C 
ATOM      7  C   UNL     1      75.210  83.842  66.256  1.00  0.00     0.120 C 
ATOM      8  C   UNL     1      76.554  81.313  65.651  1.00  0.00     0.022 C 
ATOM      9  C   UNL     1      74.459  82.513  66.337  1.00  0.00     0.022 C 
ATOM     10  C   UNL     1      75.057  81.469  65.398  1.00  0.00     0.004 C 
ENDBRANCH   1   3
BRANCH   2  11
ATOM     11  C   UNL     1      77.061  87.245  69.719  1.00  0.00     0.001 C 
ATOM     12  C   UNL     1      75.784  87.656  69.659  1.00  0.00     0.008 C 
BRANCH  12  13
ATOM     13  C   UNL     1      75.188  88.689  70.523  1.00  0.00    -0.022 A 
ATOM     14  C   UNL     1      74.097  88.360  71.315  1.00  0.00     0.058 A 
ATOM     15  C   UNL     1      75.738  89.973  70.521  1.00  0.00     0.012 A 
ATOM     16  C   UNL     1      73.574  89.361  72.108  1.00  0.00     0.166 A 
ATOM     17  C   UNL     1      75.188  90.968  71.333  1.00  0.00     0.051 A 
ATOM     18  O   UNL     1      72.510  89.240  72.949  1.00  0.00    -0.454 OA
ATOM     19  C   UNL     1      74.105  90.631  72.117  1.00  0.00     0.165 A 
ATOM     20  C   UNL     1      72.432  90.575  73.488  1.00  0.00     0.468 C 
ATOM     21  O   UNL     1      73.441  91.463  72.965  1.00  0.00    -0.454 OA
ENDBRANCH  12  13
ENDBRANCH   2  11
TORSDOF 3
ENDMDL
MODEL 5
REMARK VINA RESULT:    -6.879      3.538      8.816
REMARK INTER + INTRA:          -8.487
REMARK INTER:                  -8.089
REMARK INTRA:                  -0.398
REMARK UNBOUND:                -0.402
REMARK SMILES O=C(/C=C/C=C/c1ccc2c(c1)OCO2)N1CCCCC1
REMARK SMILES IDX 3 1 4 2 2 3 1 4 16 5 17 6 21 7 18 8 20 9 19 10 5 11 6 12
REMARK SMILES IDX 7 13 12 14 8 15 11 16 9 17 13 18 10 19 14 20 15 21
REMARK H PARENT
REMARK Flexibility Score: inf
ROOT
ATOM      1  C   UNL     1      98.155  82.549  85.050  1.00  0.00     0.071 C 
ATOM      2  C   UNL     1      97.386  83.356  84.322  1.00  0.00     0.006 C 
ENDROOT
BRANCH   1   3
ATOM      3  C   UNL     1      97.850  82.408  86.488  1.00  0.00     0.246 C 
ATOM      4  O   UNL     1      96.843  81.769  86.796  1.00  0.00    -0.270 OA
ATOM      5  N   UNL     1      98.717  83.010  87.398  1.00  0.00    -0.339 N 
ATOM      6  C   UNL     1      98.437  82.892  88.832  1.00  0.00     0.120 C 
ATOM      7  C   UNL     1      99.902  83.817  87.067  1.00  0.00     0.120 C 
ATOM      8  C   UNL     1      99.647  82.363  89.594  1.00  0.00     0.022 C 
ATOM      9  C   UNL     1     101.137  83.318  87.816  1.00  0.00     0.022 C 
ATOM     10  C   UNL     1     100.883  83.213  89.317  1.00  0.00     0.004 C 
ENDBRANCH   1   3
BRANCH   2  11
ATOM     11  C   UNL     1      97.606  83.558  82.906  1.00  0.00     0.001 C 
ATOM     12  C   UNL     1      98.388  82.753  82.170  1.00  0.00     0.008 C 
BRANCH  12  13
ATOM     13  C   UNL     1      98.653  82.917  80.731  1.00  0.00    -0.022 A 
ATOM     14  C   UNL     1      97.632  83.364  79.903  1.00  0.00     0.058 A 
ATOM     15  C   UNL     1      99.926  82.620  80.237  1.00  0.00     0.012 A 
ATOM     16  C   UNL     1      97.929  83.503  78.562  1.00  0.00     0.166 A 
ATOM     17  C   UNL     1     100.199  82.770  78.876  1.00  0.00     0.051 A 
ATOM     18  O   UNL     1      97.069  83.923  77.594  1.00  0.00    -0.454 OA
ATOM     19  C   UNL     1      99.178  83.214  78.062  1.00  0.00     0.165 A 
ATOM     20  C   UNL     1      97.917  83.866  76.429  1.00  0.00     0.468 C 
ATOM     21  O   UNL     1      99.257  83.417  76.719  1.00  0.00    -0.454 OA
ENDBRANCH  12  13
ENDBRANCH   2  11
TORSDOF 3
ENDMDL
MODEL 6
REMARK VINA RESULT:    -6.839      2.235      2.922
REMARK INTER + INTRA:          -8.440
REMARK INTER:                  -8.135
REMARK INTRA:                  -0.305
REMARK UNBOUND:                -0.402
REMARK SMILES O=C(/C=C/C=C/c1ccc2c(c1)OCO2)N1CCCCC1
REMARK SMILES IDX 3 1 4 2 2 3 1 4 16 5 17 6 21 7 18 8 20 9 19 10 5 11 6 12
REMARK SMILES IDX 7 13 12 14 8 15 11 16 9 17 13 18 10 19 14 20 15 21
REMARK H PARENT
REMARK Flexibility Score: inf
ROOT
ATOM      1  C   UNL     1      98.094  82.589  79.321  1.00  0.00     0.071 C 
ATOM      2  C   UNL     1      98.593  83.343  80.299  1.00  0.00     0.006 C 
ENDROOT
BRANCH   1   3
ATOM      3  C   UNL     1      98.078  83.147  77.954  1.00  0.00     0.246 C 
ATOM      4  O   UNL     1      97.049  83.713  77.583  1.00  0.00    -0.270 OA
ATOM      5  N   UNL     1      99.223  82.991  77.175  1.00  0.00    -0.339 N 
ATOM      6  C   UNL     1      99.234  83.530  75.811  1.00  0.00     0.120 C 
ATOM      7  C   UNL     1     100.451  82.284  77.566  1.00  0.00     0.120 C 
ATOM      8  C   UNL     1     100.442  84.432  75.578  1.00  0.00     0.022 C 
ATOM      9  C   UNL     1     101.687  83.155  77.344  1.00  0.00     0.022 C 
ATOM     10  C   UNL     1     101.739  83.707  75.922  1.00  0.00     0.004 C 
ENDBRANCH   1   3
BRANCH   2  11
ATOM     11  C   UNL     1      98.652  82.884  81.670  1.00  0.00     0.001 C 
ATOM     12  C   UNL     1      97.786  83.294  82.611  1.00  0.00     0.008 C 
BRANCH  12  13
ATOM     13  C   UNL     1      97.806  82.866  84.020  1.00  0.00    -0.022 A 
ATOM     14  C   UNL     1      97.951  83.823  85.015  1.00  0.00     0.058 A 
ATOM     15  C   UNL     1      97.677  81.506  84.317  1.00  0.00     0.012 A 
ATOM     16  C   UNL     1      97.963  83.373  86.320  1.00  0.00     0.166 A 
ATOM     17  C   UNL     1      97.692  81.079  85.647  1.00  0.00     0.051 A 
ATOM     18  O   UNL     1      98.096  84.149  87.430  1.00  0.00    -0.454 OA
ATOM     19  C   UNL     1      97.837  82.038  86.627  1.00  0.00     0.165 A 
ATOM     20  C   UNL     1      98.040  83.152  88.471  1.00  0.00     0.468 C 
ATOM     21  O   UNL     1      97.875  81.810  87.969  1.00  0.00    -0.454 OA
ENDBRANCH  12  13
ENDBRANCH   2  11
TORSDOF 3
ENDMDL
MODEL 7
REMARK VINA RESULT:    -6.797      3.046      9.006
REMARK INTER + INTRA:          -8.391
REMARK INTER:                  -8.066
REMARK INTRA:                  -0.326
REMARK UNBOUND:                -0.402
REMARK SMILES O=C(/C=C/C=C/c1ccc2c(c1)OCO2)N1CCCCC1
REMARK SMILES IDX 3 1 4 2 2 3 1 4 16 5 17 6 21 7 18 8 20 9 19 10 5 11 6 12
REMARK SMILES IDX 7 13 12 14 8 15 11 16 9 17 13 18 10 19 14 20 15 21
REMARK H PARENT
REMARK Flexibility Score: inf
ROOT
ATOM      1  C   UNL     1      96.129  83.512  85.295  1.00  0.00     0.071 C 
ATOM      2  C   UNL     1      97.324  83.467  84.710  1.00  0.00     0.006 C 
ENDROOT
BRANCH   1   3
ATOM      3  C   UNL     1      96.074  83.436  86.769  1.00  0.00     0.246 C 
ATOM      4  O   UNL     1      96.990  83.965  87.400  1.00  0.00    -0.270 OA
ATOM      5  N   UNL     1      94.995  82.769  87.345  1.00  0.00    -0.339 N 
ATOM      6  C   UNL     1      94.916  82.672  88.806  1.00  0.00     0.120 C 
ATOM      7  C   UNL     1      93.909  82.088  86.624  1.00  0.00     0.120 C 
ATOM      8  C   UNL     1      93.569  83.165  89.325  1.00  0.00     0.022 C 
ATOM      9  C   UNL     1      92.539  82.553  87.120  1.00  0.00     0.022 C 
ATOM     10  C   UNL     1      92.419  82.437  88.636  1.00  0.00     0.004 C 
ENDBRANCH   1   3
BRANCH   2  11
ATOM     11  C   UNL     1      97.480  83.534  83.272  1.00  0.00     0.001 C 
ATOM     12  C   UNL     1      98.481  82.921  82.621  1.00  0.00     0.008 C 
BRANCH  12  13
ATOM     13  C   UNL     1      98.691  82.963  81.163  1.00  0.00    -0.022 A 
ATOM     14  C   UNL     1      97.654  83.389  80.344  1.00  0.00     0.058 A 
ATOM     15  C   UNL     1      99.928  82.573  80.646  1.00  0.00     0.012 A 
ATOM     16  C   UNL     1      97.899  83.411  78.986  1.00  0.00     0.166 A 
ATOM     17  C   UNL     1     100.148  82.605  79.267  1.00  0.00     0.051 A 
ATOM     18  O   UNL     1      97.016  83.794  78.022  1.00  0.00    -0.454 OA
ATOM     19  C   UNL     1      99.113  83.030  78.461  1.00  0.00     0.165 A 
ATOM     20  C   UNL     1      97.811  83.610  76.833  1.00  0.00     0.468 C 
ATOM     21  O   UNL     1      99.142  83.126  77.104  1.00  0.00    -0.454 OA
ENDBRANCH  12  13
ENDBRANCH   2  11
TORSDOF 3
ENDMDL
MODEL 8
REMARK VINA RESULT:    -6.653     24.348     25.587
REMARK INTER + INTRA:          -8.221
REMARK INTER:                  -7.890
REMARK INTRA:                  -0.331
REMARK UNBOUND:                -0.402
REMARK SMILES O=C(/C=C/C=C/c1ccc2c(c1)OCO2)N1CCCCC1
REMARK SMILES IDX 3 1 4 2 2 3 1 4 16 5 17 6 21 7 18 8 20 9 19 10 5 11 6 12
REMARK SMILES IDX 7 13 12 14 8 15 11 16 9 17 13 18 10 19 14 20 15 21
REMARK H PARENT
REMARK Flexibility Score: inf
ROOT
ATOM      1  C   UNL     1      76.010  88.585  70.108  1.00  0.00     0.071 C 
ATOM      2  C   UNL     1      75.339  89.511  70.790  1.00  0.00     0.006 C 
ENDROOT
BRANCH   1   3
ATOM      3  C   UNL     1      75.508  87.197  70.142  1.00  0.00     0.246 C 
ATOM      4  O   UNL     1      74.325  87.026  70.438  1.00  0.00    -0.270 OA
ATOM      5  N   UNL     1      76.407  86.174  69.842  1.00  0.00    -0.339 N 
ATOM      6  C   UNL     1      75.939  84.784  69.873  1.00  0.00     0.120 C 
ATOM      7  C   UNL     1      77.834  86.335  69.529  1.00  0.00     0.120 C 
ATOM      8  C   UNL     1      76.263  84.058  68.572  1.00  0.00     0.022 C 
ATOM      9  C   UNL     1      78.200  85.616  68.230  1.00  0.00     0.022 C 
ATOM     10  C   UNL     1      77.750  84.158  68.246  1.00  0.00     0.004 C 
ENDBRANCH   1   3
BRANCH   2  11
ATOM     11  C   UNL     1      75.753  90.897  70.818  1.00  0.00     0.001 C 
ATOM     12  C   UNL     1      76.552  91.398  71.773  1.00  0.00     0.008 C 
BRANCH  12  13
ATOM     13  C   UNL     1      76.997  92.800  71.854  1.00  0.00    -0.022 A 
ATOM     14  C   UNL     1      76.174  93.799  71.352  1.00  0.00     0.058 A 
ATOM     15  C   UNL     1      78.236  93.085  72.433  1.00  0.00     0.012 A 
ATOM     16  C   UNL     1      76.634  95.096  71.451  1.00  0.00     0.166 A 
ATOM     17  C   UNL     1      78.676  94.408  72.519  1.00  0.00     0.051 A 
ATOM     18  O   UNL     1      75.979  96.210  71.019  1.00  0.00    -0.454 OA
ATOM     19  C   UNL     1      77.851  95.393  72.019  1.00  0.00     0.165 A 
ATOM     20  C   UNL     1      76.922  97.240  71.380  1.00  0.00     0.468 C 
ATOM     21  O   UNL     1      78.112  96.729  72.014  1.00  0.00    -0.454 OA
ENDBRANCH  12  13
ENDBRANCH   2  11
TORSDOF 3
ENDMDL
MODEL 9
REMARK VINA RESULT:    -6.633      1.930      2.929
REMARK INTER + INTRA:          -8.197
REMARK INTER:                  -7.804
REMARK INTRA:                  -0.394
REMARK UNBOUND:                -0.402
REMARK SMILES O=C(/C=C/C=C/c1ccc2c(c1)OCO2)N1CCCCC1
REMARK SMILES IDX 3 1 4 2 2 3 1 4 16 5 17 6 21 7 18 8 20 9 19 10 5 11 6 12
REMARK SMILES IDX 7 13 12 14 8 15 11 16 9 17 13 18 10 19 14 20 15 21
REMARK H PARENT
REMARK Flexibility Score: inf
ROOT
ATOM      1  C   UNL     1      99.006  81.946  80.286  1.00  0.00     0.071 C 
ATOM      2  C   UNL     1      98.676  83.185  80.646  1.00  0.00     0.006 C 
ENDROOT
BRANCH   1   3
ATOM      3  C   UNL     1      99.875  81.774  79.104  1.00  0.00     0.246 C 
ATOM      4  O   UNL     1      99.418  82.104  78.010  1.00  0.00    -0.270 OA
ATOM      5  N   UNL     1     101.149  81.246  79.306  1.00  0.00    -0.339 N 
ATOM      6  C   UNL     1     102.032  81.058  78.151  1.00  0.00     0.120 C 
ATOM      7  C   UNL     1     101.711  80.799  80.589  1.00  0.00     0.120 C 
ATOM      8  C   UNL     1     103.388  81.719  78.374  1.00  0.00     0.022 C 
ATOM      9  C   UNL     1     103.076  81.438  80.847  1.00  0.00     0.022 C 
ATOM     10  C   UNL     1     104.026  81.233  79.671  1.00  0.00     0.004 C 
ENDBRANCH   1   3
BRANCH   2  11
ATOM     11  C   UNL     1      97.830  83.454  81.789  1.00  0.00     0.001 C 
ATOM     12  C   UNL     1      98.179  83.129  83.044  1.00  0.00     0.008 C 
BRANCH  12  13
ATOM     13  C   UNL     1      97.354  83.373  84.240  1.00  0.00    -0.022 A 
ATOM     14  C   UNL     1      96.998  84.675  84.561  1.00  0.00     0.058 A 
ATOM     15  C   UNL     1      96.953  82.285  85.019  1.00  0.00     0.012 A 
ATOM     16  C   UNL     1      96.225  84.853  85.690  1.00  0.00     0.166 A 
ATOM     17  C   UNL     1      96.170  82.493  86.156  1.00  0.00     0.051 A 
ATOM     18  O   UNL     1      95.776  86.045  86.171  1.00  0.00    -0.454 OA
ATOM     19  C   UNL     1      95.822  83.791  86.467  1.00  0.00     0.165 A 
ATOM     20  C   UNL     1      95.045  85.613  87.337  1.00  0.00     0.468 C 
ATOM     21  O   UNL     1      95.070  84.184  87.531  1.00  0.00    -0.454 OA
ENDBRANCH  12  13
ENDBRANCH   2  11
TORSDOF 3
ENDMDL
MODEL 10
REMARK VINA RESULT:    -6.511     17.776     19.501
REMARK INTER + INTRA:          -8.054
REMARK INTER:                  -7.630
REMARK INTRA:                  -0.424
REMARK UNBOUND:                -0.402
REMARK SMILES O=C(/C=C/C=C/c1ccc2c(c1)OCO2)N1CCCCC1
REMARK SMILES IDX 3 1 4 2 2 3 1 4 16 5 17 6 21 7 18 8 20 9 19 10 5 11 6 12
REMARK SMILES IDX 7 13 12 14 8 15 11 16 9 17 13 18 10 19 14 20 15 21
REMARK H PARENT
REMARK Flexibility Score: inf
ROOT
ATOM      1  C   UNL     1      90.813 100.239  71.768  1.00  0.00     0.071 C 
ATOM      2  C   UNL     1      92.135 100.234  71.603  1.00  0.00     0.006 C 
ENDROOT
BRANCH   1   3
ATOM      3  C   UNL     1      89.966 100.480  70.583  1.00  0.00     0.246 C 
ATOM      4  O   UNL     1      89.928 101.626  70.134  1.00  0.00    -0.270 OA
ATOM      5  N   UNL     1      89.264  99.397  70.056  1.00  0.00    -0.339 N 
ATOM      6  C   UNL     1      88.410  99.606  68.883  1.00  0.00     0.120 C 
ATOM      7  C   UNL     1      89.250  98.027  70.591  1.00  0.00     0.120 C 
ATOM      8  C   UNL     1      88.742  98.618  67.770  1.00  0.00     0.022 C 
ATOM      9  C   UNL     1      89.575  97.005  69.502  1.00  0.00     0.022 C 
ATOM     10  C   UNL     1      88.680  97.181  68.278  1.00  0.00     0.004 C 
ENDBRANCH   1   3
BRANCH   2  11
ATOM     11  C   UNL     1      93.047 100.007  72.704  1.00  0.00     0.001 C 
ATOM     12  C   UNL     1      92.646  99.527  73.892  1.00  0.00     0.008 C 
BRANCH  12  13
ATOM     13  C   UNL     1      93.529  99.286  75.046  1.00  0.00    -0.022 A 
ATOM     14  C   UNL     1      93.645  97.997  75.550  1.00  0.00     0.058 A 
ATOM     15  C   UNL     1      94.225 100.361  75.603  1.00  0.00     0.012 A 
ATOM     16  C   UNL     1      94.484  97.822  76.632  1.00  0.00     0.166 A 
ATOM     17  C   UNL     1      95.068 100.155  76.698  1.00  0.00     0.051 A 
ATOM     18  O   UNL     1      94.730  96.643  77.267  1.00  0.00    -0.454 OA
ATOM     19  C   UNL     1      95.176  98.871  77.190  1.00  0.00     0.165 A 
ATOM     20  C   UNL     1      95.656  97.069  78.288  1.00  0.00     0.468 C 
ATOM     21  O   UNL     1      95.943  98.482  78.245  1.00  0.00    -0.454 OA
ENDBRANCH  12  13
ENDBRANCH   2  11
TORSDOF 3
ENDMDL
