MODEL 1
REMARK VINA RESULT:    -7.154      0.000      0.000
REMARK INTER + INTRA:         -13.252
REMARK INTER:                 -12.591
REMARK INTRA:                  -0.661
REMARK UNBOUND:                -0.661
REMARK SMILES C=C(C)[C@]12C[C@@H](C)[C@@]34O[C@](Cc5ccccc5)(O[C@@H]1[C@@H]3C=C(COC(=O)Cc1ccc(O)c(OC)c1)C[C@]1(O)C(=O)C(C)=C[C@@H]41)O2
REMARK SMILES IDX 23 1 22 2 21 3 20 4 9 5 8 6 10 7 6 8 18 9 46 10 19 11 5 12
REMARK SMILES IDX 7 13 4 14 45 15 38 16 44 17 40 18 42 20 41 21 43 22 39 23
REMARK SMILES IDX 11 25 12 26 13 27 17 28 14 29 16 30 15 31 2 32 3 33 1 34
REMARK SMILES IDX 37 35 24 37 25 38 26 39 27 40 28 41 36 42 29 43 33 44 30 45
REMARK SMILES IDX 31 46 34 47 35 48 32 49
REMARK H PARENT 39 24 32 50
REMARK Flexibility Score: 90.00
ROOT
ATOM      1  C   UNL     1      96.557  81.267  84.060  1.00  0.00     0.264 C 
ENDROOT
BRANCH   1   2
ATOM      2  C   UNL     1      95.302  81.832  84.683  1.00  0.00    -0.033 C 
ATOM      3  C   UNL     1      94.159  81.119  84.627  1.00  0.00    -0.015 C 
BRANCH   3   4
ATOM      4  C   UNL     1      92.764  81.493  85.101  1.00  0.00     0.078 C 
ATOM      5  O   UNL     1      92.541  80.652  87.417  1.00  0.00    -0.319 OA
ATOM      6  C   UNL     1      92.565  81.874  86.615  1.00  0.00     0.095 C 
ATOM      7  C   UNL     1      91.780  79.564  86.859  1.00  0.00     0.289 C 
ATOM      8  C   UNL     1      91.169  82.612  86.745  1.00  0.00     0.023 C 
ATOM      9  O   UNL     1      92.256  79.211  85.562  1.00  0.00    -0.320 OA
ATOM     10  O   UNL     1      90.406  79.897  86.686  1.00  0.00    -0.313 OA
ATOM     11  C   UNL     1      91.780  80.334  84.805  1.00  0.00     0.170 C 
ATOM     12  C   UNL     1      90.131  82.055  85.723  1.00  0.00     0.049 C 
ATOM     13  C   UNL     1      90.551  82.613  88.153  1.00  0.00     0.011 C 
ATOM     14  C   UNL     1      90.377  80.578  85.415  1.00  0.00     0.122 C 
BRANCH   6  15
ATOM     15  C   UNL     1      93.793  82.666  87.151  1.00  0.00     0.086 C 
ATOM     16  C   UNL     1      94.370  83.743  86.210  1.00  0.00     0.140 CG0
ATOM     17  C   UNL     1      93.693  83.373  88.473  1.00  0.00    -0.010 C 
ATOM     18  C   UNL     1      94.836  84.808  87.181  1.00  0.00     0.190 C 
ATOM     19  G   UNL     1      95.507  83.204  85.343  1.00  0.00     0.000 G0
ATOM     20  C   UNL     1      94.293  84.567  88.531  1.00  0.00    -0.008 C 
ATOM     21  O   UNL     1      95.527  85.774  86.894  1.00  0.00    -0.291 OA
ATOM     22  C   UNL     1      94.466  85.491  89.670  1.00  0.00     0.048 C 
BRANCH  16  23
ATOM     23  O   UNL     1      93.391  84.405  85.426  1.00  0.00    -0.381 OA
ATOM     24  H   UNL     1      92.742  84.812  86.025  1.00  0.00     0.212 HD
ENDBRANCH  16  23
ENDBRANCH   6  15
BRANCH   7  25
ATOM     25  C   UNL     1      91.900  78.374  87.789  1.00  0.00     0.135 C 
BRANCH  25  26
ATOM     26  C   UNL     1      90.836  77.338  87.522  1.00  0.00    -0.040 A 
ATOM     27  C   UNL     1      89.965  76.954  88.542  1.00  0.00     0.004 A 
ATOM     28  C   UNL     1      90.722  76.765  86.256  1.00  0.00     0.004 A 
ATOM     29  C   UNL     1      88.981  75.996  88.295  1.00  0.00     0.000 A 
ATOM     30  C   UNL     1      89.738  75.808  86.009  1.00  0.00     0.000 A 
ATOM     31  C   UNL     1      88.868  75.424  87.029  1.00  0.00     0.000 A 
ENDBRANCH  25  26
ENDBRANCH   7  25
BRANCH  14  32
ATOM     32  C   UNL     1      89.291  79.976  84.584  1.00  0.00    -0.046 C 
ATOM     33  C   UNL     1      87.889  80.370  84.940  1.00  0.00     0.042 C 
ATOM     34  C   UNL     1      89.555  79.131  83.576  1.00  0.00     0.010 C 
ENDBRANCH  14  32
ENDBRANCH   3   4
BRANCH   2  35
ATOM     35  C   UNL     1      95.515  83.190  85.324  1.00  0.00     0.078 CG0
ATOM     36  G   UNL     1      94.391  83.731  86.207  1.00  0.00     0.000 G0
ENDBRANCH   2  35
ENDBRANCH   1   2
BRANCH   1  37
ATOM     37  O   UNL     1      96.797  81.909  82.827  1.00  0.00    -0.461 OA
BRANCH  37  38
ATOM     38  C   UNL     1      96.691  81.125  81.702  1.00  0.00     0.310 C 
ATOM     39  O   UNL     1      96.382  79.942  81.697  1.00  0.00    -0.252 OA
BRANCH  38  40
ATOM     40  C   UNL     1      97.015  81.951  80.479  1.00  0.00     0.158 C 
BRANCH  40  41
ATOM     41  C   UNL     1      97.961  81.255  79.534  1.00  0.00    -0.033 A 
ATOM     42  C   UNL     1      97.732  81.302  78.158  1.00  0.00     0.054 A 
ATOM     43  C   UNL     1      99.065  80.566  80.034  1.00  0.00     0.008 A 
ATOM     44  C   UNL     1      98.607  80.658  77.283  1.00  0.00     0.160 A 
ATOM     45  C   UNL     1      99.941  79.922  79.159  1.00  0.00     0.050 A 
ATOM     46  C   UNL     1      99.712  79.968  77.784  1.00  0.00     0.157 A 
BRANCH  44  47
ATOM     47  O   UNL     1      98.373  80.710  75.943  1.00  0.00    -0.493 OA
ATOM     48  C   UNL     1      97.140  81.292  75.522  1.00  0.00     0.278 C 
ENDBRANCH  44  47
BRANCH  46  49
ATOM     49  O   UNL     1     100.574  79.337  76.940  1.00  0.00    -0.504 OA
ATOM     50  H   UNL     1     101.371  79.080  77.434  1.00  0.00     0.293 HD
ENDBRANCH  46  49
ENDBRANCH  40  41
ENDBRANCH  38  40
ENDBRANCH  37  38
ENDBRANCH   1  37
TORSDOF 11
ENDMDL
MODEL 2
REMARK VINA RESULT:    -6.720     19.097     23.101
REMARK INTER + INTRA:         -12.489
REMARK INTER:                 -11.628
REMARK INTRA:                  -0.861
REMARK UNBOUND:                -0.661
REMARK SMILES C=C(C)[C@]12C[C@@H](C)[C@@]34O[C@](Cc5ccccc5)(O[C@@H]1[C@@H]3C=C(COC(=O)Cc1ccc(O)c(OC)c1)C[C@]1(O)C(=O)C(C)=C[C@@H]41)O2
REMARK SMILES IDX 23 1 22 2 21 3 20 4 9 5 8 6 10 7 6 8 18 9 46 10 19 11 5 12
REMARK SMILES IDX 7 13 4 14 45 15 38 16 44 17 40 18 42 20 41 21 43 22 39 23
REMARK SMILES IDX 11 25 12 26 13 27 17 28 14 29 16 30 15 31 2 32 3 33 1 34
REMARK SMILES IDX 37 35 24 37 25 38 26 39 27 40 28 41 36 42 29 43 33 44 30 45
REMARK SMILES IDX 31 46 34 47 35 48 32 49
REMARK H PARENT 39 24 32 50
REMARK Flexibility Score: 90.00
ROOT
ATOM      1  C   UNL     1      95.912  97.748  73.914  1.00  0.00     0.264 C 
ENDROOT
BRANCH   1   2
ATOM      2  C   UNL     1      95.600  98.392  72.583  1.00  0.00    -0.033 C 
ATOM      3  C   UNL     1      94.374  98.914  72.375  1.00  0.00    -0.015 C 
BRANCH   3   4
ATOM      4  C   UNL     1      93.793  99.539  71.117  1.00  0.00     0.078 C 
ATOM      5  O   UNL     1      94.215 101.972  71.260  1.00  0.00    -0.319 OA
ATOM      6  C   UNL     1      94.533 100.775  70.485  1.00  0.00     0.095 C 
ATOM      7  C   UNL     1      92.836 102.103  71.654  1.00  0.00     0.289 C 
ATOM      8  C   UNL     1      93.994 100.952  69.005  1.00  0.00     0.023 C 
ATOM      9  O   UNL     1      92.406 100.977  72.415  1.00  0.00    -0.320 OA
ATOM     10  O   UNL     1      91.958 102.168  70.533  1.00  0.00    -0.313 OA
ATOM     11  C   UNL     1      92.333  99.986  71.379  1.00  0.00     0.170 C 
ATOM     12  C   UNL     1      92.495 100.534  68.890  1.00  0.00     0.049 C 
ATOM     13  C   UNL     1      94.183 102.351  68.396  1.00  0.00     0.011 C 
ATOM     14  C   UNL     1      91.736 100.784  70.193  1.00  0.00     0.122 C 
BRANCH   6  15
ATOM     15  C   UNL     1      96.076 100.623  70.620  1.00  0.00     0.086 C 
ATOM     16  C   UNL     1      96.650  99.223  70.316  1.00  0.00     0.140 CG0
ATOM     17  C   UNL     1      96.978 101.546  69.849  1.00  0.00    -0.010 C 
ATOM     18  C   UNL     1      97.992  99.549  69.694  1.00  0.00     0.190 C 
ATOM     19  G   UNL     1      96.782  98.368  71.576  1.00  0.00     0.000 G0
ATOM     20  C   UNL     1      98.076 100.979  69.339  1.00  0.00    -0.008 C 
ATOM     21  O   UNL     1      98.879  98.743  69.460  1.00  0.00    -0.291 OA
ATOM     22  C   UNL     1      99.208 101.585  68.608  1.00  0.00     0.048 C 
BRANCH  16  23
ATOM     23  O   UNL     1      95.960  98.530  69.290  1.00  0.00    -0.381 OA
ATOM     24  H   UNL     1      95.902  99.111  68.513  1.00  0.00     0.212 HD
ENDBRANCH  16  23
ENDBRANCH   6  15
BRANCH   7  25
ATOM     25  C   UNL     1      92.696 103.365  72.481  1.00  0.00     0.135 C 
BRANCH  25  26
ATOM     26  C   UNL     1      91.547 103.277  73.455  1.00  0.00    -0.040 A 
ATOM     27  C   UNL     1      90.241 103.146  72.982  1.00  0.00     0.004 A 
ATOM     28  C   UNL     1      91.790 103.325  74.827  1.00  0.00     0.004 A 
ATOM     29  C   UNL     1      89.178 103.065  73.882  1.00  0.00     0.000 A 
ATOM     30  C   UNL     1      90.727 103.244  75.727  1.00  0.00     0.000 A 
ATOM     31  C   UNL     1      89.421 103.114  75.254  1.00  0.00     0.000 A 
ENDBRANCH  25  26
ENDBRANCH   7  25
BRANCH  14  32
ATOM     32  C   UNL     1      90.265 100.564  70.052  1.00  0.00    -0.046 C 
ATOM     33  C   UNL     1      89.571 101.381  69.004  1.00  0.00     0.042 C 
ATOM     34  C   UNL     1      89.603  99.686  70.820  1.00  0.00     0.010 C 
ENDBRANCH  14  32
ENDBRANCH   3   4
BRANCH   2  35
ATOM     35  C   UNL     1      96.772  98.369  71.621  1.00  0.00     0.078 CG0
ATOM     36  G   UNL     1      96.645  99.197  70.344  1.00  0.00     0.000 G0
ENDBRANCH   2  35
ENDBRANCH   1   2
BRANCH   1  37
ATOM     37  O   UNL     1      95.554  96.383  73.867  1.00  0.00    -0.461 OA
BRANCH  37  38
ATOM     38  C   UNL     1      94.567  95.983  74.738  1.00  0.00     0.310 C 
ATOM     39  O   UNL     1      93.749  96.727  75.262  1.00  0.00    -0.252 OA
BRANCH  38  40
ATOM     40  C   UNL     1      94.653  94.489  74.945  1.00  0.00     0.158 C 
BRANCH  40  41
ATOM     41  C   UNL     1      93.640  93.975  75.936  1.00  0.00    -0.033 A 
ATOM     42  C   UNL     1      92.508  93.294  75.486  1.00  0.00     0.054 A 
ATOM     43  C   UNL     1      93.835  94.178  77.302  1.00  0.00     0.008 A 
ATOM     44  C   UNL     1      91.571  92.817  76.403  1.00  0.00     0.160 A 
ATOM     45  C   UNL     1      92.898  93.701  78.219  1.00  0.00     0.050 A 
ATOM     46  C   UNL     1      91.766  93.021  77.770  1.00  0.00     0.157 A 
BRANCH  44  47
ATOM     47  O   UNL     1      90.470  92.155  75.952  1.00  0.00    -0.493 OA
ATOM     48  C   UNL     1      90.626  90.770  75.648  1.00  0.00     0.278 C 
ENDBRANCH  44  47
BRANCH  46  49
ATOM     49  O   UNL     1      90.858  92.560  78.674  1.00  0.00    -0.504 OA
ATOM     50  H   UNL     1      90.331  93.307  79.003  1.00  0.00     0.293 HD
ENDBRANCH  46  49
ENDBRANCH  40  41
ENDBRANCH  38  40
ENDBRANCH  37  38
ENDBRANCH   1  37
TORSDOF 11
ENDMDL
MODEL 3
REMARK VINA RESULT:    -6.559     20.357     24.124
REMARK INTER + INTRA:         -12.204
REMARK INTER:                 -11.317
REMARK INTRA:                  -0.887
REMARK UNBOUND:                -0.661
REMARK SMILES C=C(C)[C@]12C[C@@H](C)[C@@]34O[C@](Cc5ccccc5)(O[C@@H]1[C@@H]3C=C(COC(=O)Cc1ccc(O)c(OC)c1)C[C@]1(O)C(=O)C(C)=C[C@@H]41)O2
REMARK SMILES IDX 23 1 22 2 21 3 20 4 9 5 8 6 10 7 6 8 18 9 46 10 19 11 5 12
REMARK SMILES IDX 7 13 4 14 45 15 38 16 44 17 40 18 42 20 41 21 43 22 39 23
REMARK SMILES IDX 11 25 12 26 13 27 17 28 14 29 16 30 15 31 2 32 3 33 1 34
REMARK SMILES IDX 37 35 24 37 25 38 26 39 27 40 28 41 36 42 29 43 33 44 30 45
REMARK SMILES IDX 31 46 34 47 35 48 32 49
REMARK H PARENT 39 24 32 50
REMARK Flexibility Score: 90.00
ROOT
ATOM      1  C   UNL     1      95.772  98.973  72.466  1.00  0.00     0.264 C 
ENDROOT
BRANCH   1   2
ATOM      2  C   UNL     1      95.124  99.766  71.355  1.00  0.00    -0.033 C 
ATOM      3  C   UNL     1      93.872  99.452  70.965  1.00  0.00    -0.015 C 
BRANCH   3   4
ATOM      4  C   UNL     1      93.038 100.037  69.837  1.00  0.00     0.078 C 
ATOM      5  O   UNL     1      91.684 101.863  70.813  1.00  0.00    -0.319 OA
ATOM      6  C   UNL     1      92.744 101.584  69.847  1.00  0.00     0.095 C 
ATOM      7  C   UNL     1      90.581 100.937  70.804  1.00  0.00     0.289 C 
ATOM      8  C   UNL     1      92.249 101.987  68.397  1.00  0.00     0.023 C 
ATOM      9  O   UNL     1      91.025  99.602  71.034  1.00  0.00    -0.320 OA
ATOM     10  O   UNL     1      89.910 100.908  69.547  1.00  0.00    -0.313 OA
ATOM     11  C   UNL     1      91.662  99.328  69.778  1.00  0.00     0.170 C 
ATOM     12  C   UNL     1      91.441 100.834  67.727  1.00  0.00     0.049 C 
ATOM     13  C   UNL     1      91.441 103.293  68.315  1.00  0.00     0.011 C 
ATOM     14  C   UNL     1      90.697  99.989  68.762  1.00  0.00     0.122 C 
BRANCH   6  15
ATOM     15  C   UNL     1      93.973 102.375  70.379  1.00  0.00     0.086 C 
ATOM     16  C   UNL     1      95.352 101.922  69.856  1.00  0.00     0.140 CG0
ATOM     17  C   UNL     1      94.013 103.869  70.219  1.00  0.00    -0.010 C 
ATOM     18  C   UNL     1      96.118 103.226  69.782  1.00  0.00     0.190 C 
ATOM     19  G   UNL     1      96.016 100.905  70.784  1.00  0.00     0.000 G0
ATOM     20  C   UNL     1      95.209 104.381  69.911  1.00  0.00    -0.008 C 
ATOM     21  O   UNL     1      97.320 103.332  69.591  1.00  0.00    -0.291 OA
ATOM     22  C   UNL     1      95.632 105.788  69.761  1.00  0.00     0.048 C 
BRANCH  16  23
ATOM     23  O   UNL     1      95.335 101.464  68.514  1.00  0.00    -0.381 OA
ATOM     24  H   UNL     1      94.657 101.963  68.028  1.00  0.00     0.212 HD
ENDBRANCH  16  23
ENDBRANCH   6  15
BRANCH   7  25
ATOM     25  C   UNL     1      89.606 101.348  71.889  1.00  0.00     0.135 C 
BRANCH  25  26
ATOM     26  C   UNL     1      89.807 102.780  72.317  1.00  0.00    -0.040 A 
ATOM     27  C   UNL     1      90.412 103.063  73.542  1.00  0.00     0.004 A 
ATOM     28  C   UNL     1      89.390 103.821  71.488  1.00  0.00     0.004 A 
ATOM     29  C   UNL     1      90.598 104.387  73.939  1.00  0.00     0.000 A 
ATOM     30  C   UNL     1      89.577 105.146  71.885  1.00  0.00     0.000 A 
ATOM     31  C   UNL     1      90.181 105.428  73.110  1.00  0.00     0.000 A 
ENDBRANCH  25  26
ENDBRANCH   7  25
BRANCH  14  32
ATOM     32  C   UNL     1      89.775  98.995  68.135  1.00  0.00    -0.046 C 
ATOM     33  C   UNL     1      89.259  99.339  66.770  1.00  0.00     0.042 C 
ATOM     34  C   UNL     1      89.427  97.859  68.759  1.00  0.00     0.010 C 
ENDBRANCH  14  32
ENDBRANCH   3   4
BRANCH   2  35
ATOM     35  C   UNL     1      96.016 100.865  70.810  1.00  0.00     0.078 CG0
ATOM     36  G   UNL     1      95.370 101.893  69.882  1.00  0.00     0.000 G0
ENDBRANCH   2  35
ENDBRANCH   1   2
BRANCH   1  37
ATOM     37  O   UNL     1      95.201  97.683  72.513  1.00  0.00    -0.461 OA
BRANCH  37  38
ATOM     38  C   UNL     1      94.741  97.266  73.741  1.00  0.00     0.310 C 
ATOM     39  O   UNL     1      94.024  97.924  74.482  1.00  0.00    -0.252 OA
BRANCH  38  40
ATOM     40  C   UNL     1      95.258  95.876  74.028  1.00  0.00     0.158 C 
BRANCH  40  41
ATOM     41  C   UNL     1      94.646  95.265  75.262  1.00  0.00    -0.033 A 
ATOM     42  C   UNL     1      93.678  94.267  75.139  1.00  0.00     0.054 A 
ATOM     43  C   UNL     1      95.047  95.695  76.526  1.00  0.00     0.008 A 
ATOM     44  C   UNL     1      93.111  93.701  76.281  1.00  0.00     0.160 A 
ATOM     45  C   UNL     1      94.480  95.129  77.668  1.00  0.00     0.050 A 
ATOM     46  C   UNL     1      93.512  94.132  77.546  1.00  0.00     0.157 A 
BRANCH  44  47
ATOM     47  O   UNL     1      92.168  92.728  76.148  1.00  0.00    -0.493 OA
ATOM     48  C   UNL     1      90.808  93.151  76.058  1.00  0.00     0.278 C 
ENDBRANCH  44  47
BRANCH  46  49
ATOM     49  O   UNL     1      92.967  93.586  78.668  1.00  0.00    -0.504 OA
ATOM     50  H   UNL     1      92.823  94.288  79.324  1.00  0.00     0.293 HD
ENDBRANCH  46  49
ENDBRANCH  40  41
ENDBRANCH  38  40
ENDBRANCH  37  38
ENDBRANCH   1  37
TORSDOF 11
ENDMDL
MODEL 4
REMARK VINA RESULT:    -6.346     24.414     27.350
REMARK INTER + INTRA:         -11.829
REMARK INTER:                 -10.653
REMARK INTRA:                  -1.177
REMARK UNBOUND:                -0.661
REMARK SMILES C=C(C)[C@]12C[C@@H](C)[C@@]34O[C@](Cc5ccccc5)(O[C@@H]1[C@@H]3C=C(COC(=O)Cc1ccc(O)c(OC)c1)C[C@]1(O)C(=O)C(C)=C[C@@H]41)O2
REMARK SMILES IDX 23 1 22 2 21 3 20 4 9 5 8 6 10 7 6 8 18 9 46 10 19 11 5 12
REMARK SMILES IDX 7 13 4 14 45 15 38 16 44 17 40 18 42 20 41 21 43 22 39 23
REMARK SMILES IDX 11 25 12 26 13 27 17 28 14 29 16 30 15 31 2 32 3 33 1 34
REMARK SMILES IDX 37 35 24 37 25 38 26 39 27 40 28 41 36 42 29 43 33 44 30 45
REMARK SMILES IDX 31 46 34 47 35 48 32 49
REMARK H PARENT 39 24 32 50
REMARK Flexibility Score: 90.00
ROOT
ATOM      1  C   UNL     1      76.781  95.170  67.910  1.00  0.00     0.264 C 
ENDROOT
BRANCH   1   2
ATOM      2  C   UNL     1      75.702  94.114  67.956  1.00  0.00    -0.033 C 
ATOM      3  C   UNL     1      75.765  93.070  67.105  1.00  0.00    -0.015 C 
BRANCH   3   4
ATOM      4  C   UNL     1      74.779  91.932  66.900  1.00  0.00     0.078 C 
ATOM      5  O   UNL     1      75.500  90.080  68.373  1.00  0.00    -0.319 OA
ATOM      6  C   UNL     1      74.413  91.027  68.135  1.00  0.00     0.095 C 
ATOM      7  C   UNL     1      76.055  89.469  67.192  1.00  0.00     0.289 C 
ATOM      8  C   UNL     1      73.094  90.228  67.771  1.00  0.00     0.023 C 
ATOM      9  O   UNL     1      76.540  90.452  66.281  1.00  0.00    -0.320 OA
ATOM     10  O   UNL     1      75.087  88.716  66.467  1.00  0.00    -0.313 OA
ATOM     11  C   UNL     1      75.297  90.980  65.794  1.00  0.00     0.170 C 
ATOM     12  C   UNL     1      73.031  89.893  66.249  1.00  0.00     0.049 C 
ATOM     13  C   UNL     1      72.850  88.948  68.587  1.00  0.00     0.011 C 
ATOM     14  C   UNL     1      74.426  89.706  65.652  1.00  0.00     0.122 C 
BRANCH   6  15
ATOM     15  C   UNL     1      74.343  91.874  69.439  1.00  0.00     0.086 C 
ATOM     16  C   UNL     1      73.640  93.242  69.324  1.00  0.00     0.140 CG0
ATOM     17  C   UNL     1      73.739  91.272  70.676  1.00  0.00    -0.010 C 
ATOM     18  C   UNL     1      72.982  93.385  70.680  1.00  0.00     0.190 C 
ATOM     19  G   UNL     1      74.623  94.373  69.028  1.00  0.00     0.000 G0
ATOM     20  C   UNL     1      72.991  92.103  71.410  1.00  0.00    -0.008 C 
ATOM     21  O   UNL     1      72.462  94.403  71.111  1.00  0.00    -0.291 OA
ATOM     22  C   UNL     1      72.322  91.885  72.709  1.00  0.00     0.048 C 
BRANCH  16  23
ATOM     23  O   UNL     1      72.550  93.252  68.417  1.00  0.00    -0.381 OA
ATOM     24  H   UNL     1      72.128  92.378  68.434  1.00  0.00     0.212 HD
ENDBRANCH  16  23
ENDBRANCH   6  15
BRANCH   7  25
ATOM     25  C   UNL     1      77.190  88.559  67.616  1.00  0.00     0.135 C 
BRANCH  25  26
ATOM     26  C   UNL     1      76.741  87.127  67.766  1.00  0.00    -0.040 A 
ATOM     27  C   UNL     1      77.331  86.127  66.994  1.00  0.00     0.004 A 
ATOM     28  C   UNL     1      75.736  86.803  68.678  1.00  0.00     0.004 A 
ATOM     29  C   UNL     1      76.916  84.802  67.132  1.00  0.00     0.000 A 
ATOM     30  C   UNL     1      75.321  85.478  68.816  1.00  0.00     0.000 A 
ATOM     31  C   UNL     1      75.911  84.478  68.043  1.00  0.00     0.000 A 
ENDBRANCH  25  26
ENDBRANCH   7  25
BRANCH  14  32
ATOM     32  C   UNL     1      74.387  89.207  64.244  1.00  0.00    -0.046 C 
ATOM     33  C   UNL     1      74.381  90.254  63.171  1.00  0.00     0.042 C 
ATOM     34  C   UNL     1      74.358  87.897  63.957  1.00  0.00     0.010 C 
ENDBRANCH  14  32
ENDBRANCH   3   4
BRANCH   2  35
ATOM     35  C   UNL     1      74.649  94.385  69.013  1.00  0.00     0.078 CG0
ATOM     36  G   UNL     1      73.657  93.263  69.316  1.00  0.00     0.000 G0
ENDBRANCH   2  35
ENDBRANCH   1   2
BRANCH   1  37
ATOM     37  O   UNL     1      76.640  96.030  69.020  1.00  0.00    -0.461 OA
BRANCH  37  38
ATOM     38  C   UNL     1      77.482  97.118  69.059  1.00  0.00     0.310 C 
ATOM     39  O   UNL     1      77.287  98.177  68.479  1.00  0.00    -0.252 OA
BRANCH  38  40
ATOM     40  C   UNL     1      78.679  96.799  69.924  1.00  0.00     0.158 C 
BRANCH  40  41
ATOM     41  C   UNL     1      78.369  96.851  71.398  1.00  0.00    -0.033 A 
ATOM     42  C   UNL     1      78.108  95.672  72.097  1.00  0.00     0.054 A 
ATOM     43  C   UNL     1      78.344  98.077  72.063  1.00  0.00     0.008 A 
ATOM     44  C   UNL     1      77.821  95.720  73.462  1.00  0.00     0.160 A 
ATOM     45  C   UNL     1      78.057  98.124  73.427  1.00  0.00     0.050 A 
ATOM     46  C   UNL     1      77.796  96.947  74.127  1.00  0.00     0.157 A 
BRANCH  44  47
ATOM     47  O   UNL     1      77.567  94.563  74.134  1.00  0.00    -0.493 OA
ATOM     48  C   UNL     1      76.737  93.603  73.482  1.00  0.00     0.278 C 
ENDBRANCH  44  47
BRANCH  46  49
ATOM     49  O   UNL     1      77.518  97.006  75.458  1.00  0.00    -0.504 OA
ATOM     50  H   UNL     1      78.273  96.647  75.955  1.00  0.00     0.293 HD
ENDBRANCH  46  49
ENDBRANCH  40  41
ENDBRANCH  38  40
ENDBRANCH  37  38
ENDBRANCH   1  37
TORSDOF 11
ENDMDL
MODEL 5
REMARK VINA RESULT:    -6.157      3.163      4.648
REMARK INTER + INTRA:         -11.497
REMARK INTER:                  -9.346
REMARK INTRA:                  -2.150
REMARK UNBOUND:                -0.661
REMARK SMILES C=C(C)[C@]12C[C@@H](C)[C@@]34O[C@](Cc5ccccc5)(O[C@@H]1[C@@H]3C=C(COC(=O)Cc1ccc(O)c(OC)c1)C[C@]1(O)C(=O)C(C)=C[C@@H]41)O2
REMARK SMILES IDX 23 1 22 2 21 3 20 4 9 5 8 6 10 7 6 8 18 9 46 10 19 11 5 12
REMARK SMILES IDX 7 13 4 14 45 15 38 16 44 17 40 18 42 20 41 21 43 22 39 23
REMARK SMILES IDX 11 25 12 26 13 27 17 28 14 29 16 30 15 31 2 32 3 33 1 34
REMARK SMILES IDX 37 35 24 37 25 38 26 39 27 40 28 41 36 42 29 43 33 44 30 45
REMARK SMILES IDX 31 46 34 47 35 48 32 49
REMARK H PARENT 39 24 32 50
REMARK Flexibility Score: 90.00
ROOT
ATOM      1  C   UNL     1      96.215  79.475  84.944  1.00  0.00     0.264 C 
ENDROOT
BRANCH   1   2
ATOM      2  C   UNL     1      95.089  80.422  85.287  1.00  0.00    -0.033 C 
ATOM      3  C   UNL     1      93.814  80.006  85.154  1.00  0.00    -0.015 C 
BRANCH   3   4
ATOM      4  C   UNL     1      92.520  80.778  85.355  1.00  0.00     0.078 C 
ATOM      5  O   UNL     1      91.816  80.405  87.697  1.00  0.00    -0.319 OA
ATOM      6  C   UNL     1      92.253  81.437  86.760  1.00  0.00     0.095 C 
ATOM      7  C   UNL     1      90.867  79.458  87.173  1.00  0.00     0.289 C 
ATOM      8  C   UNL     1      91.095  82.503  86.577  1.00  0.00     0.023 C 
ATOM      9  O   UNL     1      91.382  78.794  86.021  1.00  0.00    -0.320 OA
ATOM     10  O   UNL     1      89.658  80.082  86.749  1.00  0.00    -0.313 OA
ATOM     11  C   UNL     1      91.308  79.861  85.062  1.00  0.00     0.170 C 
ATOM     12  C   UNL     1      90.073  82.055  85.487  1.00  0.00     0.049 C 
ATOM     13  C   UNL     1      90.339  82.883  87.861  1.00  0.00     0.011 C 
ATOM     14  C   UNL     1      89.957  80.533  85.412  1.00  0.00     0.122 C 
BRANCH   6  15
ATOM     15  C   UNL     1      93.575  81.985  87.373  1.00  0.00     0.086 C 
ATOM     16  C   UNL     1      94.514  82.734  86.405  1.00  0.00     0.140 CG0
ATOM     17  C   UNL     1      93.512  82.891  88.570  1.00  0.00    -0.010 C 
ATOM     18  C   UNL     1      95.126  83.792  87.298  1.00  0.00     0.190 C 
ATOM     19  G   UNL     1      95.564  81.810  85.789  1.00  0.00     0.000 G0
ATOM     20  C   UNL     1      94.389  83.900  88.572  1.00  0.00    -0.008 C 
ATOM     21  O   UNL     1      96.071  84.508  87.004  1.00  0.00    -0.291 OA
ATOM     22  C   UNL     1      94.664  84.920  89.604  1.00  0.00     0.048 C 
BRANCH  16  23
ATOM     23  O   UNL     1      93.835  83.482  85.410  1.00  0.00    -0.381 OA
ATOM     24  H   UNL     1      93.562  82.875  84.702  1.00  0.00     0.212 HD
ENDBRANCH  16  23
ENDBRANCH   6  15
BRANCH   7  25
ATOM     25  C   UNL     1      90.561  78.442  88.255  1.00  0.00     0.135 C 
BRANCH  25  26
ATOM     26  C   UNL     1      90.425  77.047  87.698  1.00  0.00    -0.040 A 
ATOM     27  C   UNL     1      89.276  76.686  86.994  1.00  0.00     0.004 A 
ATOM     28  C   UNL     1      91.448  76.118  87.886  1.00  0.00     0.004 A 
ATOM     29  C   UNL     1      89.150  75.396  86.479  1.00  0.00     0.000 A 
ATOM     30  C   UNL     1      91.322  74.827  87.371  1.00  0.00     0.000 A 
ATOM     31  C   UNL     1      90.172  74.467  86.667  1.00  0.00     0.000 A 
ENDBRANCH  25  26
ENDBRANCH   7  25
BRANCH  14  32
ATOM     32  C   UNL     1      88.856  80.085  84.507  1.00  0.00    -0.046 C 
ATOM     33  C   UNL     1      89.123  78.848  83.702  1.00  0.00     0.042 C 
ATOM     34  C   UNL     1      87.695  80.751  84.419  1.00  0.00     0.010 C 
ENDBRANCH  14  32
ENDBRANCH   3   4
BRANCH   2  35
ATOM     35  C   UNL     1      95.576  81.777  85.764  1.00  0.00     0.078 CG0
ATOM     36  G   UNL     1      94.540  82.714  86.383  1.00  0.00     0.000 G0
ENDBRANCH   2  35
ENDBRANCH   1   2
BRANCH   1  37
ATOM     37  O   UNL     1      96.188  79.197  83.561  1.00  0.00    -0.461 OA
BRANCH  37  38
ATOM     38  C   UNL     1      96.154  77.868  83.208  1.00  0.00     0.310 C 
ATOM     39  O   UNL     1      96.521  77.418  82.131  1.00  0.00    -0.252 OA
BRANCH  38  40
ATOM     40  C   UNL     1      95.596  77.056  84.352  1.00  0.00     0.158 C 
BRANCH  40  41
ATOM     41  C   UNL     1      94.361  76.278  83.974  1.00  0.00    -0.033 A 
ATOM     42  C   UNL     1      94.466  75.170  83.132  1.00  0.00     0.054 A 
ATOM     43  C   UNL     1      93.115  76.665  84.465  1.00  0.00     0.008 A 
ATOM     44  C   UNL     1      93.324  74.450  82.782  1.00  0.00     0.160 A 
ATOM     45  C   UNL     1      91.973  75.945  84.115  1.00  0.00     0.050 A 
ATOM     46  C   UNL     1      92.076  74.838  83.274  1.00  0.00     0.157 A 
BRANCH  44  47
ATOM     47  O   UNL     1      93.438  73.370  81.959  1.00  0.00    -0.493 OA
ATOM     48  C   UNL     1      94.657  72.631  82.026  1.00  0.00     0.278 C 
ENDBRANCH  44  47
BRANCH  46  49
ATOM     49  O   UNL     1      90.955  74.142  82.939  1.00  0.00    -0.504 OA
ATOM     50  H   UNL     1      91.192  73.445  82.305  1.00  0.00     0.293 HD
ENDBRANCH  46  49
ENDBRANCH  40  41
ENDBRANCH  38  40
ENDBRANCH  37  38
ENDBRANCH   1  37
TORSDOF 11
ENDMDL
MODEL 6
REMARK VINA RESULT:    -6.155     24.465     27.977
REMARK INTER + INTRA:         -11.493
REMARK INTER:                 -10.665
REMARK INTRA:                  -0.828
REMARK UNBOUND:                -0.661
REMARK SMILES C=C(C)[C@]12C[C@@H](C)[C@@]34O[C@](Cc5ccccc5)(O[C@@H]1[C@@H]3C=C(COC(=O)Cc1ccc(O)c(OC)c1)C[C@]1(O)C(=O)C(C)=C[C@@H]41)O2
REMARK SMILES IDX 23 1 22 2 21 3 20 4 9 5 8 6 10 7 6 8 18 9 46 10 19 11 5 12
REMARK SMILES IDX 7 13 4 14 45 15 38 16 44 17 40 18 42 20 41 21 43 22 39 23
REMARK SMILES IDX 11 25 12 26 13 27 17 28 14 29 16 30 15 31 2 32 3 33 1 34
REMARK SMILES IDX 37 35 24 37 25 38 26 39 27 40 28 41 36 42 29 43 33 44 30 45
REMARK SMILES IDX 31 46 34 47 35 48 32 49
REMARK H PARENT 39 24 32 50
REMARK Flexibility Score: 90.00
ROOT
ATOM      1  C   UNL     1      72.970  90.477  70.351  1.00  0.00     0.264 C 
ENDROOT
BRANCH   1   2
ATOM      2  C   UNL     1      73.820  90.107  69.159  1.00  0.00    -0.033 C 
ATOM      3  C   UNL     1      74.209  88.826  68.999  1.00  0.00    -0.015 C 
BRANCH   3   4
ATOM      4  C   UNL     1      75.117  88.218  67.942  1.00  0.00     0.078 C 
ATOM      5  O   UNL     1      73.661  87.445  66.098  1.00  0.00    -0.319 OA
ATOM      6  C   UNL     1      74.725  88.391  66.428  1.00  0.00     0.095 C 
ATOM      7  C   UNL     1      73.827  86.119  66.635  1.00  0.00     0.289 C 
ATOM      8  C   UNL     1      76.008  88.060  65.559  1.00  0.00     0.023 C 
ATOM      9  O   UNL     1      73.944  86.147  68.055  1.00  0.00    -0.320 OA
ATOM     10  O   UNL     1      75.015  85.489  66.163  1.00  0.00    -0.313 OA
ATOM     11  C   UNL     1      75.265  86.696  68.188  1.00  0.00     0.170 C 
ATOM     12  C   UNL     1      76.885  86.959  66.231  1.00  0.00     0.049 C 
ATOM     13  C   UNL     1      75.733  87.672  64.097  1.00  0.00     0.011 C 
ATOM     14  C   UNL     1      76.039  85.984  67.051  1.00  0.00     0.122 C 
BRANCH   6  15
ATOM     15  C   UNL     1      74.092  89.790  66.178  1.00  0.00     0.086 C 
ATOM     16  C   UNL     1      74.775  90.981  66.882  1.00  0.00     0.140 CG0
ATOM     17  C   UNL     1      73.909  90.276  64.767  1.00  0.00    -0.010 C 
ATOM     18  C   UNL     1      74.590  92.102  65.880  1.00  0.00     0.190 C 
ATOM     19  G   UNL     1      74.139  91.295  68.235  1.00  0.00     0.000 G0
ATOM     20  C   UNL     1      74.154  91.575  64.573  1.00  0.00    -0.008 C 
ATOM     21  O   UNL     1      74.814  93.284  66.091  1.00  0.00    -0.291 OA
ATOM     22  C   UNL     1      74.002  92.401  63.357  1.00  0.00     0.048 C 
BRANCH  16  23
ATOM     23  O   UNL     1      76.183  90.853  66.989  1.00  0.00    -0.381 OA
ATOM     24  H   UNL     1      76.422  89.928  66.813  1.00  0.00     0.212 HD
ENDBRANCH  16  23
ENDBRANCH   6  15
BRANCH   7  25
ATOM     25  C   UNL     1      72.622  85.291  66.237  1.00  0.00     0.135 C 
BRANCH  25  26
ATOM     26  C   UNL     1      73.007  84.105  65.388  1.00  0.00    -0.040 A 
ATOM     27  C   UNL     1      73.764  83.070  65.939  1.00  0.00     0.004 A 
ATOM     28  C   UNL     1      72.606  84.041  64.054  1.00  0.00     0.004 A 
ATOM     29  C   UNL     1      74.121  81.972  65.154  1.00  0.00     0.000 A 
ATOM     30  C   UNL     1      72.962  82.943  63.270  1.00  0.00     0.000 A 
ATOM     31  C   UNL     1      73.720  81.910  63.820  1.00  0.00     0.000 A 
ENDBRANCH  25  26
ENDBRANCH   7  25
BRANCH  14  32
ATOM     32  C   UNL     1      76.829  84.820  67.553  1.00  0.00    -0.046 C 
ATOM     33  C   UNL     1      76.845  84.622  69.039  1.00  0.00     0.042 C 
ATOM     34  C   UNL     1      77.487  83.997  66.722  1.00  0.00     0.010 C 
ENDBRANCH  14  32
ENDBRANCH   3   4
BRANCH   2  35
ATOM     35  C   UNL     1      74.129  91.288  68.258  1.00  0.00     0.078 CG0
ATOM     36  G   UNL     1      74.763  90.985  66.901  1.00  0.00     0.000 G0
ENDBRANCH   2  35
ENDBRANCH   1   2
BRANCH   1  37
ATOM     37  O   UNL     1      72.893  91.883  70.451  1.00  0.00    -0.461 OA
BRANCH  37  38
ATOM     38  C   UNL     1      71.698  92.397  70.899  1.00  0.00     0.310 C 
ATOM     39  O   UNL     1      70.611  91.844  70.792  1.00  0.00    -0.252 OA
BRANCH  38  40
ATOM     40  C   UNL     1      71.936  93.744  71.539  1.00  0.00     0.158 C 
BRANCH  40  41
ATOM     41  C   UNL     1      72.838  93.671  72.743  1.00  0.00    -0.033 A 
ATOM     42  C   UNL     1      74.078  94.311  72.725  1.00  0.00     0.054 A 
ATOM     43  C   UNL     1      72.434  92.965  73.876  1.00  0.00     0.008 A 
ATOM     44  C   UNL     1      74.914  94.244  73.840  1.00  0.00     0.160 A 
ATOM     45  C   UNL     1      73.270  92.898  74.991  1.00  0.00     0.050 A 
ATOM     46  C   UNL     1      74.509  93.537  74.974  1.00  0.00     0.157 A 
BRANCH  44  47
ATOM     47  O   UNL     1      76.122  94.872  73.811  1.00  0.00    -0.493 OA
ATOM     48  C   UNL     1      77.189  94.195  73.147  1.00  0.00     0.278 C 
ENDBRANCH  44  47
BRANCH  46  49
ATOM     49  O   UNL     1      75.316  93.465  76.068  1.00  0.00    -0.504 OA
ATOM     50  H   UNL     1      75.860  92.662  76.009  1.00  0.00     0.293 HD
ENDBRANCH  46  49
ENDBRANCH  40  41
ENDBRANCH  38  40
ENDBRANCH  37  38
ENDBRANCH   1  37
TORSDOF 11
ENDMDL
MODEL 7
REMARK VINA RESULT:    -6.066      1.931      2.652
REMARK INTER + INTRA:         -11.337
REMARK INTER:                 -10.311
REMARK INTRA:                  -1.026
REMARK UNBOUND:                -0.661
REMARK SMILES C=C(C)[C@]12C[C@@H](C)[C@@]34O[C@](Cc5ccccc5)(O[C@@H]1[C@@H]3C=C(COC(=O)Cc1ccc(O)c(OC)c1)C[C@]1(O)C(=O)C(C)=C[C@@H]41)O2
REMARK SMILES IDX 23 1 22 2 21 3 20 4 9 5 8 6 10 7 6 8 18 9 46 10 19 11 5 12
REMARK SMILES IDX 7 13 4 14 45 15 38 16 44 17 40 18 42 20 41 21 43 22 39 23
REMARK SMILES IDX 11 25 12 26 13 27 17 28 14 29 16 30 15 31 2 32 3 33 1 34
REMARK SMILES IDX 37 35 24 37 25 38 26 39 27 40 28 41 36 42 29 43 33 44 30 45
REMARK SMILES IDX 31 46 34 47 35 48 32 49
REMARK H PARENT 39 24 32 50
REMARK Flexibility Score: 90.00
ROOT
ATOM      1  C   UNL     1      96.230  80.804  86.166  1.00  0.00     0.264 C 
ENDROOT
BRANCH   1   2
ATOM      2  C   UNL     1      94.741  81.045  86.245  1.00  0.00    -0.033 C 
ATOM      3  C   UNL     1      93.894  80.028  85.986  1.00  0.00    -0.015 C 
BRANCH   3   4
ATOM      4  C   UNL     1      92.375  80.029  85.923  1.00  0.00     0.078 C 
ATOM      5  O   UNL     1      91.561  79.424  88.180  1.00  0.00    -0.319 OA
ATOM      6  C   UNL     1      91.574  80.502  87.193  1.00  0.00     0.095 C 
ATOM      7  C   UNL     1      91.325  78.106  87.649  1.00  0.00     0.289 C 
ATOM      8  C   UNL     1      90.089  80.811  86.736  1.00  0.00     0.023 C 
ATOM      9  O   UNL     1      92.295  77.766  86.661  1.00  0.00    -0.320 OA
ATOM     10  O   UNL     1      90.061  78.002  87.000  1.00  0.00    -0.313 OA
ATOM     11  C   UNL     1      91.862  78.609  85.582  1.00  0.00     0.170 C 
ATOM     12  C   UNL     1      89.638  79.865  85.581  1.00  0.00     0.049 C 
ATOM     13  C   UNL     1      89.035  80.789  87.855  1.00  0.00     0.011 C 
ATOM     14  C   UNL     1      90.319  78.499  85.670  1.00  0.00     0.122 C 
BRANCH   6  15
ATOM     15  C   UNL     1      92.311  81.672  87.907  1.00  0.00     0.086 C 
ATOM     16  C   UNL     1      92.899  82.765  86.990  1.00  0.00     0.140 CG0
ATOM     17  C   UNL     1      91.593  82.457  88.969  1.00  0.00    -0.010 C 
ATOM     18  C   UNL     1      92.729  84.017  87.824  1.00  0.00     0.190 C 
ATOM     19  G   UNL     1      94.360  82.494  86.632  1.00  0.00     0.000 G0
ATOM     20  C   UNL     1      91.829  83.773  88.967  1.00  0.00    -0.008 C 
ATOM     21  O   UNL     1      93.221  85.107  87.574  1.00  0.00    -0.291 OA
ATOM     22  C   UNL     1      91.369  84.823  89.898  1.00  0.00     0.048 C 
BRANCH  16  23
ATOM     23  O   UNL     1      92.122  83.022  85.832  1.00  0.00    -0.381 OA
ATOM     24  H   UNL     1      92.589  83.676  85.287  1.00  0.00     0.212 HD
ENDBRANCH  16  23
ENDBRANCH   6  15
BRANCH   7  25
ATOM     25  C   UNL     1      91.390  77.115  88.793  1.00  0.00     0.135 C 
BRANCH  25  26
ATOM     26  C   UNL     1      91.344  75.687  88.307  1.00  0.00    -0.040 A 
ATOM     27  C   UNL     1      92.504  74.911  88.315  1.00  0.00     0.004 A 
ATOM     28  C   UNL     1      90.144  75.143  87.852  1.00  0.00     0.004 A 
ATOM     29  C   UNL     1      92.462  73.591  87.866  1.00  0.00     0.000 A 
ATOM     30  C   UNL     1      90.102  73.822  87.403  1.00  0.00     0.000 A 
ATOM     31  C   UNL     1      91.262  73.047  87.410  1.00  0.00     0.000 A 
ENDBRANCH  25  26
ENDBRANCH   7  25
BRANCH  14  32
ATOM     32  C   UNL     1      89.770  77.517  84.687  1.00  0.00    -0.046 C 
ATOM     33  C   UNL     1      88.442  76.909  85.030  1.00  0.00     0.042 C 
ATOM     34  C   UNL     1      90.426  77.198  83.561  1.00  0.00     0.010 C 
ENDBRANCH  14  32
ENDBRANCH   3   4
BRANCH   2  35
ATOM     35  C   UNL     1      94.388  82.468  86.633  1.00  0.00     0.078 CG0
ATOM     36  G   UNL     1      92.928  82.756  86.982  1.00  0.00     0.000 G0
ENDBRANCH   2  35
ENDBRANCH   1   2
BRANCH   1  37
ATOM     37  O   UNL     1      96.789  81.654  85.187  1.00  0.00    -0.461 OA
BRANCH  37  38
ATOM     38  C   UNL     1      97.448  81.036  84.150  1.00  0.00     0.310 C 
ATOM     39  O   UNL     1      98.663  80.989  84.019  1.00  0.00    -0.252 OA
BRANCH  38  40
ATOM     40  C   UNL     1      96.441  80.428  83.202  1.00  0.00     0.158 C 
BRANCH  40  41
ATOM     41  C   UNL     1      96.805  80.622  81.753  1.00  0.00    -0.033 A 
ATOM     42  C   UNL     1      97.222  79.533  80.987  1.00  0.00     0.054 A 
ATOM     43  C   UNL     1      96.725  81.890  81.177  1.00  0.00     0.008 A 
ATOM     44  C   UNL     1      97.559  79.712  79.645  1.00  0.00     0.160 A 
ATOM     45  C   UNL     1      97.063  82.069  79.836  1.00  0.00     0.050 A 
ATOM     46  C   UNL     1      97.480  80.981  79.070  1.00  0.00     0.157 A 
BRANCH  44  47
ATOM     47  O   UNL     1      97.965  78.642  78.907  1.00  0.00    -0.493 OA
ATOM     48  C   UNL     1      97.969  77.371  79.557  1.00  0.00     0.278 C 
ENDBRANCH  44  47
BRANCH  46  49
ATOM     49  O   UNL     1      97.805  81.168  77.761  1.00  0.00    -0.504 OA
ATOM     50  H   UNL     1      96.993  81.153  77.227  1.00  0.00     0.293 HD
ENDBRANCH  46  49
ENDBRANCH  40  41
ENDBRANCH  38  40
ENDBRANCH  37  38
ENDBRANCH   1  37
TORSDOF 11
ENDMDL
MODEL 8
REMARK VINA RESULT:    -5.874      3.384      7.122
REMARK INTER + INTRA:         -10.999
REMARK INTER:                  -9.118
REMARK INTRA:                  -1.881
REMARK UNBOUND:                -0.661
REMARK SMILES C=C(C)[C@]12C[C@@H](C)[C@@]34O[C@](Cc5ccccc5)(O[C@@H]1[C@@H]3C=C(COC(=O)Cc1ccc(O)c(OC)c1)C[C@]1(O)C(=O)C(C)=C[C@@H]41)O2
REMARK SMILES IDX 23 1 22 2 21 3 20 4 9 5 8 6 10 7 6 8 18 9 46 10 19 11 5 12
REMARK SMILES IDX 7 13 4 14 45 15 38 16 44 17 40 18 42 20 41 21 43 22 39 23
REMARK SMILES IDX 11 25 12 26 13 27 17 28 14 29 16 30 15 31 2 32 3 33 1 34
REMARK SMILES IDX 37 35 24 37 25 38 26 39 27 40 28 41 36 42 29 43 33 44 30 45
REMARK SMILES IDX 31 46 34 47 35 48 32 49
REMARK H PARENT 39 24 32 50
REMARK Flexibility Score: 90.00
ROOT
ATOM      1  C   UNL     1      96.195  75.919  83.093  1.00  0.00     0.264 C 
ENDROOT
BRANCH   1   2
ATOM      2  C   UNL     1      95.026  75.799  84.042  1.00  0.00    -0.033 C 
ATOM      3  C   UNL     1      94.806  76.776  84.944  1.00  0.00    -0.015 C 
BRANCH   3   4
ATOM      4  C   UNL     1      93.760  76.856  86.044  1.00  0.00     0.078 C 
ATOM      5  O   UNL     1      91.807  78.042  85.098  1.00  0.00    -0.319 OA
ATOM      6  C   UNL     1      92.241  76.758  85.642  1.00  0.00     0.095 C 
ATOM      7  C   UNL     1      92.273  79.203  85.810  1.00  0.00     0.289 C 
ATOM      8  C   UNL     1      91.416  76.441  86.957  1.00  0.00     0.023 C 
ATOM      9  O   UNL     1      93.696  79.231  85.879  1.00  0.00    -0.320 OA
ATOM     10  O   UNL     1      91.822  79.226  87.162  1.00  0.00    -0.313 OA
ATOM     11  C   UNL     1      93.923  78.180  86.831  1.00  0.00     0.170 C 
ATOM     12  C   UNL     1      92.064  77.104  88.212  1.00  0.00     0.049 C 
ATOM     13  C   UNL     1      89.923  76.802  86.902  1.00  0.00     0.011 C 
ATOM     14  C   UNL     1      92.784  78.405  87.856  1.00  0.00     0.122 C 
BRANCH   6  15
ATOM     15  C   UNL     1      92.044  75.752  84.471  1.00  0.00     0.086 C 
ATOM     16  C   UNL     1      92.841  74.435  84.564  1.00  0.00     0.140 CG0
ATOM     17  C   UNL     1      90.656  75.297  84.117  1.00  0.00    -0.010 C 
ATOM     18  C   UNL     1      91.898  73.437  83.928  1.00  0.00     0.190 C 
ATOM     19  G   UNL     1      94.182  74.519  83.836  1.00  0.00     0.000 G0
ATOM     20  C   UNL     1      90.545  74.007  83.780  1.00  0.00    -0.008 C 
ATOM     21  O   UNL     1      92.183  72.290  83.618  1.00  0.00    -0.291 OA
ATOM     22  C   UNL     1      89.373  73.246  83.304  1.00  0.00     0.048 C 
BRANCH  16  23
ATOM     23  O   UNL     1      93.001  73.953  85.889  1.00  0.00    -0.381 OA
ATOM     24  H   UNL     1      93.551  73.153  85.860  1.00  0.00     0.212 HD
ENDBRANCH  16  23
ENDBRANCH   6  15
BRANCH   7  25
ATOM     25  C   UNL     1      91.771  80.438  85.089  1.00  0.00     0.135 C 
BRANCH  25  26
ATOM     26  C   UNL     1      90.269  80.565  85.165  1.00  0.00    -0.040 A 
ATOM     27  C   UNL     1      89.479  80.138  84.097  1.00  0.00     0.004 A 
ATOM     28  C   UNL     1      89.672  81.108  86.301  1.00  0.00     0.004 A 
ATOM     29  C   UNL     1      88.090  80.256  84.167  1.00  0.00     0.000 A 
ATOM     30  C   UNL     1      88.283  81.226  86.371  1.00  0.00     0.000 A 
ATOM     31  C   UNL     1      87.493  80.799  85.304  1.00  0.00     0.000 A 
ENDBRANCH  25  26
ENDBRANCH   7  25
BRANCH  14  32
ATOM     32  C   UNL     1      93.254  79.150  89.063  1.00  0.00    -0.046 C 
ATOM     33  C   UNL     1      92.391  80.289  89.516  1.00  0.00     0.042 C 
ATOM     34  C   UNL     1      94.385  78.819  89.705  1.00  0.00     0.010 C 
ENDBRANCH  14  32
ENDBRANCH   3   4
BRANCH   2  35
ATOM     35  C   UNL     1      94.216  74.534  83.830  1.00  0.00     0.078 CG0
ATOM     36  G   UNL     1      92.869  74.438  84.546  1.00  0.00     0.000 G0
ENDBRANCH   2  35
ENDBRANCH   1   2
BRANCH   1  37
ATOM     37  O   UNL     1      97.198  76.715  83.687  1.00  0.00    -0.461 OA
BRANCH  37  38
ATOM     38  C   UNL     1      97.862  77.582  82.850  1.00  0.00     0.310 C 
ATOM     39  O   UNL     1      99.058  77.834  82.904  1.00  0.00    -0.252 OA
BRANCH  38  40
ATOM     40  C   UNL     1      96.887  78.172  81.858  1.00  0.00     0.158 C 
BRANCH  40  41
ATOM     41  C   UNL     1      96.586  79.625  82.123  1.00  0.00    -0.033 A 
ATOM     42  C   UNL     1      95.911  79.997  83.286  1.00  0.00     0.054 A 
ATOM     43  C   UNL     1      96.983  80.598  81.206  1.00  0.00     0.008 A 
ATOM     44  C   UNL     1      95.632  81.342  83.530  1.00  0.00     0.160 A 
ATOM     45  C   UNL     1      96.705  81.943  81.450  1.00  0.00     0.050 A 
ATOM     46  C   UNL     1      96.029  82.315  82.612  1.00  0.00     0.157 A 
BRANCH  44  47
ATOM     47  O   UNL     1      94.972  81.693  84.669  1.00  0.00    -0.493 OA
ATOM     48  C   UNL     1      95.759  82.209  85.742  1.00  0.00     0.278 C 
ENDBRANCH  44  47
BRANCH  46  49
ATOM     49  O   UNL     1      95.764  83.631  82.841  1.00  0.00    -0.504 OA
ATOM     50  H   UNL     1      94.875  83.837  82.507  1.00  0.00     0.293 HD
ENDBRANCH  46  49
ENDBRANCH  40  41
ENDBRANCH  38  40
ENDBRANCH  37  38
ENDBRANCH   1  37
TORSDOF 11
ENDMDL
MODEL 9
REMARK VINA RESULT:    -5.815     10.618     15.605
REMARK INTER + INTRA:         -10.896
REMARK INTER:                  -8.602
REMARK INTRA:                  -2.293
REMARK UNBOUND:                -0.661
REMARK SMILES C=C(C)[C@]12C[C@@H](C)[C@@]34O[C@](Cc5ccccc5)(O[C@@H]1[C@@H]3C=C(COC(=O)Cc1ccc(O)c(OC)c1)C[C@]1(O)C(=O)C(C)=C[C@@H]41)O2
REMARK SMILES IDX 23 1 22 2 21 3 20 4 9 5 8 6 10 7 6 8 18 9 46 10 19 11 5 12
REMARK SMILES IDX 7 13 4 14 45 15 38 16 44 17 40 18 42 20 41 21 43 22 39 23
REMARK SMILES IDX 11 25 12 26 13 27 17 28 14 29 16 30 15 31 2 32 3 33 1 34
REMARK SMILES IDX 37 35 24 37 25 38 26 39 27 40 28 41 36 42 29 43 33 44 30 45
REMARK SMILES IDX 31 46 34 47 35 48 32 49
REMARK H PARENT 39 24 32 50
REMARK Flexibility Score: 90.00
ROOT
ATOM      1  C   UNL     1      99.897  77.704  74.948  1.00  0.00     0.264 C 
ENDROOT
BRANCH   1   2
ATOM      2  C   UNL     1     100.022  79.201  74.786  1.00  0.00    -0.033 C 
ATOM      3  C   UNL     1     100.902  79.696  73.893  1.00  0.00    -0.015 C 
BRANCH   3   4
ATOM      4  C   UNL     1     101.269  81.142  73.599  1.00  0.00     0.078 C 
ATOM      5  O   UNL     1      99.800  81.897  71.757  1.00  0.00    -0.319 OA
ATOM      6  C   UNL     1     100.124  82.130  73.163  1.00  0.00     0.095 C 
ATOM      7  C   UNL     1     100.931  81.702  70.888  1.00  0.00     0.289 C 
ATOM      8  C   UNL     1     100.673  83.607  73.335  1.00  0.00     0.023 C 
ATOM      9  O   UNL     1     101.737  80.611  71.324  1.00  0.00    -0.320 OA
ATOM     10  O   UNL     1     101.796  82.835  70.864  1.00  0.00    -0.313 OA
ATOM     11  C   UNL     1     102.345  81.196  72.487  1.00  0.00     0.170 C 
ATOM     12  C   UNL     1     102.205  83.683  73.050  1.00  0.00     0.049 C 
ATOM     13  C   UNL     1      99.945  84.682  72.512  1.00  0.00     0.011 C 
ATOM     14  C   UNL     1     102.641  82.642  72.018  1.00  0.00     0.122 C 
BRANCH   6  15
ATOM     15  C   UNL     1      98.803  81.815  73.923  1.00  0.00     0.086 C 
ATOM     16  C   UNL     1      98.944  81.497  75.427  1.00  0.00     0.140 CG0
ATOM     17  C   UNL     1      97.674  82.806  73.880  1.00  0.00    -0.010 C 
ATOM     18  C   UNL     1      97.671  82.081  76.004  1.00  0.00     0.190 C 
ATOM     19  G   UNL     1      99.071  79.997  75.690  1.00  0.00     0.000 G0
ATOM     20  C   UNL     1      97.001  82.958  75.025  1.00  0.00    -0.008 C 
ATOM     21  O   UNL     1      97.264  81.904  77.142  1.00  0.00    -0.291 OA
ATOM     22  C   UNL     1      95.802  83.768  75.324  1.00  0.00     0.048 C 
BRANCH  16  23
ATOM     23  O   UNL     1      99.974  82.226  76.073  1.00  0.00    -0.381 OA
ATOM     24  H   UNL     1      99.645  82.521  76.938  1.00  0.00     0.212 HD
ENDBRANCH  16  23
ENDBRANCH   6  15
BRANCH   7  25
ATOM     25  C   UNL     1     100.415  81.430  69.489  1.00  0.00     0.135 C 
BRANCH  25  26
ATOM     26  C   UNL     1     101.351  81.955  68.429  1.00  0.00    -0.040 A 
ATOM     27  C   UNL     1     102.311  81.112  67.867  1.00  0.00     0.004 A 
ATOM     28  C   UNL     1     101.258  83.282  68.010  1.00  0.00     0.004 A 
ATOM     29  C   UNL     1     103.177  81.598  66.887  1.00  0.00     0.000 A 
ATOM     30  C   UNL     1     102.124  83.767  67.030  1.00  0.00     0.000 A 
ATOM     31  C   UNL     1     103.083  82.924  66.469  1.00  0.00     0.000 A 
ENDBRANCH  25  26
ENDBRANCH   7  25
BRANCH  14  32
ATOM     32  C   UNL     1     104.063  82.815  71.594  1.00  0.00    -0.046 C 
ATOM     33  C   UNL     1     104.971  83.486  72.580  1.00  0.00     0.042 C 
ATOM     34  C   UNL     1     104.502  82.394  70.398  1.00  0.00     0.010 C 
ENDBRANCH  14  32
ENDBRANCH   3   4
BRANCH   2  35
ATOM     35  C   UNL     1      99.085  79.978  75.691  1.00  0.00     0.078 CG0
ATOM     36  G   UNL     1      98.941  81.476  75.428  1.00  0.00     0.000 G0
ENDBRANCH   2  35
ENDBRANCH   1   2
BRANCH   1  37
ATOM     37  O   UNL     1      98.532  77.357  75.038  1.00  0.00    -0.461 OA
BRANCH  37  38
ATOM     38  C   UNL     1      98.006  76.672  73.967  1.00  0.00     0.310 C 
ATOM     39  O   UNL     1      97.978  75.454  73.858  1.00  0.00    -0.252 OA
BRANCH  38  40
ATOM     40  C   UNL     1      97.474  77.655  72.952  1.00  0.00     0.158 C 
BRANCH  40  41
ATOM     41  C   UNL     1      97.961  77.377  71.553  1.00  0.00    -0.033 A 
ATOM     42  C   UNL     1      99.298  77.605  71.222  1.00  0.00     0.054 A 
ATOM     43  C   UNL     1      97.077  76.893  70.589  1.00  0.00     0.008 A 
ATOM     44  C   UNL     1      99.749  77.348  69.927  1.00  0.00     0.160 A 
ATOM     45  C   UNL     1      97.528  76.636  69.294  1.00  0.00     0.050 A 
ATOM     46  C   UNL     1      98.864  76.864  68.963  1.00  0.00     0.157 A 
BRANCH  44  47
ATOM     47  O   UNL     1     101.056  77.574  69.616  1.00  0.00    -0.493 OA
ATOM     48  C   UNL     1     102.028  76.756  70.266  1.00  0.00     0.278 C 
ENDBRANCH  44  47
BRANCH  46  49
ATOM     49  O   UNL     1      99.293  76.608  67.696  1.00  0.00    -0.504 OA
ATOM     50  H   UNL     1      99.402  75.648  67.586  1.00  0.00     0.293 HD
ENDBRANCH  46  49
ENDBRANCH  40  41
ENDBRANCH  38  40
ENDBRANCH  37  38
ENDBRANCH   1  37
TORSDOF 11
ENDMDL
MODEL 10
REMARK VINA RESULT:    -5.801     25.969     29.680
REMARK INTER + INTRA:         -10.870
REMARK INTER:                  -9.923
REMARK INTRA:                  -0.947
REMARK UNBOUND:                -0.661
REMARK SMILES C=C(C)[C@]12C[C@@H](C)[C@@]34O[C@](Cc5ccccc5)(O[C@@H]1[C@@H]3C=C(COC(=O)Cc1ccc(O)c(OC)c1)C[C@]1(O)C(=O)C(C)=C[C@@H]41)O2
REMARK SMILES IDX 23 1 22 2 21 3 20 4 9 5 8 6 10 7 6 8 18 9 46 10 19 11 5 12
REMARK SMILES IDX 7 13 4 14 45 15 38 16 44 17 40 18 42 20 41 21 43 22 39 23
REMARK SMILES IDX 11 25 12 26 13 27 17 28 14 29 16 30 15 31 2 32 3 33 1 34
REMARK SMILES IDX 37 35 24 37 25 38 26 39 27 40 28 41 36 42 29 43 33 44 30 45
REMARK SMILES IDX 31 46 34 47 35 48 32 49
REMARK H PARENT 39 24 32 50
REMARK Flexibility Score: 90.00
ROOT
ATOM      1  C   UNL     1      70.719  84.250  64.518  1.00  0.00     0.264 C 
ENDROOT
BRANCH   1   2
ATOM      2  C   UNL     1      71.993  85.055  64.622  1.00  0.00    -0.033 C 
ATOM      3  C   UNL     1      71.917  86.382  64.852  1.00  0.00    -0.015 C 
BRANCH   3   4
ATOM      4  C   UNL     1      73.031  87.414  64.921  1.00  0.00     0.078 C 
ATOM      5  O   UNL     1      73.714  87.579  67.293  1.00  0.00    -0.319 OA
ATOM      6  C   UNL     1      74.189  87.197  65.966  1.00  0.00     0.095 C 
ATOM      7  C   UNL     1      72.937  88.791  67.345  1.00  0.00     0.289 C 
ATOM      8  C   UNL     1      75.393  88.139  65.549  1.00  0.00     0.023 C 
ATOM      9  O   UNL     1      71.797  88.711  66.493  1.00  0.00    -0.320 OA
ATOM     10  O   UNL     1      73.674  89.925  66.897  1.00  0.00    -0.313 OA
ATOM     11  C   UNL     1      72.434  88.813  65.210  1.00  0.00     0.170 C 
ATOM     12  C   UNL     1      74.884  89.463  64.901  1.00  0.00     0.049 C 
ATOM     13  C   UNL     1      76.391  88.470  66.671  1.00  0.00     0.011 C 
ATOM     14  C   UNL     1      73.525  89.883  65.463  1.00  0.00     0.122 C 
BRANCH   6  15
ATOM     15  C   UNL     1      74.537  85.686  66.097  1.00  0.00     0.086 C 
ATOM     16  C   UNL     1      74.598  84.885  64.780  1.00  0.00     0.140 CG0
ATOM     17  C   UNL     1      75.796  85.280  66.812  1.00  0.00    -0.010 C 
ATOM     18  C   UNL     1      75.697  83.881  65.059  1.00  0.00     0.190 C 
ATOM     19  G   UNL     1      73.264  84.215  64.451  1.00  0.00     0.000 G0
ATOM     20  C   UNL     1      76.455  84.251  66.269  1.00  0.00    -0.008 C 
ATOM     21  O   UNL     1      75.970  82.917  64.360  1.00  0.00    -0.291 OA
ATOM     22  C   UNL     1      77.663  83.541  66.739  1.00  0.00     0.048 C 
BRANCH  16  23
ATOM     23  O   UNL     1      75.090  85.628  63.678  1.00  0.00    -0.381 OA
ATOM     24  H   UNL     1      75.477  85.009  63.038  1.00  0.00     0.212 HD
ENDBRANCH  16  23
ENDBRANCH   6  15
BRANCH   7  25
ATOM     25  C   UNL     1      72.492  89.010  68.777  1.00  0.00     0.135 C 
BRANCH  25  26
ATOM     26  C   UNL     1      73.240  90.143  69.434  1.00  0.00    -0.040 A 
ATOM     27  C   UNL     1      72.539  91.132  70.126  1.00  0.00     0.004 A 
ATOM     28  C   UNL     1      74.631  90.201  69.352  1.00  0.00     0.004 A 
ATOM     29  C   UNL     1      73.231  92.180  70.734  1.00  0.00     0.000 A 
ATOM     30  C   UNL     1      75.322  91.249  69.961  1.00  0.00     0.000 A 
ATOM     31  C   UNL     1      74.621  92.239  70.651  1.00  0.00     0.000 A 
ENDBRANCH  25  26
ENDBRANCH   7  25
BRANCH  14  32
ATOM     32  C   UNL     1      73.103  91.237  64.994  1.00  0.00    -0.046 C 
ATOM     33  C   UNL     1      74.110  92.002  64.187  1.00  0.00     0.042 C 
ATOM     34  C   UNL     1      71.892  91.740  65.277  1.00  0.00     0.010 C 
ENDBRANCH  14  32
ENDBRANCH   3   4
BRANCH   2  35
ATOM     35  C   UNL     1      73.244  84.215  64.450  1.00  0.00     0.078 CG0
ATOM     36  G   UNL     1      74.580  84.871  64.797  1.00  0.00     0.000 G0
ENDBRANCH   2  35
ENDBRANCH   1   2
BRANCH   1  37
ATOM     37  O   UNL     1      69.780  84.958  63.738  1.00  0.00    -0.461 OA
BRANCH  37  38
ATOM     38  C   UNL     1      68.455  84.667  63.966  1.00  0.00     0.310 C 
ATOM     39  O   UNL     1      67.822  83.787  63.399  1.00  0.00    -0.252 OA
BRANCH  38  40
ATOM     40  C   UNL     1      67.908  85.598  65.022  1.00  0.00     0.158 C 
BRANCH  40  41
ATOM     41  C   UNL     1      68.452  85.313  66.398  1.00  0.00    -0.033 A 
ATOM     42  C   UNL     1      68.889  86.363  67.207  1.00  0.00     0.054 A 
ATOM     43  C   UNL     1      68.518  84.000  66.863  1.00  0.00     0.008 A 
ATOM     44  C   UNL     1      69.393  86.098  68.481  1.00  0.00     0.160 A 
ATOM     45  C   UNL     1      69.022  83.735  68.137  1.00  0.00     0.050 A 
ATOM     46  C   UNL     1      69.459  84.784  68.946  1.00  0.00     0.157 A 
BRANCH  44  47
ATOM     47  O   UNL     1      69.817  87.131  69.261  1.00  0.00    -0.493 OA
ATOM     48  C   UNL     1      69.071  88.345  69.190  1.00  0.00     0.278 C 
ENDBRANCH  44  47
BRANCH  46  49
ATOM     49  O   UNL     1      69.948  84.514  70.188  1.00  0.00    -0.504 OA
ATOM     50  H   UNL     1      70.376  83.641  70.177  1.00  0.00     0.293 HD
ENDBRANCH  46  49
ENDBRANCH  40  41
ENDBRANCH  38  40
ENDBRANCH  37  38
ENDBRANCH   1  37
TORSDOF 11
ENDMDL
