MODEL 1
REMARK VINA RESULT:    -6.302      0.000      0.000
REMARK INTER + INTRA:         -12.129
REMARK INTER:                 -11.092
REMARK INTRA:                  -1.038
REMARK UNBOUND:                -1.038
REMARK SMILES C=C(C)[C@]12C[C@@H](C)[C@@]34O[C@](Cc5ccccc5)(O[C@@H]1[C@@H]3C=C(COC(=O)Cc1ccc(O)c(OC)c1)C[C@]1(O)C(=O)C(C)=C[C@@H]41)O2
REMARK SMILES IDX 23 1 22 2 21 3 20 4 9 5 8 6 10 7 6 8 18 9 46 10 19 11 5 12
REMARK SMILES IDX 7 13 4 14 45 15 38 16 44 17 40 18 42 20 41 21 43 22 39 23
REMARK SMILES IDX 11 25 12 26 13 27 17 28 14 29 16 30 15 31 2 32 3 33 1 34
REMARK SMILES IDX 37 35 24 37 25 38 26 39 27 40 28 41 36 42 29 43 33 44 30 45
REMARK SMILES IDX 31 46 34 47 35 48 32 49
REMARK H PARENT 39 24 32 50
REMARK Flexibility Score: 90.00
ROOT
ATOM      1  C   UNL     1      70.602  89.628  68.384  1.00  0.00     0.264 C 
ENDROOT
BRANCH   1   2
ATOM      2  C   UNL     1      70.121  88.250  68.775  1.00  0.00    -0.033 C 
ATOM      3  C   UNL     1      69.106  88.132  69.655  1.00  0.00    -0.015 C 
BRANCH   3   4
ATOM      4  C   UNL     1      68.496  86.878  70.262  1.00  0.00     0.078 C 
ATOM      5  O   UNL     1      66.587  86.238  68.825  1.00  0.00    -0.319 OA
ATOM      6  C   UNL     1      67.898  85.792  69.292  1.00  0.00     0.095 C 
ATOM      7  C   UNL     1      65.741  86.826  69.831  1.00  0.00     0.289 C 
ATOM      8  C   UNL     1      67.730  84.451  70.119  1.00  0.00     0.023 C 
ATOM      9  O   UNL     1      66.374  87.943  70.450  1.00  0.00    -0.320 OA
ATOM     10  O   UNL     1      65.446  85.917  70.888  1.00  0.00    -0.313 OA
ATOM     11  C   UNL     1      67.362  87.267  71.242  1.00  0.00     0.170 C 
ATOM     12  C   UNL     1      67.383  84.740  71.612  1.00  0.00     0.049 C 
ATOM     13  C   UNL     1      66.721  83.443  69.545  1.00  0.00     0.011 C 
ATOM     14  C   UNL     1      66.584  86.034  71.767  1.00  0.00     0.122 C 
BRANCH   6  15
ATOM     15  C   UNL     1      68.753  85.677  67.997  1.00  0.00     0.086 C 
ATOM     16  C   UNL     1      70.284  85.698  68.190  1.00  0.00     0.140 CG0
ATOM     17  C   UNL     1      68.534  84.514  67.071  1.00  0.00    -0.010 C 
ATOM     18  C   UNL     1      70.763  84.769  67.094  1.00  0.00     0.190 C 
ATOM     19  G   UNL     1      70.863  87.106  68.058  1.00  0.00     0.000 G0
ATOM     20  C   UNL     1      69.641  83.999  66.525  1.00  0.00    -0.008 C 
ATOM     21  O   UNL     1      71.926  84.623  66.748  1.00  0.00    -0.291 OA
ATOM     22  C   UNL     1      69.797  82.925  65.523  1.00  0.00     0.048 C 
BRANCH  16  23
ATOM     23  O   UNL     1      70.721  85.069  69.383  1.00  0.00    -0.381 OA
ATOM     24  H   UNL     1      70.027  84.458  69.680  1.00  0.00     0.212 HD
ENDBRANCH  16  23
ENDBRANCH   6  15
BRANCH   7  25
ATOM     25  C   UNL     1      64.452  87.269  69.169  1.00  0.00     0.135 C 
BRANCH  25  26
ATOM     26  C   UNL     1      63.397  86.191  69.209  1.00  0.00    -0.040 A 
ATOM     27  C   UNL     1      63.284  85.288  68.151  1.00  0.00     0.004 A 
ATOM     28  C   UNL     1      62.537  86.097  70.302  1.00  0.00     0.004 A 
ATOM     29  C   UNL     1      62.308  84.291  68.188  1.00  0.00     0.000 A 
ATOM     30  C   UNL     1      61.561  85.100  70.338  1.00  0.00     0.000 A 
ATOM     31  C   UNL     1      61.447  84.197  69.280  1.00  0.00     0.000 A 
ENDBRANCH  25  26
ENDBRANCH   7  25
BRANCH  14  32
ATOM     32  C   UNL     1      66.084  86.238  73.160  1.00  0.00    -0.046 C 
ATOM     33  C   UNL     1      67.111  86.162  74.250  1.00  0.00     0.042 C 
ATOM     34  C   UNL     1      64.789  86.475  73.421  1.00  0.00     0.010 C 
ENDBRANCH  14  32
ENDBRANCH   3   4
BRANCH   2  35
ATOM     35  C   UNL     1      70.881  87.135  68.082  1.00  0.00     0.078 CG0
ATOM     36  G   UNL     1      70.301  85.725  68.185  1.00  0.00     0.000 G0
ENDBRANCH   2  35
ENDBRANCH   1   2
BRANCH   1  37
ATOM     37  O   UNL     1      72.013  89.657  68.421  1.00  0.00    -0.461 OA
BRANCH  37  38
ATOM     38  C   UNL     1      72.582  90.087  69.597  1.00  0.00     0.310 C 
ATOM     39  O   UNL     1      72.004  90.156  70.673  1.00  0.00    -0.252 OA
BRANCH  38  40
ATOM     40  C   UNL     1      74.026  90.458  69.353  1.00  0.00     0.158 C 
BRANCH  40  41
ATOM     41  C   UNL     1      74.851  89.305  68.841  1.00  0.00    -0.033 A 
ATOM     42  C   UNL     1      74.381  87.998  68.975  1.00  0.00     0.054 A 
ATOM     43  C   UNL     1      76.082  89.545  68.232  1.00  0.00     0.008 A 
ATOM     44  C   UNL     1      75.145  86.931  68.501  1.00  0.00     0.160 A 
ATOM     45  C   UNL     1      76.845  88.478  67.757  1.00  0.00     0.050 A 
ATOM     46  C   UNL     1      76.377  87.171  67.892  1.00  0.00     0.157 A 
BRANCH  44  47
ATOM     47  O   UNL     1      74.677  85.659  68.638  1.00  0.00    -0.493 OA
ATOM     48  C   UNL     1      75.054  84.953  69.819  1.00  0.00     0.278 C 
ENDBRANCH  44  47
BRANCH  46  49
ATOM     49  O   UNL     1      77.130  86.138  67.424  1.00  0.00    -0.504 OA
ATOM     50  H   UNL     1      77.564  85.697  68.173  1.00  0.00     0.293 HD
ENDBRANCH  46  49
ENDBRANCH  40  41
ENDBRANCH  38  40
ENDBRANCH  37  38
ENDBRANCH   1  37
TORSDOF 11
ENDMDL
MODEL 2
REMARK VINA RESULT:    -6.231     25.661     29.304
REMARK INTER + INTRA:         -12.005
REMARK INTER:                 -11.445
REMARK INTRA:                  -0.560
REMARK UNBOUND:                -1.038
REMARK SMILES C=C(C)[C@]12C[C@@H](C)[C@@]34O[C@](Cc5ccccc5)(O[C@@H]1[C@@H]3C=C(COC(=O)Cc1ccc(O)c(OC)c1)C[C@]1(O)C(=O)C(C)=C[C@@H]41)O2
REMARK SMILES IDX 23 1 22 2 21 3 20 4 9 5 8 6 10 7 6 8 18 9 46 10 19 11 5 12
REMARK SMILES IDX 7 13 4 14 45 15 38 16 44 17 40 18 42 20 41 21 43 22 39 23
REMARK SMILES IDX 11 25 12 26 13 27 17 28 14 29 16 30 15 31 2 32 3 33 1 34
REMARK SMILES IDX 37 35 24 37 25 38 26 39 27 40 28 41 36 42 29 43 33 44 30 45
REMARK SMILES IDX 31 46 34 47 35 48 32 49
REMARK H PARENT 39 24 32 50
REMARK Flexibility Score: 90.00
ROOT
ATOM      1  C   UNL     1      95.105  96.836  74.703  1.00  0.00     0.264 C 
ENDROOT
BRANCH   1   2
ATOM      2  C   UNL     1      95.075  97.575  73.385  1.00  0.00    -0.033 C 
ATOM      3  C   UNL     1      94.001  98.328  73.076  1.00  0.00    -0.015 C 
BRANCH   3   4
ATOM      4  C   UNL     1      93.696  99.096  71.800  1.00  0.00     0.078 C 
ATOM      5  O   UNL     1      94.556 101.393  72.119  1.00  0.00    -0.319 OA
ATOM      6  C   UNL     1      94.726 100.184  71.317  1.00  0.00     0.095 C 
ATOM      7  C   UNL     1      93.192 101.779  72.371  1.00  0.00     0.289 C 
ATOM      8  C   UNL     1      94.402 100.512  69.801  1.00  0.00     0.023 C 
ATOM      9  O   UNL     1      92.471 100.734  73.020  1.00  0.00    -0.320 OA
ATOM     10  O   UNL     1      92.476 102.052  71.170  1.00  0.00    -0.313 OA
ATOM     11  C   UNL     1      92.329  99.811  71.930  1.00  0.00     0.170 C 
ATOM     12  C   UNL     1      92.875 100.399  69.505  1.00  0.00     0.049 C 
ATOM     13  C   UNL     1      94.923 101.866  69.292  1.00  0.00     0.011 C 
ATOM     14  C   UNL     1      92.034 100.750  70.733  1.00  0.00     0.122 C 
BRANCH   6  15
ATOM     15  C   UNL     1      96.186  99.728  71.605  1.00  0.00     0.086 C 
ATOM     16  C   UNL     1      96.511  98.252  71.297  1.00  0.00     0.140 CG0
ATOM     17  C   UNL     1      97.329 100.476  70.978  1.00  0.00    -0.010 C 
ATOM     18  C   UNL     1      97.951  98.325  70.834  1.00  0.00     0.190 C 
ATOM     19  G   UNL     1      96.334  97.354  72.521  1.00  0.00     0.000 G0
ATOM     20  C   UNL     1      98.348  99.719  70.559  1.00  0.00    -0.008 C 
ATOM     21  O   UNL     1      98.687  97.366  70.657  1.00  0.00    -0.291 OA
ATOM     22  C   UNL     1      99.650 100.110  69.981  1.00  0.00     0.048 C 
BRANCH  16  23
ATOM     23  O   UNL     1      95.820  97.735  70.172  1.00  0.00    -0.381 OA
ATOM     24  H   UNL     1      95.697  96.780  70.299  1.00  0.00     0.212 HD
ENDBRANCH  16  23
ENDBRANCH   6  15
BRANCH   7  25
ATOM     25  C   UNL     1      93.201 103.015  73.247  1.00  0.00     0.135 C 
BRANCH  25  26
ATOM     26  C   UNL     1      91.936 103.143  74.058  1.00  0.00    -0.040 A 
ATOM     27  C   UNL     1      90.710 103.320  73.415  1.00  0.00     0.004 A 
ATOM     28  C   UNL     1      91.990 103.084  75.450  1.00  0.00     0.004 A 
ATOM     29  C   UNL     1      89.539 103.438  74.164  1.00  0.00     0.000 A 
ATOM     30  C   UNL     1      90.819 103.202  76.200  1.00  0.00     0.000 A 
ATOM     31  C   UNL     1      89.594 103.379  75.556  1.00  0.00     0.000 A 
ENDBRANCH  25  26
ENDBRANCH   7  25
BRANCH  14  32
ATOM     32  C   UNL     1      90.574 100.826  70.426  1.00  0.00    -0.046 C 
ATOM     33  C   UNL     1      90.043 102.182  70.066  1.00  0.00     0.042 C 
ATOM     34  C   UNL     1      89.782  99.744  70.471  1.00  0.00     0.010 C 
ENDBRANCH  14  32
ENDBRANCH   3   4
BRANCH   2  35
ATOM     35  C   UNL     1      96.327  97.360  72.555  1.00  0.00     0.078 CG0
ATOM     36  G   UNL     1      96.493  98.224  71.306  1.00  0.00     0.000 G0
ENDBRANCH   2  35
ENDBRANCH   1   2
BRANCH   1  37
ATOM     37  O   UNL     1      96.257  97.216  75.425  1.00  0.00    -0.461 OA
BRANCH  37  38
ATOM     38  C   UNL     1      96.512  96.511  76.579  1.00  0.00     0.310 C 
ATOM     39  O   UNL     1      97.558  96.553  77.211  1.00  0.00    -0.252 OA
BRANCH  38  40
ATOM     40  C   UNL     1      95.302  95.681  76.940  1.00  0.00     0.158 C 
BRANCH  40  41
ATOM     41  C   UNL     1      95.479  94.913  78.225  1.00  0.00    -0.033 A 
ATOM     42  C   UNL     1      95.725  95.596  79.417  1.00  0.00     0.054 A 
ATOM     43  C   UNL     1      95.397  93.521  78.223  1.00  0.00     0.008 A 
ATOM     44  C   UNL     1      95.888  94.885  80.606  1.00  0.00     0.160 A 
ATOM     45  C   UNL     1      95.560  92.811  79.412  1.00  0.00     0.050 A 
ATOM     46  C   UNL     1      95.806  93.492  80.603  1.00  0.00     0.157 A 
BRANCH  44  47
ATOM     47  O   UNL     1      96.128  95.563  81.763  1.00  0.00    -0.493 OA
ATOM     48  C   UNL     1      97.452  96.057  81.963  1.00  0.00     0.278 C 
ENDBRANCH  44  47
BRANCH  46  49
ATOM     49  O   UNL     1      95.963  92.788  81.759  1.00  0.00    -0.504 OA
ATOM     50  H   UNL     1      96.671  93.197  82.285  1.00  0.00     0.293 HD
ENDBRANCH  46  49
ENDBRANCH  40  41
ENDBRANCH  38  40
ENDBRANCH  37  38
ENDBRANCH   1  37
TORSDOF 11
ENDMDL
MODEL 3
REMARK VINA RESULT:    -5.700     26.017     29.967
REMARK INTER + INTRA:         -11.069
REMARK INTER:                 -10.161
REMARK INTRA:                  -0.909
REMARK UNBOUND:                -1.038
REMARK SMILES C=C(C)[C@]12C[C@@H](C)[C@@]34O[C@](Cc5ccccc5)(O[C@@H]1[C@@H]3C=C(COC(=O)Cc1ccc(O)c(OC)c1)C[C@]1(O)C(=O)C(C)=C[C@@H]41)O2
REMARK SMILES IDX 23 1 22 2 21 3 20 4 9 5 8 6 10 7 6 8 18 9 46 10 19 11 5 12
REMARK SMILES IDX 7 13 4 14 45 15 38 16 44 17 40 18 42 20 41 21 43 22 39 23
REMARK SMILES IDX 11 25 12 26 13 27 17 28 14 29 16 30 15 31 2 32 3 33 1 34
REMARK SMILES IDX 37 35 24 37 25 38 26 39 27 40 28 41 36 42 29 43 33 44 30 45
REMARK SMILES IDX 31 46 34 47 35 48 32 49
REMARK H PARENT 39 24 32 50
REMARK Flexibility Score: 90.00
ROOT
ATOM      1  C   UNL     1      95.192  96.773  74.665  1.00  0.00     0.264 C 
ENDROOT
BRANCH   1   2
ATOM      2  C   UNL     1      95.047  97.444  73.320  1.00  0.00    -0.033 C 
ATOM      3  C   UNL     1      94.093  98.381  73.150  1.00  0.00    -0.015 C 
BRANCH   3   4
ATOM      4  C   UNL     1      93.696  99.138  71.892  1.00  0.00     0.078 C 
ATOM      5  O   UNL     1      94.988 101.248  71.883  1.00  0.00    -0.319 OA
ATOM      6  C   UNL     1      94.793  99.995  71.157  1.00  0.00     0.095 C 
ATOM      7  C   UNL     1      93.782 101.889  72.340  1.00  0.00     0.289 C 
ATOM      8  C   UNL     1      94.257 100.312  69.700  1.00  0.00     0.023 C 
ATOM      9  O   UNL     1      93.023 101.025  73.181  1.00  0.00    -0.320 OA
ATOM     10  O   UNL     1      92.915 102.239  71.264  1.00  0.00    -0.313 OA
ATOM     11  C   UNL     1      92.522 100.098  72.204  1.00  0.00     0.170 C 
ATOM     12  C   UNL     1      92.706 100.472  69.684  1.00  0.00     0.049 C 
ATOM     13  C   UNL     1      94.903 101.524  69.009  1.00  0.00     0.011 C 
ATOM     14  C   UNL     1      92.180 101.024  71.010  1.00  0.00     0.122 C 
BRANCH   6  15
ATOM     15  C   UNL     1      96.179  99.289  71.220  1.00  0.00     0.086 C 
ATOM     16  C   UNL     1      96.180  97.768  70.963  1.00  0.00     0.140 CG0
ATOM     17  C   UNL     1      97.301  99.791  70.356  1.00  0.00    -0.010 C 
ATOM     18  C   UNL     1      97.502  97.558  70.256  1.00  0.00     0.190 C 
ATOM     19  G   UNL     1      96.075  96.964  72.258  1.00  0.00     0.000 G0
ATOM     20  C   UNL     1      98.080  98.845  69.821  1.00  0.00    -0.008 C 
ATOM     21  O   UNL     1      98.015  96.475  70.020  1.00  0.00    -0.291 OA
ATOM     22  C   UNL     1      99.303  98.969  69.002  1.00  0.00     0.048 C 
BRANCH  16  23
ATOM     23  O   UNL     1      95.217  97.347  70.012  1.00  0.00    -0.381 OA
ATOM     24  H   UNL     1      95.683  97.064  69.208  1.00  0.00     0.212 HD
ENDBRANCH  16  23
ENDBRANCH   6  15
BRANCH   7  25
ATOM     25  C   UNL     1      94.168 103.139  73.105  1.00  0.00     0.135 C 
BRANCH  25  26
ATOM     26  C   UNL     1      95.165 102.846  74.198  1.00  0.00    -0.040 A 
ATOM     27  C   UNL     1      96.528 102.789  73.903  1.00  0.00     0.004 A 
ATOM     28  C   UNL     1      94.726 102.634  75.505  1.00  0.00     0.004 A 
ATOM     29  C   UNL     1      97.450 102.519  74.914  1.00  0.00     0.000 A 
ATOM     30  C   UNL     1      95.648 102.364  76.516  1.00  0.00     0.000 A 
ATOM     31  C   UNL     1      97.010 102.306  76.220  1.00  0.00     0.000 A 
ENDBRANCH  25  26
ENDBRANCH   7  25
BRANCH  14  32
ATOM     32  C   UNL     1      90.725 101.357  70.957  1.00  0.00    -0.046 C 
ATOM     33  C   UNL     1      90.382 102.784  70.651  1.00  0.00     0.042 C 
ATOM     34  C   UNL     1      89.777 100.431  71.171  1.00  0.00     0.010 C 
ENDBRANCH  14  32
ENDBRANCH   3   4
BRANCH   2  35
ATOM     35  C   UNL     1      96.051  96.949  72.297  1.00  0.00     0.078 CG0
ATOM     36  G   UNL     1      96.175  97.743  70.997  1.00  0.00     0.000 G0
ENDBRANCH   2  35
ENDBRANCH   1   2
BRANCH   1  37
ATOM     37  O   UNL     1      96.350  97.261  75.308  1.00  0.00    -0.461 OA
BRANCH  37  38
ATOM     38  C   UNL     1      96.667  96.681  76.514  1.00  0.00     0.310 C 
ATOM     39  O   UNL     1      97.759  96.750  77.061  1.00  0.00    -0.252 OA
BRANCH  38  40
ATOM     40  C   UNL     1      95.462  95.947  77.053  1.00  0.00     0.158 C 
BRANCH  40  41
ATOM     41  C   UNL     1      95.732  95.257  78.365  1.00  0.00    -0.033 A 
ATOM     42  C   UNL     1      95.527  95.937  79.566  1.00  0.00     0.054 A 
ATOM     43  C   UNL     1      96.186  93.938  78.380  1.00  0.00     0.008 A 
ATOM     44  C   UNL     1      95.778  95.298  80.781  1.00  0.00     0.160 A 
ATOM     45  C   UNL     1      96.436  93.299  79.594  1.00  0.00     0.050 A 
ATOM     46  C   UNL     1      96.233  93.979  80.795  1.00  0.00     0.157 A 
BRANCH  44  47
ATOM     47  O   UNL     1      95.575  95.973  81.947  1.00  0.00    -0.493 OA
ATOM     48  C   UNL     1      96.635  96.811  82.404  1.00  0.00     0.278 C 
ENDBRANCH  44  47
BRANCH  46  49
ATOM     49  O   UNL     1      96.479  93.345  81.974  1.00  0.00    -0.504 OA
ATOM     50  H   UNL     1      95.788  93.587  82.614  1.00  0.00     0.293 HD
ENDBRANCH  46  49
ENDBRANCH  40  41
ENDBRANCH  38  40
ENDBRANCH  37  38
ENDBRANCH   1  37
TORSDOF 11
ENDMDL
MODEL 4
REMARK VINA RESULT:    -5.482      4.918      9.724
REMARK INTER + INTRA:         -10.686
REMARK INTER:                  -9.834
REMARK INTRA:                  -0.852
REMARK UNBOUND:                -1.038
REMARK SMILES C=C(C)[C@]12C[C@@H](C)[C@@]34O[C@](Cc5ccccc5)(O[C@@H]1[C@@H]3C=C(COC(=O)Cc1ccc(O)c(OC)c1)C[C@]1(O)C(=O)C(C)=C[C@@H]41)O2
REMARK SMILES IDX 23 1 22 2 21 3 20 4 9 5 8 6 10 7 6 8 18 9 46 10 19 11 5 12
REMARK SMILES IDX 7 13 4 14 45 15 38 16 44 17 40 18 42 20 41 21 43 22 39 23
REMARK SMILES IDX 11 25 12 26 13 27 17 28 14 29 16 30 15 31 2 32 3 33 1 34
REMARK SMILES IDX 37 35 24 37 25 38 26 39 27 40 28 41 36 42 29 43 33 44 30 45
REMARK SMILES IDX 31 46 34 47 35 48 32 49
REMARK H PARENT 39 24 32 50
REMARK Flexibility Score: 90.00
ROOT
ATOM      1  C   UNL     1      74.110  92.774  71.845  1.00  0.00     0.264 C 
ENDROOT
BRANCH   1   2
ATOM      2  C   UNL     1      73.492  92.227  70.579  1.00  0.00    -0.033 C 
ATOM      3  C   UNL     1      74.209  91.388  69.805  1.00  0.00    -0.015 C 
BRANCH   3   4
ATOM      4  C   UNL     1      73.850  90.769  68.464  1.00  0.00     0.078 C 
ATOM      5  O   UNL     1      72.827  88.567  68.936  1.00  0.00    -0.319 OA
ATOM      6  C   UNL     1      72.551  89.886  68.370  1.00  0.00     0.095 C 
ATOM      7  C   UNL     1      74.096  87.993  68.571  1.00  0.00     0.289 C 
ATOM      8  C   UNL     1      72.186  89.731  66.836  1.00  0.00     0.023 C 
ATOM      9  O   UNL     1      75.176  88.848  68.940  1.00  0.00    -0.320 OA
ATOM     10  O   UNL     1      74.220  87.803  67.164  1.00  0.00    -0.313 OA
ATOM     11  C   UNL     1      75.020  89.887  67.961  1.00  0.00     0.170 C 
ATOM     12  C   UNL     1      73.465  89.702  65.944  1.00  0.00     0.049 C 
ATOM     13  C   UNL     1      71.293  88.529  66.488  1.00  0.00     0.011 C 
ATOM     14  C   UNL     1      74.656  89.091  66.683  1.00  0.00     0.122 C 
BRANCH   6  15
ATOM     15  C   UNL     1      71.422  90.467  69.270  1.00  0.00     0.086 C 
ATOM     16  C   UNL     1      71.250  91.999  69.240  1.00  0.00     0.140 CG0
ATOM     17  C   UNL     1      70.018  89.954  69.115  1.00  0.00    -0.010 C 
ATOM     18  C   UNL     1      69.754  92.163  69.410  1.00  0.00     0.190 C 
ATOM     19  G   UNL     1      72.043  92.691  70.348  1.00  0.00     0.000 G0
ATOM     20  C   UNL     1      69.057  90.877  69.215  1.00  0.00    -0.008 C 
ATOM     21  O   UNL     1      69.177  93.217  69.628  1.00  0.00    -0.291 OA
ATOM     22  C   UNL     1      67.587  90.727  69.198  1.00  0.00     0.048 C 
BRANCH  16  23
ATOM     23  O   UNL     1      71.513  92.582  67.975  1.00  0.00    -0.381 OA
ATOM     24  H   UNL     1      72.026  91.949  67.446  1.00  0.00     0.212 HD
ENDBRANCH  16  23
ENDBRANCH   6  15
BRANCH   7  25
ATOM     25  C   UNL     1      74.235  86.659  69.276  1.00  0.00     0.135 C 
BRANCH  25  26
ATOM     26  C   UNL     1      75.233  85.759  68.590  1.00  0.00    -0.040 A 
ATOM     27  C   UNL     1      76.581  85.814  68.946  1.00  0.00     0.004 A 
ATOM     28  C   UNL     1      74.808  84.871  67.603  1.00  0.00     0.004 A 
ATOM     29  C   UNL     1      77.504  84.981  68.312  1.00  0.00     0.000 A 
ATOM     30  C   UNL     1      75.731  84.038  66.969  1.00  0.00     0.000 A 
ATOM     31  C   UNL     1      77.079  84.094  67.324  1.00  0.00     0.000 A 
ENDBRANCH  25  26
ENDBRANCH   7  25
BRANCH  14  32
ATOM     32  C   UNL     1      75.839  88.886  65.794  1.00  0.00    -0.046 C 
ATOM     33  C   UNL     1      76.044  89.908  64.717  1.00  0.00     0.042 C 
ATOM     34  C   UNL     1      76.672  87.845  65.951  1.00  0.00     0.010 C 
ENDBRANCH  14  32
ENDBRANCH   3   4
BRANCH   2  35
ATOM     35  C   UNL     1      72.075  92.718  70.349  1.00  0.00     0.078 CG0
ATOM     36  G   UNL     1      71.258  92.011  69.269  1.00  0.00     0.000 G0
ENDBRANCH   2  35
ENDBRANCH   1   2
BRANCH   1  37
ATOM     37  O   UNL     1      73.243  93.733  72.411  1.00  0.00    -0.461 OA
BRANCH  37  38
ATOM     38  C   UNL     1      73.678  94.339  73.567  1.00  0.00     0.310 C 
ATOM     39  O   UNL     1      73.247  94.105  74.688  1.00  0.00    -0.252 OA
BRANCH  38  40
ATOM     40  C   UNL     1      74.766  95.333  73.237  1.00  0.00     0.158 C 
BRANCH  40  41
ATOM     41  C   UNL     1      75.981  95.189  74.116  1.00  0.00    -0.033 A 
ATOM     42  C   UNL     1      76.767  96.304  74.408  1.00  0.00     0.054 A 
ATOM     43  C   UNL     1      76.320  93.941  74.638  1.00  0.00     0.008 A 
ATOM     44  C   UNL     1      77.892  96.171  75.222  1.00  0.00     0.160 A 
ATOM     45  C   UNL     1      77.445  93.807  75.452  1.00  0.00     0.050 A 
ATOM     46  C   UNL     1      78.232  94.921  75.744  1.00  0.00     0.157 A 
BRANCH  44  47
ATOM     47  O   UNL     1      78.652  97.266  75.500  1.00  0.00    -0.493 OA
ATOM     48  C   UNL     1      78.521  98.385  74.624  1.00  0.00     0.278 C 
ENDBRANCH  44  47
BRANCH  46  49
ATOM     49  O   UNL     1      79.327  94.779  76.541  1.00  0.00    -0.504 OA
ATOM     50  H   UNL     1      79.817  95.618  76.557  1.00  0.00     0.293 HD
ENDBRANCH  46  49
ENDBRANCH  40  41
ENDBRANCH  38  40
ENDBRANCH  37  38
ENDBRANCH   1  37
TORSDOF 11
ENDMDL
MODEL 5
REMARK VINA RESULT:    -5.220     31.455     34.286
REMARK INTER + INTRA:         -10.225
REMARK INTER:                  -9.254
REMARK INTRA:                  -0.972
REMARK UNBOUND:                -1.038
REMARK SMILES C=C(C)[C@]12C[C@@H](C)[C@@]34O[C@](Cc5ccccc5)(O[C@@H]1[C@@H]3C=C(COC(=O)Cc1ccc(O)c(OC)c1)C[C@]1(O)C(=O)C(C)=C[C@@H]41)O2
REMARK SMILES IDX 23 1 22 2 21 3 20 4 9 5 8 6 10 7 6 8 18 9 46 10 19 11 5 12
REMARK SMILES IDX 7 13 4 14 45 15 38 16 44 17 40 18 42 20 41 21 43 22 39 23
REMARK SMILES IDX 11 25 12 26 13 27 17 28 14 29 16 30 15 31 2 32 3 33 1 34
REMARK SMILES IDX 37 35 24 37 25 38 26 39 27 40 28 41 36 42 29 43 33 44 30 45
REMARK SMILES IDX 31 46 34 47 35 48 32 49
REMARK H PARENT 39 24 32 50
REMARK Flexibility Score: 90.00
ROOT
ATOM      1  C   UNL     1      91.693  93.026  92.975  1.00  0.00     0.264 C 
ENDROOT
BRANCH   1   2
ATOM      2  C   UNL     1      91.856  94.336  92.242  1.00  0.00    -0.033 C 
ATOM      3  C   UNL     1      90.954  95.319  92.439  1.00  0.00    -0.015 C 
BRANCH   3   4
ATOM      4  C   UNL     1      90.850  96.681  91.774  1.00  0.00     0.078 C 
ATOM      5  O   UNL     1      92.119  98.269  93.183  1.00  0.00    -0.319 OA
ATOM      6  C   UNL     1      92.086  97.652  91.859  1.00  0.00     0.095 C 
ATOM      7  C   UNL     1      90.845  98.706  93.691  1.00  0.00     0.289 C 
ATOM      8  C   UNL     1      91.889  98.778  90.761  1.00  0.00     0.023 C 
ATOM      9  O   UNL     1      89.914  97.629  93.749  1.00  0.00    -0.320 OA
ATOM     10  O   UNL     1      90.240  99.693  92.860  1.00  0.00    -0.313 OA
ATOM     11  C   UNL     1      89.640  97.457  92.350  1.00  0.00     0.170 C 
ATOM     12  C   UNL     1      90.381  99.117  90.555  1.00  0.00     0.049 C 
ATOM     13  C   UNL     1      92.677 100.076  90.999  1.00  0.00     0.011 C 
ATOM     14  C   UNL     1      89.576  98.919  91.840  1.00  0.00     0.122 C 
BRANCH   6  15
ATOM     15  C   UNL     1      93.420  96.856  91.768  1.00  0.00     0.086 C 
ATOM     16  C   UNL     1      93.468  95.726  90.718  1.00  0.00     0.140 CG0
ATOM     17  C   UNL     1      94.707  97.599  91.541  1.00  0.00    -0.010 C 
ATOM     18  C   UNL     1      94.911  95.766  90.262  1.00  0.00     0.190 C 
ATOM     19  G   UNL     1      93.078  94.372  91.310  1.00  0.00     0.000 G0
ATOM     20  C   UNL     1      95.577  96.999  90.721  1.00  0.00    -0.008 C 
ATOM     21  O   UNL     1      95.456  94.925  89.563  1.00  0.00    -0.291 OA
ATOM     22  C   UNL     1      96.950  97.390  90.340  1.00  0.00     0.048 C 
BRANCH  16  23
ATOM     23  O   UNL     1      92.732  96.007  89.539  1.00  0.00    -0.381 OA
ATOM     24  H   UNL     1      92.036  96.649  89.757  1.00  0.00     0.212 HD
ENDBRANCH  16  23
ENDBRANCH   6  15
BRANCH   7  25
ATOM     25  C   UNL     1      91.056  99.275  95.080  1.00  0.00     0.135 C 
BRANCH  25  26
ATOM     26  C   UNL     1      91.297 100.764  95.050  1.00  0.00    -0.040 A 
ATOM     27  C   UNL     1      90.270 101.643  95.397  1.00  0.00     0.004 A 
ATOM     28  C   UNL     1      92.545 101.262  94.677  1.00  0.00     0.004 A 
ATOM     29  C   UNL     1      90.493 103.020  95.370  1.00  0.00     0.000 A 
ATOM     30  C   UNL     1      92.767 102.639  94.650  1.00  0.00     0.000 A 
ATOM     31  C   UNL     1      91.740 103.518  94.997  1.00  0.00     0.000 A 
ENDBRANCH  25  26
ENDBRANCH   7  25
BRANCH  14  32
ATOM     32  C   UNL     1      88.170  99.409  91.718  1.00  0.00    -0.046 C 
ATOM     33  C   UNL     1      87.620  99.507  90.326  1.00  0.00     0.042 C 
ATOM     34  C   UNL     1      87.439  99.744  92.793  1.00  0.00     0.010 C 
ENDBRANCH  14  32
ENDBRANCH   3   4
BRANCH   2  35
ATOM     35  C   UNL     1      93.079  94.368  91.345  1.00  0.00     0.078 CG0
ATOM     36  G   UNL     1      93.455  95.713  90.724  1.00  0.00     0.000 G0
ENDBRANCH   2  35
ENDBRANCH   1   2
BRANCH   1  37
ATOM     37  O   UNL     1      91.908  91.958  92.077  1.00  0.00    -0.461 OA
BRANCH  37  38
ATOM     38  C   UNL     1      92.875  91.048  92.434  1.00  0.00     0.310 C 
ATOM     39  O   UNL     1      93.812  91.277  93.186  1.00  0.00    -0.252 OA
BRANCH  38  40
ATOM     40  C   UNL     1      92.601  89.727  91.754  1.00  0.00     0.158 C 
BRANCH  40  41
ATOM     41  C   UNL     1      93.601  89.403  90.674  1.00  0.00    -0.033 A 
ATOM     42  C   UNL     1      94.014  88.084  90.479  1.00  0.00     0.054 A 
ATOM     43  C   UNL     1      94.113  90.420  89.869  1.00  0.00     0.008 A 
ATOM     44  C   UNL     1      94.940  87.784  89.479  1.00  0.00     0.160 A 
ATOM     45  C   UNL     1      95.039  90.120  88.870  1.00  0.00     0.050 A 
ATOM     46  C   UNL     1      95.452  88.803  88.675  1.00  0.00     0.157 A 
BRANCH  44  47
ATOM     47  O   UNL     1      95.336  86.494  89.299  1.00  0.00    -0.493 OA
ATOM     48  C   UNL     1      94.556  85.695  88.410  1.00  0.00     0.278 C 
ENDBRANCH  44  47
BRANCH  46  49
ATOM     49  O   UNL     1      96.356  88.522  87.695  1.00  0.00    -0.504 OA
ATOM     50  H   UNL     1      95.950  88.699  86.830  1.00  0.00     0.293 HD
ENDBRANCH  46  49
ENDBRANCH  40  41
ENDBRANCH  38  40
ENDBRANCH  37  38
ENDBRANCH   1  37
TORSDOF 11
ENDMDL
MODEL 6
REMARK VINA RESULT:    -5.130     28.642     32.470
REMARK INTER + INTRA:         -10.067
REMARK INTER:                  -9.160
REMARK INTRA:                  -0.906
REMARK UNBOUND:                -1.038
REMARK SMILES C=C(C)[C@]12C[C@@H](C)[C@@]34O[C@](Cc5ccccc5)(O[C@@H]1[C@@H]3C=C(COC(=O)Cc1ccc(O)c(OC)c1)C[C@]1(O)C(=O)C(C)=C[C@@H]41)O2
REMARK SMILES IDX 23 1 22 2 21 3 20 4 9 5 8 6 10 7 6 8 18 9 46 10 19 11 5 12
REMARK SMILES IDX 7 13 4 14 45 15 38 16 44 17 40 18 42 20 41 21 43 22 39 23
REMARK SMILES IDX 11 25 12 26 13 27 17 28 14 29 16 30 15 31 2 32 3 33 1 34
REMARK SMILES IDX 37 35 24 37 25 38 26 39 27 40 28 41 36 42 29 43 33 44 30 45
REMARK SMILES IDX 31 46 34 47 35 48 32 49
REMARK H PARENT 39 24 32 50
REMARK Flexibility Score: 90.00
ROOT
ATOM      1  C   UNL     1      96.684 102.305  79.110  1.00  0.00     0.264 C 
ENDROOT
BRANCH   1   2
ATOM      2  C   UNL     1      97.603 101.106  79.063  1.00  0.00    -0.033 C 
ATOM      3  C   UNL     1      97.619 100.247  80.101  1.00  0.00    -0.015 C 
BRANCH   3   4
ATOM      4  C   UNL     1      98.495  99.026  80.330  1.00  0.00     0.078 C 
ATOM      5  O   UNL     1      97.255  97.074  79.451  1.00  0.00    -0.319 OA
ATOM      6  C   UNL     1      98.465  97.872  79.260  1.00  0.00     0.095 C 
ATOM      7  C   UNL     1      96.925  96.774  80.821  1.00  0.00     0.289 C 
ATOM      8  C   UNL     1      99.737  96.959  79.503  1.00  0.00     0.023 C 
ATOM      9  O   UNL     1      96.774  97.965  81.589  1.00  0.00    -0.320 OA
ATOM     10  O   UNL     1      97.946  96.023  81.472  1.00  0.00    -0.313 OA
ATOM     11  C   UNL     1      98.146  98.375  81.691  1.00  0.00     0.170 C 
ATOM     12  C   UNL     1     100.113  96.893  81.015  1.00  0.00     0.049 C 
ATOM     13  C   UNL     1      99.644  95.533  78.936  1.00  0.00     0.011 C 
ATOM     14  C   UNL     1      98.881  97.029  81.911  1.00  0.00     0.122 C 
BRANCH   6  15
ATOM     15  C   UNL     1      98.323  98.454  77.824  1.00  0.00     0.086 C 
ATOM     16  C   UNL     1      99.185  99.693  77.505  1.00  0.00     0.140 CG0
ATOM     17  C   UNL     1      98.550  97.556  76.640  1.00  0.00    -0.010 C 
ATOM     18  C   UNL     1      99.519  99.490  76.042  1.00  0.00     0.190 C 
ATOM     19  G   UNL     1      98.433 100.999  77.757  1.00  0.00     0.000 G0
ATOM     20  C   UNL     1      99.195  98.117  75.611  1.00  0.00    -0.008 C 
ATOM     21  O   UNL     1     100.036 100.322  75.312  1.00  0.00    -0.291 OA
ATOM     22  C   UNL     1      99.513  97.571  74.276  1.00  0.00     0.048 C 
BRANCH  16  23
ATOM     23  O   UNL     1     100.450  99.693  78.145  1.00  0.00    -0.381 OA
ATOM     24  H   UNL     1     100.907 100.521  77.923  1.00  0.00     0.212 HD
ENDBRANCH  16  23
ENDBRANCH   6  15
BRANCH   7  25
ATOM     25  C   UNL     1      95.630  95.987  80.836  1.00  0.00     0.135 C 
BRANCH  25  26
ATOM     26  C   UNL     1      95.576  94.966  79.727  1.00  0.00    -0.040 A 
ATOM     27  C   UNL     1      96.360  93.815  79.801  1.00  0.00     0.004 A 
ATOM     28  C   UNL     1      94.741  95.172  78.629  1.00  0.00     0.004 A 
ATOM     29  C   UNL     1      96.310  92.870  78.775  1.00  0.00     0.000 A 
ATOM     30  C   UNL     1      94.691  94.227  77.603  1.00  0.00     0.000 A 
ATOM     31  C   UNL     1      95.476  93.077  77.677  1.00  0.00     0.000 A 
ENDBRANCH  25  26
ENDBRANCH   7  25
BRANCH  14  32
ATOM     32  C   UNL     1      99.190  96.788  83.352  1.00  0.00    -0.046 C 
ATOM     33  C   UNL     1      98.987  97.951  84.277  1.00  0.00     0.042 C 
ATOM     34  C   UNL     1      99.625  95.598  83.795  1.00  0.00     0.010 C 
ENDBRANCH  14  32
ENDBRANCH   3   4
BRANCH   2  35
ATOM     35  C   UNL     1      98.415 101.029  77.784  1.00  0.00     0.078 CG0
ATOM     36  G   UNL     1      99.159  99.724  77.506  1.00  0.00     0.000 G0
ENDBRANCH   2  35
ENDBRANCH   1   2
BRANCH   1  37
ATOM     37  O   UNL     1      95.592 102.090  78.242  1.00  0.00    -0.461 OA
BRANCH  37  38
ATOM     38  C   UNL     1      95.158 103.182  77.528  1.00  0.00     0.310 C 
ATOM     39  O   UNL     1      95.168 103.273  76.308  1.00  0.00    -0.252 OA
BRANCH  38  40
ATOM     40  C   UNL     1      94.670 104.248  78.481  1.00  0.00     0.158 C 
BRANCH  40  41
ATOM     41  C   UNL     1      93.167 104.331  78.551  1.00  0.00    -0.033 A 
ATOM     42  C   UNL     1      92.534 104.499  79.783  1.00  0.00     0.054 A 
ATOM     43  C   UNL     1      92.409 104.241  77.384  1.00  0.00     0.008 A 
ATOM     44  C   UNL     1      91.143 104.576  79.848  1.00  0.00     0.160 A 
ATOM     45  C   UNL     1      91.017 104.318  77.448  1.00  0.00     0.050 A 
ATOM     46  C   UNL     1      90.384 104.485  78.680  1.00  0.00     0.157 A 
BRANCH  44  47
ATOM     47  O   UNL     1      90.536 104.740  81.056  1.00  0.00    -0.493 OA
ATOM     48  C   UNL     1      90.574 106.046  81.629  1.00  0.00     0.278 C 
ENDBRANCH  44  47
BRANCH  46  49
ATOM     49  O   UNL     1      89.025 104.561  78.730  1.00  0.00    -0.504 OA
ATOM     50  H   UNL     1      88.656 104.168  77.921  1.00  0.00     0.293 HD
ENDBRANCH  46  49
ENDBRANCH  40  41
ENDBRANCH  38  40
ENDBRANCH  37  38
ENDBRANCH   1  37
TORSDOF 11
ENDMDL
MODEL 7
REMARK VINA RESULT:    -4.976     11.830     16.377
REMARK INTER + INTRA:          -9.795
REMARK INTER:                  -7.813
REMARK INTRA:                  -1.982
REMARK UNBOUND:                -1.038
REMARK SMILES C=C(C)[C@]12C[C@@H](C)[C@@]34O[C@](Cc5ccccc5)(O[C@@H]1[C@@H]3C=C(COC(=O)Cc1ccc(O)c(OC)c1)C[C@]1(O)C(=O)C(C)=C[C@@H]41)O2
REMARK SMILES IDX 23 1 22 2 21 3 20 4 9 5 8 6 10 7 6 8 18 9 46 10 19 11 5 12
REMARK SMILES IDX 7 13 4 14 45 15 38 16 44 17 40 18 42 20 41 21 43 22 39 23
REMARK SMILES IDX 11 25 12 26 13 27 17 28 14 29 16 30 15 31 2 32 3 33 1 34
REMARK SMILES IDX 37 35 24 37 25 38 26 39 27 40 28 41 36 42 29 43 33 44 30 45
REMARK SMILES IDX 31 46 34 47 35 48 32 49
REMARK H PARENT 39 24 32 50
REMARK Flexibility Score: 90.00
ROOT
ATOM      1  C   UNL     1      76.578  97.962  69.724  1.00  0.00     0.264 C 
ENDROOT
BRANCH   1   2
ATOM      2  C   UNL     1      77.117  97.606  71.090  1.00  0.00    -0.033 C 
ATOM      3  C   UNL     1      77.652  98.574  71.860  1.00  0.00    -0.015 C 
BRANCH   3   4
ATOM      4  C   UNL     1      78.322  98.465  73.220  1.00  0.00     0.078 C 
ATOM      5  O   UNL     1      76.564  98.831  74.922  1.00  0.00    -0.319 OA
ATOM      6  C   UNL     1      77.505  97.837  74.410  1.00  0.00     0.095 C 
ATOM      7  C   UNL     1      77.090 100.165  75.056  1.00  0.00     0.289 C 
ATOM      8  C   UNL     1      78.535  97.455  75.551  1.00  0.00     0.023 C 
ATOM      9  O   UNL     1      77.588 100.652  73.813  1.00  0.00    -0.320 OA
ATOM     10  O   UNL     1      78.190 100.224  75.961  1.00  0.00    -0.313 OA
ATOM     11  C   UNL     1      78.783  99.866  73.694  1.00  0.00     0.170 C 
ATOM     12  C   UNL     1      79.734  98.452  75.596  1.00  0.00     0.049 C 
ATOM     13  C   UNL     1      77.937  97.311  76.960  1.00  0.00     0.011 C 
ATOM     14  C   UNL     1      79.321  99.854  75.146  1.00  0.00     0.122 C 
BRANCH   6  15
ATOM     15  C   UNL     1      76.603  96.673  73.906  1.00  0.00     0.086 C 
ATOM     16  C   UNL     1      77.249  95.701  72.897  1.00  0.00     0.140 CG0
ATOM     17  C   UNL     1      75.954  95.758  74.906  1.00  0.00    -0.010 C 
ATOM     18  C   UNL     1      76.606  94.379  73.260  1.00  0.00     0.190 C 
ATOM     19  G   UNL     1      76.976  96.106  71.449  1.00  0.00     0.000 G0
ATOM     20  C   UNL     1      75.915  94.467  74.560  1.00  0.00    -0.008 C 
ATOM     21  O   UNL     1      76.681  93.351  72.604  1.00  0.00    -0.291 OA
ATOM     22  C   UNL     1      75.292  93.316  75.246  1.00  0.00     0.048 C 
BRANCH  16  23
ATOM     23  O   UNL     1      78.632  95.477  73.119  1.00  0.00    -0.381 OA
ATOM     24  H   UNL     1      78.981  96.215  73.646  1.00  0.00     0.212 HD
ENDBRANCH  16  23
ENDBRANCH   6  15
BRANCH   7  25
ATOM     25  C   UNL     1      75.978 101.067  75.552  1.00  0.00     0.135 C 
BRANCH  25  26
ATOM     26  C   UNL     1      75.465 100.641  76.905  1.00  0.00    -0.040 A 
ATOM     27  C   UNL     1      76.337 100.581  77.993  1.00  0.00     0.004 A 
ATOM     28  C   UNL     1      74.121 100.308  77.069  1.00  0.00     0.004 A 
ATOM     29  C   UNL     1      75.863 100.187  79.245  1.00  0.00     0.000 A 
ATOM     30  C   UNL     1      73.647  99.915  78.321  1.00  0.00     0.000 A 
ATOM     31  C   UNL     1      74.519  99.854  79.409  1.00  0.00     0.000 A 
ENDBRANCH  25  26
ENDBRANCH   7  25
BRANCH  14  32
ATOM     32  C   UNL     1      80.401 100.864  75.353  1.00  0.00    -0.046 C 
ATOM     33  C   UNL     1      80.410 101.562  76.681  1.00  0.00     0.042 C 
ATOM     34  C   UNL     1      81.312 101.133  74.406  1.00  0.00     0.010 C 
ENDBRANCH  14  32
ENDBRANCH   3   4
BRANCH   2  35
ATOM     35  C   UNL     1      76.966  96.134  71.424  1.00  0.00     0.078 CG0
ATOM     36  G   UNL     1      77.228  95.715  72.870  1.00  0.00     0.000 G0
ENDBRANCH   2  35
ENDBRANCH   1   2
BRANCH   1  37
ATOM     37  O   UNL     1      77.221  97.172  68.748  1.00  0.00    -0.461 OA
BRANCH  37  38
ATOM     38  C   UNL     1      78.551  97.443  68.525  1.00  0.00     0.310 C 
ATOM     39  O   UNL     1      79.478  96.703  68.824  1.00  0.00    -0.252 OA
BRANCH  38  40
ATOM     40  C   UNL     1      78.686  98.790  67.856  1.00  0.00     0.158 C 
BRANCH  40  41
ATOM     41  C   UNL     1      79.207  99.858  68.783  1.00  0.00    -0.033 A 
ATOM     42  C   UNL     1      78.467 101.022  68.992  1.00  0.00     0.054 A 
ATOM     43  C   UNL     1      80.428  99.681  69.433  1.00  0.00     0.008 A 
ATOM     44  C   UNL     1      78.950 102.010  69.850  1.00  0.00     0.160 A 
ATOM     45  C   UNL     1      80.911 100.669  70.291  1.00  0.00     0.050 A 
ATOM     46  C   UNL     1      80.173 101.834  70.500  1.00  0.00     0.157 A 
BRANCH  44  47
ATOM     47  O   UNL     1      78.220 103.143  70.046  1.00  0.00    -0.493 OA
ATOM     48  C   UNL     1      77.170 103.079  71.010  1.00  0.00     0.278 C 
ENDBRANCH  44  47
BRANCH  46  49
ATOM     49  O   UNL     1      80.653 102.791  71.341  1.00  0.00    -0.504 OA
ATOM     50  H   UNL     1      81.451 102.453  71.782  1.00  0.00     0.293 HD
ENDBRANCH  46  49
ENDBRANCH  40  41
ENDBRANCH  38  40
ENDBRANCH  37  38
ENDBRANCH   1  37
TORSDOF 11
ENDMDL
MODEL 8
REMARK VINA RESULT:    -4.945     11.933     16.669
REMARK INTER + INTRA:          -9.741
REMARK INTER:                  -7.707
REMARK INTRA:                  -2.034
REMARK UNBOUND:                -1.038
REMARK SMILES C=C(C)[C@]12C[C@@H](C)[C@@]34O[C@](Cc5ccccc5)(O[C@@H]1[C@@H]3C=C(COC(=O)Cc1ccc(O)c(OC)c1)C[C@]1(O)C(=O)C(C)=C[C@@H]41)O2
REMARK SMILES IDX 23 1 22 2 21 3 20 4 9 5 8 6 10 7 6 8 18 9 46 10 19 11 5 12
REMARK SMILES IDX 7 13 4 14 45 15 38 16 44 17 40 18 42 20 41 21 43 22 39 23
REMARK SMILES IDX 11 25 12 26 13 27 17 28 14 29 16 30 15 31 2 32 3 33 1 34
REMARK SMILES IDX 37 35 24 37 25 38 26 39 27 40 28 41 36 42 29 43 33 44 30 45
REMARK SMILES IDX 31 46 34 47 35 48 32 49
REMARK H PARENT 39 24 32 50
REMARK Flexibility Score: 90.00
ROOT
ATOM      1  C   UNL     1      76.535  97.626  69.556  1.00  0.00     0.264 C 
ENDROOT
BRANCH   1   2
ATOM      2  C   UNL     1      77.084  97.384  70.943  1.00  0.00    -0.033 C 
ATOM      3  C   UNL     1      77.618  98.413  71.630  1.00  0.00    -0.015 C 
BRANCH   3   4
ATOM      4  C   UNL     1      78.297  98.417  72.990  1.00  0.00     0.078 C 
ATOM      5  O   UNL     1      76.547  98.910  74.667  1.00  0.00    -0.319 OA
ATOM      6  C   UNL     1      77.490  97.883  74.231  1.00  0.00     0.095 C 
ATOM      7  C   UNL     1      77.066 100.253  74.691  1.00  0.00     0.289 C 
ATOM      8  C   UNL     1      78.529  97.599  75.393  1.00  0.00     0.023 C 
ATOM      9  O   UNL     1      77.553 100.641  73.409  1.00  0.00    -0.320 OA
ATOM     10  O   UNL     1      78.170 100.391  75.581  1.00  0.00    -0.313 OA
ATOM     11  C   UNL     1      78.752  99.854  73.346  1.00  0.00     0.170 C 
ATOM     12  C   UNL     1      79.723  98.602  75.350  1.00  0.00     0.049 C 
ATOM     13  C   UNL     1      77.940  97.566  76.812  1.00  0.00     0.011 C 
ATOM     14  C   UNL     1      79.299  99.962  74.792  1.00  0.00     0.122 C 
BRANCH   6  15
ATOM     15  C   UNL     1      76.592  96.677  73.828  1.00  0.00     0.086 C 
ATOM     16  C   UNL     1      77.236  95.634  72.890  1.00  0.00     0.140 CG0
ATOM     17  C   UNL     1      75.960  95.838  74.902  1.00  0.00    -0.010 C 
ATOM     18  C   UNL     1      76.606  94.340  73.361  1.00  0.00     0.190 C 
ATOM     19  G   UNL     1      76.945  95.924  71.418  1.00  0.00     0.000 G0
ATOM     20  C   UNL     1      75.927  94.524  74.658  1.00  0.00    -0.008 C 
ATOM     21  O   UNL     1      76.682  93.265  72.786  1.00  0.00    -0.291 OA
ATOM     22  C   UNL     1      75.319  93.426  75.437  1.00  0.00     0.048 C 
BRANCH  16  23
ATOM     23  O   UNL     1      78.622  95.437  73.115  1.00  0.00    -0.381 OA
ATOM     24  H   UNL     1      79.061  95.333  72.255  1.00  0.00     0.212 HD
ENDBRANCH  16  23
ENDBRANCH   6  15
BRANCH   7  25
ATOM     25  C   UNL     1      75.951 101.186  75.119  1.00  0.00     0.135 C 
BRANCH  25  26
ATOM     26  C   UNL     1      76.019 102.513  74.405  1.00  0.00    -0.040 A 
ATOM     27  C   UNL     1      77.067 103.395  74.672  1.00  0.00     0.004 A 
ATOM     28  C   UNL     1      75.036 102.858  73.478  1.00  0.00     0.004 A 
ATOM     29  C   UNL     1      77.130 104.623  74.011  1.00  0.00     0.000 A 
ATOM     30  C   UNL     1      75.099 104.085  72.818  1.00  0.00     0.000 A 
ATOM     31  C   UNL     1      76.147 104.967  73.085  1.00  0.00     0.000 A 
ENDBRANCH  25  26
ENDBRANCH   7  25
BRANCH  14  32
ATOM     32  C   UNL     1      80.375 100.991  74.910  1.00  0.00    -0.046 C 
ATOM     33  C   UNL     1      81.076 101.365  73.638  1.00  0.00     0.042 C 
ATOM     34  C   UNL     1      80.695 101.551  76.086  1.00  0.00     0.010 C 
ENDBRANCH  14  32
ENDBRANCH   3   4
BRANCH   2  35
ATOM     35  C   UNL     1      76.943  95.942  71.395  1.00  0.00     0.078 CG0
ATOM     36  G   UNL     1      77.239  95.638  72.863  1.00  0.00     0.000 G0
ENDBRANCH   2  35
ENDBRANCH   1   2
BRANCH   1  37
ATOM     37  O   UNL     1      77.167  96.753  68.645  1.00  0.00    -0.461 OA
BRANCH  37  38
ATOM     38  C   UNL     1      78.424  97.118  68.225  1.00  0.00     0.310 C 
ATOM     39  O   UNL     1      79.446  96.475  68.424  1.00  0.00    -0.252 OA
BRANCH  38  40
ATOM     40  C   UNL     1      78.347  98.432  67.484  1.00  0.00     0.158 C 
BRANCH  40  41
ATOM     41  C   UNL     1      79.010  99.565  68.224  1.00  0.00    -0.033 A 
ATOM     42  C   UNL     1      78.533 100.868  68.075  1.00  0.00     0.054 A 
ATOM     43  C   UNL     1      80.098  99.311  69.059  1.00  0.00     0.008 A 
ATOM     44  C   UNL     1      79.146 101.917  68.761  1.00  0.00     0.160 A 
ATOM     45  C   UNL     1      80.711 100.360  69.744  1.00  0.00     0.050 A 
ATOM     46  C   UNL     1      80.236 101.663  69.596  1.00  0.00     0.157 A 
BRANCH  44  47
ATOM     47  O   UNL     1      78.673 103.185  68.607  1.00  0.00    -0.493 OA
ATOM     48  C   UNL     1      77.493 103.529  69.332  1.00  0.00     0.278 C 
ENDBRANCH  44  47
BRANCH  46  49
ATOM     49  O   UNL     1      80.842 102.679  70.271  1.00  0.00    -0.504 OA
ATOM     50  H   UNL     1      81.501 102.305  70.879  1.00  0.00     0.293 HD
ENDBRANCH  46  49
ENDBRANCH  40  41
ENDBRANCH  38  40
ENDBRANCH  37  38
ENDBRANCH   1  37
TORSDOF 11
ENDMDL
MODEL 9
REMARK VINA RESULT:    -4.813     13.745     18.232
REMARK INTER + INTRA:          -9.508
REMARK INTER:                  -7.658
REMARK INTRA:                  -1.850
REMARK UNBOUND:                -1.038
REMARK SMILES C=C(C)[C@]12C[C@@H](C)[C@@]34O[C@](Cc5ccccc5)(O[C@@H]1[C@@H]3C=C(COC(=O)Cc1ccc(O)c(OC)c1)C[C@]1(O)C(=O)C(C)=C[C@@H]41)O2
REMARK SMILES IDX 23 1 22 2 21 3 20 4 9 5 8 6 10 7 6 8 18 9 46 10 19 11 5 12
REMARK SMILES IDX 7 13 4 14 45 15 38 16 44 17 40 18 42 20 41 21 43 22 39 23
REMARK SMILES IDX 11 25 12 26 13 27 17 28 14 29 16 30 15 31 2 32 3 33 1 34
REMARK SMILES IDX 37 35 24 37 25 38 26 39 27 40 28 41 36 42 29 43 33 44 30 45
REMARK SMILES IDX 31 46 34 47 35 48 32 49
REMARK H PARENT 39 24 32 50
REMARK Flexibility Score: 90.00
ROOT
ATOM      1  C   UNL     1      79.259 101.970  75.841  1.00  0.00     0.264 C 
ENDROOT
BRANCH   1   2
ATOM      2  C   UNL     1      79.879 101.844  74.469  1.00  0.00    -0.033 C 
ATOM      3  C   UNL     1      79.387 100.933  73.604  1.00  0.00    -0.015 C 
BRANCH   3   4
ATOM      4  C   UNL     1      79.875 100.561  72.214  1.00  0.00     0.078 C 
ATOM      5  O   UNL     1      78.641 101.987  70.612  1.00  0.00    -0.319 OA
ATOM      6  C   UNL     1      79.977 101.696  71.128  1.00  0.00     0.095 C 
ATOM      7  C   UNL     1      77.817 100.835  70.351  1.00  0.00     0.289 C 
ATOM      8  C   UNL     1      80.886 101.152  69.949  1.00  0.00     0.023 C 
ATOM      9  O   UNL     1      77.656 100.038  71.522  1.00  0.00    -0.320 OA
ATOM     10  O   UNL     1      78.390  99.970  69.373  1.00  0.00    -0.313 OA
ATOM     11  C   UNL     1      78.967  99.459  71.615  1.00  0.00     0.170 C 
ATOM     12  C   UNL     1      80.711  99.614  69.756  1.00  0.00     0.049 C 
ATOM     13  C   UNL     1      80.708 101.861  68.597  1.00  0.00     0.011 C 
ATOM     14  C   UNL     1      79.303  99.153  70.134  1.00  0.00     0.122 C 
BRANCH   6  15
ATOM     15  C   UNL     1      80.445 103.034  71.770  1.00  0.00     0.086 C 
ATOM     16  C   UNL     1      81.579 102.929  72.811  1.00  0.00     0.140 CG0
ATOM     17  C   UNL     1      80.891 104.161  70.881  1.00  0.00    -0.010 C 
ATOM     18  C   UNL     1      82.348 104.213  72.587  1.00  0.00     0.190 C 
ATOM     19  G   UNL     1      81.043 102.808  74.237  1.00  0.00     0.000 G0
ATOM     20  C   UNL     1      81.940 104.861  71.326  1.00  0.00    -0.008 C 
ATOM     21  O   UNL     1      83.228 104.647  73.314  1.00  0.00    -0.291 OA
ATOM     22  C   UNL     1      82.588 106.065  70.766  1.00  0.00     0.048 C 
BRANCH  16  23
ATOM     23  O   UNL     1      82.526 101.913  72.527  1.00  0.00    -0.381 OA
ATOM     24  H   UNL     1      83.240 102.299  71.993  1.00  0.00     0.212 HD
ENDBRANCH  16  23
ENDBRANCH   6  15
BRANCH   7  25
ATOM     25  C   UNL     1      76.464 101.317  69.870  1.00  0.00     0.135 C 
BRANCH  25  26
ATOM     26  C   UNL     1      75.864 100.387  68.845  1.00  0.00    -0.040 A 
ATOM     27  C   UNL     1      75.088  99.303  69.256  1.00  0.00     0.004 A 
ATOM     28  C   UNL     1      76.084 100.611  67.486  1.00  0.00     0.004 A 
ATOM     29  C   UNL     1      74.533  98.443  68.309  1.00  0.00     0.000 A 
ATOM     30  C   UNL     1      75.528  99.751  66.538  1.00  0.00     0.000 A 
ATOM     31  C   UNL     1      74.753  98.667  66.950  1.00  0.00     0.000 A 
ENDBRANCH  25  26
ENDBRANCH   7  25
BRANCH  14  32
ATOM     32  C   UNL     1      79.055  97.721  69.787  1.00  0.00    -0.046 C 
ATOM     33  C   UNL     1      78.414  97.464  68.455  1.00  0.00     0.042 C 
ATOM     34  C   UNL     1      79.386  96.722  70.618  1.00  0.00     0.010 C 
ENDBRANCH  14  32
ENDBRANCH   3   4
BRANCH   2  35
ATOM     35  C   UNL     1      81.022 102.815  74.241  1.00  0.00     0.078 CG0
ATOM     36  G   UNL     1      81.582 102.914  72.822  1.00  0.00     0.000 G0
ENDBRANCH   2  35
ENDBRANCH   1   2
BRANCH   1  37
ATOM     37  O   UNL     1      79.140 100.688  76.419  1.00  0.00    -0.461 OA
BRANCH  37  38
ATOM     38  C   UNL     1      77.862 100.197  76.550  1.00  0.00     0.310 C 
ATOM     39  O   UNL     1      76.851 100.746  76.133  1.00  0.00    -0.252 OA
BRANCH  38  40
ATOM     40  C   UNL     1      77.901  98.879  77.287  1.00  0.00     0.158 C 
BRANCH  40  41
ATOM     41  C   UNL     1      77.893  97.688  76.364  1.00  0.00    -0.033 A 
ATOM     42  C   UNL     1      77.058  96.603  76.632  1.00  0.00     0.054 A 
ATOM     43  C   UNL     1      78.720  97.671  75.241  1.00  0.00     0.008 A 
ATOM     44  C   UNL     1      77.050  95.501  75.777  1.00  0.00     0.160 A 
ATOM     45  C   UNL     1      78.712  96.568  74.386  1.00  0.00     0.050 A 
ATOM     46  C   UNL     1      77.878  95.483  74.654  1.00  0.00     0.157 A 
BRANCH  44  47
ATOM     47  O   UNL     1      76.231  94.448  76.050  1.00  0.00    -0.493 OA
ATOM     48  C   UNL     1      75.810  94.287  77.403  1.00  0.00     0.278 C 
ENDBRANCH  44  47
BRANCH  46  49
ATOM     49  O   UNL     1      77.878  94.413  73.811  1.00  0.00    -0.504 OA
ATOM     50  H   UNL     1      76.984  94.296  73.448  1.00  0.00     0.293 HD
ENDBRANCH  46  49
ENDBRANCH  40  41
ENDBRANCH  38  40
ENDBRANCH  37  38
ENDBRANCH   1  37
TORSDOF 11
ENDMDL
MODEL 10
REMARK VINA RESULT:    -4.751     13.385     17.519
REMARK INTER + INTRA:          -9.399
REMARK INTER:                  -8.276
REMARK INTRA:                  -1.123
REMARK UNBOUND:                -1.038
REMARK SMILES C=C(C)[C@]12C[C@@H](C)[C@@]34O[C@](Cc5ccccc5)(O[C@@H]1[C@@H]3C=C(COC(=O)Cc1ccc(O)c(OC)c1)C[C@]1(O)C(=O)C(C)=C[C@@H]41)O2
REMARK SMILES IDX 23 1 22 2 21 3 20 4 9 5 8 6 10 7 6 8 18 9 46 10 19 11 5 12
REMARK SMILES IDX 7 13 4 14 45 15 38 16 44 17 40 18 42 20 41 21 43 22 39 23
REMARK SMILES IDX 11 25 12 26 13 27 17 28 14 29 16 30 15 31 2 32 3 33 1 34
REMARK SMILES IDX 37 35 24 37 25 38 26 39 27 40 28 41 36 42 29 43 33 44 30 45
REMARK SMILES IDX 31 46 34 47 35 48 32 49
REMARK H PARENT 39 24 32 50
REMARK Flexibility Score: 90.00
ROOT
ATOM      1  C   UNL     1      68.355  90.800  82.655  1.00  0.00     0.264 C 
ENDROOT
BRANCH   1   2
ATOM      2  C   UNL     1      69.754  90.743  83.222  1.00  0.00    -0.033 C 
ATOM      3  C   UNL     1      70.779  91.235  82.498  1.00  0.00    -0.015 C 
BRANCH   3   4
ATOM      4  C   UNL     1      72.268  91.228  82.804  1.00  0.00     0.078 C 
ATOM      5  O   UNL     1      72.778  93.362  83.948  1.00  0.00    -0.319 OA
ATOM      6  C   UNL     1      72.762  91.913  84.133  1.00  0.00     0.095 C 
ATOM      7  C   UNL     1      73.302  93.816  82.685  1.00  0.00     0.289 C 
ATOM      8  C   UNL     1      74.236  91.405  84.415  1.00  0.00     0.023 C 
ATOM      9  O   UNL     1      72.577  93.256  81.593  1.00  0.00    -0.320 OA
ATOM     10  O   UNL     1      74.658  93.422  82.489  1.00  0.00    -0.313 OA
ATOM     11  C   UNL     1      73.047  91.901  81.647  1.00  0.00     0.170 C 
ATOM     12  C   UNL     1      75.016  91.148  83.088  1.00  0.00     0.049 C 
ATOM     13  C   UNL     1      75.078  92.301  85.337  1.00  0.00     0.011 C 
ATOM     14  C   UNL     1      74.551  92.081  81.970  1.00  0.00     0.122 C 
BRANCH   6  15
ATOM     15  C   UNL     1      71.743  91.680  85.286  1.00  0.00     0.086 C 
ATOM     16  C   UNL     1      71.149  90.260  85.392  1.00  0.00     0.140 CG0
ATOM     17  C   UNL     1      72.144  91.998  86.699  1.00  0.00    -0.010 C 
ATOM     18  C   UNL     1      70.980  90.088  86.887  1.00  0.00     0.190 C 
ATOM     19  G   UNL     1      69.829  90.128  84.635  1.00  0.00     0.000 G0
ATOM     20  C   UNL     1      71.708  91.138  87.625  1.00  0.00    -0.008 C 
ATOM     21  O   UNL     1      70.371  89.180  87.431  1.00  0.00    -0.291 OA
ATOM     22  C   UNL     1      71.836  91.178  89.096  1.00  0.00     0.048 C 
BRANCH  16  23
ATOM     23  O   UNL     1      72.056  89.230  85.034  1.00  0.00    -0.381 OA
ATOM     24  H   UNL     1      71.925  89.019  84.095  1.00  0.00     0.212 HD
ENDBRANCH  16  23
ENDBRANCH   6  15
BRANCH   7  25
ATOM     25  C   UNL     1      73.203  95.327  82.645  1.00  0.00     0.135 C 
BRANCH  25  26
ATOM     26  C   UNL     1      73.671  95.890  81.326  1.00  0.00    -0.040 A 
ATOM     27  C   UNL     1      72.824  95.863  80.217  1.00  0.00     0.004 A 
ATOM     28  C   UNL     1      74.948  96.438  81.214  1.00  0.00     0.004 A 
ATOM     29  C   UNL     1      73.257  96.383  78.996  1.00  0.00     0.000 A 
ATOM     30  C   UNL     1      75.381  96.958  79.994  1.00  0.00     0.000 A 
ATOM     31  C   UNL     1      74.534  96.930  78.886  1.00  0.00     0.000 A 
ENDBRANCH  25  26
ENDBRANCH   7  25
BRANCH  14  32
ATOM     32  C   UNL     1      75.403  91.980  80.747  1.00  0.00    -0.046 C 
ATOM     33  C   UNL     1      76.387  93.092  80.531  1.00  0.00     0.042 C 
ATOM     34  C   UNL     1      75.296  90.954  79.890  1.00  0.00     0.010 C 
ENDBRANCH  14  32
ENDBRANCH   3   4
BRANCH   2  35
ATOM     35  C   UNL     1      69.812  90.115  84.601  1.00  0.00     0.078 CG0
ATOM     36  G   UNL     1      71.120  90.254  85.379  1.00  0.00     0.000 G0
ENDBRANCH   2  35
ENDBRANCH   1   2
BRANCH   1  37
ATOM     37  O   UNL     1      67.671  89.609  82.979  1.00  0.00    -0.461 OA
BRANCH  37  38
ATOM     38  C   UNL     1      66.298  89.655  82.903  1.00  0.00     0.310 C 
ATOM     39  O   UNL     1      65.619  90.660  83.063  1.00  0.00    -0.252 OA
BRANCH  38  40
ATOM     40  C   UNL     1      65.763  88.277  82.592  1.00  0.00     0.158 C 
BRANCH  40  41
ATOM     41  C   UNL     1      66.265  87.223  83.545  1.00  0.00    -0.033 A 
ATOM     42  C   UNL     1      67.034  86.161  83.068  1.00  0.00     0.054 A 
ATOM     43  C   UNL     1      65.963  87.309  84.904  1.00  0.00     0.008 A 
ATOM     44  C   UNL     1      67.499  85.185  83.950  1.00  0.00     0.160 A 
ATOM     45  C   UNL     1      66.427  86.333  85.786  1.00  0.00     0.050 A 
ATOM     46  C   UNL     1      67.195  85.271  85.309  1.00  0.00     0.157 A 
BRANCH  44  47
ATOM     47  O   UNL     1      68.248  84.153  83.472  1.00  0.00    -0.493 OA
ATOM     48  C   UNL     1      67.551  83.092  82.821  1.00  0.00     0.278 C 
ENDBRANCH  44  47
BRANCH  46  49
ATOM     49  O   UNL     1      67.645  84.325  86.179  1.00  0.00    -0.504 OA
ATOM     50  H   UNL     1      68.467  84.640  86.592  1.00  0.00     0.293 HD
ENDBRANCH  46  49
ENDBRANCH  40  41
ENDBRANCH  38  40
ENDBRANCH  37  38
ENDBRANCH   1  37
TORSDOF 11
ENDMDL
