MODEL 1
REMARK VINA RESULT:    -6.233      0.000      0.000
REMARK INTER + INTRA:         -10.826
REMARK INTER:                 -10.058
REMARK INTRA:                  -0.767
REMARK UNBOUND:                -0.767
REMARK SMILES COc1cc(CNC(=O)CCCCC/C=C/C(C)C)ccc1O
REMARK SMILES IDX 11 1 10 2 8 3 7 4 9 6 6 7 5 8 3 9 22 10 4 11 21 12 20 13
REMARK SMILES IDX 2 14 1 15 23 16 12 18 13 19 14 20 15 21 16 22 17 23 18 24
REMARK SMILES IDX 19 25
REMARK H PARENT 7 5 23 17
REMARK Flexibility Score: inf
ROOT
ATOM      1  C   UNL     1      95.802  97.009  74.352  1.00  0.00     0.010 C 
ENDROOT
BRANCH   1   2
ATOM      2  C   UNL     1      95.684  95.477  74.562  1.00  0.00     0.100 C 
BRANCH   2   3
ATOM      3  C   UNL     1      95.057  95.093  75.840  1.00  0.00     0.220 C 
ATOM      4  N   UNL     1      93.906  94.366  75.840  1.00  0.00    -0.352 N 
ATOM      5  H   UNL     1      93.514  94.199  74.923  1.00  0.00     0.163 HD
ATOM      6  O   UNL     1      95.632  95.418  76.907  1.00  0.00    -0.275 OA
BRANCH   4   7
ATOM      7  C   UNL     1      93.251  93.848  76.997  1.00  0.00     0.151 C 
BRANCH   7   8
ATOM      8  C   UNL     1      92.094  92.980  76.659  1.00  0.00    -0.025 A 
ATOM      9  C   UNL     1      90.944  91.465  75.100  1.00  0.00     0.160 A 
ATOM     10  C   UNL     1      89.858  91.367  75.997  1.00  0.00     0.157 A 
ATOM     11  C   UNL     1      92.047  92.276  75.432  1.00  0.00     0.056 A 
ATOM     12  C   UNL     1      89.900  92.049  77.226  1.00  0.00     0.050 A 
ATOM     13  C   UNL     1      91.015  92.841  77.560  1.00  0.00     0.009 A 
BRANCH   9  14
ATOM     14  O   UNL     1      90.951  90.736  73.940  1.00  0.00    -0.493 OA
ATOM     15  C   UNL     1      91.011  91.533  72.745  1.00  0.00     0.278 C 
ENDBRANCH   9  14
BRANCH  10  16
ATOM     16  O   UNL     1      88.765  90.620  75.702  1.00  0.00    -0.504 OA
ATOM     17  H   UNL     1      89.037  89.825  75.237  1.00  0.00     0.293 HD
ENDBRANCH  10  16
ENDBRANCH   7   8
ENDBRANCH   4   7
ENDBRANCH   2   3
ENDBRANCH   1   2
BRANCH   1  18
ATOM     18  C   UNL     1      94.404  97.665  74.221  1.00  0.00     0.001 C 
BRANCH  18  19
ATOM     19  C   UNL     1      93.924  97.823  72.756  1.00  0.00     0.004 C 
BRANCH  19  20
ATOM     20  C   UNL     1      93.733  99.319  72.380  1.00  0.00     0.027 C 
BRANCH  20  21
ATOM     21  C   UNL     1      92.855  99.527  71.241  1.00  0.00    -0.031 C 
ATOM     22  C   UNL     1      92.563  98.545  70.369  1.00  0.00    -0.028 C 
BRANCH  22  23
ATOM     23  C   UNL     1      91.681  98.721  69.218  1.00  0.00     0.005 C 
ATOM     24  C   UNL     1      90.290  98.096  69.506  1.00  0.00     0.012 C 
ATOM     25  C   UNL     1      91.586 100.224  68.840  1.00  0.00     0.012 C 
ENDBRANCH  22  23
ENDBRANCH  20  21
ENDBRANCH  19  20
ENDBRANCH  18  19
ENDBRANCH   1  18
TORSDOF 11
ENDMDL
MODEL 2
REMARK VINA RESULT:    -6.009     28.835     30.935
REMARK INTER + INTRA:         -10.464
REMARK INTER:                  -8.073
REMARK INTRA:                  -2.391
REMARK UNBOUND:                -0.767
REMARK SMILES COc1cc(CNC(=O)CCCCC/C=C/C(C)C)ccc1O
REMARK SMILES IDX 11 1 10 2 8 3 7 4 9 6 6 7 5 8 3 9 22 10 4 11 21 12 20 13
REMARK SMILES IDX 2 14 1 15 23 16 12 18 13 19 14 20 15 21 16 22 17 23 18 24
REMARK SMILES IDX 19 25
REMARK H PARENT 7 5 23 17
REMARK Flexibility Score: inf
ROOT
ATOM      1  C   UNL     1      80.352  67.061  72.206  1.00  0.00     0.010 C 
ENDROOT
BRANCH   1   2
ATOM      2  C   UNL     1      80.180  65.520  72.167  1.00  0.00     0.100 C 
BRANCH   2   3
ATOM      3  C   UNL     1      80.453  64.853  73.454  1.00  0.00     0.220 C 
ATOM      4  N   UNL     1      81.380  65.374  74.304  1.00  0.00    -0.352 N 
ATOM      5  H   UNL     1      81.883  66.173  73.942  1.00  0.00     0.163 HD
ATOM      6  O   UNL     1      79.787  63.833  73.749  1.00  0.00    -0.275 OA
BRANCH   4   7
ATOM      7  C   UNL     1      81.672  64.887  75.613  1.00  0.00     0.151 C 
BRANCH   7   8
ATOM      8  C   UNL     1      82.823  65.586  76.241  1.00  0.00    -0.025 A 
ATOM      9  C   UNL     1      84.957  65.517  77.461  1.00  0.00     0.160 A 
ATOM     10  C   UNL     1      84.989  66.929  77.483  1.00  0.00     0.157 A 
ATOM     11  C   UNL     1      83.872  64.858  76.849  1.00  0.00     0.056 A 
ATOM     12  C   UNL     1      83.960  67.663  76.867  1.00  0.00     0.050 A 
ATOM     13  C   UNL     1      82.890  66.997  76.240  1.00  0.00     0.009 A 
BRANCH   9  14
ATOM     14  O   UNL     1      85.997  64.793  77.981  1.00  0.00    -0.493 OA
ATOM     15  C   UNL     1      85.694  64.140  79.225  1.00  0.00     0.278 C 
ENDBRANCH   9  14
BRANCH  10  16
ATOM     16  O   UNL     1      86.001  67.601  78.087  1.00  0.00    -0.504 OA
ATOM     17  H   UNL     1      85.712  67.905  78.951  1.00  0.00     0.293 HD
ENDBRANCH  10  16
ENDBRANCH   7   8
ENDBRANCH   4   7
ENDBRANCH   2   3
ENDBRANCH   1   2
BRANCH   1  18
ATOM     18  C   UNL     1      80.869  67.600  70.848  1.00  0.00     0.001 C 
BRANCH  18  19
ATOM     19  C   UNL     1      82.324  68.130  70.901  1.00  0.00     0.004 C 
BRANCH  19  20
ATOM     20  C   UNL     1      82.732  68.524  72.348  1.00  0.00     0.027 C 
BRANCH  20  21
ATOM     21  C   UNL     1      83.787  67.694  72.904  1.00  0.00    -0.031 C 
ATOM     22  C   UNL     1      84.203  66.563  72.306  1.00  0.00    -0.028 C 
BRANCH  22  23
ATOM     23  C   UNL     1      85.264  65.710  72.836  1.00  0.00     0.005 C 
ATOM     24  C   UNL     1      86.017  66.438  73.982  1.00  0.00     0.012 C 
ATOM     25  C   UNL     1      84.679  64.345  73.289  1.00  0.00     0.012 C 
ENDBRANCH  22  23
ENDBRANCH  20  21
ENDBRANCH  19  20
ENDBRANCH  18  19
ENDBRANCH   1  18
TORSDOF 11
ENDMDL
MODEL 3
REMARK VINA RESULT:    -5.948      0.991      2.143
REMARK INTER + INTRA:         -10.366
REMARK INTER:                  -9.627
REMARK INTRA:                  -0.739
REMARK UNBOUND:                -0.767
REMARK SMILES COc1cc(CNC(=O)CCCCC/C=C/C(C)C)ccc1O
REMARK SMILES IDX 11 1 10 2 8 3 7 4 9 6 6 7 5 8 3 9 22 10 4 11 21 12 20 13
REMARK SMILES IDX 2 14 1 15 23 16 12 18 13 19 14 20 15 21 16 22 17 23 18 24
REMARK SMILES IDX 19 25
REMARK H PARENT 7 5 23 17
REMARK Flexibility Score: inf
ROOT
ATOM      1  C   UNL     1      96.281  97.308  74.189  1.00  0.00     0.010 C 
ENDROOT
BRANCH   1   2
ATOM      2  C   UNL     1      96.253  95.800  74.549  1.00  0.00     0.100 C 
BRANCH   2   3
ATOM      3  C   UNL     1      95.448  95.483  75.744  1.00  0.00     0.220 C 
ATOM      4  N   UNL     1      94.233  94.884  75.604  1.00  0.00    -0.352 N 
ATOM      5  H   UNL     1      93.931  94.762  74.647  1.00  0.00     0.163 HD
ATOM      6  O   UNL     1      95.930  95.741  76.872  1.00  0.00    -0.275 OA
BRANCH   4   7
ATOM      7  C   UNL     1      93.400  94.438  76.672  1.00  0.00     0.151 C 
BRANCH   7   8
ATOM      8  C   UNL     1      92.511  93.315  76.274  1.00  0.00    -0.025 A 
ATOM      9  C   UNL     1      90.734  91.703  76.814  1.00  0.00     0.160 A 
ATOM     10  C   UNL     1      90.857  91.138  75.526  1.00  0.00     0.157 A 
ATOM     11  C   UNL     1      91.567  92.779  77.181  1.00  0.00     0.056 A 
ATOM     12  C   UNL     1      91.781  91.673  74.610  1.00  0.00     0.050 A 
ATOM     13  C   UNL     1      92.595  92.761  74.977  1.00  0.00     0.009 A 
BRANCH   9  14
ATOM     14  O   UNL     1      89.778  91.247  77.682  1.00  0.00    -0.493 OA
ATOM     15  C   UNL     1      90.297  90.797  78.944  1.00  0.00     0.278 C 
ENDBRANCH   9  14
BRANCH  10  16
ATOM     16  O   UNL     1      90.094  90.083  75.143  1.00  0.00    -0.504 OA
ATOM     17  H   UNL     1      89.166  90.322  75.203  1.00  0.00     0.293 HD
ENDBRANCH  10  16
ENDBRANCH   7   8
ENDBRANCH   4   7
ENDBRANCH   2   3
ENDBRANCH   1   2
BRANCH   1  18
ATOM     18  C   UNL     1      94.883  97.953  74.372  1.00  0.00     0.001 C 
BRANCH  18  19
ATOM     19  C   UNL     1      93.922  97.705  73.181  1.00  0.00     0.004 C 
BRANCH  19  20
ATOM     20  C   UNL     1      94.537  98.204  71.844  1.00  0.00     0.027 C 
BRANCH  20  21
ATOM     21  C   UNL     1      93.600  98.934  71.007  1.00  0.00    -0.031 C 
ATOM     22  C   UNL     1      92.382  98.454  70.703  1.00  0.00    -0.028 C 
BRANCH  22  23
ATOM     23  C   UNL     1      91.416  99.165  69.870  1.00  0.00     0.005 C 
ATOM     24  C   UNL     1      92.150  99.985  68.776  1.00  0.00     0.012 C 
ATOM     25  C   UNL     1      90.388  98.168  69.269  1.00  0.00     0.012 C 
ENDBRANCH  22  23
ENDBRANCH  20  21
ENDBRANCH  19  20
ENDBRANCH  18  19
ENDBRANCH   1  18
TORSDOF 11
ENDMDL
MODEL 4
REMARK VINA RESULT:    -5.936     19.129     22.430
REMARK INTER + INTRA:         -10.347
REMARK INTER:                  -8.881
REMARK INTRA:                  -1.466
REMARK UNBOUND:                -0.767
REMARK SMILES COc1cc(CNC(=O)CCCCC/C=C/C(C)C)ccc1O
REMARK SMILES IDX 11 1 10 2 8 3 7 4 9 6 6 7 5 8 3 9 22 10 4 11 21 12 20 13
REMARK SMILES IDX 2 14 1 15 23 16 12 18 13 19 14 20 15 21 16 22 17 23 18 24
REMARK SMILES IDX 19 25
REMARK H PARENT 7 5 23 17
REMARK Flexibility Score: inf
ROOT
ATOM      1  C   UNL     1      77.828  86.441  64.800  1.00  0.00     0.010 C 
ENDROOT
BRANCH   1   2
ATOM      2  C   UNL     1      78.297  85.409  65.858  1.00  0.00     0.100 C 
BRANCH   2   3
ATOM      3  C   UNL     1      77.852  84.029  65.589  1.00  0.00     0.220 C 
ATOM      4  N   UNL     1      76.905  83.795  64.639  1.00  0.00    -0.352 N 
ATOM      5  H   UNL     1      76.511  84.627  64.223  1.00  0.00     0.163 HD
ATOM      6  O   UNL     1      78.395  83.094  66.224  1.00  0.00    -0.275 OA
BRANCH   4   7
ATOM      7  C   UNL     1      76.457  82.509  64.214  1.00  0.00     0.151 C 
BRANCH   7   8
ATOM      8  C   UNL     1      74.978  82.376  64.254  1.00  0.00    -0.025 A 
ATOM      9  C   UNL     1      72.745  83.395  64.423  1.00  0.00     0.160 A 
ATOM     10  C   UNL     1      72.158  82.111  64.385  1.00  0.00     0.157 A 
ATOM     11  C   UNL     1      74.149  83.517  64.367  1.00  0.00     0.056 A 
ATOM     12  C   UNL     1      72.972  80.971  64.256  1.00  0.00     0.050 A 
ATOM     13  C   UNL     1      74.371  81.103  64.181  1.00  0.00     0.009 A 
BRANCH   9  14
ATOM     14  O   UNL     1      71.959  84.515  64.460  1.00  0.00    -0.493 OA
ATOM     15  C   UNL     1      72.099  85.292  65.661  1.00  0.00     0.278 C 
ENDBRANCH   9  14
BRANCH  10  16
ATOM     16  O   UNL     1      70.814  81.948  64.466  1.00  0.00    -0.504 OA
ATOM     17  H   UNL     1      70.607  81.011  64.511  1.00  0.00     0.293 HD
ENDBRANCH  10  16
ENDBRANCH   7   8
ENDBRANCH   4   7
ENDBRANCH   2   3
ENDBRANCH   1   2
BRANCH   1  18
ATOM     18  C   UNL     1      77.963  87.890  65.333  1.00  0.00     0.001 C 
BRANCH  18  19
ATOM     19  C   UNL     1      77.642  88.032  66.842  1.00  0.00     0.004 C 
BRANCH  19  20
ATOM     20  C   UNL     1      76.167  88.465  67.070  1.00  0.00     0.027 C 
BRANCH  20  21
ATOM     21  C   UNL     1      75.346  87.441  67.695  1.00  0.00    -0.031 C 
ATOM     22  C   UNL     1      75.586  86.128  67.530  1.00  0.00    -0.028 C 
BRANCH  22  23
ATOM     23  C   UNL     1      74.784  85.075  68.148  1.00  0.00     0.005 C 
ATOM     24  C   UNL     1      75.694  84.109  68.952  1.00  0.00     0.012 C 
ATOM     25  C   UNL     1      73.665  85.699  69.026  1.00  0.00     0.012 C 
ENDBRANCH  22  23
ENDBRANCH  20  21
ENDBRANCH  19  20
ENDBRANCH  18  19
ENDBRANCH   1  18
TORSDOF 11
ENDMDL
MODEL 5
REMARK VINA RESULT:    -5.826     21.236     24.866
REMARK INTER + INTRA:         -10.169
REMARK INTER:                  -8.967
REMARK INTRA:                  -1.201
REMARK UNBOUND:                -0.767
REMARK SMILES COc1cc(CNC(=O)CCCCC/C=C/C(C)C)ccc1O
REMARK SMILES IDX 11 1 10 2 8 3 7 4 9 6 6 7 5 8 3 9 22 10 4 11 21 12 20 13
REMARK SMILES IDX 2 14 1 15 23 16 12 18 13 19 14 20 15 21 16 22 17 23 18 24
REMARK SMILES IDX 19 25
REMARK H PARENT 7 5 23 17
REMARK Flexibility Score: inf
ROOT
ATOM      1  C   UNL     1      74.255  81.447  63.183  1.00  0.00     0.010 C 
ENDROOT
BRANCH   1   2
ATOM      2  C   UNL     1      73.090  80.632  63.803  1.00  0.00     0.100 C 
BRANCH   2   3
ATOM      3  C   UNL     1      71.873  81.424  64.061  1.00  0.00     0.220 C 
ATOM      4  N   UNL     1      71.954  82.781  64.148  1.00  0.00    -0.352 N 
ATOM      5  H   UNL     1      72.893  83.151  64.098  1.00  0.00     0.163 HD
ATOM      6  O   UNL     1      70.778  80.821  64.153  1.00  0.00    -0.275 OA
BRANCH   4   7
ATOM      7  C   UNL     1      70.848  83.670  64.296  1.00  0.00     0.151 C 
BRANCH   7   8
ATOM      8  C   UNL     1      70.525  83.949  65.720  1.00  0.00    -0.025 A 
ATOM      9  C   UNL     1      71.022  85.098  67.837  1.00  0.00     0.160 A 
ATOM     10  C   UNL     1      69.936  84.436  68.450  1.00  0.00     0.157 A 
ATOM     11  C   UNL     1      71.313  84.844  66.481  1.00  0.00     0.056 A 
ATOM     12  C   UNL     1      69.135  83.557  67.698  1.00  0.00     0.050 A 
ATOM     13  C   UNL     1      69.421  83.323  66.340  1.00  0.00     0.009 A 
BRANCH   9  14
ATOM     14  O   UNL     1      71.754  86.022  68.535  1.00  0.00    -0.493 OA
ATOM     15  C   UNL     1      71.394  87.386  68.260  1.00  0.00     0.278 C 
ENDBRANCH   9  14
BRANCH  10  16
ATOM     16  O   UNL     1      69.640  84.631  69.759  1.00  0.00    -0.504 OA
ATOM     17  H   UNL     1      70.295  84.189  70.305  1.00  0.00     0.293 HD
ENDBRANCH  10  16
ENDBRANCH   7   8
ENDBRANCH   4   7
ENDBRANCH   2   3
ENDBRANCH   1   2
BRANCH   1  18
ATOM     18  C   UNL     1      75.605  80.702  63.341  1.00  0.00     0.001 C 
BRANCH  18  19
ATOM     19  C   UNL     1      76.545  81.333  64.398  1.00  0.00     0.004 C 
BRANCH  19  20
ATOM     20  C   UNL     1      76.356  82.874  64.477  1.00  0.00     0.027 C 
BRANCH  20  21
ATOM     21  C   UNL     1      76.787  83.452  65.738  1.00  0.00    -0.031 C 
ATOM     22  C   UNL     1      75.936  83.673  66.756  1.00  0.00    -0.028 C 
BRANCH  22  23
ATOM     23  C   UNL     1      76.339  84.247  68.037  1.00  0.00     0.005 C 
ATOM     24  C   UNL     1      77.324  85.425  67.813  1.00  0.00     0.012 C 
ATOM     25  C   UNL     1      75.087  84.673  68.852  1.00  0.00     0.012 C 
ENDBRANCH  22  23
ENDBRANCH  20  21
ENDBRANCH  19  20
ENDBRANCH  18  19
ENDBRANCH   1  18
TORSDOF 11
ENDMDL
MODEL 6
REMARK VINA RESULT:    -5.796     13.484     16.425
REMARK INTER + INTRA:         -10.121
REMARK INTER:                  -8.052
REMARK INTRA:                  -2.069
REMARK UNBOUND:                -0.767
REMARK SMILES COc1cc(CNC(=O)CCCCC/C=C/C(C)C)ccc1O
REMARK SMILES IDX 11 1 10 2 8 3 7 4 9 6 6 7 5 8 3 9 22 10 4 11 21 12 20 13
REMARK SMILES IDX 2 14 1 15 23 16 12 18 13 19 14 20 15 21 16 22 17 23 18 24
REMARK SMILES IDX 19 25
REMARK H PARENT 7 5 23 17
REMARK Flexibility Score: inf
ROOT
ATOM      1  C   UNL     1      98.661  83.194  74.791  1.00  0.00     0.010 C 
ENDROOT
BRANCH   1   2
ATOM      2  C   UNL     1      97.877  83.899  75.927  1.00  0.00     0.100 C 
BRANCH   2   3
ATOM      3  C   UNL     1      97.166  82.975  76.830  1.00  0.00     0.220 C 
ATOM      4  N   UNL     1      97.208  83.175  78.176  1.00  0.00    -0.352 N 
ATOM      5  H   UNL     1      97.808  83.933  78.471  1.00  0.00     0.163 HD
ATOM      6  O   UNL     1      96.500  82.042  76.322  1.00  0.00    -0.275 OA
BRANCH   4   7
ATOM      7  C   UNL     1      96.491  82.419  79.150  1.00  0.00     0.151 C 
BRANCH   7   8
ATOM      8  C   UNL     1      97.208  82.331  80.448  1.00  0.00    -0.025 A 
ATOM      9  C   UNL     1      99.057  81.454  81.812  1.00  0.00     0.160 A 
ATOM     10  C   UNL     1      98.541  82.125  82.942  1.00  0.00     0.157 A 
ATOM     11  C   UNL     1      98.383  81.554  80.578  1.00  0.00     0.056 A 
ATOM     12  C   UNL     1      97.383  82.915  82.821  1.00  0.00     0.050 A 
ATOM     13  C   UNL     1      96.727  83.025  81.581  1.00  0.00     0.009 A 
BRANCH   9  14
ATOM     14  O   UNL     1     100.232  80.754  81.899  1.00  0.00    -0.493 OA
ATOM     15  C   UNL     1     101.343  81.389  81.245  1.00  0.00     0.278 C 
ENDBRANCH   9  14
BRANCH  10  16
ATOM     16  O   UNL     1      99.144  82.031  84.154  1.00  0.00    -0.504 OA
ATOM     17  H   UNL     1      99.252  81.106  84.386  1.00  0.00     0.293 HD
ENDBRANCH  10  16
ENDBRANCH   7   8
ENDBRANCH   4   7
ENDBRANCH   2   3
ENDBRANCH   1   2
BRANCH   1  18
ATOM     18  C   UNL     1     100.183  83.465  74.908  1.00  0.00     0.001 C 
BRANCH  18  19
ATOM     19  C   UNL     1     100.981  82.283  75.515  1.00  0.00     0.004 C 
BRANCH  19  20
ATOM     20  C   UNL     1     100.904  82.284  77.067  1.00  0.00     0.027 C 
BRANCH  20  21
ATOM     21  C   UNL     1     100.409  81.038  77.628  1.00  0.00    -0.031 C 
ATOM     22  C   UNL     1      99.517  80.264  76.985  1.00  0.00    -0.028 C 
BRANCH  22  23
ATOM     23  C   UNL     1      99.004  79.005  77.519  1.00  0.00     0.005 C 
ATOM     24  C   UNL     1      99.732  78.646  78.842  1.00  0.00     0.012 C 
ATOM     25  C   UNL     1      97.464  79.084  77.696  1.00  0.00     0.012 C 
ENDBRANCH  22  23
ENDBRANCH  20  21
ENDBRANCH  19  20
ENDBRANCH  18  19
ENDBRANCH   1  18
TORSDOF 11
ENDMDL
MODEL 7
REMARK VINA RESULT:    -5.751     15.578     18.140
REMARK INTER + INTRA:         -10.048
REMARK INTER:                  -8.843
REMARK INTRA:                  -1.205
REMARK UNBOUND:                -0.767
REMARK SMILES COc1cc(CNC(=O)CCCCC/C=C/C(C)C)ccc1O
REMARK SMILES IDX 11 1 10 2 8 3 7 4 9 6 6 7 5 8 3 9 22 10 4 11 21 12 20 13
REMARK SMILES IDX 2 14 1 15 23 16 12 18 13 19 14 20 15 21 16 22 17 23 18 24
REMARK SMILES IDX 19 25
REMARK H PARENT 7 5 23 17
REMARK Flexibility Score: inf
ROOT
ATOM      1  C   UNL     1      83.939  90.687  88.188  1.00  0.00     0.010 C 
ENDROOT
BRANCH   1   2
ATOM      2  C   UNL     1      82.943  91.827  87.850  1.00  0.00     0.100 C 
BRANCH   2   3
ATOM      3  C   UNL     1      83.059  93.005  88.729  1.00  0.00     0.220 C 
ATOM      4  N   UNL     1      83.808  94.072  88.337  1.00  0.00    -0.352 N 
ATOM      5  H   UNL     1      84.307  93.941  87.468  1.00  0.00     0.163 HD
ATOM      6  O   UNL     1      82.423  93.007  89.810  1.00  0.00    -0.275 OA
BRANCH   4   7
ATOM      7  C   UNL     1      83.926  95.307  89.042  1.00  0.00     0.151 C 
BRANCH   7   8
ATOM      8  C   UNL     1      83.014  96.356  88.517  1.00  0.00    -0.025 A 
ATOM      9  C   UNL     1      82.002  98.590  88.692  1.00  0.00     0.160 A 
ATOM     10  C   UNL     1      81.232  98.331  87.538  1.00  0.00     0.157 A 
ATOM     11  C   UNL     1      82.880  97.599  89.177  1.00  0.00     0.056 A 
ATOM     12  C   UNL     1      81.370  97.104  86.863  1.00  0.00     0.050 A 
ATOM     13  C   UNL     1      82.262  96.127  87.343  1.00  0.00     0.009 A 
BRANCH   9  14
ATOM     14  O   UNL     1      81.941  99.814  89.305  1.00  0.00    -0.493 OA
ATOM     15  C   UNL     1      83.152 100.196  89.977  1.00  0.00     0.278 C 
ENDBRANCH   9  14
BRANCH  10  16
ATOM     16  O   UNL     1      80.355  99.247  87.055  1.00  0.00    -0.504 OA
ATOM     17  H   UNL     1      79.458  98.960  87.242  1.00  0.00     0.293 HD
ENDBRANCH  10  16
ENDBRANCH   7   8
ENDBRANCH   4   7
ENDBRANCH   2   3
ENDBRANCH   1   2
BRANCH   1  18
ATOM     18  C   UNL     1      84.661  90.179  86.914  1.00  0.00     0.001 C 
BRANCH  18  19
ATOM     19  C   UNL     1      84.722  91.226  85.773  1.00  0.00     0.004 C 
BRANCH  19  20
ATOM     20  C   UNL     1      84.024  90.703  84.486  1.00  0.00     0.027 C 
BRANCH  20  21
ATOM     21  C   UNL     1      82.974  89.733  84.744  1.00  0.00    -0.031 C 
ATOM     22  C   UNL     1      81.678  89.994  84.498  1.00  0.00    -0.028 C 
BRANCH  22  23
ATOM     23  C   UNL     1      80.600  89.038  84.742  1.00  0.00     0.005 C 
ATOM     24  C   UNL     1      80.538  87.993  83.596  1.00  0.00     0.012 C 
ATOM     25  C   UNL     1      80.774  88.376  86.135  1.00  0.00     0.012 C 
ENDBRANCH  22  23
ENDBRANCH  20  21
ENDBRANCH  19  20
ENDBRANCH  18  19
ENDBRANCH   1  18
TORSDOF 11
ENDMDL
MODEL 8
REMARK VINA RESULT:    -5.747     28.381     30.675
REMARK INTER + INTRA:         -10.042
REMARK INTER:                  -7.767
REMARK INTRA:                  -2.275
REMARK UNBOUND:                -0.767
REMARK SMILES COc1cc(CNC(=O)CCCCC/C=C/C(C)C)ccc1O
REMARK SMILES IDX 11 1 10 2 8 3 7 4 9 6 6 7 5 8 3 9 22 10 4 11 21 12 20 13
REMARK SMILES IDX 2 14 1 15 23 16 12 18 13 19 14 20 15 21 16 22 17 23 18 24
REMARK SMILES IDX 19 25
REMARK H PARENT 7 5 23 17
REMARK Flexibility Score: inf
ROOT
ATOM      1  C   UNL     1      81.495  67.699  71.206  1.00  0.00     0.010 C 
ENDROOT
BRANCH   1   2
ATOM      2  C   UNL     1      82.153  68.183  72.525  1.00  0.00     0.100 C 
BRANCH   2   3
ATOM      3  C   UNL     1      83.530  67.693  72.723  1.00  0.00     0.220 C 
ATOM      4  N   UNL     1      84.392  68.394  73.511  1.00  0.00    -0.352 N 
ATOM      5  H   UNL     1      84.028  69.271  73.857  1.00  0.00     0.163 HD
ATOM      6  O   UNL     1      83.860  66.610  72.185  1.00  0.00    -0.275 OA
BRANCH   4   7
ATOM      7  C   UNL     1      85.713  67.985  73.863  1.00  0.00     0.151 C 
BRANCH   7   8
ATOM      8  C   UNL     1      85.786  67.398  75.226  1.00  0.00    -0.025 A 
ATOM      9  C   UNL     1      85.915  65.436  76.702  1.00  0.00     0.160 A 
ATOM     10  C   UNL     1      85.871  66.283  77.831  1.00  0.00     0.157 A 
ATOM     11  C   UNL     1      85.863  65.998  75.410  1.00  0.00     0.056 A 
ATOM     12  C   UNL     1      85.812  67.678  77.659  1.00  0.00     0.050 A 
ATOM     13  C   UNL     1      85.780  68.232  76.366  1.00  0.00     0.009 A 
BRANCH   9  14
ATOM     14  O   UNL     1      86.061  64.082  76.857  1.00  0.00    -0.493 OA
ATOM     15  C   UNL     1      87.348  63.581  76.460  1.00  0.00     0.278 C 
ENDBRANCH   9  14
BRANCH  10  16
ATOM     16  O   UNL     1      85.890  65.780  79.091  1.00  0.00    -0.504 OA
ATOM     17  H   UNL     1      85.238  66.238  79.627  1.00  0.00     0.293 HD
ENDBRANCH  10  16
ENDBRANCH   7   8
ENDBRANCH   4   7
ENDBRANCH   2   3
ENDBRANCH   1   2
BRANCH   1  18
ATOM     18  C   UNL     1      80.183  66.924  71.488  1.00  0.00     0.001 C 
BRANCH  18  19
ATOM     19  C   UNL     1      80.378  65.392  71.613  1.00  0.00     0.004 C 
BRANCH  19  20
ATOM     20  C   UNL     1      79.970  64.881  73.023  1.00  0.00     0.027 C 
BRANCH  20  21
ATOM     21  C   UNL     1      81.061  64.878  73.982  1.00  0.00    -0.031 C 
ATOM     22  C   UNL     1      81.215  65.850  74.899  1.00  0.00    -0.028 C 
BRANCH  22  23
ATOM     23  C   UNL     1      82.297  65.873  75.880  1.00  0.00     0.005 C 
ATOM     24  C   UNL     1      82.257  67.193  76.695  1.00  0.00     0.012 C 
ATOM     25  C   UNL     1      82.225  64.616  76.789  1.00  0.00     0.012 C 
ENDBRANCH  22  23
ENDBRANCH  20  21
ENDBRANCH  19  20
ENDBRANCH  18  19
ENDBRANCH   1  18
TORSDOF 11
ENDMDL
MODEL 9
REMARK VINA RESULT:    -5.711     29.262     31.338
REMARK INTER + INTRA:          -9.984
REMARK INTER:                  -7.519
REMARK INTRA:                  -2.465
REMARK UNBOUND:                -0.767
REMARK SMILES COc1cc(CNC(=O)CCCCC/C=C/C(C)C)ccc1O
REMARK SMILES IDX 11 1 10 2 8 3 7 4 9 6 6 7 5 8 3 9 22 10 4 11 21 12 20 13
REMARK SMILES IDX 2 14 1 15 23 16 12 18 13 19 14 20 15 21 16 22 17 23 18 24
REMARK SMILES IDX 19 25
REMARK H PARENT 7 5 23 17
REMARK Flexibility Score: inf
ROOT
ATOM      1  C   UNL     1      80.148  65.242  72.090  1.00  0.00     0.010 C 
ENDROOT
BRANCH   1   2
ATOM      2  C   UNL     1      80.216  65.859  73.511  1.00  0.00     0.100 C 
BRANCH   2   3
ATOM      3  C   UNL     1      80.888  65.002  74.506  1.00  0.00     0.220 C 
ATOM      4  N   UNL     1      81.331  65.541  75.675  1.00  0.00    -0.352 N 
ATOM      5  H   UNL     1      81.226  66.544  75.744  1.00  0.00     0.163 HD
ATOM      6  O   UNL     1      80.997  63.778  74.260  1.00  0.00    -0.275 OA
BRANCH   4   7
ATOM      7  C   UNL     1      81.907  64.812  76.758  1.00  0.00     0.151 C 
BRANCH   7   8
ATOM      8  C   UNL     1      83.387  64.717  76.661  1.00  0.00    -0.025 A 
ATOM      9  C   UNL     1      85.609  65.762  76.807  1.00  0.00     0.160 A 
ATOM     10  C   UNL     1      86.207  64.542  76.422  1.00  0.00     0.157 A 
ATOM     11  C   UNL     1      84.206  65.843  76.915  1.00  0.00     0.056 A 
ATOM     12  C   UNL     1      85.404  63.412  76.183  1.00  0.00     0.050 A 
ATOM     13  C   UNL     1      84.005  63.496  76.312  1.00  0.00     0.009 A 
BRANCH   9  14
ATOM     14  O   UNL     1      86.386  66.844  77.127  1.00  0.00    -0.493 OA
ATOM     15  C   UNL     1      86.594  67.022  78.538  1.00  0.00     0.278 C 
ENDBRANCH   9  14
BRANCH  10  16
ATOM     16  O   UNL     1      87.551  64.431  76.278  1.00  0.00    -0.504 OA
ATOM     17  H   UNL     1      87.989  64.928  76.974  1.00  0.00     0.293 HD
ENDBRANCH  10  16
ENDBRANCH   7   8
ENDBRANCH   4   7
ENDBRANCH   2   3
ENDBRANCH   1   2
BRANCH   1  18
ATOM     18  C   UNL     1      80.281  66.335  70.999  1.00  0.00     0.001 C 
BRANCH  18  19
ATOM     19  C   UNL     1      80.925  67.649  71.508  1.00  0.00     0.004 C 
BRANCH  19  20
ATOM     20  C   UNL     1      82.346  67.852  70.912  1.00  0.00     0.027 C 
BRANCH  20  21
ATOM     21  C   UNL     1      83.335  66.920  71.427  1.00  0.00    -0.031 C 
ATOM     22  C   UNL     1      83.589  66.796  72.742  1.00  0.00    -0.028 C 
BRANCH  22  23
ATOM     23  C   UNL     1      84.572  65.865  73.291  1.00  0.00     0.005 C 
ATOM     24  C   UNL     1      84.336  64.439  72.728  1.00  0.00     0.012 C 
ATOM     25  C   UNL     1      86.011  66.379  73.014  1.00  0.00     0.012 C 
ENDBRANCH  22  23
ENDBRANCH  20  21
ENDBRANCH  19  20
ENDBRANCH  18  19
ENDBRANCH   1  18
TORSDOF 11
ENDMDL
MODEL 10
REMARK VINA RESULT:    -5.667     28.580     31.940
REMARK INTER + INTRA:          -9.913
REMARK INTER:                  -8.011
REMARK INTRA:                  -1.902
REMARK UNBOUND:                -0.767
REMARK SMILES COc1cc(CNC(=O)CCCCC/C=C/C(C)C)ccc1O
REMARK SMILES IDX 11 1 10 2 8 3 7 4 9 6 6 7 5 8 3 9 22 10 4 11 21 12 20 13
REMARK SMILES IDX 2 14 1 15 23 16 12 18 13 19 14 20 15 21 16 22 17 23 18 24
REMARK SMILES IDX 19 25
REMARK H PARENT 7 5 23 17
REMARK Flexibility Score: inf
ROOT
ATOM      1  C   UNL     1      60.470  84.174  71.449  1.00  0.00     0.010 C 
ENDROOT
BRANCH   1   2
ATOM      2  C   UNL     1      59.718  85.432  71.956  1.00  0.00     0.100 C 
BRANCH   2   3
ATOM      3  C   UNL     1      60.145  85.889  73.291  1.00  0.00     0.220 C 
ATOM      4  N   UNL     1      61.038  85.151  74.008  1.00  0.00    -0.352 N 
ATOM      5  H   UNL     1      61.296  84.272  73.581  1.00  0.00     0.163 HD
ATOM      6  O   UNL     1      59.697  86.979  73.718  1.00  0.00    -0.275 OA
BRANCH   4   7
ATOM      7  C   UNL     1      61.605  85.524  75.262  1.00  0.00     0.151 C 
BRANCH   7   8
ATOM      8  C   UNL     1      63.089  85.578  75.226  1.00  0.00    -0.025 A 
ATOM      9  C   UNL     1      65.228  86.246  76.240  1.00  0.00     0.160 A 
ATOM     10  C   UNL     1      65.919  85.725  75.124  1.00  0.00     0.157 A 
ATOM     11  C   UNL     1      63.820  86.177  76.278  1.00  0.00     0.056 A 
ATOM     12  C   UNL     1      65.203  85.112  74.079  1.00  0.00     0.050 A 
ATOM     13  C   UNL     1      63.799  85.029  74.135  1.00  0.00     0.009 A 
BRANCH   9  14
ATOM     14  O   UNL     1      65.920  86.765  77.302  1.00  0.00    -0.493 OA
ATOM     15  C   UNL     1      66.065  85.860  78.408  1.00  0.00     0.278 C 
ENDBRANCH   9  14
BRANCH  10  16
ATOM     16  O   UNL     1      67.270  85.797  75.035  1.00  0.00    -0.504 OA
ATOM     17  H   UNL     1      67.521  85.996  74.130  1.00  0.00     0.293 HD
ENDBRANCH  10  16
ENDBRANCH   7   8
ENDBRANCH   4   7
ENDBRANCH   2   3
ENDBRANCH   1   2
BRANCH   1  18
ATOM     18  C   UNL     1      61.665  84.564  70.542  1.00  0.00     0.001 C 
BRANCH  18  19
ATOM     19  C   UNL     1      62.868  83.592  70.643  1.00  0.00     0.004 C 
BRANCH  19  20
ATOM     20  C   UNL     1      62.407  82.109  70.573  1.00  0.00     0.027 C 
BRANCH  20  21
ATOM     21  C   UNL     1      62.993  81.265  71.600  1.00  0.00    -0.031 C 
ATOM     22  C   UNL     1      63.010  81.620  72.897  1.00  0.00    -0.028 C 
BRANCH  22  23
ATOM     23  C   UNL     1      63.587  80.792  73.954  1.00  0.00     0.005 C 
ATOM     24  C   UNL     1      65.016  80.335  73.561  1.00  0.00     0.012 C 
ATOM     25  C   UNL     1      63.563  81.555  75.307  1.00  0.00     0.012 C 
ENDBRANCH  22  23
ENDBRANCH  20  21
ENDBRANCH  19  20
ENDBRANCH  18  19
ENDBRANCH   1  18
TORSDOF 11
ENDMDL
