MODEL 1
REMARK VINA RESULT:    -7.104      0.000      0.000
REMARK INTER + INTRA:         -13.582
REMARK INTER:                 -12.504
REMARK INTRA:                  -1.078
REMARK UNBOUND:                -1.078
REMARK SMILES C=C(C)[C@]12C[C@@H](C)[C@@]34O[C@](Cc5ccccc5)(O[C@@H]1[C@@H]3C=C(COC(=O)Cc1ccc(O)c(OC)c1)C[C@]1(O)C(=O)C(C)=C[C@@H]41)O2
REMARK SMILES IDX 23 1 22 2 21 3 20 4 9 5 8 6 10 7 6 8 18 9 46 10 19 11 5 12
REMARK SMILES IDX 7 13 4 14 45 15 38 16 44 17 40 18 42 20 41 21 43 22 39 23
REMARK SMILES IDX 11 25 12 26 13 27 17 28 14 29 16 30 15 31 2 32 3 33 1 34
REMARK SMILES IDX 37 35 24 37 25 38 26 39 27 40 28 41 36 42 29 43 33 44 30 45
REMARK SMILES IDX 31 46 34 47 35 48 32 49
REMARK H PARENT 39 24 32 50
REMARK Flexibility Score: 90.00
ROOT
ATOM      1  C   UNL     1      65.954  86.872  73.561  1.00  0.00     0.264 C 
ENDROOT
BRANCH   1   2
ATOM      2  C   UNL     1      64.584  86.779  72.932  1.00  0.00    -0.033 C 
ATOM      3  C   UNL     1      64.274  85.701  72.183  1.00  0.00    -0.015 C 
BRANCH   3   4
ATOM      4  C   UNL     1      63.011  85.409  71.390  1.00  0.00     0.078 C 
ATOM      5  O   UNL     1      61.507  84.127  72.878  1.00  0.00    -0.319 OA
ATOM      6  C   UNL     1      61.635  85.389  72.154  1.00  0.00     0.095 C 
ATOM      7  C   UNL     1      61.926  82.955  72.152  1.00  0.00     0.289 C 
ATOM      8  C   UNL     1      60.483  85.490  71.070  1.00  0.00     0.023 C 
ATOM      9  O   UNL     1      63.282  83.066  71.730  1.00  0.00    -0.320 OA
ATOM     10  O   UNL     1      61.167  82.755  70.963  1.00  0.00    -0.313 OA
ATOM     11  C   UNL     1      63.141  84.038  70.682  1.00  0.00     0.170 C 
ATOM     12  C   UNL     1      60.884  84.778  69.742  1.00  0.00     0.049 C 
ATOM     13  C   UNL     1      59.104  84.986  71.524  1.00  0.00     0.011 C 
ATOM     14  C   UNL     1      61.824  83.598  69.994  1.00  0.00     0.122 C 
BRANCH   6  15
ATOM     15  C   UNL     1      61.605  86.479  73.265  1.00  0.00     0.086 C 
ATOM     16  C   UNL     1      62.190  87.855  72.884  1.00  0.00     0.140 CG0
ATOM     17  C   UNL     1      60.298  86.824  73.923  1.00  0.00    -0.010 C 
ATOM     18  C   UNL     1      61.313  88.810  73.666  1.00  0.00     0.190 C 
ATOM     19  G   UNL     1      63.666  87.977  73.257  1.00  0.00     0.000 G0
ATOM     20  C   UNL     1      60.116  88.122  74.186  1.00  0.00    -0.008 C 
ATOM     21  O   UNL     1      61.523  90.004  73.814  1.00  0.00    -0.291 OA
ATOM     22  C   UNL     1      59.009  88.804  74.887  1.00  0.00     0.048 C 
BRANCH  16  23
ATOM     23  O   UNL     1      61.965  88.219  71.532  1.00  0.00    -0.381 OA
ATOM     24  H   UNL     1      61.284  88.911  71.509  1.00  0.00     0.212 HD
ENDBRANCH  16  23
ENDBRANCH   6  15
BRANCH   7  25
ATOM     25  C   UNL     1      61.769  81.752  73.061  1.00  0.00     0.135 C 
BRANCH  25  26
ATOM     26  C   UNL     1      63.084  81.325  73.665  1.00  0.00    -0.040 A 
ATOM     27  C   UNL     1      63.404  81.697  74.971  1.00  0.00     0.004 A 
ATOM     28  C   UNL     1      63.978  80.558  72.919  1.00  0.00     0.004 A 
ATOM     29  C   UNL     1      64.620  81.302  75.530  1.00  0.00     0.000 A 
ATOM     30  C   UNL     1      65.194  80.163  73.478  1.00  0.00     0.000 A 
ATOM     31  C   UNL     1      65.514  80.536  74.784  1.00  0.00     0.000 A 
ENDBRANCH  25  26
ENDBRANCH   7  25
BRANCH  14  32
ATOM     32  C   UNL     1      62.076  82.791  68.762  1.00  0.00    -0.046 C 
ATOM     33  C   UNL     1      62.930  81.571  68.933  1.00  0.00     0.042 C 
ATOM     34  C   UNL     1      61.568  83.139  67.570  1.00  0.00     0.010 C 
ENDBRANCH  14  32
ENDBRANCH   3   4
BRANCH   2  35
ATOM     35  C   UNL     1      63.700  87.970  73.252  1.00  0.00     0.078 CG0
ATOM     36  G   UNL     1      62.216  87.851  72.908  1.00  0.00     0.000 G0
ENDBRANCH   2  35
ENDBRANCH   1   2
BRANCH   1  37
ATOM     37  O   UNL     1      65.914  87.789  74.634  1.00  0.00    -0.461 OA
BRANCH  37  38
ATOM     38  C   UNL     1      66.677  87.473  75.734  1.00  0.00     0.310 C 
ATOM     39  O   UNL     1      67.664  88.093  76.105  1.00  0.00    -0.252 OA
BRANCH  38  40
ATOM     40  C   UNL     1      66.108  86.246  76.407  1.00  0.00     0.158 C 
BRANCH  40  41
ATOM     41  C   UNL     1      65.527  86.538  77.766  1.00  0.00    -0.033 A 
ATOM     42  C   UNL     1      66.027  85.885  78.893  1.00  0.00     0.054 A 
ATOM     43  C   UNL     1      64.490  87.461  77.898  1.00  0.00     0.008 A 
ATOM     44  C   UNL     1      65.489  86.155  80.152  1.00  0.00     0.160 A 
ATOM     45  C   UNL     1      63.952  87.731  79.156  1.00  0.00     0.050 A 
ATOM     46  C   UNL     1      64.450  87.078  80.283  1.00  0.00     0.157 A 
BRANCH  44  47
ATOM     47  O   UNL     1      65.984  85.511  81.245  1.00  0.00    -0.493 OA
ATOM     48  C   UNL     1      67.230  84.833  81.088  1.00  0.00     0.278 C 
ENDBRANCH  44  47
BRANCH  46  49
ATOM     49  O   UNL     1      63.918  87.351  81.506  1.00  0.00    -0.504 OA
ATOM     50  H   UNL     1      62.982  87.089  81.510  1.00  0.00     0.293 HD
ENDBRANCH  46  49
ENDBRANCH  40  41
ENDBRANCH  38  40
ENDBRANCH  37  38
ENDBRANCH   1  37
TORSDOF 11
ENDMDL
MODEL 2
REMARK VINA RESULT:    -7.016     30.245     35.435
REMARK INTER + INTRA:         -13.426
REMARK INTER:                 -12.309
REMARK INTRA:                  -1.117
REMARK UNBOUND:                -1.078
REMARK SMILES C=C(C)[C@]12C[C@@H](C)[C@@]34O[C@](Cc5ccccc5)(O[C@@H]1[C@@H]3C=C(COC(=O)Cc1ccc(O)c(OC)c1)C[C@]1(O)C(=O)C(C)=C[C@@H]41)O2
REMARK SMILES IDX 23 1 22 2 21 3 20 4 9 5 8 6 10 7 6 8 18 9 46 10 19 11 5 12
REMARK SMILES IDX 7 13 4 14 45 15 38 16 44 17 40 18 42 20 41 21 43 22 39 23
REMARK SMILES IDX 11 25 12 26 13 27 17 28 14 29 16 30 15 31 2 32 3 33 1 34
REMARK SMILES IDX 37 35 24 37 25 38 26 39 27 40 28 41 36 42 29 43 33 44 30 45
REMARK SMILES IDX 31 46 34 47 35 48 32 49
REMARK H PARENT 39 24 32 50
REMARK Flexibility Score: 90.00
ROOT
ATOM      1  C   UNL     1      97.448  83.360  82.431  1.00  0.00     0.264 C 
ENDROOT
BRANCH   1   2
ATOM      2  C   UNL     1      97.281  83.386  83.932  1.00  0.00    -0.033 C 
ATOM      3  C   UNL     1      96.041  83.451  84.457  1.00  0.00    -0.015 C 
BRANCH   3   4
ATOM      4  C   UNL     1      95.614  83.566  85.911  1.00  0.00     0.078 C 
ATOM      5  O   UNL     1      95.263  81.262  86.743  1.00  0.00    -0.319 OA
ATOM      6  C   UNL     1      96.088  82.455  86.921  1.00  0.00     0.095 C 
ATOM      7  C   UNL     1      93.853  81.507  86.577  1.00  0.00     0.289 C 
ATOM      8  C   UNL     1      95.882  83.020  88.387  1.00  0.00     0.023 C 
ATOM      9  O   UNL     1      93.605  82.365  85.466  1.00  0.00    -0.320 OA
ATOM     10  O   UNL     1      93.281  82.164  87.705  1.00  0.00    -0.313 OA
ATOM     11  C   UNL     1      94.068  83.614  86.002  1.00  0.00     0.170 C 
ATOM     12  C   UNL     1      94.641  83.962  88.467  1.00  0.00     0.049 C 
ATOM     13  C   UNL     1      95.791  81.960  89.496  1.00  0.00     0.011 C 
ATOM     14  C   UNL     1      93.559  83.559  87.464  1.00  0.00     0.122 C 
BRANCH   6  15
ATOM     15  C   UNL     1      97.531  81.982  86.583  1.00  0.00     0.086 C 
ATOM     16  C   UNL     1      98.538  83.089  86.206  1.00  0.00     0.140 CG0
ATOM     17  C   UNL     1      98.286  81.149  87.581  1.00  0.00    -0.010 C 
ATOM     18  C   UNL     1      99.837  82.555  86.773  1.00  0.00     0.190 C 
ATOM     19  G   UNL     1      98.609  83.315  84.696  1.00  0.00     0.000 G0
ATOM     20  C   UNL     1      99.589  81.427  87.691  1.00  0.00    -0.008 C 
ATOM     21  O   UNL     1     100.947  83.015  86.554  1.00  0.00    -0.291 OA
ATOM     22  C   UNL     1     100.638  80.768  88.495  1.00  0.00     0.048 C 
BRANCH  16  23
ATOM     23  O   UNL     1      98.340  84.307  86.903  1.00  0.00    -0.381 OA
ATOM     24  H   UNL     1      98.159  85.007  86.254  1.00  0.00     0.212 HD
ENDBRANCH  16  23
ENDBRANCH   6  15
BRANCH   7  25
ATOM     25  C   UNL     1      93.161  80.177  86.361  1.00  0.00     0.135 C 
BRANCH  25  26
ATOM     26  C   UNL     1      91.659  80.315  86.354  1.00  0.00    -0.040 A 
ATOM     27  C   UNL     1      90.920  79.949  87.480  1.00  0.00     0.004 A 
ATOM     28  C   UNL     1      91.009  80.810  85.225  1.00  0.00     0.004 A 
ATOM     29  C   UNL     1      89.531  80.077  87.475  1.00  0.00     0.000 A 
ATOM     30  C   UNL     1      89.619  80.938  85.219  1.00  0.00     0.000 A 
ATOM     31  C   UNL     1      88.881  80.571  86.345  1.00  0.00     0.000 A 
ENDBRANCH  25  26
ENDBRANCH   7  25
BRANCH  14  32
ATOM     32  C   UNL     1      92.292  84.329  87.646  1.00  0.00    -0.046 C 
ATOM     33  C   UNL     1      92.413  85.648  88.350  1.00  0.00     0.042 C 
ATOM     34  C   UNL     1      91.112  83.867  87.206  1.00  0.00     0.010 C 
ENDBRANCH  14  32
ENDBRANCH   3   4
BRANCH   2  35
ATOM     35  C   UNL     1      98.601  83.326  84.678  1.00  0.00     0.078 CG0
ATOM     36  G   UNL     1      98.541  83.090  86.187  1.00  0.00     0.000 G0
ENDBRANCH   2  35
ENDBRANCH   1   2
BRANCH   1  37
ATOM     37  O   UNL     1      98.244  82.252  82.069  1.00  0.00    -0.461 OA
BRANCH  37  38
ATOM     38  C   UNL     1      97.570  81.095  81.755  1.00  0.00     0.310 C 
ATOM     39  O   UNL     1      96.690  80.587  82.437  1.00  0.00    -0.252 OA
BRANCH  38  40
ATOM     40  C   UNL     1      98.085  80.551  80.443  1.00  0.00     0.158 C 
BRANCH  40  41
ATOM     41  C   UNL     1      97.910  81.515  79.298  1.00  0.00    -0.033 A 
ATOM     42  C   UNL     1      98.993  81.822  78.474  1.00  0.00     0.054 A 
ATOM     43  C   UNL     1      96.666  82.100  79.062  1.00  0.00     0.008 A 
ATOM     44  C   UNL     1      98.831  82.715  77.414  1.00  0.00     0.160 A 
ATOM     45  C   UNL     1      96.504  82.992  78.002  1.00  0.00     0.050 A 
ATOM     46  C   UNL     1      97.586  83.300  77.178  1.00  0.00     0.157 A 
BRANCH  44  47
ATOM     47  O   UNL     1      99.896  83.007  76.616  1.00  0.00    -0.493 OA
ATOM     48  C   UNL     1     100.924  82.022  76.520  1.00  0.00     0.278 C 
ENDBRANCH  44  47
BRANCH  46  49
ATOM     49  O   UNL     1      97.417  84.172  76.146  1.00  0.00    -0.504 OA
ATOM     50  H   UNL     1      97.628  83.720  75.312  1.00  0.00     0.293 HD
ENDBRANCH  46  49
ENDBRANCH  40  41
ENDBRANCH  38  40
ENDBRANCH  37  38
ENDBRANCH   1  37
TORSDOF 11
ENDMDL
MODEL 3
REMARK VINA RESULT:    -6.971     28.520     33.182
REMARK INTER + INTRA:         -13.348
REMARK INTER:                 -12.418
REMARK INTRA:                  -0.930
REMARK UNBOUND:                -1.078
REMARK SMILES C=C(C)[C@]12C[C@@H](C)[C@@]34O[C@](Cc5ccccc5)(O[C@@H]1[C@@H]3C=C(COC(=O)Cc1ccc(O)c(OC)c1)C[C@]1(O)C(=O)C(C)=C[C@@H]41)O2
REMARK SMILES IDX 23 1 22 2 21 3 20 4 9 5 8 6 10 7 6 8 18 9 46 10 19 11 5 12
REMARK SMILES IDX 7 13 4 14 45 15 38 16 44 17 40 18 42 20 41 21 43 22 39 23
REMARK SMILES IDX 11 25 12 26 13 27 17 28 14 29 16 30 15 31 2 32 3 33 1 34
REMARK SMILES IDX 37 35 24 37 25 38 26 39 27 40 28 41 36 42 29 43 33 44 30 45
REMARK SMILES IDX 31 46 34 47 35 48 32 49
REMARK H PARENT 39 24 32 50
REMARK Flexibility Score: 90.00
ROOT
ATOM      1  C   UNL     1      96.268  81.392  83.761  1.00  0.00     0.264 C 
ENDROOT
BRANCH   1   2
ATOM      2  C   UNL     1      95.098  81.853  84.599  1.00  0.00    -0.033 C 
ATOM      3  C   UNL     1      93.938  81.168  84.546  1.00  0.00    -0.015 C 
BRANCH   3   4
ATOM      4  C   UNL     1      92.610  81.467  85.222  1.00  0.00     0.078 C 
ATOM      5  O   UNL     1      92.615  80.265  87.384  1.00  0.00    -0.319 OA
ATOM      6  C   UNL     1      92.581  81.599  86.790  1.00  0.00     0.095 C 
ATOM      7  C   UNL     1      91.776  79.284  86.745  1.00  0.00     0.289 C 
ATOM      8  C   UNL     1      91.222  82.314  87.186  1.00  0.00     0.023 C 
ATOM      9  O   UNL     1      92.105  79.143  85.365  1.00  0.00    -0.320 OA
ATOM     10  O   UNL     1      90.398  79.646  86.777  1.00  0.00    -0.313 OA
ATOM     11  C   UNL     1      91.575  80.375  84.853  1.00  0.00     0.170 C 
ATOM     12  C   UNL     1      90.070  81.933  86.206  1.00  0.00     0.049 C 
ATOM     13  C   UNL     1      90.757  82.090  88.634  1.00  0.00     0.011 C 
ATOM     14  C   UNL     1      90.250  80.523  85.642  1.00  0.00     0.122 C 
BRANCH   6  15
ATOM     15  C   UNL     1      93.875  82.289  87.310  1.00  0.00     0.086 C 
ATOM     16  C   UNL     1      94.371  83.504  86.498  1.00  0.00     0.140 CG0
ATOM     17  C   UNL     1      93.932  82.773  88.732  1.00  0.00    -0.010 C 
ATOM     18  C   UNL     1      94.961  84.395  87.571  1.00  0.00     0.190 C 
ATOM     19  G   UNL     1      95.397  83.108  85.437  1.00  0.00     0.000 G0
ATOM     20  C   UNL     1      94.559  83.939  88.915  1.00  0.00    -0.008 C 
ATOM     21  O   UNL     1      95.637  85.392  87.370  1.00  0.00    -0.291 OA
ATOM     22  C   UNL     1      94.873  84.665  90.163  1.00  0.00     0.048 C 
BRANCH  16  23
ATOM     23  O   UNL     1      93.328  84.288  85.942  1.00  0.00    -0.381 OA
ATOM     24  H   UNL     1      92.945  84.834  86.648  1.00  0.00     0.212 HD
ENDBRANCH  16  23
ENDBRANCH   6  15
BRANCH   7  25
ATOM     25  C   UNL     1      91.968  77.959  87.455  1.00  0.00     0.135 C 
BRANCH  25  26
ATOM     26  C   UNL     1      90.852  76.990  87.154  1.00  0.00    -0.040 A 
ATOM     27  C   UNL     1      89.716  76.962  87.965  1.00  0.00     0.004 A 
ATOM     28  C   UNL     1      90.953  76.124  86.066  1.00  0.00     0.004 A 
ATOM     29  C   UNL     1      88.683  76.066  87.687  1.00  0.00     0.000 A 
ATOM     30  C   UNL     1      89.921  75.228  85.789  1.00  0.00     0.000 A 
ATOM     31  C   UNL     1      88.786  75.199  86.600  1.00  0.00     0.000 A 
ENDBRANCH  25  26
ENDBRANCH   7  25
BRANCH  14  32
ATOM     32  C   UNL     1      89.070  80.068  84.847  1.00  0.00    -0.046 C 
ATOM     33  C   UNL     1      88.065  81.123  84.490  1.00  0.00     0.042 C 
ATOM     34  C   UNL     1      88.917  78.788  84.474  1.00  0.00     0.010 C 
ENDBRANCH  14  32
ENDBRANCH   3   4
BRANCH   2  35
ATOM     35  C   UNL     1      95.411  83.083  85.430  1.00  0.00     0.078 CG0
ATOM     36  G   UNL     1      94.376  83.502  86.474  1.00  0.00     0.000 G0
ENDBRANCH   2  35
ENDBRANCH   1   2
BRANCH   1  37
ATOM     37  O   UNL     1      97.208  82.439  83.655  1.00  0.00    -0.461 OA
BRANCH  37  38
ATOM     38  C   UNL     1      97.593  82.785  82.381  1.00  0.00     0.310 C 
ATOM     39  O   UNL     1      98.685  83.244  82.077  1.00  0.00    -0.252 OA
BRANCH  38  40
ATOM     40  C   UNL     1      96.460  82.510  81.420  1.00  0.00     0.158 C 
BRANCH  40  41
ATOM     41  C   UNL     1      96.931  81.966  80.096  1.00  0.00    -0.033 A 
ATOM     42  C   UNL     1      96.591  82.622  78.912  1.00  0.00     0.054 A 
ATOM     43  C   UNL     1      97.707  80.808  80.053  1.00  0.00     0.008 A 
ATOM     44  C   UNL     1      97.026  82.118  77.686  1.00  0.00     0.160 A 
ATOM     45  C   UNL     1      98.143  80.305  78.828  1.00  0.00     0.050 A 
ATOM     46  C   UNL     1      97.803  80.959  77.644  1.00  0.00     0.157 A 
BRANCH  44  47
ATOM     47  O   UNL     1      96.688  82.766  76.537  1.00  0.00    -0.493 OA
ATOM     48  C   UNL     1      97.633  83.698  76.015  1.00  0.00     0.278 C 
ENDBRANCH  44  47
BRANCH  46  49
ATOM     49  O   UNL     1      98.235  80.459  76.453  1.00  0.00    -0.504 OA
ATOM     50  H   UNL     1      98.666  81.169  75.949  1.00  0.00     0.293 HD
ENDBRANCH  46  49
ENDBRANCH  40  41
ENDBRANCH  38  40
ENDBRANCH  37  38
ENDBRANCH   1  37
TORSDOF 11
ENDMDL
MODEL 4
REMARK VINA RESULT:    -6.704     26.779     29.439
REMARK INTER + INTRA:         -12.877
REMARK INTER:                 -11.684
REMARK INTRA:                  -1.193
REMARK UNBOUND:                -1.078
REMARK SMILES C=C(C)[C@]12C[C@@H](C)[C@@]34O[C@](Cc5ccccc5)(O[C@@H]1[C@@H]3C=C(COC(=O)Cc1ccc(O)c(OC)c1)C[C@]1(O)C(=O)C(C)=C[C@@H]41)O2
REMARK SMILES IDX 23 1 22 2 21 3 20 4 9 5 8 6 10 7 6 8 18 9 46 10 19 11 5 12
REMARK SMILES IDX 7 13 4 14 45 15 38 16 44 17 40 18 42 20 41 21 43 22 39 23
REMARK SMILES IDX 11 25 12 26 13 27 17 28 14 29 16 30 15 31 2 32 3 33 1 34
REMARK SMILES IDX 37 35 24 37 25 38 26 39 27 40 28 41 36 42 29 43 33 44 30 45
REMARK SMILES IDX 31 46 34 47 35 48 32 49
REMARK H PARENT 39 24 32 50
REMARK Flexibility Score: 90.00
ROOT
ATOM      1  C   UNL     1      85.515  63.313  75.187  1.00  0.00     0.264 C 
ENDROOT
BRANCH   1   2
ATOM      2  C   UNL     1      85.891  64.455  74.273  1.00  0.00    -0.033 C 
ATOM      3  C   UNL     1      85.399  64.485  73.018  1.00  0.00    -0.015 C 
BRANCH   3   4
ATOM      4  C   UNL     1      85.682  65.468  71.894  1.00  0.00     0.078 C 
ATOM      5  O   UNL     1      83.983  67.258  72.058  1.00  0.00    -0.319 OA
ATOM      6  C   UNL     1      85.418  66.998  72.153  1.00  0.00     0.095 C 
ATOM      7  C   UNL     1      83.309  66.602  70.968  1.00  0.00     0.289 C 
ATOM      8  C   UNL     1      86.174  67.813  71.024  1.00  0.00     0.023 C 
ATOM      9  O   UNL     1      83.480  65.188  71.029  1.00  0.00    -0.320 OA
ATOM     10  O   UNL     1      83.821  66.997  69.698  1.00  0.00    -0.313 OA
ATOM     11  C   UNL     1      84.858  65.084  70.640  1.00  0.00     0.170 C 
ATOM     12  C   UNL     1      86.200  67.031  69.675  1.00  0.00     0.049 C 
ATOM     13  C   UNL     1      85.653  69.239  70.779  1.00  0.00     0.011 C 
ATOM     14  C   UNL     1      84.968  66.141  69.513  1.00  0.00     0.122 C 
BRANCH   6  15
ATOM     15  C   UNL     1      85.786  67.382  73.616  1.00  0.00     0.086 C 
ATOM     16  C   UNL     1      87.087  66.767  74.173  1.00  0.00     0.140 CG0
ATOM     17  C   UNL     1      85.897  68.833  73.991  1.00  0.00    -0.010 C 
ATOM     18  C   UNL     1      87.605  67.865  75.077  1.00  0.00     0.190 C 
ATOM     19  G   UNL     1      86.832  65.461  74.924  1.00  0.00     0.000 G0
ATOM     20  C   UNL     1      86.891  69.132  74.832  1.00  0.00    -0.008 C 
ATOM     21  O   UNL     1      88.524  67.751  75.874  1.00  0.00    -0.291 OA
ATOM     22  C   UNL     1      87.244  70.418  75.470  1.00  0.00     0.048 C 
BRANCH  16  23
ATOM     23  O   UNL     1      88.111  66.615  73.204  1.00  0.00    -0.381 OA
ATOM     24  H   UNL     1      87.721  66.228  72.403  1.00  0.00     0.212 HD
ENDBRANCH  16  23
ENDBRANCH   6  15
BRANCH   7  25
ATOM     25  C   UNL     1      81.834  66.943  71.046  1.00  0.00     0.135 C 
BRANCH  25  26
ATOM     26  C   UNL     1      81.196  66.407  72.304  1.00  0.00    -0.040 A 
ATOM     27  C   UNL     1      81.519  66.964  73.542  1.00  0.00     0.004 A 
ATOM     28  C   UNL     1      80.283  65.356  72.229  1.00  0.00     0.004 A 
ATOM     29  C   UNL     1      80.930  66.468  74.705  1.00  0.00     0.000 A 
ATOM     30  C   UNL     1      79.693  64.860  73.393  1.00  0.00     0.000 A 
ATOM     31  C   UNL     1      80.017  65.417  74.630  1.00  0.00     0.000 A 
ENDBRANCH  25  26
ENDBRANCH   7  25
BRANCH  14  32
ATOM     32  C   UNL     1      84.880  65.524  68.155  1.00  0.00    -0.046 C 
ATOM     33  C   UNL     1      83.936  64.367  68.013  1.00  0.00     0.042 C 
ATOM     34  C   UNL     1      85.603  65.979  67.121  1.00  0.00     0.010 C 
ENDBRANCH  14  32
ENDBRANCH   3   4
BRANCH   2  35
ATOM     35  C   UNL     1      86.812  65.465  74.931  1.00  0.00     0.078 CG0
ATOM     36  G   UNL     1      87.075  66.767  74.176  1.00  0.00     0.000 G0
ENDBRANCH   2  35
ENDBRANCH   1   2
BRANCH   1  37
ATOM     37  O   UNL     1      84.158  63.437  75.557  1.00  0.00    -0.461 OA
BRANCH  37  38
ATOM     38  C   UNL     1      83.914  63.819  76.855  1.00  0.00     0.310 C 
ATOM     39  O   UNL     1      83.139  64.703  77.194  1.00  0.00    -0.252 OA
BRANCH  38  40
ATOM     40  C   UNL     1      84.750  62.980  77.794  1.00  0.00     0.158 C 
BRANCH  40  41
ATOM     41  C   UNL     1      85.260  63.757  78.980  1.00  0.00    -0.033 A 
ATOM     42  C   UNL     1      86.069  64.877  78.784  1.00  0.00     0.054 A 
ATOM     43  C   UNL     1      84.923  63.357  80.273  1.00  0.00     0.008 A 
ATOM     44  C   UNL     1      86.542  65.596  79.883  1.00  0.00     0.160 A 
ATOM     45  C   UNL     1      85.396  64.076  81.371  1.00  0.00     0.050 A 
ATOM     46  C   UNL     1      86.205  65.195  81.176  1.00  0.00     0.157 A 
BRANCH  44  47
ATOM     47  O   UNL     1      87.331  66.687  79.679  1.00  0.00    -0.493 OA
ATOM     48  C   UNL     1      86.783  67.747  78.897  1.00  0.00     0.278 C 
ENDBRANCH  44  47
BRANCH  46  49
ATOM     49  O   UNL     1      86.659  65.890  82.256  1.00  0.00    -0.504 OA
ATOM     50  H   UNL     1      86.861  65.265  82.973  1.00  0.00     0.293 HD
ENDBRANCH  46  49
ENDBRANCH  40  41
ENDBRANCH  38  40
ENDBRANCH  37  38
ENDBRANCH   1  37
TORSDOF 11
ENDMDL
MODEL 5
REMARK VINA RESULT:    -6.655     30.530     34.772
REMARK INTER + INTRA:         -12.792
REMARK INTER:                 -11.637
REMARK INTRA:                  -1.155
REMARK UNBOUND:                -1.078
REMARK SMILES C=C(C)[C@]12C[C@@H](C)[C@@]34O[C@](Cc5ccccc5)(O[C@@H]1[C@@H]3C=C(COC(=O)Cc1ccc(O)c(OC)c1)C[C@]1(O)C(=O)C(C)=C[C@@H]41)O2
REMARK SMILES IDX 23 1 22 2 21 3 20 4 9 5 8 6 10 7 6 8 18 9 46 10 19 11 5 12
REMARK SMILES IDX 7 13 4 14 45 15 38 16 44 17 40 18 42 20 41 21 43 22 39 23
REMARK SMILES IDX 11 25 12 26 13 27 17 28 14 29 16 30 15 31 2 32 3 33 1 34
REMARK SMILES IDX 37 35 24 37 25 38 26 39 27 40 28 41 36 42 29 43 33 44 30 45
REMARK SMILES IDX 31 46 34 47 35 48 32 49
REMARK H PARENT 39 24 32 50
REMARK Flexibility Score: 90.00
ROOT
ATOM      1  C   UNL     1      92.373  84.399  89.190  1.00  0.00     0.264 C 
ENDROOT
BRANCH   1   2
ATOM      2  C   UNL     1      92.662  83.517  87.997  1.00  0.00    -0.033 C 
ATOM      3  C   UNL     1      93.908  83.494  87.482  1.00  0.00    -0.015 C 
BRANCH   3   4
ATOM      4  C   UNL     1      94.431  82.762  86.256  1.00  0.00     0.078 C 
ATOM      5  O   UNL     1      95.306  80.584  87.037  1.00  0.00    -0.319 OA
ATOM      6  C   UNL     1      94.279  81.197  86.197  1.00  0.00     0.095 C 
ATOM      7  C   UNL     1      96.618  81.168  86.931  1.00  0.00     0.289 C 
ATOM      8  C   UNL     1      94.498  80.750  84.693  1.00  0.00     0.023 C 
ATOM      9  O   UNL     1      96.591  82.559  87.240  1.00  0.00    -0.320 OA
ATOM     10  O   UNL     1      97.145  81.078  85.610  1.00  0.00    -0.313 OA
ATOM     11  C   UNL     1      95.938  83.066  86.066  1.00  0.00     0.170 C 
ATOM     12  C   UNL     1      95.528  81.669  83.968  1.00  0.00     0.049 C 
ATOM     13  C   UNL     1      94.895  79.278  84.492  1.00  0.00     0.011 C 
ATOM     14  C   UNL     1      96.575  82.219  84.936  1.00  0.00     0.122 C 
BRANCH   6  15
ATOM     15  C   UNL     1      92.934  80.748  86.839  1.00  0.00     0.086 C 
ATOM     16  C   UNL     1      91.696  81.599  86.488  1.00  0.00     0.140 CG0
ATOM     17  C   UNL     1      92.457  79.337  86.639  1.00  0.00    -0.010 C 
ATOM     18  C   UNL     1      90.588  80.567  86.462  1.00  0.00     0.190 C 
ATOM     19  G   UNL     1      91.444  82.702  87.515  1.00  0.00     0.000 G0
ATOM     20  C   UNL     1      91.140  79.199  86.452  1.00  0.00    -0.008 C 
ATOM     21  O   UNL     1      89.393  80.813  86.404  1.00  0.00    -0.291 OA
ATOM     22  C   UNL     1      90.322  77.977  86.308  1.00  0.00     0.048 C 
BRANCH  16  23
ATOM     23  O   UNL     1      91.710  82.115  85.168  1.00  0.00    -0.381 OA
ATOM     24  H   UNL     1      91.852  83.075  85.214  1.00  0.00     0.212 HD
ENDBRANCH  16  23
ENDBRANCH   6  15
BRANCH   7  25
ATOM     25  C   UNL     1      97.539  80.447  87.894  1.00  0.00     0.135 C 
BRANCH  25  26
ATOM     26  C   UNL     1      98.917  81.061  87.925  1.00  0.00    -0.040 A 
ATOM     27  C   UNL     1      99.633  81.229  86.739  1.00  0.00     0.004 A 
ATOM     28  C   UNL     1      99.474  81.463  89.139  1.00  0.00     0.004 A 
ATOM     29  C   UNL     1     100.907  81.797  86.768  1.00  0.00     0.000 A 
ATOM     30  C   UNL     1     100.748  82.031  89.168  1.00  0.00     0.000 A 
ATOM     31  C   UNL     1     101.464  82.198  87.982  1.00  0.00     0.000 A 
ENDBRANCH  25  26
ENDBRANCH   7  25
BRANCH  14  32
ATOM     32  C   UNL     1      97.675  82.951  84.238  1.00  0.00    -0.046 C 
ATOM     33  C   UNL     1      98.699  82.104  83.544  1.00  0.00     0.042 C 
ATOM     34  C   UNL     1      97.743  84.291  84.233  1.00  0.00     0.010 C 
ENDBRANCH  14  32
ENDBRANCH   3   4
BRANCH   2  35
ATOM     35  C   UNL     1      91.450  82.736  87.526  1.00  0.00     0.078 CG0
ATOM     36  G   UNL     1      91.688  81.624  86.507  1.00  0.00     0.000 G0
ENDBRANCH   2  35
ENDBRANCH   1   2
BRANCH   1  37
ATOM     37  O   UNL     1      93.432  84.293  90.117  1.00  0.00    -0.461 OA
BRANCH  37  38
ATOM     38  C   UNL     1      94.165  85.436  90.336  1.00  0.00     0.310 C 
ATOM     39  O   UNL     1      95.300  85.466  90.793  1.00  0.00    -0.252 OA
BRANCH  38  40
ATOM     40  C   UNL     1      93.354  86.642  89.925  1.00  0.00     0.158 C 
BRANCH  40  41
ATOM     41  C   UNL     1      94.084  87.540  88.959  1.00  0.00    -0.033 A 
ATOM     42  C   UNL     1      94.091  88.921  89.161  1.00  0.00     0.054 A 
ATOM     43  C   UNL     1      94.752  86.992  87.865  1.00  0.00     0.008 A 
ATOM     44  C   UNL     1      94.766  89.752  88.267  1.00  0.00     0.160 A 
ATOM     45  C   UNL     1      95.427  87.823  86.971  1.00  0.00     0.050 A 
ATOM     46  C   UNL     1      95.434  89.203  87.172  1.00  0.00     0.157 A 
BRANCH  44  47
ATOM     47  O   UNL     1      94.766  91.099  88.474  1.00  0.00    -0.493 OA
ATOM     48  C   UNL     1      93.740  91.625  89.315  1.00  0.00     0.278 C 
ENDBRANCH  44  47
BRANCH  46  49
ATOM     49  O   UNL     1      96.097  90.005  86.293  1.00  0.00    -0.504 OA
ATOM     50  H   UNL     1      96.699  90.586  86.787  1.00  0.00     0.293 HD
ENDBRANCH  46  49
ENDBRANCH  40  41
ENDBRANCH  38  40
ENDBRANCH  37  38
ENDBRANCH   1  37
TORSDOF 11
ENDMDL
MODEL 6
REMARK VINA RESULT:    -6.538     28.514     33.732
REMARK INTER + INTRA:         -12.586
REMARK INTER:                 -11.884
REMARK INTRA:                  -0.701
REMARK UNBOUND:                -1.078
REMARK SMILES C=C(C)[C@]12C[C@@H](C)[C@@]34O[C@](Cc5ccccc5)(O[C@@H]1[C@@H]3C=C(COC(=O)Cc1ccc(O)c(OC)c1)C[C@]1(O)C(=O)C(C)=C[C@@H]41)O2
REMARK SMILES IDX 23 1 22 2 21 3 20 4 9 5 8 6 10 7 6 8 18 9 46 10 19 11 5 12
REMARK SMILES IDX 7 13 4 14 45 15 38 16 44 17 40 18 42 20 41 21 43 22 39 23
REMARK SMILES IDX 11 25 12 26 13 27 17 28 14 29 16 30 15 31 2 32 3 33 1 34
REMARK SMILES IDX 37 35 24 37 25 38 26 39 27 40 28 41 36 42 29 43 33 44 30 45
REMARK SMILES IDX 31 46 34 47 35 48 32 49
REMARK H PARENT 39 24 32 50
REMARK Flexibility Score: 90.00
ROOT
ATOM      1  C   UNL     1      96.294  81.723  84.506  1.00  0.00     0.264 C 
ENDROOT
BRANCH   1   2
ATOM      2  C   UNL     1      95.021  82.086  85.235  1.00  0.00    -0.033 C 
ATOM      3  C   UNL     1      93.921  81.326  85.059  1.00  0.00    -0.015 C 
BRANCH   3   4
ATOM      4  C   UNL     1      92.517  81.519  85.608  1.00  0.00     0.078 C 
ATOM      5  O   UNL     1      92.390  80.247  87.726  1.00  0.00    -0.319 OA
ATOM      6  C   UNL     1      92.327  81.596  87.169  1.00  0.00     0.095 C 
ATOM      7  C   UNL     1      91.682  79.238  86.980  1.00  0.00     0.289 C 
ATOM      8  C   UNL     1      90.894  82.212  87.448  1.00  0.00     0.023 C 
ATOM      9  O   UNL     1      92.151  79.165  85.636  1.00  0.00    -0.320 OA
ATOM     10  O   UNL     1      90.287  79.514  86.886  1.00  0.00    -0.313 OA
ATOM     11  C   UNL     1      91.595  80.379  85.108  1.00  0.00     0.170 C 
ATOM     12  C   UNL     1      89.869  81.794  86.349  1.00  0.00     0.049 C 
ATOM     13  C   UNL     1      90.306  81.911  88.837  1.00  0.00     0.011 C 
ATOM     14  C   UNL     1      90.193  80.418  85.766  1.00  0.00     0.122 C 
BRANCH   6  15
ATOM     15  C   UNL     1      93.518  82.346  87.833  1.00  0.00     0.086 C 
ATOM     16  C   UNL     1      94.015  83.612  87.105  1.00  0.00     0.140 CG0
ATOM     17  C   UNL     1      93.403  82.789  89.265  1.00  0.00    -0.010 C 
ATOM     18  C   UNL     1      94.438  84.504  88.253  1.00  0.00     0.190 C 
ATOM     19  G   UNL     1      95.164  83.311  86.144  1.00  0.00     0.000 G0
ATOM     20  C   UNL     1      93.935  83.985  89.539  1.00  0.00    -0.008 C 
ATOM     21  O   UNL     1      95.068  85.545  88.146  1.00  0.00    -0.291 OA
ATOM     22  C   UNL     1      94.077  84.690  90.829  1.00  0.00     0.048 C 
BRANCH  16  23
ATOM     23  O   UNL     1      92.985  84.349  86.466  1.00  0.00    -0.381 OA
ATOM     24  H   UNL     1      92.421  83.727  85.977  1.00  0.00     0.212 HD
ENDBRANCH  16  23
ENDBRANCH   6  15
BRANCH   7  25
ATOM     25  C   UNL     1      91.889  77.904  87.668  1.00  0.00     0.135 C 
BRANCH  25  26
ATOM     26  C   UNL     1      92.988  77.099  87.021  1.00  0.00    -0.040 A 
ATOM     27  C   UNL     1      94.322  77.367  87.327  1.00  0.00     0.004 A 
ATOM     28  C   UNL     1      92.670  76.085  86.117  1.00  0.00     0.004 A 
ATOM     29  C   UNL     1      95.339  76.621  86.728  1.00  0.00     0.000 A 
ATOM     30  C   UNL     1      93.686  75.340  85.519  1.00  0.00     0.000 A 
ATOM     31  C   UNL     1      95.020  75.609  85.824  1.00  0.00     0.000 A 
ENDBRANCH  25  26
ENDBRANCH   7  25
BRANCH  14  32
ATOM     32  C   UNL     1      89.127  79.919  84.846  1.00  0.00    -0.046 C 
ATOM     33  C   UNL     1      87.989  80.858  84.580  1.00  0.00     0.042 C 
ATOM     34  C   UNL     1      89.185  78.700  84.289  1.00  0.00     0.010 C 
ENDBRANCH  14  32
ENDBRANCH   3   4
BRANCH   2  35
ATOM     35  C   UNL     1      95.167  83.314  86.114  1.00  0.00     0.078 CG0
ATOM     36  G   UNL     1      94.030  83.615  87.089  1.00  0.00     0.000 G0
ENDBRANCH   2  35
ENDBRANCH   1   2
BRANCH   1  37
ATOM     37  O   UNL     1      97.111  82.868  84.397  1.00  0.00    -0.461 OA
BRANCH  37  38
ATOM     38  C   UNL     1      96.934  83.637  83.271  1.00  0.00     0.310 C 
ATOM     39  O   UNL     1      97.111  84.846  83.210  1.00  0.00    -0.252 OA
BRANCH  38  40
ATOM     40  C   UNL     1      96.487  82.759  82.125  1.00  0.00     0.158 C 
BRANCH  40  41
ATOM     41  C   UNL     1      97.609  82.406  81.183  1.00  0.00    -0.033 A 
ATOM     42  C   UNL     1      97.576  82.850  79.861  1.00  0.00     0.054 A 
ATOM     43  C   UNL     1      98.681  81.635  81.633  1.00  0.00     0.008 A 
ATOM     44  C   UNL     1      98.614  82.523  78.989  1.00  0.00     0.160 A 
ATOM     45  C   UNL     1      99.720  81.308  80.761  1.00  0.00     0.050 A 
ATOM     46  C   UNL     1      99.686  81.751  79.439  1.00  0.00     0.157 A 
BRANCH  44  47
ATOM     47  O   UNL     1      98.570  82.962  77.700  1.00  0.00    -0.493 OA
ATOM     48  C   UNL     1      97.287  83.293  77.172  1.00  0.00     0.278 C 
ENDBRANCH  44  47
BRANCH  46  49
ATOM     49  O   UNL     1     100.706  81.426  78.597  1.00  0.00    -0.504 OA
ATOM     50  H   UNL     1     100.339  80.997  77.806  1.00  0.00     0.293 HD
ENDBRANCH  46  49
ENDBRANCH  40  41
ENDBRANCH  38  40
ENDBRANCH  37  38
ENDBRANCH   1  37
TORSDOF 11
ENDMDL
MODEL 7
REMARK VINA RESULT:    -6.523     30.759     34.479
REMARK INTER + INTRA:         -12.559
REMARK INTER:                 -10.854
REMARK INTRA:                  -1.705
REMARK UNBOUND:                -1.078
REMARK SMILES C=C(C)[C@]12C[C@@H](C)[C@@]34O[C@](Cc5ccccc5)(O[C@@H]1[C@@H]3C=C(COC(=O)Cc1ccc(O)c(OC)c1)C[C@]1(O)C(=O)C(C)=C[C@@H]41)O2
REMARK SMILES IDX 23 1 22 2 21 3 20 4 9 5 8 6 10 7 6 8 18 9 46 10 19 11 5 12
REMARK SMILES IDX 7 13 4 14 45 15 38 16 44 17 40 18 42 20 41 21 43 22 39 23
REMARK SMILES IDX 11 25 12 26 13 27 17 28 14 29 16 30 15 31 2 32 3 33 1 34
REMARK SMILES IDX 37 35 24 37 25 38 26 39 27 40 28 41 36 42 29 43 33 44 30 45
REMARK SMILES IDX 31 46 34 47 35 48 32 49
REMARK H PARENT 39 24 32 50
REMARK Flexibility Score: 90.00
ROOT
ATOM      1  C   UNL     1      90.592  83.035  86.900  1.00  0.00     0.264 C 
ENDROOT
BRANCH   1   2
ATOM      2  C   UNL     1      91.595  82.014  86.417  1.00  0.00    -0.033 C 
ATOM      3  C   UNL     1      92.731  82.434  85.825  1.00  0.00    -0.015 C 
BRANCH   3   4
ATOM      4  C   UNL     1      93.848  81.621  85.191  1.00  0.00     0.078 C 
ATOM      5  O   UNL     1      95.546  81.237  86.949  1.00  0.00    -0.319 OA
ATOM      6  C   UNL     1      94.592  80.554  86.078  1.00  0.00     0.095 C 
ATOM      7  C   UNL     1      96.307  82.288  86.325  1.00  0.00     0.289 C 
ATOM      8  C   UNL     1      95.377  79.583  85.102  1.00  0.00     0.023 C 
ATOM      9  O   UNL     1      95.453  83.284  85.767  1.00  0.00    -0.320 OA
ATOM     10  O   UNL     1      97.101  81.812  85.242  1.00  0.00    -0.313 OA
ATOM     11  C   UNL     1      94.938  82.568  84.634  1.00  0.00     0.170 C 
ATOM     12  C   UNL     1      95.881  80.334  83.832  1.00  0.00     0.049 C 
ATOM     13  C   UNL     1      96.546  78.812  85.738  1.00  0.00     0.011 C 
ATOM     14  C   UNL     1      96.186  81.803  84.127  1.00  0.00     0.122 C 
BRANCH   6  15
ATOM     15  C   UNL     1      93.600  79.860  87.056  1.00  0.00     0.086 C 
ATOM     16  C   UNL     1      92.230  79.465  86.468  1.00  0.00     0.140 CG0
ATOM     17  C   UNL     1      94.035  78.624  87.792  1.00  0.00    -0.010 C 
ATOM     18  C   UNL     1      91.910  78.188  87.217  1.00  0.00     0.190 C 
ATOM     19  G   UNL     1      91.175  80.549  86.683  1.00  0.00     0.000 G0
ATOM     20  C   UNL     1      93.100  77.677  87.923  1.00  0.00    -0.008 C 
ATOM     21  O   UNL     1      90.831  77.614  87.209  1.00  0.00    -0.291 OA
ATOM     22  C   UNL     1      93.144  76.389  88.645  1.00  0.00     0.048 C 
BRANCH  16  23
ATOM     23  O   UNL     1      92.284  79.057  85.111  1.00  0.00    -0.381 OA
ATOM     24  H   UNL     1      92.928  78.334  85.033  1.00  0.00     0.212 HD
ENDBRANCH  16  23
ENDBRANCH   6  15
BRANCH   7  25
ATOM     25  C   UNL     1      97.204  82.913  87.374  1.00  0.00     0.135 C 
BRANCH  25  26
ATOM     26  C   UNL     1      98.594  82.327  87.351  1.00  0.00    -0.040 A 
ATOM     27  C   UNL     1      99.615  82.981  86.661  1.00  0.00     0.004 A 
ATOM     28  C   UNL     1      98.859  81.132  88.019  1.00  0.00     0.004 A 
ATOM     29  C   UNL     1     100.901  82.440  86.639  1.00  0.00     0.000 A 
ATOM     30  C   UNL     1     100.144  80.590  87.997  1.00  0.00     0.000 A 
ATOM     31  C   UNL     1     101.165  81.244  87.307  1.00  0.00     0.000 A 
ENDBRANCH  25  26
ENDBRANCH   7  25
BRANCH  14  32
ATOM     32  C   UNL     1      96.840  82.496  82.976  1.00  0.00    -0.046 C 
ATOM     33  C   UNL     1      97.405  83.857  83.257  1.00  0.00     0.042 C 
ATOM     34  C   UNL     1      96.918  81.934  81.761  1.00  0.00     0.010 C 
ENDBRANCH  14  32
ENDBRANCH   3   4
BRANCH   2  35
ATOM     35  C   UNL     1      91.165  80.584  86.685  1.00  0.00     0.078 CG0
ATOM     36  G   UNL     1      92.210  79.489  86.476  1.00  0.00     0.000 G0
ENDBRANCH   2  35
ENDBRANCH   1   2
BRANCH   1  37
ATOM     37  O   UNL     1      90.510  82.978  88.308  1.00  0.00    -0.461 OA
BRANCH  37  38
ATOM     38  C   UNL     1      91.476  83.669  89.002  1.00  0.00     0.310 C 
ATOM     39  O   UNL     1      92.380  83.156  89.648  1.00  0.00    -0.252 OA
BRANCH  38  40
ATOM     40  C   UNL     1      91.246  85.154  88.843  1.00  0.00     0.158 C 
BRANCH  40  41
ATOM     41  C   UNL     1      92.496  85.904  88.460  1.00  0.00    -0.033 A 
ATOM     42  C   UNL     1      92.872  87.043  89.173  1.00  0.00     0.054 A 
ATOM     43  C   UNL     1      93.276  85.460  87.393  1.00  0.00     0.008 A 
ATOM     44  C   UNL     1      94.029  87.737  88.818  1.00  0.00     0.160 A 
ATOM     45  C   UNL     1      94.433  86.155  87.038  1.00  0.00     0.050 A 
ATOM     46  C   UNL     1      94.809  87.293  87.750  1.00  0.00     0.157 A 
BRANCH  44  47
ATOM     47  O   UNL     1      94.385  88.848  89.522  1.00  0.00    -0.493 OA
ATOM     48  C   UNL     1      94.008  90.111  88.975  1.00  0.00     0.278 C 
ENDBRANCH  44  47
BRANCH  46  49
ATOM     49  O   UNL     1      95.941  87.963  87.395  1.00  0.00    -0.504 OA
ATOM     50  H   UNL     1      96.571  87.334  87.005  1.00  0.00     0.293 HD
ENDBRANCH  46  49
ENDBRANCH  40  41
ENDBRANCH  38  40
ENDBRANCH  37  38
ENDBRANCH   1  37
TORSDOF 11
ENDMDL
MODEL 8
REMARK VINA RESULT:    -6.442     18.351     21.898
REMARK INTER + INTRA:         -12.417
REMARK INTER:                  -9.811
REMARK INTRA:                  -2.605
REMARK UNBOUND:                -1.078
REMARK SMILES C=C(C)[C@]12C[C@@H](C)[C@@]34O[C@](Cc5ccccc5)(O[C@@H]1[C@@H]3C=C(COC(=O)Cc1ccc(O)c(OC)c1)C[C@]1(O)C(=O)C(C)=C[C@@H]41)O2
REMARK SMILES IDX 23 1 22 2 21 3 20 4 9 5 8 6 10 7 6 8 18 9 46 10 19 11 5 12
REMARK SMILES IDX 7 13 4 14 45 15 38 16 44 17 40 18 42 20 41 21 43 22 39 23
REMARK SMILES IDX 11 25 12 26 13 27 17 28 14 29 16 30 15 31 2 32 3 33 1 34
REMARK SMILES IDX 37 35 24 37 25 38 26 39 27 40 28 41 36 42 29 43 33 44 30 45
REMARK SMILES IDX 31 46 34 47 35 48 32 49
REMARK H PARENT 39 24 32 50
REMARK Flexibility Score: 90.00
ROOT
ATOM      1  C   UNL     1      65.107  64.289  79.434  1.00  0.00     0.264 C 
ENDROOT
BRANCH   1   2
ATOM      2  C   UNL     1      65.619  64.445  80.847  1.00  0.00    -0.033 C 
ATOM      3  C   UNL     1      66.920  64.735  81.048  1.00  0.00    -0.015 C 
BRANCH   3   4
ATOM      4  C   UNL     1      67.689  64.865  82.353  1.00  0.00     0.078 C 
ATOM      5  O   UNL     1      67.619  67.253  82.995  1.00  0.00    -0.319 OA
ATOM      6  C   UNL     1      67.193  65.919  83.412  1.00  0.00     0.095 C 
ATOM      7  C   UNL     1      68.965  67.341  82.492  1.00  0.00     0.289 C 
ATOM      8  C   UNL     1      67.872  65.562  84.799  1.00  0.00     0.023 C 
ATOM      9  O   UNL     1      69.161  66.467  81.383  1.00  0.00    -0.320 OA
ATOM     10  O   UNL     1      69.932  66.952  83.464  1.00  0.00    -0.313 OA
ATOM     11  C   UNL     1      69.172  65.200  82.059  1.00  0.00     0.170 C 
ATOM     12  C   UNL     1      69.297  64.960  84.599  1.00  0.00     0.049 C 
ATOM     13  C   UNL     1      67.942  66.713  85.815  1.00  0.00     0.011 C 
ATOM     14  C   UNL     1      69.975  65.515  83.346  1.00  0.00     0.122 C 
BRANCH   6  15
ATOM     15  C   UNL     1      65.638  65.995  83.429  1.00  0.00     0.086 C 
ATOM     16  C   UNL     1      64.891  64.647  83.355  1.00  0.00     0.140 CG0
ATOM     17  C   UNL     1      64.948  66.716  84.553  1.00  0.00    -0.010 C 
ATOM     18  C   UNL     1      63.668  64.905  84.209  1.00  0.00     0.190 C 
ATOM     19  G   UNL     1      64.533  64.264  81.920  1.00  0.00     0.000 G0
ATOM     20  C   UNL     1      63.823  66.144  84.995  1.00  0.00    -0.008 C 
ATOM     21  O   UNL     1      62.694  64.172  84.291  1.00  0.00    -0.291 OA
ATOM     22  C   UNL     1      62.856  66.607  86.011  1.00  0.00     0.048 C 
BRANCH  16  23
ATOM     23  O   UNL     1      65.553  63.586  84.024  1.00  0.00    -0.381 OA
ATOM     24  H   UNL     1      65.784  63.884  84.919  1.00  0.00     0.212 HD
ENDBRANCH  16  23
ENDBRANCH   6  15
BRANCH   7  25
ATOM     25  C   UNL     1      69.221  68.773  82.068  1.00  0.00     0.135 C 
BRANCH  25  26
ATOM     26  C   UNL     1      69.231  69.718  83.243  1.00  0.00    -0.040 A 
ATOM     27  C   UNL     1      70.427  69.993  83.906  1.00  0.00     0.004 A 
ATOM     28  C   UNL     1      68.045  70.317  83.667  1.00  0.00     0.004 A 
ATOM     29  C   UNL     1      70.437  70.868  84.994  1.00  0.00     0.000 A 
ATOM     30  C   UNL     1      68.055  71.191  84.754  1.00  0.00     0.000 A 
ATOM     31  C   UNL     1      69.251  71.466  85.417  1.00  0.00     0.000 A 
ENDBRANCH  25  26
ENDBRANCH   7  25
BRANCH  14  32
ATOM     32  C   UNL     1      71.404  65.094  83.232  1.00  0.00    -0.046 C 
ATOM     33  C   UNL     1      71.688  63.961  82.292  1.00  0.00     0.042 C 
ATOM     34  C   UNL     1      72.378  65.696  83.931  1.00  0.00     0.010 C 
ENDBRANCH  14  32
ENDBRANCH   3   4
BRANCH   2  35
ATOM     35  C   UNL     1      64.540  64.252  81.895  1.00  0.00     0.078 CG0
ATOM     36  G   UNL     1      64.879  64.655  83.329  1.00  0.00     0.000 G0
ENDBRANCH   2  35
ENDBRANCH   1   2
BRANCH   1  37
ATOM     37  O   UNL     1      63.760  64.706  79.376  1.00  0.00    -0.461 OA
BRANCH  37  38
ATOM     38  C   UNL     1      63.546  66.039  79.112  1.00  0.00     0.310 C 
ATOM     39  O   UNL     1      64.120  66.684  78.245  1.00  0.00    -0.252 OA
BRANCH  38  40
ATOM     40  C   UNL     1      62.498  66.579  80.056  1.00  0.00     0.158 C 
BRANCH  40  41
ATOM     41  C   UNL     1      63.025  67.657  80.967  1.00  0.00    -0.033 A 
ATOM     42  C   UNL     1      62.189  68.231  81.925  1.00  0.00     0.054 A 
ATOM     43  C   UNL     1      64.349  68.080  80.853  1.00  0.00     0.008 A 
ATOM     44  C   UNL     1      62.678  69.229  82.768  1.00  0.00     0.160 A 
ATOM     45  C   UNL     1      64.838  69.078  81.697  1.00  0.00     0.050 A 
ATOM     46  C   UNL     1      64.003  69.653  82.654  1.00  0.00     0.157 A 
BRANCH  44  47
ATOM     47  O   UNL     1      61.852  69.783  83.699  1.00  0.00    -0.493 OA
ATOM     48  C   UNL     1      60.696  70.467  83.216  1.00  0.00     0.278 C 
ENDBRANCH  44  47
BRANCH  46  49
ATOM     49  O   UNL     1      64.491  70.625  83.473  1.00  0.00    -0.504 OA
ATOM     50  H   UNL     1      63.985  71.443  83.330  1.00  0.00     0.293 HD
ENDBRANCH  46  49
ENDBRANCH  40  41
ENDBRANCH  38  40
ENDBRANCH  37  38
ENDBRANCH   1  37
TORSDOF 11
ENDMDL
MODEL 9
REMARK VINA RESULT:    -6.411     31.895     36.038
REMARK INTER + INTRA:         -12.362
REMARK INTER:                 -11.310
REMARK INTRA:                  -1.051
REMARK UNBOUND:                -1.078
REMARK SMILES C=C(C)[C@]12C[C@@H](C)[C@@]34O[C@](Cc5ccccc5)(O[C@@H]1[C@@H]3C=C(COC(=O)Cc1ccc(O)c(OC)c1)C[C@]1(O)C(=O)C(C)=C[C@@H]41)O2
REMARK SMILES IDX 23 1 22 2 21 3 20 4 9 5 8 6 10 7 6 8 18 9 46 10 19 11 5 12
REMARK SMILES IDX 7 13 4 14 45 15 38 16 44 17 40 18 42 20 41 21 43 22 39 23
REMARK SMILES IDX 11 25 12 26 13 27 17 28 14 29 16 30 15 31 2 32 3 33 1 34
REMARK SMILES IDX 37 35 24 37 25 38 26 39 27 40 28 41 36 42 29 43 33 44 30 45
REMARK SMILES IDX 31 46 34 47 35 48 32 49
REMARK H PARENT 39 24 32 50
REMARK Flexibility Score: 90.00
ROOT
ATOM      1  C   UNL     1      97.504  83.340  82.468  1.00  0.00     0.264 C 
ENDROOT
BRANCH   1   2
ATOM      2  C   UNL     1      97.345  83.357  83.971  1.00  0.00    -0.033 C 
ATOM      3  C   UNL     1      96.106  83.377  84.502  1.00  0.00    -0.015 C 
BRANCH   3   4
ATOM      4  C   UNL     1      95.683  83.473  85.959  1.00  0.00     0.078 C 
ATOM      5  O   UNL     1      95.421  81.157  86.787  1.00  0.00    -0.319 OA
ATOM      6  C   UNL     1      96.203  82.378  86.964  1.00  0.00     0.095 C 
ATOM      7  C   UNL     1      94.002  81.351  86.630  1.00  0.00     0.289 C 
ATOM      8  C   UNL     1      95.985  82.932  88.432  1.00  0.00     0.023 C 
ATOM      9  O   UNL     1      93.716  82.201  85.522  1.00  0.00    -0.320 OA
ATOM     10  O   UNL     1      93.414  81.983  87.763  1.00  0.00    -0.313 OA
ATOM     11  C   UNL     1      94.138  83.465  86.060  1.00  0.00     0.170 C 
ATOM     12  C   UNL     1      94.711  83.828  88.522  1.00  0.00     0.049 C 
ATOM     13  C   UNL     1      95.939  81.866  89.539  1.00  0.00     0.011 C 
ATOM     14  C   UNL     1      93.639  83.388  87.524  1.00  0.00     0.122 C 
BRANCH   6  15
ATOM     15  C   UNL     1      97.661  81.959  86.617  1.00  0.00     0.086 C 
ATOM     16  C   UNL     1      98.624  83.101  86.232  1.00  0.00     0.140 CG0
ATOM     17  C   UNL     1      98.452  81.155  87.610  1.00  0.00    -0.010 C 
ATOM     18  C   UNL     1      99.945  82.617  86.791  1.00  0.00     0.190 C 
ATOM     19  G   UNL     1      98.675  83.329  84.722  1.00  0.00     0.000 G0
ATOM     20  C   UNL     1      99.745  81.481  87.711  1.00  0.00    -0.008 C 
ATOM     21  O   UNL     1     101.036  83.117  86.564  1.00  0.00    -0.291 OA
ATOM     22  C   UNL     1     100.823  80.862  88.509  1.00  0.00     0.048 C 
BRANCH  16  23
ATOM     23  O   UNL     1      98.385  84.312  86.930  1.00  0.00    -0.381 OA
ATOM     24  H   UNL     1      98.174  85.004  86.281  1.00  0.00     0.212 HD
ENDBRANCH  16  23
ENDBRANCH   6  15
BRANCH   7  25
ATOM     25  C   UNL     1      93.358  79.996  86.415  1.00  0.00     0.135 C 
BRANCH  25  26
ATOM     26  C   UNL     1      94.380  78.921  86.142  1.00  0.00    -0.040 A 
ATOM     27  C   UNL     1      94.602  77.916  87.084  1.00  0.00     0.004 A 
ATOM     28  C   UNL     1      95.102  78.930  84.949  1.00  0.00     0.004 A 
ATOM     29  C   UNL     1      95.548  76.921  86.833  1.00  0.00     0.000 A 
ATOM     30  C   UNL     1      96.047  77.935  84.698  1.00  0.00     0.000 A 
ATOM     31  C   UNL     1      96.269  76.931  85.640  1.00  0.00     0.000 A 
ENDBRANCH  25  26
ENDBRANCH   7  25
BRANCH  14  32
ATOM     32  C   UNL     1      92.346  84.111  87.715  1.00  0.00    -0.046 C 
ATOM     33  C   UNL     1      92.429  85.452  88.382  1.00  0.00     0.042 C 
ATOM     34  C   UNL     1      91.176  83.591  87.314  1.00  0.00     0.010 C 
ENDBRANCH  14  32
ENDBRANCH   3   4
BRANCH   2  35
ATOM     35  C   UNL     1      98.670  83.340  84.709  1.00  0.00     0.078 CG0
ATOM     36  G   UNL     1      98.626  83.097  86.217  1.00  0.00     0.000 G0
ENDBRANCH   2  35
ENDBRANCH   1   2
BRANCH   1  37
ATOM     37  O   UNL     1      98.289  82.228  82.094  1.00  0.00    -0.461 OA
BRANCH  37  38
ATOM     38  C   UNL     1      97.604  81.078  81.778  1.00  0.00     0.310 C 
ATOM     39  O   UNL     1      96.690  80.601  82.437  1.00  0.00    -0.252 OA
BRANCH  38  40
ATOM     40  C   UNL     1      98.153  80.500  80.495  1.00  0.00     0.158 C 
BRANCH  40  41
ATOM     41  C   UNL     1      98.031  81.442  79.325  1.00  0.00    -0.033 A 
ATOM     42  C   UNL     1      99.147  81.723  78.536  1.00  0.00     0.054 A 
ATOM     43  C   UNL     1      96.802  82.032  79.031  1.00  0.00     0.008 A 
ATOM     44  C   UNL     1      99.033  82.595  77.454  1.00  0.00     0.160 A 
ATOM     45  C   UNL     1      96.688  82.904  77.948  1.00  0.00     0.050 A 
ATOM     46  C   UNL     1      97.804  83.186  77.160  1.00  0.00     0.157 A 
BRANCH  44  47
ATOM     47  O   UNL     1     100.130  82.862  76.691  1.00  0.00    -0.493 OA
ATOM     48  C   UNL     1     101.150  81.865  76.651  1.00  0.00     0.278 C 
ENDBRANCH  44  47
BRANCH  46  49
ATOM     49  O   UNL     1      97.681  84.038  76.104  1.00  0.00    -0.504 OA
ATOM     50  H   UNL     1      97.919  83.567  75.288  1.00  0.00     0.293 HD
ENDBRANCH  46  49
ENDBRANCH  40  41
ENDBRANCH  38  40
ENDBRANCH  37  38
ENDBRANCH   1  37
TORSDOF 11
ENDMDL
MODEL 10
REMARK VINA RESULT:    -6.387     26.058     29.765
REMARK INTER + INTRA:         -12.319
REMARK INTER:                 -11.595
REMARK INTRA:                  -0.724
REMARK UNBOUND:                -1.078
REMARK SMILES C=C(C)[C@]12C[C@@H](C)[C@@]34O[C@](Cc5ccccc5)(O[C@@H]1[C@@H]3C=C(COC(=O)Cc1ccc(O)c(OC)c1)C[C@]1(O)C(=O)C(C)=C[C@@H]41)O2
REMARK SMILES IDX 23 1 22 2 21 3 20 4 9 5 8 6 10 7 6 8 18 9 46 10 19 11 5 12
REMARK SMILES IDX 7 13 4 14 45 15 38 16 44 17 40 18 42 20 41 21 43 22 39 23
REMARK SMILES IDX 11 25 12 26 13 27 17 28 14 29 16 30 15 31 2 32 3 33 1 34
REMARK SMILES IDX 37 35 24 37 25 38 26 39 27 40 28 41 36 42 29 43 33 44 30 45
REMARK SMILES IDX 31 46 34 47 35 48 32 49
REMARK H PARENT 39 24 32 50
REMARK Flexibility Score: 90.00
ROOT
ATOM      1  C   UNL     1      85.969  69.179  71.882  1.00  0.00     0.264 C 
ENDROOT
BRANCH   1   2
ATOM      2  C   UNL     1      87.109  69.136  70.891  1.00  0.00    -0.033 C 
ATOM      3  C   UNL     1      86.872  69.445  69.600  1.00  0.00    -0.015 C 
BRANCH   3   4
ATOM      4  C   UNL     1      87.816  69.403  68.409  1.00  0.00     0.078 C 
ATOM      5  O   UNL     1      88.836  71.649  68.220  1.00  0.00    -0.319 OA
ATOM      6  C   UNL     1      89.145  70.244  68.478  1.00  0.00     0.095 C 
ATOM      7  C   UNL     1      87.905  71.889  67.147  1.00  0.00     0.289 C 
ATOM      8  C   UNL     1      90.112  69.705  67.345  1.00  0.00     0.023 C 
ATOM      9  O   UNL     1      86.669  71.217  67.375  1.00  0.00    -0.320 OA
ATOM     10  O   UNL     1      88.383  71.400  65.897  1.00  0.00    -0.313 OA
ATOM     11  C   UNL     1      87.070  69.860  67.131  1.00  0.00     0.170 C 
ATOM     12  C   UNL     1      89.315  69.219  66.095  1.00  0.00     0.049 C 
ATOM     13  C   UNL     1      91.216  70.679  66.900  1.00  0.00     0.011 C 
ATOM     14  C   UNL     1      88.016  70.005  65.913  1.00  0.00     0.122 C 
BRANCH   6  15
ATOM     15  C   UNL     1      89.731  70.233  69.919  1.00  0.00     0.086 C 
ATOM     16  C   UNL     1      89.689  68.881  70.660  1.00  0.00     0.140 CG0
ATOM     17  C   UNL     1      91.138  70.713  70.145  1.00  0.00    -0.010 C 
ATOM     18  C   UNL     1      90.957  68.923  71.487  1.00  0.00     0.190 C 
ATOM     19  G   UNL     1      88.434  68.732  71.519  1.00  0.00     0.000 G0
ATOM     20  C   UNL     1      91.843  70.014  71.041  1.00  0.00    -0.008 C 
ATOM     21  O   UNL     1      91.249  68.137  72.375  1.00  0.00    -0.291 OA
ATOM     22  C   UNL     1      93.204  70.243  71.568  1.00  0.00     0.048 C 
BRANCH  16  23
ATOM     23  O   UNL     1      89.874  67.757  69.815  1.00  0.00    -0.381 OA
ATOM     24  H   UNL     1      89.141  67.138  69.964  1.00  0.00     0.212 HD
ENDBRANCH  16  23
ENDBRANCH   6  15
BRANCH   7  25
ATOM     25  C   UNL     1      87.667  73.382  67.049  1.00  0.00     0.135 C 
BRANCH  25  26
ATOM     26  C   UNL     1      88.822  74.097  66.395  1.00  0.00    -0.040 A 
ATOM     27  C   UNL     1      90.005  74.305  67.104  1.00  0.00     0.004 A 
ATOM     28  C   UNL     1      88.709  74.549  65.080  1.00  0.00     0.004 A 
ATOM     29  C   UNL     1      91.074  74.967  66.499  1.00  0.00     0.000 A 
ATOM     30  C   UNL     1      89.778  75.210  64.475  1.00  0.00     0.000 A 
ATOM     31  C   UNL     1      90.961  75.419  65.185  1.00  0.00     0.000 A 
ENDBRANCH  25  26
ENDBRANCH   7  25
BRANCH  14  32
ATOM     32  C   UNL     1      87.327  69.685  64.627  1.00  0.00    -0.046 C 
ATOM     33  C   UNL     1      85.902  70.139  64.507  1.00  0.00     0.042 C 
ATOM     34  C   UNL     1      87.946  69.029  63.634  1.00  0.00     0.010 C 
ENDBRANCH  14  32
ENDBRANCH   3   4
BRANCH   2  35
ATOM     35  C   UNL     1      88.430  68.737  71.521  1.00  0.00     0.078 CG0
ATOM     36  G   UNL     1      89.683  68.863  70.655  1.00  0.00     0.000 G0
ENDBRANCH   2  35
ENDBRANCH   1   2
BRANCH   1  37
ATOM     37  O   UNL     1      84.787  68.734  71.254  1.00  0.00    -0.461 OA
BRANCH  37  38
ATOM     38  C   UNL     1      83.656  69.483  71.485  1.00  0.00     0.310 C 
ATOM     39  O   UNL     1      83.615  70.504  72.158  1.00  0.00    -0.252 OA
BRANCH  38  40
ATOM     40  C   UNL     1      82.479  68.850  70.782  1.00  0.00     0.158 C 
BRANCH  40  41
ATOM     41  C   UNL     1      81.791  67.800  71.615  1.00  0.00    -0.033 A 
ATOM     42  C   UNL     1      81.945  67.800  73.002  1.00  0.00     0.054 A 
ATOM     43  C   UNL     1      81.000  66.829  71.001  1.00  0.00     0.008 A 
ATOM     44  C   UNL     1      81.308  66.828  73.774  1.00  0.00     0.160 A 
ATOM     45  C   UNL     1      80.363  65.857  71.773  1.00  0.00     0.050 A 
ATOM     46  C   UNL     1      80.517  65.856  73.158  1.00  0.00     0.157 A 
BRANCH  44  47
ATOM     47  O   UNL     1      81.465  66.837  75.127  1.00  0.00    -0.493 OA
ATOM     48  C   UNL     1      82.734  66.425  75.634  1.00  0.00     0.278 C 
ENDBRANCH  44  47
BRANCH  46  49
ATOM     49  O   UNL     1      79.889  64.903  73.902  1.00  0.00    -0.504 OA
ATOM     50  H   UNL     1      78.988  65.204  74.108  1.00  0.00     0.293 HD
ENDBRANCH  46  49
ENDBRANCH  40  41
ENDBRANCH  38  40
ENDBRANCH  37  38
ENDBRANCH   1  37
TORSDOF 11
ENDMDL
