MODEL 1
REMARK VINA RESULT:    -7.172      0.000      0.000
REMARK INTER + INTRA:          -8.804
REMARK INTER:                  -8.430
REMARK INTRA:                  -0.374
REMARK UNBOUND:                -0.374
REMARK SMILES O=C(/C=C/C=C/c1ccc2c(c1)OCO2)N1CCCCC1
REMARK SMILES IDX 3 1 4 2 2 3 1 4 16 5 17 6 21 7 18 8 20 9 19 10 5 11 6 12
REMARK SMILES IDX 7 13 12 14 8 15 11 16 9 17 13 18 10 19 14 20 15 21
REMARK H PARENT
REMARK Flexibility Score: inf
ROOT
ATOM      1  C   UNL     1      96.066  95.376  78.985  1.00  0.00     0.071 C 
ATOM      2  C   UNL     1      95.618  95.514  77.739  1.00  0.00     0.006 C 
ENDROOT
BRANCH   1   3
ATOM      3  C   UNL     1      97.131  96.290  79.446  1.00  0.00     0.246 C 
ATOM      4  O   UNL     1      97.016  97.484  79.167  1.00  0.00    -0.270 OA
ATOM      5  N   UNL     1      98.195  95.740  80.159  1.00  0.00    -0.339 N 
ATOM      6  C   UNL     1      99.270  96.621  80.624  1.00  0.00     0.120 C 
ATOM      7  C   UNL     1      98.389  94.316  80.471  1.00  0.00     0.120 C 
ATOM      8  C   UNL     1      99.520  96.454  82.119  1.00  0.00     0.022 C 
ATOM      9  C   UNL     1      98.646  94.107  81.963  1.00  0.00     0.022 C 
ATOM     10  C   UNL     1      99.781  94.993  82.469  1.00  0.00     0.004 C 
ENDBRANCH   1   3
BRANCH   2  11
ATOM     11  C   UNL     1      94.577  94.666  77.197  1.00  0.00     0.001 C 
ATOM     12  C   UNL     1      93.435  94.407  77.855  1.00  0.00     0.008 C 
BRANCH  12  13
ATOM     13  C   UNL     1      92.350  93.547  77.355  1.00  0.00    -0.022 A 
ATOM     14  C   UNL     1      92.505  92.902  76.135  1.00  0.00     0.058 A 
ATOM     15  C   UNL     1      91.191  93.404  78.123  1.00  0.00     0.012 A 
ATOM     16  C   UNL     1      91.461  92.107  75.709  1.00  0.00     0.166 A 
ATOM     17  C   UNL     1      90.149  92.592  77.667  1.00  0.00     0.051 A 
ATOM     18  O   UNL     1      91.420  91.397  74.548  1.00  0.00    -0.454 OA
ATOM     19  C   UNL     1      90.314  91.956  76.455  1.00  0.00     0.165 A 
ATOM     20  C   UNL     1      90.120  90.783  74.647  1.00  0.00     0.468 C 
ATOM     21  O   UNL     1      89.412  91.133  75.855  1.00  0.00    -0.454 OA
ENDBRANCH  12  13
ENDBRANCH   2  11
TORSDOF 3
ENDMDL
MODEL 2
REMARK VINA RESULT:    -7.119     12.537     14.455
REMARK INTER + INTRA:          -8.741
REMARK INTER:                  -8.343
REMARK INTRA:                  -0.398
REMARK UNBOUND:                -0.374
REMARK SMILES O=C(/C=C/C=C/c1ccc2c(c1)OCO2)N1CCCCC1
REMARK SMILES IDX 3 1 4 2 2 3 1 4 16 5 17 6 21 7 18 8 20 9 19 10 5 11 6 12
REMARK SMILES IDX 7 13 12 14 8 15 11 16 9 17 13 18 10 19 14 20 15 21
REMARK H PARENT
REMARK Flexibility Score: inf
ROOT
ATOM      1  C   UNL     1      97.442  80.507  78.467  1.00  0.00     0.071 C 
ATOM      2  C   UNL     1      98.206  80.680  79.544  1.00  0.00     0.006 C 
ENDROOT
BRANCH   1   3
ATOM      3  C   UNL     1      98.110  80.244  77.177  1.00  0.00     0.246 C 
ATOM      4  O   UNL     1      98.697  79.169  77.048  1.00  0.00    -0.270 OA
ATOM      5  N   UNL     1      98.035  81.230  76.194  1.00  0.00    -0.339 N 
ATOM      6  C   UNL     1      98.693  81.000  74.904  1.00  0.00     0.120 C 
ATOM      7  C   UNL     1      97.383  82.541  76.326  1.00  0.00     0.120 C 
ATOM      8  C   UNL     1      97.729  81.212  73.742  1.00  0.00     0.022 C 
ATOM      9  C   UNL     1      96.410  82.793  75.175  1.00  0.00     0.022 C 
ATOM     10  C   UNL     1      97.076  82.589  73.817  1.00  0.00     0.004 C 
ENDBRANCH   1   3
BRANCH   2  11
ATOM     11  C   UNL     1      97.644  80.942  80.852  1.00  0.00     0.001 C 
ATOM     12  C   UNL     1      96.833  81.984  81.098  1.00  0.00     0.008 C 
BRANCH  12  13
ATOM     13  C   UNL     1      96.242  82.301  82.409  1.00  0.00    -0.022 A 
ATOM     14  C   UNL     1      96.093  83.631  82.778  1.00  0.00     0.058 A 
ATOM     15  C   UNL     1      95.846  81.255  83.246  1.00  0.00     0.012 A 
ATOM     16  C   UNL     1      95.533  83.879  84.015  1.00  0.00     0.166 A 
ATOM     17  C   UNL     1      95.283  81.534  84.493  1.00  0.00     0.051 A 
ATOM     18  O   UNL     1      95.305  85.107  84.557  1.00  0.00    -0.454 OA
ATOM     19  C   UNL     1      95.139  82.858  84.850  1.00  0.00     0.165 A 
ATOM     20  C   UNL     1      94.724  84.744  85.826  1.00  0.00     0.468 C 
ATOM     21  O   UNL     1      94.615  83.319  86.018  1.00  0.00    -0.454 OA
ENDBRANCH  12  13
ENDBRANCH   2  11
TORSDOF 3
ENDMDL
MODEL 3
REMARK VINA RESULT:    -7.117     12.780     14.457
REMARK INTER + INTRA:          -8.739
REMARK INTER:                  -8.684
REMARK INTRA:                  -0.054
REMARK UNBOUND:                -0.374
REMARK SMILES O=C(/C=C/C=C/c1ccc2c(c1)OCO2)N1CCCCC1
REMARK SMILES IDX 3 1 4 2 2 3 1 4 16 5 17 6 21 7 18 8 20 9 19 10 5 11 6 12
REMARK SMILES IDX 7 13 12 14 8 15 11 16 9 17 13 18 10 19 14 20 15 21
REMARK H PARENT
REMARK Flexibility Score: inf
ROOT
ATOM      1  C   UNL     1      96.304  82.190  77.235  1.00  0.00     0.071 C 
ATOM      2  C   UNL     1      97.324  82.241  78.089  1.00  0.00     0.006 C 
ENDROOT
BRANCH   1   3
ATOM      3  C   UNL     1      96.465  82.844  75.921  1.00  0.00     0.246 C 
ATOM      4  O   UNL     1      95.699  83.770  75.649  1.00  0.00    -0.270 OA
ATOM      5  N   UNL     1      97.466  82.368  75.076  1.00  0.00    -0.339 N 
ATOM      6  C   UNL     1      97.646  82.995  73.763  1.00  0.00     0.120 C 
ATOM      7  C   UNL     1      98.367  81.239  75.347  1.00  0.00     0.120 C 
ATOM      8  C   UNL     1      99.092  83.429  73.547  1.00  0.00     0.022 C 
ATOM      9  C   UNL     1      99.829  81.634  75.137  1.00  0.00     0.022 C 
ATOM     10  C   UNL     1     100.051  82.264  73.765  1.00  0.00     0.004 C 
ENDBRANCH   1   3
BRANCH   2  11
ATOM     11  C   UNL     1      97.261  81.630  79.400  1.00  0.00     0.001 C 
ATOM     12  C   UNL     1      96.643  82.209  80.443  1.00  0.00     0.008 C 
BRANCH  12  13
ATOM     13  C   UNL     1      96.557  81.636  81.797  1.00  0.00    -0.022 A 
ATOM     14  C   UNL     1      96.343  82.483  82.876  1.00  0.00     0.058 A 
ATOM     15  C   UNL     1      96.692  80.255  81.958  1.00  0.00     0.012 A 
ATOM     16  C   UNL     1      96.269  81.900  84.124  1.00  0.00     0.166 A 
ATOM     17  C   UNL     1      96.613  79.691  83.233  1.00  0.00     0.051 A 
ATOM     18  O   UNL     1      96.067  82.555  85.300  1.00  0.00    -0.454 OA
ATOM     19  C   UNL     1      96.400  80.541  84.299  1.00  0.00     0.165 A 
ATOM     20  C   UNL     1      96.086  81.456  86.234  1.00  0.00     0.468 C 
ATOM     21  O   UNL     1      96.297  80.175  85.605  1.00  0.00    -0.454 OA
ENDBRANCH  12  13
ENDBRANCH   2  11
TORSDOF 3
ENDMDL
MODEL 4
REMARK VINA RESULT:    -6.892     12.785     13.929
REMARK INTER + INTRA:          -8.474
REMARK INTER:                  -8.158
REMARK INTRA:                  -0.317
REMARK UNBOUND:                -0.374
REMARK SMILES O=C(/C=C/C=C/c1ccc2c(c1)OCO2)N1CCCCC1
REMARK SMILES IDX 3 1 4 2 2 3 1 4 16 5 17 6 21 7 18 8 20 9 19 10 5 11 6 12
REMARK SMILES IDX 7 13 12 14 8 15 11 16 9 17 13 18 10 19 14 20 15 21
REMARK H PARENT
REMARK Flexibility Score: inf
ROOT
ATOM      1  C   UNL     1      95.705  81.852  83.242  1.00  0.00     0.071 C 
ATOM      2  C   UNL     1      96.707  81.566  82.411  1.00  0.00     0.006 C 
ENDROOT
BRANCH   1   3
ATOM      3  C   UNL     1      95.886  81.553  84.676  1.00  0.00     0.246 C 
ATOM      4  O   UNL     1      97.039  81.457  85.097  1.00  0.00    -0.270 OA
ATOM      5  N   UNL     1      94.741  81.395  85.456  1.00  0.00    -0.339 N 
ATOM      6  C   UNL     1      94.888  81.092  86.883  1.00  0.00     0.120 C 
ATOM      7  C   UNL     1      93.351  81.457  84.981  1.00  0.00     0.120 C 
ATOM      8  C   UNL     1      94.096  82.070  87.744  1.00  0.00     0.022 C 
ATOM      9  C   UNL     1      92.521  82.426  85.824  1.00  0.00     0.022 C 
ATOM     10  C   UNL     1      92.634  82.116  87.314  1.00  0.00     0.004 C 
ENDBRANCH   1   3
BRANCH   2  11
ATOM     11  C   UNL     1      96.624  81.822  80.989  1.00  0.00     0.001 C 
ATOM     12  C   UNL     1      97.564  81.415  80.122  1.00  0.00     0.008 C 
BRANCH  12  13
ATOM     13  C   UNL     1      97.534  81.655  78.669  1.00  0.00    -0.022 A 
ATOM     14  C   UNL     1      96.498  82.407  78.130  1.00  0.00     0.058 A 
ATOM     15  C   UNL     1      98.549  81.120  77.872  1.00  0.00     0.012 A 
ATOM     16  C   UNL     1      96.513  82.605  76.765  1.00  0.00     0.166 A 
ATOM     17  C   UNL     1      98.540  81.336  76.493  1.00  0.00     0.051 A 
ATOM     18  O   UNL     1      95.592  83.307  76.050  1.00  0.00    -0.454 OA
ATOM     19  C   UNL     1      97.507  82.084  75.967  1.00  0.00     0.165 A 
ATOM     20  C   UNL     1      96.117  83.170  74.714  1.00  0.00     0.468 C 
ATOM     21  O   UNL     1      97.332  82.395  74.654  1.00  0.00    -0.454 OA
ENDBRANCH  12  13
ENDBRANCH   2  11
TORSDOF 3
ENDMDL
MODEL 5
REMARK VINA RESULT:    -6.713     13.204     14.903
REMARK INTER + INTRA:          -8.264
REMARK INTER:                  -7.872
REMARK INTRA:                  -0.392
REMARK UNBOUND:                -0.374
REMARK SMILES O=C(/C=C/C=C/c1ccc2c(c1)OCO2)N1CCCCC1
REMARK SMILES IDX 3 1 4 2 2 3 1 4 16 5 17 6 21 7 18 8 20 9 19 10 5 11 6 12
REMARK SMILES IDX 7 13 12 14 8 15 11 16 9 17 13 18 10 19 14 20 15 21
REMARK H PARENT
REMARK Flexibility Score: inf
ROOT
ATOM      1  C   UNL     1      97.708  82.207  76.532  1.00  0.00     0.071 C 
ATOM      2  C   UNL     1      96.573  82.276  77.225  1.00  0.00     0.006 C 
ENDROOT
BRANCH   1   3
ATOM      3  C   UNL     1      97.625  82.233  75.058  1.00  0.00     0.246 C 
ATOM      4  O   UNL     1      96.597  82.687  74.554  1.00  0.00    -0.270 OA
ATOM      5  N   UNL     1      98.711  81.740  74.337  1.00  0.00    -0.339 N 
ATOM      6  C   UNL     1      98.656  81.748  72.872  1.00  0.00     0.120 C 
ATOM      7  C   UNL     1      99.934  81.151  74.902  1.00  0.00     0.120 C 
ATOM      8  C   UNL     1      99.879  82.433  72.272  1.00  0.00     0.022 C 
ATOM      9  C   UNL     1     101.185  81.809  74.321  1.00  0.00     0.022 C 
ATOM     10  C   UNL     1     101.167  81.806  72.795  1.00  0.00     0.004 C 
ENDBRANCH   1   3
BRANCH   2  11
ATOM     11  C   UNL     1      96.553  82.257  78.672  1.00  0.00     0.001 C 
ATOM     12  C   UNL     1      97.383  81.493  79.400  1.00  0.00     0.008 C 
BRANCH  12  13
ATOM     13  C   UNL     1      97.399  81.429  80.871  1.00  0.00    -0.022 A 
ATOM     14  C   UNL     1      98.150  80.443  81.496  1.00  0.00     0.058 A 
ATOM     15  C   UNL     1      96.658  82.364  81.598  1.00  0.00     0.012 A 
ATOM     16  C   UNL     1      98.135  80.424  82.876  1.00  0.00     0.166 A 
ATOM     17  C   UNL     1      96.660  82.322  82.994  1.00  0.00     0.051 A 
ATOM     18  O   UNL     1      98.800  79.541  83.670  1.00  0.00    -0.454 OA
ATOM     19  C   UNL     1      97.409  81.338  83.605  1.00  0.00     0.165 A 
ATOM     20  C   UNL     1      98.413  80.002  84.980  1.00  0.00     0.468 C 
ATOM     21  O   UNL     1      97.530  81.142  84.947  1.00  0.00    -0.454 OA
ENDBRANCH  12  13
ENDBRANCH   2  11
TORSDOF 3
ENDMDL
MODEL 6
REMARK VINA RESULT:    -6.505      1.861      2.265
REMARK INTER + INTRA:          -8.020
REMARK INTER:                  -7.621
REMARK INTRA:                  -0.399
REMARK UNBOUND:                -0.374
REMARK SMILES O=C(/C=C/C=C/c1ccc2c(c1)OCO2)N1CCCCC1
REMARK SMILES IDX 3 1 4 2 2 3 1 4 16 5 17 6 21 7 18 8 20 9 19 10 5 11 6 12
REMARK SMILES IDX 7 13 12 14 8 15 11 16 9 17 13 18 10 19 14 20 15 21
REMARK H PARENT
REMARK Flexibility Score: inf
ROOT
ATOM      1  C   UNL     1      96.738  95.370  79.398  1.00  0.00     0.071 C 
ATOM      2  C   UNL     1      96.443  95.735  78.152  1.00  0.00     0.006 C 
ENDROOT
BRANCH   1   3
ATOM      3  C   UNL     1      97.911  95.991  80.044  1.00  0.00     0.246 C 
ATOM      4  O   UNL     1      99.013  95.796  79.529  1.00  0.00    -0.270 OA
ATOM      5  N   UNL     1      97.695  96.749  81.193  1.00  0.00    -0.339 N 
ATOM      6  C   UNL     1      98.842  97.373  81.860  1.00  0.00     0.120 C 
ATOM      7  C   UNL     1      96.403  96.966  81.861  1.00  0.00     0.120 C 
ATOM      8  C   UNL     1      98.619  98.867  82.071  1.00  0.00     0.022 C 
ATOM      9  C   UNL     1      96.144  98.455  82.094  1.00  0.00     0.022 C 
ATOM     10  C   UNL     1      97.312  99.125  82.813  1.00  0.00     0.004 C 
ENDBRANCH   1   3
BRANCH   2  11
ATOM     11  C   UNL     1      95.313  95.182  77.436  1.00  0.00     0.001 C 
ATOM     12  C   UNL     1      94.065  95.187  77.932  1.00  0.00     0.008 C 
BRANCH  12  13
ATOM     13  C   UNL     1      92.883  94.632  77.251  1.00  0.00    -0.022 A 
ATOM     14  C   UNL     1      92.966  93.373  76.672  1.00  0.00     0.058 A 
ATOM     15  C   UNL     1      91.709  95.389  77.206  1.00  0.00     0.012 A 
ATOM     16  C   UNL     1      91.832  92.896  76.046  1.00  0.00     0.166 A 
ATOM     17  C   UNL     1      90.577  94.882  76.565  1.00  0.00     0.051 A 
ATOM     18  O   UNL     1      91.712  91.693  75.422  1.00  0.00    -0.454 OA
ATOM     19  C   UNL     1      90.669  93.631  75.994  1.00  0.00     0.165 A 
ATOM     20  C   UNL     1      90.343  91.752  74.971  1.00  0.00     0.468 C 
ATOM     21  O   UNL     1      89.676  92.979  75.331  1.00  0.00    -0.454 OA
ENDBRANCH  12  13
ENDBRANCH   2  11
TORSDOF 3
ENDMDL
MODEL 7
REMARK VINA RESULT:    -6.452     12.826     14.816
REMARK INTER + INTRA:          -7.957
REMARK INTER:                  -7.562
REMARK INTRA:                  -0.395
REMARK UNBOUND:                -0.374
REMARK SMILES O=C(/C=C/C=C/c1ccc2c(c1)OCO2)N1CCCCC1
REMARK SMILES IDX 3 1 4 2 2 3 1 4 16 5 17 6 21 7 18 8 20 9 19 10 5 11 6 12
REMARK SMILES IDX 7 13 12 14 8 15 11 16 9 17 13 18 10 19 14 20 15 21
REMARK H PARENT
REMARK Flexibility Score: inf
ROOT
ATOM      1  C   UNL     1      97.297  80.646  78.535  1.00  0.00     0.071 C 
ATOM      2  C   UNL     1      98.218  80.870  79.470  1.00  0.00     0.006 C 
ENDROOT
BRANCH   1   3
ATOM      3  C   UNL     1      97.750  80.166  77.214  1.00  0.00     0.246 C 
ATOM      4  O   UNL     1      98.092  78.987  77.124  1.00  0.00    -0.270 OA
ATOM      5  N   UNL     1      97.766  81.080  76.161  1.00  0.00    -0.339 N 
ATOM      6  C   UNL     1      98.217  80.635  74.839  1.00  0.00     0.120 C 
ATOM      7  C   UNL     1      97.409  82.504  76.241  1.00  0.00     0.120 C 
ATOM      8  C   UNL     1      97.192  80.967  73.760  1.00  0.00     0.022 C 
ATOM      9  C   UNL     1      96.384  82.879  75.171  1.00  0.00     0.022 C 
ATOM     10  C   UNL     1      96.841  82.452  73.779  1.00  0.00     0.004 C 
ENDBRANCH   1   3
BRANCH   2  11
ATOM     11  C   UNL     1      97.871  81.341  80.794  1.00  0.00     0.001 C 
ATOM     12  C   UNL     1      96.603  81.561  81.178  1.00  0.00     0.008 C 
BRANCH  12  13
ATOM     13  C   UNL     1      96.196  82.047  82.507  1.00  0.00    -0.022 A 
ATOM     14  C   UNL     1      95.789  81.129  83.466  1.00  0.00     0.058 A 
ATOM     15  C   UNL     1      96.230  83.419  82.767  1.00  0.00     0.012 A 
ATOM     16  C   UNL     1      95.417  81.632  84.696  1.00  0.00     0.166 A 
ATOM     17  C   UNL     1      95.848  83.901  84.021  1.00  0.00     0.051 A 
ATOM     18  O   UNL     1      94.989  80.901  85.762  1.00  0.00    -0.454 OA
ATOM     19  C   UNL     1      95.446  82.981  84.967  1.00  0.00     0.165 A 
ATOM     20  C   UNL     1      94.752  81.941  86.732  1.00  0.00     0.468 C 
ATOM     21  O   UNL     1      95.040  83.264  86.234  1.00  0.00    -0.454 OA
ENDBRANCH  12  13
ENDBRANCH   2  11
TORSDOF 3
ENDMDL
MODEL 8
REMARK VINA RESULT:    -6.223      7.938      8.940
REMARK INTER + INTRA:          -7.688
REMARK INTER:                  -7.292
REMARK INTRA:                  -0.396
REMARK UNBOUND:                -0.374
REMARK SMILES O=C(/C=C/C=C/c1ccc2c(c1)OCO2)N1CCCCC1
REMARK SMILES IDX 3 1 4 2 2 3 1 4 16 5 17 6 21 7 18 8 20 9 19 10 5 11 6 12
REMARK SMILES IDX 7 13 12 14 8 15 11 16 9 17 13 18 10 19 14 20 15 21
REMARK H PARENT
REMARK Flexibility Score: inf
ROOT
ATOM      1  C   UNL     1      93.977  98.494  73.261  1.00  0.00     0.071 C 
ATOM      2  C   UNL     1      93.471  99.721  73.157  1.00  0.00     0.006 C 
ENDROOT
BRANCH   1   3
ATOM      3  C   UNL     1      94.999  98.249  74.298  1.00  0.00     0.246 C 
ATOM      4  O   UNL     1      95.632  99.220  74.714  1.00  0.00    -0.270 OA
ATOM      5  N   UNL     1      95.182  96.937  74.733  1.00  0.00    -0.339 N 
ATOM      6  C   UNL     1      96.194  96.662  75.758  1.00  0.00     0.120 C 
ATOM      7  C   UNL     1      94.479  95.748  74.228  1.00  0.00     0.120 C 
ATOM      8  C   UNL     1      95.603  95.882  76.927  1.00  0.00     0.022 C 
ATOM      9  C   UNL     1      93.875  94.935  75.373  1.00  0.00     0.022 C 
ATOM     10  C   UNL     1      94.914  94.610  76.443  1.00  0.00     0.004 C 
ENDBRANCH   1   3
BRANCH   2  11
ATOM     11  C   UNL     1      92.466 100.058  72.172  1.00  0.00     0.001 C 
ATOM     12  C   UNL     1      92.288  99.351  71.044  1.00  0.00     0.008 C 
BRANCH  12  13
ATOM     13  C   UNL     1      91.288  99.654  70.006  1.00  0.00    -0.022 A 
ATOM     14  C   UNL     1      90.857  98.637  69.166  1.00  0.00     0.058 A 
ATOM     15  C   UNL     1      90.801 100.959  69.896  1.00  0.00     0.012 A 
ATOM     16  C   UNL     1      89.919  98.969  68.210  1.00  0.00     0.166 A 
ATOM     17  C   UNL     1      89.852 101.268  68.919  1.00  0.00     0.051 A 
ATOM     18  O   UNL     1      89.374  98.120  67.297  1.00  0.00    -0.454 OA
ATOM     19  C   UNL     1      89.430 100.250  68.089  1.00  0.00     0.165 A 
ATOM     20  C   UNL     1      88.488  99.009  66.588  1.00  0.00     0.468 C 
ATOM     21  O   UNL     1      88.518 100.363  67.086  1.00  0.00    -0.454 OA
ENDBRANCH  12  13
ENDBRANCH   2  11
TORSDOF 3
ENDMDL
MODEL 9
REMARK VINA RESULT:    -6.114     13.007     14.386
REMARK INTER + INTRA:          -7.560
REMARK INTER:                  -7.198
REMARK INTRA:                  -0.363
REMARK UNBOUND:                -0.374
REMARK SMILES O=C(/C=C/C=C/c1ccc2c(c1)OCO2)N1CCCCC1
REMARK SMILES IDX 3 1 4 2 2 3 1 4 16 5 17 6 21 7 18 8 20 9 19 10 5 11 6 12
REMARK SMILES IDX 7 13 12 14 8 15 11 16 9 17 13 18 10 19 14 20 15 21
REMARK H PARENT
REMARK Flexibility Score: inf
ROOT
ATOM      1  C   UNL     1      96.683  81.460  81.069  1.00  0.00     0.071 C 
ATOM      2  C   UNL     1      96.960  82.421  81.948  1.00  0.00     0.006 C 
ENDROOT
BRANCH   1   3
ATOM      3  C   UNL     1      97.757  81.023  80.155  1.00  0.00     0.246 C 
ATOM      4  O   UNL     1      98.643  80.305  80.620  1.00  0.00    -0.270 OA
ATOM      5  N   UNL     1      97.700  81.456  78.832  1.00  0.00    -0.339 N 
ATOM      6  C   UNL     1      98.756  81.044  77.902  1.00  0.00     0.120 C 
ATOM      7  C   UNL     1      96.685  82.349  78.252  1.00  0.00     0.120 C 
ATOM      8  C   UNL     1      98.173  80.409  76.644  1.00  0.00     0.022 C 
ATOM      9  C   UNL     1      96.078  81.747  76.984  1.00  0.00     0.022 C 
ATOM     10  C   UNL     1      97.155  81.334  75.985  1.00  0.00     0.004 C 
ENDBRANCH   1   3
BRANCH   2  11
ATOM     11  C   UNL     1      95.973  82.915  82.884  1.00  0.00     0.001 C 
ATOM     12  C   UNL     1      95.466  82.160  83.872  1.00  0.00     0.008 C 
BRANCH  12  13
ATOM     13  C   UNL     1      94.456  82.609  84.845  1.00  0.00    -0.022 A 
ATOM     14  C   UNL     1      93.342  81.815  85.077  1.00  0.00     0.058 A 
ATOM     15  C   UNL     1      94.648  83.824  85.509  1.00  0.00     0.012 A 
ATOM     16  C   UNL     1      92.424  82.278  85.998  1.00  0.00     0.166 A 
ATOM     17  C   UNL     1      93.703  84.268  86.436  1.00  0.00     0.051 A 
ATOM     18  O   UNL     1      91.272  81.650  86.361  1.00  0.00    -0.454 OA
ATOM     19  C   UNL     1      92.599  83.472  86.659  1.00  0.00     0.165 A 
ATOM     20  C   UNL     1      90.743  82.583  87.326  1.00  0.00     0.468 C 
ATOM     21  O   UNL     1      91.580  83.741  87.520  1.00  0.00    -0.454 OA
ENDBRANCH  12  13
ENDBRANCH   2  11
TORSDOF 3
ENDMDL
MODEL 10
REMARK VINA RESULT:    -6.006     23.769     25.709
REMARK INTER + INTRA:          -7.434
REMARK INTER:                  -7.119
REMARK INTRA:                  -0.315
REMARK UNBOUND:                -0.374
REMARK SMILES O=C(/C=C/C=C/c1ccc2c(c1)OCO2)N1CCCCC1
REMARK SMILES IDX 3 1 4 2 2 3 1 4 16 5 17 6 21 7 18 8 20 9 19 10 5 11 6 12
REMARK SMILES IDX 7 13 12 14 8 15 11 16 9 17 13 18 10 19 14 20 15 21
REMARK H PARENT
REMARK Flexibility Score: inf
ROOT
ATOM      1  C   UNL     1      88.385  71.989  68.701  1.00  0.00     0.071 C 
ATOM      2  C   UNL     1      87.270  71.608  69.323  1.00  0.00     0.006 C 
ENDROOT
BRANCH   1   3
ATOM      3  C   UNL     1      88.317  72.245  67.249  1.00  0.00     0.246 C 
ATOM      4  O   UNL     1      87.288  71.914  66.660  1.00  0.00    -0.270 OA
ATOM      5  N   UNL     1      89.424  72.838  66.642  1.00  0.00    -0.339 N 
ATOM      6  C   UNL     1      89.388  73.100  65.200  1.00  0.00     0.120 C 
ATOM      7  C   UNL     1      90.685  73.204  67.303  1.00  0.00     0.120 C 
ATOM      8  C   UNL     1      89.726  74.554  64.889  1.00  0.00     0.022 C 
ATOM      9  C   UNL     1      91.060  74.657  67.012  1.00  0.00     0.022 C 
ATOM     10  C   UNL     1      91.059  74.951  65.514  1.00  0.00     0.004 C 
ENDBRANCH   1   3
BRANCH   2  11
ATOM     11  C   UNL     1      87.236  71.334  70.743  1.00  0.00     0.001 C 
ATOM     12  C   UNL     1      86.121  70.943  71.382  1.00  0.00     0.008 C 
BRANCH  12  13
ATOM     13  C   UNL     1      86.030  70.659  72.824  1.00  0.00    -0.022 A 
ATOM     14  C   UNL     1      85.296  69.560  73.251  1.00  0.00     0.058 A 
ATOM     15  C   UNL     1      86.684  71.504  73.724  1.00  0.00     0.012 A 
ATOM     16  C   UNL     1      85.240  69.335  74.611  1.00  0.00     0.166 A 
ATOM     17  C   UNL     1      86.610  71.252  75.096  1.00  0.00     0.051 A 
ATOM     18  O   UNL     1      84.575  68.317  75.224  1.00  0.00    -0.454 OA
ATOM     19  C   UNL     1      85.879  70.158  75.509  1.00  0.00     0.165 A 
ATOM     20  C   UNL     1      84.868  68.593  76.609  1.00  0.00     0.468 C 
ATOM     21  O   UNL     1      85.695  69.760  76.797  1.00  0.00    -0.454 OA
ENDBRANCH  12  13
ENDBRANCH   2  11
TORSDOF 3
ENDMDL
