MODEL 1
REMARK VINA RESULT:    -7.257      0.000      0.000
REMARK INTER + INTRA:         -12.821
REMARK INTER:                 -12.348
REMARK INTRA:                  -0.473
REMARK UNBOUND:                -0.473
REMARK SMILES C=C(C)[C@]12C[C@@H](C)[C@@]34O[C@](Cc5ccccc5)(O[C@@H]1[C@@H]3C=C(COC(=O)Cc1ccc(O)cc1)C[C@]1(O)C(=O)C(C)=C[C@@H]41)O2
REMARK SMILES IDX 23 1 22 2 21 3 20 4 9 5 8 6 10 7 6 8 18 10 44 11 19 12 5 13
REMARK SMILES IDX 7 14 4 15 11 16 12 17 13 18 17 19 14 20 16 21 15 22 2 23
REMARK SMILES IDX 3 24 1 25 35 26 36 27 43 28 38 29 42 30 39 32 40 33 41 34
REMARK SMILES IDX 37 35 24 37 25 38 26 39 27 40 28 41 29 42 34 43 30 44 33 45
REMARK SMILES IDX 31 46 32 47
REMARK H PARENT 37 36 32 48
REMARK Flexibility Score: 90.00
ROOT
ATOM      1  C   UNL     1      92.357 101.313  71.877  1.00  0.00     0.264 C 
ENDROOT
BRANCH   1   2
ATOM      2  C   UNL     1      93.800 100.864  71.870  1.00  0.00    -0.033 C 
ATOM      3  C   UNL     1      94.289 100.203  72.939  1.00  0.00    -0.015 C 
BRANCH   3   4
ATOM      4  C   UNL     1      95.705  99.718  73.209  1.00  0.00     0.078 C 
ATOM      5  O   UNL     1      95.825  97.376  72.422  1.00  0.00    -0.319 OA
ATOM      6  C   UNL     1      96.360  98.716  72.188  1.00  0.00     0.095 CG0
ATOM      7  C   UNL     1      95.706  96.995  73.806  1.00  0.00     0.289 C 
ATOM      8  C   UNL     1      97.921  98.712  72.455  1.00  0.00     0.023 C 
ATOM      9  G   UNL     1      95.932  99.055  70.730  1.00  0.00     0.000 G0
ATOM     10  O   UNL     1      94.886  97.910  74.526  1.00  0.00    -0.320 OA
ATOM     11  O   UNL     1      96.963  96.993  74.478  1.00  0.00    -0.313 OA
ATOM     12  C   UNL     1      95.772  99.038  74.599  1.00  0.00     0.170 C 
ATOM     13  C   UNL     1      98.244  98.932  73.965  1.00  0.00     0.049 C 
ATOM     14  C   UNL     1      98.675  97.470  71.949  1.00  0.00     0.011 C 
ATOM     15  C   UNL     1      97.143  98.370  74.867  1.00  0.00     0.122 C 
BRANCH   7  16
ATOM     16  C   UNL     1      95.100  95.606  73.865  1.00  0.00     0.135 C 
BRANCH  16  17
ATOM     17  C   UNL     1      94.315  95.385  75.134  1.00  0.00    -0.040 A 
ATOM     18  C   UNL     1      94.785  94.494  76.098  1.00  0.00     0.004 A 
ATOM     19  C   UNL     1      93.119  96.071  75.341  1.00  0.00     0.004 A 
ATOM     20  C   UNL     1      94.058  94.289  77.272  1.00  0.00     0.000 A 
ATOM     21  C   UNL     1      92.393  95.867  76.515  1.00  0.00     0.000 A 
ATOM     22  C   UNL     1      92.863  94.976  77.480  1.00  0.00     0.000 A 
ENDBRANCH  16  17
ENDBRANCH   7  16
BRANCH  15  23
ATOM     23  C   UNL     1      97.512  98.407  76.314  1.00  0.00    -0.046 C 
ATOM     24  C   UNL     1      97.969  97.109  76.913  1.00  0.00     0.042 C 
ATOM     25  C   UNL     1      97.439  99.534  77.036  1.00  0.00     0.010 C 
ENDBRANCH  15  23
ENDBRANCH   3   4
BRANCH   2  26
ATOM     26  C   UNL     1      94.531 101.230  70.593  1.00  0.00     0.078 C 
BRANCH  26  27
ATOM     27  C   UNL     1      95.904 100.598  70.369  1.00  0.00     0.140 C 
ATOM     28  C   UNL     1      95.920  99.097  70.725  1.00  0.00     0.086 CG0
ATOM     29  C   UNL     1      96.308 100.590  68.909  1.00  0.00     0.190 C 
ATOM     30  C   UNL     1      96.637  98.469  69.562  1.00  0.00    -0.010 C 
ATOM     31  G   UNL     1      96.360  98.741  72.175  1.00  0.00     0.000 G0
ATOM     32  O   UNL     1      96.252 101.550  68.155  1.00  0.00    -0.291 OA
ATOM     33  C   UNL     1      96.844  99.274  68.515  1.00  0.00    -0.008 C 
ATOM     34  C   UNL     1      97.433  98.982  67.192  1.00  0.00     0.048 C 
BRANCH  27  35
ATOM     35  O   UNL     1      96.929 101.348  71.000  1.00  0.00    -0.381 OA
ATOM     36  H   UNL     1      97.330 101.936  70.338  1.00  0.00     0.212 HD
ENDBRANCH  27  35
ENDBRANCH  26  27
ENDBRANCH   2  26
ENDBRANCH   1   2
BRANCH   1  37
ATOM     37  O   UNL     1      92.036 101.871  70.621  1.00  0.00    -0.461 OA
BRANCH  37  38
ATOM     38  C   UNL     1      90.744 102.320  70.467  1.00  0.00     0.310 C 
ATOM     39  O   UNL     1      90.429 103.413  70.017  1.00  0.00    -0.252 OA
BRANCH  38  40
ATOM     40  C   UNL     1      89.782 101.257  70.939  1.00  0.00     0.158 C 
BRANCH  40  41
ATOM     41  C   UNL     1      89.597 100.146  69.939  1.00  0.00    -0.037 A 
ATOM     42  C   UNL     1      89.786  98.819  70.326  1.00  0.00     0.008 A 
ATOM     43  C   UNL     1      89.237 100.443  68.625  1.00  0.00     0.008 A 
ATOM     44  C   UNL     1      89.616  97.790  69.400  1.00  0.00     0.046 A 
ATOM     45  C   UNL     1      89.066  99.414  67.698  1.00  0.00     0.046 A 
ATOM     46  C   UNL     1      89.255  98.088  68.085  1.00  0.00     0.115 A 
BRANCH  46  47
ATOM     47  O   UNL     1      89.090  97.084  67.181  1.00  0.00    -0.508 OA
ATOM     48  H   UNL     1      89.934  96.612  67.076  1.00  0.00     0.293 HD
ENDBRANCH  46  47
ENDBRANCH  40  41
ENDBRANCH  38  40
ENDBRANCH  37  38
ENDBRANCH   1  37
TORSDOF 10
ENDMDL
MODEL 2
REMARK VINA RESULT:    -6.955     21.651     25.100
REMARK INTER + INTRA:         -12.307
REMARK INTER:                 -11.234
REMARK INTRA:                  -1.073
REMARK UNBOUND:                -0.473
REMARK SMILES C=C(C)[C@]12C[C@@H](C)[C@@]34O[C@](Cc5ccccc5)(O[C@@H]1[C@@H]3C=C(COC(=O)Cc1ccc(O)cc1)C[C@]1(O)C(=O)C(C)=C[C@@H]41)O2
REMARK SMILES IDX 23 1 22 2 21 3 20 4 9 5 8 6 10 7 6 8 18 10 44 11 19 12 5 13
REMARK SMILES IDX 7 14 4 15 11 16 12 17 13 18 17 19 14 20 16 21 15 22 2 23
REMARK SMILES IDX 3 24 1 25 35 26 36 27 43 28 38 29 42 30 39 32 40 33 41 34
REMARK SMILES IDX 37 35 24 37 25 38 26 39 27 40 28 41 29 42 34 43 30 44 33 45
REMARK SMILES IDX 31 46 32 47
REMARK H PARENT 37 36 32 48
REMARK Flexibility Score: 90.00
ROOT
ATOM      1  C   UNL     1      71.070  89.486  70.045  1.00  0.00     0.264 C 
ENDROOT
BRANCH   1   2
ATOM      2  C   UNL     1      72.392  89.522  69.314  1.00  0.00    -0.033 C 
ATOM      3  C   UNL     1      73.038  88.365  69.061  1.00  0.00    -0.015 C 
BRANCH   3   4
ATOM      4  C   UNL     1      74.397  88.138  68.419  1.00  0.00     0.078 C 
ATOM      5  O   UNL     1      74.003  87.791  66.002  1.00  0.00    -0.319 OA
ATOM      6  C   UNL     1      74.639  88.688  66.965  1.00  0.00     0.095 CG0
ATOM      7  C   UNL     1      74.178  86.385  66.263  1.00  0.00     0.289 C 
ATOM      8  C   UNL     1      76.203  88.704  66.712  1.00  0.00     0.023 C 
ATOM      9  G   UNL     1      73.915  90.051  66.761  1.00  0.00     0.000 G0
ATOM     10  O   UNL     1      73.692  86.033  67.555  1.00  0.00    -0.320 OA
ATOM     11  O   UNL     1      75.550  85.997  66.249  1.00  0.00    -0.313 OA
ATOM     12  C   UNL     1      74.712  86.623  68.376  1.00  0.00     0.170 C 
ATOM     13  C   UNL     1      76.914  87.530  67.454  1.00  0.00     0.049 C 
ATOM     14  C   UNL     1      76.634  88.709  65.236  1.00  0.00     0.011 C 
ATOM     15  C   UNL     1      76.004  86.308  67.583  1.00  0.00     0.122 C 
BRANCH   7  16
ATOM     16  C   UNL     1      73.424  85.608  65.202  1.00  0.00     0.135 C 
BRANCH  16  17
ATOM     17  C   UNL     1      74.006  84.233  64.985  1.00  0.00    -0.040 A 
ATOM     18  C   UNL     1      74.713  83.951  63.817  1.00  0.00     0.004 A 
ATOM     19  C   UNL     1      73.837  83.245  65.955  1.00  0.00     0.004 A 
ATOM     20  C   UNL     1      75.252  82.680  63.617  1.00  0.00     0.000 A 
ATOM     21  C   UNL     1      74.377  81.973  65.755  1.00  0.00     0.000 A 
ATOM     22  C   UNL     1      75.083  81.691  64.586  1.00  0.00     0.000 A 
ENDBRANCH  16  17
ENDBRANCH   7  16
BRANCH  15  23
ATOM     23  C   UNL     1      76.720  85.114  68.126  1.00  0.00    -0.046 C 
ATOM     24  C   UNL     1      77.405  84.239  67.118  1.00  0.00     0.042 C 
ATOM     25  C   UNL     1      76.749  84.841  69.438  1.00  0.00     0.010 C 
ENDBRANCH  15  23
ENDBRANCH   3   4
BRANCH   2  26
ATOM     26  C   UNL     1      72.828  90.927  68.940  1.00  0.00     0.078 C 
BRANCH  26  27
ATOM     27  C   UNL     1      74.005  91.059  67.976  1.00  0.00     0.140 C 
ATOM     28  C   UNL     1      73.913  90.061  66.803  1.00  0.00     0.086 CG0
ATOM     29  C   UNL     1      74.024  92.396  67.265  1.00  0.00     0.190 C 
ATOM     30  C   UNL     1      74.225  90.906  65.599  1.00  0.00    -0.010 C 
ATOM     31  G   UNL     1      74.652  88.705  66.996  1.00  0.00     0.000 G0
ATOM     32  O   UNL     1      73.908  93.486  67.804  1.00  0.00    -0.291 OA
ATOM     33  C   UNL     1      74.267  92.224  65.820  1.00  0.00    -0.008 C 
ATOM     34  C   UNL     1      74.461  93.341  64.873  1.00  0.00     0.048 C 
BRANCH  27  35
ATOM     35  O   UNL     1      75.245  91.023  68.662  1.00  0.00    -0.381 OA
ATOM     36  H   UNL     1      75.477  91.930  68.923  1.00  0.00     0.212 HD
ENDBRANCH  27  35
ENDBRANCH  26  27
ENDBRANCH   2  26
ENDBRANCH   1   2
BRANCH   1  37
ATOM     37  O   UNL     1      70.017  89.534  69.107  1.00  0.00    -0.461 OA
BRANCH  37  38
ATOM     38  C   UNL     1      69.267  88.387  68.977  1.00  0.00     0.310 C 
ATOM     39  O   UNL     1      68.507  88.147  68.049  1.00  0.00    -0.252 OA
BRANCH  38  40
ATOM     40  C   UNL     1      69.529  87.477  70.153  1.00  0.00     0.158 C 
BRANCH  40  41
ATOM     41  C   UNL     1      68.558  86.329  70.235  1.00  0.00    -0.037 A 
ATOM     42  C   UNL     1      67.337  86.493  70.891  1.00  0.00     0.008 A 
ATOM     43  C   UNL     1      68.877  85.101  69.656  1.00  0.00     0.008 A 
ATOM     44  C   UNL     1      66.438  85.429  70.969  1.00  0.00     0.046 A 
ATOM     45  C   UNL     1      67.978  84.037  69.732  1.00  0.00     0.046 A 
ATOM     46  C   UNL     1      66.759  84.201  70.389  1.00  0.00     0.115 A 
BRANCH  46  47
ATOM     47  O   UNL     1      65.882  83.163  70.464  1.00  0.00    -0.508 OA
ATOM     48  H   UNL     1      65.357  83.253  71.279  1.00  0.00     0.293 HD
ENDBRANCH  46  47
ENDBRANCH  40  41
ENDBRANCH  38  40
ENDBRANCH  37  38
ENDBRANCH   1  37
TORSDOF 10
ENDMDL
MODEL 3
REMARK VINA RESULT:    -6.754      2.471      7.148
REMARK INTER + INTRA:         -11.965
REMARK INTER:                 -11.429
REMARK INTRA:                  -0.536
REMARK UNBOUND:                -0.473
REMARK SMILES C=C(C)[C@]12C[C@@H](C)[C@@]34O[C@](Cc5ccccc5)(O[C@@H]1[C@@H]3C=C(COC(=O)Cc1ccc(O)cc1)C[C@]1(O)C(=O)C(C)=C[C@@H]41)O2
REMARK SMILES IDX 23 1 22 2 21 3 20 4 9 5 8 6 10 7 6 8 18 10 44 11 19 12 5 13
REMARK SMILES IDX 7 14 4 15 11 16 12 17 13 18 17 19 14 20 16 21 15 22 2 23
REMARK SMILES IDX 3 24 1 25 35 26 36 27 43 28 38 29 42 30 39 32 40 33 41 34
REMARK SMILES IDX 37 35 24 37 25 38 26 39 27 40 28 41 29 42 34 43 30 44 33 45
REMARK SMILES IDX 31 46 32 47
REMARK H PARENT 37 36 32 48
REMARK Flexibility Score: 90.00
ROOT
ATOM      1  C   UNL     1      96.298  97.602  75.190  1.00  0.00     0.264 C 
ENDROOT
BRANCH   1   2
ATOM      2  C   UNL     1      95.917  97.927  73.764  1.00  0.00    -0.033 C 
ATOM      3  C   UNL     1      94.757  98.573  73.523  1.00  0.00    -0.015 C 
BRANCH   3   4
ATOM      4  C   UNL     1      94.118  98.943  72.195  1.00  0.00     0.078 C 
ATOM      5  O   UNL     1      94.885 101.228  71.638  1.00  0.00    -0.319 OA
ATOM      6  C   UNL     1      94.938  99.836  71.192  1.00  0.00     0.095 CG0
ATOM      7  C   UNL     1      93.595 101.680  72.092  1.00  0.00     0.289 C 
ATOM      8  C   UNL     1      94.250  99.716  69.770  1.00  0.00     0.023 C 
ATOM      9  G   UNL     1      96.450  99.472  71.237  1.00  0.00     0.000 G0
ATOM     10  O   UNL     1      93.111 100.873  73.163  1.00  0.00    -0.320 OA
ATOM     11  O   UNL     1      92.603 101.601  71.072  1.00  0.00    -0.313 OA
ATOM     12  C   UNL     1      92.776  99.676  72.443  1.00  0.00     0.170 C 
ATOM     13  C   UNL     1      92.706  99.536  69.894  1.00  0.00     0.049 C 
ATOM     14  C   UNL     1      94.553 100.862  68.790  1.00  0.00     0.011 C 
ATOM     15  C   UNL     1      92.154 100.232  71.139  1.00  0.00     0.122 C 
BRANCH   7  16
ATOM     16  C   UNL     1      93.732 103.117  72.554  1.00  0.00     0.135 C 
BRANCH  16  17
ATOM     17  C   UNL     1      93.612 103.244  74.052  1.00  0.00    -0.040 A 
ATOM     18  C   UNL     1      92.395 103.609  74.627  1.00  0.00     0.004 A 
ATOM     19  C   UNL     1      94.720 102.998  74.862  1.00  0.00     0.004 A 
ATOM     20  C   UNL     1      92.284 103.726  76.013  1.00  0.00     0.000 A 
ATOM     21  C   UNL     1      94.609 103.115  76.249  1.00  0.00     0.000 A 
ATOM     22  C   UNL     1      93.392 103.479  76.823  1.00  0.00     0.000 A 
ENDBRANCH  16  17
ENDBRANCH   7  16
BRANCH  15  23
ATOM     23  C   UNL     1      90.660 100.228  71.183  1.00  0.00    -0.046 C 
ATOM     24  C   UNL     1      90.005 101.533  71.529  1.00  0.00     0.042 C 
ATOM     25  C   UNL     1      89.946  99.122  70.929  1.00  0.00     0.010 C 
ENDBRANCH  15  23
ENDBRANCH   3   4
BRANCH   2  26
ATOM     26  C   UNL     1      96.948  97.465  72.752  1.00  0.00     0.078 C 
BRANCH  26  27
ATOM     27  C   UNL     1      96.781  97.951  71.314  1.00  0.00     0.140 C 
ATOM     28  C   UNL     1      96.440  99.454  71.241  1.00  0.00     0.086 CG0
ATOM     29  C   UNL     1      98.068  97.870  70.521  1.00  0.00     0.190 C 
ATOM     30  C   UNL     1      97.358  99.969  70.168  1.00  0.00    -0.010 C 
ATOM     31  G   UNL     1      94.926  99.812  71.188  1.00  0.00     0.000 G0
ATOM     32  O   UNL     1      98.805  96.897  70.463  1.00  0.00    -0.291 OA
ATOM     33  C   UNL     1      98.301  99.114  69.762  1.00  0.00    -0.008 C 
ATOM     34  C   UNL     1      99.407  99.303  68.800  1.00  0.00     0.048 C 
BRANCH  27  35
ATOM     35  O   UNL     1      95.885  97.125  70.589  1.00  0.00    -0.381 OA
ATOM     36  H   UNL     1      95.094  97.647  70.372  1.00  0.00     0.212 HD
ENDBRANCH  27  35
ENDBRANCH  26  27
ENDBRANCH   2  26
ENDBRANCH   1   2
BRANCH   1  37
ATOM     37  O   UNL     1      96.298  96.201  75.365  1.00  0.00    -0.461 OA
BRANCH  37  38
ATOM     38  C   UNL     1      95.065  95.604  75.495  1.00  0.00     0.310 C 
ATOM     39  O   UNL     1      94.476  95.008  74.604  1.00  0.00    -0.252 OA
BRANCH  38  40
ATOM     40  C   UNL     1      94.556  95.801  76.902  1.00  0.00     0.158 C 
BRANCH  40  41
ATOM     41  C   UNL     1      93.260  95.078  77.165  1.00  0.00    -0.037 A 
ATOM     42  C   UNL     1      92.045  95.692  76.861  1.00  0.00     0.008 A 
ATOM     43  C   UNL     1      93.275  93.796  77.712  1.00  0.00     0.008 A 
ATOM     44  C   UNL     1      90.845  95.023  77.105  1.00  0.00     0.046 A 
ATOM     45  C   UNL     1      92.075  93.126  77.956  1.00  0.00     0.046 A 
ATOM     46  C   UNL     1      90.861  93.740  77.653  1.00  0.00     0.115 A 
BRANCH  46  47
ATOM     47  O   UNL     1      89.690  93.088  77.891  1.00  0.00    -0.508 OA
ATOM     48  H   UNL     1      88.957  93.726  77.839  1.00  0.00     0.293 HD
ENDBRANCH  46  47
ENDBRANCH  40  41
ENDBRANCH  38  40
ENDBRANCH  37  38
ENDBRANCH   1  37
TORSDOF 10
ENDMDL
MODEL 4
REMARK VINA RESULT:    -6.644      3.538      8.313
REMARK INTER + INTRA:         -11.778
REMARK INTER:                 -11.485
REMARK INTRA:                  -0.293
REMARK UNBOUND:                -0.473
REMARK SMILES C=C(C)[C@]12C[C@@H](C)[C@@]34O[C@](Cc5ccccc5)(O[C@@H]1[C@@H]3C=C(COC(=O)Cc1ccc(O)cc1)C[C@]1(O)C(=O)C(C)=C[C@@H]41)O2
REMARK SMILES IDX 23 1 22 2 21 3 20 4 9 5 8 6 10 7 6 8 18 10 44 11 19 12 5 13
REMARK SMILES IDX 7 14 4 15 11 16 12 17 13 18 17 19 14 20 16 21 15 22 2 23
REMARK SMILES IDX 3 24 1 25 35 26 36 27 43 28 38 29 42 30 39 32 40 33 41 34
REMARK SMILES IDX 37 35 24 37 25 38 26 39 27 40 28 41 29 42 34 43 30 44 33 45
REMARK SMILES IDX 31 46 32 47
REMARK H PARENT 37 36 32 48
REMARK Flexibility Score: 90.00
ROOT
ATOM      1  C   UNL     1      99.367  96.784  77.133  1.00  0.00     0.264 C 
ENDROOT
BRANCH   1   2
ATOM      2  C   UNL     1      98.885  97.859  76.186  1.00  0.00    -0.033 C 
ATOM      3  C   UNL     1      98.237  97.501  75.058  1.00  0.00    -0.015 C 
BRANCH   3   4
ATOM      4  C   UNL     1      97.726  98.372  73.921  1.00  0.00     0.078 C 
ATOM      5  O   UNL     1      95.380  98.945  74.451  1.00  0.00    -0.319 OA
ATOM      6  C   UNL     1      96.709  99.522  74.259  1.00  0.00     0.095 CG0
ATOM      7  C   UNL     1      95.007  97.930  73.499  1.00  0.00     0.289 C 
ATOM      8  C   UNL     1      96.675 100.512  73.022  1.00  0.00     0.023 C 
ATOM      9  G   UNL     1      97.049 100.177  75.629  1.00  0.00     0.000 G0
ATOM     10  O   UNL     1      95.941  96.854  73.496  1.00  0.00    -0.320 OA
ATOM     11  O   UNL     1      94.984  98.423  72.161  1.00  0.00    -0.313 OA
ATOM     12  C   UNL     1      97.052  97.487  72.843  1.00  0.00     0.170 C 
ATOM     13  C   UNL     1      96.896  99.754  71.677  1.00  0.00     0.049 C 
ATOM     14  C   UNL     1      95.418 101.391  72.911  1.00  0.00     0.011 C 
ATOM     15  C   UNL     1      96.360  98.323  71.739  1.00  0.00     0.122 C 
BRANCH   7  16
ATOM     16  C   UNL     1      93.630  97.414  73.870  1.00  0.00     0.135 C 
BRANCH  16  17
ATOM     17  C   UNL     1      93.696  96.318  74.904  1.00  0.00    -0.040 A 
ATOM     18  C   UNL     1      94.523  95.214  74.699  1.00  0.00     0.004 A 
ATOM     19  C   UNL     1      92.930  96.409  76.065  1.00  0.00     0.004 A 
ATOM     20  C   UNL     1      94.584  94.200  75.656  1.00  0.00     0.000 A 
ATOM     21  C   UNL     1      92.991  95.396  77.022  1.00  0.00     0.000 A 
ATOM     22  C   UNL     1      93.818  94.292  76.817  1.00  0.00     0.000 A 
ENDBRANCH  16  17
ENDBRANCH   7  16
BRANCH  15  23
ATOM     23  C   UNL     1      96.395  97.639  70.411  1.00  0.00    -0.046 C 
ATOM     24  C   UNL     1      97.713  97.047  70.007  1.00  0.00     0.042 C 
ATOM     25  C   UNL     1      95.312  97.558  69.626  1.00  0.00     0.010 C 
ENDBRANCH  15  23
ENDBRANCH   3   4
BRANCH   2  26
ATOM     26  C   UNL     1      99.207  99.262  76.664  1.00  0.00     0.078 C 
BRANCH  26  27
ATOM     27  C   UNL     1      98.577 100.423  75.896  1.00  0.00     0.140 C 
ATOM     28  C   UNL     1      97.075 100.199  75.629  1.00  0.00     0.086 CG0
ATOM     29  C   UNL     1      98.578 101.712  76.690  1.00  0.00     0.190 C 
ATOM     30  C   UNL     1      96.454 101.518  75.995  1.00  0.00    -0.010 C 
ATOM     31  G   UNL     1      96.712  99.536  74.268  1.00  0.00     0.000 G0
ATOM     32  O   UNL     1      99.541 102.181  77.278  1.00  0.00    -0.291 OA
ATOM     33  C   UNL     1      97.264 102.379  76.618  1.00  0.00    -0.008 C 
ATOM     34  C   UNL     1      96.980 103.713  77.187  1.00  0.00     0.048 C 
BRANCH  27  35
ATOM     35  O   UNL     1      99.325 100.741  74.734  1.00  0.00    -0.381 OA
ATOM     36  H   UNL     1      99.279 101.702  74.594  1.00  0.00     0.212 HD
ENDBRANCH  27  35
ENDBRANCH  26  27
ENDBRANCH   2  26
ENDBRANCH   1   2
BRANCH   1  37
ATOM     37  O   UNL     1      99.440  97.312  78.440  1.00  0.00    -0.461 OA
BRANCH  37  38
ATOM     38  C   UNL     1      98.460  96.905  79.315  1.00  0.00     0.310 C 
ATOM     39  O   UNL     1      97.451  97.542  79.586  1.00  0.00    -0.252 OA
BRANCH  38  40
ATOM     40  C   UNL     1      98.824  95.556  79.886  1.00  0.00     0.158 C 
BRANCH  40  41
ATOM     41  C   UNL     1      97.631  94.654  80.070  1.00  0.00    -0.037 A 
ATOM     42  C   UNL     1      97.001  94.096  78.958  1.00  0.00     0.008 A 
ATOM     43  C   UNL     1      97.155  94.378  81.351  1.00  0.00     0.008 A 
ATOM     44  C   UNL     1      95.895  93.262  79.127  1.00  0.00     0.046 A 
ATOM     45  C   UNL     1      96.050  93.544  81.522  1.00  0.00     0.046 A 
ATOM     46  C   UNL     1      95.420  92.986  80.410  1.00  0.00     0.115 A 
BRANCH  46  47
ATOM     47  O   UNL     1      94.341  92.173  80.575  1.00  0.00    -0.508 OA
ATOM     48  H   UNL     1      94.174  92.059  81.527  1.00  0.00     0.293 HD
ENDBRANCH  46  47
ENDBRANCH  40  41
ENDBRANCH  38  40
ENDBRANCH  37  38
ENDBRANCH   1  37
TORSDOF 10
ENDMDL
MODEL 5
REMARK VINA RESULT:    -6.638     16.347     19.750
REMARK INTER + INTRA:         -11.768
REMARK INTER:                 -10.468
REMARK INTRA:                  -1.300
REMARK UNBOUND:                -0.473
REMARK SMILES C=C(C)[C@]12C[C@@H](C)[C@@]34O[C@](Cc5ccccc5)(O[C@@H]1[C@@H]3C=C(COC(=O)Cc1ccc(O)cc1)C[C@]1(O)C(=O)C(C)=C[C@@H]41)O2
REMARK SMILES IDX 23 1 22 2 21 3 20 4 9 5 8 6 10 7 6 8 18 10 44 11 19 12 5 13
REMARK SMILES IDX 7 14 4 15 11 16 12 17 13 18 17 19 14 20 16 21 15 22 2 23
REMARK SMILES IDX 3 24 1 25 35 26 36 27 43 28 38 29 42 30 39 32 40 33 41 34
REMARK SMILES IDX 37 35 24 37 25 38 26 39 27 40 28 41 29 42 34 43 30 44 33 45
REMARK SMILES IDX 31 46 32 47
REMARK H PARENT 37 36 32 48
REMARK Flexibility Score: 90.00
ROOT
ATOM      1  C   UNL     1      97.621  83.130  73.761  1.00  0.00     0.264 C 
ENDROOT
BRANCH   1   2
ATOM      2  C   UNL     1      99.046  82.658  73.581  1.00  0.00    -0.033 C 
ATOM      3  C   UNL     1      99.563  81.774  74.460  1.00  0.00    -0.015 C 
BRANCH   3   4
ATOM      4  C   UNL     1     100.972  81.209  74.544  1.00  0.00     0.078 C 
ATOM      5  O   UNL     1     100.977  79.092  73.265  1.00  0.00    -0.319 OA
ATOM      6  C   UNL     1     101.545  80.439  73.298  1.00  0.00     0.095 CG0
ATOM      7  C   UNL     1     100.908  78.422  74.538  1.00  0.00     0.289 C 
ATOM      8  C   UNL     1     103.116  80.340  73.477  1.00  0.00     0.023 C 
ATOM      9  G   UNL     1     101.063  81.095  71.972  1.00  0.00     0.000 G0
ATOM     10  O   UNL     1     100.153  79.178  75.481  1.00  0.00    -0.320 OA
ATOM     11  O   UNL     1     102.194  78.245  75.128  1.00  0.00    -0.313 OA
ATOM     12  C   UNL     1     101.079  80.242  75.749  1.00  0.00     0.170 C 
ATOM     13  C   UNL     1     103.514  80.219  74.979  1.00  0.00     0.049 C 
ATOM     14  C   UNL     1     103.803  79.220  72.675  1.00  0.00     0.011 C 
ATOM     15  C   UNL     1     102.438  79.501  75.794  1.00  0.00     0.122 C 
BRANCH   7  16
ATOM     16  C   UNL     1     100.258  77.069  74.328  1.00  0.00     0.135 C 
BRANCH  16  17
ATOM     17  C   UNL     1      99.222  77.102  73.233  1.00  0.00    -0.040 A 
ATOM     18  C   UNL     1      98.000  77.739  73.448  1.00  0.00     0.004 A 
ATOM     19  C   UNL     1      99.486  76.495  72.005  1.00  0.00     0.004 A 
ATOM     20  C   UNL     1      97.042  77.770  72.434  1.00  0.00     0.000 A 
ATOM     21  C   UNL     1      98.528  76.526  70.992  1.00  0.00     0.000 A 
ATOM     22  C   UNL     1      97.306  77.164  71.206  1.00  0.00     0.000 A 
ENDBRANCH  16  17
ENDBRANCH   7  16
BRANCH  15  23
ATOM     23  C   UNL     1     102.874  79.213  77.194  1.00  0.00    -0.046 C 
ATOM     24  C   UNL     1     102.001  79.759  78.285  1.00  0.00     0.042 C 
ATOM     25  C   UNL     1     103.983  78.507  77.461  1.00  0.00     0.010 C 
ENDBRANCH  15  23
ENDBRANCH   3   4
BRANCH   2  26
ATOM     26  C   UNL     1      99.728  83.269  72.371  1.00  0.00     0.078 C 
BRANCH  26  27
ATOM     27  C   UNL     1     101.069  82.672  71.951  1.00  0.00     0.140 C 
ATOM     28  C   UNL     1     101.052  81.129  71.967  1.00  0.00     0.086 CG0
ATOM     29  C   UNL     1     101.414  82.978  70.509  1.00  0.00     0.190 C 
ATOM     30  C   UNL     1     101.701  80.758  70.662  1.00  0.00    -0.010 C 
ATOM     31  G   UNL     1     101.539  80.452  73.281  1.00  0.00     0.000 G0
ATOM     32  O   UNL     1     101.359  84.081  69.986  1.00  0.00    -0.291 OA
ATOM     33  C   UNL     1     101.892  81.770  69.810  1.00  0.00    -0.008 C 
ATOM     34  C   UNL     1     102.418  81.764  68.430  1.00  0.00     0.048 C 
BRANCH  27  35
ATOM     35  O   UNL     1     102.142  83.240  72.683  1.00  0.00    -0.381 OA
ATOM     36  H   UNL     1     102.496  82.563  73.284  1.00  0.00     0.212 HD
ENDBRANCH  27  35
ENDBRANCH  26  27
ENDBRANCH   2  26
ENDBRANCH   1   2
BRANCH   1  37
ATOM     37  O   UNL     1      97.104  82.604  74.964  1.00  0.00    -0.461 OA
BRANCH  37  38
ATOM     38  C   UNL     1      96.292  83.441  75.693  1.00  0.00     0.310 C 
ATOM     39  O   UNL     1      96.116  84.629  75.460  1.00  0.00    -0.252 OA
BRANCH  38  40
ATOM     40  C   UNL     1      95.654  82.667  76.822  1.00  0.00     0.158 C 
BRANCH  40  41
ATOM     41  C   UNL     1      96.578  81.643  77.428  1.00  0.00    -0.037 A 
ATOM     42  C   UNL     1      96.579  80.333  76.947  1.00  0.00     0.008 A 
ATOM     43  C   UNL     1      97.433  82.003  78.469  1.00  0.00     0.008 A 
ATOM     44  C   UNL     1      97.434  79.384  77.508  1.00  0.00     0.046 A 
ATOM     45  C   UNL     1      98.288  81.054  79.031  1.00  0.00     0.046 A 
ATOM     46  C   UNL     1      98.289  79.745  78.550  1.00  0.00     0.115 A 
BRANCH  46  47
ATOM     47  O   UNL     1      99.122  78.819  79.098  1.00  0.00    -0.508 OA
ATOM     48  H   UNL     1      98.635  78.317  79.774  1.00  0.00     0.293 HD
ENDBRANCH  46  47
ENDBRANCH  40  41
ENDBRANCH  38  40
ENDBRANCH  37  38
ENDBRANCH   1  37
TORSDOF 10
ENDMDL
MODEL 6
REMARK VINA RESULT:    -6.497     21.754     26.310
REMARK INTER + INTRA:         -11.528
REMARK INTER:                  -9.570
REMARK INTRA:                  -1.958
REMARK UNBOUND:                -0.473
REMARK SMILES C=C(C)[C@]12C[C@@H](C)[C@@]34O[C@](Cc5ccccc5)(O[C@@H]1[C@@H]3C=C(COC(=O)Cc1ccc(O)cc1)C[C@]1(O)C(=O)C(C)=C[C@@H]41)O2
REMARK SMILES IDX 23 1 22 2 21 3 20 4 9 5 8 6 10 7 6 8 18 10 44 11 19 12 5 13
REMARK SMILES IDX 7 14 4 15 11 16 12 17 13 18 17 19 14 20 16 21 15 22 2 23
REMARK SMILES IDX 3 24 1 25 35 26 36 27 43 28 38 29 42 30 39 32 40 33 41 34
REMARK SMILES IDX 37 35 24 37 25 38 26 39 27 40 28 41 29 42 34 43 30 44 33 45
REMARK SMILES IDX 31 46 32 47
REMARK H PARENT 37 36 32 48
REMARK Flexibility Score: 90.00
ROOT
ATOM      1  C   UNL     1      70.197  90.794  70.247  1.00  0.00     0.264 C 
ENDROOT
BRANCH   1   2
ATOM      2  C   UNL     1      69.866  89.542  69.468  1.00  0.00    -0.033 C 
ATOM      3  C   UNL     1      70.790  89.021  68.634  1.00  0.00    -0.015 C 
BRANCH   3   4
ATOM      4  C   UNL     1      70.680  87.831  67.694  1.00  0.00     0.078 C 
ATOM      5  O   UNL     1      71.491  85.854  68.937  1.00  0.00    -0.319 OA
ATOM      6  C   UNL     1      70.307  86.429  68.302  1.00  0.00     0.095 CG0
ATOM      7  C   UNL     1      72.718  85.998  68.196  1.00  0.00     0.289 C 
ATOM      8  C   UNL     1      69.848  85.495  67.107  1.00  0.00     0.023 C 
ATOM      9  G   UNL     1      69.281  86.584  69.462  1.00  0.00     0.000 G0
ATOM     10  O   UNL     1      73.004  87.368  67.930  1.00  0.00    -0.320 OA
ATOM     11  O   UNL     1      72.661  85.362  66.922  1.00  0.00    -0.313 OA
ATOM     12  C   UNL     1      72.012  87.641  66.928  1.00  0.00     0.170 C 
ATOM     13  C   UNL     1      70.619  85.827  65.793  1.00  0.00     0.049 C 
ATOM     14  C   UNL     1      69.932  83.984  67.380  1.00  0.00     0.011 C 
ATOM     15  C   UNL     1      72.028  86.347  66.079  1.00  0.00     0.122 C 
BRANCH   7  16
ATOM     16  C   UNL     1      73.841  85.390  69.014  1.00  0.00     0.135 C 
BRANCH  16  17
ATOM     17  C   UNL     1      75.122  85.281  68.225  1.00  0.00    -0.040 A 
ATOM     18  C   UNL     1      76.044  86.326  68.245  1.00  0.00     0.004 A 
ATOM     19  C   UNL     1      75.382  84.134  67.475  1.00  0.00     0.004 A 
ATOM     20  C   UNL     1      77.229  86.224  67.515  1.00  0.00     0.000 A 
ATOM     21  C   UNL     1      76.567  84.033  66.746  1.00  0.00     0.000 A 
ATOM     22  C   UNL     1      77.490  85.078  66.766  1.00  0.00     0.000 A 
ENDBRANCH  16  17
ENDBRANCH   7  16
BRANCH  15  23
ATOM     23  C   UNL     1      72.847  86.499  64.838  1.00  0.00    -0.046 C 
ATOM     24  C   UNL     1      72.244  87.331  63.745  1.00  0.00     0.042 C 
ATOM     25  C   UNL     1      74.051  85.924  64.708  1.00  0.00     0.010 C 
ENDBRANCH  15  23
ENDBRANCH   3   4
BRANCH   2  26
ATOM     26  C   UNL     1      68.473  89.013  69.753  1.00  0.00     0.078 C 
BRANCH  26  27
ATOM     27  C   UNL     1      68.135  87.618  69.231  1.00  0.00     0.140 C 
ATOM     28  C   UNL     1      69.280  86.613  69.470  1.00  0.00     0.086 CG0
ATOM     29  C   UNL     1      66.983  86.982  69.980  1.00  0.00     0.190 C 
ATOM     30  C   UNL     1      68.575  85.403  70.017  1.00  0.00    -0.010 C 
ATOM     31  G   UNL     1      70.297  86.441  68.304  1.00  0.00     0.000 G0
ATOM     32  O   UNL     1      65.912  87.520  70.220  1.00  0.00    -0.291 OA
ATOM     33  C   UNL     1      67.291  85.586  70.340  1.00  0.00    -0.008 C 
ATOM     34  C   UNL     1      66.327  84.660  70.969  1.00  0.00     0.048 C 
BRANCH  27  35
ATOM     35  O   UNL     1      67.683  87.663  67.888  1.00  0.00    -0.381 OA
ATOM     36  H   UNL     1      66.923  88.268  67.840  1.00  0.00     0.212 HD
ENDBRANCH  27  35
ENDBRANCH  26  27
ENDBRANCH   2  26
ENDBRANCH   1   2
BRANCH   1  37
ATOM     37  O   UNL     1      71.587  90.837  70.492  1.00  0.00    -0.461 OA
BRANCH  37  38
ATOM     38  C   UNL     1      72.217  92.026  70.204  1.00  0.00     0.310 C 
ATOM     39  O   UNL     1      71.650  93.065  69.898  1.00  0.00    -0.252 OA
BRANCH  38  40
ATOM     40  C   UNL     1      73.711  91.846  70.325  1.00  0.00     0.158 C 
BRANCH  40  41
ATOM     41  C   UNL     1      74.316  91.141  69.138  1.00  0.00    -0.037 A 
ATOM     42  C   UNL     1      73.699  91.222  67.890  1.00  0.00     0.008 A 
ATOM     43  C   UNL     1      75.492  90.407  69.288  1.00  0.00     0.008 A 
ATOM     44  C   UNL     1      74.259  90.569  66.791  1.00  0.00     0.046 A 
ATOM     45  C   UNL     1      76.053  89.754  68.189  1.00  0.00     0.046 A 
ATOM     46  C   UNL     1      75.436  89.834  66.942  1.00  0.00     0.115 A 
BRANCH  46  47
ATOM     47  O   UNL     1      75.981  89.197  65.870  1.00  0.00    -0.508 OA
ATOM     48  H   UNL     1      76.115  89.842  65.154  1.00  0.00     0.293 HD
ENDBRANCH  46  47
ENDBRANCH  40  41
ENDBRANCH  38  40
ENDBRANCH  37  38
ENDBRANCH   1  37
TORSDOF 10
ENDMDL
MODEL 7
REMARK VINA RESULT:    -6.489     21.723     24.814
REMARK INTER + INTRA:         -11.514
REMARK INTER:                 -10.227
REMARK INTRA:                  -1.287
REMARK UNBOUND:                -0.473
REMARK SMILES C=C(C)[C@]12C[C@@H](C)[C@@]34O[C@](Cc5ccccc5)(O[C@@H]1[C@@H]3C=C(COC(=O)Cc1ccc(O)cc1)C[C@]1(O)C(=O)C(C)=C[C@@H]41)O2
REMARK SMILES IDX 23 1 22 2 21 3 20 4 9 5 8 6 10 7 6 8 18 10 44 11 19 12 5 13
REMARK SMILES IDX 7 14 4 15 11 16 12 17 13 18 17 19 14 20 16 21 15 22 2 23
REMARK SMILES IDX 3 24 1 25 35 26 36 27 43 28 38 29 42 30 39 32 40 33 41 34
REMARK SMILES IDX 37 35 24 37 25 38 26 39 27 40 28 41 29 42 34 43 30 44 33 45
REMARK SMILES IDX 31 46 32 47
REMARK H PARENT 37 36 32 48
REMARK Flexibility Score: 90.00
ROOT
ATOM      1  C   UNL     1      71.188  89.504  70.097  1.00  0.00     0.264 C 
ENDROOT
BRANCH   1   2
ATOM      2  C   UNL     1      72.476  89.540  69.309  1.00  0.00    -0.033 C 
ATOM      3  C   UNL     1      73.102  88.381  69.016  1.00  0.00    -0.015 C 
BRANCH   3   4
ATOM      4  C   UNL     1      74.430  88.153  68.312  1.00  0.00     0.078 C 
ATOM      5  O   UNL     1      73.927  87.832  65.912  1.00  0.00    -0.319 OA
ATOM      6  C   UNL     1      74.611  88.716  66.854  1.00  0.00     0.095 CG0
ATOM      7  C   UNL     1      74.104  86.422  66.150  1.00  0.00     0.289 C 
ATOM      8  C   UNL     1      76.162  88.724  66.532  1.00  0.00     0.023 C 
ATOM      9  G   UNL     1      73.888  90.085  66.696  1.00  0.00     0.000 G0
ATOM     10  O   UNL     1      73.673  86.061  67.459  1.00  0.00    -0.320 OA
ATOM     11  O   UNL     1      75.472  86.027  66.072  1.00  0.00    -0.313 OA
ATOM     12  C   UNL     1      74.733  86.636  68.240  1.00  0.00     0.170 C 
ATOM     13  C   UNL     1      76.898  87.539  67.230  1.00  0.00     0.049 C 
ATOM     14  C   UNL     1      76.528  88.742  65.038  1.00  0.00     0.011 C 
ATOM     15  C   UNL     1      75.986  86.321  67.387  1.00  0.00     0.122 C 
BRANCH   7  16
ATOM     16  C   UNL     1      73.298  85.661  65.116  1.00  0.00     0.135 C 
BRANCH  16  17
ATOM     17  C   UNL     1      73.832  84.267  64.896  1.00  0.00    -0.040 A 
ATOM     18  C   UNL     1      74.202  83.856  63.616  1.00  0.00     0.004 A 
ATOM     19  C   UNL     1      73.956  83.391  65.974  1.00  0.00     0.004 A 
ATOM     20  C   UNL     1      74.697  82.567  63.413  1.00  0.00     0.000 A 
ATOM     21  C   UNL     1      74.450  82.102  65.771  1.00  0.00     0.000 A 
ATOM     22  C   UNL     1      74.820  81.691  64.491  1.00  0.00     0.000 A 
ENDBRANCH  16  17
ENDBRANCH   7  16
BRANCH  15  23
ATOM     23  C   UNL     1      76.718  85.118  67.886  1.00  0.00    -0.046 C 
ATOM     24  C   UNL     1      77.580  84.406  66.886  1.00  0.00     0.042 C 
ATOM     25  C   UNL     1      76.609  84.697  69.155  1.00  0.00     0.010 C 
ENDBRANCH  15  23
ENDBRANCH   3   4
BRANCH   2  26
ATOM     26  C   UNL     1      72.904  90.945  68.930  1.00  0.00     0.078 C 
BRANCH  26  27
ATOM     27  C   UNL     1      74.023  91.080  67.899  1.00  0.00     0.140 C 
ATOM     28  C   UNL     1      73.864  90.085  66.731  1.00  0.00     0.086 CG0
ATOM     29  C   UNL     1      74.002  92.419  67.192  1.00  0.00     0.190 C 
ATOM     30  C   UNL     1      74.106  90.934  65.513  1.00  0.00    -0.010 C 
ATOM     31  G   UNL     1      74.613  88.729  66.878  1.00  0.00     0.000 G0
ATOM     32  O   UNL     1      73.917  93.508  67.739  1.00  0.00    -0.291 OA
ATOM     33  C   UNL     1      74.161  92.250  65.735  1.00  0.00    -0.008 C 
ATOM     34  C   UNL     1      74.300  93.370  64.781  1.00  0.00     0.048 C 
BRANCH  27  35
ATOM     35  O   UNL     1      75.301  91.042  68.513  1.00  0.00    -0.381 OA
ATOM     36  H   UNL     1      75.548  91.949  68.762  1.00  0.00     0.212 HD
ENDBRANCH  27  35
ENDBRANCH  26  27
ENDBRANCH   2  26
ENDBRANCH   1   2
BRANCH   1  37
ATOM     37  O   UNL     1      70.104  89.310  69.213  1.00  0.00    -0.461 OA
BRANCH  37  38
ATOM     38  C   UNL     1      69.899  88.021  68.778  1.00  0.00     0.310 C 
ATOM     39  O   UNL     1      69.507  87.098  69.477  1.00  0.00    -0.252 OA
BRANCH  38  40
ATOM     40  C   UNL     1      70.231  87.927  67.308  1.00  0.00     0.158 C 
BRANCH  40  41
ATOM     41  C   UNL     1      70.163  86.518  66.779  1.00  0.00    -0.037 A 
ATOM     42  C   UNL     1      69.739  86.283  65.471  1.00  0.00     0.008 A 
ATOM     43  C   UNL     1      70.524  85.448  67.597  1.00  0.00     0.008 A 
ATOM     44  C   UNL     1      69.675  84.978  64.982  1.00  0.00     0.046 A 
ATOM     45  C   UNL     1      70.462  84.143  67.108  1.00  0.00     0.046 A 
ATOM     46  C   UNL     1      70.037  83.908  65.801  1.00  0.00     0.115 A 
BRANCH  46  47
ATOM     47  O   UNL     1      69.974  82.635  65.323  1.00  0.00    -0.508 OA
ATOM     48  H   UNL     1      69.273  82.585  64.650  1.00  0.00     0.293 HD
ENDBRANCH  46  47
ENDBRANCH  40  41
ENDBRANCH  38  40
ENDBRANCH  37  38
ENDBRANCH   1  37
TORSDOF 10
ENDMDL
MODEL 8
REMARK VINA RESULT:    -6.432     18.258     23.343
REMARK INTER + INTRA:         -11.416
REMARK INTER:                 -10.566
REMARK INTRA:                  -0.850
REMARK UNBOUND:                -0.473
REMARK SMILES C=C(C)[C@]12C[C@@H](C)[C@@]34O[C@](Cc5ccccc5)(O[C@@H]1[C@@H]3C=C(COC(=O)Cc1ccc(O)cc1)C[C@]1(O)C(=O)C(C)=C[C@@H]41)O2
REMARK SMILES IDX 23 1 22 2 21 3 20 4 9 5 8 6 10 7 6 8 18 10 44 11 19 12 5 13
REMARK SMILES IDX 7 14 4 15 11 16 12 17 13 18 17 19 14 20 16 21 15 22 2 23
REMARK SMILES IDX 3 24 1 25 35 26 36 27 43 28 38 29 42 30 39 32 40 33 41 34
REMARK SMILES IDX 37 35 24 37 25 38 26 39 27 40 28 41 29 42 34 43 30 44 33 45
REMARK SMILES IDX 31 46 32 47
REMARK H PARENT 37 36 32 48
REMARK Flexibility Score: 90.00
ROOT
ATOM      1  C   UNL     1      75.321  92.572  70.901  1.00  0.00     0.264 C 
ENDROOT
BRANCH   1   2
ATOM      2  C   UNL     1      74.398  91.877  69.928  1.00  0.00    -0.033 C 
ATOM      3  C   UNL     1      74.919  91.033  69.013  1.00  0.00    -0.015 C 
BRANCH   3   4
ATOM      4  C   UNL     1      74.225  90.279  67.889  1.00  0.00     0.078 C 
ATOM      5  O   UNL     1      73.638  88.046  68.775  1.00  0.00    -0.319 OA
ATOM      6  C   UNL     1      73.062  89.287  68.260  1.00  0.00     0.095 CG0
ATOM      7  C   UNL     1      74.782  87.553  68.053  1.00  0.00     0.289 C 
ATOM      8  C   UNL     1      72.254  88.978  66.933  1.00  0.00     0.023 C 
ATOM      9  G   UNL     1      72.217  89.843  69.443  1.00  0.00     0.000 G0
ATOM     10  O   UNL     1      75.827  88.521  68.015  1.00  0.00    -0.320 OA
ATOM     11  O   UNL     1      74.479  87.259  66.691  1.00  0.00    -0.313 OA
ATOM     12  C   UNL     1      75.265  89.460  67.085  1.00  0.00     0.170 C 
ATOM     13  C   UNL     1      73.185  88.982  65.682  1.00  0.00     0.049 C 
ATOM     14  C   UNL     1      71.427  87.681  66.949  1.00  0.00     0.011 C 
ATOM     15  C   UNL     1      74.605  88.536  66.032  1.00  0.00     0.122 C 
BRANCH   7  16
ATOM     16  C   UNL     1      75.273  86.295  68.743  1.00  0.00     0.135 C 
BRANCH  16  17
ATOM     17  C   UNL     1      75.768  85.265  67.758  1.00  0.00    -0.040 A 
ATOM     18  C   UNL     1      77.105  85.266  67.361  1.00  0.00     0.004 A 
ATOM     19  C   UNL     1      74.888  84.313  67.246  1.00  0.00     0.004 A 
ATOM     20  C   UNL     1      77.563  84.313  66.451  1.00  0.00     0.000 A 
ATOM     21  C   UNL     1      75.346  83.359  66.336  1.00  0.00     0.000 A 
ATOM     22  C   UNL     1      76.683  83.360  65.938  1.00  0.00     0.000 A 
ENDBRANCH  16  17
ENDBRANCH   7  16
BRANCH  15  23
ATOM     23  C   UNL     1      75.466  88.358  64.824  1.00  0.00    -0.046 C 
ATOM     24  C   UNL     1      75.658  86.948  64.350  1.00  0.00     0.042 C 
ATOM     25  C   UNL     1      76.034  89.400  64.198  1.00  0.00     0.010 C 
ENDBRANCH  15  23
ENDBRANCH   3   4
BRANCH   2  26
ATOM     26  C   UNL     1      72.938  92.237  70.130  1.00  0.00     0.078 C 
BRANCH  26  27
ATOM     27  C   UNL     1      71.902  91.401  69.380  1.00  0.00     0.140 C 
ATOM     28  C   UNL     1      72.215  89.892  69.443  1.00  0.00     0.086 CG0
ATOM     29  C   UNL     1      70.529  91.475  70.014  1.00  0.00     0.190 C 
ATOM     30  C   UNL     1      70.887  89.273  69.780  1.00  0.00    -0.010 C 
ATOM     31  G   UNL     1      73.048  89.315  68.262  1.00  0.00     0.000 G0
ATOM     32  O   UNL     1      69.956  92.503  70.344  1.00  0.00    -0.291 OA
ATOM     33  C   UNL     1      69.927  90.134  70.132  1.00  0.00    -0.008 C 
ATOM     34  C   UNL     1      68.548  89.883  70.598  1.00  0.00     0.048 C 
BRANCH  27  35
ATOM     35  O   UNL     1      71.695  91.889  68.065  1.00  0.00    -0.381 OA
ATOM     36  H   UNL     1      72.157  91.301  67.444  1.00  0.00     0.212 HD
ENDBRANCH  27  35
ENDBRANCH  26  27
ENDBRANCH   2  26
ENDBRANCH   1   2
BRANCH   1  37
ATOM     37  O   UNL     1      75.073  93.961  70.869  1.00  0.00    -0.461 OA
BRANCH  37  38
ATOM     38  C   UNL     1      75.292  94.645  72.043  1.00  0.00     0.310 C 
ATOM     39  O   UNL     1      75.559  95.836  72.122  1.00  0.00    -0.252 OA
BRANCH  38  40
ATOM     40  C   UNL     1      75.154  93.698  73.211  1.00  0.00     0.158 C 
BRANCH  40  41
ATOM     41  C   UNL     1      75.923  94.148  74.426  1.00  0.00    -0.037 A 
ATOM     42  C   UNL     1      77.309  93.996  74.469  1.00  0.00     0.008 A 
ATOM     43  C   UNL     1      75.250  94.714  75.508  1.00  0.00     0.008 A 
ATOM     44  C   UNL     1      78.022  94.411  75.595  1.00  0.00     0.046 A 
ATOM     45  C   UNL     1      75.962  95.130  76.633  1.00  0.00     0.046 A 
ATOM     46  C   UNL     1      77.347  94.979  76.677  1.00  0.00     0.115 A 
BRANCH  46  47
ATOM     47  O   UNL     1      78.042  95.383  77.775  1.00  0.00    -0.508 OA
ATOM     48  H   UNL     1      77.436  95.423  78.535  1.00  0.00     0.293 HD
ENDBRANCH  46  47
ENDBRANCH  40  41
ENDBRANCH  38  40
ENDBRANCH  37  38
ENDBRANCH   1  37
TORSDOF 10
ENDMDL
MODEL 9
REMARK VINA RESULT:    -6.392      2.468      7.426
REMARK INTER + INTRA:         -11.349
REMARK INTER:                 -11.094
REMARK INTRA:                  -0.255
REMARK UNBOUND:                -0.473
REMARK SMILES C=C(C)[C@]12C[C@@H](C)[C@@]34O[C@](Cc5ccccc5)(O[C@@H]1[C@@H]3C=C(COC(=O)Cc1ccc(O)cc1)C[C@]1(O)C(=O)C(C)=C[C@@H]41)O2
REMARK SMILES IDX 23 1 22 2 21 3 20 4 9 5 8 6 10 7 6 8 18 10 44 11 19 12 5 13
REMARK SMILES IDX 7 14 4 15 11 16 12 17 13 18 17 19 14 20 16 21 15 22 2 23
REMARK SMILES IDX 3 24 1 25 35 26 36 27 43 28 38 29 42 30 39 32 40 33 41 34
REMARK SMILES IDX 37 35 24 37 25 38 26 39 27 40 28 41 29 42 34 43 30 44 33 45
REMARK SMILES IDX 31 46 32 47
REMARK H PARENT 37 36 32 48
REMARK Flexibility Score: 90.00
ROOT
ATOM      1  C   UNL     1      94.548  96.367  75.104  1.00  0.00     0.264 C 
ENDROOT
BRANCH   1   2
ATOM      2  C   UNL     1      95.577  97.292  74.496  1.00  0.00    -0.033 C 
ATOM      3  C   UNL     1      95.502  97.588  73.182  1.00  0.00    -0.015 C 
BRANCH   3   4
ATOM      4  C   UNL     1      96.443  98.419  72.324  1.00  0.00     0.078 C 
ATOM      5  O   UNL     1      95.557 100.728  72.313  1.00  0.00    -0.319 OA
ATOM      6  C   UNL     1      96.699  99.917  72.730  1.00  0.00     0.095 CG0
ATOM      7  C   UNL     1      95.039 100.432  71.002  1.00  0.00     0.289 C 
ATOM      8  C   UNL     1      97.997 100.406  71.964  1.00  0.00     0.023 C 
ATOM      9  G   UNL     1      96.739 100.071  74.279  1.00  0.00     0.000 G0
ATOM     10  O   UNL     1      94.649  99.065  70.896  1.00  0.00    -0.320 OA
ATOM     11  O   UNL     1      96.007 100.637  69.976  1.00  0.00    -0.313 OA
ATOM     12  C   UNL     1      95.941  98.438  70.859  1.00  0.00     0.170 C 
ATOM     13  C   UNL     1      98.126  99.728  70.566  1.00  0.00     0.049 C 
ATOM     14  C   UNL     1      98.137 101.930  71.807  1.00  0.00     0.011 C 
ATOM     15  C   UNL     1      96.757  99.404  69.966  1.00  0.00     0.122 C 
BRANCH   7  16
ATOM     16  C   UNL     1      93.842 101.327  70.752  1.00  0.00     0.135 C 
BRANCH  16  17
ATOM     17  C   UNL     1      92.585 100.534  70.492  1.00  0.00    -0.040 A 
ATOM     18  C   UNL     1      91.948 100.620  69.255  1.00  0.00     0.004 A 
ATOM     19  C   UNL     1      92.061  99.714  71.491  1.00  0.00     0.004 A 
ATOM     20  C   UNL     1      90.786  99.886  69.015  1.00  0.00     0.000 A 
ATOM     21  C   UNL     1      90.899  98.980  71.252  1.00  0.00     0.000 A 
ATOM     22  C   UNL     1      90.262  99.066  70.014  1.00  0.00     0.000 A 
ENDBRANCH  16  17
ENDBRANCH   7  16
BRANCH  15  23
ATOM     23  C   UNL     1      96.848  98.922  68.555  1.00  0.00    -0.046 C 
ATOM     24  C   UNL     1      96.689  97.444  68.349  1.00  0.00     0.042 C 
ATOM     25  C   UNL     1      97.061  99.761  67.531  1.00  0.00     0.010 C 
ENDBRANCH  15  23
ENDBRANCH   3   4
BRANCH   2  26
ATOM     26  C   UNL     1      96.598  97.790  75.501  1.00  0.00     0.078 C 
BRANCH  26  27
ATOM     27  C   UNL     1      97.512  98.932  75.060  1.00  0.00     0.140 C 
ATOM     28  C   UNL     1      96.744 100.034  74.302  1.00  0.00     0.086 CG0
ATOM     29  C   UNL     1      98.099  99.691  76.231  1.00  0.00     0.190 C 
ATOM     30  C   UNL     1      97.252 101.305  74.924  1.00  0.00    -0.010 C 
ATOM     31  G   UNL     1      96.710  99.904  72.751  1.00  0.00     0.000 G0
ATOM     32  O   UNL     1      98.639  99.185  77.203  1.00  0.00    -0.291 OA
ATOM     33  C   UNL     1      97.992 101.147  76.025  1.00  0.00    -0.008 C 
ATOM     34  C   UNL     1      98.579 102.157  76.930  1.00  0.00     0.048 C 
BRANCH  27  35
ATOM     35  O   UNL     1      98.650  98.446  74.367  1.00  0.00    -0.381 OA
ATOM     36  H   UNL     1      99.435  98.606  74.917  1.00  0.00     0.212 HD
ENDBRANCH  27  35
ENDBRANCH  26  27
ENDBRANCH   2  26
ENDBRANCH   1   2
BRANCH   1  37
ATOM     37  O   UNL     1      95.110  95.716  76.224  1.00  0.00    -0.461 OA
BRANCH  37  38
ATOM     38  C   UNL     1      94.219  95.184  77.127  1.00  0.00     0.310 C 
ATOM     39  O   UNL     1      94.528  94.597  78.155  1.00  0.00    -0.252 OA
BRANCH  38  40
ATOM     40  C   UNL     1      92.809  95.436  76.652  1.00  0.00     0.158 C 
BRANCH  40  41
ATOM     41  C   UNL     1      91.961  94.191  76.639  1.00  0.00    -0.037 A 
ATOM     42  C   UNL     1      92.209  93.189  75.700  1.00  0.00     0.008 A 
ATOM     43  C   UNL     1      90.928  94.039  77.563  1.00  0.00     0.008 A 
ATOM     44  C   UNL     1      91.424  92.036  75.686  1.00  0.00     0.046 A 
ATOM     45  C   UNL     1      90.143  92.886  77.550  1.00  0.00     0.046 A 
ATOM     46  C   UNL     1      90.390  91.884  76.612  1.00  0.00     0.115 A 
BRANCH  46  47
ATOM     47  O   UNL     1      89.624  90.760  76.598  1.00  0.00    -0.508 OA
ATOM     48  H   UNL     1      90.206  89.981  76.637  1.00  0.00     0.293 HD
ENDBRANCH  46  47
ENDBRANCH  40  41
ENDBRANCH  38  40
ENDBRANCH  37  38
ENDBRANCH   1  37
TORSDOF 10
ENDMDL
MODEL 10
REMARK VINA RESULT:    -6.299      2.425      8.657
REMARK INTER + INTRA:         -11.191
REMARK INTER:                 -10.387
REMARK INTRA:                  -0.805
REMARK UNBOUND:                -0.473
REMARK SMILES C=C(C)[C@]12C[C@@H](C)[C@@]34O[C@](Cc5ccccc5)(O[C@@H]1[C@@H]3C=C(COC(=O)Cc1ccc(O)cc1)C[C@]1(O)C(=O)C(C)=C[C@@H]41)O2
REMARK SMILES IDX 23 1 22 2 21 3 20 4 9 5 8 6 10 7 6 8 18 10 44 11 19 12 5 13
REMARK SMILES IDX 7 14 4 15 11 16 12 17 13 18 17 19 14 20 16 21 15 22 2 23
REMARK SMILES IDX 3 24 1 25 35 26 36 27 43 28 38 29 42 30 39 32 40 33 41 34
REMARK SMILES IDX 37 35 24 37 25 38 26 39 27 40 28 41 29 42 34 43 30 44 33 45
REMARK SMILES IDX 31 46 32 47
REMARK H PARENT 37 36 32 48
REMARK Flexibility Score: 90.00
ROOT
ATOM      1  C   UNL     1      94.321  95.352  74.567  1.00  0.00     0.264 C 
ENDROOT
BRANCH   1   2
ATOM      2  C   UNL     1      95.325  96.438  74.256  1.00  0.00    -0.033 C 
ATOM      3  C   UNL     1      95.302  97.028  73.043  1.00  0.00    -0.015 C 
BRANCH   3   4
ATOM      4  C   UNL     1      96.237  98.077  72.462  1.00  0.00     0.078 C 
ATOM      5  O   UNL     1      95.251 100.286  72.977  1.00  0.00    -0.319 OA
ATOM      6  C   UNL     1      96.411  99.435  73.236  1.00  0.00     0.095 CG0
ATOM      7  C   UNL     1      94.797 100.306  71.610  1.00  0.00     0.289 C 
ATOM      8  C   UNL     1      97.714 100.142  72.677  1.00  0.00     0.023 C 
ATOM      9  G   UNL     1      96.385  99.202  74.775  1.00  0.00     0.000 G0
ATOM     10  O   UNL     1      94.472  98.997  71.153  1.00  0.00    -0.320 OA
ATOM     11  O   UNL     1      95.793 100.792  70.714  1.00  0.00    -0.313 OA
ATOM     12  C   UNL     1      95.791  98.442  71.025  1.00  0.00     0.170 C 
ATOM     13  C   UNL     1      97.926  99.836  71.163  1.00  0.00     0.049 C 
ATOM     14  C   UNL     1      97.793 101.661  72.906  1.00  0.00     0.011 C 
ATOM     15  C   UNL     1      96.597  99.626  70.437  1.00  0.00     0.122 C 
BRANCH   7  16
ATOM     16  C   UNL     1      93.571 101.195  71.531  1.00  0.00     0.135 C 
BRANCH  16  17
ATOM     17  C   UNL     1      93.265 101.612  70.114  1.00  0.00    -0.040 A 
ATOM     18  C   UNL     1      92.498 100.786  69.294  1.00  0.00     0.004 A 
ATOM     19  C   UNL     1      93.749 102.825  69.626  1.00  0.00     0.004 A 
ATOM     20  C   UNL     1      92.214 101.172  67.984  1.00  0.00     0.000 A 
ATOM     21  C   UNL     1      93.466 103.212  68.315  1.00  0.00     0.000 A 
ATOM     22  C   UNL     1      92.698 102.385  67.495  1.00  0.00     0.000 A 
ENDBRANCH  16  17
ENDBRANCH   7  16
BRANCH  15  23
ATOM     23  C   UNL     1      96.763  99.511  68.956  1.00  0.00    -0.046 C 
ATOM     24  C   UNL     1      96.665 100.790  68.179  1.00  0.00     0.042 C 
ATOM     25  C   UNL     1      96.987  98.333  68.357  1.00  0.00     0.010 C 
ENDBRANCH  15  23
ENDBRANCH   3   4
BRANCH   2  26
ATOM     26  C   UNL     1      96.261  96.732  75.412  1.00  0.00     0.078 C 
BRANCH  26  27
ATOM     27  C   UNL     1      97.163  97.958  75.285  1.00  0.00     0.140 C 
ATOM     28  C   UNL     1      96.397  99.196  74.772  1.00  0.00     0.086 CG0
ATOM     29  C   UNL     1      97.689  98.433  76.623  1.00  0.00     0.190 C 
ATOM     30  C   UNL     1      96.852 100.295  75.692  1.00  0.00    -0.010 C 
ATOM     31  G   UNL     1      96.422  99.429  73.233  1.00  0.00     0.000 G0
ATOM     32  O   UNL     1      98.205  97.723  77.473  1.00  0.00    -0.291 OA
ATOM     33  C   UNL     1      97.555  99.896  76.756  1.00  0.00    -0.008 C 
ATOM     34  C   UNL     1      98.085 100.677  77.893  1.00  0.00     0.048 C 
BRANCH  27  35
ATOM     35  O   UNL     1      98.336  97.664  74.545  1.00  0.00    -0.381 OA
ATOM     36  H   UNL     1      99.097  97.701  75.150  1.00  0.00     0.212 HD
ENDBRANCH  27  35
ENDBRANCH  26  27
ENDBRANCH   2  26
ENDBRANCH   1   2
BRANCH   1  37
ATOM     37  O   UNL     1      94.413  95.009  75.933  1.00  0.00    -0.461 OA
BRANCH  37  38
ATOM     38  C   UNL     1      93.464  94.131  76.405  1.00  0.00     0.310 C 
ATOM     39  O   UNL     1      92.924  93.257  75.741  1.00  0.00    -0.252 OA
BRANCH  38  40
ATOM     40  C   UNL     1      93.196  94.415  77.863  1.00  0.00     0.158 C 
BRANCH  40  41
ATOM     41  C   UNL     1      94.432  94.313  78.719  1.00  0.00    -0.037 A 
ATOM     42  C   UNL     1      94.785  93.090  79.292  1.00  0.00     0.008 A 
ATOM     43  C   UNL     1      95.224  95.439  78.939  1.00  0.00     0.008 A 
ATOM     44  C   UNL     1      95.929  92.996  80.085  1.00  0.00     0.046 A 
ATOM     45  C   UNL     1      96.368  95.345  79.731  1.00  0.00     0.046 A 
ATOM     46  C   UNL     1      96.720  94.124  80.304  1.00  0.00     0.115 A 
BRANCH  46  47
ATOM     47  O   UNL     1      97.836  94.032  81.078  1.00  0.00    -0.508 OA
ATOM     48  H   UNL     1      98.540  94.575  80.683  1.00  0.00     0.293 HD
ENDBRANCH  46  47
ENDBRANCH  40  41
ENDBRANCH  38  40
ENDBRANCH  37  38
ENDBRANCH   1  37
TORSDOF 10
ENDMDL
