MODEL 1
REMARK VINA RESULT:    -6.437      0.000      0.000
REMARK INTER + INTRA:         -10.661
REMARK INTER:                 -10.011
REMARK INTRA:                  -0.650
REMARK UNBOUND:                -0.650
REMARK SMILES CCCCC/C=C/C(=O)CCc1ccc(O)c(OC)c1
REMARK SMILES IDX 6 1 7 2 8 3 9 4 10 5 11 6 12 7 17 8 20 9 15 10 14 11 13 12
REMARK SMILES IDX 18 13 19 14 16 15 5 17 4 18 3 19 2 20 1 21
REMARK H PARENT 16 16
REMARK Flexibility Score: inf
ROOT
ATOM      1  C   UNL     1      91.341  94.329  77.641  1.00  0.00    -0.023 C 
ATOM      2  C   UNL     1      92.376  95.004  77.128  1.00  0.00     0.043 C 
ENDROOT
BRANCH   2   3
ATOM      3  C   UNL     1      93.483  95.453  78.016  1.00  0.00     0.155 C 
ATOM      4  O   UNL     1      93.842  94.793  78.989  1.00  0.00    -0.295 OA
BRANCH   3   5
ATOM      5  C   UNL     1      94.110  96.794  77.690  1.00  0.00     0.085 C 
BRANCH   5   6
ATOM      6  C   UNL     1      95.610  96.793  77.989  1.00  0.00     0.044 C 
BRANCH   6   7
ATOM      7  C   UNL     1      95.931  97.266  79.387  1.00  0.00    -0.044 A 
ATOM      8  C   UNL     1      96.944  96.878  81.527  1.00  0.00     0.160 A 
ATOM      9  C   UNL     1      96.648  96.439  80.236  1.00  0.00     0.054 A 
ATOM     10  C   UNL     1      96.519  98.136  81.951  1.00  0.00     0.157 A 
ATOM     11  C   UNL     1      95.797  98.957  81.084  1.00  0.00     0.050 A 
ATOM     12  C   UNL     1      95.501  98.519  79.794  1.00  0.00     0.008 A 
BRANCH   8  13
ATOM     13  O   UNL     1      97.650  96.066  82.364  1.00  0.00    -0.493 OA
ATOM     14  C   UNL     1      99.055  95.969  82.141  1.00  0.00     0.278 C 
ENDBRANCH   8  13
BRANCH  10  15
ATOM     15  O   UNL     1      96.803  98.575  83.209  1.00  0.00    -0.504 OA
ATOM     16  H   UNL     1      96.642  99.534  83.241  1.00  0.00     0.293 HD
ENDBRANCH  10  15
ENDBRANCH   6   7
ENDBRANCH   5   6
ENDBRANCH   3   5
ENDBRANCH   2   3
BRANCH   1  17
ATOM     17  C   UNL     1      90.186  93.843  76.814  1.00  0.00     0.027 C 
BRANCH  17  18
ATOM     18  C   UNL     1      90.173  94.428  75.398  1.00  0.00     0.004 C 
BRANCH  18  19
ATOM     19  C   UNL     1      90.250  93.368  74.295  1.00  0.00     0.000 C 
BRANCH  19  20
ATOM     20  C   UNL     1      90.349  91.961  74.887  1.00  0.00    -0.003 C 
ATOM     21  C   UNL     1      90.580  90.917  73.807  1.00  0.00     0.004 C 
ENDBRANCH  19  20
ENDBRANCH  18  19
ENDBRANCH  17  18
ENDBRANCH   1  17
TORSDOF 10
ENDMDL
MODEL 2
REMARK VINA RESULT:    -6.309     28.373     33.385
REMARK INTER + INTRA:         -10.462
REMARK INTER:                  -9.794
REMARK INTRA:                  -0.667
REMARK UNBOUND:                -0.650
REMARK SMILES CCCCC/C=C/C(=O)CCc1ccc(O)c(OC)c1
REMARK SMILES IDX 6 1 7 2 8 3 9 4 10 5 11 6 12 7 17 8 20 9 15 10 14 11 13 12
REMARK SMILES IDX 18 13 19 14 16 15 5 17 4 18 3 19 2 20 1 21
REMARK H PARENT 16 16
REMARK Flexibility Score: inf
ROOT
ATOM      1  C   UNL     1      78.281  64.619  68.914  1.00  0.00    -0.023 C 
ATOM      2  C   UNL     1      79.310  64.588  69.770  1.00  0.00     0.043 C 
ENDROOT
BRANCH   2   3
ATOM      3  C   UNL     1      79.428  65.630  70.826  1.00  0.00     0.155 C 
ATOM      4  O   UNL     1      78.705  66.625  70.840  1.00  0.00    -0.295 OA
BRANCH   3   5
ATOM      5  C   UNL     1      80.522  65.429  71.856  1.00  0.00     0.085 C 
BRANCH   5   6
ATOM      6  C   UNL     1      81.856  65.996  71.367  1.00  0.00     0.044 C 
BRANCH   6   7
ATOM      7  C   UNL     1      82.697  66.565  72.485  1.00  0.00    -0.044 A 
ATOM      8  C   UNL     1      84.457  68.020  73.222  1.00  0.00     0.160 A 
ATOM      9  C   UNL     1      83.681  67.494  72.189  1.00  0.00     0.054 A 
ATOM     10  C   UNL     1      84.240  67.610  74.537  1.00  0.00     0.157 A 
ATOM     11  C   UNL     1      83.245  66.672  74.819  1.00  0.00     0.050 A 
ATOM     12  C   UNL     1      82.469  66.147  73.786  1.00  0.00     0.008 A 
BRANCH   8  13
ATOM     13  O   UNL     1      85.426  68.934  72.933  1.00  0.00    -0.493 OA
ATOM     14  C   UNL     1      85.004  70.160  72.338  1.00  0.00     0.278 C 
ENDBRANCH   8  13
BRANCH  10  15
ATOM     15  O   UNL     1      84.991  68.116  75.554  1.00  0.00    -0.504 OA
ATOM     16  H   UNL     1      85.930  67.995  75.330  1.00  0.00     0.293 HD
ENDBRANCH  10  15
ENDBRANCH   6   7
ENDBRANCH   5   6
ENDBRANCH   3   5
ENDBRANCH   2   3
BRANCH   1  17
ATOM     17  C   UNL     1      78.091  63.607  67.822  1.00  0.00     0.027 C 
BRANCH  17  18
ATOM     18  C   UNL     1      76.627  63.446  67.399  1.00  0.00     0.004 C 
BRANCH  18  19
ATOM     19  C   UNL     1      75.631  64.055  68.391  1.00  0.00     0.000 C 
BRANCH  19  20
ATOM     20  C   UNL     1      74.718  65.070  67.702  1.00  0.00    -0.003 C 
ATOM     21  C   UNL     1      75.246  65.453  66.329  1.00  0.00     0.004 C 
ENDBRANCH  19  20
ENDBRANCH  18  19
ENDBRANCH  17  18
ENDBRANCH   1  17
TORSDOF 10
ENDMDL
MODEL 3
REMARK VINA RESULT:    -6.251      3.673      5.757
REMARK INTER + INTRA:         -10.372
REMARK INTER:                  -9.370
REMARK INTRA:                  -1.002
REMARK UNBOUND:                -0.650
REMARK SMILES CCCCC/C=C/C(=O)CCc1ccc(O)c(OC)c1
REMARK SMILES IDX 6 1 7 2 8 3 9 4 10 5 11 6 12 7 17 8 20 9 15 10 14 11 13 12
REMARK SMILES IDX 18 13 19 14 16 15 5 17 4 18 3 19 2 20 1 21
REMARK H PARENT 16 16
REMARK Flexibility Score: inf
ROOT
ATOM      1  C   UNL     1      93.195  95.331  78.318  1.00  0.00    -0.023 C 
ATOM      2  C   UNL     1      94.512  95.213  78.103  1.00  0.00     0.043 C 
ENDROOT
BRANCH   2   3
ATOM      3  C   UNL     1      95.463  96.106  78.819  1.00  0.00     0.155 C 
ATOM      4  O   UNL     1      95.566  96.096  80.044  1.00  0.00    -0.295 OA
BRANCH   3   5
ATOM      5  C   UNL     1      96.261  97.069  77.963  1.00  0.00     0.085 C 
BRANCH   5   6
ATOM      6  C   UNL     1      95.343  97.972  77.137  1.00  0.00     0.044 C 
BRANCH   6   7
ATOM      7  C   UNL     1      95.425  97.695  75.655  1.00  0.00    -0.044 A 
ATOM      8  C   UNL     1      96.538  97.987  73.549  1.00  0.00     0.160 A 
ATOM      9  C   UNL     1      96.462  98.243  74.918  1.00  0.00     0.054 A 
ATOM     10  C   UNL     1      95.576  97.186  72.935  1.00  0.00     0.157 A 
ATOM     11  C   UNL     1      94.536  96.641  73.690  1.00  0.00     0.050 A 
ATOM     12  C   UNL     1      94.461  96.898  75.059  1.00  0.00     0.008 A 
BRANCH   8  13
ATOM     13  O   UNL     1      97.557  98.525  72.822  1.00  0.00    -0.493 OA
ATOM     14  C   UNL     1      98.860  97.987  73.036  1.00  0.00     0.278 C 
ENDBRANCH   8  13
BRANCH  10  15
ATOM     15  O   UNL     1      95.639  96.928  71.599  1.00  0.00    -0.504 OA
ATOM     16  H   UNL     1      95.371  97.731  71.120  1.00  0.00     0.293 HD
ENDBRANCH  10  15
ENDBRANCH   6   7
ENDBRANCH   5   6
ENDBRANCH   3   5
ENDBRANCH   2   3
BRANCH   1  17
ATOM     17  C   UNL     1      92.173  94.470  77.635  1.00  0.00     0.027 C 
BRANCH  17  18
ATOM     18  C   UNL     1      91.229  95.263  76.724  1.00  0.00     0.004 C 
BRANCH  18  19
ATOM     19  C   UNL     1      89.869  94.591  76.516  1.00  0.00     0.000 C 
BRANCH  19  20
ATOM     20  C   UNL     1      89.823  93.218  77.187  1.00  0.00    -0.003 C 
ATOM     21  C   UNL     1      89.803  92.097  76.161  1.00  0.00     0.004 C 
ENDBRANCH  19  20
ENDBRANCH  18  19
ENDBRANCH  17  18
ENDBRANCH   1  17
TORSDOF 10
ENDMDL
MODEL 4
REMARK VINA RESULT:    -6.162      1.719      2.661
REMARK INTER + INTRA:         -10.233
REMARK INTER:                  -9.538
REMARK INTRA:                  -0.696
REMARK UNBOUND:                -0.650
REMARK SMILES CCCCC/C=C/C(=O)CCc1ccc(O)c(OC)c1
REMARK SMILES IDX 6 1 7 2 8 3 9 4 10 5 11 6 12 7 17 8 20 9 15 10 14 11 13 12
REMARK SMILES IDX 18 13 19 14 16 15 5 17 4 18 3 19 2 20 1 21
REMARK H PARENT 16 16
REMARK Flexibility Score: inf
ROOT
ATOM      1  C   UNL     1      90.660  94.016  76.338  1.00  0.00    -0.023 C 
ATOM      2  C   UNL     1      91.873  94.466  76.683  1.00  0.00     0.043 C 
ENDROOT
BRANCH   2   3
ATOM      3  C   UNL     1      92.668  95.269  75.715  1.00  0.00     0.155 C 
ATOM      4  O   UNL     1      92.325  95.397  74.542  1.00  0.00    -0.295 OA
BRANCH   3   5
ATOM      5  C   UNL     1      93.954  95.880  76.239  1.00  0.00     0.085 C 
BRANCH   5   6
ATOM      6  C   UNL     1      93.686  96.802  77.429  1.00  0.00     0.044 C 
BRANCH   6   7
ATOM      7  C   UNL     1      94.698  96.638  78.538  1.00  0.00    -0.044 A 
ATOM      8  C   UNL     1      96.271  97.606  80.070  1.00  0.00     0.160 A 
ATOM      9  C   UNL     1      95.337  97.758  79.045  1.00  0.00     0.054 A 
ATOM     10  C   UNL     1      96.554  96.337  80.574  1.00  0.00     0.157 A 
ATOM     11  C   UNL     1      95.903  95.219  80.053  1.00  0.00     0.050 A 
ATOM     12  C   UNL     1      94.968  95.371  79.028  1.00  0.00     0.008 A 
BRANCH   8  13
ATOM     13  O   UNL     1      96.901  98.706  80.571  1.00  0.00    -0.493 OA
ATOM     14  C   UNL     1      96.221  99.434  81.591  1.00  0.00     0.278 C 
ENDBRANCH   8  13
BRANCH  10  15
ATOM     15  O   UNL     1      97.464  96.176  81.575  1.00  0.00    -0.504 OA
ATOM     16  H   UNL     1      97.291  95.324  82.010  1.00  0.00     0.293 HD
ENDBRANCH  10  15
ENDBRANCH   6   7
ENDBRANCH   5   6
ENDBRANCH   3   5
ENDBRANCH   2   3
BRANCH   1  17
ATOM     17  C   UNL     1      89.796  93.200  77.256  1.00  0.00     0.027 C 
BRANCH  17  18
ATOM     18  C   UNL     1      89.711  91.725  76.849  1.00  0.00     0.004 C 
BRANCH  18  19
ATOM     19  C   UNL     1      89.652  91.509  75.334  1.00  0.00     0.000 C 
BRANCH  19  20
ATOM     20  C   UNL     1      89.574  90.020  74.992  1.00  0.00    -0.003 C 
ATOM     21  C   UNL     1      90.774  89.573  74.172  1.00  0.00     0.004 C 
ENDBRANCH  19  20
ENDBRANCH  18  19
ENDBRANCH  17  18
ENDBRANCH   1  17
TORSDOF 10
ENDMDL
MODEL 5
REMARK VINA RESULT:    -6.156      3.905      6.201
REMARK INTER + INTRA:         -10.224
REMARK INTER:                  -9.394
REMARK INTRA:                  -0.830
REMARK UNBOUND:                -0.650
REMARK SMILES CCCCC/C=C/C(=O)CCc1ccc(O)c(OC)c1
REMARK SMILES IDX 6 1 7 2 8 3 9 4 10 5 11 6 12 7 17 8 20 9 15 10 14 11 13 12
REMARK SMILES IDX 18 13 19 14 16 15 5 17 4 18 3 19 2 20 1 21
REMARK H PARENT 16 16
REMARK Flexibility Score: inf
ROOT
ATOM      1  C   UNL     1      92.082  94.762  77.789  1.00  0.00    -0.023 C 
ATOM      2  C   UNL     1      92.832  95.857  77.612  1.00  0.00     0.043 C 
ENDROOT
BRANCH   2   3
ATOM      3  C   UNL     1      94.199  95.923  78.197  1.00  0.00     0.155 C 
ATOM      4  O   UNL     1      94.475  95.377  79.263  1.00  0.00    -0.295 OA
BRANCH   3   5
ATOM      5  C   UNL     1      95.221  96.743  77.435  1.00  0.00     0.085 C 
BRANCH   5   6
ATOM      6  C   UNL     1      94.592  98.006  76.846  1.00  0.00     0.044 C 
BRANCH   6   7
ATOM      7  C   UNL     1      94.649  98.042  75.337  1.00  0.00    -0.044 A 
ATOM      8  C   UNL     1      94.567  99.287  73.287  1.00  0.00     0.160 A 
ATOM      9  C   UNL     1      94.513  99.255  74.681  1.00  0.00     0.054 A 
ATOM     10  C   UNL     1      94.754  98.107  72.568  1.00  0.00     0.157 A 
ATOM     11  C   UNL     1      94.889  96.893  73.244  1.00  0.00     0.050 A 
ATOM     12  C   UNL     1      94.836  96.861  74.638  1.00  0.00     0.008 A 
BRANCH   8  13
ATOM     13  O   UNL     1      94.433 100.478  72.639  1.00  0.00    -0.493 OA
ATOM     14  C   UNL     1      93.592 101.456  73.247  1.00  0.00     0.278 C 
ENDBRANCH   8  13
BRANCH  10  15
ATOM     15  O   UNL     1      94.808  98.125  71.208  1.00  0.00    -0.504 OA
ATOM     16  H   UNL     1      95.200  98.971  70.929  1.00  0.00     0.293 HD
ENDBRANCH  10  15
ENDBRANCH   6   7
ENDBRANCH   5   6
ENDBRANCH   3   5
ENDBRANCH   2   3
BRANCH   1  17
ATOM     17  C   UNL     1      90.695  94.619  77.233  1.00  0.00     0.027 C 
BRANCH  17  18
ATOM     18  C   UNL     1      90.091  93.231  77.473  1.00  0.00     0.004 C 
BRANCH  18  19
ATOM     19  C   UNL     1      89.975  92.384  76.202  1.00  0.00     0.000 C 
BRANCH  19  20
ATOM     20  C   UNL     1      90.764  93.007  75.049  1.00  0.00    -0.003 C 
ATOM     21  C   UNL     1      89.843  93.493  73.942  1.00  0.00     0.004 C 
ENDBRANCH  19  20
ENDBRANCH  18  19
ENDBRANCH  17  18
ENDBRANCH   1  17
TORSDOF 10
ENDMDL
MODEL 6
REMARK VINA RESULT:    -5.967      4.963      7.840
REMARK INTER + INTRA:          -9.931
REMARK INTER:                  -9.350
REMARK INTRA:                  -0.580
REMARK UNBOUND:                -0.650
REMARK SMILES CCCCC/C=C/C(=O)CCc1ccc(O)c(OC)c1
REMARK SMILES IDX 6 1 7 2 8 3 9 4 10 5 11 6 12 7 17 8 20 9 15 10 14 11 13 12
REMARK SMILES IDX 18 13 19 14 16 15 5 17 4 18 3 19 2 20 1 21
REMARK H PARENT 16 16
REMARK Flexibility Score: inf
ROOT
ATOM      1  C   UNL     1      93.690  99.185  72.659  1.00  0.00    -0.023 C 
ATOM      2  C   UNL     1      94.604  98.211  72.749  1.00  0.00     0.043 C 
ENDROOT
BRANCH   2   3
ATOM      3  C   UNL     1      95.269  97.936  74.051  1.00  0.00     0.155 C 
ATOM      4  O   UNL     1      96.448  98.222  74.251  1.00  0.00    -0.295 OA
BRANCH   3   5
ATOM      5  C   UNL     1      94.432  97.235  75.103  1.00  0.00     0.085 C 
BRANCH   5   6
ATOM      6  C   UNL     1      93.803  95.955  74.551  1.00  0.00     0.044 C 
BRANCH   6   7
ATOM      7  C   UNL     1      92.893  95.272  75.544  1.00  0.00    -0.044 A 
ATOM      8  C   UNL     1      91.019  93.844  75.998  1.00  0.00     0.160 A 
ATOM      9  C   UNL     1      91.858  94.475  75.080  1.00  0.00     0.054 A 
ATOM     10  C   UNL     1      91.224  94.017  77.366  1.00  0.00     0.157 A 
ATOM     11  C   UNL     1      92.270  94.823  77.818  1.00  0.00     0.050 A 
ATOM     12  C   UNL     1      93.110  95.454  76.900  1.00  0.00     0.008 A 
BRANCH   8  13
ATOM     13  O   UNL     1      90.000  93.060  75.545  1.00  0.00    -0.493 OA
ATOM     14  C   UNL     1      90.358  91.828  74.922  1.00  0.00     0.278 C 
ENDBRANCH   8  13
BRANCH  10  15
ATOM     15  O   UNL     1      90.411  93.406  78.272  1.00  0.00    -0.504 OA
ATOM     16  H   UNL     1      90.643  93.731  79.159  1.00  0.00     0.293 HD
ENDBRANCH  10  15
ENDBRANCH   6   7
ENDBRANCH   5   6
ENDBRANCH   3   5
ENDBRANCH   2   3
BRANCH   1  17
ATOM     17  C   UNL     1      92.975  99.525  71.383  1.00  0.00     0.027 C 
BRANCH  17  18
ATOM     18  C   UNL     1      91.778 100.458  71.595  1.00  0.00     0.004 C 
BRANCH  18  19
ATOM     19  C   UNL     1      90.535 100.053  70.796  1.00  0.00     0.000 C 
BRANCH  19  20
ATOM     20  C   UNL     1      89.976 101.237  70.006  1.00  0.00    -0.003 C 
ATOM     21  C   UNL     1      88.456 101.220  69.978  1.00  0.00     0.004 C 
ENDBRANCH  19  20
ENDBRANCH  18  19
ENDBRANCH  17  18
ENDBRANCH   1  17
TORSDOF 10
ENDMDL
MODEL 7
REMARK VINA RESULT:    -5.836     28.349     32.075
REMARK INTER + INTRA:          -9.727
REMARK INTER:                  -9.073
REMARK INTRA:                  -0.654
REMARK UNBOUND:                -0.650
REMARK SMILES CCCCC/C=C/C(=O)CCc1ccc(O)c(OC)c1
REMARK SMILES IDX 6 1 7 2 8 3 9 4 10 5 11 6 12 7 17 8 20 9 15 10 14 11 13 12
REMARK SMILES IDX 18 13 19 14 16 15 5 17 4 18 3 19 2 20 1 21
REMARK H PARENT 16 16
REMARK Flexibility Score: inf
ROOT
ATOM      1  C   UNL     1      80.507  65.361  70.436  1.00  0.00    -0.023 C 
ATOM      2  C   UNL     1      79.927  65.555  71.627  1.00  0.00     0.043 C 
ENDROOT
BRANCH   2   3
ATOM      3  C   UNL     1      80.700  66.179  72.736  1.00  0.00     0.155 C 
ATOM      4  O   UNL     1      80.203  67.025  73.477  1.00  0.00    -0.295 OA
BRANCH   3   5
ATOM      5  C   UNL     1      82.150  65.757  72.871  1.00  0.00     0.085 C 
BRANCH   5   6
ATOM      6  C   UNL     1      82.745  66.233  74.197  1.00  0.00     0.044 C 
BRANCH   6   7
ATOM      7  C   UNL     1      83.777  67.322  74.020  1.00  0.00    -0.044 A 
ATOM      8  C   UNL     1      85.590  68.624  74.901  1.00  0.00     0.160 A 
ATOM      9  C   UNL     1      84.637  67.619  75.065  1.00  0.00     0.054 A 
ATOM     10  C   UNL     1      85.670  69.320  73.696  1.00  0.00     0.157 A 
ATOM     11  C   UNL     1      84.796  69.010  72.652  1.00  0.00     0.050 A 
ATOM     12  C   UNL     1      83.843  68.005  72.816  1.00  0.00     0.008 A 
BRANCH   8  13
ATOM     13  O   UNL     1      86.437  68.918  75.928  1.00  0.00    -0.493 OA
ATOM     14  C   UNL     1      87.540  68.037  76.130  1.00  0.00     0.278 C 
ENDBRANCH   8  13
BRANCH  10  15
ATOM     15  O   UNL     1      86.596  70.304  73.523  1.00  0.00    -0.504 OA
ATOM     16  H   UNL     1      86.208  70.993  72.957  1.00  0.00     0.293 HD
ENDBRANCH  10  15
ENDBRANCH   6   7
ENDBRANCH   5   6
ENDBRANCH   3   5
ENDBRANCH   2   3
BRANCH   1  17
ATOM     17  C   UNL     1      79.797  64.738  69.270  1.00  0.00     0.027 C 
BRANCH  17  18
ATOM     18  C   UNL     1      78.376  64.274  69.608  1.00  0.00     0.004 C 
BRANCH  18  19
ATOM     19  C   UNL     1      77.341  64.638  68.539  1.00  0.00     0.000 C 
BRANCH  19  20
ATOM     20  C   UNL     1      77.414  63.678  67.351  1.00  0.00    -0.003 C 
ATOM     21  C   UNL     1      76.467  64.096  66.237  1.00  0.00     0.004 C 
ENDBRANCH  19  20
ENDBRANCH  18  19
ENDBRANCH  17  18
ENDBRANCH   1  17
TORSDOF 10
ENDMDL
MODEL 8
REMARK VINA RESULT:    -5.751     30.498     33.939
REMARK INTER + INTRA:          -9.594
REMARK INTER:                  -9.001
REMARK INTRA:                  -0.594
REMARK UNBOUND:                -0.650
REMARK SMILES CCCCC/C=C/C(=O)CCc1ccc(O)c(OC)c1
REMARK SMILES IDX 6 1 7 2 8 3 9 4 10 5 11 6 12 7 17 8 20 9 15 10 14 11 13 12
REMARK SMILES IDX 18 13 19 14 16 15 5 17 4 18 3 19 2 20 1 21
REMARK H PARENT 16 16
REMARK Flexibility Score: inf
ROOT
ATOM      1  C   UNL     1      78.681  64.633  68.949  1.00  0.00    -0.023 C 
ATOM      2  C   UNL     1      79.075  64.413  70.210  1.00  0.00     0.043 C 
ENDROOT
BRANCH   2   3
ATOM      3  C   UNL     1      79.418  65.562  71.090  1.00  0.00     0.155 C 
ATOM      4  O   UNL     1      79.084  66.713  70.815  1.00  0.00    -0.295 OA
BRANCH   3   5
ATOM      5  C   UNL     1      80.248  65.247  72.320  1.00  0.00     0.085 C 
BRANCH   5   6
ATOM      6  C   UNL     1      80.757  66.525  72.988  1.00  0.00     0.044 C 
BRANCH   6   7
ATOM      7  C   UNL     1      82.262  66.561  73.119  1.00  0.00    -0.044 A 
ATOM      8  C   UNL     1      84.340  65.415  73.473  1.00  0.00     0.160 A 
ATOM      9  C   UNL     1      82.951  65.382  73.353  1.00  0.00     0.054 A 
ATOM     10  C   UNL     1      85.022  66.626  73.358  1.00  0.00     0.157 A 
ATOM     11  C   UNL     1      84.314  67.805  73.122  1.00  0.00     0.050 A 
ATOM     12  C   UNL     1      82.924  67.772  73.002  1.00  0.00     0.008 A 
BRANCH   8  13
ATOM     13  O   UNL     1      85.020  64.257  73.704  1.00  0.00    -0.493 OA
ATOM     14  C   UNL     1      84.836  63.639  74.976  1.00  0.00     0.278 C 
ENDBRANCH   8  13
BRANCH  10  15
ATOM     15  O   UNL     1      86.378  66.671  73.473  1.00  0.00    -0.504 OA
ATOM     16  H   UNL     1      86.651  66.008  74.131  1.00  0.00     0.293 HD
ENDBRANCH  10  15
ENDBRANCH   6   7
ENDBRANCH   5   6
ENDBRANCH   3   5
ENDBRANCH   2   3
BRANCH   1  17
ATOM     17  C   UNL     1      78.318  63.529  67.999  1.00  0.00     0.027 C 
BRANCH  17  18
ATOM     18  C   UNL     1      77.162  63.897  67.062  1.00  0.00     0.004 C 
BRANCH  18  19
ATOM     19  C   UNL     1      76.779  65.379  67.114  1.00  0.00     0.000 C 
BRANCH  19  20
ATOM     20  C   UNL     1      75.491  65.644  66.332  1.00  0.00    -0.003 C 
ATOM     21  C   UNL     1      74.338  64.802  66.856  1.00  0.00     0.004 C 
ENDBRANCH  19  20
ENDBRANCH  18  19
ENDBRANCH  17  18
ENDBRANCH   1  17
TORSDOF 10
ENDMDL
MODEL 9
REMARK VINA RESULT:    -5.647      2.169      3.371
REMARK INTER + INTRA:          -9.433
REMARK INTER:                  -8.846
REMARK INTRA:                  -0.587
REMARK UNBOUND:                -0.650
REMARK SMILES CCCCC/C=C/C(=O)CCc1ccc(O)c(OC)c1
REMARK SMILES IDX 6 1 7 2 8 3 9 4 10 5 11 6 12 7 17 8 20 9 15 10 14 11 13 12
REMARK SMILES IDX 18 13 19 14 16 15 5 17 4 18 3 19 2 20 1 21
REMARK H PARENT 16 16
REMARK Flexibility Score: inf
ROOT
ATOM      1  C   UNL     1      93.738  96.237  77.640  1.00  0.00    -0.023 C 
ATOM      2  C   UNL     1      94.404  97.354  77.959  1.00  0.00     0.043 C 
ENDROOT
BRANCH   2   3
ATOM      3  C   UNL     1      95.293  97.371  79.153  1.00  0.00     0.155 C 
ATOM      4  O   UNL     1      95.272  98.295  79.964  1.00  0.00    -0.295 OA
BRANCH   3   5
ATOM      5  C   UNL     1      96.266  96.216  79.288  1.00  0.00     0.085 C 
BRANCH   5   6
ATOM      6  C   UNL     1      97.706  96.715  79.414  1.00  0.00     0.044 C 
BRANCH   6   7
ATOM      7  C   UNL     1      98.271  96.536  80.803  1.00  0.00    -0.044 A 
ATOM      8  C   UNL     1      99.984  96.991  82.421  1.00  0.00     0.160 A 
ATOM      9  C   UNL     1      99.464  97.157  81.137  1.00  0.00     0.054 A 
ATOM     10  C   UNL     1      99.306  96.206  83.353  1.00  0.00     0.157 A 
ATOM     11  C   UNL     1      98.106  95.587  83.002  1.00  0.00     0.050 A 
ATOM     12  C   UNL     1      97.586  95.753  81.718  1.00  0.00     0.008 A 
BRANCH   8  13
ATOM     13  O   UNL     1     101.157  97.601  82.751  1.00  0.00    -0.493 OA
ATOM     14  C   UNL     1     101.941  98.123  81.680  1.00  0.00     0.278 C 
ENDBRANCH   8  13
BRANCH  10  15
ATOM     15  O   UNL     1      99.804  96.037  84.609  1.00  0.00    -0.504 OA
ATOM     16  H   UNL     1      99.503  96.780  85.160  1.00  0.00     0.293 HD
ENDBRANCH  10  15
ENDBRANCH   6   7
ENDBRANCH   5   6
ENDBRANCH   3   5
ENDBRANCH   2   3
BRANCH   1  17
ATOM     17  C   UNL     1      92.823  96.138  76.454  1.00  0.00     0.027 C 
BRANCH  17  18
ATOM     18  C   UNL     1      91.358  95.912  76.842  1.00  0.00     0.004 C 
BRANCH  18  19
ATOM     19  C   UNL     1      90.646  94.872  75.972  1.00  0.00     0.000 C 
BRANCH  19  20
ATOM     20  C   UNL     1      89.502  94.204  76.735  1.00  0.00    -0.003 C 
ATOM     21  C   UNL     1      89.871  92.795  77.171  1.00  0.00     0.004 C 
ENDBRANCH  19  20
ENDBRANCH  18  19
ENDBRANCH  17  18
ENDBRANCH   1  17
TORSDOF 10
ENDMDL
MODEL 10
REMARK VINA RESULT:    -5.533     21.859     24.989
REMARK INTER + INTRA:          -9.255
REMARK INTER:                  -7.489
REMARK INTRA:                  -1.765
REMARK UNBOUND:                -0.650
REMARK SMILES CCCCC/C=C/C(=O)CCc1ccc(O)c(OC)c1
REMARK SMILES IDX 6 1 7 2 8 3 9 4 10 5 11 6 12 7 17 8 20 9 15 10 14 11 13 12
REMARK SMILES IDX 18 13 19 14 16 15 5 17 4 18 3 19 2 20 1 21
REMARK H PARENT 16 16
REMARK Flexibility Score: inf
ROOT
ATOM      1  C   UNL     1      77.150  87.559  67.318  1.00  0.00    -0.023 C 
ATOM      2  C   UNL     1      77.439  86.359  67.835  1.00  0.00     0.043 C 
ENDROOT
BRANCH   2   3
ATOM      3  C   UNL     1      77.205  85.128  67.032  1.00  0.00     0.155 C 
ATOM      4  O   UNL     1      77.997  84.188  67.040  1.00  0.00    -0.295 OA
BRANCH   3   5
ATOM      5  C   UNL     1      75.965  85.116  66.160  1.00  0.00     0.085 C 
BRANCH   5   6
ATOM      6  C   UNL     1      74.735  84.667  66.950  1.00  0.00     0.044 C 
BRANCH   6   7
ATOM      7  C   UNL     1      73.736  85.780  67.163  1.00  0.00    -0.044 A 
ATOM      8  C   UNL     1      72.856  87.924  66.541  1.00  0.00     0.160 A 
ATOM      9  C   UNL     1      73.779  86.897  66.344  1.00  0.00     0.054 A 
ATOM     10  C   UNL     1      71.902  87.821  67.553  1.00  0.00     0.157 A 
ATOM     11  C   UNL     1      71.872  86.690  68.370  1.00  0.00     0.050 A 
ATOM     12  C   UNL     1      72.795  85.663  68.173  1.00  0.00     0.008 A 
BRANCH   8  13
ATOM     13  O   UNL     1      72.896  89.023  65.737  1.00  0.00    -0.493 OA
ATOM     14  C   UNL     1      72.961  88.796  64.331  1.00  0.00     0.278 C 
ENDBRANCH   8  13
BRANCH  10  15
ATOM     15  O   UNL     1      70.995  88.817  67.755  1.00  0.00    -0.504 OA
ATOM     16  H   UNL     1      71.248  89.577  67.203  1.00  0.00     0.293 HD
ENDBRANCH  10  15
ENDBRANCH   6   7
ENDBRANCH   5   6
ENDBRANCH   3   5
ENDBRANCH   2   3
BRANCH   1  17
ATOM     17  C   UNL     1      77.356  88.845  68.063  1.00  0.00     0.027 C 
BRANCH  17  18
ATOM     18  C   UNL     1      76.043  89.545  68.431  1.00  0.00     0.004 C 
BRANCH  18  19
ATOM     19  C   UNL     1      75.151  88.723  69.366  1.00  0.00     0.000 C 
BRANCH  19  20
ATOM     20  C   UNL     1      74.026  89.579  69.949  1.00  0.00    -0.003 C 
ATOM     21  C   UNL     1      74.574  90.764  70.728  1.00  0.00     0.004 C 
ENDBRANCH  19  20
ENDBRANCH  18  19
ENDBRANCH  17  18
ENDBRANCH   1  17
TORSDOF 10
ENDMDL
