MODEL 1
REMARK VINA RESULT:    -6.462      0.000      0.000
REMARK INTER + INTRA:         -11.271
REMARK INTER:                 -10.806
REMARK INTRA:                  -0.464
REMARK UNBOUND:                -0.464
REMARK SMILES COc1cc(CNC(=O)CCCCCCCC(C)C)ccc1O
REMARK SMILES IDX 11 1 10 2 8 3 9 4 7 5 6 7 5 8 4 9 20 10 3 11 21 12 22 13
REMARK SMILES IDX 2 14 1 15 23 16 12 18 13 19 14 20 15 21 16 22 17 23 18 24
REMARK SMILES IDX 19 25
REMARK H PARENT 7 6 23 17
REMARK Flexibility Score: inf
ROOT
ATOM      1  C   UNL     1      96.703  81.511  81.551  1.00  0.00     0.010 C 
ENDROOT
BRANCH   1   2
ATOM      2  C   UNL     1      96.649  81.700  83.065  1.00  0.00     0.100 C 
BRANCH   2   3
ATOM      3  C   UNL     1      95.481  82.571  83.498  1.00  0.00     0.220 C 
ATOM      4  O   UNL     1      95.507  83.798  83.465  1.00  0.00    -0.275 OA
ATOM      5  N   UNL     1      94.410  81.806  83.935  1.00  0.00    -0.352 N 
ATOM      6  H   UNL     1      94.485  80.792  83.938  1.00  0.00     0.163 HD
BRANCH   5   7
ATOM      7  C   UNL     1      93.175  82.386  84.411  1.00  0.00     0.151 C 
BRANCH   7   8
ATOM      8  C   UNL     1      92.042  81.402  84.376  1.00  0.00    -0.025 A 
ATOM      9  C   UNL     1      90.732  81.863  84.351  1.00  0.00     0.056 A 
ATOM     10  C   UNL     1      92.316  80.040  84.370  1.00  0.00     0.009 A 
ATOM     11  C   UNL     1      89.679  80.949  84.319  1.00  0.00     0.160 A 
ATOM     12  C   UNL     1      91.263  79.125  84.338  1.00  0.00     0.050 A 
ATOM     13  C   UNL     1      89.944  79.579  84.313  1.00  0.00     0.157 A 
BRANCH  11  14
ATOM     14  O   UNL     1      88.395  81.404  84.295  1.00  0.00    -0.493 OA
ATOM     15  C   UNL     1      88.201  82.805  84.488  1.00  0.00     0.278 C 
ENDBRANCH  11  14
BRANCH  13  16
ATOM     16  O   UNL     1      88.925  78.676  84.281  1.00  0.00    -0.504 OA
ATOM     17  H   UNL     1      88.126  79.113  83.939  1.00  0.00     0.293 HD
ENDBRANCH  13  16
ENDBRANCH   7   8
ENDBRANCH   5   7
ENDBRANCH   2   3
ENDBRANCH   1   2
BRANCH   1  18
ATOM     18  C   UNL     1      97.555  82.563  80.835  1.00  0.00     0.001 C 
BRANCH  18  19
ATOM     19  C   UNL     1      96.798  83.492  79.880  1.00  0.00     0.000 C 
BRANCH  19  20
ATOM     20  C   UNL     1      96.826  83.017  78.424  1.00  0.00     0.000 C 
BRANCH  20  21
ATOM     21  C   UNL     1      98.124  83.372  77.691  1.00  0.00     0.000 C 
BRANCH  21  22
ATOM     22  C   UNL     1      98.131  82.933  76.223  1.00  0.00     0.003 C 
BRANCH  22  23
ATOM     23  C   UNL     1      97.820  84.078  75.239  1.00  0.00    -0.017 C 
ATOM     24  C   UNL     1      96.689  84.946  75.795  1.00  0.00     0.007 C 
ATOM     25  C   UNL     1      97.439  83.568  73.848  1.00  0.00     0.007 C 
ENDBRANCH  22  23
ENDBRANCH  21  22
ENDBRANCH  20  21
ENDBRANCH  19  20
ENDBRANCH  18  19
ENDBRANCH   1  18
TORSDOF 12
ENDMDL
MODEL 2
REMARK VINA RESULT:    -6.229     20.669     23.602
REMARK INTER + INTRA:         -10.881
REMARK INTER:                  -9.980
REMARK INTRA:                  -0.901
REMARK UNBOUND:                -0.464
REMARK SMILES COc1cc(CNC(=O)CCCCCCCC(C)C)ccc1O
REMARK SMILES IDX 11 1 10 2 8 3 9 4 7 5 6 7 5 8 4 9 20 10 3 11 21 12 22 13
REMARK SMILES IDX 2 14 1 15 23 16 12 18 13 19 14 20 15 21 16 22 17 23 18 24
REMARK SMILES IDX 19 25
REMARK H PARENT 7 6 23 17
REMARK Flexibility Score: inf
ROOT
ATOM      1  C   UNL     1      80.122  66.088  71.155  1.00  0.00     0.010 C 
ENDROOT
BRANCH   1   2
ATOM      2  C   UNL     1      80.474  65.970  72.636  1.00  0.00     0.100 C 
BRANCH   2   3
ATOM      3  C   UNL     1      81.930  65.598  72.858  1.00  0.00     0.220 C 
ATOM      4  O   UNL     1      82.569  64.888  72.087  1.00  0.00    -0.275 OA
ATOM      5  N   UNL     1      82.426  66.153  74.028  1.00  0.00    -0.352 N 
ATOM      6  H   UNL     1      81.817  66.722  74.611  1.00  0.00     0.163 HD
BRANCH   5   7
ATOM      7  C   UNL     1      83.783  65.949  74.479  1.00  0.00     0.151 C 
BRANCH   7   8
ATOM      8  C   UNL     1      84.597  67.208  74.400  1.00  0.00    -0.025 A 
ATOM      9  C   UNL     1      84.900  67.753  73.158  1.00  0.00     0.056 A 
ATOM     10  C   UNL     1      85.038  67.815  75.569  1.00  0.00     0.009 A 
ATOM     11  C   UNL     1      85.656  68.923  73.085  1.00  0.00     0.160 A 
ATOM     12  C   UNL     1      85.795  68.985  75.496  1.00  0.00     0.050 A 
ATOM     13  C   UNL     1      86.105  69.539  74.254  1.00  0.00     0.157 A 
BRANCH  11  14
ATOM     14  O   UNL     1      85.953  69.455  71.866  1.00  0.00    -0.493 OA
ATOM     15  C   UNL     1      87.097  68.932  71.192  1.00  0.00     0.278 C 
ENDBRANCH  11  14
BRANCH  13  16
ATOM     16  O   UNL     1      86.843  70.682  74.195  1.00  0.00    -0.504 OA
ATOM     17  H   UNL     1      86.381  71.383  74.687  1.00  0.00     0.293 HD
ENDBRANCH  13  16
ENDBRANCH   7   8
ENDBRANCH   5   7
ENDBRANCH   2   3
ENDBRANCH   1   2
BRANCH   1  18
ATOM     18  C   UNL     1      79.408  64.854  70.597  1.00  0.00     0.001 C 
BRANCH  18  19
ATOM     19  C   UNL     1      79.100  64.886  69.096  1.00  0.00     0.000 C 
BRANCH  19  20
ATOM     20  C   UNL     1      78.788  63.505  68.513  1.00  0.00     0.000 C 
BRANCH  20  21
ATOM     21  C   UNL     1      77.685  63.527  67.449  1.00  0.00     0.000 C 
BRANCH  21  22
ATOM     22  C   UNL     1      77.042  64.907  67.271  1.00  0.00     0.003 C 
BRANCH  22  23
ATOM     23  C   UNL     1      75.534  64.927  67.587  1.00  0.00    -0.017 C 
ATOM     24  C   UNL     1      75.288  65.704  68.882  1.00  0.00     0.007 C 
ATOM     25  C   UNL     1      74.942  63.522  67.711  1.00  0.00     0.007 C 
ENDBRANCH  22  23
ENDBRANCH  21  22
ENDBRANCH  20  21
ENDBRANCH  19  20
ENDBRANCH  18  19
ENDBRANCH   1  18
TORSDOF 12
ENDMDL
MODEL 3
REMARK VINA RESULT:    -6.164      5.432     11.626
REMARK INTER + INTRA:         -10.773
REMARK INTER:                  -9.738
REMARK INTRA:                  -1.035
REMARK UNBOUND:                -0.464
REMARK SMILES COc1cc(CNC(=O)CCCCCCCC(C)C)ccc1O
REMARK SMILES IDX 11 1 10 2 8 3 9 4 7 5 6 7 5 8 4 9 20 10 3 11 21 12 22 13
REMARK SMILES IDX 2 14 1 15 23 16 12 18 13 19 14 20 15 21 16 22 17 23 18 24
REMARK SMILES IDX 19 25
REMARK H PARENT 7 6 23 17
REMARK Flexibility Score: inf
ROOT
ATOM      1  C   UNL     1      96.936  83.421  79.038  1.00  0.00     0.010 C 
ENDROOT
BRANCH   1   2
ATOM      2  C   UNL     1      97.300  82.934  77.637  1.00  0.00     0.100 C 
BRANCH   2   3
ATOM      3  C   UNL     1      96.929  83.940  76.560  1.00  0.00     0.220 C 
ATOM      4  O   UNL     1      96.105  84.834  76.728  1.00  0.00    -0.275 OA
ATOM      5  N   UNL     1      97.629  83.709  75.385  1.00  0.00    -0.352 N 
ATOM      6  H   UNL     1      98.286  82.935  75.335  1.00  0.00     0.163 HD
BRANCH   5   7
ATOM      7  C   UNL     1      97.457  84.518  74.200  1.00  0.00     0.151 C 
BRANCH   7   8
ATOM      8  C   UNL     1      98.500  84.221  73.162  1.00  0.00    -0.025 A 
ATOM      9  C   UNL     1      98.648  82.924  72.687  1.00  0.00     0.056 A 
ATOM     10  C   UNL     1      99.309  85.247  72.688  1.00  0.00     0.009 A 
ATOM     11  C   UNL     1      99.617  82.648  71.722  1.00  0.00     0.160 A 
ATOM     12  C   UNL     1     100.279  84.971  71.724  1.00  0.00     0.050 A 
ATOM     13  C   UNL     1     100.434  83.672  71.241  1.00  0.00     0.157 A 
BRANCH  11  14
ATOM     14  O   UNL     1      99.759  81.375  71.259  1.00  0.00    -0.493 OA
ATOM     15  C   UNL     1      98.836  80.942  70.261  1.00  0.00     0.278 C 
ENDBRANCH  11  14
BRANCH  13  16
ATOM     16  O   UNL     1     101.384  83.416  70.299  1.00  0.00    -0.504 OA
ATOM     17  H   UNL     1     100.948  83.261  69.444  1.00  0.00     0.293 HD
ENDBRANCH  13  16
ENDBRANCH   7   8
ENDBRANCH   5   7
ENDBRANCH   2   3
ENDBRANCH   1   2
BRANCH   1  18
ATOM     18  C   UNL     1      98.036  83.177  80.075  1.00  0.00     0.001 C 
BRANCH  18  19
ATOM     19  C   UNL     1      98.309  81.709  80.420  1.00  0.00     0.000 C 
BRANCH  19  20
ATOM     20  C   UNL     1      97.066  80.961  80.909  1.00  0.00     0.000 C 
BRANCH  20  21
ATOM     21  C   UNL     1      97.021  80.783  82.431  1.00  0.00     0.000 C 
BRANCH  21  22
ATOM     22  C   UNL     1      96.046  81.740  83.124  1.00  0.00     0.003 C 
BRANCH  22  23
ATOM     23  C   UNL     1      96.670  83.105  83.474  1.00  0.00    -0.017 C 
ATOM     24  C   UNL     1      96.722  83.275  84.994  1.00  0.00     0.007 C 
ATOM     25  C   UNL     1      95.906  84.275  82.852  1.00  0.00     0.007 C 
ENDBRANCH  22  23
ENDBRANCH  21  22
ENDBRANCH  20  21
ENDBRANCH  19  20
ENDBRANCH  18  19
ENDBRANCH   1  18
TORSDOF 12
ENDMDL
MODEL 4
REMARK VINA RESULT:    -6.074      3.003      8.979
REMARK INTER + INTRA:         -10.621
REMARK INTER:                  -9.574
REMARK INTRA:                  -1.047
REMARK UNBOUND:                -0.464
REMARK SMILES COc1cc(CNC(=O)CCCCCCCC(C)C)ccc1O
REMARK SMILES IDX 11 1 10 2 8 3 9 4 7 5 6 7 5 8 4 9 20 10 3 11 21 12 22 13
REMARK SMILES IDX 2 14 1 15 23 16 12 18 13 19 14 20 15 21 16 22 17 23 18 24
REMARK SMILES IDX 19 25
REMARK H PARENT 7 6 23 17
REMARK Flexibility Score: inf
ROOT
ATOM      1  C   UNL     1      91.529  80.282  85.022  1.00  0.00     0.010 C 
ENDROOT
BRANCH   1   2
ATOM      2  C   UNL     1      91.676  81.775  84.733  1.00  0.00     0.100 C 
BRANCH   2   3
ATOM      3  C   UNL     1      92.984  82.341  85.261  1.00  0.00     0.220 C 
ATOM      4  O   UNL     1      93.429  82.081  86.375  1.00  0.00    -0.275 OA
ATOM      5  N   UNL     1      93.587  83.178  84.335  1.00  0.00    -0.352 N 
ATOM      6  H   UNL     1      93.136  83.343  83.438  1.00  0.00     0.163 HD
BRANCH   5   7
ATOM      7  C   UNL     1      94.838  83.854  84.588  1.00  0.00     0.151 C 
BRANCH   7   8
ATOM      8  C   UNL     1      96.012  83.075  84.071  1.00  0.00    -0.025 A 
ATOM      9  C   UNL     1      96.248  83.014  82.703  1.00  0.00     0.056 A 
ATOM     10  C   UNL     1      96.851  82.421  84.966  1.00  0.00     0.009 A 
ATOM     11  C   UNL     1      97.339  82.290  82.222  1.00  0.00     0.160 A 
ATOM     12  C   UNL     1      97.941  81.696  84.485  1.00  0.00     0.050 A 
ATOM     13  C   UNL     1      98.186  81.630  83.113  1.00  0.00     0.157 A 
BRANCH  11  14
ATOM     14  O   UNL     1      97.567  82.232  80.880  1.00  0.00    -0.493 OA
ATOM     15  C   UNL     1      97.048  83.299  80.089  1.00  0.00     0.278 C 
ENDBRANCH  11  14
BRANCH  13  16
ATOM     16  O   UNL     1      99.254  80.919  82.657  1.00  0.00    -0.504 OA
ATOM     17  H   UNL     1      99.059  80.596  81.760  1.00  0.00     0.293 HD
ENDBRANCH  13  16
ENDBRANCH   7   8
ENDBRANCH   5   7
ENDBRANCH   2   3
ENDBRANCH   1   2
BRANCH   1  18
ATOM     18  C   UNL     1      90.822  79.511  83.904  1.00  0.00     0.001 C 
BRANCH  18  19
ATOM     19  C   UNL     1      90.036  78.272  84.346  1.00  0.00     0.000 C 
BRANCH  19  20
ATOM     20  C   UNL     1      88.524  78.411  84.144  1.00  0.00     0.000 C 
BRANCH  20  21
ATOM     21  C   UNL     1      87.969  79.763  84.605  1.00  0.00     0.000 C 
BRANCH  21  22
ATOM     22  C   UNL     1      87.445  80.628  83.454  1.00  0.00     0.003 C 
BRANCH  22  23
ATOM     23  C   UNL     1      86.948  82.015  83.905  1.00  0.00    -0.017 C 
ATOM     24  C   UNL     1      86.419  82.793  82.698  1.00  0.00     0.007 C 
ATOM     25  C   UNL     1      88.038  82.830  84.604  1.00  0.00     0.007 C 
ENDBRANCH  22  23
ENDBRANCH  21  22
ENDBRANCH  20  21
ENDBRANCH  19  20
ENDBRANCH  18  19
ENDBRANCH   1  18
TORSDOF 12
ENDMDL
MODEL 5
REMARK VINA RESULT:    -5.968      6.819      9.679
REMARK INTER + INTRA:         -10.445
REMARK INTER:                  -9.066
REMARK INTRA:                  -1.379
REMARK UNBOUND:                -0.464
REMARK SMILES COc1cc(CNC(=O)CCCCCCCC(C)C)ccc1O
REMARK SMILES IDX 11 1 10 2 8 3 9 4 7 5 6 7 5 8 4 9 20 10 3 11 21 12 22 13
REMARK SMILES IDX 2 14 1 15 23 16 12 18 13 19 14 20 15 21 16 22 17 23 18 24
REMARK SMILES IDX 19 25
REMARK H PARENT 7 6 23 17
REMARK Flexibility Score: inf
ROOT
ATOM      1  C   UNL     1      93.727  85.792  85.545  1.00  0.00     0.010 C 
ENDROOT
BRANCH   1   2
ATOM      2  C   UNL     1      93.768  84.793  86.699  1.00  0.00     0.100 C 
BRANCH   2   3
ATOM      3  C   UNL     1      93.743  85.475  88.057  1.00  0.00     0.220 C 
ATOM      4  O   UNL     1      94.261  84.997  89.061  1.00  0.00    -0.275 OA
ATOM      5  N   UNL     1      93.061  86.682  88.007  1.00  0.00    -0.352 N 
ATOM      6  H   UNL     1      92.654  86.993  87.129  1.00  0.00     0.163 HD
BRANCH   5   7
ATOM      7  C   UNL     1      92.883  87.529  89.164  1.00  0.00     0.151 C 
BRANCH   7   8
ATOM      8  C   UNL     1      93.388  88.922  88.923  1.00  0.00    -0.025 A 
ATOM      9  C   UNL     1      93.054  89.938  89.811  1.00  0.00     0.056 A 
ATOM     10  C   UNL     1      94.184  89.182  87.814  1.00  0.00     0.009 A 
ATOM     11  C   UNL     1      93.523  91.232  89.587  1.00  0.00     0.160 A 
ATOM     12  C   UNL     1      94.652  90.477  87.589  1.00  0.00     0.050 A 
ATOM     13  C   UNL     1      94.322  91.502  88.475  1.00  0.00     0.157 A 
BRANCH  11  14
ATOM     14  O   UNL     1      93.194  92.225  90.459  1.00  0.00    -0.493 OA
ATOM     15  C   UNL     1      91.807  92.532  90.598  1.00  0.00     0.278 C 
ENDBRANCH  11  14
BRANCH  13  16
ATOM     16  O   UNL     1      94.787  92.762  88.246  1.00  0.00    -0.504 OA
ATOM     17  H   UNL     1      94.864  92.901  87.286  1.00  0.00     0.293 HD
ENDBRANCH  13  16
ENDBRANCH   7   8
ENDBRANCH   5   7
ENDBRANCH   2   3
ENDBRANCH   1   2
BRANCH   1  18
ATOM     18  C   UNL     1      94.991  85.778  84.681  1.00  0.00     0.001 C 
BRANCH  18  19
ATOM     19  C   UNL     1      95.872  84.531  84.811  1.00  0.00     0.000 C 
BRANCH  19  20
ATOM     20  C   UNL     1      96.118  83.821  83.477  1.00  0.00     0.000 C 
BRANCH  20  21
ATOM     21  C   UNL     1      95.531  82.406  83.422  1.00  0.00     0.000 C 
BRANCH  21  22
ATOM     22  C   UNL     1      94.108  82.318  83.983  1.00  0.00     0.003 C 
BRANCH  22  23
ATOM     23  C   UNL     1      93.971  81.329  85.157  1.00  0.00    -0.017 C 
ATOM     24  C   UNL     1      95.010  80.213  85.017  1.00  0.00     0.007 C 
ATOM     25  C   UNL     1      92.571  80.719  85.250  1.00  0.00     0.007 C 
ENDBRANCH  22  23
ENDBRANCH  21  22
ENDBRANCH  20  21
ENDBRANCH  19  20
ENDBRANCH  18  19
ENDBRANCH   1  18
TORSDOF 12
ENDMDL
MODEL 6
REMARK VINA RESULT:    -5.913     20.593     23.505
REMARK INTER + INTRA:         -10.352
REMARK INTER:                  -9.775
REMARK INTRA:                  -0.577
REMARK UNBOUND:                -0.464
REMARK SMILES COc1cc(CNC(=O)CCCCCCCC(C)C)ccc1O
REMARK SMILES IDX 11 1 10 2 8 3 9 4 7 5 6 7 5 8 4 9 20 10 3 11 21 12 22 13
REMARK SMILES IDX 2 14 1 15 23 16 12 18 13 19 14 20 15 21 16 22 17 23 18 24
REMARK SMILES IDX 19 25
REMARK H PARENT 7 6 23 17
REMARK Flexibility Score: inf
ROOT
ATOM      1  C   UNL     1      81.018  65.746  71.599  1.00  0.00     0.010 C 
ENDROOT
BRANCH   1   2
ATOM      2  C   UNL     1      81.076  66.319  73.013  1.00  0.00     0.100 C 
BRANCH   2   3
ATOM      3  C   UNL     1      82.461  66.205  73.627  1.00  0.00     0.220 C 
ATOM      4  O   UNL     1      82.838  65.224  74.263  1.00  0.00    -0.275 OA
ATOM      5  N   UNL     1      83.222  67.339  73.383  1.00  0.00    -0.352 N 
ATOM      6  H   UNL     1      82.820  68.108  72.855  1.00  0.00     0.163 HD
BRANCH   5   7
ATOM      7  C   UNL     1      84.576  67.492  73.864  1.00  0.00     0.151 C 
BRANCH   7   8
ATOM      8  C   UNL     1      85.401  68.352  72.952  1.00  0.00    -0.025 A 
ATOM      9  C   UNL     1      86.436  67.783  72.220  1.00  0.00     0.056 A 
ATOM     10  C   UNL     1      85.123  69.710  72.850  1.00  0.00     0.009 A 
ATOM     11  C   UNL     1      87.203  68.582  71.372  1.00  0.00     0.160 A 
ATOM     12  C   UNL     1      85.891  70.509  72.003  1.00  0.00     0.050 A 
ATOM     13  C   UNL     1      86.931  69.946  71.264  1.00  0.00     0.157 A 
BRANCH  11  14
ATOM     14  O   UNL     1      88.216  68.020  70.656  1.00  0.00    -0.493 OA
ATOM     15  C   UNL     1      89.498  67.965  71.281  1.00  0.00     0.278 C 
ENDBRANCH  11  14
BRANCH  13  16
ATOM     16  O   UNL     1      87.672  70.737  70.439  1.00  0.00    -0.504 OA
ATOM     17  H   UNL     1      88.096  70.180  69.764  1.00  0.00     0.293 HD
ENDBRANCH  13  16
ENDBRANCH   7   8
ENDBRANCH   5   7
ENDBRANCH   2   3
ENDBRANCH   1   2
BRANCH   1  18
ATOM     18  C   UNL     1      79.638  65.202  71.217  1.00  0.00     0.001 C 
BRANCH  18  19
ATOM     19  C   UNL     1      79.385  65.029  69.715  1.00  0.00     0.000 C 
BRANCH  19  20
ATOM     20  C   UNL     1      78.757  63.679  69.360  1.00  0.00     0.000 C 
BRANCH  20  21
ATOM     21  C   UNL     1      77.485  63.802  68.514  1.00  0.00     0.000 C 
BRANCH  21  22
ATOM     22  C   UNL     1      76.814  65.175  68.624  1.00  0.00     0.003 C 
BRANCH  22  23
ATOM     23  C   UNL     1      75.557  65.317  67.743  1.00  0.00    -0.017 C 
ATOM     24  C   UNL     1      74.928  63.941  67.514  1.00  0.00     0.007 C 
ATOM     25  C   UNL     1      75.857  65.975  66.395  1.00  0.00     0.007 C 
ENDBRANCH  22  23
ENDBRANCH  21  22
ENDBRANCH  20  21
ENDBRANCH  19  20
ENDBRANCH  18  19
ENDBRANCH   1  18
TORSDOF 12
ENDMDL
MODEL 7
REMARK VINA RESULT:    -5.818      1.850      2.660
REMARK INTER + INTRA:         -10.193
REMARK INTER:                  -9.358
REMARK INTRA:                  -0.835
REMARK UNBOUND:                -0.464
REMARK SMILES COc1cc(CNC(=O)CCCCCCCC(C)C)ccc1O
REMARK SMILES IDX 11 1 10 2 8 3 9 4 7 5 6 7 5 8 4 9 20 10 3 11 21 12 22 13
REMARK SMILES IDX 2 14 1 15 23 16 12 18 13 19 14 20 15 21 16 22 17 23 18 24
REMARK SMILES IDX 19 25
REMARK H PARENT 7 6 23 17
REMARK Flexibility Score: inf
ROOT
ATOM      1  C   UNL     1      97.350  81.426  81.529  1.00  0.00     0.010 C 
ENDROOT
BRANCH   1   2
ATOM      2  C   UNL     1      98.023  81.453  82.900  1.00  0.00     0.100 C 
BRANCH   2   3
ATOM      3  C   UNL     1      97.269  82.316  83.898  1.00  0.00     0.220 C 
ATOM      4  O   UNL     1      97.670  82.536  85.037  1.00  0.00    -0.275 OA
ATOM      5  N   UNL     1      96.086  82.802  83.360  1.00  0.00    -0.352 N 
ATOM      6  H   UNL     1      95.830  82.556  82.408  1.00  0.00     0.163 HD
BRANCH   5   7
ATOM      7  C   UNL     1      95.176  83.643  84.102  1.00  0.00     0.151 C 
BRANCH   7   8
ATOM      8  C   UNL     1      94.240  82.840  84.958  1.00  0.00    -0.025 A 
ATOM      9  C   UNL     1      93.376  81.928  84.363  1.00  0.00     0.056 A 
ATOM     10  C   UNL     1      94.247  83.016  86.336  1.00  0.00     0.009 A 
ATOM     11  C   UNL     1      92.507  81.181  85.158  1.00  0.00     0.160 A 
ATOM     12  C   UNL     1      93.377  82.269  87.131  1.00  0.00     0.050 A 
ATOM     13  C   UNL     1      92.506  81.352  86.543  1.00  0.00     0.157 A 
BRANCH  11  14
ATOM     14  O   UNL     1      91.661  80.289  84.571  1.00  0.00    -0.493 OA
ATOM     15  C   UNL     1      90.572  80.825  83.821  1.00  0.00     0.278 C 
ENDBRANCH  11  14
BRANCH  13  16
ATOM     16  O   UNL     1      91.662  80.629  87.330  1.00  0.00    -0.504 OA
ATOM     17  H   UNL     1      92.125  79.831  87.640  1.00  0.00     0.293 HD
ENDBRANCH  13  16
ENDBRANCH   7   8
ENDBRANCH   5   7
ENDBRANCH   2   3
ENDBRANCH   1   2
BRANCH   1  18
ATOM     18  C   UNL     1      98.152  82.146  80.442  1.00  0.00     0.001 C 
BRANCH  18  19
ATOM     19  C   UNL     1      97.492  82.209  79.061  1.00  0.00     0.000 C 
BRANCH  19  20
ATOM     20  C   UNL     1      97.340  83.636  78.527  1.00  0.00     0.000 C 
BRANCH  20  21
ATOM     21  C   UNL     1      96.447  83.731  77.286  1.00  0.00     0.000 C 
BRANCH  21  22
ATOM     22  C   UNL     1      97.108  84.470  76.118  1.00  0.00     0.003 C 
BRANCH  22  23
ATOM     23  C   UNL     1      98.019  83.571  75.259  1.00  0.00    -0.017 C 
ATOM     24  C   UNL     1      99.449  84.115  75.276  1.00  0.00     0.007 C 
ATOM     25  C   UNL     1      97.531  83.453  73.814  1.00  0.00     0.007 C 
ENDBRANCH  22  23
ENDBRANCH  21  22
ENDBRANCH  20  21
ENDBRANCH  19  20
ENDBRANCH  18  19
ENDBRANCH   1  18
TORSDOF 12
ENDMDL
MODEL 8
REMARK VINA RESULT:    -5.767      4.730      9.477
REMARK INTER + INTRA:         -10.109
REMARK INTER:                  -8.966
REMARK INTRA:                  -1.143
REMARK UNBOUND:                -0.464
REMARK SMILES COc1cc(CNC(=O)CCCCCCCC(C)C)ccc1O
REMARK SMILES IDX 11 1 10 2 8 3 9 4 7 5 6 7 5 8 4 9 20 10 3 11 21 12 22 13
REMARK SMILES IDX 2 14 1 15 23 16 12 18 13 19 14 20 15 21 16 22 17 23 18 24
REMARK SMILES IDX 19 25
REMARK H PARENT 7 6 23 17
REMARK Flexibility Score: inf
ROOT
ATOM      1  C   UNL     1      99.512  80.496  80.945  1.00  0.00     0.010 C 
ENDROOT
BRANCH   1   2
ATOM      2  C   UNL     1     100.809  80.945  80.276  1.00  0.00     0.100 C 
BRANCH   2   3
ATOM      3  C   UNL     1     100.657  81.116  78.774  1.00  0.00     0.220 C 
ATOM      4  O   UNL     1     101.569  81.490  78.042  1.00  0.00    -0.275 OA
ATOM      5  N   UNL     1      99.372  80.805  78.353  1.00  0.00    -0.352 N 
ATOM      6  H   UNL     1      98.678  80.513  79.035  1.00  0.00     0.163 HD
BRANCH   5   7
ATOM      7  C   UNL     1      98.958  80.891  76.972  1.00  0.00     0.151 C 
BRANCH   7   8
ATOM      8  C   UNL     1      98.172  82.141  76.698  1.00  0.00    -0.025 A 
ATOM      9  C   UNL     1      98.229  82.726  75.439  1.00  0.00     0.056 A 
ATOM     10  C   UNL     1      97.397  82.699  77.707  1.00  0.00     0.009 A 
ATOM     11  C   UNL     1      97.499  83.888  75.186  1.00  0.00     0.160 A 
ATOM     12  C   UNL     1      96.668  83.861  77.453  1.00  0.00     0.050 A 
ATOM     13  C   UNL     1      96.718  84.456  76.193  1.00  0.00     0.157 A 
BRANCH  11  14
ATOM     14  O   UNL     1      97.557  84.460  73.950  1.00  0.00    -0.493 OA
ATOM     15  C   UNL     1      98.591  84.010  73.077  1.00  0.00     0.278 C 
ENDBRANCH  11  14
BRANCH  13  16
ATOM     16  O   UNL     1      96.001  85.589  75.957  1.00  0.00    -0.504 OA
ATOM     17  H   UNL     1      96.436  86.098  75.252  1.00  0.00     0.293 HD
ENDBRANCH  13  16
ENDBRANCH   7   8
ENDBRANCH   5   7
ENDBRANCH   2   3
ENDBRANCH   1   2
BRANCH   1  18
ATOM     18  C   UNL     1      98.874  81.574  81.825  1.00  0.00     0.001 C 
BRANCH  18  19
ATOM     19  C   UNL     1      97.740  82.375  81.178  1.00  0.00     0.000 C 
BRANCH  19  20
ATOM     20  C   UNL     1      96.676  82.836  82.178  1.00  0.00     0.000 C 
BRANCH  20  21
ATOM     21  C   UNL     1      96.582  81.945  83.422  1.00  0.00     0.000 C 
BRANCH  21  22
ATOM     22  C   UNL     1      95.146  81.541  83.771  1.00  0.00     0.003 C 
BRANCH  22  23
ATOM     23  C   UNL     1      94.254  82.731  84.173  1.00  0.00    -0.017 C 
ATOM     24  C   UNL     1      94.884  83.474  85.353  1.00  0.00     0.007 C 
ATOM     25  C   UNL     1      92.832  82.301  84.536  1.00  0.00     0.007 C 
ENDBRANCH  22  23
ENDBRANCH  21  22
ENDBRANCH  20  21
ENDBRANCH  19  20
ENDBRANCH  18  19
ENDBRANCH   1  18
TORSDOF 12
ENDMDL
MODEL 9
REMARK VINA RESULT:    -5.767      6.108     10.584
REMARK INTER + INTRA:         -10.108
REMARK INTER:                  -8.869
REMARK INTRA:                  -1.239
REMARK UNBOUND:                -0.464
REMARK SMILES COc1cc(CNC(=O)CCCCCCCC(C)C)ccc1O
REMARK SMILES IDX 11 1 10 2 8 3 9 4 7 5 6 7 5 8 4 9 20 10 3 11 21 12 22 13
REMARK SMILES IDX 2 14 1 15 23 16 12 18 13 19 14 20 15 21 16 22 17 23 18 24
REMARK SMILES IDX 19 25
REMARK H PARENT 7 6 23 17
REMARK Flexibility Score: inf
ROOT
ATOM      1  C   UNL     1      96.741  83.199  79.793  1.00  0.00     0.010 C 
ENDROOT
BRANCH   1   2
ATOM      2  C   UNL     1      97.822  83.520  78.764  1.00  0.00     0.100 C 
BRANCH   2   3
ATOM      3  C   UNL     1      97.347  83.298  77.337  1.00  0.00     0.220 C 
ATOM      4  O   UNL     1      97.137  82.186  76.863  1.00  0.00    -0.275 OA
ATOM      5  N   UNL     1      97.195  84.498  76.659  1.00  0.00    -0.352 N 
ATOM      6  H   UNL     1      97.405  85.373  77.132  1.00  0.00     0.163 HD
BRANCH   5   7
ATOM      7  C   UNL     1      96.762  84.570  75.282  1.00  0.00     0.151 C 
BRANCH   7   8
ATOM      8  C   UNL     1      97.854  84.180  74.329  1.00  0.00    -0.025 A 
ATOM      9  C   UNL     1      99.064  84.863  74.353  1.00  0.00     0.056 A 
ATOM     10  C   UNL     1      97.643  83.140  73.432  1.00  0.00     0.009 A 
ATOM     11  C   UNL     1     100.078  84.501  73.466  1.00  0.00     0.160 A 
ATOM     12  C   UNL     1      98.658  82.778  72.545  1.00  0.00     0.050 A 
ATOM     13  C   UNL     1      99.875  83.458  72.562  1.00  0.00     0.157 A 
BRANCH  11  14
ATOM     14  O   UNL     1     101.263  85.173  73.493  1.00  0.00    -0.493 OA
ATOM     15  C   UNL     1     101.614  85.819  74.715  1.00  0.00     0.278 C 
ENDBRANCH  11  14
BRANCH  13  16
ATOM     16  O   UNL     1     100.858  83.095  71.692  1.00  0.00    -0.504 OA
ATOM     17  H   UNL     1     101.685  83.539  71.946  1.00  0.00     0.293 HD
ENDBRANCH  13  16
ENDBRANCH   7   8
ENDBRANCH   5   7
ENDBRANCH   2   3
ENDBRANCH   1   2
BRANCH   1  18
ATOM     18  C   UNL     1      97.243  82.345  80.960  1.00  0.00     0.001 C 
BRANCH  18  19
ATOM     19  C   UNL     1      97.405  80.849  80.668  1.00  0.00     0.000 C 
BRANCH  19  20
ATOM     20  C   UNL     1      98.847  80.357  80.814  1.00  0.00     0.000 C 
BRANCH  20  21
ATOM     21  C   UNL     1      99.656  80.443  79.514  1.00  0.00     0.000 C 
BRANCH  21  22
ATOM     22  C   UNL     1     100.731  81.534  79.541  1.00  0.00     0.003 C 
BRANCH  22  23
ATOM     23  C   UNL     1     101.901  81.266  78.574  1.00  0.00    -0.017 C 
ATOM     24  C   UNL     1     101.420  80.400  77.407  1.00  0.00     0.007 C 
ATOM     25  C   UNL     1     103.087  80.587  79.262  1.00  0.00     0.007 C 
ENDBRANCH  22  23
ENDBRANCH  21  22
ENDBRANCH  20  21
ENDBRANCH  19  20
ENDBRANCH  18  19
ENDBRANCH   1  18
TORSDOF 12
ENDMDL
MODEL 10
REMARK VINA RESULT:    -5.749     18.645     21.501
REMARK INTER + INTRA:         -10.079
REMARK INTER:                  -8.922
REMARK INTRA:                  -1.157
REMARK UNBOUND:                -0.464
REMARK SMILES COc1cc(CNC(=O)CCCCCCCC(C)C)ccc1O
REMARK SMILES IDX 11 1 10 2 8 3 9 4 7 5 6 7 5 8 4 9 20 10 3 11 21 12 22 13
REMARK SMILES IDX 2 14 1 15 23 16 12 18 13 19 14 20 15 21 16 22 17 23 18 24
REMARK SMILES IDX 19 25
REMARK H PARENT 7 6 23 17
REMARK Flexibility Score: inf
ROOT
ATOM      1  C   UNL     1      83.921  65.760  74.532  1.00  0.00     0.010 C 
ENDROOT
BRANCH   1   2
ATOM      2  C   UNL     1      83.931  67.067  75.322  1.00  0.00     0.100 C 
BRANCH   2   3
ATOM      3  C   UNL     1      85.165  67.907  75.036  1.00  0.00     0.220 C 
ATOM      4  O   UNL     1      86.184  67.862  75.719  1.00  0.00    -0.275 OA
ATOM      5  N   UNL     1      84.981  68.720  73.928  1.00  0.00    -0.352 N 
ATOM      6  H   UNL     1      84.096  68.698  73.429  1.00  0.00     0.163 HD
BRANCH   5   7
ATOM      7  C   UNL     1      85.998  69.626  73.444  1.00  0.00     0.151 C 
BRANCH   7   8
ATOM      8  C   UNL     1      86.606  69.151  72.156  1.00  0.00    -0.025 A 
ATOM      9  C   UNL     1      87.393  70.017  71.407  1.00  0.00     0.056 A 
ATOM     10  C   UNL     1      86.376  67.850  71.727  1.00  0.00     0.009 A 
ATOM     11  C   UNL     1      87.958  69.576  70.211  1.00  0.00     0.160 A 
ATOM     12  C   UNL     1      86.941  67.409  70.529  1.00  0.00     0.050 A 
ATOM     13  C   UNL     1      87.732  68.271  69.771  1.00  0.00     0.157 A 
BRANCH  11  14
ATOM     14  O   UNL     1      88.729  70.428  69.478  1.00  0.00    -0.493 OA
ATOM     15  C   UNL     1      88.081  71.571  68.922  1.00  0.00     0.278 C 
ENDBRANCH  11  14
BRANCH  13  16
ATOM     16  O   UNL     1      88.279  67.829  68.605  1.00  0.00    -0.504 OA
ATOM     17  H   UNL     1      88.893  67.100  68.800  1.00  0.00     0.293 HD
ENDBRANCH  13  16
ENDBRANCH   7   8
ENDBRANCH   5   7
ENDBRANCH   2   3
ENDBRANCH   1   2
BRANCH   1  18
ATOM     18  C   UNL     1      82.813  65.693  73.477  1.00  0.00     0.001 C 
BRANCH  18  19
ATOM     19  C   UNL     1      81.993  66.974  73.293  1.00  0.00     0.000 C 
BRANCH  19  20
ATOM     20  C   UNL     1      80.492  66.714  73.142  1.00  0.00     0.000 C 
BRANCH  20  21
ATOM     21  C   UNL     1      80.169  65.438  72.357  1.00  0.00     0.000 C 
BRANCH  21  22
ATOM     22  C   UNL     1      79.481  65.709  71.015  1.00  0.00     0.003 C 
BRANCH  22  23
ATOM     23  C   UNL     1      80.047  64.868  69.854  1.00  0.00    -0.017 C 
ATOM     24  C   UNL     1      78.975  63.901  69.345  1.00  0.00     0.007 C 
ATOM     25  C   UNL     1      81.298  64.085  70.253  1.00  0.00     0.007 C 
ENDBRANCH  22  23
ENDBRANCH  21  22
ENDBRANCH  20  21
ENDBRANCH  19  20
ENDBRANCH  18  19
ENDBRANCH   1  18
TORSDOF 12
ENDMDL
