MODEL 1
REMARK VINA RESULT:    -6.672      0.000      0.000
REMARK INTER + INTRA:         -11.905
REMARK INTER:                 -10.377
REMARK INTRA:                  -1.527
REMARK UNBOUND:                -1.527
REMARK SMILES CCCCC/C=C/C(=O)CCc1ccc(O)c(OC)c1
REMARK SMILES IDX 6 1 7 2 8 3 9 4 10 5 11 6 12 7 17 8 20 9 15 10 14 11 13 12
REMARK SMILES IDX 18 13 19 14 16 15 5 17 4 18 3 19 2 20 1 21
REMARK H PARENT 16 16
REMARK Flexibility Score: inf
ROOT
ATOM      1  C   UNL     1      90.846  92.959  77.282  1.00  0.00    -0.023 C 
ATOM      2  C   UNL     1      92.162  92.912  77.521  1.00  0.00     0.043 C 
ENDROOT
BRANCH   2   3
ATOM      3  C   UNL     1      93.067  93.908  76.886  1.00  0.00     0.155 C 
ATOM      4  O   UNL     1      93.964  94.464  77.515  1.00  0.00    -0.295 OA
BRANCH   3   5
ATOM      5  C   UNL     1      92.793  94.240  75.432  1.00  0.00     0.085 C 
BRANCH   5   6
ATOM      6  C   UNL     1      92.829  92.985  74.559  1.00  0.00     0.044 C 
BRANCH   6   7
ATOM      7  C   UNL     1      91.516  92.716  73.863  1.00  0.00    -0.044 A 
ATOM      8  C   UNL     1      90.087  91.231  72.633  1.00  0.00     0.160 A 
ATOM      9  C   UNL     1      91.300  91.479  73.275  1.00  0.00     0.054 A 
ATOM     10  C   UNL     1      89.106  92.221  72.586  1.00  0.00     0.157 A 
ATOM     11  C   UNL     1      89.339  93.461  73.182  1.00  0.00     0.050 A 
ATOM     12  C   UNL     1      90.552  93.710  73.824  1.00  0.00     0.008 A 
BRANCH   8  13
ATOM     13  O   UNL     1      89.872  90.016  72.054  1.00  0.00    -0.493 OA
ATOM     14  C   UNL     1      90.202  89.888  70.672  1.00  0.00     0.278 C 
ENDBRANCH   8  13
BRANCH  10  15
ATOM     15  O   UNL     1      87.918  91.990  71.962  1.00  0.00    -0.504 OA
ATOM     16  H   UNL     1      87.378  92.797  72.025  1.00  0.00     0.293 HD
ENDBRANCH  10  15
ENDBRANCH   6   7
ENDBRANCH   5   6
ENDBRANCH   3   5
ENDBRANCH   2   3
BRANCH   1  17
ATOM     17  C   UNL     1      89.868  91.992  77.883  1.00  0.00     0.027 C 
BRANCH  17  18
ATOM     18  C   UNL     1      90.034  90.562  77.357  1.00  0.00     0.004 C 
BRANCH  18  19
ATOM     19  C   UNL     1      89.250  90.286  76.071  1.00  0.00     0.000 C 
BRANCH  19  20
ATOM     20  C   UNL     1      89.562  88.893  75.522  1.00  0.00    -0.003 C 
ATOM     21  C   UNL     1      90.616  88.188  76.360  1.00  0.00     0.004 C 
ENDBRANCH  19  20
ENDBRANCH  18  19
ENDBRANCH  17  18
ENDBRANCH   1  17
TORSDOF 10
ENDMDL
MODEL 2
REMARK VINA RESULT:    -6.592      1.452      2.315
REMARK INTER + INTRA:         -11.780
REMARK INTER:                 -10.406
REMARK INTRA:                  -1.375
REMARK UNBOUND:                -1.527
REMARK SMILES CCCCC/C=C/C(=O)CCc1ccc(O)c(OC)c1
REMARK SMILES IDX 6 1 7 2 8 3 9 4 10 5 11 6 12 7 17 8 20 9 15 10 14 11 13 12
REMARK SMILES IDX 18 13 19 14 16 15 5 17 4 18 3 19 2 20 1 21
REMARK H PARENT 16 16
REMARK Flexibility Score: inf
ROOT
ATOM      1  C   UNL     1      90.031  91.432  77.068  1.00  0.00    -0.023 C 
ATOM      2  C   UNL     1      90.468  92.559  77.643  1.00  0.00     0.043 C 
ENDROOT
BRANCH   2   3
ATOM      3  C   UNL     1      90.569  93.809  76.842  1.00  0.00     0.155 C 
ATOM      4  O   UNL     1      89.574  94.456  76.521  1.00  0.00    -0.295 OA
BRANCH   3   5
ATOM      5  C   UNL     1      91.960  94.216  76.397  1.00  0.00     0.085 C 
BRANCH   5   6
ATOM      6  C   UNL     1      92.033  94.374  74.878  1.00  0.00     0.044 C 
BRANCH   6   7
ATOM      7  C   UNL     1      91.523  93.161  74.136  1.00  0.00    -0.044 A 
ATOM      8  C   UNL     1      89.899  92.145  72.692  1.00  0.00     0.160 A 
ATOM      9  C   UNL     1      90.369  93.265  73.377  1.00  0.00     0.054 A 
ATOM     10  C   UNL     1      90.588  90.935  72.776  1.00  0.00     0.157 A 
ATOM     11  C   UNL     1      91.749  90.846  73.545  1.00  0.00     0.050 A 
ATOM     12  C   UNL     1      92.219  91.967  74.230  1.00  0.00     0.008 A 
BRANCH   8  13
ATOM     13  O   UNL     1      88.764  92.244  71.944  1.00  0.00    -0.493 OA
ATOM     14  C   UNL     1      87.613  91.545  72.415  1.00  0.00     0.278 C 
ENDBRANCH   8  13
BRANCH  10  15
ATOM     15  O   UNL     1      90.139  89.834  72.111  1.00  0.00    -0.504 OA
ATOM     16  H   UNL     1      89.256  89.611  72.452  1.00  0.00     0.293 HD
ENDBRANCH  10  15
ENDBRANCH   6   7
ENDBRANCH   5   6
ENDBRANCH   3   5
ENDBRANCH   2   3
BRANCH   1  17
ATOM     17  C   UNL     1      89.901  90.131  77.806  1.00  0.00     0.027 C 
BRANCH  17  18
ATOM     18  C   UNL     1      90.212  88.910  76.934  1.00  0.00     0.004 C 
BRANCH  18  19
ATOM     19  C   UNL     1      89.417  88.873  75.625  1.00  0.00     0.000 C 
BRANCH  19  20
ATOM     20  C   UNL     1      89.780  87.641  74.794  1.00  0.00    -0.003 C 
ATOM     21  C   UNL     1      91.274  87.361  74.836  1.00  0.00     0.004 C 
ENDBRANCH  19  20
ENDBRANCH  18  19
ENDBRANCH  17  18
ENDBRANCH   1  17
TORSDOF 10
ENDMDL
MODEL 3
REMARK VINA RESULT:    -5.589     12.822     15.004
REMARK INTER + INTRA:         -10.220
REMARK INTER:                  -8.566
REMARK INTRA:                  -1.654
REMARK UNBOUND:                -1.527
REMARK SMILES CCCCC/C=C/C(=O)CCc1ccc(O)c(OC)c1
REMARK SMILES IDX 6 1 7 2 8 3 9 4 10 5 11 6 12 7 17 8 20 9 15 10 14 11 13 12
REMARK SMILES IDX 18 13 19 14 16 15 5 17 4 18 3 19 2 20 1 21
REMARK H PARENT 16 16
REMARK Flexibility Score: inf
ROOT
ATOM      1  C   UNL     1      83.511  91.052  88.193  1.00  0.00    -0.023 C 
ATOM      2  C   UNL     1      83.547  91.593  86.969  1.00  0.00     0.043 C 
ENDROOT
BRANCH   2   3
ATOM      3  C   UNL     1      84.586  91.159  85.996  1.00  0.00     0.155 C 
ATOM      4  O   UNL     1      85.756  91.524  86.089  1.00  0.00    -0.295 OA
BRANCH   3   5
ATOM      5  C   UNL     1      84.115  90.283  84.851  1.00  0.00     0.085 C 
BRANCH   5   6
ATOM      6  C   UNL     1      82.631  90.507  84.554  1.00  0.00     0.044 C 
BRANCH   6   7
ATOM      7  C   UNL     1      81.813  89.243  84.666  1.00  0.00    -0.044 A 
ATOM      8  C   UNL     1      81.687  86.884  85.091  1.00  0.00     0.160 A 
ATOM      9  C   UNL     1      82.443  88.052  84.988  1.00  0.00     0.054 A 
ATOM     10  C   UNL     1      80.310  86.923  84.870  1.00  0.00     0.157 A 
ATOM     11  C   UNL     1      79.690  88.130  84.546  1.00  0.00     0.050 A 
ATOM     12  C   UNL     1      80.447  89.298  84.443  1.00  0.00     0.008 A 
BRANCH   8  13
ATOM     13  O   UNL     1      82.304  85.712  85.408  1.00  0.00    -0.493 OA
ATOM     14  C   UNL     1      82.483  85.427  86.794  1.00  0.00     0.278 C 
ENDBRANCH   8  13
BRANCH  10  15
ATOM     15  O   UNL     1      79.561  85.790  84.969  1.00  0.00    -0.504 OA
ATOM     16  H   UNL     1      79.568  85.343  84.105  1.00  0.00     0.293 HD
ENDBRANCH  10  15
ENDBRANCH   6   7
ENDBRANCH   5   6
ENDBRANCH   3   5
ENDBRANCH   2   3
BRANCH   1  17
ATOM     17  C   UNL     1      82.497  91.436  89.231  1.00  0.00     0.027 C 
BRANCH  17  18
ATOM     18  C   UNL     1      81.058  91.107  88.817  1.00  0.00     0.004 C 
BRANCH  18  19
ATOM     19  C   UNL     1      80.900  89.711  88.206  1.00  0.00     0.000 C 
BRANCH  19  20
ATOM     20  C   UNL     1      79.883  88.878  88.988  1.00  0.00    -0.003 C 
ATOM     21  C   UNL     1      79.692  87.504  88.366  1.00  0.00     0.004 C 
ENDBRANCH  19  20
ENDBRANCH  18  19
ENDBRANCH  17  18
ENDBRANCH   1  17
TORSDOF 10
ENDMDL
MODEL 4
REMARK VINA RESULT:    -5.573      3.654      7.801
REMARK INTER + INTRA:         -10.195
REMARK INTER:                  -9.031
REMARK INTRA:                  -1.164
REMARK UNBOUND:                -1.527
REMARK SMILES CCCCC/C=C/C(=O)CCc1ccc(O)c(OC)c1
REMARK SMILES IDX 6 1 7 2 8 3 9 4 10 5 11 6 12 7 17 8 20 9 15 10 14 11 13 12
REMARK SMILES IDX 18 13 19 14 16 15 5 17 4 18 3 19 2 20 1 21
REMARK H PARENT 16 16
REMARK Flexibility Score: inf
ROOT
ATOM      1  C   UNL     1      92.973  93.713  76.715  1.00  0.00    -0.023 C 
ATOM      2  C   UNL     1      93.117  94.801  75.948  1.00  0.00     0.043 C 
ENDROOT
BRANCH   2   3
ATOM      3  C   UNL     1      94.476  95.239  75.529  1.00  0.00     0.155 C 
ATOM      4  O   UNL     1      94.646  96.194  74.773  1.00  0.00    -0.295 OA
BRANCH   3   5
ATOM      5  C   UNL     1      95.640  94.413  76.040  1.00  0.00     0.085 C 
BRANCH   5   6
ATOM      6  C   UNL     1      96.581  95.254  76.903  1.00  0.00     0.044 C 
BRANCH   6   7
ATOM      7  C   UNL     1      96.266  95.162  78.377  1.00  0.00    -0.044 A 
ATOM      8  C   UNL     1      96.391  96.090  80.587  1.00  0.00     0.160 A 
ATOM      9  C   UNL     1      96.682  96.176  79.225  1.00  0.00     0.054 A 
ATOM     10  C   UNL     1      95.687  94.992  81.082  1.00  0.00     0.157 A 
ATOM     11  C   UNL     1      95.276  93.979  80.216  1.00  0.00     0.050 A 
ATOM     12  C   UNL     1      95.568  94.065  78.854  1.00  0.00     0.008 A 
BRANCH   8  13
ATOM     13  O   UNL     1      96.798  97.086  81.423  1.00  0.00    -0.493 OA
ATOM     14  C   UNL     1      96.171  98.358  81.271  1.00  0.00     0.278 C 
ENDBRANCH   8  13
BRANCH  10  15
ATOM     15  O   UNL     1      95.396  94.898  82.410  1.00  0.00    -0.504 OA
ATOM     16  H   UNL     1      94.430  94.854  82.508  1.00  0.00     0.293 HD
ENDBRANCH  10  15
ENDBRANCH   6   7
ENDBRANCH   5   6
ENDBRANCH   3   5
ENDBRANCH   2   3
BRANCH   1  17
ATOM     17  C   UNL     1      91.639  93.207  77.180  1.00  0.00     0.027 C 
BRANCH  17  18
ATOM     18  C   UNL     1      90.982  92.242  76.187  1.00  0.00     0.004 C 
BRANCH  18  19
ATOM     19  C   UNL     1      90.268  92.945  75.028  1.00  0.00     0.000 C 
BRANCH  19  20
ATOM     20  C   UNL     1      90.758  92.420  73.678  1.00  0.00    -0.003 C 
ATOM     21  C   UNL     1      91.922  91.457  73.845  1.00  0.00     0.004 C 
ENDBRANCH  19  20
ENDBRANCH  18  19
ENDBRANCH  17  18
ENDBRANCH   1  17
TORSDOF 10
ENDMDL
MODEL 5
REMARK VINA RESULT:    -5.235     12.694     15.058
REMARK INTER + INTRA:          -9.670
REMARK INTER:                  -8.614
REMARK INTRA:                  -1.055
REMARK UNBOUND:                -1.527
REMARK SMILES CCCCC/C=C/C(=O)CCc1ccc(O)c(OC)c1
REMARK SMILES IDX 6 1 7 2 8 3 9 4 10 5 11 6 12 7 17 8 20 9 15 10 14 11 13 12
REMARK SMILES IDX 18 13 19 14 16 15 5 17 4 18 3 19 2 20 1 21
REMARK H PARENT 16 16
REMARK Flexibility Score: inf
ROOT
ATOM      1  C   UNL     1      83.425  91.520  87.954  1.00  0.00    -0.023 C 
ATOM      2  C   UNL     1      83.754  92.032  86.761  1.00  0.00     0.043 C 
ENDROOT
BRANCH   2   3
ATOM      3  C   UNL     1      84.695  91.297  85.872  1.00  0.00     0.155 C 
ATOM      4  O   UNL     1      85.865  91.646  85.736  1.00  0.00    -0.295 OA
BRANCH   3   5
ATOM      5  C   UNL     1      84.120  90.124  85.102  1.00  0.00     0.085 C 
BRANCH   5   6
ATOM      6  C   UNL     1      82.653  90.363  84.740  1.00  0.00     0.044 C 
BRANCH   6   7
ATOM      7  C   UNL     1      81.817  89.108  84.823  1.00  0.00    -0.044 A 
ATOM      8  C   UNL     1      81.321  87.011  85.879  1.00  0.00     0.160 A 
ATOM      9  C   UNL     1      82.095  88.170  85.804  1.00  0.00     0.054 A 
ATOM     10  C   UNL     1      80.280  86.806  84.974  1.00  0.00     0.157 A 
ATOM     11  C   UNL     1      80.013  87.760  83.991  1.00  0.00     0.050 A 
ATOM     12  C   UNL     1      80.787  88.919  83.915  1.00  0.00     0.008 A 
BRANCH   8  13
ATOM     13  O   UNL     1      81.592  86.087  86.843  1.00  0.00    -0.493 OA
ATOM     14  C   UNL     1      82.689  85.207  86.607  1.00  0.00     0.278 C 
ENDBRANCH   8  13
BRANCH  10  15
ATOM     15  O   UNL     1      79.518  85.679  85.038  1.00  0.00    -0.504 OA
ATOM     16  H   UNL     1      78.873  85.788  85.758  1.00  0.00     0.293 HD
ENDBRANCH  10  15
ENDBRANCH   6   7
ENDBRANCH   5   6
ENDBRANCH   3   5
ENDBRANCH   2   3
BRANCH   1  17
ATOM     17  C   UNL     1      82.485  92.198  88.907  1.00  0.00     0.027 C 
BRANCH  17  18
ATOM     18  C   UNL     1      82.321  93.696  88.626  1.00  0.00     0.004 C 
BRANCH  18  19
ATOM     19  C   UNL     1      82.677  94.587  89.821  1.00  0.00     0.000 C 
BRANCH  19  20
ATOM     20  C   UNL     1      84.031  95.268  89.617  1.00  0.00    -0.003 C 
ATOM     21  C   UNL     1      84.314  95.515  88.143  1.00  0.00     0.004 C 
ENDBRANCH  19  20
ENDBRANCH  18  19
ENDBRANCH  17  18
ENDBRANCH   1  17
TORSDOF 10
ENDMDL
MODEL 6
REMARK VINA RESULT:    -5.092      3.707      7.711
REMARK INTER + INTRA:          -9.447
REMARK INTER:                  -8.794
REMARK INTRA:                  -0.652
REMARK UNBOUND:                -1.527
REMARK SMILES CCCCC/C=C/C(=O)CCc1ccc(O)c(OC)c1
REMARK SMILES IDX 6 1 7 2 8 3 9 4 10 5 11 6 12 7 17 8 20 9 15 10 14 11 13 12
REMARK SMILES IDX 18 13 19 14 16 15 5 17 4 18 3 19 2 20 1 21
REMARK H PARENT 16 16
REMARK Flexibility Score: inf
ROOT
ATOM      1  C   UNL     1      91.835  93.756  75.960  1.00  0.00    -0.023 C 
ATOM      2  C   UNL     1      92.955  93.615  75.240  1.00  0.00     0.043 C 
ENDROOT
BRANCH   2   3
ATOM      3  C   UNL     1      94.041  94.626  75.352  1.00  0.00     0.155 C 
ATOM      4  O   UNL     1      93.903  95.776  74.940  1.00  0.00    -0.295 OA
BRANCH   3   5
ATOM      5  C   UNL     1      95.349  94.150  75.955  1.00  0.00     0.085 C 
BRANCH   5   6
ATOM      6  C   UNL     1      96.065  95.282  76.693  1.00  0.00     0.044 C 
BRANCH   6   7
ATOM      7  C   UNL     1      96.196  95.027  78.176  1.00  0.00    -0.044 A 
ATOM      8  C   UNL     1      97.228  95.528  80.283  1.00  0.00     0.160 A 
ATOM      9  C   UNL     1      97.108  95.764  78.914  1.00  0.00     0.054 A 
ATOM     10  C   UNL     1      96.436  94.558  80.897  1.00  0.00     0.157 A 
ATOM     11  C   UNL     1      95.522  93.823  80.139  1.00  0.00     0.050 A 
ATOM     12  C   UNL     1      95.402  94.059  78.770  1.00  0.00     0.008 A 
BRANCH   8  13
ATOM     13  O   UNL     1      98.124  96.251  81.012  1.00  0.00    -0.493 OA
ATOM     14  C   UNL     1      97.749  97.582  81.363  1.00  0.00     0.278 C 
ENDBRANCH   8  13
BRANCH  10  15
ATOM     15  O   UNL     1      96.544  94.318  82.233  1.00  0.00    -0.504 OA
ATOM     16  H   UNL     1      95.658  94.113  82.579  1.00  0.00     0.293 HD
ENDBRANCH  10  15
ENDBRANCH   6   7
ENDBRANCH   5   6
ENDBRANCH   3   5
ENDBRANCH   2   3
BRANCH   1  17
ATOM     17  C   UNL     1      90.695  92.782  75.903  1.00  0.00     0.027 C 
BRANCH  17  18
ATOM     18  C   UNL     1      90.704  91.776  77.059  1.00  0.00     0.004 C 
BRANCH  18  19
ATOM     19  C   UNL     1      90.409  90.337  76.624  1.00  0.00     0.000 C 
BRANCH  19  20
ATOM     20  C   UNL     1      89.837  89.517  77.781  1.00  0.00    -0.003 C 
ATOM     21  C   UNL     1      90.046  88.027  77.564  1.00  0.00     0.004 C 
ENDBRANCH  19  20
ENDBRANCH  18  19
ENDBRANCH  17  18
ENDBRANCH   1  17
TORSDOF 10
ENDMDL
MODEL 7
REMARK VINA RESULT:    -5.084     28.203     29.816
REMARK INTER + INTRA:          -9.434
REMARK INTER:                  -8.209
REMARK INTRA:                  -1.225
REMARK UNBOUND:                -1.527
REMARK SMILES CCCCC/C=C/C(=O)CCc1ccc(O)c(OC)c1
REMARK SMILES IDX 6 1 7 2 8 3 9 4 10 5 11 6 12 7 17 8 20 9 15 10 14 11 13 12
REMARK SMILES IDX 18 13 19 14 16 15 5 17 4 18 3 19 2 20 1 21
REMARK H PARENT 16 16
REMARK Flexibility Score: inf
ROOT
ATOM      1  C   UNL     1      63.043  83.538  74.640  1.00  0.00    -0.023 C 
ATOM      2  C   UNL     1      62.740  84.840  74.722  1.00  0.00     0.043 C 
ENDROOT
BRANCH   2   3
ATOM      3  C   UNL     1      61.562  85.375  73.987  1.00  0.00     0.155 C 
ATOM      4  O   UNL     1      60.578  85.820  74.574  1.00  0.00    -0.295 OA
BRANCH   3   5
ATOM      5  C   UNL     1      61.615  85.293  72.474  1.00  0.00     0.085 C 
BRANCH   5   6
ATOM      6  C   UNL     1      60.809  84.102  71.953  1.00  0.00     0.044 C 
BRANCH   6   7
ATOM      7  C   UNL     1      61.510  83.360  70.840  1.00  0.00    -0.044 A 
ATOM      8  C   UNL     1      62.273  83.269  68.567  1.00  0.00     0.160 A 
ATOM      9  C   UNL     1      61.625  83.955  69.594  1.00  0.00     0.054 A 
ATOM     10  C   UNL     1      62.798  81.998  68.798  1.00  0.00     0.157 A 
ATOM     11  C   UNL     1      62.674  81.411  70.058  1.00  0.00     0.050 A 
ATOM     12  C   UNL     1      62.025  82.097  71.086  1.00  0.00     0.008 A 
BRANCH   8  13
ATOM     13  O   UNL     1      62.388  83.852  67.341  1.00  0.00    -0.493 OA
ATOM     14  C   UNL     1      61.267  83.747  66.465  1.00  0.00     0.278 C 
ENDBRANCH   8  13
BRANCH  10  15
ATOM     15  O   UNL     1      63.433  81.319  67.803  1.00  0.00    -0.504 OA
ATOM     16  H   UNL     1      64.267  80.966  68.158  1.00  0.00     0.293 HD
ENDBRANCH  10  15
ENDBRANCH   6   7
ENDBRANCH   5   6
ENDBRANCH   3   5
ENDBRANCH   2   3
BRANCH   1  17
ATOM     17  C   UNL     1      64.214  82.922  75.350  1.00  0.00     0.027 C 
BRANCH  17  18
ATOM     18  C   UNL     1      64.117  81.396  75.457  1.00  0.00     0.004 C 
BRANCH  18  19
ATOM     19  C   UNL     1      63.502  80.732  74.221  1.00  0.00     0.000 C 
BRANCH  19  20
ATOM     20  C   UNL     1      64.553  80.515  73.131  1.00  0.00    -0.003 C 
ATOM     21  C   UNL     1      65.826  79.908  73.697  1.00  0.00     0.004 C 
ENDBRANCH  19  20
ENDBRANCH  18  19
ENDBRANCH  17  18
ENDBRANCH   1  17
TORSDOF 10
ENDMDL
MODEL 8
REMARK VINA RESULT:    -5.081     13.734     16.361
REMARK INTER + INTRA:          -9.430
REMARK INTER:                  -8.907
REMARK INTRA:                  -0.522
REMARK UNBOUND:                -1.527
REMARK SMILES CCCCC/C=C/C(=O)CCc1ccc(O)c(OC)c1
REMARK SMILES IDX 6 1 7 2 8 3 9 4 10 5 11 6 12 7 17 8 20 9 15 10 14 11 13 12
REMARK SMILES IDX 18 13 19 14 16 15 5 17 4 18 3 19 2 20 1 21
REMARK H PARENT 16 16
REMARK Flexibility Score: inf
ROOT
ATOM      1  C   UNL     1      82.167  90.025  86.477  1.00  0.00    -0.023 C 
ATOM      2  C   UNL     1      81.419  89.963  85.369  1.00  0.00     0.043 C 
ENDROOT
BRANCH   2   3
ATOM      3  C   UNL     1      81.680  88.905  84.356  1.00  0.00     0.155 C 
ATOM      4  O   UNL     1      82.822  88.587  84.029  1.00  0.00    -0.295 OA
BRANCH   3   5
ATOM      5  C   UNL     1      80.464  88.275  83.706  1.00  0.00     0.085 C 
BRANCH   5   6
ATOM      6  C   UNL     1      80.350  86.791  84.061  1.00  0.00     0.044 C 
BRANCH   6   7
ATOM      7  C   UNL     1      80.843  86.481  85.455  1.00  0.00    -0.044 A 
ATOM      8  C   UNL     1      80.560  86.620  87.834  1.00  0.00     0.160 A 
ATOM      9  C   UNL     1      80.105  86.907  86.547  1.00  0.00     0.054 A 
ATOM     10  C   UNL     1      81.748  85.912  88.012  1.00  0.00     0.157 A 
ATOM     11  C   UNL     1      82.482  85.491  86.902  1.00  0.00     0.050 A 
ATOM     12  C   UNL     1      82.026  85.778  85.615  1.00  0.00     0.008 A 
BRANCH   8  13
ATOM     13  O   UNL     1      79.835  87.038  88.909  1.00  0.00    -0.493 OA
ATOM     14  C   UNL     1      79.968  88.406  89.289  1.00  0.00     0.278 C 
ENDBRANCH   8  13
BRANCH  10  15
ATOM     15  O   UNL     1      82.203  85.626  89.263  1.00  0.00    -0.504 OA
ATOM     16  H   UNL     1      81.756  84.820  89.574  1.00  0.00     0.293 HD
ENDBRANCH  10  15
ENDBRANCH   6   7
ENDBRANCH   5   6
ENDBRANCH   3   5
ENDBRANCH   2   3
BRANCH   1  17
ATOM     17  C   UNL     1      81.967  91.061  87.545  1.00  0.00     0.027 C 
BRANCH  17  18
ATOM     18  C   UNL     1      83.151  92.025  87.678  1.00  0.00     0.004 C 
BRANCH  18  19
ATOM     19  C   UNL     1      82.797  93.337  88.384  1.00  0.00     0.000 C 
BRANCH  19  20
ATOM     20  C   UNL     1      83.338  94.542  87.612  1.00  0.00    -0.003 C 
ATOM     21  C   UNL     1      84.301  95.359  88.458  1.00  0.00     0.004 C 
ENDBRANCH  19  20
ENDBRANCH  18  19
ENDBRANCH  17  18
ENDBRANCH   1  17
TORSDOF 10
ENDMDL
MODEL 9
REMARK VINA RESULT:    -5.066     14.091     17.020
REMARK INTER + INTRA:          -9.406
REMARK INTER:                  -7.717
REMARK INTRA:                  -1.689
REMARK UNBOUND:                -1.527
REMARK SMILES CCCCC/C=C/C(=O)CCc1ccc(O)c(OC)c1
REMARK SMILES IDX 6 1 7 2 8 3 9 4 10 5 11 6 12 7 17 8 20 9 15 10 14 11 13 12
REMARK SMILES IDX 18 13 19 14 16 15 5 17 4 18 3 19 2 20 1 21
REMARK H PARENT 16 16
REMARK Flexibility Score: inf
ROOT
ATOM      1  C   UNL     1      80.848  88.975  85.161  1.00  0.00    -0.023 C 
ATOM      2  C   UNL     1      81.614  87.972  84.715  1.00  0.00     0.043 C 
ENDROOT
BRANCH   2   3
ATOM      3  C   UNL     1      80.994  86.666  84.362  1.00  0.00     0.155 C 
ATOM      4  O   UNL     1      80.864  86.303  83.195  1.00  0.00    -0.295 OA
BRANCH   3   5
ATOM      5  C   UNL     1      80.481  85.827  85.517  1.00  0.00     0.085 C 
BRANCH   5   6
ATOM      6  C   UNL     1      81.475  85.814  86.679  1.00  0.00     0.044 C 
BRANCH   6   7
ATOM      7  C   UNL     1      80.978  86.573  87.886  1.00  0.00    -0.044 A 
ATOM      8  C   UNL     1      81.425  87.700  89.957  1.00  0.00     0.160 A 
ATOM      9  C   UNL     1      81.886  86.999  88.842  1.00  0.00     0.054 A 
ATOM     10  C   UNL     1      80.064  87.966  90.101  1.00  0.00     0.157 A 
ATOM     11  C   UNL     1      79.162  87.529  89.130  1.00  0.00     0.050 A 
ATOM     12  C   UNL     1      79.622  86.828  88.015  1.00  0.00     0.008 A 
BRANCH   8  13
ATOM     13  O   UNL     1      82.316  88.121  90.898  1.00  0.00    -0.493 OA
ATOM     14  C   UNL     1      83.188  89.189  90.534  1.00  0.00     0.278 C 
ENDBRANCH   8  13
BRANCH  10  15
ATOM     15  O   UNL     1      79.602  88.649  91.185  1.00  0.00    -0.504 OA
ATOM     16  H   UNL     1      80.360  88.866  91.755  1.00  0.00     0.293 HD
ENDBRANCH  10  15
ENDBRANCH   6   7
ENDBRANCH   5   6
ENDBRANCH   3   5
ENDBRANCH   2   3
BRANCH   1  17
ATOM     17  C   UNL     1      81.396  90.321  85.537  1.00  0.00     0.027 C 
BRANCH  17  18
ATOM     18  C   UNL     1      82.053  90.337  86.922  1.00  0.00     0.004 C 
BRANCH  18  19
ATOM     19  C   UNL     1      83.573  90.150  86.882  1.00  0.00     0.000 C 
BRANCH  19  20
ATOM     20  C   UNL     1      84.233  91.189  85.975  1.00  0.00    -0.003 C 
ATOM     21  C   UNL     1      85.256  90.550  85.049  1.00  0.00     0.004 C 
ENDBRANCH  19  20
ENDBRANCH  18  19
ENDBRANCH  17  18
ENDBRANCH   1  17
TORSDOF 10
ENDMDL
MODEL 10
REMARK VINA RESULT:    -4.936     13.624     16.279
REMARK INTER + INTRA:          -9.204
REMARK INTER:                  -7.843
REMARK INTRA:                  -1.361
REMARK UNBOUND:                -1.527
REMARK SMILES CCCCC/C=C/C(=O)CCc1ccc(O)c(OC)c1
REMARK SMILES IDX 6 1 7 2 8 3 9 4 10 5 11 6 12 7 17 8 20 9 15 10 14 11 13 12
REMARK SMILES IDX 18 13 19 14 16 15 5 17 4 18 3 19 2 20 1 21
REMARK H PARENT 16 16
REMARK Flexibility Score: inf
ROOT
ATOM      1  C   UNL     1      80.306  86.937  87.273  1.00  0.00    -0.023 C 
ATOM      2  C   UNL     1      80.377  86.778  88.600  1.00  0.00     0.043 C 
ENDROOT
BRANCH   2   3
ATOM      3  C   UNL     1      79.962  87.886  89.503  1.00  0.00     0.155 C 
ATOM      4  O   UNL     1      78.826  87.954  89.967  1.00  0.00    -0.295 OA
BRANCH   3   5
ATOM      5  C   UNL     1      80.999  88.957  89.779  1.00  0.00     0.085 C 
BRANCH   5   6
ATOM      6  C   UNL     1      80.817  90.159  88.851  1.00  0.00     0.044 C 
BRANCH   6   7
ATOM      7  C   UNL     1      82.089  90.545  88.134  1.00  0.00    -0.044 A 
ATOM      8  C   UNL     1      83.601  92.240  87.359  1.00  0.00     0.160 A 
ATOM      9  C   UNL     1      82.426  91.884  88.022  1.00  0.00     0.054 A 
ATOM     10  C   UNL     1      84.423  91.253  86.817  1.00  0.00     0.157 A 
ATOM     11  C   UNL     1      84.069  89.908  86.937  1.00  0.00     0.050 A 
ATOM     12  C   UNL     1      82.894  89.552  87.600  1.00  0.00     0.008 A 
BRANCH   8  13
ATOM     13  O   UNL     1      83.934  93.557  87.248  1.00  0.00    -0.493 OA
ATOM     14  C   UNL     1      83.116  94.494  87.944  1.00  0.00     0.278 C 
ENDBRANCH   8  13
BRANCH  10  15
ATOM     15  O   UNL     1      85.572  91.588  86.168  1.00  0.00    -0.504 OA
ATOM     16  H   UNL     1      85.957  92.364  86.609  1.00  0.00     0.293 HD
ENDBRANCH  10  15
ENDBRANCH   6   7
ENDBRANCH   5   6
ENDBRANCH   3   5
ENDBRANCH   2   3
BRANCH   1  17
ATOM     17  C   UNL     1      80.706  85.869  86.296  1.00  0.00     0.027 C 
BRANCH  17  18
ATOM     18  C   UNL     1      81.470  86.416  85.086  1.00  0.00     0.004 C 
BRANCH  18  19
ATOM     19  C   UNL     1      81.208  87.901  84.814  1.00  0.00     0.000 C 
BRANCH  19  20
ATOM     20  C   UNL     1      80.100  88.085  83.776  1.00  0.00    -0.003 C 
ATOM     21  C   UNL     1      80.113  86.969  82.744  1.00  0.00     0.004 C 
ENDBRANCH  19  20
ENDBRANCH  18  19
ENDBRANCH  17  18
ENDBRANCH   1  17
TORSDOF 10
ENDMDL
