MODEL 1
REMARK VINA RESULT:    -5.592      0.000      0.000
REMARK INTER + INTRA:          -9.992
REMARK INTER:                  -8.698
REMARK INTRA:                  -1.294
REMARK UNBOUND:                -1.294
REMARK SMILES CCCCC/C=C/C(=O)CCc1ccc(O)c(OC)c1
REMARK SMILES IDX 6 1 7 2 8 3 9 4 10 5 11 6 12 7 17 8 20 9 15 10 14 11 13 12
REMARK SMILES IDX 18 13 19 14 16 15 5 17 4 18 3 19 2 20 1 21
REMARK H PARENT 16 16
REMARK Flexibility Score: inf
ROOT
ATOM      1  C   UNL     1      93.937  93.306  79.091  1.00  0.00    -0.023 C 
ATOM      2  C   UNL     1      95.204  92.904  79.247  1.00  0.00     0.043 C 
ENDROOT
BRANCH   2   3
ATOM      3  C   UNL     1      95.865  93.033  80.574  1.00  0.00     0.155 C 
ATOM      4  O   UNL     1      95.430  92.467  81.574  1.00  0.00    -0.295 OA
BRANCH   3   5
ATOM      5  C   UNL     1      97.076  93.944  80.640  1.00  0.00     0.085 C 
BRANCH   5   6
ATOM      6  C   UNL     1      96.690  95.401  80.379  1.00  0.00     0.044 C 
BRANCH   6   7
ATOM      7  C   UNL     1      97.197  95.914  79.052  1.00  0.00    -0.044 A 
ATOM      8  C   UNL     1      99.021  96.609  77.657  1.00  0.00     0.160 A 
ATOM      9  C   UNL     1      98.554  96.136  78.883  1.00  0.00     0.054 A 
ATOM     10  C   UNL     1      98.126  96.855  76.617  1.00  0.00     0.157 A 
ATOM     11  C   UNL     1      96.762  96.628  76.802  1.00  0.00     0.050 A 
ATOM     12  C   UNL     1      96.294  96.154  78.028  1.00  0.00     0.008 A 
BRANCH   8  13
ATOM     13  O   UNL     1     100.356  96.828  77.489  1.00  0.00    -0.493 OA
ATOM     14  C   UNL     1     101.163  96.849  78.664  1.00  0.00     0.278 C 
ENDBRANCH   8  13
BRANCH  10  15
ATOM     15  O   UNL     1      98.571  97.317  75.415  1.00  0.00    -0.504 OA
ATOM     16  H   UNL     1      99.419  96.885  75.216  1.00  0.00     0.293 HD
ENDBRANCH  10  15
ENDBRANCH   6   7
ENDBRANCH   5   6
ENDBRANCH   3   5
ENDBRANCH   2   3
BRANCH   1  17
ATOM     17  C   UNL     1      93.200  93.210  77.786  1.00  0.00     0.027 C 
BRANCH  17  18
ATOM     18  C   UNL     1      91.742  93.670  77.884  1.00  0.00     0.004 C 
BRANCH  18  19
ATOM     19  C   UNL     1      91.395  94.815  76.928  1.00  0.00     0.000 C 
BRANCH  19  20
ATOM     20  C   UNL     1      92.416  95.949  77.030  1.00  0.00    -0.003 C 
ATOM     21  C   UNL     1      93.173  96.137  75.725  1.00  0.00     0.004 C 
ENDBRANCH  19  20
ENDBRANCH  18  19
ENDBRANCH  17  18
ENDBRANCH   1  17
TORSDOF 10
ENDMDL
MODEL 2
REMARK VINA RESULT:    -5.551      3.555      6.714
REMARK INTER + INTRA:          -9.928
REMARK INTER:                  -9.208
REMARK INTRA:                  -0.720
REMARK UNBOUND:                -1.294
REMARK SMILES CCCCC/C=C/C(=O)CCc1ccc(O)c(OC)c1
REMARK SMILES IDX 6 1 7 2 8 3 9 4 10 5 11 6 12 7 17 8 20 9 15 10 14 11 13 12
REMARK SMILES IDX 18 13 19 14 16 15 5 17 4 18 3 19 2 20 1 21
REMARK H PARENT 16 16
REMARK Flexibility Score: inf
ROOT
ATOM      1  C   UNL     1      96.305  96.721  81.139  1.00  0.00    -0.023 C 
ATOM      2  C   UNL     1      96.168  95.486  81.636  1.00  0.00     0.043 C 
ENDROOT
BRANCH   2   3
ATOM      3  C   UNL     1      95.859  94.350  80.726  1.00  0.00     0.155 C 
ATOM      4  O   UNL     1      95.409  93.286  81.146  1.00  0.00    -0.295 OA
BRANCH   3   5
ATOM      5  C   UNL     1      96.179  94.553  79.258  1.00  0.00     0.085 C 
BRANCH   5   6
ATOM      6  C   UNL     1      95.438  93.540  78.383  1.00  0.00     0.044 C 
BRANCH   6   7
ATOM      7  C   UNL     1      94.063  94.013  77.973  1.00  0.00    -0.044 A 
ATOM      8  C   UNL     1      91.708  93.606  77.762  1.00  0.00     0.160 A 
ATOM      9  C   UNL     1      92.978  93.169  78.140  1.00  0.00     0.054 A 
ATOM     10  C   UNL     1      91.541  94.880  77.222  1.00  0.00     0.157 A 
ATOM     11  C   UNL     1      92.645  95.719  77.059  1.00  0.00     0.050 A 
ATOM     12  C   UNL     1      93.914  95.282  77.437  1.00  0.00     0.008 A 
BRANCH   8  13
ATOM     13  O   UNL     1      90.638  92.777  77.926  1.00  0.00    -0.493 OA
ATOM     14  C   UNL     1      90.276  91.959  76.815  1.00  0.00     0.278 C 
ENDBRANCH   8  13
BRANCH  10  15
ATOM     15  O   UNL     1      90.306  95.318  76.849  1.00  0.00    -0.504 OA
ATOM     16  H   UNL     1      90.172  95.092  75.913  1.00  0.00     0.293 HD
ENDBRANCH  10  15
ENDBRANCH   6   7
ENDBRANCH   5   6
ENDBRANCH   3   5
ENDBRANCH   2   3
BRANCH   1  17
ATOM     17  C   UNL     1      96.616  97.919  81.989  1.00  0.00     0.027 C 
BRANCH  17  18
ATOM     18  C   UNL     1      96.681  99.224  81.189  1.00  0.00     0.004 C 
BRANCH  18  19
ATOM     19  C   UNL     1      96.519 100.481  82.050  1.00  0.00     0.000 C 
BRANCH  19  20
ATOM     20  C   UNL     1      95.044 100.852  82.212  1.00  0.00    -0.003 C 
ATOM     21  C   UNL     1      94.704 102.125  81.453  1.00  0.00     0.004 C 
ENDBRANCH  19  20
ENDBRANCH  18  19
ENDBRANCH  17  18
ENDBRANCH   1  17
TORSDOF 10
ENDMDL
MODEL 3
REMARK VINA RESULT:    -5.425      3.088      3.810
REMARK INTER + INTRA:          -9.732
REMARK INTER:                  -8.727
REMARK INTRA:                  -1.005
REMARK UNBOUND:                -1.294
REMARK SMILES CCCCC/C=C/C(=O)CCc1ccc(O)c(OC)c1
REMARK SMILES IDX 6 1 7 2 8 3 9 4 10 5 11 6 12 7 17 8 20 9 15 10 14 11 13 12
REMARK SMILES IDX 18 13 19 14 16 15 5 17 4 18 3 19 2 20 1 21
REMARK H PARENT 16 16
REMARK Flexibility Score: inf
ROOT
ATOM      1  C   UNL     1      92.690  93.765  78.358  1.00  0.00    -0.023 C 
ATOM      2  C   UNL     1      93.732  92.929  78.439  1.00  0.00     0.043 C 
ENDROOT
BRANCH   2   3
ATOM      3  C   UNL     1      94.801  93.172  79.445  1.00  0.00     0.155 C 
ATOM      4  O   UNL     1      94.794  92.623  80.545  1.00  0.00    -0.295 OA
BRANCH   3   5
ATOM      5  C   UNL     1      95.874  94.173  79.063  1.00  0.00     0.085 C 
BRANCH   5   6
ATOM      6  C   UNL     1      97.029  94.159  80.065  1.00  0.00     0.044 C 
BRANCH   6   7
ATOM      7  C   UNL     1      97.033  95.364  80.976  1.00  0.00    -0.044 A 
ATOM      8  C   UNL     1      98.116  96.692  82.656  1.00  0.00     0.160 A 
ATOM      9  C   UNL     1      98.114  95.578  81.816  1.00  0.00     0.054 A 
ATOM     10  C   UNL     1      97.038  97.576  82.645  1.00  0.00     0.157 A 
ATOM     11  C   UNL     1      95.957  97.347  81.794  1.00  0.00     0.050 A 
ATOM     12  C   UNL     1      95.954  96.233  80.954  1.00  0.00     0.008 A 
BRANCH   8  13
ATOM     13  O   UNL     1      99.178  96.904  83.482  1.00  0.00    -0.493 OA
ATOM     14  C   UNL     1      99.130  96.294  84.770  1.00  0.00     0.278 C 
ENDBRANCH   8  13
BRANCH  10  15
ATOM     15  O   UNL     1      97.030  98.667  83.460  1.00  0.00    -0.504 OA
ATOM     16  H   UNL     1      96.439  99.335  83.070  1.00  0.00     0.293 HD
ENDBRANCH  10  15
ENDBRANCH   6   7
ENDBRANCH   5   6
ENDBRANCH   3   5
ENDBRANCH   2   3
BRANCH   1  17
ATOM     17  C   UNL     1      91.572  93.590  77.371  1.00  0.00     0.027 C 
BRANCH  17  18
ATOM     18  C   UNL     1      91.537  94.685  76.300  1.00  0.00     0.004 C 
BRANCH  18  19
ATOM     19  C   UNL     1      92.488  95.852  76.585  1.00  0.00     0.000 C 
BRANCH  19  20
ATOM     20  C   UNL     1      93.433  96.094  75.408  1.00  0.00    -0.003 C 
ATOM     21  C   UNL     1      94.240  94.849  75.077  1.00  0.00     0.004 C 
ENDBRANCH  19  20
ENDBRANCH  18  19
ENDBRANCH  17  18
ENDBRANCH   1  17
TORSDOF 10
ENDMDL
MODEL 4
REMARK VINA RESULT:    -5.380     10.971     14.494
REMARK INTER + INTRA:          -9.662
REMARK INTER:                  -8.074
REMARK INTRA:                  -1.588
REMARK UNBOUND:                -1.294
REMARK SMILES CCCCC/C=C/C(=O)CCc1ccc(O)c(OC)c1
REMARK SMILES IDX 6 1 7 2 8 3 9 4 10 5 11 6 12 7 17 8 20 9 15 10 14 11 13 12
REMARK SMILES IDX 18 13 19 14 16 15 5 17 4 18 3 19 2 20 1 21
REMARK H PARENT 16 16
REMARK Flexibility Score: inf
ROOT
ATOM      1  C   UNL     1      90.783  99.013  69.994  1.00  0.00    -0.023 C 
ATOM      2  C   UNL     1      89.640  98.646  69.401  1.00  0.00     0.043 C 
ENDROOT
BRANCH   2   3
ATOM      3  C   UNL     1      89.673  97.734  68.226  1.00  0.00     0.155 C 
ATOM      4  O   UNL     1      90.163  96.609  68.291  1.00  0.00    -0.295 OA
BRANCH   3   5
ATOM      5  C   UNL     1      89.118  98.285  66.927  1.00  0.00     0.085 C 
BRANCH   5   6
ATOM      6  C   UNL     1      89.804  99.596  66.542  1.00  0.00     0.044 C 
BRANCH   6   7
ATOM      7  C   UNL     1      88.840 100.754  66.432  1.00  0.00    -0.044 A 
ATOM      8  C   UNL     1      88.443 103.116  66.288  1.00  0.00     0.160 A 
ATOM      9  C   UNL     1      89.334 102.048  66.390  1.00  0.00     0.054 A 
ATOM     10  C   UNL     1      87.071 102.877  66.231  1.00  0.00     0.157 A 
ATOM     11  C   UNL     1      86.588 101.569  66.276  1.00  0.00     0.050 A 
ATOM     12  C   UNL     1      87.479 100.500  66.377  1.00  0.00     0.008 A 
BRANCH   8  13
ATOM     13  O   UNL     1      88.927 104.389  66.246  1.00  0.00    -0.493 OA
ATOM     14  C   UNL     1      89.588 104.871  67.414  1.00  0.00     0.278 C 
ENDBRANCH   8  13
BRANCH  10  15
ATOM     15  O   UNL     1      86.191 103.912  66.132  1.00  0.00    -0.504 OA
ATOM     16  H   UNL     1      86.432 104.583  66.794  1.00  0.00     0.293 HD
ENDBRANCH  10  15
ENDBRANCH   6   7
ENDBRANCH   5   6
ENDBRANCH   3   5
ENDBRANCH   2   3
BRANCH   1  17
ATOM     17  C   UNL     1      90.834  99.928  71.182  1.00  0.00     0.027 C 
BRANCH  17  18
ATOM     18  C   UNL     1      89.890 101.129  71.058  1.00  0.00     0.004 C 
BRANCH  18  19
ATOM     19  C   UNL     1      90.301 102.123  69.967  1.00  0.00     0.000 C 
BRANCH  19  20
ATOM     20  C   UNL     1      91.819 102.308  69.932  1.00  0.00    -0.003 C 
ATOM     21  C   UNL     1      92.367 102.148  68.523  1.00  0.00     0.004 C 
ENDBRANCH  19  20
ENDBRANCH  18  19
ENDBRANCH  17  18
ENDBRANCH   1  17
TORSDOF 10
ENDMDL
MODEL 5
REMARK VINA RESULT:    -5.293     12.381     14.727
REMARK INTER + INTRA:          -9.527
REMARK INTER:                  -8.446
REMARK INTRA:                  -1.081
REMARK UNBOUND:                -1.294
REMARK SMILES CCCCC/C=C/C(=O)CCc1ccc(O)c(OC)c1
REMARK SMILES IDX 6 1 7 2 8 3 9 4 10 5 11 6 12 7 17 8 20 9 15 10 14 11 13 12
REMARK SMILES IDX 18 13 19 14 16 15 5 17 4 18 3 19 2 20 1 21
REMARK H PARENT 16 16
REMARK Flexibility Score: inf
ROOT
ATOM      1  C   UNL     1      97.592  81.559  74.326  1.00  0.00    -0.023 C 
ATOM      2  C   UNL     1      96.984  82.752  74.336  1.00  0.00     0.043 C 
ENDROOT
BRANCH   2   3
ATOM      3  C   UNL     1      96.161  83.155  75.508  1.00  0.00     0.155 C 
ATOM      4  O   UNL     1      95.720  84.296  75.630  1.00  0.00    -0.295 OA
BRANCH   3   5
ATOM      5  C   UNL     1      95.939  82.100  76.574  1.00  0.00     0.085 C 
BRANCH   5   6
ATOM      6  C   UNL     1      96.272  82.637  77.966  1.00  0.00     0.044 C 
BRANCH   6   7
ATOM      7  C   UNL     1      97.271  81.778  78.705  1.00  0.00    -0.044 A 
ATOM      8  C   UNL     1      98.121  80.892  80.767  1.00  0.00     0.160 A 
ATOM      9  C   UNL     1      97.198  81.686  80.085  1.00  0.00     0.054 A 
ATOM     10  C   UNL     1      99.104  80.200  80.059  1.00  0.00     0.157 A 
ATOM     11  C   UNL     1      99.164  80.304  78.668  1.00  0.00     0.050 A 
ATOM     12  C   UNL     1      98.241  81.098  77.987  1.00  0.00     0.008 A 
BRANCH   8  13
ATOM     13  O   UNL     1      98.051  80.800  82.124  1.00  0.00    -0.493 OA
ATOM     14  C   UNL     1      97.147  79.838  82.664  1.00  0.00     0.278 C 
ENDBRANCH   8  13
BRANCH  10  15
ATOM     15  O   UNL     1     100.010  79.422  80.713  1.00  0.00    -0.504 OA
ATOM     16  H   UNL     1     100.873  79.869  80.685  1.00  0.00     0.293 HD
ENDBRANCH  10  15
ENDBRANCH   6   7
ENDBRANCH   5   6
ENDBRANCH   3   5
ENDBRANCH   2   3
BRANCH   1  17
ATOM     17  C   UNL     1      98.438  81.079  73.183  1.00  0.00     0.027 C 
BRANCH  17  18
ATOM     18  C   UNL     1      99.385  82.155  72.641  1.00  0.00     0.004 C 
BRANCH  18  19
ATOM     19  C   UNL     1     100.411  82.644  73.669  1.00  0.00     0.000 C 
BRANCH  19  20
ATOM     20  C   UNL     1     100.806  84.098  73.407  1.00  0.00    -0.003 C 
ATOM     21  C   UNL     1      99.742  84.827  72.602  1.00  0.00     0.004 C 
ENDBRANCH  19  20
ENDBRANCH  18  19
ENDBRANCH  17  18
ENDBRANCH   1  17
TORSDOF 10
ENDMDL
MODEL 6
REMARK VINA RESULT:    -5.257      4.240      7.685
REMARK INTER + INTRA:          -9.470
REMARK INTER:                  -8.862
REMARK INTRA:                  -0.609
REMARK UNBOUND:                -1.294
REMARK SMILES CCCCC/C=C/C(=O)CCc1ccc(O)c(OC)c1
REMARK SMILES IDX 6 1 7 2 8 3 9 4 10 5 11 6 12 7 17 8 20 9 15 10 14 11 13 12
REMARK SMILES IDX 18 13 19 14 16 15 5 17 4 18 3 19 2 20 1 21
REMARK H PARENT 16 16
REMARK Flexibility Score: inf
ROOT
ATOM      1  C   UNL     1      93.763  98.840  72.931  1.00  0.00    -0.023 C 
ATOM      2  C   UNL     1      94.813  98.334  72.273  1.00  0.00     0.043 C 
ENDROOT
BRANCH   2   3
ATOM      3  C   UNL     1      95.659  97.292  72.915  1.00  0.00     0.155 C 
ATOM      4  O   UNL     1      96.871  97.228  72.718  1.00  0.00    -0.295 OA
BRANCH   3   5
ATOM      5  C   UNL     1      94.940  96.278  73.784  1.00  0.00     0.085 C 
BRANCH   5   6
ATOM      6  C   UNL     1      95.300  96.457  75.259  1.00  0.00     0.044 C 
BRANCH   6   7
ATOM      7  C   UNL     1      94.593  95.473  76.160  1.00  0.00    -0.044 A 
ATOM      8  C   UNL     1      92.967  93.733  76.460  1.00  0.00     0.160 A 
ATOM      9  C   UNL     1      93.620  94.643  75.627  1.00  0.00     0.054 A 
ATOM     10  C   UNL     1      93.296  93.665  77.813  1.00  0.00     0.157 A 
ATOM     11  C   UNL     1      94.278  94.508  78.335  1.00  0.00     0.050 A 
ATOM     12  C   UNL     1      94.930  95.418  77.503  1.00  0.00     0.008 A 
BRANCH   8  13
ATOM     13  O   UNL     1      92.010  92.915  75.938  1.00  0.00    -0.493 OA
ATOM     14  C   UNL     1      90.676  93.419  75.903  1.00  0.00     0.278 C 
ENDBRANCH   8  13
BRANCH  10  15
ATOM     15  O   UNL     1      92.667  92.781  78.636  1.00  0.00    -0.504 OA
ATOM     16  H   UNL     1      92.204  92.127  78.085  1.00  0.00     0.293 HD
ENDBRANCH  10  15
ENDBRANCH   6   7
ENDBRANCH   5   6
ENDBRANCH   3   5
ENDBRANCH   2   3
BRANCH   1  17
ATOM     17  C   UNL     1      92.862  99.893  72.354  1.00  0.00     0.027 C 
BRANCH  17  18
ATOM     18  C   UNL     1      92.114  99.424  71.101  1.00  0.00     0.004 C 
BRANCH  18  19
ATOM     19  C   UNL     1      90.597  99.629  71.180  1.00  0.00     0.000 C 
BRANCH  19  20
ATOM     20  C   UNL     1      89.854  98.555  70.384  1.00  0.00    -0.003 C 
ATOM     21  C   UNL     1      89.228  99.130  69.123  1.00  0.00     0.004 C 
ENDBRANCH  19  20
ENDBRANCH  18  19
ENDBRANCH  17  18
ENDBRANCH   1  17
TORSDOF 10
ENDMDL
MODEL 7
REMARK VINA RESULT:    -5.251     11.023     14.078
REMARK INTER + INTRA:          -9.461
REMARK INTER:                  -7.799
REMARK INTRA:                  -1.662
REMARK UNBOUND:                -1.294
REMARK SMILES CCCCC/C=C/C(=O)CCc1ccc(O)c(OC)c1
REMARK SMILES IDX 6 1 7 2 8 3 9 4 10 5 11 6 12 7 17 8 20 9 15 10 14 11 13 12
REMARK SMILES IDX 18 13 19 14 16 15 5 17 4 18 3 19 2 20 1 21
REMARK H PARENT 16 16
REMARK Flexibility Score: inf
ROOT
ATOM      1  C   UNL     1      88.926  98.467  67.139  1.00  0.00    -0.023 C 
ATOM      2  C   UNL     1      88.123  99.443  67.582  1.00  0.00     0.043 C 
ENDROOT
BRANCH   2   3
ATOM      3  C   UNL     1      87.322 100.240  66.614  1.00  0.00     0.155 C 
ATOM      4  O   UNL     1      86.397  99.744  65.973  1.00  0.00    -0.295 OA
BRANCH   3   5
ATOM      5  C   UNL     1      87.739 101.684  66.419  1.00  0.00     0.085 C 
BRANCH   5   6
ATOM      6  C   UNL     1      88.772 102.110  67.463  1.00  0.00     0.044 C 
BRANCH   6   7
ATOM      7  C   UNL     1      90.102 102.486  66.855  1.00  0.00    -0.044 A 
ATOM      8  C   UNL     1      92.474 102.160  66.691  1.00  0.00     0.160 A 
ATOM      9  C   UNL     1      91.246 101.813  67.254  1.00  0.00     0.054 A 
ATOM     10  C   UNL     1      92.543 103.175  65.738  1.00  0.00     0.157 A 
ATOM     11  C   UNL     1      91.383 103.844  65.346  1.00  0.00     0.050 A 
ATOM     12  C   UNL     1      90.154 103.497  65.909  1.00  0.00     0.008 A 
BRANCH   8  13
ATOM     13  O   UNL     1      93.600 101.499  67.082  1.00  0.00    -0.493 OA
ATOM     14  C   UNL     1      93.923 101.534  68.471  1.00  0.00     0.278 C 
ENDBRANCH   8  13
BRANCH  10  15
ATOM     15  O   UNL     1      93.736 103.523  65.181  1.00  0.00    -0.504 OA
ATOM     16  H   UNL     1      94.410 102.890  65.483  1.00  0.00     0.293 HD
ENDBRANCH  10  15
ENDBRANCH   6   7
ENDBRANCH   5   6
ENDBRANCH   3   5
ENDBRANCH   2   3
BRANCH   1  17
ATOM     17  C   UNL     1      89.766  97.619  68.050  1.00  0.00     0.027 C 
BRANCH  17  18
ATOM     18  C   UNL     1      89.877  98.188  69.469  1.00  0.00     0.004 C 
BRANCH  18  19
ATOM     19  C   UNL     1      91.135  99.032  69.694  1.00  0.00     0.000 C 
BRANCH  19  20
ATOM     20  C   UNL     1      91.037  99.832  70.994  1.00  0.00    -0.003 C 
ATOM     21  C   UNL     1      89.995 100.934  70.893  1.00  0.00     0.004 C 
ENDBRANCH  19  20
ENDBRANCH  18  19
ENDBRANCH  17  18
ENDBRANCH   1  17
TORSDOF 10
ENDMDL
MODEL 8
REMARK VINA RESULT:    -5.250     12.631     14.360
REMARK INTER + INTRA:          -9.461
REMARK INTER:                  -8.905
REMARK INTRA:                  -0.555
REMARK UNBOUND:                -1.294
REMARK SMILES CCCCC/C=C/C(=O)CCc1ccc(O)c(OC)c1
REMARK SMILES IDX 6 1 7 2 8 3 9 4 10 5 11 6 12 7 17 8 20 9 15 10 14 11 13 12
REMARK SMILES IDX 18 13 19 14 16 15 5 17 4 18 3 19 2 20 1 21
REMARK H PARENT 16 16
REMARK Flexibility Score: inf
ROOT
ATOM      1  C   UNL     1      97.680  81.373  78.678  1.00  0.00    -0.023 C 
ATOM      2  C   UNL     1      97.321  81.908  79.852  1.00  0.00     0.043 C 
ENDROOT
BRANCH   2   3
ATOM      3  C   UNL     1      97.532  81.143  81.111  1.00  0.00     0.155 C 
ATOM      4  O   UNL     1      98.543  80.469  81.299  1.00  0.00    -0.295 OA
BRANCH   3   5
ATOM      5  C   UNL     1      96.411  81.195  82.130  1.00  0.00     0.085 C 
BRANCH   5   6
ATOM      6  C   UNL     1      96.205  82.616  82.657  1.00  0.00     0.044 C 
BRANCH   6   7
ATOM      7  C   UNL     1      95.313  82.668  83.875  1.00  0.00    -0.044 A 
ATOM      8  C   UNL     1      94.465  83.862  85.776  1.00  0.00     0.160 A 
ATOM      9  C   UNL     1      95.289  83.815  84.651  1.00  0.00     0.054 A 
ATOM     10  C   UNL     1      93.676  82.761  86.110  1.00  0.00     0.157 A 
ATOM     11  C   UNL     1      93.712  81.612  85.318  1.00  0.00     0.050 A 
ATOM     12  C   UNL     1      94.537  81.566  84.194  1.00  0.00     0.008 A 
BRANCH   8  13
ATOM     13  O   UNL     1      94.439  84.989  86.541  1.00  0.00    -0.493 OA
ATOM     14  C   UNL     1      95.632  85.319  87.251  1.00  0.00     0.278 C 
ENDBRANCH   8  13
BRANCH  10  15
ATOM     15  O   UNL     1      92.867  82.795  87.205  1.00  0.00    -0.504 OA
ATOM     16  H   UNL     1      91.954  82.632  86.915  1.00  0.00     0.293 HD
ENDBRANCH  10  15
ENDBRANCH   6   7
ENDBRANCH   5   6
ENDBRANCH   3   5
ENDBRANCH   2   3
BRANCH   1  17
ATOM     17  C   UNL     1      97.500  82.078  77.366  1.00  0.00     0.027 C 
BRANCH  17  18
ATOM     18  C   UNL     1      96.079  82.614  77.160  1.00  0.00     0.004 C 
BRANCH  18  19
ATOM     19  C   UNL     1      95.930  83.498  75.918  1.00  0.00     0.000 C 
BRANCH  19  20
ATOM     20  C   UNL     1      96.291  82.729  74.646  1.00  0.00    -0.003 C 
ATOM     21  C   UNL     1      97.520  83.316  73.971  1.00  0.00     0.004 C 
ENDBRANCH  19  20
ENDBRANCH  18  19
ENDBRANCH  17  18
ENDBRANCH   1  17
TORSDOF 10
ENDMDL
MODEL 9
REMARK VINA RESULT:    -4.982     10.347     13.569
REMARK INTER + INTRA:          -9.043
REMARK INTER:                  -8.135
REMARK INTRA:                  -0.907
REMARK UNBOUND:                -1.294
REMARK SMILES CCCCC/C=C/C(=O)CCc1ccc(O)c(OC)c1
REMARK SMILES IDX 6 1 7 2 8 3 9 4 10 5 11 6 12 7 17 8 20 9 15 10 14 11 13 12
REMARK SMILES IDX 18 13 19 14 16 15 5 17 4 18 3 19 2 20 1 21
REMARK H PARENT 16 16
REMARK Flexibility Score: inf
ROOT
ATOM      1  C   UNL     1      88.962 101.372  66.629  1.00  0.00    -0.023 C 
ATOM      2  C   UNL     1      88.359 100.200  66.867  1.00  0.00     0.043 C 
ENDROOT
BRANCH   2   3
ATOM      3  C   UNL     1      89.178  98.986  67.133  1.00  0.00     0.155 C 
ATOM      4  O   UNL     1      90.067  98.622  66.366  1.00  0.00    -0.295 OA
BRANCH   3   5
ATOM      5  C   UNL     1      88.823  98.190  68.374  1.00  0.00     0.085 C 
BRANCH   5   6
ATOM      6  C   UNL     1      90.058  97.928  69.237  1.00  0.00     0.044 C 
BRANCH   6   7
ATOM      7  C   UNL     1      90.504  99.146  70.010  1.00  0.00    -0.044 A 
ATOM      8  C   UNL     1      92.269 100.537  70.853  1.00  0.00     0.160 A 
ATOM      9  C   UNL     1      91.858  99.411  70.139  1.00  0.00     0.054 A 
ATOM     10  C   UNL     1      91.321 101.382  71.429  1.00  0.00     0.157 A 
ATOM     11  C   UNL     1      89.961 101.102  71.291  1.00  0.00     0.050 A 
ATOM     12  C   UNL     1      89.550  99.976  70.577  1.00  0.00     0.008 A 
BRANCH   8  13
ATOM     13  O   UNL     1      93.599 100.800  70.981  1.00  0.00    -0.493 OA
ATOM     14  C   UNL     1      94.337  99.986  71.891  1.00  0.00     0.278 C 
ENDBRANCH   8  13
BRANCH  10  15
ATOM     15  O   UNL     1      91.710 102.485  72.128  1.00  0.00    -0.504 OA
ATOM     16  H   UNL     1      91.265 102.470  72.994  1.00  0.00     0.293 HD
ENDBRANCH  10  15
ENDBRANCH   6   7
ENDBRANCH   5   6
ENDBRANCH   3   5
ENDBRANCH   2   3
BRANCH   1  17
ATOM     17  C   UNL     1      88.209 102.641  66.352  1.00  0.00     0.027 C 
BRANCH  17  18
ATOM     18  C   UNL     1      86.706 102.417  66.152  1.00  0.00     0.004 C 
BRANCH  18  19
ATOM     19  C   UNL     1      85.896 103.715  66.077  1.00  0.00     0.000 C 
BRANCH  19  20
ATOM     20  C   UNL     1      84.494 103.460  65.524  1.00  0.00    -0.003 C 
ATOM     21  C   UNL     1      84.141 104.448  64.424  1.00  0.00     0.004 C 
ENDBRANCH  19  20
ENDBRANCH  18  19
ENDBRANCH  17  18
ENDBRANCH   1  17
TORSDOF 10
ENDMDL
MODEL 10
REMARK VINA RESULT:    -4.959     24.583     28.345
REMARK INTER + INTRA:          -9.007
REMARK INTER:                  -8.216
REMARK INTRA:                  -0.791
REMARK UNBOUND:                -1.294
REMARK SMILES CCCCC/C=C/C(=O)CCc1ccc(O)c(OC)c1
REMARK SMILES IDX 6 1 7 2 8 3 9 4 10 5 11 6 12 7 17 8 20 9 15 10 14 11 13 12
REMARK SMILES IDX 18 13 19 14 16 15 5 17 4 18 3 19 2 20 1 21
REMARK H PARENT 16 16
REMARK Flexibility Score: inf
ROOT
ATOM      1  C   UNL     1      70.435  82.552  65.982  1.00  0.00    -0.023 C 
ATOM      2  C   UNL     1      71.077  82.327  64.829  1.00  0.00     0.043 C 
ENDROOT
BRANCH   2   3
ATOM      3  C   UNL     1      72.116  81.265  64.755  1.00  0.00     0.155 C 
ATOM      4  O   UNL     1      71.916  80.200  64.173  1.00  0.00    -0.295 OA
BRANCH   3   5
ATOM      5  C   UNL     1      73.419  81.541  65.479  1.00  0.00     0.085 C 
BRANCH   5   6
ATOM      6  C   UNL     1      74.315  82.482  64.672  1.00  0.00     0.044 C 
BRANCH   6   7
ATOM      7  C   UNL     1      75.267  83.273  65.537  1.00  0.00    -0.044 A 
ATOM      8  C   UNL     1      75.767  84.350  67.623  1.00  0.00     0.160 A 
ATOM      9  C   UNL     1      74.887  83.620  66.824  1.00  0.00     0.054 A 
ATOM     10  C   UNL     1      77.015  84.724  67.125  1.00  0.00     0.157 A 
ATOM     11  C   UNL     1      77.383  84.367  65.827  1.00  0.00     0.050 A 
ATOM     12  C   UNL     1      76.503  83.637  65.028  1.00  0.00     0.008 A 
BRANCH   8  13
ATOM     13  O   UNL     1      75.396  84.692  68.888  1.00  0.00    -0.493 OA
ATOM     14  C   UNL     1      74.503  85.796  69.026  1.00  0.00     0.278 C 
ENDBRANCH   8  13
BRANCH  10  15
ATOM     15  O   UNL     1      77.883  85.437  67.895  1.00  0.00    -0.504 OA
ATOM     16  H   UNL     1      77.522  86.332  68.015  1.00  0.00     0.293 HD
ENDBRANCH  10  15
ENDBRANCH   6   7
ENDBRANCH   5   6
ENDBRANCH   3   5
ENDBRANCH   2   3
BRANCH   1  17
ATOM     17  C   UNL     1      69.376  83.604  66.140  1.00  0.00     0.027 C 
BRANCH  17  18
ATOM     18  C   UNL     1      69.170  84.039  67.595  1.00  0.00     0.004 C 
BRANCH  18  19
ATOM     19  C   UNL     1      69.407  85.534  67.828  1.00  0.00     0.000 C 
BRANCH  19  20
ATOM     20  C   UNL     1      69.218  85.900  69.301  1.00  0.00    -0.003 C 
ATOM     21  C   UNL     1      69.220  84.664  70.186  1.00  0.00     0.004 C 
ENDBRANCH  19  20
ENDBRANCH  18  19
ENDBRANCH  17  18
ENDBRANCH   1  17
TORSDOF 10
ENDMDL
