MODEL 1
REMARK VINA RESULT:    -5.930      0.000      0.000
REMARK INTER + INTRA:         -10.985
REMARK INTER:                  -9.744
REMARK INTRA:                  -1.241
REMARK UNBOUND:                -1.241
REMARK SMILES CCCCC[C@H](O)CC(=O)CCc1ccc(O)c(OC)c1
REMARK SMILES IDX 8 1 6 2 7 3 5 5 4 6 3 7 2 8 1 9 9 10 10 11 11 12 12 13 13 14
REMARK SMILES IDX 21 15 14 16 18 17 15 18 16 19 19 20 20 21 17 22
REMARK H PARENT 7 4 17 23
REMARK Flexibility Score: inf
ROOT
ATOM      1  C   UNL     1      92.226  96.071  76.422  1.00  0.00     0.107 C 
ENDROOT
BRANCH   1   2
ATOM      2  C   UNL     1      91.692  96.066  77.856  1.00  0.00     0.121 C 
BRANCH   2   3
ATOM      3  O   UNL     1      90.317  96.444  77.862  1.00  0.00    -0.393 OA
ATOM      4  H   UNL     1      90.073  96.665  78.778  1.00  0.00     0.210 HD
ENDBRANCH   2   3
BRANCH   2   5
ATOM      5  C   UNL     1      91.845  94.706  78.548  1.00  0.00     0.032 C 
BRANCH   5   6
ATOM      6  C   UNL     1      90.580  93.848  78.419  1.00  0.00     0.003 C 
BRANCH   6   7
ATOM      7  C   UNL     1      90.779  92.603  77.549  1.00  0.00    -0.000 C 
BRANCH   7   8
ATOM      8  C   UNL     1      90.715  92.888  76.049  1.00  0.00    -0.003 C 
ATOM      9  C   UNL     1      91.143  91.676  75.236  1.00  0.00     0.004 C 
ENDBRANCH   7   8
ENDBRANCH   6   7
ENDBRANCH   5   6
ENDBRANCH   2   5
ENDBRANCH   1   2
BRANCH   1  10
ATOM     10  C   UNL     1      93.612  96.685  76.304  1.00  0.00     0.135 C 
ATOM     11  O   UNL     1      93.767  97.810  75.829  1.00  0.00    -0.300 OA
BRANCH  10  12
ATOM     12  C   UNL     1      94.771  95.859  76.840  1.00  0.00     0.080 C 
BRANCH  12  13
ATOM     13  C   UNL     1      95.524  96.531  77.990  1.00  0.00     0.043 C 
BRANCH  13  14
ATOM     14  C   UNL     1      95.431  95.763  79.287  1.00  0.00    -0.044 A 
ATOM     15  C   UNL     1      95.204  96.441  80.485  1.00  0.00     0.054 A 
ATOM     16  C   UNL     1      95.571  94.375  79.286  1.00  0.00     0.008 A 
ATOM     17  C   UNL     1      95.118  95.730  81.682  1.00  0.00     0.160 A 
ATOM     18  C   UNL     1      95.484  93.664  80.484  1.00  0.00     0.050 A 
ATOM     19  C   UNL     1      95.258  94.342  81.681  1.00  0.00     0.157 A 
BRANCH  17  20
ATOM     20  O   UNL     1      94.897  96.403  82.846  1.00  0.00    -0.493 OA
ATOM     21  C   UNL     1      94.930  97.828  82.787  1.00  0.00     0.278 C 
ENDBRANCH  17  20
BRANCH  19  22
ATOM     22  O   UNL     1      95.175  93.637  82.844  1.00  0.00    -0.504 OA
ATOM     23  H   UNL     1      94.311  93.192  82.884  1.00  0.00     0.293 HD
ENDBRANCH  19  22
ENDBRANCH  13  14
ENDBRANCH  12  13
ENDBRANCH  10  12
ENDBRANCH   1  10
TORSDOF 12
ENDMDL
MODEL 2
REMARK VINA RESULT:    -5.791      1.937      6.650
REMARK INTER + INTRA:         -10.756
REMARK INTER:                  -9.605
REMARK INTRA:                  -1.151
REMARK UNBOUND:                -1.241
REMARK SMILES CCCCC[C@H](O)CC(=O)CCc1ccc(O)c(OC)c1
REMARK SMILES IDX 8 1 6 2 7 3 5 5 4 6 3 7 2 8 1 9 9 10 10 11 11 12 12 13 13 14
REMARK SMILES IDX 21 15 14 16 18 17 15 18 16 19 19 20 20 21 17 22
REMARK H PARENT 7 4 17 23
REMARK Flexibility Score: inf
ROOT
ATOM      1  C   UNL     1      95.747  94.057  80.907  1.00  0.00     0.107 C 
ENDROOT
BRANCH   1   2
ATOM      2  C   UNL     1      95.300  94.530  82.292  1.00  0.00     0.121 C 
BRANCH   2   3
ATOM      3  O   UNL     1      95.795  93.641  83.290  1.00  0.00    -0.393 OA
ATOM      4  H   UNL     1      96.687  93.359  83.022  1.00  0.00     0.210 HD
ENDBRANCH   2   3
BRANCH   2   5
ATOM      5  C   UNL     1      95.759  95.958  82.615  1.00  0.00     0.032 C 
BRANCH   5   6
ATOM      6  C   UNL     1      94.843  97.014  81.984  1.00  0.00     0.003 C 
BRANCH   6   7
ATOM      7  C   UNL     1      95.610  98.148  81.296  1.00  0.00    -0.000 C 
BRANCH   7   8
ATOM      8  C   UNL     1      95.832  97.919  79.803  1.00  0.00    -0.003 C 
ATOM      9  C   UNL     1      97.142  97.192  79.542  1.00  0.00     0.004 C 
ENDBRANCH   7   8
ENDBRANCH   6   7
ENDBRANCH   5   6
ENDBRANCH   2   5
ENDBRANCH   1   2
BRANCH   1  10
ATOM     10  C   UNL     1      94.611  94.009  79.898  1.00  0.00     0.135 C 
ATOM     11  O   UNL     1      93.437  94.007  80.267  1.00  0.00    -0.300 OA
BRANCH  10  12
ATOM     12  C   UNL     1      95.004  94.013  78.428  1.00  0.00     0.080 C 
BRANCH  12  13
ATOM     13  C   UNL     1      94.456  95.209  77.648  1.00  0.00     0.043 C 
BRANCH  13  14
ATOM     14  C   UNL     1      92.955  95.170  77.482  1.00  0.00    -0.044 A 
ATOM     15  C   UNL     1      92.341  94.039  76.945  1.00  0.00     0.054 A 
ATOM     16  C   UNL     1      92.184  96.267  77.867  1.00  0.00     0.008 A 
ATOM     17  C   UNL     1      90.955  94.005  76.794  1.00  0.00     0.160 A 
ATOM     18  C   UNL     1      90.797  96.233  77.716  1.00  0.00     0.050 A 
ATOM     19  C   UNL     1      90.183  95.101  77.178  1.00  0.00     0.157 A 
BRANCH  17  20
ATOM     20  O   UNL     1      90.366  92.894  76.267  1.00  0.00    -0.493 OA
ATOM     21  C   UNL     1      91.215  91.970  75.590  1.00  0.00     0.278 C 
ENDBRANCH  17  20
BRANCH  19  22
ATOM     22  O   UNL     1      88.829  95.079  77.035  1.00  0.00    -0.504 OA
ATOM     23  H   UNL     1      88.451  95.863  77.471  1.00  0.00     0.293 HD
ENDBRANCH  19  22
ENDBRANCH  13  14
ENDBRANCH  12  13
ENDBRANCH  10  12
ENDBRANCH   1  10
TORSDOF 12
ENDMDL
MODEL 3
REMARK VINA RESULT:    -5.699      1.761      7.337
REMARK INTER + INTRA:         -10.605
REMARK INTER:                  -9.607
REMARK INTRA:                  -0.998
REMARK UNBOUND:                -1.241
REMARK SMILES CCCCC[C@H](O)CC(=O)CCc1ccc(O)c(OC)c1
REMARK SMILES IDX 8 1 6 2 7 3 5 5 4 6 3 7 2 8 1 9 9 10 10 11 11 12 12 13 13 14
REMARK SMILES IDX 21 15 14 16 18 17 15 18 16 19 19 20 20 21 17 22
REMARK H PARENT 7 4 17 23
REMARK Flexibility Score: inf
ROOT
ATOM      1  C   UNL     1      95.826  95.441  81.429  1.00  0.00     0.107 C 
ENDROOT
BRANCH   1   2
ATOM      2  C   UNL     1      94.866  96.348  82.203  1.00  0.00     0.121 C 
BRANCH   2   3
ATOM      3  O   UNL     1      94.843  95.968  83.577  1.00  0.00    -0.393 OA
ATOM      4  H   UNL     1      95.762  95.812  83.858  1.00  0.00     0.210 HD
ENDBRANCH   2   3
BRANCH   2   5
ATOM      5  C   UNL     1      95.227  97.835  82.097  1.00  0.00     0.032 C 
BRANCH   5   6
ATOM      6  C   UNL     1      96.327  98.233  83.088  1.00  0.00     0.003 C 
BRANCH   6   7
ATOM      7  C   UNL     1      95.989  99.489  83.897  1.00  0.00    -0.000 C 
BRANCH   7   8
ATOM      8  C   UNL     1      94.910 100.359  83.255  1.00  0.00    -0.003 C 
ATOM      9  C   UNL     1      95.518 101.537  82.509  1.00  0.00     0.004 C 
ENDBRANCH   7   8
ENDBRANCH   6   7
ENDBRANCH   5   6
ENDBRANCH   2   5
ENDBRANCH   1   2
BRANCH   1  10
ATOM     10  C   UNL     1      95.244  94.067  81.140  1.00  0.00     0.135 C 
ATOM     11  O   UNL     1      94.934  93.306  82.056  1.00  0.00    -0.300 OA
BRANCH  10  12
ATOM     12  C   UNL     1      95.028  93.713  79.677  1.00  0.00     0.080 C 
BRANCH  12  13
ATOM     13  C   UNL     1      94.704  94.919  78.793  1.00  0.00     0.043 C 
BRANCH  13  14
ATOM     14  C   UNL     1      93.282  94.914  78.284  1.00  0.00    -0.044 A 
ATOM     15  C   UNL     1      92.696  93.721  77.860  1.00  0.00     0.054 A 
ATOM     16  C   UNL     1      92.554  96.103  78.239  1.00  0.00     0.008 A 
ATOM     17  C   UNL     1      91.382  93.718  77.391  1.00  0.00     0.160 A 
ATOM     18  C   UNL     1      91.240  96.100  77.770  1.00  0.00     0.050 A 
ATOM     19  C   UNL     1      90.655  94.908  77.346  1.00  0.00     0.157 A 
BRANCH  17  20
ATOM     20  O   UNL     1      90.821  92.547  76.979  1.00  0.00    -0.493 OA
ATOM     21  C   UNL     1      91.204  92.062  75.693  1.00  0.00     0.278 C 
ENDBRANCH  17  20
BRANCH  19  22
ATOM     22  O   UNL     1      89.371  94.917  76.890  1.00  0.00    -0.504 OA
ATOM     23  H   UNL     1      89.029  95.827  76.924  1.00  0.00     0.293 HD
ENDBRANCH  19  22
ENDBRANCH  13  14
ENDBRANCH  12  13
ENDBRANCH  10  12
ENDBRANCH   1  10
TORSDOF 12
ENDMDL
MODEL 4
REMARK VINA RESULT:    -5.693     21.274     25.818
REMARK INTER + INTRA:         -10.596
REMARK INTER:                  -9.571
REMARK INTRA:                  -1.025
REMARK UNBOUND:                -1.241
REMARK SMILES CCCCC[C@H](O)CC(=O)CCc1ccc(O)c(OC)c1
REMARK SMILES IDX 8 1 6 2 7 3 5 5 4 6 3 7 2 8 1 9 9 10 10 11 11 12 12 13 13 14
REMARK SMILES IDX 21 15 14 16 18 17 15 18 16 19 19 20 20 21 17 22
REMARK H PARENT 7 4 17 23
REMARK Flexibility Score: inf
ROOT
ATOM      1  C   UNL     1      78.116  84.450  67.192  1.00  0.00     0.107 C 
ENDROOT
BRANCH   1   2
ATOM      2  C   UNL     1      77.607  85.831  66.771  1.00  0.00     0.121 C 
BRANCH   2   3
ATOM      3  O   UNL     1      76.191  85.796  66.611  1.00  0.00    -0.393 OA
ATOM      4  H   UNL     1      75.969  86.312  65.816  1.00  0.00     0.210 HD
ENDBRANCH   2   3
BRANCH   2   5
ATOM      5  C   UNL     1      77.975  86.935  67.769  1.00  0.00     0.032 C 
BRANCH   5   6
ATOM      6  C   UNL     1      77.841  86.466  69.223  1.00  0.00     0.003 C 
BRANCH   6   7
ATOM      7  C   UNL     1      76.443  86.691  69.807  1.00  0.00    -0.000 C 
BRANCH   7   8
ATOM      8  C   UNL     1      76.038  88.162  69.878  1.00  0.00    -0.003 C 
ATOM      9  C   UNL     1      74.913  88.380  70.877  1.00  0.00     0.004 C 
ENDBRANCH   7   8
ENDBRANCH   6   7
ENDBRANCH   5   6
ENDBRANCH   2   5
ENDBRANCH   1   2
BRANCH   1  10
ATOM     10  C   UNL     1      77.063  83.362  67.061  1.00  0.00     0.135 C 
ATOM     11  O   UNL     1      76.133  83.281  67.863  1.00  0.00    -0.300 OA
BRANCH  10  12
ATOM     12  C   UNL     1      77.197  82.422  65.873  1.00  0.00     0.080 C 
BRANCH  12  13
ATOM     13  C   UNL     1      76.369  82.844  64.657  1.00  0.00     0.043 C 
BRANCH  13  14
ATOM     14  C   UNL     1      75.192  81.935  64.398  1.00  0.00    -0.044 A 
ATOM     15  C   UNL     1      74.144  81.872  65.316  1.00  0.00     0.054 A 
ATOM     16  C   UNL     1      75.153  81.158  63.240  1.00  0.00     0.008 A 
ATOM     17  C   UNL     1      73.056  81.032  65.075  1.00  0.00     0.160 A 
ATOM     18  C   UNL     1      74.065  80.318  62.999  1.00  0.00     0.050 A 
ATOM     19  C   UNL     1      73.017  80.255  63.917  1.00  0.00     0.157 A 
BRANCH  17  20
ATOM     20  O   UNL     1      72.038  80.978  65.979  1.00  0.00    -0.493 OA
ATOM     21  C   UNL     1      71.401  82.210  66.312  1.00  0.00     0.278 C 
ENDBRANCH  17  20
BRANCH  19  22
ATOM     22  O   UNL     1      71.960  79.432  63.671  1.00  0.00    -0.504 OA
ATOM     23  H   UNL     1      71.946  79.210  62.724  1.00  0.00     0.293 HD
ENDBRANCH  19  22
ENDBRANCH  13  14
ENDBRANCH  12  13
ENDBRANCH  10  12
ENDBRANCH   1  10
TORSDOF 12
ENDMDL
MODEL 5
REMARK VINA RESULT:    -5.564     21.570     24.960
REMARK INTER + INTRA:         -10.383
REMARK INTER:                  -7.959
REMARK INTRA:                  -2.424
REMARK UNBOUND:                -1.241
REMARK SMILES CCCCC[C@H](O)CC(=O)CCc1ccc(O)c(OC)c1
REMARK SMILES IDX 8 1 6 2 7 3 5 5 4 6 3 7 2 8 1 9 9 10 10 11 11 12 12 13 13 14
REMARK SMILES IDX 21 15 14 16 18 17 15 18 16 19 19 20 20 21 17 22
REMARK H PARENT 7 4 17 23
REMARK Flexibility Score: inf
ROOT
ATOM      1  C   UNL     1      75.160  81.620  63.519  1.00  0.00     0.107 C 
ENDROOT
BRANCH   1   2
ATOM      2  C   UNL     1      74.442  82.841  62.938  1.00  0.00     0.121 C 
BRANCH   2   3
ATOM      3  O   UNL     1      73.045  82.755  63.210  1.00  0.00    -0.393 OA
ATOM      4  H   UNL     1      72.938  82.560  64.157  1.00  0.00     0.210 HD
ENDBRANCH   2   3
BRANCH   2   5
ATOM      5  C   UNL     1      74.982  84.169  63.481  1.00  0.00     0.032 C 
BRANCH   5   6
ATOM      6  C   UNL     1      76.485  84.329  63.226  1.00  0.00     0.003 C 
BRANCH   6   7
ATOM      7  C   UNL     1      77.071  85.607  63.834  1.00  0.00    -0.000 C 
BRANCH   7   8
ATOM      8  C   UNL     1      76.132  86.304  64.817  1.00  0.00    -0.003 C 
ATOM      9  C   UNL     1      76.883  87.295  65.693  1.00  0.00     0.004 C 
ENDBRANCH   7   8
ENDBRANCH   6   7
ENDBRANCH   5   6
ENDBRANCH   2   5
ENDBRANCH   1   2
BRANCH   1  10
ATOM     10  C   UNL     1      74.507  81.092  64.786  1.00  0.00     0.135 C 
ATOM     11  O   UNL     1      73.423  80.511  64.744  1.00  0.00    -0.300 OA
BRANCH  10  12
ATOM     12  C   UNL     1      75.281  81.282  66.082  1.00  0.00     0.080 C 
BRANCH  12  13
ATOM     13  C   UNL     1      76.633  81.973  65.896  1.00  0.00     0.043 C 
BRANCH  13  14
ATOM     14  C   UNL     1      76.851  83.116  66.858  1.00  0.00    -0.044 A 
ATOM     15  C   UNL     1      75.768  83.674  67.536  1.00  0.00     0.054 A 
ATOM     16  C   UNL     1      78.138  83.613  67.069  1.00  0.00     0.008 A 
ATOM     17  C   UNL     1      75.971  84.729  68.426  1.00  0.00     0.160 A 
ATOM     18  C   UNL     1      78.341  84.668  67.959  1.00  0.00     0.050 A 
ATOM     19  C   UNL     1      77.258  85.226  68.637  1.00  0.00     0.157 A 
BRANCH  17  20
ATOM     20  O   UNL     1      74.905  85.267  69.082  1.00  0.00    -0.493 OA
ATOM     21  C   UNL     1      73.967  86.004  68.299  1.00  0.00     0.278 C 
ENDBRANCH  17  20
BRANCH  19  22
ATOM     22  O   UNL     1      77.468  86.256  69.503  1.00  0.00    -0.504 OA
ATOM     23  H   UNL     1      76.917  87.012  69.236  1.00  0.00     0.293 HD
ENDBRANCH  19  22
ENDBRANCH  13  14
ENDBRANCH  12  13
ENDBRANCH  10  12
ENDBRANCH   1  10
TORSDOF 12
ENDMDL
MODEL 6
REMARK VINA RESULT:    -5.423     20.627     22.648
REMARK INTER + INTRA:         -10.151
REMARK INTER:                  -9.069
REMARK INTRA:                  -1.082
REMARK UNBOUND:                -1.241
REMARK SMILES CCCCC[C@H](O)CC(=O)CCc1ccc(O)c(OC)c1
REMARK SMILES IDX 8 1 6 2 7 3 5 5 4 6 3 7 2 8 1 9 9 10 10 11 11 12 12 13 13 14
REMARK SMILES IDX 21 15 14 16 18 17 15 18 16 19 19 20 20 21 17 22
REMARK H PARENT 7 4 17 23
REMARK Flexibility Score: inf
ROOT
ATOM      1  C   UNL     1      76.605  85.533  67.834  1.00  0.00     0.107 C 
ENDROOT
BRANCH   1   2
ATOM      2  C   UNL     1      78.090  85.410  67.482  1.00  0.00     0.121 C 
BRANCH   2   3
ATOM      3  O   UNL     1      78.864  85.316  68.676  1.00  0.00    -0.393 OA
ATOM      4  H   UNL     1      79.139  86.217  68.924  1.00  0.00     0.210 HD
ENDBRANCH   2   3
BRANCH   2   5
ATOM      5  C   UNL     1      78.397  84.204  66.586  1.00  0.00     0.032 C 
BRANCH   5   6
ATOM      6  C   UNL     1      77.131  83.631  65.937  1.00  0.00     0.003 C 
BRANCH   6   7
ATOM      7  C   UNL     1      77.075  82.100  65.965  1.00  0.00    -0.000 C 
BRANCH   7   8
ATOM      8  C   UNL     1      75.741  81.528  65.488  1.00  0.00    -0.003 C 
ATOM      9  C   UNL     1      74.578  82.088  66.293  1.00  0.00     0.004 C 
ENDBRANCH   7   8
ENDBRANCH   6   7
ENDBRANCH   5   6
ENDBRANCH   2   5
ENDBRANCH   1   2
BRANCH   1  10
ATOM     10  C   UNL     1      76.284  85.048  69.238  1.00  0.00     0.135 C 
ATOM     11  O   UNL     1      76.425  83.865  69.547  1.00  0.00    -0.300 OA
BRANCH  10  12
ATOM     12  C   UNL     1      75.829  86.102  70.236  1.00  0.00     0.080 C 
BRANCH  12  13
ATOM     13  C   UNL     1      76.209  87.530  69.838  1.00  0.00     0.043 C 
BRANCH  13  14
ATOM     14  C   UNL     1      75.396  88.581  70.556  1.00  0.00    -0.044 A 
ATOM     15  C   UNL     1      74.204  88.228  71.190  1.00  0.00     0.054 A 
ATOM     16  C   UNL     1      75.837  89.904  70.584  1.00  0.00     0.008 A 
ATOM     17  C   UNL     1      73.454  89.200  71.853  1.00  0.00     0.160 A 
ATOM     18  C   UNL     1      75.086  90.875  71.248  1.00  0.00     0.050 A 
ATOM     19  C   UNL     1      73.895  90.523  71.882  1.00  0.00     0.157 A 
BRANCH  17  20
ATOM     20  O   UNL     1      72.292  88.844  72.468  1.00  0.00    -0.493 OA
ATOM     21  C   UNL     1      71.247  88.340  71.638  1.00  0.00     0.278 C 
ENDBRANCH  17  20
BRANCH  19  22
ATOM     22  O   UNL     1      73.171  91.480  72.526  1.00  0.00    -0.504 OA
ATOM     23  H   UNL     1      73.523  92.356  72.290  1.00  0.00     0.293 HD
ENDBRANCH  19  22
ENDBRANCH  13  14
ENDBRANCH  12  13
ENDBRANCH  10  12
ENDBRANCH   1  10
TORSDOF 12
ENDMDL
MODEL 7
REMARK VINA RESULT:    -5.352     20.851     23.612
REMARK INTER + INTRA:         -10.035
REMARK INTER:                  -8.976
REMARK INTRA:                  -1.058
REMARK UNBOUND:                -1.241
REMARK SMILES CCCCC[C@H](O)CC(=O)CCc1ccc(O)c(OC)c1
REMARK SMILES IDX 8 1 6 2 7 3 5 5 4 6 3 7 2 8 1 9 9 10 10 11 11 12 12 13 13 14
REMARK SMILES IDX 21 15 14 16 18 17 15 18 16 19 19 20 20 21 17 22
REMARK H PARENT 7 4 17 23
REMARK Flexibility Score: inf
ROOT
ATOM      1  C   UNL     1      76.367  83.565  67.459  1.00  0.00     0.107 C 
ENDROOT
BRANCH   1   2
ATOM      2  C   UNL     1      76.183  83.611  65.940  1.00  0.00     0.121 C 
BRANCH   2   3
ATOM      3  O   UNL     1      77.136  84.501  65.364  1.00  0.00    -0.393 OA
ATOM      4  H   UNL     1      77.980  84.379  65.835  1.00  0.00     0.210 HD
ENDBRANCH   2   3
BRANCH   2   5
ATOM      5  C   UNL     1      76.314  82.234  65.278  1.00  0.00     0.032 C 
BRANCH   5   6
ATOM      6  C   UNL     1      75.266  81.242  65.798  1.00  0.00     0.003 C 
BRANCH   6   7
ATOM      7  C   UNL     1      73.926  81.334  65.059  1.00  0.00    -0.000 C 
BRANCH   7   8
ATOM      8  C   UNL     1      73.907  80.579  63.731  1.00  0.00    -0.003 C 
ATOM      9  C   UNL     1      72.574  79.881  63.509  1.00  0.00     0.004 C 
ENDBRANCH   7   8
ENDBRANCH   6   7
ENDBRANCH   5   6
ENDBRANCH   2   5
ENDBRANCH   1   2
BRANCH   1  10
ATOM     10  C   UNL     1      77.778  83.921  67.899  1.00  0.00     0.135 C 
ATOM     11  O   UNL     1      78.758  83.411  67.355  1.00  0.00    -0.300 OA
BRANCH  10  12
ATOM     12  C   UNL     1      77.907  84.960  69.002  1.00  0.00     0.080 C 
BRANCH  12  13
ATOM     13  C   UNL     1      78.364  86.332  68.503  1.00  0.00     0.043 C 
BRANCH  13  14
ATOM     14  C   UNL     1      77.225  87.308  68.329  1.00  0.00    -0.044 A 
ATOM     15  C   UNL     1      76.545  87.794  69.446  1.00  0.00     0.054 A 
ATOM     16  C   UNL     1      76.853  87.724  67.050  1.00  0.00     0.008 A 
ATOM     17  C   UNL     1      75.493  88.696  69.283  1.00  0.00     0.160 A 
ATOM     18  C   UNL     1      75.802  88.626  66.888  1.00  0.00     0.050 A 
ATOM     19  C   UNL     1      75.122  89.112  68.004  1.00  0.00     0.157 A 
BRANCH  17  20
ATOM     20  O   UNL     1      74.836  89.163  70.381  1.00  0.00    -0.493 OA
ATOM     21  C   UNL     1      74.188  88.198  71.208  1.00  0.00     0.278 C 
ENDBRANCH  17  20
BRANCH  19  22
ATOM     22  O   UNL     1      74.097  89.992  67.833  1.00  0.00    -0.504 OA
ATOM     23  H   UNL     1      74.394  90.717  67.257  1.00  0.00     0.293 HD
ENDBRANCH  19  22
ENDBRANCH  13  14
ENDBRANCH  12  13
ENDBRANCH  10  12
ENDBRANCH   1  10
TORSDOF 12
ENDMDL
MODEL 8
REMARK VINA RESULT:    -5.284      1.820      2.684
REMARK INTER + INTRA:          -9.924
REMARK INTER:                  -8.669
REMARK INTRA:                  -1.255
REMARK UNBOUND:                -1.241
REMARK SMILES CCCCC[C@H](O)CC(=O)CCc1ccc(O)c(OC)c1
REMARK SMILES IDX 8 1 6 2 7 3 5 5 4 6 3 7 2 8 1 9 9 10 10 11 11 12 12 13 13 14
REMARK SMILES IDX 21 15 14 16 18 17 15 18 16 19 19 20 20 21 17 22
REMARK H PARENT 7 4 17 23
REMARK Flexibility Score: inf
ROOT
ATOM      1  C   UNL     1      95.053  96.809  76.345  1.00  0.00     0.107 C 
ENDROOT
BRANCH   1   2
ATOM      2  C   UNL     1      93.598  96.554  76.746  1.00  0.00     0.121 C 
BRANCH   2   3
ATOM      3  O   UNL     1      92.727  97.315  75.912  1.00  0.00    -0.393 OA
ATOM      4  H   UNL     1      91.817  97.177  76.229  1.00  0.00     0.210 HD
ENDBRANCH   2   3
BRANCH   2   5
ATOM      5  C   UNL     1      93.205  95.073  76.668  1.00  0.00     0.032 C 
BRANCH   5   6
ATOM      6  C   UNL     1      93.285  94.383  78.035  1.00  0.00     0.003 C 
BRANCH   6   7
ATOM      7  C   UNL     1      91.932  94.292  78.748  1.00  0.00    -0.000 C 
BRANCH   7   8
ATOM      8  C   UNL     1      90.777  93.912  77.824  1.00  0.00    -0.003 C 
ATOM      9  C   UNL     1      89.661  93.215  78.587  1.00  0.00     0.004 C 
ENDBRANCH   7   8
ENDBRANCH   6   7
ENDBRANCH   5   6
ENDBRANCH   2   5
ENDBRANCH   1   2
BRANCH   1  10
ATOM     10  C   UNL     1      95.578  98.151  76.829  1.00  0.00     0.135 C 
ATOM     11  O   UNL     1      95.155  99.204  76.353  1.00  0.00    -0.300 OA
BRANCH  10  12
ATOM     12  C   UNL     1      96.605  98.117  77.950  1.00  0.00     0.080 C 
BRANCH  12  13
ATOM     13  C   UNL     1      96.224  98.973  79.160  1.00  0.00     0.043 C 
BRANCH  13  14
ATOM     14  C   UNL     1      95.845  98.152  80.370  1.00  0.00    -0.044 A 
ATOM     15  C   UNL     1      96.185  98.595  81.648  1.00  0.00     0.054 A 
ATOM     16  C   UNL     1      95.154  96.951  80.208  1.00  0.00     0.008 A 
ATOM     17  C   UNL     1      95.834  97.837  82.765  1.00  0.00     0.160 A 
ATOM     18  C   UNL     1      94.802  96.193  81.325  1.00  0.00     0.050 A 
ATOM     19  C   UNL     1      95.143  96.635  82.603  1.00  0.00     0.157 A 
BRANCH  17  20
ATOM     20  O   UNL     1      96.173  98.279  84.008  1.00  0.00    -0.493 OA
ATOM     21  C   UNL     1      95.886  99.643  84.311  1.00  0.00     0.278 C 
ENDBRANCH  17  20
BRANCH  19  22
ATOM     22  O   UNL     1      94.795  95.886  83.686  1.00  0.00    -0.504 OA
ATOM     23  H   UNL     1      95.595  95.479  84.060  1.00  0.00     0.293 HD
ENDBRANCH  19  22
ENDBRANCH  13  14
ENDBRANCH  12  13
ENDBRANCH  10  12
ENDBRANCH   1  10
TORSDOF 12
ENDMDL
MODEL 9
REMARK VINA RESULT:    -5.258     21.218     23.499
REMARK INTER + INTRA:          -9.880
REMARK INTER:                  -8.179
REMARK INTRA:                  -1.701
REMARK UNBOUND:                -1.241
REMARK SMILES CCCCC[C@H](O)CC(=O)CCc1ccc(O)c(OC)c1
REMARK SMILES IDX 8 1 6 2 7 3 5 5 4 6 3 7 2 8 1 9 9 10 10 11 11 12 12 13 13 14
REMARK SMILES IDX 21 15 14 16 18 17 15 18 16 19 19 20 20 21 17 22
REMARK H PARENT 7 4 17 23
REMARK Flexibility Score: inf
ROOT
ATOM      1  C   UNL     1      77.879  85.421  66.864  1.00  0.00     0.107 C 
ENDROOT
BRANCH   1   2
ATOM      2  C   UNL     1      77.044  85.212  65.598  1.00  0.00     0.121 C 
BRANCH   2   3
ATOM      3  O   UNL     1      77.492  84.046  64.911  1.00  0.00    -0.393 OA
ATOM      4  H   UNL     1      77.744  84.311  64.009  1.00  0.00     0.210 HD
ENDBRANCH   2   3
BRANCH   2   5
ATOM      5  C   UNL     1      75.543  85.083  65.884  1.00  0.00     0.032 C 
BRANCH   5   6
ATOM      6  C   UNL     1      74.806  84.331  64.769  1.00  0.00     0.003 C 
BRANCH   6   7
ATOM      7  C   UNL     1      74.065  83.085  65.264  1.00  0.00    -0.000 C 
BRANCH   7   8
ATOM      8  C   UNL     1      74.653  82.492  66.543  1.00  0.00    -0.003 C 
ATOM      9  C   UNL     1      75.596  81.339  66.237  1.00  0.00     0.004 C 
ENDBRANCH   7   8
ENDBRANCH   6   7
ENDBRANCH   5   6
ENDBRANCH   2   5
ENDBRANCH   1   2
BRANCH   1  10
ATOM     10  C   UNL     1      78.052  84.151  67.680  1.00  0.00     0.135 C 
ATOM     11  O   UNL     1      78.853  83.282  67.336  1.00  0.00    -0.300 OA
BRANCH  10  12
ATOM     12  C   UNL     1      77.225  84.039  68.952  1.00  0.00     0.080 C 
BRANCH  12  13
ATOM     13  C   UNL     1      77.460  85.183  69.940  1.00  0.00     0.043 C 
BRANCH  13  14
ATOM     14  C   UNL     1      76.363  86.221  69.916  1.00  0.00    -0.044 A 
ATOM     15  C   UNL     1      75.026  85.824  69.962  1.00  0.00     0.054 A 
ATOM     16  C   UNL     1      76.687  87.576  69.849  1.00  0.00     0.008 A 
ATOM     17  C   UNL     1      74.014  86.783  69.940  1.00  0.00     0.160 A 
ATOM     18  C   UNL     1      75.674  88.535  69.828  1.00  0.00     0.050 A 
ATOM     19  C   UNL     1      74.337  88.139  69.873  1.00  0.00     0.157 A 
BRANCH  17  20
ATOM     20  O   UNL     1      72.712  86.384  69.984  1.00  0.00    -0.493 OA
ATOM     21  C   UNL     1      72.234  85.607  68.887  1.00  0.00     0.278 C 
ENDBRANCH  17  20
BRANCH  19  22
ATOM     22  O   UNL     1      73.357  89.084  69.851  1.00  0.00    -0.504 OA
ATOM     23  H   UNL     1      73.493  89.698  70.593  1.00  0.00     0.293 HD
ENDBRANCH  19  22
ENDBRANCH  13  14
ENDBRANCH  12  13
ENDBRANCH  10  12
ENDBRANCH   1  10
TORSDOF 12
ENDMDL
MODEL 10
REMARK VINA RESULT:    -5.256     21.621     25.953
REMARK INTER + INTRA:          -9.878
REMARK INTER:                  -8.525
REMARK INTRA:                  -1.353
REMARK UNBOUND:                -1.241
REMARK SMILES CCCCC[C@H](O)CC(=O)CCc1ccc(O)c(OC)c1
REMARK SMILES IDX 8 1 6 2 7 3 5 5 4 6 3 7 2 8 1 9 9 10 10 11 11 12 12 13 13 14
REMARK SMILES IDX 21 15 14 16 18 17 15 18 16 19 19 20 20 21 17 22
REMARK H PARENT 7 4 17 23
REMARK Flexibility Score: inf
ROOT
ATOM      1  C   UNL     1      73.658  82.268  63.883  1.00  0.00     0.107 C 
ENDROOT
BRANCH   1   2
ATOM      2  C   UNL     1      72.334  81.535  63.651  1.00  0.00     0.121 C 
BRANCH   2   3
ATOM      3  O   UNL     1      72.392  80.236  64.235  1.00  0.00    -0.393 OA
ATOM      4  H   UNL     1      72.606  80.343  65.178  1.00  0.00     0.210 HD
ENDBRANCH   2   3
BRANCH   2   5
ATOM      5  C   UNL     1      71.124  82.289  64.217  1.00  0.00     0.032 C 
BRANCH   5   6
ATOM      6  C   UNL     1      71.511  83.211  65.380  1.00  0.00     0.003 C 
BRANCH   6   7
ATOM      7  C   UNL     1      71.210  82.609  66.756  1.00  0.00    -0.000 C 
BRANCH   7   8
ATOM      8  C   UNL     1      69.779  82.854  67.232  1.00  0.00    -0.003 C 
ATOM      9  C   UNL     1      69.697  82.883  68.751  1.00  0.00     0.004 C 
ENDBRANCH   7   8
ENDBRANCH   6   7
ENDBRANCH   5   6
ENDBRANCH   2   5
ENDBRANCH   1   2
BRANCH   1  10
ATOM     10  C   UNL     1      74.854  81.332  63.941  1.00  0.00     0.135 C 
ATOM     11  O   UNL     1      75.209  80.696  62.949  1.00  0.00    -0.300 OA
BRANCH  10  12
ATOM     12  C   UNL     1      75.603  81.263  65.263  1.00  0.00     0.080 C 
BRANCH  12  13
ATOM     13  C   UNL     1      75.026  82.179  66.345  1.00  0.00     0.043 C 
BRANCH  13  14
ATOM     14  C   UNL     1      76.064  83.075  66.977  1.00  0.00    -0.044 A 
ATOM     15  C   UNL     1      75.704  83.939  68.012  1.00  0.00     0.054 A 
ATOM     16  C   UNL     1      77.384  83.038  66.527  1.00  0.00     0.008 A 
ATOM     17  C   UNL     1      76.664  84.765  68.596  1.00  0.00     0.160 A 
ATOM     18  C   UNL     1      78.344  83.865  67.111  1.00  0.00     0.050 A 
ATOM     19  C   UNL     1      77.984  84.729  68.145  1.00  0.00     0.157 A 
BRANCH  17  20
ATOM     20  O   UNL     1      76.300  85.605  69.605  1.00  0.00    -0.493 OA
ATOM     21  C   UNL     1      75.222  85.186  70.440  1.00  0.00     0.278 C 
ENDBRANCH  17  20
BRANCH  19  22
ATOM     22  O   UNL     1      78.930  85.531  68.707  1.00  0.00    -0.504 OA
ATOM     23  H   UNL     1      79.007  85.315  69.653  1.00  0.00     0.293 HD
ENDBRANCH  19  22
ENDBRANCH  13  14
ENDBRANCH  12  13
ENDBRANCH  10  12
ENDBRANCH   1  10
TORSDOF 12
ENDMDL
