MODEL 1
REMARK VINA RESULT:    -6.760      0.000      0.000
REMARK INTER + INTRA:         -11.981
REMARK INTER:                 -10.909
REMARK INTRA:                  -1.072
REMARK UNBOUND:                -1.072
REMARK SMILES COc1cc(CNC(=O)CCCCC/C=C/C(C)C)ccc1O
REMARK SMILES IDX 11 1 10 2 8 3 7 4 9 6 6 7 5 8 3 9 22 10 4 11 21 12 20 13
REMARK SMILES IDX 2 14 1 15 23 16 12 18 13 19 14 20 15 21 16 22 17 23 18 24
REMARK SMILES IDX 19 25
REMARK H PARENT 7 5 23 17
REMARK Flexibility Score: inf
ROOT
ATOM      1  C   UNL     1      91.750  93.831  76.660  1.00  0.00     0.010 C 
ENDROOT
BRANCH   1   2
ATOM      2  C   UNL     1      92.848  93.313  75.695  1.00  0.00     0.100 C 
BRANCH   2   3
ATOM      3  C   UNL     1      94.213  93.736  76.058  1.00  0.00     0.220 C 
ATOM      4  N   UNL     1      94.605  93.716  77.362  1.00  0.00    -0.352 N 
ATOM      5  H   UNL     1      93.876  93.471  78.017  1.00  0.00     0.163 HD
ATOM      6  O   UNL     1      94.998  94.067  75.138  1.00  0.00    -0.275 OA
BRANCH   4   7
ATOM      7  C   UNL     1      95.919  94.005  77.837  1.00  0.00     0.151 C 
BRANCH   7   8
ATOM      8  C   UNL     1      95.918  94.575  79.209  1.00  0.00    -0.025 A 
ATOM      9  C   UNL     1      96.285  96.469  80.736  1.00  0.00     0.160 A 
ATOM     10  C   UNL     1      95.966  95.643  81.836  1.00  0.00     0.157 A 
ATOM     11  C   UNL     1      96.268  95.928  79.434  1.00  0.00     0.056 A 
ATOM     12  C   UNL     1      95.600  94.301  81.622  1.00  0.00     0.050 A 
ATOM     13  C   UNL     1      95.566  93.774  80.318  1.00  0.00     0.009 A 
BRANCH   9  14
ATOM     14  O   UNL     1      96.557  97.798  80.924  1.00  0.00    -0.493 OA
ATOM     15  C   UNL     1      97.955  98.096  81.074  1.00  0.00     0.278 C 
ENDBRANCH   9  14
BRANCH  10  16
ATOM     16  O   UNL     1      95.999  96.117  83.106  1.00  0.00    -0.504 OA
ATOM     17  H   UNL     1      96.205  95.399  83.710  1.00  0.00     0.293 HD
ENDBRANCH  10  16
ENDBRANCH   7   8
ENDBRANCH   4   7
ENDBRANCH   2   3
ENDBRANCH   1   2
BRANCH   1  18
ATOM     18  C   UNL     1      91.224  92.692  77.571  1.00  0.00     0.001 C 
BRANCH  18  19
ATOM     19  C   UNL     1      89.774  92.253  77.246  1.00  0.00     0.004 C 
BRANCH  19  20
ATOM     20  C   UNL     1      89.742  90.839  76.601  1.00  0.00     0.027 C 
BRANCH  20  21
ATOM     21  C   UNL     1      90.016  90.840  75.175  1.00  0.00    -0.031 C 
ATOM     22  C   UNL     1      89.596  91.826  74.363  1.00  0.00    -0.028 C 
BRANCH  22  23
ATOM     23  C   UNL     1      89.860  91.860  72.926  1.00  0.00     0.005 C 
ATOM     24  C   UNL     1      89.097  90.713  72.212  1.00  0.00     0.012 C 
ATOM     25  C   UNL     1      89.502  93.256  72.347  1.00  0.00     0.012 C 
ENDBRANCH  22  23
ENDBRANCH  20  21
ENDBRANCH  19  20
ENDBRANCH  18  19
ENDBRANCH   1  18
TORSDOF 11
ENDMDL
MODEL 2
REMARK VINA RESULT:    -6.747      1.662      2.690
REMARK INTER + INTRA:         -11.960
REMARK INTER:                 -11.088
REMARK INTRA:                  -0.872
REMARK UNBOUND:                -1.072
REMARK SMILES COc1cc(CNC(=O)CCCCC/C=C/C(C)C)ccc1O
REMARK SMILES IDX 11 1 10 2 8 3 7 4 9 6 6 7 5 8 3 9 22 10 4 11 21 12 20 13
REMARK SMILES IDX 2 14 1 15 23 16 12 18 13 19 14 20 15 21 16 22 17 23 18 24
REMARK SMILES IDX 19 25
REMARK H PARENT 7 5 23 17
REMARK Flexibility Score: inf
ROOT
ATOM      1  C   UNL     1      92.473  94.295  76.158  1.00  0.00     0.010 C 
ENDROOT
BRANCH   1   2
ATOM      2  C   UNL     1      93.625  93.704  75.305  1.00  0.00     0.100 C 
BRANCH   2   3
ATOM      3  C   UNL     1      94.957  94.239  75.642  1.00  0.00     0.220 C 
ATOM      4  N   UNL     1      95.126  94.972  76.777  1.00  0.00    -0.352 N 
ATOM      5  H   UNL     1      94.274  95.162  77.286  1.00  0.00     0.163 HD
ATOM      6  O   UNL     1      95.918  93.965  74.884  1.00  0.00    -0.275 OA
BRANCH   4   7
ATOM      7  C   UNL     1      96.372  95.464  77.269  1.00  0.00     0.151 C 
BRANCH   7   8
ATOM      8  C   UNL     1      96.313  95.834  78.707  1.00  0.00    -0.025 A 
ATOM      9  C   UNL     1      95.515  95.401  80.993  1.00  0.00     0.160 A 
ATOM     10  C   UNL     1      96.161  96.574  81.439  1.00  0.00     0.157 A 
ATOM     11  C   UNL     1      95.588  95.045  79.631  1.00  0.00     0.056 A 
ATOM     12  C   UNL     1      96.898  97.358  80.533  1.00  0.00     0.050 A 
ATOM     13  C   UNL     1      96.983  96.984  79.179  1.00  0.00     0.009 A 
BRANCH   9  14
ATOM     14  O   UNL     1      94.868  94.585  81.883  1.00  0.00    -0.493 OA
ATOM     15  C   UNL     1      95.596  93.393  82.223  1.00  0.00     0.278 C 
ENDBRANCH   9  14
BRANCH  10  16
ATOM     16  O   UNL     1      96.091  96.967  82.736  1.00  0.00    -0.504 OA
ATOM     17  H   UNL     1      95.557  96.341  83.231  1.00  0.00     0.293 HD
ENDBRANCH  10  16
ENDBRANCH   7   8
ENDBRANCH   4   7
ENDBRANCH   2   3
ENDBRANCH   1   2
BRANCH   1  18
ATOM     18  C   UNL     1      92.028  93.301  77.262  1.00  0.00     0.001 C 
BRANCH  18  19
ATOM     19  C   UNL     1      90.526  92.926  77.194  1.00  0.00     0.004 C 
BRANCH  19  20
ATOM     20  C   UNL     1      90.222  91.651  78.030  1.00  0.00     0.027 C 
BRANCH  20  21
ATOM     21  C   UNL     1      89.773  90.523  77.232  1.00  0.00    -0.031 C 
ATOM     22  C   UNL     1      90.515  90.007  76.236  1.00  0.00    -0.028 C 
BRANCH  22  23
ATOM     23  C   UNL     1      90.094  88.871  75.420  1.00  0.00     0.005 C 
ATOM     24  C   UNL     1      89.919  89.306  73.941  1.00  0.00     0.012 C 
ATOM     25  C   UNL     1      91.101  87.698  75.573  1.00  0.00     0.012 C 
ENDBRANCH  22  23
ENDBRANCH  20  21
ENDBRANCH  19  20
ENDBRANCH  18  19
ENDBRANCH   1  18
TORSDOF 11
ENDMDL
MODEL 3
REMARK VINA RESULT:    -6.698      2.003      2.617
REMARK INTER + INTRA:         -11.882
REMARK INTER:                 -10.658
REMARK INTRA:                  -1.224
REMARK UNBOUND:                -1.072
REMARK SMILES COc1cc(CNC(=O)CCCCC/C=C/C(C)C)ccc1O
REMARK SMILES IDX 11 1 10 2 8 3 7 4 9 6 6 7 5 8 3 9 22 10 4 11 21 12 20 13
REMARK SMILES IDX 2 14 1 15 23 16 12 18 13 19 14 20 15 21 16 22 17 23 18 24
REMARK SMILES IDX 19 25
REMARK H PARENT 7 5 23 17
REMARK Flexibility Score: inf
ROOT
ATOM      1  C   UNL     1      90.069  93.353  76.765  1.00  0.00     0.010 C 
ENDROOT
BRANCH   1   2
ATOM      2  C   UNL     1      90.433  93.661  75.290  1.00  0.00     0.100 C 
BRANCH   2   3
ATOM      3  C   UNL     1      91.871  93.535  74.988  1.00  0.00     0.220 C 
ATOM      4  N   UNL     1      92.761  94.399  75.551  1.00  0.00    -0.352 N 
ATOM      5  H   UNL     1      92.341  95.137  76.100  1.00  0.00     0.163 HD
ATOM      6  O   UNL     1      92.244  92.597  74.244  1.00  0.00    -0.275 OA
BRANCH   4   7
ATOM      7  C   UNL     1      94.180  94.330  75.422  1.00  0.00     0.151 C 
BRANCH   7   8
ATOM      8  C   UNL     1      94.886  94.657  76.688  1.00  0.00    -0.025 A 
ATOM      9  C   UNL     1      96.781  95.682  77.873  1.00  0.00     0.160 A 
ATOM     10  C   UNL     1      96.256  95.229  79.103  1.00  0.00     0.157 A 
ATOM     11  C   UNL     1      96.099  95.385  76.676  1.00  0.00     0.056 A 
ATOM     12  C   UNL     1      95.041  94.519  79.128  1.00  0.00     0.050 A 
ATOM     13  C   UNL     1      94.356  94.244  77.931  1.00  0.00     0.009 A 
BRANCH   9  14
ATOM     14  O   UNL     1      97.916  96.449  77.846  1.00  0.00    -0.493 OA
ATOM     15  C   UNL     1      99.033  95.823  77.192  1.00  0.00     0.278 C 
ENDBRANCH   9  14
BRANCH  10  16
ATOM     16  O   UNL     1      96.896  95.470  80.275  1.00  0.00    -0.504 OA
ATOM     17  H   UNL     1      97.636  96.061  80.119  1.00  0.00     0.293 HD
ENDBRANCH  10  16
ENDBRANCH   7   8
ENDBRANCH   4   7
ENDBRANCH   2   3
ENDBRANCH   1   2
BRANCH   1  18
ATOM     18  C   UNL     1      90.539  91.934  77.174  1.00  0.00     0.001 C 
BRANCH  18  19
ATOM     19  C   UNL     1      89.496  90.825  76.884  1.00  0.00     0.004 C 
BRANCH  19  20
ATOM     20  C   UNL     1      90.068  89.745  75.924  1.00  0.00     0.027 C 
BRANCH  20  21
ATOM     21  C   UNL     1      89.346  89.637  74.668  1.00  0.00    -0.031 C 
ATOM     22  C   UNL     1      89.582  90.459  73.630  1.00  0.00    -0.028 C 
BRANCH  22  23
ATOM     23  C   UNL     1      88.878  90.374  72.353  1.00  0.00     0.005 C 
ATOM     24  C   UNL     1      87.819  91.503  72.246  1.00  0.00     0.012 C 
ATOM     25  C   UNL     1      89.892  90.403  71.178  1.00  0.00     0.012 C 
ENDBRANCH  22  23
ENDBRANCH  20  21
ENDBRANCH  19  20
ENDBRANCH  18  19
ENDBRANCH   1  18
TORSDOF 11
ENDMDL
MODEL 4
REMARK VINA RESULT:    -6.399      2.296      3.724
REMARK INTER + INTRA:         -11.399
REMARK INTER:                 -10.635
REMARK INTRA:                  -0.764
REMARK UNBOUND:                -1.072
REMARK SMILES COc1cc(CNC(=O)CCCCC/C=C/C(C)C)ccc1O
REMARK SMILES IDX 11 1 10 2 8 3 7 4 9 6 6 7 5 8 3 9 22 10 4 11 21 12 20 13
REMARK SMILES IDX 2 14 1 15 23 16 12 18 13 19 14 20 15 21 16 22 17 23 18 24
REMARK SMILES IDX 19 25
REMARK H PARENT 7 5 23 17
REMARK Flexibility Score: inf
ROOT
ATOM      1  C   UNL     1      90.426  92.053  77.698  1.00  0.00     0.010 C 
ENDROOT
BRANCH   1   2
ATOM      2  C   UNL     1      89.892  93.221  76.830  1.00  0.00     0.100 C 
BRANCH   2   3
ATOM      3  C   UNL     1      90.820  93.653  75.769  1.00  0.00     0.220 C 
ATOM      4  N   UNL     1      91.824  94.526  76.060  1.00  0.00    -0.352 N 
ATOM      5  H   UNL     1      91.812  94.882  77.006  1.00  0.00     0.163 HD
ATOM      6  O   UNL     1      90.681  93.166  74.622  1.00  0.00    -0.275 OA
BRANCH   4   7
ATOM      7  C   UNL     1      92.843  94.949  75.156  1.00  0.00     0.151 C 
BRANCH   7   8
ATOM      8  C   UNL     1      94.174  95.065  75.808  1.00  0.00    -0.025 A 
ATOM      9  C   UNL     1      95.658  94.642  77.722  1.00  0.00     0.160 A 
ATOM     10  C   UNL     1      96.698  95.338  77.068  1.00  0.00     0.157 A 
ATOM     11  C   UNL     1      94.403  94.519  77.092  1.00  0.00     0.056 A 
ATOM     12  C   UNL     1      96.487  95.870  75.784  1.00  0.00     0.050 A 
ATOM     13  C   UNL     1      95.237  95.726  75.153  1.00  0.00     0.009 A 
BRANCH   9  14
ATOM     14  O   UNL     1      95.880  94.045  78.935  1.00  0.00    -0.493 OA
ATOM     15  C   UNL     1      95.415  94.808  80.060  1.00  0.00     0.278 C 
ENDBRANCH   9  14
BRANCH  10  16
ATOM     16  O   UNL     1      97.912  95.503  77.652  1.00  0.00    -0.504 OA
ATOM     17  H   UNL     1      97.997  94.893  78.389  1.00  0.00     0.293 HD
ENDBRANCH  10  16
ENDBRANCH   7   8
ENDBRANCH   4   7
ENDBRANCH   2   3
ENDBRANCH   1   2
BRANCH   1  18
ATOM     18  C   UNL     1      90.709  90.797  76.834  1.00  0.00     0.001 C 
BRANCH  18  19
ATOM     19  C   UNL     1      89.615  89.705  76.946  1.00  0.00     0.004 C 
BRANCH  19  20
ATOM     20  C   UNL     1      89.732  88.666  75.795  1.00  0.00     0.027 C 
BRANCH  20  21
ATOM     21  C   UNL     1      89.227  89.147  74.520  1.00  0.00    -0.031 C 
ATOM     22  C   UNL     1      88.719  90.383  74.368  1.00  0.00    -0.028 C 
BRANCH  22  23
ATOM     23  C   UNL     1      88.209  90.899  73.100  1.00  0.00     0.005 C 
ATOM     24  C   UNL     1      89.333  90.902  72.030  1.00  0.00     0.012 C 
ATOM     25  C   UNL     1      86.968  90.082  72.649  1.00  0.00     0.012 C 
ENDBRANCH  22  23
ENDBRANCH  20  21
ENDBRANCH  19  20
ENDBRANCH  18  19
ENDBRANCH   1  18
TORSDOF 11
ENDMDL
MODEL 5
REMARK VINA RESULT:    -6.344     13.384     15.626
REMARK INTER + INTRA:         -11.310
REMARK INTER:                  -8.871
REMARK INTRA:                  -2.439
REMARK UNBOUND:                -1.072
REMARK SMILES COc1cc(CNC(=O)CCCCC/C=C/C(C)C)ccc1O
REMARK SMILES IDX 11 1 10 2 8 3 7 4 9 6 6 7 5 8 3 9 22 10 4 11 21 12 20 13
REMARK SMILES IDX 2 14 1 15 23 16 12 18 13 19 14 20 15 21 16 22 17 23 18 24
REMARK SMILES IDX 19 25
REMARK H PARENT 7 5 23 17
REMARK Flexibility Score: inf
ROOT
ATOM      1  C   UNL     1      81.641  86.394  88.768  1.00  0.00     0.010 C 
ENDROOT
BRANCH   1   2
ATOM      2  C   UNL     1      81.581  85.788  87.342  1.00  0.00     0.100 C 
BRANCH   2   3
ATOM      3  C   UNL     1      82.534  86.392  86.393  1.00  0.00     0.220 C 
ATOM      4  N   UNL     1      82.967  87.669  86.586  1.00  0.00    -0.352 N 
ATOM      5  H   UNL     1      82.528  88.150  87.359  1.00  0.00     0.163 HD
ATOM      6  O   UNL     1      82.956  85.689  85.444  1.00  0.00    -0.275 OA
BRANCH   4   7
ATOM      7  C   UNL     1      83.955  88.337  85.804  1.00  0.00     0.151 C 
BRANCH   7   8
ATOM      8  C   UNL     1      84.083  89.776  86.151  1.00  0.00    -0.025 A 
ATOM      9  C   UNL     1      83.682  91.643  87.701  1.00  0.00     0.160 A 
ATOM     10  C   UNL     1      84.282  92.532  86.784  1.00  0.00     0.157 A 
ATOM     11  C   UNL     1      83.578  90.275  87.375  1.00  0.00     0.056 A 
ATOM     12  C   UNL     1      84.803  92.044  85.572  1.00  0.00     0.050 A 
ATOM     13  C   UNL     1      84.714  90.674  85.262  1.00  0.00     0.009 A 
BRANCH   9  14
ATOM     14  O   UNL     1      83.251  92.093  88.921  1.00  0.00    -0.493 OA
ATOM     15  C   UNL     1      83.526  91.195  90.009  1.00  0.00     0.278 C 
ENDBRANCH   9  14
BRANCH  10  16
ATOM     16  O   UNL     1      84.376  93.860  87.047  1.00  0.00    -0.504 OA
ATOM     17  H   UNL     1      83.501  94.212  87.229  1.00  0.00     0.293 HD
ENDBRANCH  10  16
ENDBRANCH   7   8
ENDBRANCH   4   7
ENDBRANCH   2   3
ENDBRANCH   1   2
BRANCH   1  18
ATOM     18  C   UNL     1      80.393  87.266  89.058  1.00  0.00     0.001 C 
BRANCH  18  19
ATOM     19  C   UNL     1      80.732  88.705  89.522  1.00  0.00     0.004 C 
BRANCH  19  20
ATOM     20  C   UNL     1      80.115  89.768  88.571  1.00  0.00     0.027 C 
BRANCH  20  21
ATOM     21  C   UNL     1      79.940  89.300  87.207  1.00  0.00    -0.031 C 
ATOM     22  C   UNL     1      80.177  90.086  86.141  1.00  0.00    -0.028 C 
BRANCH  22  23
ATOM     23  C   UNL     1      80.017  89.644  84.758  1.00  0.00     0.005 C 
ATOM     24  C   UNL     1      81.264  90.033  83.921  1.00  0.00     0.012 C 
ATOM     25  C   UNL     1      79.728  88.119  84.712  1.00  0.00     0.012 C 
ENDBRANCH  22  23
ENDBRANCH  20  21
ENDBRANCH  19  20
ENDBRANCH  18  19
ENDBRANCH   1  18
TORSDOF 11
ENDMDL
MODEL 6
REMARK VINA RESULT:    -5.915      1.562      2.226
REMARK INTER + INTRA:         -10.617
REMARK INTER:                  -9.922
REMARK INTRA:                  -0.695
REMARK UNBOUND:                -1.072
REMARK SMILES COc1cc(CNC(=O)CCCCC/C=C/C(C)C)ccc1O
REMARK SMILES IDX 11 1 10 2 8 3 7 4 9 6 6 7 5 8 3 9 22 10 4 11 21 12 20 13
REMARK SMILES IDX 2 14 1 15 23 16 12 18 13 19 14 20 15 21 16 22 17 23 18 24
REMARK SMILES IDX 19 25
REMARK H PARENT 7 5 23 17
REMARK Flexibility Score: inf
ROOT
ATOM      1  C   UNL     1      93.143  93.771  77.034  1.00  0.00     0.010 C 
ENDROOT
BRANCH   1   2
ATOM      2  C   UNL     1      94.300  93.748  76.002  1.00  0.00     0.100 C 
BRANCH   2   3
ATOM      3  C   UNL     1      95.619  94.083  76.571  1.00  0.00     0.220 C 
ATOM      4  N   UNL     1      95.739  95.133  77.429  1.00  0.00    -0.352 N 
ATOM      5  H   UNL     1      94.893  95.669  77.561  1.00  0.00     0.163 HD
ATOM      6  O   UNL     1      96.597  93.357  76.275  1.00  0.00    -0.275 OA
BRANCH   4   7
ATOM      7  C   UNL     1      96.929  95.505  78.123  1.00  0.00     0.151 C 
BRANCH   7   8
ATOM      8  C   UNL     1      96.689  95.780  79.564  1.00  0.00    -0.025 A 
ATOM      9  C   UNL     1      97.393  96.794  81.691  1.00  0.00     0.160 A 
ATOM     10  C   UNL     1      96.253  96.254  82.324  1.00  0.00     0.157 A 
ATOM     11  C   UNL     1      97.607  96.546  80.320  1.00  0.00     0.056 A 
ATOM     12  C   UNL     1      95.324  95.505  81.579  1.00  0.00     0.050 A 
ATOM     13  C   UNL     1      95.536  95.278  80.206  1.00  0.00     0.009 A 
BRANCH   9  14
ATOM     14  O   UNL     1      98.256  97.598  82.387  1.00  0.00    -0.493 OA
ATOM     15  C   UNL     1      99.450  96.932  82.831  1.00  0.00     0.278 C 
ENDBRANCH   9  14
BRANCH  10  16
ATOM     16  O   UNL     1      96.024  96.446  83.648  1.00  0.00    -0.504 OA
ATOM     17  H   UNL     1      95.607  97.300  83.780  1.00  0.00     0.293 HD
ENDBRANCH  10  16
ENDBRANCH   7   8
ENDBRANCH   4   7
ENDBRANCH   2   3
ENDBRANCH   1   2
BRANCH   1  18
ATOM     18  C   UNL     1      91.866  93.107  76.458  1.00  0.00     0.001 C 
BRANCH  18  19
ATOM     19  C   UNL     1      91.777  93.164  74.912  1.00  0.00     0.004 C 
BRANCH  19  20
ATOM     20  C   UNL     1      92.034  91.769  74.277  1.00  0.00     0.027 C 
BRANCH  20  21
ATOM     21  C   UNL     1      90.820  91.017  74.008  1.00  0.00    -0.031 C 
ATOM     22  C   UNL     1      90.102  90.438  74.987  1.00  0.00    -0.028 C 
BRANCH  22  23
ATOM     23  C   UNL     1      88.875  89.681  74.751  1.00  0.00     0.005 C 
ATOM     24  C   UNL     1      88.247  90.084  73.390  1.00  0.00     0.012 C 
ATOM     25  C   UNL     1      89.159  88.157  74.840  1.00  0.00     0.012 C 
ENDBRANCH  22  23
ENDBRANCH  20  21
ENDBRANCH  19  20
ENDBRANCH  18  19
ENDBRANCH   1  18
TORSDOF 11
ENDMDL
MODEL 7
REMARK VINA RESULT:    -5.750      4.443      8.348
REMARK INTER + INTRA:         -10.351
REMARK INTER:                  -9.603
REMARK INTRA:                  -0.748
REMARK UNBOUND:                -1.072
REMARK SMILES COc1cc(CNC(=O)CCCCC/C=C/C(C)C)ccc1O
REMARK SMILES IDX 11 1 10 2 8 3 7 4 9 6 6 7 5 8 3 9 22 10 4 11 21 12 20 13
REMARK SMILES IDX 2 14 1 15 23 16 12 18 13 19 14 20 15 21 16 22 17 23 18 24
REMARK SMILES IDX 19 25
REMARK H PARENT 7 5 23 17
REMARK Flexibility Score: inf
ROOT
ATOM      1  C   UNL     1      96.099  95.320  76.540  1.00  0.00     0.010 C 
ENDROOT
BRANCH   1   2
ATOM      2  C   UNL     1      95.096  94.327  75.899  1.00  0.00     0.100 C 
BRANCH   2   3
ATOM      3  C   UNL     1      93.751  94.357  76.504  1.00  0.00     0.220 C 
ATOM      4  N   UNL     1      92.648  94.298  75.707  1.00  0.00    -0.352 N 
ATOM      5  H   UNL     1      92.843  94.311  74.716  1.00  0.00     0.163 HD
ATOM      6  O   UNL     1      93.661  94.396  77.754  1.00  0.00    -0.275 OA
BRANCH   4   7
ATOM      7  C   UNL     1      91.299  94.221  76.164  1.00  0.00     0.151 C 
BRANCH   7   8
ATOM      8  C   UNL     1      90.876  92.830  76.470  1.00  0.00    -0.025 A 
ATOM      9  C   UNL     1      90.155  90.602  75.717  1.00  0.00     0.160 A 
ATOM     10  C   UNL     1      90.018  90.193  77.061  1.00  0.00     0.157 A 
ATOM     11  C   UNL     1      90.573  91.918  75.431  1.00  0.00     0.056 A 
ATOM     12  C   UNL     1      90.333  91.086  78.102  1.00  0.00     0.050 A 
ATOM     13  C   UNL     1      90.769  92.392  77.808  1.00  0.00     0.009 A 
BRANCH   9  14
ATOM     14  O   UNL     1      89.936  89.715  74.697  1.00  0.00    -0.493 OA
ATOM     15  C   UNL     1      90.362  90.184  73.407  1.00  0.00     0.278 C 
ENDBRANCH   9  14
BRANCH  10  16
ATOM     16  O   UNL     1      89.592  88.945  77.378  1.00  0.00    -0.504 OA
ATOM     17  H   UNL     1      89.808  88.342  76.663  1.00  0.00     0.293 HD
ENDBRANCH  10  16
ENDBRANCH   7   8
ENDBRANCH   4   7
ENDBRANCH   2   3
ENDBRANCH   1   2
BRANCH   1  18
ATOM     18  C   UNL     1      96.254  96.596  75.674  1.00  0.00     0.001 C 
BRANCH  18  19
ATOM     19  C   UNL     1      96.519  96.302  74.175  1.00  0.00     0.004 C 
BRANCH  19  20
ATOM     20  C   UNL     1      98.025  96.456  73.824  1.00  0.00     0.027 C 
BRANCH  20  21
ATOM     21  C   UNL     1      98.270  96.782  72.429  1.00  0.00    -0.031 C 
ATOM     22  C   UNL     1      97.638  96.152  71.423  1.00  0.00    -0.028 C 
BRANCH  22  23
ATOM     23  C   UNL     1      97.857  96.460  70.012  1.00  0.00     0.005 C 
ATOM     24  C   UNL     1      98.901  95.485  69.405  1.00  0.00     0.012 C 
ATOM     25  C   UNL     1      96.510  96.435  69.241  1.00  0.00     0.012 C 
ENDBRANCH  22  23
ENDBRANCH  20  21
ENDBRANCH  19  20
ENDBRANCH  18  19
ENDBRANCH   1  18
TORSDOF 11
ENDMDL
MODEL 8
REMARK VINA RESULT:    -5.652     35.587     39.749
REMARK INTER + INTRA:         -10.192
REMARK INTER:                  -9.419
REMARK INTRA:                  -0.774
REMARK UNBOUND:                -1.072
REMARK SMILES COc1cc(CNC(=O)CCCCC/C=C/C(C)C)ccc1O
REMARK SMILES IDX 11 1 10 2 8 3 7 4 9 6 6 7 5 8 3 9 22 10 4 11 21 12 20 13
REMARK SMILES IDX 2 14 1 15 23 16 12 18 13 19 14 20 15 21 16 22 17 23 18 24
REMARK SMILES IDX 19 25
REMARK H PARENT 7 5 23 17
REMARK Flexibility Score: inf
ROOT
ATOM      1  C   UNL     1      70.630  63.110  82.013  1.00  0.00     0.010 C 
ENDROOT
BRANCH   1   2
ATOM      2  C   UNL     1      70.034  63.670  80.695  1.00  0.00     0.100 C 
BRANCH   2   3
ATOM      3  C   UNL     1      68.802  64.459  80.880  1.00  0.00     0.220 C 
ATOM      4  N   UNL     1      67.601  63.827  80.985  1.00  0.00    -0.352 N 
ATOM      5  H   UNL     1      67.639  62.826  80.851  1.00  0.00     0.163 HD
ATOM      6  O   UNL     1      68.902  65.705  80.978  1.00  0.00    -0.275 OA
BRANCH   4   7
ATOM      7  C   UNL     1      66.352  64.459  81.262  1.00  0.00     0.151 C 
BRANCH   7   8
ATOM      8  C   UNL     1      65.321  64.162  80.234  1.00  0.00    -0.025 A 
ATOM      9  C   UNL     1      63.036  63.476  79.636  1.00  0.00     0.160 A 
ATOM     10  C   UNL     1      63.374  63.545  78.267  1.00  0.00     0.157 A 
ATOM     11  C   UNL     1      64.013  63.775  80.608  1.00  0.00     0.056 A 
ATOM     12  C   UNL     1      64.668  63.945  77.883  1.00  0.00     0.050 A 
ATOM     13  C   UNL     1      65.631  64.261  78.859  1.00  0.00     0.009 A 
BRANCH   9  14
ATOM     14  O   UNL     1      61.756  63.173  80.019  1.00  0.00    -0.493 OA
ATOM     15  C   UNL     1      60.974  64.314  80.409  1.00  0.00     0.278 C 
ENDBRANCH   9  14
BRANCH  10  16
ATOM     16  O   UNL     1      62.472  63.238  77.302  1.00  0.00    -0.504 OA
ATOM     17  H   UNL     1      62.696  62.387  76.915  1.00  0.00     0.293 HD
ENDBRANCH  10  16
ENDBRANCH   7   8
ENDBRANCH   4   7
ENDBRANCH   2   3
ENDBRANCH   1   2
BRANCH   1  18
ATOM     18  C   UNL     1      71.879  63.917  82.449  1.00  0.00     0.001 C 
BRANCH  18  19
ATOM     19  C   UNL     1      73.221  63.241  82.070  1.00  0.00     0.004 C 
BRANCH  19  20
ATOM     20  C   UNL     1      73.937  64.006  80.922  1.00  0.00     0.027 C 
BRANCH  20  21
ATOM     21  C   UNL     1      74.683  65.169  81.371  1.00  0.00    -0.031 C 
ATOM     22  C   UNL     1      75.549  65.115  82.399  1.00  0.00    -0.028 C 
BRANCH  22  23
ATOM     23  C   UNL     1      76.318  66.264  82.871  1.00  0.00     0.005 C 
ATOM     24  C   UNL     1      77.776  65.841  83.193  1.00  0.00     0.012 C 
ATOM     25  C   UNL     1      76.254  67.416  81.831  1.00  0.00     0.012 C 
ENDBRANCH  22  23
ENDBRANCH  20  21
ENDBRANCH  19  20
ENDBRANCH  18  19
ENDBRANCH   1  18
TORSDOF 11
ENDMDL
MODEL 9
REMARK VINA RESULT:    -5.621     13.384     15.210
REMARK INTER + INTRA:         -10.143
REMARK INTER:                  -8.586
REMARK INTRA:                  -1.557
REMARK UNBOUND:                -1.072
REMARK SMILES COc1cc(CNC(=O)CCCCC/C=C/C(C)C)ccc1O
REMARK SMILES IDX 11 1 10 2 8 3 7 4 9 6 6 7 5 8 3 9 22 10 4 11 21 12 20 13
REMARK SMILES IDX 2 14 1 15 23 16 12 18 13 19 14 20 15 21 16 22 17 23 18 24
REMARK SMILES IDX 19 25
REMARK H PARENT 7 5 23 17
REMARK Flexibility Score: inf
ROOT
ATOM      1  C   UNL     1      99.179  82.148  74.899  1.00  0.00     0.010 C 
ENDROOT
BRANCH   1   2
ATOM      2  C   UNL     1      97.645  82.193  75.120  1.00  0.00     0.100 C 
BRANCH   2   3
ATOM      3  C   UNL     1      97.235  82.929  76.331  1.00  0.00     0.220 C 
ATOM      4  N   UNL     1      96.744  82.250  77.404  1.00  0.00    -0.352 N 
ATOM      5  H   UNL     1      96.627  81.257  77.256  1.00  0.00     0.163 HD
ATOM      6  O   UNL     1      97.389  84.174  76.352  1.00  0.00    -0.275 OA
BRANCH   4   7
ATOM      7  C   UNL     1      96.404  82.824  78.665  1.00  0.00     0.151 C 
BRANCH   7   8
ATOM      8  C   UNL     1      97.351  82.440  79.743  1.00  0.00    -0.025 A 
ATOM      9  C   UNL     1      97.775  81.690  82.047  1.00  0.00     0.160 A 
ATOM     10  C   UNL     1      99.165  81.761  81.813  1.00  0.00     0.157 A 
ATOM     11  C   UNL     1      96.879  82.039  81.015  1.00  0.00     0.056 A 
ATOM     12  C   UNL     1      99.645  82.142  80.547  1.00  0.00     0.050 A 
ATOM     13  C   UNL     1      98.745  82.470  79.516  1.00  0.00     0.009 A 
BRANCH   9  14
ATOM     14  O   UNL     1      97.297  81.236  83.247  1.00  0.00    -0.493 OA
ATOM     15  C   UNL     1      96.641  79.959  83.173  1.00  0.00     0.278 C 
ENDBRANCH   9  14
BRANCH  10  16
ATOM     16  O   UNL     1     100.060  81.461  82.787  1.00  0.00    -0.504 OA
ATOM     17  H   UNL     1     100.034  80.518  82.967  1.00  0.00     0.293 HD
ENDBRANCH  10  16
ENDBRANCH   7   8
ENDBRANCH   4   7
ENDBRANCH   2   3
ENDBRANCH   1   2
BRANCH   1  18
ATOM     18  C   UNL     1      99.883  81.342  76.021  1.00  0.00     0.001 C 
BRANCH  18  19
ATOM     19  C   UNL     1     101.135  82.046  76.601  1.00  0.00     0.004 C 
BRANCH  19  20
ATOM     20  C   UNL     1     102.242  81.019  76.971  1.00  0.00     0.027 C 
BRANCH  20  21
ATOM     21  C   UNL     1     102.298  80.707  78.389  1.00  0.00    -0.031 C 
ATOM     22  C   UNL     1     103.440  80.341  79.000  1.00  0.00    -0.028 C 
BRANCH  22  23
ATOM     23  C   UNL     1     103.531  80.026  80.423  1.00  0.00     0.005 C 
ATOM     24  C   UNL     1     102.232  79.325  80.903  1.00  0.00     0.012 C 
ATOM     25  C   UNL     1     104.799  79.176  80.705  1.00  0.00     0.012 C 
ENDBRANCH  22  23
ENDBRANCH  20  21
ENDBRANCH  19  20
ENDBRANCH  18  19
ENDBRANCH   1  18
TORSDOF 11
ENDMDL
MODEL 10
REMARK VINA RESULT:    -5.441      5.329      7.324
REMARK INTER + INTRA:          -9.852
REMARK INTER:                  -9.028
REMARK INTRA:                  -0.824
REMARK UNBOUND:                -1.072
REMARK SMILES COc1cc(CNC(=O)CCCCC/C=C/C(C)C)ccc1O
REMARK SMILES IDX 11 1 10 2 8 3 7 4 9 6 6 7 5 8 3 9 22 10 4 11 21 12 20 13
REMARK SMILES IDX 2 14 1 15 23 16 12 18 13 19 14 20 15 21 16 22 17 23 18 24
REMARK SMILES IDX 19 25
REMARK H PARENT 7 5 23 17
REMARK Flexibility Score: inf
ROOT
ATOM      1  C   UNL     1      93.636 100.834  72.252  1.00  0.00     0.010 C 
ENDROOT
BRANCH   1   2
ATOM      2  C   UNL     1      93.315  99.913  73.457  1.00  0.00     0.100 C 
BRANCH   2   3
ATOM      3  C   UNL     1      94.397  98.971  73.799  1.00  0.00     0.220 C 
ATOM      4  N   UNL     1      94.124  97.644  73.930  1.00  0.00    -0.352 N 
ATOM      5  H   UNL     1      93.146  97.404  73.850  1.00  0.00     0.163 HD
ATOM      6  O   UNL     1      95.561  99.421  73.920  1.00  0.00    -0.275 OA
BRANCH   4   7
ATOM      7  C   UNL     1      95.089  96.618  74.160  1.00  0.00     0.151 C 
BRANCH   7   8
ATOM      8  C   UNL     1      94.758  95.776  75.339  1.00  0.00    -0.025 A 
ATOM      9  C   UNL     1      93.146  94.426  76.615  1.00  0.00     0.160 A 
ATOM     10  C   UNL     1      94.117  94.216  77.618  1.00  0.00     0.157 A 
ATOM     11  C   UNL     1      93.470  95.210  75.490  1.00  0.00     0.056 A 
ATOM     12  C   UNL     1      95.406  94.759  77.471  1.00  0.00     0.050 A 
ATOM     13  C   UNL     1      95.728  95.525  76.335  1.00  0.00     0.009 A 
BRANCH   9  14
ATOM     14  O   UNL     1      91.916  93.829  76.706  1.00  0.00    -0.493 OA
ATOM     15  C   UNL     1      90.833  94.639  76.220  1.00  0.00     0.278 C 
ENDBRANCH   9  14
BRANCH  10  16
ATOM     16  O   UNL     1      93.837  93.491  78.730  1.00  0.00    -0.504 OA
ATOM     17  H   UNL     1      93.814  92.557  78.506  1.00  0.00     0.293 HD
ENDBRANCH  10  16
ENDBRANCH   7   8
ENDBRANCH   4   7
ENDBRANCH   2   3
ENDBRANCH   1   2
BRANCH   1  18
ATOM     18  C   UNL     1      93.842 100.008  70.956  1.00  0.00     0.001 C 
BRANCH  18  19
ATOM     19  C   UNL     1      92.530  99.735  70.176  1.00  0.00     0.004 C 
BRANCH  19  20
ATOM     20  C   UNL     1      92.019  98.287  70.417  1.00  0.00     0.027 C 
BRANCH  20  21
ATOM     21  C   UNL     1      91.124  97.803  69.379  1.00  0.00    -0.031 C 
ATOM     22  C   UNL     1      90.444  98.636  68.571  1.00  0.00    -0.028 C 
BRANCH  22  23
ATOM     23  C   UNL     1      89.542  98.182  67.515  1.00  0.00     0.005 C 
ATOM     24  C   UNL     1      89.517  99.207  66.351  1.00  0.00     0.012 C 
ATOM     25  C   UNL     1      89.946  96.760  67.039  1.00  0.00     0.012 C 
ENDBRANCH  22  23
ENDBRANCH  20  21
ENDBRANCH  19  20
ENDBRANCH  18  19
ENDBRANCH   1  18
TORSDOF 11
ENDMDL
