MODEL 1
REMARK VINA RESULT:    -6.287      0.000      0.000
REMARK INTER + INTRA:         -10.368
REMARK INTER:                  -9.779
REMARK INTRA:                  -0.589
REMARK UNBOUND:                -0.589
REMARK SMILES COc1cc(CNC(=O)CCCCCC(C)C)ccc1O
REMARK SMILES IDX 10 1 8 2 7 3 9 5 6 6 5 7 3 8 20 9 4 10 19 11 18 12 2 13 1 14
REMARK SMILES IDX 21 15 11 17 12 18 13 19 14 20 15 21 16 22 17 23
REMARK H PARENT 7 4 21 16
REMARK Flexibility Score: inf
ROOT
ATOM      1  C   UNL     1      91.871  75.094  81.536  1.00  0.00     0.100 C 
ENDROOT
BRANCH   1   2
ATOM      2  C   UNL     1      90.846  75.287  82.583  1.00  0.00     0.220 C 
ATOM      3  N   UNL     1      90.944  76.353  83.427  1.00  0.00    -0.352 N 
ATOM      4  H   UNL     1      91.806  76.875  83.354  1.00  0.00     0.163 HD
ATOM      5  O   UNL     1      89.882  74.486  82.647  1.00  0.00    -0.275 OA
BRANCH   3   6
ATOM      6  C   UNL     1      89.943  76.755  84.363  1.00  0.00     0.151 C 
BRANCH   6   7
ATOM      7  C   UNL     1      89.606  78.202  84.273  1.00  0.00    -0.025 A 
ATOM      8  C   UNL     1      90.312  80.543  84.011  1.00  0.00     0.160 A 
ATOM      9  C   UNL     1      88.961  80.950  84.036  1.00  0.00     0.157 A 
ATOM     10  C   UNL     1      90.627  79.174  84.149  1.00  0.00     0.056 A 
ATOM     11  C   UNL     1      87.940  79.994  84.186  1.00  0.00     0.050 A 
ATOM     12  C   UNL     1      88.259  78.630  84.298  1.00  0.00     0.009 A 
BRANCH   8  13
ATOM     13  O   UNL     1      91.322  81.459  83.886  1.00  0.00    -0.493 OA
ATOM     14  C   UNL     1      92.327  81.363  84.914  1.00  0.00     0.278 C 
ENDBRANCH   8  13
BRANCH   9  15
ATOM     15  O   UNL     1      88.648  82.263  83.906  1.00  0.00    -0.504 OA
ATOM     16  H   UNL     1      87.854  82.352  83.374  1.00  0.00     0.293 HD
ENDBRANCH   9  15
ENDBRANCH   6   7
ENDBRANCH   3   6
ENDBRANCH   1   2
BRANCH   1  17
ATOM     17  C   UNL     1      91.430  75.553  80.120  1.00  0.00     0.010 C 
BRANCH  17  18
ATOM     18  C   UNL     1      91.641  74.433  79.063  1.00  0.00     0.001 C 
BRANCH  18  19
ATOM     19  C   UNL     1      91.413  74.911  77.605  1.00  0.00     0.000 C 
BRANCH  19  20
ATOM     20  C   UNL     1      91.074  76.428  77.529  1.00  0.00     0.003 C 
BRANCH  20  21
ATOM     21  C   UNL     1      91.289  77.083  76.126  1.00  0.00    -0.017 C 
ATOM     22  C   UNL     1      91.635  78.595  76.266  1.00  0.00     0.007 C 
ATOM     23  C   UNL     1      90.066  76.901  75.180  1.00  0.00     0.007 C 
ENDBRANCH  20  21
ENDBRANCH  19  20
ENDBRANCH  18  19
ENDBRANCH  17  18
ENDBRANCH   1  17
TORSDOF 10
ENDMDL
MODEL 2
REMARK VINA RESULT:    -5.968      5.518      7.639
REMARK INTER + INTRA:          -9.871
REMARK INTER:                  -9.308
REMARK INTRA:                  -0.563
REMARK UNBOUND:                -0.589
REMARK SMILES COc1cc(CNC(=O)CCCCCC(C)C)ccc1O
REMARK SMILES IDX 10 1 8 2 7 3 9 5 6 6 5 7 3 8 20 9 4 10 19 11 18 12 2 13 1 14
REMARK SMILES IDX 21 15 11 17 12 18 13 19 14 20 15 21 16 22 17 23
REMARK H PARENT 7 4 21 16
REMARK Flexibility Score: inf
ROOT
ATOM      1  C   UNL     1      97.243  82.225  80.983  1.00  0.00     0.100 C 
ENDROOT
BRANCH   1   2
ATOM      2  C   UNL     1      96.520  82.602  82.215  1.00  0.00     0.220 C 
ATOM      3  N   UNL     1      96.192  81.638  83.121  1.00  0.00    -0.352 N 
ATOM      4  H   UNL     1      96.359  80.691  82.813  1.00  0.00     0.163 HD
ATOM      5  O   UNL     1      96.258  83.813  82.420  1.00  0.00    -0.275 OA
BRANCH   3   6
ATOM      6  C   UNL     1      95.653  81.881  84.420  1.00  0.00     0.151 C 
BRANCH   6   7
ATOM      7  C   UNL     1      94.205  81.555  84.522  1.00  0.00    -0.025 A 
ATOM      8  C   UNL     1      92.409  79.912  84.873  1.00  0.00     0.160 A 
ATOM      9  C   UNL     1      91.451  80.944  84.783  1.00  0.00     0.157 A 
ATOM     10  C   UNL     1      93.778  80.221  84.723  1.00  0.00     0.056 A 
ATOM     11  C   UNL     1      91.863  82.270  84.557  1.00  0.00     0.050 A 
ATOM     12  C   UNL     1      93.229  82.575  84.434  1.00  0.00     0.009 A 
BRANCH   8  13
ATOM     13  O   UNL     1      92.028  78.611  85.072  1.00  0.00    -0.493 OA
ATOM     14  C   UNL     1      91.972  77.829  83.864  1.00  0.00     0.278 C 
ENDBRANCH   8  13
BRANCH   9  15
ATOM     15  O   UNL     1      90.132  80.657  84.924  1.00  0.00    -0.504 OA
ATOM     16  H   UNL     1      89.728  80.577  84.057  1.00  0.00     0.293 HD
ENDBRANCH   9  15
ENDBRANCH   6   7
ENDBRANCH   3   6
ENDBRANCH   1   2
BRANCH   1  17
ATOM     17  C   UNL     1      97.036  83.203  79.795  1.00  0.00     0.010 C 
BRANCH  17  18
ATOM     18  C   UNL     1      97.236  82.494  78.428  1.00  0.00     0.001 C 
BRANCH  18  19
ATOM     19  C   UNL     1      98.314  83.166  77.537  1.00  0.00     0.000 C 
BRANCH  19  20
ATOM     20  C   UNL     1      98.026  82.976  76.019  1.00  0.00     0.003 C 
BRANCH  20  21
ATOM     21  C   UNL     1      97.829  84.301  75.214  1.00  0.00    -0.017 C 
ATOM     22  C   UNL     1      96.577  85.078  75.720  1.00  0.00     0.007 C 
ATOM     23  C   UNL     1      97.727  84.066  73.679  1.00  0.00     0.007 C 
ENDBRANCH  20  21
ENDBRANCH  19  20
ENDBRANCH  18  19
ENDBRANCH  17  18
ENDBRANCH   1  17
TORSDOF 10
ENDMDL
MODEL 3
REMARK VINA RESULT:    -5.822     19.406     21.860
REMARK INTER + INTRA:          -9.645
REMARK INTER:                  -8.626
REMARK INTRA:                  -1.019
REMARK UNBOUND:                -0.589
REMARK SMILES COc1cc(CNC(=O)CCCCCC(C)C)ccc1O
REMARK SMILES IDX 10 1 8 2 7 3 9 5 6 6 5 7 3 8 20 9 4 10 19 11 18 12 2 13 1 14
REMARK SMILES IDX 21 15 11 17 12 18 13 19 14 20 15 21 16 22 17 23
REMARK H PARENT 7 4 21 16
REMARK Flexibility Score: inf
ROOT
ATOM      1  C   UNL     1      94.258  99.730  73.743  1.00  0.00     0.100 C 
ENDROOT
BRANCH   1   2
ATOM      2  C   UNL     1      94.496  98.689  74.764  1.00  0.00     0.220 C 
ATOM      3  N   UNL     1      94.055  97.419  74.541  1.00  0.00    -0.352 N 
ATOM      4  H   UNL     1      93.467  97.310  73.728  1.00  0.00     0.163 HD
ATOM      5  O   UNL     1      95.138  98.989  75.800  1.00  0.00    -0.275 OA
BRANCH   3   6
ATOM      6  C   UNL     1      94.365  96.287  75.355  1.00  0.00     0.151 C 
BRANCH   6   7
ATOM      7  C   UNL     1      93.165  95.677  75.988  1.00  0.00    -0.025 A 
ATOM      8  C   UNL     1      90.891  94.758  75.805  1.00  0.00     0.160 A 
ATOM      9  C   UNL     1      90.905  94.454  77.182  1.00  0.00     0.157 A 
ATOM     10  C   UNL     1      92.013  95.384  75.220  1.00  0.00     0.056 A 
ATOM     11  C   UNL     1      92.035  94.765  77.961  1.00  0.00     0.050 A 
ATOM     12  C   UNL     1      93.158  95.367  77.368  1.00  0.00     0.009 A 
BRANCH   8  13
ATOM     13  O   UNL     1      89.794  94.481  75.033  1.00  0.00    -0.493 OA
ATOM     14  C   UNL     1      89.978  93.369  74.136  1.00  0.00     0.278 C 
ENDBRANCH   8  13
BRANCH   9  15
ATOM     15  O   UNL     1      89.831  93.854  77.754  1.00  0.00    -0.504 OA
ATOM     16  H   UNL     1      89.895  93.926  78.709  1.00  0.00     0.293 HD
ENDBRANCH   9  15
ENDBRANCH   6   7
ENDBRANCH   3   6
ENDBRANCH   1   2
BRANCH   1  17
ATOM     17  C   UNL     1      94.197  99.194  72.287  1.00  0.00     0.010 C 
BRANCH  17  18
ATOM     18  C   UNL     1      92.779  99.356  71.675  1.00  0.00     0.001 C 
BRANCH  18  19
ATOM     19  C   UNL     1      92.687 100.494  70.625  1.00  0.00     0.000 C 
BRANCH  19  20
ATOM     20  C   UNL     1      91.839 101.697  71.133  1.00  0.00     0.003 C 
BRANCH  20  21
ATOM     21  C   UNL     1      91.096 101.455  72.487  1.00  0.00    -0.017 C 
ATOM     22  C   UNL     1      89.555 101.588  72.307  1.00  0.00     0.007 C 
ATOM     23  C   UNL     1      91.584 102.401  73.622  1.00  0.00     0.007 C 
ENDBRANCH  20  21
ENDBRANCH  19  20
ENDBRANCH  18  19
ENDBRANCH  17  18
ENDBRANCH   1  17
TORSDOF 10
ENDMDL
MODEL 4
REMARK VINA RESULT:    -5.797     20.320     22.761
REMARK INTER + INTRA:          -9.605
REMARK INTER:                  -8.692
REMARK INTRA:                  -0.913
REMARK UNBOUND:                -0.589
REMARK SMILES COc1cc(CNC(=O)CCCCCC(C)C)ccc1O
REMARK SMILES IDX 10 1 8 2 7 3 9 5 6 6 5 7 3 8 20 9 4 10 19 11 18 12 2 13 1 14
REMARK SMILES IDX 21 15 11 17 12 18 13 19 14 20 15 21 16 22 17 23
REMARK H PARENT 7 4 21 16
REMARK Flexibility Score: inf
ROOT
ATOM      1  C   UNL     1      94.427  97.118  75.600  1.00  0.00     0.100 C 
ENDROOT
BRANCH   1   2
ATOM      2  C   UNL     1      94.473  97.948  74.378  1.00  0.00     0.220 C 
ATOM      3  N   UNL     1      94.215  99.283  74.466  1.00  0.00    -0.352 N 
ATOM      4  H   UNL     1      93.874  99.592  75.365  1.00  0.00     0.163 HD
ATOM      5  O   UNL     1      94.790  97.411  73.289  1.00  0.00    -0.275 OA
BRANCH   3   6
ATOM      6  C   UNL     1      94.392 100.226  73.408  1.00  0.00     0.151 C 
BRANCH   6   7
ATOM      7  C   UNL     1      93.150 100.465  72.625  1.00  0.00    -0.025 A 
ATOM      8  C   UNL     1      91.009 101.638  72.326  1.00  0.00     0.160 A 
ATOM      9  C   UNL     1      90.816 100.969  71.099  1.00  0.00     0.157 A 
ATOM     10  C   UNL     1      92.165 101.368  73.090  1.00  0.00     0.056 A 
ATOM     11  C   UNL     1      91.777 100.049  70.639  1.00  0.00     0.050 A 
ATOM     12  C   UNL     1      92.937  99.802  71.393  1.00  0.00     0.009 A 
BRANCH   8  13
ATOM     13  O   UNL     1      90.077 102.523  72.801  1.00  0.00    -0.493 OA
ATOM     14  C   UNL     1      89.610 102.219  74.130  1.00  0.00     0.278 C 
ENDBRANCH   8  13
BRANCH   9  15
ATOM     15  O   UNL     1      89.708 101.220  70.358  1.00  0.00    -0.504 OA
ATOM     16  H   UNL     1      89.956 101.330  69.438  1.00  0.00     0.293 HD
ENDBRANCH   9  15
ENDBRANCH   6   7
ENDBRANCH   3   6
ENDBRANCH   1   2
BRANCH   1  17
ATOM     17  C   UNL     1      93.528  95.857  75.482  1.00  0.00     0.010 C 
BRANCH  17  18
ATOM     18  C   UNL     1      93.527  95.029  76.796  1.00  0.00     0.001 C 
BRANCH  18  19
ATOM     19  C   UNL     1      92.203  95.145  77.596  1.00  0.00     0.000 C 
BRANCH  19  20
ATOM     20  C   UNL     1      91.043  95.721  76.734  1.00  0.00     0.003 C 
BRANCH  20  21
ATOM     21  C   UNL     1      89.907  94.704  76.391  1.00  0.00    -0.017 C 
ATOM     22  C   UNL     1      89.893  93.524  77.407  1.00  0.00     0.007 C 
ATOM     23  C   UNL     1      90.005  94.155  74.937  1.00  0.00     0.007 C 
ENDBRANCH  20  21
ENDBRANCH  19  20
ENDBRANCH  18  19
ENDBRANCH  17  18
ENDBRANCH   1  17
TORSDOF 10
ENDMDL
MODEL 5
REMARK VINA RESULT:    -5.592     19.115     21.589
REMARK INTER + INTRA:          -9.287
REMARK INTER:                  -8.549
REMARK INTRA:                  -0.738
REMARK UNBOUND:                -0.589
REMARK SMILES COc1cc(CNC(=O)CCCCCC(C)C)ccc1O
REMARK SMILES IDX 10 1 8 2 7 3 9 5 6 6 5 7 3 8 20 9 4 10 19 11 18 12 2 13 1 14
REMARK SMILES IDX 21 15 11 17 12 18 13 19 14 20 15 21 16 22 17 23
REMARK H PARENT 7 4 21 16
REMARK Flexibility Score: inf
ROOT
ATOM      1  C   UNL     1      94.162  99.587  73.428  1.00  0.00     0.100 C 
ENDROOT
BRANCH   1   2
ATOM      2  C   UNL     1      94.427  98.578  74.475  1.00  0.00     0.220 C 
ATOM      3  N   UNL     1      93.975  97.303  74.305  1.00  0.00    -0.352 N 
ATOM      4  H   UNL     1      93.362  97.171  73.514  1.00  0.00     0.163 HD
ATOM      5  O   UNL     1      95.101  98.907  75.481  1.00  0.00    -0.275 OA
BRANCH   3   6
ATOM      6  C   UNL     1      94.304  96.196  75.145  1.00  0.00     0.151 C 
BRANCH   6   7
ATOM      7  C   UNL     1      93.126  95.634  75.860  1.00  0.00    -0.025 A 
ATOM      8  C   UNL     1      90.841  94.726  75.820  1.00  0.00     0.160 A 
ATOM      9  C   UNL     1      90.908  94.502  77.211  1.00  0.00     0.157 A 
ATOM     10  C   UNL     1      91.943  95.308  75.156  1.00  0.00     0.056 A 
ATOM     11  C   UNL     1      92.070  94.847  77.925  1.00  0.00     0.050 A 
ATOM     12  C   UNL     1      93.173  95.404  77.255  1.00  0.00     0.009 A 
BRANCH   8  13
ATOM     13  O   UNL     1      89.712  94.415  75.109  1.00  0.00    -0.493 OA
ATOM     14  C   UNL     1      89.955  93.566  73.971  1.00  0.00     0.278 C 
ENDBRANCH   8  13
BRANCH   9  15
ATOM     15  O   UNL     1      89.854  93.945  77.859  1.00  0.00    -0.504 OA
ATOM     16  H   UNL     1      89.590  94.512  78.587  1.00  0.00     0.293 HD
ENDBRANCH   9  15
ENDBRANCH   6   7
ENDBRANCH   3   6
ENDBRANCH   1   2
BRANCH   1  17
ATOM     17  C   UNL     1      93.761  98.990  72.052  1.00  0.00     0.010 C 
BRANCH  17  18
ATOM     18  C   UNL     1      92.999 100.024  71.179  1.00  0.00     0.001 C 
BRANCH  18  19
ATOM     19  C   UNL     1      93.845 100.583  70.006  1.00  0.00     0.000 C 
BRANCH  19  20
ATOM     20  C   UNL     1      94.158  99.497  68.936  1.00  0.00     0.003 C 
BRANCH  20  21
ATOM     21  C   UNL     1      95.634  98.982  68.930  1.00  0.00    -0.017 C 
ATOM     22  C   UNL     1      96.358  99.388  67.612  1.00  0.00     0.007 C 
ATOM     23  C   UNL     1      95.739  97.444  69.145  1.00  0.00     0.007 C 
ENDBRANCH  20  21
ENDBRANCH  19  20
ENDBRANCH  18  19
ENDBRANCH  17  18
ENDBRANCH   1  17
TORSDOF 10
ENDMDL
MODEL 6
REMARK VINA RESULT:    -5.485      5.837      7.395
REMARK INTER + INTRA:          -9.121
REMARK INTER:                  -8.322
REMARK INTRA:                  -0.798
REMARK UNBOUND:                -0.589
REMARK SMILES COc1cc(CNC(=O)CCCCCC(C)C)ccc1O
REMARK SMILES IDX 10 1 8 2 7 3 9 5 6 6 5 7 3 8 20 9 4 10 19 11 18 12 2 13 1 14
REMARK SMILES IDX 21 15 11 17 12 18 13 19 14 20 15 21 16 22 17 23
REMARK H PARENT 7 4 21 16
REMARK Flexibility Score: inf
ROOT
ATOM      1  C   UNL     1      97.145  81.774  80.811  1.00  0.00     0.100 C 
ENDROOT
BRANCH   1   2
ATOM      2  C   UNL     1      96.721  81.859  82.224  1.00  0.00     0.220 C 
ATOM      3  N   UNL     1      96.370  80.721  82.887  1.00  0.00    -0.352 N 
ATOM      4  H   UNL     1      96.299  79.896  82.309  1.00  0.00     0.163 HD
ATOM      5  O   UNL     1      96.733  82.976  82.797  1.00  0.00    -0.275 OA
BRANCH   3   6
ATOM      6  C   UNL     1      96.109  80.634  84.289  1.00  0.00     0.151 C 
BRANCH   6   7
ATOM      7  C   UNL     1      94.665  80.761  84.623  1.00  0.00    -0.025 A 
ATOM      8  C   UNL     1      92.741  82.147  85.276  1.00  0.00     0.160 A 
ATOM      9  C   UNL     1      91.902  81.015  85.196  1.00  0.00     0.157 A 
ATOM     10  C   UNL     1      94.120  82.009  85.008  1.00  0.00     0.056 A 
ATOM     11  C   UNL     1      92.439  79.764  84.840  1.00  0.00     0.050 A 
ATOM     12  C   UNL     1      93.808  79.639  84.551  1.00  0.00     0.009 A 
BRANCH   8  13
ATOM     13  O   UNL     1      92.242  83.370  85.640  1.00  0.00    -0.493 OA
ATOM     14  C   UNL     1      93.249  84.392  85.774  1.00  0.00     0.278 C 
ENDBRANCH   8  13
BRANCH   9  15
ATOM     15  O   UNL     1      90.576  81.136  85.454  1.00  0.00    -0.504 OA
ATOM     16  H   UNL     1      90.442  81.787  86.147  1.00  0.00     0.293 HD
ENDBRANCH   9  15
ENDBRANCH   6   7
ENDBRANCH   3   6
ENDBRANCH   1   2
BRANCH   1  17
ATOM     17  C   UNL     1      98.644  82.102  80.574  1.00  0.00     0.010 C 
BRANCH  17  18
ATOM     18  C   UNL     1      99.098  81.701  79.143  1.00  0.00     0.001 C 
BRANCH  18  19
ATOM     19  C   UNL     1      97.958  81.768  78.093  1.00  0.00     0.000 C 
BRANCH  19  20
ATOM     20  C   UNL     1      98.262  82.791  76.959  1.00  0.00     0.003 C 
BRANCH  20  21
ATOM     21  C   UNL     1      97.344  84.056  76.948  1.00  0.00    -0.017 C 
ATOM     22  C   UNL     1      96.163  83.895  77.950  1.00  0.00     0.007 C 
ATOM     23  C   UNL     1      96.799  84.395  75.530  1.00  0.00     0.007 C 
ENDBRANCH  20  21
ENDBRANCH  19  20
ENDBRANCH  18  19
ENDBRANCH  17  18
ENDBRANCH   1  17
TORSDOF 10
ENDMDL
MODEL 7
REMARK VINA RESULT:    -5.354      1.961      3.191
REMARK INTER + INTRA:          -8.916
REMARK INTER:                  -8.395
REMARK INTRA:                  -0.521
REMARK UNBOUND:                -0.589
REMARK SMILES COc1cc(CNC(=O)CCCCCC(C)C)ccc1O
REMARK SMILES IDX 10 1 8 2 7 3 9 5 6 6 5 7 3 8 20 9 4 10 19 11 18 12 2 13 1 14
REMARK SMILES IDX 21 15 11 17 12 18 13 19 14 20 15 21 16 22 17 23
REMARK H PARENT 7 4 21 16
REMARK Flexibility Score: inf
ROOT
ATOM      1  C   UNL     1      91.683  74.768  79.437  1.00  0.00     0.100 C 
ENDROOT
BRANCH   1   2
ATOM      2  C   UNL     1      91.112  74.879  80.796  1.00  0.00     0.220 C 
ATOM      3  N   UNL     1      91.720  75.682  81.714  1.00  0.00    -0.352 N 
ATOM      4  H   UNL     1      92.616  76.051  81.428  1.00  0.00     0.163 HD
ATOM      5  O   UNL     1      90.052  74.262  81.063  1.00  0.00    -0.275 OA
BRANCH   3   6
ATOM      6  C   UNL     1      91.186  76.015  82.996  1.00  0.00     0.151 C 
BRANCH   6   7
ATOM      7  C   UNL     1      91.902  77.143  83.651  1.00  0.00    -0.025 A 
ATOM      8  C   UNL     1      91.883  79.401  84.626  1.00  0.00     0.160 A 
ATOM      9  C   UNL     1      93.247  79.265  84.960  1.00  0.00     0.157 A 
ATOM     10  C   UNL     1      91.224  78.347  83.957  1.00  0.00     0.056 A 
ATOM     11  C   UNL     1      93.938  78.083  84.636  1.00  0.00     0.050 A 
ATOM     12  C   UNL     1      93.269  77.028  83.992  1.00  0.00     0.009 A 
BRANCH   8  13
ATOM     13  O   UNL     1      91.198  80.552  84.914  1.00  0.00    -0.493 OA
ATOM     14  C   UNL     1      90.187  80.886  83.944  1.00  0.00     0.278 C 
ENDBRANCH   8  13
BRANCH   9  15
ATOM     15  O   UNL     1      93.891  80.273  85.600  1.00  0.00    -0.504 OA
ATOM     16  H   UNL     1      94.499  80.701  84.994  1.00  0.00     0.293 HD
ENDBRANCH   9  15
ENDBRANCH   6   7
ENDBRANCH   3   6
ENDBRANCH   1   2
BRANCH   1  17
ATOM     17  C   UNL     1      90.731  75.237  78.304  1.00  0.00     0.010 C 
BRANCH  17  18
ATOM     18  C   UNL     1      91.129  76.639  77.765  1.00  0.00     0.001 C 
BRANCH  18  19
ATOM     19  C   UNL     1      90.402  77.023  76.449  1.00  0.00     0.000 C 
BRANCH  19  20
ATOM     20  C   UNL     1      91.348  77.738  75.442  1.00  0.00     0.003 C 
BRANCH  20  21
ATOM     21  C   UNL     1      91.422  77.082  74.025  1.00  0.00    -0.017 C 
ATOM     22  C   UNL     1      92.173  75.719  74.082  1.00  0.00     0.007 C 
ATOM     23  C   UNL     1      92.080  78.010  72.962  1.00  0.00     0.007 C 
ENDBRANCH  20  21
ENDBRANCH  19  20
ENDBRANCH  18  19
ENDBRANCH  17  18
ENDBRANCH   1  17
TORSDOF 10
ENDMDL
MODEL 8
REMARK VINA RESULT:    -5.306     20.866     22.856
REMARK INTER + INTRA:          -8.841
REMARK INTER:                  -7.961
REMARK INTRA:                  -0.880
REMARK UNBOUND:                -0.589
REMARK SMILES COc1cc(CNC(=O)CCCCCC(C)C)ccc1O
REMARK SMILES IDX 10 1 8 2 7 3 9 5 6 6 5 7 3 8 20 9 4 10 19 11 18 12 2 13 1 14
REMARK SMILES IDX 21 15 11 17 12 18 13 19 14 20 15 21 16 22 17 23
REMARK H PARENT 7 4 21 16
REMARK Flexibility Score: inf
ROOT
ATOM      1  C   UNL     1      75.079  89.257  67.896  1.00  0.00     0.100 C 
ENDROOT
BRANCH   1   2
ATOM      2  C   UNL     1      73.964  89.319  68.864  1.00  0.00     0.220 C 
ATOM      3  N   UNL     1      74.156  89.926  70.069  1.00  0.00    -0.352 N 
ATOM      4  H   UNL     1      75.112  90.181  70.268  1.00  0.00     0.163 HD
ATOM      5  O   UNL     1      72.848  88.847  68.537  1.00  0.00    -0.275 OA
BRANCH   3   6
ATOM      6  C   UNL     1      73.129  90.208  71.019  1.00  0.00     0.151 C 
BRANCH   6   7
ATOM      7  C   UNL     1      73.475  91.325  71.939  1.00  0.00    -0.025 A 
ATOM      8  C   UNL     1      73.208  92.469  74.100  1.00  0.00     0.160 A 
ATOM      9  C   UNL     1      74.183  93.415  73.717  1.00  0.00     0.157 A 
ATOM     10  C   UNL     1      72.847  91.442  73.202  1.00  0.00     0.056 A 
ATOM     11  C   UNL     1      74.794  93.324  72.453  1.00  0.00     0.050 A 
ATOM     12  C   UNL     1      74.447  92.285  71.573  1.00  0.00     0.009 A 
BRANCH   8  13
ATOM     13  O   UNL     1      72.587  92.551  75.318  1.00  0.00    -0.493 OA
ATOM     14  C   UNL     1      73.026  91.556  76.264  1.00  0.00     0.278 C 
ENDBRANCH   8  13
BRANCH   9  15
ATOM     15  O   UNL     1      74.536  94.407  74.572  1.00  0.00    -0.504 OA
ATOM     16  H   UNL     1      75.403  94.742  74.333  1.00  0.00     0.293 HD
ENDBRANCH   9  15
ENDBRANCH   6   7
ENDBRANCH   3   6
ENDBRANCH   1   2
BRANCH   1  17
ATOM     17  C   UNL     1      76.486  89.170  68.548  1.00  0.00     0.010 C 
BRANCH  17  18
ATOM     18  C   UNL     1      77.322  88.004  67.951  1.00  0.00     0.001 C 
BRANCH  18  19
ATOM     19  C   UNL     1      77.267  86.708  68.801  1.00  0.00     0.000 C 
BRANCH  19  20
ATOM     20  C   UNL     1      76.781  85.482  67.974  1.00  0.00     0.003 C 
BRANCH  20  21
ATOM     21  C   UNL     1      75.588  84.692  68.604  1.00  0.00    -0.017 C 
ATOM     22  C   UNL     1      74.249  85.464  68.416  1.00  0.00     0.007 C 
ATOM     23  C   UNL     1      75.808  84.364  70.109  1.00  0.00     0.007 C 
ENDBRANCH  20  21
ENDBRANCH  19  20
ENDBRANCH  18  19
ENDBRANCH  17  18
ENDBRANCH   1  17
TORSDOF 10
ENDMDL
MODEL 9
REMARK VINA RESULT:    -5.304     20.604     23.549
REMARK INTER + INTRA:          -8.838
REMARK INTER:                  -8.135
REMARK INTRA:                  -0.703
REMARK UNBOUND:                -0.589
REMARK SMILES COc1cc(CNC(=O)CCCCCC(C)C)ccc1O
REMARK SMILES IDX 10 1 8 2 7 3 9 5 6 6 5 7 3 8 20 9 4 10 19 11 18 12 2 13 1 14
REMARK SMILES IDX 21 15 11 17 12 18 13 19 14 20 15 21 16 22 17 23
REMARK H PARENT 7 4 21 16
REMARK Flexibility Score: inf
ROOT
ATOM      1  C   UNL     1      74.581  92.547  71.881  1.00  0.00     0.100 C 
ENDROOT
BRANCH   1   2
ATOM      2  C   UNL     1      73.880  91.362  71.344  1.00  0.00     0.220 C 
ATOM      3  N   UNL     1      74.434  90.666  70.312  1.00  0.00    -0.352 N 
ATOM      4  H   UNL     1      75.244  91.101  69.893  1.00  0.00     0.163 HD
ATOM      5  O   UNL     1      72.805  90.996  71.880  1.00  0.00    -0.275 OA
BRANCH   3   6
ATOM      6  C   UNL     1      73.958  89.415  69.815  1.00  0.00     0.151 C 
BRANCH   6   7
ATOM      7  C   UNL     1      75.050  88.519  69.346  1.00  0.00    -0.025 A 
ATOM      8  C   UNL     1      75.907  86.259  68.893  1.00  0.00     0.160 A 
ATOM      9  C   UNL     1      77.102  86.816  68.390  1.00  0.00     0.157 A 
ATOM     10  C   UNL     1      74.896  87.113  69.385  1.00  0.00     0.056 A 
ATOM     11  C   UNL     1      77.276  88.212  68.372  1.00  0.00     0.050 A 
ATOM     12  C   UNL     1      76.256  89.057  68.840  1.00  0.00     0.009 A 
BRANCH   8  13
ATOM     13  O   UNL     1      75.726  84.902  68.938  1.00  0.00    -0.493 OA
ATOM     14  C   UNL     1      75.989  84.322  70.231  1.00  0.00     0.278 C 
ENDBRANCH   8  13
BRANCH   9  15
ATOM     15  O   UNL     1      78.081  86.004  67.918  1.00  0.00    -0.504 OA
ATOM     16  H   UNL     1      78.219  86.180  66.984  1.00  0.00     0.293 HD
ENDBRANCH   9  15
ENDBRANCH   6   7
ENDBRANCH   3   6
ENDBRANCH   1   2
BRANCH   1  17
ATOM     17  C   UNL     1      74.184  92.920  73.334  1.00  0.00     0.010 C 
BRANCH  17  18
ATOM     18  C   UNL     1      74.056  94.458  73.516  1.00  0.00     0.001 C 
BRANCH  18  19
ATOM     19  C   UNL     1      75.307  95.107  74.166  1.00  0.00     0.000 C 
BRANCH  19  20
ATOM     20  C   UNL     1      76.433  95.383  73.128  1.00  0.00     0.003 C 
BRANCH  20  21
ATOM     21  C   UNL     1      77.854  94.885  73.547  1.00  0.00    -0.017 C 
ATOM     22  C   UNL     1      77.771  93.955  74.794  1.00  0.00     0.007 C 
ATOM     23  C   UNL     1      78.849  96.051  73.817  1.00  0.00     0.007 C 
ENDBRANCH  20  21
ENDBRANCH  19  20
ENDBRANCH  18  19
ENDBRANCH  17  18
ENDBRANCH   1  17
TORSDOF 10
ENDMDL
MODEL 10
REMARK VINA RESULT:    -5.258     37.751     40.385
REMARK INTER + INTRA:          -8.768
REMARK INTER:                  -8.312
REMARK INTRA:                  -0.456
REMARK UNBOUND:                -0.589
REMARK SMILES COc1cc(CNC(=O)CCCCCC(C)C)ccc1O
REMARK SMILES IDX 10 1 8 2 7 3 9 5 6 6 5 7 3 8 20 9 4 10 19 11 18 12 2 13 1 14
REMARK SMILES IDX 21 15 11 17 12 18 13 19 14 20 15 21 16 22 17 23
REMARK H PARENT 7 4 21 16
REMARK Flexibility Score: inf
ROOT
ATOM      1  C   UNL     1      55.211  93.184  73.517  1.00  0.00     0.100 C 
ENDROOT
BRANCH   1   2
ATOM      2  C   UNL     1      54.808  93.496  72.130  1.00  0.00     0.220 C 
ATOM      3  N   UNL     1      55.173  92.656  71.121  1.00  0.00    -0.352 N 
ATOM      4  H   UNL     1      55.823  91.929  71.388  1.00  0.00     0.163 HD
ATOM      5  O   UNL     1      54.099  94.510  71.915  1.00  0.00    -0.275 OA
BRANCH   3   6
ATOM      6  C   UNL     1      54.712  92.740  69.773  1.00  0.00     0.151 C 
BRANCH   6   7
ATOM      7  C   UNL     1      55.087  91.558  68.951  1.00  0.00    -0.025 A 
ATOM      8  C   UNL     1      56.485  89.566  68.595  1.00  0.00     0.160 A 
ATOM      9  C   UNL     1      55.758  89.269  67.422  1.00  0.00     0.157 A 
ATOM     10  C   UNL     1      56.157  90.718  69.341  1.00  0.00     0.056 A 
ATOM     11  C   UNL     1      54.710  90.112  67.010  1.00  0.00     0.050 A 
ATOM     12  C   UNL     1      54.373  91.244  67.771  1.00  0.00     0.009 A 
BRANCH   8  13
ATOM     13  O   UNL     1      57.522  88.769  69.002  1.00  0.00    -0.493 OA
ATOM     14  C   UNL     1      58.777  89.078  68.367  1.00  0.00     0.278 C 
ENDBRANCH   8  13
BRANCH   9  15
ATOM     15  O   UNL     1      56.066  88.165  66.696  1.00  0.00    -0.504 OA
ATOM     16  H   UNL     1      57.009  88.154  66.515  1.00  0.00     0.293 HD
ENDBRANCH   9  15
ENDBRANCH   6   7
ENDBRANCH   3   6
ENDBRANCH   1   2
BRANCH   1  17
ATOM     17  C   UNL     1      54.258  92.205  74.254  1.00  0.00     0.010 C 
BRANCH  17  18
ATOM     18  C   UNL     1      52.868  92.848  74.517  1.00  0.00     0.001 C 
BRANCH  18  19
ATOM     19  C   UNL     1      51.816  91.842  75.055  1.00  0.00     0.000 C 
BRANCH  19  20
ATOM     20  C   UNL     1      52.474  90.648  75.805  1.00  0.00     0.003 C 
BRANCH  20  21
ATOM     21  C   UNL     1      51.796  90.266  77.161  1.00  0.00    -0.017 C 
ATOM     22  C   UNL     1      52.847  90.196  78.307  1.00  0.00     0.007 C 
ATOM     23  C   UNL     1      51.000  88.931  77.084  1.00  0.00     0.007 C 
ENDBRANCH  20  21
ENDBRANCH  19  20
ENDBRANCH  18  19
ENDBRANCH  17  18
ENDBRANCH   1  17
TORSDOF 10
ENDMDL
