MODEL 1
REMARK VINA RESULT:    -6.444      0.000      0.000
REMARK INTER + INTRA:         -11.086
REMARK INTER:                 -10.399
REMARK INTRA:                  -0.687
REMARK UNBOUND:                -0.687
REMARK SMILES COc1cc(CNC(=O)CCCCCCC(C)C)ccc1O
REMARK SMILES IDX 11 1 10 2 8 3 7 4 9 6 6 7 5 8 3 9 21 10 4 11 20 12 19 13
REMARK SMILES IDX 2 14 1 15 22 16 12 18 13 19 14 20 15 21 16 22 17 23 18 24
REMARK H PARENT 7 5 22 17
REMARK Flexibility Score: inf
ROOT
ATOM      1  C   UNL     1      93.365  97.671  74.221  1.00  0.00     0.010 C 
ENDROOT
BRANCH   1   2
ATOM      2  C   UNL     1      94.198  98.904  73.772  1.00  0.00     0.100 C 
BRANCH   2   3
ATOM      3  C   UNL     1      93.941  99.303  72.370  1.00  0.00     0.220 C 
ATOM      4  N   UNL     1      93.008 100.257  72.085  1.00  0.00    -0.352 N 
ATOM      5  H   UNL     1      92.506 100.609  72.887  1.00  0.00     0.163 HD
ATOM      6  O   UNL     1      94.615  98.765  71.458  1.00  0.00    -0.275 OA
BRANCH   4   7
ATOM      7  C   UNL     1      92.717 100.764  70.778  1.00  0.00     0.151 C 
BRANCH   7   8
ATOM      8  C   UNL     1      91.588 100.056  70.113  1.00  0.00    -0.025 A 
ATOM      9  C   UNL     1      90.285  99.558  68.087  1.00  0.00     0.160 A 
ATOM     10  C   UNL     1      89.467  98.677  68.828  1.00  0.00     0.157 A 
ATOM     11  C   UNL     1      91.326 100.254  68.738  1.00  0.00     0.056 A 
ATOM     12  C   UNL     1      89.694  98.502  70.205  1.00  0.00     0.050 A 
ATOM     13  C   UNL     1      90.753  99.177  70.842  1.00  0.00     0.009 A 
BRANCH   9  14
ATOM     14  O   UNL     1      90.048  99.766  66.756  1.00  0.00    -0.493 OA
ATOM     15  C   UNL     1      89.306 100.967  66.480  1.00  0.00     0.278 C 
ENDBRANCH   9  14
BRANCH  10  16
ATOM     16  O   UNL     1      88.456  97.995  68.228  1.00  0.00    -0.504 OA
ATOM     17  H   UNL     1      87.923  98.603  67.711  1.00  0.00     0.293 HD
ENDBRANCH  10  16
ENDBRANCH   7   8
ENDBRANCH   4   7
ENDBRANCH   2   3
ENDBRANCH   1   2
BRANCH   1  18
ATOM     18  C   UNL     1      94.267  96.473  74.635  1.00  0.00     0.001 C 
BRANCH  18  19
ATOM     19  C   UNL     1      93.493  95.318  75.330  1.00  0.00     0.000 C 
BRANCH  19  20
ATOM     20  C   UNL     1      92.789  95.801  76.630  1.00  0.00     0.000 C 
BRANCH  20  21
ATOM     21  C   UNL     1      91.394  95.162  76.874  1.00  0.00     0.003 C 
BRANCH  21  22
ATOM     22  C   UNL     1      91.436  93.717  77.470  1.00  0.00    -0.017 C 
ATOM     23  C   UNL     1      92.760  93.490  78.253  1.00  0.00     0.007 C 
ATOM     24  C   UNL     1      91.231  92.596  76.409  1.00  0.00     0.007 C 
ENDBRANCH  21  22
ENDBRANCH  20  21
ENDBRANCH  19  20
ENDBRANCH  18  19
ENDBRANCH   1  18
TORSDOF 11
ENDMDL
MODEL 2
REMARK VINA RESULT:    -5.884     16.151     18.232
REMARK INTER + INTRA:         -10.183
REMARK INTER:                  -9.490
REMARK INTRA:                  -0.693
REMARK UNBOUND:                -0.687
REMARK SMILES COc1cc(CNC(=O)CCCCCCC(C)C)ccc1O
REMARK SMILES IDX 11 1 10 2 8 3 7 4 9 6 6 7 5 8 3 9 21 10 4 11 20 12 19 13
REMARK SMILES IDX 2 14 1 15 22 16 12 18 13 19 14 20 15 21 16 22 17 23 18 24
REMARK H PARENT 7 5 22 17
REMARK Flexibility Score: inf
ROOT
ATOM      1  C   UNL     1      97.085  81.714  77.814  1.00  0.00     0.010 C 
ENDROOT
BRANCH   1   2
ATOM      2  C   UNL     1      95.968  82.628  77.239  1.00  0.00     0.100 C 
BRANCH   2   3
ATOM      3  C   UNL     1      96.357  83.308  75.983  1.00  0.00     0.220 C 
ATOM      4  N   UNL     1      97.498  82.946  75.329  1.00  0.00    -0.352 N 
ATOM      5  H   UNL     1      98.043  82.234  75.794  1.00  0.00     0.163 HD
ATOM      6  O   UNL     1      95.605  84.202  75.525  1.00  0.00    -0.275 OA
BRANCH   4   7
ATOM      7  C   UNL     1      97.943  83.490  74.082  1.00  0.00     0.151 C 
BRANCH   7   8
ATOM      8  C   UNL     1      98.614  82.487  73.210  1.00  0.00    -0.025 A 
ATOM      9  C   UNL     1      98.725  80.216  72.271  1.00  0.00     0.160 A 
ATOM     10  C   UNL     1      99.862  80.581  71.517  1.00  0.00     0.157 A 
ATOM     11  C   UNL     1      98.123  81.164  73.125  1.00  0.00     0.056 A 
ATOM     12  C   UNL     1     100.384  81.883  71.624  1.00  0.00     0.050 A 
ATOM     13  C   UNL     1      99.760  82.833  72.455  1.00  0.00     0.009 A 
BRANCH   9  14
ATOM     14  O   UNL     1      98.233  78.941  72.205  1.00  0.00    -0.493 OA
ATOM     15  C   UNL     1      96.806  78.861  72.374  1.00  0.00     0.278 C 
ENDBRANCH   9  14
BRANCH  10  16
ATOM     16  O   UNL     1     100.464  79.688  70.689  1.00  0.00    -0.504 OA
ATOM     17  H   UNL     1     100.090  79.768  69.808  1.00  0.00     0.293 HD
ENDBRANCH  10  16
ENDBRANCH   7   8
ENDBRANCH   4   7
ENDBRANCH   2   3
ENDBRANCH   1   2
BRANCH   1  18
ATOM     18  C   UNL     1      97.125  81.743  79.369  1.00  0.00     0.001 C 
BRANCH  18  19
ATOM     19  C   UNL     1      97.471  80.370  80.012  1.00  0.00     0.000 C 
BRANCH  19  20
ATOM     20  C   UNL     1      96.965  80.283  81.480  1.00  0.00     0.000 C 
BRANCH  20  21
ATOM     21  C   UNL     1      97.186  81.579  82.308  1.00  0.00     0.003 C 
BRANCH  21  22
ATOM     22  C   UNL     1      95.871  82.294  82.759  1.00  0.00    -0.017 C 
ATOM     23  C   UNL     1      96.151  83.786  83.094  1.00  0.00     0.007 C 
ATOM     24  C   UNL     1      95.155  81.593  83.951  1.00  0.00     0.007 C 
ENDBRANCH  21  22
ENDBRANCH  20  21
ENDBRANCH  19  20
ENDBRANCH  18  19
ENDBRANCH   1  18
TORSDOF 11
ENDMDL
MODEL 3
REMARK VINA RESULT:    -5.774     16.718     19.181
REMARK INTER + INTRA:         -10.005
REMARK INTER:                  -9.395
REMARK INTRA:                  -0.611
REMARK UNBOUND:                -0.687
REMARK SMILES COc1cc(CNC(=O)CCCCCCC(C)C)ccc1O
REMARK SMILES IDX 11 1 10 2 8 3 7 4 9 6 6 7 5 8 3 9 21 10 4 11 20 12 19 13
REMARK SMILES IDX 2 14 1 15 22 16 12 18 13 19 14 20 15 21 16 22 17 23 18 24
REMARK H PARENT 7 5 22 17
REMARK Flexibility Score: inf
ROOT
ATOM      1  C   UNL     1      95.469  80.959  84.095  1.00  0.00     0.010 C 
ENDROOT
BRANCH   1   2
ATOM      2  C   UNL     1      95.866  82.045  83.057  1.00  0.00     0.100 C 
BRANCH   2   3
ATOM      3  C   UNL     1      96.892  81.587  82.094  1.00  0.00     0.220 C 
ATOM      4  N   UNL     1      96.704  81.758  80.753  1.00  0.00    -0.352 N 
ATOM      5  H   UNL     1      95.816  82.166  80.501  1.00  0.00     0.163 HD
ATOM      6  O   UNL     1      97.943  81.064  82.538  1.00  0.00    -0.275 OA
BRANCH   4   7
ATOM      7  C   UNL     1      97.648  81.409  79.735  1.00  0.00     0.151 C 
BRANCH   7   8
ATOM      8  C   UNL     1      97.274  81.921  78.388  1.00  0.00    -0.025 A 
ATOM      9  C   UNL     1      97.844  82.324  76.030  1.00  0.00     0.160 A 
ATOM     10  C   UNL     1      96.554  82.854  75.807  1.00  0.00     0.157 A 
ATOM     11  C   UNL     1      98.200  81.880  77.321  1.00  0.00     0.056 A 
ATOM     12  C   UNL     1      95.637  82.936  76.870  1.00  0.00     0.050 A 
ATOM     13  C   UNL     1      95.989  82.463  78.150  1.00  0.00     0.009 A 
BRANCH   9  14
ATOM     14  O   UNL     1      98.757  82.276  75.012  1.00  0.00    -0.493 OA
ATOM     15  C   UNL     1      99.586  81.100  75.031  1.00  0.00     0.278 C 
ENDBRANCH   9  14
BRANCH  10  16
ATOM     16  O   UNL     1      96.185  83.291  74.574  1.00  0.00    -0.504 OA
ATOM     17  H   UNL     1      96.914  83.171  73.961  1.00  0.00     0.293 HD
ENDBRANCH  10  16
ENDBRANCH   7   8
ENDBRANCH   4   7
ENDBRANCH   2   3
ENDBRANCH   1   2
BRANCH   1  18
ATOM     18  C   UNL     1      94.073  81.230  84.724  1.00  0.00     0.001 C 
BRANCH  18  19
ATOM     19  C   UNL     1      93.265  79.939  85.036  1.00  0.00     0.000 C 
BRANCH  19  20
ATOM     20  C   UNL     1      91.733  80.195  84.975  1.00  0.00     0.000 C 
BRANCH  20  21
ATOM     21  C   UNL     1      91.332  81.692  85.080  1.00  0.00     0.003 C 
BRANCH  21  22
ATOM     22  C   UNL     1      90.163  81.985  86.076  1.00  0.00    -0.017 C 
ATOM     23  C   UNL     1      90.669  82.835  87.275  1.00  0.00     0.007 C 
ATOM     24  C   UNL     1      89.439  80.703  86.584  1.00  0.00     0.007 C 
ENDBRANCH  21  22
ENDBRANCH  20  21
ENDBRANCH  19  20
ENDBRANCH  18  19
ENDBRANCH   1  18
TORSDOF 11
ENDMDL
MODEL 4
REMARK VINA RESULT:    -5.697     18.019     20.583
REMARK INTER + INTRA:          -9.880
REMARK INTER:                  -9.003
REMARK INTRA:                  -0.878
REMARK UNBOUND:                -0.687
REMARK SMILES COc1cc(CNC(=O)CCCCCCC(C)C)ccc1O
REMARK SMILES IDX 11 1 10 2 8 3 7 4 9 6 6 7 5 8 3 9 21 10 4 11 20 12 19 13
REMARK SMILES IDX 2 14 1 15 22 16 12 18 13 19 14 20 15 21 16 22 17 23 18 24
REMARK H PARENT 7 5 22 17
REMARK Flexibility Score: inf
ROOT
ATOM      1  C   UNL     1      93.014  80.951  85.088  1.00  0.00     0.010 C 
ENDROOT
BRANCH   1   2
ATOM      2  C   UNL     1      93.721  82.141  85.794  1.00  0.00     0.100 C 
BRANCH   2   3
ATOM      3  C   UNL     1      94.941  82.597  85.090  1.00  0.00     0.220 C 
ATOM      4  N   UNL     1      94.974  82.643  83.727  1.00  0.00    -0.352 N 
ATOM      5  H   UNL     1      94.137  82.307  83.274  1.00  0.00     0.163 HD
ATOM      6  O   UNL     1      95.929  82.962  85.774  1.00  0.00    -0.275 OA
BRANCH   4   7
ATOM      7  C   UNL     1      96.073  83.120  82.943  1.00  0.00     0.151 C 
BRANCH   7   8
ATOM      8  C   UNL     1      96.536  82.138  81.924  1.00  0.00    -0.025 A 
ATOM      9  C   UNL     1      97.374  81.649  79.664  1.00  0.00     0.160 A 
ATOM     10  C   UNL     1      97.461  80.278  79.991  1.00  0.00     0.157 A 
ATOM     11  C   UNL     1      96.895  82.564  80.625  1.00  0.00     0.056 A 
ATOM     12  C   UNL     1      97.069  79.836  81.267  1.00  0.00     0.050 A 
ATOM     13  C   UNL     1      96.620  80.759  82.231  1.00  0.00     0.009 A 
BRANCH   9  14
ATOM     14  O   UNL     1      97.716  82.084  78.412  1.00  0.00    -0.493 OA
ATOM     15  C   UNL     1      96.589  82.278  77.539  1.00  0.00     0.278 C 
ENDBRANCH   9  14
BRANCH  10  16
ATOM     16  O   UNL     1      97.917  79.374  79.084  1.00  0.00    -0.504 OA
ATOM     17  H   UNL     1      98.349  78.650  79.544  1.00  0.00     0.293 HD
ENDBRANCH  10  16
ENDBRANCH   7   8
ENDBRANCH   4   7
ENDBRANCH   2   3
ENDBRANCH   1   2
BRANCH   1  18
ATOM     18  C   UNL     1      91.549  81.291  84.691  1.00  0.00     0.001 C 
BRANCH  18  19
ATOM     19  C   UNL     1      90.711  81.899  85.851  1.00  0.00     0.000 C 
BRANCH  19  20
ATOM     20  C   UNL     1      89.991  80.796  86.676  1.00  0.00     0.000 C 
BRANCH  20  21
ATOM     21  C   UNL     1      89.802  79.453  85.916  1.00  0.00     0.003 C 
BRANCH  21  22
ATOM     22  C   UNL     1      88.483  79.360  85.081  1.00  0.00    -0.017 C 
ATOM     23  C   UNL     1      88.803  79.016  83.598  1.00  0.00     0.007 C 
ATOM     24  C   UNL     1      87.597  80.637  85.165  1.00  0.00     0.007 C 
ENDBRANCH  21  22
ENDBRANCH  20  21
ENDBRANCH  19  20
ENDBRANCH  18  19
ENDBRANCH   1  18
TORSDOF 11
ENDMDL
MODEL 5
REMARK VINA RESULT:    -5.680     19.995     22.332
REMARK INTER + INTRA:          -9.854
REMARK INTER:                  -8.705
REMARK INTRA:                  -1.150
REMARK UNBOUND:                -0.687
REMARK SMILES COc1cc(CNC(=O)CCCCCCC(C)C)ccc1O
REMARK SMILES IDX 11 1 10 2 8 3 7 4 9 6 6 7 5 8 3 9 21 10 4 11 20 12 19 13
REMARK SMILES IDX 2 14 1 15 22 16 12 18 13 19 14 20 15 21 16 22 17 23 18 24
REMARK H PARENT 7 5 22 17
REMARK Flexibility Score: inf
ROOT
ATOM      1  C   UNL     1      75.630  87.857  67.367  1.00  0.00     0.010 C 
ENDROOT
BRANCH   1   2
ATOM      2  C   UNL     1      77.100  87.354  67.389  1.00  0.00     0.100 C 
BRANCH   2   3
ATOM      3  C   UNL     1      77.240  85.938  66.983  1.00  0.00     0.220 C 
ATOM      4  N   UNL     1      76.600  85.474  65.871  1.00  0.00    -0.352 N 
ATOM      5  H   UNL     1      76.016  86.154  65.406  1.00  0.00     0.163 HD
ATOM      6  O   UNL     1      77.975  85.185  67.667  1.00  0.00    -0.275 OA
BRANCH   4   7
ATOM      7  C   UNL     1      76.707  84.145  65.350  1.00  0.00     0.151 C 
BRANCH   7   8
ATOM      8  C   UNL     1      75.424  83.391  65.399  1.00  0.00    -0.025 A 
ATOM      9  C   UNL     1      72.967  83.373  65.511  1.00  0.00     0.160 A 
ATOM     10  C   UNL     1      72.972  81.963  65.447  1.00  0.00     0.157 A 
ATOM     11  C   UNL     1      74.192  84.074  65.506  1.00  0.00     0.056 A 
ATOM     12  C   UNL     1      74.194  81.269  65.380  1.00  0.00     0.050 A 
ATOM     13  C   UNL     1      75.412  81.977  65.345  1.00  0.00     0.009 A 
BRANCH   9  14
ATOM     14  O   UNL     1      71.786  84.056  65.617  1.00  0.00    -0.493 OA
ATOM     15  C   UNL     1      71.718  84.922  66.764  1.00  0.00     0.278 C 
ENDBRANCH   9  14
BRANCH  10  16
ATOM     16  O   UNL     1      71.808  81.261  65.452  1.00  0.00    -0.504 OA
ATOM     17  H   UNL     1      71.931  80.435  64.978  1.00  0.00     0.293 HD
ENDBRANCH  10  16
ENDBRANCH   7   8
ENDBRANCH   4   7
ENDBRANCH   2   3
ENDBRANCH   1   2
BRANCH   1  18
ATOM     18  C   UNL     1      74.691  86.962  68.224  1.00  0.00     0.001 C 
BRANCH  18  19
ATOM     19  C   UNL     1      73.620  87.760  69.021  1.00  0.00     0.000 C 
BRANCH  19  20
ATOM     20  C   UNL     1      73.682  89.280  68.698  1.00  0.00     0.000 C 
BRANCH  20  21
ATOM     21  C   UNL     1      74.163  90.164  69.882  1.00  0.00     0.003 C 
BRANCH  21  22
ATOM     22  C   UNL     1      75.134  91.320  69.476  1.00  0.00    -0.017 C 
ATOM     23  C   UNL     1      74.725  92.645  70.179  1.00  0.00     0.007 C 
ATOM     24  C   UNL     1      75.247  91.532  67.938  1.00  0.00     0.007 C 
ENDBRANCH  21  22
ENDBRANCH  20  21
ENDBRANCH  19  20
ENDBRANCH  18  19
ENDBRANCH   1  18
TORSDOF 11
ENDMDL
MODEL 6
REMARK VINA RESULT:    -5.609     16.053     18.253
REMARK INTER + INTRA:          -9.740
REMARK INTER:                  -9.035
REMARK INTRA:                  -0.705
REMARK UNBOUND:                -0.687
REMARK SMILES COc1cc(CNC(=O)CCCCCCC(C)C)ccc1O
REMARK SMILES IDX 11 1 10 2 8 3 7 4 9 6 6 7 5 8 3 9 21 10 4 11 20 12 19 13
REMARK SMILES IDX 2 14 1 15 22 16 12 18 13 19 14 20 15 21 16 22 17 23 18 24
REMARK H PARENT 7 5 22 17
REMARK Flexibility Score: inf
ROOT
ATOM      1  C   UNL     1      97.494  81.944  77.952  1.00  0.00     0.010 C 
ENDROOT
BRANCH   1   2
ATOM      2  C   UNL     1      96.179  82.507  77.347  1.00  0.00     0.100 C 
BRANCH   2   3
ATOM      3  C   UNL     1      96.381  83.204  76.056  1.00  0.00     0.220 C 
ATOM      4  N   UNL     1      97.407  82.844  75.232  1.00  0.00    -0.352 N 
ATOM      5  H   UNL     1      98.009  82.122  75.600  1.00  0.00     0.163 HD
ATOM      6  O   UNL     1      95.576  84.110  75.729  1.00  0.00    -0.275 OA
BRANCH   4   7
ATOM      7  C   UNL     1      97.664  83.404  73.940  1.00  0.00     0.151 C 
BRANCH   7   8
ATOM      8  C   UNL     1      99.094  83.314  73.536  1.00  0.00    -0.025 A 
ATOM      9  C   UNL     1     101.165  82.006  73.311  1.00  0.00     0.160 A 
ATOM     10  C   UNL     1     101.808  83.120  72.727  1.00  0.00     0.157 A 
ATOM     11  C   UNL     1      99.822  82.117  73.727  1.00  0.00     0.056 A 
ATOM     12  C   UNL     1     101.106  84.329  72.567  1.00  0.00     0.050 A 
ATOM     13  C   UNL     1      99.756  84.423  72.958  1.00  0.00     0.009 A 
BRANCH   9  14
ATOM     14  O   UNL     1     101.851  80.838  73.507  1.00  0.00    -0.493 OA
ATOM     15  C   UNL     1     102.270  80.634  74.868  1.00  0.00     0.278 C 
ENDBRANCH   9  14
BRANCH  10  16
ATOM     16  O   UNL     1     103.101  83.043  72.318  1.00  0.00    -0.504 OA
ATOM     17  H   UNL     1     103.227  82.240  71.807  1.00  0.00     0.293 HD
ENDBRANCH  10  16
ENDBRANCH   7   8
ENDBRANCH   4   7
ENDBRANCH   2   3
ENDBRANCH   1   2
BRANCH   1  18
ATOM     18  C   UNL     1      97.416  81.806  79.500  1.00  0.00     0.001 C 
BRANCH  18  19
ATOM     19  C   UNL     1      98.338  80.696  80.077  1.00  0.00     0.000 C 
BRANCH  19  20
ATOM     20  C   UNL     1      98.176  80.561  81.618  1.00  0.00     0.000 C 
BRANCH  20  21
ATOM     21  C   UNL     1      97.275  81.652  82.261  1.00  0.00     0.003 C 
BRANCH  21  22
ATOM     22  C   UNL     1      95.918  81.123  82.829  1.00  0.00    -0.017 C 
ATOM     23  C   UNL     1      95.439  82.013  84.010  1.00  0.00     0.007 C 
ATOM     24  C   UNL     1      95.959  79.626  83.256  1.00  0.00     0.007 C 
ENDBRANCH  21  22
ENDBRANCH  20  21
ENDBRANCH  19  20
ENDBRANCH  18  19
ENDBRANCH   1  18
TORSDOF 11
ENDMDL
MODEL 7
REMARK VINA RESULT:    -5.491     19.323     22.140
REMARK INTER + INTRA:          -9.549
REMARK INTER:                  -7.671
REMARK INTRA:                  -1.878
REMARK UNBOUND:                -0.687
REMARK SMILES COc1cc(CNC(=O)CCCCCCC(C)C)ccc1O
REMARK SMILES IDX 11 1 10 2 8 3 7 4 9 6 6 7 5 8 3 9 21 10 4 11 20 12 19 13
REMARK SMILES IDX 2 14 1 15 22 16 12 18 13 19 14 20 15 21 16 22 17 23 18 24
REMARK H PARENT 7 5 22 17
REMARK Flexibility Score: inf
ROOT
ATOM      1  C   UNL     1      72.019  88.509  65.134  1.00  0.00     0.010 C 
ENDROOT
BRANCH   1   2
ATOM      2  C   UNL     1      71.459  88.452  66.582  1.00  0.00     0.100 C 
BRANCH   2   3
ATOM      3  C   UNL     1      71.839  87.220  67.309  1.00  0.00     0.220 C 
ATOM      4  N   UNL     1      72.978  87.187  68.060  1.00  0.00    -0.352 N 
ATOM      5  H   UNL     1      73.528  88.034  68.029  1.00  0.00     0.163 HD
ATOM      6  O   UNL     1      71.082  86.222  67.239  1.00  0.00    -0.275 OA
BRANCH   4   7
ATOM      7  C   UNL     1      73.416  86.076  68.849  1.00  0.00     0.151 C 
BRANCH   7   8
ATOM      8  C   UNL     1      74.627  85.407  68.300  1.00  0.00    -0.025 A 
ATOM      9  C   UNL     1      75.799  84.332  66.424  1.00  0.00     0.160 A 
ATOM     10  C   UNL     1      76.946  84.169  67.231  1.00  0.00     0.157 A 
ATOM     11  C   UNL     1      74.644  84.931  66.969  1.00  0.00     0.056 A 
ATOM     12  C   UNL     1      76.928  84.603  68.570  1.00  0.00     0.050 A 
ATOM     13  C   UNL     1      75.781  85.227  69.098  1.00  0.00     0.009 A 
BRANCH   9  14
ATOM     14  O   UNL     1      75.794  83.878  65.133  1.00  0.00    -0.493 OA
ATOM     15  C   UNL     1      75.335  82.521  64.998  1.00  0.00     0.278 C 
ENDBRANCH   9  14
BRANCH  10  16
ATOM     16  O   UNL     1      78.072  83.594  66.734  1.00  0.00    -0.504 OA
ATOM     17  H   UNL     1      78.646  83.334  67.459  1.00  0.00     0.293 HD
ENDBRANCH  10  16
ENDBRANCH   7   8
ENDBRANCH   4   7
ENDBRANCH   2   3
ENDBRANCH   1   2
BRANCH   1  18
ATOM     18  C   UNL     1      73.465  89.080  65.087  1.00  0.00     0.001 C 
BRANCH  18  19
ATOM     19  C   UNL     1      74.561  87.995  64.882  1.00  0.00     0.000 C 
BRANCH  19  20
ATOM     20  C   UNL     1      75.989  88.591  65.027  1.00  0.00     0.000 C 
BRANCH  20  21
ATOM     21  C   UNL     1      76.089  89.768  66.035  1.00  0.00     0.003 C 
BRANCH  21  22
ATOM     22  C   UNL     1      76.700  89.386  67.423  1.00  0.00    -0.017 C 
ATOM     23  C   UNL     1      77.413  88.007  67.342  1.00  0.00     0.007 C 
ATOM     24  C   UNL     1      75.664  89.396  68.586  1.00  0.00     0.007 C 
ENDBRANCH  21  22
ENDBRANCH  20  21
ENDBRANCH  19  20
ENDBRANCH  18  19
ENDBRANCH   1  18
TORSDOF 11
ENDMDL
MODEL 8
REMARK VINA RESULT:    -5.401      5.123      8.010
REMARK INTER + INTRA:          -9.403
REMARK INTER:                  -8.125
REMARK INTRA:                  -1.278
REMARK UNBOUND:                -0.687
REMARK SMILES COc1cc(CNC(=O)CCCCCCC(C)C)ccc1O
REMARK SMILES IDX 11 1 10 2 8 3 7 4 9 6 6 7 5 8 3 9 21 10 4 11 20 12 19 13
REMARK SMILES IDX 2 14 1 15 22 16 12 18 13 19 14 20 15 21 16 22 17 23 18 24
REMARK H PARENT 7 5 22 17
REMARK Flexibility Score: inf
ROOT
ATOM      1  C   UNL     1      89.869  98.924  69.728  1.00  0.00     0.010 C 
ENDROOT
BRANCH   1   2
ATOM      2  C   UNL     1      91.140  99.329  70.524  1.00  0.00     0.100 C 
BRANCH   2   3
ATOM      3  C   UNL     1      92.031 100.246  69.778  1.00  0.00     0.220 C 
ATOM      4  N   UNL     1      91.522 101.351  69.160  1.00  0.00    -0.352 N 
ATOM      5  H   UNL     1      90.519 101.445  69.225  1.00  0.00     0.163 HD
ATOM      6  O   UNL     1      93.261  99.997  69.747  1.00  0.00    -0.275 OA
BRANCH   4   7
ATOM      7  C   UNL     1      92.291 102.335  68.461  1.00  0.00     0.151 C 
BRANCH   7   8
ATOM      8  C   UNL     1      92.442 102.040  67.010  1.00  0.00    -0.025 A 
ATOM      9  C   UNL     1      93.698 102.275  64.908  1.00  0.00     0.160 A 
ATOM     10  C   UNL     1      92.761 101.446  64.253  1.00  0.00     0.157 A 
ATOM     11  C   UNL     1      93.521 102.580  66.274  1.00  0.00     0.056 A 
ATOM     12  C   UNL     1      91.661 100.933  64.965  1.00  0.00     0.050 A 
ATOM     13  C   UNL     1      91.507 101.219  66.336  1.00  0.00     0.009 A 
BRANCH   9  14
ATOM     14  O   UNL     1      94.749 102.810  64.216  1.00  0.00    -0.493 OA
ATOM     15  C   UNL     1      94.550 104.182  63.828  1.00  0.00     0.278 C 
ENDBRANCH   9  14
BRANCH  10  16
ATOM     16  O   UNL     1      92.905 101.136  62.938  1.00  0.00    -0.504 OA
ATOM     17  H   UNL     1      92.380 101.741  62.408  1.00  0.00     0.293 HD
ENDBRANCH  10  16
ENDBRANCH   7   8
ENDBRANCH   4   7
ENDBRANCH   2   3
ENDBRANCH   1   2
BRANCH   1  18
ATOM     18  C   UNL     1      90.127  97.714  68.786  1.00  0.00     0.001 C 
BRANCH  18  19
ATOM     19  C   UNL     1      89.178  97.664  67.556  1.00  0.00     0.000 C 
BRANCH  19  20
ATOM     20  C   UNL     1      89.070  99.050  66.860  1.00  0.00     0.000 C 
BRANCH  20  21
ATOM     21  C   UNL     1      87.740  99.803  67.142  1.00  0.00     0.003 C 
BRANCH  21  22
ATOM     22  C   UNL     1      87.559 101.128  66.333  1.00  0.00    -0.017 C 
ATOM     23  C   UNL     1      88.193 102.324  67.097  1.00  0.00     0.007 C 
ATOM     24  C   UNL     1      86.078 101.440  65.967  1.00  0.00     0.007 C 
ENDBRANCH  21  22
ENDBRANCH  20  21
ENDBRANCH  19  20
ENDBRANCH  18  19
ENDBRANCH   1  18
TORSDOF 11
ENDMDL
MODEL 9
REMARK VINA RESULT:    -5.391     16.386     19.181
REMARK INTER + INTRA:          -9.387
REMARK INTER:                  -8.480
REMARK INTRA:                  -0.907
REMARK UNBOUND:                -0.687
REMARK SMILES COc1cc(CNC(=O)CCCCCCC(C)C)ccc1O
REMARK SMILES IDX 11 1 10 2 8 3 7 4 9 6 6 7 5 8 3 9 21 10 4 11 20 12 19 13
REMARK SMILES IDX 2 14 1 15 22 16 12 18 13 19 14 20 15 21 16 22 17 23 18 24
REMARK H PARENT 7 5 22 17
REMARK Flexibility Score: inf
ROOT
ATOM      1  C   UNL     1      97.054  79.152  81.666  1.00  0.00     0.010 C 
ENDROOT
BRANCH   1   2
ATOM      2  C   UNL     1      98.560  79.507  81.525  1.00  0.00     0.100 C 
BRANCH   2   3
ATOM      3  C   UNL     1      99.026  79.529  80.120  1.00  0.00     0.220 C 
ATOM      4  N   UNL     1      98.555  80.469  79.252  1.00  0.00    -0.352 N 
ATOM      5  H   UNL     1      97.856  81.087  79.638  1.00  0.00     0.163 HD
ATOM      6  O   UNL     1      99.879  78.682  79.756  1.00  0.00    -0.275 OA
BRANCH   4   7
ATOM      7  C   UNL     1      98.975  80.623  77.892  1.00  0.00     0.151 C 
BRANCH   7   8
ATOM      8  C   UNL     1      98.071  81.497  77.094  1.00  0.00    -0.025 A 
ATOM      9  C   UNL     1      97.507  82.603  74.971  1.00  0.00     0.160 A 
ATOM     10  C   UNL     1      96.332  83.125  75.553  1.00  0.00     0.157 A 
ATOM     11  C   UNL     1      98.376  81.810  75.750  1.00  0.00     0.056 A 
ATOM     12  C   UNL     1      96.037  82.853  76.901  1.00  0.00     0.050 A 
ATOM     13  C   UNL     1      96.894  82.036  77.664  1.00  0.00     0.009 A 
BRANCH   9  14
ATOM     14  O   UNL     1      97.823  82.894  73.672  1.00  0.00    -0.493 OA
ATOM     15  C   UNL     1      98.927  83.806  73.534  1.00  0.00     0.278 C 
ENDBRANCH   9  14
BRANCH  10  16
ATOM     16  O   UNL     1      95.477  83.894  74.827  1.00  0.00    -0.504 OA
ATOM     17  H   UNL     1      94.643  83.973  75.295  1.00  0.00     0.293 HD
ENDBRANCH  10  16
ENDBRANCH   7   8
ENDBRANCH   4   7
ENDBRANCH   2   3
ENDBRANCH   1   2
BRANCH   1  18
ATOM     18  C   UNL     1      96.733  78.491  83.037  1.00  0.00     0.001 C 
BRANCH  18  19
ATOM     19  C   UNL     1      95.499  79.106  83.756  1.00  0.00     0.000 C 
BRANCH  19  20
ATOM     20  C   UNL     1      95.925  80.081  84.890  1.00  0.00     0.000 C 
BRANCH  20  21
ATOM     21  C   UNL     1      96.842  81.244  84.420  1.00  0.00     0.003 C 
BRANCH  21  22
ATOM     22  C   UNL     1      96.119  82.623  84.270  1.00  0.00    -0.017 C 
ATOM     23  C   UNL     1      94.689  82.555  84.877  1.00  0.00     0.007 C 
ATOM     24  C   UNL     1      96.065  83.145  82.805  1.00  0.00     0.007 C 
ENDBRANCH  21  22
ENDBRANCH  20  21
ENDBRANCH  19  20
ENDBRANCH  18  19
ENDBRANCH   1  18
TORSDOF 11
ENDMDL
MODEL 10
REMARK VINA RESULT:    -5.368      4.064      9.027
REMARK INTER + INTRA:          -9.350
REMARK INTER:                  -8.230
REMARK INTRA:                  -1.120
REMARK UNBOUND:                -0.687
REMARK SMILES COc1cc(CNC(=O)CCCCCCC(C)C)ccc1O
REMARK SMILES IDX 11 1 10 2 8 3 7 4 9 6 6 7 5 8 3 9 21 10 4 11 20 12 19 13
REMARK SMILES IDX 2 14 1 15 22 16 12 18 13 19 14 20 15 21 16 22 17 23 18 24
REMARK H PARENT 7 5 22 17
REMARK Flexibility Score: inf
ROOT
ATOM      1  C   UNL     1      95.214 100.330  73.435  1.00  0.00     0.010 C 
ENDROOT
BRANCH   1   2
ATOM      2  C   UNL     1      95.435  99.054  74.295  1.00  0.00     0.100 C 
BRANCH   2   3
ATOM      3  C   UNL     1      94.341  98.066  74.168  1.00  0.00     0.220 C 
ATOM      4  N   UNL     1      94.369  96.910  74.892  1.00  0.00    -0.352 N 
ATOM      5  H   UNL     1      95.195  96.787  75.458  1.00  0.00     0.163 HD
ATOM      6  O   UNL     1      93.381  98.327  73.402  1.00  0.00    -0.275 OA
BRANCH   4   7
ATOM      7  C   UNL     1      93.343  95.912  74.894  1.00  0.00     0.151 C 
BRANCH   7   8
ATOM      8  C   UNL     1      93.382  95.033  76.096  1.00  0.00    -0.025 A 
ATOM      9  C   UNL     1      94.657  93.664  77.691  1.00  0.00     0.160 A 
ATOM     10  C   UNL     1      93.472  93.394  78.410  1.00  0.00     0.157 A 
ATOM     11  C   UNL     1      94.600  94.464  76.531  1.00  0.00     0.056 A 
ATOM     12  C   UNL     1      92.247  93.922  77.964  1.00  0.00     0.050 A 
ATOM     13  C   UNL     1      92.202  94.745  76.822  1.00  0.00     0.009 A 
BRANCH   9  14
ATOM     14  O   UNL     1      95.847  93.122  78.094  1.00  0.00    -0.493 OA
ATOM     15  C   UNL     1      96.677  94.034  78.837  1.00  0.00     0.278 C 
ENDBRANCH   9  14
BRANCH  10  16
ATOM     16  O   UNL     1      93.496  92.624  79.530  1.00  0.00    -0.504 OA
ATOM     17  H   UNL     1      92.606  92.330  79.735  1.00  0.00     0.293 HD
ENDBRANCH  10  16
ENDBRANCH   7   8
ENDBRANCH   4   7
ENDBRANCH   2   3
ENDBRANCH   1   2
BRANCH   1  18
ATOM     18  C   UNL     1      96.153 100.372  72.196  1.00  0.00     0.001 C 
BRANCH  18  19
ATOM     19  C   UNL     1      95.399 100.527  70.845  1.00  0.00     0.000 C 
BRANCH  19  20
ATOM     20  C   UNL     1      95.826  99.434  69.824  1.00  0.00     0.000 C 
BRANCH  20  21
ATOM     21  C   UNL     1      95.123  98.063  70.027  1.00  0.00     0.003 C 
BRANCH  21  22
ATOM     22  C   UNL     1      96.097  96.851  70.189  1.00  0.00    -0.017 C 
ATOM     23  C   UNL     1      96.196  96.428  71.682  1.00  0.00     0.007 C 
ATOM     24  C   UNL     1      97.516  97.105  69.600  1.00  0.00     0.007 C 
ENDBRANCH  21  22
ENDBRANCH  20  21
ENDBRANCH  19  20
ENDBRANCH  18  19
ENDBRANCH   1  18
TORSDOF 11
ENDMDL
