MODEL 1
REMARK VINA RESULT:    -7.158      0.000      0.000
REMARK INTER + INTRA:         -12.878
REMARK INTER:                 -12.180
REMARK INTRA:                  -0.698
REMARK UNBOUND:                -0.698
REMARK SMILES C=C(C)[C@]12C[C@@H](C)[C@@]34O[C@](Cc5ccccc5)(O[C@@H]1[C@@H]3C=C(COC(=O)Cc1ccc(O)cc1)C[C@]1(O)C(=O)C(C)=C[C@@H]41)O2
REMARK SMILES IDX 23 1 22 2 21 3 20 4 9 5 8 6 10 7 6 8 18 10 44 11 19 12 5 13
REMARK SMILES IDX 7 14 4 15 11 16 12 17 13 18 17 19 14 20 16 21 15 22 2 23
REMARK SMILES IDX 3 24 1 25 35 26 36 27 43 28 38 29 42 30 39 32 40 33 41 34
REMARK SMILES IDX 37 35 24 37 25 38 26 39 27 40 28 41 29 42 34 43 30 44 33 45
REMARK SMILES IDX 31 46 32 47
REMARK H PARENT 37 36 32 48
REMARK Flexibility Score: 90.00
ROOT
ATOM      1  C   UNL     1      95.940  87.812  89.182  1.00  0.00     0.264 C 
ENDROOT
BRANCH   1   2
ATOM      2  C   UNL     1      95.362  86.480  88.761  1.00  0.00    -0.033 C 
ATOM      3  C   UNL     1      96.120  85.632  88.036  1.00  0.00    -0.015 C 
BRANCH   3   4
ATOM      4  C   UNL     1      95.753  84.285  87.432  1.00  0.00     0.078 C 
ATOM      5  O   UNL     1      96.377  82.559  89.090  1.00  0.00    -0.319 OA
ATOM      6  C   UNL     1      95.237  83.151  88.392  1.00  0.00     0.095 CG0
ATOM      7  C   UNL     1      97.540  82.319  88.275  1.00  0.00     0.289 C 
ATOM      8  C   UNL     1      94.540  82.045  87.496  1.00  0.00     0.023 C 
ATOM      9  G   UNL     1      94.353  83.746  89.527  1.00  0.00     0.000 G0
ATOM     10  O   UNL     1      97.997  83.519  87.658  1.00  0.00    -0.320 OA
ATOM     11  O   UNL     1      97.276  81.413  87.206  1.00  0.00    -0.313 OA
ATOM     12  C   UNL     1      96.969  83.701  86.672  1.00  0.00     0.170 C 
ATOM     13  C   UNL     1      95.230  81.921  86.102  1.00  0.00     0.049 C 
ATOM     14  C   UNL     1      94.427  80.651  88.135  1.00  0.00     0.011 C 
ATOM     15  C   UNL     1      96.720  82.256  86.176  1.00  0.00     0.122 C 
BRANCH   7  16
ATOM     16  C   UNL     1      98.630  81.749  89.161  1.00  0.00     0.135 C 
BRANCH  16  17
ATOM     17  C   UNL     1     100.008  82.018  88.607  1.00  0.00    -0.040 A 
ATOM     18  C   UNL     1     100.518  81.215  87.587  1.00  0.00     0.004 A 
ATOM     19  C   UNL     1     100.770  83.069  89.116  1.00  0.00     0.004 A 
ATOM     20  C   UNL     1     101.792  81.464  87.075  1.00  0.00     0.000 A 
ATOM     21  C   UNL     1     102.043  83.318  88.603  1.00  0.00     0.000 A 
ATOM     22  C   UNL     1     102.554  82.516  87.584  1.00  0.00     0.000 A 
ENDBRANCH  16  17
ENDBRANCH   7  16
BRANCH  15  23
ATOM     23  C   UNL     1      97.437  81.970  84.897  1.00  0.00    -0.046 C 
ATOM     24  C   UNL     1      97.707  83.150  84.011  1.00  0.00     0.042 C 
ATOM     25  C   UNL     1      97.816  80.728  84.559  1.00  0.00     0.010 C 
ENDBRANCH  15  23
ENDBRANCH   3   4
BRANCH   2  26
ATOM     26  C   UNL     1      93.939  86.270  89.243  1.00  0.00     0.078 C 
BRANCH  26  27
ATOM     27  C   UNL     1      93.349  84.870  89.086  1.00  0.00     0.140 C 
ATOM     28  C   UNL     1      94.337  83.768  89.520  1.00  0.00     0.086 CG0
ATOM     29  C   UNL     1      92.171  84.631  90.007  1.00  0.00     0.190 C 
ATOM     30  C   UNL     1      93.494  82.856  90.368  1.00  0.00    -0.010 C 
ATOM     31  G   UNL     1      95.223  83.160  88.394  1.00  0.00     0.000 G0
ATOM     32  O   UNL     1      91.218  85.383  90.148  1.00  0.00    -0.291 OA
ATOM     33  C   UNL     1      92.283  83.325  90.682  1.00  0.00    -0.008 C 
ATOM     34  C   UNL     1      91.236  82.747  91.550  1.00  0.00     0.048 C 
BRANCH  27  35
ATOM     35  O   UNL     1      92.809  84.678  87.789  1.00  0.00    -0.381 OA
ATOM     36  H   UNL     1      92.085  84.031  87.851  1.00  0.00     0.212 HD
ENDBRANCH  27  35
ENDBRANCH  26  27
ENDBRANCH   2  26
ENDBRANCH   1   2
BRANCH   1  37
ATOM     37  O   UNL     1      96.074  87.839  90.587  1.00  0.00    -0.461 OA
BRANCH  37  38
ATOM     38  C   UNL     1      96.042  89.082  91.176  1.00  0.00     0.310 C 
ATOM     39  O   UNL     1      96.280  89.307  92.354  1.00  0.00    -0.252 OA
BRANCH  38  40
ATOM     40  C   UNL     1      95.669  90.119  90.144  1.00  0.00     0.158 C 
BRANCH  40  41
ATOM     41  C   UNL     1      94.466  90.936  90.540  1.00  0.00    -0.037 A 
ATOM     42  C   UNL     1      94.456  92.314  90.320  1.00  0.00     0.008 A 
ATOM     43  C   UNL     1      93.364  90.316  91.127  1.00  0.00     0.008 A 
ATOM     44  C   UNL     1      93.343  93.071  90.688  1.00  0.00     0.046 A 
ATOM     45  C   UNL     1      92.250  91.073  91.494  1.00  0.00     0.046 A 
ATOM     46  C   UNL     1      92.240  92.450  91.275  1.00  0.00     0.115 A 
BRANCH  46  47
ATOM     47  O   UNL     1      91.155  93.188  91.634  1.00  0.00    -0.508 OA
ATOM     48  H   UNL     1      91.304  93.556  92.522  1.00  0.00     0.293 HD
ENDBRANCH  46  47
ENDBRANCH  40  41
ENDBRANCH  38  40
ENDBRANCH  37  38
ENDBRANCH   1  37
TORSDOF 10
ENDMDL
MODEL 2
REMARK VINA RESULT:    -7.145     30.038     32.660
REMARK INTER + INTRA:         -12.855
REMARK INTER:                 -10.468
REMARK INTRA:                  -2.387
REMARK UNBOUND:                -0.698
REMARK SMILES C=C(C)[C@]12C[C@@H](C)[C@@]34O[C@](Cc5ccccc5)(O[C@@H]1[C@@H]3C=C(COC(=O)Cc1ccc(O)cc1)C[C@]1(O)C(=O)C(C)=C[C@@H]41)O2
REMARK SMILES IDX 23 1 22 2 21 3 20 4 9 5 8 6 10 7 6 8 18 10 44 11 19 12 5 13
REMARK SMILES IDX 7 14 4 15 11 16 12 17 13 18 17 19 14 20 16 21 15 22 2 23
REMARK SMILES IDX 3 24 1 25 35 26 36 27 43 28 38 29 42 30 39 32 40 33 41 34
REMARK SMILES IDX 37 35 24 37 25 38 26 39 27 40 28 41 29 42 34 43 30 44 33 45
REMARK SMILES IDX 31 46 32 47
REMARK H PARENT 37 36 32 48
REMARK Flexibility Score: 90.00
ROOT
ATOM      1  C   UNL     1      74.842  86.128  69.744  1.00  0.00     0.264 C 
ENDROOT
BRANCH   1   2
ATOM      2  C   UNL     1      74.350  86.079  68.316  1.00  0.00    -0.033 C 
ATOM      3  C   UNL     1      74.102  84.882  67.745  1.00  0.00    -0.015 C 
BRANCH   3   4
ATOM      4  C   UNL     1      73.678  84.562  66.320  1.00  0.00     0.078 C 
ATOM      5  O   UNL     1      71.207  84.465  66.308  1.00  0.00    -0.319 OA
ATOM      6  C   UNL     1      72.350  85.202  65.773  1.00  0.00     0.095 CG0
ATOM      7  C   UNL     1      71.349  83.031  66.315  1.00  0.00     0.289 C 
ATOM      8  C   UNL     1      72.368  85.067  64.194  1.00  0.00     0.023 C 
ATOM      9  G   UNL     1      72.168  86.649  66.317  1.00  0.00     0.000 G0
ATOM     10  O   UNL     1      72.497  82.628  67.054  1.00  0.00    -0.320 OA
ATOM     11  O   UNL     1      71.527  82.498  65.005  1.00  0.00    -0.313 OA
ATOM     12  C   UNL     1      73.535  83.030  66.146  1.00  0.00     0.170 C 
ATOM     13  C   UNL     1      73.095  83.764  63.740  1.00  0.00     0.049 C 
ATOM     14  C   UNL     1      70.994  85.149  63.508  1.00  0.00     0.011 C 
ATOM     15  C   UNL     1      72.943  82.643  64.769  1.00  0.00     0.122 C 
BRANCH   7  16
ATOM     16  C   UNL     1      70.102  82.434  66.937  1.00  0.00     0.135 C 
BRANCH  16  17
ATOM     17  C   UNL     1      68.872  83.256  66.641  1.00  0.00    -0.040 A 
ATOM     18  C   UNL     1      68.303  84.044  67.641  1.00  0.00     0.004 A 
ATOM     19  C   UNL     1      68.305  83.227  65.368  1.00  0.00     0.004 A 
ATOM     20  C   UNL     1      67.165  84.805  67.367  1.00  0.00     0.000 A 
ATOM     21  C   UNL     1      67.168  83.988  65.094  1.00  0.00     0.000 A 
ATOM     22  C   UNL     1      66.599  84.776  66.093  1.00  0.00     0.000 A 
ENDBRANCH  16  17
ENDBRANCH   7  16
BRANCH  15  23
ATOM     23  C   UNL     1      73.474  81.336  64.276  1.00  0.00    -0.046 C 
ATOM     24  C   UNL     1      74.937  81.299  63.946  1.00  0.00     0.042 C 
ATOM     25  C   UNL     1      72.688  80.258  64.137  1.00  0.00     0.010 C 
ENDBRANCH  15  23
ENDBRANCH   3   4
BRANCH   2  26
ATOM     26  C   UNL     1      74.187  87.454  67.695  1.00  0.00     0.078 C 
BRANCH  26  27
ATOM     27  C   UNL     1      73.460  87.532  66.354  1.00  0.00     0.140 C 
ATOM     28  C   UNL     1      72.187  86.660  66.329  1.00  0.00     0.086 CG0
ATOM     29  C   UNL     1      72.912  88.915  66.072  1.00  0.00     0.190 C 
ATOM     30  C   UNL     1      71.154  87.566  65.718  1.00  0.00    -0.010 C 
ATOM     31  G   UNL     1      72.358  85.215  65.776  1.00  0.00     0.000 G0
ATOM     32  O   UNL     1      73.537  89.959  66.176  1.00  0.00    -0.291 OA
ATOM     33  C   UNL     1      71.520  88.844  65.587  1.00  0.00    -0.008 C 
ATOM     34  C   UNL     1      70.748  90.011  65.112  1.00  0.00     0.048 C 
BRANCH  27  35
ATOM     35  O   UNL     1      74.342  87.290  65.271  1.00  0.00    -0.381 OA
ATOM     36  H   UNL     1      74.769  88.129  65.030  1.00  0.00     0.212 HD
ENDBRANCH  27  35
ENDBRANCH  26  27
ENDBRANCH   2  26
ENDBRANCH   1   2
BRANCH   1  37
ATOM     37  O   UNL     1      76.199  86.517  69.757  1.00  0.00    -0.461 OA
BRANCH  37  38
ATOM     38  C   UNL     1      77.118  85.512  69.954  1.00  0.00     0.310 C 
ATOM     39  O   UNL     1      77.031  84.638  70.806  1.00  0.00    -0.252 OA
BRANCH  38  40
ATOM     40  C   UNL     1      78.244  85.656  68.959  1.00  0.00     0.158 C 
BRANCH  40  41
ATOM     41  C   UNL     1      77.857  85.229  67.567  1.00  0.00    -0.037 A 
ATOM     42  C   UNL     1      77.792  83.873  67.246  1.00  0.00     0.008 A 
ATOM     43  C   UNL     1      77.563  86.189  66.599  1.00  0.00     0.008 A 
ATOM     44  C   UNL     1      77.435  83.478  65.956  1.00  0.00     0.046 A 
ATOM     45  C   UNL     1      77.205  85.794  65.310  1.00  0.00     0.046 A 
ATOM     46  C   UNL     1      77.141  84.439  64.988  1.00  0.00     0.115 A 
BRANCH  46  47
ATOM     47  O   UNL     1      76.793  84.053  63.731  1.00  0.00    -0.508 OA
ATOM     48  H   UNL     1      76.754  83.081  63.698  1.00  0.00     0.293 HD
ENDBRANCH  46  47
ENDBRANCH  40  41
ENDBRANCH  38  40
ENDBRANCH  37  38
ENDBRANCH   1  37
TORSDOF 10
ENDMDL
MODEL 3
REMARK VINA RESULT:    -7.078     28.137     30.545
REMARK INTER + INTRA:         -12.742
REMARK INTER:                 -10.880
REMARK INTRA:                  -1.861
REMARK UNBOUND:                -0.698
REMARK SMILES C=C(C)[C@]12C[C@@H](C)[C@@]34O[C@](Cc5ccccc5)(O[C@@H]1[C@@H]3C=C(COC(=O)Cc1ccc(O)cc1)C[C@]1(O)C(=O)C(C)=C[C@@H]41)O2
REMARK SMILES IDX 23 1 22 2 21 3 20 4 9 5 8 6 10 7 6 8 18 10 44 11 19 12 5 13
REMARK SMILES IDX 7 14 4 15 11 16 12 17 13 18 17 19 14 20 16 21 15 22 2 23
REMARK SMILES IDX 3 24 1 25 35 26 36 27 43 28 38 29 42 30 39 32 40 33 41 34
REMARK SMILES IDX 37 35 24 37 25 38 26 39 27 40 28 41 29 42 34 43 30 44 33 45
REMARK SMILES IDX 31 46 32 47
REMARK H PARENT 37 36 32 48
REMARK Flexibility Score: 90.00
ROOT
ATOM      1  C   UNL     1      71.452  88.616  71.529  1.00  0.00     0.264 C 
ENDROOT
BRANCH   1   2
ATOM      2  C   UNL     1      72.789  88.723  70.832  1.00  0.00    -0.033 C 
ATOM      3  C   UNL     1      73.455  87.595  70.507  1.00  0.00    -0.015 C 
BRANCH   3   4
ATOM      4  C   UNL     1      74.830  87.433  69.880  1.00  0.00     0.078 C 
ATOM      5  O   UNL     1      74.494  87.272  67.435  1.00  0.00    -0.319 OA
ATOM      6  C   UNL     1      75.097  88.098  68.480  1.00  0.00     0.095 CG0
ATOM      7  C   UNL     1      74.680  85.852  67.589  1.00  0.00     0.289 C 
ATOM      8  C   UNL     1      76.666  88.149  68.265  1.00  0.00     0.023 C 
ATOM      9  G   UNL     1      74.362  89.465  68.367  1.00  0.00     0.000 G0
ATOM     10  O   UNL     1      74.170  85.395  68.839  1.00  0.00    -0.320 OA
ATOM     11  O   UNL     1      76.056  85.481  67.577  1.00  0.00    -0.313 OA
ATOM     12  C   UNL     1      75.165  85.929  69.727  1.00  0.00     0.170 C 
ATOM     13  C   UNL     1      77.375  86.929  68.928  1.00  0.00     0.049 C 
ATOM     14  C   UNL     1      77.130  88.275  66.803  1.00  0.00     0.011 C 
ATOM     15  C   UNL     1      76.477  85.691  68.941  1.00  0.00     0.122 C 
BRANCH   7  16
ATOM     16  C   UNL     1      73.959  85.153  66.454  1.00  0.00     0.135 C 
BRANCH  16  17
ATOM     17  C   UNL     1      74.775  84.025  65.874  1.00  0.00    -0.040 A 
ATOM     18  C   UNL     1      74.574  82.718  66.319  1.00  0.00     0.004 A 
ATOM     19  C   UNL     1      75.729  84.289  64.893  1.00  0.00     0.004 A 
ATOM     20  C   UNL     1      75.329  81.675  65.782  1.00  0.00     0.000 A 
ATOM     21  C   UNL     1      76.484  83.245  64.356  1.00  0.00     0.000 A 
ATOM     22  C   UNL     1      76.284  81.939  64.800  1.00  0.00     0.000 A 
ENDBRANCH  16  17
ENDBRANCH   7  16
BRANCH  15  23
ATOM     23  C   UNL     1      77.195  84.466  69.405  1.00  0.00    -0.046 C 
ATOM     24  C   UNL     1      77.998  83.737  68.368  1.00  0.00     0.042 C 
ATOM     25  C   UNL     1      77.127  84.042  70.675  1.00  0.00     0.010 C 
ENDBRANCH  15  23
ENDBRANCH   3   4
BRANCH   2  26
ATOM     26  C   UNL     1      73.214  90.156  70.577  1.00  0.00     0.078 C 
BRANCH  26  27
ATOM     27  C   UNL     1      74.418  90.374  69.662  1.00  0.00     0.140 C 
ATOM     28  C   UNL     1      74.362  89.488  68.401  1.00  0.00     0.086 CG0
ATOM     29  C   UNL     1      74.457  91.770  69.077  1.00  0.00     0.190 C 
ATOM     30  C   UNL     1      74.708  90.438  67.289  1.00  0.00    -0.010 C 
ATOM     31  G   UNL     1      75.098  88.119  68.492  1.00  0.00     0.000 G0
ATOM     32  O   UNL     1      74.323  92.807  69.709  1.00  0.00    -0.291 OA
ATOM     33  C   UNL     1      74.741  91.730  67.630  1.00  0.00    -0.008 C 
ATOM     34  C   UNL     1      74.961  92.929  66.795  1.00  0.00     0.048 C 
BRANCH  27  35
ATOM     35  O   UNL     1      75.638  90.274  70.378  1.00  0.00    -0.381 OA
ATOM     36  H   UNL     1      76.312  90.795  69.910  1.00  0.00     0.212 HD
ENDBRANCH  27  35
ENDBRANCH  26  27
ENDBRANCH   2  26
ENDBRANCH   1   2
BRANCH   1  37
ATOM     37  O   UNL     1      70.419  88.835  70.592  1.00  0.00    -0.461 OA
BRANCH  37  38
ATOM     38  C   UNL     1      69.408  87.902  70.573  1.00  0.00     0.310 C 
ATOM     39  O   UNL     1      68.288  88.090  70.118  1.00  0.00    -0.252 OA
BRANCH  38  40
ATOM     40  C   UNL     1      69.896  86.618  71.198  1.00  0.00     0.158 C 
BRANCH  40  41
ATOM     41  C   UNL     1      69.985  85.481  70.213  1.00  0.00    -0.037 A 
ATOM     42  C   UNL     1      69.443  84.236  70.533  1.00  0.00     0.008 A 
ATOM     43  C   UNL     1      70.610  85.673  68.982  1.00  0.00     0.008 A 
ATOM     44  C   UNL     1      69.527  83.184  69.621  1.00  0.00     0.046 A 
ATOM     45  C   UNL     1      70.694  84.621  68.069  1.00  0.00     0.046 A 
ATOM     46  C   UNL     1      70.152  83.376  68.389  1.00  0.00     0.115 A 
BRANCH  46  47
ATOM     47  O   UNL     1      70.234  82.350  67.500  1.00  0.00    -0.508 OA
ATOM     48  H   UNL     1      71.077  81.881  67.635  1.00  0.00     0.293 HD
ENDBRANCH  46  47
ENDBRANCH  40  41
ENDBRANCH  38  40
ENDBRANCH  37  38
ENDBRANCH   1  37
TORSDOF 10
ENDMDL
MODEL 4
REMARK VINA RESULT:    -7.012      3.389      7.195
REMARK INTER + INTRA:         -12.630
REMARK INTER:                 -11.579
REMARK INTRA:                  -1.051
REMARK UNBOUND:                -0.698
REMARK SMILES C=C(C)[C@]12C[C@@H](C)[C@@]34O[C@](Cc5ccccc5)(O[C@@H]1[C@@H]3C=C(COC(=O)Cc1ccc(O)cc1)C[C@]1(O)C(=O)C(C)=C[C@@H]41)O2
REMARK SMILES IDX 23 1 22 2 21 3 20 4 9 5 8 6 10 7 6 8 18 10 44 11 19 12 5 13
REMARK SMILES IDX 7 14 4 15 11 16 12 17 13 18 17 19 14 20 16 21 15 22 2 23
REMARK SMILES IDX 3 24 1 25 35 26 36 27 43 28 38 29 42 30 39 32 40 33 41 34
REMARK SMILES IDX 37 35 24 37 25 38 26 39 27 40 28 41 29 42 34 43 30 44 33 45
REMARK SMILES IDX 31 46 32 47
REMARK H PARENT 37 36 32 48
REMARK Flexibility Score: 90.00
ROOT
ATOM      1  C   UNL     1      95.716  85.868  87.371  1.00  0.00     0.264 C 
ENDROOT
BRANCH   1   2
ATOM      2  C   UNL     1      94.508  85.329  88.103  1.00  0.00    -0.033 C 
ATOM      3  C   UNL     1      93.769  84.358  87.528  1.00  0.00    -0.015 C 
BRANCH   3   4
ATOM      4  C   UNL     1      92.482  83.709  88.014  1.00  0.00     0.078 C 
ATOM      5  O   UNL     1      93.131  81.707  89.312  1.00  0.00    -0.319 OA
ATOM      6  C   UNL     1      92.482  83.012  89.423  1.00  0.00     0.095 CG0
ATOM      7  C   UNL     1      92.775  80.940  88.145  1.00  0.00     0.289 C 
ATOM      8  C   UNL     1      90.972  82.809  89.858  1.00  0.00     0.023 C 
ATOM      9  G   UNL     1      93.368  83.800  90.431  1.00  0.00     0.000 G0
ATOM     10  O   UNL     1      93.058  81.658  86.948  1.00  0.00    -0.320 OA
ATOM     11  O   UNL     1      91.382  80.643  88.097  1.00  0.00    -0.313 OA
ATOM     12  C   UNL     1      92.013  82.643  86.993  1.00  0.00     0.170 C 
ATOM     13  C   UNL     1      90.053  82.544  88.627  1.00  0.00     0.049 C 
ATOM     14  C   UNL     1      90.729  81.722  90.919  1.00  0.00     0.011 C 
ATOM     15  C   UNL     1      90.803  81.825  87.505  1.00  0.00     0.122 C 
BRANCH   7  16
ATOM     16  C   UNL     1      93.566  79.647  88.167  1.00  0.00     0.135 C 
BRANCH  16  17
ATOM     17  C   UNL     1      95.016  79.864  87.813  1.00  0.00    -0.040 A 
ATOM     18  C   UNL     1      95.777  80.792  88.523  1.00  0.00     0.004 A 
ATOM     19  C   UNL     1      95.595  79.136  86.774  1.00  0.00     0.004 A 
ATOM     20  C   UNL     1      97.118  80.992  88.195  1.00  0.00     0.000 A 
ATOM     21  C   UNL     1      96.937  79.337  86.445  1.00  0.00     0.000 A 
ATOM     22  C   UNL     1      97.697  80.264  87.156  1.00  0.00     0.000 A 
ENDBRANCH  16  17
ENDBRANCH   7  16
BRANCH  15  23
ATOM     23  C   UNL     1      89.901  81.400  86.392  1.00  0.00    -0.046 C 
ATOM     24  C   UNL     1      90.440  80.347  85.469  1.00  0.00     0.042 C 
ATOM     25  C   UNL     1      88.680  81.929  86.228  1.00  0.00     0.010 C 
ENDBRANCH  15  23
ENDBRANCH   3   4
BRANCH   2  26
ATOM     26  C   UNL     1      94.288  85.984  89.454  1.00  0.00     0.078 C 
BRANCH  26  27
ATOM     27  C   UNL     1      93.232  85.364  90.366  1.00  0.00     0.140 C 
ATOM     28  C   UNL     1      93.355  83.828  90.442  1.00  0.00     0.086 CG0
ATOM     29  C   UNL     1      93.402  85.775  91.813  1.00  0.00     0.190 C 
ATOM     30  C   UNL     1      93.242  83.540  91.913  1.00  0.00    -0.010 C 
ATOM     31  G   UNL     1      92.483  83.020  89.436  1.00  0.00     0.000 G0
ATOM     32  O   UNL     1      93.559  86.920  92.210  1.00  0.00    -0.291 OA
ATOM     33  C   UNL     1      93.294  84.610  92.711  1.00  0.00    -0.008 C 
ATOM     34  C   UNL     1      93.296  84.697  94.186  1.00  0.00     0.048 C 
BRANCH  27  35
ATOM     35  O   UNL     1      91.930  85.819  90.036  1.00  0.00    -0.381 OA
ATOM     36  H   UNL     1      91.747  85.580  89.112  1.00  0.00     0.212 HD
ENDBRANCH  27  35
ENDBRANCH  26  27
ENDBRANCH   2  26
ENDBRANCH   1   2
BRANCH   1  37
ATOM     37  O   UNL     1      95.779  85.289  86.085  1.00  0.00    -0.461 OA
BRANCH  37  38
ATOM     38  C   UNL     1      96.915  84.568  85.799  1.00  0.00     0.310 C 
ATOM     39  O   UNL     1      98.052  84.898  86.107  1.00  0.00    -0.252 OA
BRANCH  38  40
ATOM     40  C   UNL     1      96.540  83.313  85.050  1.00  0.00     0.158 C 
BRANCH  40  41
ATOM     41  C   UNL     1      97.534  82.948  83.978  1.00  0.00    -0.037 A 
ATOM     42  C   UNL     1      98.539  82.018  84.246  1.00  0.00     0.008 A 
ATOM     43  C   UNL     1      97.451  83.540  82.718  1.00  0.00     0.008 A 
ATOM     44  C   UNL     1      99.460  81.681  83.254  1.00  0.00     0.046 A 
ATOM     45  C   UNL     1      98.371  83.203  81.726  1.00  0.00     0.046 A 
ATOM     46  C   UNL     1      99.376  82.274  81.993  1.00  0.00     0.115 A 
BRANCH  46  47
ATOM     47  O   UNL     1     100.275  81.946  81.026  1.00  0.00    -0.508 OA
ATOM     48  H   UNL     1     101.172  81.986  81.402  1.00  0.00     0.293 HD
ENDBRANCH  46  47
ENDBRANCH  40  41
ENDBRANCH  38  40
ENDBRANCH  37  38
ENDBRANCH   1  37
TORSDOF 10
ENDMDL
MODEL 5
REMARK VINA RESULT:    -7.002     29.289     31.874
REMARK INTER + INTRA:         -12.612
REMARK INTER:                 -12.076
REMARK INTRA:                  -0.536
REMARK UNBOUND:                -0.698
REMARK SMILES C=C(C)[C@]12C[C@@H](C)[C@@]34O[C@](Cc5ccccc5)(O[C@@H]1[C@@H]3C=C(COC(=O)Cc1ccc(O)cc1)C[C@]1(O)C(=O)C(C)=C[C@@H]41)O2
REMARK SMILES IDX 23 1 22 2 21 3 20 4 9 5 8 6 10 7 6 8 18 10 44 11 19 12 5 13
REMARK SMILES IDX 7 14 4 15 11 16 12 17 13 18 17 19 14 20 16 21 15 22 2 23
REMARK SMILES IDX 3 24 1 25 35 26 36 27 43 28 38 29 42 30 39 32 40 33 41 34
REMARK SMILES IDX 37 35 24 37 25 38 26 39 27 40 28 41 29 42 34 43 30 44 33 45
REMARK SMILES IDX 31 46 32 47
REMARK H PARENT 37 36 32 48
REMARK Flexibility Score: 90.00
ROOT
ATOM      1  C   UNL     1      70.425  83.811  67.874  1.00  0.00     0.264 C 
ENDROOT
BRANCH   1   2
ATOM      2  C   UNL     1      71.687  84.290  67.194  1.00  0.00    -0.033 C 
ATOM      3  C   UNL     1      72.106  85.556  67.401  1.00  0.00    -0.015 C 
BRANCH   3   4
ATOM      4  C   UNL     1      73.284  86.294  66.785  1.00  0.00     0.078 C 
ATOM      5  O   UNL     1      75.202  85.997  68.317  1.00  0.00    -0.319 OA
ATOM      6  C   UNL     1      74.725  85.692  66.969  1.00  0.00     0.095 CG0
ATOM      7  C   UNL     1      74.933  87.335  68.776  1.00  0.00     0.289 C 
ATOM      8  C   UNL     1      75.675  86.386  65.908  1.00  0.00     0.023 C 
ATOM      9  G   UNL     1      74.685  84.137  66.915  1.00  0.00     0.000 G0
ATOM     10  O   UNL     1      73.538  87.623  68.745  1.00  0.00    -0.320 OA
ATOM     11  O   UNL     1      75.549  88.325  67.955  1.00  0.00    -0.313 OA
ATOM     12  C   UNL     1      73.338  87.743  67.328  1.00  0.00     0.170 C 
ATOM     13  C   UNL     1      75.250  87.862  65.640  1.00  0.00     0.049 C 
ATOM     14  C   UNL     1      77.177  86.339  66.234  1.00  0.00     0.011 C 
ATOM     15  C   UNL     1      74.610  88.500  66.873  1.00  0.00     0.122 C 
BRANCH   7  16
ATOM     16  C   UNL     1      75.452  87.463  70.195  1.00  0.00     0.135 C 
BRANCH  16  17
ATOM     17  C   UNL     1      74.885  88.671  70.899  1.00  0.00    -0.040 A 
ATOM     18  C   UNL     1      75.538  89.900  70.812  1.00  0.00     0.004 A 
ATOM     19  C   UNL     1      73.706  88.557  71.635  1.00  0.00     0.004 A 
ATOM     20  C   UNL     1      75.013  91.017  71.463  1.00  0.00     0.000 A 
ATOM     21  C   UNL     1      73.181  89.674  72.286  1.00  0.00     0.000 A 
ATOM     22  C   UNL     1      73.834  90.903  72.200  1.00  0.00     0.000 A 
ENDBRANCH  16  17
ENDBRANCH   7  16
BRANCH  15  23
ATOM     23  C   UNL     1      74.361  89.963  66.699  1.00  0.00    -0.046 C 
ATOM     24  C   UNL     1      73.305  90.341  65.703  1.00  0.00     0.042 C 
ATOM     25  C   UNL     1      75.043  90.886  67.394  1.00  0.00     0.010 C 
ENDBRANCH  15  23
ENDBRANCH   3   4
BRANCH   2  26
ATOM     26  C   UNL     1      72.344  83.224  66.338  1.00  0.00     0.078 C 
BRANCH  26  27
ATOM     27  C   UNL     1      73.740  83.526  65.797  1.00  0.00     0.140 C 
ATOM     28  C   UNL     1      74.668  84.119  66.878  1.00  0.00     0.086 CG0
ATOM     29  C   UNL     1      74.484  82.274  65.382  1.00  0.00     0.190 C 
ATOM     30  C   UNL     1      75.945  83.343  66.707  1.00  0.00    -0.010 C 
ATOM     31  G   UNL     1      74.724  85.673  66.955  1.00  0.00     0.000 G0
ATOM     32  O   UNL     1      74.035  81.386  64.674  1.00  0.00    -0.291 OA
ATOM     33  C   UNL     1      75.867  82.284  65.896  1.00  0.00    -0.008 C 
ATOM     34  C   UNL     1      76.882  81.264  65.564  1.00  0.00     0.048 C 
BRANCH  27  35
ATOM     35  O   UNL     1      73.681  84.295  64.608  1.00  0.00    -0.381 OA
ATOM     36  H   UNL     1      73.130  83.820  63.963  1.00  0.00     0.212 HD
ENDBRANCH  27  35
ENDBRANCH  26  27
ENDBRANCH   2  26
ENDBRANCH   1   2
BRANCH   1  37
ATOM     37  O   UNL     1      70.081  84.709  68.906  1.00  0.00    -0.461 OA
BRANCH  37  38
ATOM     38  C   UNL     1      69.864  84.155  70.147  1.00  0.00     0.310 C 
ATOM     39  O   UNL     1      70.603  83.349  70.694  1.00  0.00    -0.252 OA
BRANCH  38  40
ATOM     40  C   UNL     1      68.579  84.698  70.724  1.00  0.00     0.158 C 
BRANCH  40  41
ATOM     41  C   UNL     1      67.352  84.037  70.149  1.00  0.00    -0.037 A 
ATOM     42  C   UNL     1      66.752  82.973  70.823  1.00  0.00     0.008 A 
ATOM     43  C   UNL     1      66.817  84.488  68.943  1.00  0.00     0.008 A 
ATOM     44  C   UNL     1      65.617  82.361  70.291  1.00  0.00     0.046 A 
ATOM     45  C   UNL     1      65.682  83.877  68.411  1.00  0.00     0.046 A 
ATOM     46  C   UNL     1      65.082  82.813  69.084  1.00  0.00     0.115 A 
BRANCH  46  47
ATOM     47  O   UNL     1      63.975  82.215  68.565  1.00  0.00    -0.508 OA
ATOM     48  H   UNL     1      63.400  82.898  68.179  1.00  0.00     0.293 HD
ENDBRANCH  46  47
ENDBRANCH  40  41
ENDBRANCH  38  40
ENDBRANCH  37  38
ENDBRANCH   1  37
TORSDOF 10
ENDMDL
MODEL 6
REMARK VINA RESULT:    -6.683      3.764      5.363
REMARK INTER + INTRA:         -12.070
REMARK INTER:                 -11.416
REMARK INTRA:                  -0.654
REMARK UNBOUND:                -0.698
REMARK SMILES C=C(C)[C@]12C[C@@H](C)[C@@]34O[C@](Cc5ccccc5)(O[C@@H]1[C@@H]3C=C(COC(=O)Cc1ccc(O)cc1)C[C@]1(O)C(=O)C(C)=C[C@@H]41)O2
REMARK SMILES IDX 23 1 22 2 21 3 20 4 9 5 8 6 10 7 6 8 18 10 44 11 19 12 5 13
REMARK SMILES IDX 7 14 4 15 11 16 12 17 13 18 17 19 14 20 16 21 15 22 2 23
REMARK SMILES IDX 3 24 1 25 35 26 36 27 43 28 38 29 42 30 39 32 40 33 41 34
REMARK SMILES IDX 37 35 24 37 25 38 26 39 27 40 28 41 29 42 34 43 30 44 33 45
REMARK SMILES IDX 31 46 32 47
REMARK H PARENT 37 36 32 48
REMARK Flexibility Score: 90.00
ROOT
ATOM      1  C   UNL     1      95.113  86.659  89.167  1.00  0.00     0.264 C 
ENDROOT
BRANCH   1   2
ATOM      2  C   UNL     1      94.014  85.791  89.737  1.00  0.00    -0.033 C 
ATOM      3  C   UNL     1      93.362  84.935  88.923  1.00  0.00    -0.015 C 
BRANCH   3   4
ATOM      4  C   UNL     1      92.185  84.022  89.228  1.00  0.00     0.078 C 
ATOM      5  O   UNL     1      93.125  81.826  89.867  1.00  0.00    -0.319 OA
ATOM      6  C   UNL     1      92.344  82.954  90.371  1.00  0.00     0.095 CG0
ATOM      7  C   UNL     1      92.788  81.390  88.536  1.00  0.00     0.289 C 
ATOM      8  C   UNL     1      90.893  82.452  90.763  1.00  0.00     0.023 C 
ATOM      9  G   UNL     1      93.194  83.521  91.545  1.00  0.00     0.000 G0
ATOM     10  O   UNL     1      92.920  82.451  87.595  1.00  0.00    -0.320 OA
ATOM     11  O   UNL     1      91.436  80.951  88.435  1.00  0.00    -0.313 OA
ATOM     12  C   UNL     1      91.778  83.246  87.951  1.00  0.00     0.170 C 
ATOM     13  C   UNL     1      89.938  82.442  89.530  1.00  0.00     0.049 C 
ATOM     14  C   UNL     1      90.833  81.084  91.464  1.00  0.00     0.011 C 
ATOM     15  C   UNL     1      90.697  82.173  88.229  1.00  0.00     0.122 C 
BRANCH   7  16
ATOM     16  C   UNL     1      93.717  80.252  88.160  1.00  0.00     0.135 C 
BRANCH  16  17
ATOM     17  C   UNL     1      92.970  79.085  87.564  1.00  0.00    -0.040 A 
ATOM     18  C   UNL     1      92.632  77.992  88.362  1.00  0.00     0.004 A 
ATOM     19  C   UNL     1      92.618  79.099  86.215  1.00  0.00     0.004 A 
ATOM     20  C   UNL     1      91.941  76.913  87.811  1.00  0.00     0.000 A 
ATOM     21  C   UNL     1      91.927  78.020  85.664  1.00  0.00     0.000 A 
ATOM     22  C   UNL     1      91.589  76.927  86.461  1.00  0.00     0.000 A 
ENDBRANCH  16  17
ENDBRANCH   7  16
BRANCH  15  23
ATOM     23  C   UNL     1      89.784  81.980  87.062  1.00  0.00    -0.046 C 
ATOM     24  C   UNL     1      88.349  81.688  87.386  1.00  0.00     0.042 C 
ATOM     25  C   UNL     1      90.223  82.061  85.797  1.00  0.00     0.010 C 
ENDBRANCH  15  23
ENDBRANCH   3   4
BRANCH   2  26
ATOM     26  C   UNL     1      93.793  86.010  91.221  1.00  0.00     0.078 C 
BRANCH  26  27
ATOM     27  C   UNL     1      92.909  85.000  91.951  1.00  0.00     0.140 C 
ATOM     28  C   UNL     1      93.215  83.547  91.532  1.00  0.00     0.086 CG0
ATOM     29  C   UNL     1      93.171  84.970  93.442  1.00  0.00     0.190 C 
ATOM     30  C   UNL     1      93.281  82.811  92.842  1.00  0.00    -0.010 C 
ATOM     31  G   UNL     1      92.349  82.969  90.375  1.00  0.00     0.000 G0
ATOM     32  O   UNL     1      93.232  85.951  94.169  1.00  0.00    -0.291 OA
ATOM     33  C   UNL     1      93.286  83.584  93.933  1.00  0.00    -0.008 C 
ATOM     34  C   UNL     1      93.422  83.218  95.358  1.00  0.00     0.048 C 
BRANCH  27  35
ATOM     35  O   UNL     1      91.538  85.346  91.855  1.00  0.00    -0.381 OA
ATOM     36  H   UNL     1      91.119  85.184  92.718  1.00  0.00     0.212 HD
ENDBRANCH  27  35
ENDBRANCH  26  27
ENDBRANCH   2  26
ENDBRANCH   1   2
BRANCH   1  37
ATOM     37  O   UNL     1      96.078  86.906  90.167  1.00  0.00    -0.461 OA
BRANCH  37  38
ATOM     38  C   UNL     1      96.325  88.228  90.459  1.00  0.00     0.310 C 
ATOM     39  O   UNL     1      97.084  88.624  91.333  1.00  0.00    -0.252 OA
BRANCH  38  40
ATOM     40  C   UNL     1      95.517  89.108  89.536  1.00  0.00     0.158 C 
BRANCH  40  41
ATOM     41  C   UNL     1      94.473  89.916  90.261  1.00  0.00    -0.037 A 
ATOM     42  C   UNL     1      94.583  91.306  90.320  1.00  0.00     0.008 A 
ATOM     43  C   UNL     1      93.395  89.277  90.873  1.00  0.00     0.008 A 
ATOM     44  C   UNL     1      93.617  92.055  90.992  1.00  0.00     0.046 A 
ATOM     45  C   UNL     1      92.428  90.025  91.545  1.00  0.00     0.046 A 
ATOM     46  C   UNL     1      92.539  91.414  91.604  1.00  0.00     0.115 A 
BRANCH  46  47
ATOM     47  O   UNL     1      91.596  92.145  92.260  1.00  0.00    -0.508 OA
ATOM     48  H   UNL     1      90.714  91.817  92.012  1.00  0.00     0.293 HD
ENDBRANCH  46  47
ENDBRANCH  40  41
ENDBRANCH  38  40
ENDBRANCH  37  38
ENDBRANCH   1  37
TORSDOF 10
ENDMDL
MODEL 7
REMARK VINA RESULT:    -6.672      3.029      8.648
REMARK INTER + INTRA:         -12.051
REMARK INTER:                 -11.453
REMARK INTRA:                  -0.597
REMARK UNBOUND:                -0.698
REMARK SMILES C=C(C)[C@]12C[C@@H](C)[C@@]34O[C@](Cc5ccccc5)(O[C@@H]1[C@@H]3C=C(COC(=O)Cc1ccc(O)cc1)C[C@]1(O)C(=O)C(C)=C[C@@H]41)O2
REMARK SMILES IDX 23 1 22 2 21 3 20 4 9 5 8 6 10 7 6 8 18 10 44 11 19 12 5 13
REMARK SMILES IDX 7 14 4 15 11 16 12 17 13 18 17 19 14 20 16 21 15 22 2 23
REMARK SMILES IDX 3 24 1 25 35 26 36 27 43 28 38 29 42 30 39 32 40 33 41 34
REMARK SMILES IDX 37 35 24 37 25 38 26 39 27 40 28 41 29 42 34 43 30 44 33 45
REMARK SMILES IDX 31 46 32 47
REMARK H PARENT 37 36 32 48
REMARK Flexibility Score: 90.00
ROOT
ATOM      1  C   UNL     1      98.103  82.967  85.994  1.00  0.00     0.264 C 
ENDROOT
BRANCH   1   2
ATOM      2  C   UNL     1      96.746  83.455  86.445  1.00  0.00    -0.033 C 
ATOM      3  C   UNL     1      95.720  82.582  86.511  1.00  0.00    -0.015 C 
BRANCH   3   4
ATOM      4  C   UNL     1      94.260  82.832  86.856  1.00  0.00     0.078 C 
ATOM      5  O   UNL     1      94.021  82.466  89.290  1.00  0.00    -0.319 OA
ATOM      6  C   UNL     1      93.920  83.484  88.246  1.00  0.00     0.095 CG0
ATOM      7  C   UNL     1      93.455  81.184  88.955  1.00  0.00     0.289 C 
ATOM      8  C   UNL     1      92.429  84.016  88.175  1.00  0.00     0.023 C 
ATOM      9  G   UNL     1      94.990  84.546  88.636  1.00  0.00     0.000 G0
ATOM     10  O   UNL     1      94.053  80.646  87.779  1.00  0.00    -0.320 OA
ATOM     11  O   UNL     1      92.059  81.263  88.677  1.00  0.00    -0.313 OA
ATOM     12  C   UNL     1      93.468  81.503  86.786  1.00  0.00     0.170 C 
ATOM     13  C   UNL     1      91.542  83.110  87.268  1.00  0.00     0.049 C 
ATOM     14  C   UNL     1      91.733  84.216  89.532  1.00  0.00     0.011 C 
ATOM     15  C   UNL     1      92.011  81.654  87.289  1.00  0.00     0.122 C 
BRANCH   7  16
ATOM     16  C   UNL     1      93.685  80.245  90.123  1.00  0.00     0.135 C 
BRANCH  16  17
ATOM     17  C   UNL     1      92.522  80.241  91.083  1.00  0.00    -0.040 A 
ATOM     18  C   UNL     1      92.497  81.137  92.151  1.00  0.00     0.004 A 
ATOM     19  C   UNL     1      91.472  79.341  90.902  1.00  0.00     0.004 A 
ATOM     20  C   UNL     1      91.420  81.134  93.040  1.00  0.00     0.000 A 
ATOM     21  C   UNL     1      90.396  79.338  91.791  1.00  0.00     0.000 A 
ATOM     22  C   UNL     1      90.371  80.234  92.859  1.00  0.00     0.000 A 
ENDBRANCH  16  17
ENDBRANCH   7  16
BRANCH  15  23
ATOM     23  C   UNL     1      91.072  80.738  86.575  1.00  0.00    -0.046 C 
ATOM     24  C   UNL     1      89.616  81.090  86.653  1.00  0.00     0.042 C 
ATOM     25  C   UNL     1      91.506  79.662  85.902  1.00  0.00     0.010 C 
ENDBRANCH  15  23
ENDBRANCH   3   4
BRANCH   2  26
ATOM     26  C   UNL     1      96.727  84.934  86.784  1.00  0.00     0.078 C 
BRANCH  26  27
ATOM     27  C   UNL     1      95.479  85.475  87.477  1.00  0.00     0.140 C 
ATOM     28  C   UNL     1      94.996  84.552  88.615  1.00  0.00     0.086 CG0
ATOM     29  C   UNL     1      95.738  86.778  88.205  1.00  0.00     0.190 C 
ATOM     30  C   UNL     1      94.724  85.503  89.747  1.00  0.00    -0.010 C 
ATOM     31  G   UNL     1      93.920  83.495  88.230  1.00  0.00     0.000 G0
ATOM     32  O   UNL     1      96.309  87.750  87.733  1.00  0.00    -0.291 OA
ATOM     33  C   UNL     1      95.154  86.754  89.559  1.00  0.00    -0.008 C 
ATOM     34  C   UNL     1      95.132  87.915  90.472  1.00  0.00     0.048 C 
BRANCH  27  35
ATOM     35  O   UNL     1      94.468  85.807  86.541  1.00  0.00    -0.381 OA
ATOM     36  H   UNL     1      93.778  85.123  86.580  1.00  0.00     0.212 HD
ENDBRANCH  27  35
ENDBRANCH  26  27
ENDBRANCH   2  26
ENDBRANCH   1   2
BRANCH   1  37
ATOM     37  O   UNL     1      98.066  81.564  85.840  1.00  0.00    -0.461 OA
BRANCH  37  38
ATOM     38  C   UNL     1      98.567  81.069  84.657  1.00  0.00     0.310 C 
ATOM     39  O   UNL     1      98.260  79.995  84.160  1.00  0.00    -0.252 OA
BRANCH  38  40
ATOM     40  C   UNL     1      99.549  82.057  84.074  1.00  0.00     0.158 C 
BRANCH  40  41
ATOM     41  C   UNL     1      99.375  82.251  82.590  1.00  0.00    -0.037 A 
ATOM     42  C   UNL     1     100.253  81.633  81.698  1.00  0.00     0.008 A 
ATOM     43  C   UNL     1      98.339  83.049  82.107  1.00  0.00     0.008 A 
ATOM     44  C   UNL     1     100.093  81.814  80.324  1.00  0.00     0.046 A 
ATOM     45  C   UNL     1      98.178  83.229  80.733  1.00  0.00     0.046 A 
ATOM     46  C   UNL     1      99.055  82.612  79.842  1.00  0.00     0.115 A 
BRANCH  46  47
ATOM     47  O   UNL     1      98.900  82.789  78.502  1.00  0.00    -0.508 OA
ATOM     48  H   UNL     1      99.672  83.268  78.155  1.00  0.00     0.293 HD
ENDBRANCH  46  47
ENDBRANCH  40  41
ENDBRANCH  38  40
ENDBRANCH  37  38
ENDBRANCH   1  37
TORSDOF 10
ENDMDL
MODEL 8
REMARK VINA RESULT:    -6.601     29.607     32.104
REMARK INTER + INTRA:         -11.930
REMARK INTER:                 -11.692
REMARK INTRA:                  -0.238
REMARK UNBOUND:                -0.698
REMARK SMILES C=C(C)[C@]12C[C@@H](C)[C@@]34O[C@](Cc5ccccc5)(O[C@@H]1[C@@H]3C=C(COC(=O)Cc1ccc(O)cc1)C[C@]1(O)C(=O)C(C)=C[C@@H]41)O2
REMARK SMILES IDX 23 1 22 2 21 3 20 4 9 5 8 6 10 7 6 8 18 10 44 11 19 12 5 13
REMARK SMILES IDX 7 14 4 15 11 16 12 17 13 18 17 19 14 20 16 21 15 22 2 23
REMARK SMILES IDX 3 24 1 25 35 26 36 27 43 28 38 29 42 30 39 32 40 33 41 34
REMARK SMILES IDX 37 35 24 37 25 38 26 39 27 40 28 41 29 42 34 43 30 44 33 45
REMARK SMILES IDX 31 46 32 47
REMARK H PARENT 37 36 32 48
REMARK Flexibility Score: 90.00
ROOT
ATOM      1  C   UNL     1      70.425  83.965  69.159  1.00  0.00     0.264 C 
ENDROOT
BRANCH   1   2
ATOM      2  C   UNL     1      71.345  84.363  68.027  1.00  0.00    -0.033 C 
ATOM      3  C   UNL     1      71.794  85.633  67.959  1.00  0.00    -0.015 C 
BRANCH   3   4
ATOM      4  C   UNL     1      72.655  86.296  66.895  1.00  0.00     0.078 C 
ATOM      5  O   UNL     1      75.007  86.057  67.620  1.00  0.00    -0.319 OA
ATOM      6  C   UNL     1      74.062  85.671  66.574  1.00  0.00     0.095 CG0
ATOM      7  C   UNL     1      74.926  87.431  68.045  1.00  0.00     0.289 C 
ATOM      8  C   UNL     1      74.545  86.264  65.187  1.00  0.00     0.023 C 
ATOM      9  G   UNL     1      74.009  84.117  66.654  1.00  0.00     0.000 G0
ATOM     10  O   UNL     1      73.620  87.752  68.515  1.00  0.00    -0.320 OA
ATOM     11  O   UNL     1      75.188  88.345  66.982  1.00  0.00    -0.313 OA
ATOM     12  C   UNL     1      72.905  87.778  67.270  1.00  0.00     0.170 C 
ATOM     13  C   UNL     1      74.048  87.729  64.987  1.00  0.00     0.049 C 
ATOM     14  C   UNL     1      76.061  86.201  64.932  1.00  0.00     0.011 C 
ATOM     15  C   UNL     1      73.913  88.468  66.319  1.00  0.00     0.122 C 
BRANCH   7  16
ATOM     16  C   UNL     1      75.937  87.645  69.154  1.00  0.00     0.135 C 
BRANCH  16  17
ATOM     17  C   UNL     1      76.276  86.360  69.868  1.00  0.00    -0.040 A 
ATOM     18  C   UNL     1      75.283  85.660  70.553  1.00  0.00     0.004 A 
ATOM     19  C   UNL     1      77.582  85.873  69.841  1.00  0.00     0.004 A 
ATOM     20  C   UNL     1      75.597  84.471  71.212  1.00  0.00     0.000 A 
ATOM     21  C   UNL     1      77.895  84.683  70.501  1.00  0.00     0.000 A 
ATOM     22  C   UNL     1      76.903  83.983  71.186  1.00  0.00     0.000 A 
ENDBRANCH  16  17
ENDBRANCH   7  16
BRANCH  15  23
ATOM     23  C   UNL     1      73.614  89.921  66.141  1.00  0.00    -0.046 C 
ATOM     24  C   UNL     1      73.477  90.400  64.726  1.00  0.00     0.042 C 
ATOM     25  C   UNL     1      73.476  90.749  67.187  1.00  0.00     0.010 C 
ENDBRANCH  15  23
ENDBRANCH   3   4
BRANCH   2  26
ATOM     26  C   UNL     1      71.656  83.218  67.082  1.00  0.00     0.078 C 
BRANCH  26  27
ATOM     27  C   UNL     1      72.752  83.448  66.043  1.00  0.00     0.140 C 
ATOM     28  C   UNL     1      73.999  84.122  66.651  1.00  0.00     0.086 CG0
ATOM     29  C   UNL     1      73.315  82.153  65.497  1.00  0.00     0.190 C 
ATOM     30  C   UNL     1      75.139  83.315  66.095  1.00  0.00    -0.010 C 
ATOM     31  G   UNL     1      74.050  85.675  66.564  1.00  0.00     0.000 G0
ATOM     32  O   UNL     1      72.654  81.212  65.085  1.00  0.00    -0.291 OA
ATOM     33  C   UNL     1      74.789  82.189  65.466  1.00  0.00    -0.008 C 
ATOM     34  C   UNL     1      75.632  81.127  64.877  1.00  0.00     0.048 C 
BRANCH  27  35
ATOM     35  O   UNL     1      72.247  84.108  64.894  1.00  0.00    -0.381 OA
ATOM     36  H   UNL     1      72.214  85.063  65.079  1.00  0.00     0.212 HD
ENDBRANCH  27  35
ENDBRANCH  26  27
ENDBRANCH   2  26
ENDBRANCH   1   2
BRANCH   1  37
ATOM     37  O   UNL     1      69.304  83.288  68.632  1.00  0.00    -0.461 OA
BRANCH  37  38
ATOM     38  C   UNL     1      68.093  83.930  68.757  1.00  0.00     0.310 C 
ATOM     39  O   UNL     1      67.348  84.211  67.829  1.00  0.00    -0.252 OA
BRANCH  38  40
ATOM     40  C   UNL     1      67.831  84.232  70.213  1.00  0.00     0.158 C 
BRANCH  40  41
ATOM     41  C   UNL     1      66.608  83.532  70.747  1.00  0.00    -0.037 A 
ATOM     42  C   UNL     1      66.320  82.227  70.347  1.00  0.00     0.008 A 
ATOM     43  C   UNL     1      65.763  84.189  71.641  1.00  0.00     0.008 A 
ATOM     44  C   UNL     1      65.187  81.580  70.841  1.00  0.00     0.046 A 
ATOM     45  C   UNL     1      64.630  83.542  72.136  1.00  0.00     0.046 A 
ATOM     46  C   UNL     1      64.342  82.238  71.735  1.00  0.00     0.115 A 
BRANCH  46  47
ATOM     47  O   UNL     1      63.237  81.606  72.217  1.00  0.00    -0.508 OA
ATOM     48  H   UNL     1      63.504  81.006  72.934  1.00  0.00     0.293 HD
ENDBRANCH  46  47
ENDBRANCH  40  41
ENDBRANCH  38  40
ENDBRANCH  37  38
ENDBRANCH   1  37
TORSDOF 10
ENDMDL
MODEL 9
REMARK VINA RESULT:    -6.539     33.116     36.008
REMARK INTER + INTRA:         -11.825
REMARK INTER:                 -10.231
REMARK INTRA:                  -1.594
REMARK UNBOUND:                -0.698
REMARK SMILES C=C(C)[C@]12C[C@@H](C)[C@@]34O[C@](Cc5ccccc5)(O[C@@H]1[C@@H]3C=C(COC(=O)Cc1ccc(O)cc1)C[C@]1(O)C(=O)C(C)=C[C@@H]41)O2
REMARK SMILES IDX 23 1 22 2 21 3 20 4 9 5 8 6 10 7 6 8 18 10 44 11 19 12 5 13
REMARK SMILES IDX 7 14 4 15 11 16 12 17 13 18 17 19 14 20 16 21 15 22 2 23
REMARK SMILES IDX 3 24 1 25 35 26 36 27 43 28 38 29 42 30 39 32 40 33 41 34
REMARK SMILES IDX 37 35 24 37 25 38 26 39 27 40 28 41 29 42 34 43 30 44 33 45
REMARK SMILES IDX 31 46 32 47
REMARK H PARENT 37 36 32 48
REMARK Flexibility Score: 90.00
ROOT
ATOM      1  C   UNL     1      68.383  86.997  72.172  1.00  0.00     0.264 C 
ENDROOT
BRANCH   1   2
ATOM      2  C   UNL     1      67.810  85.726  71.588  1.00  0.00    -0.033 C 
ATOM      3  C   UNL     1      66.607  85.289  72.014  1.00  0.00    -0.015 C 
BRANCH   3   4
ATOM      4  C   UNL     1      65.856  84.019  71.647  1.00  0.00     0.078 C 
ATOM      5  O   UNL     1      64.371  84.582  69.751  1.00  0.00    -0.319 OA
ATOM      6  C   UNL     1      65.518  83.760  70.133  1.00  0.00     0.095 CG0
ATOM      7  C   UNL     1      63.301  84.630  70.714  1.00  0.00     0.289 C 
ATOM      8  C   UNL     1      65.139  82.230  69.981  1.00  0.00     0.023 C 
ATOM      9  G   UNL     1      66.674  84.257  69.216  1.00  0.00     0.000 G0
ATOM     10  O   UNL     1      63.762  85.104  71.977  1.00  0.00    -0.320 OA
ATOM     11  O   UNL     1      62.741  83.344  70.967  1.00  0.00    -0.313 OA
ATOM     12  C   UNL     1      64.513  83.961  72.416  1.00  0.00     0.170 C 
ATOM     13  C   UNL     1      64.425  81.687  71.256  1.00  0.00     0.049 C 
ATOM     14  C   UNL     1      64.303  81.876  68.739  1.00  0.00     0.011 C 
ATOM     15  C   UNL     1      63.621  82.780  71.962  1.00  0.00     0.122 C 
BRANCH   7  16
ATOM     16  C   UNL     1      62.224  85.553  70.181  1.00  0.00     0.135 C 
BRANCH  16  17
ATOM     17  C   UNL     1      60.973  85.511  71.024  1.00  0.00    -0.040 A 
ATOM     18  C   UNL     1      60.923  86.204  72.233  1.00  0.00     0.004 A 
ATOM     19  C   UNL     1      59.868  84.778  70.593  1.00  0.00     0.004 A 
ATOM     20  C   UNL     1      59.766  86.164  73.012  1.00  0.00     0.000 A 
ATOM     21  C   UNL     1      58.711  84.739  71.372  1.00  0.00     0.000 A 
ATOM     22  C   UNL     1      58.661  85.432  72.581  1.00  0.00     0.000 A 
ENDBRANCH  16  17
ENDBRANCH   7  16
BRANCH  15  23
ATOM     23  C   UNL     1      62.785  82.246  73.080  1.00  0.00    -0.046 C 
ATOM     24  C   UNL     1      63.290  81.001  73.747  1.00  0.00     0.042 C 
ATOM     25  C   UNL     1      61.649  82.845  73.465  1.00  0.00     0.010 C 
ENDBRANCH  15  23
ENDBRANCH   3   4
BRANCH   2  26
ATOM     26  C   UNL     1      68.711  85.090  70.546  1.00  0.00     0.078 C 
BRANCH  26  27
ATOM     27  C   UNL     1      68.122  83.951  69.716  1.00  0.00     0.140 C 
ATOM     28  C   UNL     1      66.696  84.268  69.218  1.00  0.00     0.086 CG0
ATOM     29  C   UNL     1      68.875  83.727  68.422  1.00  0.00     0.190 C 
ATOM     30  C   UNL     1      66.733  83.864  67.770  1.00  0.00    -0.010 C 
ATOM     31  G   UNL     1      65.529  83.772  70.120  1.00  0.00     0.000 G0
ATOM     32  O   UNL     1      70.089  83.626  68.318  1.00  0.00    -0.291 OA
ATOM     33  C   UNL     1      67.946  83.581  67.286  1.00  0.00    -0.008 C 
ATOM     34  C   UNL     1      68.364  83.233  65.912  1.00  0.00     0.048 C 
BRANCH  27  35
ATOM     35  O   UNL     1      68.229  82.709  70.390  1.00  0.00    -0.381 OA
ATOM     36  H   UNL     1      69.106  82.333  70.202  1.00  0.00     0.212 HD
ENDBRANCH  27  35
ENDBRANCH  26  27
ENDBRANCH   2  26
ENDBRANCH   1   2
BRANCH   1  37
ATOM     37  O   UNL     1      67.942  88.100  71.410  1.00  0.00    -0.461 OA
BRANCH  37  38
ATOM     38  C   UNL     1      66.671  88.554  71.676  1.00  0.00     0.310 C 
ATOM     39  O   UNL     1      65.734  88.522  70.890  1.00  0.00    -0.252 OA
BRANCH  38  40
ATOM     40  C   UNL     1      66.614  89.094  73.085  1.00  0.00     0.158 C 
BRANCH  40  41
ATOM     41  C   UNL     1      65.918  88.164  74.044  1.00  0.00    -0.037 A 
ATOM     42  C   UNL     1      66.637  87.558  75.075  1.00  0.00     0.008 A 
ATOM     43  C   UNL     1      64.555  87.907  73.902  1.00  0.00     0.008 A 
ATOM     44  C   UNL     1      65.993  86.696  75.962  1.00  0.00     0.046 A 
ATOM     45  C   UNL     1      63.909  87.046  74.789  1.00  0.00     0.046 A 
ATOM     46  C   UNL     1      64.628  86.440  75.819  1.00  0.00     0.115 A 
BRANCH  46  47
ATOM     47  O   UNL     1      64.000  85.599  76.685  1.00  0.00    -0.508 OA
ATOM     48  H   UNL     1      63.962  86.019  77.562  1.00  0.00     0.293 HD
ENDBRANCH  46  47
ENDBRANCH  40  41
ENDBRANCH  38  40
ENDBRANCH  37  38
ENDBRANCH   1  37
TORSDOF 10
ENDMDL
MODEL 10
REMARK VINA RESULT:    -6.252      3.947     10.045
REMARK INTER + INTRA:         -11.336
REMARK INTER:                 -10.676
REMARK INTRA:                  -0.660
REMARK UNBOUND:                -0.698
REMARK SMILES C=C(C)[C@]12C[C@@H](C)[C@@]34O[C@](Cc5ccccc5)(O[C@@H]1[C@@H]3C=C(COC(=O)Cc1ccc(O)cc1)C[C@]1(O)C(=O)C(C)=C[C@@H]41)O2
REMARK SMILES IDX 23 1 22 2 21 3 20 4 9 5 8 6 10 7 6 8 18 10 44 11 19 12 5 13
REMARK SMILES IDX 7 14 4 15 11 16 12 17 13 18 17 19 14 20 16 21 15 22 2 23
REMARK SMILES IDX 3 24 1 25 35 26 36 27 43 28 38 29 42 30 39 32 40 33 41 34
REMARK SMILES IDX 37 35 24 37 25 38 26 39 27 40 28 41 29 42 34 43 30 44 33 45
REMARK SMILES IDX 31 46 32 47
REMARK H PARENT 37 36 32 48
REMARK Flexibility Score: 90.00
ROOT
ATOM      1  C   UNL     1      98.431  81.658  82.401  1.00  0.00     0.264 C 
ENDROOT
BRANCH   1   2
ATOM      2  C   UNL     1      98.510  81.905  83.890  1.00  0.00    -0.033 C 
ATOM      3  C   UNL     1      97.489  82.533  84.509  1.00  0.00    -0.015 C 
BRANCH   3   4
ATOM      4  C   UNL     1      97.359  82.963  85.962  1.00  0.00     0.078 C 
ATOM      5  O   UNL     1      96.257  81.105  87.167  1.00  0.00    -0.319 OA
ATOM      6  C   UNL     1      97.501  81.868  87.082  1.00  0.00     0.095 CG0
ATOM      7  C   UNL     1      95.050  81.888  87.095  1.00  0.00     0.289 C 
ATOM      8  C   UNL     1      97.751  82.616  88.456  1.00  0.00     0.023 C 
ATOM      9  G   UNL     1      98.576  80.812  86.691  1.00  0.00     0.000 G0
ATOM     10  O   UNL     1      94.999  82.652  85.893  1.00  0.00    -0.320 OA
ATOM     11  O   UNL     1      94.953  82.835  88.157  1.00  0.00    -0.313 OA
ATOM     12  C   UNL     1      95.989  83.649  86.187  1.00  0.00     0.170 C 
ATOM     13  C   UNL     1      97.007  83.986  88.505  1.00  0.00     0.049 C 
ATOM     14  C   UNL     1      97.415  81.808  89.721  1.00  0.00     0.011 C 
ATOM     15  C   UNL     1      95.720  83.960  87.679  1.00  0.00     0.122 C 
BRANCH   7  16
ATOM     16  C   UNL     1      93.867  80.943  87.154  1.00  0.00     0.135 C 
BRANCH  16  17
ATOM     17  C   UNL     1      92.658  81.587  87.786  1.00  0.00    -0.040 A 
ATOM     18  C   UNL     1      91.722  82.245  86.989  1.00  0.00     0.004 A 
ATOM     19  C   UNL     1      92.477  81.522  89.167  1.00  0.00     0.004 A 
ATOM     20  C   UNL     1      90.603  82.840  87.574  1.00  0.00     0.000 A 
ATOM     21  C   UNL     1      91.358  82.117  89.752  1.00  0.00     0.000 A 
ATOM     22  C   UNL     1      90.422  82.776  88.956  1.00  0.00     0.000 A 
ENDBRANCH  16  17
ENDBRANCH   7  16
BRANCH  15  23
ATOM     23  C   UNL     1      94.900  85.196  87.856  1.00  0.00    -0.046 C 
ATOM     24  C   UNL     1      95.538  86.482  87.420  1.00  0.00     0.042 C 
ATOM     25  C   UNL     1      93.664  85.160  88.375  1.00  0.00     0.010 C 
ENDBRANCH  15  23
ENDBRANCH   3   4
BRANCH   2  26
ATOM     26  C   UNL     1      99.790  81.380  84.514  1.00  0.00     0.078 C 
BRANCH  26  27
ATOM     27  C   UNL     1      99.867  81.364  86.039  1.00  0.00     0.140 C 
ATOM     28  C   UNL     1      98.576  80.817  86.684  1.00  0.00     0.086 CG0
ATOM     29  C   UNL     1     100.919  80.405  86.557  1.00  0.00     0.190 C 
ATOM     30  C   UNL     1      99.083  79.857  87.723  1.00  0.00    -0.010 C 
ATOM     31  G   UNL     1      97.506  81.876  87.079  1.00  0.00     0.000 G0
ATOM     32  O   UNL     1     102.073  80.341  86.161  1.00  0.00    -0.291 OA
ATOM     33  C   UNL     1     100.389  79.583  87.661  1.00  0.00    -0.008 C 
ATOM     34  C   UNL     1     101.203  78.639  88.455  1.00  0.00     0.048 C 
BRANCH  27  35
ATOM     35  O   UNL     1     100.274  82.622  86.551  1.00  0.00    -0.381 OA
ATOM     36  H   UNL     1     101.077  82.899  86.079  1.00  0.00     0.212 HD
ENDBRANCH  27  35
ENDBRANCH  26  27
ENDBRANCH   2  26
ENDBRANCH   1   2
BRANCH   1  37
ATOM     37  O   UNL     1      99.523  82.287  81.765  1.00  0.00    -0.461 OA
BRANCH  37  38
ATOM     38  C   UNL     1     100.214  81.525  80.851  1.00  0.00     0.310 C 
ATOM     39  O   UNL     1     101.382  81.179  80.965  1.00  0.00    -0.252 OA
BRANCH  38  40
ATOM     40  C   UNL     1      99.309  81.186  79.691  1.00  0.00     0.158 C 
BRANCH  40  41
ATOM     41  C   UNL     1      99.304  82.246  78.620  1.00  0.00    -0.037 A 
ATOM     42  C   UNL     1      98.128  82.937  78.327  1.00  0.00     0.008 A 
ATOM     43  C   UNL     1     100.475  82.537  77.921  1.00  0.00     0.008 A 
ATOM     44  C   UNL     1      98.123  83.917  77.335  1.00  0.00     0.046 A 
ATOM     45  C   UNL     1     100.471  83.518  76.929  1.00  0.00     0.046 A 
ATOM     46  C   UNL     1      99.295  84.208  76.636  1.00  0.00     0.115 A 
BRANCH  46  47
ATOM     47  O   UNL     1      99.290  85.164  75.668  1.00  0.00    -0.508 OA
ATOM     48  H   UNL     1      98.369  85.347  75.410  1.00  0.00     0.293 HD
ENDBRANCH  46  47
ENDBRANCH  40  41
ENDBRANCH  38  40
ENDBRANCH  37  38
ENDBRANCH   1  37
TORSDOF 10
ENDMDL
