MODEL 1
REMARK VINA RESULT:    -6.440      0.000      0.000
REMARK INTER + INTRA:         -11.095
REMARK INTER:                 -10.016
REMARK INTRA:                  -1.079
REMARK UNBOUND:                -1.079
REMARK SMILES CCCCC/C=C/C(=O)CCc1ccc(O)c(OC)c1
REMARK SMILES IDX 6 1 7 2 8 3 9 4 10 5 11 6 12 7 17 8 20 9 15 10 14 11 13 12
REMARK SMILES IDX 18 13 19 14 16 15 5 17 4 18 3 19 2 20 1 21
REMARK H PARENT 16 16
REMARK Flexibility Score: inf
ROOT
ATOM      1  C   UNL     1      93.977  94.452  77.680  1.00  0.00    -0.023 C 
ATOM      2  C   UNL     1      93.494  93.605  76.763  1.00  0.00     0.043 C 
ENDROOT
BRANCH   2   3
ATOM      3  C   UNL     1      92.447  94.063  75.809  1.00  0.00     0.155 C 
ATOM      4  O   UNL     1      92.557  93.894  74.596  1.00  0.00    -0.295 OA
BRANCH   3   5
ATOM      5  C   UNL     1      91.262  94.797  76.405  1.00  0.00     0.085 C 
BRANCH   5   6
ATOM      6  C   UNL     1      89.953  94.060  76.121  1.00  0.00     0.044 C 
BRANCH   6   7
ATOM      7  C   UNL     1      89.971  92.625  76.593  1.00  0.00    -0.044 A 
ATOM      8  C   UNL     1      89.686  90.287  76.135  1.00  0.00     0.160 A 
ATOM      9  C   UNL     1      89.668  91.612  75.699  1.00  0.00     0.054 A 
ATOM     10  C   UNL     1      90.006  89.993  77.460  1.00  0.00     0.157 A 
ATOM     11  C   UNL     1      90.309  91.025  78.350  1.00  0.00     0.050 A 
ATOM     12  C   UNL     1      90.291  92.350  77.913  1.00  0.00     0.008 A 
BRANCH   8  13
ATOM     13  O   UNL     1      89.389  89.289  75.257  1.00  0.00    -0.493 OA
ATOM     14  C   UNL     1      88.857  89.675  73.991  1.00  0.00     0.278 C 
ENDBRANCH   8  13
BRANCH  10  15
ATOM     15  O   UNL     1      90.028  88.703  77.898  1.00  0.00    -0.504 OA
ATOM     16  H   UNL     1      90.354  88.141  77.175  1.00  0.00     0.293 HD
ENDBRANCH  10  15
ENDBRANCH   6   7
ENDBRANCH   5   6
ENDBRANCH   3   5
ENDBRANCH   2   3
BRANCH   1  17
ATOM     17  C   UNL     1      95.031  94.068  78.678  1.00  0.00     0.027 C 
BRANCH  17  18
ATOM     18  C   UNL     1      96.332  94.861  78.513  1.00  0.00     0.004 C 
BRANCH  18  19
ATOM     19  C   UNL     1      96.289  95.881  77.371  1.00  0.00     0.000 C 
BRANCH  19  20
ATOM     20  C   UNL     1      96.996  95.346  76.126  1.00  0.00    -0.003 C 
ATOM     21  C   UNL     1      96.155  95.551  74.876  1.00  0.00     0.004 C 
ENDBRANCH  19  20
ENDBRANCH  18  19
ENDBRANCH  17  18
ENDBRANCH   1  17
TORSDOF 10
ENDMDL
MODEL 2
REMARK VINA RESULT:    -6.234     12.541     15.459
REMARK INTER + INTRA:         -10.775
REMARK INTER:                  -9.347
REMARK INTRA:                  -1.429
REMARK UNBOUND:                -1.079
REMARK SMILES CCCCC/C=C/C(=O)CCc1ccc(O)c(OC)c1
REMARK SMILES IDX 6 1 7 2 8 3 9 4 10 5 11 6 12 7 17 8 20 9 15 10 14 11 13 12
REMARK SMILES IDX 18 13 19 14 16 15 5 17 4 18 3 19 2 20 1 21
REMARK H PARENT 16 16
REMARK Flexibility Score: inf
ROOT
ATOM      1  C   UNL     1      80.548  90.010  85.867  1.00  0.00    -0.023 C 
ATOM      2  C   UNL     1      80.960  90.227  87.122  1.00  0.00     0.043 C 
ENDROOT
BRANCH   2   3
ATOM      3  C   UNL     1      80.025  90.006  88.258  1.00  0.00     0.155 C 
ATOM      4  O   UNL     1      79.176  90.838  88.571  1.00  0.00    -0.295 OA
BRANCH   3   5
ATOM      5  C   UNL     1      80.209  88.723  89.046  1.00  0.00     0.085 C 
BRANCH   5   6
ATOM      6  C   UNL     1      79.558  87.536  88.333  1.00  0.00     0.044 C 
BRANCH   6   7
ATOM      7  C   UNL     1      80.529  86.765  87.471  1.00  0.00    -0.044 A 
ATOM      8  C   UNL     1      81.196  85.953  85.313  1.00  0.00     0.160 A 
ATOM      9  C   UNL     1      80.298  86.666  86.109  1.00  0.00     0.054 A 
ATOM     10  C   UNL     1      82.312  85.348  85.891  1.00  0.00     0.157 A 
ATOM     11  C   UNL     1      82.531  85.456  87.265  1.00  0.00     0.050 A 
ATOM     12  C   UNL     1      81.633  86.169  88.060  1.00  0.00     0.008 A 
BRANCH   8  13
ATOM     13  O   UNL     1      80.971  85.855  83.973  1.00  0.00    -0.493 OA
ATOM     14  C   UNL     1      80.316  86.955  83.343  1.00  0.00     0.278 C 
ENDBRANCH   8  13
BRANCH  10  15
ATOM     15  O   UNL     1      83.196  84.650  85.125  1.00  0.00    -0.504 OA
ATOM     16  H   UNL     1      82.922  83.717  85.117  1.00  0.00     0.293 HD
ENDBRANCH  10  15
ENDBRANCH   6   7
ENDBRANCH   5   6
ENDBRANCH   3   5
ENDBRANCH   2   3
BRANCH   1  17
ATOM     17  C   UNL     1      81.428  90.210  84.668  1.00  0.00     0.027 C 
BRANCH  17  18
ATOM     18  C   UNL     1      82.831  89.620  84.846  1.00  0.00     0.004 C 
BRANCH  18  19
ATOM     19  C   UNL     1      83.958  90.619  84.565  1.00  0.00     0.000 C 
BRANCH  19  20
ATOM     20  C   UNL     1      84.499  91.221  85.862  1.00  0.00    -0.003 C 
ATOM     21  C   UNL     1      84.713  90.154  86.924  1.00  0.00     0.004 C 
ENDBRANCH  19  20
ENDBRANCH  18  19
ENDBRANCH  17  18
ENDBRANCH   1  17
TORSDOF 10
ENDMDL
MODEL 3
REMARK VINA RESULT:    -6.077      2.945      7.219
REMARK INTER + INTRA:         -10.531
REMARK INTER:                  -9.527
REMARK INTRA:                  -1.004
REMARK UNBOUND:                -1.079
REMARK SMILES CCCCC/C=C/C(=O)CCc1ccc(O)c(OC)c1
REMARK SMILES IDX 6 1 7 2 8 3 9 4 10 5 11 6 12 7 17 8 20 9 15 10 14 11 13 12
REMARK SMILES IDX 18 13 19 14 16 15 5 17 4 18 3 19 2 20 1 21
REMARK H PARENT 16 16
REMARK Flexibility Score: inf
ROOT
ATOM      1  C   UNL     1      91.671  94.830  76.146  1.00  0.00    -0.023 C 
ATOM      2  C   UNL     1      92.579  94.345  75.290  1.00  0.00     0.043 C 
ENDROOT
BRANCH   2   3
ATOM      3  C   UNL     1      93.812  95.124  74.997  1.00  0.00     0.155 C 
ATOM      4  O   UNL     1      93.767  96.292  74.616  1.00  0.00    -0.295 OA
BRANCH   3   5
ATOM      5  C   UNL     1      95.129  94.387  75.143  1.00  0.00     0.085 C 
BRANCH   5   6
ATOM      6  C   UNL     1      95.199  93.634  76.473  1.00  0.00     0.044 C 
BRANCH   6   7
ATOM      7  C   UNL     1      95.617  94.516  77.626  1.00  0.00    -0.044 A 
ATOM      8  C   UNL     1      95.500  95.077  79.956  1.00  0.00     0.160 A 
ATOM      9  C   UNL     1      95.114  94.262  78.892  1.00  0.00     0.054 A 
ATOM     10  C   UNL     1      96.384  96.134  79.741  1.00  0.00     0.157 A 
ATOM     11  C   UNL     1      96.882  96.376  78.460  1.00  0.00     0.050 A 
ATOM     12  C   UNL     1      96.496  95.562  77.396  1.00  0.00     0.008 A 
BRANCH   8  13
ATOM     13  O   UNL     1      95.007  94.830  81.202  1.00  0.00    -0.493 OA
ATOM     14  C   UNL     1      95.672  93.835  81.977  1.00  0.00     0.278 C 
ENDBRANCH   8  13
BRANCH  10  15
ATOM     15  O   UNL     1      96.770  96.936  80.772  1.00  0.00    -0.504 OA
ATOM     16  H   UNL     1      96.128  96.832  81.496  1.00  0.00     0.293 HD
ENDBRANCH  10  15
ENDBRANCH   6   7
ENDBRANCH   5   6
ENDBRANCH   3   5
ENDBRANCH   2   3
BRANCH   1  17
ATOM     17  C   UNL     1      90.402  94.106  76.494  1.00  0.00     0.027 C 
BRANCH  17  18
ATOM     18  C   UNL     1      90.624  92.929  77.449  1.00  0.00     0.004 C 
BRANCH  18  19
ATOM     19  C   UNL     1      89.609  91.795  77.271  1.00  0.00     0.000 C 
BRANCH  19  20
ATOM     20  C   UNL     1      90.311  90.441  77.154  1.00  0.00    -0.003 C 
ATOM     21  C   UNL     1      89.868  89.690  75.908  1.00  0.00     0.004 C 
ENDBRANCH  19  20
ENDBRANCH  18  19
ENDBRANCH  17  18
ENDBRANCH   1  17
TORSDOF 10
ENDMDL
MODEL 4
REMARK VINA RESULT:    -5.931      2.192      3.643
REMARK INTER + INTRA:         -10.304
REMARK INTER:                  -9.791
REMARK INTRA:                  -0.513
REMARK UNBOUND:                -1.079
REMARK SMILES CCCCC/C=C/C(=O)CCc1ccc(O)c(OC)c1
REMARK SMILES IDX 6 1 7 2 8 3 9 4 10 5 11 6 12 7 17 8 20 9 15 10 14 11 13 12
REMARK SMILES IDX 18 13 19 14 16 15 5 17 4 18 3 19 2 20 1 21
REMARK H PARENT 16 16
REMARK Flexibility Score: inf
ROOT
ATOM      1  C   UNL     1      94.759  94.467  77.478  1.00  0.00    -0.023 C 
ATOM      2  C   UNL     1      94.774  94.092  76.193  1.00  0.00     0.043 C 
ENDROOT
BRANCH   2   3
ATOM      3  C   UNL     1      93.575  94.318  75.341  1.00  0.00     0.155 C 
ATOM      4  O   UNL     1      93.321  95.419  74.857  1.00  0.00    -0.295 OA
BRANCH   3   5
ATOM      5  C   UNL     1      92.653  93.130  75.143  1.00  0.00     0.085 C 
BRANCH   5   6
ATOM      6  C   UNL     1      91.189  93.525  75.341  1.00  0.00     0.044 C 
BRANCH   6   7
ATOM      7  C   UNL     1      90.252  92.794  74.409  1.00  0.00    -0.044 A 
ATOM      8  C   UNL     1      88.878  90.887  73.924  1.00  0.00     0.160 A 
ATOM      9  C   UNL     1      89.744  91.561  74.785  1.00  0.00     0.054 A 
ATOM     10  C   UNL     1      88.532  91.454  72.698  1.00  0.00     0.157 A 
ATOM     11  C   UNL     1      89.053  92.696  72.332  1.00  0.00     0.050 A 
ATOM     12  C   UNL     1      89.919  93.370  73.194  1.00  0.00     0.008 A 
BRANCH   8  13
ATOM     13  O   UNL     1      88.377  89.675  74.292  1.00  0.00    -0.493 OA
ATOM     14  C   UNL     1      89.320  88.648  74.593  1.00  0.00     0.278 C 
ENDBRANCH   8  13
BRANCH  10  15
ATOM     15  O   UNL     1      87.688  90.805  71.848  1.00  0.00    -0.504 OA
ATOM     16  H   UNL     1      87.809  91.175  70.957  1.00  0.00     0.293 HD
ENDBRANCH  10  15
ENDBRANCH   6   7
ENDBRANCH   5   6
ENDBRANCH   3   5
ENDBRANCH   2   3
BRANCH   1  17
ATOM     17  C   UNL     1      95.926  94.274  78.403  1.00  0.00     0.027 C 
BRANCH  17  18
ATOM     18  C   UNL     1      95.508  94.007  79.852  1.00  0.00     0.004 C 
BRANCH  18  19
ATOM     19  C   UNL     1      95.202  95.281  80.647  1.00  0.00     0.000 C 
BRANCH  19  20
ATOM     20  C   UNL     1      96.330  95.603  81.628  1.00  0.00    -0.003 C 
ATOM     21  C   UNL     1      96.584  97.099  81.713  1.00  0.00     0.004 C 
ENDBRANCH  19  20
ENDBRANCH  18  19
ENDBRANCH  17  18
ENDBRANCH   1  17
TORSDOF 10
ENDMDL
MODEL 5
REMARK VINA RESULT:    -5.871      2.040      3.074
REMARK INTER + INTRA:         -10.211
REMARK INTER:                  -9.566
REMARK INTRA:                  -0.644
REMARK UNBOUND:                -1.079
REMARK SMILES CCCCC/C=C/C(=O)CCc1ccc(O)c(OC)c1
REMARK SMILES IDX 6 1 7 2 8 3 9 4 10 5 11 6 12 7 17 8 20 9 15 10 14 11 13 12
REMARK SMILES IDX 18 13 19 14 16 15 5 17 4 18 3 19 2 20 1 21
REMARK H PARENT 16 16
REMARK Flexibility Score: inf
ROOT
ATOM      1  C   UNL     1      94.490  94.198  78.593  1.00  0.00    -0.023 C 
ATOM      2  C   UNL     1      94.503  94.531  77.297  1.00  0.00     0.043 C 
ENDROOT
BRANCH   2   3
ATOM      3  C   UNL     1      93.493  93.949  76.371  1.00  0.00     0.155 C 
ATOM      4  O   UNL     1      93.816  93.394  75.323  1.00  0.00    -0.295 OA
BRANCH   3   5
ATOM      5  C   UNL     1      92.038  94.123  76.763  1.00  0.00     0.085 C 
BRANCH   5   6
ATOM      6  C   UNL     1      91.492  92.867  77.442  1.00  0.00     0.044 C 
BRANCH   6   7
ATOM      7  C   UNL     1      90.678  92.001  76.510  1.00  0.00    -0.044 A 
ATOM      8  C   UNL     1      89.651  91.654  74.369  1.00  0.00     0.160 A 
ATOM      9  C   UNL     1      90.402  92.454  75.230  1.00  0.00     0.054 A 
ATOM     10  C   UNL     1      89.186  90.412  74.799  1.00  0.00     0.157 A 
ATOM     11  C   UNL     1      89.471  89.969  76.091  1.00  0.00     0.050 A 
ATOM     12  C   UNL     1      90.223  90.770  76.952  1.00  0.00     0.008 A 
BRANCH   8  13
ATOM     13  O   UNL     1      89.378  92.097  73.110  1.00  0.00    -0.493 OA
ATOM     14  C   UNL     1      89.565  93.489  72.858  1.00  0.00     0.278 C 
ENDBRANCH   8  13
BRANCH  10  15
ATOM     15  O   UNL     1      88.451  89.621  73.968  1.00  0.00    -0.504 OA
ATOM     16  H   UNL     1      87.511  89.744  74.181  1.00  0.00     0.293 HD
ENDBRANCH  10  15
ENDBRANCH   6   7
ENDBRANCH   5   6
ENDBRANCH   3   5
ENDBRANCH   2   3
BRANCH   1  17
ATOM     17  C   UNL     1      95.474  94.740  79.589  1.00  0.00     0.027 C 
BRANCH  17  18
ATOM     18  C   UNL     1      96.388  95.822  79.005  1.00  0.00     0.004 C 
BRANCH  18  19
ATOM     19  C   UNL     1      96.742  96.930  80.001  1.00  0.00     0.000 C 
BRANCH  19  20
ATOM     20  C   UNL     1      96.009  96.733  81.329  1.00  0.00    -0.003 C 
ATOM     21  C   UNL     1      96.467  97.739  82.373  1.00  0.00     0.004 C 
ENDBRANCH  19  20
ENDBRANCH  18  19
ENDBRANCH  17  18
ENDBRANCH   1  17
TORSDOF 10
ENDMDL
MODEL 6
REMARK VINA RESULT:    -5.794      3.545      7.720
REMARK INTER + INTRA:         -10.091
REMARK INTER:                  -9.314
REMARK INTRA:                  -0.777
REMARK UNBOUND:                -1.079
REMARK SMILES CCCCC/C=C/C(=O)CCc1ccc(O)c(OC)c1
REMARK SMILES IDX 6 1 7 2 8 3 9 4 10 5 11 6 12 7 17 8 20 9 15 10 14 11 13 12
REMARK SMILES IDX 18 13 19 14 16 15 5 17 4 18 3 19 2 20 1 21
REMARK H PARENT 16 16
REMARK Flexibility Score: inf
ROOT
ATOM      1  C   UNL     1      92.930  94.435  74.938  1.00  0.00    -0.023 C 
ATOM      2  C   UNL     1      93.958  93.656  75.296  1.00  0.00     0.043 C 
ENDROOT
BRANCH   2   3
ATOM      3  C   UNL     1      95.204  94.272  75.830  1.00  0.00     0.155 C 
ATOM      4  O   UNL     1      95.831  95.120  75.198  1.00  0.00    -0.295 OA
BRANCH   3   5
ATOM      5  C   UNL     1      95.691  93.759  77.171  1.00  0.00     0.085 C 
BRANCH   5   6
ATOM      6  C   UNL     1      94.729  94.146  78.295  1.00  0.00     0.044 C 
BRANCH   6   7
ATOM      7  C   UNL     1      95.441  94.568  79.559  1.00  0.00    -0.044 A 
ATOM      8  C   UNL     1      96.640  96.231  80.807  1.00  0.00     0.160 A 
ATOM      9  C   UNL     1      95.983  95.841  79.640  1.00  0.00     0.054 A 
ATOM     10  C   UNL     1      96.748  95.343  81.877  1.00  0.00     0.157 A 
ATOM     11  C   UNL     1      96.198  94.064  81.780  1.00  0.00     0.050 A 
ATOM     12  C   UNL     1      95.540  93.674  80.612  1.00  0.00     0.008 A 
BRANCH   8  13
ATOM     13  O   UNL     1      97.173  97.482  80.890  1.00  0.00    -0.493 OA
ATOM     14  C   UNL     1      97.883  97.961  79.749  1.00  0.00     0.278 C 
ENDBRANCH   8  13
BRANCH  10  15
ATOM     15  O   UNL     1      97.387  95.711  83.022  1.00  0.00    -0.504 OA
ATOM     16  H   UNL     1      98.288  95.346  83.000  1.00  0.00     0.293 HD
ENDBRANCH  10  15
ENDBRANCH   6   7
ENDBRANCH   5   6
ENDBRANCH   3   5
ENDBRANCH   2   3
BRANCH   1  17
ATOM     17  C   UNL     1      91.641  93.892  74.392  1.00  0.00     0.027 C 
BRANCH  17  18
ATOM     18  C   UNL     1      90.958  92.900  75.338  1.00  0.00     0.004 C 
BRANCH  18  19
ATOM     19  C   UNL     1      90.461  93.536  76.640  1.00  0.00     0.000 C 
BRANCH  19  20
ATOM     20  C   UNL     1      89.713  92.517  77.502  1.00  0.00    -0.003 C 
ATOM     21  C   UNL     1      90.675  91.609  78.252  1.00  0.00     0.004 C 
ENDBRANCH  19  20
ENDBRANCH  18  19
ENDBRANCH  17  18
ENDBRANCH   1  17
TORSDOF 10
ENDMDL
MODEL 7
REMARK VINA RESULT:    -5.705     28.654     31.241
REMARK INTER + INTRA:          -9.952
REMARK INTER:                  -8.368
REMARK INTRA:                  -1.583
REMARK UNBOUND:                -1.079
REMARK SMILES CCCCC/C=C/C(=O)CCc1ccc(O)c(OC)c1
REMARK SMILES IDX 6 1 7 2 8 3 9 4 10 5 11 6 12 7 17 8 20 9 15 10 14 11 13 12
REMARK SMILES IDX 18 13 19 14 16 15 5 17 4 18 3 19 2 20 1 21
REMARK H PARENT 16 16
REMARK Flexibility Score: inf
ROOT
ATOM      1  C   UNL     1      63.635  81.400  72.140  1.00  0.00    -0.023 C 
ATOM      2  C   UNL     1      63.913  80.456  73.047  1.00  0.00     0.043 C 
ENDROOT
BRANCH   2   3
ATOM      3  C   UNL     1      65.284  80.356  73.618  1.00  0.00     0.155 C 
ATOM      4  O   UNL     1      66.119  79.576  73.165  1.00  0.00    -0.295 OA
BRANCH   3   5
ATOM      5  C   UNL     1      65.580  81.229  74.821  1.00  0.00     0.085 C 
BRANCH   5   6
ATOM      6  C   UNL     1      64.371  81.320  75.753  1.00  0.00     0.044 C 
BRANCH   6   7
ATOM      7  C   UNL     1      63.677  82.660  75.687  1.00  0.00    -0.044 A 
ATOM      8  C   UNL     1      63.750  85.012  75.215  1.00  0.00     0.160 A 
ATOM      9  C   UNL     1      64.391  83.774  75.277  1.00  0.00     0.054 A 
ATOM     10  C   UNL     1      62.404  85.118  75.564  1.00  0.00     0.157 A 
ATOM     11  C   UNL     1      61.699  83.987  75.975  1.00  0.00     0.050 A 
ATOM     12  C   UNL     1      62.340  82.749  76.037  1.00  0.00     0.008 A 
BRANCH   8  13
ATOM     13  O   UNL     1      64.450  86.109  74.812  1.00  0.00    -0.493 OA
ATOM     14  C   UNL     1      64.706  86.238  73.414  1.00  0.00     0.278 C 
ENDBRANCH   8  13
BRANCH  10  15
ATOM     15  O   UNL     1      61.767  86.321  75.507  1.00  0.00    -0.504 OA
ATOM     16  H   UNL     1      62.426  87.022  75.648  1.00  0.00     0.293 HD
ENDBRANCH  10  15
ENDBRANCH   6   7
ENDBRANCH   5   6
ENDBRANCH   3   5
ENDBRANCH   2   3
BRANCH   1  17
ATOM     17  C   UNL     1      62.279  81.567  71.517  1.00  0.00     0.027 C 
BRANCH  17  18
ATOM     18  C   UNL     1      61.263  82.226  72.456  1.00  0.00     0.004 C 
BRANCH  18  19
ATOM     19  C   UNL     1      61.182  83.748  72.300  1.00  0.00     0.000 C 
BRANCH  19  20
ATOM     20  C   UNL     1      59.856  84.169  71.665  1.00  0.00    -0.003 C 
ATOM     21  C   UNL     1      59.831  85.658  71.362  1.00  0.00     0.004 C 
ENDBRANCH  19  20
ENDBRANCH  18  19
ENDBRANCH  17  18
ENDBRANCH   1  17
TORSDOF 10
ENDMDL
MODEL 8
REMARK VINA RESULT:    -5.703     26.622     29.143
REMARK INTER + INTRA:          -9.949
REMARK INTER:                  -8.156
REMARK INTRA:                  -1.793
REMARK UNBOUND:                -1.079
REMARK SMILES CCCCC/C=C/C(=O)CCc1ccc(O)c(OC)c1
REMARK SMILES IDX 6 1 7 2 8 3 9 4 10 5 11 6 12 7 17 8 20 9 15 10 14 11 13 12
REMARK SMILES IDX 18 13 19 14 16 15 5 17 4 18 3 19 2 20 1 21
REMARK H PARENT 16 16
REMARK Flexibility Score: inf
ROOT
ATOM      1  C   UNL     1      80.681  65.518  72.147  1.00  0.00    -0.023 C 
ATOM      2  C   UNL     1      79.815  65.074  73.066  1.00  0.00     0.043 C 
ENDROOT
BRANCH   2   3
ATOM      3  C   UNL     1      80.183  63.927  73.940  1.00  0.00     0.155 C 
ATOM      4  O   UNL     1      79.461  62.938  74.050  1.00  0.00    -0.295 OA
BRANCH   3   5
ATOM      5  C   UNL     1      81.470  64.064  74.730  1.00  0.00     0.085 C 
BRANCH   5   6
ATOM      6  C   UNL     1      81.326  65.095  75.850  1.00  0.00     0.044 C 
BRANCH   6   7
ATOM      7  C   UNL     1      82.647  65.698  76.267  1.00  0.00    -0.044 A 
ATOM      8  C   UNL     1      84.954  65.424  76.868  1.00  0.00     0.160 A 
ATOM      9  C   UNL     1      83.734  64.867  76.484  1.00  0.00     0.054 A 
ATOM     10  C   UNL     1      85.071  66.804  77.030  1.00  0.00     0.157 A 
ATOM     11  C   UNL     1      83.966  67.628  76.809  1.00  0.00     0.050 A 
ATOM     12  C   UNL     1      82.746  67.071  76.425  1.00  0.00     0.008 A 
BRANCH   8  13
ATOM     13  O   UNL     1      86.025  64.609  77.081  1.00  0.00    -0.493 OA
ATOM     14  C   UNL     1      85.750  63.277  77.512  1.00  0.00     0.278 C 
ENDBRANCH   8  13
BRANCH  10  15
ATOM     15  O   UNL     1      86.256  67.360  77.405  1.00  0.00    -0.504 OA
ATOM     16  H   UNL     1      86.975  66.871  76.968  1.00  0.00     0.293 HD
ENDBRANCH  10  15
ENDBRANCH   6   7
ENDBRANCH   5   6
ENDBRANCH   3   5
ENDBRANCH   2   3
BRANCH   1  17
ATOM     17  C   UNL     1      80.386  66.667  71.228  1.00  0.00     0.027 C 
BRANCH  17  18
ATOM     18  C   UNL     1      81.398  67.812  71.352  1.00  0.00     0.004 C 
BRANCH  18  19
ATOM     19  C   UNL     1      81.911  68.025  72.779  1.00  0.00     0.000 C 
BRANCH  19  20
ATOM     20  C   UNL     1      83.437  68.128  72.807  1.00  0.00    -0.003 C 
ATOM     21  C   UNL     1      84.085  66.764  72.983  1.00  0.00     0.004 C 
ENDBRANCH  19  20
ENDBRANCH  18  19
ENDBRANCH  17  18
ENDBRANCH   1  17
TORSDOF 10
ENDMDL
MODEL 9
REMARK VINA RESULT:    -5.658     15.693     18.839
REMARK INTER + INTRA:          -9.879
REMARK INTER:                  -9.166
REMARK INTRA:                  -0.713
REMARK UNBOUND:                -1.079
REMARK SMILES CCCCC/C=C/C(=O)CCc1ccc(O)c(OC)c1
REMARK SMILES IDX 6 1 7 2 8 3 9 4 10 5 11 6 12 7 17 8 20 9 15 10 14 11 13 12
REMARK SMILES IDX 18 13 19 14 16 15 5 17 4 18 3 19 2 20 1 21
REMARK H PARENT 16 16
REMARK Flexibility Score: inf
ROOT
ATOM      1  C   UNL     1      77.069  93.274  64.931  1.00  0.00    -0.023 C 
ATOM      2  C   UNL     1      77.159  92.855  63.663  1.00  0.00     0.043 C 
ENDROOT
BRANCH   2   3
ATOM      3  C   UNL     1      76.646  91.509  63.289  1.00  0.00     0.155 C 
ATOM      4  O   UNL     1      75.443  91.279  63.182  1.00  0.00    -0.295 OA
BRANCH   3   5
ATOM      5  C   UNL     1      77.683  90.419  63.097  1.00  0.00     0.085 C 
BRANCH   5   6
ATOM      6  C   UNL     1      77.039  89.032  63.101  1.00  0.00     0.044 C 
BRANCH   6   7
ATOM      7  C   UNL     1      77.491  88.177  64.260  1.00  0.00    -0.044 A 
ATOM      8  C   UNL     1      77.963  86.012  65.181  1.00  0.00     0.160 A 
ATOM      9  C   UNL     1      77.544  86.801  64.109  1.00  0.00     0.054 A 
ATOM     10  C   UNL     1      78.323  86.608  66.388  1.00  0.00     0.157 A 
ATOM     11  C   UNL     1      78.264  87.996  66.525  1.00  0.00     0.050 A 
ATOM     12  C   UNL     1      77.845  88.785  65.454  1.00  0.00     0.008 A 
BRANCH   8  13
ATOM     13  O   UNL     1      78.015  84.658  65.035  1.00  0.00    -0.493 OA
ATOM     14  C   UNL     1      77.170  84.079  64.043  1.00  0.00     0.278 C 
ENDBRANCH   8  13
BRANCH  10  15
ATOM     15  O   UNL     1      78.734  85.849  67.442  1.00  0.00    -0.504 OA
ATOM     16  H   UNL     1      79.634  85.530  67.256  1.00  0.00     0.293 HD
ENDBRANCH  10  15
ENDBRANCH   6   7
ENDBRANCH   5   6
ENDBRANCH   3   5
ENDBRANCH   2   3
BRANCH   1  17
ATOM     17  C   UNL     1      77.563  94.616  65.388  1.00  0.00     0.027 C 
BRANCH  17  18
ATOM     18  C   UNL     1      79.053  94.837  65.106  1.00  0.00     0.004 C 
BRANCH  18  19
ATOM     19  C   UNL     1      79.860  95.233  66.346  1.00  0.00     0.000 C 
BRANCH  19  20
ATOM     20  C   UNL     1      78.949  95.778  67.447  1.00  0.00    -0.003 C 
ATOM     21  C   UNL     1      79.729  96.083  68.716  1.00  0.00     0.004 C 
ENDBRANCH  19  20
ENDBRANCH  18  19
ENDBRANCH  17  18
ENDBRANCH   1  17
TORSDOF 10
ENDMDL
MODEL 10
REMARK VINA RESULT:    -5.528      2.472      3.799
REMARK INTER + INTRA:          -9.676
REMARK INTER:                  -8.941
REMARK INTRA:                  -0.736
REMARK UNBOUND:                -1.079
REMARK SMILES CCCCC/C=C/C(=O)CCc1ccc(O)c(OC)c1
REMARK SMILES IDX 6 1 7 2 8 3 9 4 10 5 11 6 12 7 17 8 20 9 15 10 14 11 13 12
REMARK SMILES IDX 18 13 19 14 16 15 5 17 4 18 3 19 2 20 1 21
REMARK H PARENT 16 16
REMARK Flexibility Score: inf
ROOT
ATOM      1  C   UNL     1      96.169  94.376  79.012  1.00  0.00    -0.023 C 
ATOM      2  C   UNL     1      95.773  95.059  77.930  1.00  0.00     0.043 C 
ENDROOT
BRANCH   2   3
ATOM      3  C   UNL     1      95.338  94.328  76.709  1.00  0.00     0.155 C 
ATOM      4  O   UNL     1      96.081  93.541  76.125  1.00  0.00    -0.295 OA
BRANCH   3   5
ATOM      5  C   UNL     1      93.949  94.643  76.191  1.00  0.00     0.085 C 
BRANCH   5   6
ATOM      6  C   UNL     1      92.876  93.901  76.990  1.00  0.00     0.044 C 
BRANCH   6   7
ATOM      7  C   UNL     1      92.182  92.828  76.186  1.00  0.00    -0.044 A 
ATOM      8  C   UNL     1      90.539  91.084  76.036  1.00  0.00     0.160 A 
ATOM      9  C   UNL     1      91.181  92.075  76.779  1.00  0.00     0.054 A 
ATOM     10  C   UNL     1      90.907  90.859  74.710  1.00  0.00     0.157 A 
ATOM     11  C   UNL     1      91.917  91.625  74.126  1.00  0.00     0.050 A 
ATOM     12  C   UNL     1      92.558  92.615  74.870  1.00  0.00     0.008 A 
BRANCH   8  13
ATOM     13  O   UNL     1      89.555  90.343  76.617  1.00  0.00    -0.493 OA
ATOM     14  C   UNL     1      89.965  89.284  77.481  1.00  0.00     0.278 C 
ENDBRANCH   8  13
BRANCH  10  15
ATOM     15  O   UNL     1      90.288  89.894  73.974  1.00  0.00    -0.504 OA
ATOM     16  H   UNL     1      89.741  90.330  73.298  1.00  0.00     0.293 HD
ENDBRANCH  10  15
ENDBRANCH   6   7
ENDBRANCH   5   6
ENDBRANCH   3   5
ENDBRANCH   2   3
BRANCH   1  17
ATOM     17  C   UNL     1      96.621  95.039  80.280  1.00  0.00     0.027 C 
BRANCH  17  18
ATOM     18  C   UNL     1      95.474  95.314  81.258  1.00  0.00     0.004 C 
BRANCH  18  19
ATOM     19  C   UNL     1      95.817  96.353  82.330  1.00  0.00     0.000 C 
BRANCH  19  20
ATOM     20  C   UNL     1      96.152  97.706  81.700  1.00  0.00    -0.003 C 
ATOM     21  C   UNL     1      97.203  98.451  82.507  1.00  0.00     0.004 C 
ENDBRANCH  19  20
ENDBRANCH  18  19
ENDBRANCH  17  18
ENDBRANCH   1  17
TORSDOF 10
ENDMDL
