MODEL 1
REMARK VINA RESULT:    -8.188      0.000      0.000
REMARK INTER + INTRA:         -14.266
REMARK INTER:                 -14.410
REMARK INTRA:                   0.144
REMARK UNBOUND:                 0.144
REMARK SMILES C=C(C)[C@]12C[C@@H](C)[C@@]34O[C@](Cc5ccccc5)(O[C@@H]1[C@@H]3C=C(COC(=O)Cc1ccc(O)c(OC)c1)C[C@]1(O)C(=O)C(C)=C[C@@H]41)O2
REMARK SMILES IDX 23 1 22 2 21 3 20 4 9 5 8 6 10 7 6 8 18 9 46 10 19 11 5 12
REMARK SMILES IDX 7 13 4 14 45 15 38 16 44 17 40 18 42 20 41 21 43 22 39 23
REMARK SMILES IDX 11 25 12 26 13 27 17 28 14 29 16 30 15 31 2 32 3 33 1 34
REMARK SMILES IDX 37 35 24 37 25 38 26 39 27 40 28 41 36 42 29 43 33 44 30 45
REMARK SMILES IDX 31 46 34 47 35 48 32 49
REMARK H PARENT 39 24 32 50
REMARK Flexibility Score: 90.00
ROOT
ATOM      1  C   UNL     1      97.213  80.774  81.400  1.00  0.00     0.264 C 
ENDROOT
BRANCH   1   2
ATOM      2  C   UNL     1      96.666  80.518  82.785  1.00  0.00    -0.033 C 
ATOM      3  C   UNL     1      95.901  81.458  83.376  1.00  0.00    -0.015 C 
BRANCH   3   4
ATOM      4  C   UNL     1      95.304  81.476  84.774  1.00  0.00     0.078 C 
ATOM      5  O   UNL     1      93.037  80.500  84.601  1.00  0.00    -0.319 OA
ATOM      6  C   UNL     1      94.355  80.294  85.198  1.00  0.00     0.095 C 
ATOM      7  C   UNL     1      92.543  81.851  84.650  1.00  0.00     0.289 C 
ATOM      8  C   UNL     1      94.225  80.326  86.777  1.00  0.00     0.023 C 
ATOM      9  O   UNL     1      93.443  82.755  84.013  1.00  0.00    -0.320 OA
ATOM     10  O   UNL     1      92.400  82.327  85.986  1.00  0.00    -0.313 OA
ATOM     11  C   UNL     1      94.500  82.783  84.985  1.00  0.00     0.170 C 
ATOM     12  C   UNL     1      94.290  81.784  87.326  1.00  0.00     0.049 C 
ATOM     13  C   UNL     1      92.987  79.618  87.351  1.00  0.00     0.011 C 
ATOM     14  C   UNL     1      93.723  82.792  86.325  1.00  0.00     0.122 C 
BRANCH   6  15
ATOM     15  C   UNL     1      94.849  78.947  84.595  1.00  0.00     0.086 C 
ATOM     16  C   UNL     1      96.372  78.703  84.631  1.00  0.00     0.140 CG0
ATOM     17  C   UNL     1      94.276  77.656  85.109  1.00  0.00    -0.010 C 
ATOM     18  C   UNL     1      96.457  77.206  84.837  1.00  0.00     0.190 C 
ATOM     19  G   UNL     1      97.060  79.157  83.345  1.00  0.00     0.000 G0
ATOM     20  C   UNL     1      95.148  76.650  85.230  1.00  0.00    -0.008 C 
ATOM     21  O   UNL     1      97.475  76.535  84.746  1.00  0.00    -0.291 OA
ATOM     22  C   UNL     1      94.929  75.242  85.618  1.00  0.00     0.048 C 
BRANCH  16  23
ATOM     23  O   UNL     1      97.011  79.240  85.777  1.00  0.00    -0.381 OA
ATOM     24  H   UNL     1      96.733  78.726  86.553  1.00  0.00     0.212 HD
ENDBRANCH  16  23
ENDBRANCH   6  15
BRANCH   7  25
ATOM     25  C   UNL     1      91.198  81.891  83.952  1.00  0.00     0.135 C 
BRANCH  25  26
ATOM     26  C   UNL     1      90.458  80.583  84.076  1.00  0.00    -0.040 A 
ATOM     27  C   UNL     1      91.166  79.381  84.105  1.00  0.00     0.004 A 
ATOM     28  C   UNL     1      89.066  80.575  84.164  1.00  0.00     0.004 A 
ATOM     29  C   UNL     1      90.481  78.171  84.220  1.00  0.00     0.000 A 
ATOM     30  C   UNL     1      88.381  79.364  84.279  1.00  0.00     0.000 A 
ATOM     31  C   UNL     1      89.090  78.163  84.307  1.00  0.00     0.000 A 
ENDBRANCH  25  26
ENDBRANCH   7  25
BRANCH  14  32
ATOM     32  C   UNL     1      93.606  84.167  86.897  1.00  0.00    -0.046 C 
ATOM     33  C   UNL     1      94.099  85.288  86.032  1.00  0.00     0.042 C 
ATOM     34  C   UNL     1      93.090  84.386  88.116  1.00  0.00     0.010 C 
ENDBRANCH  14  32
ENDBRANCH   3   4
BRANCH   2  35
ATOM     35  C   UNL     1      97.069  79.166  83.343  1.00  0.00     0.078 CG0
ATOM     36  G   UNL     1      96.373  78.702  84.622  1.00  0.00     0.000 G0
ENDBRANCH   2  35
ENDBRANCH   1   2
BRANCH   1  37
ATOM     37  O   UNL     1      98.216  81.764  81.469  1.00  0.00    -0.461 OA
BRANCH  37  38
ATOM     38  C   UNL     1      99.026  81.888  80.364  1.00  0.00     0.310 C 
ATOM     39  O   UNL     1     100.151  82.368  80.368  1.00  0.00    -0.252 OA
BRANCH  38  40
ATOM     40  C   UNL     1      98.311  81.341  79.151  1.00  0.00     0.158 C 
BRANCH  40  41
ATOM     41  C   UNL     1      97.840  82.420  78.210  1.00  0.00    -0.033 A 
ATOM     42  C   UNL     1      98.551  82.682  77.038  1.00  0.00     0.054 A 
ATOM     43  C   UNL     1      96.694  83.156  78.510  1.00  0.00     0.008 A 
ATOM     44  C   UNL     1      98.116  83.681  76.167  1.00  0.00     0.160 A 
ATOM     45  C   UNL     1      96.259  84.155  77.639  1.00  0.00     0.050 A 
ATOM     46  C   UNL     1      96.969  84.417  76.468  1.00  0.00     0.157 A 
BRANCH  44  47
ATOM     47  O   UNL     1      98.818  83.927  75.026  1.00  0.00    -0.493 OA
ATOM     48  C   UNL     1      99.431  82.809  74.388  1.00  0.00     0.278 C 
ENDBRANCH  44  47
BRANCH  46  49
ATOM     49  O   UNL     1      96.534  85.394  75.624  1.00  0.00    -0.504 OA
ATOM     50  H   UNL     1      97.083  86.186  75.747  1.00  0.00     0.293 HD
ENDBRANCH  46  49
ENDBRANCH  40  41
ENDBRANCH  38  40
ENDBRANCH  37  38
ENDBRANCH   1  37
TORSDOF 11
ENDMDL
MODEL 2
REMARK VINA RESULT:    -7.198      3.435      9.529
REMARK INTER + INTRA:         -12.524
REMARK INTER:                 -11.629
REMARK INTRA:                  -0.895
REMARK UNBOUND:                 0.144
REMARK SMILES C=C(C)[C@]12C[C@@H](C)[C@@]34O[C@](Cc5ccccc5)(O[C@@H]1[C@@H]3C=C(COC(=O)Cc1ccc(O)c(OC)c1)C[C@]1(O)C(=O)C(C)=C[C@@H]41)O2
REMARK SMILES IDX 23 1 22 2 21 3 20 4 9 5 8 6 10 7 6 8 18 9 46 10 19 11 5 12
REMARK SMILES IDX 7 13 4 14 45 15 38 16 44 17 40 18 42 20 41 21 43 22 39 23
REMARK SMILES IDX 11 25 12 26 13 27 17 28 14 29 16 30 15 31 2 32 3 33 1 34
REMARK SMILES IDX 37 35 24 37 25 38 26 39 27 40 28 41 36 42 29 43 33 44 30 45
REMARK SMILES IDX 31 46 34 47 35 48 32 49
REMARK H PARENT 39 24 32 50
REMARK Flexibility Score: 90.00
ROOT
ATOM      1  C   UNL     1      96.264  77.782  83.471  1.00  0.00     0.264 C 
ENDROOT
BRANCH   1   2
ATOM      2  C   UNL     1      96.792  77.855  82.057  1.00  0.00    -0.033 C 
ATOM      3  C   UNL     1      97.070  79.060  81.519  1.00  0.00    -0.015 C 
BRANCH   3   4
ATOM      4  C   UNL     1      97.531  79.405  80.112  1.00  0.00     0.078 C 
ATOM      5  O   UNL     1     100.003  79.472  80.161  1.00  0.00    -0.319 OA
ATOM      6  C   UNL     1      98.866  78.760  79.583  1.00  0.00     0.095 C 
ATOM      7  C   UNL     1      99.880  80.906  80.195  1.00  0.00     0.289 C 
ATOM      8  C   UNL     1      98.889  78.929  78.007  1.00  0.00     0.023 C 
ATOM      9  O   UNL     1      98.718  81.308  80.915  1.00  0.00    -0.320 OA
ATOM     10  O   UNL     1      99.740  81.468  78.893  1.00  0.00    -0.313 OA
ATOM     11  C   UNL     1      97.698  80.938  79.974  1.00  0.00     0.170 C 
ATOM     12  C   UNL     1      98.188  80.249  77.564  1.00  0.00     0.049 C 
ATOM     13  C   UNL     1     100.278  78.843  77.354  1.00  0.00     0.011 C 
ATOM     14  C   UNL     1      98.329  81.347  78.620  1.00  0.00     0.122 C 
BRANCH   6  15
ATOM     15  C   UNL     1      99.017  77.300  80.101  1.00  0.00     0.086 C 
ATOM     16  C   UNL     1      97.747  76.425  80.048  1.00  0.00     0.140 CG0
ATOM     17  C   UNL     1     100.077  76.414  79.509  1.00  0.00    -0.010 C 
ATOM     18  C   UNL     1      98.310  75.051  79.750  1.00  0.00     0.190 C 
ATOM     19  G   UNL     1      96.965  76.465  81.360  1.00  0.00     0.000 G0
ATOM     20  C   UNL     1      99.720  75.139  79.325  1.00  0.00    -0.008 C 
ATOM     21  O   UNL     1      97.684  74.004  79.798  1.00  0.00    -0.291 OA
ATOM     22  C   UNL     1     100.515  73.987  78.850  1.00  0.00     0.048 C 
BRANCH  16  23
ATOM     23  O   UNL     1      96.909  76.696  78.937  1.00  0.00    -0.381 OA
ATOM     24  H   UNL     1      97.457  77.054  78.219  1.00  0.00     0.212 HD
ENDBRANCH  16  23
ENDBRANCH   6  15
BRANCH   7  25
ATOM     25  C   UNL     1     101.117  81.474  80.861  1.00  0.00     0.135 C 
BRANCH  25  26
ATOM     26  C   UNL     1     102.386  80.945  80.242  1.00  0.00    -0.040 A 
ATOM     27  C   UNL     1     102.683  81.230  78.908  1.00  0.00     0.004 A 
ATOM     28  C   UNL     1     103.264  80.172  81.001  1.00  0.00     0.004 A 
ATOM     29  C   UNL     1     103.857  80.740  78.335  1.00  0.00     0.000 A 
ATOM     30  C   UNL     1     104.438  79.682  80.427  1.00  0.00     0.000 A 
ATOM     31  C   UNL     1     104.734  79.967  79.094  1.00  0.00     0.000 A 
ENDBRANCH  25  26
ENDBRANCH   7  25
BRANCH  14  32
ATOM     32  C   UNL     1      97.826  82.670  78.143  1.00  0.00    -0.046 C 
ATOM     33  C   UNL     1      98.498  83.235  76.927  1.00  0.00     0.042 C 
ATOM     34  C   UNL     1      96.830  83.317  78.767  1.00  0.00     0.010 C 
ENDBRANCH  14  32
ENDBRANCH   3   4
BRANCH   2  35
ATOM     35  C   UNL     1      96.951  76.492  81.410  1.00  0.00     0.078 CG0
ATOM     36  G   UNL     1      97.724  76.430  80.093  1.00  0.00     0.000 G0
ENDBRANCH   2  35
ENDBRANCH   1   2
BRANCH   1  37
ATOM     37  O   UNL     1      94.853  77.749  83.441  1.00  0.00    -0.461 OA
BRANCH  37  38
ATOM     38  C   UNL     1      94.217  77.851  84.656  1.00  0.00     0.310 C 
ATOM     39  O   UNL     1      93.656  76.931  85.235  1.00  0.00    -0.252 OA
BRANCH  38  40
ATOM     40  C   UNL     1      94.318  79.271  85.161  1.00  0.00     0.158 C 
BRANCH  40  41
ATOM     41  C   UNL     1      93.104  80.101  84.831  1.00  0.00    -0.033 A 
ATOM     42  C   UNL     1      91.875  79.479  84.605  1.00  0.00     0.054 A 
ATOM     43  C   UNL     1      93.209  81.489  84.751  1.00  0.00     0.008 A 
ATOM     44  C   UNL     1      90.752  80.247  84.300  1.00  0.00     0.160 A 
ATOM     45  C   UNL     1      92.086  82.257  84.445  1.00  0.00     0.050 A 
ATOM     46  C   UNL     1      90.857  81.637  84.219  1.00  0.00     0.157 A 
BRANCH  44  47
ATOM     47  O   UNL     1      89.558  79.630  84.081  1.00  0.00    -0.493 OA
ATOM     48  C   UNL     1      89.502  78.224  84.316  1.00  0.00     0.278 C 
ENDBRANCH  44  47
BRANCH  46  49
ATOM     49  O   UNL     1      89.767  82.397  83.922  1.00  0.00    -0.504 OA
ATOM     50  H   UNL     1      89.921  83.306  84.230  1.00  0.00     0.293 HD
ENDBRANCH  46  49
ENDBRANCH  40  41
ENDBRANCH  38  40
ENDBRANCH  37  38
ENDBRANCH   1  37
TORSDOF 11
ENDMDL
MODEL 3
REMARK VINA RESULT:    -7.079     25.888     30.037
REMARK INTER + INTRA:         -12.314
REMARK INTER:                 -11.111
REMARK INTRA:                  -1.203
REMARK UNBOUND:                 0.144
REMARK SMILES C=C(C)[C@]12C[C@@H](C)[C@@]34O[C@](Cc5ccccc5)(O[C@@H]1[C@@H]3C=C(COC(=O)Cc1ccc(O)c(OC)c1)C[C@]1(O)C(=O)C(C)=C[C@@H]41)O2
REMARK SMILES IDX 23 1 22 2 21 3 20 4 9 5 8 6 10 7 6 8 18 9 46 10 19 11 5 12
REMARK SMILES IDX 7 13 4 14 45 15 38 16 44 17 40 18 42 20 41 21 43 22 39 23
REMARK SMILES IDX 11 25 12 26 13 27 17 28 14 29 16 30 15 31 2 32 3 33 1 34
REMARK SMILES IDX 37 35 24 37 25 38 26 39 27 40 28 41 36 42 29 43 33 44 30 45
REMARK SMILES IDX 31 46 34 47 35 48 32 49
REMARK H PARENT 39 24 32 50
REMARK Flexibility Score: 90.00
ROOT
ATOM      1  C   UNL     1      70.109  84.656  69.671  1.00  0.00     0.264 C 
ENDROOT
BRANCH   1   2
ATOM      2  C   UNL     1      70.641  85.296  68.409  1.00  0.00    -0.033 C 
ATOM      3  C   UNL     1      71.180  86.530  68.472  1.00  0.00    -0.015 C 
BRANCH   3   4
ATOM      4  C   UNL     1      71.707  87.411  67.352  1.00  0.00     0.078 C 
ATOM      5  O   UNL     1      74.130  86.955  67.155  1.00  0.00    -0.319 OA
ATOM      6  C   UNL     1      72.861  86.852  66.439  1.00  0.00     0.095 C 
ATOM      7  C   UNL     1      74.334  88.187  67.873  1.00  0.00     0.289 C 
ATOM      8  C   UNL     1      72.921  87.751  65.136  1.00  0.00     0.023 C 
ATOM      9  O   UNL     1      73.293  88.413  68.819  1.00  0.00    -0.320 OA
ATOM     10  O   UNL     1      74.324  89.323  67.012  1.00  0.00    -0.313 OA
ATOM     11  C   UNL     1      72.216  88.753  67.933  1.00  0.00     0.170 C 
ATOM     12  C   UNL     1      72.536  89.231  65.445  1.00  0.00     0.049 C 
ATOM     13  C   UNL     1      74.254  87.718  64.372  1.00  0.00     0.011 C 
ATOM     14  C   UNL     1      72.922  89.630  66.869  1.00  0.00     0.122 C 
BRANCH   6  15
ATOM     15  C   UNL     1      72.678  85.327  66.191  1.00  0.00     0.086 C 
ATOM     16  C   UNL     1      71.243  84.856  65.876  1.00  0.00     0.140 CG0
ATOM     17  C   UNL     1      73.508  84.647  65.138  1.00  0.00    -0.010 C 
ATOM     18  C   UNL     1      71.478  83.717  64.907  1.00  0.00     0.190 C 
ATOM     19  G   UNL     1      70.493  84.412  67.131  1.00  0.00     0.000 G0
ATOM     20  C   UNL     1      72.870  83.718  64.418  1.00  0.00    -0.008 C 
ATOM     21  O   UNL     1      70.631  82.923  64.528  1.00  0.00    -0.291 OA
ATOM     22  C   UNL     1      73.381  82.807  63.373  1.00  0.00     0.048 C 
BRANCH  16  23
ATOM     23  O   UNL     1      70.485  85.789  65.124  1.00  0.00    -0.381 OA
ATOM     24  H   UNL     1      69.545  85.658  65.329  1.00  0.00     0.212 HD
ENDBRANCH  16  23
ENDBRANCH   6  15
BRANCH   7  25
ATOM     25  C   UNL     1      75.668  88.106  68.588  1.00  0.00     0.135 C 
BRANCH  25  26
ATOM     26  C   UNL     1      76.194  86.693  68.643  1.00  0.00    -0.040 A 
ATOM     27  C   UNL     1      77.075  86.239  67.662  1.00  0.00     0.004 A 
ATOM     28  C   UNL     1      75.802  85.843  69.676  1.00  0.00     0.004 A 
ATOM     29  C   UNL     1      77.562  84.932  67.713  1.00  0.00     0.000 A 
ATOM     30  C   UNL     1      76.289  84.536  69.727  1.00  0.00     0.000 A 
ATOM     31  C   UNL     1      77.169  84.082  68.745  1.00  0.00     0.000 A 
ENDBRANCH  25  26
ENDBRANCH   7  25
BRANCH  14  32
ATOM     32  C   UNL     1      72.732  91.089  67.128  1.00  0.00    -0.046 C 
ATOM     33  C   UNL     1      73.752  92.008  66.524  1.00  0.00     0.042 C 
ATOM     34  C   UNL     1      71.707  91.552  67.860  1.00  0.00     0.010 C 
ENDBRANCH  14  32
ENDBRANCH   3   4
BRANCH   2  35
ATOM     35  C   UNL     1      70.493  84.411  67.186  1.00  0.00     0.078 CG0
ATOM     36  G   UNL     1      71.218  84.850  65.914  1.00  0.00     0.000 G0
ENDBRANCH   2  35
ENDBRANCH   1   2
BRANCH   1  37
ATOM     37  O   UNL     1      69.558  85.654  70.504  1.00  0.00    -0.461 OA
BRANCH  37  38
ATOM     38  C   UNL     1      68.483  85.277  71.275  1.00  0.00     0.310 C 
ATOM     39  O   UNL     1      68.553  84.618  72.303  1.00  0.00    -0.252 OA
BRANCH  38  40
ATOM     40  C   UNL     1      67.209  85.801  70.655  1.00  0.00     0.158 C 
BRANCH  40  41
ATOM     41  C   UNL     1      66.245  84.706  70.278  1.00  0.00    -0.033 A 
ATOM     42  C   UNL     1      64.945  84.717  70.785  1.00  0.00     0.054 A 
ATOM     43  C   UNL     1      66.651  83.682  69.422  1.00  0.00     0.008 A 
ATOM     44  C   UNL     1      64.052  83.704  70.436  1.00  0.00     0.160 A 
ATOM     45  C   UNL     1      65.758  82.669  69.074  1.00  0.00     0.050 A 
ATOM     46  C   UNL     1      64.459  82.679  69.580  1.00  0.00     0.157 A 
BRANCH  44  47
ATOM     47  O   UNL     1      62.786  83.725  70.937  1.00  0.00    -0.493 OA
ATOM     48  C   UNL     1      62.209  85.006  71.189  1.00  0.00     0.278 C 
ENDBRANCH  44  47
BRANCH  46  49
ATOM     49  O   UNL     1      63.596  81.685  69.232  1.00  0.00    -0.504 OA
ATOM     50  H   UNL     1      62.718  81.885  69.598  1.00  0.00     0.293 HD
ENDBRANCH  46  49
ENDBRANCH  40  41
ENDBRANCH  38  40
ENDBRANCH  37  38
ENDBRANCH   1  37
TORSDOF 11
ENDMDL
MODEL 4
REMARK VINA RESULT:    -6.471     25.271     29.523
REMARK INTER + INTRA:         -11.245
REMARK INTER:                 -10.209
REMARK INTRA:                  -1.035
REMARK UNBOUND:                 0.144
REMARK SMILES C=C(C)[C@]12C[C@@H](C)[C@@]34O[C@](Cc5ccccc5)(O[C@@H]1[C@@H]3C=C(COC(=O)Cc1ccc(O)c(OC)c1)C[C@]1(O)C(=O)C(C)=C[C@@H]41)O2
REMARK SMILES IDX 23 1 22 2 21 3 20 4 9 5 8 6 10 7 6 8 18 9 46 10 19 11 5 12
REMARK SMILES IDX 7 13 4 14 45 15 38 16 44 17 40 18 42 20 41 21 43 22 39 23
REMARK SMILES IDX 11 25 12 26 13 27 17 28 14 29 16 30 15 31 2 32 3 33 1 34
REMARK SMILES IDX 37 35 24 37 25 38 26 39 27 40 28 41 36 42 29 43 33 44 30 45
REMARK SMILES IDX 31 46 34 47 35 48 32 49
REMARK H PARENT 39 24 32 50
REMARK Flexibility Score: 90.00
ROOT
ATOM      1  C   UNL     1      70.010  84.526  69.569  1.00  0.00     0.264 C 
ENDROOT
BRANCH   1   2
ATOM      2  C   UNL     1      70.539  85.327  68.402  1.00  0.00    -0.033 C 
ATOM      3  C   UNL     1      71.031  86.563  68.619  1.00  0.00    -0.015 C 
BRANCH   3   4
ATOM      4  C   UNL     1      71.544  87.587  67.620  1.00  0.00     0.078 C 
ATOM      5  O   UNL     1      73.979  87.216  67.393  1.00  0.00    -0.319 OA
ATOM      6  C   UNL     1      72.718  87.171  66.657  1.00  0.00     0.095 C 
ATOM      7  C   UNL     1      74.148  88.355  68.257  1.00  0.00     0.289 C 
ATOM      8  C   UNL     1      72.764  88.224  65.474  1.00  0.00     0.023 C 
ATOM      9  O   UNL     1      73.096  88.439  69.214  1.00  0.00    -0.320 OA
ATOM     10  O   UNL     1      74.116  89.587  67.541  1.00  0.00    -0.313 OA
ATOM     11  C   UNL     1      72.016  88.859  68.366  1.00  0.00     0.170 C 
ATOM     12  C   UNL     1      72.342  89.645  65.957  1.00  0.00     0.049 C 
ATOM     13  C   UNL     1      74.103  88.316  64.724  1.00  0.00     0.011 C 
ATOM     14  C   UNL     1      72.708  89.876  67.424  1.00  0.00     0.122 C 
BRANCH   6  15
ATOM     15  C   UNL     1      72.574  85.683  66.223  1.00  0.00     0.086 C 
ATOM     16  C   UNL     1      71.149  85.214  65.865  1.00  0.00     0.140 CG0
ATOM     17  C   UNL     1      73.409  85.164  65.086  1.00  0.00    -0.010 C 
ATOM     18  C   UNL     1      71.404  84.211  64.759  1.00  0.00     0.190 C 
ATOM     19  G   UNL     1      70.427  84.596  67.061  1.00  0.00     0.000 G0
ATOM     20  C   UNL     1      72.789  84.313  64.262  1.00  0.00    -0.008 C 
ATOM     21  O   UNL     1      70.574  83.446  64.292  1.00  0.00    -0.291 OA
ATOM     22  C   UNL     1      73.312  83.554  63.107  1.00  0.00     0.048 C 
BRANCH  16  23
ATOM     23  O   UNL     1      70.356  86.211  65.241  1.00  0.00    -0.381 OA
ATOM     24  H   UNL     1      69.619  85.775  64.783  1.00  0.00     0.212 HD
ENDBRANCH  16  23
ENDBRANCH   6  15
BRANCH   7  25
ATOM     25  C   UNL     1      75.479  88.218  68.970  1.00  0.00     0.135 C 
BRANCH  25  26
ATOM     26  C   UNL     1      76.078  86.846  68.790  1.00  0.00    -0.040 A 
ATOM     27  C   UNL     1      77.127  86.655  67.890  1.00  0.00     0.004 A 
ATOM     28  C   UNL     1      75.585  85.767  69.524  1.00  0.00     0.004 A 
ATOM     29  C   UNL     1      77.681  85.386  67.723  1.00  0.00     0.000 A 
ATOM     30  C   UNL     1      76.139  84.498  69.358  1.00  0.00     0.000 A 
ATOM     31  C   UNL     1      77.187  84.308  68.457  1.00  0.00     0.000 A 
ENDBRANCH  25  26
ENDBRANCH   7  25
BRANCH  14  32
ATOM     32  C   UNL     1      72.480  91.288  67.857  1.00  0.00    -0.046 C 
ATOM     33  C   UNL     1      71.440  92.054  67.096  1.00  0.00     0.042 C 
ATOM     34  C   UNL     1      73.167  91.838  68.870  1.00  0.00     0.010 C 
ENDBRANCH  14  32
ENDBRANCH   3   4
BRANCH   2  35
ATOM     35  C   UNL     1      70.443  84.587  67.081  1.00  0.00     0.078 CG0
ATOM     36  G   UNL     1      71.107  85.235  65.867  1.00  0.00     0.000 G0
ENDBRANCH   2  35
ENDBRANCH   1   2
BRANCH   1  37
ATOM     37  O   UNL     1      69.117  85.323  70.316  1.00  0.00    -0.461 OA
BRANCH  37  38
ATOM     38  C   UNL     1      67.781  85.016  70.195  1.00  0.00     0.310 C 
ATOM     39  O   UNL     1      67.338  84.001  69.676  1.00  0.00    -0.252 OA
BRANCH  38  40
ATOM     40  C   UNL     1      66.952  86.124  70.802  1.00  0.00     0.158 C 
BRANCH  40  41
ATOM     41  C   UNL     1      66.992  86.131  72.308  1.00  0.00    -0.033 A 
ATOM     42  C   UNL     1      67.587  87.196  72.985  1.00  0.00     0.054 A 
ATOM     43  C   UNL     1      66.433  85.073  73.026  1.00  0.00     0.008 A 
ATOM     44  C   UNL     1      67.624  87.203  74.380  1.00  0.00     0.160 A 
ATOM     45  C   UNL     1      66.470  85.080  74.420  1.00  0.00     0.050 A 
ATOM     46  C   UNL     1      67.065  86.144  75.097  1.00  0.00     0.157 A 
BRANCH  44  47
ATOM     47  O   UNL     1      68.208  88.248  75.029  1.00  0.00    -0.493 OA
ATOM     48  C   UNL     1      67.843  89.560  74.605  1.00  0.00     0.278 C 
ENDBRANCH  44  47
BRANCH  46  49
ATOM     49  O   UNL     1      67.094  86.140  76.459  1.00  0.00    -0.504 OA
ATOM     50  H   UNL     1      67.962  86.461  76.758  1.00  0.00     0.293 HD
ENDBRANCH  46  49
ENDBRANCH  40  41
ENDBRANCH  38  40
ENDBRANCH  37  38
ENDBRANCH   1  37
TORSDOF 11
ENDMDL
MODEL 5
REMARK VINA RESULT:    -6.408      5.910     10.016
REMARK INTER + INTRA:         -11.134
REMARK INTER:                  -9.476
REMARK INTRA:                  -1.657
REMARK UNBOUND:                 0.144
REMARK SMILES C=C(C)[C@]12C[C@@H](C)[C@@]34O[C@](Cc5ccccc5)(O[C@@H]1[C@@H]3C=C(COC(=O)Cc1ccc(O)c(OC)c1)C[C@]1(O)C(=O)C(C)=C[C@@H]41)O2
REMARK SMILES IDX 23 1 22 2 21 3 20 4 9 5 8 6 10 7 6 8 18 9 46 10 19 11 5 12
REMARK SMILES IDX 7 13 4 14 45 15 38 16 44 17 40 18 42 20 41 21 43 22 39 23
REMARK SMILES IDX 11 25 12 26 13 27 17 28 14 29 16 30 15 31 2 32 3 33 1 34
REMARK SMILES IDX 37 35 24 37 25 38 26 39 27 40 28 41 36 42 29 43 33 44 30 45
REMARK SMILES IDX 31 46 34 47 35 48 32 49
REMARK H PARENT 39 24 32 50
REMARK Flexibility Score: 90.00
ROOT
ATOM      1  C   UNL     1      97.137  85.869  93.449  1.00  0.00     0.264 C 
ENDROOT
BRANCH   1   2
ATOM      2  C   UNL     1      97.243  84.591  92.649  1.00  0.00    -0.033 C 
ATOM      3  C   UNL     1      96.139  84.088  92.061  1.00  0.00    -0.015 C 
BRANCH   3   4
ATOM      4  C   UNL     1      95.966  82.796  91.278  1.00  0.00     0.078 C 
ATOM      5  O   UNL     1      96.322  83.346  88.893  1.00  0.00    -0.319 OA
ATOM      6  C   UNL     1      96.863  82.567  90.005  1.00  0.00     0.095 C 
ATOM      7  C   UNL     1      94.889  83.317  88.759  1.00  0.00     0.289 C 
ATOM      8  C   UNL     1      96.798  81.025  89.644  1.00  0.00     0.023 C 
ATOM      9  O   UNL     1      94.249  83.775  89.948  1.00  0.00    -0.320 OA
ATOM     10  O   UNL     1      94.392  82.000  88.538  1.00  0.00    -0.313 OA
ATOM     11  C   UNL     1      94.496  82.656  90.813  1.00  0.00     0.170 C 
ATOM     12  C   UNL     1      95.406  80.415  89.994  1.00  0.00     0.049 C 
ATOM     13  C   UNL     1      97.161  80.671  88.193  1.00  0.00     0.011 C 
ATOM     14  C   UNL     1      94.286  81.448  89.866  1.00  0.00     0.122 C 
BRANCH   6  15
ATOM     15  C   UNL     1      98.292  83.143  90.225  1.00  0.00     0.086 C 
ATOM     16  C   UNL     1      98.932  82.866  91.600  1.00  0.00     0.140 CG0
ATOM     17  C   UNL     1      99.384  82.793  89.253  1.00  0.00    -0.010 C 
ATOM     18  C   UNL     1     100.399  82.719  91.254  1.00  0.00     0.190 C 
ATOM     19  G   UNL     1      98.676  83.997  92.595  1.00  0.00     0.000 G0
ATOM     20  C   UNL     1     100.586  82.576  89.798  1.00  0.00    -0.008 C 
ATOM     21  O   UNL     1     101.316  82.672  92.060  1.00  0.00    -0.291 OA
ATOM     22  C   UNL     1     101.886  82.297  89.153  1.00  0.00     0.048 C 
BRANCH  16  23
ATOM     23  O   UNL     1      98.587  81.605  92.151  1.00  0.00    -0.381 OA
ATOM     24  H   UNL     1      98.092  81.754  92.973  1.00  0.00     0.212 HD
ENDBRANCH  16  23
ENDBRANCH   6  15
BRANCH   7  25
ATOM     25  C   UNL     1      94.502  84.206  87.595  1.00  0.00     0.135 C 
BRANCH  25  26
ATOM     26  C   UNL     1      94.354  83.426  86.312  1.00  0.00    -0.040 A 
ATOM     27  C   UNL     1      95.488  83.049  85.591  1.00  0.00     0.004 A 
ATOM     28  C   UNL     1      93.086  83.079  85.848  1.00  0.00     0.004 A 
ATOM     29  C   UNL     1      95.352  82.327  84.405  1.00  0.00     0.000 A 
ATOM     30  C   UNL     1      92.950  82.357  84.662  1.00  0.00     0.000 A 
ATOM     31  C   UNL     1      94.083  81.982  83.941  1.00  0.00     0.000 A 
ENDBRANCH  25  26
ENDBRANCH   7  25
BRANCH  14  32
ATOM     32  C   UNL     1      92.928  80.845  90.018  1.00  0.00    -0.046 C 
ATOM     33  C   UNL     1      92.423  80.695  91.422  1.00  0.00     0.042 C 
ATOM     34  C   UNL     1      92.201  80.458  88.959  1.00  0.00     0.010 C 
ENDBRANCH  14  32
ENDBRANCH   3   4
BRANCH   2  35
ATOM     35  C   UNL     1      98.651  84.028  92.611  1.00  0.00     0.078 CG0
ATOM     36  G   UNL     1      98.923  82.892  91.626  1.00  0.00     0.000 G0
ENDBRANCH   2  35
ENDBRANCH   1   2
BRANCH   1  37
ATOM     37  O   UNL     1      96.330  86.791  92.750  1.00  0.00    -0.461 OA
BRANCH  37  38
ATOM     38  C   UNL     1      95.169  87.181  93.377  1.00  0.00     0.310 C 
ATOM     39  O   UNL     1      95.114  87.809  94.425  1.00  0.00    -0.252 OA
BRANCH  38  40
ATOM     40  C   UNL     1      93.979  86.714  92.572  1.00  0.00     0.158 C 
BRANCH  40  41
ATOM     41  C   UNL     1      93.449  87.771  91.638  1.00  0.00    -0.033 A 
ATOM     42  C   UNL     1      93.716  87.691  90.270  1.00  0.00     0.054 A 
ATOM     43  C   UNL     1      92.692  88.829  92.139  1.00  0.00     0.008 A 
ATOM     44  C   UNL     1      93.226  88.670  89.406  1.00  0.00     0.160 A 
ATOM     45  C   UNL     1      92.201  89.808  91.275  1.00  0.00     0.050 A 
ATOM     46  C   UNL     1      92.468  89.729  89.908  1.00  0.00     0.157 A 
BRANCH  44  47
ATOM     47  O   UNL     1      93.493  88.581  88.073  1.00  0.00    -0.493 OA
ATOM     48  C   UNL     1      94.751  89.089  87.629  1.00  0.00     0.278 C 
ENDBRANCH  44  47
BRANCH  46  49
ATOM     49  O   UNL     1      91.983  90.689  89.074  1.00  0.00    -0.504 OA
ATOM     50  H   UNL     1      91.018  90.596  89.011  1.00  0.00     0.293 HD
ENDBRANCH  46  49
ENDBRANCH  40  41
ENDBRANCH  38  40
ENDBRANCH  37  38
ENDBRANCH   1  37
TORSDOF 11
ENDMDL
MODEL 6
REMARK VINA RESULT:    -6.295     23.633     26.748
REMARK INTER + INTRA:         -10.936
REMARK INTER:                 -10.087
REMARK INTRA:                  -0.849
REMARK UNBOUND:                 0.144
REMARK SMILES C=C(C)[C@]12C[C@@H](C)[C@@]34O[C@](Cc5ccccc5)(O[C@@H]1[C@@H]3C=C(COC(=O)Cc1ccc(O)c(OC)c1)C[C@]1(O)C(=O)C(C)=C[C@@H]41)O2
REMARK SMILES IDX 23 1 22 2 21 3 20 4 9 5 8 6 10 7 6 8 18 9 46 10 19 11 5 12
REMARK SMILES IDX 7 13 4 14 45 15 38 16 44 17 40 18 42 20 41 21 43 22 39 23
REMARK SMILES IDX 11 25 12 26 13 27 17 28 14 29 16 30 15 31 2 32 3 33 1 34
REMARK SMILES IDX 37 35 24 37 25 38 26 39 27 40 28 41 36 42 29 43 33 44 30 45
REMARK SMILES IDX 31 46 34 47 35 48 32 49
REMARK H PARENT 39 24 32 50
REMARK Flexibility Score: 90.00
ROOT
ATOM      1  C   UNL     1      77.733  93.724  74.334  1.00  0.00     0.264 C 
ENDROOT
BRANCH   1   2
ATOM      2  C   UNL     1      76.229  93.688  74.474  1.00  0.00    -0.033 C 
ATOM      3  C   UNL     1      75.463  93.665  73.365  1.00  0.00    -0.015 C 
BRANCH   3   4
ATOM      4  C   UNL     1      73.949  93.704  73.237  1.00  0.00     0.078 C 
ATOM      5  O   UNL     1      73.168  91.357  73.200  1.00  0.00    -0.319 OA
ATOM      6  C   UNL     1      73.107  92.596  73.972  1.00  0.00     0.095 C 
ATOM      7  C   UNL     1      73.036  91.511  71.774  1.00  0.00     0.289 C 
ATOM      8  C   UNL     1      71.605  93.099  74.036  1.00  0.00     0.023 C 
ATOM      9  O   UNL     1      74.034  92.385  71.254  1.00  0.00    -0.320 OA
ATOM     10  O   UNL     1      71.787  92.091  71.407  1.00  0.00    -0.313 OA
ATOM     11  C   UNL     1      73.546  93.645  71.742  1.00  0.00     0.170 C 
ATOM     12  C   UNL     1      71.234  93.951  72.784  1.00  0.00     0.049 C 
ATOM     13  C   UNL     1      70.549  91.999  74.237  1.00  0.00     0.011 C 
ATOM     14  C   UNL     1      72.016  93.509  71.546  1.00  0.00     0.122 C 
BRANCH   6  15
ATOM     15  C   UNL     1      73.749  92.233  75.342  1.00  0.00     0.086 C 
ATOM     16  C   UNL     1      74.267  93.417  76.185  1.00  0.00     0.140 CG0
ATOM     17  C   UNL     1      72.964  91.417  76.331  1.00  0.00    -0.010 C 
ATOM     18  C   UNL     1      73.998  92.951  77.601  1.00  0.00     0.190 C 
ATOM     19  G   UNL     1      75.748  93.699  75.934  1.00  0.00     0.000 G0
ATOM     20  C   UNL     1      73.104  91.778  77.610  1.00  0.00    -0.008 C 
ATOM     21  O   UNL     1      74.413  93.492  78.614  1.00  0.00    -0.291 OA
ATOM     22  C   UNL     1      72.559  91.163  78.838  1.00  0.00     0.048 C 
BRANCH  16  23
ATOM     23  O   UNL     1      73.487  94.594  76.061  1.00  0.00    -0.381 OA
ATOM     24  H   UNL     1      74.028  95.277  75.632  1.00  0.00     0.212 HD
ENDBRANCH  16  23
ENDBRANCH   6  15
BRANCH   7  25
ATOM     25  C   UNL     1      73.168  90.144  71.134  1.00  0.00     0.135 C 
BRANCH  25  26
ATOM     26  C   UNL     1      73.921  90.202  69.828  1.00  0.00    -0.040 A 
ATOM     27  C   UNL     1      73.354  90.840  68.724  1.00  0.00     0.004 A 
ATOM     28  C   UNL     1      75.183  89.620  69.724  1.00  0.00     0.004 A 
ATOM     29  C   UNL     1      74.050  90.894  67.516  1.00  0.00     0.000 A 
ATOM     30  C   UNL     1      75.880  89.674  68.516  1.00  0.00     0.000 A 
ATOM     31  C   UNL     1      75.312  90.311  67.413  1.00  0.00     0.000 A 
ENDBRANCH  25  26
ENDBRANCH   7  25
BRANCH  14  32
ATOM     32  C   UNL     1      71.548  94.185  70.299  1.00  0.00    -0.046 C 
ATOM     33  C   UNL     1      70.096  94.021  69.961  1.00  0.00     0.042 C 
ATOM     34  C   UNL     1      72.378  94.899  69.525  1.00  0.00     0.010 C 
ENDBRANCH  14  32
ENDBRANCH   3   4
BRANCH   2  35
ATOM     35  C   UNL     1      75.767  93.673  75.919  1.00  0.00     0.078 CG0
ATOM     36  G   UNL     1      74.282  93.422  76.176  1.00  0.00     0.000 G0
ENDBRANCH   2  35
ENDBRANCH   1   2
BRANCH   1  37
ATOM     37  O   UNL     1      78.179  95.059  74.433  1.00  0.00    -0.461 OA
BRANCH  37  38
ATOM     38  C   UNL     1      78.313  95.563  75.706  1.00  0.00     0.310 C 
ATOM     39  O   UNL     1      78.499  94.892  76.711  1.00  0.00    -0.252 OA
BRANCH  38  40
ATOM     40  C   UNL     1      78.193  97.068  75.667  1.00  0.00     0.158 C 
BRANCH  40  41
ATOM     41  C   UNL     1      77.099  97.594  76.560  1.00  0.00    -0.033 A 
ATOM     42  C   UNL     1      77.414  98.441  77.624  1.00  0.00     0.054 A 
ATOM     43  C   UNL     1      75.773  97.236  76.323  1.00  0.00     0.008 A 
ATOM     44  C   UNL     1      76.401  98.928  78.451  1.00  0.00     0.160 A 
ATOM     45  C   UNL     1      74.760  97.723  77.150  1.00  0.00     0.050 A 
ATOM     46  C   UNL     1      75.073  98.568  78.213  1.00  0.00     0.157 A 
BRANCH  44  47
ATOM     47  O   UNL     1      76.720  99.753  79.486  1.00  0.00    -0.493 OA
ATOM     48  C   UNL     1      77.878 100.572  79.329  1.00  0.00     0.278 C 
ENDBRANCH  44  47
BRANCH  46  49
ATOM     49  O   UNL     1      74.076  99.039  79.013  1.00  0.00    -0.504 OA
ATOM     50  H   UNL     1      74.291  98.837  79.939  1.00  0.00     0.293 HD
ENDBRANCH  46  49
ENDBRANCH  40  41
ENDBRANCH  38  40
ENDBRANCH  37  38
ENDBRANCH   1  37
TORSDOF 11
ENDMDL
MODEL 7
REMARK VINA RESULT:    -6.173     25.947     29.371
REMARK INTER + INTRA:         -10.721
REMARK INTER:                  -9.884
REMARK INTRA:                  -0.837
REMARK UNBOUND:                 0.144
REMARK SMILES C=C(C)[C@]12C[C@@H](C)[C@@]34O[C@](Cc5ccccc5)(O[C@@H]1[C@@H]3C=C(COC(=O)Cc1ccc(O)c(OC)c1)C[C@]1(O)C(=O)C(C)=C[C@@H]41)O2
REMARK SMILES IDX 23 1 22 2 21 3 20 4 9 5 8 6 10 7 6 8 18 9 46 10 19 11 5 12
REMARK SMILES IDX 7 13 4 14 45 15 38 16 44 17 40 18 42 20 41 21 43 22 39 23
REMARK SMILES IDX 11 25 12 26 13 27 17 28 14 29 16 30 15 31 2 32 3 33 1 34
REMARK SMILES IDX 37 35 24 37 25 38 26 39 27 40 28 41 36 42 29 43 33 44 30 45
REMARK SMILES IDX 31 46 34 47 35 48 32 49
REMARK H PARENT 39 24 32 50
REMARK Flexibility Score: 90.00
ROOT
ATOM      1  C   UNL     1      70.428  84.745  69.597  1.00  0.00     0.264 C 
ENDROOT
BRANCH   1   2
ATOM      2  C   UNL     1      71.284  85.510  68.615  1.00  0.00    -0.033 C 
ATOM      3  C   UNL     1      71.334  86.855  68.690  1.00  0.00    -0.015 C 
BRANCH   3   4
ATOM      4  C   UNL     1      72.047  87.846  67.786  1.00  0.00     0.078 C 
ATOM      5  O   UNL     1      74.276  88.253  68.779  1.00  0.00    -0.319 OA
ATOM      6  C   UNL     1      73.604  87.706  67.602  1.00  0.00     0.095 C 
ATOM      7  C   UNL     1      73.735  89.491  69.278  1.00  0.00     0.289 C 
ATOM      8  C   UNL     1      74.015  88.550  66.325  1.00  0.00     0.023 C 
ATOM      9  O   UNL     1      72.353  89.358  69.601  1.00  0.00    -0.320 OA
ATOM     10  O   UNL     1      73.805  90.539  68.315  1.00  0.00    -0.313 OA
ATOM     11  C   UNL     1      71.790  89.290  68.282  1.00  0.00     0.170 C 
ATOM     12  C   UNL     1      73.111  89.810  66.159  1.00  0.00     0.049 C 
ATOM     13  C   UNL     1      75.493  88.968  66.258  1.00  0.00     0.011 C 
ATOM     14  C   UNL     1      72.626  90.341  67.508  1.00  0.00     0.122 C 
BRANCH   6  15
ATOM     15  C   UNL     1      74.024  86.208  67.577  1.00  0.00     0.086 C 
ATOM     16  C   UNL     1      73.118  85.261  66.762  1.00  0.00     0.140 CG0
ATOM     17  C   UNL     1      75.410  85.839  67.126  1.00  0.00    -0.010 C 
ATOM     18  C   UNL     1      74.108  84.257  66.211  1.00  0.00     0.190 C 
ATOM     19  G   UNL     1      72.041  84.608  67.627  1.00  0.00     0.000 G0
ATOM     20  C   UNL     1      75.494  84.732  66.380  1.00  0.00    -0.008 C 
ATOM     21  O   UNL     1      73.817  83.210  65.651  1.00  0.00    -0.291 OA
ATOM     22  C   UNL     1      76.680  84.036  65.840  1.00  0.00     0.048 C 
BRANCH  16  23
ATOM     23  O   UNL     1      72.560  85.858  65.603  1.00  0.00    -0.381 OA
ATOM     24  H   UNL     1      72.530  85.190  64.898  1.00  0.00     0.212 HD
ENDBRANCH  16  23
ENDBRANCH   6  15
BRANCH   7  25
ATOM     25  C   UNL     1      74.515  89.887  70.515  1.00  0.00     0.135 C 
BRANCH  25  26
ATOM     26  C   UNL     1      73.881  91.051  71.234  1.00  0.00    -0.040 A 
ATOM     27  C   UNL     1      72.840  90.830  72.137  1.00  0.00     0.004 A 
ATOM     28  C   UNL     1      74.335  92.348  70.998  1.00  0.00     0.004 A 
ATOM     29  C   UNL     1      72.254  91.908  72.803  1.00  0.00     0.000 A 
ATOM     30  C   UNL     1      73.749  93.425  71.664  1.00  0.00     0.000 A 
ATOM     31  C   UNL     1      72.708  93.204  72.566  1.00  0.00     0.000 A 
ENDBRANCH  25  26
ENDBRANCH   7  25
BRANCH  14  32
ATOM     32  C   UNL     1      71.912  91.648  67.389  1.00  0.00    -0.046 C 
ATOM     33  C   UNL     1      70.538  91.709  67.986  1.00  0.00     0.042 C 
ATOM     34  C   UNL     1      72.468  92.707  66.781  1.00  0.00     0.010 C 
ENDBRANCH  14  32
ENDBRANCH   3   4
BRANCH   2  35
ATOM     35  C   UNL     1      72.011  84.609  67.634  1.00  0.00     0.078 CG0
ATOM     36  G   UNL     1      73.106  85.247  66.779  1.00  0.00     0.000 G0
ENDBRANCH   2  35
ENDBRANCH   1   2
BRANCH   1  37
ATOM     37  O   UNL     1      69.530  85.635  70.225  1.00  0.00    -0.461 OA
BRANCH  37  38
ATOM     38  C   UNL     1      68.202  85.491  69.898  1.00  0.00     0.310 C 
ATOM     39  O   UNL     1      67.745  84.604  69.190  1.00  0.00    -0.252 OA
BRANCH  38  40
ATOM     40  C   UNL     1      67.400  86.595  70.546  1.00  0.00     0.158 C 
BRANCH  40  41
ATOM     41  C   UNL     1      66.561  86.112  71.701  1.00  0.00    -0.033 A 
ATOM     42  C   UNL     1      67.056  86.191  73.003  1.00  0.00     0.054 A 
ATOM     43  C   UNL     1      65.290  85.587  71.468  1.00  0.00     0.008 A 
ATOM     44  C   UNL     1      66.279  85.743  74.072  1.00  0.00     0.160 A 
ATOM     45  C   UNL     1      64.513  85.140  72.538  1.00  0.00     0.050 A 
ATOM     46  C   UNL     1      65.008  85.218  73.839  1.00  0.00     0.157 A 
BRANCH  44  47
ATOM     47  O   UNL     1      66.773  85.825  75.339  1.00  0.00    -0.493 OA
ATOM     48  C   UNL     1      68.039  86.463  75.502  1.00  0.00     0.278 C 
ENDBRANCH  44  47
BRANCH  46  49
ATOM     49  O   UNL     1      64.240  84.779  74.875  1.00  0.00    -0.504 OA
ATOM     50  H   UNL     1      64.803  84.298  75.504  1.00  0.00     0.293 HD
ENDBRANCH  46  49
ENDBRANCH  40  41
ENDBRANCH  38  40
ENDBRANCH  37  38
ENDBRANCH   1  37
TORSDOF 11
ENDMDL
MODEL 8
REMARK VINA RESULT:    -6.153     24.506     27.237
REMARK INTER + INTRA:         -10.685
REMARK INTER:                  -9.783
REMARK INTRA:                  -0.902
REMARK UNBOUND:                 0.144
REMARK SMILES C=C(C)[C@]12C[C@@H](C)[C@@]34O[C@](Cc5ccccc5)(O[C@@H]1[C@@H]3C=C(COC(=O)Cc1ccc(O)c(OC)c1)C[C@]1(O)C(=O)C(C)=C[C@@H]41)O2
REMARK SMILES IDX 23 1 22 2 21 3 20 4 9 5 8 6 10 7 6 8 18 9 46 10 19 11 5 12
REMARK SMILES IDX 7 13 4 14 45 15 38 16 44 17 40 18 42 20 41 21 43 22 39 23
REMARK SMILES IDX 11 25 12 26 13 27 17 28 14 29 16 30 15 31 2 32 3 33 1 34
REMARK SMILES IDX 37 35 24 37 25 38 26 39 27 40 28 41 36 42 29 43 33 44 30 45
REMARK SMILES IDX 31 46 34 47 35 48 32 49
REMARK H PARENT 39 24 32 50
REMARK Flexibility Score: 90.00
ROOT
ATOM      1  C   UNL     1      82.240 100.805  70.441  1.00  0.00     0.264 C 
ENDROOT
BRANCH   1   2
ATOM      2  C   UNL     1      80.941 100.819  71.212  1.00  0.00    -0.033 C 
ATOM      3  C   UNL     1      80.023  99.860  70.976  1.00  0.00    -0.015 C 
BRANCH   3   4
ATOM      4  C   UNL     1      78.627  99.698  71.553  1.00  0.00     0.078 C 
ATOM      5  O   UNL     1      78.837  98.255  73.551  1.00  0.00    -0.319 OA
ATOM      6  C   UNL     1      78.469  99.600  73.117  1.00  0.00     0.095 C 
ATOM      7  C   UNL     1      78.341  97.183  72.726  1.00  0.00     0.289 C 
ATOM      8  C   UNL     1      76.946  99.865  73.463  1.00  0.00     0.023 C 
ATOM      9  O   UNL     1      78.776  97.327  71.376  1.00  0.00    -0.320 OA
ATOM     10  O   UNL     1      76.917  97.157  72.670  1.00  0.00    -0.313 OA
ATOM     11  C   UNL     1      77.958  98.432  70.963  1.00  0.00     0.170 C 
ATOM     12  C   UNL     1      76.004  99.330  72.341  1.00  0.00     0.049 C 
ATOM     13  C   UNL     1      76.476  99.328  74.825  1.00  0.00     0.011 C 
ATOM     14  C   UNL     1      76.599  98.111  71.636  1.00  0.00     0.122 C 
BRANCH   6  15
ATOM     15  C   UNL     1      79.490 100.532  73.833  1.00  0.00     0.086 C 
ATOM     16  C   UNL     1      79.691 101.928  73.208  1.00  0.00     0.140 CG0
ATOM     17  C   UNL     1      79.317 100.826  75.297  1.00  0.00    -0.010 C 
ATOM     18  C   UNL     1      79.942 102.796  74.423  1.00  0.00     0.190 C 
ATOM     19  G   UNL     1      80.855 101.955  72.218  1.00  0.00     0.000 G0
ATOM     20  C   UNL     1      79.590 102.082  75.665  1.00  0.00    -0.008 C 
ATOM     21  O   UNL     1      80.334 103.953  74.398  1.00  0.00    -0.291 OA
ATOM     22  C   UNL     1      79.610 102.697  77.008  1.00  0.00     0.048 C 
BRANCH  16  23
ATOM     23  O   UNL     1      78.514 102.476  72.638  1.00  0.00    -0.381 OA
ATOM     24  H   UNL     1      77.836 102.537  73.331  1.00  0.00     0.212 HD
ENDBRANCH  16  23
ENDBRANCH   6  15
BRANCH   7  25
ATOM     25  C   UNL     1      78.850  95.873  73.292  1.00  0.00     0.135 C 
BRANCH  25  26
ATOM     26  C   UNL     1      78.074  95.446  74.513  1.00  0.00    -0.040 A 
ATOM     27  C   UNL     1      78.289  96.085  75.734  1.00  0.00     0.004 A 
ATOM     28  C   UNL     1      77.142  94.413  74.421  1.00  0.00     0.004 A 
ATOM     29  C   UNL     1      77.571  95.690  76.864  1.00  0.00     0.000 A 
ATOM     30  C   UNL     1      76.424  94.018  75.551  1.00  0.00     0.000 A 
ATOM     31  C   UNL     1      76.640  94.657  76.772  1.00  0.00     0.000 A 
ENDBRANCH  25  26
ENDBRANCH   7  25
BRANCH  14  32
ATOM     32  C   UNL     1      75.640  97.472  70.686  1.00  0.00    -0.046 C 
ATOM     33  C   UNL     1      75.092  96.137  71.095  1.00  0.00     0.042 C 
ATOM     34  C   UNL     1      75.288  98.058  69.531  1.00  0.00     0.010 C 
ENDBRANCH  14  32
ENDBRANCH   3   4
BRANCH   2  35
ATOM     35  C   UNL     1      80.848 101.966  72.201  1.00  0.00     0.078 CG0
ATOM     36  G   UNL     1      79.682 101.946  73.188  1.00  0.00     0.000 G0
ENDBRANCH   2  35
ENDBRANCH   1   2
BRANCH   1  37
ATOM     37  O   UNL     1      82.209  99.761  69.493  1.00  0.00    -0.461 OA
BRANCH  37  38
ATOM     38  C   UNL     1      82.007 100.133  68.184  1.00  0.00     0.310 C 
ATOM     39  O   UNL     1      80.915 100.341  67.673  1.00  0.00    -0.252 OA
BRANCH  38  40
ATOM     40  C   UNL     1      83.339 100.246  67.480  1.00  0.00     0.158 C 
BRANCH  40  41
ATOM     41  C   UNL     1      83.712 101.668  67.151  1.00  0.00    -0.033 A 
ATOM     42  C   UNL     1      84.872 102.227  67.688  1.00  0.00     0.054 A 
ATOM     43  C   UNL     1      82.898 102.425  66.309  1.00  0.00     0.008 A 
ATOM     44  C   UNL     1      85.217 103.544  67.383  1.00  0.00     0.160 A 
ATOM     45  C   UNL     1      83.243 103.742  66.004  1.00  0.00     0.050 A 
ATOM     46  C   UNL     1      84.402 104.302  66.540  1.00  0.00     0.157 A 
BRANCH  44  47
ATOM     47  O   UNL     1      86.352 104.079  67.913  1.00  0.00    -0.493 OA
ATOM     48  C   UNL     1      86.270 104.581  69.246  1.00  0.00     0.278 C 
ENDBRANCH  44  47
BRANCH  46  49
ATOM     49  O   UNL     1      84.730 105.588  66.235  1.00  0.00    -0.504 OA
ATOM     50  H   UNL     1      84.303 105.832  65.396  1.00  0.00     0.293 HD
ENDBRANCH  46  49
ENDBRANCH  40  41
ENDBRANCH  38  40
ENDBRANCH  37  38
ENDBRANCH   1  37
TORSDOF 11
ENDMDL
MODEL 9
REMARK VINA RESULT:    -6.145     11.398     13.919
REMARK INTER + INTRA:         -10.671
REMARK INTER:                  -9.867
REMARK INTRA:                  -0.804
REMARK UNBOUND:                 0.144
REMARK SMILES C=C(C)[C@]12C[C@@H](C)[C@@]34O[C@](Cc5ccccc5)(O[C@@H]1[C@@H]3C=C(COC(=O)Cc1ccc(O)c(OC)c1)C[C@]1(O)C(=O)C(C)=C[C@@H]41)O2
REMARK SMILES IDX 23 1 22 2 21 3 20 4 9 5 8 6 10 7 6 8 18 9 46 10 19 11 5 12
REMARK SMILES IDX 7 13 4 14 45 15 38 16 44 17 40 18 42 20 41 21 43 22 39 23
REMARK SMILES IDX 11 25 12 26 13 27 17 28 14 29 16 30 15 31 2 32 3 33 1 34
REMARK SMILES IDX 37 35 24 37 25 38 26 39 27 40 28 41 36 42 29 43 33 44 30 45
REMARK SMILES IDX 31 46 34 47 35 48 32 49
REMARK H PARENT 39 24 32 50
REMARK Flexibility Score: 90.00
ROOT
ATOM      1  C   UNL     1      89.357  68.786  75.624  1.00  0.00     0.264 C 
ENDROOT
BRANCH   1   2
ATOM      2  C   UNL     1      89.982  69.456  76.825  1.00  0.00    -0.033 C 
ATOM      3  C   UNL     1      90.713  70.575  76.650  1.00  0.00    -0.015 C 
BRANCH   3   4
ATOM      4  C   UNL     1      91.499  71.383  77.670  1.00  0.00     0.078 C 
ATOM      5  O   UNL     1      89.989  73.157  78.502  1.00  0.00    -0.319 OA
ATOM      6  C   UNL     1      90.732  71.968  78.914  1.00  0.00     0.095 C 
ATOM      7  C   UNL     1      90.697  74.054  77.626  1.00  0.00     0.289 C 
ATOM      8  C   UNL     1      91.815  72.376  79.997  1.00  0.00     0.023 C 
ATOM      9  O   UNL     1      91.125  73.389  76.441  1.00  0.00    -0.320 OA
ATOM     10  O   UNL     1      91.882  74.572  78.226  1.00  0.00    -0.313 OA
ATOM     11  C   UNL     1      92.187  72.583  76.973  1.00  0.00     0.170 C 
ATOM     12  C   UNL     1      93.133  72.873  79.327  1.00  0.00     0.049 C 
ATOM     13  C   UNL     1      91.350  73.407  81.038  1.00  0.00     0.011 C 
ATOM     14  C   UNL     1      92.865  73.545  77.980  1.00  0.00     0.122 C 
BRANCH   6  15
ATOM     15  C   UNL     1      89.638  70.976  79.404  1.00  0.00     0.086 C 
ATOM     16  C   UNL     1      90.039  69.487  79.445  1.00  0.00     0.140 CG0
ATOM     17  C   UNL     1      88.986  71.199  80.739  1.00  0.00    -0.010 C 
ATOM     18  C   UNL     1      89.272  68.975  80.646  1.00  0.00     0.190 C 
ATOM     19  G   UNL     1      89.667  68.753  78.157  1.00  0.00     0.000 G0
ATOM     20  C   UNL     1      88.742  70.093  81.450  1.00  0.00    -0.008 C 
ATOM     21  O   UNL     1      89.141  67.801  80.954  1.00  0.00    -0.291 OA
ATOM     22  C   UNL     1      88.052  69.926  82.745  1.00  0.00     0.048 C 
BRANCH  16  23
ATOM     23  O   UNL     1      91.396  69.268  79.792  1.00  0.00    -0.381 OA
ATOM     24  H   UNL     1      91.770  68.617  79.174  1.00  0.00     0.212 HD
ENDBRANCH  16  23
ENDBRANCH   6  15
BRANCH   7  25
ATOM     25  C   UNL     1      89.771  75.198  77.267  1.00  0.00     0.135 C 
BRANCH  25  26
ATOM     26  C   UNL     1      90.479  76.274  76.483  1.00  0.00    -0.040 A 
ATOM     27  C   UNL     1      91.156  77.294  77.154  1.00  0.00     0.004 A 
ATOM     28  C   UNL     1      90.460  76.250  75.089  1.00  0.00     0.004 A 
ATOM     29  C   UNL     1      91.812  78.290  76.429  1.00  0.00     0.000 A 
ATOM     30  C   UNL     1      91.115  77.246  74.364  1.00  0.00     0.000 A 
ATOM     31  C   UNL     1      91.791  78.266  75.035  1.00  0.00     0.000 A 
ENDBRANCH  25  26
ENDBRANCH   7  25
BRANCH  14  32
ATOM     32  C   UNL     1      94.085  74.189  77.406  1.00  0.00    -0.046 C 
ATOM     33  C   UNL     1      95.306  74.187  78.277  1.00  0.00     0.042 C 
ATOM     34  C   UNL     1      94.088  74.738  76.182  1.00  0.00     0.010 C 
ENDBRANCH  14  32
ENDBRANCH   3   4
BRANCH   2  35
ATOM     35  C   UNL     1      89.678  68.742  78.129  1.00  0.00     0.078 CG0
ATOM     36  G   UNL     1      90.038  69.469  79.424  1.00  0.00     0.000 G0
ENDBRANCH   2  35
ENDBRANCH   1   2
BRANCH   1  37
ATOM     37  O   UNL     1      90.308  68.709  74.584  1.00  0.00    -0.461 OA
BRANCH  37  38
ATOM     38  C   UNL     1      90.310  67.548  73.846  1.00  0.00     0.310 C 
ATOM     39  O   UNL     1      90.600  66.441  74.279  1.00  0.00    -0.252 OA
BRANCH  38  40
ATOM     40  C   UNL     1      89.901  67.853  72.425  1.00  0.00     0.158 C 
BRANCH  40  41
ATOM     41  C   UNL     1      88.584  68.581  72.335  1.00  0.00    -0.033 A 
ATOM     42  C   UNL     1      87.465  68.082  73.002  1.00  0.00     0.054 A 
ATOM     43  C   UNL     1      88.485  69.754  71.587  1.00  0.00     0.008 A 
ATOM     44  C   UNL     1      86.246  68.755  72.919  1.00  0.00     0.160 A 
ATOM     45  C   UNL     1      87.266  70.428  71.505  1.00  0.00     0.050 A 
ATOM     46  C   UNL     1      86.147  69.929  72.170  1.00  0.00     0.157 A 
BRANCH  44  47
ATOM     47  O   UNL     1      85.160  68.258  73.574  1.00  0.00    -0.493 OA
ATOM     48  C   UNL     1      85.245  68.167  74.995  1.00  0.00     0.278 C 
ENDBRANCH  44  47
BRANCH  46  49
ATOM     49  O   UNL     1      84.962  70.596  72.083  1.00  0.00    -0.504 OA
ATOM     50  H   UNL     1      84.739  70.959  72.957  1.00  0.00     0.293 HD
ENDBRANCH  46  49
ENDBRANCH  40  41
ENDBRANCH  38  40
ENDBRANCH  37  38
ENDBRANCH   1  37
TORSDOF 11
ENDMDL
MODEL 10
REMARK VINA RESULT:    -6.037     25.947     29.795
REMARK INTER + INTRA:         -10.480
REMARK INTER:                  -8.741
REMARK INTRA:                  -1.739
REMARK UNBOUND:                 0.144
REMARK SMILES C=C(C)[C@]12C[C@@H](C)[C@@]34O[C@](Cc5ccccc5)(O[C@@H]1[C@@H]3C=C(COC(=O)Cc1ccc(O)c(OC)c1)C[C@]1(O)C(=O)C(C)=C[C@@H]41)O2
REMARK SMILES IDX 23 1 22 2 21 3 20 4 9 5 8 6 10 7 6 8 18 9 46 10 19 11 5 12
REMARK SMILES IDX 7 13 4 14 45 15 38 16 44 17 40 18 42 20 41 21 43 22 39 23
REMARK SMILES IDX 11 25 12 26 13 27 17 28 14 29 16 30 15 31 2 32 3 33 1 34
REMARK SMILES IDX 37 35 24 37 25 38 26 39 27 40 28 41 36 42 29 43 33 44 30 45
REMARK SMILES IDX 31 46 34 47 35 48 32 49
REMARK H PARENT 39 24 32 50
REMARK Flexibility Score: 90.00
ROOT
ATOM      1  C   UNL     1      70.070  84.629  69.588  1.00  0.00     0.264 C 
ENDROOT
BRANCH   1   2
ATOM      2  C   UNL     1      70.598  85.262  68.322  1.00  0.00    -0.033 C 
ATOM      3  C   UNL     1      71.135  86.498  68.377  1.00  0.00    -0.015 C 
BRANCH   3   4
ATOM      4  C   UNL     1      71.658  87.373  67.249  1.00  0.00     0.078 C 
ATOM      5  O   UNL     1      74.078  86.907  67.039  1.00  0.00    -0.319 OA
ATOM      6  C   UNL     1      72.804  86.806  66.331  1.00  0.00     0.095 C 
ATOM      7  C   UNL     1      74.292  88.140  67.751  1.00  0.00     0.289 C 
ATOM      8  C   UNL     1      72.859  87.701  65.024  1.00  0.00     0.023 C 
ATOM      9  O   UNL     1      73.258  88.373  68.703  1.00  0.00    -0.320 OA
ATOM     10  O   UNL     1      74.281  89.273  66.886  1.00  0.00    -0.313 OA
ATOM     11  C   UNL     1      72.176  88.715  67.823  1.00  0.00     0.170 C 
ATOM     12  C   UNL     1      72.482  89.183  65.331  1.00  0.00     0.049 C 
ATOM     13  C   UNL     1      74.187  87.660  64.252  1.00  0.00     0.011 C 
ATOM     14  C   UNL     1      72.880  89.586  66.752  1.00  0.00     0.122 C 
BRANCH   6  15
ATOM     15  C   UNL     1      72.613  85.281  66.089  1.00  0.00     0.086 C 
ATOM     16  C   UNL     1      71.169  84.811  65.816  1.00  0.00     0.140 CG0
ATOM     17  C   UNL     1      73.412  84.600  65.013  1.00  0.00    -0.010 C 
ATOM     18  C   UNL     1      71.376  83.671  64.841  1.00  0.00     0.190 C 
ATOM     19  G   UNL     1      70.455  84.367  67.092  1.00  0.00     0.000 G0
ATOM     20  C   UNL     1      72.753  83.671  64.312  1.00  0.00    -0.008 C 
ATOM     21  O   UNL     1      70.518  82.877  64.487  1.00  0.00    -0.291 OA
ATOM     22  C   UNL     1      73.234  82.759  63.254  1.00  0.00     0.048 C 
BRANCH  16  23
ATOM     23  O   UNL     1      70.391  85.744  65.085  1.00  0.00    -0.381 OA
ATOM     24  H   UNL     1      69.892  86.289  65.716  1.00  0.00     0.212 HD
ENDBRANCH  16  23
ENDBRANCH   6  15
BRANCH   7  25
ATOM     25  C   UNL     1      75.630  88.056  68.457  1.00  0.00     0.135 C 
BRANCH  25  26
ATOM     26  C   UNL     1      76.161  86.644  68.495  1.00  0.00    -0.040 A 
ATOM     27  C   UNL     1      77.071  86.215  67.528  1.00  0.00     0.004 A 
ATOM     28  C   UNL     1      75.744  85.768  69.497  1.00  0.00     0.004 A 
ATOM     29  C   UNL     1      77.562  84.910  67.563  1.00  0.00     0.000 A 
ATOM     30  C   UNL     1      76.236  84.463  69.532  1.00  0.00     0.000 A 
ATOM     31  C   UNL     1      77.145  84.035  68.564  1.00  0.00     0.000 A 
ENDBRANCH  25  26
ENDBRANCH   7  25
BRANCH  14  32
ATOM     32  C   UNL     1      72.697  91.046  67.007  1.00  0.00    -0.046 C 
ATOM     33  C   UNL     1      73.696  91.961  66.364  1.00  0.00     0.042 C 
ATOM     34  C   UNL     1      71.696  91.513  67.769  1.00  0.00     0.010 C 
ENDBRANCH  14  32
ENDBRANCH   3   4
BRANCH   2  35
ATOM     35  C   UNL     1      70.449  84.370  67.104  1.00  0.00     0.078 CG0
ATOM     36  G   UNL     1      71.168  84.804  65.828  1.00  0.00     0.000 G0
ENDBRANCH   2  35
ENDBRANCH   1   2
BRANCH   1  37
ATOM     37  O   UNL     1      69.155  85.510  70.204  1.00  0.00    -0.461 OA
BRANCH  37  38
ATOM     38  C   UNL     1      68.089  84.927  70.849  1.00  0.00     0.310 C 
ATOM     39  O   UNL     1      68.114  84.483  71.988  1.00  0.00    -0.252 OA
BRANCH  38  40
ATOM     40  C   UNL     1      66.888  84.919  69.932  1.00  0.00     0.158 C 
BRANCH  40  41
ATOM     41  C   UNL     1      67.037  85.855  68.760  1.00  0.00    -0.033 A 
ATOM     42  C   UNL     1      67.005  85.353  67.458  1.00  0.00     0.054 A 
ATOM     43  C   UNL     1      67.207  87.222  68.977  1.00  0.00     0.008 A 
ATOM     44  C   UNL     1      67.143  86.220  66.374  1.00  0.00     0.160 A 
ATOM     45  C   UNL     1      67.345  88.089  67.892  1.00  0.00     0.050 A 
ATOM     46  C   UNL     1      67.313  87.588  66.591  1.00  0.00     0.157 A 
BRANCH  44  47
ATOM     47  O   UNL     1      67.110  85.718  65.108  1.00  0.00    -0.493 OA
ATOM     48  C   UNL     1      66.297  84.567  64.887  1.00  0.00     0.278 C 
ENDBRANCH  44  47
BRANCH  46  49
ATOM     49  O   UNL     1      67.448  88.443  65.540  1.00  0.00    -0.504 OA
ATOM     50  H   UNL     1      68.019  88.033  64.869  1.00  0.00     0.293 HD
ENDBRANCH  46  49
ENDBRANCH  40  41
ENDBRANCH  38  40
ENDBRANCH  37  38
ENDBRANCH   1  37
TORSDOF 11
ENDMDL
