MODEL 1
REMARK VINA RESULT:    -6.221      0.000      0.000
REMARK INTER + INTRA:         -10.777
REMARK INTER:                 -10.040
REMARK INTRA:                  -0.737
REMARK UNBOUND:                -0.737
REMARK SMILES CCCCCCCCC(=O)NCc1ccc(O)c(OC)c1
REMARK SMILES IDX 7 1 6 2 5 3 4 4 3 5 2 6 1 7 8 8 9 9 10 10 11 11 12 13 13 14
REMARK SMILES IDX 21 15 14 16 18 17 15 18 16 19 19 20 20 21 17 22
REMARK H PARENT 11 12 17 23
REMARK Flexibility Score: inf
ROOT
ATOM      1  C   UNL     1      80.210  63.520  69.698  1.00  0.00     0.010 C 
ENDROOT
BRANCH   1   2
ATOM      2  C   UNL     1      78.768  63.316  69.151  1.00  0.00     0.001 C 
BRANCH   2   3
ATOM      3  C   UNL     1      78.336  64.460  68.187  1.00  0.00     0.000 C 
BRANCH   3   4
ATOM      4  C   UNL     1      76.955  65.085  68.535  1.00  0.00    -0.000 C 
BRANCH   4   5
ATOM      5  C   UNL     1      76.085  65.359  67.276  1.00  0.00    -0.000 C 
BRANCH   5   6
ATOM      6  C   UNL     1      75.996  64.128  66.334  1.00  0.00    -0.003 C 
ATOM      7  C   UNL     1      75.246  62.938  66.971  1.00  0.00     0.004 C 
ENDBRANCH   5   6
ENDBRANCH   4   5
ENDBRANCH   3   4
ENDBRANCH   2   3
ENDBRANCH   1   2
BRANCH   1   8
ATOM      8  C   UNL     1      80.709  64.991  69.622  1.00  0.00     0.100 C 
BRANCH   8   9
ATOM      9  C   UNL     1      80.500  65.698  70.909  1.00  0.00     0.220 C 
ATOM     10  O   UNL     1      79.344  66.095  71.189  1.00  0.00    -0.275 OA
ATOM     11  N   UNL     1      81.539  65.882  71.776  1.00  0.00    -0.352 N 
ATOM     12  H   UNL     1      82.439  65.602  71.414  1.00  0.00     0.163 HD
BRANCH  11  13
ATOM     13  C   UNL     1      81.439  66.419  73.098  1.00  0.00     0.151 C 
BRANCH  13  14
ATOM     14  C   UNL     1      82.712  66.992  73.613  1.00  0.00    -0.025 A 
ATOM     15  C   UNL     1      83.524  67.792  72.774  1.00  0.00     0.056 A 
ATOM     16  C   UNL     1      83.134  66.746  74.940  1.00  0.00     0.009 A 
ATOM     17  C   UNL     1      84.727  68.357  73.255  1.00  0.00     0.160 A 
ATOM     18  C   UNL     1      84.330  67.306  75.424  1.00  0.00     0.050 A 
ATOM     19  C   UNL     1      85.132  68.104  74.585  1.00  0.00     0.157 A 
BRANCH  17  20
ATOM     20  O   UNL     1      85.534  69.097  72.428  1.00  0.00    -0.493 OA
ATOM     21  C   UNL     1      85.132  70.472  72.290  1.00  0.00     0.278 C 
ENDBRANCH  17  20
BRANCH  19  22
ATOM     22  O   UNL     1      86.298  68.617  75.054  1.00  0.00    -0.504 OA
ATOM     23  H   UNL     1      86.643  68.048  75.746  1.00  0.00     0.293 HD
ENDBRANCH  19  22
ENDBRANCH  13  14
ENDBRANCH  11  13
ENDBRANCH   8   9
ENDBRANCH   1   8
TORSDOF 11
ENDMDL
MODEL 2
REMARK VINA RESULT:    -6.094      2.201      2.769
REMARK INTER + INTRA:         -10.571
REMARK INTER:                  -9.759
REMARK INTRA:                  -0.812
REMARK UNBOUND:                -0.737
REMARK SMILES CCCCCCCCC(=O)NCc1ccc(O)c(OC)c1
REMARK SMILES IDX 7 1 6 2 5 3 4 4 3 5 2 6 1 7 8 8 9 9 10 10 11 11 12 13 13 14
REMARK SMILES IDX 21 15 14 16 18 17 15 18 16 19 19 20 20 21 17 22
REMARK H PARENT 11 12 17 23
REMARK Flexibility Score: inf
ROOT
ATOM      1  C   UNL     1      78.255  64.513  68.782  1.00  0.00     0.010 C 
ENDROOT
BRANCH   1   2
ATOM      2  C   UNL     1      77.829  63.316  67.884  1.00  0.00     0.001 C 
BRANCH   2   3
ATOM      3  C   UNL     1      77.047  63.778  66.619  1.00  0.00     0.000 C 
BRANCH   3   4
ATOM      4  C   UNL     1      76.883  65.320  66.511  1.00  0.00    -0.000 C 
BRANCH   4   5
ATOM      5  C   UNL     1      75.393  65.767  66.505  1.00  0.00    -0.000 C 
BRANCH   5   6
ATOM      6  C   UNL     1      74.488  64.833  67.352  1.00  0.00    -0.003 C 
ATOM      7  C   UNL     1      74.466  65.214  68.849  1.00  0.00     0.004 C 
ENDBRANCH   5   6
ENDBRANCH   4   5
ENDBRANCH   3   4
ENDBRANCH   2   3
ENDBRANCH   1   2
BRANCH   1   8
ATOM      8  C   UNL     1      79.569  64.269  69.576  1.00  0.00     0.100 C 
BRANCH   8   9
ATOM      9  C   UNL     1      79.769  65.303  70.620  1.00  0.00     0.220 C 
ATOM     10  O   UNL     1      79.009  66.300  70.623  1.00  0.00    -0.275 OA
ATOM     11  N   UNL     1      80.740  65.152  71.568  1.00  0.00    -0.352 N 
ATOM     12  H   UNL     1      81.348  64.359  71.421  1.00  0.00     0.163 HD
BRANCH  11  13
ATOM     13  C   UNL     1      80.939  66.001  72.702  1.00  0.00     0.151 C 
BRANCH  13  14
ATOM     14  C   UNL     1      82.262  65.826  73.360  1.00  0.00    -0.025 A 
ATOM     15  C   UNL     1      83.136  64.796  72.937  1.00  0.00     0.056 A 
ATOM     16  C   UNL     1      82.667  66.675  74.415  1.00  0.00     0.009 A 
ATOM     17  C   UNL     1      84.403  64.628  73.541  1.00  0.00     0.160 A 
ATOM     18  C   UNL     1      83.927  66.514  75.019  1.00  0.00     0.050 A 
ATOM     19  C   UNL     1      84.793  65.489  74.591  1.00  0.00     0.157 A 
BRANCH  17  20
ATOM     20  O   UNL     1      85.232  63.603  73.159  1.00  0.00    -0.493 OA
ATOM     21  C   UNL     1      85.346  63.438  71.735  1.00  0.00     0.278 C 
ENDBRANCH  17  20
BRANCH  19  22
ATOM     22  O   UNL     1      85.996  65.324  75.199  1.00  0.00    -0.504 OA
ATOM     23  H   UNL     1      86.497  66.142  75.145  1.00  0.00     0.293 HD
ENDBRANCH  19  22
ENDBRANCH  13  14
ENDBRANCH  11  13
ENDBRANCH   8   9
ENDBRANCH   1   8
TORSDOF 11
ENDMDL
MODEL 3
REMARK VINA RESULT:    -5.970     15.635     18.563
REMARK INTER + INTRA:         -10.372
REMARK INTER:                  -9.792
REMARK INTRA:                  -0.580
REMARK UNBOUND:                -0.737
REMARK SMILES CCCCCCCCC(=O)NCc1ccc(O)c(OC)c1
REMARK SMILES IDX 7 1 6 2 5 3 4 4 3 5 2 6 1 7 8 8 9 9 10 10 11 11 12 13 13 14
REMARK SMILES IDX 21 15 14 16 18 17 15 18 16 19 19 20 20 21 17 22
REMARK H PARENT 11 12 17 23
REMARK Flexibility Score: inf
ROOT
ATOM      1  C   UNL     1      91.392  75.243  80.866  1.00  0.00     0.010 C 
ENDROOT
BRANCH   1   2
ATOM      2  C   UNL     1      91.078  74.785  79.413  1.00  0.00     0.001 C 
BRANCH   2   3
ATOM      3  C   UNL     1      91.027  75.981  78.417  1.00  0.00     0.000 C 
BRANCH   3   4
ATOM      4  C   UNL     1      90.243  75.675  77.109  1.00  0.00    -0.000 C 
BRANCH   4   5
ATOM      5  C   UNL     1      90.310  76.841  76.082  1.00  0.00    -0.000 C 
BRANCH   5   6
ATOM      6  C   UNL     1      91.370  77.910  76.463  1.00  0.00    -0.003 C 
ATOM      7  C   UNL     1      92.707  77.725  75.712  1.00  0.00     0.004 C 
ENDBRANCH   5   6
ENDBRANCH   4   5
ENDBRANCH   3   4
ENDBRANCH   2   3
ENDBRANCH   1   2
BRANCH   1   8
ATOM      8  C   UNL     1      91.159  74.141  81.937  1.00  0.00     0.100 C 
BRANCH   8   9
ATOM      9  C   UNL     1      90.572  74.707  83.175  1.00  0.00     0.220 C 
ATOM     10  O   UNL     1      90.404  73.945  84.157  1.00  0.00    -0.275 OA
ATOM     11  N   UNL     1      90.251  76.032  83.248  1.00  0.00    -0.352 N 
ATOM     12  H   UNL     1      90.345  76.533  82.376  1.00  0.00     0.163 HD
BRANCH  11  13
ATOM     13  C   UNL     1      89.813  76.723  84.422  1.00  0.00     0.151 C 
BRANCH  13  14
ATOM     14  C   UNL     1      89.918  78.203  84.323  1.00  0.00    -0.025 A 
ATOM     15  C   UNL     1      88.755  78.989  84.136  1.00  0.00     0.056 A 
ATOM     16  C   UNL     1      91.172  78.851  84.410  1.00  0.00     0.009 A 
ATOM     17  C   UNL     1      88.838  80.398  84.057  1.00  0.00     0.160 A 
ATOM     18  C   UNL     1      91.260  80.252  84.333  1.00  0.00     0.050 A 
ATOM     19  C   UNL     1      90.099  81.028  84.150  1.00  0.00     0.157 A 
BRANCH  17  20
ATOM     20  O   UNL     1      87.715  81.155  83.833  1.00  0.00    -0.493 OA
ATOM     21  C   UNL     1      86.933  80.728  82.704  1.00  0.00     0.278 C 
ENDBRANCH  17  20
BRANCH  19  22
ATOM     22  O   UNL     1      90.198  82.378  84.050  1.00  0.00    -0.504 OA
ATOM     23  H   UNL     1      90.497  82.740  84.887  1.00  0.00     0.293 HD
ENDBRANCH  19  22
ENDBRANCH  13  14
ENDBRANCH  11  13
ENDBRANCH   8   9
ENDBRANCH   1   8
TORSDOF 11
ENDMDL
MODEL 4
REMARK VINA RESULT:    -5.916     23.577     25.242
REMARK INTER + INTRA:         -10.285
REMARK INTER:                  -9.735
REMARK INTRA:                  -0.550
REMARK UNBOUND:                -0.737
REMARK SMILES CCCCCCCCC(=O)NCc1ccc(O)c(OC)c1
REMARK SMILES IDX 7 1 6 2 5 3 4 4 3 5 2 6 1 7 8 8 9 9 10 10 11 11 12 13 13 14
REMARK SMILES IDX 21 15 14 16 18 17 15 18 16 19 19 20 20 21 17 22
REMARK H PARENT 11 12 17 23
REMARK Flexibility Score: inf
ROOT
ATOM      1  C   UNL     1      97.190  83.462  79.173  1.00  0.00     0.010 C 
ENDROOT
BRANCH   1   2
ATOM      2  C   UNL     1      96.501  83.638  77.789  1.00  0.00     0.001 C 
BRANCH   2   3
ATOM      3  C   UNL     1      97.517  84.005  76.668  1.00  0.00     0.000 C 
BRANCH   3   4
ATOM      4  C   UNL     1      96.862  84.652  75.415  1.00  0.00    -0.000 C 
BRANCH   4   5
ATOM      5  C   UNL     1      97.418  84.076  74.082  1.00  0.00    -0.000 C 
BRANCH   5   6
ATOM      6  C   UNL     1      98.586  84.923  73.508  1.00  0.00    -0.003 C 
ATOM      7  C   UNL     1      99.463  84.137  72.509  1.00  0.00     0.004 C 
ENDBRANCH   5   6
ENDBRANCH   4   5
ENDBRANCH   3   4
ENDBRANCH   2   3
ENDBRANCH   1   2
BRANCH   1   8
ATOM      8  C   UNL     1      97.511  81.985  79.533  1.00  0.00     0.100 C 
BRANCH   8   9
ATOM      9  C   UNL     1      97.245  81.707  80.965  1.00  0.00     0.220 C 
ATOM     10  O   UNL     1      96.812  80.573  81.281  1.00  0.00    -0.275 OA
ATOM     11  N   UNL     1      97.495  82.657  81.914  1.00  0.00    -0.352 N 
ATOM     12  H   UNL     1      97.757  83.558  81.543  1.00  0.00     0.163 HD
BRANCH  11  13
ATOM     13  C   UNL     1      97.414  82.465  83.330  1.00  0.00     0.151 C 
BRANCH  13  14
ATOM     14  C   UNL     1      96.189  83.043  83.946  1.00  0.00    -0.025 A 
ATOM     15  C   UNL     1      94.963  82.338  83.889  1.00  0.00     0.056 A 
ATOM     16  C   UNL     1      96.225  84.300  84.592  1.00  0.00     0.009 A 
ATOM     17  C   UNL     1      93.795  82.867  84.485  1.00  0.00     0.160 A 
ATOM     18  C   UNL     1      95.067  84.831  85.188  1.00  0.00     0.050 A 
ATOM     19  C   UNL     1      93.851  84.123  85.130  1.00  0.00     0.157 A 
BRANCH  17  20
ATOM     20  O   UNL     1      92.598  82.203  84.392  1.00  0.00    -0.493 OA
ATOM     21  C   UNL     1      92.655  80.827  84.808  1.00  0.00     0.278 C 
ENDBRANCH  17  20
BRANCH  19  22
ATOM     22  O   UNL     1      92.732  84.657  85.684  1.00  0.00    -0.504 OA
ATOM     23  H   UNL     1      92.646  85.573  85.411  1.00  0.00     0.293 HD
ENDBRANCH  19  22
ENDBRANCH  13  14
ENDBRANCH  11  13
ENDBRANCH   8   9
ENDBRANCH   1   8
TORSDOF 11
ENDMDL
MODEL 5
REMARK VINA RESULT:    -5.876     27.909     32.942
REMARK INTER + INTRA:         -10.220
REMARK INTER:                  -9.511
REMARK INTRA:                  -0.709
REMARK UNBOUND:                -0.737
REMARK SMILES CCCCCCCCC(=O)NCc1ccc(O)c(OC)c1
REMARK SMILES IDX 7 1 6 2 5 3 4 4 3 5 2 6 1 7 8 8 9 9 10 10 11 11 12 13 13 14
REMARK SMILES IDX 21 15 14 16 18 17 15 18 16 19 19 20 20 21 17 22
REMARK H PARENT 11 12 17 23
REMARK Flexibility Score: inf
ROOT
ATOM      1  C   UNL     1      93.071  95.770  77.748  1.00  0.00     0.010 C 
ENDROOT
BRANCH   1   2
ATOM      2  C   UNL     1      91.914  94.730  77.748  1.00  0.00     0.001 C 
BRANCH   2   3
ATOM      3  C   UNL     1      90.720  95.177  76.854  1.00  0.00     0.000 C 
BRANCH   3   4
ATOM      4  C   UNL     1      89.485  94.235  76.940  1.00  0.00    -0.000 C 
BRANCH   4   5
ATOM      5  C   UNL     1      89.880  92.732  76.993  1.00  0.00    -0.000 C 
BRANCH   5   6
ATOM      6  C   UNL     1      90.096  92.122  75.581  1.00  0.00    -0.003 C 
ATOM      7  C   UNL     1      89.533  90.689  75.454  1.00  0.00     0.004 C 
ENDBRANCH   5   6
ENDBRANCH   4   5
ENDBRANCH   3   4
ENDBRANCH   2   3
ENDBRANCH   1   2
BRANCH   1   8
ATOM      8  C   UNL     1      94.257  95.392  76.816  1.00  0.00     0.100 C 
BRANCH   8   9
ATOM      9  C   UNL     1      94.084  95.969  75.461  1.00  0.00     0.220 C 
ATOM     10  O   UNL     1      93.484  95.287  74.596  1.00  0.00    -0.275 OA
ATOM     11  N   UNL     1      94.543  97.223  75.178  1.00  0.00    -0.352 N 
ATOM     12  H   UNL     1      95.085  97.647  75.917  1.00  0.00     0.163 HD
BRANCH  11  13
ATOM     13  C   UNL     1      94.315  97.941  73.961  1.00  0.00     0.151 C 
BRANCH  13  14
ATOM     14  C   UNL     1      95.411  97.799  72.965  1.00  0.00    -0.025 A 
ATOM     15  C   UNL     1      95.108  97.554  71.604  1.00  0.00     0.056 A 
ATOM     16  C   UNL     1      96.766  97.901  73.355  1.00  0.00     0.009 A 
ATOM     17  C   UNL     1      96.138  97.433  70.642  1.00  0.00     0.160 A 
ATOM     18  C   UNL     1      97.795  97.784  72.403  1.00  0.00     0.050 A 
ATOM     19  C   UNL     1      97.487  97.542  71.051  1.00  0.00     0.157 A 
BRANCH  17  20
ATOM     20  O   UNL     1      95.845  97.154  69.332  1.00  0.00    -0.493 OA
ATOM     21  C   UNL     1      95.306  98.268  68.598  1.00  0.00     0.278 C 
ENDBRANCH  17  20
BRANCH  19  22
ATOM     22  O   UNL     1      98.488  97.403  70.145  1.00  0.00    -0.504 OA
ATOM     23  H   UNL     1      98.480  96.509  69.794  1.00  0.00     0.293 HD
ENDBRANCH  19  22
ENDBRANCH  13  14
ENDBRANCH  11  13
ENDBRANCH   8   9
ENDBRANCH   1   8
TORSDOF 11
ENDMDL
MODEL 6
REMARK VINA RESULT:    -5.835     18.852     21.643
REMARK INTER + INTRA:         -10.154
REMARK INTER:                  -9.306
REMARK INTRA:                  -0.848
REMARK UNBOUND:                -0.737
REMARK SMILES CCCCCCCCC(=O)NCc1ccc(O)c(OC)c1
REMARK SMILES IDX 7 1 6 2 5 3 4 4 3 5 2 6 1 7 8 8 9 9 10 10 11 11 12 13 13 14
REMARK SMILES IDX 21 15 14 16 18 17 15 18 16 19 19 20 20 21 17 22
REMARK H PARENT 11 12 17 23
REMARK Flexibility Score: inf
ROOT
ATOM      1  C   UNL     1      91.158  77.656  83.882  1.00  0.00     0.010 C 
ENDROOT
BRANCH   1   2
ATOM      2  C   UNL     1      91.467  76.227  83.348  1.00  0.00     0.001 C 
BRANCH   2   3
ATOM      3  C   UNL     1      90.623  75.134  84.068  1.00  0.00     0.000 C 
BRANCH   3   4
ATOM      4  C   UNL     1      91.094  73.682  83.771  1.00  0.00    -0.000 C 
BRANCH   4   5
ATOM      5  C   UNL     1      92.045  73.124  84.869  1.00  0.00    -0.000 C 
BRANCH   5   6
ATOM      6  C   UNL     1      93.543  73.353  84.532  1.00  0.00    -0.003 C 
ATOM      7  C   UNL     1      94.151  74.553  85.290  1.00  0.00     0.004 C 
ENDBRANCH   5   6
ENDBRANCH   4   5
ENDBRANCH   3   4
ENDBRANCH   2   3
ENDBRANCH   1   2
BRANCH   1   8
ATOM      8  C   UNL     1      92.421  78.457  84.304  1.00  0.00     0.100 C 
BRANCH   8   9
ATOM      9  C   UNL     1      92.071  79.836  84.721  1.00  0.00     0.220 C 
ATOM     10  O   UNL     1      92.968  80.712  84.694  1.00  0.00    -0.275 OA
ATOM     11  N   UNL     1      90.795  80.145  85.097  1.00  0.00    -0.352 N 
ATOM     12  H   UNL     1      90.176  79.350  85.167  1.00  0.00     0.163 HD
BRANCH  11  13
ATOM     13  C   UNL     1      90.302  81.457  85.383  1.00  0.00     0.151 C 
BRANCH  13  14
ATOM     14  C   UNL     1      89.022  81.781  84.699  1.00  0.00    -0.025 A 
ATOM     15  C   UNL     1      88.307  82.953  85.043  1.00  0.00     0.056 A 
ATOM     16  C   UNL     1      88.495  80.929  83.701  1.00  0.00     0.009 A 
ATOM     17  C   UNL     1      87.097  83.283  84.389  1.00  0.00     0.160 A 
ATOM     18  C   UNL     1      87.293  81.251  83.047  1.00  0.00     0.050 A 
ATOM     19  C   UNL     1      86.588  82.421  83.392  1.00  0.00     0.157 A 
BRANCH  17  20
ATOM     20  O   UNL     1      86.384  84.397  84.754  1.00  0.00    -0.493 OA
ATOM     21  C   UNL     1      86.068  84.461  86.156  1.00  0.00     0.278 C 
ENDBRANCH  17  20
BRANCH  19  22
ATOM     22  O   UNL     1      85.415  82.709  82.774  1.00  0.00    -0.504 OA
ATOM     23  H   UNL     1      85.160  83.613  82.976  1.00  0.00     0.293 HD
ENDBRANCH  19  22
ENDBRANCH  13  14
ENDBRANCH  11  13
ENDBRANCH   8   9
ENDBRANCH   1   8
TORSDOF 11
ENDMDL
MODEL 7
REMARK VINA RESULT:    -5.634     22.840     24.956
REMARK INTER + INTRA:          -9.829
REMARK INTER:                  -8.966
REMARK INTRA:                  -0.863
REMARK UNBOUND:                -0.737
REMARK SMILES CCCCCCCCC(=O)NCc1ccc(O)c(OC)c1
REMARK SMILES IDX 7 1 6 2 5 3 4 4 3 5 2 6 1 7 8 8 9 9 10 10 11 11 12 13 13 14
REMARK SMILES IDX 21 15 14 16 18 17 15 18 16 19 19 20 20 21 17 22
REMARK H PARENT 11 12 17 23
REMARK Flexibility Score: inf
ROOT
ATOM      1  C   UNL     1      96.088  82.875  83.609  1.00  0.00     0.010 C 
ENDROOT
BRANCH   1   2
ATOM      2  C   UNL     1      94.775  83.339  84.302  1.00  0.00     0.001 C 
BRANCH   2   3
ATOM      3  C   UNL     1      94.478  82.533  85.601  1.00  0.00     0.000 C 
BRANCH   3   4
ATOM      4  C   UNL     1      92.966  82.256  85.835  1.00  0.00    -0.000 C 
BRANCH   4   5
ATOM      5  C   UNL     1      92.182  82.043  84.508  1.00  0.00    -0.000 C 
BRANCH   5   6
ATOM      6  C   UNL     1      91.865  80.548  84.237  1.00  0.00    -0.003 C 
ATOM      7  C   UNL     1      92.244  79.630  85.420  1.00  0.00     0.004 C 
ENDBRANCH   5   6
ENDBRANCH   4   5
ENDBRANCH   3   4
ENDBRANCH   2   3
ENDBRANCH   1   2
BRANCH   1   8
ATOM      8  C   UNL     1      95.967  81.506  82.883  1.00  0.00     0.100 C 
BRANCH   8   9
ATOM      9  C   UNL     1      96.961  81.385  81.790  1.00  0.00     0.220 C 
ATOM     10  O   UNL     1      97.078  80.278  81.211  1.00  0.00    -0.275 OA
ATOM     11  N   UNL     1      97.708  82.462  81.408  1.00  0.00    -0.352 N 
ATOM     12  H   UNL     1      97.598  83.276  81.996  1.00  0.00     0.163 HD
BRANCH  11  13
ATOM     13  C   UNL     1      98.593  82.511  80.284  1.00  0.00     0.151 C 
BRANCH  13  14
ATOM     14  C   UNL     1      97.965  83.048  79.048  1.00  0.00    -0.025 A 
ATOM     15  C   UNL     1      98.674  83.032  77.823  1.00  0.00     0.056 A 
ATOM     16  C   UNL     1      96.657  83.587  79.072  1.00  0.00     0.009 A 
ATOM     17  C   UNL     1      98.084  83.523  76.637  1.00  0.00     0.160 A 
ATOM     18  C   UNL     1      96.064  84.076  77.895  1.00  0.00     0.050 A 
ATOM     19  C   UNL     1      96.775  84.054  76.679  1.00  0.00     0.157 A 
BRANCH  17  20
ATOM     20  O   UNL     1      98.789  83.545  75.459  1.00  0.00    -0.493 OA
ATOM     21  C   UNL     1     100.201  83.319  75.615  1.00  0.00     0.278 C 
ENDBRANCH  17  20
BRANCH  19  22
ATOM     22  O   UNL     1      96.204  84.554  75.554  1.00  0.00    -0.504 OA
ATOM     23  H   UNL     1      96.885  84.734  74.902  1.00  0.00     0.293 HD
ENDBRANCH  19  22
ENDBRANCH  13  14
ENDBRANCH  11  13
ENDBRANCH   8   9
ENDBRANCH   1   8
TORSDOF 11
ENDMDL
MODEL 8
REMARK VINA RESULT:    -5.496     28.280     33.288
REMARK INTER + INTRA:          -9.607
REMARK INTER:                  -9.021
REMARK INTRA:                  -0.586
REMARK UNBOUND:                -0.737
REMARK SMILES CCCCCCCCC(=O)NCc1ccc(O)c(OC)c1
REMARK SMILES IDX 7 1 6 2 5 3 4 4 3 5 2 6 1 7 8 8 9 9 10 10 11 11 12 13 13 14
REMARK SMILES IDX 21 15 14 16 18 17 15 18 16 19 19 20 20 21 17 22
REMARK H PARENT 11 12 17 23
REMARK Flexibility Score: inf
ROOT
ATOM      1  C   UNL     1      92.971  96.312  77.385  1.00  0.00     0.010 C 
ENDROOT
BRANCH   1   2
ATOM      2  C   UNL     1      91.964  95.141  77.576  1.00  0.00     0.001 C 
BRANCH   2   3
ATOM      3  C   UNL     1      90.683  95.319  76.710  1.00  0.00     0.000 C 
BRANCH   3   4
ATOM      4  C   UNL     1      89.581  94.259  76.995  1.00  0.00    -0.000 C 
BRANCH   4   5
ATOM      5  C   UNL     1      90.121  92.802  76.938  1.00  0.00    -0.000 C 
BRANCH   5   6
ATOM      6  C   UNL     1      90.027  92.187  75.516  1.00  0.00    -0.003 C 
ATOM      7  C   UNL     1      89.551  90.718  75.527  1.00  0.00     0.004 C 
ENDBRANCH   5   6
ENDBRANCH   4   5
ENDBRANCH   3   4
ENDBRANCH   2   3
ENDBRANCH   1   2
BRANCH   1   8
ATOM      8  C   UNL     1      94.268  95.910  76.628  1.00  0.00     0.100 C 
BRANCH   8   9
ATOM      9  C   UNL     1      94.117  96.093  75.164  1.00  0.00     0.220 C 
ATOM     10  O   UNL     1      93.453  95.243  74.524  1.00  0.00    -0.275 OA
ATOM     11  N   UNL     1      94.664  97.177  74.541  1.00  0.00    -0.352 N 
ATOM     12  H   UNL     1      95.248  97.749  75.133  1.00  0.00     0.163 HD
BRANCH  11  13
ATOM     13  C   UNL     1      94.471  97.539  73.170  1.00  0.00     0.151 C 
BRANCH  13  14
ATOM     14  C   UNL     1      95.733  97.625  72.387  1.00  0.00    -0.025 A 
ATOM     15  C   UNL     1      96.919  98.100  72.998  1.00  0.00     0.056 A 
ATOM     16  C   UNL     1      95.773  97.240  71.027  1.00  0.00     0.009 A 
ATOM     17  C   UNL     1      98.130  98.171  72.271  1.00  0.00     0.160 A 
ATOM     18  C   UNL     1      96.975  97.307  70.300  1.00  0.00     0.050 A 
ATOM     19  C   UNL     1      98.151  97.779  70.914  1.00  0.00     0.157 A 
BRANCH  17  20
ATOM     20  O   UNL     1      99.268  98.672  72.852  1.00  0.00    -0.493 OA
ATOM     21  C   UNL     1      99.536  98.152  74.166  1.00  0.00     0.278 C 
ENDBRANCH  17  20
BRANCH  19  22
ATOM     22  O   UNL     1      99.299  97.866  70.196  1.00  0.00    -0.504 OA
ATOM     23  H   UNL     1      99.559  98.787  70.119  1.00  0.00     0.293 HD
ENDBRANCH  19  22
ENDBRANCH  13  14
ENDBRANCH  11  13
ENDBRANCH   8   9
ENDBRANCH   1   8
TORSDOF 11
ENDMDL
MODEL 9
REMARK VINA RESULT:    -5.380     20.470     22.369
REMARK INTER + INTRA:          -9.419
REMARK INTER:                  -8.636
REMARK INTRA:                  -0.783
REMARK UNBOUND:                -0.737
REMARK SMILES CCCCCCCCC(=O)NCc1ccc(O)c(OC)c1
REMARK SMILES IDX 7 1 6 2 5 3 4 4 3 5 2 6 1 7 8 8 9 9 10 10 11 11 12 13 13 14
REMARK SMILES IDX 21 15 14 16 18 17 15 18 16 19 19 20 20 21 17 22
REMARK H PARENT 11 12 17 23
REMARK Flexibility Score: inf
ROOT
ATOM      1  C   UNL     1      77.167  84.392  66.219  1.00  0.00     0.010 C 
ENDROOT
BRANCH   1   2
ATOM      2  C   UNL     1      76.469  83.163  65.567  1.00  0.00     0.001 C 
BRANCH   2   3
ATOM      3  C   UNL     1      76.005  83.454  64.109  1.00  0.00     0.000 C 
BRANCH   3   4
ATOM      4  C   UNL     1      74.461  83.527  63.946  1.00  0.00    -0.000 C 
BRANCH   4   5
ATOM      5  C   UNL     1      73.700  83.029  65.208  1.00  0.00    -0.000 C 
BRANCH   5   6
ATOM      6  C   UNL     1      72.590  81.998  64.867  1.00  0.00    -0.003 C 
ATOM      7  C   UNL     1      72.224  81.985  63.367  1.00  0.00     0.004 C 
ENDBRANCH   5   6
ENDBRANCH   4   5
ENDBRANCH   3   4
ENDBRANCH   2   3
ENDBRANCH   1   2
BRANCH   1   8
ATOM      8  C   UNL     1      76.914  84.522  67.747  1.00  0.00     0.100 C 
BRANCH   8   9
ATOM      9  C   UNL     1      77.173  85.903  68.222  1.00  0.00     0.220 C 
ATOM     10  O   UNL     1      77.346  86.087  69.450  1.00  0.00    -0.275 OA
ATOM     11  N   UNL     1      77.247  86.938  67.335  1.00  0.00    -0.352 N 
ATOM     12  H   UNL     1      77.006  86.694  66.386  1.00  0.00     0.163 HD
BRANCH  11  13
ATOM     13  C   UNL     1      77.627  88.282  67.649  1.00  0.00     0.151 C 
BRANCH  13  14
ATOM     14  C   UNL     1      76.477  89.212  67.805  1.00  0.00    -0.025 A 
ATOM     15  C   UNL     1      75.936  89.468  69.088  1.00  0.00     0.056 A 
ATOM     16  C   UNL     1      75.902  89.850  66.682  1.00  0.00     0.009 A 
ATOM     17  C   UNL     1      74.854  90.363  69.253  1.00  0.00     0.160 A 
ATOM     18  C   UNL     1      74.826  90.742  66.840  1.00  0.00     0.050 A 
ATOM     19  C   UNL     1      74.295  90.995  68.119  1.00  0.00     0.157 A 
BRANCH  17  20
ATOM     20  O   UNL     1      74.305  90.578  70.492  1.00  0.00    -0.493 OA
ATOM     21  C   UNL     1      73.296  89.622  70.862  1.00  0.00     0.278 C 
ENDBRANCH  17  20
BRANCH  19  22
ATOM     22  O   UNL     1      73.239  91.836  68.258  1.00  0.00    -0.504 OA
ATOM     23  H   UNL     1      73.305  92.297  69.098  1.00  0.00     0.293 HD
ENDBRANCH  19  22
ENDBRANCH  13  14
ENDBRANCH  11  13
ENDBRANCH   8   9
ENDBRANCH   1   8
TORSDOF 11
ENDMDL
MODEL 10
REMARK VINA RESULT:    -5.235     19.773     22.339
REMARK INTER + INTRA:          -9.186
REMARK INTER:                  -8.500
REMARK INTRA:                  -0.686
REMARK UNBOUND:                -0.737
REMARK SMILES CCCCCCCCC(=O)NCc1ccc(O)c(OC)c1
REMARK SMILES IDX 7 1 6 2 5 3 4 4 3 5 2 6 1 7 8 8 9 9 10 10 11 11 12 13 13 14
REMARK SMILES IDX 21 15 14 16 18 17 15 18 16 19 19 20 20 21 17 22
REMARK H PARENT 11 12 17 23
REMARK Flexibility Score: inf
ROOT
ATOM      1  C   UNL     1      92.178  77.095  83.316  1.00  0.00     0.010 C 
ENDROOT
BRANCH   1   2
ATOM      2  C   UNL     1      90.888  76.605  84.035  1.00  0.00     0.001 C 
BRANCH   2   3
ATOM      3  C   UNL     1      89.942  77.782  84.414  1.00  0.00     0.000 C 
BRANCH   3   4
ATOM      4  C   UNL     1      90.600  79.184  84.278  1.00  0.00    -0.000 C 
BRANCH   4   5
ATOM      5  C   UNL     1      89.569  80.303  83.957  1.00  0.00    -0.000 C 
BRANCH   5   6
ATOM      6  C   UNL     1      88.104  79.790  83.987  1.00  0.00    -0.003 C 
ATOM      7  C   UNL     1      87.234  80.390  82.860  1.00  0.00     0.004 C 
ENDBRANCH   5   6
ENDBRANCH   4   5
ENDBRANCH   3   4
ENDBRANCH   2   3
ENDBRANCH   1   2
BRANCH   1   8
ATOM      8  C   UNL     1      93.493  76.559  83.949  1.00  0.00     0.100 C 
BRANCH   8   9
ATOM      9  C   UNL     1      94.679  76.975  83.163  1.00  0.00     0.220 C 
ATOM     10  O   UNL     1      95.015  76.276  82.177  1.00  0.00    -0.275 OA
ATOM     11  N   UNL     1      95.366  78.108  83.491  1.00  0.00    -0.352 N 
ATOM     12  H   UNL     1      95.065  78.545  84.350  1.00  0.00     0.163 HD
BRANCH  11  13
ATOM     13  C   UNL     1      96.433  78.688  82.734  1.00  0.00     0.151 C 
BRANCH  13  14
ATOM     14  C   UNL     1      96.407  80.175  82.700  1.00  0.00    -0.025 A 
ATOM     15  C   UNL     1      97.067  80.876  81.662  1.00  0.00     0.056 A 
ATOM     16  C   UNL     1      95.731  80.913  83.699  1.00  0.00     0.009 A 
ATOM     17  C   UNL     1      97.037  82.289  81.608  1.00  0.00     0.160 A 
ATOM     18  C   UNL     1      95.696  82.318  83.650  1.00  0.00     0.050 A 
ATOM     19  C   UNL     1      96.352  83.009  82.613  1.00  0.00     0.157 A 
BRANCH  17  20
ATOM     20  O   UNL     1      97.712  82.967  80.625  1.00  0.00    -0.493 OA
ATOM     21  C   UNL     1      96.955  83.164  79.418  1.00  0.00     0.278 C 
ENDBRANCH  17  20
BRANCH  19  22
ATOM     22  O   UNL     1      96.336  84.366  82.590  1.00  0.00    -0.504 OA
ATOM     23  H   UNL     1      96.345  84.702  83.489  1.00  0.00     0.293 HD
ENDBRANCH  19  22
ENDBRANCH  13  14
ENDBRANCH  11  13
ENDBRANCH   8   9
ENDBRANCH   1   8
TORSDOF 11
ENDMDL
