MODEL 1
REMARK VINA RESULT:    -5.620      0.000      0.000
REMARK INTER + INTRA:         -10.345
REMARK INTER:                  -9.234
REMARK INTRA:                  -1.111
REMARK UNBOUND:                -1.111
REMARK SMILES CCCCC[C@H](O)CC(=O)CCc1ccc(O)c(OC)c1
REMARK SMILES IDX 8 1 6 2 7 3 5 5 4 6 3 7 2 8 1 9 9 10 10 11 11 12 12 13 13 14
REMARK SMILES IDX 21 15 14 16 18 17 15 18 16 19 19 20 20 21 17 22
REMARK H PARENT 7 4 17 23
REMARK Flexibility Score: inf
ROOT
ATOM      1  C   UNL     1      75.708  83.819  65.402  1.00  0.00     0.107 C 
ENDROOT
BRANCH   1   2
ATOM      2  C   UNL     1      75.419  82.365  65.021  1.00  0.00     0.121 C 
BRANCH   2   3
ATOM      3  O   UNL     1      76.605  81.586  65.154  1.00  0.00    -0.393 OA
ATOM      4  H   UNL     1      76.517  80.808  64.577  1.00  0.00     0.210 HD
ENDBRANCH   2   3
BRANCH   2   5
ATOM      5  C   UNL     1      74.304  81.735  65.864  1.00  0.00     0.032 C 
BRANCH   5   6
ATOM      6  C   UNL     1      72.957  81.735  65.130  1.00  0.00     0.003 C 
BRANCH   6   7
ATOM      7  C   UNL     1      73.096  81.662  63.606  1.00  0.00    -0.000 C 
BRANCH   7   8
ATOM      8  C   UNL     1      72.052  80.770  62.938  1.00  0.00    -0.003 C 
ATOM      9  C   UNL     1      71.016  80.283  63.940  1.00  0.00     0.004 C 
ENDBRANCH   7   8
ENDBRANCH   6   7
ENDBRANCH   5   6
ENDBRANCH   2   5
ENDBRANCH   1   2
BRANCH   1  10
ATOM     10  C   UNL     1      76.733  83.951  66.517  1.00  0.00     0.135 C 
ATOM     11  O   UNL     1      77.935  83.817  66.290  1.00  0.00    -0.300 OA
BRANCH  10  12
ATOM     12  C   UNL     1      76.198  84.298  67.898  1.00  0.00     0.080 C 
BRANCH  12  13
ATOM     13  C   UNL     1      77.041  85.336  68.641  1.00  0.00     0.043 C 
BRANCH  13  14
ATOM     14  C   UNL     1      76.703  86.757  68.259  1.00  0.00    -0.044 A 
ATOM     15  C   UNL     1      75.478  87.308  68.634  1.00  0.00     0.054 A 
ATOM     16  C   UNL     1      77.617  87.519  67.530  1.00  0.00     0.008 A 
ATOM     17  C   UNL     1      75.167  88.622  68.281  1.00  0.00     0.160 A 
ATOM     18  C   UNL     1      77.306  88.832  67.177  1.00  0.00     0.050 A 
ATOM     19  C   UNL     1      76.081  89.383  67.552  1.00  0.00     0.157 A 
BRANCH  17  20
ATOM     20  O   UNL     1      73.967  89.149  68.652  1.00  0.00    -0.493 OA
ATOM     21  C   UNL     1      72.797  88.556  68.092  1.00  0.00     0.278 C 
ENDBRANCH  17  20
BRANCH  19  22
ATOM     22  O   UNL     1      75.789  90.667  67.202  1.00  0.00    -0.504 OA
ATOM     23  H   UNL     1      76.324  90.913  66.428  1.00  0.00     0.293 HD
ENDBRANCH  19  22
ENDBRANCH  13  14
ENDBRANCH  12  13
ENDBRANCH  10  12
ENDBRANCH   1  10
TORSDOF 12
ENDMDL
MODEL 2
REMARK VINA RESULT:    -5.509      1.546      2.236
REMARK INTER + INTRA:         -10.162
REMARK INTER:                  -9.199
REMARK INTRA:                  -0.964
REMARK UNBOUND:                -1.111
REMARK SMILES CCCCC[C@H](O)CC(=O)CCc1ccc(O)c(OC)c1
REMARK SMILES IDX 8 1 6 2 7 3 5 5 4 6 3 7 2 8 1 9 9 10 10 11 11 12 12 13 13 14
REMARK SMILES IDX 21 15 14 16 18 17 15 18 16 19 19 20 20 21 17 22
REMARK H PARENT 7 4 17 23
REMARK Flexibility Score: inf
ROOT
ATOM      1  C   UNL     1      76.612  84.978  65.321  1.00  0.00     0.107 C 
ENDROOT
BRANCH   1   2
ATOM      2  C   UNL     1      75.312  84.185  65.174  1.00  0.00     0.121 C 
BRANCH   2   3
ATOM      3  O   UNL     1      74.291  85.025  64.639  1.00  0.00    -0.393 OA
ATOM      4  H   UNL     1      73.497  84.916  65.191  1.00  0.00     0.210 HD
ENDBRANCH   2   3
BRANCH   2   5
ATOM      5  C   UNL     1      75.462  82.945  64.284  1.00  0.00     0.032 C 
BRANCH   5   6
ATOM      6  C   UNL     1      75.324  81.643  65.083  1.00  0.00     0.003 C 
BRANCH   6   7
ATOM      7  C   UNL     1      73.959  81.490  65.762  1.00  0.00    -0.000 C 
BRANCH   7   8
ATOM      8  C   UNL     1      72.825  81.171  64.790  1.00  0.00    -0.003 C 
ATOM      9  C   UNL     1      71.496  81.714  65.292  1.00  0.00     0.004 C 
ENDBRANCH   7   8
ENDBRANCH   6   7
ENDBRANCH   5   6
ENDBRANCH   2   5
ENDBRANCH   1   2
BRANCH   1  10
ATOM     10  C   UNL     1      77.386  84.626  66.581  1.00  0.00     0.135 C 
ATOM     11  O   UNL     1      78.035  83.583  66.654  1.00  0.00    -0.300 OA
BRANCH  10  12
ATOM     12  C   UNL     1      77.348  85.642  67.712  1.00  0.00     0.080 C 
BRANCH  12  13
ATOM     13  C   UNL     1      77.282  87.093  67.232  1.00  0.00     0.043 C 
BRANCH  13  14
ATOM     14  C   UNL     1      76.175  87.884  67.889  1.00  0.00    -0.044 A 
ATOM     15  C   UNL     1      74.931  87.293  68.109  1.00  0.00     0.054 A 
ATOM     16  C   UNL     1      76.398  89.206  68.275  1.00  0.00     0.008 A 
ATOM     17  C   UNL     1      73.910  88.025  68.716  1.00  0.00     0.160 A 
ATOM     18  C   UNL     1      75.377  89.938  68.882  1.00  0.00     0.050 A 
ATOM     19  C   UNL     1      74.133  89.347  69.102  1.00  0.00     0.157 A 
BRANCH  17  20
ATOM     20  O   UNL     1      72.699  87.437  68.926  1.00  0.00    -0.493 OA
ATOM     21  C   UNL     1      72.573  86.064  68.560  1.00  0.00     0.278 C 
ENDBRANCH  17  20
BRANCH  19  22
ATOM     22  O   UNL     1      73.144  90.071  69.696  1.00  0.00    -0.504 OA
ATOM     23  H   UNL     1      72.404  89.478  69.914  1.00  0.00     0.293 HD
ENDBRANCH  19  22
ENDBRANCH  13  14
ENDBRANCH  12  13
ENDBRANCH  10  12
ENDBRANCH   1  10
TORSDOF 12
ENDMDL
MODEL 3
REMARK VINA RESULT:    -5.423     19.511     21.873
REMARK INTER + INTRA:         -10.020
REMARK INTER:                  -8.505
REMARK INTRA:                  -1.515
REMARK UNBOUND:                -1.111
REMARK SMILES CCCCC[C@H](O)CC(=O)CCc1ccc(O)c(OC)c1
REMARK SMILES IDX 8 1 6 2 7 3 5 5 4 6 3 7 2 8 1 9 9 10 10 11 11 12 12 13 13 14
REMARK SMILES IDX 21 15 14 16 18 17 15 18 16 19 19 20 20 21 17 22
REMARK H PARENT 7 4 17 23
REMARK Flexibility Score: inf
ROOT
ATOM      1  C   UNL     1      89.887  98.287  70.188  1.00  0.00     0.107 C 
ENDROOT
BRANCH   1   2
ATOM      2  C   UNL     1      90.241  99.763  70.387  1.00  0.00     0.121 C 
BRANCH   2   3
ATOM      3  O   UNL     1      89.364 100.345  71.349  1.00  0.00    -0.393 OA
ATOM      4  H   UNL     1      89.792 101.147  71.695  1.00  0.00     0.210 HD
ENDBRANCH   2   3
BRANCH   2   5
ATOM      5  C   UNL     1      91.693  99.978  70.833  1.00  0.00     0.032 C 
BRANCH   5   6
ATOM      6  C   UNL     1      92.606 100.353  69.660  1.00  0.00     0.003 C 
BRANCH   6   7
ATOM      7  C   UNL     1      91.877 101.098  68.537  1.00  0.00    -0.000 C 
BRANCH   7   8
ATOM      8  C   UNL     1      92.815 101.715  67.502  1.00  0.00    -0.003 C 
ATOM      9  C   UNL     1      92.332 101.444  66.085  1.00  0.00     0.004 C 
ENDBRANCH   7   8
ENDBRANCH   6   7
ENDBRANCH   5   6
ENDBRANCH   2   5
ENDBRANCH   1   2
BRANCH   1  10
ATOM     10  C   UNL     1      89.860  97.873  68.726  1.00  0.00     0.135 C 
ATOM     11  O   UNL     1      90.706  97.104  68.270  1.00  0.00    -0.300 OA
BRANCH  10  12
ATOM     12  C   UNL     1      88.718  98.420  67.884  1.00  0.00     0.080 C 
BRANCH  12  13
ATOM     13  C   UNL     1      89.177  99.311  66.728  1.00  0.00     0.043 C 
BRANCH  13  14
ATOM     14  C   UNL     1      88.279 100.505  66.508  1.00  0.00    -0.044 A 
ATOM     15  C   UNL     1      88.820 101.791  66.490  1.00  0.00     0.054 A 
ATOM     16  C   UNL     1      86.908 100.321  66.323  1.00  0.00     0.008 A 
ATOM     17  C   UNL     1      87.989 102.893  66.285  1.00  0.00     0.160 A 
ATOM     18  C   UNL     1      86.078 101.424  66.119  1.00  0.00     0.050 A 
ATOM     19  C   UNL     1      86.618 102.709  66.100  1.00  0.00     0.157 A 
BRANCH  17  20
ATOM     20  O   UNL     1      88.528 104.144  66.270  1.00  0.00    -0.493 OA
ATOM     21  C   UNL     1      89.886 104.270  66.690  1.00  0.00     0.278 C 
ENDBRANCH  17  20
BRANCH  19  22
ATOM     22  O   UNL     1      85.798 103.778  65.900  1.00  0.00    -0.504 OA
ATOM     23  H   UNL     1      85.661 103.898  64.945  1.00  0.00     0.293 HD
ENDBRANCH  19  22
ENDBRANCH  13  14
ENDBRANCH  12  13
ENDBRANCH  10  12
ENDBRANCH   1  10
TORSDOF 12
ENDMDL
MODEL 4
REMARK VINA RESULT:    -5.335     23.498     26.555
REMARK INTER + INTRA:          -9.876
REMARK INTER:                  -9.311
REMARK INTRA:                  -0.565
REMARK UNBOUND:                -1.111
REMARK SMILES CCCCC[C@H](O)CC(=O)CCc1ccc(O)c(OC)c1
REMARK SMILES IDX 8 1 6 2 7 3 5 5 4 6 3 7 2 8 1 9 9 10 10 11 11 12 12 13 13 14
REMARK SMILES IDX 21 15 14 16 18 17 15 18 16 19 19 20 20 21 17 22
REMARK H PARENT 7 4 17 23
REMARK Flexibility Score: inf
ROOT
ATOM      1  C   UNL     1      96.708  81.741  81.926  1.00  0.00     0.107 C 
ENDROOT
BRANCH   1   2
ATOM      2  C   UNL     1      97.221  82.390  83.214  1.00  0.00     0.121 C 
BRANCH   2   3
ATOM      3  O   UNL     1      97.210  83.809  83.078  1.00  0.00    -0.393 OA
ATOM      4  H   UNL     1      97.447  84.021  82.158  1.00  0.00     0.210 HD
ENDBRANCH   2   3
BRANCH   2   5
ATOM      5  C   UNL     1      96.405  81.995  84.451  1.00  0.00     0.032 C 
BRANCH   5   6
ATOM      6  C   UNL     1      95.187  82.905  84.652  1.00  0.00     0.003 C 
BRANCH   6   7
ATOM      7  C   UNL     1      95.164  83.593  86.021  1.00  0.00    -0.000 C 
BRANCH   7   8
ATOM      8  C   UNL     1      93.981  84.541  86.210  1.00  0.00    -0.003 C 
ATOM      9  C   UNL     1      92.719  83.783  86.592  1.00  0.00     0.004 C 
ENDBRANCH   7   8
ENDBRANCH   6   7
ENDBRANCH   5   6
ENDBRANCH   2   5
ENDBRANCH   1   2
BRANCH   1  10
ATOM     10  C   UNL     1      97.780  80.958  81.186  1.00  0.00     0.135 C 
ATOM     11  O   UNL     1      98.435  80.086  81.757  1.00  0.00    -0.300 OA
BRANCH  10  12
ATOM     12  C   UNL     1      97.961  81.277  79.709  1.00  0.00     0.080 C 
BRANCH  12  13
ATOM     13  C   UNL     1      96.790  82.048  79.099  1.00  0.00     0.043 C 
BRANCH  13  14
ATOM     14  C   UNL     1      96.931  82.259  77.610  1.00  0.00    -0.044 A 
ATOM     15  C   UNL     1      98.073  81.809  76.947  1.00  0.00     0.054 A 
ATOM     16  C   UNL     1      95.919  82.904  76.898  1.00  0.00     0.008 A 
ATOM     17  C   UNL     1      98.202  82.004  75.572  1.00  0.00     0.160 A 
ATOM     18  C   UNL     1      96.048  83.098  75.523  1.00  0.00     0.050 A 
ATOM     19  C   UNL     1      97.190  82.648  74.860  1.00  0.00     0.157 A 
BRANCH  17  20
ATOM     20  O   UNL     1      99.322  81.561  74.935  1.00  0.00    -0.493 OA
ATOM     21  C   UNL     1      99.420  80.158  74.697  1.00  0.00     0.278 C 
ENDBRANCH  17  20
BRANCH  19  22
ATOM     22  O   UNL     1      97.305  82.844  73.517  1.00  0.00    -0.504 OA
ATOM     23  H   UNL     1      98.040  82.304  73.180  1.00  0.00     0.293 HD
ENDBRANCH  19  22
ENDBRANCH  13  14
ENDBRANCH  12  13
ENDBRANCH  10  12
ENDBRANCH   1  10
TORSDOF 12
ENDMDL
MODEL 5
REMARK VINA RESULT:    -5.208      3.213      4.781
REMARK INTER + INTRA:          -9.667
REMARK INTER:                  -7.202
REMARK INTRA:                  -2.465
REMARK UNBOUND:                -1.111
REMARK SMILES CCCCC[C@H](O)CC(=O)CCc1ccc(O)c(OC)c1
REMARK SMILES IDX 8 1 6 2 7 3 5 5 4 6 3 7 2 8 1 9 9 10 10 11 11 12 12 13 13 14
REMARK SMILES IDX 21 15 14 16 18 17 15 18 16 19 19 20 20 21 17 22
REMARK H PARENT 7 4 17 23
REMARK Flexibility Score: inf
ROOT
ATOM      1  C   UNL     1      75.547  84.532  67.465  1.00  0.00     0.107 C 
ENDROOT
BRANCH   1   2
ATOM      2  C   UNL     1      75.311  84.642  68.973  1.00  0.00     0.121 C 
BRANCH   2   3
ATOM      3  O   UNL     1      76.554  84.830  69.645  1.00  0.00    -0.393 OA
ATOM      4  H   UNL     1      76.808  85.764  69.544  1.00  0.00     0.210 HD
ENDBRANCH   2   3
BRANCH   2   5
ATOM      5  C   UNL     1      74.357  85.782  69.349  1.00  0.00     0.032 C 
BRANCH   5   6
ATOM      6  C   UNL     1      73.339  86.072  68.239  1.00  0.00     0.003 C 
BRANCH   6   7
ATOM      7  C   UNL     1      72.437  87.273  68.542  1.00  0.00    -0.000 C 
BRANCH   7   8
ATOM      8  C   UNL     1      73.130  88.372  69.346  1.00  0.00    -0.003 C 
ATOM      9  C   UNL     1      72.145  89.447  69.778  1.00  0.00     0.004 C 
ENDBRANCH   7   8
ENDBRANCH   6   7
ENDBRANCH   5   6
ENDBRANCH   2   5
ENDBRANCH   1   2
BRANCH   1  10
ATOM     10  C   UNL     1      76.941  84.970  67.046  1.00  0.00     0.135 C 
ATOM     11  O   UNL     1      77.903  84.210  67.156  1.00  0.00    -0.300 OA
BRANCH  10  12
ATOM     12  C   UNL     1      77.067  86.364  66.451  1.00  0.00     0.080 C 
BRANCH  12  13
ATOM     13  C   UNL     1      77.142  87.476  67.500  1.00  0.00     0.043 C 
BRANCH  13  14
ATOM     14  C   UNL     1      76.175  88.605  67.235  1.00  0.00    -0.044 A 
ATOM     15  C   UNL     1      76.200  89.747  68.035  1.00  0.00     0.054 A 
ATOM     16  C   UNL     1      75.256  88.505  66.191  1.00  0.00     0.008 A 
ATOM     17  C   UNL     1      75.307  90.790  67.790  1.00  0.00     0.160 A 
ATOM     18  C   UNL     1      74.362  89.548  65.945  1.00  0.00     0.050 A 
ATOM     19  C   UNL     1      74.388  90.690  66.745  1.00  0.00     0.157 A 
BRANCH  17  20
ATOM     20  O   UNL     1      75.341  91.901  68.578  1.00  0.00    -0.493 OA
ATOM     21  C   UNL     1      75.042  91.723  69.961  1.00  0.00     0.278 C 
ENDBRANCH  17  20
BRANCH  19  22
ATOM     22  O   UNL     1      73.511  91.702  66.495  1.00  0.00    -0.504 OA
ATOM     23  H   UNL     1      74.002  92.473  66.164  1.00  0.00     0.293 HD
ENDBRANCH  19  22
ENDBRANCH  13  14
ENDBRANCH  12  13
ENDBRANCH  10  12
ENDBRANCH   1  10
TORSDOF 12
ENDMDL
MODEL 6
REMARK VINA RESULT:    -5.166     19.640     22.561
REMARK INTER + INTRA:          -9.599
REMARK INTER:                  -7.498
REMARK INTRA:                  -2.101
REMARK UNBOUND:                -1.111
REMARK SMILES CCCCC[C@H](O)CC(=O)CCc1ccc(O)c(OC)c1
REMARK SMILES IDX 8 1 6 2 7 3 5 5 4 6 3 7 2 8 1 9 9 10 10 11 11 12 12 13 13 14
REMARK SMILES IDX 21 15 14 16 18 17 15 18 16 19 19 20 20 21 17 22
REMARK H PARENT 7 4 17 23
REMARK Flexibility Score: inf
ROOT
ATOM      1  C   UNL     1      88.591 104.807  66.451  1.00  0.00     0.107 C 
ENDROOT
BRANCH   1   2
ATOM      2  C   UNL     1      89.028 105.346  67.816  1.00  0.00     0.121 C 
BRANCH   2   3
ATOM      3  O   UNL     1      87.880 105.680  68.594  1.00  0.00    -0.393 OA
ATOM      4  H   UNL     1      87.569 104.867  69.029  1.00  0.00     0.210 HD
ENDBRANCH   2   3
BRANCH   2   5
ATOM      5  C   UNL     1      89.899 104.357  68.601  1.00  0.00     0.032 C 
BRANCH   5   6
ATOM      6  C   UNL     1      90.988 103.727  67.724  1.00  0.00     0.003 C 
BRANCH   6   7
ATOM      7  C   UNL     1      91.251 102.253  68.049  1.00  0.00    -0.000 C 
BRANCH   7   8
ATOM      8  C   UNL     1      92.207 101.572  67.071  1.00  0.00    -0.003 C 
ATOM      9  C   UNL     1      91.508 101.221  65.767  1.00  0.00     0.004 C 
ENDBRANCH   7   8
ENDBRANCH   6   7
ENDBRANCH   5   6
ENDBRANCH   2   5
ENDBRANCH   1   2
BRANCH   1  10
ATOM     10  C   UNL     1      87.544 103.709  66.552  1.00  0.00     0.135 C 
ATOM     11  O   UNL     1      86.387 103.966  66.882  1.00  0.00    -0.300 OA
BRANCH  10  12
ATOM     12  C   UNL     1      87.993 102.303  66.181  1.00  0.00     0.080 C 
BRANCH  12  13
ATOM     13  C   UNL     1      87.260 101.201  66.949  1.00  0.00     0.043 C 
BRANCH  13  14
ATOM     14  C   UNL     1      88.160 100.053  67.339  1.00  0.00    -0.044 A 
ATOM     15  C   UNL     1      88.593  99.922  68.658  1.00  0.00     0.054 A 
ATOM     16  C   UNL     1      88.557  99.122  66.378  1.00  0.00     0.008 A 
ATOM     17  C   UNL     1      89.423  98.859  69.017  1.00  0.00     0.160 A 
ATOM     18  C   UNL     1      89.388  98.060  66.737  1.00  0.00     0.050 A 
ATOM     19  C   UNL     1      89.821  97.929  68.056  1.00  0.00     0.157 A 
BRANCH  17  20
ATOM     20  O   UNL     1      89.840  98.742  70.308  1.00  0.00    -0.493 OA
ATOM     21  C   UNL     1      90.895  99.606  70.730  1.00  0.00     0.278 C 
ENDBRANCH  17  20
BRANCH  19  22
ATOM     22  O   UNL     1      90.631  96.888  68.394  1.00  0.00    -0.504 OA
ATOM     23  H   UNL     1      90.284  96.073  67.994  1.00  0.00     0.293 HD
ENDBRANCH  19  22
ENDBRANCH  13  14
ENDBRANCH  12  13
ENDBRANCH  10  12
ENDBRANCH   1  10
TORSDOF 12
ENDMDL
MODEL 7
REMARK VINA RESULT:    -5.154     12.829     15.588
REMARK INTER + INTRA:          -9.579
REMARK INTER:                  -8.403
REMARK INTRA:                  -1.177
REMARK UNBOUND:                -1.111
REMARK SMILES CCCCC[C@H](O)CC(=O)CCc1ccc(O)c(OC)c1
REMARK SMILES IDX 8 1 6 2 7 3 5 5 4 6 3 7 2 8 1 9 9 10 10 11 11 12 12 13 13 14
REMARK SMILES IDX 21 15 14 16 18 17 15 18 16 19 19 20 20 21 17 22
REMARK H PARENT 7 4 17 23
REMARK Flexibility Score: inf
ROOT
ATOM      1  C   UNL     1      61.414  84.196  73.417  1.00  0.00     0.107 C 
ENDROOT
BRANCH   1   2
ATOM      2  C   UNL     1      60.484  85.062  74.270  1.00  0.00     0.121 C 
BRANCH   2   3
ATOM      3  O   UNL     1      61.212  86.159  74.818  1.00  0.00    -0.393 OA
ATOM      4  H   UNL     1      61.322  85.997  75.771  1.00  0.00     0.210 HD
ENDBRANCH   2   3
BRANCH   2   5
ATOM      5  C   UNL     1      59.277  85.597  73.489  1.00  0.00     0.032 C 
BRANCH   5   6
ATOM      6  C   UNL     1      58.829  84.629  72.387  1.00  0.00     0.003 C 
BRANCH   6   7
ATOM      7  C   UNL     1      57.358  84.797  71.995  1.00  0.00    -0.000 C 
BRANCH   7   8
ATOM      8  C   UNL     1      57.159  85.330  70.577  1.00  0.00    -0.003 C 
ATOM      9  C   UNL     1      57.069  86.848  70.564  1.00  0.00     0.004 C 
ENDBRANCH   7   8
ENDBRANCH   6   7
ENDBRANCH   5   6
ENDBRANCH   2   5
ENDBRANCH   1   2
BRANCH   1  10
ATOM     10  C   UNL     1      62.163  83.150  74.226  1.00  0.00     0.135 C 
ATOM     11  O   UNL     1      62.853  83.473  75.193  1.00  0.00    -0.300 OA
BRANCH  10  12
ATOM     12  C   UNL     1      61.977  81.700  73.806  1.00  0.00     0.080 C 
BRANCH  12  13
ATOM     13  C   UNL     1      63.189  81.109  73.084  1.00  0.00     0.043 C 
BRANCH  13  14
ATOM     14  C   UNL     1      63.346  81.622  71.673  1.00  0.00    -0.044 A 
ATOM     15  C   UNL     1      64.523  82.265  71.291  1.00  0.00     0.054 A 
ATOM     16  C   UNL     1      62.312  81.452  70.750  1.00  0.00     0.008 A 
ATOM     17  C   UNL     1      64.667  82.738  69.986  1.00  0.00     0.160 A 
ATOM     18  C   UNL     1      62.457  81.925  69.446  1.00  0.00     0.050 A 
ATOM     19  C   UNL     1      63.634  82.569  69.064  1.00  0.00     0.157 A 
BRANCH  17  20
ATOM     20  O   UNL     1      65.821  83.366  69.625  1.00  0.00    -0.493 OA
ATOM     21  C   UNL     1      66.346  84.331  70.535  1.00  0.00     0.278 C 
ENDBRANCH  17  20
BRANCH  19  22
ATOM     22  O   UNL     1      63.763  83.026  67.788  1.00  0.00    -0.504 OA
ATOM     23  H   UNL     1      64.647  83.416  67.679  1.00  0.00     0.293 HD
ENDBRANCH  19  22
ENDBRANCH  13  14
ENDBRANCH  12  13
ENDBRANCH  10  12
ENDBRANCH   1  10
TORSDOF 12
ENDMDL
MODEL 8
REMARK VINA RESULT:    -5.141      2.556      6.681
REMARK INTER + INTRA:          -9.557
REMARK INTER:                  -7.566
REMARK INTRA:                  -1.991
REMARK UNBOUND:                -1.111
REMARK SMILES CCCCC[C@H](O)CC(=O)CCc1ccc(O)c(OC)c1
REMARK SMILES IDX 8 1 6 2 7 3 5 5 4 6 3 7 2 8 1 9 9 10 10 11 11 12 12 13 13 14
REMARK SMILES IDX 21 15 14 16 18 17 15 18 16 19 19 20 20 21 17 22
REMARK H PARENT 7 4 17 23
REMARK Flexibility Score: inf
ROOT
ATOM      1  C   UNL     1      76.919  87.032  66.391  1.00  0.00     0.107 C 
ENDROOT
BRANCH   1   2
ATOM      2  C   UNL     1      76.888  87.839  67.692  1.00  0.00     0.121 C 
BRANCH   2   3
ATOM      3  O   UNL     1      76.966  89.232  67.398  1.00  0.00    -0.393 OA
ATOM      4  H   UNL     1      76.549  89.377  66.531  1.00  0.00     0.210 HD
ENDBRANCH   2   3
BRANCH   2   5
ATOM      5  C   UNL     1      75.635  87.571  68.534  1.00  0.00     0.032 C 
BRANCH   5   6
ATOM      6  C   UNL     1      75.554  86.112  68.998  1.00  0.00     0.003 C 
BRANCH   6   7
ATOM      7  C   UNL     1      74.117  85.599  69.137  1.00  0.00    -0.000 C 
BRANCH   7   8
ATOM      8  C   UNL     1      73.087  86.455  68.402  1.00  0.00    -0.003 C 
ATOM      9  C   UNL     1      71.683  85.895  68.565  1.00  0.00     0.004 C 
ENDBRANCH   7   8
ENDBRANCH   6   7
ENDBRANCH   5   6
ENDBRANCH   2   5
ENDBRANCH   1   2
BRANCH   1  10
ATOM     10  C   UNL     1      75.719  87.297  65.497  1.00  0.00     0.135 C 
ATOM     11  O   UNL     1      75.476  88.431  65.084  1.00  0.00    -0.300 OA
BRANCH  10  12
ATOM     12  C   UNL     1      74.876  86.091  65.110  1.00  0.00     0.080 C 
BRANCH  12  13
ATOM     13  C   UNL     1      75.344  84.784  65.752  1.00  0.00     0.043 C 
BRANCH  13  14
ATOM     14  C   UNL     1      74.343  83.662  65.606  1.00  0.00    -0.044 A 
ATOM     15  C   UNL     1      72.988  83.952  65.450  1.00  0.00     0.054 A 
ATOM     16  C   UNL     1      74.776  82.336  65.627  1.00  0.00     0.008 A 
ATOM     17  C   UNL     1      72.065  82.914  65.314  1.00  0.00     0.160 A 
ATOM     18  C   UNL     1      73.853  81.298  65.491  1.00  0.00     0.050 A 
ATOM     19  C   UNL     1      72.497  81.588  65.335  1.00  0.00     0.157 A 
BRANCH  17  20
ATOM     20  O   UNL     1      70.743  83.210  65.163  1.00  0.00    -0.493 OA
ATOM     21  C   UNL     1      69.988  83.428  66.353  1.00  0.00     0.278 C 
ENDBRANCH  17  20
BRANCH  19  22
ATOM     22  O   UNL     1      71.605  80.567  65.204  1.00  0.00    -0.504 OA
ATOM     23  H   UNL     1      70.730  80.871  65.500  1.00  0.00     0.293 HD
ENDBRANCH  19  22
ENDBRANCH  13  14
ENDBRANCH  12  13
ENDBRANCH  10  12
ENDBRANCH   1  10
TORSDOF 12
ENDMDL
MODEL 9
REMARK VINA RESULT:    -4.990      2.626      4.645
REMARK INTER + INTRA:          -9.310
REMARK INTER:                  -7.704
REMARK INTRA:                  -1.606
REMARK UNBOUND:                -1.111
REMARK SMILES CCCCC[C@H](O)CC(=O)CCc1ccc(O)c(OC)c1
REMARK SMILES IDX 8 1 6 2 7 3 5 5 4 6 3 7 2 8 1 9 9 10 10 11 11 12 12 13 13 14
REMARK SMILES IDX 21 15 14 16 18 17 15 18 16 19 19 20 20 21 17 22
REMARK H PARENT 7 4 17 23
REMARK Flexibility Score: inf
ROOT
ATOM      1  C   UNL     1      74.773  85.450  65.610  1.00  0.00     0.107 C 
ENDROOT
BRANCH   1   2
ATOM      2  C   UNL     1      75.667  84.215  65.476  1.00  0.00     0.121 C 
BRANCH   2   3
ATOM      3  O   UNL     1      76.132  84.098  64.133  1.00  0.00    -0.393 OA
ATOM      4  H   UNL     1      77.041  83.751  64.162  1.00  0.00     0.210 HD
ENDBRANCH   2   3
BRANCH   2   5
ATOM      5  C   UNL     1      76.870  84.238  66.426  1.00  0.00     0.032 C 
BRANCH   5   6
ATOM      6  C   UNL     1      77.129  85.639  66.993  1.00  0.00     0.003 C 
BRANCH   6   7
ATOM      7  C   UNL     1      77.190  85.673  68.524  1.00  0.00    -0.000 C 
BRANCH   7   8
ATOM      8  C   UNL     1      76.532  84.465  69.189  1.00  0.00    -0.003 C 
ATOM      9  C   UNL     1      75.236  84.853  69.883  1.00  0.00     0.004 C 
ENDBRANCH   7   8
ENDBRANCH   6   7
ENDBRANCH   5   6
ENDBRANCH   2   5
ENDBRANCH   1   2
BRANCH   1  10
ATOM     10  C   UNL     1      73.388  85.128  66.146  1.00  0.00     0.135 C 
ATOM     11  O   UNL     1      72.984  83.966  66.198  1.00  0.00    -0.300 OA
BRANCH  10  12
ATOM     12  C   UNL     1      72.562  86.301  66.650  1.00  0.00     0.080 C 
BRANCH  12  13
ATOM     13  C   UNL     1      72.597  86.470  68.170  1.00  0.00     0.043 C 
BRANCH  13  14
ATOM     14  C   UNL     1      73.292  87.737  68.609  1.00  0.00    -0.044 A 
ATOM     15  C   UNL     1      74.610  87.979  68.223  1.00  0.00     0.054 A 
ATOM     16  C   UNL     1      72.615  88.665  69.401  1.00  0.00     0.008 A 
ATOM     17  C   UNL     1      75.251  89.150  68.629  1.00  0.00     0.160 A 
ATOM     18  C   UNL     1      73.255  89.836  69.806  1.00  0.00     0.050 A 
ATOM     19  C   UNL     1      74.574  90.078  69.421  1.00  0.00     0.157 A 
BRANCH  17  20
ATOM     20  O   UNL     1      76.539  89.376  68.246  1.00  0.00    -0.493 OA
ATOM     21  C   UNL     1      76.765  89.664  66.868  1.00  0.00     0.278 C 
ENDBRANCH  17  20
BRANCH  19  22
ATOM     22  O   UNL     1      75.189  91.225  69.823  1.00  0.00    -0.504 OA
ATOM     23  H   UNL     1      74.898  91.957  69.252  1.00  0.00     0.293 HD
ENDBRANCH  19  22
ENDBRANCH  13  14
ENDBRANCH  12  13
ENDBRANCH  10  12
ENDBRANCH   1  10
TORSDOF 12
ENDMDL
MODEL 10
REMARK VINA RESULT:    -4.952     11.436     14.639
REMARK INTER + INTRA:          -9.247
REMARK INTER:                  -7.843
REMARK INTRA:                  -1.404
REMARK UNBOUND:                -1.111
REMARK SMILES CCCCC[C@H](O)CC(=O)CCc1ccc(O)c(OC)c1
REMARK SMILES IDX 8 1 6 2 7 3 5 5 4 6 3 7 2 8 1 9 9 10 10 11 11 12 12 13 13 14
REMARK SMILES IDX 21 15 14 16 18 17 15 18 16 19 19 20 20 21 17 22
REMARK H PARENT 7 4 17 23
REMARK Flexibility Score: inf
ROOT
ATOM      1  C   UNL     1      63.290  83.643  75.050  1.00  0.00     0.107 C 
ENDROOT
BRANCH   1   2
ATOM      2  C   UNL     1      64.030  84.796  74.367  1.00  0.00     0.121 C 
BRANCH   2   3
ATOM      3  O   UNL     1      63.388  85.120  73.136  1.00  0.00    -0.393 OA
ATOM      4  H   UNL     1      62.865  85.929  73.278  1.00  0.00     0.210 HD
ENDBRANCH   2   3
BRANCH   2   5
ATOM      5  C   UNL     1      64.117  86.054  75.239  1.00  0.00     0.032 C 
BRANCH   5   6
ATOM      6  C   UNL     1      65.264  86.976  74.808  1.00  0.00     0.003 C 
BRANCH   6   7
ATOM      7  C   UNL     1      66.515  86.216  74.355  1.00  0.00    -0.000 C 
BRANCH   7   8
ATOM      8  C   UNL     1      66.946  86.543  72.926  1.00  0.00    -0.003 C 
ATOM      9  C   UNL     1      67.319  85.285  72.158  1.00  0.00     0.004 C 
ENDBRANCH   7   8
ENDBRANCH   6   7
ENDBRANCH   5   6
ENDBRANCH   2   5
ENDBRANCH   1   2
BRANCH   1  10
ATOM     10  C   UNL     1      61.916  83.382  74.455  1.00  0.00     0.135 C 
ATOM     11  O   UNL     1      61.043  84.250  74.473  1.00  0.00    -0.300 OA
BRANCH  10  12
ATOM     12  C   UNL     1      61.701  82.023  73.807  1.00  0.00     0.080 C 
BRANCH  12  13
ATOM     13  C   UNL     1      62.981  81.399  73.247  1.00  0.00     0.043 C 
BRANCH  13  14
ATOM     14  C   UNL     1      63.231  81.758  71.802  1.00  0.00    -0.044 A 
ATOM     15  C   UNL     1      62.222  82.353  71.046  1.00  0.00     0.054 A 
ATOM     16  C   UNL     1      64.473  81.493  71.223  1.00  0.00     0.008 A 
ATOM     17  C   UNL     1      62.455  82.685  69.711  1.00  0.00     0.160 A 
ATOM     18  C   UNL     1      64.706  81.825  69.888  1.00  0.00     0.050 A 
ATOM     19  C   UNL     1      63.696  82.420  69.132  1.00  0.00     0.157 A 
BRANCH  17  20
ATOM     20  O   UNL     1      61.461  83.266  68.982  1.00  0.00    -0.493 OA
ATOM     21  C   UNL     1      60.828  84.412  69.547  1.00  0.00     0.278 C 
ENDBRANCH  17  20
BRANCH  19  22
ATOM     22  O   UNL     1      63.935  82.739  67.830  1.00  0.00    -0.504 OA
ATOM     23  H   UNL     1      63.092  82.959  67.398  1.00  0.00     0.293 HD
ENDBRANCH  19  22
ENDBRANCH  13  14
ENDBRANCH  12  13
ENDBRANCH  10  12
ENDBRANCH   1  10
TORSDOF 12
ENDMDL
