MODEL 1
REMARK VINA RESULT:    -7.605      0.000      0.000
REMARK INTER + INTRA:         -13.083
REMARK INTER:                 -12.940
REMARK INTRA:                  -0.143
REMARK UNBOUND:                -0.143
REMARK SMILES C=C(C)[C@]12C[C@@H](C)[C@@]34O[C@](Cc5ccccc5)(O[C@@H]1[C@@H]3C=C(COC(=O)Cc1ccc(O)cc1)C[C@]1(O)C(=O)C(C)=C[C@@H]41)O2
REMARK SMILES IDX 23 1 22 2 21 3 20 4 9 5 8 6 10 7 6 8 18 10 44 11 19 12 5 13
REMARK SMILES IDX 7 14 4 15 11 16 12 17 13 18 17 19 14 20 16 21 15 22 2 23
REMARK SMILES IDX 3 24 1 25 35 26 36 27 43 28 38 29 42 30 39 32 40 33 41 34
REMARK SMILES IDX 37 35 24 37 25 38 26 39 27 40 28 41 29 42 34 43 30 44 33 45
REMARK SMILES IDX 31 46 32 47
REMARK H PARENT 37 36 32 48
REMARK Flexibility Score: 90.00
ROOT
ATOM      1  C   UNL     1      97.698  83.231  83.425  1.00  0.00     0.264 C 
ENDROOT
BRANCH   1   2
ATOM      2  C   UNL     1      97.521  83.396  84.917  1.00  0.00    -0.033 C 
ATOM      3  C   UNL     1      96.358  83.021  85.488  1.00  0.00    -0.015 C 
BRANCH   3   4
ATOM      4  C   UNL     1      95.907  83.150  86.934  1.00  0.00     0.078 C 
ATOM      5  O   UNL     1      96.478  81.024  88.061  1.00  0.00    -0.319 OA
ATOM      6  C   UNL     1      96.769  82.457  88.052  1.00  0.00     0.095 CG0
ATOM      7  C   UNL     1      95.087  80.678  87.927  1.00  0.00     0.289 C 
ATOM      8  C   UNL     1      96.345  83.085  89.443  1.00  0.00     0.023 C 
ATOM      9  G   UNL     1      98.286  82.543  87.714  1.00  0.00     0.000 G0
ATOM     10  O   UNL     1      94.532  81.216  86.730  1.00  0.00    -0.320 OA
ATOM     11  O   UNL     1      94.293  81.202  88.989  1.00  0.00    -0.313 OA
ATOM     12  C   UNL     1      94.465  82.606  87.086  1.00  0.00     0.170 C 
ATOM     13  C   UNL     1      94.834  83.471  89.461  1.00  0.00     0.049 C 
ATOM     14  C   UNL     1      96.667  82.230  90.681  1.00  0.00     0.011 C 
ATOM     15  C   UNL     1      94.005  82.551  88.563  1.00  0.00     0.122 C 
BRANCH   7  16
ATOM     16  C   UNL     1      94.973  79.166  87.911  1.00  0.00     0.135 C 
BRANCH  16  17
ATOM     17  C   UNL     1      93.780  78.696  87.116  1.00  0.00    -0.040 A 
ATOM     18  C   UNL     1      93.899  77.601  86.261  1.00  0.00     0.004 A 
ATOM     19  C   UNL     1      92.558  79.358  87.238  1.00  0.00     0.004 A 
ATOM     20  C   UNL     1      92.795  77.166  85.527  1.00  0.00     0.000 A 
ATOM     21  C   UNL     1      91.455  78.923  86.503  1.00  0.00     0.000 A 
ATOM     22  C   UNL     1      91.573  77.828  85.648  1.00  0.00     0.000 A 
ENDBRANCH  16  17
ENDBRANCH   7  16
BRANCH  15  23
ATOM     23  C   UNL     1      92.536  82.784  88.703  1.00  0.00    -0.046 C 
ATOM     24  C   UNL     1      91.822  81.926  89.705  1.00  0.00     0.042 C 
ATOM     25  C   UNL     1      91.892  83.708  87.975  1.00  0.00     0.010 C 
ENDBRANCH  15  23
ENDBRANCH   3   4
BRANCH   2  26
ATOM     26  C   UNL     1      98.742  83.982  85.600  1.00  0.00     0.078 C 
BRANCH  26  27
ATOM     27  C   UNL     1      98.776  83.938  87.127  1.00  0.00     0.140 C 
ATOM     28  C   UNL     1      98.296  82.580  87.682  1.00  0.00     0.086 CG0
ATOM     29  C   UNL     1     100.183  84.035  87.678  1.00  0.00     0.190 C 
ATOM     30  C   UNL     1      99.327  82.244  88.723  1.00  0.00    -0.010 C 
ATOM     31  G   UNL     1      96.785  82.484  88.043  1.00  0.00     0.000 G0
ATOM     32  O   UNL     1     101.017  84.864  87.347  1.00  0.00    -0.291 OA
ATOM     33  C   UNL     1     100.411  83.024  88.728  1.00  0.00    -0.008 C 
ATOM     34  C   UNL     1     101.641  82.939  89.543  1.00  0.00     0.048 C 
BRANCH  27  35
ATOM     35  O   UNL     1      98.113  85.055  87.693  1.00  0.00    -0.381 OA
ATOM     36  H   UNL     1      97.927  84.860  88.628  1.00  0.00     0.212 HD
ENDBRANCH  27  35
ENDBRANCH  26  27
ENDBRANCH   2  26
ENDBRANCH   1   2
BRANCH   1  37
ATOM     37  O   UNL     1      98.091  81.905  83.145  1.00  0.00    -0.461 OA
BRANCH  37  38
ATOM     38  C   UNL     1      99.231  81.755  82.389  1.00  0.00     0.310 C 
ATOM     39  O   UNL     1      99.888  80.727  82.305  1.00  0.00    -0.252 OA
BRANCH  38  40
ATOM     40  C   UNL     1      99.541  83.054  81.684  1.00  0.00     0.158 C 
BRANCH  40  41
ATOM     41  C   UNL     1      99.080  83.068  80.250  1.00  0.00    -0.037 A 
ATOM     42  C   UNL     1      99.965  82.721  79.229  1.00  0.00     0.008 A 
ATOM     43  C   UNL     1      97.768  83.428  79.942  1.00  0.00     0.008 A 
ATOM     44  C   UNL     1      99.538  82.736  77.900  1.00  0.00     0.046 A 
ATOM     45  C   UNL     1      97.341  83.442  78.614  1.00  0.00     0.046 A 
ATOM     46  C   UNL     1      98.226  83.096  77.593  1.00  0.00     0.115 A 
BRANCH  46  47
ATOM     47  O   UNL     1      97.810  83.110  76.298  1.00  0.00    -0.508 OA
ATOM     48  H   UNL     1      96.923  82.713  76.246  1.00  0.00     0.293 HD
ENDBRANCH  46  47
ENDBRANCH  40  41
ENDBRANCH  38  40
ENDBRANCH  37  38
ENDBRANCH   1  37
TORSDOF 10
ENDMDL
MODEL 2
REMARK VINA RESULT:    -7.348      1.741      2.285
REMARK INTER + INTRA:         -12.645
REMARK INTER:                 -12.146
REMARK INTRA:                  -0.499
REMARK UNBOUND:                -0.143
REMARK SMILES C=C(C)[C@]12C[C@@H](C)[C@@]34O[C@](Cc5ccccc5)(O[C@@H]1[C@@H]3C=C(COC(=O)Cc1ccc(O)cc1)C[C@]1(O)C(=O)C(C)=C[C@@H]41)O2
REMARK SMILES IDX 23 1 22 2 21 3 20 4 9 5 8 6 10 7 6 8 18 10 44 11 19 12 5 13
REMARK SMILES IDX 7 14 4 15 11 16 12 17 13 18 17 19 14 20 16 21 15 22 2 23
REMARK SMILES IDX 3 24 1 25 35 26 36 27 43 28 38 29 42 30 39 32 40 33 41 34
REMARK SMILES IDX 37 35 24 37 25 38 26 39 27 40 28 41 29 42 34 43 30 44 33 45
REMARK SMILES IDX 31 46 32 47
REMARK H PARENT 37 36 32 48
REMARK Flexibility Score: 90.00
ROOT
ATOM      1  C   UNL     1      98.629  82.166  83.120  1.00  0.00     0.264 C 
ENDROOT
BRANCH   1   2
ATOM      2  C   UNL     1      98.490  82.315  84.618  1.00  0.00    -0.033 C 
ATOM      3  C   UNL     1      97.290  82.646  85.139  1.00  0.00    -0.015 C 
BRANCH   3   4
ATOM      4  C   UNL     1      96.909  82.928  86.583  1.00  0.00     0.078 C 
ATOM      5  O   UNL     1      96.092  80.800  87.541  1.00  0.00    -0.319 OA
ATOM      6  C   UNL     1      97.150  81.801  87.654  1.00  0.00     0.095 CG0
ATOM      7  C   UNL     1      94.763  81.326  87.358  1.00  0.00     0.289 C 
ATOM      8  C   UNL     1      97.081  82.477  89.085  1.00  0.00     0.023 C 
ATOM      9  G   UNL     1      98.460  81.017  87.348  1.00  0.00     0.000 G0
ATOM     10  O   UNL     1      94.690  82.154  86.201  1.00  0.00    -0.320 OA
ATOM     11  O   UNL     1      94.352  82.150  88.447  1.00  0.00    -0.313 OA
ATOM     12  C   UNL     1      95.410  83.305  86.668  1.00  0.00     0.170 C 
ATOM     13  C   UNL     1      96.066  83.660  89.111  1.00  0.00     0.049 C 
ATOM     14  C   UNL     1      96.781  81.522  90.254  1.00  0.00     0.011 C 
ATOM     15  C   UNL     1      94.915  83.439  88.129  1.00  0.00     0.122 C 
BRANCH   7  16
ATOM     16  C   UNL     1      93.805  80.160  87.217  1.00  0.00     0.135 C 
BRANCH  16  17
ATOM     17  C   UNL     1      92.364  80.602  87.264  1.00  0.00    -0.040 A 
ATOM     18  C   UNL     1      91.628  80.458  88.440  1.00  0.00     0.004 A 
ATOM     19  C   UNL     1      91.768  81.155  86.131  1.00  0.00     0.004 A 
ATOM     20  C   UNL     1      90.295  80.868  88.483  1.00  0.00     0.000 A 
ATOM     21  C   UNL     1      90.435  81.565  86.175  1.00  0.00     0.000 A 
ATOM     22  C   UNL     1      89.699  81.421  87.350  1.00  0.00     0.000 A 
ENDBRANCH  16  17
ENDBRANCH   7  16
BRANCH  15  23
ATOM     23  C   UNL     1      93.839  84.468  88.265  1.00  0.00    -0.046 C 
ATOM     24  C   UNL     1      92.428  83.962  88.205  1.00  0.00     0.042 C 
ATOM     25  C   UNL     1      94.119  85.769  88.431  1.00  0.00     0.010 C 
ENDBRANCH  15  23
ENDBRANCH   3   4
BRANCH   2  26
ATOM     26  C   UNL     1      99.783  82.051  85.365  1.00  0.00     0.078 C 
BRANCH  26  27
ATOM     27  C   UNL     1      99.695  81.905  86.883  1.00  0.00     0.140 C 
ATOM     28  C   UNL     1      98.491  81.042  87.317  1.00  0.00     0.086 CG0
ATOM     29  C   UNL     1     100.867  81.141  87.462  1.00  0.00     0.190 C 
ATOM     30  C   UNL     1      99.078  80.113  88.343  1.00  0.00    -0.010 C 
ATOM     31  G   UNL     1      97.179  81.813  87.647  1.00  0.00     0.000 G0
ATOM     32  O   UNL     1     102.044  81.356  87.213  1.00  0.00    -0.291 OA
ATOM     33  C   UNL     1     100.412  80.124  88.428  1.00  0.00    -0.008 C 
ATOM     34  C   UNL     1     101.319  79.298  89.251  1.00  0.00     0.048 C 
BRANCH  27  35
ATOM     35  O   UNL     1      99.759  83.165  87.530  1.00  0.00    -0.381 OA
ATOM     36  H   UNL     1     100.650  83.271  87.906  1.00  0.00     0.212 HD
ENDBRANCH  27  35
ENDBRANCH  26  27
ENDBRANCH   2  26
ENDBRANCH   1   2
BRANCH   1  37
ATOM     37  O   UNL     1      99.969  82.408  82.750  1.00  0.00    -0.461 OA
BRANCH  37  38
ATOM     38  C   UNL     1     100.357  81.924  81.522  1.00  0.00     0.310 C 
ATOM     39  O   UNL     1     101.489  81.996  81.064  1.00  0.00    -0.252 OA
BRANCH  38  40
ATOM     40  C   UNL     1      99.172  81.292  80.832  1.00  0.00     0.158 C 
BRANCH  40  41
ATOM     41  C   UNL     1      98.683  82.092  79.652  1.00  0.00    -0.037 A 
ATOM     42  C   UNL     1      97.824  83.173  79.850  1.00  0.00     0.008 A 
ATOM     43  C   UNL     1      99.090  81.752  78.362  1.00  0.00     0.008 A 
ATOM     44  C   UNL     1      97.371  83.913  78.757  1.00  0.00     0.046 A 
ATOM     45  C   UNL     1      98.638  82.492  77.269  1.00  0.00     0.046 A 
ATOM     46  C   UNL     1      97.778  83.572  77.467  1.00  0.00     0.115 A 
BRANCH  46  47
ATOM     47  O   UNL     1      97.336  84.293  76.401  1.00  0.00    -0.508 OA
ATOM     48  H   UNL     1      97.400  83.745  75.600  1.00  0.00     0.293 HD
ENDBRANCH  46  47
ENDBRANCH  40  41
ENDBRANCH  38  40
ENDBRANCH  37  38
ENDBRANCH   1  37
TORSDOF 10
ENDMDL
MODEL 3
REMARK VINA RESULT:    -7.145     33.762     37.464
REMARK INTER + INTRA:         -12.300
REMARK INTER:                 -10.109
REMARK INTRA:                  -2.191
REMARK UNBOUND:                -0.143
REMARK SMILES C=C(C)[C@]12C[C@@H](C)[C@@]34O[C@](Cc5ccccc5)(O[C@@H]1[C@@H]3C=C(COC(=O)Cc1ccc(O)cc1)C[C@]1(O)C(=O)C(C)=C[C@@H]41)O2
REMARK SMILES IDX 23 1 22 2 21 3 20 4 9 5 8 6 10 7 6 8 18 10 44 11 19 12 5 13
REMARK SMILES IDX 7 14 4 15 11 16 12 17 13 18 17 19 14 20 16 21 15 22 2 23
REMARK SMILES IDX 3 24 1 25 35 26 36 27 43 28 38 29 42 30 39 32 40 33 41 34
REMARK SMILES IDX 37 35 24 37 25 38 26 39 27 40 28 41 29 42 34 43 30 44 33 45
REMARK SMILES IDX 31 46 32 47
REMARK H PARENT 37 36 32 48
REMARK Flexibility Score: 90.00
ROOT
ATOM      1  C   UNL     1      64.918  87.419  75.108  1.00  0.00     0.264 C 
ENDROOT
BRANCH   1   2
ATOM      2  C   UNL     1      64.590  86.562  73.908  1.00  0.00    -0.033 C 
ATOM      3  C   UNL     1      63.326  86.543  73.436  1.00  0.00    -0.015 C 
BRANCH   3   4
ATOM      4  C   UNL     1      62.730  85.719  72.307  1.00  0.00     0.078 C 
ATOM      5  O   UNL     1      62.887  87.089  70.254  1.00  0.00    -0.319 OA
ATOM      6  C   UNL     1      63.358  85.850  70.871  1.00  0.00     0.095 CG0
ATOM      7  C   UNL     1      61.487  87.374  70.440  1.00  0.00     0.289 C 
ATOM      8  C   UNL     1      62.859  84.615  70.014  1.00  0.00     0.023 C 
ATOM      9  G   UNL     1      64.903  86.024  70.957  1.00  0.00     0.000 G0
ATOM     10  O   UNL     1      61.150  87.435  71.823  1.00  0.00    -0.320 OA
ATOM     11  O   UNL     1      60.649  86.365  69.883  1.00  0.00    -0.313 OA
ATOM     12  C   UNL     1      61.222  86.041  72.160  1.00  0.00     0.170 C 
ATOM     13  C   UNL     1      61.419  84.179  70.423  1.00  0.00     0.049 C 
ATOM     14  C   UNL     1      62.921  84.801  68.488  1.00  0.00     0.011 C 
ATOM     15  C   UNL     1      60.589  85.363  70.920  1.00  0.00     0.122 C 
BRANCH   7  16
ATOM     16  C   UNL     1      61.182  88.704  69.779  1.00  0.00     0.135 C 
BRANCH  16  17
ATOM     17  C   UNL     1      59.817  89.224  70.156  1.00  0.00    -0.040 A 
ATOM     18  C   UNL     1      58.673  88.615  69.643  1.00  0.00     0.004 A 
ATOM     19  C   UNL     1      59.701  90.314  71.017  1.00  0.00     0.004 A 
ATOM     20  C   UNL     1      57.410  89.096  69.992  1.00  0.00     0.000 A 
ATOM     21  C   UNL     1      58.439  90.796  71.366  1.00  0.00     0.000 A 
ATOM     22  C   UNL     1      57.294  90.186  70.854  1.00  0.00     0.000 A 
ENDBRANCH  16  17
ENDBRANCH   7  16
BRANCH  15  23
ATOM     23  C   UNL     1      59.156  85.005  71.146  1.00  0.00    -0.046 C 
ATOM     24  C   UNL     1      58.459  84.317  70.010  1.00  0.00     0.042 C 
ATOM     25  C   UNL     1      58.529  85.283  72.298  1.00  0.00     0.010 C 
ENDBRANCH  15  23
ENDBRANCH   3   4
BRANCH   2  26
ATOM     26  C   UNL     1      65.792  85.809  73.367  1.00  0.00     0.078 C 
BRANCH  26  27
ATOM     27  C   UNL     1      65.627  85.104  72.023  1.00  0.00     0.140 C 
ATOM     28  C   UNL     1      64.923  85.996  70.978  1.00  0.00     0.086 CG0
ATOM     29  C   UNL     1      66.954  84.809  71.356  1.00  0.00     0.190 C 
ATOM     30  C   UNL     1      65.766  85.824  69.746  1.00  0.00    -0.010 C 
ATOM     31  G   UNL     1      63.378  85.841  70.875  1.00  0.00     0.000 G0
ATOM     32  O   UNL     1      67.915  84.282  71.896  1.00  0.00    -0.291 OA
ATOM     33  C   UNL     1      66.926  85.186  69.930  1.00  0.00    -0.008 C 
ATOM     34  C   UNL     1      68.024  84.914  68.979  1.00  0.00     0.048 C 
BRANCH  27  35
ATOM     35  O   UNL     1      65.033  83.826  72.177  1.00  0.00    -0.381 OA
ATOM     36  H   UNL     1      65.400  83.234  71.498  1.00  0.00     0.212 HD
ENDBRANCH  27  35
ENDBRANCH  26  27
ENDBRANCH   2  26
ENDBRANCH   1   2
BRANCH   1  37
ATOM     37  O   UNL     1      64.792  86.646  76.282  1.00  0.00    -0.461 OA
BRANCH  37  38
ATOM     38  C   UNL     1      63.544  86.616  76.860  1.00  0.00     0.310 C 
ATOM     39  O   UNL     1      62.775  87.565  76.920  1.00  0.00    -0.252 OA
BRANCH  38  40
ATOM     40  C   UNL     1      63.274  85.235  77.406  1.00  0.00     0.158 C 
BRANCH  40  41
ATOM     41  C   UNL     1      62.984  84.223  76.328  1.00  0.00    -0.037 A 
ATOM     42  C   UNL     1      63.948  83.275  75.983  1.00  0.00     0.008 A 
ATOM     43  C   UNL     1      61.753  84.234  75.674  1.00  0.00     0.008 A 
ATOM     44  C   UNL     1      63.680  82.339  74.984  1.00  0.00     0.046 A 
ATOM     45  C   UNL     1      61.484  83.297  74.675  1.00  0.00     0.046 A 
ATOM     46  C   UNL     1      62.447  82.350  74.330  1.00  0.00     0.115 A 
BRANCH  46  47
ATOM     47  O   UNL     1      62.186  81.437  73.355  1.00  0.00    -0.508 OA
ATOM     48  H   UNL     1      61.901  81.906  72.552  1.00  0.00     0.293 HD
ENDBRANCH  46  47
ENDBRANCH  40  41
ENDBRANCH  38  40
ENDBRANCH  37  38
ENDBRANCH   1  37
TORSDOF 10
ENDMDL
MODEL 4
REMARK VINA RESULT:    -7.136      2.229      3.575
REMARK INTER + INTRA:         -12.284
REMARK INTER:                 -12.308
REMARK INTRA:                   0.024
REMARK UNBOUND:                -0.143
REMARK SMILES C=C(C)[C@]12C[C@@H](C)[C@@]34O[C@](Cc5ccccc5)(O[C@@H]1[C@@H]3C=C(COC(=O)Cc1ccc(O)cc1)C[C@]1(O)C(=O)C(C)=C[C@@H]41)O2
REMARK SMILES IDX 23 1 22 2 21 3 20 4 9 5 8 6 10 7 6 8 18 10 44 11 19 12 5 13
REMARK SMILES IDX 7 14 4 15 11 16 12 17 13 18 17 19 14 20 16 21 15 22 2 23
REMARK SMILES IDX 3 24 1 25 35 26 36 27 43 28 38 29 42 30 39 32 40 33 41 34
REMARK SMILES IDX 37 35 24 37 25 38 26 39 27 40 28 41 29 42 34 43 30 44 33 45
REMARK SMILES IDX 31 46 32 47
REMARK H PARENT 37 36 32 48
REMARK Flexibility Score: 90.00
ROOT
ATOM      1  C   UNL     1      97.869  82.484  86.050  1.00  0.00     0.264 C 
ENDROOT
BRANCH   1   2
ATOM      2  C   UNL     1      96.512  82.991  86.481  1.00  0.00    -0.033 C 
ATOM      3  C   UNL     1      95.449  82.163  86.417  1.00  0.00    -0.015 C 
BRANCH   3   4
ATOM      4  C   UNL     1      93.985  82.448  86.716  1.00  0.00     0.078 C 
ATOM      5  O   UNL     1      93.604  81.851  89.085  1.00  0.00    -0.319 OA
ATOM      6  C   UNL     1      93.602  82.973  88.148  1.00  0.00     0.095 CG0
ATOM      7  C   UNL     1      93.003  80.638  88.594  1.00  0.00     0.289 C 
ATOM      8  C   UNL     1      92.141  83.579  88.061  1.00  0.00     0.023 C 
ATOM      9  G   UNL     1      94.695  83.937  88.695  1.00  0.00     0.000 G0
ATOM     10  O   UNL     1      93.637  80.192  87.399  1.00  0.00    -0.320 OA
ATOM     11  O   UNL     1      91.628  80.811  88.260  1.00  0.00    -0.313 OA
ATOM     12  C   UNL     1      93.142  81.172  86.472  1.00  0.00     0.170 C 
ATOM     13  C   UNL     1      91.264  82.812  87.025  1.00  0.00     0.049 C 
ATOM     14  C   UNL     1      91.384  83.676  89.397  1.00  0.00     0.011 C 
ATOM     15  C   UNL     1      91.669  81.341  86.919  1.00  0.00     0.122 C 
BRANCH   7  16
ATOM     16  C   UNL     1      93.130  79.576  89.669  1.00  0.00     0.135 C 
BRANCH  16  17
ATOM     17  C   UNL     1      92.404  78.306  89.299  1.00  0.00    -0.040 A 
ATOM     18  C   UNL     1      92.955  77.437  88.359  1.00  0.00     0.004 A 
ATOM     19  C   UNL     1      91.183  78.003  89.900  1.00  0.00     0.004 A 
ATOM     20  C   UNL     1      92.283  76.262  88.018  1.00  0.00     0.000 A 
ATOM     21  C   UNL     1      90.512  76.828  89.559  1.00  0.00     0.000 A 
ATOM     22  C   UNL     1      91.062  75.959  88.618  1.00  0.00     0.000 A 
ENDBRANCH  16  17
ENDBRANCH   7  16
BRANCH  15  23
ATOM     23  C   UNL     1      90.730  80.547  86.070  1.00  0.00    -0.046 C 
ATOM     24  C   UNL     1      91.295  79.309  85.439  1.00  0.00     0.042 C 
ATOM     25  C   UNL     1      89.455  80.920  85.883  1.00  0.00     0.010 C 
ENDBRANCH  15  23
ENDBRANCH   3   4
BRANCH   2  26
ATOM     26  C   UNL     1      96.538  84.431  86.957  1.00  0.00     0.078 C 
BRANCH  26  27
ATOM     27  C   UNL     1      95.292  84.953  87.670  1.00  0.00     0.140 C 
ATOM     28  C   UNL     1      94.718  83.926  88.668  1.00  0.00     0.086 CG0
ATOM     29  C   UNL     1      95.589  86.141  88.561  1.00  0.00     0.190 C 
ATOM     30  C   UNL     1      94.449  84.747  89.899  1.00  0.00    -0.010 C 
ATOM     31  G   UNL     1      93.605  82.986  88.120  1.00  0.00     0.000 G0
ATOM     32  O   UNL     1      96.227  87.130  88.233  1.00  0.00    -0.291 OA
ATOM     33  C   UNL     1      94.950  85.986  89.881  1.00  0.00    -0.008 C 
ATOM     34  C   UNL     1      94.951  87.026  90.930  1.00  0.00     0.048 C 
BRANCH  27  35
ATOM     35  O   UNL     1      94.338  85.451  86.748  1.00  0.00    -0.381 OA
ATOM     36  H   UNL     1      94.293  84.841  85.992  1.00  0.00     0.212 HD
ENDBRANCH  27  35
ENDBRANCH  26  27
ENDBRANCH   2  26
ENDBRANCH   1   2
BRANCH   1  37
ATOM     37  O   UNL     1      98.397  83.346  85.063  1.00  0.00    -0.461 OA
BRANCH  37  38
ATOM     38  C   UNL     1      97.756  83.340  83.846  1.00  0.00     0.310 C 
ATOM     39  O   UNL     1      96.940  84.173  83.477  1.00  0.00    -0.252 OA
BRANCH  38  40
ATOM     40  C   UNL     1      98.217  82.149  83.040  1.00  0.00     0.158 C 
BRANCH  40  41
ATOM     41  C   UNL     1      98.598  82.507  81.627  1.00  0.00    -0.037 A 
ATOM     42  C   UNL     1      99.855  82.157  81.134  1.00  0.00     0.008 A 
ATOM     43  C   UNL     1      97.694  83.187  80.812  1.00  0.00     0.008 A 
ATOM     44  C   UNL     1     100.208  82.490  79.825  1.00  0.00     0.046 A 
ATOM     45  C   UNL     1      98.046  83.520  79.503  1.00  0.00     0.046 A 
ATOM     46  C   UNL     1      99.303  83.171  79.010  1.00  0.00     0.115 A 
BRANCH  46  47
ATOM     47  O   UNL     1      99.648  83.495  77.735  1.00  0.00    -0.508 OA
ATOM     48  H   UNL     1     100.496  83.070  77.519  1.00  0.00     0.293 HD
ENDBRANCH  46  47
ENDBRANCH  40  41
ENDBRANCH  38  40
ENDBRANCH  37  38
ENDBRANCH   1  37
TORSDOF 10
ENDMDL
MODEL 5
REMARK VINA RESULT:    -7.128     27.703     31.409
REMARK INTER + INTRA:         -12.271
REMARK INTER:                 -10.442
REMARK INTRA:                  -1.829
REMARK UNBOUND:                -0.143
REMARK SMILES C=C(C)[C@]12C[C@@H](C)[C@@]34O[C@](Cc5ccccc5)(O[C@@H]1[C@@H]3C=C(COC(=O)Cc1ccc(O)cc1)C[C@]1(O)C(=O)C(C)=C[C@@H]41)O2
REMARK SMILES IDX 23 1 22 2 21 3 20 4 9 5 8 6 10 7 6 8 18 10 44 11 19 12 5 13
REMARK SMILES IDX 7 14 4 15 11 16 12 17 13 18 17 19 14 20 16 21 15 22 2 23
REMARK SMILES IDX 3 24 1 25 35 26 36 27 43 28 38 29 42 30 39 32 40 33 41 34
REMARK SMILES IDX 37 35 24 37 25 38 26 39 27 40 28 41 29 42 34 43 30 44 33 45
REMARK SMILES IDX 31 46 32 47
REMARK H PARENT 37 36 32 48
REMARK Flexibility Score: 90.00
ROOT
ATOM      1  C   UNL     1      69.822  83.787  69.131  1.00  0.00     0.264 C 
ENDROOT
BRANCH   1   2
ATOM      2  C   UNL     1      70.830  84.251  68.105  1.00  0.00    -0.033 C 
ATOM      3  C   UNL     1      71.210  85.546  68.093  1.00  0.00    -0.015 C 
BRANCH   3   4
ATOM      4  C   UNL     1      72.137  86.271  67.131  1.00  0.00     0.078 C 
ATOM      5  O   UNL     1      74.408  86.171  68.104  1.00  0.00    -0.319 OA
ATOM      6  C   UNL     1      73.606  85.737  66.961  1.00  0.00     0.095 CG0
ATOM      7  C   UNL     1      74.196  87.533  68.522  1.00  0.00     0.289 C 
ATOM      8  C   UNL     1      74.197  86.372  65.636  1.00  0.00     0.023 C 
ATOM      9  G   UNL     1      73.641  84.182  67.031  1.00  0.00     0.000 G0
ATOM     10  O   UNL     1      72.830  87.768  68.849  1.00  0.00    -0.320 OA
ATOM     11  O   UNL     1      74.513  88.471  67.496  1.00  0.00    -0.313 OA
ATOM     12  C   UNL     1      72.252  87.762  67.534  1.00  0.00     0.170 C 
ATOM     13  C   UNL     1      73.634  87.805  65.387  1.00  0.00     0.049 C 
ATOM     14  C   UNL     1      75.733  86.405  65.546  1.00  0.00     0.011 C 
ATOM     15  C   UNL     1      73.312  88.521  66.699  1.00  0.00     0.122 C 
BRANCH   7  16
ATOM     16  C   UNL     1      75.067  87.798  69.734  1.00  0.00     0.135 C 
BRANCH  16  17
ATOM     17  C   UNL     1      75.876  86.587  70.126  1.00  0.00    -0.040 A 
ATOM     18  C   UNL     1      77.221  86.502  69.768  1.00  0.00     0.004 A 
ATOM     19  C   UNL     1      75.279  85.554  70.846  1.00  0.00     0.004 A 
ATOM     20  C   UNL     1      77.970  85.381  70.131  1.00  0.00     0.000 A 
ATOM     21  C   UNL     1      76.027  84.434  71.209  1.00  0.00     0.000 A 
ATOM     22  C   UNL     1      77.372  84.348  70.851  1.00  0.00     0.000 A 
ENDBRANCH  16  17
ENDBRANCH   7  16
BRANCH  15  23
ATOM     23  C   UNL     1      72.943  89.955  66.494  1.00  0.00    -0.046 C 
ATOM     24  C   UNL     1      71.669  90.410  67.142  1.00  0.00     0.042 C 
ATOM     25  C   UNL     1      73.708  90.787  65.773  1.00  0.00     0.010 C 
ENDBRANCH  15  23
ENDBRANCH   3   4
BRANCH   2  26
ATOM     26  C   UNL     1      71.304  83.138  67.189  1.00  0.00     0.078 C 
BRANCH  26  27
ATOM     27  C   UNL     1      72.501  83.437  66.289  1.00  0.00     0.140 C 
ATOM     28  C   UNL     1      73.625  84.180  67.041  1.00  0.00     0.086 CG0
ATOM     29  C   UNL     1      73.201  82.180  65.818  1.00  0.00     0.190 C 
ATOM     30  C   UNL     1      74.869  83.442  66.628  1.00  0.00    -0.010 C 
ATOM     31  G   UNL     1      73.596  85.734  66.958  1.00  0.00     0.000 G0
ATOM     32  O   UNL     1      72.650  81.203  65.332  1.00  0.00    -0.291 OA
ATOM     33  C   UNL     1      74.663  82.301  65.965  1.00  0.00    -0.008 C 
ATOM     34  C   UNL     1      75.631  81.292  65.484  1.00  0.00     0.048 C 
BRANCH  27  35
ATOM     35  O   UNL     1      72.100  84.072  65.087  1.00  0.00    -0.381 OA
ATOM     36  H   UNL     1      72.587  83.666  64.349  1.00  0.00     0.212 HD
ENDBRANCH  27  35
ENDBRANCH  26  27
ENDBRANCH   2  26
ENDBRANCH   1   2
BRANCH   1  37
ATOM     37  O   UNL     1      68.710  84.656  69.119  1.00  0.00    -0.461 OA
BRANCH  37  38
ATOM     38  C   UNL     1      67.473  84.058  69.040  1.00  0.00     0.310 C 
ATOM     39  O   UNL     1      67.056  83.203  69.808  1.00  0.00    -0.252 OA
BRANCH  38  40
ATOM     40  C   UNL     1      66.715  84.621  67.861  1.00  0.00     0.158 C 
BRANCH  40  41
ATOM     41  C   UNL     1      67.482  84.522  66.568  1.00  0.00    -0.037 A 
ATOM     42  C   UNL     1      67.995  85.673  65.971  1.00  0.00     0.008 A 
ATOM     43  C   UNL     1      67.678  83.279  65.967  1.00  0.00     0.008 A 
ATOM     44  C   UNL     1      68.704  85.581  64.773  1.00  0.00     0.046 A 
ATOM     45  C   UNL     1      68.387  83.186  64.769  1.00  0.00     0.046 A 
ATOM     46  C   UNL     1      68.900  84.337  64.172  1.00  0.00     0.115 A 
BRANCH  46  47
ATOM     47  O   UNL     1      69.591  84.248  63.003  1.00  0.00    -0.508 OA
ATOM     48  H   UNL     1      70.239  84.973  62.964  1.00  0.00     0.293 HD
ENDBRANCH  46  47
ENDBRANCH  40  41
ENDBRANCH  38  40
ENDBRANCH  37  38
ENDBRANCH   1  37
TORSDOF 10
ENDMDL
MODEL 6
REMARK VINA RESULT:    -7.100      2.720      4.331
REMARK INTER + INTRA:         -12.223
REMARK INTER:                 -11.979
REMARK INTRA:                  -0.244
REMARK UNBOUND:                -0.143
REMARK SMILES C=C(C)[C@]12C[C@@H](C)[C@@]34O[C@](Cc5ccccc5)(O[C@@H]1[C@@H]3C=C(COC(=O)Cc1ccc(O)cc1)C[C@]1(O)C(=O)C(C)=C[C@@H]41)O2
REMARK SMILES IDX 23 1 22 2 21 3 20 4 9 5 8 6 10 7 6 8 18 10 44 11 19 12 5 13
REMARK SMILES IDX 7 14 4 15 11 16 12 17 13 18 17 19 14 20 16 21 15 22 2 23
REMARK SMILES IDX 3 24 1 25 35 26 36 27 43 28 38 29 42 30 39 32 40 33 41 34
REMARK SMILES IDX 37 35 24 37 25 38 26 39 27 40 28 41 29 42 34 43 30 44 33 45
REMARK SMILES IDX 31 46 32 47
REMARK H PARENT 37 36 32 48
REMARK Flexibility Score: 90.00
ROOT
ATOM      1  C   UNL     1      97.004  81.822  85.959  1.00  0.00     0.264 C 
ENDROOT
BRANCH   1   2
ATOM      2  C   UNL     1      95.860  82.625  86.534  1.00  0.00    -0.033 C 
ATOM      3  C   UNL     1      94.768  81.981  86.995  1.00  0.00    -0.015 C 
BRANCH   3   4
ATOM      4  C   UNL     1      93.470  82.552  87.544  1.00  0.00     0.078 C 
ATOM      5  O   UNL     1      93.725  82.692  90.000  1.00  0.00    -0.319 OA
ATOM      6  C   UNL     1      93.540  83.501  88.796  1.00  0.00     0.095 CG0
ATOM      7  C   UNL     1      92.927  81.495  90.065  1.00  0.00     0.289 C 
ATOM      8  C   UNL     1      92.159  84.272  88.891  1.00  0.00     0.023 C 
ATOM      9  G   UNL     1      94.807  84.403  88.737  1.00  0.00     0.000 G0
ATOM     10  O   UNL     1      93.168  80.649  88.945  1.00  0.00    -0.320 OA
ATOM     11  O   UNL     1      91.529  81.774  90.043  1.00  0.00    -0.313 OA
ATOM     12  C   UNL     1      92.505  81.400  87.915  1.00  0.00     0.170 C 
ATOM     13  C   UNL     1      90.976  83.391  88.387  1.00  0.00     0.049 C 
ATOM     14  C   UNL     1      91.815  84.843  90.277  1.00  0.00     0.011 C 
ATOM     15  C   UNL     1      91.231  81.904  88.637  1.00  0.00     0.122 C 
BRANCH   7  16
ATOM     16  C   UNL     1      93.274  80.762  91.346  1.00  0.00     0.135 C 
BRANCH  16  17
ATOM     17  C   UNL     1      92.080  80.612  92.255  1.00  0.00    -0.040 A 
ATOM     18  C   UNL     1      91.926  81.460  93.350  1.00  0.00     0.004 A 
ATOM     19  C   UNL     1      91.130  79.624  91.998  1.00  0.00     0.004 A 
ATOM     20  C   UNL     1      90.820  81.321  94.191  1.00  0.00     0.000 A 
ATOM     21  C   UNL     1      90.024  79.485  92.838  1.00  0.00     0.000 A 
ATOM     22  C   UNL     1      89.870  80.333  93.934  1.00  0.00     0.000 A 
ENDBRANCH  16  17
ENDBRANCH   7  16
BRANCH  15  23
ATOM     23  C   UNL     1      90.039  81.057  88.329  1.00  0.00    -0.046 C 
ATOM     24  C   UNL     1      89.025  81.656  87.400  1.00  0.00     0.042 C 
ATOM     25  C   UNL     1      89.884  79.833  88.853  1.00  0.00     0.010 C 
ENDBRANCH  15  23
ENDBRANCH   3   4
BRANCH   2  26
ATOM     26  C   UNL     1      96.115  84.121  86.517  1.00  0.00     0.078 C 
BRANCH  26  27
ATOM     27  C   UNL     1      95.160  85.000  87.322  1.00  0.00     0.140 C 
ATOM     28  C   UNL     1      94.830  84.394  88.701  1.00  0.00     0.086 CG0
ATOM     29  C   UNL     1      95.774  86.334  87.692  1.00  0.00     0.190 C 
ATOM     30  C   UNL     1      94.977  85.559  89.640  1.00  0.00    -0.010 C 
ATOM     31  G   UNL     1      93.550  83.511  88.774  1.00  0.00     0.000 G0
ATOM     32  O   UNL     1      96.354  87.085  86.921  1.00  0.00    -0.291 OA
ATOM     33  C   UNL     1      95.530  86.654  89.111  1.00  0.00    -0.008 C 
ATOM     34  C   UNL     1      95.897  87.937  89.747  1.00  0.00     0.048 C 
BRANCH  27  35
ATOM     35  O   UNL     1      94.016  85.353  86.563  1.00  0.00    -0.381 OA
ATOM     36  H   UNL     1      93.917  86.320  86.589  1.00  0.00     0.212 HD
ENDBRANCH  27  35
ENDBRANCH  26  27
ENDBRANCH   2  26
ENDBRANCH   1   2
BRANCH   1  37
ATOM     37  O   UNL     1      97.301  82.295  84.663  1.00  0.00    -0.461 OA
BRANCH  37  38
ATOM     38  C   UNL     1      98.187  81.541  83.929  1.00  0.00     0.310 C 
ATOM     39  O   UNL     1      98.110  80.332  83.762  1.00  0.00    -0.252 OA
BRANCH  38  40
ATOM     40  C   UNL     1      99.265  82.436  83.365  1.00  0.00     0.158 C 
BRANCH  40  41
ATOM     41  C   UNL     1      99.231  82.520  81.861  1.00  0.00    -0.037 A 
ATOM     42  C   UNL     1     100.292  82.013  81.110  1.00  0.00     0.008 A 
ATOM     43  C   UNL     1      98.140  83.104  81.218  1.00  0.00     0.008 A 
ATOM     44  C   UNL     1     100.261  82.092  79.717  1.00  0.00     0.046 A 
ATOM     45  C   UNL     1      98.108  83.182  79.826  1.00  0.00     0.046 A 
ATOM     46  C   UNL     1      99.169  82.677  79.075  1.00  0.00     0.115 A 
BRANCH  46  47
ATOM     47  O   UNL     1      99.140  82.753  77.717  1.00  0.00    -0.508 OA
ATOM     48  H   UNL     1      99.190  81.854  77.349  1.00  0.00     0.293 HD
ENDBRANCH  46  47
ENDBRANCH  40  41
ENDBRANCH  38  40
ENDBRANCH  37  38
ENDBRANCH   1  37
TORSDOF 10
ENDMDL
MODEL 7
REMARK VINA RESULT:    -6.960     31.069     35.204
REMARK INTER + INTRA:         -11.984
REMARK INTER:                 -11.793
REMARK INTRA:                  -0.192
REMARK UNBOUND:                -0.143
REMARK SMILES C=C(C)[C@]12C[C@@H](C)[C@@]34O[C@](Cc5ccccc5)(O[C@@H]1[C@@H]3C=C(COC(=O)Cc1ccc(O)cc1)C[C@]1(O)C(=O)C(C)=C[C@@H]41)O2
REMARK SMILES IDX 23 1 22 2 21 3 20 4 9 5 8 6 10 7 6 8 18 10 44 11 19 12 5 13
REMARK SMILES IDX 7 14 4 15 11 16 12 17 13 18 17 19 14 20 16 21 15 22 2 23
REMARK SMILES IDX 3 24 1 25 35 26 36 27 43 28 38 29 42 30 39 32 40 33 41 34
REMARK SMILES IDX 37 35 24 37 25 38 26 39 27 40 28 41 29 42 34 43 30 44 33 45
REMARK SMILES IDX 31 46 32 47
REMARK H PARENT 37 36 32 48
REMARK Flexibility Score: 90.00
ROOT
ATOM      1  C   UNL     1      63.703  84.342  80.006  1.00  0.00     0.264 C 
ENDROOT
BRANCH   1   2
ATOM      2  C   UNL     1      64.163  84.669  78.604  1.00  0.00    -0.033 C 
ATOM      3  C   UNL     1      63.649  83.981  77.564  1.00  0.00    -0.015 C 
BRANCH   3   4
ATOM      4  C   UNL     1      63.995  84.063  76.086  1.00  0.00     0.078 C 
ATOM      5  O   UNL     1      62.444  85.701  75.073  1.00  0.00    -0.319 OA
ATOM      6  C   UNL     1      63.855  85.452  75.361  1.00  0.00     0.095 CG0
ATOM      7  C   UNL     1      61.708  84.568  74.574  1.00  0.00     0.289 C 
ATOM      8  C   UNL     1      64.660  85.365  74.000  1.00  0.00     0.023 C 
ATOM      9  G   UNL     1      64.269  86.615  76.309  1.00  0.00     0.000 G0
ATOM     10  O   UNL     1      61.769  83.471  75.482  1.00  0.00    -0.320 OA
ATOM     11  O   UNL     1      62.236  84.078  73.343  1.00  0.00    -0.313 OA
ATOM     12  C   UNL     1      63.130  83.058  75.287  1.00  0.00     0.170 C 
ATOM     13  C   UNL     1      64.610  83.929  73.396  1.00  0.00     0.049 C 
ATOM     14  C   UNL     1      64.251  86.385  72.923  1.00  0.00     0.011 C 
ATOM     15  C   UNL     1      63.310  83.208  73.756  1.00  0.00     0.122 C 
BRANCH   7  16
ATOM     16  C   UNL     1      60.266  84.989  74.373  1.00  0.00     0.135 C 
BRANCH  16  17
ATOM     17  C   UNL     1      60.013  85.494  72.974  1.00  0.00    -0.040 A 
ATOM     18  C   UNL     1      59.373  84.678  72.043  1.00  0.00     0.004 A 
ATOM     19  C   UNL     1      60.421  86.778  72.614  1.00  0.00     0.004 A 
ATOM     20  C   UNL     1      59.138  85.146  70.749  1.00  0.00     0.000 A 
ATOM     21  C   UNL     1      60.187  87.246  71.320  1.00  0.00     0.000 A 
ATOM     22  C   UNL     1      59.546  86.429  70.389  1.00  0.00     0.000 A 
ENDBRANCH  16  17
ENDBRANCH   7  16
BRANCH  15  23
ATOM     23  C   UNL     1      63.159  81.904  73.042  1.00  0.00    -0.046 C 
ATOM     24  C   UNL     1      64.041  81.699  71.846  1.00  0.00     0.042 C 
ATOM     25  C   UNL     1      62.286  80.971  73.447  1.00  0.00     0.010 C 
ENDBRANCH  15  23
ENDBRANCH   3   4
BRANCH   2  26
ATOM     26  C   UNL     1      65.185  85.789  78.559  1.00  0.00     0.078 C 
BRANCH  26  27
ATOM     27  C   UNL     1      65.537  86.358  77.186  1.00  0.00     0.140 C 
ATOM     28  C   UNL     1      64.286  86.604  76.318  1.00  0.00     0.086 CG0
ATOM     29  C   UNL     1      66.152  87.739  77.270  1.00  0.00     0.190 C 
ATOM     30  C   UNL     1      64.518  87.977  75.751  1.00  0.00    -0.010 C 
ATOM     31  G   UNL     1      63.873  85.445  75.365  1.00  0.00     0.000 G0
ATOM     32  O   UNL     1      67.067  88.063  78.012  1.00  0.00    -0.291 OA
ATOM     33  C   UNL     1      65.541  88.651  76.285  1.00  0.00    -0.008 C 
ATOM     34  C   UNL     1      66.004  90.032  76.036  1.00  0.00     0.048 C 
BRANCH  27  35
ATOM     35  O   UNL     1      66.536  85.582  76.544  1.00  0.00    -0.381 OA
ATOM     36  H   UNL     1      66.135  85.142  75.776  1.00  0.00     0.212 HD
ENDBRANCH  27  35
ENDBRANCH  26  27
ENDBRANCH   2  26
ENDBRANCH   1   2
BRANCH   1  37
ATOM     37  O   UNL     1      63.326  85.533  80.664  1.00  0.00    -0.461 OA
BRANCH  37  38
ATOM     38  C   UNL     1      63.568  85.583  82.017  1.00  0.00     0.310 C 
ATOM     39  O   UNL     1      62.726  85.812  82.874  1.00  0.00    -0.252 OA
BRANCH  38  40
ATOM     40  C   UNL     1      65.031  85.314  82.277  1.00  0.00     0.158 C 
BRANCH  40  41
ATOM     41  C   UNL     1      65.324  83.858  82.532  1.00  0.00    -0.037 A 
ATOM     42  C   UNL     1      66.365  83.226  81.852  1.00  0.00     0.008 A 
ATOM     43  C   UNL     1      64.555  83.142  83.449  1.00  0.00     0.008 A 
ATOM     44  C   UNL     1      66.635  81.877  82.088  1.00  0.00     0.046 A 
ATOM     45  C   UNL     1      64.825  81.794  83.686  1.00  0.00     0.046 A 
ATOM     46  C   UNL     1      65.865  81.162  83.006  1.00  0.00     0.115 A 
BRANCH  46  47
ATOM     47  O   UNL     1      66.129  79.847  83.235  1.00  0.00    -0.508 OA
ATOM     48  H   UNL     1      66.772  79.534  82.575  1.00  0.00     0.293 HD
ENDBRANCH  46  47
ENDBRANCH  40  41
ENDBRANCH  38  40
ENDBRANCH  37  38
ENDBRANCH   1  37
TORSDOF 10
ENDMDL
MODEL 8
REMARK VINA RESULT:    -6.884     33.512     37.202
REMARK INTER + INTRA:         -11.856
REMARK INTER:                  -9.608
REMARK INTRA:                  -2.248
REMARK UNBOUND:                -0.143
REMARK SMILES C=C(C)[C@]12C[C@@H](C)[C@@]34O[C@](Cc5ccccc5)(O[C@@H]1[C@@H]3C=C(COC(=O)Cc1ccc(O)cc1)C[C@]1(O)C(=O)C(C)=C[C@@H]41)O2
REMARK SMILES IDX 23 1 22 2 21 3 20 4 9 5 8 6 10 7 6 8 18 10 44 11 19 12 5 13
REMARK SMILES IDX 7 14 4 15 11 16 12 17 13 18 17 19 14 20 16 21 15 22 2 23
REMARK SMILES IDX 3 24 1 25 35 26 36 27 43 28 38 29 42 30 39 32 40 33 41 34
REMARK SMILES IDX 37 35 24 37 25 38 26 39 27 40 28 41 29 42 34 43 30 44 33 45
REMARK SMILES IDX 31 46 32 47
REMARK H PARENT 37 36 32 48
REMARK Flexibility Score: 90.00
ROOT
ATOM      1  C   UNL     1      61.401  88.993  70.292  1.00  0.00     0.264 C 
ENDROOT
BRANCH   1   2
ATOM      2  C   UNL     1      62.394  87.901  70.620  1.00  0.00    -0.033 C 
ATOM      3  C   UNL     1      62.945  87.859  71.850  1.00  0.00    -0.015 C 
BRANCH   3   4
ATOM      4  C   UNL     1      64.010  86.923  72.400  1.00  0.00     0.078 C 
ATOM      5  O   UNL     1      62.826  85.023  73.451  1.00  0.00    -0.319 OA
ATOM      6  C   UNL     1      63.736  85.374  72.362  1.00  0.00     0.095 CG0
ATOM      7  C   UNL     1      63.101  85.661  74.713  1.00  0.00     0.289 C 
ATOM      8  C   UNL     1      65.121  84.637  72.580  1.00  0.00     0.023 C 
ATOM      9  G   UNL     1      62.965  84.980  71.069  1.00  0.00     0.000 G0
ATOM     10  O   UNL     1      63.087  87.080  74.590  1.00  0.00    -0.320 OA
ATOM     11  O   UNL     1      64.393  85.331  75.217  1.00  0.00    -0.313 OA
ATOM     12  C   UNL     1      64.316  87.282  73.874  1.00  0.00     0.170 C 
ATOM     13  C   UNL     1      66.060  85.450  73.523  1.00  0.00     0.049 C 
ATOM     14  C   UNL     1      65.027  83.186  73.082  1.00  0.00     0.011 C 
ATOM     15  C   UNL     1      65.267  86.263  74.548  1.00  0.00     0.122 C 
BRANCH   7  16
ATOM     16  C   UNL     1      62.044  85.222  75.707  1.00  0.00     0.135 C 
BRANCH  16  17
ATOM     17  C   UNL     1      62.567  85.214  77.122  1.00  0.00    -0.040 A 
ATOM     18  C   UNL     1      62.847  84.003  77.755  1.00  0.00     0.004 A 
ATOM     19  C   UNL     1      62.769  86.417  77.797  1.00  0.00     0.004 A 
ATOM     20  C   UNL     1      63.331  83.996  79.064  1.00  0.00     0.000 A 
ATOM     21  C   UNL     1      63.252  86.410  79.105  1.00  0.00     0.000 A 
ATOM     22  C   UNL     1      63.533  85.200  79.739  1.00  0.00     0.000 A 
ENDBRANCH  16  17
ENDBRANCH   7  16
BRANCH  15  23
ATOM     23  C   UNL     1      66.144  86.905  75.573  1.00  0.00    -0.046 C 
ATOM     24  C   UNL     1      66.679  88.263  75.229  1.00  0.00     0.042 C 
ATOM     25  C   UNL     1      66.435  86.302  76.735  1.00  0.00     0.010 C 
ENDBRANCH  15  23
ENDBRANCH   3   4
BRANCH   2  26
ATOM     26  C   UNL     1      62.638  86.951  69.462  1.00  0.00     0.078 C 
BRANCH  26  27
ATOM     27  C   UNL     1      63.443  85.686  69.755  1.00  0.00     0.140 C 
ATOM     28  C   UNL     1      62.972  84.980  71.043  1.00  0.00     0.086 CG0
ATOM     29  C   UNL     1      63.242  84.615  68.705  1.00  0.00     0.190 C 
ATOM     30  C   UNL     1      62.886  83.534  70.638  1.00  0.00    -0.010 C 
ATOM     31  G   UNL     1      63.725  85.363  72.350  1.00  0.00     0.000 G0
ATOM     32  O   UNL     1      63.313  84.786  67.497  1.00  0.00    -0.291 OA
ATOM     33  C   UNL     1      63.006  83.299  69.328  1.00  0.00    -0.008 C 
ATOM     34  C   UNL     1      62.894  82.033  68.575  1.00  0.00     0.048 C 
BRANCH  27  35
ATOM     35  O   UNL     1      64.838  85.939  69.718  1.00  0.00    -0.381 OA
ATOM     36  H   UNL     1      65.051  86.584  70.414  1.00  0.00     0.212 HD
ENDBRANCH  27  35
ENDBRANCH  26  27
ENDBRANCH   2  26
ENDBRANCH   1   2
BRANCH   1  37
ATOM     37  O   UNL     1      60.294  88.431  69.620  1.00  0.00    -0.461 OA
BRANCH  37  38
ATOM     38  C   UNL     1      59.113  89.132  69.703  1.00  0.00     0.310 C 
ATOM     39  O   UNL     1      58.944  90.272  69.296  1.00  0.00    -0.252 OA
BRANCH  38  40
ATOM     40  C   UNL     1      58.065  88.276  70.372  1.00  0.00     0.158 C 
BRANCH  40  41
ATOM     41  C   UNL     1      58.648  87.081  71.082  1.00  0.00    -0.037 A 
ATOM     42  C   UNL     1      59.044  87.186  72.415  1.00  0.00     0.008 A 
ATOM     43  C   UNL     1      58.791  85.869  70.406  1.00  0.00     0.008 A 
ATOM     44  C   UNL     1      59.584  86.080  73.072  1.00  0.00     0.046 A 
ATOM     45  C   UNL     1      59.331  84.763  71.063  1.00  0.00     0.046 A 
ATOM     46  C   UNL     1      59.727  84.869  72.396  1.00  0.00     0.115 A 
BRANCH  46  47
ATOM     47  O   UNL     1      60.255  83.790  73.037  1.00  0.00    -0.508 OA
ATOM     48  H   UNL     1      60.374  83.068  72.395  1.00  0.00     0.293 HD
ENDBRANCH  46  47
ENDBRANCH  40  41
ENDBRANCH  38  40
ENDBRANCH  37  38
ENDBRANCH   1  37
TORSDOF 10
ENDMDL
MODEL 9
REMARK VINA RESULT:    -6.849     30.973     34.947
REMARK INTER + INTRA:         -11.797
REMARK INTER:                  -9.947
REMARK INTRA:                  -1.850
REMARK UNBOUND:                -0.143
REMARK SMILES C=C(C)[C@]12C[C@@H](C)[C@@]34O[C@](Cc5ccccc5)(O[C@@H]1[C@@H]3C=C(COC(=O)Cc1ccc(O)cc1)C[C@]1(O)C(=O)C(C)=C[C@@H]41)O2
REMARK SMILES IDX 23 1 22 2 21 3 20 4 9 5 8 6 10 7 6 8 18 10 44 11 19 12 5 13
REMARK SMILES IDX 7 14 4 15 11 16 12 17 13 18 17 19 14 20 16 21 15 22 2 23
REMARK SMILES IDX 3 24 1 25 35 26 36 27 43 28 38 29 42 30 39 32 40 33 41 34
REMARK SMILES IDX 37 35 24 37 25 38 26 39 27 40 28 41 29 42 34 43 30 44 33 45
REMARK SMILES IDX 31 46 32 47
REMARK H PARENT 37 36 32 48
REMARK Flexibility Score: 90.00
ROOT
ATOM      1  C   UNL     1      63.425  88.295  71.932  1.00  0.00     0.264 C 
ENDROOT
BRANCH   1   2
ATOM      2  C   UNL     1      63.559  86.864  71.467  1.00  0.00    -0.033 C 
ATOM      3  C   UNL     1      64.625  86.512  70.718  1.00  0.00    -0.015 C 
BRANCH   3   4
ATOM      4  C   UNL     1      64.950  85.175  70.070  1.00  0.00     0.078 C 
ATOM      5  O   UNL     1      66.342  83.914  71.678  1.00  0.00    -0.319 OA
ATOM      6  C   UNL     1      65.053  83.903  70.989  1.00  0.00     0.095 CG0
ATOM      7  C   UNL     1      67.471  84.291  70.866  1.00  0.00     0.289 C 
ATOM      8  C   UNL     1      64.971  82.627  70.053  1.00  0.00     0.023 C 
ATOM      9  G   UNL     1      64.001  83.961  72.135  1.00  0.00     0.000 G0
ATOM     10  O   UNL     1      67.287  85.582  70.291  1.00  0.00    -0.320 OA
ATOM     11  O   UNL     1      67.669  83.404  69.768  1.00  0.00    -0.313 OA
ATOM     12  C   UNL     1      66.291  85.276  69.302  1.00  0.00     0.170 C 
ATOM     13  C   UNL     1      65.624  82.895  68.663  1.00  0.00     0.049 C 
ATOM     14  C   UNL     1      65.550  81.332  70.648  1.00  0.00     0.011 C 
ATOM     15  C   UNL     1      66.767  83.906  68.760  1.00  0.00     0.122 C 
BRANCH   7  16
ATOM     16  C   UNL     1      68.708  84.292  71.743  1.00  0.00     0.135 C 
BRANCH  16  17
ATOM     17  C   UNL     1      69.845  85.060  71.117  1.00  0.00    -0.040 A 
ATOM     18  C   UNL     1      69.878  86.451  71.203  1.00  0.00     0.004 A 
ATOM     19  C   UNL     1      70.864  84.377  70.453  1.00  0.00     0.004 A 
ATOM     20  C   UNL     1      70.931  87.162  70.625  1.00  0.00     0.000 A 
ATOM     21  C   UNL     1      71.916  85.088  69.875  1.00  0.00     0.000 A 
ATOM     22  C   UNL     1      71.949  86.479  69.960  1.00  0.00     0.000 A 
ENDBRANCH  16  17
ENDBRANCH   7  16
BRANCH  15  23
ATOM     23  C   UNL     1      67.523  84.041  67.478  1.00  0.00    -0.046 C 
ATOM     24  C   UNL     1      66.733  83.841  66.219  1.00  0.00     0.042 C 
ATOM     25  C   UNL     1      68.834  84.326  67.454  1.00  0.00     0.010 C 
ENDBRANCH  15  23
ENDBRANCH   3   4
BRANCH   2  26
ATOM     26  C   UNL     1      62.423  85.976  71.936  1.00  0.00     0.078 C 
BRANCH  26  27
ATOM     27  C   UNL     1      62.581  84.471  71.727  1.00  0.00     0.140 C 
ATOM     28  C   UNL     1      63.985  83.971  72.126  1.00  0.00     0.086 CG0
ATOM     29  C   UNL     1      61.678  83.661  72.634  1.00  0.00     0.190 C 
ATOM     30  C   UNL     1      63.700  82.738  72.938  1.00  0.00    -0.010 C 
ATOM     31  G   UNL     1      65.040  83.905  70.983  1.00  0.00     0.000 G0
ATOM     32  O   UNL     1      60.482  83.854  72.797  1.00  0.00    -0.291 OA
ATOM     33  C   UNL     1      62.417  82.551  73.263  1.00  0.00    -0.008 C 
ATOM     34  C   UNL     1      61.792  81.511  74.106  1.00  0.00     0.048 C 
BRANCH  27  35
ATOM     35  O   UNL     1      62.185  84.084  70.422  1.00  0.00    -0.381 OA
ATOM     36  H   UNL     1      62.813  83.418  70.096  1.00  0.00     0.212 HD
ENDBRANCH  27  35
ENDBRANCH  26  27
ENDBRANCH   2  26
ENDBRANCH   1   2
BRANCH   1  37
ATOM     37  O   UNL     1      62.936  88.311  73.257  1.00  0.00    -0.461 OA
BRANCH  37  38
ATOM     38  C   UNL     1      63.880  88.423  74.251  1.00  0.00     0.310 C 
ATOM     39  O   UNL     1      64.730  89.300  74.318  1.00  0.00    -0.252 OA
BRANCH  38  40
ATOM     40  C   UNL     1      63.703  87.299  75.243  1.00  0.00     0.158 C 
BRANCH  40  41
ATOM     41  C   UNL     1      64.995  86.598  75.575  1.00  0.00    -0.037 A 
ATOM     42  C   UNL     1      65.487  86.624  76.881  1.00  0.00     0.008 A 
ATOM     43  C   UNL     1      65.700  85.924  74.579  1.00  0.00     0.008 A 
ATOM     44  C   UNL     1      66.684  85.977  77.188  1.00  0.00     0.046 A 
ATOM     45  C   UNL     1      66.896  85.276  74.886  1.00  0.00     0.046 A 
ATOM     46  C   UNL     1      67.389  85.302  76.190  1.00  0.00     0.115 A 
BRANCH  46  47
ATOM     47  O   UNL     1      68.556  84.671  76.490  1.00  0.00    -0.508 OA
ATOM     48  H   UNL     1      68.968  84.360  75.665  1.00  0.00     0.293 HD
ENDBRANCH  46  47
ENDBRANCH  40  41
ENDBRANCH  38  40
ENDBRANCH  37  38
ENDBRANCH   1  37
TORSDOF 10
ENDMDL
MODEL 10
REMARK VINA RESULT:    -6.804     34.071     37.206
REMARK INTER + INTRA:         -11.720
REMARK INTER:                  -9.726
REMARK INTRA:                  -1.994
REMARK UNBOUND:                -0.143
REMARK SMILES C=C(C)[C@]12C[C@@H](C)[C@@]34O[C@](Cc5ccccc5)(O[C@@H]1[C@@H]3C=C(COC(=O)Cc1ccc(O)cc1)C[C@]1(O)C(=O)C(C)=C[C@@H]41)O2
REMARK SMILES IDX 23 1 22 2 21 3 20 4 9 5 8 6 10 7 6 8 18 10 44 11 19 12 5 13
REMARK SMILES IDX 7 14 4 15 11 16 12 17 13 18 17 19 14 20 16 21 15 22 2 23
REMARK SMILES IDX 3 24 1 25 35 26 36 27 43 28 38 29 42 30 39 32 40 33 41 34
REMARK SMILES IDX 37 35 24 37 25 38 26 39 27 40 28 41 29 42 34 43 30 44 33 45
REMARK SMILES IDX 31 46 32 47
REMARK H PARENT 37 36 32 48
REMARK Flexibility Score: 90.00
ROOT
ATOM      1  C   UNL     1      63.146  89.561  71.963  1.00  0.00     0.264 C 
ENDROOT
BRANCH   1   2
ATOM      2  C   UNL     1      62.821  88.395  71.057  1.00  0.00    -0.033 C 
ATOM      3  C   UNL     1      63.829  87.680  70.517  1.00  0.00    -0.015 C 
BRANCH   3   4
ATOM      4  C   UNL     1      63.771  86.526  69.528  1.00  0.00     0.078 C 
ATOM      5  O   UNL     1      63.737  84.440  70.856  1.00  0.00    -0.319 OA
ATOM      6  C   UNL     1      62.950  85.243  69.921  1.00  0.00     0.095 CG0
ATOM      7  C   UNL     1      65.134  84.311  70.531  1.00  0.00     0.289 C 
ATOM      8  C   UNL     1      62.699  84.410  68.598  1.00  0.00     0.023 C 
ATOM      9  G   UNL     1      61.672  85.629  70.722  1.00  0.00     0.000 G0
ATOM     10  O   UNL     1      65.763  85.586  70.435  1.00  0.00    -0.320 OA
ATOM     11  O   UNL     1      65.342  83.682  69.269  1.00  0.00    -0.313 OA
ATOM     12  C   UNL     1      65.206  86.048  69.194  1.00  0.00     0.170 C 
ATOM     13  C   UNL     1      63.887  84.552  67.598  1.00  0.00     0.049 C 
ATOM     14  C   UNL     1      62.382  82.919  68.805  1.00  0.00     0.011 C 
ATOM     15  C   UNL     1      65.216  84.766  68.325  1.00  0.00     0.122 C 
BRANCH   7  16
ATOM     16  C   UNL     1      65.800  83.491  71.619  1.00  0.00     0.135 C 
BRANCH  16  17
ATOM     17  C   UNL     1      64.795  82.881  72.563  1.00  0.00    -0.040 A 
ATOM     18  C   UNL     1      64.469  83.533  73.752  1.00  0.00     0.004 A 
ATOM     19  C   UNL     1      64.193  81.663  72.247  1.00  0.00     0.004 A 
ATOM     20  C   UNL     1      63.539  82.968  74.625  1.00  0.00     0.000 A 
ATOM     21  C   UNL     1      63.263  81.098  73.121  1.00  0.00     0.000 A 
ATOM     22  C   UNL     1      62.937  81.751  74.309  1.00  0.00     0.000 A 
ENDBRANCH  16  17
ENDBRANCH   7  16
BRANCH  15  23
ATOM     23  C   UNL     1      66.389  84.724  67.401  1.00  0.00    -0.046 C 
ATOM     24  C   UNL     1      67.021  86.044  67.072  1.00  0.00     0.042 C 
ATOM     25  C   UNL     1      66.851  83.571  66.894  1.00  0.00     0.010 C 
ENDBRANCH  15  23
ENDBRANCH   3   4
BRANCH   2  26
ATOM     26  C   UNL     1      61.330  88.177  70.879  1.00  0.00     0.078 C 
BRANCH  26  27
ATOM     27  C   UNL     1      60.890  86.876  70.212  1.00  0.00     0.140 C 
ATOM     28  C   UNL     1      61.684  85.658  70.728  1.00  0.00     0.086 CG0
ATOM     29  C   UNL     1      59.463  86.502  70.554  1.00  0.00     0.190 C 
ATOM     30  C   UNL     1      60.619  84.627  70.982  1.00  0.00    -0.010 C 
ATOM     31  G   UNL     1      62.947  85.264  69.907  1.00  0.00     0.000 G0
ATOM     32  O   UNL     1      58.501  87.253  70.493  1.00  0.00    -0.291 OA
ATOM     33  C   UNL     1      59.362  85.076  70.919  1.00  0.00    -0.008 C 
ATOM     34  C   UNL     1      58.088  84.378  71.188  1.00  0.00     0.048 C 
BRANCH  27  35
ATOM     35  O   UNL     1      60.879  86.995  68.799  1.00  0.00    -0.381 OA
ATOM     36  H   UNL     1      59.989  86.770  68.479  1.00  0.00     0.212 HD
ENDBRANCH  27  35
ENDBRANCH  26  27
ENDBRANCH   2  26
ENDBRANCH   1   2
BRANCH   1  37
ATOM     37  O   UNL     1      64.398  89.339  72.577  1.00  0.00    -0.461 OA
BRANCH  37  38
ATOM     38  C   UNL     1      64.377  89.114  73.934  1.00  0.00     0.310 C 
ATOM     39  O   UNL     1      63.890  89.868  74.764  1.00  0.00    -0.252 OA
BRANCH  38  40
ATOM     40  C   UNL     1      65.048  87.795  74.236  1.00  0.00     0.158 C 
BRANCH  40  41
ATOM     41  C   UNL     1      64.287  86.963  75.235  1.00  0.00    -0.037 A 
ATOM     42  C   UNL     1      62.899  86.852  75.137  1.00  0.00     0.008 A 
ATOM     43  C   UNL     1      64.967  86.304  76.258  1.00  0.00     0.008 A 
ATOM     44  C   UNL     1      62.194  86.083  76.062  1.00  0.00     0.046 A 
ATOM     45  C   UNL     1      64.262  85.534  77.183  1.00  0.00     0.046 A 
ATOM     46  C   UNL     1      62.876  85.423  77.086  1.00  0.00     0.115 A 
BRANCH  46  47
ATOM     47  O   UNL     1      62.187  84.673  77.988  1.00  0.00    -0.508 OA
ATOM     48  H   UNL     1      61.283  84.531  77.657  1.00  0.00     0.293 HD
ENDBRANCH  46  47
ENDBRANCH  40  41
ENDBRANCH  38  40
ENDBRANCH  37  38
ENDBRANCH   1  37
TORSDOF 10
ENDMDL
