MODEL 1
REMARK VINA RESULT:    -6.404      0.000      0.000
REMARK INTER + INTRA:         -10.863
REMARK INTER:                 -10.335
REMARK INTRA:                  -0.528
REMARK UNBOUND:                -0.528
REMARK SMILES COc1cc(CNC(=O)CCCCCCC(C)C)ccc1O
REMARK SMILES IDX 11 1 10 2 8 3 7 4 9 6 6 7 5 8 3 9 21 10 4 11 20 12 19 13
REMARK SMILES IDX 2 14 1 15 22 16 12 18 13 19 14 20 15 21 16 22 17 23 18 24
REMARK H PARENT 7 5 22 17
REMARK Flexibility Score: inf
ROOT
ATOM      1  C   UNL     1      93.166 100.441  72.683  1.00  0.00     0.010 C 
ENDROOT
BRANCH   1   2
ATOM      2  C   UNL     1      92.551  99.747  73.930  1.00  0.00     0.100 C 
BRANCH   2   3
ATOM      3  C   UNL     1      93.534  98.951  74.700  1.00  0.00     0.220 C 
ATOM      4  N   UNL     1      93.117  98.126  75.704  1.00  0.00    -0.352 N 
ATOM      5  H   UNL     1      92.124  98.152  75.885  1.00  0.00     0.163 HD
ATOM      6  O   UNL     1      94.748  99.033  74.392  1.00  0.00    -0.275 OA
BRANCH   4   7
ATOM      7  C   UNL     1      93.966  97.268  76.474  1.00  0.00     0.151 C 
BRANCH   7   8
ATOM      8  C   UNL     1      93.220  96.203  77.200  1.00  0.00    -0.025 A 
ATOM      9  C   UNL     1      93.045  94.633  79.085  1.00  0.00     0.160 A 
ATOM     10  C   UNL     1      91.785  94.204  78.613  1.00  0.00     0.157 A 
ATOM     11  C   UNL     1      93.760  95.614  78.366  1.00  0.00     0.056 A 
ATOM     12  C   UNL     1      91.255  94.755  77.432  1.00  0.00     0.050 A 
ATOM     13  C   UNL     1      91.961  95.755  76.736  1.00  0.00     0.009 A 
BRANCH   9  14
ATOM     14  O   UNL     1      93.588  94.076  80.210  1.00  0.00    -0.493 OA
ATOM     15  C   UNL     1      94.962  93.677  80.055  1.00  0.00     0.278 C 
ENDBRANCH   9  14
BRANCH  10  16
ATOM     16  O   UNL     1      91.075  93.260  79.284  1.00  0.00    -0.504 OA
ATOM     17  H   UNL     1      91.089  92.438  78.788  1.00  0.00     0.293 HD
ENDBRANCH  10  16
ENDBRANCH   7   8
ENDBRANCH   4   7
ENDBRANCH   2   3
ENDBRANCH   1   2
BRANCH   1  18
ATOM     18  C   UNL     1      92.314 100.210  71.403  1.00  0.00     0.001 C 
BRANCH  18  19
ATOM     19  C   UNL     1      90.789 100.083  71.679  1.00  0.00     0.000 C 
BRANCH  19  20
ATOM     20  C   UNL     1      89.957 100.236  70.375  1.00  0.00     0.000 C 
BRANCH  20  21
ATOM     21  C   UNL     1      89.103  98.989  70.014  1.00  0.00     0.003 C 
BRANCH  21  22
ATOM     22  C   UNL     1      88.342  99.094  68.653  1.00  0.00    -0.017 C 
ATOM     23  C   UNL     1      88.611  97.836  67.780  1.00  0.00     0.007 C 
ATOM     24  C   UNL     1      88.666 100.391  67.853  1.00  0.00     0.007 C 
ENDBRANCH  21  22
ENDBRANCH  20  21
ENDBRANCH  19  20
ENDBRANCH  18  19
ENDBRANCH   1  18
TORSDOF 11
ENDMDL
MODEL 2
REMARK VINA RESULT:    -6.073     15.856     17.477
REMARK INTER + INTRA:         -10.329
REMARK INTER:                  -9.372
REMARK INTRA:                  -0.957
REMARK UNBOUND:                -0.528
REMARK SMILES COc1cc(CNC(=O)CCCCCCC(C)C)ccc1O
REMARK SMILES IDX 11 1 10 2 8 3 7 4 9 6 6 7 5 8 3 9 21 10 4 11 20 12 19 13
REMARK SMILES IDX 2 14 1 15 22 16 12 18 13 19 14 20 15 21 16 22 17 23 18 24
REMARK H PARENT 7 5 22 17
REMARK Flexibility Score: inf
ROOT
ATOM      1  C   UNL     1      97.915  82.874  79.105  1.00  0.00     0.010 C 
ENDROOT
BRANCH   1   2
ATOM      2  C   UNL     1      99.043  83.200  80.122  1.00  0.00     0.100 C 
BRANCH   2   3
ATOM      3  C   UNL     1      98.929  82.437  81.385  1.00  0.00     0.220 C 
ATOM      4  N   UNL     1      98.425  83.030  82.506  1.00  0.00    -0.352 N 
ATOM      5  H   UNL     1      98.193  84.006  82.397  1.00  0.00     0.163 HD
ATOM      6  O   UNL     1      99.283  81.232  81.395  1.00  0.00    -0.275 OA
BRANCH   4   7
ATOM      7  C   UNL     1      98.215  82.378  83.763  1.00  0.00     0.151 C 
BRANCH   7   8
ATOM      8  C   UNL     1      97.331  83.146  84.682  1.00  0.00    -0.025 A 
ATOM      9  C   UNL     1      95.633  83.192  86.460  1.00  0.00     0.160 A 
ATOM     10  C   UNL     1      95.677  84.603  86.469  1.00  0.00     0.157 A 
ATOM     11  C   UNL     1      96.445  82.476  85.556  1.00  0.00     0.056 A 
ATOM     12  C   UNL     1      96.526  85.283  85.577  1.00  0.00     0.050 A 
ATOM     13  C   UNL     1      97.356  84.561  84.697  1.00  0.00     0.009 A 
BRANCH   9  14
ATOM     14  O   UNL     1      94.781  82.522  87.296  1.00  0.00    -0.493 OA
ATOM     15  C   UNL     1      93.549  82.121  86.669  1.00  0.00     0.278 C 
ENDBRANCH   9  14
BRANCH  10  16
ATOM     16  O   UNL     1      94.904  85.319  87.328  1.00  0.00    -0.504 OA
ATOM     17  H   UNL     1      94.033  85.444  86.946  1.00  0.00     0.293 HD
ENDBRANCH  10  16
ENDBRANCH   7   8
ENDBRANCH   4   7
ENDBRANCH   2   3
ENDBRANCH   1   2
BRANCH   1  18
ATOM     18  C   UNL     1      97.565  84.094  78.205  1.00  0.00     0.001 C 
BRANCH  18  19
ATOM     19  C   UNL     1      97.570  83.772  76.684  1.00  0.00     0.000 C 
BRANCH  19  20
ATOM     20  C   UNL     1      98.830  82.958  76.276  1.00  0.00     0.000 C 
BRANCH  20  21
ATOM     21  C   UNL     1      99.980  83.817  75.681  1.00  0.00     0.003 C 
BRANCH  21  22
ATOM     22  C   UNL     1     101.194  84.033  76.643  1.00  0.00    -0.017 C 
ATOM     23  C   UNL     1     102.420  84.576  75.856  1.00  0.00     0.007 C 
ATOM     24  C   UNL     1     101.585  82.761  77.451  1.00  0.00     0.007 C 
ENDBRANCH  21  22
ENDBRANCH  20  21
ENDBRANCH  19  20
ENDBRANCH  18  19
ENDBRANCH   1  18
TORSDOF 11
ENDMDL
MODEL 3
REMARK VINA RESULT:    -5.794     19.767     23.026
REMARK INTER + INTRA:          -9.879
REMARK INTER:                  -9.179
REMARK INTRA:                  -0.700
REMARK UNBOUND:                -0.528
REMARK SMILES COc1cc(CNC(=O)CCCCCCC(C)C)ccc1O
REMARK SMILES IDX 11 1 10 2 8 3 7 4 9 6 6 7 5 8 3 9 21 10 4 11 20 12 19 13
REMARK SMILES IDX 2 14 1 15 22 16 12 18 13 19 14 20 15 21 16 22 17 23 18 24
REMARK H PARENT 7 5 22 17
REMARK Flexibility Score: inf
ROOT
ATOM      1  C   UNL     1      76.430  87.340  68.143  1.00  0.00     0.010 C 
ENDROOT
BRANCH   1   2
ATOM      2  C   UNL     1      77.727  86.895  67.413  1.00  0.00     0.100 C 
BRANCH   2   3
ATOM      3  C   UNL     1      77.945  85.431  67.448  1.00  0.00     0.220 C 
ATOM      4  N   UNL     1      77.359  84.625  66.516  1.00  0.00    -0.352 N 
ATOM      5  H   UNL     1      76.756  85.104  65.864  1.00  0.00     0.163 HD
ATOM      6  O   UNL     1      78.696  84.956  68.334  1.00  0.00    -0.275 OA
BRANCH   4   7
ATOM      7  C   UNL     1      77.543  83.209  66.416  1.00  0.00     0.151 C 
BRANCH   7   8
ATOM      8  C   UNL     1      76.342  82.496  65.901  1.00  0.00    -0.025 A 
ATOM      9  C   UNL     1      73.922  82.066  65.983  1.00  0.00     0.160 A 
ATOM     10  C   UNL     1      74.041  81.175  64.894  1.00  0.00     0.157 A 
ATOM     11  C   UNL     1      75.074  82.704  66.489  1.00  0.00     0.056 A 
ATOM     12  C   UNL     1      75.304  80.929  64.325  1.00  0.00     0.050 A 
ATOM     13  C   UNL     1      76.445  81.592  64.817  1.00  0.00     0.009 A 
BRANCH   9  14
ATOM     14  O   UNL     1      72.704  82.282  66.569  1.00  0.00    -0.493 OA
ATOM     15  C   UNL     1      72.101  83.538  66.209  1.00  0.00     0.278 C 
ENDBRANCH   9  14
BRANCH  10  16
ATOM     16  O   UNL     1      72.949  80.545  64.388  1.00  0.00    -0.504 OA
ATOM     17  H   UNL     1      72.156  81.023  64.644  1.00  0.00     0.293 HD
ENDBRANCH  10  16
ENDBRANCH   7   8
ENDBRANCH   4   7
ENDBRANCH   2   3
ENDBRANCH   1   2
BRANCH   1  18
ATOM     18  C   UNL     1      76.575  87.273  69.690  1.00  0.00     0.001 C 
BRANCH  18  19
ATOM     19  C   UNL     1      75.367  86.602  70.404  1.00  0.00     0.000 C 
BRANCH  19  20
ATOM     20  C   UNL     1      74.182  87.593  70.575  1.00  0.00     0.000 C 
BRANCH  20  21
ATOM     21  C   UNL     1      74.579  88.961  71.196  1.00  0.00     0.003 C 
BRANCH  21  22
ATOM     22  C   UNL     1      73.507  89.576  72.154  1.00  0.00    -0.017 C 
ATOM     23  C   UNL     1      72.157  88.815  72.020  1.00  0.00     0.007 C 
ATOM     24  C   UNL     1      73.293  91.105  71.954  1.00  0.00     0.007 C 
ENDBRANCH  21  22
ENDBRANCH  20  21
ENDBRANCH  19  20
ENDBRANCH  18  19
ENDBRANCH   1  18
TORSDOF 11
ENDMDL
MODEL 4
REMARK VINA RESULT:    -5.757     20.041     23.177
REMARK INTER + INTRA:          -9.819
REMARK INTER:                  -8.941
REMARK INTRA:                  -0.878
REMARK UNBOUND:                -0.528
REMARK SMILES COc1cc(CNC(=O)CCCCCCC(C)C)ccc1O
REMARK SMILES IDX 11 1 10 2 8 3 7 4 9 6 6 7 5 8 3 9 21 10 4 11 20 12 19 13
REMARK SMILES IDX 2 14 1 15 22 16 12 18 13 19 14 20 15 21 16 22 17 23 18 24
REMARK H PARENT 7 5 22 17
REMARK Flexibility Score: inf
ROOT
ATOM      1  C   UNL     1      77.177  82.775  66.153  1.00  0.00     0.010 C 
ENDROOT
BRANCH   1   2
ATOM      2  C   UNL     1      78.262  83.759  66.670  1.00  0.00     0.100 C 
BRANCH   2   3
ATOM      3  C   UNL     1      77.958  84.316  68.007  1.00  0.00     0.220 C 
ATOM      4  N   UNL     1      76.828  83.936  68.671  1.00  0.00    -0.352 N 
ATOM      5  H   UNL     1      76.231  83.304  68.158  1.00  0.00     0.163 HD
ATOM      6  O   UNL     1      78.771  85.121  68.523  1.00  0.00    -0.275 OA
BRANCH   4   7
ATOM      7  C   UNL     1      76.460  84.362  69.987  1.00  0.00     0.151 C 
BRANCH   7   8
ATOM      8  C   UNL     1      75.664  85.620  69.996  1.00  0.00    -0.025 A 
ATOM      9  C   UNL     1      73.489  86.764  69.909  1.00  0.00     0.160 A 
ATOM     10  C   UNL     1      74.136  88.010  70.057  1.00  0.00     0.157 A 
ATOM     11  C   UNL     1      74.257  85.582  69.861  1.00  0.00     0.056 A 
ATOM     12  C   UNL     1      75.538  88.064  70.153  1.00  0.00     0.050 A 
ATOM     13  C   UNL     1      76.297  86.878  70.134  1.00  0.00     0.009 A 
BRANCH   9  14
ATOM     14  O   UNL     1      72.128  86.704  69.774  1.00  0.00    -0.493 OA
ATOM     15  C   UNL     1      71.681  86.675  68.407  1.00  0.00     0.278 C 
ENDBRANCH   9  14
BRANCH  10  16
ATOM     16  O   UNL     1      73.421  89.165  70.104  1.00  0.00    -0.504 OA
ATOM     17  H   UNL     1      73.777  89.788  69.466  1.00  0.00     0.293 HD
ENDBRANCH  10  16
ENDBRANCH   7   8
ENDBRANCH   4   7
ENDBRANCH   2   3
ENDBRANCH   1   2
BRANCH   1  18
ATOM     18  C   UNL     1      76.781  83.061  64.676  1.00  0.00     0.001 C 
BRANCH  18  19
ATOM     19  C   UNL     1      75.708  82.086  64.115  1.00  0.00     0.000 C 
BRANCH  19  20
ATOM     20  C   UNL     1      75.112  81.186  65.234  1.00  0.00     0.000 C 
BRANCH  20  21
ATOM     21  C   UNL     1      73.561  81.209  65.312  1.00  0.00     0.003 C 
BRANCH  21  22
ATOM     22  C   UNL     1      72.839  81.168  63.925  1.00  0.00    -0.017 C 
ATOM     23  C   UNL     1      71.525  81.998  63.971  1.00  0.00     0.007 C 
ATOM     24  C   UNL     1      72.556  79.726  63.410  1.00  0.00     0.007 C 
ENDBRANCH  21  22
ENDBRANCH  20  21
ENDBRANCH  19  20
ENDBRANCH  18  19
ENDBRANCH   1  18
TORSDOF 11
ENDMDL
MODEL 5
REMARK VINA RESULT:    -5.728     17.960     21.165
REMARK INTER + INTRA:          -9.771
REMARK INTER:                  -9.099
REMARK INTRA:                  -0.672
REMARK UNBOUND:                -0.528
REMARK SMILES COc1cc(CNC(=O)CCCCCCC(C)C)ccc1O
REMARK SMILES IDX 11 1 10 2 8 3 7 4 9 6 6 7 5 8 3 9 21 10 4 11 20 12 19 13
REMARK SMILES IDX 2 14 1 15 22 16 12 18 13 19 14 20 15 21 16 22 17 23 18 24
REMARK H PARENT 7 5 22 17
REMARK Flexibility Score: inf
ROOT
ATOM      1  C   UNL     1      75.242  88.804  69.855  1.00  0.00     0.010 C 
ENDROOT
BRANCH   1   2
ATOM      2  C   UNL     1      76.446  87.841  70.050  1.00  0.00     0.100 C 
BRANCH   2   3
ATOM      3  C   UNL     1      76.143  86.442  69.676  1.00  0.00     0.220 C 
ATOM      4  N   UNL     1      77.152  85.540  69.507  1.00  0.00    -0.352 N 
ATOM      5  H   UNL     1      78.080  85.921  69.614  1.00  0.00     0.163 HD
ATOM      6  O   UNL     1      74.942  86.101  69.542  1.00  0.00    -0.275 OA
BRANCH   4   7
ATOM      7  C   UNL     1      76.978  84.152  69.203  1.00  0.00     0.151 C 
BRANCH   7   8
ATOM      8  C   UNL     1      76.964  83.868  67.741  1.00  0.00    -0.025 A 
ATOM      9  C   UNL     1      75.793  83.041  65.743  1.00  0.00     0.160 A 
ATOM     10  C   UNL     1      76.914  83.366  64.949  1.00  0.00     0.157 A 
ATOM     11  C   UNL     1      75.833  83.277  67.134  1.00  0.00     0.056 A 
ATOM     12  C   UNL     1      78.060  83.919  65.548  1.00  0.00     0.050 A 
ATOM     13  C   UNL     1      78.083  84.179  66.932  1.00  0.00     0.009 A 
BRANCH   9  14
ATOM     14  O   UNL     1      74.688  82.466  65.176  1.00  0.00    -0.493 OA
ATOM     15  C   UNL     1      74.615  81.041  65.365  1.00  0.00     0.278 C 
ENDBRANCH   9  14
BRANCH  10  16
ATOM     16  O   UNL     1      76.904  83.148  63.607  1.00  0.00    -0.504 OA
ATOM     17  H   UNL     1      76.119  82.648  63.371  1.00  0.00     0.293 HD
ENDBRANCH  10  16
ENDBRANCH   7   8
ENDBRANCH   4   7
ENDBRANCH   2   3
ENDBRANCH   1   2
BRANCH   1  18
ATOM     18  C   UNL     1      74.541  89.148  71.200  1.00  0.00     0.001 C 
BRANCH  18  19
ATOM     19  C   UNL     1      74.542  90.665  71.537  1.00  0.00     0.000 C 
BRANCH  19  20
ATOM     20  C   UNL     1      75.956  91.288  71.364  1.00  0.00     0.000 C 
BRANCH  20  21
ATOM     21  C   UNL     1      75.970  92.842  71.347  1.00  0.00     0.003 C 
BRANCH  21  22
ATOM     22  C   UNL     1      77.068  93.492  72.251  1.00  0.00    -0.017 C 
ATOM     23  C   UNL     1      77.540  94.844  71.646  1.00  0.00     0.007 C 
ATOM     24  C   UNL     1      78.287  92.561  72.522  1.00  0.00     0.007 C 
ENDBRANCH  21  22
ENDBRANCH  20  21
ENDBRANCH  19  20
ENDBRANCH  18  19
ENDBRANCH   1  18
TORSDOF 11
ENDMDL
MODEL 6
REMARK VINA RESULT:    -5.535     15.813     17.935
REMARK INTER + INTRA:          -9.461
REMARK INTER:                  -8.213
REMARK INTRA:                  -1.248
REMARK UNBOUND:                -0.528
REMARK SMILES COc1cc(CNC(=O)CCCCCCC(C)C)ccc1O
REMARK SMILES IDX 11 1 10 2 8 3 7 4 9 6 6 7 5 8 3 9 21 10 4 11 20 12 19 13
REMARK SMILES IDX 2 14 1 15 22 16 12 18 13 19 14 20 15 21 16 22 17 23 18 24
REMARK H PARENT 7 5 22 17
REMARK Flexibility Score: inf
ROOT
ATOM      1  C   UNL     1     100.124  80.693  78.999  1.00  0.00     0.010 C 
ENDROOT
BRANCH   1   2
ATOM      2  C   UNL     1      98.849  81.477  79.413  1.00  0.00     0.100 C 
BRANCH   2   3
ATOM      3  C   UNL     1      99.033  82.288  80.638  1.00  0.00     0.220 C 
ATOM      4  N   UNL     1      99.336  81.686  81.824  1.00  0.00    -0.352 N 
ATOM      5  H   UNL     1      99.374  80.678  81.787  1.00  0.00     0.163 HD
ATOM      6  O   UNL     1      98.928  83.536  80.554  1.00  0.00    -0.275 OA
BRANCH   4   7
ATOM      7  C   UNL     1      99.593  82.369  83.056  1.00  0.00     0.151 C 
BRANCH   7   8
ATOM      8  C   UNL     1      98.460  82.288  84.018  1.00  0.00    -0.025 A 
ATOM      9  C   UNL     1      96.631  83.376  85.250  1.00  0.00     0.160 A 
ATOM     10  C   UNL     1      96.272  82.134  85.819  1.00  0.00     0.157 A 
ATOM     11  C   UNL     1      97.731  83.447  84.371  1.00  0.00     0.056 A 
ATOM     12  C   UNL     1      97.014  80.981  85.506  1.00  0.00     0.050 A 
ATOM     13  C   UNL     1      98.094  81.054  84.605  1.00  0.00     0.009 A 
BRANCH   9  14
ATOM     14  O   UNL     1      95.940  84.511  85.578  1.00  0.00    -0.493 OA
ATOM     15  C   UNL     1      96.783  85.651  85.826  1.00  0.00     0.278 C 
ENDBRANCH   9  14
BRANCH  10  16
ATOM     16  O   UNL     1      95.217  82.037  86.670  1.00  0.00    -0.504 OA
ATOM     17  H   UNL     1      95.491  81.574  87.466  1.00  0.00     0.293 HD
ENDBRANCH  10  16
ENDBRANCH   7   8
ENDBRANCH   4   7
ENDBRANCH   2   3
ENDBRANCH   1   2
BRANCH   1  18
ATOM     18  C   UNL     1     101.342  81.632  78.769  1.00  0.00     0.001 C 
BRANCH  18  19
ATOM     19  C   UNL     1     101.443  82.184  77.318  1.00  0.00     0.000 C 
BRANCH  19  20
ATOM     20  C   UNL     1     100.855  83.619  77.210  1.00  0.00     0.000 C 
BRANCH  20  21
ATOM     21  C   UNL     1     100.088  83.894  75.887  1.00  0.00     0.003 C 
BRANCH  21  22
ATOM     22  C   UNL     1      98.555  83.590  75.949  1.00  0.00    -0.017 C 
ATOM     23  C   UNL     1      97.930  84.202  77.234  1.00  0.00     0.007 C 
ATOM     24  C   UNL     1      98.214  82.074  75.845  1.00  0.00     0.007 C 
ENDBRANCH  21  22
ENDBRANCH  20  21
ENDBRANCH  19  20
ENDBRANCH  18  19
ENDBRANCH   1  18
TORSDOF 11
ENDMDL
MODEL 7
REMARK VINA RESULT:    -5.530     19.920     22.717
REMARK INTER + INTRA:          -9.453
REMARK INTER:                  -7.446
REMARK INTRA:                  -2.007
REMARK UNBOUND:                -0.528
REMARK SMILES COc1cc(CNC(=O)CCCCCCC(C)C)ccc1O
REMARK SMILES IDX 11 1 10 2 8 3 7 4 9 6 6 7 5 8 3 9 21 10 4 11 20 12 19 13
REMARK SMILES IDX 2 14 1 15 22 16 12 18 13 19 14 20 15 21 16 22 17 23 18 24
REMARK H PARENT 7 5 22 17
REMARK Flexibility Score: inf
ROOT
ATOM      1  C   UNL     1      75.590  88.485  69.840  1.00  0.00     0.010 C 
ENDROOT
BRANCH   1   2
ATOM      2  C   UNL     1      74.534  87.575  70.525  1.00  0.00     0.100 C 
BRANCH   2   3
ATOM      3  C   UNL     1      74.065  86.470  69.659  1.00  0.00     0.220 C 
ATOM      4  N   UNL     1      73.494  86.737  68.449  1.00  0.00    -0.352 N 
ATOM      5  H   UNL     1      73.390  87.719  68.240  1.00  0.00     0.163 HD
ATOM      6  O   UNL     1      74.226  85.289  70.052  1.00  0.00    -0.275 OA
BRANCH   4   7
ATOM      7  C   UNL     1      73.058  85.752  67.506  1.00  0.00     0.151 C 
BRANCH   7   8
ATOM      8  C   UNL     1      73.973  85.611  66.340  1.00  0.00    -0.025 A 
ATOM      9  C   UNL     1      74.996  84.214  64.593  1.00  0.00     0.160 A 
ATOM     10  C   UNL     1      75.682  85.341  64.090  1.00  0.00     0.157 A 
ATOM     11  C   UNL     1      74.163  84.353  65.724  1.00  0.00     0.056 A 
ATOM     12  C   UNL     1      75.531  86.590  64.719  1.00  0.00     0.050 A 
ATOM     13  C   UNL     1      74.675  86.728  65.830  1.00  0.00     0.009 A 
BRANCH   9  14
ATOM     14  O   UNL     1      75.166  82.986  64.013  1.00  0.00    -0.493 OA
ATOM     15  C   UNL     1      74.085  82.600  63.145  1.00  0.00     0.278 C 
ENDBRANCH   9  14
BRANCH  10  16
ATOM     16  O   UNL     1      76.492  85.236  63.004  1.00  0.00    -0.504 OA
ATOM     17  H   UNL     1      75.972  84.963  62.244  1.00  0.00     0.293 HD
ENDBRANCH  10  16
ENDBRANCH   7   8
ENDBRANCH   4   7
ENDBRANCH   2   3
ENDBRANCH   1   2
BRANCH   1  18
ATOM     18  C   UNL     1      76.900  87.715  69.506  1.00  0.00     0.001 C 
BRANCH  18  19
ATOM     19  C   UNL     1      77.195  87.613  67.983  1.00  0.00     0.000 C 
BRANCH  19  20
ATOM     20  C   UNL     1      78.316  86.578  67.686  1.00  0.00     0.000 C 
BRANCH  20  21
ATOM     21  C   UNL     1      78.334  85.362  68.654  1.00  0.00     0.003 C 
BRANCH  21  22
ATOM     22  C   UNL     1      77.944  83.999  67.995  1.00  0.00    -0.017 C 
ATOM     23  C   UNL     1      78.262  84.021  66.473  1.00  0.00     0.007 C 
ATOM     24  C   UNL     1      76.462  83.589  68.236  1.00  0.00     0.007 C 
ENDBRANCH  21  22
ENDBRANCH  20  21
ENDBRANCH  19  20
ENDBRANCH  18  19
ENDBRANCH   1  18
TORSDOF 11
ENDMDL
MODEL 8
REMARK VINA RESULT:    -5.315     17.007     19.941
REMARK INTER + INTRA:          -9.105
REMARK INTER:                  -8.376
REMARK INTRA:                  -0.729
REMARK UNBOUND:                -0.528
REMARK SMILES COc1cc(CNC(=O)CCCCCCC(C)C)ccc1O
REMARK SMILES IDX 11 1 10 2 8 3 7 4 9 6 6 7 5 8 3 9 21 10 4 11 20 12 19 13
REMARK SMILES IDX 2 14 1 15 22 16 12 18 13 19 14 20 15 21 16 22 17 23 18 24
REMARK H PARENT 7 5 22 17
REMARK Flexibility Score: inf
ROOT
ATOM      1  C   UNL     1      74.394  91.580  70.465  1.00  0.00     0.010 C 
ENDROOT
BRANCH   1   2
ATOM      2  C   UNL     1      75.411  90.556  71.040  1.00  0.00     0.100 C 
BRANCH   2   3
ATOM      3  C   UNL     1      74.891  89.171  71.073  1.00  0.00     0.220 C 
ATOM      4  N   UNL     1      75.529  88.179  70.388  1.00  0.00    -0.352 N 
ATOM      5  H   UNL     1      76.325  88.485  69.847  1.00  0.00     0.163 HD
ATOM      6  O   UNL     1      73.871  88.927  71.763  1.00  0.00    -0.275 OA
BRANCH   4   7
ATOM      7  C   UNL     1      75.154  86.797  70.393  1.00  0.00     0.151 C 
BRANCH   7   8
ATOM      8  C   UNL     1      76.086  85.933  69.618  1.00  0.00    -0.025 A 
ATOM      9  C   UNL     1      76.471  84.005  68.139  1.00  0.00     0.160 A 
ATOM     10  C   UNL     1      77.850  84.307  68.102  1.00  0.00     0.157 A 
ATOM     11  C   UNL     1      75.604  84.808  68.910  1.00  0.00     0.056 A 
ATOM     12  C   UNL     1      78.347  85.400  68.833  1.00  0.00     0.050 A 
ATOM     13  C   UNL     1      77.472  86.215  69.577  1.00  0.00     0.009 A 
BRANCH   9  14
ATOM     14  O   UNL     1      75.982  82.921  67.464  1.00  0.00    -0.493 OA
ATOM     15  C   UNL     1      75.545  83.219  66.125  1.00  0.00     0.278 C 
ENDBRANCH   9  14
BRANCH  10  16
ATOM     16  O   UNL     1      78.708  83.550  67.369  1.00  0.00    -0.504 OA
ATOM     17  H   UNL     1      78.370  83.459  66.475  1.00  0.00     0.293 HD
ENDBRANCH  10  16
ENDBRANCH   7   8
ENDBRANCH   4   7
ENDBRANCH   2   3
ENDBRANCH   1   2
BRANCH   1  18
ATOM     18  C   UNL     1      73.800  92.501  71.569  1.00  0.00     0.001 C 
BRANCH  18  19
ATOM     19  C   UNL     1      74.718  93.696  71.948  1.00  0.00     0.000 C 
BRANCH  19  20
ATOM     20  C   UNL     1      75.188  93.609  73.428  1.00  0.00     0.000 C 
BRANCH  20  21
ATOM     21  C   UNL     1      76.456  94.450  73.745  1.00  0.00     0.003 C 
BRANCH  21  22
ATOM     22  C   UNL     1      77.735  93.606  74.058  1.00  0.00    -0.017 C 
ATOM     23  C   UNL     1      78.119  92.727  72.834  1.00  0.00     0.007 C 
ATOM     24  C   UNL     1      77.608  92.730  75.339  1.00  0.00     0.007 C 
ENDBRANCH  21  22
ENDBRANCH  20  21
ENDBRANCH  19  20
ENDBRANCH  18  19
ENDBRANCH   1  18
TORSDOF 11
ENDMDL
MODEL 9
REMARK VINA RESULT:    -5.310      5.222      6.783
REMARK INTER + INTRA:          -9.098
REMARK INTER:                  -8.398
REMARK INTRA:                  -0.700
REMARK UNBOUND:                -0.528
REMARK SMILES COc1cc(CNC(=O)CCCCCCC(C)C)ccc1O
REMARK SMILES IDX 11 1 10 2 8 3 7 4 9 6 6 7 5 8 3 9 21 10 4 11 20 12 19 13
REMARK SMILES IDX 2 14 1 15 22 16 12 18 13 19 14 20 15 21 16 22 17 23 18 24
REMARK H PARENT 7 5 22 17
REMARK Flexibility Score: inf
ROOT
ATOM      1  C   UNL     1      91.911  95.241  76.774  1.00  0.00     0.010 C 
ENDROOT
BRANCH   1   2
ATOM      2  C   UNL     1      93.416  95.239  76.390  1.00  0.00     0.100 C 
BRANCH   2   3
ATOM      3  C   UNL     1      94.185  96.329  77.032  1.00  0.00     0.220 C 
ATOM      4  N   UNL     1      95.013  96.062  78.083  1.00  0.00    -0.352 N 
ATOM      5  H   UNL     1      95.008  95.100  78.389  1.00  0.00     0.163 HD
ATOM      6  O   UNL     1      94.077  97.492  76.573  1.00  0.00    -0.275 OA
BRANCH   4   7
ATOM      7  C   UNL     1      95.846  97.020  78.743  1.00  0.00     0.151 C 
BRANCH   7   8
ATOM      8  C   UNL     1      95.757  96.952  80.227  1.00  0.00    -0.025 A 
ATOM      9  C   UNL     1      95.668  98.082  82.410  1.00  0.00     0.160 A 
ATOM     10  C   UNL     1      95.544  96.832  83.055  1.00  0.00     0.157 A 
ATOM     11  C   UNL     1      95.792  98.131  81.005  1.00  0.00     0.056 A 
ATOM     12  C   UNL     1      95.547  95.649  82.294  1.00  0.00     0.050 A 
ATOM     13  C   UNL     1      95.642  95.707  80.890  1.00  0.00     0.009 A 
BRANCH   9  14
ATOM     14  O   UNL     1      95.706  99.237  83.143  1.00  0.00    -0.493 OA
ATOM     15  C   UNL     1      97.033  99.632  83.535  1.00  0.00     0.278 C 
ENDBRANCH   9  14
BRANCH  10  16
ATOM     16  O   UNL     1      95.424  96.754  84.406  1.00  0.00    -0.504 OA
ATOM     17  H   UNL     1      94.691  96.176  84.629  1.00  0.00     0.293 HD
ENDBRANCH  10  16
ENDBRANCH   7   8
ENDBRANCH   4   7
ENDBRANCH   2   3
ENDBRANCH   1   2
BRANCH   1  18
ATOM     18  C   UNL     1      91.598  94.245  77.926  1.00  0.00     0.001 C 
BRANCH  18  19
ATOM     19  C   UNL     1      90.966  92.908  77.445  1.00  0.00     0.000 C 
BRANCH  19  20
ATOM     20  C   UNL     1      90.190  93.091  76.110  1.00  0.00     0.000 C 
BRANCH  20  21
ATOM     21  C   UNL     1      90.568  92.063  75.008  1.00  0.00     0.003 C 
BRANCH  21  22
ATOM     22  C   UNL     1      89.845  92.283  73.639  1.00  0.00    -0.017 C 
ATOM     23  C   UNL     1      88.503  93.038  73.848  1.00  0.00     0.007 C 
ATOM     24  C   UNL     1      89.612  90.968  72.837  1.00  0.00     0.007 C 
ENDBRANCH  21  22
ENDBRANCH  20  21
ENDBRANCH  19  20
ENDBRANCH  18  19
ENDBRANCH   1  18
TORSDOF 11
ENDMDL
MODEL 10
REMARK VINA RESULT:    -5.298     20.358     23.825
REMARK INTER + INTRA:          -9.078
REMARK INTER:                  -7.542
REMARK INTRA:                  -1.536
REMARK UNBOUND:                -0.528
REMARK SMILES COc1cc(CNC(=O)CCCCCCC(C)C)ccc1O
REMARK SMILES IDX 11 1 10 2 8 3 7 4 9 6 6 7 5 8 3 9 21 10 4 11 20 12 19 13
REMARK SMILES IDX 2 14 1 15 22 16 12 18 13 19 14 20 15 21 16 22 17 23 18 24
REMARK H PARENT 7 5 22 17
REMARK Flexibility Score: inf
ROOT
ATOM      1  C   UNL     1      76.267  87.382  69.795  1.00  0.00     0.010 C 
ENDROOT
BRANCH   1   2
ATOM      2  C   UNL     1      75.261  86.322  70.322  1.00  0.00     0.100 C 
BRANCH   2   3
ATOM      3  C   UNL     1      74.044  86.205  69.487  1.00  0.00     0.220 C 
ATOM      4  N   UNL     1      74.050  86.643  68.195  1.00  0.00    -0.352 N 
ATOM      5  H   UNL     1      74.913  87.074  67.901  1.00  0.00     0.163 HD
ATOM      6  O   UNL     1      73.021  85.675  69.986  1.00  0.00    -0.275 OA
BRANCH   4   7
ATOM      7  C   UNL     1      72.955  86.529  67.279  1.00  0.00     0.151 C 
BRANCH   7   8
ATOM      8  C   UNL     1      72.941  85.237  66.541  1.00  0.00    -0.025 A 
ATOM      9  C   UNL     1      72.033  82.972  66.229  1.00  0.00     0.160 A 
ATOM     10  C   UNL     1      72.875  82.786  65.111  1.00  0.00     0.157 A 
ATOM     11  C   UNL     1      72.086  84.186  66.946  1.00  0.00     0.056 A 
ATOM     12  C   UNL     1      73.758  83.810  64.721  1.00  0.00     0.050 A 
ATOM     13  C   UNL     1      73.784  85.031  65.423  1.00  0.00     0.009 A 
BRANCH   9  14
ATOM     14  O   UNL     1      71.199  81.968  66.640  1.00  0.00    -0.493 OA
ATOM     15  C   UNL     1      70.200  82.395  67.585  1.00  0.00     0.278 C 
ENDBRANCH   9  14
BRANCH  10  16
ATOM     16  O   UNL     1      72.846  81.627  64.403  1.00  0.00    -0.504 OA
ATOM     17  H   UNL     1      73.610  81.588  63.822  1.00  0.00     0.293 HD
ENDBRANCH  10  16
ENDBRANCH   7   8
ENDBRANCH   4   7
ENDBRANCH   2   3
ENDBRANCH   1   2
BRANCH   1  18
ATOM     18  C   UNL     1      77.691  86.790  69.593  1.00  0.00     0.001 C 
BRANCH  18  19
ATOM     19  C   UNL     1      77.978  86.330  68.136  1.00  0.00     0.000 C 
BRANCH  19  20
ATOM     20  C   UNL     1      78.252  84.802  68.062  1.00  0.00     0.000 C 
BRANCH  20  21
ATOM     21  C   UNL     1      77.026  83.955  67.622  1.00  0.00     0.003 C 
BRANCH  21  22
ATOM     22  C   UNL     1      77.285  83.025  66.392  1.00  0.00    -0.017 C 
ATOM     23  C   UNL     1      77.481  83.870  65.103  1.00  0.00     0.007 C 
ATOM     24  C   UNL     1      76.178  81.950  66.176  1.00  0.00     0.007 C 
ENDBRANCH  21  22
ENDBRANCH  20  21
ENDBRANCH  19  20
ENDBRANCH  18  19
ENDBRANCH   1  18
TORSDOF 11
ENDMDL
