MODEL 1
REMARK VINA RESULT:    -7.612      0.000      0.000
REMARK INTER + INTRA:          -9.286
REMARK INTER:                  -8.947
REMARK INTRA:                  -0.339
REMARK UNBOUND:                -0.339
REMARK SMILES O=C(/C=C/C=C/c1ccc2c(c1)OCO2)N1CCCCC1
REMARK SMILES IDX 3 1 4 2 2 3 1 4 16 5 17 6 21 7 18 8 20 9 19 10 5 11 6 12
REMARK SMILES IDX 7 13 12 14 8 15 11 16 9 17 13 18 10 19 14 20 15 21
REMARK H PARENT
REMARK Flexibility Score: inf
ROOT
ATOM      1  C   UNL     1      96.310  83.293  82.442  1.00  0.00     0.071 C 
ATOM      2  C   UNL     1      97.000  82.750  81.441  1.00  0.00     0.006 C 
ENDROOT
BRANCH   1   3
ATOM      3  C   UNL     1      96.547  82.782  83.807  1.00  0.00     0.246 C 
ATOM      4  O   UNL     1      97.716  82.673  84.178  1.00  0.00    -0.270 OA
ATOM      5  N   UNL     1      95.435  82.453  84.580  1.00  0.00    -0.339 N 
ATOM      6  C   UNL     1      95.639  81.938  85.937  1.00  0.00     0.120 C 
ATOM      7  C   UNL     1      94.029  82.527  84.155  1.00  0.00     0.120 C 
ATOM      8  C   UNL     1      94.836  82.732  86.961  1.00  0.00     0.022 C 
ATOM      9  C   UNL     1      93.188  83.314  85.160  1.00  0.00     0.022 C 
ATOM     10  C   UNL     1      93.360  82.780  86.579  1.00  0.00     0.004 C 
ENDBRANCH   1   3
BRANCH   2  11
ATOM     11  C   UNL     1      96.836  83.183  80.069  1.00  0.00     0.001 C 
ATOM     12  C   UNL     1      97.791  83.025  79.138  1.00  0.00     0.008 C 
BRANCH  12  13
ATOM     13  C   UNL     1      97.680  83.454  77.734  1.00  0.00    -0.022 A 
ATOM     14  C   UNL     1      98.673  83.087  76.836  1.00  0.00     0.058 A 
ATOM     15  C   UNL     1      96.578  84.219  77.344  1.00  0.00     0.012 A 
ATOM     16  C   UNL     1      98.525  83.512  75.531  1.00  0.00     0.166 A 
ATOM     17  C   UNL     1      96.454  84.636  76.017  1.00  0.00     0.051 A 
ATOM     18  O   UNL     1      99.385  83.259  74.507  1.00  0.00    -0.454 OA
ATOM     19  C   UNL     1      97.445  84.266  75.132  1.00  0.00     0.165 A 
ATOM     20  C   UNL     1      98.725  83.938  73.419  1.00  0.00     0.468 C 
ATOM     21  O   UNL     1      97.493  84.580  73.809  1.00  0.00    -0.454 OA
ENDBRANCH  12  13
ENDBRANCH   2  11
TORSDOF 3
ENDMDL
MODEL 2
REMARK VINA RESULT:    -7.610      3.135      9.412
REMARK INTER + INTRA:          -9.283
REMARK INTER:                  -8.888
REMARK INTRA:                  -0.395
REMARK UNBOUND:                -0.339
REMARK SMILES O=C(/C=C/C=C/c1ccc2c(c1)OCO2)N1CCCCC1
REMARK SMILES IDX 3 1 4 2 2 3 1 4 16 5 17 6 21 7 18 8 20 9 19 10 5 11 6 12
REMARK SMILES IDX 7 13 12 14 8 15 11 16 9 17 13 18 10 19 14 20 15 21
REMARK H PARENT
REMARK Flexibility Score: inf
ROOT
ATOM      1  C   UNL     1      97.503  83.892  76.807  1.00  0.00     0.071 C 
ATOM      2  C   UNL     1      96.389  83.953  77.534  1.00  0.00     0.006 C 
ENDROOT
BRANCH   1   3
ATOM      3  C   UNL     1      97.442  84.348  75.403  1.00  0.00     0.246 C 
ATOM      4  O   UNL     1      96.342  84.680  74.961  1.00  0.00    -0.270 OA
ATOM      5  N   UNL     1      98.629  84.366  74.674  1.00  0.00    -0.339 N 
ATOM      6  C   UNL     1      98.599  84.809  73.277  1.00  0.00     0.120 C 
ATOM      7  C   UNL     1      99.951  83.935  75.154  1.00  0.00     0.120 C 
ATOM      8  C   UNL     1      99.622  85.909  73.018  1.00  0.00     0.022 C 
ATOM      9  C   UNL     1     101.007  85.013  74.909  1.00  0.00     0.022 C 
ATOM     10  C   UNL     1     101.017  85.472  73.454  1.00  0.00     0.004 C 
ENDBRANCH   1   3
BRANCH   2  11
ATOM     11  C   UNL     1      96.350  83.529  78.918  1.00  0.00     0.001 C 
ATOM     12  C   UNL     1      97.457  83.242  79.621  1.00  0.00     0.008 C 
BRANCH  12  13
ATOM     13  C   UNL     1      97.474  82.799  81.026  1.00  0.00    -0.022 A 
ATOM     14  C   UNL     1      98.411  81.856  81.426  1.00  0.00     0.058 A 
ATOM     15  C   UNL     1      96.545  83.341  81.918  1.00  0.00     0.012 A 
ATOM     16  C   UNL     1      98.387  81.474  82.751  1.00  0.00     0.166 A 
ATOM     17  C   UNL     1      96.544  82.936  83.254  1.00  0.00     0.051 A 
ATOM     18  O   UNL     1      99.218  80.567  83.335  1.00  0.00    -0.454 OA
ATOM     19  C   UNL     1      97.479  81.999  83.642  1.00  0.00     0.165 A 
ATOM     20  C   UNL     1      98.730  80.580  84.692  1.00  0.00     0.468 C 
ATOM     21  O   UNL     1      97.626  81.487  84.894  1.00  0.00    -0.454 OA
ENDBRANCH  12  13
ENDBRANCH   2  11
TORSDOF 3
ENDMDL
MODEL 3
REMARK VINA RESULT:    -7.497      1.468      2.273
REMARK INTER + INTRA:          -9.151
REMARK INTER:                  -8.834
REMARK INTRA:                  -0.317
REMARK UNBOUND:                -0.339
REMARK SMILES O=C(/C=C/C=C/c1ccc2c(c1)OCO2)N1CCCCC1
REMARK SMILES IDX 3 1 4 2 2 3 1 4 16 5 17 6 21 7 18 8 20 9 19 10 5 11 6 12
REMARK SMILES IDX 7 13 12 14 8 15 11 16 9 17 13 18 10 19 14 20 15 21
REMARK H PARENT
REMARK Flexibility Score: inf
ROOT
ATOM      1  C   UNL     1      95.418  82.967  83.555  1.00  0.00     0.071 C 
ATOM      2  C   UNL     1      96.486  82.641  82.830  1.00  0.00     0.006 C 
ENDROOT
BRANCH   1   3
ATOM      3  C   UNL     1      95.352  82.487  84.950  1.00  0.00     0.246 C 
ATOM      4  O   UNL     1      96.125  81.586  85.278  1.00  0.00    -0.270 OA
ATOM      5  N   UNL     1      94.417  83.080  85.798  1.00  0.00    -0.339 N 
ATOM      6  C   UNL     1      94.325  82.620  87.187  1.00  0.00     0.120 C 
ATOM      7  C   UNL     1      93.449  84.123  85.430  1.00  0.00     0.120 C 
ATOM      8  C   UNL     1      94.429  83.783  88.167  1.00  0.00     0.022 C 
ATOM      9  C   UNL     1      93.520  85.308  86.393  1.00  0.00     0.022 C 
ATOM     10  C   UNL     1      93.397  84.861  87.847  1.00  0.00     0.004 C 
ENDBRANCH   1   3
BRANCH   2  11
ATOM     11  C   UNL     1      96.640  83.064  81.454  1.00  0.00     0.001 C 
ATOM     12  C   UNL     1      97.375  82.381  80.562  1.00  0.00     0.008 C 
BRANCH  12  13
ATOM     13  C   UNL     1      97.572  82.770  79.155  1.00  0.00    -0.022 A 
ATOM     14  C   UNL     1      96.655  83.622  78.555  1.00  0.00     0.058 A 
ATOM     15  C   UNL     1      98.678  82.271  78.463  1.00  0.00     0.012 A 
ATOM     16  C   UNL     1      96.882  83.958  77.237  1.00  0.00     0.166 A 
ATOM     17  C   UNL     1      98.884  82.627  77.128  1.00  0.00     0.051 A 
ATOM     18  O   UNL     1      96.103  84.774  76.475  1.00  0.00    -0.454 OA
ATOM     19  C   UNL     1      97.967  83.474  76.542  1.00  0.00     0.165 A 
ATOM     20  C   UNL     1      96.819  84.750  75.224  1.00  0.00     0.468 C 
ATOM     21  O   UNL     1      98.003  83.927  75.259  1.00  0.00    -0.454 OA
ENDBRANCH  12  13
ENDBRANCH   2  11
TORSDOF 3
ENDMDL
MODEL 4
REMARK VINA RESULT:    -7.370      7.894      9.690
REMARK INTER + INTRA:          -9.001
REMARK INTER:                  -8.702
REMARK INTRA:                  -0.298
REMARK UNBOUND:                -0.339
REMARK SMILES O=C(/C=C/C=C/c1ccc2c(c1)OCO2)N1CCCCC1
REMARK SMILES IDX 3 1 4 2 2 3 1 4 16 5 17 6 21 7 18 8 20 9 19 10 5 11 6 12
REMARK SMILES IDX 7 13 12 14 8 15 11 16 9 17 13 18 10 19 14 20 15 21
REMARK H PARENT
REMARK Flexibility Score: inf
ROOT
ATOM      1  C   UNL     1      93.295  85.834  86.770  1.00  0.00     0.071 C 
ATOM      2  C   UNL     1      93.455  84.952  85.784  1.00  0.00     0.006 C 
ENDROOT
BRANCH   1   3
ATOM      3  C   UNL     1      94.063  87.093  86.707  1.00  0.00     0.246 C 
ATOM      4  O   UNL     1      94.750  87.291  85.704  1.00  0.00    -0.270 OA
ATOM      5  N   UNL     1      93.963  87.970  87.786  1.00  0.00    -0.339 N 
ATOM      6  C   UNL     1      94.718  89.226  87.754  1.00  0.00     0.120 C 
ATOM      7  C   UNL     1      93.190  87.748  89.017  1.00  0.00     0.120 C 
ATOM      8  C   UNL     1      93.815  90.426  88.015  1.00  0.00     0.022 C 
ATOM      9  C   UNL     1      92.273  88.934  89.315  1.00  0.00     0.022 C 
ATOM     10  C   UNL     1      93.039  90.254  89.316  1.00  0.00     0.004 C 
ENDBRANCH   1   3
BRANCH   2  11
ATOM     11  C   UNL     1      92.746  83.690  85.759  1.00  0.00     0.001 C 
ATOM     12  C   UNL     1      92.639  82.940  84.650  1.00  0.00     0.008 C 
BRANCH  12  13
ATOM     13  C   UNL     1      91.924  81.655  84.566  1.00  0.00    -0.022 A 
ATOM     14  C   UNL     1      90.555  81.657  84.337  1.00  0.00     0.058 A 
ATOM     15  C   UNL     1      92.645  80.468  84.719  1.00  0.00     0.012 A 
ATOM     16  C   UNL     1      89.931  80.429  84.266  1.00  0.00     0.166 A 
ATOM     17  C   UNL     1      91.987  79.238  84.643  1.00  0.00     0.051 A 
ATOM     18  O   UNL     1      88.602  80.221  84.052  1.00  0.00    -0.454 OA
ATOM     19  C   UNL     1      90.627  79.252  84.415  1.00  0.00     0.165 A 
ATOM     20  C   UNL     1      88.542  78.780  84.082  1.00  0.00     0.468 C 
ATOM     21  O   UNL     1      89.823  78.159  84.312  1.00  0.00    -0.454 OA
ENDBRANCH  12  13
ENDBRANCH   2  11
TORSDOF 3
ENDMDL
MODEL 5
REMARK VINA RESULT:    -7.204      1.759      2.561
REMARK INTER + INTRA:          -8.805
REMARK INTER:                  -8.431
REMARK INTRA:                  -0.374
REMARK UNBOUND:                -0.339
REMARK SMILES O=C(/C=C/C=C/c1ccc2c(c1)OCO2)N1CCCCC1
REMARK SMILES IDX 3 1 4 2 2 3 1 4 16 5 17 6 21 7 18 8 20 9 19 10 5 11 6 12
REMARK SMILES IDX 7 13 12 14 8 15 11 16 9 17 13 18 10 19 14 20 15 21
REMARK H PARENT
REMARK Flexibility Score: inf
ROOT
ATOM      1  C   UNL     1      95.771  82.364  83.475  1.00  0.00     0.071 C 
ATOM      2  C   UNL     1      96.166  83.561  83.043  1.00  0.00     0.006 C 
ENDROOT
BRANCH   1   3
ATOM      3  C   UNL     1      95.429  82.220  84.904  1.00  0.00     0.246 C 
ATOM      4  O   UNL     1      95.795  83.113  85.669  1.00  0.00    -0.270 OA
ATOM      5  N   UNL     1      94.721  81.084  85.291  1.00  0.00    -0.339 N 
ATOM      6  C   UNL     1      94.371  80.910  86.704  1.00  0.00     0.120 C 
ATOM      7  C   UNL     1      94.307  79.978  84.415  1.00  0.00     0.120 C 
ATOM      8  C   UNL     1      92.879  80.647  86.880  1.00  0.00     0.022 C 
ATOM      9  C   UNL     1      92.815  79.681  84.566  1.00  0.00     0.022 C 
ATOM     10  C   UNL     1      92.427  79.467  86.026  1.00  0.00     0.004 C 
ENDBRANCH   1   3
BRANCH   2  11
ATOM     11  C   UNL     1      96.523  83.800  81.660  1.00  0.00     0.001 C 
ATOM     12  C   UNL     1      96.827  82.810  80.806  1.00  0.00     0.008 C 
BRANCH  12  13
ATOM     13  C   UNL     1      97.204  82.997  79.395  1.00  0.00    -0.022 A 
ATOM     14  C   UNL     1      96.385  83.760  78.573  1.00  0.00     0.058 A 
ATOM     15  C   UNL     1      98.376  82.402  78.922  1.00  0.00     0.012 A 
ATOM     16  C   UNL     1      96.781  83.907  77.259  1.00  0.00     0.166 A 
ATOM     17  C   UNL     1      98.752  82.568  77.587  1.00  0.00     0.051 A 
ATOM     18  O   UNL     1      96.118  84.611  76.301  1.00  0.00    -0.454 OA
ATOM     19  C   UNL     1      97.932  83.327  76.779  1.00  0.00     0.165 A 
ATOM     20  C   UNL     1      96.982  84.409  75.164  1.00  0.00     0.468 C 
ATOM     21  O   UNL     1      98.136  83.595  75.461  1.00  0.00    -0.454 OA
ENDBRANCH  12  13
ENDBRANCH   2  11
TORSDOF 3
ENDMDL
MODEL 6
REMARK VINA RESULT:    -6.867      6.001      9.411
REMARK INTER + INTRA:          -8.409
REMARK INTER:                  -8.069
REMARK INTRA:                  -0.340
REMARK UNBOUND:                -0.339
REMARK SMILES O=C(/C=C/C=C/c1ccc2c(c1)OCO2)N1CCCCC1
REMARK SMILES IDX 3 1 4 2 2 3 1 4 16 5 17 6 21 7 18 8 20 9 19 10 5 11 6 12
REMARK SMILES IDX 7 13 12 14 8 15 11 16 9 17 13 18 10 19 14 20 15 21
REMARK H PARENT
REMARK Flexibility Score: inf
ROOT
ATOM      1  C   UNL     1      93.191  87.837  88.415  1.00  0.00     0.071 C 
ATOM      2  C   UNL     1      92.907  86.545  88.565  1.00  0.00     0.006 C 
ENDROOT
BRANCH   1   3
ATOM      3  C   UNL     1      92.501  88.806  89.290  1.00  0.00     0.246 C 
ATOM      4  O   UNL     1      91.726  88.357  90.136  1.00  0.00    -0.270 OA
ATOM      5  N   UNL     1      92.767  90.160  89.098  1.00  0.00    -0.339 N 
ATOM      6  C   UNL     1      92.093  91.146  89.948  1.00  0.00     0.120 C 
ATOM      7  C   UNL     1      93.649  90.735  88.071  1.00  0.00     0.120 C 
ATOM      8  C   UNL     1      93.093  92.093  90.603  1.00  0.00     0.022 C 
ATOM      9  C   UNL     1      94.665  91.696  88.688  1.00  0.00     0.022 C 
ATOM     10  C   UNL     1      93.988  92.751  89.558  1.00  0.00     0.004 C 
ENDBRANCH   1   3
BRANCH   2  11
ATOM     11  C   UNL     1      93.532  85.521  87.753  1.00  0.00     0.001 C 
ATOM     12  C   UNL     1      93.246  85.351  86.453  1.00  0.00     0.008 C 
BRANCH  12  13
ATOM     13  C   UNL     1      93.844  84.322  85.585  1.00  0.00    -0.022 A 
ATOM     14  C   UNL     1      95.177  84.442  85.215  1.00  0.00     0.058 A 
ATOM     15  C   UNL     1      93.053  83.253  85.157  1.00  0.00     0.012 A 
ATOM     16  C   UNL     1      95.692  83.454  84.402  1.00  0.00     0.166 A 
ATOM     17  C   UNL     1      93.601  82.267  84.333  1.00  0.00     0.051 A 
ATOM     18  O   UNL     1      96.969  83.392  83.932  1.00  0.00    -0.454 OA
ATOM     19  C   UNL     1      94.926  82.395  83.972  1.00  0.00     0.165 A 
ATOM     20  C   UNL     1      96.918  82.176  83.159  1.00  0.00     0.468 C 
ATOM     21  O   UNL     1      95.625  81.537  83.180  1.00  0.00    -0.454 OA
ENDBRANCH  12  13
ENDBRANCH   2  11
TORSDOF 3
ENDMDL
MODEL 7
REMARK VINA RESULT:    -6.791      1.734      2.179
REMARK INTER + INTRA:          -8.320
REMARK INTER:                  -8.120
REMARK INTRA:                  -0.200
REMARK UNBOUND:                -0.339
REMARK SMILES O=C(/C=C/C=C/c1ccc2c(c1)OCO2)N1CCCCC1
REMARK SMILES IDX 3 1 4 2 2 3 1 4 16 5 17 6 21 7 18 8 20 9 19 10 5 11 6 12
REMARK SMILES IDX 7 13 12 14 8 15 11 16 9 17 13 18 10 19 14 20 15 21
REMARK H PARENT
REMARK Flexibility Score: inf
ROOT
ATOM      1  C   UNL     1      97.957  82.929  80.788  1.00  0.00     0.071 C 
ATOM      2  C   UNL     1      97.064  82.691  79.830  1.00  0.00     0.006 C 
ENDROOT
BRANCH   1   3
ATOM      3  C   UNL     1      97.760  82.277  82.098  1.00  0.00     0.246 C 
ATOM      4  O   UNL     1      98.437  81.278  82.345  1.00  0.00    -0.270 OA
ATOM      5  N   UNL     1      96.820  82.832  82.965  1.00  0.00    -0.339 N 
ATOM      6  C   UNL     1      96.599  82.204  84.271  1.00  0.00     0.120 C 
ATOM      7  C   UNL     1      95.963  83.995  82.689  1.00  0.00     0.120 C 
ATOM      8  C   UNL     1      96.726  83.216  85.405  1.00  0.00     0.022 C 
ATOM      9  C   UNL     1      96.061  85.032  83.807  1.00  0.00     0.022 C 
ATOM     10  C   UNL     1      95.806  84.411  85.177  1.00  0.00     0.004 C 
ENDBRANCH   1   3
BRANCH   2  11
ATOM     11  C   UNL     1      97.171  83.284  78.513  1.00  0.00     0.001 C 
ATOM     12  C   UNL     1      98.197  83.031  77.685  1.00  0.00     0.008 C 
BRANCH  12  13
ATOM     13  C   UNL     1      98.360  83.612  76.341  1.00  0.00    -0.022 A 
ATOM     14  C   UNL     1      99.624  83.649  75.769  1.00  0.00     0.058 A 
ATOM     15  C   UNL     1      97.236  84.111  75.678  1.00  0.00     0.012 A 
ATOM     16  C   UNL     1      99.726  84.202  74.509  1.00  0.00     0.166 A 
ATOM     17  C   UNL     1      97.368  84.666  74.403  1.00  0.00     0.051 A 
ATOM     18  O   UNL     1     100.871  84.330  73.784  1.00  0.00    -0.454 OA
ATOM     19  C   UNL     1      98.628  84.697  73.844  1.00  0.00     0.165 A 
ATOM     20  C   UNL     1     100.370  84.962  72.589  1.00  0.00     0.468 C 
ATOM     21  O   UNL     1      98.947  85.197  72.620  1.00  0.00    -0.454 OA
ENDBRANCH  12  13
ENDBRANCH   2  11
TORSDOF 3
ENDMDL
MODEL 8
REMARK VINA RESULT:    -6.731     17.932     18.689
REMARK INTER + INTRA:          -8.250
REMARK INTER:                  -7.906
REMARK INTRA:                  -0.344
REMARK UNBOUND:                -0.339
REMARK SMILES O=C(/C=C/C=C/c1ccc2c(c1)OCO2)N1CCCCC1
REMARK SMILES IDX 3 1 4 2 2 3 1 4 16 5 17 6 21 7 18 8 20 9 19 10 5 11 6 12
REMARK SMILES IDX 7 13 12 14 8 15 11 16 9 17 13 18 10 19 14 20 15 21
REMARK H PARENT
REMARK Flexibility Score: inf
ROOT
ATOM      1  C   UNL     1      86.216  70.004  72.381  1.00  0.00     0.071 C 
ATOM      2  C   UNL     1      87.293  69.994  71.598  1.00  0.00     0.006 C 
ENDROOT
BRANCH   1   3
ATOM      3  C   UNL     1      86.221  69.143  73.581  1.00  0.00     0.246 C 
ATOM      4  O   UNL     1      87.015  69.424  74.479  1.00  0.00    -0.270 OA
ATOM      5  N   UNL     1      85.333  68.069  73.613  1.00  0.00    -0.339 N 
ATOM      6  C   UNL     1      85.319  67.193  74.789  1.00  0.00     0.120 C 
ATOM      7  C   UNL     1      84.404  67.676  72.543  1.00  0.00     0.120 C 
ATOM      8  C   UNL     1      83.912  67.048  75.359  1.00  0.00     0.022 C 
ATOM      9  C   UNL     1      82.981  67.517  73.076  1.00  0.00     0.022 C 
ATOM     10  C   UNL     1      82.932  66.586  74.285  1.00  0.00     0.004 C 
ENDBRANCH   1   3
BRANCH   2  11
ATOM     11  C   UNL     1      87.381  70.803  70.401  1.00  0.00     0.001 C 
ATOM     12  C   UNL     1      88.550  71.232  69.899  1.00  0.00     0.008 C 
BRANCH  12  13
ATOM     13  C   UNL     1      88.697  72.063  68.692  1.00  0.00    -0.022 A 
ATOM     14  C   UNL     1      89.896  72.727  68.470  1.00  0.00     0.058 A 
ATOM     15  C   UNL     1      87.624  72.160  67.802  1.00  0.00     0.012 A 
ATOM     16  C   UNL     1      89.985  73.492  67.325  1.00  0.00     0.166 A 
ATOM     17  C   UNL     1      87.742  72.942  66.650  1.00  0.00     0.051 A 
ATOM     18  O   UNL     1      91.069  74.216  66.932  1.00  0.00    -0.454 OA
ATOM     19  C   UNL     1      88.937  73.597  66.439  1.00  0.00     0.165 A 
ATOM     20  C   UNL     1      90.585  74.788  65.700  1.00  0.00     0.468 C 
ATOM     21  O   UNL     1      89.233  74.399  65.381  1.00  0.00    -0.454 OA
ENDBRANCH  12  13
ENDBRANCH   2  11
TORSDOF 3
ENDMDL
MODEL 9
REMARK VINA RESULT:    -6.691      5.498      9.693
REMARK INTER + INTRA:          -8.203
REMARK INTER:                  -7.773
REMARK INTRA:                  -0.430
REMARK UNBOUND:                -0.339
REMARK SMILES O=C(/C=C/C=C/c1ccc2c(c1)OCO2)N1CCCCC1
REMARK SMILES IDX 3 1 4 2 2 3 1 4 16 5 17 6 21 7 18 8 20 9 19 10 5 11 6 12
REMARK SMILES IDX 7 13 12 14 8 15 11 16 9 17 13 18 10 19 14 20 15 21
REMARK H PARENT
REMARK Flexibility Score: inf
ROOT
ATOM      1  C   UNL     1      94.713  81.092  84.753  1.00  0.00     0.071 C 
ATOM      2  C   UNL     1      93.963  80.004  84.589  1.00  0.00     0.006 C 
ENDROOT
BRANCH   1   3
ATOM      3  C   UNL     1      96.172  80.916  84.891  1.00  0.00     0.246 C 
ATOM      4  O   UNL     1      96.584  80.354  85.907  1.00  0.00    -0.270 OA
ATOM      5  N   UNL     1      96.985  81.400  83.868  1.00  0.00    -0.339 N 
ATOM      6  C   UNL     1      98.439  81.244  83.980  1.00  0.00     0.120 C 
ATOM      7  C   UNL     1      96.535  82.114  82.664  1.00  0.00     0.120 C 
ATOM      8  C   UNL     1      99.025  80.578  82.739  1.00  0.00     0.022 C 
ATOM      9  C   UNL     1      97.105  81.478  81.397  1.00  0.00     0.022 C 
ATOM     10  C   UNL     1      98.622  81.329  81.474  1.00  0.00     0.004 C 
ENDBRANCH   1   3
BRANCH   2  11
ATOM     11  C   UNL     1      92.525  80.076  84.445  1.00  0.00     0.001 C 
ATOM     12  C   UNL     1      91.833  81.214  84.617  1.00  0.00     0.008 C 
BRANCH  12  13
ATOM     13  C   UNL     1      90.371  81.341  84.491  1.00  0.00    -0.022 A 
ATOM     14  C   UNL     1      89.762  82.531  84.866  1.00  0.00     0.058 A 
ATOM     15  C   UNL     1      89.637  80.260  83.996  1.00  0.00     0.012 A 
ATOM     16  C   UNL     1      88.390  82.602  84.729  1.00  0.00     0.166 A 
ATOM     17  C   UNL     1      88.250  80.359  83.868  1.00  0.00     0.051 A 
ATOM     18  O   UNL     1      87.612  83.674  85.041  1.00  0.00    -0.454 OA
ATOM     19  C   UNL     1      87.654  81.545  84.244  1.00  0.00     0.165 A 
ATOM     20  C   UNL     1      86.304  83.173  84.698  1.00  0.00     0.468 C 
ATOM     21  O   UNL     1      86.323  81.823  84.191  1.00  0.00    -0.454 OA
ENDBRANCH  12  13
ENDBRANCH   2  11
TORSDOF 3
ENDMDL
MODEL 10
REMARK VINA RESULT:    -6.626      8.615     13.165
REMARK INTER + INTRA:          -8.127
REMARK INTER:                  -7.742
REMARK INTRA:                  -0.385
REMARK UNBOUND:                -0.339
REMARK SMILES O=C(/C=C/C=C/c1ccc2c(c1)OCO2)N1CCCCC1
REMARK SMILES IDX 3 1 4 2 2 3 1 4 16 5 17 6 21 7 18 8 20 9 19 10 5 11 6 12
REMARK SMILES IDX 7 13 12 14 8 15 11 16 9 17 13 18 10 19 14 20 15 21
REMARK H PARENT
REMARK Flexibility Score: inf
ROOT
ATOM      1  C   UNL     1      94.053  87.903  87.110  1.00  0.00     0.071 C 
ATOM      2  C   UNL     1      94.810  88.960  86.822  1.00  0.00     0.006 C 
ENDROOT
BRANCH   1   3
ATOM      3  C   UNL     1      94.076  86.758  86.179  1.00  0.00     0.246 C 
ATOM      4  O   UNL     1      94.423  86.975  85.017  1.00  0.00    -0.270 OA
ATOM      5  N   UNL     1      93.698  85.510  86.673  1.00  0.00    -0.339 N 
ATOM      6  C   UNL     1      93.705  84.355  85.771  1.00  0.00     0.120 C 
ATOM      7  C   UNL     1      93.235  85.221  88.039  1.00  0.00     0.120 C 
ATOM      8  C   UNL     1      94.513  83.199  86.351  1.00  0.00     0.022 C 
ATOM      9  C   UNL     1      94.020  84.063  88.655  1.00  0.00     0.022 C 
ATOM     10  C   UNL     1      94.020  82.836  87.748  1.00  0.00     0.004 C 
ENDBRANCH   1   3
BRANCH   2  11
ATOM     11  C   UNL     1      94.855  90.130  87.673  1.00  0.00     0.001 C 
ATOM     12  C   UNL     1      93.779  90.590  88.332  1.00  0.00     0.008 C 
BRANCH  12  13
ATOM     13  C   UNL     1      93.766  91.778  89.203  1.00  0.00    -0.022 A 
ATOM     14  C   UNL     1      92.664  92.009  90.013  1.00  0.00     0.058 A 
ATOM     15  C   UNL     1      94.866  92.640  89.189  1.00  0.00     0.012 A 
ATOM     16  C   UNL     1      92.699  93.134  90.811  1.00  0.00     0.166 A 
ATOM     17  C   UNL     1      94.875  93.771  90.007  1.00  0.00     0.051 A 
ATOM     18  O   UNL     1      91.721  93.534  91.670  1.00  0.00    -0.454 OA
ATOM     19  C   UNL     1      93.775  93.992  90.809  1.00  0.00     0.165 A 
ATOM     20  C   UNL     1      92.303  94.740  92.207  1.00  0.00     0.468 C 
ATOM     21  O   UNL     1      93.606  95.036  91.665  1.00  0.00    -0.454 OA
ENDBRANCH  12  13
ENDBRANCH   2  11
TORSDOF 3
ENDMDL
