MODEL 1
REMARK VINA RESULT:    -5.595      0.000      0.000
REMARK INTER + INTRA:         -10.196
REMARK INTER:                  -9.193
REMARK INTRA:                  -1.002
REMARK UNBOUND:                -1.002
REMARK SMILES CCCCC[C@H](O)CC(=O)CCc1ccc(O)c(OC)c1
REMARK SMILES IDX 8 1 6 2 7 3 5 5 4 6 3 7 2 8 1 9 9 10 10 11 11 12 12 13 13 14
REMARK SMILES IDX 21 15 14 16 18 17 15 18 16 19 19 20 20 21 17 22
REMARK H PARENT 7 4 17 23
REMARK Flexibility Score: inf
ROOT
ATOM      1  C   UNL     1      76.039  84.000  65.092  1.00  0.00     0.107 C 
ENDROOT
BRANCH   1   2
ATOM      2  C   UNL     1      75.731  82.618  64.509  1.00  0.00     0.121 C 
BRANCH   2   3
ATOM      3  O   UNL     1      76.556  81.636  65.132  1.00  0.00    -0.393 OA
ATOM      4  H   UNL     1      76.364  80.778  64.714  1.00  0.00     0.210 HD
ENDBRANCH   2   3
BRANCH   2   5
ATOM      5  C   UNL     1      74.260  82.215  64.668  1.00  0.00     0.032 C 
BRANCH   5   6
ATOM      6  C   UNL     1      73.659  81.699  63.354  1.00  0.00     0.003 C 
BRANCH   6   7
ATOM      7  C   UNL     1      72.331  80.958  63.544  1.00  0.00    -0.000 C 
BRANCH   7   8
ATOM      8  C   UNL     1      71.794  81.021  64.973  1.00  0.00    -0.003 C 
ATOM      9  C   UNL     1      70.592  81.948  65.073  1.00  0.00     0.004 C 
ENDBRANCH   7   8
ENDBRANCH   6   7
ENDBRANCH   5   6
ENDBRANCH   2   5
ENDBRANCH   1   2
BRANCH   1  10
ATOM     10  C   UNL     1      76.768  83.936  66.423  1.00  0.00     0.135 C 
ATOM     11  O   UNL     1      77.972  83.685  66.474  1.00  0.00    -0.300 OA
BRANCH  10  12
ATOM     12  C   UNL     1      75.947  84.241  67.667  1.00  0.00     0.080 C 
BRANCH  12  13
ATOM     13  C   UNL     1      76.635  85.202  68.638  1.00  0.00     0.043 C 
BRANCH  13  14
ATOM     14  C   UNL     1      76.416  86.654  68.288  1.00  0.00    -0.044 A 
ATOM     15  C   UNL     1      75.235  87.293  68.667  1.00  0.00     0.054 A 
ATOM     16  C   UNL     1      77.396  87.357  67.586  1.00  0.00     0.008 A 
ATOM     17  C   UNL     1      75.035  88.635  68.344  1.00  0.00     0.160 A 
ATOM     18  C   UNL     1      77.195  88.699  67.263  1.00  0.00     0.050 A 
ATOM     19  C   UNL     1      76.014  89.338  67.642  1.00  0.00     0.157 A 
BRANCH  17  20
ATOM     20  O   UNL     1      73.877  89.249  68.718  1.00  0.00    -0.493 OA
ATOM     21  C   UNL     1      72.718  88.982  67.930  1.00  0.00     0.278 C 
ENDBRANCH  17  20
BRANCH  19  22
ATOM     22  O   UNL     1      75.830  90.649  67.321  1.00  0.00    -0.504 OA
ATOM     23  H   UNL     1      75.561  90.712  66.388  1.00  0.00     0.293 HD
ENDBRANCH  19  22
ENDBRANCH  13  14
ENDBRANCH  12  13
ENDBRANCH  10  12
ENDBRANCH   1  10
TORSDOF 12
ENDMDL
MODEL 2
REMARK VINA RESULT:    -5.565     19.266     22.502
REMARK INTER + INTRA:         -10.146
REMARK INTER:                  -8.856
REMARK INTRA:                  -1.291
REMARK UNBOUND:                -1.002
REMARK SMILES CCCCC[C@H](O)CC(=O)CCc1ccc(O)c(OC)c1
REMARK SMILES IDX 8 1 6 2 7 3 5 5 4 6 3 7 2 8 1 9 9 10 10 11 11 12 12 13 13 14
REMARK SMILES IDX 21 15 14 16 18 17 15 18 16 19 19 20 20 21 17 22
REMARK H PARENT 7 4 17 23
REMARK Flexibility Score: inf
ROOT
ATOM      1  C   UNL     1      89.092  99.216  68.986  1.00  0.00     0.107 C 
ENDROOT
BRANCH   1   2
ATOM      2  C   UNL     1      89.754  98.608  67.747  1.00  0.00     0.121 C 
BRANCH   2   3
ATOM      3  O   UNL     1      88.845  97.723  67.098  1.00  0.00    -0.393 OA
ATOM      4  H   UNL     1      88.880  96.868  67.561  1.00  0.00     0.210 HD
ENDBRANCH   2   3
BRANCH   2   5
ATOM      5  C   UNL     1      90.234  99.663  66.744  1.00  0.00     0.032 C 
BRANCH   5   6
ATOM      6  C   UNL     1      89.768 101.074  67.124  1.00  0.00     0.003 C 
BRANCH   6   7
ATOM      7  C   UNL     1      88.705 101.638  66.176  1.00  0.00    -0.000 C 
BRANCH   7   8
ATOM      8  C   UNL     1      87.283 101.541  66.726  1.00  0.00    -0.003 C 
ATOM      9  C   UNL     1      86.596 100.265  66.265  1.00  0.00     0.004 C 
ENDBRANCH   7   8
ENDBRANCH   6   7
ENDBRANCH   5   6
ENDBRANCH   2   5
ENDBRANCH   1   2
BRANCH   1  10
ATOM     10  C   UNL     1      89.854  98.932  70.269  1.00  0.00     0.135 C 
ATOM     11  O   UNL     1      89.915  97.792  70.730  1.00  0.00    -0.300 OA
BRANCH  10  12
ATOM     12  C   UNL     1      90.565 100.111  70.915  1.00  0.00     0.080 C 
BRANCH  12  13
ATOM     13  C   UNL     1      91.975 100.352  70.373  1.00  0.00     0.043 C 
BRANCH  13  14
ATOM     14  C   UNL     1      93.042  99.620  71.152  1.00  0.00    -0.044 A 
ATOM     15  C   UNL     1      94.209  99.201  70.513  1.00  0.00     0.054 A 
ATOM     16  C   UNL     1      92.860  99.364  72.511  1.00  0.00     0.008 A 
ATOM     17  C   UNL     1      95.194  98.527  71.234  1.00  0.00     0.160 A 
ATOM     18  C   UNL     1      93.845  98.689  73.232  1.00  0.00     0.050 A 
ATOM     19  C   UNL     1      95.012  98.270  72.593  1.00  0.00     0.157 A 
BRANCH  17  20
ATOM     20  O   UNL     1      96.330  98.122  70.599  1.00  0.00    -0.493 OA
ATOM     21  C   UNL     1      96.238  96.949  69.792  1.00  0.00     0.278 C 
ENDBRANCH  17  20
BRANCH  19  22
ATOM     22  O   UNL     1      95.967  97.612  73.307  1.00  0.00    -0.504 OA
ATOM     23  H   UNL     1      95.958  97.937  74.224  1.00  0.00     0.293 HD
ENDBRANCH  19  22
ENDBRANCH  13  14
ENDBRANCH  12  13
ENDBRANCH  10  12
ENDBRANCH   1  10
TORSDOF 12
ENDMDL
MODEL 3
REMARK VINA RESULT:    -5.449     19.793     22.953
REMARK INTER + INTRA:          -9.955
REMARK INTER:                  -9.159
REMARK INTRA:                  -0.796
REMARK UNBOUND:                -1.002
REMARK SMILES CCCCC[C@H](O)CC(=O)CCc1ccc(O)c(OC)c1
REMARK SMILES IDX 8 1 6 2 7 3 5 5 4 6 3 7 2 8 1 9 9 10 10 11 11 12 12 13 13 14
REMARK SMILES IDX 21 15 14 16 18 17 15 18 16 19 19 20 20 21 17 22
REMARK H PARENT 7 4 17 23
REMARK Flexibility Score: inf
ROOT
ATOM      1  C   UNL     1      93.343  99.779  73.166  1.00  0.00     0.107 C 
ENDROOT
BRANCH   1   2
ATOM      2  C   UNL     1      93.084  99.883  71.661  1.00  0.00     0.121 C 
BRANCH   2   3
ATOM      3  O   UNL     1      94.161  99.286  70.943  1.00  0.00    -0.393 OA
ATOM      4  H   UNL     1      93.811  98.965  70.093  1.00  0.00     0.210 HD
ENDBRANCH   2   3
BRANCH   2   5
ATOM      5  C   UNL     1      91.766  99.225  71.232  1.00  0.00     0.032 C 
BRANCH   5   6
ATOM      6  C   UNL     1      90.711 100.260  70.825  1.00  0.00     0.003 C 
BRANCH   6   7
ATOM      7  C   UNL     1      89.614  99.686  69.922  1.00  0.00    -0.000 C 
BRANCH   7   8
ATOM      8  C   UNL     1      89.747  98.184  69.678  1.00  0.00    -0.003 C 
ATOM      9  C   UNL     1      89.538  97.841  68.211  1.00  0.00     0.004 C 
ENDBRANCH   7   8
ENDBRANCH   6   7
ENDBRANCH   5   6
ENDBRANCH   2   5
ENDBRANCH   1   2
BRANCH   1  10
ATOM     10  C   UNL     1      94.221  98.597  73.539  1.00  0.00     0.135 C 
ATOM     11  O   UNL     1      95.437  98.627  73.349  1.00  0.00    -0.300 OA
BRANCH  10  12
ATOM     12  C   UNL     1      93.528  97.411  74.193  1.00  0.00     0.080 C 
BRANCH  12  13
ATOM     13  C   UNL     1      94.470  96.250  74.517  1.00  0.00     0.043 C 
BRANCH  13  14
ATOM     14  C   UNL     1      93.954  95.360  75.623  1.00  0.00    -0.044 A 
ATOM     15  C   UNL     1      93.142  94.268  75.319  1.00  0.00     0.054 A 
ATOM     16  C   UNL     1      94.291  95.632  76.949  1.00  0.00     0.008 A 
ATOM     17  C   UNL     1      92.667  93.446  76.341  1.00  0.00     0.160 A 
ATOM     18  C   UNL     1      93.816  94.810  77.972  1.00  0.00     0.050 A 
ATOM     19  C   UNL     1      93.004  93.718  77.668  1.00  0.00     0.157 A 
BRANCH  17  20
ATOM     20  O   UNL     1      91.874  92.382  76.032  1.00  0.00    -0.493 OA
ATOM     21  C   UNL     1      90.534  92.667  75.635  1.00  0.00     0.278 C 
ENDBRANCH  17  20
BRANCH  19  22
ATOM     22  O   UNL     1      92.546  92.923  78.675  1.00  0.00    -0.504 OA
ATOM     23  H   UNL     1      91.882  92.309  78.317  1.00  0.00     0.293 HD
ENDBRANCH  19  22
ENDBRANCH  13  14
ENDBRANCH  12  13
ENDBRANCH  10  12
ENDBRANCH   1  10
TORSDOF 12
ENDMDL
MODEL 4
REMARK VINA RESULT:    -5.433     19.347     22.467
REMARK INTER + INTRA:          -9.930
REMARK INTER:                  -9.027
REMARK INTRA:                  -0.902
REMARK UNBOUND:                -1.002
REMARK SMILES CCCCC[C@H](O)CC(=O)CCc1ccc(O)c(OC)c1
REMARK SMILES IDX 8 1 6 2 7 3 5 5 4 6 3 7 2 8 1 9 9 10 10 11 11 12 12 13 13 14
REMARK SMILES IDX 21 15 14 16 18 17 15 18 16 19 19 20 20 21 17 22
REMARK H PARENT 7 4 17 23
REMARK Flexibility Score: inf
ROOT
ATOM      1  C   UNL     1      89.164  99.779  68.951  1.00  0.00     0.107 C 
ENDROOT
BRANCH   1   2
ATOM      2  C   UNL     1      89.370  98.996  67.653  1.00  0.00     0.121 C 
BRANCH   2   3
ATOM      3  O   UNL     1      88.792  97.698  67.774  1.00  0.00    -0.393 OA
ATOM      4  H   UNL     1      88.741  97.311  66.882  1.00  0.00     0.210 HD
ENDBRANCH   2   3
BRANCH   2   5
ATOM      5  C   UNL     1      88.778  99.700  66.426  1.00  0.00     0.032 C 
BRANCH   5   6
ATOM      6  C   UNL     1      87.259  99.877  66.541  1.00  0.00     0.003 C 
BRANCH   6   7
ATOM      7  C   UNL     1      86.800 101.325  66.341  1.00  0.00    -0.000 C 
BRANCH   7   8
ATOM      8  C   UNL     1      87.940 102.340  66.385  1.00  0.00    -0.003 C 
ATOM      9  C   UNL     1      87.428 103.758  66.185  1.00  0.00     0.004 C 
ENDBRANCH   7   8
ENDBRANCH   6   7
ENDBRANCH   5   6
ENDBRANCH   2   5
ENDBRANCH   1   2
BRANCH   1  10
ATOM     10  C   UNL     1      90.110  99.352  70.062  1.00  0.00     0.135 C 
ATOM     11  O   UNL     1      89.928  98.303  70.679  1.00  0.00    -0.300 OA
BRANCH  10  12
ATOM     12  C   UNL     1      91.301 100.260  70.330  1.00  0.00     0.080 C 
BRANCH  12  13
ATOM     13  C   UNL     1      91.794 100.216  71.777  1.00  0.00     0.043 C 
BRANCH  13  14
ATOM     14  C   UNL     1      93.084  99.447  71.940  1.00  0.00    -0.044 A 
ATOM     15  C   UNL     1      93.345  98.766  73.129  1.00  0.00     0.054 A 
ATOM     16  C   UNL     1      94.013  99.417  70.899  1.00  0.00     0.008 A 
ATOM     17  C   UNL     1      94.537  98.056  73.277  1.00  0.00     0.160 A 
ATOM     18  C   UNL     1      95.204  98.706  71.048  1.00  0.00     0.050 A 
ATOM     19  C   UNL     1      95.466  98.026  72.237  1.00  0.00     0.157 A 
BRANCH  17  20
ATOM     20  O   UNL     1      94.782  97.396  74.444  1.00  0.00    -0.493 OA
ATOM     21  C   UNL     1      93.696  96.671  75.019  1.00  0.00     0.278 C 
ENDBRANCH  17  20
BRANCH  19  22
ATOM     22  O   UNL     1      96.632  97.336  72.371  1.00  0.00    -0.504 OA
ATOM     23  H   UNL     1      96.610  96.560  71.785  1.00  0.00     0.293 HD
ENDBRANCH  19  22
ENDBRANCH  13  14
ENDBRANCH  12  13
ENDBRANCH  10  12
ENDBRANCH   1  10
TORSDOF 12
ENDMDL
MODEL 5
REMARK VINA RESULT:    -5.430     19.333     22.675
REMARK INTER + INTRA:          -9.924
REMARK INTER:                  -8.358
REMARK INTRA:                  -1.567
REMARK UNBOUND:                -1.002
REMARK SMILES CCCCC[C@H](O)CC(=O)CCc1ccc(O)c(OC)c1
REMARK SMILES IDX 8 1 6 2 7 3 5 5 4 6 3 7 2 8 1 9 9 10 10 11 11 12 12 13 13 14
REMARK SMILES IDX 21 15 14 16 18 17 15 18 16 19 19 20 20 21 17 22
REMARK H PARENT 7 4 17 23
REMARK Flexibility Score: inf
ROOT
ATOM      1  C   UNL     1      90.589  97.862  68.378  1.00  0.00     0.107 C 
ENDROOT
BRANCH   1   2
ATOM      2  C   UNL     1      89.227  97.913  67.681  1.00  0.00     0.121 C 
BRANCH   2   3
ATOM      3  O   UNL     1      88.220  98.295  68.615  1.00  0.00    -0.393 OA
ATOM      4  H   UNL     1      88.436  97.883  69.470  1.00  0.00     0.210 HD
ENDBRANCH   2   3
BRANCH   2   5
ATOM      5  C   UNL     1      89.199  98.875  66.487  1.00  0.00     0.032 C 
BRANCH   5   6
ATOM      6  C   UNL     1      87.865  99.623  66.381  1.00  0.00     0.003 C 
BRANCH   6   7
ATOM      7  C   UNL     1      87.960 101.094  66.799  1.00  0.00    -0.000 C 
BRANCH   7   8
ATOM      8  C   UNL     1      86.837 101.964  66.236  1.00  0.00    -0.003 C 
ATOM      9  C   UNL     1      87.240 103.430  66.193  1.00  0.00     0.004 C 
ENDBRANCH   7   8
ENDBRANCH   6   7
ENDBRANCH   5   6
ENDBRANCH   2   5
ENDBRANCH   1   2
BRANCH   1  10
ATOM     10  C   UNL     1      90.682  98.797  69.573  1.00  0.00     0.135 C 
ATOM     11  O   UNL     1      90.031  98.583  70.595  1.00  0.00    -0.300 OA
BRANCH  10  12
ATOM     12  C   UNL     1      91.647  99.966  69.450  1.00  0.00     0.080 C 
BRANCH  12  13
ATOM     13  C   UNL     1      91.073 101.158  68.681  1.00  0.00     0.043 C 
BRANCH  13  14
ATOM     14  C   UNL     1      91.912 101.552  67.489  1.00  0.00    -0.044 A 
ATOM     15  C   UNL     1      93.302 101.580  67.592  1.00  0.00     0.054 A 
ATOM     16  C   UNL     1      91.294 101.888  66.283  1.00  0.00     0.008 A 
ATOM     17  C   UNL     1      94.076 101.944  66.489  1.00  0.00     0.160 A 
ATOM     18  C   UNL     1      92.068 102.252  65.181  1.00  0.00     0.050 A 
ATOM     19  C   UNL     1      93.458 102.280  65.284  1.00  0.00     0.157 A 
BRANCH  17  20
ATOM     20  O   UNL     1      95.433 101.968  66.602  1.00  0.00    -0.493 OA
ATOM     21  C   UNL     1      95.977 101.846  67.916  1.00  0.00     0.278 C 
ENDBRANCH  17  20
BRANCH  19  22
ATOM     22  O   UNL     1      94.203 102.636  64.201  1.00  0.00    -0.504 OA
ATOM     23  H   UNL     1      93.610 102.786  63.444  1.00  0.00     0.293 HD
ENDBRANCH  19  22
ENDBRANCH  13  14
ENDBRANCH  12  13
ENDBRANCH  10  12
ENDBRANCH   1  10
TORSDOF 12
ENDMDL
MODEL 6
REMARK VINA RESULT:    -5.359     19.733     22.151
REMARK INTER + INTRA:          -9.807
REMARK INTER:                  -8.784
REMARK INTRA:                  -1.023
REMARK UNBOUND:                -1.002
REMARK SMILES CCCCC[C@H](O)CC(=O)CCc1ccc(O)c(OC)c1
REMARK SMILES IDX 8 1 6 2 7 3 5 5 4 6 3 7 2 8 1 9 9 10 10 11 11 12 12 13 13 14
REMARK SMILES IDX 21 15 14 16 18 17 15 18 16 19 19 20 20 21 17 22
REMARK H PARENT 7 4 17 23
REMARK Flexibility Score: inf
ROOT
ATOM      1  C   UNL     1      88.869  99.015  68.264  1.00  0.00     0.107 C 
ENDROOT
BRANCH   1   2
ATOM      2  C   UNL     1      89.469  99.516  66.948  1.00  0.00     0.121 C 
BRANCH   2   3
ATOM      3  O   UNL     1      89.539  98.445  66.010  1.00  0.00    -0.393 OA
ATOM      4  H   UNL     1      90.277  97.867  66.272  1.00  0.00     0.210 HD
ENDBRANCH   2   3
BRANCH   2   5
ATOM      5  C   UNL     1      88.679 100.676  66.331  1.00  0.00     0.032 C 
BRANCH   5   6
ATOM      6  C   UNL     1      87.165 100.446  66.403  1.00  0.00     0.003 C 
BRANCH   6   7
ATOM      7  C   UNL     1      86.345 101.710  66.127  1.00  0.00    -0.000 C 
BRANCH   7   8
ATOM      8  C   UNL     1      87.170 102.995  66.162  1.00  0.00    -0.003 C 
ATOM      9  C   UNL     1      86.283 104.220  66.317  1.00  0.00     0.004 C 
ENDBRANCH   7   8
ENDBRANCH   6   7
ENDBRANCH   5   6
ENDBRANCH   2   5
ENDBRANCH   1   2
BRANCH   1  10
ATOM     10  C   UNL     1      89.724  97.959  68.945  1.00  0.00     0.135 C 
ATOM     11  O   UNL     1      90.244  97.051  68.296  1.00  0.00    -0.300 OA
BRANCH  10  12
ATOM     12  C   UNL     1      89.934  98.114  70.443  1.00  0.00     0.080 C 
BRANCH  12  13
ATOM     13  C   UNL     1      89.706  99.538  70.952  1.00  0.00     0.043 C 
BRANCH  13  14
ATOM     14  C   UNL     1      90.991 100.300  71.175  1.00  0.00    -0.044 A 
ATOM     15  C   UNL     1      92.150  99.620  71.551  1.00  0.00     0.054 A 
ATOM     16  C   UNL     1      91.019 101.685  71.005  1.00  0.00     0.008 A 
ATOM     17  C   UNL     1      93.336 100.324  71.756  1.00  0.00     0.160 A 
ATOM     18  C   UNL     1      92.206 102.389  71.210  1.00  0.00     0.050 A 
ATOM     19  C   UNL     1      93.364 101.709  71.586  1.00  0.00     0.157 A 
BRANCH  17  20
ATOM     20  O   UNL     1      94.461  99.649  72.124  1.00  0.00    -0.493 OA
ATOM     21  C   UNL     1      94.528  99.186  73.471  1.00  0.00     0.278 C 
ENDBRANCH  17  20
BRANCH  19  22
ATOM     22  O   UNL     1      94.516 102.407  71.784  1.00  0.00    -0.504 OA
ATOM     23  H   UNL     1      94.376 103.055  72.495  1.00  0.00     0.293 HD
ENDBRANCH  19  22
ENDBRANCH  13  14
ENDBRANCH  12  13
ENDBRANCH  10  12
ENDBRANCH   1  10
TORSDOF 12
ENDMDL
MODEL 7
REMARK VINA RESULT:    -5.303     23.801     26.095
REMARK INTER + INTRA:          -9.716
REMARK INTER:                  -9.132
REMARK INTRA:                  -0.583
REMARK UNBOUND:                -1.002
REMARK SMILES CCCCC[C@H](O)CC(=O)CCc1ccc(O)c(OC)c1
REMARK SMILES IDX 8 1 6 2 7 3 5 5 4 6 3 7 2 8 1 9 9 10 10 11 11 12 12 13 13 14
REMARK SMILES IDX 21 15 14 16 18 17 15 18 16 19 19 20 20 21 17 22
REMARK H PARENT 7 4 17 23
REMARK Flexibility Score: inf
ROOT
ATOM      1  C   UNL     1      97.887  82.402  75.767  1.00  0.00     0.107 C 
ENDROOT
BRANCH   1   2
ATOM      2  C   UNL     1      97.889  82.318  74.239  1.00  0.00     0.121 C 
BRANCH   2   3
ATOM      3  O   UNL     1      96.653  81.771  73.784  1.00  0.00    -0.393 OA
ATOM      4  H   UNL     1      96.199  82.455  73.261  1.00  0.00     0.210 HD
ENDBRANCH   2   3
BRANCH   2   5
ATOM      5  C   UNL     1      98.119  83.675  73.563  1.00  0.00     0.032 C 
BRANCH   5   6
ATOM      6  C   UNL     1      99.465  83.735  72.832  1.00  0.00     0.003 C 
BRANCH   6   7
ATOM      7  C   UNL     1     100.671  83.696  73.777  1.00  0.00    -0.000 C 
BRANCH   7   8
ATOM      8  C   UNL     1     101.969  83.266  73.096  1.00  0.00    -0.003 C 
ATOM      9  C   UNL     1     102.497  84.354  72.173  1.00  0.00     0.004 C 
ENDBRANCH   7   8
ENDBRANCH   6   7
ENDBRANCH   5   6
ENDBRANCH   2   5
ENDBRANCH   1   2
BRANCH   1  10
ATOM     10  C   UNL     1      96.520  82.728  76.345  1.00  0.00     0.135 C 
ATOM     11  O   UNL     1      95.690  83.359  75.689  1.00  0.00    -0.300 OA
BRANCH  10  12
ATOM     12  C   UNL     1      96.225  82.200  77.740  1.00  0.00     0.080 C 
BRANCH  12  13
ATOM     13  C   UNL     1      97.470  82.045  78.615  1.00  0.00     0.043 C 
BRANCH  13  14
ATOM     14  C   UNL     1      97.175  81.424  79.960  1.00  0.00    -0.044 A 
ATOM     15  C   UNL     1      96.652  82.206  80.989  1.00  0.00     0.054 A 
ATOM     16  C   UNL     1      97.426  80.068  80.171  1.00  0.00     0.008 A 
ATOM     17  C   UNL     1      96.379  81.631  82.231  1.00  0.00     0.160 A 
ATOM     18  C   UNL     1      97.153  79.493  81.413  1.00  0.00     0.050 A 
ATOM     19  C   UNL     1      96.630  80.275  82.443  1.00  0.00     0.157 A 
BRANCH  17  20
ATOM     20  O   UNL     1      95.868  82.405  83.229  1.00  0.00    -0.493 OA
ATOM     21  C   UNL     1      96.184  83.796  83.197  1.00  0.00     0.278 C 
ENDBRANCH  17  20
BRANCH  19  22
ATOM     22  O   UNL     1      96.368  79.703  83.650  1.00  0.00    -0.504 OA
ATOM     23  H   UNL     1      96.713  78.794  83.652  1.00  0.00     0.293 HD
ENDBRANCH  19  22
ENDBRANCH  13  14
ENDBRANCH  12  13
ENDBRANCH  10  12
ENDBRANCH   1  10
TORSDOF 12
ENDMDL
MODEL 8
REMARK VINA RESULT:    -5.192     24.654     26.231
REMARK INTER + INTRA:          -9.534
REMARK INTER:                  -8.563
REMARK INTRA:                  -0.971
REMARK UNBOUND:                -1.002
REMARK SMILES CCCCC[C@H](O)CC(=O)CCc1ccc(O)c(OC)c1
REMARK SMILES IDX 8 1 6 2 7 3 5 5 4 6 3 7 2 8 1 9 9 10 10 11 11 12 12 13 13 14
REMARK SMILES IDX 21 15 14 16 18 17 15 18 16 19 19 20 20 21 17 22
REMARK H PARENT 7 4 17 23
REMARK Flexibility Score: inf
ROOT
ATOM      1  C   UNL     1      98.387  81.709  77.017  1.00  0.00     0.107 C 
ENDROOT
BRANCH   1   2
ATOM      2  C   UNL     1      98.348  80.655  75.908  1.00  0.00     0.121 C 
BRANCH   2   3
ATOM      3  O   UNL     1      97.005  80.467  75.467  1.00  0.00    -0.393 OA
ATOM      4  H   UNL     1      96.432  80.458  76.253  1.00  0.00     0.210 HD
ENDBRANCH   2   3
BRANCH   2   5
ATOM      5  C   UNL     1      99.229  81.015  74.706  1.00  0.00     0.032 C 
BRANCH   5   6
ATOM      6  C   UNL     1      99.498  82.522  74.620  1.00  0.00     0.003 C 
BRANCH   6   7
ATOM      7  C   UNL     1      98.574  83.248  73.636  1.00  0.00    -0.000 C 
BRANCH   7   8
ATOM      8  C   UNL     1      99.284  84.311  72.800  1.00  0.00    -0.003 C 
ATOM      9  C   UNL     1     100.393  83.703  71.956  1.00  0.00     0.004 C 
ENDBRANCH   7   8
ENDBRANCH   6   7
ENDBRANCH   5   6
ENDBRANCH   2   5
ENDBRANCH   1   2
BRANCH   1  10
ATOM     10  C   UNL     1      97.030  82.339  77.288  1.00  0.00     0.135 C 
ATOM     11  O   UNL     1      96.435  82.961  76.409  1.00  0.00    -0.300 OA
BRANCH  10  12
ATOM     12  C   UNL     1      96.441  82.120  78.673  1.00  0.00     0.080 C 
BRANCH  12  13
ATOM     13  C   UNL     1      97.482  81.757  79.734  1.00  0.00     0.043 C 
BRANCH  13  14
ATOM     14  C   UNL     1      96.886  81.571  81.109  1.00  0.00    -0.044 A 
ATOM     15  C   UNL     1      96.771  80.292  81.652  1.00  0.00     0.054 A 
ATOM     16  C   UNL     1      96.451  82.680  81.835  1.00  0.00     0.008 A 
ATOM     17  C   UNL     1      96.221  80.121  82.923  1.00  0.00     0.160 A 
ATOM     18  C   UNL     1      95.901  82.510  83.106  1.00  0.00     0.050 A 
ATOM     19  C   UNL     1      95.785  81.230  83.650  1.00  0.00     0.157 A 
BRANCH  17  20
ATOM     20  O   UNL     1      96.113  78.867  83.444  1.00  0.00    -0.493 OA
ATOM     21  C   UNL     1      96.381  77.776  82.565  1.00  0.00     0.278 C 
ENDBRANCH  17  20
BRANCH  19  22
ATOM     22  O   UNL     1      95.247  81.076  84.891  1.00  0.00    -0.504 OA
ATOM     23  H   UNL     1      95.263  81.933  85.352  1.00  0.00     0.293 HD
ENDBRANCH  19  22
ENDBRANCH  13  14
ENDBRANCH  12  13
ENDBRANCH  10  12
ENDBRANCH   1  10
TORSDOF 12
ENDMDL
MODEL 9
REMARK VINA RESULT:    -5.187     24.069     26.035
REMARK INTER + INTRA:          -9.525
REMARK INTER:                  -8.772
REMARK INTRA:                  -0.753
REMARK UNBOUND:                -1.002
REMARK SMILES CCCCC[C@H](O)CC(=O)CCc1ccc(O)c(OC)c1
REMARK SMILES IDX 8 1 6 2 7 3 5 5 4 6 3 7 2 8 1 9 9 10 10 11 11 12 12 13 13 14
REMARK SMILES IDX 21 15 14 16 18 17 15 18 16 19 19 20 20 21 17 22
REMARK H PARENT 7 4 17 23
REMARK Flexibility Score: inf
ROOT
ATOM      1  C   UNL     1      97.043  80.621  77.804  1.00  0.00     0.107 C 
ENDROOT
BRANCH   1   2
ATOM      2  C   UNL     1      98.136  81.030  78.794  1.00  0.00     0.121 C 
BRANCH   2   3
ATOM      3  O   UNL     1      98.166  82.450  78.920  1.00  0.00    -0.393 OA
ATOM      4  H   UNL     1      97.801  82.679  79.793  1.00  0.00     0.210 HD
ENDBRANCH   2   3
BRANCH   2   5
ATOM      5  C   UNL     1      97.953  80.404  80.182  1.00  0.00     0.032 C 
BRANCH   5   6
ATOM      6  C   UNL     1      97.299  81.376  81.172  1.00  0.00     0.003 C 
BRANCH   6   7
ATOM      7  C   UNL     1      96.396  80.682  82.197  1.00  0.00    -0.000 C 
BRANCH   7   8
ATOM      8  C   UNL     1      95.931  81.601  83.325  1.00  0.00    -0.003 C 
ATOM      9  C   UNL     1      95.918  83.056  82.884  1.00  0.00     0.004 C 
ENDBRANCH   7   8
ENDBRANCH   6   7
ENDBRANCH   5   6
ENDBRANCH   2   5
ENDBRANCH   1   2
BRANCH   1  10
ATOM     10  C   UNL     1      96.708  81.713  76.801  1.00  0.00     0.135 C 
ATOM     11  O   UNL     1      96.026  82.685  77.127  1.00  0.00    -0.300 OA
BRANCH  10  12
ATOM     12  C   UNL     1      97.294  81.561  75.406  1.00  0.00     0.080 C 
BRANCH  12  13
ATOM     13  C   UNL     1      97.359  82.871  74.619  1.00  0.00     0.043 C 
BRANCH  13  14
ATOM     14  C   UNL     1      98.439  82.876  73.564  1.00  0.00    -0.044 A 
ATOM     15  C   UNL     1      98.775  81.693  72.904  1.00  0.00     0.054 A 
ATOM     16  C   UNL     1      99.101  84.063  73.250  1.00  0.00     0.008 A 
ATOM     17  C   UNL     1      99.773  81.699  71.929  1.00  0.00     0.160 A 
ATOM     18  C   UNL     1     100.099  84.068  72.275  1.00  0.00     0.050 A 
ATOM     19  C   UNL     1     100.435  82.886  71.615  1.00  0.00     0.157 A 
BRANCH  17  20
ATOM     20  O   UNL     1     100.093  80.538  71.292  1.00  0.00    -0.493 OA
ATOM     21  C   UNL     1      99.087  79.953  70.467  1.00  0.00     0.278 C 
ENDBRANCH  17  20
BRANCH  19  22
ATOM     22  O   UNL     1     101.411  82.904  70.665  1.00  0.00    -0.504 OA
ATOM     23  H   UNL     1     101.569  81.995  70.357  1.00  0.00     0.293 HD
ENDBRANCH  19  22
ENDBRANCH  13  14
ENDBRANCH  12  13
ENDBRANCH  10  12
ENDBRANCH   1  10
TORSDOF 12
ENDMDL
MODEL 10
REMARK VINA RESULT:    -4.991     23.894     26.324
REMARK INTER + INTRA:          -9.203
REMARK INTER:                  -7.980
REMARK INTRA:                  -1.223
REMARK UNBOUND:                -1.002
REMARK SMILES CCCCC[C@H](O)CC(=O)CCc1ccc(O)c(OC)c1
REMARK SMILES IDX 8 1 6 2 7 3 5 5 4 6 3 7 2 8 1 9 9 10 10 11 11 12 12 13 13 14
REMARK SMILES IDX 21 15 14 16 18 17 15 18 16 19 19 20 20 21 17 22
REMARK H PARENT 7 4 17 23
REMARK Flexibility Score: inf
ROOT
ATOM      1  C   UNL     1      98.901  80.493  77.095  1.00  0.00     0.107 C 
ENDROOT
BRANCH   1   2
ATOM      2  C   UNL     1      97.875  79.880  76.138  1.00  0.00     0.121 C 
BRANCH   2   3
ATOM      3  O   UNL     1      96.583  79.893  76.742  1.00  0.00    -0.393 OA
ATOM      4  H   UNL     1      96.351  78.975  76.967  1.00  0.00     0.210 HD
ENDBRANCH   2   3
BRANCH   2   5
ATOM      5  C   UNL     1      97.808  80.602  74.787  1.00  0.00     0.032 C 
BRANCH   5   6
ATOM      6  C   UNL     1      98.656  81.880  74.774  1.00  0.00     0.003 C 
BRANCH   6   7
ATOM      7  C   UNL     1      97.902  83.104  74.244  1.00  0.00    -0.000 C 
BRANCH   7   8
ATOM      8  C   UNL     1      96.395  83.045  74.486  1.00  0.00    -0.003 C 
ATOM      9  C   UNL     1      96.008  83.783  75.758  1.00  0.00     0.004 C 
ENDBRANCH   7   8
ENDBRANCH   6   7
ENDBRANCH   5   6
ENDBRANCH   2   5
ENDBRANCH   1   2
BRANCH   1  10
ATOM     10  C   UNL     1      98.492  80.387  78.555  1.00  0.00     0.135 C 
ATOM     11  O   UNL     1      98.355  79.289  79.096  1.00  0.00    -0.300 OA
BRANCH  10  12
ATOM     12  C   UNL     1      98.309  81.695  79.308  1.00  0.00     0.080 C 
BRANCH  12  13
ATOM     13  C   UNL     1      96.878  81.928  79.798  1.00  0.00     0.043 C 
BRANCH  13  14
ATOM     14  C   UNL     1      96.750  81.864  81.301  1.00  0.00    -0.044 A 
ATOM     15  C   UNL     1      96.836  80.636  81.957  1.00  0.00     0.054 A 
ATOM     16  C   UNL     1      96.544  83.033  82.034  1.00  0.00     0.008 A 
ATOM     17  C   UNL     1      96.718  80.578  83.346  1.00  0.00     0.160 A 
ATOM     18  C   UNL     1      96.426  82.976  83.423  1.00  0.00     0.050 A 
ATOM     19  C   UNL     1      96.512  81.748  84.079  1.00  0.00     0.157 A 
BRANCH  17  20
ATOM     20  O   UNL     1      96.803  79.373  83.976  1.00  0.00    -0.493 OA
ATOM     21  C   UNL     1      95.649  78.536  83.932  1.00  0.00     0.278 C 
ENDBRANCH  17  20
BRANCH  19  22
ATOM     22  O   UNL     1      96.395  81.703  85.435  1.00  0.00    -0.504 OA
ATOM     23  H   UNL     1      96.312  82.611  85.775  1.00  0.00     0.293 HD
ENDBRANCH  19  22
ENDBRANCH  13  14
ENDBRANCH  12  13
ENDBRANCH  10  12
ENDBRANCH   1  10
TORSDOF 12
ENDMDL
