MODEL 1
REMARK VINA RESULT:    -6.547      0.000      0.000
REMARK INTER + INTRA:         -10.931
REMARK INTER:                 -10.183
REMARK INTRA:                  -0.748
REMARK UNBOUND:                -0.748
REMARK SMILES COc1cc(CNC(=O)CCCC/C=C/C(C)C)ccc1O
REMARK SMILES IDX 10 1 8 2 7 3 9 5 6 6 5 7 3 8 21 9 4 10 20 11 19 12 2 13 1 14
REMARK SMILES IDX 22 15 11 17 12 18 13 19 14 20 15 21 16 22 17 23 18 24
REMARK H PARENT 7 4 22 16
REMARK Flexibility Score: inf
ROOT
ATOM      1  C   UNL     1      93.724  94.386  77.934  1.00  0.00     0.100 C 
ENDROOT
BRANCH   1   2
ATOM      2  C   UNL     1      93.876  94.612  76.484  1.00  0.00     0.220 C 
ATOM      3  N   UNL     1      93.691  95.854  75.955  1.00  0.00    -0.352 N 
ATOM      4  H   UNL     1      93.428  96.567  76.621  1.00  0.00     0.163 HD
ATOM      5  O   UNL     1      94.201  93.637  75.764  1.00  0.00    -0.275 OA
BRANCH   3   6
ATOM      6  C   UNL     1      93.846  96.183  74.574  1.00  0.00     0.151 C 
BRANCH   6   7
ATOM      7  C   UNL     1      95.228  96.647  74.274  1.00  0.00    -0.025 A 
ATOM      8  C   UNL     1      97.453  97.354  75.056  1.00  0.00     0.160 A 
ATOM      9  C   UNL     1      97.872  97.514  73.719  1.00  0.00     0.157 A 
ATOM     10  C   UNL     1      96.135  96.925  75.320  1.00  0.00     0.056 A 
ATOM     11  C   UNL     1      96.972  97.260  72.665  1.00  0.00     0.050 A 
ATOM     12  C   UNL     1      95.663  96.820  72.939  1.00  0.00     0.009 A 
BRANCH   8  13
ATOM     13  O   UNL     1      98.304  97.663  76.086  1.00  0.00    -0.493 OA
ATOM     14  C   UNL     1      97.645  97.884  77.346  1.00  0.00     0.278 C 
ENDBRANCH   8  13
BRANCH   9  15
ATOM     15  O   UNL     1      99.138  97.914  73.430  1.00  0.00    -0.504 OA
ATOM     16  H   UNL     1      99.134  98.843  73.191  1.00  0.00     0.293 HD
ENDBRANCH   9  15
ENDBRANCH   6   7
ENDBRANCH   3   6
ENDBRANCH   1   2
BRANCH   1  17
ATOM     17  C   UNL     1      92.638  93.318  78.237  1.00  0.00     0.010 C 
BRANCH  17  18
ATOM     18  C   UNL     1      91.257  93.665  77.614  1.00  0.00     0.005 C 
BRANCH  18  19
ATOM     19  C   UNL     1      90.222  92.523  77.797  1.00  0.00     0.027 C 
BRANCH  19  20
ATOM     20  C   UNL     1      90.019  91.766  76.571  1.00  0.00    -0.031 C 
ATOM     21  C   UNL     1      90.880  91.757  75.537  1.00  0.00    -0.028 C 
BRANCH  21  22
ATOM     22  C   UNL     1      90.665  90.973  74.321  1.00  0.00     0.005 C 
ATOM     23  C   UNL     1      90.868  89.450  74.558  1.00  0.00     0.012 C 
ATOM     24  C   UNL     1      89.255  91.259  73.741  1.00  0.00     0.012 C 
ENDBRANCH  21  22
ENDBRANCH  19  20
ENDBRANCH  18  19
ENDBRANCH  17  18
ENDBRANCH   1  17
TORSDOF 10
ENDMDL
MODEL 2
REMARK VINA RESULT:    -6.472      5.592      7.768
REMARK INTER + INTRA:         -10.814
REMARK INTER:                  -9.921
REMARK INTRA:                  -0.893
REMARK UNBOUND:                -0.748
REMARK SMILES COc1cc(CNC(=O)CCCC/C=C/C(C)C)ccc1O
REMARK SMILES IDX 10 1 8 2 7 3 9 5 6 6 5 7 3 8 21 9 4 10 20 11 19 12 2 13 1 14
REMARK SMILES IDX 22 15 11 17 12 18 13 19 14 20 15 21 16 22 17 23 18 24
REMARK H PARENT 7 4 22 16
REMARK Flexibility Score: inf
ROOT
ATOM      1  C   UNL     1      94.796  99.052  73.847  1.00  0.00     0.100 C 
ENDROOT
BRANCH   1   2
ATOM      2  C   UNL     1      94.544  99.649  72.522  1.00  0.00     0.220 C 
ATOM      3  N   UNL     1      93.283 100.016  72.158  1.00  0.00    -0.352 N 
ATOM      4  H   UNL     1      92.568  99.825  72.845  1.00  0.00     0.163 HD
ATOM      5  O   UNL     1      95.522  99.829  71.756  1.00  0.00    -0.275 OA
BRANCH   3   6
ATOM      6  C   UNL     1      92.939 100.630  70.915  1.00  0.00     0.151 C 
BRANCH   6   7
ATOM      7  C   UNL     1      91.764  99.968  70.285  1.00  0.00    -0.025 A 
ATOM      8  C   UNL     1      90.440  99.442  68.277  1.00  0.00     0.160 A 
ATOM      9  C   UNL     1      89.540  98.695  69.065  1.00  0.00     0.157 A 
ATOM     10  C   UNL     1      91.541 100.073  68.894  1.00  0.00     0.056 A 
ATOM     11  C   UNL     1      89.739  98.598  70.457  1.00  0.00     0.050 A 
ATOM     12  C   UNL     1      90.848  99.221  71.062  1.00  0.00     0.009 A 
BRANCH   8  13
ATOM     13  O   UNL     1      90.214  99.594  66.933  1.00  0.00    -0.493 OA
ATOM     14  C   UNL     1      90.446 100.929  66.446  1.00  0.00     0.278 C 
ENDBRANCH   8  13
BRANCH   9  15
ATOM     15  O   UNL     1      88.478  98.065  68.501  1.00  0.00    -0.504 OA
ATOM     16  H   UNL     1      88.465  97.146  68.779  1.00  0.00     0.293 HD
ENDBRANCH   9  15
ENDBRANCH   6   7
ENDBRANCH   3   6
ENDBRANCH   1   2
BRANCH   1  17
ATOM     17  C   UNL     1      94.045  97.705  74.020  1.00  0.00     0.010 C 
BRANCH  17  18
ATOM     18  C   UNL     1      94.943  96.469  73.729  1.00  0.00     0.005 C 
BRANCH  18  19
ATOM     19  C   UNL     1      94.710  95.317  74.743  1.00  0.00     0.027 C 
BRANCH  19  20
ATOM     20  C   UNL     1      93.660  95.634  75.699  1.00  0.00    -0.031 C 
ATOM     21  C   UNL     1      92.703  94.770  76.085  1.00  0.00    -0.028 C 
BRANCH  21  22
ATOM     22  C   UNL     1      91.668  95.104  77.063  1.00  0.00     0.005 C 
ATOM     23  C   UNL     1      91.442  96.636  77.182  1.00  0.00     0.012 C 
ATOM     24  C   UNL     1      90.345  94.375  76.713  1.00  0.00     0.012 C 
ENDBRANCH  21  22
ENDBRANCH  19  20
ENDBRANCH  18  19
ENDBRANCH  17  18
ENDBRANCH   1  17
TORSDOF 10
ENDMDL
MODEL 3
REMARK VINA RESULT:    -6.198      2.538      4.390
REMARK INTER + INTRA:         -10.388
REMARK INTER:                  -8.721
REMARK INTRA:                  -1.667
REMARK UNBOUND:                -0.748
REMARK SMILES COc1cc(CNC(=O)CCCC/C=C/C(C)C)ccc1O
REMARK SMILES IDX 10 1 8 2 7 3 9 5 6 6 5 7 3 8 21 9 4 10 20 11 19 12 2 13 1 14
REMARK SMILES IDX 22 15 11 17 12 18 13 19 14 20 15 21 16 22 17 23 18 24
REMARK H PARENT 7 4 22 16
REMARK Flexibility Score: inf
ROOT
ATOM      1  C   UNL     1      96.371  95.226  81.103  1.00  0.00     0.100 C 
ENDROOT
BRANCH   1   2
ATOM      2  C   UNL     1      97.026  96.205  80.214  1.00  0.00     0.220 C 
ATOM      3  N   UNL     1      96.695  96.270  78.894  1.00  0.00    -0.352 N 
ATOM      4  H   UNL     1      96.006  95.595  78.593  1.00  0.00     0.163 HD
ATOM      5  O   UNL     1      97.874  96.984  80.713  1.00  0.00    -0.275 OA
BRANCH   3   6
ATOM      6  C   UNL     1      97.246  97.199  77.960  1.00  0.00     0.151 C 
BRANCH   6   7
ATOM      7  C   UNL     1      96.793  96.912  76.571  1.00  0.00    -0.025 A 
ATOM      8  C   UNL     1      97.119  97.120  74.140  1.00  0.00     0.160 A 
ATOM      9  C   UNL     1      95.953  96.358  73.917  1.00  0.00     0.157 A 
ATOM     10  C   UNL     1      97.526  97.392  75.463  1.00  0.00     0.056 A 
ATOM     11  C   UNL     1      95.201  95.890  75.013  1.00  0.00     0.050 A 
ATOM     12  C   UNL     1      95.622  96.156  76.330  1.00  0.00     0.009 A 
BRANCH   8  13
ATOM     13  O   UNL     1      97.818  97.634  73.077  1.00  0.00    -0.493 OA
ATOM     14  C   UNL     1      97.527  99.016  72.796  1.00  0.00     0.278 C 
ENDBRANCH   8  13
BRANCH   9  15
ATOM     15  O   UNL     1      95.541  96.068  72.656  1.00  0.00    -0.504 OA
ATOM     16  H   UNL     1      94.588  96.166  72.600  1.00  0.00     0.293 HD
ENDBRANCH   9  15
ENDBRANCH   6   7
ENDBRANCH   3   6
ENDBRANCH   1   2
BRANCH   1  17
ATOM     17  C   UNL     1      96.679  93.766  80.674  1.00  0.00     0.010 C 
BRANCH  17  18
ATOM     18  C   UNL     1      95.454  93.050  80.041  1.00  0.00     0.005 C 
BRANCH  18  19
ATOM     19  C   UNL     1      95.611  92.851  78.509  1.00  0.00     0.027 C 
BRANCH  19  20
ATOM     20  C   UNL     1      94.373  93.118  77.792  1.00  0.00    -0.031 C 
ATOM     21  C   UNL     1      93.351  93.838  78.290  1.00  0.00    -0.028 C 
BRANCH  21  22
ATOM     22  C   UNL     1      92.123  94.109  77.543  1.00  0.00     0.005 C 
ATOM     23  C   UNL     1      92.019  95.596  77.102  1.00  0.00     0.012 C 
ATOM     24  C   UNL     1      92.018  93.161  76.321  1.00  0.00     0.012 C 
ENDBRANCH  21  22
ENDBRANCH  19  20
ENDBRANCH  18  19
ENDBRANCH  17  18
ENDBRANCH   1  17
TORSDOF 10
ENDMDL
MODEL 4
REMARK VINA RESULT:    -6.183     12.868     15.461
REMARK INTER + INTRA:         -10.364
REMARK INTER:                  -9.609
REMARK INTRA:                  -0.755
REMARK UNBOUND:                -0.748
REMARK SMILES COc1cc(CNC(=O)CCCC/C=C/C(C)C)ccc1O
REMARK SMILES IDX 10 1 8 2 7 3 9 5 6 6 5 7 3 8 21 9 4 10 20 11 19 12 2 13 1 14
REMARK SMILES IDX 22 15 11 17 12 18 13 19 14 20 15 21 16 22 17 23 18 24
REMARK H PARENT 7 4 22 16
REMARK Flexibility Score: inf
ROOT
ATOM      1  C   UNL     1      96.377  81.098  76.713  1.00  0.00     0.100 C 
ENDROOT
BRANCH   1   2
ATOM      2  C   UNL     1      97.149  80.471  77.802  1.00  0.00     0.220 C 
ATOM      3  N   UNL     1      97.435  81.168  78.937  1.00  0.00    -0.352 N 
ATOM      4  H   UNL     1      97.102  82.122  78.947  1.00  0.00     0.163 HD
ATOM      5  O   UNL     1      97.511  79.277  77.662  1.00  0.00    -0.275 OA
BRANCH   3   6
ATOM      6  C   UNL     1      98.146  80.644  80.059  1.00  0.00     0.151 C 
BRANCH   6   7
ATOM      7  C   UNL     1      97.683  81.256  81.335  1.00  0.00    -0.025 A 
ATOM      8  C   UNL     1      97.743  81.355  83.794  1.00  0.00     0.160 A 
ATOM      9  C   UNL     1      96.824  82.424  83.775  1.00  0.00     0.157 A 
ATOM     10  C   UNL     1      98.162  80.780  82.576  1.00  0.00     0.056 A 
ATOM     11  C   UNL     1      96.322  82.896  82.546  1.00  0.00     0.050 A 
ATOM     12  C   UNL     1      96.755  82.324  81.334  1.00  0.00     0.009 A 
BRANCH   8  13
ATOM     13  O   UNL     1      98.184  80.848  84.990  1.00  0.00    -0.493 OA
ATOM     14  C   UNL     1      97.595  79.583  85.345  1.00  0.00     0.278 C 
ENDBRANCH   8  13
BRANCH   9  15
ATOM     15  O   UNL     1      96.411  83.008  84.929  1.00  0.00    -0.504 OA
ATOM     16  H   UNL     1      95.939  82.364  85.463  1.00  0.00     0.293 HD
ENDBRANCH   9  15
ENDBRANCH   6   7
ENDBRANCH   3   6
ENDBRANCH   1   2
BRANCH   1  17
ATOM     17  C   UNL     1      96.025  82.575  77.037  1.00  0.00     0.010 C 
BRANCH  17  18
ATOM     18  C   UNL     1      96.023  83.486  75.777  1.00  0.00     0.005 C 
BRANCH  18  19
ATOM     19  C   UNL     1      96.761  82.836  74.576  1.00  0.00     0.027 C 
BRANCH  19  20
ATOM     20  C   UNL     1      97.999  83.529  74.254  1.00  0.00    -0.031 C 
ATOM     21  C   UNL     1      98.633  83.435  73.071  1.00  0.00    -0.028 C 
BRANCH  21  22
ATOM     22  C   UNL     1      99.867  84.157  72.762  1.00  0.00     0.005 C 
ATOM     23  C   UNL     1     100.871  84.141  73.949  1.00  0.00     0.012 C 
ATOM     24  C   UNL     1     100.519  83.579  71.479  1.00  0.00     0.012 C 
ENDBRANCH  21  22
ENDBRANCH  19  20
ENDBRANCH  18  19
ENDBRANCH  17  18
ENDBRANCH   1  17
TORSDOF 10
ENDMDL
MODEL 5
REMARK VINA RESULT:    -6.141      1.073      2.381
REMARK INTER + INTRA:         -10.299
REMARK INTER:                  -9.769
REMARK INTRA:                  -0.529
REMARK UNBOUND:                -0.748
REMARK SMILES COc1cc(CNC(=O)CCCC/C=C/C(C)C)ccc1O
REMARK SMILES IDX 10 1 8 2 7 3 9 5 6 6 5 7 3 8 21 9 4 10 20 11 19 12 2 13 1 14
REMARK SMILES IDX 22 15 11 17 12 18 13 19 14 20 15 21 16 22 17 23 18 24
REMARK H PARENT 7 4 22 16
REMARK Flexibility Score: inf
ROOT
ATOM      1  C   UNL     1      94.324  93.848  77.734  1.00  0.00     0.100 C 
ENDROOT
BRANCH   1   2
ATOM      2  C   UNL     1      94.123  94.421  76.389  1.00  0.00     0.220 C 
ATOM      3  N   UNL     1      94.084  95.772  76.212  1.00  0.00    -0.352 N 
ATOM      4  H   UNL     1      94.177  96.316  77.059  1.00  0.00     0.163 HD
ATOM      5  O   UNL     1      94.014  93.633  75.419  1.00  0.00    -0.275 OA
BRANCH   3   6
ATOM      6  C   UNL     1      93.926  96.425  74.952  1.00  0.00     0.151 C 
BRANCH   6   7
ATOM      7  C   UNL     1      95.239  96.826  74.377  1.00  0.00    -0.025 A 
ATOM      8  C   UNL     1      96.675  97.211  72.414  1.00  0.00     0.160 A 
ATOM      9  C   UNL     1      97.730  97.607  73.262  1.00  0.00     0.157 A 
ATOM     10  C   UNL     1      95.442  96.823  72.978  1.00  0.00     0.056 A 
ATOM     11  C   UNL     1      97.549  97.596  74.659  1.00  0.00     0.050 A 
ATOM     12  C   UNL     1      96.310  97.219  75.213  1.00  0.00     0.009 A 
BRANCH   8  13
ATOM     13  O   UNL     1      96.867  97.156  71.057  1.00  0.00    -0.493 OA
ATOM     14  C   UNL     1      95.749  97.633  70.286  1.00  0.00     0.278 C 
ENDBRANCH   8  13
BRANCH   9  15
ATOM     15  O   UNL     1      98.925  97.999  72.750  1.00  0.00    -0.504 OA
ATOM     16  H   UNL     1      99.010  98.952  72.827  1.00  0.00     0.293 HD
ENDBRANCH   9  15
ENDBRANCH   6   7
ENDBRANCH   3   6
ENDBRANCH   1   2
BRANCH   1  17
ATOM     17  C   UNL     1      92.986  93.369  78.358  1.00  0.00     0.010 C 
BRANCH  17  18
ATOM     18  C   UNL     1      91.739  93.975  77.654  1.00  0.00     0.005 C 
BRANCH  18  19
ATOM     19  C   UNL     1      90.539  92.991  77.628  1.00  0.00     0.027 C 
BRANCH  19  20
ATOM     20  C   UNL     1      90.377  92.361  76.326  1.00  0.00    -0.031 C 
ATOM     21  C   UNL     1      89.908  91.113  76.144  1.00  0.00    -0.028 C 
BRANCH  21  22
ATOM     22  C   UNL     1      89.735  90.506  74.824  1.00  0.00     0.005 C 
ATOM     23  C   UNL     1      89.268  91.535  73.759  1.00  0.00     0.012 C 
ATOM     24  C   UNL     1      91.046  89.806  74.380  1.00  0.00     0.012 C 
ENDBRANCH  21  22
ENDBRANCH  19  20
ENDBRANCH  18  19
ENDBRANCH  17  18
ENDBRANCH   1  17
TORSDOF 10
ENDMDL
MODEL 6
REMARK VINA RESULT:    -6.037     12.642     15.546
REMARK INTER + INTRA:         -10.138
REMARK INTER:                  -9.425
REMARK INTRA:                  -0.713
REMARK UNBOUND:                -0.748
REMARK SMILES COc1cc(CNC(=O)CCCC/C=C/C(C)C)ccc1O
REMARK SMILES IDX 10 1 8 2 7 3 9 5 6 6 5 7 3 8 21 9 4 10 20 11 19 12 2 13 1 14
REMARK SMILES IDX 22 15 11 17 12 18 13 19 14 20 15 21 16 22 17 23 18 24
REMARK H PARENT 7 4 22 16
REMARK Flexibility Score: inf
ROOT
ATOM      1  C   UNL     1      96.853  81.229  76.759  1.00  0.00     0.100 C 
ENDROOT
BRANCH   1   2
ATOM      2  C   UNL     1      97.734  80.996  77.919  1.00  0.00     0.220 C 
ATOM      3  N   UNL     1      97.288  81.231  79.185  1.00  0.00    -0.352 N 
ATOM      4  H   UNL     1      96.345  81.588  79.245  1.00  0.00     0.163 HD
ATOM      5  O   UNL     1      98.890  80.556  77.706  1.00  0.00    -0.275 OA
BRANCH   3   6
ATOM      6  C   UNL     1      98.049  81.007  80.373  1.00  0.00     0.151 C 
BRANCH   6   7
ATOM      7  C   UNL     1      97.170  80.836  81.561  1.00  0.00    -0.025 A 
ATOM      8  C   UNL     1      95.900  81.817  83.429  1.00  0.00     0.160 A 
ATOM      9  C   UNL     1      95.477  80.529  83.818  1.00  0.00     0.157 A 
ATOM     10  C   UNL     1      96.743  81.958  82.307  1.00  0.00     0.056 A 
ATOM     11  C   UNL     1      95.909  79.399  83.096  1.00  0.00     0.050 A 
ATOM     12  C   UNL     1      96.742  79.551  81.970  1.00  0.00     0.009 A 
BRANCH   8  13
ATOM     13  O   UNL     1      95.535  82.913  84.167  1.00  0.00    -0.493 OA
ATOM     14  C   UNL     1      95.851  84.172  83.544  1.00  0.00     0.278 C 
ENDBRANCH   8  13
BRANCH   9  15
ATOM     15  O   UNL     1      94.654  80.360  84.886  1.00  0.00    -0.504 OA
ATOM     16  H   UNL     1      94.082  81.126  84.975  1.00  0.00     0.293 HD
ENDBRANCH   9  15
ENDBRANCH   6   7
ENDBRANCH   3   6
ENDBRANCH   1   2
BRANCH   1  17
ATOM     17  C   UNL     1      95.932  82.460  76.978  1.00  0.00     0.010 C 
BRANCH  17  18
ATOM     18  C   UNL     1      95.926  83.435  75.767  1.00  0.00     0.005 C 
BRANCH  18  19
ATOM     19  C   UNL     1      96.519  82.789  74.486  1.00  0.00     0.027 C 
BRANCH  19  20
ATOM     20  C   UNL     1      97.688  83.507  74.002  1.00  0.00    -0.031 C 
ATOM     21  C   UNL     1      98.937  83.007  74.003  1.00  0.00    -0.028 C 
BRANCH  21  22
ATOM     22  C   UNL     1     100.096  83.740  73.493  1.00  0.00     0.005 C 
ATOM     23  C   UNL     1     101.280  82.798  73.138  1.00  0.00     0.012 C 
ATOM     24  C   UNL     1      99.688  84.601  72.269  1.00  0.00     0.012 C 
ENDBRANCH  21  22
ENDBRANCH  19  20
ENDBRANCH  18  19
ENDBRANCH  17  18
ENDBRANCH   1  17
TORSDOF 10
ENDMDL
MODEL 7
REMARK VINA RESULT:    -5.992      6.561      8.684
REMARK INTER + INTRA:         -10.067
REMARK INTER:                  -9.535
REMARK INTRA:                  -0.532
REMARK UNBOUND:                -0.748
REMARK SMILES COc1cc(CNC(=O)CCCC/C=C/C(C)C)ccc1O
REMARK SMILES IDX 10 1 8 2 7 3 9 5 6 6 5 7 3 8 21 9 4 10 20 11 19 12 2 13 1 14
REMARK SMILES IDX 22 15 11 17 12 18 13 19 14 20 15 21 16 22 17 23 18 24
REMARK H PARENT 7 4 22 16
REMARK Flexibility Score: inf
ROOT
ATOM      1  C   UNL     1      93.537 100.435  73.451  1.00  0.00     0.100 C 
ENDROOT
BRANCH   1   2
ATOM      2  C   UNL     1      92.649 101.139  72.506  1.00  0.00     0.220 C 
ATOM      3  N   UNL     1      91.685 100.458  71.824  1.00  0.00    -0.352 N 
ATOM      4  H   UNL     1      91.657  99.464  72.004  1.00  0.00     0.163 HD
ATOM      5  O   UNL     1      92.793 102.378  72.369  1.00  0.00    -0.275 OA
BRANCH   3   6
ATOM      6  C   UNL     1      90.757 101.050  70.914  1.00  0.00     0.151 C 
BRANCH   6   7
ATOM      7  C   UNL     1      90.255 100.059  69.924  1.00  0.00    -0.025 A 
ATOM      8  C   UNL     1      89.259  99.561  67.728  1.00  0.00     0.160 A 
ATOM      9  C   UNL     1      89.310  98.182  68.017  1.00  0.00     0.157 A 
ATOM     10  C   UNL     1      89.729 100.486  68.684  1.00  0.00     0.056 A 
ATOM     11  C   UNL     1      89.814  97.742  69.257  1.00  0.00     0.050 A 
ATOM     12  C   UNL     1      90.292  98.672  70.200  1.00  0.00     0.009 A 
BRANCH   8  13
ATOM     13  O   UNL     1      88.708  99.997  66.550  1.00  0.00    -0.493 OA
ATOM     14  C   UNL     1      87.275 100.131  66.585  1.00  0.00     0.278 C 
ENDBRANCH   8  13
BRANCH   9  15
ATOM     15  O   UNL     1      88.878  97.264  67.113  1.00  0.00    -0.504 OA
ATOM     16  H   UNL     1      88.619  97.710  66.303  1.00  0.00     0.293 HD
ENDBRANCH   9  15
ENDBRANCH   6   7
ENDBRANCH   3   6
ENDBRANCH   1   2
BRANCH   1  17
ATOM     17  C   UNL     1      93.688  98.934  73.084  1.00  0.00     0.010 C 
BRANCH  17  18
ATOM     18  C   UNL     1      94.247  98.079  74.256  1.00  0.00     0.005 C 
BRANCH  18  19
ATOM     19  C   UNL     1      93.574  96.682  74.341  1.00  0.00     0.027 C 
BRANCH  19  20
ATOM     20  C   UNL     1      93.950  95.966  75.550  1.00  0.00    -0.031 C 
ATOM     21  C   UNL     1      93.181  95.039  76.150  1.00  0.00    -0.028 C 
BRANCH  21  22
ATOM     22  C   UNL     1      93.588  94.317  77.355  1.00  0.00     0.005 C 
ATOM     23  C   UNL     1      94.420  95.205  78.322  1.00  0.00     0.012 C 
ATOM     24  C   UNL     1      92.346  93.730  78.074  1.00  0.00     0.012 C 
ENDBRANCH  21  22
ENDBRANCH  19  20
ENDBRANCH  18  19
ENDBRANCH  17  18
ENDBRANCH   1  17
TORSDOF 10
ENDMDL
MODEL 8
REMARK VINA RESULT:    -5.945     20.933     23.619
REMARK INTER + INTRA:          -9.994
REMARK INTER:                  -7.710
REMARK INTRA:                  -2.284
REMARK UNBOUND:                -0.748
REMARK SMILES COc1cc(CNC(=O)CCCC/C=C/C(C)C)ccc1O
REMARK SMILES IDX 10 1 8 2 7 3 9 5 6 6 5 7 3 8 21 9 4 10 20 11 19 12 2 13 1 14
REMARK SMILES IDX 22 15 11 17 12 18 13 19 14 20 15 21 16 22 17 23 18 24
REMARK H PARENT 7 4 22 16
REMARK Flexibility Score: inf
ROOT
ATOM      1  C   UNL     1      74.967  90.249  65.510  1.00  0.00     0.100 C 
ENDROOT
BRANCH   1   2
ATOM      2  C   UNL     1      74.539  89.068  64.737  1.00  0.00     0.220 C 
ATOM      3  N   UNL     1      73.903  88.032  65.353  1.00  0.00    -0.352 N 
ATOM      4  H   UNL     1      73.781  88.139  66.350  1.00  0.00     0.163 HD
ATOM      5  O   UNL     1      74.757  89.057  63.501  1.00  0.00    -0.275 OA
BRANCH   3   6
ATOM      6  C   UNL     1      73.421  86.862  64.691  1.00  0.00     0.151 C 
BRANCH   6   7
ATOM      7  C   UNL     1      74.312  85.693  64.931  1.00  0.00    -0.025 A 
ATOM      8  C   UNL     1      74.606  83.343  65.604  1.00  0.00     0.160 A 
ATOM      9  C   UNL     1      75.993  83.450  65.373  1.00  0.00     0.157 A 
ATOM     10  C   UNL     1      73.780  84.465  65.383  1.00  0.00     0.056 A 
ATOM     11  C   UNL     1      76.541  84.674  64.941  1.00  0.00     0.050 A 
ATOM     12  C   UNL     1      75.706  85.785  64.711  1.00  0.00     0.009 A 
BRANCH   8  13
ATOM     13  O   UNL     1      74.077  82.174  66.088  1.00  0.00    -0.493 OA
ATOM     14  C   UNL     1      73.111  81.561  65.215  1.00  0.00     0.278 C 
ENDBRANCH   8  13
BRANCH   9  15
ATOM     15  O   UNL     1      76.815  82.386  65.563  1.00  0.00    -0.504 OA
ATOM     16  H   UNL     1      77.129  82.381  66.470  1.00  0.00     0.293 HD
ENDBRANCH   9  15
ENDBRANCH   6   7
ENDBRANCH   3   6
ENDBRANCH   1   2
BRANCH   1  17
ATOM     17  C   UNL     1      75.728  89.844  66.801  1.00  0.00     0.010 C 
BRANCH  17  18
ATOM     18  C   UNL     1      76.990  88.984  66.515  1.00  0.00     0.005 C 
BRANCH  18  19
ATOM     19  C   UNL     1      77.264  87.945  67.636  1.00  0.00     0.027 C 
BRANCH  19  20
ATOM     20  C   UNL     1      76.054  87.246  68.041  1.00  0.00    -0.031 C 
ATOM     21  C   UNL     1      76.013  85.949  68.396  1.00  0.00    -0.028 C 
BRANCH  21  22
ATOM     22  C   UNL     1      74.788  85.271  68.819  1.00  0.00     0.005 C 
ATOM     23  C   UNL     1      74.890  84.720  70.269  1.00  0.00     0.012 C 
ATOM     24  C   UNL     1      73.572  86.221  68.673  1.00  0.00     0.012 C 
ENDBRANCH  21  22
ENDBRANCH  19  20
ENDBRANCH  18  19
ENDBRANCH  17  18
ENDBRANCH   1  17
TORSDOF 10
ENDMDL
MODEL 9
REMARK VINA RESULT:    -5.848     13.600     17.386
REMARK INTER + INTRA:          -9.843
REMARK INTER:                  -9.270
REMARK INTRA:                  -0.573
REMARK UNBOUND:                -0.748
REMARK SMILES COc1cc(CNC(=O)CCCC/C=C/C(C)C)ccc1O
REMARK SMILES IDX 10 1 8 2 7 3 9 5 6 6 5 7 3 8 21 9 4 10 20 11 19 12 2 13 1 14
REMARK SMILES IDX 22 15 11 17 12 18 13 19 14 20 15 21 16 22 17 23 18 24
REMARK H PARENT 7 4 22 16
REMARK Flexibility Score: inf
ROOT
ATOM      1  C   UNL     1      95.808  82.643  84.710  1.00  0.00     0.100 C 
ENDROOT
BRANCH   1   2
ATOM      2  C   UNL     1      94.777  83.474  85.362  1.00  0.00     0.220 C 
ATOM      3  N   UNL     1      93.581  82.933  85.726  1.00  0.00    -0.352 N 
ATOM      4  H   UNL     1      93.466  81.956  85.494  1.00  0.00     0.163 HD
ATOM      5  O   UNL     1      95.044  84.679  85.588  1.00  0.00    -0.275 OA
BRANCH   3   6
ATOM      6  C   UNL     1      92.533  83.642  86.389  1.00  0.00     0.151 C 
BRANCH   6   7
ATOM      7  C   UNL     1      91.451  82.724  86.837  1.00  0.00    -0.025 A 
ATOM      8  C   UNL     1      89.772  80.999  86.319  1.00  0.00     0.160 A 
ATOM      9  C   UNL     1      89.398  80.954  87.679  1.00  0.00     0.157 A 
ATOM     10  C   UNL     1      90.792  81.884  85.912  1.00  0.00     0.056 A 
ATOM     11  C   UNL     1      90.033  81.799  88.610  1.00  0.00     0.050 A 
ATOM     12  C   UNL     1      91.059  82.671  88.195  1.00  0.00     0.009 A 
BRANCH   8  13
ATOM     13  O   UNL     1      89.112  80.226  85.399  1.00  0.00    -0.493 OA
ATOM     14  C   UNL     1      88.005  80.890  84.761  1.00  0.00     0.278 C 
ENDBRANCH   8  13
BRANCH   9  15
ATOM     15  O   UNL     1      88.429  80.104  88.106  1.00  0.00    -0.504 OA
ATOM     16  H   UNL     1      88.803  79.228  88.229  1.00  0.00     0.293 HD
ENDBRANCH   9  15
ENDBRANCH   6   7
ENDBRANCH   3   6
ENDBRANCH   1   2
BRANCH   1  17
ATOM     17  C   UNL     1      95.352  82.162  83.306  1.00  0.00     0.010 C 
BRANCH  17  18
ATOM     18  C   UNL     1      96.352  82.549  82.181  1.00  0.00     0.005 C 
BRANCH  18  19
ATOM     19  C   UNL     1      97.267  81.364  81.769  1.00  0.00     0.027 C 
BRANCH  19  20
ATOM     20  C   UNL     1      97.374  81.232  80.324  1.00  0.00    -0.031 C 
ATOM     21  C   UNL     1      96.946  82.158  79.446  1.00  0.00    -0.028 C 
BRANCH  21  22
ATOM     22  C   UNL     1      97.082  82.013  77.997  1.00  0.00     0.005 C 
ATOM     23  C   UNL     1      97.351  80.542  77.575  1.00  0.00     0.012 C 
ATOM     24  C   UNL     1      95.825  82.573  77.282  1.00  0.00     0.012 C 
ENDBRANCH  21  22
ENDBRANCH  19  20
ENDBRANCH  18  19
ENDBRANCH  17  18
ENDBRANCH   1  17
TORSDOF 10
ENDMDL
MODEL 10
REMARK VINA RESULT:    -5.705     20.534     22.300
REMARK INTER + INTRA:          -9.622
REMARK INTER:                  -8.013
REMARK INTRA:                  -1.609
REMARK UNBOUND:                -0.748
REMARK SMILES COc1cc(CNC(=O)CCCC/C=C/C(C)C)ccc1O
REMARK SMILES IDX 10 1 8 2 7 3 9 5 6 6 5 7 3 8 21 9 4 10 20 11 19 12 2 13 1 14
REMARK SMILES IDX 22 15 11 17 12 18 13 19 14 20 15 21 16 22 17 23 18 24
REMARK H PARENT 7 4 22 16
REMARK Flexibility Score: inf
ROOT
ATOM      1  C   UNL     1      73.331  87.543  65.085  1.00  0.00     0.100 C 
ENDROOT
BRANCH   1   2
ATOM      2  C   UNL     1      72.823  87.915  66.419  1.00  0.00     0.220 C 
ATOM      3  N   UNL     1      73.422  87.435  67.545  1.00  0.00    -0.352 N 
ATOM      4  H   UNL     1      74.198  86.809  67.382  1.00  0.00     0.163 HD
ATOM      5  O   UNL     1      71.845  88.698  66.483  1.00  0.00    -0.275 OA
BRANCH   3   6
ATOM      6  C   UNL     1      73.028  87.759  68.879  1.00  0.00     0.151 C 
BRANCH   6   7
ATOM      7  C   UNL     1      73.583  89.071  69.310  1.00  0.00    -0.025 A 
ATOM      8  C   UNL     1      73.316  91.206  70.507  1.00  0.00     0.160 A 
ATOM      9  C   UNL     1      74.633  91.569  70.156  1.00  0.00     0.157 A 
ATOM     10  C   UNL     1      72.803  89.964  70.079  1.00  0.00     0.056 A 
ATOM     11  C   UNL     1      75.416  90.698  69.373  1.00  0.00     0.050 A 
ATOM     12  C   UNL     1      74.899  89.454  68.960  1.00  0.00     0.009 A 
BRANCH   8  13
ATOM     13  O   UNL     1      72.528  92.079  71.213  1.00  0.00    -0.493 OA
ATOM     14  C   UNL     1      72.527  91.851  72.634  1.00  0.00     0.278 C 
ENDBRANCH   8  13
BRANCH   9  15
ATOM     15  O   UNL     1      75.162  92.752  70.562  1.00  0.00    -0.504 OA
ATOM     16  H   UNL     1      74.830  93.460  70.005  1.00  0.00     0.293 HD
ENDBRANCH   9  15
ENDBRANCH   6   7
ENDBRANCH   3   6
ENDBRANCH   1   2
BRANCH   1  17
ATOM     17  C   UNL     1      74.862  87.283  65.107  1.00  0.00     0.010 C 
BRANCH  17  18
ATOM     18  C   UNL     1      75.695  88.591  65.220  1.00  0.00     0.005 C 
BRANCH  18  19
ATOM     19  C   UNL     1      76.842  88.472  66.260  1.00  0.00     0.027 C 
BRANCH  19  20
ATOM     20  C   UNL     1      76.977  87.117  66.774  1.00  0.00    -0.031 C 
ATOM     21  C   UNL     1      76.965  86.800  68.082  1.00  0.00    -0.028 C 
BRANCH  21  22
ATOM     22  C   UNL     1      77.082  85.428  68.575  1.00  0.00     0.005 C 
ATOM     23  C   UNL     1      75.844  84.994  69.409  1.00  0.00     0.012 C 
ATOM     24  C   UNL     1      77.323  84.452  67.395  1.00  0.00     0.012 C 
ENDBRANCH  21  22
ENDBRANCH  19  20
ENDBRANCH  18  19
ENDBRANCH  17  18
ENDBRANCH   1  17
TORSDOF 10
ENDMDL
