MODEL 1
REMARK VINA RESULT:    -5.746      0.000      0.000
REMARK INTER + INTRA:          -9.886
REMARK INTER:                  -8.937
REMARK INTRA:                  -0.949
REMARK UNBOUND:                -0.949
REMARK SMILES CCCCC/C=C/C(=O)CCc1ccc(O)c(OC)c1
REMARK SMILES IDX 6 1 7 2 8 3 9 4 10 5 11 6 12 7 17 8 20 9 15 10 14 11 13 12
REMARK SMILES IDX 18 13 19 14 16 15 5 17 4 18 3 19 2 20 1 21
REMARK H PARENT 16 16
REMARK Flexibility Score: inf
ROOT
ATOM      1  C   UNL     1      81.603  64.720  75.870  1.00  0.00    -0.023 C 
ATOM      2  C   UNL     1      81.622  64.221  74.628  1.00  0.00     0.043 C 
ENDROOT
BRANCH   2   3
ATOM      3  C   UNL     1      80.356  64.116  73.852  1.00  0.00     0.155 C 
ATOM      4  O   UNL     1      79.526  63.239  74.080  1.00  0.00    -0.295 OA
BRANCH   3   5
ATOM      5  C   UNL     1      80.167  65.116  72.728  1.00  0.00     0.085 C 
BRANCH   5   6
ATOM      6  C   UNL     1      80.256  66.553  73.243  1.00  0.00     0.044 C 
BRANCH   6   7
ATOM      7  C   UNL     1      81.409  67.322  72.642  1.00  0.00    -0.044 A 
ATOM      8  C   UNL     1      83.592  68.294  72.862  1.00  0.00     0.160 A 
ATOM      9  C   UNL     1      82.527  67.584  73.417  1.00  0.00     0.054 A 
ATOM     10  C   UNL     1      83.524  68.733  71.540  1.00  0.00     0.157 A 
ATOM     11  C   UNL     1      82.390  68.462  70.772  1.00  0.00     0.050 A 
ATOM     12  C   UNL     1      81.326  67.752  71.328  1.00  0.00     0.008 A 
BRANCH   8  13
ATOM     13  O   UNL     1      84.693  68.552  73.621  1.00  0.00    -0.493 OA
ATOM     14  C   UNL     1      85.244  67.461  74.356  1.00  0.00     0.278 C 
ENDBRANCH   8  13
BRANCH  10  15
ATOM     15  O   UNL     1      84.557  69.427  70.986  1.00  0.00    -0.504 OA
ATOM     16  H   UNL     1      85.351  68.865  71.011  1.00  0.00     0.293 HD
ENDBRANCH  10  15
ENDBRANCH   6   7
ENDBRANCH   5   6
ENDBRANCH   3   5
ENDBRANCH   2   3
BRANCH   1  17
ATOM     17  C   UNL     1      82.834  64.859  76.717  1.00  0.00     0.027 C 
BRANCH  17  18
ATOM     18  C   UNL     1      83.930  63.851  76.355  1.00  0.00     0.004 C 
BRANCH  18  19
ATOM     19  C   UNL     1      84.371  62.974  77.532  1.00  0.00     0.000 C 
BRANCH  19  20
ATOM     20  C   UNL     1      85.312  63.735  78.466  1.00  0.00    -0.003 C 
ATOM     21  C   UNL     1      85.067  63.372  79.921  1.00  0.00     0.004 C 
ENDBRANCH  19  20
ENDBRANCH  18  19
ENDBRANCH  17  18
ENDBRANCH   1  17
TORSDOF 10
ENDMDL
MODEL 2
REMARK VINA RESULT:    -5.728      2.211      4.189
REMARK INTER + INTRA:          -9.859
REMARK INTER:                  -9.244
REMARK INTRA:                  -0.615
REMARK UNBOUND:                -0.949
REMARK SMILES CCCCC/C=C/C(=O)CCc1ccc(O)c(OC)c1
REMARK SMILES IDX 6 1 7 2 8 3 9 4 10 5 11 6 12 7 17 8 20 9 15 10 14 11 13 12
REMARK SMILES IDX 18 13 19 14 16 15 5 17 4 18 3 19 2 20 1 21
REMARK H PARENT 16 16
REMARK Flexibility Score: inf
ROOT
ATOM      1  C   UNL     1      84.772  63.652  78.550  1.00  0.00    -0.023 C 
ATOM      2  C   UNL     1      84.431  63.012  77.425  1.00  0.00     0.043 C 
ENDROOT
BRANCH   2   3
ATOM      3  C   UNL     1      83.858  63.775  76.282  1.00  0.00     0.155 C 
ATOM      4  O   UNL     1      83.886  63.340  75.133  1.00  0.00    -0.295 OA
BRANCH   3   5
ATOM      5  C   UNL     1      83.284  65.141  76.602  1.00  0.00     0.085 C 
BRANCH   5   6
ATOM      6  C   UNL     1      81.761  65.151  76.460  1.00  0.00     0.044 C 
BRANCH   6   7
ATOM      7  C   UNL     1      81.304  65.472  75.056  1.00  0.00    -0.044 A 
ATOM      8  C   UNL     1      81.166  67.013  73.222  1.00  0.00     0.160 A 
ATOM      9  C   UNL     1      81.588  66.717  74.518  1.00  0.00     0.054 A 
ATOM     10  C   UNL     1      80.466  66.062  72.481  1.00  0.00     0.157 A 
ATOM     11  C   UNL     1      80.187  64.812  73.037  1.00  0.00     0.050 A 
ATOM     12  C   UNL     1      80.609  64.516  74.334  1.00  0.00     0.008 A 
BRANCH   8  13
ATOM     13  O   UNL     1      81.444  68.237  72.691  1.00  0.00    -0.493 OA
ATOM     14  C   UNL     1      82.797  68.487  72.312  1.00  0.00     0.278 C 
ENDBRANCH   8  13
BRANCH  10  15
ATOM     15  O   UNL     1      80.049  66.339  71.214  1.00  0.00    -0.504 OA
ATOM     16  H   UNL     1      80.504  67.144  70.913  1.00  0.00     0.293 HD
ENDBRANCH  10  15
ENDBRANCH   6   7
ENDBRANCH   5   6
ENDBRANCH   3   5
ENDBRANCH   2   3
BRANCH   1  17
ATOM     17  C   UNL     1      85.354  62.955  79.746  1.00  0.00     0.027 C 
BRANCH  17  18
ATOM     18  C   UNL     1      85.060  63.677  81.065  1.00  0.00     0.004 C 
BRANCH  18  19
ATOM     19  C   UNL     1      85.930  64.918  81.293  1.00  0.00     0.000 C 
BRANCH  19  20
ATOM     20  C   UNL     1      86.499  64.940  82.712  1.00  0.00    -0.003 C 
ATOM     21  C   UNL     1      85.812  65.988  83.572  1.00  0.00     0.004 C 
ENDBRANCH  19  20
ENDBRANCH  18  19
ENDBRANCH  17  18
ENDBRANCH   1  17
TORSDOF 10
ENDMDL
MODEL 3
REMARK VINA RESULT:    -5.631      2.165      3.203
REMARK INTER + INTRA:          -9.707
REMARK INTER:                  -8.250
REMARK INTRA:                  -1.457
REMARK UNBOUND:                -0.949
REMARK SMILES CCCCC/C=C/C(=O)CCc1ccc(O)c(OC)c1
REMARK SMILES IDX 6 1 7 2 8 3 9 4 10 5 11 6 12 7 17 8 20 9 15 10 14 11 13 12
REMARK SMILES IDX 18 13 19 14 16 15 5 17 4 18 3 19 2 20 1 21
REMARK H PARENT 16 16
REMARK Flexibility Score: inf
ROOT
ATOM      1  C   UNL     1      80.177  65.092  73.036  1.00  0.00    -0.023 C 
ATOM      2  C   UNL     1      81.055  65.450  72.092  1.00  0.00     0.043 C 
ENDROOT
BRANCH   2   3
ATOM      3  C   UNL     1      80.623  66.332  70.973  1.00  0.00     0.155 C 
ATOM      4  O   UNL     1      79.801  65.963  70.137  1.00  0.00    -0.295 OA
BRANCH   3   5
ATOM      5  C   UNL     1      81.289  67.691  70.888  1.00  0.00     0.085 C 
BRANCH   5   6
ATOM      6  C   UNL     1      81.643  68.225  72.277  1.00  0.00     0.044 C 
BRANCH   6   7
ATOM      7  C   UNL     1      83.079  68.682  72.382  1.00  0.00    -0.044 A 
ATOM      8  C   UNL     1      85.229  68.538  73.438  1.00  0.00     0.160 A 
ATOM      9  C   UNL     1      83.903  68.115  73.341  1.00  0.00     0.054 A 
ATOM     10  C   UNL     1      85.713  69.521  72.575  1.00  0.00     0.157 A 
ATOM     11  C   UNL     1      84.870  70.082  71.615  1.00  0.00     0.050 A 
ATOM     12  C   UNL     1      83.544  69.660  71.519  1.00  0.00     0.008 A 
BRANCH   8  13
ATOM     13  O   UNL     1      86.042  67.982  74.380  1.00  0.00    -0.493 OA
ATOM     14  C   UNL     1      86.472  66.641  74.155  1.00  0.00     0.278 C 
ENDBRANCH   8  13
BRANCH  10  15
ATOM     15  O   UNL     1      87.006  69.941  72.660  1.00  0.00    -0.504 OA
ATOM     16  H   UNL     1      87.569  69.166  72.828  1.00  0.00     0.293 HD
ENDBRANCH  10  15
ENDBRANCH   6   7
ENDBRANCH   5   6
ENDBRANCH   3   5
ENDBRANCH   2   3
BRANCH   1  17
ATOM     17  C   UNL     1      80.534  64.206  74.195  1.00  0.00     0.027 C 
BRANCH  17  18
ATOM     18  C   UNL     1      81.617  64.804  75.098  1.00  0.00     0.004 C 
BRANCH  18  19
ATOM     19  C   UNL     1      81.244  66.170  75.684  1.00  0.00     0.000 C 
BRANCH  19  20
ATOM     20  C   UNL     1      82.409  66.769  76.472  1.00  0.00    -0.003 C 
ATOM     21  C   UNL     1      83.612  65.840  76.482  1.00  0.00     0.004 C 
ENDBRANCH  19  20
ENDBRANCH  18  19
ENDBRANCH  17  18
ENDBRANCH   1  17
TORSDOF 10
ENDMDL
MODEL 4
REMARK VINA RESULT:    -5.529     25.112     26.883
REMARK INTER + INTRA:          -9.549
REMARK INTER:                  -8.094
REMARK INTRA:                  -1.454
REMARK UNBOUND:                -0.949
REMARK SMILES CCCCC/C=C/C(=O)CCc1ccc(O)c(OC)c1
REMARK SMILES IDX 6 1 7 2 8 3 9 4 10 5 11 6 12 7 17 8 20 9 15 10 14 11 13 12
REMARK SMILES IDX 18 13 19 14 16 15 5 17 4 18 3 19 2 20 1 21
REMARK H PARENT 16 16
REMARK Flexibility Score: inf
ROOT
ATOM      1  C   UNL     1      81.515  89.925  84.697  1.00  0.00    -0.023 C 
ATOM      2  C   UNL     1      82.750  89.464  84.931  1.00  0.00     0.043 C 
ENDROOT
BRANCH   2   3
ATOM      3  C   UNL     1      83.843  90.414  85.273  1.00  0.00     0.155 C 
ATOM      4  O   UNL     1      84.345  91.156  84.432  1.00  0.00    -0.295 OA
BRANCH   3   5
ATOM      5  C   UNL     1      84.344  90.381  86.704  1.00  0.00     0.085 C 
BRANCH   5   6
ATOM      6  C   UNL     1      83.303  90.947  87.670  1.00  0.00     0.044 C 
BRANCH   6   7
ATOM      7  C   UNL     1      82.896  89.961  88.740  1.00  0.00    -0.044 A 
ATOM      8  C   UNL     1      81.616  88.047  89.418  1.00  0.00     0.160 A 
ATOM      9  C   UNL     1      81.991  88.958  88.430  1.00  0.00     0.054 A 
ATOM     10  C   UNL     1      82.150  88.151  90.702  1.00  0.00     0.157 A 
ATOM     11  C   UNL     1      83.060  89.167  90.998  1.00  0.00     0.050 A 
ATOM     12  C   UNL     1      83.435  90.078  90.011  1.00  0.00     0.008 A 
BRANCH   8  13
ATOM     13  O   UNL     1      80.727  87.060  89.115  1.00  0.00    -0.493 OA
ATOM     14  C   UNL     1      79.360  87.441  88.969  1.00  0.00     0.278 C 
ENDBRANCH   8  13
BRANCH  10  15
ATOM     15  O   UNL     1      81.792  87.267  91.674  1.00  0.00    -0.504 OA
ATOM     16  H   UNL     1      82.560  86.703  91.872  1.00  0.00     0.293 HD
ENDBRANCH  10  15
ENDBRANCH   6   7
ENDBRANCH   5   6
ENDBRANCH   3   5
ENDBRANCH   2   3
BRANCH   1  17
ATOM     17  C   UNL     1      80.359  89.034  84.346  1.00  0.00     0.027 C 
BRANCH  17  18
ATOM     18  C   UNL     1      80.791  87.623  83.933  1.00  0.00     0.004 C 
BRANCH  18  19
ATOM     19  C   UNL     1      79.850  86.522  84.433  1.00  0.00     0.000 C 
BRANCH  19  20
ATOM     20  C   UNL     1      80.374  85.892  85.723  1.00  0.00    -0.003 C 
ATOM     21  C   UNL     1      81.889  85.985  85.814  1.00  0.00     0.004 C 
ENDBRANCH  19  20
ENDBRANCH  18  19
ENDBRANCH  17  18
ENDBRANCH   1  17
TORSDOF 10
ENDMDL
MODEL 5
REMARK VINA RESULT:    -5.434      2.006      4.706
REMARK INTER + INTRA:          -9.401
REMARK INTER:                  -7.578
REMARK INTRA:                  -1.823
REMARK UNBOUND:                -0.949
REMARK SMILES CCCCC/C=C/C(=O)CCc1ccc(O)c(OC)c1
REMARK SMILES IDX 6 1 7 2 8 3 9 4 10 5 11 6 12 7 17 8 20 9 15 10 14 11 13 12
REMARK SMILES IDX 18 13 19 14 16 15 5 17 4 18 3 19 2 20 1 21
REMARK H PARENT 16 16
REMARK Flexibility Score: inf
ROOT
ATOM      1  C   UNL     1      81.560  64.106  74.893  1.00  0.00    -0.023 C 
ATOM      2  C   UNL     1      81.801  64.823  75.997  1.00  0.00     0.043 C 
ENDROOT
BRANCH   2   3
ATOM      3  C   UNL     1      83.148  64.783  76.628  1.00  0.00     0.155 C 
ATOM      4  O   UNL     1      83.433  63.960  77.496  1.00  0.00    -0.295 OA
BRANCH   3   5
ATOM      5  C   UNL     1      84.136  65.844  76.183  1.00  0.00     0.085 C 
BRANCH   5   6
ATOM      6  C   UNL     1      83.438  66.959  75.403  1.00  0.00     0.044 C 
BRANCH   6   7
ATOM      7  C   UNL     1      83.850  67.006  73.951  1.00  0.00    -0.044 A 
ATOM      8  C   UNL     1      84.473  68.276  72.012  1.00  0.00     0.160 A 
ATOM      9  C   UNL     1      84.092  68.233  73.353  1.00  0.00     0.054 A 
ATOM     10  C   UNL     1      84.607  67.093  71.286  1.00  0.00     0.157 A 
ATOM     11  C   UNL     1      84.359  65.865  71.902  1.00  0.00     0.050 A 
ATOM     12  C   UNL     1      83.979  65.822  73.243  1.00  0.00     0.008 A 
BRANCH   8  13
ATOM     13  O   UNL     1      84.711  69.481  71.422  1.00  0.00    -0.493 OA
ATOM     14  C   UNL     1      83.578  70.302  71.144  1.00  0.00     0.278 C 
ENDBRANCH   8  13
BRANCH  10  15
ATOM     15  O   UNL     1      84.978  67.121  69.976  1.00  0.00    -0.504 OA
ATOM     16  H   UNL     1      85.628  66.413  69.827  1.00  0.00     0.293 HD
ENDBRANCH  10  15
ENDBRANCH   6   7
ENDBRANCH   5   6
ENDBRANCH   3   5
ENDBRANCH   2   3
BRANCH   1  17
ATOM     17  C   UNL     1      80.230  64.092  74.197  1.00  0.00     0.027 C 
BRANCH  17  18
ATOM     18  C   UNL     1      80.162  65.058  73.009  1.00  0.00     0.004 C 
BRANCH  18  19
ATOM     19  C   UNL     1      80.170  66.535  73.418  1.00  0.00     0.000 C 
BRANCH  19  20
ATOM     20  C   UNL     1      80.580  67.429  72.247  1.00  0.00    -0.003 C 
ATOM     21  C   UNL     1      80.371  66.730  70.913  1.00  0.00     0.004 C 
ENDBRANCH  19  20
ENDBRANCH  18  19
ENDBRANCH  17  18
ENDBRANCH   1  17
TORSDOF 10
ENDMDL
MODEL 6
REMARK VINA RESULT:    -5.390     24.570     26.133
REMARK INTER + INTRA:          -9.333
REMARK INTER:                  -7.996
REMARK INTRA:                  -1.336
REMARK UNBOUND:                -0.949
REMARK SMILES CCCCC/C=C/C(=O)CCc1ccc(O)c(OC)c1
REMARK SMILES IDX 6 1 7 2 8 3 9 4 10 5 11 6 12 7 17 8 20 9 15 10 14 11 13 12
REMARK SMILES IDX 18 13 19 14 16 15 5 17 4 18 3 19 2 20 1 21
REMARK H PARENT 16 16
REMARK Flexibility Score: inf
ROOT
ATOM      1  C   UNL     1      81.790  88.819  84.646  1.00  0.00    -0.023 C 
ATOM      2  C   UNL     1      80.650  88.195  84.324  1.00  0.00     0.043 C 
ENDROOT
BRANCH   2   3
ATOM      3  C   UNL     1      80.634  86.716  84.160  1.00  0.00     0.155 C 
ATOM      4  O   UNL     1      80.921  86.179  83.092  1.00  0.00    -0.295 OA
BRANCH   3   5
ATOM      5  C   UNL     1      80.194  85.907  85.364  1.00  0.00     0.085 C 
BRANCH   5   6
ATOM      6  C   UNL     1      81.291  85.854  86.428  1.00  0.00     0.044 C 
BRANCH   6   7
ATOM      7  C   UNL     1      80.926  86.607  87.686  1.00  0.00    -0.044 A 
ATOM      8  C   UNL     1      81.596  87.809  89.652  1.00  0.00     0.160 A 
ATOM      9  C   UNL     1      81.934  87.113  88.491  1.00  0.00     0.054 A 
ATOM     10  C   UNL     1      80.256  87.988  89.993  1.00  0.00     0.157 A 
ATOM     11  C   UNL     1      79.252  87.471  89.173  1.00  0.00     0.050 A 
ATOM     12  C   UNL     1      79.590  86.776  88.012  1.00  0.00     0.008 A 
BRANCH   8  13
ATOM     13  O   UNL     1      82.585  88.308  90.445  1.00  0.00    -0.493 OA
ATOM     14  C   UNL     1      83.154  89.559  90.062  1.00  0.00     0.278 C 
ENDBRANCH   8  13
BRANCH  10  15
ATOM     15  O   UNL     1      79.913  88.666  91.124  1.00  0.00    -0.504 OA
ATOM     16  H   UNL     1      80.645  88.588  91.760  1.00  0.00     0.293 HD
ENDBRANCH  10  15
ENDBRANCH   6   7
ENDBRANCH   5   6
ENDBRANCH   3   5
ENDBRANCH   2   3
BRANCH   1  17
ATOM     17  C   UNL     1      81.889  90.305  84.830  1.00  0.00     0.027 C 
BRANCH  17  18
ATOM     18  C   UNL     1      83.211  90.746  85.468  1.00  0.00     0.004 C 
BRANCH  18  19
ATOM     19  C   UNL     1      83.846  89.678  86.363  1.00  0.00     0.000 C 
BRANCH  19  20
ATOM     20  C   UNL     1      85.338  89.522  86.063  1.00  0.00    -0.003 C 
ATOM     21  C   UNL     1      85.817  90.565  85.066  1.00  0.00     0.004 C 
ENDBRANCH  19  20
ENDBRANCH  18  19
ENDBRANCH  17  18
ENDBRANCH   1  17
TORSDOF 10
ENDMDL
MODEL 7
REMARK VINA RESULT:    -5.366      2.221      5.227
REMARK INTER + INTRA:          -9.296
REMARK INTER:                  -7.917
REMARK INTRA:                  -1.379
REMARK UNBOUND:                -0.949
REMARK SMILES CCCCC/C=C/C(=O)CCc1ccc(O)c(OC)c1
REMARK SMILES IDX 6 1 7 2 8 3 9 4 10 5 11 6 12 7 17 8 20 9 15 10 14 11 13 12
REMARK SMILES IDX 18 13 19 14 16 15 5 17 4 18 3 19 2 20 1 21
REMARK H PARENT 16 16
REMARK Flexibility Score: inf
ROOT
ATOM      1  C   UNL     1      80.295  65.405  71.767  1.00  0.00    -0.023 C 
ATOM      2  C   UNL     1      80.210  65.392  73.103  1.00  0.00     0.043 C 
ENDROOT
BRANCH   2   3
ATOM      3  C   UNL     1      80.412  64.119  73.846  1.00  0.00     0.155 C 
ATOM      4  O   UNL     1      79.529  63.268  73.927  1.00  0.00    -0.295 OA
BRANCH   3   5
ATOM      5  C   UNL     1      81.747  63.949  74.545  1.00  0.00     0.085 C 
BRANCH   5   6
ATOM      6  C   UNL     1      82.850  64.735  73.834  1.00  0.00     0.044 C 
BRANCH   6   7
ATOM      7  C   UNL     1      83.372  65.889  74.657  1.00  0.00    -0.044 A 
ATOM      8  C   UNL     1      84.807  67.800  74.874  1.00  0.00     0.160 A 
ATOM      9  C   UNL     1      84.326  66.734  74.113  1.00  0.00     0.054 A 
ATOM     10  C   UNL     1      84.330  68.006  76.167  1.00  0.00     0.157 A 
ATOM     11  C   UNL     1      83.370  67.145  76.702  1.00  0.00     0.050 A 
ATOM     12  C   UNL     1      82.889  66.080  75.941  1.00  0.00     0.008 A 
BRANCH   8  13
ATOM     13  O   UNL     1      85.745  68.633  74.341  1.00  0.00    -0.493 OA
ATOM     14  C   UNL     1      87.042  68.086  74.109  1.00  0.00     0.278 C 
ENDBRANCH   8  13
BRANCH  10  15
ATOM     15  O   UNL     1      84.793  69.043  76.920  1.00  0.00    -0.504 OA
ATOM     16  H   UNL     1      84.212  69.142  77.693  1.00  0.00     0.293 HD
ENDBRANCH  10  15
ENDBRANCH   6   7
ENDBRANCH   5   6
ENDBRANCH   3   5
ENDBRANCH   2   3
BRANCH   1  17
ATOM     17  C   UNL     1      80.103  66.647  70.944  1.00  0.00     0.027 C 
BRANCH  17  18
ATOM     18  C   UNL     1      80.959  67.824  71.424  1.00  0.00     0.004 C 
BRANCH  18  19
ATOM     19  C   UNL     1      82.440  67.697  71.054  1.00  0.00     0.000 C 
BRANCH  19  20
ATOM     20  C   UNL     1      83.155  69.044  71.168  1.00  0.00    -0.003 C 
ATOM     21  C   UNL     1      84.663  68.886  71.050  1.00  0.00     0.004 C 
ENDBRANCH  19  20
ENDBRANCH  18  19
ENDBRANCH  17  18
ENDBRANCH   1  17
TORSDOF 10
ENDMDL
MODEL 8
REMARK VINA RESULT:    -5.345      3.828      7.966
REMARK INTER + INTRA:          -9.264
REMARK INTER:                  -8.347
REMARK INTRA:                  -0.917
REMARK UNBOUND:                -0.949
REMARK SMILES CCCCC/C=C/C(=O)CCc1ccc(O)c(OC)c1
REMARK SMILES IDX 6 1 7 2 8 3 9 4 10 5 11 6 12 7 17 8 20 9 15 10 14 11 13 12
REMARK SMILES IDX 18 13 19 14 16 15 5 17 4 18 3 19 2 20 1 21
REMARK H PARENT 16 16
REMARK Flexibility Score: inf
ROOT
ATOM      1  C   UNL     1      82.582  65.512  76.603  1.00  0.00    -0.023 C 
ATOM      2  C   UNL     1      82.932  64.370  75.998  1.00  0.00     0.043 C 
ENDROOT
BRANCH   2   3
ATOM      3  C   UNL     1      84.102  63.596  76.493  1.00  0.00     0.155 C 
ATOM      4  O   UNL     1      84.823  62.952  75.734  1.00  0.00    -0.295 OA
BRANCH   3   5
ATOM      5  C   UNL     1      84.329  63.599  77.992  1.00  0.00     0.085 C 
BRANCH   5   6
ATOM      6  C   UNL     1      85.786  63.915  78.333  1.00  0.00     0.044 C 
BRANCH   6   7
ATOM      7  C   UNL     1      85.953  64.500  79.716  1.00  0.00    -0.044 A 
ATOM      8  C   UNL     1      86.997  66.084  81.185  1.00  0.00     0.160 A 
ATOM      9  C   UNL     1      86.844  65.543  79.908  1.00  0.00     0.054 A 
ATOM     10  C   UNL     1      86.258  65.573  82.252  1.00  0.00     0.157 A 
ATOM     11  C   UNL     1      85.365  64.521  82.042  1.00  0.00     0.050 A 
ATOM     12  C   UNL     1      85.212  63.981  80.765  1.00  0.00     0.008 A 
BRANCH   8  13
ATOM     13  O   UNL     1      87.872  67.110  81.378  1.00  0.00    -0.493 OA
ATOM     14  C   UNL     1      87.443  68.411  80.979  1.00  0.00     0.278 C 
ENDBRANCH   8  13
BRANCH  10  15
ATOM     15  O   UNL     1      86.399  66.092  83.504  1.00  0.00    -0.504 OA
ATOM     16  H   UNL     1      86.864  66.943  83.431  1.00  0.00     0.293 HD
ENDBRANCH  10  15
ENDBRANCH   6   7
ENDBRANCH   5   6
ENDBRANCH   3   5
ENDBRANCH   2   3
BRANCH   1  17
ATOM     17  C   UNL     1      81.416  66.349  76.163  1.00  0.00     0.027 C 
BRANCH  17  18
ATOM     18  C   UNL     1      81.429  66.658  74.663  1.00  0.00     0.004 C 
BRANCH  18  19
ATOM     19  C   UNL     1      80.184  66.160  73.923  1.00  0.00     0.000 C 
BRANCH  19  20
ATOM     20  C   UNL     1      80.455  64.829  73.221  1.00  0.00    -0.003 C 
ATOM     21  C   UNL     1      79.918  63.656  74.025  1.00  0.00     0.004 C 
ENDBRANCH  19  20
ENDBRANCH  18  19
ENDBRANCH  17  18
ENDBRANCH   1  17
TORSDOF 10
ENDMDL
MODEL 9
REMARK VINA RESULT:    -5.280      2.505      4.774
REMARK INTER + INTRA:          -9.162
REMARK INTER:                  -7.322
REMARK INTRA:                  -1.840
REMARK UNBOUND:                -0.949
REMARK SMILES CCCCC/C=C/C(=O)CCc1ccc(O)c(OC)c1
REMARK SMILES IDX 6 1 7 2 8 3 9 4 10 5 11 6 12 7 17 8 20 9 15 10 14 11 13 12
REMARK SMILES IDX 18 13 19 14 16 15 5 17 4 18 3 19 2 20 1 21
REMARK H PARENT 16 16
REMARK Flexibility Score: inf
ROOT
ATOM      1  C   UNL     1      84.857  64.739  75.011  1.00  0.00    -0.023 C 
ATOM      2  C   UNL     1      84.236  65.398  75.997  1.00  0.00     0.043 C 
ENDROOT
BRANCH   2   3
ATOM      3  C   UNL     1      83.217  64.701  76.828  1.00  0.00     0.155 C 
ATOM      4  O   UNL     1      83.520  63.793  77.599  1.00  0.00    -0.295 OA
BRANCH   3   5
ATOM      5  C   UNL     1      81.777  65.133  76.636  1.00  0.00     0.085 C 
BRANCH   5   6
ATOM      6  C   UNL     1      81.692  66.479  75.914  1.00  0.00     0.044 C 
BRANCH   6   7
ATOM      7  C   UNL     1      81.231  66.349  74.481  1.00  0.00    -0.044 A 
ATOM      8  C   UNL     1      81.139  67.216  72.245  1.00  0.00     0.160 A 
ATOM      9  C   UNL     1      81.565  67.337  73.568  1.00  0.00     0.054 A 
ATOM     10  C   UNL     1      80.385  66.111  71.853  1.00  0.00     0.157 A 
ATOM     11  C   UNL     1      80.057  65.125  72.784  1.00  0.00     0.050 A 
ATOM     12  C   UNL     1      80.482  65.246  74.107  1.00  0.00     0.008 A 
BRANCH   8  13
ATOM     13  O   UNL     1      81.467  68.186  71.346  1.00  0.00    -0.493 OA
ATOM     14  C   UNL     1      82.811  68.661  71.365  1.00  0.00     0.278 C 
ENDBRANCH   8  13
BRANCH  10  15
ATOM     15  O   UNL     1      79.964  65.982  70.564  1.00  0.00    -0.504 OA
ATOM     16  H   UNL     1      79.038  66.273  70.515  1.00  0.00     0.293 HD
ENDBRANCH  10  15
ENDBRANCH   6   7
ENDBRANCH   5   6
ENDBRANCH   3   5
ENDBRANCH   2   3
BRANCH   1  17
ATOM     17  C   UNL     1      85.894  65.370  74.128  1.00  0.00     0.027 C 
BRANCH  17  18
ATOM     18  C   UNL     1      85.361  65.736  72.739  1.00  0.00     0.004 C 
BRANCH  18  19
ATOM     19  C   UNL     1      84.161  64.891  72.300  1.00  0.00     0.000 C 
BRANCH  19  20
ATOM     20  C   UNL     1      83.818  65.141  70.831  1.00  0.00    -0.003 C 
ATOM     21  C   UNL     1      85.000  65.725  70.075  1.00  0.00     0.004 C 
ENDBRANCH  19  20
ENDBRANCH  18  19
ENDBRANCH  17  18
ENDBRANCH   1  17
TORSDOF 10
ENDMDL
MODEL 10
REMARK VINA RESULT:    -5.231     21.320     23.660
REMARK INTER + INTRA:          -9.086
REMARK INTER:                  -7.625
REMARK INTRA:                  -1.460
REMARK UNBOUND:                -0.949
REMARK SMILES CCCCC/C=C/C(=O)CCc1ccc(O)c(OC)c1
REMARK SMILES IDX 6 1 7 2 8 3 9 4 10 5 11 6 12 7 17 8 20 9 15 10 14 11 13 12
REMARK SMILES IDX 18 13 19 14 16 15 5 17 4 18 3 19 2 20 1 21
REMARK H PARENT 16 16
REMARK Flexibility Score: inf
ROOT
ATOM      1  C   UNL     1      99.836  82.654  76.277  1.00  0.00    -0.023 C 
ATOM      2  C   UNL     1      98.859  83.014  75.437  1.00  0.00     0.043 C 
ENDROOT
BRANCH   2   3
ATOM      3  C   UNL     1      97.436  82.819  75.827  1.00  0.00     0.155 C 
ATOM      4  O   UNL     1      96.589  82.433  75.023  1.00  0.00    -0.295 OA
BRANCH   3   5
ATOM      5  C   UNL     1      97.072  83.172  77.256  1.00  0.00     0.085 C 
BRANCH   5   6
ATOM      6  C   UNL     1      96.747  81.920  78.072  1.00  0.00     0.044 C 
BRANCH   6   7
ATOM      7  C   UNL     1      97.707  81.698  79.217  1.00  0.00    -0.044 A 
ATOM      8  C   UNL     1      98.712  80.229  80.826  1.00  0.00     0.160 A 
ATOM      9  C   UNL     1      97.824  80.433  79.769  1.00  0.00     0.054 A 
ATOM     10  C   UNL     1      99.469  81.292  81.317  1.00  0.00     0.157 A 
ATOM     11  C   UNL     1      99.340  82.561  80.750  1.00  0.00     0.050 A 
ATOM     12  C   UNL     1      98.452  82.765  79.693  1.00  0.00     0.008 A 
BRANCH   8  13
ATOM     13  O   UNL     1      98.829  78.986  81.372  1.00  0.00    -0.493 OA
ATOM     14  C   UNL     1      97.759  78.539  82.203  1.00  0.00     0.278 C 
ENDBRANCH   8  13
BRANCH  10  15
ATOM     15  O   UNL     1     100.339  81.105  82.348  1.00  0.00    -0.504 OA
ATOM     16  H   UNL     1      99.829  81.067  83.175  1.00  0.00     0.293 HD
ENDBRANCH  10  15
ENDBRANCH   6   7
ENDBRANCH   5   6
ENDBRANCH   3   5
ENDBRANCH   2   3
BRANCH   1  17
ATOM     17  C   UNL     1     101.294  82.817  75.958  1.00  0.00     0.027 C 
BRANCH  17  18
ATOM     18  C   UNL     1     102.148  81.632  76.423  1.00  0.00     0.004 C 
BRANCH  18  19
ATOM     19  C   UNL     1     101.717  81.059  77.776  1.00  0.00     0.000 C 
BRANCH  19  20
ATOM     20  C   UNL     1     102.853  80.271  78.429  1.00  0.00    -0.003 C 
ATOM     21  C   UNL     1     102.813  80.387  79.945  1.00  0.00     0.004 C 
ENDBRANCH  19  20
ENDBRANCH  18  19
ENDBRANCH  17  18
ENDBRANCH   1  17
TORSDOF 10
ENDMDL
