MODEL 1
REMARK VINA RESULT:    -6.218      0.000      0.000
REMARK INTER + INTRA:         -10.767
REMARK INTER:                 -10.035
REMARK INTRA:                  -0.731
REMARK UNBOUND:                -0.731
REMARK SMILES COc1cc(CNC(=O)CCCCC/C=C/C(C)C)ccc1O
REMARK SMILES IDX 11 1 10 2 8 3 7 4 9 6 6 7 5 8 3 9 22 10 4 11 21 12 20 13
REMARK SMILES IDX 2 14 1 15 23 16 12 18 13 19 14 20 15 21 16 22 17 23 18 24
REMARK SMILES IDX 19 25
REMARK H PARENT 7 5 23 17
REMARK Flexibility Score: inf
ROOT
ATOM      1  C   UNL     1      97.150  82.644  84.909  1.00  0.00     0.010 C 
ENDROOT
BRANCH   1   2
ATOM      2  C   UNL     1      98.688  82.748  85.080  1.00  0.00     0.100 C 
BRANCH   2   3
ATOM      3  C   UNL     1      99.454  82.313  83.898  1.00  0.00     0.220 C 
ATOM      4  N   UNL     1      99.222  82.892  82.688  1.00  0.00    -0.352 N 
ATOM      5  H   UNL     1      98.459  83.555  82.677  1.00  0.00     0.163 HD
ATOM      6  O   UNL     1     100.339  81.437  84.051  1.00  0.00    -0.275 OA
BRANCH   4   7
ATOM      7  C   UNL     1      99.954  82.635  81.490  1.00  0.00     0.151 C 
BRANCH   7   8
ATOM      8  C   UNL     1      99.175  82.951  80.265  1.00  0.00    -0.025 A 
ATOM      9  C   UNL     1      99.063  83.273  77.829  1.00  0.00     0.160 A 
ATOM     10  C   UNL     1      97.695  83.607  77.937  1.00  0.00     0.157 A 
ATOM     11  C   UNL     1      99.794  82.957  78.992  1.00  0.00     0.056 A 
ATOM     12  C   UNL     1      97.066  83.588  79.195  1.00  0.00     0.050 A 
ATOM     13  C   UNL     1      97.798  83.252  80.349  1.00  0.00     0.009 A 
BRANCH   9  14
ATOM     14  O   UNL     1      99.664  83.202  76.600  1.00  0.00    -0.493 OA
ATOM     15  C   UNL     1     100.315  81.949  76.335  1.00  0.00     0.278 C 
ENDBRANCH   9  14
BRANCH  10  16
ATOM     16  O   UNL     1      96.964  83.945  76.846  1.00  0.00    -0.504 OA
ATOM     17  H   UNL     1      97.344  84.725  76.435  1.00  0.00     0.293 HD
ENDBRANCH  10  16
ENDBRANCH   7   8
ENDBRANCH   4   7
ENDBRANCH   2   3
ENDBRANCH   1   2
BRANCH   1  18
ATOM     18  C   UNL     1      96.483  84.041  84.989  1.00  0.00     0.001 C 
BRANCH  18  19
ATOM     19  C   UNL     1      96.532  84.675  86.402  1.00  0.00     0.004 C 
BRANCH  19  20
ATOM     20  C   UNL     1      95.104  84.976  86.938  1.00  0.00     0.027 C 
BRANCH  20  21
ATOM     21  C   UNL     1      95.082  85.919  88.043  1.00  0.00    -0.031 C 
ATOM     22  C   UNL     1      95.949  86.943  88.133  1.00  0.00    -0.028 C 
BRANCH  22  23
ATOM     23  C   UNL     1      95.950  87.910  89.227  1.00  0.00     0.005 C 
ATOM     24  C   UNL     1      96.036  89.355  88.667  1.00  0.00     0.012 C 
ATOM     25  C   UNL     1      94.703  87.701  90.129  1.00  0.00     0.012 C 
ENDBRANCH  22  23
ENDBRANCH  20  21
ENDBRANCH  19  20
ENDBRANCH  18  19
ENDBRANCH   1  18
TORSDOF 11
ENDMDL
MODEL 2
REMARK VINA RESULT:    -6.061     17.648     19.633
REMARK INTER + INTRA:         -10.512
REMARK INTER:                  -9.857
REMARK INTRA:                  -0.655
REMARK UNBOUND:                -0.731
REMARK SMILES COc1cc(CNC(=O)CCCCC/C=C/C(C)C)ccc1O
REMARK SMILES IDX 11 1 10 2 8 3 7 4 9 6 6 7 5 8 3 9 22 10 4 11 21 12 20 13
REMARK SMILES IDX 2 14 1 15 23 16 12 18 13 19 14 20 15 21 16 22 17 23 18 24
REMARK SMILES IDX 19 25
REMARK H PARENT 7 5 23 17
REMARK Flexibility Score: inf
ROOT
ATOM      1  C   UNL     1      93.900 100.088  74.514  1.00  0.00     0.010 C 
ENDROOT
BRANCH   1   2
ATOM      2  C   UNL     1      93.389  99.744  73.091  1.00  0.00     0.100 C 
BRANCH   2   3
ATOM      3  C   UNL     1      92.373 100.680  72.576  1.00  0.00     0.220 C 
ATOM      4  N   UNL     1      92.060 100.679  71.251  1.00  0.00    -0.352 N 
ATOM      5  H   UNL     1      92.624 100.060  70.685  1.00  0.00     0.163 HD
ATOM      6  O   UNL     1      91.788 101.432  73.391  1.00  0.00    -0.275 OA
BRANCH   4   7
ATOM      7  C   UNL     1      91.034 101.460  70.640  1.00  0.00     0.151 C 
BRANCH   7   8
ATOM      8  C   UNL     1      90.084 100.637  69.848  1.00  0.00    -0.025 A 
ATOM      9  C   UNL     1      88.955  98.493  69.422  1.00  0.00     0.160 A 
ATOM     10  C   UNL     1      88.311  99.057  68.299  1.00  0.00     0.157 A 
ATOM     11  C   UNL     1      89.842  99.283  70.181  1.00  0.00     0.056 A 
ATOM     12  C   UNL     1      88.530 100.407  67.968  1.00  0.00     0.050 A 
ATOM     13  C   UNL     1      89.402 101.194  68.743  1.00  0.00     0.009 A 
BRANCH   9  14
ATOM     14  O   UNL     1      88.682  97.207  69.804  1.00  0.00    -0.493 OA
ATOM     15  C   UNL     1      89.678  96.624  70.660  1.00  0.00     0.278 C 
ENDBRANCH   9  14
BRANCH  10  16
ATOM     16  O   UNL     1      87.472  98.323  67.526  1.00  0.00    -0.504 OA
ATOM     17  H   UNL     1      86.595  98.715  67.545  1.00  0.00     0.293 HD
ENDBRANCH  10  16
ENDBRANCH   7   8
ENDBRANCH   4   7
ENDBRANCH   2   3
ENDBRANCH   1   2
BRANCH   1  18
ATOM     18  C   UNL     1      93.770  98.870  75.465  1.00  0.00     0.001 C 
BRANCH  18  19
ATOM     19  C   UNL     1      95.104  98.119  75.703  1.00  0.00     0.004 C 
BRANCH  19  20
ATOM     20  C   UNL     1      94.975  96.610  75.354  1.00  0.00     0.027 C 
BRANCH  20  21
ATOM     21  C   UNL     1      94.190  95.853  76.314  1.00  0.00    -0.031 C 
ATOM     22  C   UNL     1      92.847  95.800  76.261  1.00  0.00    -0.028 C 
BRANCH  22  23
ATOM     23  C   UNL     1      92.029  95.045  77.207  1.00  0.00     0.005 C 
ATOM     24  C   UNL     1      92.887  94.593  78.418  1.00  0.00     0.012 C 
ATOM     25  C   UNL     1      90.795  95.883  77.638  1.00  0.00     0.012 C 
ENDBRANCH  22  23
ENDBRANCH  20  21
ENDBRANCH  19  20
ENDBRANCH  18  19
ENDBRANCH   1  18
TORSDOF 11
ENDMDL
MODEL 3
REMARK VINA RESULT:    -5.850     17.240     19.181
REMARK INTER + INTRA:         -10.172
REMARK INTER:                  -9.758
REMARK INTRA:                  -0.414
REMARK UNBOUND:                -0.731
REMARK SMILES COc1cc(CNC(=O)CCCCC/C=C/C(C)C)ccc1O
REMARK SMILES IDX 11 1 10 2 8 3 7 4 9 6 6 7 5 8 3 9 22 10 4 11 21 12 20 13
REMARK SMILES IDX 2 14 1 15 23 16 12 18 13 19 14 20 15 21 16 22 17 23 18 24
REMARK SMILES IDX 19 25
REMARK H PARENT 7 5 23 17
REMARK Flexibility Score: inf
ROOT
ATOM      1  C   UNL     1      95.434  99.824  74.349  1.00  0.00     0.010 C 
ENDROOT
BRANCH   1   2
ATOM      2  C   UNL     1      94.542  99.413  73.149  1.00  0.00     0.100 C 
BRANCH   2   3
ATOM      3  C   UNL     1      93.134  99.832  73.276  1.00  0.00     0.220 C 
ATOM      4  N   UNL     1      92.503 100.418  72.222  1.00  0.00    -0.352 N 
ATOM      5  H   UNL     1      93.094 100.594  71.421  1.00  0.00     0.163 HD
ATOM      6  O   UNL     1      92.537  99.596  74.354  1.00  0.00    -0.275 OA
BRANCH   4   7
ATOM      7  C   UNL     1      91.124 100.781  72.178  1.00  0.00     0.151 C 
BRANCH   7   8
ATOM      8  C   UNL     1      90.333  99.915  71.266  1.00  0.00    -0.025 A 
ATOM      9  C   UNL     1      88.848  99.652  69.323  1.00  0.00     0.160 A 
ATOM     10  C   UNL     1      88.783  98.261  69.562  1.00  0.00     0.157 A 
ATOM     11  C   UNL     1      89.613 100.468  70.180  1.00  0.00     0.056 A 
ATOM     12  C   UNL     1      89.508  97.698  70.628  1.00  0.00     0.050 A 
ATOM     13  C   UNL     1      90.286  98.517  71.467  1.00  0.00     0.009 A 
BRANCH   9  14
ATOM     14  O   UNL     1      88.217 100.198  68.237  1.00  0.00    -0.493 OA
ATOM     15  C   UNL     1      89.062 101.027  67.422  1.00  0.00     0.278 C 
ENDBRANCH   9  14
BRANCH  10  16
ATOM     16  O   UNL     1      88.035  97.445  68.778  1.00  0.00    -0.504 OA
ATOM     17  H   UNL     1      87.151  97.809  68.690  1.00  0.00     0.293 HD
ENDBRANCH  10  16
ENDBRANCH   7   8
ENDBRANCH   4   7
ENDBRANCH   2   3
ENDBRANCH   1   2
BRANCH   1  18
ATOM     18  C   UNL     1      95.013  99.078  75.641  1.00  0.00     0.001 C 
BRANCH  18  19
ATOM     19  C   UNL     1      95.662  97.680  75.792  1.00  0.00     0.004 C 
BRANCH  19  20
ATOM     20  C   UNL     1      94.713  96.556  75.291  1.00  0.00     0.027 C 
BRANCH  20  21
ATOM     21  C   UNL     1      93.583  96.310  76.171  1.00  0.00    -0.031 C 
ATOM     22  C   UNL     1      93.332  95.098  76.697  1.00  0.00    -0.028 C 
BRANCH  22  23
ATOM     23  C   UNL     1      92.209  94.819  77.589  1.00  0.00     0.005 C 
ATOM     24  C   UNL     1      92.726  94.322  78.966  1.00  0.00     0.012 C 
ATOM     25  C   UNL     1      91.302  96.073  77.717  1.00  0.00     0.012 C 
ENDBRANCH  22  23
ENDBRANCH  20  21
ENDBRANCH  19  20
ENDBRANCH  18  19
ENDBRANCH   1  18
TORSDOF 11
ENDMDL
MODEL 4
REMARK VINA RESULT:    -5.783     25.858     28.587
REMARK INTER + INTRA:         -10.064
REMARK INTER:                  -8.911
REMARK INTRA:                  -1.153
REMARK UNBOUND:                -0.731
REMARK SMILES COc1cc(CNC(=O)CCCCC/C=C/C(C)C)ccc1O
REMARK SMILES IDX 11 1 10 2 8 3 7 4 9 6 6 7 5 8 3 9 22 10 4 11 21 12 20 13
REMARK SMILES IDX 2 14 1 15 23 16 12 18 13 19 14 20 15 21 16 22 17 23 18 24
REMARK SMILES IDX 19 25
REMARK H PARENT 7 5 23 17
REMARK Flexibility Score: inf
ROOT
ATOM      1  C   UNL     1      77.949  85.360  67.094  1.00  0.00     0.010 C 
ENDROOT
BRANCH   1   2
ATOM      2  C   UNL     1      78.115  83.916  66.554  1.00  0.00     0.100 C 
BRANCH   2   3
ATOM      3  C   UNL     1      76.951  83.045  66.801  1.00  0.00     0.220 C 
ATOM      4  N   UNL     1      76.641  82.058  65.915  1.00  0.00    -0.352 N 
ATOM      5  H   UNL     1      77.216  82.044  65.083  1.00  0.00     0.163 HD
ATOM      6  O   UNL     1      76.294  83.214  67.856  1.00  0.00    -0.275 OA
BRANCH   4   7
ATOM      7  C   UNL     1      75.608  81.089  66.079  1.00  0.00     0.151 C 
BRANCH   7   8
ATOM      8  C   UNL     1      74.400  81.398  65.270  1.00  0.00    -0.025 A 
ATOM      9  C   UNL     1      72.128  82.321  65.090  1.00  0.00     0.160 A 
ATOM     10  C   UNL     1      72.079  81.934  63.733  1.00  0.00     0.157 A 
ATOM     11  C   UNL     1      73.282  82.043  65.849  1.00  0.00     0.056 A 
ATOM     12  C   UNL     1      73.191  81.307  63.142  1.00  0.00     0.050 A 
ATOM     13  C   UNL     1      74.348  81.050  63.902  1.00  0.00     0.009 A 
BRANCH   9  14
ATOM     14  O   UNL     1      71.086  83.010  65.651  1.00  0.00    -0.493 OA
ATOM     15  C   UNL     1      70.627  82.466  66.900  1.00  0.00     0.278 C 
ENDBRANCH   9  14
BRANCH  10  16
ATOM     16  O   UNL     1      70.977  82.158  62.975  1.00  0.00    -0.504 OA
ATOM     17  H   UNL     1      70.978  81.559  62.224  1.00  0.00     0.293 HD
ENDBRANCH  10  16
ENDBRANCH   7   8
ENDBRANCH   4   7
ENDBRANCH   2   3
ENDBRANCH   1   2
BRANCH   1  18
ATOM     18  C   UNL     1      76.898  86.147  66.271  1.00  0.00     0.001 C 
BRANCH  18  19
ATOM     19  C   UNL     1      77.179  87.669  66.195  1.00  0.00     0.004 C 
BRANCH  19  20
ATOM     20  C   UNL     1      76.055  88.489  66.890  1.00  0.00     0.027 C 
BRANCH  20  21
ATOM     21  C   UNL     1      75.522  87.855  68.084  1.00  0.00    -0.031 C 
ATOM     22  C   UNL     1      76.110  87.980  69.287  1.00  0.00    -0.028 C 
BRANCH  22  23
ATOM     23  C   UNL     1      75.597  87.361  70.506  1.00  0.00     0.005 C 
ATOM     24  C   UNL     1      74.289  88.064  70.958  1.00  0.00     0.012 C 
ATOM     25  C   UNL     1      75.402  85.835  70.292  1.00  0.00     0.012 C 
ENDBRANCH  22  23
ENDBRANCH  20  21
ENDBRANCH  19  20
ENDBRANCH  18  19
ENDBRANCH   1  18
TORSDOF 11
ENDMDL
MODEL 5
REMARK VINA RESULT:    -5.736     25.877     28.545
REMARK INTER + INTRA:          -9.989
REMARK INTER:                  -8.212
REMARK INTRA:                  -1.776
REMARK UNBOUND:                -0.731
REMARK SMILES COc1cc(CNC(=O)CCCCC/C=C/C(C)C)ccc1O
REMARK SMILES IDX 11 1 10 2 8 3 7 4 9 6 6 7 5 8 3 9 22 10 4 11 21 12 20 13
REMARK SMILES IDX 2 14 1 15 23 16 12 18 13 19 14 20 15 21 16 22 17 23 18 24
REMARK SMILES IDX 19 25
REMARK H PARENT 7 5 23 17
REMARK Flexibility Score: inf
ROOT
ATOM      1  C   UNL     1      72.085  88.543  70.598  1.00  0.00     0.010 C 
ENDROOT
BRANCH   1   2
ATOM      2  C   UNL     1      70.920  87.733  71.222  1.00  0.00     0.100 C 
BRANCH   2   3
ATOM      3  C   UNL     1      70.626  86.468  70.522  1.00  0.00     0.220 C 
ATOM      4  N   UNL     1      71.089  86.270  69.257  1.00  0.00    -0.352 N 
ATOM      5  H   UNL     1      71.558  87.068  68.850  1.00  0.00     0.163 HD
ATOM      6  O   UNL     1      69.983  85.584  71.135  1.00  0.00    -0.275 OA
BRANCH   4   7
ATOM      7  C   UNL     1      70.960  85.064  68.506  1.00  0.00     0.151 C 
BRANCH   7   8
ATOM      8  C   UNL     1      72.233  84.656  67.856  1.00  0.00    -0.025 A 
ATOM      9  C   UNL     1      73.474  83.186  66.325  1.00  0.00     0.160 A 
ATOM     10  C   UNL     1      74.674  83.849  66.662  1.00  0.00     0.157 A 
ATOM     11  C   UNL     1      72.266  83.588  66.930  1.00  0.00     0.056 A 
ATOM     12  C   UNL     1      74.651  84.924  67.569  1.00  0.00     0.050 A 
ATOM     13  C   UNL     1      73.437  85.332  68.154  1.00  0.00     0.009 A 
BRANCH   9  14
ATOM     14  O   UNL     1      73.472  82.196  65.377  1.00  0.00    -0.493 OA
ATOM     15  C   UNL     1      73.026  82.625  64.080  1.00  0.00     0.278 C 
ENDBRANCH   9  14
BRANCH  10  16
ATOM     16  O   UNL     1      75.862  83.475  66.123  1.00  0.00    -0.504 OA
ATOM     17  H   UNL     1      75.971  83.895  65.267  1.00  0.00     0.293 HD
ENDBRANCH  10  16
ENDBRANCH   7   8
ENDBRANCH   4   7
ENDBRANCH   2   3
ENDBRANCH   1   2
BRANCH   1  18
ATOM     18  C   UNL     1      73.367  88.436  71.463  1.00  0.00     0.001 C 
BRANCH  18  19
ATOM     19  C   UNL     1      74.495  87.601  70.805  1.00  0.00     0.004 C 
BRANCH  19  20
ATOM     20  C   UNL     1      75.718  88.488  70.440  1.00  0.00     0.027 C 
BRANCH  20  21
ATOM     21  C   UNL     1      76.469  88.004  69.294  1.00  0.00    -0.031 C 
ATOM     22  C   UNL     1      77.420  87.059  69.404  1.00  0.00    -0.028 C 
BRANCH  22  23
ATOM     23  C   UNL     1      78.188  86.549  68.272  1.00  0.00     0.005 C 
ATOM     24  C   UNL     1      78.233  84.998  68.308  1.00  0.00     0.012 C 
ATOM     25  C   UNL     1      77.605  87.091  66.939  1.00  0.00     0.012 C 
ENDBRANCH  22  23
ENDBRANCH  20  21
ENDBRANCH  19  20
ENDBRANCH  18  19
ENDBRANCH   1  18
TORSDOF 11
ENDMDL
MODEL 6
REMARK VINA RESULT:    -5.633      3.583      6.700
REMARK INTER + INTRA:          -9.823
REMARK INTER:                  -8.605
REMARK INTRA:                  -1.218
REMARK UNBOUND:                -0.731
REMARK SMILES COc1cc(CNC(=O)CCCCC/C=C/C(C)C)ccc1O
REMARK SMILES IDX 11 1 10 2 8 3 7 4 9 6 6 7 5 8 3 9 22 10 4 11 21 12 20 13
REMARK SMILES IDX 2 14 1 15 23 16 12 18 13 19 14 20 15 21 16 22 17 23 18 24
REMARK SMILES IDX 19 25
REMARK H PARENT 7 5 23 17
REMARK Flexibility Score: inf
ROOT
ATOM      1  C   UNL     1      98.252  83.369  79.207  1.00  0.00     0.010 C 
ENDROOT
BRANCH   1   2
ATOM      2  C   UNL     1      97.447  83.908  77.996  1.00  0.00     0.100 C 
BRANCH   2   3
ATOM      3  C   UNL     1      98.179  83.855  76.717  1.00  0.00     0.220 C 
ATOM      4  N   UNL     1      99.221  84.704  76.497  1.00  0.00    -0.352 N 
ATOM      5  H   UNL     1      99.374  85.383  77.230  1.00  0.00     0.163 HD
ATOM      6  O   UNL     1      97.843  82.991  75.874  1.00  0.00    -0.275 OA
BRANCH   4   7
ATOM      7  C   UNL     1     100.071  84.694  75.351  1.00  0.00     0.151 C 
BRANCH   7   8
ATOM      8  C   UNL     1     101.158  83.686  75.454  1.00  0.00    -0.025 A 
ATOM      9  C   UNL     1     102.821  82.467  76.795  1.00  0.00     0.160 A 
ATOM     10  C   UNL     1     103.268  81.801  75.633  1.00  0.00     0.157 A 
ATOM     11  C   UNL     1     101.777  83.410  76.695  1.00  0.00     0.056 A 
ATOM     12  C   UNL     1     102.648  82.056  74.396  1.00  0.00     0.050 A 
ATOM     13  C   UNL     1     101.594  82.984  74.308  1.00  0.00     0.009 A 
BRANCH   9  14
ATOM     14  O   UNL     1     103.357  82.162  78.017  1.00  0.00    -0.493 OA
ATOM     15  C   UNL     1     102.576  81.233  78.787  1.00  0.00     0.278 C 
ENDBRANCH   9  14
BRANCH  10  16
ATOM     16  O   UNL     1     104.288  80.908  75.681  1.00  0.00    -0.504 OA
ATOM     17  H   UNL     1     105.120  81.366  75.533  1.00  0.00     0.293 HD
ENDBRANCH  10  16
ENDBRANCH   7   8
ENDBRANCH   4   7
ENDBRANCH   2   3
ENDBRANCH   1   2
BRANCH   1  18
ATOM     18  C   UNL     1      98.391  81.827  79.144  1.00  0.00     0.001 C 
BRANCH  18  19
ATOM     19  C   UNL     1      99.207  81.226  80.316  1.00  0.00     0.004 C 
BRANCH  19  20
ATOM     20  C   UNL     1      99.839  82.341  81.196  1.00  0.00     0.027 C 
BRANCH  20  21
ATOM     21  C   UNL     1      99.387  82.323  82.577  1.00  0.00    -0.031 C 
ATOM     22  C   UNL     1      98.342  83.056  83.000  1.00  0.00    -0.028 C 
BRANCH  22  23
ATOM     23  C   UNL     1      97.858  83.056  84.379  1.00  0.00     0.005 C 
ATOM     24  C   UNL     1      96.731  84.107  84.554  1.00  0.00     0.012 C 
ATOM     25  C   UNL     1      97.403  81.629  84.788  1.00  0.00     0.012 C 
ENDBRANCH  22  23
ENDBRANCH  20  21
ENDBRANCH  19  20
ENDBRANCH  18  19
ENDBRANCH   1  18
TORSDOF 11
ENDMDL
MODEL 7
REMARK VINA RESULT:    -5.590      3.529      6.589
REMARK INTER + INTRA:          -9.752
REMARK INTER:                  -8.621
REMARK INTRA:                  -1.131
REMARK UNBOUND:                -0.731
REMARK SMILES COc1cc(CNC(=O)CCCCC/C=C/C(C)C)ccc1O
REMARK SMILES IDX 11 1 10 2 8 3 7 4 9 6 6 7 5 8 3 9 22 10 4 11 21 12 20 13
REMARK SMILES IDX 2 14 1 15 23 16 12 18 13 19 14 20 15 21 16 22 17 23 18 24
REMARK SMILES IDX 19 25
REMARK H PARENT 7 5 23 17
REMARK Flexibility Score: inf
ROOT
ATOM      1  C   UNL     1      98.160  83.362  79.319  1.00  0.00     0.010 C 
ENDROOT
BRANCH   1   2
ATOM      2  C   UNL     1      97.354  83.815  78.074  1.00  0.00     0.100 C 
BRANCH   2   3
ATOM      3  C   UNL     1      98.119  83.767  76.814  1.00  0.00     0.220 C 
ATOM      4  N   UNL     1      99.178  84.603  76.631  1.00  0.00    -0.352 N 
ATOM      5  H   UNL     1      99.321  85.271  77.377  1.00  0.00     0.163 HD
ATOM      6  O   UNL     1      97.793  82.918  75.951  1.00  0.00    -0.275 OA
BRANCH   4   7
ATOM      7  C   UNL     1     100.058  84.595  75.508  1.00  0.00     0.151 C 
BRANCH   7   8
ATOM      8  C   UNL     1     101.285  83.792  75.748  1.00  0.00    -0.025 A 
ATOM      9  C   UNL     1     103.378  82.793  74.931  1.00  0.00     0.160 A 
ATOM     10  C   UNL     1     103.597  82.215  76.200  1.00  0.00     0.157 A 
ATOM     11  C   UNL     1     102.221  83.569  74.712  1.00  0.00     0.056 A 
ATOM     12  C   UNL     1     102.681  82.444  77.243  1.00  0.00     0.050 A 
ATOM     13  C   UNL     1     101.539  83.236  77.022  1.00  0.00     0.009 A 
BRANCH   9  14
ATOM     14  O   UNL     1     104.307  82.648  73.934  1.00  0.00    -0.493 OA
ATOM     15  C   UNL     1     104.674  83.879  73.290  1.00  0.00     0.278 C 
ENDBRANCH   9  14
BRANCH  10  16
ATOM     16  O   UNL     1     104.683  81.438  76.443  1.00  0.00    -0.504 OA
ATOM     17  H   UNL     1     105.308  81.528  75.720  1.00  0.00     0.293 HD
ENDBRANCH  10  16
ENDBRANCH   7   8
ENDBRANCH   4   7
ENDBRANCH   2   3
ENDBRANCH   1   2
BRANCH   1  18
ATOM     18  C   UNL     1      98.605  81.883  79.189  1.00  0.00     0.001 C 
BRANCH  18  19
ATOM     19  C   UNL     1      99.221  81.302  80.487  1.00  0.00     0.004 C 
BRANCH  19  20
ATOM     20  C   UNL     1      99.492  82.417  81.535  1.00  0.00     0.027 C 
BRANCH  20  21
ATOM     21  C   UNL     1      98.657  82.321  82.719  1.00  0.00    -0.031 C 
ATOM     22  C   UNL     1      97.836  83.316  83.103  1.00  0.00    -0.028 C 
BRANCH  22  23
ATOM     23  C   UNL     1      96.981  83.249  84.284  1.00  0.00     0.005 C 
ATOM     24  C   UNL     1      97.549  82.225  85.303  1.00  0.00     0.012 C 
ATOM     25  C   UNL     1      96.808  84.663  84.903  1.00  0.00     0.012 C 
ENDBRANCH  22  23
ENDBRANCH  20  21
ENDBRANCH  19  20
ENDBRANCH  18  19
ENDBRANCH   1  18
TORSDOF 11
ENDMDL
MODEL 8
REMARK VINA RESULT:    -5.589      1.511      2.173
REMARK INTER + INTRA:          -9.750
REMARK INTER:                  -9.055
REMARK INTRA:                  -0.695
REMARK UNBOUND:                -0.731
REMARK SMILES COc1cc(CNC(=O)CCCCC/C=C/C(C)C)ccc1O
REMARK SMILES IDX 11 1 10 2 8 3 7 4 9 6 6 7 5 8 3 9 22 10 4 11 21 12 20 13
REMARK SMILES IDX 2 14 1 15 23 16 12 18 13 19 14 20 15 21 16 22 17 23 18 24
REMARK SMILES IDX 19 25
REMARK H PARENT 7 5 23 17
REMARK Flexibility Score: inf
ROOT
ATOM      1  C   UNL     1      99.234  81.855  85.633  1.00  0.00     0.010 C 
ENDROOT
BRANCH   1   2
ATOM      2  C   UNL     1      98.538  82.482  84.398  1.00  0.00     0.100 C 
BRANCH   2   3
ATOM      3  C   UNL     1      99.051  81.991  83.105  1.00  0.00     0.220 C 
ATOM      4  N   UNL     1      99.525  82.874  82.183  1.00  0.00    -0.352 N 
ATOM      5  H   UNL     1      99.417  83.846  82.438  1.00  0.00     0.163 HD
ATOM      6  O   UNL     1      99.074  80.753  82.906  1.00  0.00    -0.275 OA
BRANCH   4   7
ATOM      7  C   UNL     1     100.135  82.529  80.941  1.00  0.00     0.151 C 
BRANCH   7   8
ATOM      8  C   UNL     1      99.317  82.937  79.769  1.00  0.00    -0.025 A 
ATOM      9  C   UNL     1      99.122  83.425  77.367  1.00  0.00     0.160 A 
ATOM     10  C   UNL     1      97.764  83.767  77.548  1.00  0.00     0.157 A 
ATOM     11  C   UNL     1      99.889  83.022  78.478  1.00  0.00     0.056 A 
ATOM     12  C   UNL     1      97.180  83.669  78.824  1.00  0.00     0.050 A 
ATOM     13  C   UNL     1      97.948  83.247  79.925  1.00  0.00     0.009 A 
BRANCH   9  14
ATOM     14  O   UNL     1      99.677  83.432  76.114  1.00  0.00    -0.493 OA
ATOM     15  C   UNL     1     100.181  82.155  75.688  1.00  0.00     0.278 C 
ENDBRANCH   9  14
BRANCH  10  16
ATOM     16  O   UNL     1      96.998  84.186  76.509  1.00  0.00    -0.504 OA
ATOM     17  H   UNL     1      96.662  83.424  76.031  1.00  0.00     0.293 HD
ENDBRANCH  10  16
ENDBRANCH   7   8
ENDBRANCH   4   7
ENDBRANCH   2   3
ENDBRANCH   1   2
BRANCH   1  18
ATOM     18  C   UNL     1      99.684  82.948  86.636  1.00  0.00     0.001 C 
BRANCH  18  19
ATOM     19  C   UNL     1      98.605  84.025  86.910  1.00  0.00     0.004 C 
BRANCH  19  20
ATOM     20  C   UNL     1      97.448  83.460  87.780  1.00  0.00     0.027 C 
BRANCH  20  21
ATOM     21  C   UNL     1      96.370  84.408  88.007  1.00  0.00    -0.031 C 
ATOM     22  C   UNL     1      95.110  84.174  87.600  1.00  0.00    -0.028 C 
BRANCH  22  23
ATOM     23  C   UNL     1      94.004  85.104  87.817  1.00  0.00     0.005 C 
ATOM     24  C   UNL     1      92.663  84.329  87.922  1.00  0.00     0.012 C 
ATOM     25  C   UNL     1      94.278  85.981  89.068  1.00  0.00     0.012 C 
ENDBRANCH  22  23
ENDBRANCH  20  21
ENDBRANCH  19  20
ENDBRANCH  18  19
ENDBRANCH   1  18
TORSDOF 11
ENDMDL
MODEL 9
REMARK VINA RESULT:    -5.531      2.868      3.925
REMARK INTER + INTRA:          -9.657
REMARK INTER:                  -9.014
REMARK INTRA:                  -0.644
REMARK UNBOUND:                -0.731
REMARK SMILES COc1cc(CNC(=O)CCCCC/C=C/C(C)C)ccc1O
REMARK SMILES IDX 11 1 10 2 8 3 7 4 9 6 6 7 5 8 3 9 22 10 4 11 21 12 20 13
REMARK SMILES IDX 2 14 1 15 23 16 12 18 13 19 14 20 15 21 16 22 17 23 18 24
REMARK SMILES IDX 19 25
REMARK H PARENT 7 5 23 17
REMARK Flexibility Score: inf
ROOT
ATOM      1  C   UNL     1      97.232  80.925  85.473  1.00  0.00     0.010 C 
ENDROOT
BRANCH   1   2
ATOM      2  C   UNL     1      97.955  80.493  84.170  1.00  0.00     0.100 C 
BRANCH   2   3
ATOM      3  C   UNL     1      98.730  81.571  83.529  1.00  0.00     0.220 C 
ATOM      4  N   UNL     1      98.296  82.114  82.357  1.00  0.00    -0.352 N 
ATOM      5  H   UNL     1      97.479  81.668  81.964  1.00  0.00     0.163 HD
ATOM      6  O   UNL     1      99.759  81.991  84.109  1.00  0.00    -0.275 OA
BRANCH   4   7
ATOM      7  C   UNL     1      98.893  83.220  81.684  1.00  0.00     0.151 C 
BRANCH   7   8
ATOM      8  C   UNL     1      98.665  83.188  80.216  1.00  0.00    -0.025 A 
ATOM      9  C   UNL     1      99.478  82.747  77.937  1.00  0.00     0.160 A 
ATOM     10  C   UNL     1      98.240  83.180  77.413  1.00  0.00     0.157 A 
ATOM     11  C   UNL     1      99.684  82.762  79.332  1.00  0.00     0.056 A 
ATOM     12  C   UNL     1      97.214  83.590  78.284  1.00  0.00     0.050 A 
ATOM     13  C   UNL     1      97.421  83.584  79.676  1.00  0.00     0.009 A 
BRANCH   9  14
ATOM     14  O   UNL     1     100.451  82.263  77.104  1.00  0.00    -0.493 OA
ATOM     15  C   UNL     1     101.711  82.946  77.214  1.00  0.00     0.278 C 
ENDBRANCH   9  14
BRANCH  10  16
ATOM     16  O   UNL     1      98.012  83.207  76.076  1.00  0.00    -0.504 OA
ATOM     17  H   UNL     1      98.792  83.540  75.625  1.00  0.00     0.293 HD
ENDBRANCH  10  16
ENDBRANCH   7   8
ENDBRANCH   4   7
ENDBRANCH   2   3
ENDBRANCH   1   2
BRANCH   1  18
ATOM     18  C   UNL     1      96.620  82.342  85.329  1.00  0.00     0.001 C 
BRANCH  18  19
ATOM     19  C   UNL     1      95.641  82.716  86.471  1.00  0.00     0.004 C 
BRANCH  19  20
ATOM     20  C   UNL     1      94.985  81.451  87.093  1.00  0.00     0.027 C 
BRANCH  20  21
ATOM     21  C   UNL     1      93.660  81.163  86.570  1.00  0.00    -0.031 C 
ATOM     22  C   UNL     1      92.604  81.961  86.809  1.00  0.00    -0.028 C 
BRANCH  22  23
ATOM     23  C   UNL     1      91.262  81.702  86.294  1.00  0.00     0.005 C 
ATOM     24  C   UNL     1      91.135  80.223  85.842  1.00  0.00     0.012 C 
ATOM     25  C   UNL     1      90.196  82.088  87.356  1.00  0.00     0.012 C 
ENDBRANCH  22  23
ENDBRANCH  20  21
ENDBRANCH  19  20
ENDBRANCH  18  19
ENDBRANCH   1  18
TORSDOF 11
ENDMDL
MODEL 10
REMARK VINA RESULT:    -5.405     35.526     37.840
REMARK INTER + INTRA:          -9.453
REMARK INTER:                  -8.352
REMARK INTRA:                  -1.102
REMARK UNBOUND:                -0.731
REMARK SMILES COc1cc(CNC(=O)CCCCC/C=C/C(C)C)ccc1O
REMARK SMILES IDX 11 1 10 2 8 3 7 4 9 6 6 7 5 8 3 9 22 10 4 11 21 12 20 13
REMARK SMILES IDX 2 14 1 15 23 16 12 18 13 19 14 20 15 21 16 22 17 23 18 24
REMARK SMILES IDX 19 25
REMARK H PARENT 7 5 23 17
REMARK Flexibility Score: inf
ROOT
ATOM      1  C   UNL     1      60.804  85.734  69.754  1.00  0.00     0.010 C 
ENDROOT
BRANCH   1   2
ATOM      2  C   UNL     1      59.416  85.123  70.077  1.00  0.00     0.100 C 
BRANCH   2   3
ATOM      3  C   UNL     1      59.162  84.941  71.518  1.00  0.00     0.220 C 
ATOM      4  N   UNL     1      60.061  85.405  72.430  1.00  0.00    -0.352 N 
ATOM      5  H   UNL     1      60.904  85.792  72.030  1.00  0.00     0.163 HD
ATOM      6  O   UNL     1      58.091  84.391  71.870  1.00  0.00    -0.275 OA
BRANCH   4   7
ATOM      7  C   UNL     1      59.894  85.381  73.846  1.00  0.00     0.151 C 
BRANCH   7   8
ATOM      8  C   UNL     1      61.035  84.735  74.546  1.00  0.00    -0.025 A 
ATOM      9  C   UNL     1      62.828  84.809  76.228  1.00  0.00     0.160 A 
ATOM     10  C   UNL     1      63.245  83.518  75.839  1.00  0.00     0.157 A 
ATOM     11  C   UNL     1      61.734  85.411  75.574  1.00  0.00     0.056 A 
ATOM     12  C   UNL     1      62.547  82.829  74.830  1.00  0.00     0.050 A 
ATOM     13  C   UNL     1      61.443  83.429  74.195  1.00  0.00     0.009 A 
BRANCH   9  14
ATOM     14  O   UNL     1      63.445  85.453  77.268  1.00  0.00    -0.493 OA
ATOM     15  C   UNL     1      62.761  85.325  78.526  1.00  0.00     0.278 C 
ENDBRANCH   9  14
BRANCH  10  16
ATOM     16  O   UNL     1      64.310  82.915  76.424  1.00  0.00    -0.504 OA
ATOM     17  H   UNL     1      65.096  83.450  76.286  1.00  0.00     0.293 HD
ENDBRANCH  10  16
ENDBRANCH   7   8
ENDBRANCH   4   7
ENDBRANCH   2   3
ENDBRANCH   1   2
BRANCH   1  18
ATOM     18  C   UNL     1      61.776  84.657  69.209  1.00  0.00     0.001 C 
BRANCH  18  19
ATOM     19  C   UNL     1      63.056  85.243  68.562  1.00  0.00     0.004 C 
BRANCH  19  20
ATOM     20  C   UNL     1      63.972  84.120  67.999  1.00  0.00     0.027 C 
BRANCH  20  21
ATOM     21  C   UNL     1      64.799  83.480  69.007  1.00  0.00    -0.031 C 
ATOM     22  C   UNL     1      64.421  82.353  69.636  1.00  0.00    -0.028 C 
BRANCH  22  23
ATOM     23  C   UNL     1      65.232  81.682  70.650  1.00  0.00     0.005 C 
ATOM     24  C   UNL     1      66.562  82.450  70.870  1.00  0.00     0.012 C 
ATOM     25  C   UNL     1      64.420  81.517  71.963  1.00  0.00     0.012 C 
ENDBRANCH  22  23
ENDBRANCH  20  21
ENDBRANCH  19  20
ENDBRANCH  18  19
ENDBRANCH   1  18
TORSDOF 11
ENDMDL
