MODEL 1
REMARK VINA RESULT:    -6.388      0.000      0.000
REMARK INTER + INTRA:         -12.417
REMARK INTER:                 -11.243
REMARK INTRA:                  -1.174
REMARK UNBOUND:                -1.174
REMARK SMILES C=C(C)[C@]12C[C@@H](C)[C@@]34O[C@](Cc5ccccc5)(O[C@@H]1[C@@H]3C=C(COC(=O)Cc1ccc(O)c(OC)c1)C[C@]1(O)C(=O)C(C)=C[C@@H]41)O2
REMARK SMILES IDX 23 1 22 2 21 3 20 4 9 5 8 6 10 7 6 8 18 9 46 10 19 11 5 12
REMARK SMILES IDX 7 13 4 14 45 15 38 16 44 17 40 18 42 20 41 21 43 22 39 23
REMARK SMILES IDX 11 25 12 26 13 27 17 28 14 29 16 30 15 31 2 32 3 33 1 34
REMARK SMILES IDX 37 35 24 37 25 38 26 39 27 40 28 41 36 42 29 43 33 44 30 45
REMARK SMILES IDX 31 46 34 47 35 48 32 49
REMARK H PARENT 39 24 32 50
REMARK Flexibility Score: 90.00
ROOT
ATOM      1  C   UNL     1      93.397  78.476  84.257  1.00  0.00     0.264 C 
ENDROOT
BRANCH   1   2
ATOM      2  C   UNL     1      93.588  76.998  84.012  1.00  0.00    -0.033 C 
ATOM      3  C   UNL     1      92.562  76.154  84.239  1.00  0.00    -0.015 C 
BRANCH   3   4
ATOM      4  C   UNL     1      92.522  74.637  84.145  1.00  0.00     0.078 C 
ATOM      5  O   UNL     1      91.764  74.077  81.858  1.00  0.00    -0.319 OA
ATOM      6  C   UNL     1      92.897  73.962  82.773  1.00  0.00     0.095 C 
ATOM      7  C   UNL     1      90.472  73.818  82.440  1.00  0.00     0.289 C 
ATOM      8  C   UNL     1      93.187  72.430  83.056  1.00  0.00     0.023 C 
ATOM      9  O   UNL     1      90.218  74.687  83.541  1.00  0.00    -0.320 OA
ATOM     10  O   UNL     1      90.368  72.496  82.961  1.00  0.00    -0.313 OA
ATOM     11  C   UNL     1      91.109  74.124  84.517  1.00  0.00     0.170 C 
ATOM     12  C   UNL     1      92.296  71.884  84.214  1.00  0.00     0.049 C 
ATOM     13  C   UNL     1      93.069  71.500  81.838  1.00  0.00     0.011 C 
ATOM     14  C   UNL     1      90.948  72.602  84.278  1.00  0.00     0.122 C 
BRANCH   6  15
ATOM     15  C   UNL     1      94.045  74.741  82.070  1.00  0.00     0.086 C 
ATOM     16  C   UNL     1      95.210  75.196  82.973  1.00  0.00     0.140 CG0
ATOM     17  C   UNL     1      94.739  74.123  80.889  1.00  0.00    -0.010 C 
ATOM     18  C   UNL     1      96.403  75.086  82.047  1.00  0.00     0.190 C 
ATOM     19  G   UNL     1      95.010  76.616  83.502  1.00  0.00     0.000 G0
ATOM     20  C   UNL     1      96.060  74.322  80.832  1.00  0.00    -0.008 C 
ATOM     21  O   UNL     1      97.522  75.519  82.278  1.00  0.00    -0.291 OA
ATOM     22  C   UNL     1      97.037  73.940  79.792  1.00  0.00     0.048 C 
BRANCH  16  23
ATOM     23  O   UNL     1      95.511  74.291  84.022  1.00  0.00    -0.381 OA
ATOM     24  H   UNL     1      95.466  73.387  83.669  1.00  0.00     0.212 HD
ENDBRANCH  16  23
ENDBRANCH   6  15
BRANCH   7  25
ATOM     25  C   UNL     1      89.418  74.025  81.371  1.00  0.00     0.135 C 
BRANCH  25  26
ATOM     26  C   UNL     1      89.907  73.605  80.007  1.00  0.00    -0.040 A 
ATOM     27  C   UNL     1      89.947  72.252  79.667  1.00  0.00     0.004 A 
ATOM     28  C   UNL     1      90.317  74.567  79.086  1.00  0.00     0.004 A 
ATOM     29  C   UNL     1      90.399  71.863  78.406  1.00  0.00     0.000 A 
ATOM     30  C   UNL     1      90.769  74.178  77.824  1.00  0.00     0.000 A 
ATOM     31  C   UNL     1      90.810  72.826  77.485  1.00  0.00     0.000 A 
ENDBRANCH  25  26
ENDBRANCH   7  25
BRANCH  14  32
ATOM     32  C   UNL     1      90.009  71.976  85.257  1.00  0.00    -0.046 C 
ATOM     33  C   UNL     1      90.132  72.437  86.679  1.00  0.00     0.042 C 
ATOM     34  C   UNL     1      89.108  71.055  84.886  1.00  0.00     0.010 C 
ENDBRANCH  14  32
ENDBRANCH   3   4
BRANCH   2  35
ATOM     35  C   UNL     1      94.978  76.653  83.511  1.00  0.00     0.078 CG0
ATOM     36  G   UNL     1      95.200  75.236  82.986  1.00  0.00     0.000 G0
ENDBRANCH   2  35
ENDBRANCH   1   2
BRANCH   1  37
ATOM     37  O   UNL     1      92.261  78.671  85.071  1.00  0.00    -0.461 OA
BRANCH  37  38
ATOM     38  C   UNL     1      92.107  79.927  85.611  1.00  0.00     0.310 C 
ATOM     39  O   UNL     1      92.240  80.205  86.795  1.00  0.00    -0.252 OA
BRANCH  38  40
ATOM     40  C   UNL     1      91.749  80.906  84.517  1.00  0.00     0.158 C 
BRANCH  40  41
ATOM     41  C   UNL     1      90.263  81.010  84.285  1.00  0.00    -0.033 A 
ATOM     42  C   UNL     1      89.637  82.257  84.326  1.00  0.00     0.054 A 
ATOM     43  C   UNL     1      89.515  79.862  84.028  1.00  0.00     0.008 A 
ATOM     44  C   UNL     1      88.262  82.354  84.112  1.00  0.00     0.160 A 
ATOM     45  C   UNL     1      88.140  79.959  83.813  1.00  0.00     0.050 A 
ATOM     46  C   UNL     1      87.513  81.204  83.855  1.00  0.00     0.157 A 
BRANCH  44  47
ATOM     47  O   UNL     1      87.662  83.576  84.155  1.00  0.00    -0.493 OA
ATOM     48  C   UNL     1      87.260  84.055  85.438  1.00  0.00     0.278 C 
ENDBRANCH  44  47
BRANCH  46  49
ATOM     49  O   UNL     1      86.171  81.287  83.643  1.00  0.00    -0.504 OA
ATOM     50  H   UNL     1      85.845  82.130  84.001  1.00  0.00     0.293 HD
ENDBRANCH  46  49
ENDBRANCH  40  41
ENDBRANCH  38  40
ENDBRANCH  37  38
ENDBRANCH   1  37
TORSDOF 11
ENDMDL
MODEL 2
REMARK VINA RESULT:    -6.105     14.587     22.413
REMARK INTER + INTRA:         -11.919
REMARK INTER:                 -10.946
REMARK INTRA:                  -0.973
REMARK UNBOUND:                -1.174
REMARK SMILES C=C(C)[C@]12C[C@@H](C)[C@@]34O[C@](Cc5ccccc5)(O[C@@H]1[C@@H]3C=C(COC(=O)Cc1ccc(O)c(OC)c1)C[C@]1(O)C(=O)C(C)=C[C@@H]41)O2
REMARK SMILES IDX 23 1 22 2 21 3 20 4 9 5 8 6 10 7 6 8 18 9 46 10 19 11 5 12
REMARK SMILES IDX 7 13 4 14 45 15 38 16 44 17 40 18 42 20 41 21 43 22 39 23
REMARK SMILES IDX 11 25 12 26 13 27 17 28 14 29 16 30 15 31 2 32 3 33 1 34
REMARK SMILES IDX 37 35 24 37 25 38 26 39 27 40 28 41 36 42 29 43 33 44 30 45
REMARK SMILES IDX 31 46 34 47 35 48 32 49
REMARK H PARENT 39 24 32 50
REMARK Flexibility Score: 90.00
ROOT
ATOM      1  C   UNL     1      91.280  92.758  91.694  1.00  0.00     0.264 C 
ENDROOT
BRANCH   1   2
ATOM      2  C   UNL     1      92.036  93.965  91.191  1.00  0.00    -0.033 C 
ATOM      3  C   UNL     1      91.367  95.113  90.960  1.00  0.00    -0.015 C 
BRANCH   3   4
ATOM      4  C   UNL     1      91.874  96.426  90.387  1.00  0.00     0.078 C 
ATOM      5  O   UNL     1      92.559  97.831  92.305  1.00  0.00    -0.319 OA
ATOM      6  C   UNL     1      93.067  97.150  91.116  1.00  0.00     0.095 C 
ATOM      7  C   UNL     1      91.313  98.532  92.128  1.00  0.00     0.289 C 
ATOM      8  C   UNL     1      93.663  98.222  90.113  1.00  0.00     0.023 C 
ATOM      9  O   UNL     1      90.287  97.655  91.671  1.00  0.00    -0.320 OA
ATOM     10  O   UNL     1      91.406  99.561  91.147  1.00  0.00    -0.313 OA
ATOM     11  C   UNL     1      90.715  97.451  90.315  1.00  0.00     0.170 C 
ATOM     12  C   UNL     1      92.554  98.826  89.197  1.00  0.00     0.049 C 
ATOM     13  C   UNL     1      94.465  99.361  90.763  1.00  0.00     0.011 C 
ATOM     14  C   UNL     1      91.198  98.864  89.901  1.00  0.00     0.122 C 
BRANCH   6  15
ATOM     15  C   UNL     1      94.087  96.112  91.669  1.00  0.00     0.086 C 
ATOM     16  C   UNL     1      94.422  94.927  90.741  1.00  0.00     0.140 CG0
ATOM     17  C   UNL     1      95.436  96.582  92.136  1.00  0.00    -0.010 C 
ATOM     18  C   UNL     1      95.878  94.663  91.060  1.00  0.00     0.190 C 
ATOM     19  G   UNL     1      93.534  93.713  91.012  1.00  0.00     0.000 G0
ATOM     20  C   UNL     1      96.459  95.776  91.834  1.00  0.00    -0.008 C 
ATOM     21  O   UNL     1      96.518  93.690  90.693  1.00  0.00    -0.291 OA
ATOM     22  C   UNL     1      97.888  95.875  92.197  1.00  0.00     0.048 C 
BRANCH  16  23
ATOM     23  O   UNL     1      94.433  95.262  89.363  1.00  0.00    -0.381 OA
ATOM     24  H   UNL     1      94.835  94.527  88.871  1.00  0.00     0.212 HD
ENDBRANCH  16  23
ENDBRANCH   6  15
BRANCH   7  25
ATOM     25  C   UNL     1      90.915  99.136  93.459  1.00  0.00     0.135 C 
BRANCH  25  26
ATOM     26  C   UNL     1      89.422  99.096  93.674  1.00  0.00    -0.040 A 
ATOM     27  C   UNL     1      88.841  98.009  94.327  1.00  0.00     0.004 A 
ATOM     28  C   UNL     1      88.624 100.146  93.222  1.00  0.00     0.004 A 
ATOM     29  C   UNL     1      87.460  97.971  94.526  1.00  0.00     0.000 A 
ATOM     30  C   UNL     1      87.243 100.109  93.421  1.00  0.00     0.000 A 
ATOM     31  C   UNL     1      86.662  99.021  94.073  1.00  0.00     0.000 A 
ENDBRANCH  25  26
ENDBRANCH   7  25
BRANCH  14  32
ATOM     32  C   UNL     1      90.163  99.602  89.116  1.00  0.00    -0.046 C 
ATOM     33  C   UNL     1      88.734  99.316  89.469  1.00  0.00     0.042 C 
ATOM     34  C   UNL     1      90.493 100.471  88.149  1.00  0.00     0.010 C 
ENDBRANCH  14  32
ENDBRANCH   3   4
BRANCH   2  35
ATOM     35  C   UNL     1      93.520  93.706  91.013  1.00  0.00     0.078 CG0
ATOM     36  G   UNL     1      94.412  94.914  90.731  1.00  0.00     0.000 G0
ENDBRANCH   2  35
ENDBRANCH   1   2
BRANCH   1  37
ATOM     37  O   UNL     1      92.171  91.897  92.369  1.00  0.00    -0.461 OA
BRANCH  37  38
ATOM     38  C   UNL     1      92.132  90.572  92.002  1.00  0.00     0.310 C 
ATOM     39  O   UNL     1      92.473  89.635  92.712  1.00  0.00    -0.252 OA
BRANCH  38  40
ATOM     40  C   UNL     1      91.605  90.454  90.591  1.00  0.00     0.158 C 
BRANCH  40  41
ATOM     41  C   UNL     1      92.656  90.013  89.605  1.00  0.00    -0.033 A 
ATOM     42  C   UNL     1      92.870  88.653  89.376  1.00  0.00     0.054 A 
ATOM     43  C   UNL     1      93.414  90.963  88.922  1.00  0.00     0.008 A 
ATOM     44  C   UNL     1      93.843  88.245  88.464  1.00  0.00     0.160 A 
ATOM     45  C   UNL     1      94.387  90.555  88.009  1.00  0.00     0.050 A 
ATOM     46  C   UNL     1      94.602  89.196  87.780  1.00  0.00     0.157 A 
BRANCH  44  47
ATOM     47  O   UNL     1      94.043  86.915  88.249  1.00  0.00    -0.493 OA
ATOM     48  C   UNL     1      93.480  86.012  89.199  1.00  0.00     0.278 C 
ENDBRANCH  44  47
BRANCH  46  49
ATOM     49  O   UNL     1      95.553  88.809  86.886  1.00  0.00    -0.504 OA
ATOM     50  H   UNL     1      95.577  87.838  86.850  1.00  0.00     0.293 HD
ENDBRANCH  46  49
ENDBRANCH  40  41
ENDBRANCH  38  40
ENDBRANCH  37  38
ENDBRANCH   1  37
TORSDOF 11
ENDMDL
MODEL 3
REMARK VINA RESULT:    -6.086     27.542     31.158
REMARK INTER + INTRA:         -11.885
REMARK INTER:                 -10.484
REMARK INTRA:                  -1.401
REMARK UNBOUND:                -1.174
REMARK SMILES C=C(C)[C@]12C[C@@H](C)[C@@]34O[C@](Cc5ccccc5)(O[C@@H]1[C@@H]3C=C(COC(=O)Cc1ccc(O)c(OC)c1)C[C@]1(O)C(=O)C(C)=C[C@@H]41)O2
REMARK SMILES IDX 23 1 22 2 21 3 20 4 9 5 8 6 10 7 6 8 18 9 46 10 19 11 5 12
REMARK SMILES IDX 7 13 4 14 45 15 38 16 44 17 40 18 42 20 41 21 43 22 39 23
REMARK SMILES IDX 11 25 12 26 13 27 17 28 14 29 16 30 15 31 2 32 3 33 1 34
REMARK SMILES IDX 37 35 24 37 25 38 26 39 27 40 28 41 36 42 29 43 33 44 30 45
REMARK SMILES IDX 31 46 34 47 35 48 32 49
REMARK H PARENT 39 24 32 50
REMARK Flexibility Score: 90.00
ROOT
ATOM      1  C   UNL     1      67.820  86.839  69.364  1.00  0.00     0.264 C 
ENDROOT
BRANCH   1   2
ATOM      2  C   UNL     1      66.807  86.892  70.484  1.00  0.00    -0.033 C 
ATOM      3  C   UNL     1      65.538  86.507  70.244  1.00  0.00    -0.015 C 
BRANCH   3   4
ATOM      4  C   UNL     1      64.330  86.539  71.165  1.00  0.00     0.078 C 
ATOM      5  O   UNL     1      64.221  84.335  72.285  1.00  0.00    -0.319 OA
ATOM      6  C   UNL     1      64.411  85.763  72.533  1.00  0.00     0.095 C 
ATOM      7  C   UNL     1      63.176  84.006  71.350  1.00  0.00     0.289 C 
ATOM      8  C   UNL     1      63.238  86.294  73.457  1.00  0.00     0.023 C 
ATOM      9  O   UNL     1      63.397  84.630  70.087  1.00  0.00    -0.320 OA
ATOM     10  O   UNL     1      61.897  84.459  71.785  1.00  0.00    -0.313 OA
ATOM     11  C   UNL     1      63.086  85.991  70.422  1.00  0.00     0.170 C 
ATOM     12  C   UNL     1      61.983  86.686  72.618  1.00  0.00     0.049 C 
ATOM     13  C   UNL     1      62.817  85.353  74.596  1.00  0.00     0.011 C 
ATOM     14  C   UNL     1      61.859  85.835  71.354  1.00  0.00     0.122 C 
BRANCH   6  15
ATOM     15  C   UNL     1      65.840  85.864  73.141  1.00  0.00     0.086 C 
ATOM     16  C   UNL     1      66.511  87.252  73.071  1.00  0.00     0.140 CG0
ATOM     17  C   UNL     1      66.066  85.437  74.564  1.00  0.00    -0.010 C 
ATOM     18  C   UNL     1      67.318  87.288  74.352  1.00  0.00     0.190 C 
ATOM     19  G   UNL     1      67.382  87.409  71.826  1.00  0.00     0.000 G0
ATOM     20  C   UNL     1      66.913  86.201  75.263  1.00  0.00    -0.008 C 
ATOM     21  O   UNL     1      68.159  88.127  74.636  1.00  0.00    -0.291 OA
ATOM     22  C   UNL     1      67.428  86.038  76.638  1.00  0.00     0.048 C 
BRANCH  16  23
ATOM     23  O   UNL     1      65.606  88.335  73.210  1.00  0.00    -0.381 OA
ATOM     24  H   UNL     1      64.701  87.984  73.178  1.00  0.00     0.212 HD
ENDBRANCH  16  23
ENDBRANCH   6  15
BRANCH   7  25
ATOM     25  C   UNL     1      63.148  82.500  71.179  1.00  0.00     0.135 C 
BRANCH  25  26
ATOM     26  C   UNL     1      63.797  82.066  69.888  1.00  0.00    -0.040 A 
ATOM     27  C   UNL     1      63.006  81.704  68.797  1.00  0.00     0.004 A 
ATOM     28  C   UNL     1      65.187  82.027  69.784  1.00  0.00     0.004 A 
ATOM     29  C   UNL     1      63.605  81.302  67.603  1.00  0.00     0.000 A 
ATOM     30  C   UNL     1      65.787  81.625  68.590  1.00  0.00     0.000 A 
ATOM     31  C   UNL     1      64.995  81.263  67.500  1.00  0.00     0.000 A 
ENDBRANCH  25  26
ENDBRANCH   7  25
BRANCH  14  32
ATOM     32  C   UNL     1      60.572  86.066  70.630  1.00  0.00    -0.046 C 
ATOM     33  C   UNL     1      59.321  85.697  71.370  1.00  0.00     0.042 C 
ATOM     34  C   UNL     1      60.537  86.574  69.389  1.00  0.00     0.010 C 
ENDBRANCH  14  32
ENDBRANCH   3   4
BRANCH   2  35
ATOM     35  C   UNL     1      67.393  87.390  71.792  1.00  0.00     0.078 CG0
ATOM     36  G   UNL     1      66.523  87.260  73.041  1.00  0.00     0.000 G0
ENDBRANCH   2  35
ENDBRANCH   1   2
BRANCH   1  37
ATOM     37  O   UNL     1      69.041  86.336  69.862  1.00  0.00    -0.461 OA
BRANCH  37  38
ATOM     38  C   UNL     1      69.625  85.326  69.133  1.00  0.00     0.310 C 
ATOM     39  O   UNL     1      69.700  84.158  69.488  1.00  0.00    -0.252 OA
BRANCH  38  40
ATOM     40  C   UNL     1      70.157  85.883  67.834  1.00  0.00     0.158 C 
BRANCH  40  41
ATOM     41  C   UNL     1      69.710  85.095  66.630  1.00  0.00    -0.033 A 
ATOM     42  C   UNL     1      68.417  85.258  66.129  1.00  0.00     0.054 A 
ATOM     43  C   UNL     1      70.588  84.202  66.015  1.00  0.00     0.008 A 
ATOM     44  C   UNL     1      68.004  84.529  65.015  1.00  0.00     0.160 A 
ATOM     45  C   UNL     1      70.174  83.472  64.901  1.00  0.00     0.050 A 
ATOM     46  C   UNL     1      68.882  83.635  64.400  1.00  0.00     0.157 A 
BRANCH  44  47
ATOM     47  O   UNL     1      66.740  84.697  64.536  1.00  0.00    -0.493 OA
ATOM     48  C   UNL     1      65.758  85.178  65.452  1.00  0.00     0.278 C 
ENDBRANCH  44  47
BRANCH  46  49
ATOM     49  O   UNL     1      68.490  82.918  63.311  1.00  0.00    -0.504 OA
ATOM     50  H   UNL     1      67.682  82.425  63.531  1.00  0.00     0.293 HD
ENDBRANCH  46  49
ENDBRANCH  40  41
ENDBRANCH  38  40
ENDBRANCH  37  38
ENDBRANCH   1  37
TORSDOF 11
ENDMDL
MODEL 4
REMARK VINA RESULT:    -6.019     31.312     35.327
REMARK INTER + INTRA:         -11.767
REMARK INTER:                 -10.226
REMARK INTRA:                  -1.541
REMARK UNBOUND:                -1.174
REMARK SMILES C=C(C)[C@]12C[C@@H](C)[C@@]34O[C@](Cc5ccccc5)(O[C@@H]1[C@@H]3C=C(COC(=O)Cc1ccc(O)c(OC)c1)C[C@]1(O)C(=O)C(C)=C[C@@H]41)O2
REMARK SMILES IDX 23 1 22 2 21 3 20 4 9 5 8 6 10 7 6 8 18 9 46 10 19 11 5 12
REMARK SMILES IDX 7 13 4 14 45 15 38 16 44 17 40 18 42 20 41 21 43 22 39 23
REMARK SMILES IDX 11 25 12 26 13 27 17 28 14 29 16 30 15 31 2 32 3 33 1 34
REMARK SMILES IDX 37 35 24 37 25 38 26 39 27 40 28 41 36 42 29 43 33 44 30 45
REMARK SMILES IDX 31 46 34 47 35 48 32 49
REMARK H PARENT 39 24 32 50
REMARK Flexibility Score: 90.00
ROOT
ATOM      1  C   UNL     1      56.365  84.937  89.212  1.00  0.00     0.264 C 
ENDROOT
BRANCH   1   2
ATOM      2  C   UNL     1      56.112  83.491  88.856  1.00  0.00    -0.033 C 
ATOM      3  C   UNL     1      56.463  83.041  87.635  1.00  0.00    -0.015 C 
BRANCH   3   4
ATOM      4  C   UNL     1      56.249  81.671  87.013  1.00  0.00     0.078 C 
ATOM      5  O   UNL     1      58.279  80.339  87.487  1.00  0.00    -0.319 OA
ATOM      6  C   UNL     1      56.844  80.413  87.750  1.00  0.00     0.095 C 
ATOM      7  C   UNL     1      58.672  80.610  86.128  1.00  0.00     0.289 C 
ATOM      8  C   UNL     1      56.136  79.127  87.152  1.00  0.00     0.023 C 
ATOM      9  O   UNL     1      58.230  81.899  85.709  1.00  0.00    -0.320 OA
ATOM     10  O   UNL     1      58.099  79.688  85.205  1.00  0.00    -0.313 OA
ATOM     11  C   UNL     1      56.822  81.650  85.574  1.00  0.00     0.170 C 
ATOM     12  C   UNL     1      55.790  79.315  85.643  1.00  0.00     0.049 C 
ATOM     13  C   UNL     1      56.898  77.806  87.341  1.00  0.00     0.011 C 
ATOM     14  C   UNL     1      56.791  80.236  84.943  1.00  0.00     0.122 C 
BRANCH   6  15
ATOM     15  C   UNL     1      56.739  80.577  89.293  1.00  0.00     0.086 C 
ATOM     16  C   UNL     1      55.409  81.146  89.828  1.00  0.00     0.140 CG0
ATOM     17  C   UNL     1      56.992  79.389  90.179  1.00  0.00    -0.010 C 
ATOM     18  C   UNL     1      55.251  80.421  91.148  1.00  0.00     0.190 C 
ATOM     19  G   UNL     1      55.457  82.664  89.997  1.00  0.00     0.000 G0
ATOM     20  C   UNL     1      56.191  79.288  91.245  1.00  0.00    -0.008 C 
ATOM     21  O   UNL     1      54.427  80.689  92.009  1.00  0.00    -0.291 OA
ATOM     22  C   UNL     1      56.204  78.315  92.356  1.00  0.00     0.048 C 
BRANCH  16  23
ATOM     23  O   UNL     1      54.272  80.744  89.083  1.00  0.00    -0.381 OA
ATOM     24  H   UNL     1      54.540  80.617  88.158  1.00  0.00     0.212 HD
ENDBRANCH  16  23
ENDBRANCH   6  15
BRANCH   7  25
ATOM     25  C   UNL     1      60.183  80.536  86.046  1.00  0.00     0.135 C 
BRANCH  25  26
ATOM     26  C   UNL     1      60.651  79.274  85.364  1.00  0.00    -0.040 A 
ATOM     27  C   UNL     1      60.660  78.066  86.064  1.00  0.00     0.004 A 
ATOM     28  C   UNL     1      61.072  79.313  84.036  1.00  0.00     0.004 A 
ATOM     29  C   UNL     1      61.093  76.899  85.434  1.00  0.00     0.000 A 
ATOM     30  C   UNL     1      61.504  78.145  83.406  1.00  0.00     0.000 A 
ATOM     31  C   UNL     1      61.514  76.939  84.106  1.00  0.00     0.000 A 
ENDBRANCH  25  26
ENDBRANCH   7  25
BRANCH  14  32
ATOM     32  C   UNL     1      56.589  80.286  83.464  1.00  0.00    -0.046 C 
ATOM     33  C   UNL     1      57.299  79.236  82.663  1.00  0.00     0.042 C 
ATOM     34  C   UNL     1      55.816  81.217  82.884  1.00  0.00     0.010 C 
ENDBRANCH  14  32
ENDBRANCH   3   4
BRANCH   2  35
ATOM     35  C   UNL     1      55.472  82.704  89.985  1.00  0.00     0.078 CG0
ATOM     36  G   UNL     1      55.404  81.185  89.827  1.00  0.00     0.000 G0
ENDBRANCH   2  35
ENDBRANCH   1   2
BRANCH   1  37
ATOM     37  O   UNL     1      56.241  85.732  88.052  1.00  0.00    -0.461 OA
BRANCH  37  38
ATOM     38  C   UNL     1      56.336  87.092  88.234  1.00  0.00     0.310 C 
ATOM     39  O   UNL     1      55.394  87.871  88.212  1.00  0.00    -0.252 OA
BRANCH  38  40
ATOM     40  C   UNL     1      57.781  87.470  88.462  1.00  0.00     0.158 C 
BRANCH  40  41
ATOM     41  C   UNL     1      58.666  87.149  87.286  1.00  0.00    -0.033 A 
ATOM     42  C   UNL     1      58.323  87.600  86.011  1.00  0.00     0.054 A 
ATOM     43  C   UNL     1      59.828  86.401  87.472  1.00  0.00     0.008 A 
ATOM     44  C   UNL     1      59.143  87.303  84.922  1.00  0.00     0.160 A 
ATOM     45  C   UNL     1      60.648  86.103  86.383  1.00  0.00     0.050 A 
ATOM     46  C   UNL     1      60.305  86.553  85.108  1.00  0.00     0.157 A 
BRANCH  44  47
ATOM     47  O   UNL     1      58.797  87.748  83.682  1.00  0.00    -0.493 OA
ATOM     48  C   UNL     1      59.415  88.953  83.231  1.00  0.00     0.278 C 
ENDBRANCH  44  47
BRANCH  46  49
ATOM     49  O   UNL     1      61.114  86.258  84.053  1.00  0.00    -0.504 OA
ATOM     50  H   UNL     1      61.806  85.642  84.347  1.00  0.00     0.293 HD
ENDBRANCH  46  49
ENDBRANCH  40  41
ENDBRANCH  38  40
ENDBRANCH  37  38
ENDBRANCH   1  37
TORSDOF 11
ENDMDL
MODEL 5
REMARK VINA RESULT:    -6.015     29.000     33.682
REMARK INTER + INTRA:         -11.760
REMARK INTER:                  -9.308
REMARK INTRA:                  -2.452
REMARK UNBOUND:                -1.174
REMARK SMILES C=C(C)[C@]12C[C@@H](C)[C@@]34O[C@](Cc5ccccc5)(O[C@@H]1[C@@H]3C=C(COC(=O)Cc1ccc(O)c(OC)c1)C[C@]1(O)C(=O)C(C)=C[C@@H]41)O2
REMARK SMILES IDX 23 1 22 2 21 3 20 4 9 5 8 6 10 7 6 8 18 9 46 10 19 11 5 12
REMARK SMILES IDX 7 13 4 14 45 15 38 16 44 17 40 18 42 20 41 21 43 22 39 23
REMARK SMILES IDX 11 25 12 26 13 27 17 28 14 29 16 30 15 31 2 32 3 33 1 34
REMARK SMILES IDX 37 35 24 37 25 38 26 39 27 40 28 41 36 42 29 43 33 44 30 45
REMARK SMILES IDX 31 46 34 47 35 48 32 49
REMARK H PARENT 39 24 32 50
REMARK Flexibility Score: 90.00
ROOT
ATOM      1  C   UNL     1      57.475  84.739  86.885  1.00  0.00     0.264 C 
ENDROOT
BRANCH   1   2
ATOM      2  C   UNL     1      57.141  83.281  87.099  1.00  0.00    -0.033 C 
ATOM      3  C   UNL     1      57.660  82.356  86.267  1.00  0.00    -0.015 C 
BRANCH   3   4
ATOM      4  C   UNL     1      57.421  80.856  86.221  1.00  0.00     0.078 C 
ATOM      5  O   UNL     1      59.187  79.802  87.595  1.00  0.00    -0.319 OA
ATOM      6  C   UNL     1      57.743  80.007  87.507  1.00  0.00     0.095 C 
ATOM      7  C   UNL     1      59.841  79.476  86.354  1.00  0.00     0.289 C 
ATOM      8  C   UNL     1      57.025  78.603  87.347  1.00  0.00     0.023 C 
ATOM      9  O   UNL     1      59.614  80.482  85.370  1.00  0.00    -0.320 OA
ATOM     10  O   UNL     1      59.349  78.265  85.785  1.00  0.00    -0.313 OA
ATOM     11  C   UNL     1      58.235  80.228  85.063  1.00  0.00     0.170 C 
ATOM     12  C   UNL     1      56.974  78.154  85.855  1.00  0.00     0.049 C 
ATOM     13  C   UNL     1      57.601  77.465  88.205  1.00  0.00     0.011 C 
ATOM     14  C   UNL     1      58.172  78.680  85.064  1.00  0.00     0.122 C 
BRANCH   6  15
ATOM     15  C   UNL     1      57.384  80.800  88.796  1.00  0.00     0.086 C 
ATOM     16  C   UNL     1      56.050  81.575  88.768  1.00  0.00     0.140 CG0
ATOM     17  C   UNL     1      57.342  80.081  90.115  1.00  0.00    -0.010 C 
ATOM     18  C   UNL     1      55.580  81.468  90.203  1.00  0.00     0.190 C 
ATOM     19  G   UNL     1      56.234  83.024  88.319  1.00  0.00     0.000 G0
ATOM     20  C   UNL     1      56.357  80.453  90.940  1.00  0.00    -0.008 C 
ATOM     21  O   UNL     1      54.650  82.091  90.693  1.00  0.00    -0.291 OA
ATOM     22  C   UNL     1      56.064  80.029  92.324  1.00  0.00     0.048 C 
BRANCH  16  23
ATOM     23  O   UNL     1      55.027  80.930  88.028  1.00  0.00    -0.381 OA
ATOM     24  H   UNL     1      55.414  80.164  87.572  1.00  0.00     0.212 HD
ENDBRANCH  16  23
ENDBRANCH   6  15
BRANCH   7  25
ATOM     25  C   UNL     1      61.327  79.344  86.619  1.00  0.00     0.135 C 
BRANCH  25  26
ATOM     26  C   UNL     1      62.047  78.671  85.477  1.00  0.00    -0.040 A 
ATOM     27  C   UNL     1      62.332  79.387  84.314  1.00  0.00     0.004 A 
ATOM     28  C   UNL     1      62.430  77.335  85.584  1.00  0.00     0.004 A 
ATOM     29  C   UNL     1      62.999  78.765  83.258  1.00  0.00     0.000 A 
ATOM     30  C   UNL     1      63.096  76.713  84.528  1.00  0.00     0.000 A 
ATOM     31  C   UNL     1      63.380  77.429  83.365  1.00  0.00     0.000 A 
ENDBRANCH  25  26
ENDBRANCH   7  25
BRANCH  14  32
ATOM     32  C   UNL     1      58.242  78.115  83.683  1.00  0.00    -0.046 C 
ATOM     33  C   UNL     1      58.968  76.811  83.537  1.00  0.00     0.042 C 
ATOM     34  C   UNL     1      57.687  78.738  82.632  1.00  0.00     0.010 C 
ENDBRANCH  14  32
ENDBRANCH   3   4
BRANCH   2  35
ATOM     35  C   UNL     1      56.226  83.048  88.287  1.00  0.00     0.078 CG0
ATOM     36  G   UNL     1      56.054  81.607  88.765  1.00  0.00     0.000 G0
ENDBRANCH   2  35
ENDBRANCH   1   2
BRANCH   1  37
ATOM     37  O   UNL     1      58.286  85.192  87.948  1.00  0.00    -0.461 OA
BRANCH  37  38
ATOM     38  C   UNL     1      59.476  85.785  87.595  1.00  0.00     0.310 C 
ATOM     39  O   UNL     1      60.244  86.337  88.371  1.00  0.00    -0.252 OA
BRANCH  38  40
ATOM     40  C   UNL     1      59.685  85.650  86.105  1.00  0.00     0.158 C 
BRANCH  40  41
ATOM     41  C   UNL     1      60.902  84.833  85.754  1.00  0.00    -0.033 A 
ATOM     42  C   UNL     1      61.877  85.363  84.908  1.00  0.00     0.054 A 
ATOM     43  C   UNL     1      61.054  83.548  86.274  1.00  0.00     0.008 A 
ATOM     44  C   UNL     1      63.004  84.608  84.583  1.00  0.00     0.160 A 
ATOM     45  C   UNL     1      62.180  82.792  85.949  1.00  0.00     0.050 A 
ATOM     46  C   UNL     1      63.155  83.321  85.103  1.00  0.00     0.157 A 
BRANCH  44  47
ATOM     47  O   UNL     1      63.949  85.136  83.756  1.00  0.00    -0.493 OA
ATOM     48  C   UNL     1      64.651  86.286  84.226  1.00  0.00     0.278 C 
ENDBRANCH  44  47
BRANCH  46  49
ATOM     49  O   UNL     1      64.251  82.575  84.794  1.00  0.00    -0.504 OA
ATOM     50  H   UNL     1      65.050  83.057  85.066  1.00  0.00     0.293 HD
ENDBRANCH  46  49
ENDBRANCH  40  41
ENDBRANCH  38  40
ENDBRANCH  37  38
ENDBRANCH   1  37
TORSDOF 11
ENDMDL
MODEL 6
REMARK VINA RESULT:    -5.682      5.393      9.545
REMARK INTER + INTRA:         -11.174
REMARK INTER:                 -10.265
REMARK INTRA:                  -0.909
REMARK UNBOUND:                -1.174
REMARK SMILES C=C(C)[C@]12C[C@@H](C)[C@@]34O[C@](Cc5ccccc5)(O[C@@H]1[C@@H]3C=C(COC(=O)Cc1ccc(O)c(OC)c1)C[C@]1(O)C(=O)C(C)=C[C@@H]41)O2
REMARK SMILES IDX 23 1 22 2 21 3 20 4 9 5 8 6 10 7 6 8 18 9 46 10 19 11 5 12
REMARK SMILES IDX 7 13 4 14 45 15 38 16 44 17 40 18 42 20 41 21 43 22 39 23
REMARK SMILES IDX 11 25 12 26 13 27 17 28 14 29 16 30 15 31 2 32 3 33 1 34
REMARK SMILES IDX 37 35 24 37 25 38 26 39 27 40 28 41 36 42 29 43 33 44 30 45
REMARK SMILES IDX 31 46 34 47 35 48 32 49
REMARK H PARENT 39 24 32 50
REMARK Flexibility Score: 90.00
ROOT
ATOM      1  C   UNL     1      95.199  77.345  83.082  1.00  0.00     0.264 C 
ENDROOT
BRANCH   1   2
ATOM      2  C   UNL     1      96.244  78.421  82.896  1.00  0.00    -0.033 C 
ATOM      3  C   UNL     1      97.200  78.258  81.960  1.00  0.00    -0.015 C 
BRANCH   3   4
ATOM      4  C   UNL     1      98.391  79.143  81.633  1.00  0.00     0.078 C 
ATOM      5  O   UNL     1      97.665  80.699  79.852  1.00  0.00    -0.319 OA
ATOM      6  C   UNL     1      98.123  80.643  81.238  1.00  0.00     0.095 C 
ATOM      7  C   UNL     1      98.374  79.846  78.934  1.00  0.00     0.289 C 
ATOM      8  C   UNL     1      99.495  81.426  81.368  1.00  0.00     0.023 C 
ATOM      9  O   UNL     1      98.316  78.483  79.345  1.00  0.00    -0.320 OA
ATOM     10  O   UNL     1      99.761  80.166  78.858  1.00  0.00    -0.313 OA
ATOM     11  C   UNL     1      99.206  78.521  80.472  1.00  0.00     0.170 C 
ATOM     12  C   UNL     1     100.709  80.514  81.012  1.00  0.00     0.049 C 
ATOM     13  C   UNL     1      99.587  82.735  80.567  1.00  0.00     0.011 C 
ATOM     14  C   UNL     1     100.336  79.456  79.973  1.00  0.00     0.122 C 
BRANCH   6  15
ATOM     15  C   UNL     1      96.940  81.228  82.063  1.00  0.00     0.086 C 
ATOM     16  C   UNL     1      96.914  80.870  83.563  1.00  0.00     0.140 CG0
ATOM     17  C   UNL     1      96.697  82.711  82.053  1.00  0.00    -0.010 C 
ATOM     18  C   UNL     1      96.331  82.120  84.186  1.00  0.00     0.190 C 
ATOM     19  G   UNL     1      96.072  79.627  83.846  1.00  0.00     0.000 G0
ATOM     20  C   UNL     1      96.326  83.238  83.224  1.00  0.00    -0.008 C 
ATOM     21  O   UNL     1      95.955  82.225  85.344  1.00  0.00    -0.291 OA
ATOM     22  C   UNL     1      95.931  84.621  83.563  1.00  0.00     0.048 C 
BRANCH  16  23
ATOM     23  O   UNL     1      98.201  80.768  84.151  1.00  0.00    -0.381 OA
ATOM     24  H   UNL     1      98.867  80.908  83.458  1.00  0.00     0.212 HD
ENDBRANCH  16  23
ENDBRANCH   6  15
BRANCH   7  25
ATOM     25  C   UNL     1      97.744  79.995  77.563  1.00  0.00     0.135 C 
BRANCH  25  26
ATOM     26  C   UNL     1      97.745  81.428  77.094  1.00  0.00    -0.040 A 
ATOM     27  C   UNL     1      98.619  81.830  76.084  1.00  0.00     0.004 A 
ATOM     28  C   UNL     1      96.871  82.351  77.667  1.00  0.00     0.004 A 
ATOM     29  C   UNL     1      98.620  83.156  75.649  1.00  0.00     0.000 A 
ATOM     30  C   UNL     1      96.872  83.677  77.232  1.00  0.00     0.000 A 
ATOM     31  C   UNL     1      97.747  84.078  76.223  1.00  0.00     0.000 A 
ENDBRANCH  25  26
ENDBRANCH   7  25
BRANCH  14  32
ATOM     32  C   UNL     1     101.521  78.690  79.482  1.00  0.00    -0.046 C 
ATOM     33  C   UNL     1     102.617  79.498  78.851  1.00  0.00     0.042 C 
ATOM     34  C   UNL     1     101.602  77.356  79.598  1.00  0.00     0.010 C 
ENDBRANCH  14  32
ENDBRANCH   3   4
BRANCH   2  35
ATOM     35  C   UNL     1      96.056  79.600  83.832  1.00  0.00     0.078 CG0
ATOM     36  G   UNL     1      96.899  80.846  83.565  1.00  0.00     0.000 G0
ENDBRANCH   2  35
ENDBRANCH   1   2
BRANCH   1  37
ATOM     37  O   UNL     1      95.839  76.103  83.280  1.00  0.00    -0.461 OA
BRANCH  37  38
ATOM     38  C   UNL     1      95.479  75.406  84.410  1.00  0.00     0.310 C 
ATOM     39  O   UNL     1      95.595  75.817  85.556  1.00  0.00    -0.252 OA
BRANCH  38  40
ATOM     40  C   UNL     1      94.918  74.060  84.015  1.00  0.00     0.158 C 
BRANCH  40  41
ATOM     41  C   UNL     1      93.504  74.140  83.499  1.00  0.00    -0.033 A 
ATOM     42  C   UNL     1      92.610  75.057  84.055  1.00  0.00     0.054 A 
ATOM     43  C   UNL     1      93.089  73.299  82.467  1.00  0.00     0.008 A 
ATOM     44  C   UNL     1      91.302  75.131  83.578  1.00  0.00     0.160 A 
ATOM     45  C   UNL     1      91.780  73.373  81.990  1.00  0.00     0.050 A 
ATOM     46  C   UNL     1      90.886  74.289  82.545  1.00  0.00     0.157 A 
BRANCH  44  47
ATOM     47  O   UNL     1      90.438  76.029  84.128  1.00  0.00    -0.493 OA
ATOM     48  C   UNL     1      90.917  77.361  84.311  1.00  0.00     0.278 C 
ENDBRANCH  44  47
BRANCH  46  49
ATOM     49  O   UNL     1      89.612  74.353  82.071  1.00  0.00    -0.504 OA
ATOM     50  H   UNL     1      89.114  73.584  82.396  1.00  0.00     0.293 HD
ENDBRANCH  46  49
ENDBRANCH  40  41
ENDBRANCH  38  40
ENDBRANCH  37  38
ENDBRANCH   1  37
TORSDOF 11
ENDMDL
MODEL 7
REMARK VINA RESULT:    -5.640     23.902     28.850
REMARK INTER + INTRA:         -11.101
REMARK INTER:                 -10.009
REMARK INTRA:                  -1.092
REMARK UNBOUND:                -1.174
REMARK SMILES C=C(C)[C@]12C[C@@H](C)[C@@]34O[C@](Cc5ccccc5)(O[C@@H]1[C@@H]3C=C(COC(=O)Cc1ccc(O)c(OC)c1)C[C@]1(O)C(=O)C(C)=C[C@@H]41)O2
REMARK SMILES IDX 23 1 22 2 21 3 20 4 9 5 8 6 10 7 6 8 18 9 46 10 19 11 5 12
REMARK SMILES IDX 7 13 4 14 45 15 38 16 44 17 40 18 42 20 41 21 43 22 39 23
REMARK SMILES IDX 11 25 12 26 13 27 17 28 14 29 16 30 15 31 2 32 3 33 1 34
REMARK SMILES IDX 37 35 24 37 25 38 26 39 27 40 28 41 36 42 29 43 33 44 30 45
REMARK SMILES IDX 31 46 34 47 35 48 32 49
REMARK H PARENT 39 24 32 50
REMARK Flexibility Score: 90.00
ROOT
ATOM      1  C   UNL     1      72.304  92.466  68.491  1.00  0.00     0.264 C 
ENDROOT
BRANCH   1   2
ATOM      2  C   UNL     1      71.964  93.205  69.764  1.00  0.00    -0.033 C 
ATOM      3  C   UNL     1      72.680  92.959  70.880  1.00  0.00    -0.015 C 
BRANCH   3   4
ATOM      4  C   UNL     1      72.492  93.504  72.286  1.00  0.00     0.078 C 
ATOM      5  O   UNL     1      73.896  95.534  72.466  1.00  0.00    -0.319 OA
ATOM      6  C   UNL     1      72.512  95.065  72.493  1.00  0.00     0.095 C 
ATOM      7  C   UNL     1      74.838  94.716  73.186  1.00  0.00     0.289 C 
ATOM      8  C   UNL     1      71.885  95.368  73.917  1.00  0.00     0.023 C 
ATOM      9  O   UNL     1      74.834  93.375  72.702  1.00  0.00    -0.320 OA
ATOM     10  O   UNL     1      74.526  94.625  74.573  1.00  0.00    -0.313 OA
ATOM     11  C   UNL     1      73.577  92.922  73.226  1.00  0.00     0.170 C 
ATOM     12  C   UNL     1      72.208  94.233  74.937  1.00  0.00     0.049 C 
ATOM     13  C   UNL     1      72.262  96.727  74.528  1.00  0.00     0.011 C 
ATOM     14  C   UNL     1      73.550  93.565  74.634  1.00  0.00     0.122 C 
BRANCH   6  15
ATOM     15  C   UNL     1      71.833  95.789  71.295  1.00  0.00     0.086 C 
ATOM     16  C   UNL     1      70.531  95.152  70.765  1.00  0.00     0.140 CG0
ATOM     17  C   UNL     1      71.485  97.246  71.417  1.00  0.00    -0.010 C 
ATOM     18  C   UNL     1      69.728  96.362  70.337  1.00  0.00     0.190 C 
ATOM     19  G   UNL     1      70.791  94.184  69.612  1.00  0.00     0.000 G0
ATOM     20  C   UNL     1      70.321  97.605  70.864  1.00  0.00    -0.008 C 
ATOM     21  O   UNL     1      68.695  96.331  69.685  1.00  0.00    -0.291 OA
ATOM     22  C   UNL     1      69.707  98.941  70.722  1.00  0.00     0.048 C 
BRANCH  16  23
ATOM     23  O   UNL     1      69.733  94.555  71.773  1.00  0.00    -0.381 OA
ATOM     24  H   UNL     1      69.861  95.049  72.599  1.00  0.00     0.212 HD
ENDBRANCH  16  23
ENDBRANCH   6  15
BRANCH   7  25
ATOM     25  C   UNL     1      76.218  95.318  73.015  1.00  0.00     0.135 C 
BRANCH  25  26
ATOM     26  C   UNL     1      76.909  95.532  74.339  1.00  0.00    -0.040 A 
ATOM     27  C   UNL     1      76.748  96.738  75.023  1.00  0.00     0.004 A 
ATOM     28  C   UNL     1      77.706  94.525  74.881  1.00  0.00     0.004 A 
ATOM     29  C   UNL     1      77.386  96.936  76.247  1.00  0.00     0.000 A 
ATOM     30  C   UNL     1      78.345  94.724  76.106  1.00  0.00     0.000 A 
ATOM     31  C   UNL     1      78.184  95.930  76.788  1.00  0.00     0.000 A 
ENDBRANCH  25  26
ENDBRANCH   7  25
BRANCH  14  32
ATOM     32  C   UNL     1      73.965  92.603  75.699  1.00  0.00    -0.046 C 
ATOM     33  C   UNL     1      73.163  91.340  75.800  1.00  0.00     0.042 C 
ATOM     34  C   UNL     1      74.997  92.855  76.519  1.00  0.00     0.010 C 
ENDBRANCH  14  32
ENDBRANCH   3   4
BRANCH   2  35
ATOM     35  C   UNL     1      70.809  94.175  69.599  1.00  0.00     0.078 CG0
ATOM     36  G   UNL     1      70.537  95.139  70.752  1.00  0.00     0.000 G0
ENDBRANCH   2  35
ENDBRANCH   1   2
BRANCH   1  37
ATOM     37  O   UNL     1      72.140  91.080  68.697  1.00  0.00    -0.461 OA
BRANCH  37  38
ATOM     38  C   UNL     1      73.137  90.269  68.205  1.00  0.00     0.310 C 
ATOM     39  O   UNL     1      73.060  89.603  67.182  1.00  0.00    -0.252 OA
BRANCH  38  40
ATOM     40  C   UNL     1      74.335  90.330  69.123  1.00  0.00     0.158 C 
BRANCH  40  41
ATOM     41  C   UNL     1      75.313  89.208  68.889  1.00  0.00    -0.033 A 
ATOM     42  C   UNL     1      74.952  87.894  69.189  1.00  0.00     0.054 A 
ATOM     43  C   UNL     1      76.579  89.482  68.371  1.00  0.00     0.008 A 
ATOM     44  C   UNL     1      75.857  86.855  68.972  1.00  0.00     0.160 A 
ATOM     45  C   UNL     1      77.484  88.443  68.154  1.00  0.00     0.050 A 
ATOM     46  C   UNL     1      77.124  87.130  68.455  1.00  0.00     0.157 A 
BRANCH  44  47
ATOM     47  O   UNL     1      75.493  85.577  69.269  1.00  0.00    -0.493 OA
ATOM     48  C   UNL     1      74.673  84.898  68.319  1.00  0.00     0.278 C 
ENDBRANCH  44  47
BRANCH  46  49
ATOM     49  O   UNL     1      78.015  86.123  68.238  1.00  0.00    -0.504 OA
ATOM     50  H   UNL     1      78.508  85.954  69.058  1.00  0.00     0.293 HD
ENDBRANCH  46  49
ENDBRANCH  40  41
ENDBRANCH  38  40
ENDBRANCH  37  38
ENDBRANCH   1  37
TORSDOF 11
ENDMDL
MODEL 8
REMARK VINA RESULT:    -5.420      4.058      9.341
REMARK INTER + INTRA:         -10.714
REMARK INTER:                  -9.564
REMARK INTRA:                  -1.150
REMARK UNBOUND:                -1.174
REMARK SMILES C=C(C)[C@]12C[C@@H](C)[C@@]34O[C@](Cc5ccccc5)(O[C@@H]1[C@@H]3C=C(COC(=O)Cc1ccc(O)c(OC)c1)C[C@]1(O)C(=O)C(C)=C[C@@H]41)O2
REMARK SMILES IDX 23 1 22 2 21 3 20 4 9 5 8 6 10 7 6 8 18 9 46 10 19 11 5 12
REMARK SMILES IDX 7 13 4 14 45 15 38 16 44 17 40 18 42 20 41 21 43 22 39 23
REMARK SMILES IDX 11 25 12 26 13 27 17 28 14 29 16 30 15 31 2 32 3 33 1 34
REMARK SMILES IDX 37 35 24 37 25 38 26 39 27 40 28 41 36 42 29 43 33 44 30 45
REMARK SMILES IDX 31 46 34 47 35 48 32 49
REMARK H PARENT 39 24 32 50
REMARK Flexibility Score: 90.00
ROOT
ATOM      1  C   UNL     1      95.179  76.138  83.389  1.00  0.00     0.264 C 
ENDROOT
BRANCH   1   2
ATOM      2  C   UNL     1      95.566  77.593  83.269  1.00  0.00    -0.033 C 
ATOM      3  C   UNL     1      94.864  78.520  83.951  1.00  0.00    -0.015 C 
BRANCH   3   4
ATOM      4  C   UNL     1      95.000  80.034  83.941  1.00  0.00     0.078 C 
ATOM      5  O   UNL     1      96.554  80.630  85.771  1.00  0.00    -0.319 OA
ATOM      6  C   UNL     1      96.393  80.663  84.319  1.00  0.00     0.095 C 
ATOM      7  C   UNL     1      95.387  80.998  86.530  1.00  0.00     0.289 C 
ATOM      8  C   UNL     1      96.389  82.169  83.827  1.00  0.00     0.023 C 
ATOM      9  O   UNL     1      94.277  80.164  86.207  1.00  0.00    -0.320 OA
ATOM     10  O   UNL     1      94.960  82.329  86.255  1.00  0.00    -0.313 OA
ATOM     11  C   UNL     1      93.958  80.663  84.899  1.00  0.00     0.170 C 
ATOM     12  C   UNL     1      94.964  82.797  83.922  1.00  0.00     0.049 C 
ATOM     13  C   UNL     1      97.402  83.093  84.522  1.00  0.00     0.011 C 
ATOM     14  C   UNL     1      94.153  82.190  85.067  1.00  0.00     0.122 C 
BRANCH   6  15
ATOM     15  C   UNL     1      97.559  79.786  83.779  1.00  0.00     0.086 C 
ATOM     16  C   UNL     1      97.387  79.231  82.350  1.00  0.00     0.140 CG0
ATOM     17  C   UNL     1      98.956  80.342  83.771  1.00  0.00    -0.010 C 
ATOM     18  C   UNL     1      98.806  79.237  81.824  1.00  0.00     0.190 C 
ATOM     19  G   UNL     1      96.767  77.834  82.345  1.00  0.00     0.000 G0
ATOM     20  C   UNL     1      99.691  80.028  82.699  1.00  0.00    -0.008 C 
ATOM     21  O   UNL     1      99.180  78.708  80.788  1.00  0.00    -0.291 OA
ATOM     22  C   UNL     1     101.107  80.324  82.397  1.00  0.00     0.048 C 
BRANCH  16  23
ATOM     23  O   UNL     1      96.697  80.106  81.473  1.00  0.00    -0.381 OA
ATOM     24  H   UNL     1      97.156  80.962  81.470  1.00  0.00     0.212 HD
ENDBRANCH  16  23
ENDBRANCH   6  15
BRANCH   7  25
ATOM     25  C   UNL     1      95.715  80.865  88.003  1.00  0.00     0.135 C 
BRANCH  25  26
ATOM     26  C   UNL     1      97.158  81.198  88.292  1.00  0.00    -0.040 A 
ATOM     27  C   UNL     1      98.024  80.204  88.752  1.00  0.00     0.004 A 
ATOM     28  C   UNL     1      97.628  82.496  88.099  1.00  0.00     0.004 A 
ATOM     29  C   UNL     1      99.358  80.511  89.019  1.00  0.00     0.000 A 
ATOM     30  C   UNL     1      98.962  82.803  88.366  1.00  0.00     0.000 A 
ATOM     31  C   UNL     1      99.827  81.810  88.827  1.00  0.00     0.000 A 
ENDBRANCH  25  26
ENDBRANCH   7  25
BRANCH  14  32
ATOM     32  C   UNL     1      92.858  82.900  85.293  1.00  0.00    -0.046 C 
ATOM     33  C   UNL     1      92.937  84.207  86.024  1.00  0.00     0.042 C 
ATOM     34  C   UNL     1      91.690  82.397  84.866  1.00  0.00     0.010 C 
ENDBRANCH  14  32
ENDBRANCH   3   4
BRANCH   2  35
ATOM     35  C   UNL     1      96.756  77.819  82.356  1.00  0.00     0.078 CG0
ATOM     36  G   UNL     1      97.390  79.209  82.366  1.00  0.00     0.000 G0
ENDBRANCH   2  35
ENDBRANCH   1   2
BRANCH   1  37
ATOM     37  O   UNL     1      93.775  76.035  83.492  1.00  0.00    -0.461 OA
BRANCH  37  38
ATOM     38  C   UNL     1      93.104  75.694  82.340  1.00  0.00     0.310 C 
ATOM     39  O   UNL     1      93.630  75.278  81.318  1.00  0.00    -0.252 OA
BRANCH  38  40
ATOM     40  C   UNL     1      91.622  75.913  82.536  1.00  0.00     0.158 C 
BRANCH  40  41
ATOM     41  C   UNL     1      90.894  74.663  82.959  1.00  0.00    -0.033 A 
ATOM     42  C   UNL     1      90.657  74.418  84.313  1.00  0.00     0.054 A 
ATOM     43  C   UNL     1      90.456  73.752  81.999  1.00  0.00     0.008 A 
ATOM     44  C   UNL     1      89.983  73.261  84.704  1.00  0.00     0.160 A 
ATOM     45  C   UNL     1      89.782  72.595  82.390  1.00  0.00     0.050 A 
ATOM     46  C   UNL     1      89.545  72.349  83.742  1.00  0.00     0.157 A 
BRANCH  44  47
ATOM     47  O   UNL     1      89.758  73.033  86.028  1.00  0.00    -0.493 OA
ATOM     48  C   UNL     1      90.876  72.625  86.815  1.00  0.00     0.278 C 
ENDBRANCH  44  47
BRANCH  46  49
ATOM     49  O   UNL     1      88.885  71.217  84.113  1.00  0.00    -0.504 OA
ATOM     50  H   UNL     1      88.011  71.460  84.462  1.00  0.00     0.293 HD
ENDBRANCH  46  49
ENDBRANCH  40  41
ENDBRANCH  38  40
ENDBRANCH  37  38
ENDBRANCH   1  37
TORSDOF 11
ENDMDL
MODEL 9
REMARK VINA RESULT:    -5.396     14.887     22.521
REMARK INTER + INTRA:         -10.671
REMARK INTER:                  -9.587
REMARK INTRA:                  -1.084
REMARK UNBOUND:                -1.174
REMARK SMILES C=C(C)[C@]12C[C@@H](C)[C@@]34O[C@](Cc5ccccc5)(O[C@@H]1[C@@H]3C=C(COC(=O)Cc1ccc(O)c(OC)c1)C[C@]1(O)C(=O)C(C)=C[C@@H]41)O2
REMARK SMILES IDX 23 1 22 2 21 3 20 4 9 5 8 6 10 7 6 8 18 9 46 10 19 11 5 12
REMARK SMILES IDX 7 13 4 14 45 15 38 16 44 17 40 18 42 20 41 21 43 22 39 23
REMARK SMILES IDX 11 25 12 26 13 27 17 28 14 29 16 30 15 31 2 32 3 33 1 34
REMARK SMILES IDX 37 35 24 37 25 38 26 39 27 40 28 41 36 42 29 43 33 44 30 45
REMARK SMILES IDX 31 46 34 47 35 48 32 49
REMARK H PARENT 39 24 32 50
REMARK Flexibility Score: 90.00
ROOT
ATOM      1  C   UNL     1      91.313  92.806  91.249  1.00  0.00     0.264 C 
ENDROOT
BRANCH   1   2
ATOM      2  C   UNL     1      92.103  94.054  90.932  1.00  0.00    -0.033 C 
ATOM      3  C   UNL     1      91.467  95.243  90.889  1.00  0.00    -0.015 C 
BRANCH   3   4
ATOM      4  C   UNL     1      92.011  96.614  90.522  1.00  0.00     0.078 C 
ATOM      5  O   UNL     1      92.740  97.687  92.628  1.00  0.00    -0.319 OA
ATOM      6  C   UNL     1      93.225  97.183  91.346  1.00  0.00     0.095 C 
ATOM      7  C   UNL     1      91.514  98.441  92.570  1.00  0.00     0.289 C 
ATOM      8  C   UNL     1      93.850  98.380  90.516  1.00  0.00     0.023 C 
ATOM      9  O   UNL     1      90.462  97.674  91.990  1.00  0.00    -0.320 OA
ATOM     10  O   UNL     1      91.633  99.606  91.758  1.00  0.00    -0.313 OA
ATOM     11  C   UNL     1      90.881  97.669  90.616  1.00  0.00     0.170 C 
ATOM     12  C   UNL     1      92.757  99.148  89.711  1.00  0.00     0.049 C 
ATOM     13  C   UNL     1      94.685  99.382  91.329  1.00  0.00     0.011 C 
ATOM     14  C   UNL     1      91.403  99.115  90.422  1.00  0.00     0.122 C 
BRANCH   6  15
ATOM     15  C   UNL     1      94.216  96.045  91.726  1.00  0.00     0.086 C 
ATOM     16  C   UNL     1      94.506  95.001  90.627  1.00  0.00     0.140 CG0
ATOM     17  C   UNL     1      95.583  96.399  92.241  1.00  0.00    -0.010 C 
ATOM     18  C   UNL     1      95.956  94.649  90.887  1.00  0.00     0.190 C 
ATOM     19  G   UNL     1      93.583  93.787  90.726  1.00  0.00     0.000 G0
ATOM     20  C   UNL     1      96.578  95.617  91.810  1.00  0.00    -0.008 C 
ATOM     21  O   UNL     1      96.563  93.723  90.371  1.00  0.00    -0.291 OA
ATOM     22  C   UNL     1      98.011  95.617  92.167  1.00  0.00     0.048 C 
BRANCH  16  23
ATOM     23  O   UNL     1      94.518  95.537  89.315  1.00  0.00    -0.381 OA
ATOM     24  H   UNL     1      95.292  96.118  89.227  1.00  0.00     0.212 HD
ENDBRANCH  16  23
ENDBRANCH   6  15
BRANCH   7  25
ATOM     25  C   UNL     1      91.136  98.844  93.981  1.00  0.00     0.135 C 
BRANCH  25  26
ATOM     26  C   UNL     1      92.118  98.323  95.000  1.00  0.00    -0.040 A 
ATOM     27  C   UNL     1      93.084  99.175  95.536  1.00  0.00     0.004 A 
ATOM     28  C   UNL     1      92.060  96.991  95.408  1.00  0.00     0.004 A 
ATOM     29  C   UNL     1      93.993  98.694  96.479  1.00  0.00     0.000 A 
ATOM     30  C   UNL     1      92.969  96.509  96.350  1.00  0.00     0.000 A 
ATOM     31  C   UNL     1      93.935  97.361  96.886  1.00  0.00     0.000 A 
ENDBRANCH  25  26
ENDBRANCH   7  25
BRANCH  14  32
ATOM     32  C   UNL     1      90.388  99.994  89.766  1.00  0.00    -0.046 C 
ATOM     33  C   UNL     1      89.842 101.113  90.602  1.00  0.00     0.042 C 
ATOM     34  C   UNL     1      89.989  99.795  88.501  1.00  0.00     0.010 C 
ENDBRANCH  14  32
ENDBRANCH   3   4
BRANCH   2  35
ATOM     35  C   UNL     1      93.577  93.783  90.701  1.00  0.00     0.078 CG0
ATOM     36  G   UNL     1      94.509  94.992  90.638  1.00  0.00     0.000 G0
ENDBRANCH   2  35
ENDBRANCH   1   2
BRANCH   1  37
ATOM     37  O   UNL     1      91.848  92.196  92.404  1.00  0.00    -0.461 OA
BRANCH  37  38
ATOM     38  C   UNL     1      92.364  90.931  92.241  1.00  0.00     0.310 C 
ATOM     39  O   UNL     1      93.379  90.511  92.779  1.00  0.00    -0.252 OA
BRANCH  38  40
ATOM     40  C   UNL     1      91.485  90.145  91.297  1.00  0.00     0.158 C 
BRANCH  40  41
ATOM     41  C   UNL     1      92.268  89.387  90.257  1.00  0.00    -0.033 A 
ATOM     42  C   UNL     1      93.253  90.039  89.513  1.00  0.00     0.054 A 
ATOM     43  C   UNL     1      92.010  88.034  90.039  1.00  0.00     0.008 A 
ATOM     44  C   UNL     1      93.979  89.336  88.551  1.00  0.00     0.160 A 
ATOM     45  C   UNL     1      92.736  87.332  89.076  1.00  0.00     0.050 A 
ATOM     46  C   UNL     1      93.720  87.983  88.332  1.00  0.00     0.157 A 
BRANCH  44  47
ATOM     47  O   UNL     1      94.937  89.983  87.831  1.00  0.00    -0.493 OA
ATOM     48  C   UNL     1      94.492  90.960  86.891  1.00  0.00     0.278 C 
ENDBRANCH  44  47
BRANCH  46  49
ATOM     49  O   UNL     1      94.422  87.287  87.396  1.00  0.00    -0.504 OA
ATOM     50  H   UNL     1      93.949  86.463  87.192  1.00  0.00     0.293 HD
ENDBRANCH  46  49
ENDBRANCH  40  41
ENDBRANCH  38  40
ENDBRANCH  37  38
ENDBRANCH   1  37
TORSDOF 11
ENDMDL
MODEL 10
REMARK VINA RESULT:    -5.304     16.208     24.287
REMARK INTER + INTRA:         -10.508
REMARK INTER:                  -9.855
REMARK INTRA:                  -0.653
REMARK UNBOUND:                -1.174
REMARK SMILES C=C(C)[C@]12C[C@@H](C)[C@@]34O[C@](Cc5ccccc5)(O[C@@H]1[C@@H]3C=C(COC(=O)Cc1ccc(O)c(OC)c1)C[C@]1(O)C(=O)C(C)=C[C@@H]41)O2
REMARK SMILES IDX 23 1 22 2 21 3 20 4 9 5 8 6 10 7 6 8 18 9 46 10 19 11 5 12
REMARK SMILES IDX 7 13 4 14 45 15 38 16 44 17 40 18 42 20 41 21 43 22 39 23
REMARK SMILES IDX 11 25 12 26 13 27 17 28 14 29 16 30 15 31 2 32 3 33 1 34
REMARK SMILES IDX 37 35 24 37 25 38 26 39 27 40 28 41 36 42 29 43 33 44 30 45
REMARK SMILES IDX 31 46 34 47 35 48 32 49
REMARK H PARENT 39 24 32 50
REMARK Flexibility Score: 90.00
ROOT
ATOM      1  C   UNL     1      91.383  94.709  90.773  1.00  0.00     0.264 C 
ENDROOT
BRANCH   1   2
ATOM      2  C   UNL     1      91.106  96.186  90.926  1.00  0.00    -0.033 C 
ATOM      3  C   UNL     1      92.135  97.057  90.896  1.00  0.00    -0.015 C 
BRANCH   3   4
ATOM      4  C   UNL     1      92.131  98.563  91.101  1.00  0.00     0.078 C 
ATOM      5  O   UNL     1      91.882  99.594  88.866  1.00  0.00    -0.319 OA
ATOM      6  C   UNL     1      91.225  99.444  90.162  1.00  0.00     0.095 C 
ATOM      7  C   UNL     1      93.299  99.849  88.919  1.00  0.00     0.289 C 
ATOM      8  C   UNL     1      91.074 100.868  90.840  1.00  0.00     0.023 C 
ATOM      9  O   UNL     1      93.984  98.818  89.626  1.00  0.00    -0.320 OA
ATOM     10  O   UNL     1      93.605 101.058  89.609  1.00  0.00    -0.313 OA
ATOM     11  C   UNL     1      93.572  99.116  90.968  1.00  0.00     0.170 C 
ATOM     12  C   UNL     1      92.361 101.266  91.626  1.00  0.00     0.049 C 
ATOM     13  C   UNL     1      90.680 102.012  89.892  1.00  0.00     0.011 C 
ATOM     14  C   UNL     1      93.618 100.664  90.996  1.00  0.00     0.122 C 
BRANCH   6  15
ATOM     15  C   UNL     1      89.890  98.712  89.839  1.00  0.00     0.086 C 
ATOM     16  C   UNL     1      89.213  97.980  91.016  1.00  0.00     0.140 CG0
ATOM     17  C   UNL     1      88.762  99.482  89.211  1.00  0.00    -0.010 C 
ATOM     18  C   UNL     1      87.742  98.157  90.707  1.00  0.00     0.190 C 
ATOM     19  G   UNL     1      89.623  96.510  91.093  1.00  0.00     0.000 G0
ATOM     20  C   UNL     1      87.540  99.173  89.657  1.00  0.00    -0.008 C 
ATOM     21  O   UNL     1      86.825  97.583  91.275  1.00  0.00    -0.291 OA
ATOM     22  C   UNL     1      86.216  99.658  89.218  1.00  0.00     0.048 C 
BRANCH  16  23
ATOM     23  O   UNL     1      89.377  98.630  92.266  1.00  0.00    -0.381 OA
ATOM     24  H   UNL     1      89.511  97.952  92.949  1.00  0.00     0.212 HD
ENDBRANCH  16  23
ENDBRANCH   6  15
BRANCH   7  25
ATOM     25  C   UNL     1      93.821  99.930  87.499  1.00  0.00     0.135 C 
BRANCH  25  26
ATOM     26  C   UNL     1      93.727 101.329  86.941  1.00  0.00    -0.040 A 
ATOM     27  C   UNL     1      94.877 101.978  86.490  1.00  0.00     0.004 A 
ATOM     28  C   UNL     1      92.492 101.973  86.876  1.00  0.00     0.004 A 
ATOM     29  C   UNL     1      94.791 103.272  85.974  1.00  0.00     0.000 A 
ATOM     30  C   UNL     1      92.406 103.266  86.360  1.00  0.00     0.000 A 
ATOM     31  C   UNL     1      93.556 103.915  85.910  1.00  0.00     0.000 A 
ENDBRANCH  25  26
ENDBRANCH   7  25
BRANCH  14  32
ATOM     32  C   UNL     1      94.875 101.177  91.620  1.00  0.00    -0.046 C 
ATOM     33  C   UNL     1      95.528 100.279  92.628  1.00  0.00     0.042 C 
ATOM     34  C   UNL     1      95.390 102.373  91.297  1.00  0.00     0.010 C 
ENDBRANCH  14  32
ENDBRANCH   3   4
BRANCH   2  35
ATOM     35  C   UNL     1      89.631  96.501  91.092  1.00  0.00     0.078 CG0
ATOM     36  G   UNL     1      89.219  97.971  91.032  1.00  0.00     0.000 G0
ENDBRANCH   2  35
ENDBRANCH   1   2
BRANCH   1  37
ATOM     37  O   UNL     1      91.861  94.195  91.997  1.00  0.00    -0.461 OA
BRANCH  37  38
ATOM     38  C   UNL     1      91.322  92.997  92.406  1.00  0.00     0.310 C 
ATOM     39  O   UNL     1      90.130  92.789  92.590  1.00  0.00    -0.252 OA
BRANCH  38  40
ATOM     40  C   UNL     1      92.426  91.984  92.592  1.00  0.00     0.158 C 
BRANCH  40  41
ATOM     41  C   UNL     1      92.550  91.029  91.433  1.00  0.00    -0.033 A 
ATOM     42  C   UNL     1      93.281  91.396  90.302  1.00  0.00     0.054 A 
ATOM     43  C   UNL     1      91.935  89.779  91.490  1.00  0.00     0.008 A 
ATOM     44  C   UNL     1      93.396  90.513  89.229  1.00  0.00     0.160 A 
ATOM     45  C   UNL     1      92.050  88.895  90.416  1.00  0.00     0.050 A 
ATOM     46  C   UNL     1      92.779  89.262  89.286  1.00  0.00     0.157 A 
BRANCH  44  47
ATOM     47  O   UNL     1      94.111  90.883  88.130  1.00  0.00    -0.493 OA
ATOM     48  C   UNL     1      95.381  90.260  87.944  1.00  0.00     0.278 C 
ENDBRANCH  44  47
BRANCH  46  49
ATOM     49  O   UNL     1      92.885  88.391  88.244  1.00  0.00    -0.504 OA
ATOM     50  H   UNL     1      92.384  87.584  88.454  1.00  0.00     0.293 HD
ENDBRANCH  46  49
ENDBRANCH  40  41
ENDBRANCH  38  40
ENDBRANCH  37  38
ENDBRANCH   1  37
TORSDOF 11
ENDMDL
