MODEL 1
REMARK VINA RESULT:    -6.271      0.000      0.000
REMARK INTER + INTRA:         -10.707
REMARK INTER:                 -10.120
REMARK INTRA:                  -0.587
REMARK UNBOUND:                -0.587
REMARK SMILES CCCCCCCCC(=O)NCc1ccc(O)c(OC)c1
REMARK SMILES IDX 7 1 6 2 5 3 4 4 3 5 2 6 1 7 8 8 9 9 10 10 11 11 12 13 13 14
REMARK SMILES IDX 21 15 14 16 18 17 15 18 16 19 19 20 20 21 17 22
REMARK H PARENT 11 12 17 23
REMARK Flexibility Score: inf
ROOT
ATOM      1  C   UNL     1      97.008  82.004  81.655  1.00  0.00     0.010 C 
ENDROOT
BRANCH   1   2
ATOM      2  C   UNL     1      97.704  82.373  80.313  1.00  0.00     0.001 C 
BRANCH   2   3
ATOM      3  C   UNL     1      96.891  83.421  79.498  1.00  0.00     0.000 C 
BRANCH   3   4
ATOM      4  C   UNL     1      96.790  83.095  77.981  1.00  0.00    -0.000 C 
BRANCH   4   5
ATOM      5  C   UNL     1      96.357  84.323  77.130  1.00  0.00    -0.000 C 
BRANCH   5   6
ATOM      6  C   UNL     1      97.151  84.435  75.800  1.00  0.00    -0.003 C 
ATOM      7  C   UNL     1      98.535  83.753  75.867  1.00  0.00     0.004 C 
ENDBRANCH   5   6
ENDBRANCH   4   5
ENDBRANCH   3   4
ENDBRANCH   2   3
ENDBRANCH   1   2
BRANCH   1   8
ATOM      8  C   UNL     1      96.472  83.230  82.445  1.00  0.00     0.100 C 
BRANCH   8   9
ATOM      9  C   UNL     1      95.694  82.809  83.635  1.00  0.00     0.220 C 
ATOM     10  O   UNL     1      96.281  82.150  84.526  1.00  0.00    -0.275 OA
ATOM     11  N   UNL     1      94.380  83.157  83.764  1.00  0.00    -0.352 N 
ATOM     12  H   UNL     1      93.986  83.610  82.952  1.00  0.00     0.163 HD
BRANCH  11  13
ATOM     13  C   UNL     1      93.567  82.934  84.920  1.00  0.00     0.151 C 
BRANCH  13  14
ATOM     14  C   UNL     1      92.599  81.815  84.767  1.00  0.00    -0.025 A 
ATOM     15  C   UNL     1      91.235  82.084  84.503  1.00  0.00     0.056 A 
ATOM     16  C   UNL     1      93.018  80.470  84.886  1.00  0.00     0.009 A 
ATOM     17  C   UNL     1      90.307  81.030  84.338  1.00  0.00     0.160 A 
ATOM     18  C   UNL     1      92.101  79.417  84.723  1.00  0.00     0.050 A 
ATOM     19  C   UNL     1      90.745  79.692  84.456  1.00  0.00     0.157 A 
BRANCH  17  20
ATOM     20  O   UNL     1      88.977  81.294  84.123  1.00  0.00    -0.493 OA
ATOM     21  C   UNL     1      88.453  82.367  84.925  1.00  0.00     0.278 C 
ENDBRANCH  17  20
BRANCH  19  22
ATOM     22  O   UNL     1      89.862  78.670  84.327  1.00  0.00    -0.504 OA
ATOM     23  H   UNL     1      88.969  79.022  84.284  1.00  0.00     0.293 HD
ENDBRANCH  19  22
ENDBRANCH  13  14
ENDBRANCH  11  13
ENDBRANCH   8   9
ENDBRANCH   1   8
TORSDOF 11
ENDMDL
MODEL 2
REMARK VINA RESULT:    -6.045     21.911     24.502
REMARK INTER + INTRA:         -10.343
REMARK INTER:                  -9.597
REMARK INTRA:                  -0.746
REMARK UNBOUND:                -0.587
REMARK SMILES CCCCCCCCC(=O)NCc1ccc(O)c(OC)c1
REMARK SMILES IDX 7 1 6 2 5 3 4 4 3 5 2 6 1 7 8 8 9 9 10 10 11 11 12 13 13 14
REMARK SMILES IDX 21 15 14 16 18 17 15 18 16 19 19 20 20 21 17 22
REMARK H PARENT 11 12 17 23
REMARK Flexibility Score: inf
ROOT
ATOM      1  C   UNL     1      79.666  64.816  69.215  1.00  0.00     0.010 C 
ENDROOT
BRANCH   1   2
ATOM      2  C   UNL     1      78.802  63.525  69.131  1.00  0.00     0.001 C 
BRANCH   2   3
ATOM      3  C   UNL     1      77.715  63.615  68.019  1.00  0.00     0.000 C 
BRANCH   3   4
ATOM      4  C   UNL     1      76.319  64.059  68.541  1.00  0.00    -0.000 C 
BRANCH   4   5
ATOM      5  C   UNL     1      76.060  65.579  68.343  1.00  0.00    -0.000 C 
BRANCH   5   6
ATOM      6  C   UNL     1      75.960  65.977  66.846  1.00  0.00    -0.003 C 
ATOM      7  C   UNL     1      74.810  65.254  66.109  1.00  0.00     0.004 C 
ENDBRANCH   5   6
ENDBRANCH   4   5
ENDBRANCH   3   4
ENDBRANCH   2   3
ENDBRANCH   1   2
BRANCH   1   8
ATOM      8  C   UNL     1      79.476  65.617  70.534  1.00  0.00     0.100 C 
BRANCH   8   9
ATOM      9  C   UNL     1      80.515  65.267  71.532  1.00  0.00     0.220 C 
ATOM     10  O   UNL     1      80.188  65.225  72.742  1.00  0.00    -0.275 OA
ATOM     11  N   UNL     1      81.787  64.970  71.134  1.00  0.00    -0.352 N 
ATOM     12  H   UNL     1      81.963  65.119  70.151  1.00  0.00     0.163 HD
BRANCH  11  13
ATOM     13  C   UNL     1      82.835  64.485  71.979  1.00  0.00     0.151 C 
BRANCH  13  14
ATOM     14  C   UNL     1      83.358  65.500  72.932  1.00  0.00    -0.025 A 
ATOM     15  C   UNL     1      83.782  66.766  72.463  1.00  0.00     0.056 A 
ATOM     16  C   UNL     1      83.445  65.221  74.316  1.00  0.00     0.009 A 
ATOM     17  C   UNL     1      84.265  67.747  73.359  1.00  0.00     0.160 A 
ATOM     18  C   UNL     1      83.924  66.193  75.212  1.00  0.00     0.050 A 
ATOM     19  C   UNL     1      84.341  67.451  74.739  1.00  0.00     0.157 A 
BRANCH  17  20
ATOM     20  O   UNL     1      84.714  68.958  72.897  1.00  0.00    -0.493 OA
ATOM     21  C   UNL     1      86.024  68.913  72.304  1.00  0.00     0.278 C 
ENDBRANCH  17  20
BRANCH  19  22
ATOM     22  O   UNL     1      84.828  68.373  75.609  1.00  0.00    -0.504 OA
ATOM     23  H   UNL     1      84.399  68.265  76.461  1.00  0.00     0.293 HD
ENDBRANCH  19  22
ENDBRANCH  13  14
ENDBRANCH  11  13
ENDBRANCH   8   9
ENDBRANCH   1   8
TORSDOF 11
ENDMDL
MODEL 3
REMARK VINA RESULT:    -5.991      3.556      9.288
REMARK INTER + INTRA:         -10.255
REMARK INTER:                  -9.735
REMARK INTRA:                  -0.520
REMARK UNBOUND:                -0.587
REMARK SMILES CCCCCCCCC(=O)NCc1ccc(O)c(OC)c1
REMARK SMILES IDX 7 1 6 2 5 3 4 4 3 5 2 6 1 7 8 8 9 9 10 10 11 11 12 13 13 14
REMARK SMILES IDX 21 15 14 16 18 17 15 18 16 19 19 20 20 21 17 22
REMARK H PARENT 11 12 17 23
REMARK Flexibility Score: inf
ROOT
ATOM      1  C   UNL     1      95.907  82.749  82.758  1.00  0.00     0.010 C 
ENDROOT
BRANCH   1   2
ATOM      2  C   UNL     1      95.153  81.909  83.829  1.00  0.00     0.001 C 
BRANCH   2   3
ATOM      3  C   UNL     1      94.107  82.756  84.613  1.00  0.00     0.000 C 
BRANCH   3   4
ATOM      4  C   UNL     1      92.929  81.921  85.189  1.00  0.00    -0.000 C 
BRANCH   4   5
ATOM      5  C   UNL     1      91.657  81.982  84.295  1.00  0.00    -0.000 C 
BRANCH   5   6
ATOM      6  C   UNL     1      91.069  80.576  83.999  1.00  0.00    -0.003 C 
ATOM      7  C   UNL     1      89.527  80.576  83.920  1.00  0.00     0.004 C 
ENDBRANCH   5   6
ENDBRANCH   4   5
ENDBRANCH   3   4
ENDBRANCH   2   3
ENDBRANCH   1   2
BRANCH   1   8
ATOM      8  C   UNL     1      97.422  82.420  82.653  1.00  0.00     0.100 C 
BRANCH   8   9
ATOM      9  C   UNL     1      97.751  81.804  81.345  1.00  0.00     0.220 C 
ATOM     10  O   UNL     1      97.184  80.730  81.034  1.00  0.00    -0.275 OA
ATOM     11  N   UNL     1      98.628  82.412  80.493  1.00  0.00    -0.352 N 
ATOM     12  H   UNL     1      99.091  83.222  80.877  1.00  0.00     0.163 HD
BRANCH  11  13
ATOM     13  C   UNL     1      98.918  81.995  79.155  1.00  0.00     0.151 C 
BRANCH  13  14
ATOM     14  C   UNL     1      98.195  82.771  78.113  1.00  0.00    -0.025 A 
ATOM     15  C   UNL     1      98.737  82.893  76.811  1.00  0.00     0.056 A 
ATOM     16  C   UNL     1      96.962  83.401  78.401  1.00  0.00     0.009 A 
ATOM     17  C   UNL     1      98.052  83.614  75.805  1.00  0.00     0.160 A 
ATOM     18  C   UNL     1      96.275  84.118  77.405  1.00  0.00     0.050 A 
ATOM     19  C   UNL     1      96.819  84.233  76.111  1.00  0.00     0.157 A 
BRANCH  17  20
ATOM     20  O   UNL     1      98.599  83.767  74.556  1.00  0.00    -0.493 OA
ATOM     21  C   UNL     1      99.829  84.513  74.539  1.00  0.00     0.278 C 
ENDBRANCH  17  20
BRANCH  19  22
ATOM     22  O   UNL     1      96.162  84.951  75.164  1.00  0.00    -0.504 OA
ATOM     23  H   UNL     1      96.752  85.121  74.425  1.00  0.00     0.293 HD
ENDBRANCH  19  22
ENDBRANCH  13  14
ENDBRANCH  11  13
ENDBRANCH   8   9
ENDBRANCH   1   8
TORSDOF 11
ENDMDL
MODEL 4
REMARK VINA RESULT:    -5.906      1.082      2.073
REMARK INTER + INTRA:         -10.119
REMARK INTER:                  -9.462
REMARK INTRA:                  -0.657
REMARK UNBOUND:                -0.587
REMARK SMILES CCCCCCCCC(=O)NCc1ccc(O)c(OC)c1
REMARK SMILES IDX 7 1 6 2 5 3 4 4 3 5 2 6 1 7 8 8 9 9 10 10 11 11 12 13 13 14
REMARK SMILES IDX 21 15 14 16 18 17 15 18 16 19 19 20 20 21 17 22
REMARK H PARENT 11 12 17 23
REMARK Flexibility Score: inf
ROOT
ATOM      1  C   UNL     1      96.677  82.101  81.823  1.00  0.00     0.010 C 
ENDROOT
BRANCH   1   2
ATOM      2  C   UNL     1      97.874  82.202  80.835  1.00  0.00     0.001 C 
BRANCH   2   3
ATOM      3  C   UNL     1      97.783  83.464  79.926  1.00  0.00     0.000 C 
BRANCH   3   4
ATOM      4  C   UNL     1      96.602  83.424  78.916  1.00  0.00    -0.000 C 
BRANCH   4   5
ATOM      5  C   UNL     1      97.014  82.844  77.533  1.00  0.00    -0.000 C 
BRANCH   5   6
ATOM      6  C   UNL     1      97.643  83.914  76.601  1.00  0.00    -0.003 C 
ATOM      7  C   UNL     1      96.590  84.840  75.954  1.00  0.00     0.004 C 
ENDBRANCH   5   6
ENDBRANCH   4   5
ENDBRANCH   3   4
ENDBRANCH   2   3
ENDBRANCH   1   2
BRANCH   1   8
ATOM      8  C   UNL     1      96.315  83.446  82.513  1.00  0.00     0.100 C 
BRANCH   8   9
ATOM      9  C   UNL     1      95.516  83.223  83.743  1.00  0.00     0.220 C 
ATOM     10  O   UNL     1      95.234  84.215  84.457  1.00  0.00    -0.275 OA
ATOM     11  N   UNL     1      95.078  81.972  84.069  1.00  0.00    -0.352 N 
ATOM     12  H   UNL     1      95.434  81.237  83.476  1.00  0.00     0.163 HD
BRANCH  11  13
ATOM     13  C   UNL     1      94.189  81.651  85.143  1.00  0.00     0.151 C 
BRANCH  13  14
ATOM     14  C   UNL     1      92.798  81.356  84.705  1.00  0.00    -0.025 A 
ATOM     15  C   UNL     1      92.426  80.035  84.359  1.00  0.00     0.056 A 
ATOM     16  C   UNL     1      91.829  82.382  84.623  1.00  0.00     0.009 A 
ATOM     17  C   UNL     1      91.103  79.737  83.958  1.00  0.00     0.160 A 
ATOM     18  C   UNL     1      90.512  82.092  84.226  1.00  0.00     0.050 A 
ATOM     19  C   UNL     1      90.147  80.775  83.885  1.00  0.00     0.157 A 
BRANCH  17  20
ATOM     20  O   UNL     1      90.755  78.464  83.582  1.00  0.00    -0.493 OA
ATOM     21  C   UNL     1      90.519  77.569  84.683  1.00  0.00     0.278 C 
ENDBRANCH  17  20
BRANCH  19  22
ATOM     22  O   UNL     1      88.880  80.509  83.476  1.00  0.00    -0.504 OA
ATOM     23  H   UNL     1      88.258  80.972  84.042  1.00  0.00     0.293 HD
ENDBRANCH  19  22
ENDBRANCH  13  14
ENDBRANCH  11  13
ENDBRANCH   8   9
ENDBRANCH   1   8
TORSDOF 11
ENDMDL
MODEL 5
REMARK VINA RESULT:    -5.763      2.818      8.709
REMARK INTER + INTRA:          -9.888
REMARK INTER:                  -9.403
REMARK INTRA:                  -0.485
REMARK UNBOUND:                -0.587
REMARK SMILES CCCCCCCCC(=O)NCc1ccc(O)c(OC)c1
REMARK SMILES IDX 7 1 6 2 5 3 4 4 3 5 2 6 1 7 8 8 9 9 10 10 11 11 12 13 13 14
REMARK SMILES IDX 21 15 14 16 18 17 15 18 16 19 19 20 20 21 17 22
REMARK H PARENT 11 12 17 23
REMARK Flexibility Score: inf
ROOT
ATOM      1  C   UNL     1      92.892  80.666  84.374  1.00  0.00     0.010 C 
ENDROOT
BRANCH   1   2
ATOM      2  C   UNL     1      92.346  79.226  84.593  1.00  0.00     0.001 C 
BRANCH   2   3
ATOM      3  C   UNL     1      90.981  78.999  83.879  1.00  0.00     0.000 C 
BRANCH   3   4
ATOM      4  C   UNL     1      90.065  77.964  84.592  1.00  0.00    -0.000 C 
BRANCH   4   5
ATOM      5  C   UNL     1      88.569  78.112  84.193  1.00  0.00    -0.000 C 
BRANCH   5   6
ATOM      6  C   UNL     1      88.057  79.571  84.332  1.00  0.00    -0.003 C 
ATOM      7  C   UNL     1      87.336  80.077  83.063  1.00  0.00     0.004 C 
ENDBRANCH   5   6
ENDBRANCH   4   5
ENDBRANCH   3   4
ENDBRANCH   2   3
ENDBRANCH   1   2
BRANCH   1   8
ATOM      8  C   UNL     1      94.402  80.824  84.708  1.00  0.00     0.100 C 
BRANCH   8   9
ATOM      9  C   UNL     1      95.009  81.942  83.945  1.00  0.00     0.220 C 
ATOM     10  O   UNL     1      94.609  83.108  84.178  1.00  0.00    -0.275 OA
ATOM     11  N   UNL     1      95.999  81.704  83.035  1.00  0.00    -0.352 N 
ATOM     12  H   UNL     1      96.183  80.726  82.864  1.00  0.00     0.163 HD
BRANCH  11  13
ATOM     13  C   UNL     1      96.757  82.702  82.344  1.00  0.00     0.151 C 
BRANCH  13  14
ATOM     14  C   UNL     1      97.136  82.316  80.959  1.00  0.00    -0.025 A 
ATOM     15  C   UNL     1      97.241  83.303  79.949  1.00  0.00     0.056 A 
ATOM     16  C   UNL     1      97.394  80.967  80.624  1.00  0.00     0.009 A 
ATOM     17  C   UNL     1      97.618  82.954  78.631  1.00  0.00     0.160 A 
ATOM     18  C   UNL     1      97.770  80.614  79.316  1.00  0.00     0.050 A 
ATOM     19  C   UNL     1      97.875  81.600  78.317  1.00  0.00     0.157 A 
BRANCH  17  20
ATOM     20  O   UNL     1      97.678  83.905  77.644  1.00  0.00    -0.493 OA
ATOM     21  C   UNL     1      96.424  84.148  76.983  1.00  0.00     0.278 C 
ENDBRANCH  17  20
BRANCH  19  22
ATOM     22  O   UNL     1      98.212  81.246  77.050  1.00  0.00    -0.504 OA
ATOM     23  H   UNL     1      97.571  80.615  76.713  1.00  0.00     0.293 HD
ENDBRANCH  19  22
ENDBRANCH  13  14
ENDBRANCH  11  13
ENDBRANCH   8   9
ENDBRANCH   1   8
TORSDOF 11
ENDMDL
MODEL 6
REMARK VINA RESULT:    -5.708     15.627     18.292
REMARK INTER + INTRA:          -9.798
REMARK INTER:                  -9.014
REMARK INTRA:                  -0.784
REMARK UNBOUND:                -0.587
REMARK SMILES CCCCCCCCC(=O)NCc1ccc(O)c(OC)c1
REMARK SMILES IDX 7 1 6 2 5 3 4 4 3 5 2 6 1 7 8 8 9 9 10 10 11 11 12 13 13 14
REMARK SMILES IDX 21 15 14 16 18 17 15 18 16 19 19 20 20 21 17 22
REMARK H PARENT 11 12 17 23
REMARK Flexibility Score: inf
ROOT
ATOM      1  C   UNL     1      93.488 100.091  71.836  1.00  0.00     0.010 C 
ENDROOT
BRANCH   1   2
ATOM      2  C   UNL     1      92.079 100.701  71.583  1.00  0.00     0.001 C 
BRANCH   2   3
ATOM      3  C   UNL     1      91.197  99.791  70.679  1.00  0.00     0.000 C 
BRANCH   3   4
ATOM      4  C   UNL     1      89.681 100.134  70.734  1.00  0.00    -0.000 C 
BRANCH   4   5
ATOM      5  C   UNL     1      89.225 101.032  69.549  1.00  0.00    -0.000 C 
BRANCH   5   6
ATOM      6  C   UNL     1      89.319 102.546  69.879  1.00  0.00    -0.003 C 
ATOM      7  C   UNL     1      88.812 102.884  71.298  1.00  0.00     0.004 C 
ENDBRANCH   5   6
ENDBRANCH   4   5
ENDBRANCH   3   4
ENDBRANCH   2   3
ENDBRANCH   1   2
BRANCH   1   8
ATOM      8  C   UNL     1      93.482  98.547  72.016  1.00  0.00     0.100 C 
BRANCH   8   9
ATOM      9  C   UNL     1      94.003  98.157  73.349  1.00  0.00     0.220 C 
ATOM     10  O   UNL     1      94.515  99.046  74.071  1.00  0.00    -0.275 OA
ATOM     11  N   UNL     1      93.898  96.867  73.785  1.00  0.00    -0.352 N 
ATOM     12  H   UNL     1      93.550  96.220  73.093  1.00  0.00     0.163 HD
BRANCH  11  13
ATOM     13  C   UNL     1      94.231  96.398  75.095  1.00  0.00     0.151 C 
BRANCH  13  14
ATOM     14  C   UNL     1      93.097  95.754  75.810  1.00  0.00    -0.025 A 
ATOM     15  C   UNL     1      91.926  95.388  75.104  1.00  0.00     0.056 A 
ATOM     16  C   UNL     1      93.163  95.500  77.199  1.00  0.00     0.009 A 
ATOM     17  C   UNL     1      90.846  94.760  75.766  1.00  0.00     0.160 A 
ATOM     18  C   UNL     1      92.094  94.875  77.864  1.00  0.00     0.050 A 
ATOM     19  C   UNL     1      90.933  94.510  77.155  1.00  0.00     0.157 A 
BRANCH  17  20
ATOM     20  O   UNL     1      89.696  94.444  75.089  1.00  0.00    -0.493 OA
ATOM     21  C   UNL     1      89.879  93.487  74.030  1.00  0.00     0.278 C 
ENDBRANCH  17  20
BRANCH  19  22
ATOM     22  O   UNL     1      89.894  93.932  77.811  1.00  0.00    -0.504 OA
ATOM     23  H   UNL     1      89.619  93.141  77.340  1.00  0.00     0.293 HD
ENDBRANCH  19  22
ENDBRANCH  13  14
ENDBRANCH  11  13
ENDBRANCH   8   9
ENDBRANCH   1   8
TORSDOF 11
ENDMDL
MODEL 7
REMARK VINA RESULT:    -5.678      5.925     11.769
REMARK INTER + INTRA:          -9.751
REMARK INTER:                  -9.230
REMARK INTRA:                  -0.521
REMARK UNBOUND:                -0.587
REMARK SMILES CCCCCCCCC(=O)NCc1ccc(O)c(OC)c1
REMARK SMILES IDX 7 1 6 2 5 3 4 4 3 5 2 6 1 7 8 8 9 9 10 10 11 11 12 13 13 14
REMARK SMILES IDX 21 15 14 16 18 17 15 18 16 19 19 20 20 21 17 22
REMARK H PARENT 11 12 17 23
REMARK Flexibility Score: inf
ROOT
ATOM      1  C   UNL     1      97.935  83.133  78.074  1.00  0.00     0.010 C 
ENDROOT
BRANCH   1   2
ATOM      2  C   UNL     1      97.902  82.268  79.367  1.00  0.00     0.001 C 
BRANCH   2   3
ATOM      3  C   UNL     1      97.104  82.954  80.515  1.00  0.00     0.000 C 
BRANCH   3   4
ATOM      4  C   UNL     1      97.062  82.127  81.831  1.00  0.00    -0.000 C 
BRANCH   4   5
ATOM      5  C   UNL     1      96.134  82.759  82.907  1.00  0.00    -0.000 C 
BRANCH   5   6
ATOM      6  C   UNL     1      95.986  84.295  82.740  1.00  0.00    -0.003 C 
ATOM      7  C   UNL     1      96.094  85.058  84.078  1.00  0.00     0.004 C 
ENDBRANCH   5   6
ENDBRANCH   4   5
ENDBRANCH   3   4
ENDBRANCH   2   3
ENDBRANCH   1   2
BRANCH   1   8
ATOM      8  C   UNL     1      96.546  83.693  77.656  1.00  0.00     0.100 C 
BRANCH   8   9
ATOM      9  C   UNL     1      96.630  84.448  76.383  1.00  0.00     0.220 C 
ATOM     10  O   UNL     1      96.050  85.558  76.310  1.00  0.00    -0.275 OA
ATOM     11  N   UNL     1      97.347  83.956  75.330  1.00  0.00    -0.352 N 
ATOM     12  H   UNL     1      97.700  83.020  75.466  1.00  0.00     0.163 HD
BRANCH  11  13
ATOM     13  C   UNL     1      97.620  84.648  74.108  1.00  0.00     0.151 C 
BRANCH  13  14
ATOM     14  C   UNL     1      98.398  83.849  73.125  1.00  0.00    -0.025 A 
ATOM     15  C   UNL     1      99.594  84.367  72.572  1.00  0.00     0.056 A 
ATOM     16  C   UNL     1      97.961  82.566  72.722  1.00  0.00     0.009 A 
ATOM     17  C   UNL     1     100.354  83.612  71.650  1.00  0.00     0.160 A 
ATOM     18  C   UNL     1      98.713  81.809  71.805  1.00  0.00     0.050 A 
ATOM     19  C   UNL     1      99.903  82.330  71.262  1.00  0.00     0.157 A 
BRANCH  17  20
ATOM     20  O   UNL     1     101.490  84.133  71.084  1.00  0.00    -0.493 OA
ATOM     21  C   UNL     1     101.749  85.504  71.438  1.00  0.00     0.278 C 
ENDBRANCH  17  20
BRANCH  19  22
ATOM     22  O   UNL     1     100.607  81.603  70.357  1.00  0.00    -0.504 OA
ATOM     23  H   UNL     1     101.509  81.493  70.668  1.00  0.00     0.293 HD
ENDBRANCH  19  22
ENDBRANCH  13  14
ENDBRANCH  11  13
ENDBRANCH   8   9
ENDBRANCH   1   8
TORSDOF 11
ENDMDL
MODEL 8
REMARK VINA RESULT:    -5.624     22.000     23.632
REMARK INTER + INTRA:          -9.664
REMARK INTER:                  -8.967
REMARK INTRA:                  -0.697
REMARK UNBOUND:                -0.587
REMARK SMILES CCCCCCCCC(=O)NCc1ccc(O)c(OC)c1
REMARK SMILES IDX 7 1 6 2 5 3 4 4 3 5 2 6 1 7 8 8 9 9 10 10 11 11 12 13 13 14
REMARK SMILES IDX 21 15 14 16 18 17 15 18 16 19 19 20 20 21 17 22
REMARK H PARENT 11 12 17 23
REMARK Flexibility Score: inf
ROOT
ATOM      1  C   UNL     1      73.846  89.442  70.101  1.00  0.00     0.010 C 
ENDROOT
BRANCH   1   2
ATOM      2  C   UNL     1      74.714  88.386  69.359  1.00  0.00     0.001 C 
BRANCH   2   3
ATOM      3  C   UNL     1      75.592  89.024  68.243  1.00  0.00     0.000 C 
BRANCH   3   4
ATOM      4  C   UNL     1      77.086  88.597  68.300  1.00  0.00    -0.000 C 
BRANCH   4   5
ATOM      5  C   UNL     1      77.350  87.240  67.588  1.00  0.00    -0.000 C 
BRANCH   5   6
ATOM      6  C   UNL     1      77.484  86.059  68.587  1.00  0.00    -0.003 C 
ATOM      7  C   UNL     1      76.274  85.099  68.547  1.00  0.00     0.004 C 
ENDBRANCH   5   6
ENDBRANCH   4   5
ENDBRANCH   3   4
ENDBRANCH   2   3
ENDBRANCH   1   2
BRANCH   1   8
ATOM      8  C   UNL     1      74.590  90.775  70.396  1.00  0.00     0.100 C 
BRANCH   8   9
ATOM      9  C   UNL     1      74.025  91.458  71.585  1.00  0.00     0.220 C 
ATOM     10  O   UNL     1      73.110  90.883  72.222  1.00  0.00    -0.275 OA
ATOM     11  N   UNL     1      74.513  92.668  71.987  1.00  0.00    -0.352 N 
ATOM     12  H   UNL     1      75.184  93.078  71.354  1.00  0.00     0.163 HD
BRANCH  11  13
ATOM     13  C   UNL     1      74.152  93.357  73.188  1.00  0.00     0.151 C 
BRANCH  13  14
ATOM     14  C   UNL     1      75.315  93.750  74.028  1.00  0.00    -0.025 A 
ATOM     15  C   UNL     1      76.521  94.175  73.421  1.00  0.00     0.056 A 
ATOM     16  C   UNL     1      75.240  93.703  75.439  1.00  0.00     0.009 A 
ATOM     17  C   UNL     1      77.629  94.568  74.207  1.00  0.00     0.160 A 
ATOM     18  C   UNL     1      76.338  94.094  76.226  1.00  0.00     0.050 A 
ATOM     19  C   UNL     1      77.534  94.519  75.616  1.00  0.00     0.157 A 
BRANCH  17  20
ATOM     20  O   UNL     1      78.810  94.940  73.617  1.00  0.00    -0.493 OA
ATOM     21  C   UNL     1      78.774  96.233  72.989  1.00  0.00     0.278 C 
ENDBRANCH  17  20
BRANCH  19  22
ATOM     22  O   UNL     1      78.598  94.867  76.384  1.00  0.00    -0.504 OA
ATOM     23  H   UNL     1      78.299  95.056  77.277  1.00  0.00     0.293 HD
ENDBRANCH  19  22
ENDBRANCH  13  14
ENDBRANCH  11  13
ENDBRANCH   8   9
ENDBRANCH   1   8
TORSDOF 11
ENDMDL
MODEL 9
REMARK VINA RESULT:    -5.508      1.639      2.248
REMARK INTER + INTRA:          -9.475
REMARK INTER:                  -8.860
REMARK INTRA:                  -0.616
REMARK UNBOUND:                -0.587
REMARK SMILES CCCCCCCCC(=O)NCc1ccc(O)c(OC)c1
REMARK SMILES IDX 7 1 6 2 5 3 4 4 3 5 2 6 1 7 8 8 9 9 10 10 11 11 12 13 13 14
REMARK SMILES IDX 21 15 14 16 18 17 15 18 16 19 19 20 20 21 17 22
REMARK H PARENT 11 12 17 23
REMARK Flexibility Score: inf
ROOT
ATOM      1  C   UNL     1      97.733  82.826  80.812  1.00  0.00     0.010 C 
ENDROOT
BRANCH   1   2
ATOM      2  C   UNL     1      97.149  83.221  79.425  1.00  0.00     0.001 C 
BRANCH   2   3
ATOM      3  C   UNL     1      97.830  82.448  78.257  1.00  0.00     0.000 C 
BRANCH   3   4
ATOM      4  C   UNL     1      97.340  82.882  76.847  1.00  0.00    -0.000 C 
BRANCH   4   5
ATOM      5  C   UNL     1      96.620  84.261  76.860  1.00  0.00    -0.000 C 
BRANCH   5   6
ATOM      6  C   UNL     1      96.602  84.937  75.463  1.00  0.00    -0.003 C 
ATOM      7  C   UNL     1      97.655  84.350  74.498  1.00  0.00     0.004 C 
ENDBRANCH   5   6
ENDBRANCH   4   5
ENDBRANCH   3   4
ENDBRANCH   2   3
ENDBRANCH   1   2
BRANCH   1   8
ATOM      8  C   UNL     1      96.852  81.818  81.602  1.00  0.00     0.100 C 
BRANCH   8   9
ATOM      9  C   UNL     1      96.515  82.336  82.949  1.00  0.00     0.220 C 
ATOM     10  O   UNL     1      97.317  82.119  83.888  1.00  0.00    -0.275 OA
ATOM     11  N   UNL     1      95.372  83.056  83.150  1.00  0.00    -0.352 N 
ATOM     12  H   UNL     1      94.758  83.096  82.350  1.00  0.00     0.163 HD
BRANCH  11  13
ATOM     13  C   UNL     1      95.007  83.725  84.361  1.00  0.00     0.151 C 
BRANCH  13  14
ATOM     14  C   UNL     1      94.170  82.901  85.274  1.00  0.00    -0.025 A 
ATOM     15  C   UNL     1      92.903  82.432  84.851  1.00  0.00     0.056 A 
ATOM     16  C   UNL     1      94.618  82.576  86.575  1.00  0.00     0.009 A 
ATOM     17  C   UNL     1      92.104  81.634  85.701  1.00  0.00     0.160 A 
ATOM     18  C   UNL     1      93.828  81.782  87.426  1.00  0.00     0.050 A 
ATOM     19  C   UNL     1      92.570  81.316  86.997  1.00  0.00     0.157 A 
BRANCH  17  20
ATOM     20  O   UNL     1      90.859  81.216  85.304  1.00  0.00    -0.493 OA
ATOM     21  C   UNL     1      90.746  80.959  83.894  1.00  0.00     0.278 C 
ENDBRANCH  17  20
BRANCH  19  22
ATOM     22  O   UNL     1      91.803  80.573  87.835  1.00  0.00    -0.504 OA
ATOM     23  H   UNL     1      91.142  80.097  87.327  1.00  0.00     0.293 HD
ENDBRANCH  19  22
ENDBRANCH  13  14
ENDBRANCH  11  13
ENDBRANCH   8   9
ENDBRANCH   1   8
TORSDOF 11
ENDMDL
MODEL 10
REMARK VINA RESULT:    -5.489     13.024     15.751
REMARK INTER + INTRA:          -9.445
REMARK INTER:                  -8.681
REMARK INTRA:                  -0.764
REMARK UNBOUND:                -0.587
REMARK SMILES CCCCCCCCC(=O)NCc1ccc(O)c(OC)c1
REMARK SMILES IDX 7 1 6 2 5 3 4 4 3 5 2 6 1 7 8 8 9 9 10 10 11 11 12 13 13 14
REMARK SMILES IDX 21 15 14 16 18 17 15 18 16 19 19 20 20 21 17 22
REMARK H PARENT 11 12 17 23
REMARK Flexibility Score: inf
ROOT
ATOM      1  C   UNL     1      94.766  95.830  78.244  1.00  0.00     0.010 C 
ENDROOT
BRANCH   1   2
ATOM      2  C   UNL     1      94.481  95.820  76.715  1.00  0.00     0.001 C 
BRANCH   2   3
ATOM      3  C   UNL     1      93.212  96.643  76.346  1.00  0.00     0.000 C 
BRANCH   3   4
ATOM      4  C   UNL     1      91.941  96.224  77.137  1.00  0.00    -0.000 C 
BRANCH   4   5
ATOM      5  C   UNL     1      91.233  94.983  76.522  1.00  0.00    -0.000 C 
BRANCH   5   6
ATOM      6  C   UNL     1      90.601  94.062  77.599  1.00  0.00    -0.003 C 
ATOM      7  C   UNL     1      89.954  92.794  77.000  1.00  0.00     0.004 C 
ENDBRANCH   5   6
ENDBRANCH   4   5
ENDBRANCH   3   4
ENDBRANCH   2   3
ENDBRANCH   1   2
BRANCH   1   8
ATOM      8  C   UNL     1      94.506  94.465  78.942  1.00  0.00     0.100 C 
BRANCH   8   9
ATOM      9  C   UNL     1      94.909  94.502  80.368  1.00  0.00     0.220 C 
ATOM     10  O   UNL     1      94.268  93.801  81.186  1.00  0.00    -0.275 OA
ATOM     11  N   UNL     1      95.972  95.260  80.769  1.00  0.00    -0.352 N 
ATOM     12  H   UNL     1      96.360  95.850  80.048  1.00  0.00     0.163 HD
BRANCH  11  13
ATOM     13  C   UNL     1      96.543  95.271  82.081  1.00  0.00     0.151 C 
BRANCH  13  14
ATOM     14  C   UNL     1      97.884  95.910  82.148  1.00  0.00    -0.025 A 
ATOM     15  C   UNL     1      98.484  96.431  80.977  1.00  0.00     0.056 A 
ATOM     16  C   UNL     1      98.583  96.006  83.373  1.00  0.00     0.009 A 
ATOM     17  C   UNL     1      99.751  97.057  81.028  1.00  0.00     0.160 A 
ATOM     18  C   UNL     1      99.843  96.629  83.431  1.00  0.00     0.050 A 
ATOM     19  C   UNL     1     100.433  97.147  82.262  1.00  0.00     0.157 A 
BRANCH  17  20
ATOM     20  O   UNL     1     100.349  97.523  79.884  1.00  0.00    -0.493 OA
ATOM     21  C   UNL     1      99.606  97.260  78.681  1.00  0.00     0.278 C 
ENDBRANCH  17  20
BRANCH  19  22
ATOM     22  O   UNL     1     101.661  97.721  82.323  1.00  0.00    -0.504 OA
ATOM     23  H   UNL     1     101.692  98.334  83.062  1.00  0.00     0.293 HD
ENDBRANCH  19  22
ENDBRANCH  13  14
ENDBRANCH  11  13
ENDBRANCH   8   9
ENDBRANCH   1   8
TORSDOF 11
ENDMDL
