MODEL 1
REMARK VINA RESULT:    -6.249      0.000      0.000
REMARK INTER + INTRA:         -10.725
REMARK INTER:                  -9.719
REMARK INTRA:                  -1.006
REMARK UNBOUND:                -1.006
REMARK SMILES COc1cc(CNC(=O)CCCCCC(C)C)ccc1O
REMARK SMILES IDX 10 1 8 2 7 3 9 5 6 6 5 7 3 8 20 9 4 10 19 11 18 12 2 13 1 14
REMARK SMILES IDX 21 15 11 17 12 18 13 19 14 20 15 21 16 22 17 23
REMARK H PARENT 7 4 21 16
REMARK Flexibility Score: inf
ROOT
ATOM      1  C   UNL     1      95.327  96.555  74.492  1.00  0.00     0.100 C 
ENDROOT
BRANCH   1   2
ATOM      2  C   UNL     1      96.413  96.693  75.485  1.00  0.00     0.220 C 
ATOM      3  N   UNL     1      96.185  96.335  76.780  1.00  0.00    -0.352 N 
ATOM      4  H   UNL     1      95.223  96.119  76.998  1.00  0.00     0.163 HD
ATOM      5  O   UNL     1      97.539  97.098  75.104  1.00  0.00    -0.275 OA
BRANCH   3   6
ATOM      6  C   UNL     1      97.183  96.253  77.798  1.00  0.00     0.151 C 
BRANCH   6   7
ATOM      7  C   UNL     1      96.844  95.281  78.872  1.00  0.00    -0.025 A 
ATOM      8  C   UNL     1      97.482  94.014  80.881  1.00  0.00     0.160 A 
ATOM      9  C   UNL     1      96.177  93.482  80.956  1.00  0.00     0.157 A 
ATOM     10  C   UNL     1      97.812  94.896  79.829  1.00  0.00     0.056 A 
ATOM     11  C   UNL     1      95.214  93.838  79.994  1.00  0.00     0.050 A 
ATOM     12  C   UNL     1      95.542  94.734  78.963  1.00  0.00     0.009 A 
BRANCH   8  13
ATOM     13  O   UNL     1      98.440  93.665  81.796  1.00  0.00    -0.493 OA
ATOM     14  C   UNL     1      99.033  94.789  82.475  1.00  0.00     0.278 C 
ENDBRANCH   8  13
BRANCH   9  15
ATOM     15  O   UNL     1      95.850  92.632  81.962  1.00  0.00    -0.504 OA
ATOM     16  H   UNL     1      96.388  91.840  81.900  1.00  0.00     0.293 HD
ENDBRANCH   9  15
ENDBRANCH   6   7
ENDBRANCH   3   6
ENDBRANCH   1   2
BRANCH   1  17
ATOM     17  C   UNL     1      94.001  95.992  75.070  1.00  0.00     0.010 C 
BRANCH  17  18
ATOM     18  C   UNL     1      93.971  94.439  75.027  1.00  0.00     0.001 C 
BRANCH  18  19
ATOM     19  C   UNL     1      93.249  93.803  76.244  1.00  0.00     0.000 C 
BRANCH  19  20
ATOM     20  C   UNL     1      91.983  93.001  75.823  1.00  0.00     0.003 C 
BRANCH  20  21
ATOM     21  C   UNL     1      90.671  93.396  76.575  1.00  0.00    -0.017 C 
ATOM     22  C   UNL     1      90.597  94.937  76.792  1.00  0.00     0.007 C 
ATOM     23  C   UNL     1      90.508  92.657  77.935  1.00  0.00     0.007 C 
ENDBRANCH  20  21
ENDBRANCH  19  20
ENDBRANCH  18  19
ENDBRANCH  17  18
ENDBRANCH   1  17
TORSDOF 10
ENDMDL
MODEL 2
REMARK VINA RESULT:    -5.899      6.656     10.700
REMARK INTER + INTRA:         -10.182
REMARK INTER:                  -9.477
REMARK INTRA:                  -0.705
REMARK UNBOUND:                -1.006
REMARK SMILES COc1cc(CNC(=O)CCCCCC(C)C)ccc1O
REMARK SMILES IDX 10 1 8 2 7 3 9 5 6 6 5 7 3 8 20 9 4 10 19 11 18 12 2 13 1 14
REMARK SMILES IDX 21 15 11 17 12 18 13 19 14 20 15 21 16 22 17 23
REMARK H PARENT 7 4 21 16
REMARK Flexibility Score: inf
ROOT
ATOM      1  C   UNL     1      93.603  98.466  73.813  1.00  0.00     0.100 C 
ENDROOT
BRANCH   1   2
ATOM      2  C   UNL     1      93.460  99.351  72.638  1.00  0.00     0.220 C 
ATOM      3  N   UNL     1      92.283  99.366  71.951  1.00  0.00    -0.352 N 
ATOM      4  H   UNL     1      91.621  98.655  72.227  1.00  0.00     0.163 HD
ATOM      5  O   UNL     1      94.414 100.103  72.322  1.00  0.00    -0.275 OA
BRANCH   3   6
ATOM      6  C   UNL     1      91.949 100.289  70.914  1.00  0.00     0.151 C 
BRANCH   6   7
ATOM      7  C   UNL     1      91.079  99.695  69.862  1.00  0.00    -0.025 A 
ATOM      8  C   UNL     1      90.285  99.634  67.536  1.00  0.00     0.160 A 
ATOM      9  C   UNL     1      89.473  98.523  67.844  1.00  0.00     0.157 A 
ATOM     10  C   UNL     1      91.069 100.225  68.550  1.00  0.00     0.056 A 
ATOM     11  C   UNL     1      89.456  98.004  69.152  1.00  0.00     0.050 A 
ATOM     12  C   UNL     1      90.256  98.582  70.152  1.00  0.00     0.009 A 
BRANCH   8  13
ATOM     13  O   UNL     1      90.302 100.167  66.273  1.00  0.00    -0.493 OA
ATOM     14  C   UNL     1      90.954 101.449  66.191  1.00  0.00     0.278 C 
ENDBRANCH   8  13
BRANCH   9  15
ATOM     15  O   UNL     1      88.714  97.949  66.877  1.00  0.00    -0.504 OA
ATOM     16  H   UNL     1      89.173  97.184  66.523  1.00  0.00     0.293 HD
ENDBRANCH   9  15
ENDBRANCH   6   7
ENDBRANCH   3   6
ENDBRANCH   1   2
BRANCH   1  17
ATOM     17  C   UNL     1      94.653  97.336  73.637  1.00  0.00     0.010 C 
BRANCH  17  18
ATOM     18  C   UNL     1      94.998  96.660  74.993  1.00  0.00     0.001 C 
BRANCH  18  19
ATOM     19  C   UNL     1      94.499  95.194  75.095  1.00  0.00     0.000 C 
BRANCH  19  20
ATOM     20  C   UNL     1      92.992  95.111  75.472  1.00  0.00     0.003 C 
BRANCH  20  21
ATOM     21  C   UNL     1      92.666  95.441  76.965  1.00  0.00    -0.017 C 
ATOM     22  C   UNL     1      92.310  94.147  77.756  1.00  0.00     0.007 C 
ATOM     23  C   UNL     1      91.526  96.490  77.118  1.00  0.00     0.007 C 
ENDBRANCH  20  21
ENDBRANCH  19  20
ENDBRANCH  18  19
ENDBRANCH  17  18
ENDBRANCH   1  17
TORSDOF 10
ENDMDL
MODEL 3
REMARK VINA RESULT:    -5.590     12.273     13.938
REMARK INTER + INTRA:          -9.700
REMARK INTER:                  -8.865
REMARK INTRA:                  -0.835
REMARK UNBOUND:                -1.006
REMARK SMILES COc1cc(CNC(=O)CCCCCC(C)C)ccc1O
REMARK SMILES IDX 10 1 8 2 7 3 9 5 6 6 5 7 3 8 20 9 4 10 19 11 18 12 2 13 1 14
REMARK SMILES IDX 21 15 11 17 12 18 13 19 14 20 15 21 16 22 17 23
REMARK H PARENT 7 4 21 16
REMARK Flexibility Score: inf
ROOT
ATOM      1  C   UNL     1      98.332  80.696  78.285  1.00  0.00     0.100 C 
ENDROOT
BRANCH   1   2
ATOM      2  C   UNL     1      98.263  80.398  79.730  1.00  0.00     0.220 C 
ATOM      3  N   UNL     1      97.063  80.474  80.373  1.00  0.00    -0.352 N 
ATOM      4  H   UNL     1      96.311  80.866  79.824  1.00  0.00     0.163 HD
ATOM      5  O   UNL     1      99.306  80.040  80.329  1.00  0.00    -0.275 OA
BRANCH   3   6
ATOM      6  C   UNL     1      96.821  80.050  81.714  1.00  0.00     0.151 C 
BRANCH   6   7
ATOM      7  C   UNL     1      96.480  81.173  82.630  1.00  0.00    -0.025 A 
ATOM      8  C   UNL     1      96.065  82.022  84.900  1.00  0.00     0.160 A 
ATOM      9  C   UNL     1      95.898  83.323  84.380  1.00  0.00     0.157 A 
ATOM     10  C   UNL     1      96.337  80.952  84.020  1.00  0.00     0.056 A 
ATOM     11  C   UNL     1      96.012  83.549  82.996  1.00  0.00     0.050 A 
ATOM     12  C   UNL     1      96.306  82.484  82.128  1.00  0.00     0.009 A 
BRANCH   8  13
ATOM     13  O   UNL     1      95.939  81.778  86.242  1.00  0.00    -0.493 OA
ATOM     14  C   UNL     1      94.698  81.141  86.603  1.00  0.00     0.278 C 
ENDBRANCH   8  13
BRANCH   9  15
ATOM     15  O   UNL     1      95.634  84.358  85.217  1.00  0.00    -0.504 OA
ATOM     16  H   UNL     1      96.270  84.358  85.935  1.00  0.00     0.293 HD
ENDBRANCH   9  15
ENDBRANCH   6   7
ENDBRANCH   3   6
ENDBRANCH   1   2
BRANCH   1  17
ATOM     17  C   UNL     1      97.702  82.056  77.882  1.00  0.00     0.010 C 
BRANCH  17  18
ATOM     18  C   UNL     1      96.478  81.865  76.944  1.00  0.00     0.001 C 
BRANCH  18  19
ATOM     19  C   UNL     1      96.024  83.176  76.249  1.00  0.00     0.000 C 
BRANCH  19  20
ATOM     20  C   UNL     1      96.201  83.115  74.704  1.00  0.00     0.003 C 
BRANCH  20  21
ATOM     21  C   UNL     1      97.436  82.290  74.213  1.00  0.00    -0.017 C 
ATOM     22  C   UNL     1      98.469  83.209  73.497  1.00  0.00     0.007 C 
ATOM     23  C   UNL     1      97.040  81.106  73.283  1.00  0.00     0.007 C 
ENDBRANCH  20  21
ENDBRANCH  19  20
ENDBRANCH  18  19
ENDBRANCH  17  18
ENDBRANCH   1  17
TORSDOF 10
ENDMDL
MODEL 4
REMARK VINA RESULT:    -5.582     13.851     16.631
REMARK INTER + INTRA:          -9.688
REMARK INTER:                  -9.126
REMARK INTRA:                  -0.562
REMARK UNBOUND:                -1.006
REMARK SMILES COc1cc(CNC(=O)CCCCCC(C)C)ccc1O
REMARK SMILES IDX 10 1 8 2 7 3 9 5 6 6 5 7 3 8 20 9 4 10 19 11 18 12 2 13 1 14
REMARK SMILES IDX 21 15 11 17 12 18 13 19 14 20 15 21 16 22 17 23
REMARK H PARENT 7 4 21 16
REMARK Flexibility Score: inf
ROOT
ATOM      1  C   UNL     1      95.270  81.326  83.615  1.00  0.00     0.100 C 
ENDROOT
BRANCH   1   2
ATOM      2  C   UNL     1      94.311  81.290  84.739  1.00  0.00     0.220 C 
ATOM      3  N   UNL     1      93.029  81.708  84.538  1.00  0.00    -0.352 N 
ATOM      4  H   UNL     1      92.860  82.147  83.644  1.00  0.00     0.163 HD
ATOM      5  O   UNL     1      94.686  80.833  85.846  1.00  0.00    -0.275 OA
BRANCH   3   6
ATOM      6  C   UNL     1      91.962  81.566  85.477  1.00  0.00     0.151 C 
BRANCH   6   7
ATOM      7  C   UNL     1      90.939  80.573  85.052  1.00  0.00    -0.025 A 
ATOM      8  C   UNL     1      88.657  80.053  84.297  1.00  0.00     0.160 A 
ATOM      9  C   UNL     1      89.009  78.691  84.180  1.00  0.00     0.157 A 
ATOM     10  C   UNL     1      89.618  80.982  84.750  1.00  0.00     0.056 A 
ATOM     11  C   UNL     1      90.312  78.270  84.505  1.00  0.00     0.050 A 
ATOM     12  C   UNL     1      91.271  79.204  84.932  1.00  0.00     0.009 A 
BRANCH   8  13
ATOM     13  O   UNL     1      87.389  80.480  84.005  1.00  0.00    -0.493 OA
ATOM     14  C   UNL     1      86.740  81.163  85.095  1.00  0.00     0.278 C 
ENDBRANCH   8  13
BRANCH   9  15
ATOM     15  O   UNL     1      88.092  77.789  83.748  1.00  0.00    -0.504 OA
ATOM     16  H   UNL     1      88.540  76.992  83.457  1.00  0.00     0.293 HD
ENDBRANCH   9  15
ENDBRANCH   6   7
ENDBRANCH   3   6
ENDBRANCH   1   2
BRANCH   1  17
ATOM     17  C   UNL     1      96.095  82.638  83.523  1.00  0.00     0.010 C 
BRANCH  17  18
ATOM     18  C   UNL     1      96.659  82.861  82.093  1.00  0.00     0.001 C 
BRANCH  18  19
ATOM     19  C   UNL     1      96.757  81.556  81.259  1.00  0.00     0.000 C 
BRANCH  19  20
ATOM     20  C   UNL     1      97.443  81.787  79.882  1.00  0.00     0.003 C 
BRANCH  20  21
ATOM     21  C   UNL     1      97.553  80.517  78.977  1.00  0.00    -0.017 C 
ATOM     22  C   UNL     1      97.750  79.236  79.840  1.00  0.00     0.007 C 
ATOM     23  C   UNL     1      98.688  80.626  77.917  1.00  0.00     0.007 C 
ENDBRANCH  20  21
ENDBRANCH  19  20
ENDBRANCH  18  19
ENDBRANCH  17  18
ENDBRANCH   1  17
TORSDOF 10
ENDMDL
MODEL 5
REMARK VINA RESULT:    -5.476     12.830     14.662
REMARK INTER + INTRA:          -9.524
REMARK INTER:                  -9.067
REMARK INTRA:                  -0.456
REMARK UNBOUND:                -1.006
REMARK SMILES COc1cc(CNC(=O)CCCCCC(C)C)ccc1O
REMARK SMILES IDX 10 1 8 2 7 3 9 5 6 6 5 7 3 8 20 9 4 10 19 11 18 12 2 13 1 14
REMARK SMILES IDX 21 15 11 17 12 18 13 19 14 20 15 21 16 22 17 23
REMARK H PARENT 7 4 21 16
REMARK Flexibility Score: inf
ROOT
ATOM      1  C   UNL     1      97.025  81.495  77.624  1.00  0.00     0.100 C 
ENDROOT
BRANCH   1   2
ATOM      2  C   UNL     1      96.790  82.498  76.565  1.00  0.00     0.220 C 
ATOM      3  N   UNL     1      97.678  82.608  75.538  1.00  0.00    -0.352 N 
ATOM      4  H   UNL     1      98.525  82.068  75.648  1.00  0.00     0.163 HD
ATOM      5  O   UNL     1      95.751  83.201  76.612  1.00  0.00    -0.275 OA
BRANCH   3   6
ATOM      6  C   UNL     1      97.488  83.405  74.368  1.00  0.00     0.151 C 
BRANCH   6   7
ATOM      7  C   UNL     1      98.564  83.224  73.357  1.00  0.00    -0.025 A 
ATOM      8  C   UNL     1      99.862  81.766  71.861  1.00  0.00     0.160 A 
ATOM      9  C   UNL     1     100.567  82.889  71.381  1.00  0.00     0.157 A 
ATOM     10  C   UNL     1      98.878  81.938  72.859  1.00  0.00     0.056 A 
ATOM     11  C   UNL     1     100.281  84.170  71.888  1.00  0.00     0.050 A 
ATOM     12  C   UNL     1      99.284  84.338  72.864  1.00  0.00     0.009 A 
BRANCH   8  13
ATOM     13  O   UNL     1     100.139  80.507  71.395  1.00  0.00    -0.493 OA
ATOM     14  C   UNL     1      99.115  79.966  70.538  1.00  0.00     0.278 C 
ENDBRANCH   8  13
BRANCH   9  15
ATOM     15  O   UNL     1     101.516  82.735  70.424  1.00  0.00    -0.504 OA
ATOM     16  H   UNL     1     102.272  83.289  70.630  1.00  0.00     0.293 HD
ENDBRANCH   9  15
ENDBRANCH   6   7
ENDBRANCH   3   6
ENDBRANCH   1   2
BRANCH   1  17
ATOM     17  C   UNL     1      97.114  82.087  79.056  1.00  0.00     0.010 C 
BRANCH  17  18
ATOM     18  C   UNL     1      97.726  81.070  80.059  1.00  0.00     0.001 C 
BRANCH  18  19
ATOM     19  C   UNL     1      96.889  80.902  81.354  1.00  0.00     0.000 C 
BRANCH  19  20
ATOM     20  C   UNL     1      97.073  82.097  82.333  1.00  0.00     0.003 C 
BRANCH  20  21
ATOM     21  C   UNL     1      95.769  82.560  83.062  1.00  0.00    -0.017 C 
ATOM     22  C   UNL     1      95.912  84.021  83.580  1.00  0.00     0.007 C 
ATOM     23  C   UNL     1      95.362  81.616  84.231  1.00  0.00     0.007 C 
ENDBRANCH  20  21
ENDBRANCH  19  20
ENDBRANCH  18  19
ENDBRANCH  17  18
ENDBRANCH   1  17
TORSDOF 10
ENDMDL
MODEL 6
REMARK VINA RESULT:    -5.449     23.032     26.341
REMARK INTER + INTRA:          -9.481
REMARK INTER:                  -8.564
REMARK INTRA:                  -0.917
REMARK UNBOUND:                -1.006
REMARK SMILES COc1cc(CNC(=O)CCCCCC(C)C)ccc1O
REMARK SMILES IDX 10 1 8 2 7 3 9 5 6 6 5 7 3 8 20 9 4 10 19 11 18 12 2 13 1 14
REMARK SMILES IDX 21 15 11 17 12 18 13 19 14 20 15 21 16 22 17 23
REMARK H PARENT 7 4 21 16
REMARK Flexibility Score: inf
ROOT
ATOM      1  C   UNL     1      75.564  81.695  64.583  1.00  0.00     0.100 C 
ENDROOT
BRANCH   1   2
ATOM      2  C   UNL     1      76.197  82.999  64.871  1.00  0.00     0.220 C 
ATOM      3  N   UNL     1      76.822  83.190  66.066  1.00  0.00    -0.352 N 
ATOM      4  H   UNL     1      76.689  82.448  66.739  1.00  0.00     0.163 HD
ATOM      5  O   UNL     1      76.182  83.891  63.987  1.00  0.00    -0.275 OA
BRANCH   3   6
ATOM      6  C   UNL     1      77.617  84.327  66.406  1.00  0.00     0.151 C 
BRANCH   6   7
ATOM      7  C   UNL     1      76.833  85.417  67.047  1.00  0.00    -0.025 A 
ATOM      8  C   UNL     1      74.889  86.159  68.358  1.00  0.00     0.160 A 
ATOM      9  C   UNL     1      75.376  87.483  68.326  1.00  0.00     0.157 A 
ATOM     10  C   UNL     1      75.610  85.138  67.702  1.00  0.00     0.056 A 
ATOM     11  C   UNL     1      76.577  87.776  67.655  1.00  0.00     0.050 A 
ATOM     12  C   UNL     1      77.303  86.751  67.025  1.00  0.00     0.009 A 
BRANCH   8  13
ATOM     13  O   UNL     1      73.711  85.855  68.989  1.00  0.00    -0.493 OA
ATOM     14  C   UNL     1      72.554  85.939  68.134  1.00  0.00     0.278 C 
ENDBRANCH   8  13
BRANCH   9  15
ATOM     15  O   UNL     1      74.689  88.472  68.951  1.00  0.00    -0.504 OA
ATOM     16  H   UNL     1      73.760  88.414  68.717  1.00  0.00     0.293 HD
ENDBRANCH   9  15
ENDBRANCH   6   7
ENDBRANCH   3   6
ENDBRANCH   1   2
BRANCH   1  17
ATOM     17  C   UNL     1      74.316  81.385  65.453  1.00  0.00     0.010 C 
BRANCH  17  18
ATOM     18  C   UNL     1      73.389  82.625  65.586  1.00  0.00     0.001 C 
BRANCH  18  19
ATOM     19  C   UNL     1      72.145  82.567  64.660  1.00  0.00     0.000 C 
BRANCH  19  20
ATOM     20  C   UNL     1      71.025  81.654  65.237  1.00  0.00     0.003 C 
BRANCH  20  21
ATOM     21  C   UNL     1      69.688  82.387  65.582  1.00  0.00    -0.017 C 
ATOM     22  C   UNL     1      68.974  82.877  64.288  1.00  0.00     0.007 C 
ATOM     23  C   UNL     1      69.887  83.577  66.565  1.00  0.00     0.007 C 
ENDBRANCH  20  21
ENDBRANCH  19  20
ENDBRANCH  18  19
ENDBRANCH  17  18
ENDBRANCH   1  17
TORSDOF 10
ENDMDL
MODEL 7
REMARK VINA RESULT:    -5.292     12.819     14.621
REMARK INTER + INTRA:          -9.238
REMARK INTER:                  -8.540
REMARK INTRA:                  -0.698
REMARK UNBOUND:                -1.006
REMARK SMILES COc1cc(CNC(=O)CCCCCC(C)C)ccc1O
REMARK SMILES IDX 10 1 8 2 7 3 9 5 6 6 5 7 3 8 20 9 4 10 19 11 18 12 2 13 1 14
REMARK SMILES IDX 21 15 11 17 12 18 13 19 14 20 15 21 16 22 17 23
REMARK H PARENT 7 4 21 16
REMARK Flexibility Score: inf
ROOT
ATOM      1  C   UNL     1      98.666  78.871  78.851  1.00  0.00     0.100 C 
ENDROOT
BRANCH   1   2
ATOM      2  C   UNL     1      97.731  78.570  79.955  1.00  0.00     0.220 C 
ATOM      3  N   UNL     1      97.657  79.418  81.019  1.00  0.00    -0.352 N 
ATOM      4  H   UNL     1      98.361  80.141  81.036  1.00  0.00     0.163 HD
ATOM      5  O   UNL     1      96.992  77.559  79.868  1.00  0.00    -0.275 OA
BRANCH   3   6
ATOM      6  C   UNL     1      96.684  79.344  82.062  1.00  0.00     0.151 C 
BRANCH   6   7
ATOM      7  C   UNL     1      96.298  80.678  82.596  1.00  0.00    -0.025 A 
ATOM      8  C   UNL     1      95.006  82.049  84.176  1.00  0.00     0.160 A 
ATOM      9  C   UNL     1      95.612  83.213  83.658  1.00  0.00     0.157 A 
ATOM     10  C   UNL     1      95.338  80.791  83.630  1.00  0.00     0.056 A 
ATOM     11  C   UNL     1      96.548  83.114  82.612  1.00  0.00     0.050 A 
ATOM     12  C   UNL     1      96.893  81.857  82.089  1.00  0.00     0.009 A 
BRANCH   8  13
ATOM     13  O   UNL     1      94.078  82.126  85.182  1.00  0.00    -0.493 OA
ATOM     14  C   UNL     1      92.860  81.408  84.905  1.00  0.00     0.278 C 
ENDBRANCH   8  13
BRANCH   9  15
ATOM     15  O   UNL     1      95.298  84.428  84.175  1.00  0.00    -0.504 OA
ATOM     16  H   UNL     1      94.723  84.314  84.934  1.00  0.00     0.293 HD
ENDBRANCH   9  15
ENDBRANCH   6   7
ENDBRANCH   3   6
ENDBRANCH   1   2
BRANCH   1  17
ATOM     17  C   UNL     1      98.778  80.380  78.503  1.00  0.00     0.010 C 
BRANCH  17  18
ATOM     18  C   UNL     1      97.392  80.993  78.163  1.00  0.00     0.001 C 
BRANCH  18  19
ATOM     19  C   UNL     1      97.475  82.208  77.201  1.00  0.00     0.000 C 
BRANCH  19  20
ATOM     20  C   UNL     1      97.966  81.802  75.781  1.00  0.00     0.003 C 
BRANCH  20  21
ATOM     21  C   UNL     1      97.357  82.638  74.608  1.00  0.00    -0.017 C 
ATOM     22  C   UNL     1      96.278  83.630  75.135  1.00  0.00     0.007 C 
ATOM     23  C   UNL     1      96.760  81.750  73.478  1.00  0.00     0.007 C 
ENDBRANCH  20  21
ENDBRANCH  19  20
ENDBRANCH  18  19
ENDBRANCH  17  18
ENDBRANCH   1  17
TORSDOF 10
ENDMDL
MODEL 8
REMARK VINA RESULT:    -5.187     23.128     26.197
REMARK INTER + INTRA:          -9.074
REMARK INTER:                  -7.779
REMARK INTRA:                  -1.295
REMARK UNBOUND:                -1.006
REMARK SMILES COc1cc(CNC(=O)CCCCCC(C)C)ccc1O
REMARK SMILES IDX 10 1 8 2 7 3 9 5 6 6 5 7 3 8 20 9 4 10 19 11 18 12 2 13 1 14
REMARK SMILES IDX 21 15 11 17 12 18 13 19 14 20 15 21 16 22 17 23
REMARK H PARENT 7 4 21 16
REMARK Flexibility Score: inf
ROOT
ATOM      1  C   UNL     1      74.898  89.431  66.228  1.00  0.00     0.100 C 
ENDROOT
BRANCH   1   2
ATOM      2  C   UNL     1      74.236  88.560  65.235  1.00  0.00     0.220 C 
ATOM      3  N   UNL     1      74.235  87.210  65.423  1.00  0.00    -0.352 N 
ATOM      4  H   UNL     1      74.817  86.886  66.183  1.00  0.00     0.163 HD
ATOM      5  O   UNL     1      73.650  89.086  64.258  1.00  0.00    -0.275 OA
BRANCH   3   6
ATOM      6  C   UNL     1      73.492  86.272  64.644  1.00  0.00     0.151 C 
BRANCH   6   7
ATOM      7  C   UNL     1      73.663  84.867  65.102  1.00  0.00    -0.025 A 
ATOM      8  C   UNL     1      72.738  82.619  65.479  1.00  0.00     0.160 A 
ATOM      9  C   UNL     1      74.005  82.173  65.910  1.00  0.00     0.157 A 
ATOM     10  C   UNL     1      72.571  83.967  65.096  1.00  0.00     0.056 A 
ATOM     11  C   UNL     1      75.093  83.065  65.946  1.00  0.00     0.050 A 
ATOM     12  C   UNL     1      74.925  84.400  65.539  1.00  0.00     0.009 A 
BRANCH   8  13
ATOM     13  O   UNL     1      71.662  81.771  65.457  1.00  0.00    -0.493 OA
ATOM     14  C   UNL     1      71.647  80.881  64.324  1.00  0.00     0.278 C 
ENDBRANCH   8  13
BRANCH   9  15
ATOM     15  O   UNL     1      74.177  80.880  66.283  1.00  0.00    -0.504 OA
ATOM     16  H   UNL     1      74.284  80.833  67.236  1.00  0.00     0.293 HD
ENDBRANCH   9  15
ENDBRANCH   6   7
ENDBRANCH   3   6
ENDBRANCH   1   2
BRANCH   1  17
ATOM     17  C   UNL     1      76.447  89.455  66.124  1.00  0.00     0.010 C 
BRANCH  17  18
ATOM     18  C   UNL     1      77.114  88.753  67.339  1.00  0.00     0.001 C 
BRANCH  18  19
ATOM     19  C   UNL     1      77.201  87.212  67.190  1.00  0.00     0.000 C 
BRANCH  19  20
ATOM     20  C   UNL     1      76.899  86.473  68.526  1.00  0.00     0.003 C 
BRANCH  20  21
ATOM     21  C   UNL     1      75.493  85.792  68.600  1.00  0.00    -0.017 C 
ATOM     22  C   UNL     1      74.382  86.843  68.898  1.00  0.00     0.007 C 
ATOM     23  C   UNL     1      75.433  84.642  69.646  1.00  0.00     0.007 C 
ENDBRANCH  20  21
ENDBRANCH  19  20
ENDBRANCH  18  19
ENDBRANCH  17  18
ENDBRANCH   1  17
TORSDOF 10
ENDMDL
MODEL 9
REMARK VINA RESULT:    -5.163     24.073     27.940
REMARK INTER + INTRA:          -9.037
REMARK INTER:                  -8.334
REMARK INTRA:                  -0.702
REMARK UNBOUND:                -1.006
REMARK SMILES COc1cc(CNC(=O)CCCCCC(C)C)ccc1O
REMARK SMILES IDX 10 1 8 2 7 3 9 5 6 6 5 7 3 8 20 9 4 10 19 11 18 12 2 13 1 14
REMARK SMILES IDX 21 15 11 17 12 18 13 19 14 20 15 21 16 22 17 23
REMARK H PARENT 7 4 21 16
REMARK Flexibility Score: inf
ROOT
ATOM      1  C   UNL     1      76.401  84.317  65.797  1.00  0.00     0.100 C 
ENDROOT
BRANCH   1   2
ATOM      2  C   UNL     1      75.933  82.931  65.589  1.00  0.00     0.220 C 
ATOM      3  N   UNL     1      74.597  82.665  65.611  1.00  0.00    -0.352 N 
ATOM      4  H   UNL     1      74.015  83.436  65.906  1.00  0.00     0.163 HD
ATOM      5  O   UNL     1      76.778  82.032  65.353  1.00  0.00    -0.275 OA
BRANCH   3   6
ATOM      6  C   UNL     1      74.001  81.417  65.256  1.00  0.00     0.151 C 
BRANCH   6   7
ATOM      7  C   UNL     1      72.638  81.563  64.677  1.00  0.00    -0.025 A 
ATOM      8  C   UNL     1      70.412  82.606  64.704  1.00  0.00     0.160 A 
ATOM      9  C   UNL     1      70.066  81.892  63.537  1.00  0.00     0.157 A 
ATOM     10  C   UNL     1      71.688  82.424  65.277  1.00  0.00     0.056 A 
ATOM     11  C   UNL     1      70.993  81.013  62.948  1.00  0.00     0.050 A 
ATOM     12  C   UNL     1      72.271  80.854  63.510  1.00  0.00     0.009 A 
BRANCH   8  13
ATOM     13  O   UNL     1      69.516  83.452  65.304  1.00  0.00    -0.493 OA
ATOM     14  C   UNL     1      69.724  84.841  64.986  1.00  0.00     0.278 C 
ENDBRANCH   8  13
BRANCH   9  15
ATOM     15  O   UNL     1      68.840  82.058  62.979  1.00  0.00    -0.504 OA
ATOM     16  H   UNL     1      68.180  81.615  63.518  1.00  0.00     0.293 HD
ENDBRANCH   9  15
ENDBRANCH   6   7
ENDBRANCH   3   6
ENDBRANCH   1   2
BRANCH   1  17
ATOM     17  C   UNL     1      76.372  84.785  67.277  1.00  0.00     0.010 C 
BRANCH  17  18
ATOM     18  C   UNL     1      77.142  86.120  67.471  1.00  0.00     0.001 C 
BRANCH  18  19
ATOM     19  C   UNL     1      76.916  87.135  66.320  1.00  0.00     0.000 C 
BRANCH  19  20
ATOM     20  C   UNL     1      75.956  88.289  66.732  1.00  0.00     0.003 C 
BRANCH  20  21
ATOM     21  C   UNL     1      75.643  88.372  68.262  1.00  0.00    -0.017 C 
ATOM     22  C   UNL     1      74.266  87.720  68.583  1.00  0.00     0.007 C 
ATOM     23  C   UNL     1      75.685  89.828  68.809  1.00  0.00     0.007 C 
ENDBRANCH  20  21
ENDBRANCH  19  20
ENDBRANCH  18  19
ENDBRANCH  17  18
ENDBRANCH   1  17
TORSDOF 10
ENDMDL
MODEL 10
REMARK VINA RESULT:    -5.040     14.265     16.289
REMARK INTER + INTRA:          -8.846
REMARK INTER:                  -7.969
REMARK INTRA:                  -0.877
REMARK UNBOUND:                -1.006
REMARK SMILES COc1cc(CNC(=O)CCCCCC(C)C)ccc1O
REMARK SMILES IDX 10 1 8 2 7 3 9 5 6 6 5 7 3 8 20 9 4 10 19 11 18 12 2 13 1 14
REMARK SMILES IDX 21 15 11 17 12 18 13 19 14 20 15 21 16 22 17 23
REMARK H PARENT 7 4 21 16
REMARK Flexibility Score: inf
ROOT
ATOM      1  C   UNL     1     100.775  78.788  79.055  1.00  0.00     0.100 C 
ENDROOT
BRANCH   1   2
ATOM      2  C   UNL     1      99.486  79.343  79.518  1.00  0.00     0.220 C 
ATOM      3  N   UNL     1      99.254  80.681  79.406  1.00  0.00    -0.352 N 
ATOM      4  H   UNL     1     100.055  81.229  79.126  1.00  0.00     0.163 HD
ATOM      5  O   UNL     1      98.612  78.561  79.967  1.00  0.00    -0.275 OA
BRANCH   3   6
ATOM      6  C   UNL     1      98.002  81.322  79.650  1.00  0.00     0.151 C 
BRANCH   6   7
ATOM      7  C   UNL     1      97.382  81.881  78.418  1.00  0.00    -0.025 A 
ATOM      8  C   UNL     1      97.445  82.284  75.993  1.00  0.00     0.160 A 
ATOM      9  C   UNL     1      96.171  82.886  76.062  1.00  0.00     0.157 A 
ATOM     10  C   UNL     1      98.050  81.803  77.174  1.00  0.00     0.056 A 
ATOM     11  C   UNL     1      95.508  82.993  77.299  1.00  0.00     0.050 A 
ATOM     12  C   UNL     1      96.106  82.489  78.467  1.00  0.00     0.009 A 
BRANCH   8  13
ATOM     13  O   UNL     1      98.116  82.188  74.802  1.00  0.00    -0.493 OA
ATOM     14  C   UNL     1      99.535  82.411  74.914  1.00  0.00     0.278 C 
ENDBRANCH   8  13
BRANCH   9  15
ATOM     15  O   UNL     1      95.581  83.354  74.934  1.00  0.00    -0.504 OA
ATOM     16  H   UNL     1      95.429  82.626  74.326  1.00  0.00     0.293 HD
ENDBRANCH   9  15
ENDBRANCH   6   7
ENDBRANCH   3   6
ENDBRANCH   1   2
BRANCH   1  17
ATOM     17  C   UNL     1     101.703  79.822  78.364  1.00  0.00     0.010 C 
BRANCH  17  18
ATOM     18  C   UNL     1     101.509  79.826  76.822  1.00  0.00     0.001 C 
BRANCH  18  19
ATOM     19  C   UNL     1     102.842  79.915  76.033  1.00  0.00     0.000 C 
BRANCH  19  20
ATOM     20  C   UNL     1     104.010  79.196  76.768  1.00  0.00     0.003 C 
BRANCH  20  21
ATOM     21  C   UNL     1     105.441  79.594  76.281  1.00  0.00    -0.017 C 
ATOM     22  C   UNL     1     105.840  78.785  75.011  1.00  0.00     0.007 C 
ATOM     23  C   UNL     1     106.525  79.423  77.385  1.00  0.00     0.007 C 
ENDBRANCH  20  21
ENDBRANCH  19  20
ENDBRANCH  18  19
ENDBRANCH  17  18
ENDBRANCH   1  17
TORSDOF 10
ENDMDL
