MODEL 1
REMARK VINA RESULT:    -7.096      0.000      0.000
REMARK INTER + INTRA:         -12.788
REMARK INTER:                 -11.452
REMARK INTRA:                  -1.335
REMARK UNBOUND:                -1.335
REMARK SMILES COc1cc(CNC(=O)CCCCC/C=C/C(C)C)ccc1O
REMARK SMILES IDX 11 1 10 2 8 3 7 4 9 6 6 7 5 8 3 9 22 10 4 11 21 12 20 13
REMARK SMILES IDX 2 14 1 15 23 16 12 18 13 19 14 20 15 21 16 22 17 23 18 24
REMARK SMILES IDX 19 25
REMARK H PARENT 7 5 23 17
REMARK Flexibility Score: inf
ROOT
ATOM      1  C   UNL     1      90.297  91.600  71.669  1.00  0.00     0.010 C 
ENDROOT
BRANCH   1   2
ATOM      2  C   UNL     1      91.407  91.469  72.743  1.00  0.00     0.100 C 
BRANCH   2   3
ATOM      3  C   UNL     1      91.258  92.400  73.877  1.00  0.00     0.220 C 
ATOM      4  N   UNL     1      92.075  92.286  74.960  1.00  0.00    -0.352 N 
ATOM      5  H   UNL     1      92.702  91.493  74.934  1.00  0.00     0.163 HD
ATOM      6  O   UNL     1      90.396  93.307  73.794  1.00  0.00    -0.275 OA
BRANCH   4   7
ATOM      7  C   UNL     1      92.103  93.174  76.076  1.00  0.00     0.151 C 
BRANCH   7   8
ATOM      8  C   UNL     1      93.466  93.693  76.361  1.00  0.00    -0.025 A 
ATOM      9  C   UNL     1      95.100  94.661  77.924  1.00  0.00     0.160 A 
ATOM     10  C   UNL     1      96.051  94.732  76.884  1.00  0.00     0.157 A 
ATOM     11  C   UNL     1      93.813  94.151  77.654  1.00  0.00     0.056 A 
ATOM     12  C   UNL     1      95.722  94.264  75.598  1.00  0.00     0.050 A 
ATOM     13  C   UNL     1      94.442  93.739  75.341  1.00  0.00     0.009 A 
BRANCH   9  14
ATOM     14  O   UNL     1      95.438  95.032  79.198  1.00  0.00    -0.493 OA
ATOM     15  C   UNL     1      95.656  93.929  80.094  1.00  0.00     0.278 C 
ENDBRANCH   9  14
BRANCH  10  16
ATOM     16  O   UNL     1      97.291  95.242  77.095  1.00  0.00    -0.504 OA
ATOM     17  H   UNL     1      97.214  96.119  77.479  1.00  0.00     0.293 HD
ENDBRANCH  10  16
ENDBRANCH   7   8
ENDBRANCH   4   7
ENDBRANCH   2   3
ENDBRANCH   1   2
BRANCH   1  18
ATOM     18  C   UNL     1      89.394  90.340  71.641  1.00  0.00     0.001 C 
BRANCH  18  19
ATOM     19  C   UNL     1      87.987  90.568  72.249  1.00  0.00     0.004 C 
BRANCH  19  20
ATOM     20  C   UNL     1      87.998  90.378  73.791  1.00  0.00     0.027 C 
BRANCH  20  21
ATOM     21  C   UNL     1      88.971  89.403  74.253  1.00  0.00    -0.031 C 
ATOM     22  C   UNL     1      89.600  89.520  75.436  1.00  0.00    -0.028 C 
BRANCH  22  23
ATOM     23  C   UNL     1      90.579  88.555  75.931  1.00  0.00     0.005 C 
ATOM     24  C   UNL     1      90.104  87.950  77.279  1.00  0.00     0.012 C 
ATOM     25  C   UNL     1      90.848  87.465  74.858  1.00  0.00     0.012 C 
ENDBRANCH  22  23
ENDBRANCH  20  21
ENDBRANCH  19  20
ENDBRANCH  18  19
ENDBRANCH   1  18
TORSDOF 11
ENDMDL
MODEL 2
REMARK VINA RESULT:    -6.505      2.373      4.091
REMARK INTER + INTRA:         -11.833
REMARK INTER:                 -10.483
REMARK INTRA:                  -1.350
REMARK UNBOUND:                -1.335
REMARK SMILES COc1cc(CNC(=O)CCCCC/C=C/C(C)C)ccc1O
REMARK SMILES IDX 11 1 10 2 8 3 7 4 9 6 6 7 5 8 3 9 22 10 4 11 21 12 20 13
REMARK SMILES IDX 2 14 1 15 23 16 12 18 13 19 14 20 15 21 16 22 17 23 18 24
REMARK SMILES IDX 19 25
REMARK H PARENT 7 5 23 17
REMARK Flexibility Score: inf
ROOT
ATOM      1  C   UNL     1      91.742  93.994  75.254  1.00  0.00     0.010 C 
ENDROOT
BRANCH   1   2
ATOM      2  C   UNL     1      93.135  93.418  74.891  1.00  0.00     0.100 C 
BRANCH   2   3
ATOM      3  C   UNL     1      94.266  94.235  75.369  1.00  0.00     0.220 C 
ATOM      4  N   UNL     1      95.208  93.680  76.180  1.00  0.00    -0.352 N 
ATOM      5  H   UNL     1      95.013  92.729  76.463  1.00  0.00     0.163 HD
ATOM      6  O   UNL     1      94.350  95.423  74.976  1.00  0.00    -0.275 OA
BRANCH   4   7
ATOM      7  C   UNL     1      96.397  94.325  76.634  1.00  0.00     0.151 C 
BRANCH   7   8
ATOM      8  C   UNL     1      96.260  94.877  78.006  1.00  0.00    -0.025 A 
ATOM      9  C   UNL     1      96.938  96.486  79.739  1.00  0.00     0.160 A 
ATOM     10  C   UNL     1      96.032  95.891  80.644  1.00  0.00     0.157 A 
ATOM     11  C   UNL     1      97.051  95.970  78.432  1.00  0.00     0.056 A 
ATOM     12  C   UNL     1      95.228  94.815  80.227  1.00  0.00     0.050 A 
ATOM     13  C   UNL     1      95.333  94.318  78.914  1.00  0.00     0.009 A 
BRANCH   9  14
ATOM     14  O   UNL     1      97.662  97.589  80.108  1.00  0.00    -0.493 OA
ATOM     15  C   UNL     1      97.122  98.832  79.631  1.00  0.00     0.278 C 
ENDBRANCH   9  14
BRANCH  10  16
ATOM     16  O   UNL     1      95.913  96.339  81.919  1.00  0.00    -0.504 OA
ATOM     17  H   UNL     1      94.990  96.313  82.182  1.00  0.00     0.293 HD
ENDBRANCH  10  16
ENDBRANCH   7   8
ENDBRANCH   4   7
ENDBRANCH   2   3
ENDBRANCH   1   2
BRANCH   1  18
ATOM     18  C   UNL     1      91.564  94.101  76.790  1.00  0.00     0.001 C 
BRANCH  18  19
ATOM     19  C   UNL     1      91.465  92.728  77.502  1.00  0.00     0.004 C 
BRANCH  19  20
ATOM     20  C   UNL     1      90.001  92.208  77.530  1.00  0.00     0.027 C 
BRANCH  20  21
ATOM     21  C   UNL     1      89.814  90.949  76.830  1.00  0.00    -0.031 C 
ATOM     22  C   UNL     1      90.775  90.405  76.061  1.00  0.00    -0.028 C 
BRANCH  22  23
ATOM     23  C   UNL     1      90.621  89.139  75.349  1.00  0.00     0.005 C 
ATOM     24  C   UNL     1      90.766  87.947  76.332  1.00  0.00     0.012 C 
ATOM     25  C   UNL     1      89.268  89.113  74.586  1.00  0.00     0.012 C 
ENDBRANCH  22  23
ENDBRANCH  20  21
ENDBRANCH  19  20
ENDBRANCH  18  19
ENDBRANCH   1  18
TORSDOF 11
ENDMDL
MODEL 3
REMARK VINA RESULT:    -5.800      2.843      8.924
REMARK INTER + INTRA:         -10.695
REMARK INTER:                  -9.876
REMARK INTRA:                  -0.819
REMARK UNBOUND:                -1.335
REMARK SMILES COc1cc(CNC(=O)CCCCC/C=C/C(C)C)ccc1O
REMARK SMILES IDX 11 1 10 2 8 3 7 4 9 6 6 7 5 8 3 9 22 10 4 11 21 12 20 13
REMARK SMILES IDX 2 14 1 15 23 16 12 18 13 19 14 20 15 21 16 22 17 23 18 24
REMARK SMILES IDX 19 25
REMARK H PARENT 7 5 23 17
REMARK Flexibility Score: inf
ROOT
ATOM      1  C   UNL     1      94.330  94.057  78.072  1.00  0.00     0.010 C 
ENDROOT
BRANCH   1   2
ATOM      2  C   UNL     1      94.379  94.705  76.664  1.00  0.00     0.100 C 
BRANCH   2   3
ATOM      3  C   UNL     1      93.074  94.755  75.980  1.00  0.00     0.220 C 
ATOM      4  N   UNL     1      91.949  94.359  76.637  1.00  0.00    -0.352 N 
ATOM      5  H   UNL     1      92.111  93.978  77.559  1.00  0.00     0.163 HD
ATOM      6  O   UNL     1      93.031  95.204  74.810  1.00  0.00    -0.275 OA
BRANCH   4   7
ATOM      7  C   UNL     1      90.618  94.446  76.130  1.00  0.00     0.151 C 
BRANCH   7   8
ATOM      8  C   UNL     1      90.242  93.268  75.306  1.00  0.00    -0.025 A 
ATOM      9  C   UNL     1      89.611  90.898  75.130  1.00  0.00     0.160 A 
ATOM     10  C   UNL     1      89.577  91.012  73.723  1.00  0.00     0.157 A 
ATOM     11  C   UNL     1      89.951  92.022  75.909  1.00  0.00     0.056 A 
ATOM     12  C   UNL     1      89.848  92.250  73.113  1.00  0.00     0.050 A 
ATOM     13  C   UNL     1      90.168  93.373  73.899  1.00  0.00     0.009 A 
BRANCH   9  14
ATOM     14  O   UNL     1      89.263  89.720  75.737  1.00  0.00    -0.493 OA
ATOM     15  C   UNL     1      89.936  89.482  76.985  1.00  0.00     0.278 C 
ENDBRANCH   9  14
BRANCH  10  16
ATOM     16  O   UNL     1      89.283  89.947  72.936  1.00  0.00    -0.504 OA
ATOM     17  H   UNL     1      89.976  89.287  73.018  1.00  0.00     0.293 HD
ENDBRANCH  10  16
ENDBRANCH   7   8
ENDBRANCH   4   7
ENDBRANCH   2   3
ENDBRANCH   1   2
BRANCH   1  18
ATOM     18  C   UNL     1      95.353  94.720  79.029  1.00  0.00     0.001 C 
BRANCH  18  19
ATOM     19  C   UNL     1      95.600  93.917  80.331  1.00  0.00     0.004 C 
BRANCH  19  20
ATOM     20  C   UNL     1      95.858  94.860  81.539  1.00  0.00     0.027 C 
BRANCH  20  21
ATOM     21  C   UNL     1      96.568  96.078  81.188  1.00  0.00    -0.031 C 
ATOM     22  C   UNL     1      96.084  97.300  81.472  1.00  0.00    -0.028 C 
BRANCH  22  23
ATOM     23  C   UNL     1      96.775  98.542  81.137  1.00  0.00     0.005 C 
ATOM     24  C   UNL     1      97.064  98.604  79.614  1.00  0.00     0.012 C 
ATOM     25  C   UNL     1      95.953  99.764  81.632  1.00  0.00     0.012 C 
ENDBRANCH  22  23
ENDBRANCH  20  21
ENDBRANCH  19  20
ENDBRANCH  18  19
ENDBRANCH   1  18
TORSDOF 11
ENDMDL
MODEL 4
REMARK VINA RESULT:    -5.724     14.268     16.507
REMARK INTER + INTRA:         -10.573
REMARK INTER:                  -8.741
REMARK INTRA:                  -1.832
REMARK UNBOUND:                -1.335
REMARK SMILES COc1cc(CNC(=O)CCCCC/C=C/C(C)C)ccc1O
REMARK SMILES IDX 11 1 10 2 8 3 7 4 9 6 6 7 5 8 3 9 22 10 4 11 21 12 20 13
REMARK SMILES IDX 2 14 1 15 23 16 12 18 13 19 14 20 15 21 16 22 17 23 18 24
REMARK SMILES IDX 19 25
REMARK H PARENT 7 5 23 17
REMARK Flexibility Score: inf
ROOT
ATOM      1  C   UNL     1      80.809  89.363  84.468  1.00  0.00     0.010 C 
ENDROOT
BRANCH   1   2
ATOM      2  C   UNL     1      82.215  88.803  84.133  1.00  0.00     0.100 C 
BRANCH   2   3
ATOM      3  C   UNL     1      83.174  88.880  85.251  1.00  0.00     0.220 C 
ATOM      4  N   UNL     1      83.286  90.031  85.970  1.00  0.00    -0.352 N 
ATOM      5  H   UNL     1      82.731  90.801  85.622  1.00  0.00     0.163 HD
ATOM      6  O   UNL     1      83.839  87.856  85.538  1.00  0.00    -0.275 OA
BRANCH   4   7
ATOM      7  C   UNL     1      84.098  90.210  87.129  1.00  0.00     0.151 C 
BRANCH   7   8
ATOM      8  C   UNL     1      83.323  90.691  88.302  1.00  0.00    -0.025 A 
ATOM      9  C   UNL     1      83.186  91.223  90.699  1.00  0.00     0.160 A 
ATOM     10  C   UNL     1      81.824  91.560  90.546  1.00  0.00     0.157 A 
ATOM     11  C   UNL     1      83.922  90.784  89.580  1.00  0.00     0.056 A 
ATOM     12  C   UNL     1      81.222  91.488  89.276  1.00  0.00     0.050 A 
ATOM     13  C   UNL     1      81.969  91.067  88.160  1.00  0.00     0.009 A 
BRANCH   9  14
ATOM     14  O   UNL     1      83.804  91.374  91.913  1.00  0.00    -0.493 OA
ATOM     15  C   UNL     1      84.561  92.589  92.040  1.00  0.00     0.278 C 
ENDBRANCH   9  14
BRANCH  10  16
ATOM     16  O   UNL     1      81.073  91.960  91.602  1.00  0.00    -0.504 OA
ATOM     17  H   UNL     1      81.650  92.251  92.313  1.00  0.00     0.293 HD
ENDBRANCH  10  16
ENDBRANCH   7   8
ENDBRANCH   4   7
ENDBRANCH   2   3
ENDBRANCH   1   2
BRANCH   1  18
ATOM     18  C   UNL     1      79.781  88.218  84.653  1.00  0.00     0.001 C 
BRANCH  18  19
ATOM     19  C   UNL     1      80.218  86.878  84.009  1.00  0.00     0.004 C 
BRANCH  19  20
ATOM     20  C   UNL     1      80.730  85.875  85.079  1.00  0.00     0.027 C 
BRANCH  20  21
ATOM     21  C   UNL     1      80.271  86.171  86.425  1.00  0.00    -0.031 C 
ATOM     22  C   UNL     1      81.122  86.360  87.450  1.00  0.00    -0.028 C 
BRANCH  22  23
ATOM     23  C   UNL     1      80.692  86.665  88.813  1.00  0.00     0.005 C 
ATOM     24  C   UNL     1      81.751  87.547  89.526  1.00  0.00     0.012 C 
ATOM     25  C   UNL     1      79.287  87.326  88.797  1.00  0.00     0.012 C 
ENDBRANCH  22  23
ENDBRANCH  20  21
ENDBRANCH  19  20
ENDBRANCH  18  19
ENDBRANCH   1  18
TORSDOF 11
ENDMDL
MODEL 5
REMARK VINA RESULT:    -5.708      4.963      8.428
REMARK INTER + INTRA:         -10.547
REMARK INTER:                  -9.743
REMARK INTRA:                  -0.804
REMARK UNBOUND:                -1.335
REMARK SMILES COc1cc(CNC(=O)CCCCC/C=C/C(C)C)ccc1O
REMARK SMILES IDX 11 1 10 2 8 3 7 4 9 6 6 7 5 8 3 9 22 10 4 11 21 12 20 13
REMARK SMILES IDX 2 14 1 15 23 16 12 18 13 19 14 20 15 21 16 22 17 23 18 24
REMARK SMILES IDX 19 25
REMARK H PARENT 7 5 23 17
REMARK Flexibility Score: inf
ROOT
ATOM      1  C   UNL     1      94.980  94.148  79.042  1.00  0.00     0.010 C 
ENDROOT
BRANCH   1   2
ATOM      2  C   UNL     1      95.964  94.128  80.240  1.00  0.00     0.100 C 
BRANCH   2   3
ATOM      3  C   UNL     1      95.698  95.166  81.253  1.00  0.00     0.220 C 
ATOM      4  N   UNL     1      96.388  96.340  81.219  1.00  0.00    -0.352 N 
ATOM      5  H   UNL     1      97.111  96.383  80.515  1.00  0.00     0.163 HD
ATOM      6  O   UNL     1      94.803  94.952  82.105  1.00  0.00    -0.275 OA
BRANCH   4   7
ATOM      7  C   UNL     1      96.163  97.459  82.074  1.00  0.00     0.151 C 
BRANCH   7   8
ATOM      8  C   UNL     1      96.832  97.316  83.393  1.00  0.00    -0.025 A 
ATOM      9  C   UNL     1      96.783  97.505  85.845  1.00  0.00     0.160 A 
ATOM     10  C   UNL     1      98.132  97.090  85.902  1.00  0.00     0.157 A 
ATOM     11  C   UNL     1      96.147  97.623  84.592  1.00  0.00     0.056 A 
ATOM     12  C   UNL     1      98.818  96.766  84.718  1.00  0.00     0.050 A 
ATOM     13  C   UNL     1      98.169  96.868  83.473  1.00  0.00     0.009 A 
BRANCH   9  14
ATOM     14  O   UNL     1      96.081  97.738  86.997  1.00  0.00    -0.493 OA
ATOM     15  C   UNL     1      95.935  99.130  87.324  1.00  0.00     0.278 C 
ENDBRANCH   9  14
BRANCH  10  16
ATOM     16  O   UNL     1      98.789  96.991  87.085  1.00  0.00    -0.504 OA
ATOM     17  H   UNL     1      98.155  96.847  87.792  1.00  0.00     0.293 HD
ENDBRANCH  10  16
ENDBRANCH   7   8
ENDBRANCH   4   7
ENDBRANCH   2   3
ENDBRANCH   1   2
BRANCH   1  18
ATOM     18  C   UNL     1      95.677  94.659  77.755  1.00  0.00     0.001 C 
BRANCH  18  19
ATOM     19  C   UNL     1      95.251  93.900  76.473  1.00  0.00     0.004 C 
BRANCH  19  20
ATOM     20  C   UNL     1      94.293  94.757  75.599  1.00  0.00     0.027 C 
BRANCH  20  21
ATOM     21  C   UNL     1      92.908  94.322  75.651  1.00  0.00    -0.031 C 
ATOM     22  C   UNL     1      92.286  94.041  76.810  1.00  0.00    -0.028 C 
BRANCH  22  23
ATOM     23  C   UNL     1      90.894  93.607  76.897  1.00  0.00     0.005 C 
ATOM     24  C   UNL     1      90.189  93.784  75.525  1.00  0.00     0.012 C 
ATOM     25  C   UNL     1      90.818  92.145  77.414  1.00  0.00     0.012 C 
ENDBRANCH  22  23
ENDBRANCH  20  21
ENDBRANCH  19  20
ENDBRANCH  18  19
ENDBRANCH   1  18
TORSDOF 11
ENDMDL
MODEL 6
REMARK VINA RESULT:    -5.674      2.818      9.170
REMARK INTER + INTRA:         -10.492
REMARK INTER:                  -9.802
REMARK INTRA:                  -0.690
REMARK UNBOUND:                -1.335
REMARK SMILES COc1cc(CNC(=O)CCCCC/C=C/C(C)C)ccc1O
REMARK SMILES IDX 11 1 10 2 8 3 7 4 9 6 6 7 5 8 3 9 22 10 4 11 21 12 20 13
REMARK SMILES IDX 2 14 1 15 23 16 12 18 13 19 14 20 15 21 16 22 17 23 18 24
REMARK SMILES IDX 19 25
REMARK H PARENT 7 5 23 17
REMARK Flexibility Score: inf
ROOT
ATOM      1  C   UNL     1      95.808  93.521  77.492  1.00  0.00     0.010 C 
ENDROOT
BRANCH   1   2
ATOM      2  C   UNL     1      95.856  94.130  76.066  1.00  0.00     0.100 C 
BRANCH   2   3
ATOM      3  C   UNL     1      94.529  94.412  75.489  1.00  0.00     0.220 C 
ATOM      4  N   UNL     1      93.581  93.434  75.459  1.00  0.00    -0.352 N 
ATOM      5  H   UNL     1      93.897  92.531  75.783  1.00  0.00     0.163 HD
ATOM      6  O   UNL     1      94.294  95.571  75.073  1.00  0.00    -0.275 OA
BRANCH   4   7
ATOM      7  C   UNL     1      92.234  93.598  75.019  1.00  0.00     0.151 C 
BRANCH   7   8
ATOM      8  C   UNL     1      91.505  92.307  74.914  1.00  0.00    -0.025 A 
ATOM      9  C   UNL     1      90.350  90.611  73.559  1.00  0.00     0.160 A 
ATOM     10  C   UNL     1      90.068  89.870  74.728  1.00  0.00     0.157 A 
ATOM     11  C   UNL     1      91.057  91.826  73.662  1.00  0.00     0.056 A 
ATOM     12  C   UNL     1      90.524  90.331  75.977  1.00  0.00     0.050 A 
ATOM     13  C   UNL     1      91.246  91.535  76.069  1.00  0.00     0.009 A 
BRANCH   9  14
ATOM     14  O   UNL     1      89.988  90.128  72.330  1.00  0.00    -0.493 OA
ATOM     15  C   UNL     1      90.218  91.045  71.247  1.00  0.00     0.278 C 
ENDBRANCH   9  14
BRANCH  10  16
ATOM     16  O   UNL     1      89.366  88.711  74.676  1.00  0.00    -0.504 OA
ATOM     17  H   UNL     1      88.467  88.894  74.393  1.00  0.00     0.293 HD
ENDBRANCH  10  16
ENDBRANCH   7   8
ENDBRANCH   4   7
ENDBRANCH   2   3
ENDBRANCH   1   2
BRANCH   1  18
ATOM     18  C   UNL     1      95.648  94.626  78.567  1.00  0.00     0.001 C 
BRANCH  18  19
ATOM     19  C   UNL     1      95.375  94.076  79.990  1.00  0.00     0.004 C 
BRANCH  19  20
ATOM     20  C   UNL     1      95.313  95.222  81.038  1.00  0.00     0.027 C 
BRANCH  20  21
ATOM     21  C   UNL     1      96.311  96.258  80.832  1.00  0.00    -0.031 C 
ATOM     22  C   UNL     1      96.157  97.508  81.302  1.00  0.00    -0.028 C 
BRANCH  22  23
ATOM     23  C   UNL     1      97.143  98.569  81.116  1.00  0.00     0.005 C 
ATOM     24  C   UNL     1      96.966  99.231  79.724  1.00  0.00     0.012 C 
ATOM     25  C   UNL     1      97.049  99.599  82.275  1.00  0.00     0.012 C 
ENDBRANCH  22  23
ENDBRANCH  20  21
ENDBRANCH  19  20
ENDBRANCH  18  19
ENDBRANCH   1  18
TORSDOF 11
ENDMDL
MODEL 7
REMARK VINA RESULT:    -5.670     14.197     16.751
REMARK INTER + INTRA:         -10.486
REMARK INTER:                  -9.166
REMARK INTRA:                  -1.320
REMARK UNBOUND:                -1.335
REMARK SMILES COc1cc(CNC(=O)CCCCC/C=C/C(C)C)ccc1O
REMARK SMILES IDX 11 1 10 2 8 3 7 4 9 6 6 7 5 8 3 9 22 10 4 11 21 12 20 13
REMARK SMILES IDX 2 14 1 15 23 16 12 18 13 19 14 20 15 21 16 22 17 23 18 24
REMARK SMILES IDX 19 25
REMARK H PARENT 7 5 23 17
REMARK Flexibility Score: inf
ROOT
ATOM      1  C   UNL     1      81.177  85.467  86.101  1.00  0.00     0.010 C 
ENDROOT
BRANCH   1   2
ATOM      2  C   UNL     1      80.170  86.203  85.181  1.00  0.00     0.100 C 
BRANCH   2   3
ATOM      3  C   UNL     1      80.692  87.453  84.597  1.00  0.00     0.220 C 
ATOM      4  N   UNL     1      80.369  88.650  85.158  1.00  0.00    -0.352 N 
ATOM      5  H   UNL     1      79.708  88.594  85.921  1.00  0.00     0.163 HD
ATOM      6  O   UNL     1      81.463  87.373  83.611  1.00  0.00    -0.275 OA
BRANCH   4   7
ATOM      7  C   UNL     1      80.880  89.920  84.755  1.00  0.00     0.151 C 
BRANCH   7   8
ATOM      8  C   UNL     1      82.248  90.176  85.274  1.00  0.00    -0.025 A 
ATOM      9  C   UNL     1      83.817  90.370  87.158  1.00  0.00     0.160 A 
ATOM     10  C   UNL     1      84.850  90.719  86.261  1.00  0.00     0.157 A 
ATOM     11  C   UNL     1      82.524  90.110  86.659  1.00  0.00     0.056 A 
ATOM     12  C   UNL     1      84.591  90.771  84.879  1.00  0.00     0.050 A 
ATOM     13  C   UNL     1      83.303  90.492  84.388  1.00  0.00     0.009 A 
BRANCH   9  14
ATOM     14  O   UNL     1      84.079  90.231  88.495  1.00  0.00    -0.493 OA
ATOM     15  C   UNL     1      82.905  90.188  89.322  1.00  0.00     0.278 C 
ENDBRANCH   9  14
BRANCH  10  16
ATOM     16  O   UNL     1      86.101  91.004  86.702  1.00  0.00    -0.504 OA
ATOM     17  H   UNL     1      86.047  91.433  87.560  1.00  0.00     0.293 HD
ENDBRANCH  10  16
ENDBRANCH   7   8
ENDBRANCH   4   7
ENDBRANCH   2   3
ENDBRANCH   1   2
BRANCH   1  18
ATOM     18  C   UNL     1      81.998  86.472  86.949  1.00  0.00     0.001 C 
BRANCH  18  19
ATOM     19  C   UNL     1      81.572  86.525  88.438  1.00  0.00     0.004 C 
BRANCH  19  20
ATOM     20  C   UNL     1      80.357  87.471  88.648  1.00  0.00     0.027 C 
BRANCH  20  21
ATOM     21  C   UNL     1      79.798  87.415  89.988  1.00  0.00    -0.031 C 
ATOM     22  C   UNL     1      79.302  86.281  90.514  1.00  0.00    -0.028 C 
BRANCH  22  23
ATOM     23  C   UNL     1      78.738  86.191  91.858  1.00  0.00     0.005 C 
ATOM     24  C   UNL     1      78.322  84.729  92.170  1.00  0.00     0.012 C 
ATOM     25  C   UNL     1      79.743  86.753  92.900  1.00  0.00     0.012 C 
ENDBRANCH  22  23
ENDBRANCH  20  21
ENDBRANCH  19  20
ENDBRANCH  18  19
ENDBRANCH   1  18
TORSDOF 11
ENDMDL
MODEL 8
REMARK VINA RESULT:    -5.661     15.924     17.681
REMARK INTER + INTRA:         -10.472
REMARK INTER:                  -9.580
REMARK INTRA:                  -0.892
REMARK UNBOUND:                -1.335
REMARK SMILES COc1cc(CNC(=O)CCCCC/C=C/C(C)C)ccc1O
REMARK SMILES IDX 11 1 10 2 8 3 7 4 9 6 6 7 5 8 3 9 22 10 4 11 21 12 20 13
REMARK SMILES IDX 2 14 1 15 23 16 12 18 13 19 14 20 15 21 16 22 17 23 18 24
REMARK SMILES IDX 19 25
REMARK H PARENT 7 5 23 17
REMARK Flexibility Score: inf
ROOT
ATOM      1  C   UNL     1      76.813  88.949  64.909  1.00  0.00     0.010 C 
ENDROOT
BRANCH   1   2
ATOM      2  C   UNL     1      77.204  90.147  64.005  1.00  0.00     0.100 C 
BRANCH   2   3
ATOM      3  C   UNL     1      76.822  91.462  64.552  1.00  0.00     0.220 C 
ATOM      4  N   UNL     1      77.293  92.600  63.973  1.00  0.00    -0.352 N 
ATOM      5  H   UNL     1      77.954  92.449  63.224  1.00  0.00     0.163 HD
ATOM      6  O   UNL     1      76.031  91.495  65.524  1.00  0.00    -0.275 OA
BRANCH   4   7
ATOM      7  C   UNL     1      76.927  93.930  64.338  1.00  0.00     0.151 C 
BRANCH   7   8
ATOM      8  C   UNL     1      77.776  94.478  65.428  1.00  0.00    -0.025 A 
ATOM      9  C   UNL     1      78.050  95.207  67.761  1.00  0.00     0.160 A 
ATOM     10  C   UNL     1      79.386  95.573  67.489  1.00  0.00     0.157 A 
ATOM     11  C   UNL     1      77.253  94.671  66.728  1.00  0.00     0.056 A 
ATOM     12  C   UNL     1      79.921  95.370  66.204  1.00  0.00     0.050 A 
ATOM     13  C   UNL     1      79.125  94.816  65.183  1.00  0.00     0.009 A 
BRANCH   9  14
ATOM     14  O   UNL     1      77.545  95.319  69.030  1.00  0.00    -0.493 OA
ATOM     15  C   UNL     1      76.503  94.377  69.333  1.00  0.00     0.278 C 
ENDBRANCH   9  14
BRANCH  10  16
ATOM     16  O   UNL     1      80.176  96.118  68.447  1.00  0.00    -0.504 OA
ATOM     17  H   UNL     1      80.713  95.430  68.848  1.00  0.00     0.293 HD
ENDBRANCH  10  16
ENDBRANCH   7   8
ENDBRANCH   4   7
ENDBRANCH   2   3
ENDBRANCH   1   2
BRANCH   1  18
ATOM     18  C   UNL     1      78.050  88.082  65.256  1.00  0.00     0.001 C 
BRANCH  18  19
ATOM     19  C   UNL     1      78.191  87.775  66.769  1.00  0.00     0.004 C 
BRANCH  19  20
ATOM     20  C   UNL     1      78.286  86.246  67.031  1.00  0.00     0.027 C 
BRANCH  20  21
ATOM     21  C   UNL     1      77.100  85.685  67.654  1.00  0.00    -0.031 C 
ATOM     22  C   UNL     1      75.893  86.270  67.561  1.00  0.00    -0.028 C 
BRANCH  22  23
ATOM     23  C   UNL     1      74.681  85.729  68.171  1.00  0.00     0.005 C 
ATOM     24  C   UNL     1      73.641  85.372  67.076  1.00  0.00     0.012 C 
ATOM     25  C   UNL     1      75.031  84.513  69.071  1.00  0.00     0.012 C 
ENDBRANCH  22  23
ENDBRANCH  20  21
ENDBRANCH  19  20
ENDBRANCH  18  19
ENDBRANCH   1  18
TORSDOF 11
ENDMDL
MODEL 9
REMARK VINA RESULT:    -5.551     13.732     15.797
REMARK INTER + INTRA:         -10.293
REMARK INTER:                  -8.977
REMARK INTRA:                  -1.316
REMARK UNBOUND:                -1.335
REMARK SMILES COc1cc(CNC(=O)CCCCC/C=C/C(C)C)ccc1O
REMARK SMILES IDX 11 1 10 2 8 3 7 4 9 6 6 7 5 8 3 9 22 10 4 11 21 12 20 13
REMARK SMILES IDX 2 14 1 15 23 16 12 18 13 19 14 20 15 21 16 22 17 23 18 24
REMARK SMILES IDX 19 25
REMARK H PARENT 7 5 23 17
REMARK Flexibility Score: inf
ROOT
ATOM      1  C   UNL     1      81.165  89.484  84.281  1.00  0.00     0.010 C 
ENDROOT
BRANCH   1   2
ATOM      2  C   UNL     1      82.487  88.683  84.405  1.00  0.00     0.100 C 
BRANCH   2   3
ATOM      3  C   UNL     1      83.569  89.413  85.092  1.00  0.00     0.220 C 
ATOM      4  N   UNL     1      83.636  90.770  85.001  1.00  0.00    -0.352 N 
ATOM      5  H   UNL     1      82.951  91.185  84.384  1.00  0.00     0.163 HD
ATOM      6  O   UNL     1      84.384  88.758  85.784  1.00  0.00    -0.275 OA
BRANCH   4   7
ATOM      7  C   UNL     1      84.566  91.604  85.690  1.00  0.00     0.151 C 
BRANCH   7   8
ATOM      8  C   UNL     1      83.935  92.376  86.791  1.00  0.00    -0.025 A 
ATOM      9  C   UNL     1      82.551  92.459  88.823  1.00  0.00     0.160 A 
ATOM     10  C   UNL     1      82.690  93.864  88.859  1.00  0.00     0.157 A 
ATOM     11  C   UNL     1      83.166  91.728  87.786  1.00  0.00     0.056 A 
ATOM     12  C   UNL     1      83.467  94.517  87.885  1.00  0.00     0.050 A 
ATOM     13  C   UNL     1      84.094  93.778  86.865  1.00  0.00     0.009 A 
BRANCH   9  14
ATOM     14  O   UNL     1      81.871  91.804  89.815  1.00  0.00    -0.493 OA
ATOM     15  C   UNL     1      80.480  91.587  89.529  1.00  0.00     0.278 C 
ENDBRANCH   9  14
BRANCH  10  16
ATOM     16  O   UNL     1      82.091  94.606  89.824  1.00  0.00    -0.504 OA
ATOM     17  H   UNL     1      81.862  94.042  90.566  1.00  0.00     0.293 HD
ENDBRANCH  10  16
ENDBRANCH   7   8
ENDBRANCH   4   7
ENDBRANCH   2   3
ENDBRANCH   1   2
BRANCH   1  18
ATOM     18  C   UNL     1      79.936  88.578  84.548  1.00  0.00     0.001 C 
BRANCH  18  19
ATOM     19  C   UNL     1      80.087  87.141  83.989  1.00  0.00     0.004 C 
BRANCH  19  20
ATOM     20  C   UNL     1      80.283  86.105  85.132  1.00  0.00     0.027 C 
BRANCH  20  21
ATOM     21  C   UNL     1      80.118  86.665  86.462  1.00  0.00    -0.031 C 
ATOM     22  C   UNL     1      80.910  86.317  87.492  1.00  0.00    -0.028 C 
BRANCH  22  23
ATOM     23  C   UNL     1      80.774  86.865  88.839  1.00  0.00     0.005 C 
ATOM     24  C   UNL     1      81.702  88.096  89.015  1.00  0.00     0.012 C 
ATOM     25  C   UNL     1      79.287  87.201  89.134  1.00  0.00     0.012 C 
ENDBRANCH  22  23
ENDBRANCH  20  21
ENDBRANCH  19  20
ENDBRANCH  18  19
ENDBRANCH   1  18
TORSDOF 11
ENDMDL
MODEL 10
REMARK VINA RESULT:    -5.419     23.375     26.424
REMARK INTER + INTRA:         -10.081
REMARK INTER:                  -8.942
REMARK INTRA:                  -1.139
REMARK UNBOUND:                -1.335
REMARK SMILES COc1cc(CNC(=O)CCCCC/C=C/C(C)C)ccc1O
REMARK SMILES IDX 11 1 10 2 8 3 7 4 9 6 6 7 5 8 3 9 22 10 4 11 21 12 20 13
REMARK SMILES IDX 2 14 1 15 23 16 12 18 13 19 14 20 15 21 16 22 17 23 18 24
REMARK SMILES IDX 19 25
REMARK H PARENT 7 5 23 17
REMARK Flexibility Score: inf
ROOT
ATOM      1  C   UNL     1      81.951  66.557  76.227  1.00  0.00     0.010 C 
ENDROOT
BRANCH   1   2
ATOM      2  C   UNL     1      83.157  66.939  75.329  1.00  0.00     0.100 C 
BRANCH   2   3
ATOM      3  C   UNL     1      84.469  66.599  75.910  1.00  0.00     0.220 C 
ATOM      4  N   UNL     1      84.704  66.824  77.232  1.00  0.00    -0.352 N 
ATOM      5  H   UNL     1      83.953  67.292  77.720  1.00  0.00     0.163 HD
ATOM      6  O   UNL     1      85.329  66.069  75.168  1.00  0.00    -0.275 OA
BRANCH   4   7
ATOM      7  C   UNL     1      85.887  66.455  77.939  1.00  0.00     0.151 C 
BRANCH   7   8
ATOM      8  C   UNL     1      86.484  67.591  78.687  1.00  0.00    -0.025 A 
ATOM      9  C   UNL     1      87.612  68.476  80.686  1.00  0.00     0.160 A 
ATOM     10  C   UNL     1      87.574  69.774  80.131  1.00  0.00     0.157 A 
ATOM     11  C   UNL     1      87.060  67.398  79.965  1.00  0.00     0.056 A 
ATOM     12  C   UNL     1      87.020  69.975  78.854  1.00  0.00     0.050 A 
ATOM     13  C   UNL     1      86.488  68.890  78.132  1.00  0.00     0.009 A 
BRANCH   9  14
ATOM     14  O   UNL     1      88.227  68.255  81.889  1.00  0.00    -0.493 OA
ATOM     15  C   UNL     1      89.534  67.667  81.782  1.00  0.00     0.278 C 
ENDBRANCH   9  14
BRANCH  10  16
ATOM     16  O   UNL     1      88.069  70.843  80.805  1.00  0.00    -0.504 OA
ATOM     17  H   UNL     1      88.988  70.977  80.560  1.00  0.00     0.293 HD
ENDBRANCH  10  16
ENDBRANCH   7   8
ENDBRANCH   4   7
ENDBRANCH   2   3
ENDBRANCH   1   2
BRANCH   1  18
ATOM     18  C   UNL     1      81.658  65.037  76.153  1.00  0.00     0.001 C 
BRANCH  18  19
ATOM     19  C   UNL     1      81.801  64.443  74.728  1.00  0.00     0.004 C 
BRANCH  19  20
ATOM     20  C   UNL     1      80.414  64.128  74.104  1.00  0.00     0.027 C 
BRANCH  20  21
ATOM     21  C   UNL     1      80.045  65.020  73.017  1.00  0.00    -0.031 C 
ATOM     22  C   UNL     1      80.770  66.109  72.704  1.00  0.00    -0.028 C 
BRANCH  22  23
ATOM     23  C   UNL     1      80.430  67.021  71.616  1.00  0.00     0.005 C 
ATOM     24  C   UNL     1      81.678  67.839  71.190  1.00  0.00     0.012 C 
ATOM     25  C   UNL     1      79.808  66.235  70.430  1.00  0.00     0.012 C 
ENDBRANCH  22  23
ENDBRANCH  20  21
ENDBRANCH  19  20
ENDBRANCH  18  19
ENDBRANCH   1  18
TORSDOF 11
ENDMDL
