MODEL 1
REMARK VINA RESULT:    -7.025      0.000      0.000
REMARK INTER + INTRA:         -12.726
REMARK INTER:                 -11.542
REMARK INTRA:                  -1.184
REMARK UNBOUND:                -1.184
REMARK SMILES CCCCC[C@H](O)CC(=O)CCc1ccc(O)c(OC)c1
REMARK SMILES IDX 8 1 6 2 7 3 5 5 4 6 3 7 2 8 1 9 9 10 10 11 11 12 12 13 13 14
REMARK SMILES IDX 21 15 14 16 18 17 15 18 16 19 19 20 20 21 17 22
REMARK H PARENT 7 4 17 23
REMARK Flexibility Score: inf
ROOT
ATOM      1  C   UNL     1      90.019  92.687  72.955  1.00  0.00     0.107 C 
ENDROOT
BRANCH   1   2
ATOM      2  C   UNL     1      91.098  92.500  74.024  1.00  0.00     0.121 C 
BRANCH   2   3
ATOM      3  O   UNL     1      92.162  91.706  73.503  1.00  0.00    -0.393 OA
ATOM      4  H   UNL     1      92.156  91.800  72.535  1.00  0.00     0.210 HD
ENDBRANCH   2   3
BRANCH   2   5
ATOM      5  C   UNL     1      91.665  93.827  74.543  1.00  0.00     0.032 C 
BRANCH   5   6
ATOM      6  C   UNL     1      91.207  94.129  75.975  1.00  0.00     0.003 C 
BRANCH   6   7
ATOM      7  C   UNL     1      92.240  93.741  77.037  1.00  0.00    -0.000 C 
BRANCH   7   8
ATOM      8  C   UNL     1      93.673  93.697  76.510  1.00  0.00    -0.003 C 
ATOM      9  C   UNL     1      94.635  94.392  77.461  1.00  0.00     0.004 C 
ENDBRANCH   7   8
ENDBRANCH   6   7
ENDBRANCH   5   6
ENDBRANCH   2   5
ENDBRANCH   1   2
BRANCH   1  10
ATOM     10  C   UNL     1      89.879  91.486  72.033  1.00  0.00     0.135 C 
ATOM     11  O   UNL     1      90.735  91.237  71.184  1.00  0.00    -0.300 OA
BRANCH  10  12
ATOM     12  C   UNL     1      88.662  90.599  72.249  1.00  0.00     0.080 C 
BRANCH  12  13
ATOM     13  C   UNL     1      88.111  90.648  73.675  1.00  0.00     0.043 C 
BRANCH  13  14
ATOM     14  C   UNL     1      88.910  89.814  74.648  1.00  0.00    -0.044 A 
ATOM     15  C   UNL     1      88.973  90.179  75.993  1.00  0.00     0.054 A 
ATOM     16  C   UNL     1      89.586  88.678  74.201  1.00  0.00     0.008 A 
ATOM     17  C   UNL     1      89.711  89.408  76.891  1.00  0.00     0.160 A 
ATOM     18  C   UNL     1      90.324  87.907  75.099  1.00  0.00     0.050 A 
ATOM     19  C   UNL     1      90.387  88.272  76.443  1.00  0.00     0.157 A 
BRANCH  17  20
ATOM     20  O   UNL     1      89.765  89.774  78.202  1.00  0.00    -0.493 OA
ATOM     21  C   UNL     1      90.391  91.021  78.500  1.00  0.00     0.278 C 
ENDBRANCH  17  20
BRANCH  19  22
ATOM     22  O   UNL     1      91.111  87.511  77.311  1.00  0.00    -0.504 OA
ATOM     23  H   UNL     1      90.880  87.763  78.222  1.00  0.00     0.293 HD
ENDBRANCH  19  22
ENDBRANCH  13  14
ENDBRANCH  12  13
ENDBRANCH  10  12
ENDBRANCH   1  10
TORSDOF 12
ENDMDL
MODEL 2
REMARK VINA RESULT:    -6.982      1.634      4.599
REMARK INTER + INTRA:         -12.655
REMARK INTER:                 -10.949
REMARK INTRA:                  -1.705
REMARK UNBOUND:                -1.184
REMARK SMILES CCCCC[C@H](O)CC(=O)CCc1ccc(O)c(OC)c1
REMARK SMILES IDX 8 1 6 2 7 3 5 5 4 6 3 7 2 8 1 9 9 10 10 11 11 12 12 13 13 14
REMARK SMILES IDX 21 15 14 16 18 17 15 18 16 19 19 20 20 21 17 22
REMARK H PARENT 7 4 17 23
REMARK Flexibility Score: inf
ROOT
ATOM      1  C   UNL     1      90.246  89.748  77.475  1.00  0.00     0.107 C 
ENDROOT
BRANCH   1   2
ATOM      2  C   UNL     1      89.825  91.029  76.752  1.00  0.00     0.121 C 
BRANCH   2   3
ATOM      3  O   UNL     1      88.447  90.953  76.396  1.00  0.00    -0.393 OA
ATOM      4  H   UNL     1      88.263  90.041  76.111  1.00  0.00     0.210 HD
ENDBRANCH   2   3
BRANCH   2   5
ATOM      5  C   UNL     1      90.062  92.294  77.585  1.00  0.00     0.032 C 
BRANCH   5   6
ATOM      6  C   UNL     1      89.841  93.573  76.768  1.00  0.00     0.003 C 
BRANCH   6   7
ATOM      7  C   UNL     1      91.133  94.351  76.497  1.00  0.00    -0.000 C 
BRANCH   7   8
ATOM      8  C   UNL     1      92.387  93.658  77.027  1.00  0.00    -0.003 C 
ATOM      9  C   UNL     1      93.519  93.709  76.012  1.00  0.00     0.004 C 
ENDBRANCH   7   8
ENDBRANCH   6   7
ENDBRANCH   5   6
ENDBRANCH   2   5
ENDBRANCH   1   2
BRANCH   1  10
ATOM     10  C   UNL     1      90.224  88.522  76.577  1.00  0.00     0.135 C 
ATOM     11  O   UNL     1      89.281  87.732  76.607  1.00  0.00    -0.300 OA
BRANCH  10  12
ATOM     12  C   UNL     1      91.396  88.356  75.621  1.00  0.00     0.080 C 
BRANCH  12  13
ATOM     13  C   UNL     1      91.002  88.441  74.145  1.00  0.00     0.043 C 
BRANCH  13  14
ATOM     14  C   UNL     1      90.619  89.837  73.714  1.00  0.00    -0.044 A 
ATOM     15  C   UNL     1      89.347  90.084  73.198  1.00  0.00     0.054 A 
ATOM     16  C   UNL     1      91.539  90.880  73.833  1.00  0.00     0.008 A 
ATOM     17  C   UNL     1      88.995  91.374  72.801  1.00  0.00     0.160 A 
ATOM     18  C   UNL     1      91.187  92.170  73.436  1.00  0.00     0.050 A 
ATOM     19  C   UNL     1      89.914  92.417  72.920  1.00  0.00     0.157 A 
BRANCH  17  20
ATOM     20  O   UNL     1      87.750  91.603  72.298  1.00  0.00    -0.493 OA
ATOM     21  C   UNL     1      86.713  90.709  72.701  1.00  0.00     0.278 C 
ENDBRANCH  17  20
BRANCH  19  22
ATOM     22  O   UNL     1      89.582  93.680  72.536  1.00  0.00    -0.504 OA
ATOM     23  H   UNL     1      88.896  93.632  71.847  1.00  0.00     0.293 HD
ENDBRANCH  19  22
ENDBRANCH  13  14
ENDBRANCH  12  13
ENDBRANCH  10  12
ENDBRANCH   1  10
TORSDOF 12
ENDMDL
MODEL 3
REMARK VINA RESULT:    -6.926      0.940      2.034
REMARK INTER + INTRA:         -12.564
REMARK INTER:                 -11.305
REMARK INTRA:                  -1.259
REMARK UNBOUND:                -1.184
REMARK SMILES CCCCC[C@H](O)CC(=O)CCc1ccc(O)c(OC)c1
REMARK SMILES IDX 8 1 6 2 7 3 5 5 4 6 3 7 2 8 1 9 9 10 10 11 11 12 12 13 13 14
REMARK SMILES IDX 21 15 14 16 18 17 15 18 16 19 19 20 20 21 17 22
REMARK H PARENT 7 4 17 23
REMARK Flexibility Score: inf
ROOT
ATOM      1  C   UNL     1      89.998  92.392  72.390  1.00  0.00     0.107 C 
ENDROOT
BRANCH   1   2
ATOM      2  C   UNL     1      91.004  92.182  73.525  1.00  0.00     0.121 C 
BRANCH   2   3
ATOM      3  O   UNL     1      92.160  91.513  73.028  1.00  0.00    -0.393 OA
ATOM      4  H   UNL     1      92.378  90.795  73.648  1.00  0.00     0.210 HD
ENDBRANCH   2   3
BRANCH   2   5
ATOM      5  C   UNL     1      91.428  93.492  74.200  1.00  0.00     0.032 C 
BRANCH   5   6
ATOM      6  C   UNL     1      90.487  93.881  75.347  1.00  0.00     0.003 C 
BRANCH   6   7
ATOM      7  C   UNL     1      90.955  93.373  76.714  1.00  0.00    -0.000 C 
BRANCH   7   8
ATOM      8  C   UNL     1      92.433  92.989  76.752  1.00  0.00    -0.003 C 
ATOM      9  C   UNL     1      93.294  94.146  77.235  1.00  0.00     0.004 C 
ENDBRANCH   7   8
ENDBRANCH   6   7
ENDBRANCH   5   6
ENDBRANCH   2   5
ENDBRANCH   1   2
BRANCH   1  10
ATOM     10  C   UNL     1      89.574  91.094  71.722  1.00  0.00     0.135 C 
ATOM     11  O   UNL     1      90.303  90.538  70.900  1.00  0.00    -0.300 OA
BRANCH  10  12
ATOM     12  C   UNL     1      88.239  90.509  72.155  1.00  0.00     0.080 C 
BRANCH  12  13
ATOM     13  C   UNL     1      87.818  90.918  73.568  1.00  0.00     0.043 C 
BRANCH  13  14
ATOM     14  C   UNL     1      88.566  90.174  74.648  1.00  0.00    -0.044 A 
ATOM     15  C   UNL     1      89.145  88.935  74.370  1.00  0.00     0.054 A 
ATOM     16  C   UNL     1      88.679  90.725  75.925  1.00  0.00     0.008 A 
ATOM     17  C   UNL     1      89.837  88.249  75.368  1.00  0.00     0.160 A 
ATOM     18  C   UNL     1      89.370  90.039  76.923  1.00  0.00     0.050 A 
ATOM     19  C   UNL     1      89.949  88.801  76.644  1.00  0.00     0.157 A 
BRANCH  17  20
ATOM     20  O   UNL     1      90.397  87.040  75.084  1.00  0.00    -0.493 OA
ATOM     21  C   UNL     1      91.697  87.050  74.498  1.00  0.00     0.278 C 
ENDBRANCH  17  20
BRANCH  19  22
ATOM     22  O   UNL     1      90.622  88.140  77.627  1.00  0.00    -0.504 OA
ATOM     23  H   UNL     1      91.140  87.420  77.228  1.00  0.00     0.293 HD
ENDBRANCH  19  22
ENDBRANCH  13  14
ENDBRANCH  12  13
ENDBRANCH  10  12
ENDBRANCH   1  10
TORSDOF 12
ENDMDL
MODEL 4
REMARK VINA RESULT:    -6.752      1.560      4.513
REMARK INTER + INTRA:         -12.278
REMARK INTER:                 -10.495
REMARK INTRA:                  -1.783
REMARK UNBOUND:                -1.184
REMARK SMILES CCCCC[C@H](O)CC(=O)CCc1ccc(O)c(OC)c1
REMARK SMILES IDX 8 1 6 2 7 3 5 5 4 6 3 7 2 8 1 9 9 10 10 11 11 12 12 13 13 14
REMARK SMILES IDX 21 15 14 16 18 17 15 18 16 19 19 20 20 21 17 22
REMARK H PARENT 7 4 17 23
REMARK Flexibility Score: inf
ROOT
ATOM      1  C   UNL     1      91.434  93.447  74.033  1.00  0.00     0.107 C 
ENDROOT
BRANCH   1   2
ATOM      2  C   UNL     1      91.890  92.133  73.394  1.00  0.00     0.121 C 
BRANCH   2   3
ATOM      3  O   UNL     1      92.411  91.263  74.397  1.00  0.00    -0.393 OA
ATOM      4  H   UNL     1      91.860  90.461  74.410  1.00  0.00     0.210 HD
ENDBRANCH   2   3
BRANCH   2   5
ATOM      5  C   UNL     1      90.769  91.413  72.635  1.00  0.00     0.032 C 
BRANCH   5   6
ATOM      6  C   UNL     1      89.865  92.393  71.877  1.00  0.00     0.003 C 
BRANCH   6   7
ATOM      7  C   UNL     1      88.381  92.247  72.229  1.00  0.00    -0.000 C 
BRANCH   7   8
ATOM      8  C   UNL     1      88.094  91.110  73.208  1.00  0.00    -0.003 C 
ATOM      9  C   UNL     1      87.206  90.048  72.579  1.00  0.00     0.004 C 
ENDBRANCH   7   8
ENDBRANCH   6   7
ENDBRANCH   5   6
ENDBRANCH   2   5
ENDBRANCH   1   2
BRANCH   1  10
ATOM     10  C   UNL     1      92.144  93.750  75.343  1.00  0.00     0.135 C 
ATOM     11  O   UNL     1      93.373  93.767  75.407  1.00  0.00    -0.300 OA
BRANCH  10  12
ATOM     12  C   UNL     1      91.261  94.072  76.538  1.00  0.00     0.080 C 
BRANCH  12  13
ATOM     13  C   UNL     1      89.895  93.385  76.497  1.00  0.00     0.043 C 
BRANCH  13  14
ATOM     14  C   UNL     1      89.930  91.967  77.016  1.00  0.00    -0.044 A 
ATOM     15  C   UNL     1      89.639  90.903  76.161  1.00  0.00     0.054 A 
ATOM     16  C   UNL     1      90.255  91.721  78.350  1.00  0.00     0.008 A 
ATOM     17  C   UNL     1      89.673  89.594  76.642  1.00  0.00     0.160 A 
ATOM     18  C   UNL     1      90.289  90.412  78.831  1.00  0.00     0.050 A 
ATOM     19  C   UNL     1      89.997  89.348  77.976  1.00  0.00     0.157 A 
BRANCH  17  20
ATOM     20  O   UNL     1      89.386  88.564  75.798  1.00  0.00    -0.493 OA
ATOM     21  C   UNL     1      90.319  88.304  74.751  1.00  0.00     0.278 C 
ENDBRANCH  17  20
BRANCH  19  22
ATOM     22  O   UNL     1      90.033  88.074  78.457  1.00  0.00    -0.504 OA
ATOM     23  H   UNL     1      89.476  87.508  77.895  1.00  0.00     0.293 HD
ENDBRANCH  19  22
ENDBRANCH  13  14
ENDBRANCH  12  13
ENDBRANCH  10  12
ENDBRANCH   1  10
TORSDOF 12
ENDMDL
MODEL 5
REMARK VINA RESULT:    -6.319      2.547      6.510
REMARK INTER + INTRA:         -11.567
REMARK INTER:                 -10.458
REMARK INTRA:                  -1.108
REMARK UNBOUND:                -1.184
REMARK SMILES CCCCC[C@H](O)CC(=O)CCc1ccc(O)c(OC)c1
REMARK SMILES IDX 8 1 6 2 7 3 5 5 4 6 3 7 2 8 1 9 9 10 10 11 11 12 12 13 13 14
REMARK SMILES IDX 21 15 14 16 18 17 15 18 16 19 19 20 20 21 17 22
REMARK H PARENT 7 4 17 23
REMARK Flexibility Score: inf
ROOT
ATOM      1  C   UNL     1      89.548  91.310  75.983  1.00  0.00     0.107 C 
ENDROOT
BRANCH   1   2
ATOM      2  C   UNL     1      89.903  89.942  75.396  1.00  0.00     0.121 C 
BRANCH   2   3
ATOM      3  O   UNL     1      89.650  88.921  76.359  1.00  0.00    -0.393 OA
ATOM      4  H   UNL     1      90.345  88.974  77.038  1.00  0.00     0.210 HD
ENDBRANCH   2   3
BRANCH   2   5
ATOM      5  C   UNL     1      89.132  89.623  74.109  1.00  0.00     0.032 C 
BRANCH   5   6
ATOM      6  C   UNL     1      89.924  90.007  72.853  1.00  0.00     0.003 C 
BRANCH   6   7
ATOM      7  C   UNL     1      89.086  90.761  71.815  1.00  0.00    -0.000 C 
BRANCH   7   8
ATOM      8  C   UNL     1      88.467  92.051  72.349  1.00  0.00    -0.003 C 
ATOM      9  C   UNL     1      89.514  93.142  72.513  1.00  0.00     0.004 C 
ENDBRANCH   7   8
ENDBRANCH   6   7
ENDBRANCH   5   6
ENDBRANCH   2   5
ENDBRANCH   1   2
BRANCH   1  10
ATOM     10  C   UNL     1      90.202  91.567  77.331  1.00  0.00     0.135 C 
ATOM     11  O   UNL     1      90.015  90.807  78.281  1.00  0.00    -0.300 OA
BRANCH  10  12
ATOM     12  C   UNL     1      91.124  92.774  77.422  1.00  0.00     0.080 C 
BRANCH  12  13
ATOM     13  C   UNL     1      91.868  93.079  76.120  1.00  0.00     0.043 C 
BRANCH  13  14
ATOM     14  C   UNL     1      93.255  93.632  76.347  1.00  0.00    -0.044 A 
ATOM     15  C   UNL     1      93.644  94.039  77.623  1.00  0.00     0.054 A 
ATOM     16  C   UNL     1      94.147  93.735  75.279  1.00  0.00     0.008 A 
ATOM     17  C   UNL     1      94.926  94.549  77.831  1.00  0.00     0.160 A 
ATOM     18  C   UNL     1      95.428  94.245  75.487  1.00  0.00     0.050 A 
ATOM     19  C   UNL     1      95.818  94.653  76.763  1.00  0.00     0.157 A 
BRANCH  17  20
ATOM     20  O   UNL     1      95.294  94.944  79.081  1.00  0.00    -0.493 OA
ATOM     21  C   UNL     1      95.719  93.925  79.984  1.00  0.00     0.278 C 
ENDBRANCH  17  20
BRANCH  19  22
ATOM     22  O   UNL     1      97.071  95.149  76.954  1.00  0.00    -0.504 OA
ATOM     23  H   UNL     1      97.015  96.111  77.087  1.00  0.00     0.293 HD
ENDBRANCH  19  22
ENDBRANCH  13  14
ENDBRANCH  12  13
ENDBRANCH  10  12
ENDBRANCH   1  10
TORSDOF 12
ENDMDL
MODEL 6
REMARK VINA RESULT:    -6.255      2.470      5.014
REMARK INTER + INTRA:         -11.461
REMARK INTER:                 -10.442
REMARK INTRA:                  -1.020
REMARK UNBOUND:                -1.184
REMARK SMILES CCCCC[C@H](O)CC(=O)CCc1ccc(O)c(OC)c1
REMARK SMILES IDX 8 1 6 2 7 3 5 5 4 6 3 7 2 8 1 9 9 10 10 11 11 12 12 13 13 14
REMARK SMILES IDX 21 15 14 16 18 17 15 18 16 19 19 20 20 21 17 22
REMARK H PARENT 7 4 17 23
REMARK Flexibility Score: inf
ROOT
ATOM      1  C   UNL     1      94.808  93.981  75.375  1.00  0.00     0.107 C 
ENDROOT
BRANCH   1   2
ATOM      2  C   UNL     1      95.741  93.932  76.587  1.00  0.00     0.121 C 
BRANCH   2   3
ATOM      3  O   UNL     1      96.749  92.945  76.382  1.00  0.00    -0.393 OA
ATOM      4  H   UNL     1      96.306  92.084  76.285  1.00  0.00     0.210 HD
ENDBRANCH   2   3
BRANCH   2   5
ATOM      5  C   UNL     1      96.409  95.280  76.884  1.00  0.00     0.032 C 
BRANCH   5   6
ATOM      6  C   UNL     1      96.363  95.630  78.377  1.00  0.00     0.003 C 
BRANCH   6   7
ATOM      7  C   UNL     1      95.412  94.736  79.180  1.00  0.00    -0.000 C 
BRANCH   7   8
ATOM      8  C   UNL     1      95.304  95.125  80.653  1.00  0.00    -0.003 C 
ATOM      9  C   UNL     1      95.891  94.051  81.555  1.00  0.00     0.004 C 
ENDBRANCH   7   8
ENDBRANCH   6   7
ENDBRANCH   5   6
ENDBRANCH   2   5
ENDBRANCH   1   2
BRANCH   1  10
ATOM     10  C   UNL     1      93.609  94.892  75.582  1.00  0.00     0.135 C 
ATOM     11  O   UNL     1      93.380  95.823  74.810  1.00  0.00    -0.300 OA
BRANCH  10  12
ATOM     12  C   UNL     1      92.697  94.563  76.755  1.00  0.00     0.080 C 
BRANCH  12  13
ATOM     13  C   UNL     1      91.211  94.546  76.392  1.00  0.00     0.043 C 
BRANCH  13  14
ATOM     14  C   UNL     1      90.676  93.154  76.155  1.00  0.00    -0.044 A 
ATOM     15  C   UNL     1      90.450  92.706  74.854  1.00  0.00     0.054 A 
ATOM     16  C   UNL     1      90.408  92.317  77.238  1.00  0.00     0.008 A 
ATOM     17  C   UNL     1      89.956  91.420  74.636  1.00  0.00     0.160 A 
ATOM     18  C   UNL     1      89.914  91.030  77.020  1.00  0.00     0.050 A 
ATOM     19  C   UNL     1      89.688  90.582  75.719  1.00  0.00     0.157 A 
BRANCH  17  20
ATOM     20  O   UNL     1      89.738  90.993  73.361  1.00  0.00    -0.493 OA
ATOM     21  C   UNL     1      90.571  91.544  72.342  1.00  0.00     0.278 C 
ENDBRANCH  17  20
BRANCH  19  22
ATOM     22  O   UNL     1      89.205  89.324  75.519  1.00  0.00    -0.504 OA
ATOM     23  H   UNL     1      89.885  88.679  75.780  1.00  0.00     0.293 HD
ENDBRANCH  19  22
ENDBRANCH  13  14
ENDBRANCH  12  13
ENDBRANCH  10  12
ENDBRANCH   1  10
TORSDOF 12
ENDMDL
MODEL 7
REMARK VINA RESULT:    -6.178      2.318      4.251
REMARK INTER + INTRA:         -11.335
REMARK INTER:                 -10.577
REMARK INTRA:                  -0.758
REMARK UNBOUND:                -1.184
REMARK SMILES CCCCC[C@H](O)CC(=O)CCc1ccc(O)c(OC)c1
REMARK SMILES IDX 8 1 6 2 7 3 5 5 4 6 3 7 2 8 1 9 9 10 10 11 11 12 12 13 13 14
REMARK SMILES IDX 21 15 14 16 18 17 15 18 16 19 19 20 20 21 17 22
REMARK H PARENT 7 4 17 23
REMARK Flexibility Score: inf
ROOT
ATOM      1  C   UNL     1      92.615  94.774  75.877  1.00  0.00     0.107 C 
ENDROOT
BRANCH   1   2
ATOM      2  C   UNL     1      93.852  94.010  76.358  1.00  0.00     0.121 C 
BRANCH   2   3
ATOM      3  O   UNL     1      94.691  93.702  75.247  1.00  0.00    -0.393 OA
ATOM      4  H   UNL     1      95.613  93.716  75.558  1.00  0.00     0.210 HD
ENDBRANCH   2   3
BRANCH   2   5
ATOM      5  C   UNL     1      94.664  94.781  77.405  1.00  0.00     0.032 C 
BRANCH   5   6
ATOM      6  C   UNL     1      94.765  94.018  78.732  1.00  0.00     0.003 C 
BRANCH   6   7
ATOM      7  C   UNL     1      95.764  94.639  79.714  1.00  0.00    -0.000 C 
BRANCH   7   8
ATOM      8  C   UNL     1      95.112  95.529  80.770  1.00  0.00    -0.003 C 
ATOM      9  C   UNL     1      96.062  95.807  81.924  1.00  0.00     0.004 C 
ENDBRANCH   7   8
ENDBRANCH   6   7
ENDBRANCH   5   6
ENDBRANCH   2   5
ENDBRANCH   1   2
BRANCH   1  10
ATOM     10  C   UNL     1      91.321  94.249  76.477  1.00  0.00     0.135 C 
ATOM     11  O   UNL     1      90.249  94.816  76.264  1.00  0.00    -0.300 OA
BRANCH  10  12
ATOM     12  C   UNL     1      91.419  92.977  77.304  1.00  0.00     0.080 C 
BRANCH  12  13
ATOM     13  C   UNL     1      90.065  92.330  77.601  1.00  0.00     0.043 C 
BRANCH  13  14
ATOM     14  C   UNL     1      89.872  91.009  76.895  1.00  0.00    -0.044 A 
ATOM     15  C   UNL     1      89.433  90.982  75.571  1.00  0.00     0.054 A 
ATOM     16  C   UNL     1      90.134  89.815  77.567  1.00  0.00     0.008 A 
ATOM     17  C   UNL     1      89.257  89.761  74.920  1.00  0.00     0.160 A 
ATOM     18  C   UNL     1      89.958  88.594  76.916  1.00  0.00     0.050 A 
ATOM     19  C   UNL     1      89.519  88.567  75.592  1.00  0.00     0.157 A 
BRANCH  17  20
ATOM     20  O   UNL     1      88.827  89.748  73.627  1.00  0.00    -0.493 OA
ATOM     21  C   UNL     1      87.789  90.662  73.280  1.00  0.00     0.278 C 
ENDBRANCH  17  20
BRANCH  19  22
ATOM     22  O   UNL     1      89.350  87.369  74.967  1.00  0.00    -0.504 OA
ATOM     23  H   UNL     1      88.954  86.738  75.592  1.00  0.00     0.293 HD
ENDBRANCH  19  22
ENDBRANCH  13  14
ENDBRANCH  12  13
ENDBRANCH  10  12
ENDBRANCH   1  10
TORSDOF 12
ENDMDL
MODEL 8
REMARK VINA RESULT:    -6.065      3.163      5.777
REMARK INTER + INTRA:         -11.150
REMARK INTER:                 -10.186
REMARK INTRA:                  -0.963
REMARK UNBOUND:                -1.184
REMARK SMILES CCCCC[C@H](O)CC(=O)CCc1ccc(O)c(OC)c1
REMARK SMILES IDX 8 1 6 2 7 3 5 5 4 6 3 7 2 8 1 9 9 10 10 11 11 12 12 13 13 14
REMARK SMILES IDX 21 15 14 16 18 17 15 18 16 19 19 20 20 21 17 22
REMARK H PARENT 7 4 17 23
REMARK Flexibility Score: inf
ROOT
ATOM      1  C   UNL     1      95.746  93.689  77.452  1.00  0.00     0.107 C 
ENDROOT
BRANCH   1   2
ATOM      2  C   UNL     1      94.978  94.413  78.560  1.00  0.00     0.121 C 
BRANCH   2   3
ATOM      3  O   UNL     1      94.497  93.467  79.513  1.00  0.00    -0.393 OA
ATOM      4  H   UNL     1      94.581  92.581  79.120  1.00  0.00     0.210 HD
ENDBRANCH   2   3
BRANCH   2   5
ATOM      5  C   UNL     1      95.821  95.472  79.282  1.00  0.00     0.032 C 
BRANCH   5   6
ATOM      6  C   UNL     1      96.369  94.959  80.619  1.00  0.00     0.003 C 
BRANCH   6   7
ATOM      7  C   UNL     1      95.899  95.782  81.823  1.00  0.00    -0.000 C 
BRANCH   7   8
ATOM      8  C   UNL     1      97.042  96.375  82.644  1.00  0.00    -0.003 C 
ATOM      9  C   UNL     1      98.354  96.335  81.876  1.00  0.00     0.004 C 
ENDBRANCH   7   8
ENDBRANCH   6   7
ENDBRANCH   5   6
ENDBRANCH   2   5
ENDBRANCH   1   2
BRANCH   1  10
ATOM     10  C   UNL     1      95.313  94.108  76.056  1.00  0.00     0.135 C 
ATOM     11  O   UNL     1      96.068  93.975  75.093  1.00  0.00    -0.300 OA
BRANCH  10  12
ATOM     12  C   UNL     1      93.900  94.651  75.914  1.00  0.00     0.080 C 
BRANCH  12  13
ATOM     13  C   UNL     1      93.014  93.824  74.980  1.00  0.00     0.043 C 
BRANCH  13  14
ATOM     14  C   UNL     1      92.136  92.839  75.715  1.00  0.00    -0.044 A 
ATOM     15  C   UNL     1      91.637  91.719  75.051  1.00  0.00     0.054 A 
ATOM     16  C   UNL     1      91.825  93.050  77.059  1.00  0.00     0.008 A 
ATOM     17  C   UNL     1      90.827  90.809  75.731  1.00  0.00     0.160 A 
ATOM     18  C   UNL     1      91.015  92.141  77.739  1.00  0.00     0.050 A 
ATOM     19  C   UNL     1      90.516  91.020  77.075  1.00  0.00     0.157 A 
BRANCH  17  20
ATOM     20  O   UNL     1      90.345  89.719  75.072  1.00  0.00    -0.493 OA
ATOM     21  C   UNL     1      91.286  88.707  74.717  1.00  0.00     0.278 C 
ENDBRANCH  17  20
BRANCH  19  22
ATOM     22  O   UNL     1      89.726  90.139  77.749  1.00  0.00    -0.504 OA
ATOM     23  H   UNL     1      88.799  90.423  77.673  1.00  0.00     0.293 HD
ENDBRANCH  19  22
ENDBRANCH  13  14
ENDBRANCH  12  13
ENDBRANCH  10  12
ENDBRANCH   1  10
TORSDOF 12
ENDMDL
MODEL 9
REMARK VINA RESULT:    -5.928      2.740      5.408
REMARK INTER + INTRA:         -10.924
REMARK INTER:                 -10.298
REMARK INTRA:                  -0.625
REMARK UNBOUND:                -1.184
REMARK SMILES CCCCC[C@H](O)CC(=O)CCc1ccc(O)c(OC)c1
REMARK SMILES IDX 8 1 6 2 7 3 5 5 4 6 3 7 2 8 1 9 9 10 10 11 11 12 12 13 13 14
REMARK SMILES IDX 21 15 14 16 18 17 15 18 16 19 19 20 20 21 17 22
REMARK H PARENT 7 4 17 23
REMARK Flexibility Score: inf
ROOT
ATOM      1  C   UNL     1      94.448  93.805  76.440  1.00  0.00     0.107 C 
ENDROOT
BRANCH   1   2
ATOM      2  C   UNL     1      94.655  94.431  77.822  1.00  0.00     0.121 C 
BRANCH   2   3
ATOM      3  O   UNL     1      93.997  93.646  78.812  1.00  0.00    -0.393 OA
ATOM      4  H   UNL     1      94.127  92.709  78.584  1.00  0.00     0.210 HD
ENDBRANCH   2   3
BRANCH   2   5
ATOM      5  C   UNL     1      96.135  94.581  78.197  1.00  0.00     0.032 C 
BRANCH   5   6
ATOM      6  C   UNL     1      96.425  95.927  78.872  1.00  0.00     0.003 C 
BRANCH   6   7
ATOM      7  C   UNL     1      96.072  95.946  80.363  1.00  0.00    -0.000 C 
BRANCH   7   8
ATOM      8  C   UNL     1      96.816  94.892  81.181  1.00  0.00    -0.003 C 
ATOM      9  C   UNL     1      95.855  93.876  81.780  1.00  0.00     0.004 C 
ENDBRANCH   7   8
ENDBRANCH   6   7
ENDBRANCH   5   6
ENDBRANCH   2   5
ENDBRANCH   1   2
BRANCH   1  10
ATOM     10  C   UNL     1      93.601  94.666  75.517  1.00  0.00     0.135 C 
ATOM     11  O   UNL     1      94.054  95.699  75.023  1.00  0.00    -0.300 OA
BRANCH  10  12
ATOM     12  C   UNL     1      92.200  94.161  75.208  1.00  0.00     0.080 C 
BRANCH  12  13
ATOM     13  C   UNL     1      92.174  92.762  74.590  1.00  0.00     0.043 C 
BRANCH  13  14
ATOM     14  C   UNL     1      90.855  92.430  73.933  1.00  0.00    -0.044 A 
ATOM     15  C   UNL     1      90.253  91.193  74.163  1.00  0.00     0.054 A 
ATOM     16  C   UNL     1      90.239  93.361  73.096  1.00  0.00     0.008 A 
ATOM     17  C   UNL     1      89.034  90.888  73.557  1.00  0.00     0.160 A 
ATOM     18  C   UNL     1      89.020  93.056  72.490  1.00  0.00     0.050 A 
ATOM     19  C   UNL     1      88.418  91.819  72.720  1.00  0.00     0.157 A 
BRANCH  17  20
ATOM     20  O   UNL     1      88.456  89.676  73.788  1.00  0.00    -0.493 OA
ATOM     21  C   UNL     1      89.162  88.773  74.637  1.00  0.00     0.278 C 
ENDBRANCH  17  20
BRANCH  19  22
ATOM     22  O   UNL     1      87.228  91.532  72.122  1.00  0.00    -0.504 OA
ATOM     23  H   UNL     1      87.292  91.738  71.174  1.00  0.00     0.293 HD
ENDBRANCH  19  22
ENDBRANCH  13  14
ENDBRANCH  12  13
ENDBRANCH  10  12
ENDBRANCH   1  10
TORSDOF 12
ENDMDL
MODEL 10
REMARK VINA RESULT:    -5.882     12.492     15.299
REMARK INTER + INTRA:         -10.848
REMARK INTER:                  -8.743
REMARK INTRA:                  -2.105
REMARK UNBOUND:                -1.184
REMARK SMILES CCCCC[C@H](O)CC(=O)CCc1ccc(O)c(OC)c1
REMARK SMILES IDX 8 1 6 2 7 3 5 5 4 6 3 7 2 8 1 9 9 10 10 11 11 12 12 13 13 14
REMARK SMILES IDX 21 15 14 16 18 17 15 18 16 19 19 20 20 21 17 22
REMARK H PARENT 7 4 17 23
REMARK Flexibility Score: inf
ROOT
ATOM      1  C   UNL     1      80.759  86.133  85.187  1.00  0.00     0.107 C 
ENDROOT
BRANCH   1   2
ATOM      2  C   UNL     1      81.164  87.134  84.102  1.00  0.00     0.121 C 
BRANCH   2   3
ATOM      3  O   UNL     1      81.072  86.519  82.819  1.00  0.00    -0.393 OA
ATOM      4  H   UNL     1      80.354  86.958  82.329  1.00  0.00     0.210 HD
ENDBRANCH   2   3
BRANCH   2   5
ATOM      5  C   UNL     1      80.312  88.409  84.113  1.00  0.00     0.032 C 
BRANCH   5   6
ATOM      6  C   UNL     1      81.145  89.656  84.434  1.00  0.00     0.003 C 
BRANCH   6   7
ATOM      7  C   UNL     1      82.560  89.331  84.924  1.00  0.00    -0.000 C 
BRANCH   7   8
ATOM      8  C   UNL     1      83.565  90.455  84.682  1.00  0.00    -0.003 C 
ATOM      9  C   UNL     1      84.598  90.524  85.796  1.00  0.00     0.004 C 
ENDBRANCH   7   8
ENDBRANCH   6   7
ENDBRANCH   5   6
ENDBRANCH   2   5
ENDBRANCH   1   2
BRANCH   1  10
ATOM     10  C   UNL     1      81.895  85.792  86.136  1.00  0.00     0.135 C 
ATOM     11  O   UNL     1      82.963  85.350  85.712  1.00  0.00    -0.300 OA
BRANCH  10  12
ATOM     12  C   UNL     1      81.656  86.066  87.613  1.00  0.00     0.080 C 
BRANCH  12  13
ATOM     13  C   UNL     1      80.475  87.001  87.881  1.00  0.00     0.043 C 
BRANCH  13  14
ATOM     14  C   UNL     1      80.892  88.439  88.080  1.00  0.00    -0.044 A 
ATOM     15  C   UNL     1      82.150  88.735  88.605  1.00  0.00     0.054 A 
ATOM     16  C   UNL     1      80.019  89.472  87.738  1.00  0.00     0.008 A 
ATOM     17  C   UNL     1      82.535  90.063  88.787  1.00  0.00     0.160 A 
ATOM     18  C   UNL     1      80.403  90.800  87.920  1.00  0.00     0.050 A 
ATOM     19  C   UNL     1      81.661  91.096  88.445  1.00  0.00     0.157 A 
BRANCH  17  20
ATOM     20  O   UNL     1      83.766  90.340  89.301  1.00  0.00    -0.493 OA
ATOM     21  C   UNL     1      83.869  90.434  90.721  1.00  0.00     0.278 C 
ENDBRANCH  17  20
BRANCH  19  22
ATOM     22  O   UNL     1      82.025  92.397  88.618  1.00  0.00    -0.504 OA
ATOM     23  H   UNL     1      82.411  92.502  89.505  1.00  0.00     0.293 HD
ENDBRANCH  19  22
ENDBRANCH  13  14
ENDBRANCH  12  13
ENDBRANCH  10  12
ENDBRANCH   1  10
TORSDOF 12
ENDMDL
