MODEL 1
REMARK VINA RESULT:    -6.442      0.000      0.000
REMARK INTER + INTRA:         -10.524
REMARK INTER:                 -10.019
REMARK INTRA:                  -0.504
REMARK UNBOUND:                -0.504
REMARK SMILES COc1cc(CNC(=O)CCCCCC(C)C)ccc1O
REMARK SMILES IDX 10 1 8 2 7 3 9 5 6 6 5 7 3 8 20 9 4 10 19 11 18 12 2 13 1 14
REMARK SMILES IDX 21 15 11 17 12 18 13 19 14 20 15 21 16 22 17 23
REMARK H PARENT 7 4 21 16
REMARK Flexibility Score: inf
ROOT
ATOM      1  C   UNL     1      92.705  93.303  78.343  1.00  0.00     0.100 C 
ENDROOT
BRANCH   1   2
ATOM      2  C   UNL     1      94.166  93.458  78.501  1.00  0.00     0.220 C 
ATOM      3  N   UNL     1      94.722  93.343  79.739  1.00  0.00    -0.352 N 
ATOM      4  H   UNL     1      94.059  93.287  80.499  1.00  0.00     0.163 HD
ATOM      5  O   UNL     1      94.871  93.651  77.480  1.00  0.00    -0.275 OA
BRANCH   3   6
ATOM      6  C   UNL     1      96.124  93.298  80.010  1.00  0.00     0.151 C 
BRANCH   6   7
ATOM      7  C   UNL     1      96.596  94.440  80.838  1.00  0.00    -0.025 A 
ATOM      8  C   UNL     1      98.380  95.561  82.107  1.00  0.00     0.160 A 
ATOM      9  C   UNL     1      97.515  96.647  82.359  1.00  0.00     0.157 A 
ATOM     10  C   UNL     1      97.909  94.457  81.364  1.00  0.00     0.056 A 
ATOM     11  C   UNL     1      96.199  96.629  81.864  1.00  0.00     0.050 A 
ATOM     12  C   UNL     1      95.744  95.537  81.105  1.00  0.00     0.009 A 
BRANCH   8  13
ATOM     13  O   UNL     1      99.659  95.549  82.597  1.00  0.00    -0.493 OA
ATOM     14  C   UNL     1     100.619  96.187  81.733  1.00  0.00     0.278 C 
ENDBRANCH   8  13
BRANCH   9  15
ATOM     15  O   UNL     1      97.957  97.712  83.074  1.00  0.00    -0.504 OA
ATOM     16  H   UNL     1      97.802  98.518  82.576  1.00  0.00     0.293 HD
ENDBRANCH   9  15
ENDBRANCH   6   7
ENDBRANCH   3   6
ENDBRANCH   1   2
BRANCH   1  17
ATOM     17  C   UNL     1      92.017  94.470  77.585  1.00  0.00     0.010 C 
BRANCH  17  18
ATOM     18  C   UNL     1      90.622  94.055  77.041  1.00  0.00     0.001 C 
BRANCH  18  19
ATOM     19  C   UNL     1      90.457  92.522  76.874  1.00  0.00     0.000 C 
BRANCH  19  20
ATOM     20  C   UNL     1      90.822  92.043  75.439  1.00  0.00     0.003 C 
BRANCH  20  21
ATOM     21  C   UNL     1      89.910  90.909  74.868  1.00  0.00    -0.017 C 
ATOM     22  C   UNL     1      90.743  89.632  74.553  1.00  0.00     0.007 C 
ATOM     23  C   UNL     1      89.113  91.352  73.607  1.00  0.00     0.007 C 
ENDBRANCH  20  21
ENDBRANCH  19  20
ENDBRANCH  18  19
ENDBRANCH  17  18
ENDBRANCH   1  17
TORSDOF 10
ENDMDL
MODEL 2
REMARK VINA RESULT:    -6.021     12.249     14.452
REMARK INTER + INTRA:          -9.869
REMARK INTER:                  -9.018
REMARK INTRA:                  -0.851
REMARK UNBOUND:                -0.504
REMARK SMILES COc1cc(CNC(=O)CCCCCC(C)C)ccc1O
REMARK SMILES IDX 10 1 8 2 7 3 9 5 6 6 5 7 3 8 20 9 4 10 19 11 18 12 2 13 1 14
REMARK SMILES IDX 21 15 11 17 12 18 13 19 14 20 15 21 16 22 17 23
REMARK H PARENT 7 4 21 16
REMARK Flexibility Score: inf
ROOT
ATOM      1  C   UNL     1      97.020  80.371  82.085  1.00  0.00     0.100 C 
ENDROOT
BRANCH   1   2
ATOM      2  C   UNL     1      97.461  80.209  80.683  1.00  0.00     0.220 C 
ATOM      3  N   UNL     1      98.001  81.273  80.024  1.00  0.00    -0.352 N 
ATOM      4  H   UNL     1      97.939  82.153  80.515  1.00  0.00     0.163 HD
ATOM      5  O   UNL     1      97.366  79.081  80.142  1.00  0.00    -0.275 OA
BRANCH   3   6
ATOM      6  C   UNL     1      98.622  81.214  78.740  1.00  0.00     0.151 C 
BRANCH   6   7
ATOM      7  C   UNL     1      97.803  81.840  77.666  1.00  0.00    -0.025 A 
ATOM      8  C   UNL     1      97.478  82.428  75.301  1.00  0.00     0.160 A 
ATOM      9  C   UNL     1      96.213  82.971  75.611  1.00  0.00     0.157 A 
ATOM     10  C   UNL     1      98.272  81.883  76.332  1.00  0.00     0.056 A 
ATOM     11  C   UNL     1      95.748  82.957  76.939  1.00  0.00     0.050 A 
ATOM     12  C   UNL     1      96.533  82.391  77.958  1.00  0.00     0.009 A 
BRANCH   8  13
ATOM     13  O   UNL     1      97.958  82.449  74.018  1.00  0.00    -0.493 OA
ATOM     14  C   UNL     1      98.688  83.647  73.689  1.00  0.00     0.278 C 
ENDBRANCH   8  13
BRANCH   9  15
ATOM     15  O   UNL     1      95.443  83.499  74.628  1.00  0.00    -0.504 OA
ATOM     16  H   UNL     1      95.763  84.377  74.407  1.00  0.00     0.293 HD
ENDBRANCH   9  15
ENDBRANCH   6   7
ENDBRANCH   3   6
ENDBRANCH   1   2
BRANCH   1  17
ATOM     17  C   UNL     1      97.425  81.725  82.729  1.00  0.00     0.010 C 
BRANCH  17  18
ATOM     18  C   UNL     1      96.273  82.764  82.651  1.00  0.00     0.001 C 
BRANCH  18  19
ATOM     19  C   UNL     1      95.536  82.970  84.000  1.00  0.00     0.000 C 
BRANCH  19  20
ATOM     20  C   UNL     1      95.860  81.844  85.025  1.00  0.00     0.003 C 
BRANCH  20  21
ATOM     21  C   UNL     1      94.658  80.912  85.385  1.00  0.00    -0.017 C 
ATOM     22  C   UNL     1      94.968  79.434  85.006  1.00  0.00     0.007 C 
ATOM     23  C   UNL     1      93.324  81.364  84.722  1.00  0.00     0.007 C 
ENDBRANCH  20  21
ENDBRANCH  19  20
ENDBRANCH  18  19
ENDBRANCH  17  18
ENDBRANCH   1  17
TORSDOF 10
ENDMDL
MODEL 3
REMARK VINA RESULT:    -5.983     22.522     26.476
REMARK INTER + INTRA:          -9.810
REMARK INTER:                  -8.398
REMARK INTRA:                  -1.412
REMARK UNBOUND:                -0.504
REMARK SMILES COc1cc(CNC(=O)CCCCCC(C)C)ccc1O
REMARK SMILES IDX 10 1 8 2 7 3 9 5 6 6 5 7 3 8 20 9 4 10 19 11 18 12 2 13 1 14
REMARK SMILES IDX 21 15 11 17 12 18 13 19 14 20 15 21 16 22 17 23
REMARK H PARENT 7 4 21 16
REMARK Flexibility Score: inf
ROOT
ATOM      1  C   UNL     1      77.311  86.373  67.743  1.00  0.00     0.100 C 
ENDROOT
BRANCH   1   2
ATOM      2  C   UNL     1      77.129  85.187  66.881  1.00  0.00     0.220 C 
ATOM      3  N   UNL     1      76.218  85.228  65.868  1.00  0.00    -0.352 N 
ATOM      4  H   UNL     1      75.624  86.046  65.864  1.00  0.00     0.163 HD
ATOM      5  O   UNL     1      77.851  84.177  67.073  1.00  0.00    -0.275 OA
BRANCH   3   6
ATOM      6  C   UNL     1      76.062  84.229  64.861  1.00  0.00     0.151 C 
BRANCH   6   7
ATOM      7  C   UNL     1      74.842  83.397  65.046  1.00  0.00    -0.025 A 
ATOM      8  C   UNL     1      72.462  83.204  65.633  1.00  0.00     0.160 A 
ATOM      9  C   UNL     1      72.503  81.826  65.334  1.00  0.00     0.157 A 
ATOM     10  C   UNL     1      73.636  83.977  65.505  1.00  0.00     0.056 A 
ATOM     11  C   UNL     1      73.704  81.233  64.902  1.00  0.00     0.050 A 
ATOM     12  C   UNL     1      74.863  82.013  64.754  1.00  0.00     0.009 A 
BRANCH   8  13
ATOM     13  O   UNL     1      71.308  83.796  66.073  1.00  0.00    -0.493 OA
ATOM     14  C   UNL     1      70.644  84.593  65.073  1.00  0.00     0.278 C 
ENDBRANCH   8  13
BRANCH   9  15
ATOM     15  O   UNL     1      71.380  81.073  65.455  1.00  0.00    -0.504 OA
ATOM     16  H   UNL     1      70.864  81.387  66.201  1.00  0.00     0.293 HD
ENDBRANCH   9  15
ENDBRANCH   6   7
ENDBRANCH   3   6
ENDBRANCH   1   2
BRANCH   1  17
ATOM     17  C   UNL     1      77.236  87.728  66.989  1.00  0.00     0.010 C 
BRANCH  17  18
ATOM     18  C   UNL     1      76.806  88.885  67.933  1.00  0.00     0.001 C 
BRANCH  18  19
ATOM     19  C   UNL     1      75.310  89.270  67.794  1.00  0.00     0.000 C 
BRANCH  19  20
ATOM     20  C   UNL     1      74.441  88.679  68.943  1.00  0.00     0.003 C 
BRANCH  20  21
ATOM     21  C   UNL     1      73.559  87.453  68.540  1.00  0.00    -0.017 C 
ATOM     22  C   UNL     1      74.111  86.141  69.169  1.00  0.00     0.007 C 
ATOM     23  C   UNL     1      73.420  87.289  66.998  1.00  0.00     0.007 C 
ENDBRANCH  20  21
ENDBRANCH  19  20
ENDBRANCH  18  19
ENDBRANCH  17  18
ENDBRANCH   1  17
TORSDOF 10
ENDMDL
MODEL 4
REMARK VINA RESULT:    -5.785      4.902      8.448
REMARK INTER + INTRA:          -9.503
REMARK INTER:                  -8.797
REMARK INTRA:                  -0.706
REMARK UNBOUND:                -0.504
REMARK SMILES COc1cc(CNC(=O)CCCCCC(C)C)ccc1O
REMARK SMILES IDX 10 1 8 2 7 3 9 5 6 6 5 7 3 8 20 9 4 10 19 11 18 12 2 13 1 14
REMARK SMILES IDX 21 15 11 17 12 18 13 19 14 20 15 21 16 22 17 23
REMARK H PARENT 7 4 21 16
REMARK Flexibility Score: inf
ROOT
ATOM      1  C   UNL     1      92.573  94.336  77.662  1.00  0.00     0.100 C 
ENDROOT
BRANCH   1   2
ATOM      2  C   UNL     1      93.133  94.244  76.297  1.00  0.00     0.220 C 
ATOM      3  N   UNL     1      94.007  95.197  75.867  1.00  0.00    -0.352 N 
ATOM      4  H   UNL     1      94.111  95.989  76.485  1.00  0.00     0.163 HD
ATOM      5  O   UNL     1      92.822  93.265  75.576  1.00  0.00    -0.275 OA
BRANCH   3   6
ATOM      6  C   UNL     1      94.751  95.140  74.649  1.00  0.00     0.151 C 
BRANCH   6   7
ATOM      7  C   UNL     1      94.695  96.407  73.871  1.00  0.00    -0.025 A 
ATOM      8  C   UNL     1      95.491  97.802  72.009  1.00  0.00     0.160 A 
ATOM      9  C   UNL     1      94.543  98.791  72.347  1.00  0.00     0.157 A 
ATOM     10  C   UNL     1      95.574  96.625  72.783  1.00  0.00     0.056 A 
ATOM     11  C   UNL     1      93.682  98.595  73.443  1.00  0.00     0.050 A 
ATOM     12  C   UNL     1      93.753  97.411  74.196  1.00  0.00     0.009 A 
BRANCH   8  13
ATOM     13  O   UNL     1      96.351  97.981  70.957  1.00  0.00    -0.493 OA
ATOM     14  C   UNL     1      95.975  97.261  69.768  1.00  0.00     0.278 C 
ENDBRANCH   8  13
BRANCH   9  15
ATOM     15  O   UNL     1      94.457  99.926  71.611  1.00  0.00    -0.504 OA
ATOM     16  H   UNL     1      95.286 100.406  71.663  1.00  0.00     0.293 HD
ENDBRANCH   9  15
ENDBRANCH   6   7
ENDBRANCH   3   6
ENDBRANCH   1   2
BRANCH   1  17
ATOM     17  C   UNL     1      93.162  93.306  78.664  1.00  0.00     0.010 C 
BRANCH  17  18
ATOM     18  C   UNL     1      94.695  93.487  78.836  1.00  0.00     0.001 C 
BRANCH  18  19
ATOM     19  C   UNL     1      95.317  92.517  79.875  1.00  0.00     0.000 C 
BRANCH  19  20
ATOM     20  C   UNL     1      95.975  93.272  81.066  1.00  0.00     0.003 C 
BRANCH  20  21
ATOM     21  C   UNL     1      96.549  94.684  80.716  1.00  0.00    -0.017 C 
ATOM     22  C   UNL     1      98.094  94.718  80.909  1.00  0.00     0.007 C 
ATOM     23  C   UNL     1      95.883  95.827  81.535  1.00  0.00     0.007 C 
ENDBRANCH  20  21
ENDBRANCH  19  20
ENDBRANCH  18  19
ENDBRANCH  17  18
ENDBRANCH   1  17
TORSDOF 10
ENDMDL
MODEL 5
REMARK VINA RESULT:    -5.661      4.485      7.492
REMARK INTER + INTRA:          -9.309
REMARK INTER:                  -8.175
REMARK INTRA:                  -1.134
REMARK UNBOUND:                -0.504
REMARK SMILES COc1cc(CNC(=O)CCCCCC(C)C)ccc1O
REMARK SMILES IDX 10 1 8 2 7 3 9 5 6 6 5 7 3 8 20 9 4 10 19 11 18 12 2 13 1 14
REMARK SMILES IDX 21 15 11 17 12 18 13 19 14 20 15 21 16 22 17 23
REMARK H PARENT 7 4 21 16
REMARK Flexibility Score: inf
ROOT
ATOM      1  C   UNL     1      91.765  94.392  77.622  1.00  0.00     0.100 C 
ENDROOT
BRANCH   1   2
ATOM      2  C   UNL     1      92.141  95.514  76.735  1.00  0.00     0.220 C 
ATOM      3  N   UNL     1      93.006  95.292  75.705  1.00  0.00    -0.352 N 
ATOM      4  H   UNL     1      93.438  94.379  75.703  1.00  0.00     0.163 HD
ATOM      5  O   UNL     1      91.622  96.641  76.925  1.00  0.00    -0.275 OA
BRANCH   3   6
ATOM      6  C   UNL     1      93.318  96.232  74.678  1.00  0.00     0.151 C 
BRANCH   6   7
ATOM      7  C   UNL     1      94.768  96.559  74.606  1.00  0.00    -0.025 A 
ATOM      8  C   UNL     1      96.755  97.164  73.288  1.00  0.00     0.160 A 
ATOM      9  C   UNL     1      97.514  97.246  74.475  1.00  0.00     0.157 A 
ATOM     10  C   UNL     1      95.392  96.803  73.359  1.00  0.00     0.056 A 
ATOM     11  C   UNL     1      96.909  96.979  75.718  1.00  0.00     0.050 A 
ATOM     12  C   UNL     1      95.546  96.644  75.783  1.00  0.00     0.009 A 
BRANCH   8  13
ATOM     13  O   UNL     1      97.328  97.400  72.067  1.00  0.00    -0.493 OA
ATOM     14  C   UNL     1      96.569  96.884  70.957  1.00  0.00     0.278 C 
ENDBRANCH   8  13
BRANCH   9  15
ATOM     15  O   UNL     1      98.824  97.590  74.418  1.00  0.00    -0.504 OA
ATOM     16  H   UNL     1      99.230  97.452  75.277  1.00  0.00     0.293 HD
ENDBRANCH   9  15
ENDBRANCH   6   7
ENDBRANCH   3   6
ENDBRANCH   1   2
BRANCH   1  17
ATOM     17  C   UNL     1      92.756  93.198  77.595  1.00  0.00     0.010 C 
BRANCH  17  18
ATOM     18  C   UNL     1      93.709  93.217  78.822  1.00  0.00     0.001 C 
BRANCH  18  19
ATOM     19  C   UNL     1      94.949  94.128  78.624  1.00  0.00     0.000 C 
BRANCH  19  20
ATOM     20  C   UNL     1      96.103  93.772  79.607  1.00  0.00     0.003 C 
BRANCH  20  21
ATOM     21  C   UNL     1      97.075  94.951  79.937  1.00  0.00    -0.017 C 
ATOM     22  C   UNL     1      96.284  96.219  80.373  1.00  0.00     0.007 C 
ATOM     23  C   UNL     1      98.028  95.297  78.756  1.00  0.00     0.007 C 
ENDBRANCH  20  21
ENDBRANCH  19  20
ENDBRANCH  18  19
ENDBRANCH  17  18
ENDBRANCH   1  17
TORSDOF 10
ENDMDL
MODEL 6
REMARK VINA RESULT:    -5.618     22.639     25.365
REMARK INTER + INTRA:          -9.243
REMARK INTER:                  -8.455
REMARK INTRA:                  -0.788
REMARK UNBOUND:                -0.504
REMARK SMILES COc1cc(CNC(=O)CCCCCC(C)C)ccc1O
REMARK SMILES IDX 10 1 8 2 7 3 9 5 6 6 5 7 3 8 20 9 4 10 19 11 18 12 2 13 1 14
REMARK SMILES IDX 21 15 11 17 12 18 13 19 14 20 15 21 16 22 17 23
REMARK H PARENT 7 4 21 16
REMARK Flexibility Score: inf
ROOT
ATOM      1  C   UNL     1      76.445  83.363  64.877  1.00  0.00     0.100 C 
ENDROOT
BRANCH   1   2
ATOM      2  C   UNL     1      77.134  84.171  65.904  1.00  0.00     0.220 C 
ATOM      3  N   UNL     1      76.833  85.494  66.029  1.00  0.00    -0.352 N 
ATOM      4  H   UNL     1      76.237  85.864  65.302  1.00  0.00     0.163 HD
ATOM      5  O   UNL     1      77.955  83.610  66.671  1.00  0.00    -0.275 OA
BRANCH   3   6
ATOM      6  C   UNL     1      77.289  86.346  67.080  1.00  0.00     0.151 C 
BRANCH   6   7
ATOM      7  C   UNL     1      76.750  87.729  66.987  1.00  0.00    -0.025 A 
ATOM      8  C   UNL     1      75.829  89.573  65.646  1.00  0.00     0.160 A 
ATOM      9  C   UNL     1      75.661  90.339  66.819  1.00  0.00     0.157 A 
ATOM     10  C   UNL     1      76.390  88.281  65.735  1.00  0.00     0.056 A 
ATOM     11  C   UNL     1      76.041  89.811  68.066  1.00  0.00     0.050 A 
ATOM     12  C   UNL     1      76.576  88.514  68.151  1.00  0.00     0.009 A 
BRANCH   8  13
ATOM     13  O   UNL     1      75.484  90.077  64.419  1.00  0.00    -0.493 OA
ATOM     14  C   UNL     1      74.256  89.538  63.893  1.00  0.00     0.278 C 
ENDBRANCH   8  13
BRANCH   9  15
ATOM     15  O   UNL     1      75.125  91.583  66.744  1.00  0.00    -0.504 OA
ATOM     16  H   UNL     1      75.218  91.919  65.849  1.00  0.00     0.293 HD
ENDBRANCH   9  15
ENDBRANCH   6   7
ENDBRANCH   3   6
ENDBRANCH   1   2
BRANCH   1  17
ATOM     17  C   UNL     1      75.437  84.161  64.007  1.00  0.00     0.010 C 
BRANCH  17  18
ATOM     18  C   UNL     1      74.113  83.375  63.797  1.00  0.00     0.001 C 
BRANCH  18  19
ATOM     19  C   UNL     1      73.505  82.830  65.116  1.00  0.00     0.000 C 
BRANCH  19  20
ATOM     20  C   UNL     1      73.296  81.288  65.074  1.00  0.00     0.003 C 
BRANCH  20  21
ATOM     21  C   UNL     1      71.849  80.828  64.702  1.00  0.00    -0.017 C 
ATOM     22  C   UNL     1      71.745  80.491  63.185  1.00  0.00     0.007 C 
ATOM     23  C   UNL     1      70.764  81.873  65.092  1.00  0.00     0.007 C 
ENDBRANCH  20  21
ENDBRANCH  19  20
ENDBRANCH  18  19
ENDBRANCH  17  18
ENDBRANCH   1  17
TORSDOF 10
ENDMDL
MODEL 7
REMARK VINA RESULT:    -5.599     12.092     13.785
REMARK INTER + INTRA:          -9.213
REMARK INTER:                  -8.429
REMARK INTRA:                  -0.784
REMARK UNBOUND:                -0.504
REMARK SMILES COc1cc(CNC(=O)CCCCCC(C)C)ccc1O
REMARK SMILES IDX 10 1 8 2 7 3 9 5 6 6 5 7 3 8 20 9 4 10 19 11 18 12 2 13 1 14
REMARK SMILES IDX 21 15 11 17 12 18 13 19 14 20 15 21 16 22 17 23
REMARK H PARENT 7 4 21 16
REMARK Flexibility Score: inf
ROOT
ATOM      1  C   UNL     1      96.938  81.095  77.380  1.00  0.00     0.100 C 
ENDROOT
BRANCH   1   2
ATOM      2  C   UNL     1      97.557  81.104  78.722  1.00  0.00     0.220 C 
ATOM      3  N   UNL     1      97.483  79.987  79.500  1.00  0.00    -0.352 N 
ATOM      4  H   UNL     1      96.881  79.259  79.143  1.00  0.00     0.163 HD
ATOM      5  O   UNL     1      98.176  82.128  79.101  1.00  0.00    -0.275 OA
BRANCH   3   6
ATOM      6  C   UNL     1      98.177  79.797  80.733  1.00  0.00     0.151 C 
BRANCH   6   7
ATOM      7  C   UNL     1      97.341  80.097  81.926  1.00  0.00    -0.025 A 
ATOM      8  C   UNL     1      96.555  81.678  83.638  1.00  0.00     0.160 A 
ATOM      9  C   UNL     1      95.697  80.686  84.158  1.00  0.00     0.157 A 
ATOM     10  C   UNL     1      97.385  81.372  82.538  1.00  0.00     0.056 A 
ATOM     11  C   UNL     1      95.665  79.406  83.574  1.00  0.00     0.050 A 
ATOM     12  C   UNL     1      96.475  79.115  82.464  1.00  0.00     0.009 A 
BRANCH   8  13
ATOM     13  O   UNL     1      96.617  82.924  84.204  1.00  0.00    -0.493 OA
ATOM     14  C   UNL     1      96.016  83.958  83.401  1.00  0.00     0.278 C 
ENDBRANCH   8  13
BRANCH   9  15
ATOM     15  O   UNL     1      94.897  80.969  85.216  1.00  0.00    -0.504 OA
ATOM     16  H   UNL     1      94.877  80.217  85.813  1.00  0.00     0.293 HD
ENDBRANCH   9  15
ENDBRANCH   6   7
ENDBRANCH   3   6
ENDBRANCH   1   2
BRANCH   1  17
ATOM     17  C   UNL     1      97.643  82.015  76.346  1.00  0.00     0.010 C 
BRANCH  17  18
ATOM     18  C   UNL     1      96.636  82.971  75.650  1.00  0.00     0.001 C 
BRANCH  18  19
ATOM     19  C   UNL     1      97.051  83.356  74.205  1.00  0.00     0.000 C 
BRANCH  19  20
ATOM     20  C   UNL     1      98.031  82.322  73.579  1.00  0.00     0.003 C 
BRANCH  20  21
ATOM     21  C   UNL     1      99.419  82.903  73.152  1.00  0.00    -0.017 C 
ATOM     22  C   UNL     1     100.481  82.679  74.269  1.00  0.00     0.007 C 
ATOM     23  C   UNL     1      99.352  84.411  72.773  1.00  0.00     0.007 C 
ENDBRANCH  20  21
ENDBRANCH  19  20
ENDBRANCH  18  19
ENDBRANCH  17  18
ENDBRANCH   1  17
TORSDOF 10
ENDMDL
MODEL 8
REMARK VINA RESULT:    -5.570     22.506     25.342
REMARK INTER + INTRA:          -9.168
REMARK INTER:                  -8.604
REMARK INTRA:                  -0.565
REMARK UNBOUND:                -0.504
REMARK SMILES COc1cc(CNC(=O)CCCCCC(C)C)ccc1O
REMARK SMILES IDX 10 1 8 2 7 3 9 5 6 6 5 7 3 8 20 9 4 10 19 11 18 12 2 13 1 14
REMARK SMILES IDX 21 15 11 17 12 18 13 19 14 20 15 21 16 22 17 23
REMARK H PARENT 7 4 21 16
REMARK Flexibility Score: inf
ROOT
ATOM      1  C   UNL     1      75.156  82.982  66.025  1.00  0.00     0.100 C 
ENDROOT
BRANCH   1   2
ATOM      2  C   UNL     1      76.060  83.932  66.707  1.00  0.00     0.220 C 
ATOM      3  N   UNL     1      75.550  84.798  67.627  1.00  0.00    -0.352 N 
ATOM      4  H   UNL     1      74.542  84.816  67.681  1.00  0.00     0.163 HD
ATOM      5  O   UNL     1      77.289  83.891  66.454  1.00  0.00    -0.275 OA
BRANCH   3   6
ATOM      6  C   UNL     1      76.325  85.642  68.479  1.00  0.00     0.151 C 
BRANCH   6   7
ATOM      7  C   UNL     1      76.197  87.086  68.145  1.00  0.00    -0.025 A 
ATOM      8  C   UNL     1      74.976  89.213  68.315  1.00  0.00     0.160 A 
ATOM      9  C   UNL     1      75.987  89.851  67.565  1.00  0.00     0.157 A 
ATOM     10  C   UNL     1      75.077  87.832  68.584  1.00  0.00     0.056 A 
ATOM     11  C   UNL     1      77.091  89.113  67.101  1.00  0.00     0.050 A 
ATOM     12  C   UNL     1      77.199  87.743  67.393  1.00  0.00     0.009 A 
BRANCH   8  13
ATOM     13  O   UNL     1      73.882  89.909  68.759  1.00  0.00    -0.493 OA
ATOM     14  C   UNL     1      72.967  89.118  69.542  1.00  0.00     0.278 C 
ENDBRANCH   8  13
BRANCH   9  15
ATOM     15  O   UNL     1      75.897  91.179  67.299  1.00  0.00    -0.504 OA
ATOM     16  H   UNL     1      75.756  91.308  66.359  1.00  0.00     0.293 HD
ENDBRANCH   9  15
ENDBRANCH   6   7
ENDBRANCH   3   6
ENDBRANCH   1   2
BRANCH   1  17
ATOM     17  C   UNL     1      75.861  82.051  65.003  1.00  0.00     0.010 C 
BRANCH  17  18
ATOM     18  C   UNL     1      75.054  81.935  63.680  1.00  0.00     0.001 C 
BRANCH  18  19
ATOM     19  C   UNL     1      73.529  82.145  63.870  1.00  0.00     0.000 C 
BRANCH  19  20
ATOM     20  C   UNL     1      72.832  80.889  64.469  1.00  0.00     0.003 C 
BRANCH  20  21
ATOM     21  C   UNL     1      71.270  80.912  64.416  1.00  0.00    -0.017 C 
ATOM     22  C   UNL     1      70.764  80.868  62.944  1.00  0.00     0.007 C 
ATOM     23  C   UNL     1      70.658  82.137  65.154  1.00  0.00     0.007 C 
ENDBRANCH  20  21
ENDBRANCH  19  20
ENDBRANCH  18  19
ENDBRANCH  17  18
ENDBRANCH   1  17
TORSDOF 10
ENDMDL
MODEL 9
REMARK VINA RESULT:    -5.544      4.746      7.490
REMARK INTER + INTRA:          -9.127
REMARK INTER:                  -8.105
REMARK INTRA:                  -1.022
REMARK UNBOUND:                -0.504
REMARK SMILES COc1cc(CNC(=O)CCCCCC(C)C)ccc1O
REMARK SMILES IDX 10 1 8 2 7 3 9 5 6 6 5 7 3 8 20 9 4 10 19 11 18 12 2 13 1 14
REMARK SMILES IDX 21 15 11 17 12 18 13 19 14 20 15 21 16 22 17 23
REMARK H PARENT 7 4 21 16
REMARK Flexibility Score: inf
ROOT
ATOM      1  C   UNL     1      93.160  94.633  77.924  1.00  0.00     0.100 C 
ENDROOT
BRANCH   1   2
ATOM      2  C   UNL     1      93.230  94.603  76.448  1.00  0.00     0.220 C 
ATOM      3  N   UNL     1      94.227  95.281  75.811  1.00  0.00    -0.352 N 
ATOM      4  H   UNL     1      94.784  95.877  76.407  1.00  0.00     0.163 HD
ATOM      5  O   UNL     1      92.392  93.918  75.812  1.00  0.00    -0.275 OA
BRANCH   3   6
ATOM      6  C   UNL     1      94.515  95.198  74.415  1.00  0.00     0.151 C 
BRANCH   6   7
ATOM      7  C   UNL     1      95.520  96.198  73.966  1.00  0.00    -0.025 A 
ATOM      8  C   UNL     1      97.198  97.919  74.489  1.00  0.00     0.160 A 
ATOM      9  C   UNL     1      97.484  98.055  73.114  1.00  0.00     0.157 A 
ATOM     10  C   UNL     1      96.205  97.005  74.905  1.00  0.00     0.056 A 
ATOM     11  C   UNL     1      96.789  97.276  72.170  1.00  0.00     0.050 A 
ATOM     12  C   UNL     1      95.820  96.352  72.592  1.00  0.00     0.009 A 
BRANCH   8  13
ATOM     13  O   UNL     1      97.848  98.681  75.423  1.00  0.00    -0.493 OA
ATOM     14  C   UNL     1      97.080  99.805  75.894  1.00  0.00     0.278 C 
ENDBRANCH   8  13
BRANCH   9  15
ATOM     15  O   UNL     1      98.434  98.932  72.704  1.00  0.00    -0.504 OA
ATOM     16  H   UNL     1      99.206  98.448  72.399  1.00  0.00     0.293 HD
ENDBRANCH   9  15
ENDBRANCH   6   7
ENDBRANCH   3   6
ENDBRANCH   1   2
BRANCH   1  17
ATOM     17  C   UNL     1      93.468  93.272  78.605  1.00  0.00     0.010 C 
BRANCH  17  18
ATOM     18  C   UNL     1      94.996  93.006  78.689  1.00  0.00     0.001 C 
BRANCH  18  19
ATOM     19  C   UNL     1      95.520  92.878  80.144  1.00  0.00     0.000 C 
BRANCH  19  20
ATOM     20  C   UNL     1      96.463  94.053  80.535  1.00  0.00     0.003 C 
BRANCH  20  21
ATOM     21  C   UNL     1      95.853  95.480  80.348  1.00  0.00    -0.017 C 
ATOM     22  C   UNL     1      96.608  96.265  79.235  1.00  0.00     0.007 C 
ATOM     23  C   UNL     1      95.835  96.307  81.666  1.00  0.00     0.007 C 
ENDBRANCH  20  21
ENDBRANCH  19  20
ENDBRANCH  18  19
ENDBRANCH  17  18
ENDBRANCH   1  17
TORSDOF 10
ENDMDL
MODEL 10
REMARK VINA RESULT:    -5.526     13.972     15.951
REMARK INTER + INTRA:          -9.099
REMARK INTER:                  -8.495
REMARK INTRA:                  -0.604
REMARK UNBOUND:                -0.504
REMARK SMILES COc1cc(CNC(=O)CCCCCC(C)C)ccc1O
REMARK SMILES IDX 10 1 8 2 7 3 9 5 6 6 5 7 3 8 20 9 4 10 19 11 18 12 2 13 1 14
REMARK SMILES IDX 21 15 11 17 12 18 13 19 14 20 15 21 16 22 17 23
REMARK H PARENT 7 4 21 16
REMARK Flexibility Score: inf
ROOT
ATOM      1  C   UNL     1      94.663  80.989  84.353  1.00  0.00     0.100 C 
ENDROOT
BRANCH   1   2
ATOM      2  C   UNL     1      93.901  81.747  85.366  1.00  0.00     0.220 C 
ATOM      3  N   UNL     1      92.634  82.160  85.080  1.00  0.00    -0.352 N 
ATOM      4  H   UNL     1      92.349  82.025  84.120  1.00  0.00     0.163 HD
ATOM      5  O   UNL     1      94.423  81.960  86.488  1.00  0.00    -0.275 OA
BRANCH   3   6
ATOM      6  C   UNL     1      91.728  82.743  86.017  1.00  0.00     0.151 C 
BRANCH   6   7
ATOM      7  C   UNL     1      90.658  81.808  86.456  1.00  0.00    -0.025 A 
ATOM      8  C   UNL     1      88.617  80.525  85.972  1.00  0.00     0.160 A 
ATOM      9  C   UNL     1      88.657  79.974  87.270  1.00  0.00     0.157 A 
ATOM     10  C   UNL     1      89.606  81.452  85.580  1.00  0.00     0.056 A 
ATOM     11  C   UNL     1      89.684  80.341  88.160  1.00  0.00     0.050 A 
ATOM     12  C   UNL     1      90.680  81.246  87.754  1.00  0.00     0.009 A 
BRANCH   8  13
ATOM     13  O   UNL     1      87.614  80.196  85.098  1.00  0.00    -0.493 OA
ATOM     14  C   UNL     1      86.863  81.329  84.620  1.00  0.00     0.278 C 
ENDBRANCH   8  13
BRANCH   9  15
ATOM     15  O   UNL     1      87.710  79.084  87.658  1.00  0.00    -0.504 OA
ATOM     16  H   UNL     1      86.844  79.493  87.601  1.00  0.00     0.293 HD
ENDBRANCH   9  15
ENDBRANCH   6   7
ENDBRANCH   3   6
ENDBRANCH   1   2
BRANCH   1  17
ATOM     17  C   UNL     1      96.001  81.654  83.931  1.00  0.00     0.010 C 
BRANCH  17  18
ATOM     18  C   UNL     1      95.809  82.613  82.724  1.00  0.00     0.001 C 
BRANCH  18  19
ATOM     19  C   UNL     1      96.908  82.467  81.639  1.00  0.00     0.000 C 
BRANCH  19  20
ATOM     20  C   UNL     1      97.018  81.009  81.106  1.00  0.00     0.003 C 
BRANCH  20  21
ATOM     21  C   UNL     1      97.807  80.853  79.766  1.00  0.00    -0.017 C 
ATOM     22  C   UNL     1      97.284  81.855  78.694  1.00  0.00     0.007 C 
ATOM     23  C   UNL     1      97.766  79.402  79.205  1.00  0.00     0.007 C 
ENDBRANCH  20  21
ENDBRANCH  19  20
ENDBRANCH  18  19
ENDBRANCH  17  18
ENDBRANCH   1  17
TORSDOF 10
ENDMDL
