MODEL 1
REMARK VINA RESULT:    -5.922      0.000      0.000
REMARK INTER + INTRA:         -11.452
REMARK INTER:                  -9.903
REMARK INTRA:                  -1.549
REMARK UNBOUND:                -1.549
REMARK SMILES COc1cc(CNC(=O)CCCCCCCC(C)C)ccc1O
REMARK SMILES IDX 11 1 10 2 8 3 9 4 7 5 6 7 5 8 4 9 20 10 3 11 21 12 22 13
REMARK SMILES IDX 2 14 1 15 23 16 12 18 13 19 14 20 15 21 16 22 17 23 18 24
REMARK SMILES IDX 19 25
REMARK H PARENT 7 6 23 17
REMARK Flexibility Score: inf
ROOT
ATOM      1  C   UNL     1      77.267  85.341  67.446  1.00  0.00     0.010 C 
ENDROOT
BRANCH   1   2
ATOM      2  C   UNL     1      77.580  83.952  66.895  1.00  0.00     0.100 C 
BRANCH   2   3
ATOM      3  C   UNL     1      76.877  83.680  65.575  1.00  0.00     0.220 C 
ATOM      4  O   UNL     1      77.089  84.327  64.554  1.00  0.00    -0.275 OA
ATOM      5  N   UNL     1      75.978  82.631  65.684  1.00  0.00    -0.352 N 
ATOM      6  H   UNL     1      75.861  82.160  66.577  1.00  0.00     0.163 HD
BRANCH   5   7
ATOM      7  C   UNL     1      75.171  82.173  64.576  1.00  0.00     0.151 C 
BRANCH   7   8
ATOM      8  C   UNL     1      73.704  82.223  64.891  1.00  0.00    -0.025 A 
ATOM      9  C   UNL     1      73.179  83.332  65.543  1.00  0.00     0.056 A 
ATOM     10  C   UNL     1      72.887  81.160  64.528  1.00  0.00     0.009 A 
ATOM     11  C   UNL     1      71.816  83.379  65.836  1.00  0.00     0.160 A 
ATOM     12  C   UNL     1      71.523  81.206  64.822  1.00  0.00     0.050 A 
ATOM     13  C   UNL     1      70.988  82.315  65.476  1.00  0.00     0.157 A 
BRANCH  11  14
ATOM     14  O   UNL     1      71.304  84.467  66.476  1.00  0.00    -0.493 OA
ATOM     15  C   UNL     1      71.532  85.740  65.873  1.00  0.00     0.278 C 
ENDBRANCH  11  14
BRANCH  13  16
ATOM     16  O   UNL     1      69.655  82.349  65.756  1.00  0.00    -0.504 OA
ATOM     17  H   UNL     1      69.518  82.068  66.677  1.00  0.00     0.293 HD
ENDBRANCH  13  16
ENDBRANCH   7   8
ENDBRANCH   5   7
ENDBRANCH   2   3
ENDBRANCH   1   2
BRANCH   1  18
ATOM     18  C   UNL     1      76.787  85.327  68.900  1.00  0.00     0.001 C 
BRANCH  18  19
ATOM     19  C   UNL     1      75.382  84.760  69.130  1.00  0.00     0.000 C 
BRANCH  19  20
ATOM     20  C   UNL     1      74.279  85.587  68.464  1.00  0.00     0.000 C 
BRANCH  20  21
ATOM     21  C   UNL     1      74.259  87.052  68.915  1.00  0.00     0.000 C 
BRANCH  21  22
ATOM     22  C   UNL     1      74.770  88.023  67.845  1.00  0.00     0.003 C 
BRANCH  22  23
ATOM     23  C   UNL     1      75.967  88.875  68.310  1.00  0.00    -0.017 C 
ATOM     24  C   UNL     1      75.462  90.147  68.995  1.00  0.00     0.007 C 
ATOM     25  C   UNL     1      76.903  89.248  67.159  1.00  0.00     0.007 C 
ENDBRANCH  22  23
ENDBRANCH  21  22
ENDBRANCH  20  21
ENDBRANCH  19  20
ENDBRANCH  18  19
ENDBRANCH   1  18
TORSDOF 12
ENDMDL
MODEL 2
REMARK VINA RESULT:    -5.812     20.348     24.317
REMARK INTER + INTRA:         -11.269
REMARK INTER:                 -10.217
REMARK INTRA:                  -1.052
REMARK UNBOUND:                -1.549
REMARK SMILES COc1cc(CNC(=O)CCCCCCCC(C)C)ccc1O
REMARK SMILES IDX 11 1 10 2 8 3 9 4 7 5 6 7 5 8 4 9 20 10 3 11 21 12 22 13
REMARK SMILES IDX 2 14 1 15 23 16 12 18 13 19 14 20 15 21 16 22 17 23 18 24
REMARK SMILES IDX 19 25
REMARK H PARENT 7 6 23 17
REMARK Flexibility Score: inf
ROOT
ATOM      1  C   UNL     1      94.239  93.816  76.757  1.00  0.00     0.010 C 
ENDROOT
BRANCH   1   2
ATOM      2  C   UNL     1      94.038  94.436  75.376  1.00  0.00     0.100 C 
BRANCH   2   3
ATOM      3  C   UNL     1      94.794  95.745  75.214  1.00  0.00     0.220 C 
ATOM      4  O   UNL     1      95.635  96.141  76.016  1.00  0.00    -0.275 OA
ATOM      5  N   UNL     1      94.405  96.420  74.066  1.00  0.00    -0.352 N 
ATOM      6  H   UNL     1      93.690  96.018  73.466  1.00  0.00     0.163 HD
BRANCH   5   7
ATOM      7  C   UNL     1      94.963  97.695  73.680  1.00  0.00     0.151 C 
BRANCH   7   8
ATOM      8  C   UNL     1      95.431  97.695  72.254  1.00  0.00    -0.025 A 
ATOM      9  C   UNL     1      95.239  98.824  71.467  1.00  0.00     0.056 A 
ATOM     10  C   UNL     1      96.052  96.565  71.735  1.00  0.00     0.009 A 
ATOM     11  C   UNL     1      95.674  98.823  70.141  1.00  0.00     0.160 A 
ATOM     12  C   UNL     1      96.486  96.564  70.409  1.00  0.00     0.050 A 
ATOM     13  C   UNL     1      96.297  97.693  69.612  1.00  0.00     0.157 A 
BRANCH  11  14
ATOM     14  O   UNL     1      95.483  99.931  69.372  1.00  0.00    -0.493 OA
ATOM     15  C   UNL     1      94.271 100.658  69.573  1.00  0.00     0.278 C 
ENDBRANCH  11  14
BRANCH  13  16
ATOM     16  O   UNL     1      96.727  97.680  68.320  1.00  0.00    -0.504 OA
ATOM     17  H   UNL     1      95.954  97.640  67.730  1.00  0.00     0.293 HD
ENDBRANCH  13  16
ENDBRANCH   7   8
ENDBRANCH   5   7
ENDBRANCH   2   3
ENDBRANCH   1   2
BRANCH   1  18
ATOM     18  C   UNL     1      93.113  94.141  77.742  1.00  0.00     0.001 C 
BRANCH  18  19
ATOM     19  C   UNL     1      92.045  93.056  77.912  1.00  0.00     0.000 C 
BRANCH  19  20
ATOM     20  C   UNL     1      90.684  93.451  77.333  1.00  0.00     0.000 C 
BRANCH  20  21
ATOM     21  C   UNL     1      90.476  92.980  75.889  1.00  0.00     0.000 C 
BRANCH  21  22
ATOM     22  C   UNL     1      91.392  91.818  75.492  1.00  0.00     0.003 C 
BRANCH  22  23
ATOM     23  C   UNL     1      90.826  90.951  74.351  1.00  0.00    -0.017 C 
ATOM     24  C   UNL     1      89.361  91.318  74.101  1.00  0.00     0.007 C 
ATOM     25  C   UNL     1      90.938  89.454  74.640  1.00  0.00     0.007 C 
ENDBRANCH  22  23
ENDBRANCH  21  22
ENDBRANCH  20  21
ENDBRANCH  19  20
ENDBRANCH  18  19
ENDBRANCH   1  18
TORSDOF 12
ENDMDL
MODEL 3
REMARK VINA RESULT:    -5.805     20.534     22.954
REMARK INTER + INTRA:         -11.257
REMARK INTER:                 -10.515
REMARK INTRA:                  -0.742
REMARK UNBOUND:                -1.549
REMARK SMILES COc1cc(CNC(=O)CCCCCCCC(C)C)ccc1O
REMARK SMILES IDX 11 1 10 2 8 3 9 4 7 5 6 7 5 8 4 9 20 10 3 11 21 12 22 13
REMARK SMILES IDX 2 14 1 15 23 16 12 18 13 19 14 20 15 21 16 22 17 23 18 24
REMARK SMILES IDX 19 25
REMARK H PARENT 7 6 23 17
REMARK Flexibility Score: inf
ROOT
ATOM      1  C   UNL     1      93.722  98.622  73.373  1.00  0.00     0.010 C 
ENDROOT
BRANCH   1   2
ATOM      2  C   UNL     1      93.934  99.418  72.087  1.00  0.00     0.100 C 
BRANCH   2   3
ATOM      3  C   UNL     1      92.683 100.165  71.656  1.00  0.00     0.220 C 
ATOM      4  O   UNL     1      92.660 101.373  71.440  1.00  0.00    -0.275 OA
ATOM      5  N   UNL     1      91.593  99.313  71.549  1.00  0.00    -0.352 N 
ATOM      6  H   UNL     1      91.706  98.325  71.760  1.00  0.00     0.163 HD
BRANCH   5   7
ATOM      7  C   UNL     1      90.278  99.769  71.163  1.00  0.00     0.151 C 
BRANCH   7   8
ATOM      8  C   UNL     1      89.931  99.358  69.761  1.00  0.00    -0.025 A 
ATOM      9  C   UNL     1      89.608 100.329  68.820  1.00  0.00     0.056 A 
ATOM     10  C   UNL     1      89.935  98.011  69.420  1.00  0.00     0.009 A 
ATOM     11  C   UNL     1      89.285  99.946  67.518  1.00  0.00     0.160 A 
ATOM     12  C   UNL     1      89.611  97.629  68.117  1.00  0.00     0.050 A 
ATOM     13  C   UNL     1      89.286  98.596  67.166  1.00  0.00     0.157 A 
BRANCH  11  14
ATOM     14  O   UNL     1      88.969 100.901  66.598  1.00  0.00    -0.493 OA
ATOM     15  C   UNL     1      87.627 101.385  66.603  1.00  0.00     0.278 C 
ENDBRANCH  11  14
BRANCH  13  16
ATOM     16  O   UNL     1      88.974  98.211  65.898  1.00  0.00    -0.504 OA
ATOM     17  H   UNL     1      88.159  98.666  65.621  1.00  0.00     0.293 HD
ENDBRANCH  13  16
ENDBRANCH   7   8
ENDBRANCH   5   7
ENDBRANCH   2   3
ENDBRANCH   1   2
BRANCH   1  18
ATOM     18  C   UNL     1      94.945  97.801  73.791  1.00  0.00     0.001 C 
BRANCH  18  19
ATOM     19  C   UNL     1      94.731  96.842  74.968  1.00  0.00     0.000 C 
BRANCH  19  20
ATOM     20  C   UNL     1      93.812  95.665  74.630  1.00  0.00     0.000 C 
BRANCH  20  21
ATOM     21  C   UNL     1      94.173  94.376  75.377  1.00  0.00     0.000 C 
BRANCH  21  22
ATOM     22  C   UNL     1      92.948  93.592  75.860  1.00  0.00     0.003 C 
BRANCH  22  23
ATOM     23  C   UNL     1      92.262  94.221  77.089  1.00  0.00    -0.017 C 
ATOM     24  C   UNL     1      92.433  93.305  78.302  1.00  0.00     0.007 C 
ATOM     25  C   UNL     1      90.775  94.492  76.855  1.00  0.00     0.007 C 
ENDBRANCH  22  23
ENDBRANCH  21  22
ENDBRANCH  20  21
ENDBRANCH  19  20
ENDBRANCH  18  19
ENDBRANCH   1  18
TORSDOF 12
ENDMDL
MODEL 4
REMARK VINA RESULT:    -5.654     20.553     23.049
REMARK INTER + INTRA:         -11.005
REMARK INTER:                 -10.283
REMARK INTRA:                  -0.721
REMARK UNBOUND:                -1.549
REMARK SMILES COc1cc(CNC(=O)CCCCCCCC(C)C)ccc1O
REMARK SMILES IDX 11 1 10 2 8 3 9 4 7 5 6 7 5 8 4 9 20 10 3 11 21 12 22 13
REMARK SMILES IDX 2 14 1 15 23 16 12 18 13 19 14 20 15 21 16 22 17 23 18 24
REMARK SMILES IDX 19 25
REMARK H PARENT 7 6 23 17
REMARK Flexibility Score: inf
ROOT
ATOM      1  C   UNL     1      91.831 100.061  70.703  1.00  0.00     0.010 C 
ENDROOT
BRANCH   1   2
ATOM      2  C   UNL     1      90.677  99.073  70.861  1.00  0.00     0.100 C 
BRANCH   2   3
ATOM      3  C   UNL     1      90.051  98.698  69.528  1.00  0.00     0.220 C 
ATOM      4  O   UNL     1      89.270  97.761  69.390  1.00  0.00    -0.275 OA
ATOM      5  N   UNL     1      90.479  99.537  68.509  1.00  0.00    -0.352 N 
ATOM      6  H   UNL     1      91.138 100.283  68.717  1.00  0.00     0.163 HD
BRANCH   5   7
ATOM      7  C   UNL     1      90.041  99.394  67.140  1.00  0.00     0.151 C 
BRANCH   7   8
ATOM      8  C   UNL     1      88.913 100.328  66.811  1.00  0.00    -0.025 A 
ATOM      9  C   UNL     1      89.131 101.700  66.821  1.00  0.00     0.056 A 
ATOM     10  C   UNL     1      87.661  99.810  66.500  1.00  0.00     0.009 A 
ATOM     11  C   UNL     1      88.082 102.568  66.515  1.00  0.00     0.160 A 
ATOM     12  C   UNL     1      86.612 100.678  66.195  1.00  0.00     0.050 A 
ATOM     13  C   UNL     1      86.822 102.057  66.202  1.00  0.00     0.157 A 
BRANCH  11  14
ATOM     14  O   UNL     1      88.300 103.913  66.526  1.00  0.00    -0.493 OA
ATOM     15  C   UNL     1      89.498 104.380  65.908  1.00  0.00     0.278 C 
ENDBRANCH  11  14
BRANCH  13  16
ATOM     16  O   UNL     1      85.791 102.894  65.901  1.00  0.00    -0.504 OA
ATOM     17  H   UNL     1      84.986 102.366  65.760  1.00  0.00     0.293 HD
ENDBRANCH  13  16
ENDBRANCH   7   8
ENDBRANCH   5   7
ENDBRANCH   2   3
ENDBRANCH   1   2
BRANCH   1  18
ATOM     18  C   UNL     1      93.212  99.404  70.783  1.00  0.00     0.001 C 
BRANCH  18  19
ATOM     19  C   UNL     1      93.953  99.574  72.113  1.00  0.00     0.000 C 
BRANCH  19  20
ATOM     20  C   UNL     1      93.313  98.794  73.266  1.00  0.00     0.000 C 
BRANCH  20  21
ATOM     21  C   UNL     1      94.301  97.894  74.016  1.00  0.00     0.000 C 
BRANCH  21  22
ATOM     22  C   UNL     1      93.666  96.602  74.539  1.00  0.00     0.003 C 
BRANCH  22  23
ATOM     23  C   UNL     1      94.698  95.550  74.991  1.00  0.00    -0.017 C 
ATOM     24  C   UNL     1      93.987  94.235  75.319  1.00  0.00     0.007 C 
ATOM     25  C   UNL     1      95.512  96.010  76.201  1.00  0.00     0.007 C 
ENDBRANCH  22  23
ENDBRANCH  21  22
ENDBRANCH  20  21
ENDBRANCH  19  20
ENDBRANCH  18  19
ENDBRANCH   1  18
TORSDOF 12
ENDMDL
MODEL 5
REMARK VINA RESULT:    -5.635      1.252      2.267
REMARK INTER + INTRA:         -10.972
REMARK INTER:                  -9.242
REMARK INTRA:                  -1.730
REMARK UNBOUND:                -1.549
REMARK SMILES COc1cc(CNC(=O)CCCCCCCC(C)C)ccc1O
REMARK SMILES IDX 11 1 10 2 8 3 9 4 7 5 6 7 5 8 4 9 20 10 3 11 21 12 22 13
REMARK SMILES IDX 2 14 1 15 23 16 12 18 13 19 14 20 15 21 16 22 17 23 18 24
REMARK SMILES IDX 19 25
REMARK H PARENT 7 6 23 17
REMARK Flexibility Score: inf
ROOT
ATOM      1  C   UNL     1      77.316  85.307  67.404  1.00  0.00     0.010 C 
ENDROOT
BRANCH   1   2
ATOM      2  C   UNL     1      77.594  83.947  66.766  1.00  0.00     0.100 C 
BRANCH   2   3
ATOM      3  C   UNL     1      76.585  83.598  65.684  1.00  0.00     0.220 C 
ATOM      4  O   UNL     1      76.456  82.467  65.224  1.00  0.00    -0.275 OA
ATOM      5  N   UNL     1      75.854  84.709  65.292  1.00  0.00    -0.352 N 
ATOM      6  H   UNL     1      76.039  85.610  65.724  1.00  0.00     0.163 HD
BRANCH   5   7
ATOM      7  C   UNL     1      74.833  84.654  64.271  1.00  0.00     0.151 C 
BRANCH   7   8
ATOM      8  C   UNL     1      73.500  84.251  64.832  1.00  0.00    -0.025 A 
ATOM      9  C   UNL     1      72.798  83.201  64.251  1.00  0.00     0.056 A 
ATOM     10  C   UNL     1      72.980  84.932  65.926  1.00  0.00     0.009 A 
ATOM     11  C   UNL     1      71.559  82.828  64.772  1.00  0.00     0.160 A 
ATOM     12  C   UNL     1      71.741  84.559  66.446  1.00  0.00     0.050 A 
ATOM     13  C   UNL     1      71.030  83.507  65.869  1.00  0.00     0.157 A 
BRANCH  11  14
ATOM     14  O   UNL     1      70.874  81.799  64.199  1.00  0.00    -0.493 OA
ATOM     15  C   UNL     1      71.524  80.529  64.162  1.00  0.00     0.278 C 
ENDBRANCH  11  14
BRANCH  13  16
ATOM     16  O   UNL     1      69.822  83.151  66.387  1.00  0.00    -0.504 OA
ATOM     17  H   UNL     1      69.777  82.181  66.449  1.00  0.00     0.293 HD
ENDBRANCH  13  16
ENDBRANCH   7   8
ENDBRANCH   5   7
ENDBRANCH   2   3
ENDBRANCH   1   2
BRANCH   1  18
ATOM     18  C   UNL     1      76.765  85.211  68.829  1.00  0.00     0.001 C 
BRANCH  18  19
ATOM     19  C   UNL     1      75.297  84.788  68.948  1.00  0.00     0.000 C 
BRANCH  19  20
ATOM     20  C   UNL     1      74.374  85.926  69.392  1.00  0.00     0.000 C 
BRANCH  20  21
ATOM     21  C   UNL     1      74.339  87.102  68.409  1.00  0.00     0.000 C 
BRANCH  21  22
ATOM     22  C   UNL     1      73.956  88.431  69.068  1.00  0.00     0.003 C 
BRANCH  22  23
ATOM     23  C   UNL     1      74.823  89.618  68.603  1.00  0.00    -0.017 C 
ATOM     24  C   UNL     1      76.212  89.118  68.201  1.00  0.00     0.007 C 
ATOM     25  C   UNL     1      74.957  90.701  69.675  1.00  0.00     0.007 C 
ENDBRANCH  22  23
ENDBRANCH  21  22
ENDBRANCH  20  21
ENDBRANCH  19  20
ENDBRANCH  18  19
ENDBRANCH   1  18
TORSDOF 12
ENDMDL
MODEL 6
REMARK VINA RESULT:    -5.436     23.303     26.056
REMARK INTER + INTRA:         -10.639
REMARK INTER:                 -10.086
REMARK INTRA:                  -0.553
REMARK UNBOUND:                -1.549
REMARK SMILES COc1cc(CNC(=O)CCCCCCCC(C)C)ccc1O
REMARK SMILES IDX 11 1 10 2 8 3 9 4 7 5 6 7 5 8 4 9 20 10 3 11 21 12 22 13
REMARK SMILES IDX 2 14 1 15 23 16 12 18 13 19 14 20 15 21 16 22 17 23 18 24
REMARK SMILES IDX 19 25
REMARK H PARENT 7 6 23 17
REMARK Flexibility Score: inf
ROOT
ATOM      1  C   UNL     1      96.266  81.311  83.202  1.00  0.00     0.010 C 
ENDROOT
BRANCH   1   2
ATOM      2  C   UNL     1      96.402  80.130  82.243  1.00  0.00     0.100 C 
BRANCH   2   3
ATOM      3  C   UNL     1      97.603  80.267  81.323  1.00  0.00     0.220 C 
ATOM      4  O   UNL     1      98.681  79.719  81.536  1.00  0.00    -0.275 OA
ATOM      5  N   UNL     1      97.324  81.084  80.238  1.00  0.00    -0.352 N 
ATOM      6  H   UNL     1      96.402  81.505  80.150  1.00  0.00     0.163 HD
BRANCH   5   7
ATOM      7  C   UNL     1      98.297  81.388  79.214  1.00  0.00     0.151 C 
BRANCH   7   8
ATOM      8  C   UNL     1      97.650  81.881  77.953  1.00  0.00    -0.025 A 
ATOM      9  C   UNL     1      98.330  81.777  76.745  1.00  0.00     0.056 A 
ATOM     10  C   UNL     1      96.378  82.437  78.006  1.00  0.00     0.009 A 
ATOM     11  C   UNL     1      97.728  82.236  75.573  1.00  0.00     0.160 A 
ATOM     12  C   UNL     1      95.776  82.897  76.833  1.00  0.00     0.050 A 
ATOM     13  C   UNL     1      96.451  82.796  75.617  1.00  0.00     0.157 A 
BRANCH  11  14
ATOM     14  O   UNL     1      98.398  82.132  74.391  1.00  0.00    -0.493 OA
ATOM     15  C   UNL     1      99.629  82.845  74.280  1.00  0.00     0.278 C 
ENDBRANCH  11  14
BRANCH  13  16
ATOM     16  O   UNL     1      95.853  83.247  74.479  1.00  0.00    -0.504 OA
ATOM     17  H   UNL     1      96.540  83.522  73.848  1.00  0.00     0.293 HD
ENDBRANCH  13  16
ENDBRANCH   7   8
ENDBRANCH   5   7
ENDBRANCH   2   3
ENDBRANCH   1   2
BRANCH   1  18
ATOM     18  C   UNL     1      95.374  81.016  84.411  1.00  0.00     0.001 C 
BRANCH  18  19
ATOM     19  C   UNL     1      93.981  81.653  84.380  1.00  0.00     0.000 C 
BRANCH  19  20
ATOM     20  C   UNL     1      92.895  80.762  84.989  1.00  0.00     0.000 C 
BRANCH  20  21
ATOM     21  C   UNL     1      91.493  81.379  84.926  1.00  0.00     0.000 C 
BRANCH  21  22
ATOM     22  C   UNL     1      90.419  80.397  84.444  1.00  0.00     0.003 C 
BRANCH  22  23
ATOM     23  C   UNL     1      89.007  80.727  84.968  1.00  0.00    -0.017 C 
ATOM     24  C   UNL     1      88.492  82.002  84.296  1.00  0.00     0.007 C 
ATOM     25  C   UNL     1      88.970  80.895  86.487  1.00  0.00     0.007 C 
ENDBRANCH  22  23
ENDBRANCH  21  22
ENDBRANCH  20  21
ENDBRANCH  19  20
ENDBRANCH  18  19
ENDBRANCH   1  18
TORSDOF 12
ENDMDL
MODEL 7
REMARK VINA RESULT:    -5.285     23.938     27.093
REMARK INTER + INTRA:         -10.387
REMARK INTER:                  -9.101
REMARK INTRA:                  -1.286
REMARK UNBOUND:                -1.549
REMARK SMILES COc1cc(CNC(=O)CCCCCCCC(C)C)ccc1O
REMARK SMILES IDX 11 1 10 2 8 3 9 4 7 5 6 7 5 8 4 9 20 10 3 11 21 12 22 13
REMARK SMILES IDX 2 14 1 15 23 16 12 18 13 19 14 20 15 21 16 22 17 23 18 24
REMARK SMILES IDX 19 25
REMARK H PARENT 7 6 23 17
REMARK Flexibility Score: inf
ROOT
ATOM      1  C   UNL     1      96.960  82.031  77.647  1.00  0.00     0.010 C 
ENDROOT
BRANCH   1   2
ATOM      2  C   UNL     1      95.803  82.806  77.020  1.00  0.00     0.100 C 
BRANCH   2   3
ATOM      3  C   UNL     1      96.211  83.523  75.744  1.00  0.00     0.220 C 
ATOM      4  O   UNL     1      95.575  84.457  75.264  1.00  0.00    -0.275 OA
ATOM      5  N   UNL     1      97.368  82.983  75.203  1.00  0.00    -0.352 N 
ATOM      6  H   UNL     1      97.821  82.200  75.667  1.00  0.00     0.163 HD
BRANCH   5   7
ATOM      7  C   UNL     1      97.968  83.476  73.984  1.00  0.00     0.151 C 
BRANCH   7   8
ATOM      8  C   UNL     1      99.369  82.969  73.803  1.00  0.00    -0.025 A 
ATOM      9  C   UNL     1     100.125  83.410  72.724  1.00  0.00     0.056 A 
ATOM     10  C   UNL     1      99.896  82.065  74.717  1.00  0.00     0.009 A 
ATOM     11  C   UNL     1     101.428  82.939  72.556  1.00  0.00     0.160 A 
ATOM     12  C   UNL     1     101.198  81.593  74.548  1.00  0.00     0.050 A 
ATOM     13  C   UNL     1     101.964  82.030  73.468  1.00  0.00     0.157 A 
BRANCH  11  14
ATOM     14  O   UNL     1     102.166  83.374  71.496  1.00  0.00    -0.493 OA
ATOM     15  C   UNL     1     101.864  84.671  70.985  1.00  0.00     0.278 C 
ENDBRANCH  11  14
BRANCH  13  16
ATOM     16  O   UNL     1     103.235  81.564  73.315  1.00  0.00    -0.504 OA
ATOM     17  H   UNL     1     103.345  81.239  72.405  1.00  0.00     0.293 HD
ENDBRANCH  13  16
ENDBRANCH   7   8
ENDBRANCH   5   7
ENDBRANCH   2   3
ENDBRANCH   1   2
BRANCH   1  18
ATOM     18  C   UNL     1      96.885  80.521  77.405  1.00  0.00     0.001 C 
BRANCH  18  19
ATOM     19  C   UNL     1      97.971  79.684  78.091  1.00  0.00     0.000 C 
BRANCH  19  20
ATOM     20  C   UNL     1      98.976  80.527  78.880  1.00  0.00     0.000 C 
BRANCH  20  21
ATOM     21  C   UNL     1      98.776  80.453  80.397  1.00  0.00     0.000 C 
BRANCH  21  22
ATOM     22  C   UNL     1      97.451  79.800  80.803  1.00  0.00     0.003 C 
BRANCH  22  23
ATOM     23  C   UNL     1      96.616  80.656  81.775  1.00  0.00    -0.017 C 
ATOM     24  C   UNL     1      96.663  82.124  81.343  1.00  0.00     0.007 C 
ATOM     25  C   UNL     1      97.093  80.532  83.223  1.00  0.00     0.007 C 
ENDBRANCH  22  23
ENDBRANCH  21  22
ENDBRANCH  20  21
ENDBRANCH  19  20
ENDBRANCH  18  19
ENDBRANCH   1  18
TORSDOF 12
ENDMDL
MODEL 8
REMARK VINA RESULT:    -5.158      2.200      3.449
REMARK INTER + INTRA:         -10.175
REMARK INTER:                  -9.127
REMARK INTRA:                  -1.048
REMARK UNBOUND:                -1.549
REMARK SMILES COc1cc(CNC(=O)CCCCCCCC(C)C)ccc1O
REMARK SMILES IDX 11 1 10 2 8 3 9 4 7 5 6 7 5 8 4 9 20 10 3 11 21 12 22 13
REMARK SMILES IDX 2 14 1 15 23 16 12 18 13 19 14 20 15 21 16 22 17 23 18 24
REMARK SMILES IDX 19 25
REMARK H PARENT 7 6 23 17
REMARK Flexibility Score: inf
ROOT
ATOM      1  C   UNL     1      76.013  82.076  65.077  1.00  0.00     0.010 C 
ENDROOT
BRANCH   1   2
ATOM      2  C   UNL     1      74.651  81.622  65.597  1.00  0.00     0.100 C 
BRANCH   2   3
ATOM      3  C   UNL     1      73.648  81.401  64.476  1.00  0.00     0.220 C 
ATOM      4  O   UNL     1      73.887  81.653  63.299  1.00  0.00    -0.275 OA
ATOM      5  N   UNL     1      72.449  80.896  64.957  1.00  0.00    -0.352 N 
ATOM      6  H   UNL     1      72.338  80.729  65.954  1.00  0.00     0.163 HD
BRANCH   5   7
ATOM      7  C   UNL     1      71.323  80.604  64.101  1.00  0.00     0.151 C 
BRANCH   7   8
ATOM      8  C   UNL     1      70.297  81.699  64.129  1.00  0.00    -0.025 A 
ATOM      9  C   UNL     1      70.042  82.373  65.318  1.00  0.00     0.056 A 
ATOM     10  C   UNL     1      69.613  82.029  62.966  1.00  0.00     0.009 A 
ATOM     11  C   UNL     1      69.089  83.391  65.344  1.00  0.00     0.160 A 
ATOM     12  C   UNL     1      68.659  83.047  62.992  1.00  0.00     0.050 A 
ATOM     13  C   UNL     1      68.397  83.728  64.181  1.00  0.00     0.157 A 
BRANCH  11  14
ATOM     14  O   UNL     1      68.842  84.048  66.511  1.00  0.00    -0.493 OA
ATOM     15  C   UNL     1      69.974  84.510  67.247  1.00  0.00     0.278 C 
ENDBRANCH  11  14
BRANCH  13  16
ATOM     16  O   UNL     1      67.464  84.721  64.193  1.00  0.00    -0.504 OA
ATOM     17  H   UNL     1      66.654  84.389  64.618  1.00  0.00     0.293 HD
ENDBRANCH  13  16
ENDBRANCH   7   8
ENDBRANCH   5   7
ENDBRANCH   2   3
ENDBRANCH   1   2
BRANCH   1  18
ATOM     18  C   UNL     1      76.548  83.327  65.780  1.00  0.00     0.001 C 
BRANCH  18  19
ATOM     19  C   UNL     1      75.658  84.571  65.692  1.00  0.00     0.000 C 
BRANCH  19  20
ATOM     20  C   UNL     1      76.417  85.877  65.940  1.00  0.00     0.000 C 
BRANCH  20  21
ATOM     21  C   UNL     1      77.225  85.875  67.242  1.00  0.00     0.000 C 
BRANCH  21  22
ATOM     22  C   UNL     1      76.857  87.026  68.185  1.00  0.00     0.003 C 
BRANCH  22  23
ATOM     23  C   UNL     1      75.380  87.454  68.084  1.00  0.00    -0.017 C 
ATOM     24  C   UNL     1      75.234  88.915  68.517  1.00  0.00     0.007 C 
ATOM     25  C   UNL     1      74.456  86.574  68.927  1.00  0.00     0.007 C 
ENDBRANCH  22  23
ENDBRANCH  21  22
ENDBRANCH  20  21
ENDBRANCH  19  20
ENDBRANCH  18  19
ENDBRANCH   1  18
TORSDOF 12
ENDMDL
MODEL 9
REMARK VINA RESULT:    -5.109     22.879     26.615
REMARK INTER + INTRA:         -10.093
REMARK INTER:                  -8.697
REMARK INTRA:                  -1.397
REMARK UNBOUND:                -1.549
REMARK SMILES COc1cc(CNC(=O)CCCCCCCC(C)C)ccc1O
REMARK SMILES IDX 11 1 10 2 8 3 9 4 7 5 6 7 5 8 4 9 20 10 3 11 21 12 22 13
REMARK SMILES IDX 2 14 1 15 23 16 12 18 13 19 14 20 15 21 16 22 17 23 18 24
REMARK SMILES IDX 19 25
REMARK H PARENT 7 6 23 17
REMARK Flexibility Score: inf
ROOT
ATOM      1  C   UNL     1      96.054  94.178  80.041  1.00  0.00     0.010 C 
ENDROOT
BRANCH   1   2
ATOM      2  C   UNL     1      97.512  94.597  79.863  1.00  0.00     0.100 C 
BRANCH   2   3
ATOM      3  C   UNL     1      97.646  96.001  79.298  1.00  0.00     0.220 C 
ATOM      4  O   UNL     1      97.332  97.011  79.922  1.00  0.00    -0.275 OA
ATOM      5  N   UNL     1      98.152  95.985  78.007  1.00  0.00    -0.352 N 
ATOM      6  H   UNL     1      98.373  95.096  77.565  1.00  0.00     0.163 HD
BRANCH   5   7
ATOM      7  C   UNL     1      98.370  97.187  77.236  1.00  0.00     0.151 C 
BRANCH   7   8
ATOM      8  C   UNL     1      97.536  97.213  75.988  1.00  0.00    -0.025 A 
ATOM      9  C   UNL     1      98.030  97.826  74.843  1.00  0.00     0.056 A 
ATOM     10  C   UNL     1      96.277  96.625  75.991  1.00  0.00     0.009 A 
ATOM     11  C   UNL     1      97.255  97.850  73.684  1.00  0.00     0.160 A 
ATOM     12  C   UNL     1      95.501  96.650  74.832  1.00  0.00     0.050 A 
ATOM     13  C   UNL     1      95.990  97.262  73.678  1.00  0.00     0.157 A 
BRANCH  11  14
ATOM     14  O   UNL     1      97.743  98.452  72.563  1.00  0.00    -0.493 OA
ATOM     15  C   UNL     1      98.802  97.785  71.879  1.00  0.00     0.278 C 
ENDBRANCH  11  14
BRANCH  13  16
ATOM     16  O   UNL     1      95.223  97.279  72.552  1.00  0.00    -0.504 OA
ATOM     17  H   UNL     1      94.506  97.925  72.667  1.00  0.00     0.293 HD
ENDBRANCH  13  16
ENDBRANCH   7   8
ENDBRANCH   5   7
ENDBRANCH   2   3
ENDBRANCH   1   2
BRANCH   1  18
ATOM     18  C   UNL     1      95.657  92.969  79.189  1.00  0.00     0.001 C 
BRANCH  18  19
ATOM     19  C   UNL     1      95.348  93.266  77.718  1.00  0.00     0.000 C 
BRANCH  19  20
ATOM     20  C   UNL     1      94.198  94.260  77.530  1.00  0.00     0.000 C 
BRANCH  20  21
ATOM     21  C   UNL     1      93.299  93.932  76.333  1.00  0.00     0.000 C 
BRANCH  21  22
ATOM     22  C   UNL     1      92.174  92.948  76.671  1.00  0.00     0.003 C 
BRANCH  22  23
ATOM     23  C   UNL     1      91.047  93.570  77.518  1.00  0.00    -0.017 C 
ATOM     24  C   UNL     1      89.927  92.547  77.721  1.00  0.00     0.007 C 
ATOM     25  C   UNL     1      90.475  94.841  76.890  1.00  0.00     0.007 C 
ENDBRANCH  22  23
ENDBRANCH  21  22
ENDBRANCH  20  21
ENDBRANCH  19  20
ENDBRANCH  18  19
ENDBRANCH   1  18
TORSDOF 12
ENDMDL
MODEL 10
REMARK VINA RESULT:    -5.105     23.794     26.458
REMARK INTER + INTRA:         -10.086
REMARK INTER:                  -7.873
REMARK INTRA:                  -2.213
REMARK UNBOUND:                -1.549
REMARK SMILES COc1cc(CNC(=O)CCCCCCCC(C)C)ccc1O
REMARK SMILES IDX 11 1 10 2 8 3 9 4 7 5 6 7 5 8 4 9 20 10 3 11 21 12 22 13
REMARK SMILES IDX 2 14 1 15 23 16 12 18 13 19 14 20 15 21 16 22 17 23 18 24
REMARK SMILES IDX 19 25
REMARK H PARENT 7 6 23 17
REMARK Flexibility Score: inf
ROOT
ATOM      1  C   UNL     1      97.064  81.526  77.499  1.00  0.00     0.010 C 
ENDROOT
BRANCH   1   2
ATOM      2  C   UNL     1      95.957  82.532  77.188  1.00  0.00     0.100 C 
BRANCH   2   3
ATOM      3  C   UNL     1      96.264  83.366  75.955  1.00  0.00     0.220 C 
ATOM      4  O   UNL     1      95.595  84.338  75.616  1.00  0.00    -0.275 OA
ATOM      5  N   UNL     1      97.373  82.884  75.277  1.00  0.00    -0.352 N 
ATOM      6  H   UNL     1      97.859  82.063  75.628  1.00  0.00     0.163 HD
BRANCH   5   7
ATOM      7  C   UNL     1      97.875  83.491  74.065  1.00  0.00     0.151 C 
BRANCH   7   8
ATOM      8  C   UNL     1      99.243  82.987  73.710  1.00  0.00    -0.025 A 
ATOM      9  C   UNL     1      99.753  83.221  72.438  1.00  0.00     0.056 A 
ATOM     10  C   UNL     1      99.986  82.291  74.656  1.00  0.00     0.009 A 
ATOM     11  C   UNL     1     101.025  82.752  72.108  1.00  0.00     0.160 A 
ATOM     12  C   UNL     1     101.258  81.822  74.325  1.00  0.00     0.050 A 
ATOM     13  C   UNL     1     101.778  82.052  73.052  1.00  0.00     0.157 A 
BRANCH  11  14
ATOM     14  O   UNL     1     101.522  82.983  70.861  1.00  0.00    -0.493 OA
ATOM     15  C   UNL     1     101.204  84.237  70.259  1.00  0.00     0.278 C 
ENDBRANCH  11  14
BRANCH  13  16
ATOM     16  O   UNL     1     103.021  81.590  72.742  1.00  0.00    -0.504 OA
ATOM     17  H   UNL     1     102.941  80.898  72.063  1.00  0.00     0.293 HD
ENDBRANCH  13  16
ENDBRANCH   7   8
ENDBRANCH   5   7
ENDBRANCH   2   3
ENDBRANCH   1   2
BRANCH   1  18
ATOM     18  C   UNL     1      96.681  80.079  77.177  1.00  0.00     0.001 C 
BRANCH  18  19
ATOM     19  C   UNL     1      97.852  79.108  76.991  1.00  0.00     0.000 C 
BRANCH  19  20
ATOM     20  C   UNL     1      98.685  79.397  75.739  1.00  0.00     0.000 C 
BRANCH  20  21
ATOM     21  C   UNL     1      98.137  78.728  74.474  1.00  0.00     0.000 C 
BRANCH  21  22
ATOM     22  C   UNL     1      97.311  79.674  73.596  1.00  0.00     0.003 C 
BRANCH  22  23
ATOM     23  C   UNL     1      97.970  79.984  72.238  1.00  0.00    -0.017 C 
ATOM     24  C   UNL     1      97.057  79.516  71.102  1.00  0.00     0.007 C 
ATOM     25  C   UNL     1      99.346  79.333  72.092  1.00  0.00     0.007 C 
ENDBRANCH  22  23
ENDBRANCH  21  22
ENDBRANCH  20  21
ENDBRANCH  19  20
ENDBRANCH  18  19
ENDBRANCH   1  18
TORSDOF 12
ENDMDL
