MODEL 1
REMARK VINA RESULT:    -6.552      0.000      0.000
REMARK INTER + INTRA:         -11.523
REMARK INTER:                 -10.574
REMARK INTRA:                  -0.949
REMARK UNBOUND:                -0.949
REMARK SMILES COc1cc(CNC(=O)CCCCC/C=C/C(C)C)ccc1O
REMARK SMILES IDX 11 1 10 2 8 3 7 4 9 6 6 7 5 8 3 9 22 10 4 11 21 12 20 13
REMARK SMILES IDX 2 14 1 15 23 16 12 18 13 19 14 20 15 21 16 22 17 23 18 24
REMARK SMILES IDX 19 25
REMARK H PARENT 7 5 23 17
REMARK Flexibility Score: inf
ROOT
ATOM      1  C   UNL     1      94.411  98.493  75.779  1.00  0.00     0.010 C 
ENDROOT
BRANCH   1   2
ATOM      2  C   UNL     1      92.974  98.758  75.261  1.00  0.00     0.100 C 
BRANCH   2   3
ATOM      3  C   UNL     1      92.923  99.476  73.973  1.00  0.00     0.220 C 
ATOM      4  N   UNL     1      91.787  99.444  73.224  1.00  0.00    -0.352 N 
ATOM      5  H   UNL     1      91.058  98.846  73.588  1.00  0.00     0.163 HD
ATOM      6  O   UNL     1      93.928 100.138  73.620  1.00  0.00    -0.275 OA
BRANCH   4   7
ATOM      7  C   UNL     1      91.571 100.169  72.014  1.00  0.00     0.151 C 
BRANCH   7   8
ATOM      8  C   UNL     1      90.608  99.492  71.106  1.00  0.00    -0.025 A 
ATOM      9  C   UNL     1      88.989  99.585  69.257  1.00  0.00     0.160 A 
ATOM     10  C   UNL     1      88.732  98.206  69.414  1.00  0.00     0.157 A 
ATOM     11  C   UNL     1      89.917 100.219  70.108  1.00  0.00     0.056 A 
ATOM     12  C   UNL     1      89.426  97.470  70.392  1.00  0.00     0.050 A 
ATOM     13  C   UNL     1      90.365  98.106  71.225  1.00  0.00     0.009 A 
BRANCH   9  14
ATOM     14  O   UNL     1      88.385 100.292  68.251  1.00  0.00    -0.493 OA
ATOM     15  C   UNL     1      89.299 101.020  67.414  1.00  0.00     0.278 C 
ENDBRANCH   9  14
BRANCH  10  16
ATOM     16  O   UNL     1      87.826  97.564  68.634  1.00  0.00    -0.504 OA
ATOM     17  H   UNL     1      86.947  97.904  68.820  1.00  0.00     0.293 HD
ENDBRANCH  10  16
ENDBRANCH   7   8
ENDBRANCH   4   7
ENDBRANCH   2   3
ENDBRANCH   1   2
BRANCH   1  18
ATOM     18  C   UNL     1      94.882  97.061  75.414  1.00  0.00     0.001 C 
BRANCH  18  19
ATOM     19  C   UNL     1      94.066  95.942  76.109  1.00  0.00     0.004 C 
BRANCH  19  20
ATOM     20  C   UNL     1      93.875  96.235  77.623  1.00  0.00     0.027 C 
BRANCH  20  21
ATOM     21  C   UNL     1      92.664  95.658  78.181  1.00  0.00    -0.031 C 
ATOM     22  C   UNL     1      91.532  95.532  77.467  1.00  0.00    -0.028 C 
BRANCH  22  23
ATOM     23  C   UNL     1      90.300  94.951  77.997  1.00  0.00     0.005 C 
ATOM     24  C   UNL     1      89.207  94.910  76.896  1.00  0.00     0.012 C 
ATOM     25  C   UNL     1      90.584  93.548  78.599  1.00  0.00     0.012 C 
ENDBRANCH  22  23
ENDBRANCH  20  21
ENDBRANCH  19  20
ENDBRANCH  18  19
ENDBRANCH   1  18
TORSDOF 11
ENDMDL
MODEL 2
REMARK VINA RESULT:    -6.041     19.195     21.967
REMARK INTER + INTRA:         -10.697
REMARK INTER:                  -8.180
REMARK INTRA:                  -2.517
REMARK UNBOUND:                -0.949
REMARK SMILES COc1cc(CNC(=O)CCCCC/C=C/C(C)C)ccc1O
REMARK SMILES IDX 11 1 10 2 8 3 7 4 9 6 6 7 5 8 3 9 22 10 4 11 21 12 20 13
REMARK SMILES IDX 2 14 1 15 23 16 12 18 13 19 14 20 15 21 16 22 17 23 18 24
REMARK SMILES IDX 19 25
REMARK H PARENT 7 5 23 17
REMARK Flexibility Score: inf
ROOT
ATOM      1  C   UNL     1      75.546  84.668  70.541  1.00  0.00     0.010 C 
ENDROOT
BRANCH   1   2
ATOM      2  C   UNL     1      77.094  84.696  70.627  1.00  0.00     0.100 C 
BRANCH   2   3
ATOM      3  C   UNL     1      77.762  84.935  69.334  1.00  0.00     0.220 C 
ATOM      4  N   UNL     1      77.802  83.947  68.398  1.00  0.00    -0.352 N 
ATOM      5  H   UNL     1      77.416  83.063  68.701  1.00  0.00     0.163 HD
ATOM      6  O   UNL     1      78.247  86.071  69.116  1.00  0.00    -0.275 OA
BRANCH   4   7
ATOM      7  C   UNL     1      78.328  84.075  67.078  1.00  0.00     0.151 C 
BRANCH   7   8
ATOM      8  C   UNL     1      77.395  83.567  66.039  1.00  0.00    -0.025 A 
ATOM      9  C   UNL     1      75.461  82.193  65.392  1.00  0.00     0.160 A 
ATOM     10  C   UNL     1      75.653  82.559  64.042  1.00  0.00     0.157 A 
ATOM     11  C   UNL     1      76.338  82.691  66.377  1.00  0.00     0.056 A 
ATOM     12  C   UNL     1      76.691  83.443  63.696  1.00  0.00     0.050 A 
ATOM     13  C   UNL     1      77.550  83.952  64.688  1.00  0.00     0.009 A 
BRANCH   9  14
ATOM     14  O   UNL     1      74.401  81.403  65.751  1.00  0.00    -0.493 OA
ATOM     15  C   UNL     1      73.230  82.136  66.147  1.00  0.00     0.278 C 
ENDBRANCH   9  14
BRANCH  10  16
ATOM     16  O   UNL     1      74.849  82.079  63.060  1.00  0.00    -0.504 OA
ATOM     17  H   UNL     1      74.048  81.720  63.450  1.00  0.00     0.293 HD
ENDBRANCH  10  16
ENDBRANCH   7   8
ENDBRANCH   4   7
ENDBRANCH   2   3
ENDBRANCH   1   2
BRANCH   1  18
ATOM     18  C   UNL     1      74.966  86.102  70.436  1.00  0.00     0.001 C 
BRANCH  18  19
ATOM     19  C   UNL     1      73.852  86.247  69.368  1.00  0.00     0.004 C 
BRANCH  19  20
ATOM     20  C   UNL     1      74.037  85.223  68.213  1.00  0.00     0.027 C 
BRANCH  20  21
ATOM     21  C   UNL     1      74.656  85.787  67.026  1.00  0.00    -0.031 C 
ATOM     22  C   UNL     1      75.300  86.967  67.042  1.00  0.00    -0.028 C 
BRANCH  22  23
ATOM     23  C   UNL     1      75.937  87.558  65.868  1.00  0.00     0.005 C 
ATOM     24  C   UNL     1      77.479  87.419  65.965  1.00  0.00     0.012 C 
ATOM     25  C   UNL     1      75.368  86.921  64.571  1.00  0.00     0.012 C 
ENDBRANCH  22  23
ENDBRANCH  20  21
ENDBRANCH  19  20
ENDBRANCH  18  19
ENDBRANCH   1  18
TORSDOF 11
ENDMDL
MODEL 3
REMARK VINA RESULT:    -5.773     14.597     17.724
REMARK INTER + INTRA:         -10.265
REMARK INTER:                  -9.423
REMARK INTRA:                  -0.842
REMARK UNBOUND:                -0.949
REMARK SMILES COc1cc(CNC(=O)CCCCC/C=C/C(C)C)ccc1O
REMARK SMILES IDX 11 1 10 2 8 3 7 4 9 6 6 7 5 8 3 9 22 10 4 11 21 12 20 13
REMARK SMILES IDX 2 14 1 15 23 16 12 18 13 19 14 20 15 21 16 22 17 23 18 24
REMARK SMILES IDX 19 25
REMARK H PARENT 7 5 23 17
REMARK Flexibility Score: inf
ROOT
ATOM      1  C   UNL     1      76.751  92.990  72.616  1.00  0.00     0.010 C 
ENDROOT
BRANCH   1   2
ATOM      2  C   UNL     1      76.021  92.509  71.336  1.00  0.00     0.100 C 
BRANCH   2   3
ATOM      3  C   UNL     1      75.123  91.359  71.553  1.00  0.00     0.220 C 
ATOM      4  N   UNL     1      75.320  90.205  70.858  1.00  0.00    -0.352 N 
ATOM      5  H   UNL     1      76.055  90.250  70.165  1.00  0.00     0.163 HD
ATOM      6  O   UNL     1      74.216  91.465  72.412  1.00  0.00    -0.275 OA
BRANCH   4   7
ATOM      7  C   UNL     1      74.591  88.992  71.041  1.00  0.00     0.151 C 
BRANCH   7   8
ATOM      8  C   UNL     1      75.306  87.807  70.499  1.00  0.00    -0.025 A 
ATOM      9  C   UNL     1      77.082  86.839  69.099  1.00  0.00     0.160 A 
ATOM     10  C   UNL     1      76.632  85.542  69.428  1.00  0.00     0.157 A 
ATOM     11  C   UNL     1      76.411  87.961  69.629  1.00  0.00     0.056 A 
ATOM     12  C   UNL     1      75.545  85.377  70.306  1.00  0.00     0.050 A 
ATOM     13  C   UNL     1      74.894  86.502  70.846  1.00  0.00     0.009 A 
BRANCH   9  14
ATOM     14  O   UNL     1      78.192  87.010  68.316  1.00  0.00    -0.493 OA
ATOM     15  C   UNL     1      77.905  87.186  66.919  1.00  0.00     0.278 C 
ENDBRANCH   9  14
BRANCH  10  16
ATOM     16  O   UNL     1      77.232  84.438  68.917  1.00  0.00    -0.504 OA
ATOM     17  H   UNL     1      77.779  84.029  69.593  1.00  0.00     0.293 HD
ENDBRANCH  10  16
ENDBRANCH   7   8
ENDBRANCH   4   7
ENDBRANCH   2   3
ENDBRANCH   1   2
BRANCH   1  18
ATOM     18  C   UNL     1      78.269  92.686  72.542  1.00  0.00     0.001 C 
BRANCH  18  19
ATOM     19  C   UNL     1      79.160  93.954  72.543  1.00  0.00     0.004 C 
BRANCH  19  20
ATOM     20  C   UNL     1      78.347  95.218  72.146  1.00  0.00     0.027 C 
BRANCH  20  21
ATOM     21  C   UNL     1      78.876  95.913  70.985  1.00  0.00    -0.031 C 
ATOM     22  C   UNL     1      78.256  95.894  69.791  1.00  0.00    -0.028 C 
BRANCH  22  23
ATOM     23  C   UNL     1      78.758  96.585  68.607  1.00  0.00     0.005 C 
ATOM     24  C   UNL     1      77.791  96.378  67.412  1.00  0.00     0.012 C 
ATOM     25  C   UNL     1      78.993  98.088  68.922  1.00  0.00     0.012 C 
ENDBRANCH  22  23
ENDBRANCH  20  21
ENDBRANCH  19  20
ENDBRANCH  18  19
ENDBRANCH   1  18
TORSDOF 11
ENDMDL
MODEL 4
REMARK VINA RESULT:    -5.713      1.185      2.088
REMARK INTER + INTRA:         -10.168
REMARK INTER:                  -9.369
REMARK INTRA:                  -0.799
REMARK UNBOUND:                -0.949
REMARK SMILES COc1cc(CNC(=O)CCCCC/C=C/C(C)C)ccc1O
REMARK SMILES IDX 11 1 10 2 8 3 7 4 9 6 6 7 5 8 3 9 22 10 4 11 21 12 20 13
REMARK SMILES IDX 2 14 1 15 23 16 12 18 13 19 14 20 15 21 16 22 17 23 18 24
REMARK SMILES IDX 19 25
REMARK H PARENT 7 5 23 17
REMARK Flexibility Score: inf
ROOT
ATOM      1  C   UNL     1      94.754  98.148  75.821  1.00  0.00     0.010 C 
ENDROOT
BRANCH   1   2
ATOM      2  C   UNL     1      93.367  98.124  75.128  1.00  0.00     0.100 C 
BRANCH   2   3
ATOM      3  C   UNL     1      92.908  99.445  74.660  1.00  0.00     0.220 C 
ATOM      4  N   UNL     1      92.479  99.598  73.376  1.00  0.00    -0.352 N 
ATOM      5  H   UNL     1      92.580  98.776  72.797  1.00  0.00     0.163 HD
ATOM      6  O   UNL     1      92.886 100.393  75.480  1.00  0.00    -0.275 OA
BRANCH   4   7
ATOM      7  C   UNL     1      91.921 100.790  72.825  1.00  0.00     0.151 C 
BRANCH   7   8
ATOM      8  C   UNL     1      90.968 100.516  71.718  1.00  0.00    -0.025 A 
ATOM      9  C   UNL     1      90.047  98.994  70.020  1.00  0.00     0.160 A 
ATOM     10  C   UNL     1      89.185 100.018  69.570  1.00  0.00     0.157 A 
ATOM     11  C   UNL     1      90.937  99.253  71.082  1.00  0.00     0.056 A 
ATOM     12  C   UNL     1      89.196 101.273  70.206  1.00  0.00     0.050 A 
ATOM     13  C   UNL     1      90.073 101.517  71.279  1.00  0.00     0.009 A 
BRANCH   9  14
ATOM     14  O   UNL     1      89.983  97.743  69.466  1.00  0.00    -0.493 OA
ATOM     15  C   UNL     1      89.649  96.703  70.401  1.00  0.00     0.278 C 
ENDBRANCH   9  14
BRANCH  10  16
ATOM     16  O   UNL     1      88.334  99.819  68.532  1.00  0.00    -0.504 OA
ATOM     17  H   UNL     1      88.540 100.438  67.827  1.00  0.00     0.293 HD
ENDBRANCH  10  16
ENDBRANCH   7   8
ENDBRANCH   4   7
ENDBRANCH   2   3
ENDBRANCH   1   2
BRANCH   1  18
ATOM     18  C   UNL     1      95.085  96.774  76.457  1.00  0.00     0.001 C 
BRANCH  18  19
ATOM     19  C   UNL     1      94.421  96.551  77.840  1.00  0.00     0.004 C 
BRANCH  19  20
ATOM     20  C   UNL     1      94.466  95.054  78.256  1.00  0.00     0.027 C 
BRANCH  20  21
ATOM     21  C   UNL     1      93.186  94.377  78.140  1.00  0.00    -0.031 C 
ATOM     22  C   UNL     1      92.015  95.025  78.273  1.00  0.00    -0.028 C 
BRANCH  22  23
ATOM     23  C   UNL     1      90.712  94.375  78.156  1.00  0.00     0.005 C 
ATOM     24  C   UNL     1      89.708  95.309  77.430  1.00  0.00     0.012 C 
ATOM     25  C   UNL     1      90.859  93.001  77.447  1.00  0.00     0.012 C 
ENDBRANCH  22  23
ENDBRANCH  20  21
ENDBRANCH  19  20
ENDBRANCH  18  19
ENDBRANCH   1  18
TORSDOF 11
ENDMDL
MODEL 5
REMARK VINA RESULT:    -5.640     19.427     21.988
REMARK INTER + INTRA:         -10.051
REMARK INTER:                  -9.067
REMARK INTRA:                  -0.985
REMARK UNBOUND:                -0.949
REMARK SMILES COc1cc(CNC(=O)CCCCC/C=C/C(C)C)ccc1O
REMARK SMILES IDX 11 1 10 2 8 3 7 4 9 6 6 7 5 8 3 9 22 10 4 11 21 12 20 13
REMARK SMILES IDX 2 14 1 15 23 16 12 18 13 19 14 20 15 21 16 22 17 23 18 24
REMARK SMILES IDX 19 25
REMARK H PARENT 7 5 23 17
REMARK Flexibility Score: inf
ROOT
ATOM      1  C   UNL     1      75.523  86.348  69.500  1.00  0.00     0.010 C 
ENDROOT
BRANCH   1   2
ATOM      2  C   UNL     1      76.783  85.568  69.955  1.00  0.00     0.100 C 
BRANCH   2   3
ATOM      3  C   UNL     1      77.504  84.899  68.856  1.00  0.00     0.220 C 
ATOM      4  N   UNL     1      76.909  83.880  68.176  1.00  0.00    -0.352 N 
ATOM      5  H   UNL     1      76.009  83.600  68.540  1.00  0.00     0.163 HD
ATOM      6  O   UNL     1      78.644  85.320  68.548  1.00  0.00    -0.275 OA
BRANCH   4   7
ATOM      7  C   UNL     1      77.452  83.215  67.037  1.00  0.00     0.151 C 
BRANCH   7   8
ATOM      8  C   UNL     1      76.414  82.521  66.231  1.00  0.00    -0.025 A 
ATOM      9  C   UNL     1      74.078  81.824  65.901  1.00  0.00     0.160 A 
ATOM     10  C   UNL     1      74.448  81.149  64.717  1.00  0.00     0.157 A 
ATOM     11  C   UNL     1      75.064  82.496  66.652  1.00  0.00     0.056 A 
ATOM     12  C   UNL     1      75.785  81.182  64.279  1.00  0.00     0.050 A 
ATOM     13  C   UNL     1      76.759  81.871  65.025  1.00  0.00     0.009 A 
BRANCH   9  14
ATOM     14  O   UNL     1      72.766  81.873  66.289  1.00  0.00    -0.493 OA
ATOM     15  C   UNL     1      72.117  83.125  66.013  1.00  0.00     0.278 C 
ENDBRANCH   9  14
BRANCH  10  16
ATOM     16  O   UNL     1      73.536  80.467  63.980  1.00  0.00    -0.504 OA
ATOM     17  H   UNL     1      72.651  80.713  64.260  1.00  0.00     0.293 HD
ENDBRANCH  10  16
ENDBRANCH   7   8
ENDBRANCH   4   7
ENDBRANCH   2   3
ENDBRANCH   1   2
BRANCH   1  18
ATOM     18  C   UNL     1      75.892  87.475  68.503  1.00  0.00     0.001 C 
BRANCH  18  19
ATOM     19  C   UNL     1      75.342  88.867  68.905  1.00  0.00     0.004 C 
BRANCH  19  20
ATOM     20  C   UNL     1      75.561  89.148  70.418  1.00  0.00     0.027 C 
BRANCH  20  21
ATOM     21  C   UNL     1      74.354  89.552  71.118  1.00  0.00    -0.031 C 
ATOM     22  C   UNL     1      73.670  88.713  71.915  1.00  0.00    -0.028 C 
BRANCH  22  23
ATOM     23  C   UNL     1      72.457  89.090  72.637  1.00  0.00     0.005 C 
ATOM     24  C   UNL     1      72.745  90.282  73.588  1.00  0.00     0.012 C 
ATOM     25  C   UNL     1      71.311  89.398  71.635  1.00  0.00     0.012 C 
ENDBRANCH  22  23
ENDBRANCH  20  21
ENDBRANCH  19  20
ENDBRANCH  18  19
ENDBRANCH   1  18
TORSDOF 11
ENDMDL
MODEL 6
REMARK VINA RESULT:    -5.443     19.204     21.784
REMARK INTER + INTRA:          -9.733
REMARK INTER:                  -7.170
REMARK INTRA:                  -2.563
REMARK UNBOUND:                -0.949
REMARK SMILES COc1cc(CNC(=O)CCCCC/C=C/C(C)C)ccc1O
REMARK SMILES IDX 11 1 10 2 8 3 7 4 9 6 6 7 5 8 3 9 22 10 4 11 21 12 20 13
REMARK SMILES IDX 2 14 1 15 23 16 12 18 13 19 14 20 15 21 16 22 17 23 18 24
REMARK SMILES IDX 19 25
REMARK H PARENT 7 5 23 17
REMARK Flexibility Score: inf
ROOT
ATOM      1  C   UNL     1      73.922  87.754  63.860  1.00  0.00     0.010 C 
ENDROOT
BRANCH   1   2
ATOM      2  C   UNL     1      72.890  87.737  65.017  1.00  0.00     0.100 C 
BRANCH   2   3
ATOM      3  C   UNL     1      72.986  86.552  65.890  1.00  0.00     0.220 C 
ATOM      4  N   UNL     1      73.334  85.346  65.360  1.00  0.00    -0.352 N 
ATOM      5  H   UNL     1      73.434  85.341  64.354  1.00  0.00     0.163 HD
ATOM      6  O   UNL     1      72.782  86.699  67.118  1.00  0.00    -0.275 OA
BRANCH   4   7
ATOM      7  C   UNL     1      73.556  84.148  66.102  1.00  0.00     0.151 C 
BRANCH   7   8
ATOM      8  C   UNL     1      74.993  83.921  66.404  1.00  0.00    -0.025 A 
ATOM      9  C   UNL     1      76.862  83.895  68.003  1.00  0.00     0.160 A 
ATOM     10  C   UNL     1      77.746  83.538  66.962  1.00  0.00     0.157 A 
ATOM     11  C   UNL     1      75.496  84.092  67.715  1.00  0.00     0.056 A 
ATOM     12  C   UNL     1      77.255  83.348  65.658  1.00  0.00     0.050 A 
ATOM     13  C   UNL     1      75.887  83.528  65.382  1.00  0.00     0.009 A 
BRANCH   9  14
ATOM     14  O   UNL     1      77.314  83.996  69.292  1.00  0.00    -0.493 OA
ATOM     15  C   UNL     1      76.409  84.674  70.180  1.00  0.00     0.278 C 
ENDBRANCH   9  14
BRANCH  10  16
ATOM     16  O   UNL     1      79.072  83.366  67.192  1.00  0.00    -0.504 OA
ATOM     17  H   UNL     1      79.536  83.302  66.354  1.00  0.00     0.293 HD
ENDBRANCH  10  16
ENDBRANCH   7   8
ENDBRANCH   4   7
ENDBRANCH   2   3
ENDBRANCH   1   2
BRANCH   1  18
ATOM     18  C   UNL     1      75.302  88.265  64.347  1.00  0.00     0.001 C 
BRANCH  18  19
ATOM     19  C   UNL     1      76.362  87.146  64.504  1.00  0.00     0.004 C 
BRANCH  19  20
ATOM     20  C   UNL     1      77.077  87.231  65.881  1.00  0.00     0.027 C 
BRANCH  20  21
ATOM     21  C   UNL     1      76.404  88.094  66.837  1.00  0.00    -0.031 C 
ATOM     22  C   UNL     1      75.855  87.621  67.970  1.00  0.00    -0.028 C 
BRANCH  22  23
ATOM     23  C   UNL     1      75.177  88.463  68.953  1.00  0.00     0.005 C 
ATOM     24  C   UNL     1      76.021  88.560  70.252  1.00  0.00     0.012 C 
ATOM     25  C   UNL     1      74.869  89.858  68.344  1.00  0.00     0.012 C 
ENDBRANCH  22  23
ENDBRANCH  20  21
ENDBRANCH  19  20
ENDBRANCH  18  19
ENDBRANCH   1  18
TORSDOF 11
ENDMDL
MODEL 7
REMARK VINA RESULT:    -5.429     16.779     19.514
REMARK INTER + INTRA:          -9.711
REMARK INTER:                  -7.960
REMARK INTRA:                  -1.751
REMARK UNBOUND:                -0.949
REMARK SMILES COc1cc(CNC(=O)CCCCC/C=C/C(C)C)ccc1O
REMARK SMILES IDX 11 1 10 2 8 3 7 4 9 6 6 7 5 8 3 9 22 10 4 11 21 12 20 13
REMARK SMILES IDX 2 14 1 15 23 16 12 18 13 19 14 20 15 21 16 22 17 23 18 24
REMARK SMILES IDX 19 25
REMARK H PARENT 7 5 23 17
REMARK Flexibility Score: inf
ROOT
ATOM      1  C   UNL     1      99.649  82.395  80.683  1.00  0.00     0.010 C 
ENDROOT
BRANCH   1   2
ATOM      2  C   UNL     1      98.365  83.258  80.581  1.00  0.00     0.100 C 
BRANCH   2   3
ATOM      3  C   UNL     1      97.887  83.461  79.201  1.00  0.00     0.220 C 
ATOM      4  N   UNL     1      98.732  83.961  78.257  1.00  0.00    -0.352 N 
ATOM      5  H   UNL     1      99.641  84.233  78.606  1.00  0.00     0.163 HD
ATOM      6  O   UNL     1      96.711  83.126  78.922  1.00  0.00    -0.275 OA
BRANCH   4   7
ATOM      7  C   UNL     1      98.430  84.115  76.871  1.00  0.00     0.151 C 
BRANCH   7   8
ATOM      8  C   UNL     1      99.411  83.428  75.992  1.00  0.00    -0.025 A 
ATOM      9  C   UNL     1     100.249  81.380  74.919  1.00  0.00     0.160 A 
ATOM     10  C   UNL     1     101.317  82.113  74.356  1.00  0.00     0.157 A 
ATOM     11  C   UNL     1      99.311  82.039  75.738  1.00  0.00     0.056 A 
ATOM     12  C   UNL     1     101.416  83.497  74.587  1.00  0.00     0.050 A 
ATOM     13  C   UNL     1     100.464  84.152  75.390  1.00  0.00     0.009 A 
BRANCH   9  14
ATOM     14  O   UNL     1     100.094  80.050  74.629  1.00  0.00    -0.493 OA
ATOM     15  C   UNL     1      98.897  79.745  73.893  1.00  0.00     0.278 C 
ENDBRANCH   9  14
BRANCH  10  16
ATOM     16  O   UNL     1     102.257  81.510  73.585  1.00  0.00    -0.504 OA
ATOM     17  H   UNL     1     101.876  81.290  72.731  1.00  0.00     0.293 HD
ENDBRANCH  10  16
ENDBRANCH   7   8
ENDBRANCH   4   7
ENDBRANCH   2   3
ENDBRANCH   1   2
BRANCH   1  18
ATOM     18  C   UNL     1      99.486  81.056  79.919  1.00  0.00     0.001 C 
BRANCH  18  19
ATOM     19  C   UNL     1     100.712  80.681  79.049  1.00  0.00     0.004 C 
BRANCH  19  20
ATOM     20  C   UNL     1     101.540  81.939  78.664  1.00  0.00     0.027 C 
BRANCH  20  21
ATOM     21  C   UNL     1     102.974  81.710  78.638  1.00  0.00    -0.031 C 
ATOM     22  C   UNL     1     103.671  81.389  79.742  1.00  0.00    -0.028 C 
BRANCH  22  23
ATOM     23  C   UNL     1     105.112  81.147  79.748  1.00  0.00     0.005 C 
ATOM     24  C   UNL     1     105.421  79.758  80.368  1.00  0.00     0.012 C 
ATOM     25  C   UNL     1     105.687  81.294  78.313  1.00  0.00     0.012 C 
ENDBRANCH  22  23
ENDBRANCH  20  21
ENDBRANCH  19  20
ENDBRANCH  18  19
ENDBRANCH   1  18
TORSDOF 11
ENDMDL
MODEL 8
REMARK VINA RESULT:    -5.363     16.904     20.672
REMARK INTER + INTRA:          -9.604
REMARK INTER:                  -8.702
REMARK INTRA:                  -0.902
REMARK UNBOUND:                -0.949
REMARK SMILES COc1cc(CNC(=O)CCCCC/C=C/C(C)C)ccc1O
REMARK SMILES IDX 11 1 10 2 8 3 7 4 9 6 6 7 5 8 3 9 22 10 4 11 21 12 20 13
REMARK SMILES IDX 2 14 1 15 23 16 12 18 13 19 14 20 15 21 16 22 17 23 18 24
REMARK SMILES IDX 19 25
REMARK H PARENT 7 5 23 17
REMARK Flexibility Score: inf
ROOT
ATOM      1  C   UNL     1     100.511  81.477  80.104  1.00  0.00     0.010 C 
ENDROOT
BRANCH   1   2
ATOM      2  C   UNL     1     100.654  80.210  80.986  1.00  0.00     0.100 C 
BRANCH   2   3
ATOM      3  C   UNL     1     100.272  80.413  82.396  1.00  0.00     0.220 C 
ATOM      4  N   UNL     1      98.964  80.600  82.723  1.00  0.00    -0.352 N 
ATOM      5  H   UNL     1      98.336  80.660  81.933  1.00  0.00     0.163 HD
ATOM      6  O   UNL     1     101.171  80.366  83.269  1.00  0.00    -0.275 OA
BRANCH   4   7
ATOM      7  C   UNL     1      98.448  80.711  84.049  1.00  0.00     0.151 C 
BRANCH   7   8
ATOM      8  C   UNL     1      98.199  82.120  84.450  1.00  0.00    -0.025 A 
ATOM      9  C   UNL     1      98.360  83.930  86.107  1.00  0.00     0.160 A 
ATOM     10  C   UNL     1      97.671  84.794  85.229  1.00  0.00     0.157 A 
ATOM     11  C   UNL     1      98.611  82.599  85.715  1.00  0.00     0.056 A 
ATOM     12  C   UNL     1      97.271  84.333  83.961  1.00  0.00     0.050 A 
ATOM     13  C   UNL     1      97.542  83.009  83.570  1.00  0.00     0.009 A 
BRANCH   9  14
ATOM     14  O   UNL     1      98.831  84.393  87.307  1.00  0.00    -0.493 OA
ATOM     15  C   UNL     1     100.225  84.129  87.533  1.00  0.00     0.278 C 
ENDBRANCH   9  14
BRANCH  10  16
ATOM     16  O   UNL     1      97.385  86.073  85.578  1.00  0.00    -0.504 OA
ATOM     17  H   UNL     1      96.669  86.403  85.029  1.00  0.00     0.293 HD
ENDBRANCH  10  16
ENDBRANCH   7   8
ENDBRANCH   4   7
ENDBRANCH   2   3
ENDBRANCH   1   2
BRANCH   1  18
ATOM     18  C   UNL     1      99.796  81.152  78.768  1.00  0.00     0.001 C 
BRANCH  18  19
ATOM     19  C   UNL     1      98.355  81.715  78.679  1.00  0.00     0.004 C 
BRANCH  19  20
ATOM     20  C   UNL     1      98.335  83.117  78.009  1.00  0.00     0.027 C 
BRANCH  20  21
ATOM     21  C   UNL     1      99.535  83.418  77.247  1.00  0.00    -0.031 C 
ATOM     22  C   UNL     1      99.495  84.071  76.072  1.00  0.00    -0.028 C 
BRANCH  22  23
ATOM     23  C   UNL     1     100.683  84.393  75.284  1.00  0.00     0.005 C 
ATOM     24  C   UNL     1     100.522  85.783  74.613  1.00  0.00     0.012 C 
ATOM     25  C   UNL     1     101.954  84.310  76.172  1.00  0.00     0.012 C 
ENDBRANCH  22  23
ENDBRANCH  20  21
ENDBRANCH  19  20
ENDBRANCH  18  19
ENDBRANCH   1  18
TORSDOF 11
ENDMDL
MODEL 9
REMARK VINA RESULT:    -5.357     14.621     17.614
REMARK INTER + INTRA:          -9.594
REMARK INTER:                  -8.775
REMARK INTRA:                  -0.819
REMARK UNBOUND:                -0.949
REMARK SMILES COc1cc(CNC(=O)CCCCC/C=C/C(C)C)ccc1O
REMARK SMILES IDX 11 1 10 2 8 3 7 4 9 6 6 7 5 8 3 9 22 10 4 11 21 12 20 13
REMARK SMILES IDX 2 14 1 15 23 16 12 18 13 19 14 20 15 21 16 22 17 23 18 24
REMARK SMILES IDX 19 25
REMARK H PARENT 7 5 23 17
REMARK Flexibility Score: inf
ROOT
ATOM      1  C   UNL     1      74.629  91.256  71.866  1.00  0.00     0.010 C 
ENDROOT
BRANCH   1   2
ATOM      2  C   UNL     1      75.345  92.189  70.856  1.00  0.00     0.100 C 
BRANCH   2   3
ATOM      3  C   UNL     1      76.320  93.107  71.473  1.00  0.00     0.220 C 
ATOM      4  N   UNL     1      77.270  92.619  72.318  1.00  0.00    -0.352 N 
ATOM      5  H   UNL     1      77.186  91.633  72.522  1.00  0.00     0.163 HD
ATOM      6  O   UNL     1      76.271  94.322  71.167  1.00  0.00    -0.275 OA
BRANCH   4   7
ATOM      7  C   UNL     1      78.327  93.377  72.905  1.00  0.00     0.151 C 
BRANCH   7   8
ATOM      8  C   UNL     1      77.927  94.026  74.180  1.00  0.00    -0.025 A 
ATOM      9  C   UNL     1      76.785  93.935  76.357  1.00  0.00     0.160 A 
ATOM     10  C   UNL     1      77.120  95.287  76.588  1.00  0.00     0.157 A 
ATOM     11  C   UNL     1      77.182  93.318  75.153  1.00  0.00     0.056 A 
ATOM     12  C   UNL     1      77.875  95.995  75.636  1.00  0.00     0.050 A 
ATOM     13  C   UNL     1      78.284  95.367  74.445  1.00  0.00     0.009 A 
BRANCH   9  14
ATOM     14  O   UNL     1      76.127  93.210  77.315  1.00  0.00    -0.493 OA
ATOM     15  C   UNL     1      74.735  92.991  77.034  1.00  0.00     0.278 C 
ENDBRANCH   9  14
BRANCH  10  16
ATOM     16  O   UNL     1      76.733  95.925  77.721  1.00  0.00    -0.504 OA
ATOM     17  H   UNL     1      75.809  96.177  77.645  1.00  0.00     0.293 HD
ENDBRANCH  10  16
ENDBRANCH   7   8
ENDBRANCH   4   7
ENDBRANCH   2   3
ENDBRANCH   1   2
BRANCH   1  18
ATOM     18  C   UNL     1      73.950  90.065  71.144  1.00  0.00     0.001 C 
BRANCH  18  19
ATOM     19  C   UNL     1      74.836  88.795  71.069  1.00  0.00     0.004 C 
BRANCH  19  20
ATOM     20  C   UNL     1      75.707  88.787  69.782  1.00  0.00     0.027 C 
BRANCH  20  21
ATOM     21  C   UNL     1      76.735  87.760  69.778  1.00  0.00    -0.031 C 
ATOM     22  C   UNL     1      76.463  86.470  70.046  1.00  0.00    -0.028 C 
BRANCH  22  23
ATOM     23  C   UNL     1      77.471  85.413  70.045  1.00  0.00     0.005 C 
ATOM     24  C   UNL     1      76.823  84.050  70.406  1.00  0.00     0.012 C 
ATOM     25  C   UNL     1      78.206  85.373  68.678  1.00  0.00     0.012 C 
ENDBRANCH  22  23
ENDBRANCH  20  21
ENDBRANCH  19  20
ENDBRANCH  18  19
ENDBRANCH   1  18
TORSDOF 11
ENDMDL
MODEL 10
REMARK VINA RESULT:    -5.273     15.976     18.925
REMARK INTER + INTRA:          -9.458
REMARK INTER:                  -8.772
REMARK INTRA:                  -0.686
REMARK UNBOUND:                -0.949
REMARK SMILES COc1cc(CNC(=O)CCCCC/C=C/C(C)C)ccc1O
REMARK SMILES IDX 11 1 10 2 8 3 7 4 9 6 6 7 5 8 3 9 22 10 4 11 21 12 20 13
REMARK SMILES IDX 2 14 1 15 23 16 12 18 13 19 14 20 15 21 16 22 17 23 18 24
REMARK SMILES IDX 19 25
REMARK H PARENT 7 5 23 17
REMARK Flexibility Score: inf
ROOT
ATOM      1  C   UNL     1      75.655  86.614  69.877  1.00  0.00     0.010 C 
ENDROOT
BRANCH   1   2
ATOM      2  C   UNL     1      76.261  88.037  69.990  1.00  0.00     0.100 C 
BRANCH   2   3
ATOM      3  C   UNL     1      75.414  88.993  70.727  1.00  0.00     0.220 C 
ATOM      4  N   UNL     1      75.755  90.311  70.765  1.00  0.00    -0.352 N 
ATOM      5  H   UNL     1      76.639  90.531  70.326  1.00  0.00     0.163 HD
ATOM      6  O   UNL     1      74.369  88.566  71.271  1.00  0.00    -0.275 OA
BRANCH   4   7
ATOM      7  C   UNL     1      74.979  91.352  71.356  1.00  0.00     0.151 C 
BRANCH   7   8
ATOM      8  C   UNL     1      75.760  92.173  72.317  1.00  0.00    -0.025 A 
ATOM      9  C   UNL     1      77.813  93.389  72.912  1.00  0.00     0.160 A 
ATOM     10  C   UNL     1      77.265  93.694  74.177  1.00  0.00     0.157 A 
ATOM     11  C   UNL     1      77.061  92.625  71.997  1.00  0.00     0.056 A 
ATOM     12  C   UNL     1      75.965  93.264  74.501  1.00  0.00     0.050 A 
ATOM     13  C   UNL     1      75.214  92.518  73.574  1.00  0.00     0.009 A 
BRANCH   9  14
ATOM     14  O   UNL     1      79.042  93.877  72.554  1.00  0.00    -0.493 OA
ATOM     15  C   UNL     1      78.991  95.066  71.749  1.00  0.00     0.278 C 
ENDBRANCH   9  14
BRANCH  10  16
ATOM     16  O   UNL     1      77.967  94.402  75.098  1.00  0.00    -0.504 OA
ATOM     17  H   UNL     1      78.085  93.870  75.888  1.00  0.00     0.293 HD
ENDBRANCH  10  16
ENDBRANCH   7   8
ENDBRANCH   4   7
ENDBRANCH   2   3
ENDBRANCH   1   2
BRANCH   1  18
ATOM     18  C   UNL     1      76.617  85.549  70.464  1.00  0.00     0.001 C 
BRANCH  18  19
ATOM     19  C   UNL     1      76.896  84.365  69.504  1.00  0.00     0.004 C 
BRANCH  19  20
ATOM     20  C   UNL     1      77.639  84.838  68.223  1.00  0.00     0.027 C 
BRANCH  20  21
ATOM     21  C   UNL     1      76.916  84.561  66.993  1.00  0.00    -0.031 C 
ATOM     22  C   UNL     1      77.492  83.950  65.943  1.00  0.00    -0.028 C 
BRANCH  22  23
ATOM     23  C   UNL     1      76.792  83.652  64.696  1.00  0.00     0.005 C 
ATOM     24  C   UNL     1      77.621  84.150  63.482  1.00  0.00     0.012 C 
ATOM     25  C   UNL     1      76.471  82.135  64.609  1.00  0.00     0.012 C 
ENDBRANCH  22  23
ENDBRANCH  20  21
ENDBRANCH  19  20
ENDBRANCH  18  19
ENDBRANCH   1  18
TORSDOF 11
ENDMDL
