MODEL 1
REMARK VINA RESULT:    -5.977      0.000      0.000
REMARK INTER + INTRA:         -11.058
REMARK INTER:                  -9.821
REMARK INTRA:                  -1.236
REMARK UNBOUND:                -1.236
REMARK SMILES CCCCC[C@H](O)CC(=O)CCc1ccc(O)c(OC)c1
REMARK SMILES IDX 8 1 6 2 7 3 5 5 4 6 3 7 2 8 1 9 9 10 10 11 11 12 12 13 13 14
REMARK SMILES IDX 21 15 14 16 18 17 15 18 16 19 19 20 20 21 17 22
REMARK H PARENT 7 4 17 23
REMARK Flexibility Score: inf
ROOT
ATOM      1  C   UNL     1      93.622  96.275  76.060  1.00  0.00     0.107 C 
ENDROOT
BRANCH   1   2
ATOM      2  C   UNL     1      93.003  95.956  77.423  1.00  0.00     0.121 C 
BRANCH   2   3
ATOM      3  O   UNL     1      91.715  96.560  77.522  1.00  0.00    -0.393 OA
ATOM      4  H   UNL     1      91.742  97.200  78.255  1.00  0.00     0.210 HD
ENDBRANCH   2   3
BRANCH   2   5
ATOM      5  C   UNL     1      92.877  94.451  77.688  1.00  0.00     0.032 C 
BRANCH   5   6
ATOM      6  C   UNL     1      91.837  94.141  78.772  1.00  0.00     0.003 C 
BRANCH   6   7
ATOM      7  C   UNL     1      90.698  93.241  78.281  1.00  0.00    -0.000 C 
BRANCH   7   8
ATOM      8  C   UNL     1      89.398  93.994  78.006  1.00  0.00    -0.003 C 
ATOM      9  C   UNL     1      89.316  94.450  76.558  1.00  0.00     0.004 C 
ENDBRANCH   7   8
ENDBRANCH   6   7
ENDBRANCH   5   6
ENDBRANCH   2   5
ENDBRANCH   1   2
BRANCH   1  10
ATOM     10  C   UNL     1      94.916  97.067  76.164  1.00  0.00     0.135 C 
ATOM     11  O   UNL     1      95.743  97.049  75.252  1.00  0.00    -0.300 OA
BRANCH  10  12
ATOM     12  C   UNL     1      95.104  97.904  77.419  1.00  0.00     0.080 C 
BRANCH  12  13
ATOM     13  C   UNL     1      96.275  97.449  78.292  1.00  0.00     0.043 C 
BRANCH  13  14
ATOM     14  C   UNL     1      95.858  97.081  79.697  1.00  0.00    -0.044 A 
ATOM     15  C   UNL     1      95.574  95.753  80.014  1.00  0.00     0.054 A 
ATOM     16  C   UNL     1      95.758  98.070  80.676  1.00  0.00     0.008 A 
ATOM     17  C   UNL     1      95.190  95.414  81.312  1.00  0.00     0.160 A 
ATOM     18  C   UNL     1      95.374  97.731  81.973  1.00  0.00     0.050 A 
ATOM     19  C   UNL     1      95.090  96.403  82.291  1.00  0.00     0.157 A 
BRANCH  17  20
ATOM     20  O   UNL     1      94.914  94.114  81.611  1.00  0.00    -0.493 OA
ATOM     21  C   UNL     1      95.166  93.147  80.592  1.00  0.00     0.278 C 
ENDBRANCH  17  20
BRANCH  19  22
ATOM     22  O   UNL     1      94.716  96.084  83.561  1.00  0.00    -0.504 OA
ATOM     23  H   UNL     1      95.107  95.227  83.801  1.00  0.00     0.293 HD
ENDBRANCH  19  22
ENDBRANCH  13  14
ENDBRANCH  12  13
ENDBRANCH  10  12
ENDBRANCH   1  10
TORSDOF 12
ENDMDL
MODEL 2
REMARK VINA RESULT:    -5.763     21.430     26.152
REMARK INTER + INTRA:         -10.705
REMARK INTER:                  -9.804
REMARK INTRA:                  -0.900
REMARK UNBOUND:                -1.236
REMARK SMILES CCCCC[C@H](O)CC(=O)CCc1ccc(O)c(OC)c1
REMARK SMILES IDX 8 1 6 2 7 3 5 5 4 6 3 7 2 8 1 9 9 10 10 11 11 12 12 13 13 14
REMARK SMILES IDX 21 15 14 16 18 17 15 18 16 19 19 20 20 21 17 22
REMARK H PARENT 7 4 17 23
REMARK Flexibility Score: inf
ROOT
ATOM      1  C   UNL     1      77.080  84.079  68.303  1.00  0.00     0.107 C 
ENDROOT
BRANCH   1   2
ATOM      2  C   UNL     1      77.509  85.443  68.852  1.00  0.00     0.121 C 
BRANCH   2   3
ATOM      3  O   UNL     1      78.914  85.447  69.091  1.00  0.00    -0.393 OA
ATOM      4  H   UNL     1      79.065  85.835  69.971  1.00  0.00     0.210 HD
ENDBRANCH   2   3
BRANCH   2   5
ATOM      5  C   UNL     1      77.152  86.605  67.917  1.00  0.00     0.032 C 
BRANCH   5   6
ATOM      6  C   UNL     1      76.078  87.519  68.518  1.00  0.00     0.003 C 
BRANCH   6   7
ATOM      7  C   UNL     1      75.437  86.949  69.788  1.00  0.00    -0.000 C 
BRANCH   7   8
ATOM      8  C   UNL     1      75.003  88.019  70.787  1.00  0.00    -0.003 C 
ATOM      9  C   UNL     1      75.577  89.381  70.426  1.00  0.00     0.004 C 
ENDBRANCH   7   8
ENDBRANCH   6   7
ENDBRANCH   5   6
ENDBRANCH   2   5
ENDBRANCH   1   2
BRANCH   1  10
ATOM     10  C   UNL     1      77.821  83.688  67.035  1.00  0.00     0.135 C 
ATOM     11  O   UNL     1      79.050  83.629  67.012  1.00  0.00    -0.300 OA
BRANCH  10  12
ATOM     12  C   UNL     1      76.966  83.335  65.827  1.00  0.00     0.080 C 
BRANCH  12  13
ATOM     13  C   UNL     1      76.888  81.833  65.547  1.00  0.00     0.043 C 
BRANCH  13  14
ATOM     14  C   UNL     1      75.566  81.409  64.952  1.00  0.00    -0.044 A 
ATOM     15  C   UNL     1      74.403  81.473  65.719  1.00  0.00     0.054 A 
ATOM     16  C   UNL     1      75.509  80.953  63.634  1.00  0.00     0.008 A 
ATOM     17  C   UNL     1      73.183  81.082  65.168  1.00  0.00     0.160 A 
ATOM     18  C   UNL     1      74.289  80.562  63.083  1.00  0.00     0.050 A 
ATOM     19  C   UNL     1      73.126  80.626  63.851  1.00  0.00     0.157 A 
BRANCH  17  20
ATOM     20  O   UNL     1      72.053  81.148  65.927  1.00  0.00    -0.493 OA
ATOM     21  C   UNL     1      71.278  82.342  65.833  1.00  0.00     0.278 C 
ENDBRANCH  17  20
BRANCH  19  22
ATOM     22  O   UNL     1      71.940  80.242  63.302  1.00  0.00    -0.504 OA
ATOM     23  H   UNL     1      72.109  79.568  62.622  1.00  0.00     0.293 HD
ENDBRANCH  19  22
ENDBRANCH  13  14
ENDBRANCH  12  13
ENDBRANCH  10  12
ENDBRANCH   1  10
TORSDOF 12
ENDMDL
MODEL 3
REMARK VINA RESULT:    -5.755     21.533     25.916
REMARK INTER + INTRA:         -10.692
REMARK INTER:                  -9.341
REMARK INTRA:                  -1.351
REMARK UNBOUND:                -1.236
REMARK SMILES CCCCC[C@H](O)CC(=O)CCc1ccc(O)c(OC)c1
REMARK SMILES IDX 8 1 6 2 7 3 5 5 4 6 3 7 2 8 1 9 9 10 10 11 11 12 12 13 13 14
REMARK SMILES IDX 21 15 14 16 18 17 15 18 16 19 19 20 20 21 17 22
REMARK H PARENT 7 4 17 23
REMARK Flexibility Score: inf
ROOT
ATOM      1  C   UNL     1      77.010  84.146  69.808  1.00  0.00     0.107 C 
ENDROOT
BRANCH   1   2
ATOM      2  C   UNL     1      77.169  85.620  70.192  1.00  0.00     0.121 C 
BRANCH   2   3
ATOM      3  O   UNL     1      78.409  86.117  69.695  1.00  0.00    -0.393 OA
ATOM      4  H   UNL     1      78.216  86.690  68.932  1.00  0.00     0.210 HD
ENDBRANCH   2   3
BRANCH   2   5
ATOM      5  C   UNL     1      76.027  86.502  69.674  1.00  0.00     0.032 C 
BRANCH   5   6
ATOM      6  C   UNL     1      76.530  87.862  69.174  1.00  0.00     0.003 C 
BRANCH   6   7
ATOM      7  C   UNL     1      76.264  88.096  67.683  1.00  0.00    -0.000 C 
BRANCH   7   8
ATOM      8  C   UNL     1      77.409  87.644  66.779  1.00  0.00    -0.003 C 
ATOM      9  C   UNL     1      76.942  86.607  65.769  1.00  0.00     0.004 C 
ENDBRANCH   7   8
ENDBRANCH   6   7
ENDBRANCH   5   6
ENDBRANCH   2   5
ENDBRANCH   1   2
BRANCH   1  10
ATOM     10  C   UNL     1      77.321  83.875  68.345  1.00  0.00     0.135 C 
ATOM     11  O   UNL     1      78.465  83.998  67.908  1.00  0.00    -0.300 OA
BRANCH  10  12
ATOM     12  C   UNL     1      76.163  83.405  67.478  1.00  0.00     0.080 C 
BRANCH  12  13
ATOM     13  C   UNL     1      76.597  82.866  66.113  1.00  0.00     0.043 C 
BRANCH  13  14
ATOM     14  C   UNL     1      75.518  82.064  65.424  1.00  0.00    -0.044 A 
ATOM     15  C   UNL     1      74.232  82.017  65.962  1.00  0.00     0.054 A 
ATOM     16  C   UNL     1      75.809  81.372  64.248  1.00  0.00     0.008 A 
ATOM     17  C   UNL     1      73.237  81.277  65.324  1.00  0.00     0.160 A 
ATOM     18  C   UNL     1      74.813  80.632  63.610  1.00  0.00     0.050 A 
ATOM     19  C   UNL     1      73.527  80.584  64.148  1.00  0.00     0.157 A 
BRANCH  17  20
ATOM     20  O   UNL     1      71.984  81.237  65.860  1.00  0.00    -0.493 OA
ATOM     21  C   UNL     1      71.493  82.440  66.448  1.00  0.00     0.278 C 
ENDBRANCH  17  20
BRANCH  19  22
ATOM     22  O   UNL     1      72.564  79.858  63.516  1.00  0.00    -0.504 OA
ATOM     23  H   UNL     1      72.285  80.332  62.714  1.00  0.00     0.293 HD
ENDBRANCH  19  22
ENDBRANCH  13  14
ENDBRANCH  12  13
ENDBRANCH  10  12
ENDBRANCH   1  10
TORSDOF 12
ENDMDL
MODEL 4
REMARK VINA RESULT:    -5.448      2.031      6.654
REMARK INTER + INTRA:         -10.188
REMARK INTER:                  -8.526
REMARK INTRA:                  -1.662
REMARK UNBOUND:                -1.236
REMARK SMILES CCCCC[C@H](O)CC(=O)CCc1ccc(O)c(OC)c1
REMARK SMILES IDX 8 1 6 2 7 3 5 5 4 6 3 7 2 8 1 9 9 10 10 11 11 12 12 13 13 14
REMARK SMILES IDX 21 15 14 16 18 17 15 18 16 19 19 20 20 21 17 22
REMARK H PARENT 7 4 17 23
REMARK Flexibility Score: inf
ROOT
ATOM      1  C   UNL     1      93.410  95.592  79.407  1.00  0.00     0.107 C 
ENDROOT
BRANCH   1   2
ATOM      2  C   UNL     1      94.445  94.746  80.152  1.00  0.00     0.121 C 
BRANCH   2   3
ATOM      3  O   UNL     1      94.130  93.362  80.012  1.00  0.00    -0.393 OA
ATOM      4  H   UNL     1      93.960  93.004  80.901  1.00  0.00     0.210 HD
ENDBRANCH   2   3
BRANCH   2   5
ATOM      5  C   UNL     1      95.880  94.988  79.668  1.00  0.00     0.032 C 
BRANCH   5   6
ATOM      6  C   UNL     1      96.082  96.421  79.160  1.00  0.00     0.003 C 
BRANCH   6   7
ATOM      7  C   UNL     1      96.758  97.338  80.184  1.00  0.00    -0.000 C 
BRANCH   7   8
ATOM      8  C   UNL     1      95.808  98.352  80.818  1.00  0.00    -0.003 C 
ATOM      9  C   UNL     1      95.204  97.816  82.106  1.00  0.00     0.004 C 
ENDBRANCH   7   8
ENDBRANCH   6   7
ENDBRANCH   5   6
ENDBRANCH   2   5
ENDBRANCH   1   2
BRANCH   1  10
ATOM     10  C   UNL     1      92.446  94.760  78.577  1.00  0.00     0.135 C 
ATOM     11  O   UNL     1      91.648  93.992  79.115  1.00  0.00    -0.300 OA
BRANCH  10  12
ATOM     12  C   UNL     1      92.494  94.961  77.070  1.00  0.00     0.080 C 
BRANCH  12  13
ATOM     13  C   UNL     1      92.147  96.385  76.629  1.00  0.00     0.043 C 
BRANCH  13  14
ATOM     14  C   UNL     1      93.273  97.066  75.889  1.00  0.00    -0.044 A 
ATOM     15  C   UNL     1      93.092  98.348  75.369  1.00  0.00     0.054 A 
ATOM     16  C   UNL     1      94.495  96.413  75.725  1.00  0.00     0.008 A 
ATOM     17  C   UNL     1      94.133  98.976  74.686  1.00  0.00     0.160 A 
ATOM     18  C   UNL     1      95.537  97.042  75.042  1.00  0.00     0.050 A 
ATOM     19  C   UNL     1      95.355  98.323  74.522  1.00  0.00     0.157 A 
BRANCH  17  20
ATOM     20  O   UNL     1      93.944 100.228  74.182  1.00  0.00    -0.493 OA
ATOM     21  C   UNL     1      94.001 101.314  75.105  1.00  0.00     0.278 C 
ENDBRANCH  17  20
BRANCH  19  22
ATOM     22  O   UNL     1      96.379  98.927  73.857  1.00  0.00    -0.504 OA
ATOM     23  H   UNL     1      96.165  99.868  73.733  1.00  0.00     0.293 HD
ENDBRANCH  19  22
ENDBRANCH  13  14
ENDBRANCH  12  13
ENDBRANCH  10  12
ENDBRANCH   1  10
TORSDOF 12
ENDMDL
MODEL 5
REMARK VINA RESULT:    -5.438     21.853     26.190
REMARK INTER + INTRA:         -10.172
REMARK INTER:                  -8.941
REMARK INTRA:                  -1.231
REMARK UNBOUND:                -1.236
REMARK SMILES CCCCC[C@H](O)CC(=O)CCc1ccc(O)c(OC)c1
REMARK SMILES IDX 8 1 6 2 7 3 5 5 4 6 3 7 2 8 1 9 9 10 10 11 11 12 12 13 13 14
REMARK SMILES IDX 21 15 14 16 18 17 15 18 16 19 19 20 20 21 17 22
REMARK H PARENT 7 4 17 23
REMARK Flexibility Score: inf
ROOT
ATOM      1  C   UNL     1      76.587  85.460  66.128  1.00  0.00     0.107 C 
ENDROOT
BRANCH   1   2
ATOM      2  C   UNL     1      77.094  86.902  66.042  1.00  0.00     0.121 C 
BRANCH   2   3
ATOM      3  O   UNL     1      76.179  87.692  65.285  1.00  0.00    -0.393 OA
ATOM      4  H   UNL     1      76.580  88.569  65.155  1.00  0.00     0.210 HD
ENDBRANCH   2   3
BRANCH   2   5
ATOM      5  C   UNL     1      77.302  87.549  67.417  1.00  0.00     0.032 C 
BRANCH   5   6
ATOM      6  C   UNL     1      78.214  86.707  68.317  1.00  0.00     0.003 C 
BRANCH   6   7
ATOM      7  C   UNL     1      77.600  86.404  69.688  1.00  0.00    -0.000 C 
BRANCH   7   8
ATOM      8  C   UNL     1      77.343  84.918  69.929  1.00  0.00    -0.003 C 
ATOM      9  C   UNL     1      76.022  84.693  70.648  1.00  0.00     0.004 C 
ENDBRANCH   7   8
ENDBRANCH   6   7
ENDBRANCH   5   6
ENDBRANCH   2   5
ENDBRANCH   1   2
BRANCH   1  10
ATOM     10  C   UNL     1      77.048  84.596  64.966  1.00  0.00     0.135 C 
ATOM     11  O   UNL     1      77.020  85.021  63.811  1.00  0.00    -0.300 OA
BRANCH  10  12
ATOM     12  C   UNL     1      77.582  83.215  65.314  1.00  0.00     0.080 C 
BRANCH  12  13
ATOM     13  C   UNL     1      76.676  82.425  66.259  1.00  0.00     0.043 C 
BRANCH  13  14
ATOM     14  C   UNL     1      75.467  81.840  65.569  1.00  0.00    -0.044 A 
ATOM     15  C   UNL     1      74.211  81.924  66.170  1.00  0.00     0.054 A 
ATOM     16  C   UNL     1      75.607  81.214  64.330  1.00  0.00     0.008 A 
ATOM     17  C   UNL     1      73.095  81.384  65.531  1.00  0.00     0.160 A 
ATOM     18  C   UNL     1      74.491  80.674  63.690  1.00  0.00     0.050 A 
ATOM     19  C   UNL     1      73.235  80.759  64.291  1.00  0.00     0.157 A 
BRANCH  17  20
ATOM     20  O   UNL     1      71.873  81.473  66.127  1.00  0.00    -0.493 OA
ATOM     21  C   UNL     1      71.137  82.677  65.922  1.00  0.00     0.278 C 
ENDBRANCH  17  20
BRANCH  19  22
ATOM     22  O   UNL     1      72.152  80.228  63.658  1.00  0.00    -0.504 OA
ATOM     23  H   UNL     1      71.844  79.451  64.155  1.00  0.00     0.293 HD
ENDBRANCH  19  22
ENDBRANCH  13  14
ENDBRANCH  12  13
ENDBRANCH  10  12
ENDBRANCH   1  10
TORSDOF 12
ENDMDL
MODEL 6
REMARK VINA RESULT:    -5.421      6.440     10.152
REMARK INTER + INTRA:         -10.144
REMARK INTER:                  -9.392
REMARK INTRA:                  -0.752
REMARK UNBOUND:                -1.236
REMARK SMILES CCCCC[C@H](O)CC(=O)CCc1ccc(O)c(OC)c1
REMARK SMILES IDX 8 1 6 2 7 3 5 5 4 6 3 7 2 8 1 9 9 10 10 11 11 12 12 13 13 14
REMARK SMILES IDX 21 15 14 16 18 17 15 18 16 19 19 20 20 21 17 22
REMARK H PARENT 7 4 17 23
REMARK Flexibility Score: inf
ROOT
ATOM      1  C   UNL     1      92.899  99.718  73.987  1.00  0.00     0.107 C 
ENDROOT
BRANCH   1   2
ATOM      2  C   UNL     1      93.886  98.755  74.653  1.00  0.00     0.121 C 
BRANCH   2   3
ATOM      3  O   UNL     1      94.923  99.493  75.295  1.00  0.00    -0.393 OA
ATOM      4  H   UNL     1      95.561  98.855  75.659  1.00  0.00     0.210 HD
ENDBRANCH   2   3
BRANCH   2   5
ATOM      5  C   UNL     1      93.221  97.825  75.675  1.00  0.00     0.032 C 
BRANCH   5   6
ATOM      6  C   UNL     1      94.011  96.526  75.872  1.00  0.00     0.003 C 
BRANCH   6   7
ATOM      7  C   UNL     1      93.576  95.733  77.109  1.00  0.00    -0.000 C 
BRANCH   7   8
ATOM      8  C   UNL     1      92.260  94.981  76.922  1.00  0.00    -0.003 C 
ATOM      9  C   UNL     1      91.131  95.638  77.702  1.00  0.00     0.004 C 
ENDBRANCH   7   8
ENDBRANCH   6   7
ENDBRANCH   5   6
ENDBRANCH   2   5
ENDBRANCH   1   2
BRANCH   1  10
ATOM     10  C   UNL     1      93.285 100.075  72.561  1.00  0.00     0.135 C 
ATOM     11  O   UNL     1      94.466 100.099  72.212  1.00  0.00    -0.300 OA
BRANCH  10  12
ATOM     12  C   UNL     1      92.144 100.353  71.595  1.00  0.00     0.080 C 
BRANCH  12  13
ATOM     13  C   UNL     1      90.844  99.633  71.956  1.00  0.00     0.043 C 
BRANCH  13  14
ATOM     14  C   UNL     1      90.182  98.976  70.768  1.00  0.00    -0.044 A 
ATOM     15  C   UNL     1      89.863  99.732  69.640  1.00  0.00     0.054 A 
ATOM     16  C   UNL     1      89.890  97.612  70.800  1.00  0.00     0.008 A 
ATOM     17  C   UNL     1      89.252  99.123  68.543  1.00  0.00     0.160 A 
ATOM     18  C   UNL     1      89.279  97.003  69.703  1.00  0.00     0.050 A 
ATOM     19  C   UNL     1      88.960  97.759  68.575  1.00  0.00     0.157 A 
BRANCH  17  20
ATOM     20  O   UNL     1      88.945  99.872  67.447  1.00  0.00    -0.493 OA
ATOM     21  C   UNL     1      89.098 101.285  67.564  1.00  0.00     0.278 C 
ENDBRANCH  17  20
BRANCH  19  22
ATOM     22  O   UNL     1      88.364  97.154  67.510  1.00  0.00    -0.504 OA
ATOM     23  H   UNL     1      88.485  97.710  66.721  1.00  0.00     0.293 HD
ENDBRANCH  19  22
ENDBRANCH  13  14
ENDBRANCH  12  13
ENDBRANCH  10  12
ENDBRANCH   1  10
TORSDOF 12
ENDMDL
MODEL 7
REMARK VINA RESULT:    -5.328     12.475     14.531
REMARK INTER + INTRA:          -9.990
REMARK INTER:                  -9.393
REMARK INTRA:                  -0.598
REMARK UNBOUND:                -1.236
REMARK SMILES CCCCC[C@H](O)CC(=O)CCc1ccc(O)c(OC)c1
REMARK SMILES IDX 8 1 6 2 7 3 5 5 4 6 3 7 2 8 1 9 9 10 10 11 11 12 12 13 13 14
REMARK SMILES IDX 21 15 14 16 18 17 15 18 16 19 19 20 20 21 17 22
REMARK H PARENT 7 4 17 23
REMARK Flexibility Score: inf
ROOT
ATOM      1  C   UNL     1      96.980  83.738  85.064  1.00  0.00     0.107 C 
ENDROOT
BRANCH   1   2
ATOM      2  C   UNL     1      97.481  84.822  86.023  1.00  0.00     0.121 C 
BRANCH   2   3
ATOM      3  O   UNL     1      97.338  86.105  85.419  1.00  0.00    -0.393 OA
ATOM      4  H   UNL     1      98.216  86.388  85.110  1.00  0.00     0.210 HD
ENDBRANCH   2   3
BRANCH   2   5
ATOM      5  C   UNL     1      96.751  84.814  87.371  1.00  0.00     0.032 C 
BRANCH   5   6
ATOM      6  C   UNL     1      95.880  86.062  87.563  1.00  0.00     0.003 C 
BRANCH   6   7
ATOM      7  C   UNL     1      94.539  85.767  88.242  1.00  0.00    -0.000 C 
BRANCH   7   8
ATOM      8  C   UNL     1      93.767  84.616  87.599  1.00  0.00    -0.003 C 
ATOM      9  C   UNL     1      92.523  84.266  88.401  1.00  0.00     0.004 C 
ENDBRANCH   7   8
ENDBRANCH   6   7
ENDBRANCH   5   6
ENDBRANCH   2   5
ENDBRANCH   1   2
BRANCH   1  10
ATOM     10  C   UNL     1      98.055  83.241  84.113  1.00  0.00     0.135 C 
ATOM     11  O   UNL     1      99.057  82.665  84.537  1.00  0.00    -0.300 OA
BRANCH  10  12
ATOM     12  C   UNL     1      97.803  83.451  82.628  1.00  0.00     0.080 C 
BRANCH  12  13
ATOM     13  C   UNL     1      98.736  82.641  81.725  1.00  0.00     0.043 C 
BRANCH  13  14
ATOM     14  C   UNL     1      98.582  82.978  80.261  1.00  0.00    -0.044 A 
ATOM     15  C   UNL     1      99.619  82.705  79.369  1.00  0.00     0.054 A 
ATOM     16  C   UNL     1      97.401  83.563  79.801  1.00  0.00     0.008 A 
ATOM     17  C   UNL     1      99.475  83.016  78.017  1.00  0.00     0.160 A 
ATOM     18  C   UNL     1      97.258  83.874  78.449  1.00  0.00     0.050 A 
ATOM     19  C   UNL     1      98.295  83.601  77.557  1.00  0.00     0.157 A 
BRANCH  17  20
ATOM     20  O   UNL     1     100.495  82.744  77.155  1.00  0.00    -0.493 OA
ATOM     21  C   UNL     1     101.540  83.711  77.063  1.00  0.00     0.278 C 
ENDBRANCH  17  20
BRANCH  19  22
ATOM     22  O   UNL     1      98.143  83.909  76.239  1.00  0.00    -0.504 OA
ATOM     23  H   UNL     1      99.005  83.838  75.795  1.00  0.00     0.293 HD
ENDBRANCH  19  22
ENDBRANCH  13  14
ENDBRANCH  12  13
ENDBRANCH  10  12
ENDBRANCH   1  10
TORSDOF 12
ENDMDL
MODEL 8
REMARK VINA RESULT:    -5.027     22.743     25.847
REMARK INTER + INTRA:          -9.497
REMARK INTER:                  -8.461
REMARK INTRA:                  -1.035
REMARK UNBOUND:                -1.236
REMARK SMILES CCCCC[C@H](O)CC(=O)CCc1ccc(O)c(OC)c1
REMARK SMILES IDX 8 1 6 2 7 3 5 5 4 6 3 7 2 8 1 9 9 10 10 11 11 12 12 13 13 14
REMARK SMILES IDX 21 15 14 16 18 17 15 18 16 19 19 20 20 21 17 22
REMARK H PARENT 7 4 17 23
REMARK Flexibility Score: inf
ROOT
ATOM      1  C   UNL     1      90.321  71.208  81.075  1.00  0.00     0.107 C 
ENDROOT
BRANCH   1   2
ATOM      2  C   UNL     1      89.806  72.636  80.876  1.00  0.00     0.121 C 
BRANCH   2   3
ATOM      3  O   UNL     1      89.241  73.120  82.092  1.00  0.00    -0.393 OA
ATOM      4  H   UNL     1      89.539  72.537  82.811  1.00  0.00     0.210 HD
ENDBRANCH   2   3
BRANCH   2   5
ATOM      5  C   UNL     1      90.895  73.606  80.403  1.00  0.00     0.032 C 
BRANCH   5   6
ATOM      6  C   UNL     1      90.336  74.694  79.478  1.00  0.00     0.003 C 
BRANCH   6   7
ATOM      7  C   UNL     1      91.385  75.281  78.528  1.00  0.00    -0.000 C 
BRANCH   7   8
ATOM      8  C   UNL     1      90.865  76.442  77.683  1.00  0.00    -0.003 C 
ATOM      9  C   UNL     1      89.375  76.658  77.896  1.00  0.00     0.004 C 
ENDBRANCH   7   8
ENDBRANCH   6   7
ENDBRANCH   5   6
ENDBRANCH   2   5
ENDBRANCH   1   2
BRANCH   1  10
ATOM     10  C   UNL     1      89.212  70.170  81.079  1.00  0.00     0.135 C 
ATOM     11  O   UNL     1      88.171  70.357  81.709  1.00  0.00    -0.300 OA
BRANCH  10  12
ATOM     12  C   UNL     1      89.440  68.926  80.234  1.00  0.00     0.080 C 
BRANCH  12  13
ATOM     13  C   UNL     1      90.404  69.143  79.067  1.00  0.00     0.043 C 
BRANCH  13  14
ATOM     14  C   UNL     1      89.700  69.352  77.747  1.00  0.00    -0.044 A 
ATOM     15  C   UNL     1      88.330  69.112  77.642  1.00  0.00     0.054 A 
ATOM     16  C   UNL     1      90.420  69.785  76.634  1.00  0.00     0.008 A 
ATOM     17  C   UNL     1      87.680  69.306  76.423  1.00  0.00     0.160 A 
ATOM     18  C   UNL     1      89.770  69.979  75.414  1.00  0.00     0.050 A 
ATOM     19  C   UNL     1      88.400  69.739  75.309  1.00  0.00     0.157 A 
BRANCH  17  20
ATOM     20  O   UNL     1      86.341  69.068  76.332  1.00  0.00    -0.493 OA
ATOM     21  C   UNL     1      85.938  67.726  76.067  1.00  0.00     0.278 C 
ENDBRANCH  17  20
BRANCH  19  22
ATOM     22  O   UNL     1      87.776  69.932  74.114  1.00  0.00    -0.504 OA
ATOM     23  H   UNL     1      88.230  69.408  73.432  1.00  0.00     0.293 HD
ENDBRANCH  19  22
ENDBRANCH  13  14
ENDBRANCH  12  13
ENDBRANCH  10  12
ENDBRANCH   1  10
TORSDOF 12
ENDMDL
MODEL 9
REMARK VINA RESULT:    -5.012     21.262     24.279
REMARK INTER + INTRA:          -9.471
REMARK INTER:                  -7.436
REMARK INTRA:                  -2.035
REMARK UNBOUND:                -1.236
REMARK SMILES CCCCC[C@H](O)CC(=O)CCc1ccc(O)c(OC)c1
REMARK SMILES IDX 8 1 6 2 7 3 5 5 4 6 3 7 2 8 1 9 9 10 10 11 11 12 12 13 13 14
REMARK SMILES IDX 21 15 14 16 18 17 15 18 16 19 19 20 20 21 17 22
REMARK H PARENT 7 4 17 23
REMARK Flexibility Score: inf
ROOT
ATOM      1  C   UNL     1      74.728  86.430  70.049  1.00  0.00     0.107 C 
ENDROOT
BRANCH   1   2
ATOM      2  C   UNL     1      73.779  86.904  68.945  1.00  0.00     0.121 C 
BRANCH   2   3
ATOM      3  O   UNL     1      73.808  88.327  68.860  1.00  0.00    -0.393 OA
ATOM      4  H   UNL     1      74.375  88.568  68.107  1.00  0.00     0.210 HD
ENDBRANCH   2   3
BRANCH   2   5
ATOM      5  C   UNL     1      74.112  86.309  67.572  1.00  0.00     0.032 C 
BRANCH   5   6
ATOM      6  C   UNL     1      74.126  84.776  67.595  1.00  0.00     0.003 C 
BRANCH   6   7
ATOM      7  C   UNL     1      73.272  84.144  66.491  1.00  0.00    -0.000 C 
BRANCH   7   8
ATOM      8  C   UNL     1      73.579  82.668  66.249  1.00  0.00    -0.003 C 
ATOM      9  C   UNL     1      73.701  82.363  64.764  1.00  0.00     0.004 C 
ENDBRANCH   7   8
ENDBRANCH   6   7
ENDBRANCH   5   6
ENDBRANCH   2   5
ENDBRANCH   1   2
BRANCH   1  10
ATOM     10  C   UNL     1      76.113  87.049  69.949  1.00  0.00     0.135 C 
ATOM     11  O   UNL     1      76.276  88.262  70.080  1.00  0.00    -0.300 OA
BRANCH  10  12
ATOM     12  C   UNL     1      77.274  86.091  69.727  1.00  0.00     0.080 C 
BRANCH  12  13
ATOM     13  C   UNL     1      78.254  86.552  68.647  1.00  0.00     0.043 C 
BRANCH  13  14
ATOM     14  C   UNL     1      77.753  86.294  67.245  1.00  0.00    -0.044 A 
ATOM     15  C   UNL     1      77.695  84.990  66.754  1.00  0.00     0.054 A 
ATOM     16  C   UNL     1      77.350  87.361  66.442  1.00  0.00     0.008 A 
ATOM     17  C   UNL     1      77.232  84.753  65.459  1.00  0.00     0.160 A 
ATOM     18  C   UNL     1      76.887  87.124  65.147  1.00  0.00     0.050 A 
ATOM     19  C   UNL     1      76.828  85.820  64.656  1.00  0.00     0.157 A 
BRANCH  17  20
ATOM     20  O   UNL     1      77.179  83.475  64.990  1.00  0.00    -0.493 OA
ATOM     21  C   UNL     1      77.244  82.427  65.956  1.00  0.00     0.278 C 
ENDBRANCH  17  20
BRANCH  19  22
ATOM     22  O   UNL     1      76.375  85.601  63.391  1.00  0.00    -0.504 OA
ATOM     23  H   UNL     1      75.437  85.857  63.342  1.00  0.00     0.293 HD
ENDBRANCH  19  22
ENDBRANCH  13  14
ENDBRANCH  12  13
ENDBRANCH  10  12
ENDBRANCH   1  10
TORSDOF 12
ENDMDL
MODEL 10
REMARK VINA RESULT:    -4.842     29.801     33.739
REMARK INTER + INTRA:          -9.192
REMARK INTER:                  -7.234
REMARK INTRA:                  -1.958
REMARK UNBOUND:                -1.236
REMARK SMILES CCCCC[C@H](O)CC(=O)CCc1ccc(O)c(OC)c1
REMARK SMILES IDX 8 1 6 2 7 3 5 5 4 6 3 7 2 8 1 9 9 10 10 11 11 12 12 13 13 14
REMARK SMILES IDX 21 15 14 16 18 17 15 18 16 19 19 20 20 21 17 22
REMARK H PARENT 7 4 17 23
REMARK Flexibility Score: inf
ROOT
ATOM      1  C   UNL     1      62.442  84.373  70.656  1.00  0.00     0.107 C 
ENDROOT
BRANCH   1   2
ATOM      2  C   UNL     1      62.517  83.289  69.578  1.00  0.00     0.121 C 
BRANCH   2   3
ATOM      3  O   UNL     1      63.023  83.846  68.367  1.00  0.00    -0.393 OA
ATOM      4  H   UNL     1      63.834  84.339  68.582  1.00  0.00     0.210 HD
ENDBRANCH   2   3
BRANCH   2   5
ATOM      5  C   UNL     1      63.388  82.095  69.987  1.00  0.00     0.032 C 
BRANCH   5   6
ATOM      6  C   UNL     1      64.206  82.384  71.251  1.00  0.00     0.003 C 
BRANCH   6   7
ATOM      7  C   UNL     1      64.208  81.223  72.251  1.00  0.00    -0.000 C 
BRANCH   7   8
ATOM      8  C   UNL     1      63.626  81.589  73.615  1.00  0.00    -0.003 C 
ATOM      9  C   UNL     1      62.144  81.258  73.692  1.00  0.00     0.004 C 
ENDBRANCH   7   8
ENDBRANCH   6   7
ENDBRANCH   5   6
ENDBRANCH   2   5
ENDBRANCH   1   2
BRANCH   1  10
ATOM     10  C   UNL     1      61.018  84.692  71.083  1.00  0.00     0.135 C 
ATOM     11  O   UNL     1      60.194  85.114  70.272  1.00  0.00    -0.300 OA
BRANCH  10  12
ATOM     12  C   UNL     1      60.665  84.418  72.537  1.00  0.00     0.080 C 
BRANCH  12  13
ATOM     13  C   UNL     1      61.141  85.506  73.501  1.00  0.00     0.043 C 
BRANCH  13  14
ATOM     14  C   UNL     1      62.201  85.023  74.462  1.00  0.00    -0.044 A 
ATOM     15  C   UNL     1      63.549  85.252  74.188  1.00  0.00     0.054 A 
ATOM     16  C   UNL     1      61.830  84.348  75.625  1.00  0.00     0.008 A 
ATOM     17  C   UNL     1      64.527  84.806  75.078  1.00  0.00     0.160 A 
ATOM     18  C   UNL     1      62.808  83.901  76.515  1.00  0.00     0.050 A 
ATOM     19  C   UNL     1      64.156  84.130  76.241  1.00  0.00     0.157 A 
BRANCH  17  20
ATOM     20  O   UNL     1      65.840  85.034  74.799  1.00  0.00    -0.493 OA
ATOM     21  C   UNL     1      66.346  86.338  75.083  1.00  0.00     0.278 C 
ENDBRANCH  17  20
BRANCH  19  22
ATOM     22  O   UNL     1      65.101  83.690  77.117  1.00  0.00    -0.504 OA
ATOM     23  H   UNL     1      65.200  84.343  77.831  1.00  0.00     0.293 HD
ENDBRANCH  19  22
ENDBRANCH  13  14
ENDBRANCH  12  13
ENDBRANCH  10  12
ENDBRANCH   1  10
TORSDOF 12
ENDMDL
