MODEL 1
REMARK VINA RESULT:    -6.404      0.000      0.000
REMARK INTER + INTRA:         -11.802
REMARK INTER:                 -10.897
REMARK INTRA:                  -0.905
REMARK UNBOUND:                -0.905
REMARK SMILES C=C(C)[C@]12C[C@@H](C)[C@@]34O[C@](Cc5ccccc5)(O[C@@H]1[C@@H]3C=C(COC(=O)Cc1ccc(O)cc1)C[C@]1(O)C(=O)C(C)=C[C@@H]41)O2
REMARK SMILES IDX 23 1 22 2 21 3 20 4 9 5 8 6 10 7 6 8 18 10 44 11 19 12 5 13
REMARK SMILES IDX 7 14 4 15 11 16 12 17 13 18 17 19 14 20 16 21 15 22 2 23
REMARK SMILES IDX 3 24 1 25 35 26 36 27 43 28 38 29 42 30 39 32 40 33 41 34
REMARK SMILES IDX 37 35 24 37 25 38 26 39 27 40 28 41 29 42 34 43 30 44 33 45
REMARK SMILES IDX 31 46 32 47
REMARK H PARENT 37 36 32 48
REMARK Flexibility Score: 90.00
ROOT
ATOM      1  C   UNL     1      94.543  94.981  74.442  1.00  0.00     0.264 C 
ENDROOT
BRANCH   1   2
ATOM      2  C   UNL     1      95.557  96.056  74.128  1.00  0.00    -0.033 C 
ATOM      3  C   UNL     1      95.755  96.420  72.844  1.00  0.00    -0.015 C 
BRANCH   3   4
ATOM      4  C   UNL     1      96.756  97.407  72.264  1.00  0.00     0.078 C 
ATOM      5  O   UNL     1      95.627  99.605  72.167  1.00  0.00    -0.319 OA
ATOM      6  C   UNL     1      96.738  98.888  72.791  1.00  0.00     0.095 CG0
ATOM      7  C   UNL     1      95.447  99.355  70.759  1.00  0.00     0.289 C 
ATOM      8  C   UNL     1      98.104  99.566  72.364  1.00  0.00     0.023 C 
ATOM      9  G   UNL     1      96.419  98.930  74.314  1.00  0.00     0.000 G0
ATOM     10  O   UNL     1      95.255  97.967  70.501  1.00  0.00    -0.320 OA
ATOM     11  O   UNL     1      96.586  99.736  69.991  1.00  0.00    -0.313 OA
ATOM     12  C   UNL     1      96.589  97.483  70.726  1.00  0.00     0.170 C 
ATOM     13  C   UNL     1      98.616  99.012  70.999  1.00  0.00     0.049 C 
ATOM     14  C   UNL     1      98.094 101.104  72.317  1.00  0.00     0.011 C 
ATOM     15  C   UNL     1      97.460  98.593  70.089  1.00  0.00     0.122 C 
BRANCH   7  16
ATOM     16  C   UNL     1      94.237 100.137  70.289  1.00  0.00     0.135 C 
BRANCH  16  17
ATOM     17  C   UNL     1      93.867 101.240  71.249  1.00  0.00    -0.040 A 
ATOM     18  C   UNL     1      94.426 102.509  71.102  1.00  0.00     0.004 A 
ATOM     19  C   UNL     1      92.967 100.990  72.284  1.00  0.00     0.004 A 
ATOM     20  C   UNL     1      94.084 103.530  71.990  1.00  0.00     0.000 A 
ATOM     21  C   UNL     1      92.624 102.010  73.172  1.00  0.00     0.000 A 
ATOM     22  C   UNL     1      93.183 103.279  73.025  1.00  0.00     0.000 A 
ENDBRANCH  16  17
ENDBRANCH   7  16
BRANCH  15  23
ATOM     23  C   UNL     1      97.916  98.229  68.714  1.00  0.00    -0.046 C 
ATOM     24  C   UNL     1      98.943  97.140  68.623  1.00  0.00     0.042 C 
ATOM     25  C   UNL     1      97.434  98.842  67.622  1.00  0.00     0.010 C 
ENDBRANCH  15  23
ENDBRANCH   3   4
BRANCH   2  26
ATOM     26  C   UNL     1      96.241  96.610  75.364  1.00  0.00     0.078 C 
BRANCH  26  27
ATOM     27  C   UNL     1      97.104  97.857  75.184  1.00  0.00     0.140 C 
ATOM     28  C   UNL     1      96.411  98.926  74.313  1.00  0.00     0.086 CG0
ATOM     29  C   UNL     1      97.332  98.596  76.486  1.00  0.00     0.190 C 
ATOM     30  C   UNL     1      96.631 100.199  75.081  1.00  0.00    -0.010 C 
ATOM     31  G   UNL     1      96.736  98.886  72.792  1.00  0.00     0.000 G0
ATOM     32  O   UNL     1      97.693  98.086  77.536  1.00  0.00    -0.291 OA
ATOM     33  C   UNL     1      97.121 100.046  76.315  1.00  0.00    -0.008 C 
ATOM     34  C   UNL     1      97.381 101.051  77.367  1.00  0.00     0.048 C 
BRANCH  27  35
ATOM     35  O   UNL     1      98.412  97.524  74.750  1.00  0.00    -0.381 OA
ATOM     36  H   UNL     1      98.722  96.761  75.267  1.00  0.00     0.212 HD
ENDBRANCH  27  35
ENDBRANCH  26  27
ENDBRANCH   2  26
ENDBRANCH   1   2
BRANCH   1  37
ATOM     37  O   UNL     1      93.581  95.495  75.339  1.00  0.00    -0.461 OA
BRANCH  37  38
ATOM     38  C   UNL     1      92.921  94.571  76.116  1.00  0.00     0.310 C 
ATOM     39  O   UNL     1      92.499  93.494  75.720  1.00  0.00    -0.252 OA
BRANCH  38  40
ATOM     40  C   UNL     1      92.800  95.094  77.527  1.00  0.00     0.158 C 
BRANCH  40  41
ATOM     41  C   UNL     1      93.971  94.717  78.397  1.00  0.00    -0.037 A 
ATOM     42  C   UNL     1      94.994  95.637  78.627  1.00  0.00     0.008 A 
ATOM     43  C   UNL     1      94.034  93.447  78.971  1.00  0.00     0.008 A 
ATOM     44  C   UNL     1      96.079  95.287  79.431  1.00  0.00     0.046 A 
ATOM     45  C   UNL     1      95.118  93.097  79.775  1.00  0.00     0.046 A 
ATOM     46  C   UNL     1      96.141  94.017  80.005  1.00  0.00     0.115 A 
BRANCH  46  47
ATOM     47  O   UNL     1      97.200  93.675  80.789  1.00  0.00    -0.508 OA
ATOM     48  H   UNL     1      97.054  92.782  81.145  1.00  0.00     0.293 HD
ENDBRANCH  46  47
ENDBRANCH  40  41
ENDBRANCH  38  40
ENDBRANCH  37  38
ENDBRANCH   1  37
TORSDOF 10
ENDMDL
MODEL 2
REMARK VINA RESULT:    -6.337     15.658     19.397
REMARK INTER + INTRA:         -11.686
REMARK INTER:                  -9.267
REMARK INTRA:                  -2.420
REMARK UNBOUND:                -0.905
REMARK SMILES C=C(C)[C@]12C[C@@H](C)[C@@]34O[C@](Cc5ccccc5)(O[C@@H]1[C@@H]3C=C(COC(=O)Cc1ccc(O)cc1)C[C@]1(O)C(=O)C(C)=C[C@@H]41)O2
REMARK SMILES IDX 23 1 22 2 21 3 20 4 9 5 8 6 10 7 6 8 18 10 44 11 19 12 5 13
REMARK SMILES IDX 7 14 4 15 11 16 12 17 13 18 17 19 14 20 16 21 15 22 2 23
REMARK SMILES IDX 3 24 1 25 35 26 36 27 43 28 38 29 42 30 39 32 40 33 41 34
REMARK SMILES IDX 37 35 24 37 25 38 26 39 27 40 28 41 29 42 34 43 30 44 33 45
REMARK SMILES IDX 31 46 32 47
REMARK H PARENT 37 36 32 48
REMARK Flexibility Score: 90.00
ROOT
ATOM      1  C   UNL     1     101.960  84.547  71.805  1.00  0.00     0.264 C 
ENDROOT
BRANCH   1   2
ATOM      2  C   UNL     1     101.765  83.343  72.698  1.00  0.00    -0.033 C 
ATOM      3  C   UNL     1     100.605  83.204  73.372  1.00  0.00    -0.015 C 
BRANCH   3   4
ATOM      4  C   UNL     1     100.196  82.141  74.379  1.00  0.00     0.078 C 
ATOM      5  O   UNL     1      99.023  80.367  73.116  1.00  0.00    -0.319 OA
ATOM      6  C   UNL     1     100.211  80.635  73.925  1.00  0.00     0.095 CG0
ATOM      7  C   UNL     1      97.799  80.942  73.612  1.00  0.00     0.289 C 
ATOM      8  C   UNL     1     100.168  79.739  75.231  1.00  0.00     0.023 C 
ATOM      9  G   UNL     1     101.404  80.359  72.964  1.00  0.00     0.000 G0
ATOM     10  O   UNL     1      97.909  82.356  73.749  1.00  0.00    -0.320 OA
ATOM     11  O   UNL     1      97.457  80.455  74.908  1.00  0.00    -0.313 OA
ATOM     12  C   UNL     1      98.766  82.431  74.899  1.00  0.00     0.170 C 
ATOM     13  C   UNL     1      99.339  80.419  76.363  1.00  0.00     0.049 C 
ATOM     14  C   UNL     1      99.669  78.298  75.029  1.00  0.00     0.011 C 
ATOM     15  C   UNL     1      98.220  81.295  75.798  1.00  0.00     0.122 C 
BRANCH   7  16
ATOM     16  C   UNL     1      96.687  80.605  72.638  1.00  0.00     0.135 C 
BRANCH  16  17
ATOM     17  C   UNL     1      96.927  79.291  71.937  1.00  0.00    -0.040 A 
ATOM     18  C   UNL     1      97.390  79.277  70.621  1.00  0.00     0.004 A 
ATOM     19  C   UNL     1      96.686  78.091  72.605  1.00  0.00     0.004 A 
ATOM     20  C   UNL     1      97.613  78.061  69.973  1.00  0.00     0.000 A 
ATOM     21  C   UNL     1      96.909  76.876  71.957  1.00  0.00     0.000 A 
ATOM     22  C   UNL     1      97.372  76.861  70.642  1.00  0.00     0.000 A 
ENDBRANCH  16  17
ENDBRANCH   7  16
BRANCH  15  23
ATOM     23  C   UNL     1      97.304  81.811  76.859  1.00  0.00    -0.046 C 
ATOM     24  C   UNL     1      96.504  83.030  76.508  1.00  0.00     0.042 C 
ATOM     25  C   UNL     1      97.201  81.217  78.058  1.00  0.00     0.010 C 
ENDBRANCH  15  23
ENDBRANCH   3   4
BRANCH   2  26
ATOM     26  C   UNL     1     102.959  82.407  72.705  1.00  0.00     0.078 C 
BRANCH  26  27
ATOM     27  C   UNL     1     102.759  81.025  73.324  1.00  0.00     0.140 C 
ATOM     28  C   UNL     1     101.400  80.404  72.939  1.00  0.00     0.086 CG0
ATOM     29  C   UNL     1     103.745  80.005  72.796  1.00  0.00     0.190 C 
ATOM     30  C   UNL     1     101.756  78.994  72.556  1.00  0.00    -0.010 C 
ATOM     31  G   UNL     1     100.227  80.654  73.930  1.00  0.00     0.000 G0
ATOM     32  O   UNL     1     104.953  80.165  72.713  1.00  0.00    -0.291 OA
ATOM     33  C   UNL     1     103.064  78.746  72.440  1.00  0.00    -0.008 C 
ATOM     34  C   UNL     1     103.764  77.518  72.009  1.00  0.00     0.048 C 
BRANCH  27  35
ATOM     35  O   UNL     1     103.005  81.042  74.720  1.00  0.00    -0.381 OA
ATOM     36  H   UNL     1     102.650  80.223  75.104  1.00  0.00     0.212 HD
ENDBRANCH  27  35
ENDBRANCH  26  27
ENDBRANCH   2  26
ENDBRANCH   1   2
BRANCH   1  37
ATOM     37  O   UNL     1     102.762  84.184  70.701  1.00  0.00    -0.461 OA
BRANCH  37  38
ATOM     38  C   UNL     1     102.133  84.153  69.477  1.00  0.00     0.310 C 
ATOM     39  O   UNL     1     102.460  84.817  68.503  1.00  0.00    -0.252 OA
BRANCH  38  40
ATOM     40  C   UNL     1     100.983  83.176  69.526  1.00  0.00     0.158 C 
BRANCH  40  41
ATOM     41  C   UNL     1     101.414  81.750  69.300  1.00  0.00    -0.037 A 
ATOM     42  C   UNL     1     102.764  81.448  69.125  1.00  0.00     0.008 A 
ATOM     43  C   UNL     1     100.462  80.731  69.266  1.00  0.00     0.008 A 
ATOM     44  C   UNL     1     103.163  80.128  68.915  1.00  0.00     0.046 A 
ATOM     45  C   UNL     1     100.861  79.410  69.057  1.00  0.00     0.046 A 
ATOM     46  C   UNL     1     102.210  79.109  68.881  1.00  0.00     0.115 A 
BRANCH  46  47
ATOM     47  O   UNL     1     102.600  77.821  68.676  1.00  0.00    -0.508 OA
ATOM     48  H   UNL     1     103.172  77.543  69.412  1.00  0.00     0.293 HD
ENDBRANCH  46  47
ENDBRANCH  40  41
ENDBRANCH  38  40
ENDBRANCH  37  38
ENDBRANCH   1  37
TORSDOF 10
ENDMDL
MODEL 3
REMARK VINA RESULT:    -6.306     15.709     20.938
REMARK INTER + INTRA:         -11.634
REMARK INTER:                 -10.187
REMARK INTRA:                  -1.448
REMARK UNBOUND:                -0.905
REMARK SMILES C=C(C)[C@]12C[C@@H](C)[C@@]34O[C@](Cc5ccccc5)(O[C@@H]1[C@@H]3C=C(COC(=O)Cc1ccc(O)cc1)C[C@]1(O)C(=O)C(C)=C[C@@H]41)O2
REMARK SMILES IDX 23 1 22 2 21 3 20 4 9 5 8 6 10 7 6 8 18 10 44 11 19 12 5 13
REMARK SMILES IDX 7 14 4 15 11 16 12 17 13 18 17 19 14 20 16 21 15 22 2 23
REMARK SMILES IDX 3 24 1 25 35 26 36 27 43 28 38 29 42 30 39 32 40 33 41 34
REMARK SMILES IDX 37 35 24 37 25 38 26 39 27 40 28 41 29 42 34 43 30 44 33 45
REMARK SMILES IDX 31 46 32 47
REMARK H PARENT 37 36 32 48
REMARK Flexibility Score: 90.00
ROOT
ATOM      1  C   UNL     1     101.105  80.976  75.169  1.00  0.00     0.264 C 
ENDROOT
BRANCH   1   2
ATOM      2  C   UNL     1     100.074  80.234  75.988  1.00  0.00    -0.033 C 
ATOM      3  C   UNL     1     100.197  78.900  76.150  1.00  0.00    -0.015 C 
BRANCH   3   4
ATOM      4  C   UNL     1      99.267  77.924  76.852  1.00  0.00     0.078 C 
ATOM      5  O   UNL     1     100.050  77.739  79.191  1.00  0.00    -0.319 OA
ATOM      6  C   UNL     1      98.925  78.175  78.367  1.00  0.00     0.095 CG0
ATOM      7  C   UNL     1     100.650  76.489  78.801  1.00  0.00     0.289 C 
ATOM      8  C   UNL     1      97.649  77.304  78.720  1.00  0.00     0.023 C 
ATOM      9  G   UNL     1      98.796  79.698  78.660  1.00  0.00     0.000 G0
ATOM     10  O   UNL     1     101.104  76.531  77.451  1.00  0.00    -0.320 OA
ATOM     11  O   UNL     1      99.729  75.402  78.864  1.00  0.00    -0.313 OA
ATOM     12  C   UNL     1      99.845  76.490  76.762  1.00  0.00     0.170 C 
ATOM     13  C   UNL     1      97.624  75.971  77.912  1.00  0.00     0.049 C 
ATOM     14  C   UNL     1      97.451  76.997  80.215  1.00  0.00     0.011 C 
ATOM     15  C   UNL     1      99.036  75.471  77.601  1.00  0.00     0.122 C 
BRANCH   7  16
ATOM     16  C   UNL     1     101.819  76.214  79.727  1.00  0.00     0.135 C 
BRANCH  16  17
ATOM     17  C   UNL     1     102.427  77.485  80.264  1.00  0.00    -0.040 A 
ATOM     18  C   UNL     1     103.527  78.057  79.624  1.00  0.00     0.004 A 
ATOM     19  C   UNL     1     101.890  78.089  81.400  1.00  0.00     0.004 A 
ATOM     20  C   UNL     1     104.089  79.234  80.120  1.00  0.00     0.000 A 
ATOM     21  C   UNL     1     102.452  79.266  81.896  1.00  0.00     0.000 A 
ATOM     22  C   UNL     1     103.551  79.837  81.257  1.00  0.00     0.000 A 
ENDBRANCH  16  17
ENDBRANCH   7  16
BRANCH  15  23
ATOM     23  C   UNL     1      99.040  74.109  76.988  1.00  0.00    -0.046 C 
ATOM     24  C   UNL     1      99.382  74.041  75.529  1.00  0.00     0.042 C 
ATOM     25  C   UNL     1      98.755  73.009  77.700  1.00  0.00     0.010 C 
ENDBRANCH  15  23
ENDBRANCH   3   4
BRANCH   2  26
ATOM     26  C   UNL     1      98.994  81.140  76.547  1.00  0.00     0.078 C 
BRANCH  26  27
ATOM     27  C   UNL     1      98.055  80.542  77.594  1.00  0.00     0.140 C 
ATOM     28  C   UNL     1      98.812  79.710  78.649  1.00  0.00     0.086 CG0
ATOM     29  C   UNL     1      97.379  81.601  78.439  1.00  0.00     0.190 C 
ATOM     30  C   UNL     1      98.220  80.174  79.951  1.00  0.00    -0.010 C 
ATOM     31  G   UNL     1      98.928  78.184  78.364  1.00  0.00     0.000 G0
ATOM     32  O   UNL     1      96.813  82.596  78.009  1.00  0.00    -0.291 OA
ATOM     33  C   UNL     1      97.434  81.251  79.871  1.00  0.00    -0.008 C 
ATOM     34  C   UNL     1      96.760  82.019  80.938  1.00  0.00     0.048 C 
BRANCH  27  35
ATOM     35  O   UNL     1      96.975  79.853  76.987  1.00  0.00    -0.381 OA
ATOM     36  H   UNL     1      96.345  79.598  77.683  1.00  0.00     0.212 HD
ENDBRANCH  27  35
ENDBRANCH  26  27
ENDBRANCH   2  26
ENDBRANCH   1   2
BRANCH   1  37
ATOM     37  O   UNL     1     101.285  80.315  73.935  1.00  0.00    -0.461 OA
BRANCH  37  38
ATOM     38  C   UNL     1     101.096  81.077  72.805  1.00  0.00     0.310 C 
ATOM     39  O   UNL     1     101.914  81.858  72.339  1.00  0.00    -0.252 OA
BRANCH  38  40
ATOM     40  C   UNL     1      99.727  80.797  72.232  1.00  0.00     0.158 C 
BRANCH  40  41
ATOM     41  C   UNL     1      98.628  81.534  72.952  1.00  0.00    -0.037 A 
ATOM     42  C   UNL     1      98.815  82.861  73.340  1.00  0.00     0.008 A 
ATOM     43  C   UNL     1      97.423  80.890  73.231  1.00  0.00     0.008 A 
ATOM     44  C   UNL     1      97.797  83.543  74.007  1.00  0.00     0.046 A 
ATOM     45  C   UNL     1      96.404  81.572  73.898  1.00  0.00     0.046 A 
ATOM     46  C   UNL     1      96.591  82.898  74.286  1.00  0.00     0.115 A 
BRANCH  46  47
ATOM     47  O   UNL     1      95.599  83.564  74.937  1.00  0.00    -0.508 OA
ATOM     48  H   UNL     1      94.747  83.143  74.728  1.00  0.00     0.293 HD
ENDBRANCH  46  47
ENDBRANCH  40  41
ENDBRANCH  38  40
ENDBRANCH  37  38
ENDBRANCH   1  37
TORSDOF 10
ENDMDL
MODEL 4
REMARK VINA RESULT:    -5.977     15.863     20.128
REMARK INTER + INTRA:         -11.075
REMARK INTER:                  -9.565
REMARK INTRA:                  -1.510
REMARK UNBOUND:                -0.905
REMARK SMILES C=C(C)[C@]12C[C@@H](C)[C@@]34O[C@](Cc5ccccc5)(O[C@@H]1[C@@H]3C=C(COC(=O)Cc1ccc(O)cc1)C[C@]1(O)C(=O)C(C)=C[C@@H]41)O2
REMARK SMILES IDX 23 1 22 2 21 3 20 4 9 5 8 6 10 7 6 8 18 10 44 11 19 12 5 13
REMARK SMILES IDX 7 14 4 15 11 16 12 17 13 18 17 19 14 20 16 21 15 22 2 23
REMARK SMILES IDX 3 24 1 25 35 26 36 27 43 28 38 29 42 30 39 32 40 33 41 34
REMARK SMILES IDX 37 35 24 37 25 38 26 39 27 40 28 41 29 42 34 43 30 44 33 45
REMARK SMILES IDX 31 46 32 47
REMARK H PARENT 37 36 32 48
REMARK Flexibility Score: 90.00
ROOT
ATOM      1  C   UNL     1     103.158  81.691  73.417  1.00  0.00     0.264 C 
ENDROOT
BRANCH   1   2
ATOM      2  C   UNL     1     102.716  80.450  74.158  1.00  0.00    -0.033 C 
ATOM      3  C   UNL     1     101.797  80.561  75.140  1.00  0.00    -0.015 C 
BRANCH   3   4
ATOM      4  C   UNL     1     101.250  79.493  76.074  1.00  0.00     0.078 C 
ATOM      5  O   UNL     1      99.202  78.594  75.017  1.00  0.00    -0.319 OA
ATOM      6  C   UNL     1     100.554  78.232  75.442  1.00  0.00     0.095 CG0
ATOM      7  C   UNL     1      98.466  79.416  75.943  1.00  0.00     0.289 C 
ATOM      8  C   UNL     1     100.469  77.118  76.566  1.00  0.00     0.023 C 
ATOM      9  G   UNL     1     101.271  77.804  74.129  1.00  0.00     0.000 G0
ATOM     10  O   UNL     1      99.161  80.628  76.224  1.00  0.00    -0.320 OA
ATOM     11  O   UNL     1      98.278  78.779  77.204  1.00  0.00    -0.313 OA
ATOM     12  C   UNL     1     100.224  80.123  77.048  1.00  0.00     0.170 C 
ATOM     13  C   UNL     1     100.276  77.746  77.980  1.00  0.00     0.049 C 
ATOM     14  C   UNL     1      99.403  76.032  76.341  1.00  0.00     0.011 C 
ATOM     15  C   UNL     1      99.501  79.063  77.914  1.00  0.00     0.122 C 
BRANCH   7  16
ATOM     16  C   UNL     1      97.116  79.729  75.329  1.00  0.00     0.135 C 
BRANCH  16  17
ATOM     17  C   UNL     1      96.711  81.165  75.554  1.00  0.00    -0.040 A 
ATOM     18  C   UNL     1      96.773  82.080  74.504  1.00  0.00     0.004 A 
ATOM     19  C   UNL     1      96.273  81.575  76.813  1.00  0.00     0.004 A 
ATOM     20  C   UNL     1      96.397  83.408  74.713  1.00  0.00     0.000 A 
ATOM     21  C   UNL     1      95.898  82.903  77.022  1.00  0.00     0.000 A 
ATOM     22  C   UNL     1      95.960  83.818  75.972  1.00  0.00     0.000 A 
ENDBRANCH  16  17
ENDBRANCH   7  16
BRANCH  15  23
ATOM     23  C   UNL     1      99.148  79.589  79.267  1.00  0.00    -0.046 C 
ATOM     24  C   UNL     1      98.872  81.061  79.353  1.00  0.00     0.042 C 
ATOM     25  C   UNL     1      99.081  78.791  80.343  1.00  0.00     0.010 C 
ENDBRANCH  15  23
ENDBRANCH   3   4
BRANCH   2  26
ATOM     26  C   UNL     1     103.396  79.187  73.663  1.00  0.00     0.078 C 
BRANCH  26  27
ATOM     27  C   UNL     1     102.842  77.855  74.163  1.00  0.00     0.140 C 
ATOM     28  C   UNL     1     101.300  77.816  74.132  1.00  0.00     0.086 CG0
ATOM     29  C   UNL     1     103.214  76.697  73.261  1.00  0.00     0.190 C 
ATOM     30  C   UNL     1     100.996  76.480  73.513  1.00  0.00    -0.010 C 
ATOM     31  G   UNL     1     100.577  78.231  75.446  1.00  0.00     0.000 G0
ATOM     32  O   UNL     1     104.337  76.458  72.843  1.00  0.00    -0.291 OA
ATOM     33  C   UNL     1     102.045  75.839  72.990  1.00  0.00    -0.008 C 
ATOM     34  C   UNL     1     102.107  74.566  72.243  1.00  0.00     0.048 C 
BRANCH  27  35
ATOM     35  O   UNL     1     103.398  77.499  75.417  1.00  0.00    -0.381 OA
ATOM     36  H   UNL     1     102.871  77.920  76.117  1.00  0.00     0.212 HD
ENDBRANCH  27  35
ENDBRANCH  26  27
ENDBRANCH   2  26
ENDBRANCH   1   2
BRANCH   1  37
ATOM     37  O   UNL     1     102.115  82.643  73.437  1.00  0.00    -0.461 OA
BRANCH  37  38
ATOM     38  C   UNL     1     102.254  83.715  72.586  1.00  0.00     0.310 C 
ATOM     39  O   UNL     1     103.214  84.472  72.562  1.00  0.00    -0.252 OA
BRANCH  38  40
ATOM     40  C   UNL     1     101.041  83.809  71.693  1.00  0.00     0.158 C 
BRANCH  40  41
ATOM     41  C   UNL     1     100.457  82.463  71.350  1.00  0.00    -0.037 A 
ATOM     42  C   UNL     1     100.768  81.858  70.132  1.00  0.00     0.008 A 
ATOM     43  C   UNL     1      99.606  81.822  72.249  1.00  0.00     0.008 A 
ATOM     44  C   UNL     1     100.227  80.612  69.814  1.00  0.00     0.046 A 
ATOM     45  C   UNL     1      99.065  80.576  71.931  1.00  0.00     0.046 A 
ATOM     46  C   UNL     1      99.376  79.971  70.714  1.00  0.00     0.115 A 
BRANCH  46  47
ATOM     47  O   UNL     1      98.848  78.756  70.403  1.00  0.00    -0.508 OA
ATOM     48  H   UNL     1      98.563  78.316  71.224  1.00  0.00     0.293 HD
ENDBRANCH  46  47
ENDBRANCH  40  41
ENDBRANCH  38  40
ENDBRANCH  37  38
ENDBRANCH   1  37
TORSDOF 10
ENDMDL
MODEL 5
REMARK VINA RESULT:    -5.955     14.663     18.994
REMARK INTER + INTRA:         -11.037
REMARK INTER:                 -10.738
REMARK INTRA:                  -0.299
REMARK UNBOUND:                -0.905
REMARK SMILES C=C(C)[C@]12C[C@@H](C)[C@@]34O[C@](Cc5ccccc5)(O[C@@H]1[C@@H]3C=C(COC(=O)Cc1ccc(O)cc1)C[C@]1(O)C(=O)C(C)=C[C@@H]41)O2
REMARK SMILES IDX 23 1 22 2 21 3 20 4 9 5 8 6 10 7 6 8 18 10 44 11 19 12 5 13
REMARK SMILES IDX 7 14 4 15 11 16 12 17 13 18 17 19 14 20 16 21 15 22 2 23
REMARK SMILES IDX 3 24 1 25 35 26 36 27 43 28 38 29 42 30 39 32 40 33 41 34
REMARK SMILES IDX 37 35 24 37 25 38 26 39 27 40 28 41 29 42 34 43 30 44 33 45
REMARK SMILES IDX 31 46 32 47
REMARK H PARENT 37 36 32 48
REMARK Flexibility Score: 90.00
ROOT
ATOM      1  C   UNL     1     101.733  84.236  71.522  1.00  0.00     0.264 C 
ENDROOT
BRANCH   1   2
ATOM      2  C   UNL     1     101.465  83.187  72.576  1.00  0.00    -0.033 C 
ATOM      3  C   UNL     1     100.273  83.177  73.208  1.00  0.00    -0.015 C 
BRANCH   3   4
ATOM      4  C   UNL     1      99.789  82.287  74.342  1.00  0.00     0.078 C 
ATOM      5  O   UNL     1      98.621  80.369  73.306  1.00  0.00    -0.319 OA
ATOM      6  C   UNL     1      99.780  80.730  74.121  1.00  0.00     0.095 CG0
ATOM      7  C   UNL     1      97.394  81.040  73.652  1.00  0.00     0.289 C 
ATOM      8  C   UNL     1      99.655  80.044  75.543  1.00  0.00     0.023 C 
ATOM      9  G   UNL     1     101.006  80.285  73.270  1.00  0.00     0.000 G0
ATOM     10  O   UNL     1      97.539  82.455  73.579  1.00  0.00    -0.320 OA
ATOM     11  O   UNL     1      96.982  80.762  74.988  1.00  0.00    -0.313 OA
ATOM     12  C   UNL     1      98.347  82.685  74.744  1.00  0.00     0.170 C 
ATOM     13  C   UNL     1      98.797  80.906  76.520  1.00  0.00     0.049 C 
ATOM     14  C   UNL     1      99.123  78.600  75.536  1.00  0.00     0.011 C 
ATOM     15  C   UNL     1      97.730  81.711  75.777  1.00  0.00     0.122 C 
BRANCH   7  16
ATOM     16  C   UNL     1      96.317  80.584  72.687  1.00  0.00     0.135 C 
BRANCH  16  17
ATOM     17  C   UNL     1      96.717  79.337  71.939  1.00  0.00    -0.040 A 
ATOM     18  C   UNL     1      96.625  78.092  72.558  1.00  0.00     0.004 A 
ATOM     19  C   UNL     1      97.180  79.432  70.626  1.00  0.00     0.004 A 
ATOM     20  C   UNL     1      96.995  76.938  71.864  1.00  0.00     0.000 A 
ATOM     21  C   UNL     1      97.550  78.279  69.933  1.00  0.00     0.000 A 
ATOM     22  C   UNL     1      97.457  77.033  70.552  1.00  0.00     0.000 A 
ENDBRANCH  16  17
ENDBRANCH   7  16
BRANCH  15  23
ATOM     23  C   UNL     1      96.784  82.401  76.704  1.00  0.00    -0.046 C 
ATOM     24  C   UNL     1      95.952  83.497  76.106  1.00  0.00     0.042 C 
ATOM     25  C   UNL     1      96.682  82.061  77.998  1.00  0.00     0.010 C 
ENDBRANCH  15  23
ENDBRANCH   3   4
BRANCH   2  26
ATOM     26  C   UNL     1     102.630  82.237  72.781  1.00  0.00     0.078 C 
BRANCH  26  27
ATOM     27  C   UNL     1     102.365  80.973  73.596  1.00  0.00     0.140 C 
ATOM     28  C   UNL     1     101.017  80.316  73.233  1.00  0.00     0.086 CG0
ATOM     29  C   UNL     1     103.356  79.869  73.293  1.00  0.00     0.190 C 
ATOM     30  C   UNL     1     101.362  78.859  73.097  1.00  0.00    -0.010 C 
ATOM     31  G   UNL     1      99.795  80.734  74.101  1.00  0.00     0.000 G0
ATOM     32  O   UNL     1     104.571  79.998  73.258  1.00  0.00    -0.291 OA
ATOM     33  C   UNL     1     102.668  78.578  73.099  1.00  0.00    -0.008 C 
ATOM     34  C   UNL     1     103.365  77.289  72.908  1.00  0.00     0.048 C 
BRANCH  27  35
ATOM     35  O   UNL     1     102.532  81.206  74.984  1.00  0.00    -0.381 OA
ATOM     36  H   UNL     1     102.432  80.359  75.452  1.00  0.00     0.212 HD
ENDBRANCH  27  35
ENDBRANCH  26  27
ENDBRANCH   2  26
ENDBRANCH   1   2
BRANCH   1  37
ATOM     37  O   UNL     1     101.349  83.737  70.258  1.00  0.00    -0.461 OA
BRANCH  37  38
ATOM     38  C   UNL     1     102.270  83.875  69.246  1.00  0.00     0.310 C 
ATOM     39  O   UNL     1     102.909  82.959  68.747  1.00  0.00    -0.252 OA
BRANCH  38  40
ATOM     40  C   UNL     1     102.367  85.329  68.848  1.00  0.00     0.158 C 
BRANCH  40  41
ATOM     41  C   UNL     1     101.549  85.660  67.627  1.00  0.00    -0.037 A 
ATOM     42  C   UNL     1     100.720  84.692  67.059  1.00  0.00     0.008 A 
ATOM     43  C   UNL     1     101.620  86.934  67.064  1.00  0.00     0.008 A 
ATOM     44  C   UNL     1      99.963  84.998  65.928  1.00  0.00     0.046 A 
ATOM     45  C   UNL     1     100.862  87.241  65.933  1.00  0.00     0.046 A 
ATOM     46  C   UNL     1     100.034  86.273  65.365  1.00  0.00     0.115 A 
BRANCH  46  47
ATOM     47  O   UNL     1      99.296  86.572  64.262  1.00  0.00    -0.508 OA
ATOM     48  H   UNL     1      98.787  87.384  64.432  1.00  0.00     0.293 HD
ENDBRANCH  46  47
ENDBRANCH  40  41
ENDBRANCH  38  40
ENDBRANCH  37  38
ENDBRANCH   1  37
TORSDOF 10
ENDMDL
MODEL 6
REMARK VINA RESULT:    -5.834      5.383      9.566
REMARK INTER + INTRA:         -10.832
REMARK INTER:                  -9.700
REMARK INTRA:                  -1.132
REMARK UNBOUND:                -0.905
REMARK SMILES C=C(C)[C@]12C[C@@H](C)[C@@]34O[C@](Cc5ccccc5)(O[C@@H]1[C@@H]3C=C(COC(=O)Cc1ccc(O)cc1)C[C@]1(O)C(=O)C(C)=C[C@@H]41)O2
REMARK SMILES IDX 23 1 22 2 21 3 20 4 9 5 8 6 10 7 6 8 18 10 44 11 19 12 5 13
REMARK SMILES IDX 7 14 4 15 11 16 12 17 13 18 17 19 14 20 16 21 15 22 2 23
REMARK SMILES IDX 3 24 1 25 35 26 36 27 43 28 38 29 42 30 39 32 40 33 41 34
REMARK SMILES IDX 37 35 24 37 25 38 26 39 27 40 28 41 29 42 34 43 30 44 33 45
REMARK SMILES IDX 31 46 32 47
REMARK H PARENT 37 36 32 48
REMARK Flexibility Score: 90.00
ROOT
ATOM      1  C   UNL     1      92.291 105.387  70.488  1.00  0.00     0.264 C 
ENDROOT
BRANCH   1   2
ATOM      2  C   UNL     1      91.758 103.976  70.401  1.00  0.00    -0.033 C 
ATOM      3  C   UNL     1      90.959 103.636  69.367  1.00  0.00    -0.015 C 
BRANCH   3   4
ATOM      4  C   UNL     1      90.242 102.324  69.093  1.00  0.00     0.078 C 
ATOM      5  O   UNL     1      91.741 100.968  67.669  1.00  0.00    -0.319 OA
ATOM      6  C   UNL     1      91.101 101.011  68.982  1.00  0.00     0.095 CG0
ATOM      7  C   UNL     1      90.905 101.359  66.563  1.00  0.00     0.289 C 
ATOM      8  C   UNL     1      90.114  99.779  69.124  1.00  0.00     0.023 C 
ATOM      9  G   UNL     1      92.286 101.037  69.991  1.00  0.00     0.000 G0
ATOM     10  O   UNL     1      90.394 102.677  66.742  1.00  0.00    -0.320 OA
ATOM     11  O   UNL     1      89.763 100.518  66.423  1.00  0.00    -0.313 OA
ATOM     12  C   UNL     1      89.430 102.434  67.779  1.00  0.00     0.170 C 
ATOM     13  C   UNL     1      88.713 100.096  68.516  1.00  0.00     0.049 C 
ATOM     14  C   UNL     1      90.630  98.449  68.549  1.00  0.00     0.011 C 
ATOM     15  C   UNL     1      88.811 101.081  67.350  1.00  0.00     0.122 C 
BRANCH   7  16
ATOM     16  C   UNL     1      91.735 101.299  65.296  1.00  0.00     0.135 C 
BRANCH  16  17
ATOM     17  C   UNL     1      92.861 102.302  65.308  1.00  0.00    -0.040 A 
ATOM     18  C   UNL     1      93.930 102.141  66.188  1.00  0.00     0.004 A 
ATOM     19  C   UNL     1      92.832 103.391  64.437  1.00  0.00     0.004 A 
ATOM     20  C   UNL     1      94.972 103.069  66.199  1.00  0.00     0.000 A 
ATOM     21  C   UNL     1      93.874 104.319  64.448  1.00  0.00     0.000 A 
ATOM     22  C   UNL     1      94.943 104.158  65.328  1.00  0.00     0.000 A 
ENDBRANCH  16  17
ENDBRANCH   7  16
BRANCH  15  23
ATOM     23  C   UNL     1      87.510 101.259  66.638  1.00  0.00    -0.046 C 
ATOM     24  C   UNL     1      86.760 100.003  66.305  1.00  0.00     0.042 C 
ATOM     25  C   UNL     1      87.039 102.472  66.315  1.00  0.00     0.010 C 
ENDBRANCH  15  23
ENDBRANCH   3   4
BRANCH   2  26
ATOM     26  C   UNL     1      92.224 103.091  71.541  1.00  0.00     0.078 C 
BRANCH  26  27
ATOM     27  C   UNL     1      91.947 101.594  71.421  1.00  0.00     0.140 C 
ATOM     28  C   UNL     1      92.293 101.047  70.020  1.00  0.00     0.086 CG0
ATOM     29  C   UNL     1      92.838 100.765  72.322  1.00  0.00     0.190 C 
ATOM     30  C   UNL     1      93.057  99.786  70.315  1.00  0.00    -0.010 C 
ATOM     31  G   UNL     1      91.125 101.009  68.992  1.00  0.00     0.000 G0
ATOM     32  O   UNL     1      93.037 100.975  73.509  1.00  0.00    -0.291 OA
ATOM     33  C   UNL     1      93.403  99.613  71.594  1.00  0.00    -0.008 C 
ATOM     34  C   UNL     1      94.214  98.551  72.224  1.00  0.00     0.048 C 
BRANCH  27  35
ATOM     35  O   UNL     1      90.636 101.272  71.853  1.00  0.00    -0.381 OA
ATOM     36  H   UNL     1      90.202 100.752  71.156  1.00  0.00     0.212 HD
ENDBRANCH  27  35
ENDBRANCH  26  27
ENDBRANCH   2  26
ENDBRANCH   1   2
BRANCH   1  37
ATOM     37  O   UNL     1      91.772 106.011  71.644  1.00  0.00    -0.461 OA
BRANCH  37  38
ATOM     38  C   UNL     1      90.720 106.876  71.446  1.00  0.00     0.310 C 
ATOM     39  O   UNL     1      90.826 108.036  71.072  1.00  0.00    -0.252 OA
BRANCH  38  40
ATOM     40  C   UNL     1      89.422 106.173  71.763  1.00  0.00     0.158 C 
BRANCH  40  41
ATOM     41  C   UNL     1      89.471 105.404  73.057  1.00  0.00    -0.037 A 
ATOM     42  C   UNL     1      89.993 106.001  74.205  1.00  0.00     0.008 A 
ATOM     43  C   UNL     1      88.996 104.094  73.109  1.00  0.00     0.008 A 
ATOM     44  C   UNL     1      90.040 105.289  75.404  1.00  0.00     0.046 A 
ATOM     45  C   UNL     1      89.041 103.381  74.308  1.00  0.00     0.046 A 
ATOM     46  C   UNL     1      89.563 103.978  75.455  1.00  0.00     0.115 A 
BRANCH  46  47
ATOM     47  O   UNL     1      89.609 103.283  76.624  1.00  0.00    -0.508 OA
ATOM     48  H   UNL     1      88.860 102.663  76.651  1.00  0.00     0.293 HD
ENDBRANCH  46  47
ENDBRANCH  40  41
ENDBRANCH  38  40
ENDBRANCH  37  38
ENDBRANCH   1  37
TORSDOF 10
ENDMDL
MODEL 7
REMARK VINA RESULT:    -5.705      2.814      7.624
REMARK INTER + INTRA:         -10.612
REMARK INTER:                 -10.109
REMARK INTRA:                  -0.503
REMARK UNBOUND:                -0.905
REMARK SMILES C=C(C)[C@]12C[C@@H](C)[C@@]34O[C@](Cc5ccccc5)(O[C@@H]1[C@@H]3C=C(COC(=O)Cc1ccc(O)cc1)C[C@]1(O)C(=O)C(C)=C[C@@H]41)O2
REMARK SMILES IDX 23 1 22 2 21 3 20 4 9 5 8 6 10 7 6 8 18 10 44 11 19 12 5 13
REMARK SMILES IDX 7 14 4 15 11 16 12 17 13 18 17 19 14 20 16 21 15 22 2 23
REMARK SMILES IDX 3 24 1 25 35 26 36 27 43 28 38 29 42 30 39 32 40 33 41 34
REMARK SMILES IDX 37 35 24 37 25 38 26 39 27 40 28 41 29 42 34 43 30 44 33 45
REMARK SMILES IDX 31 46 32 47
REMARK H PARENT 37 36 32 48
REMARK Flexibility Score: 90.00
ROOT
ATOM      1  C   UNL     1      94.687 102.671  71.182  1.00  0.00     0.264 C 
ENDROOT
BRANCH   1   2
ATOM      2  C   UNL     1      95.480 101.819  72.145  1.00  0.00    -0.033 C 
ATOM      3  C   UNL     1      95.072 100.559  72.401  1.00  0.00    -0.015 C 
BRANCH   3   4
ATOM      4  C   UNL     1      95.642  99.538  73.373  1.00  0.00     0.078 C 
ATOM      5  O   UNL     1      97.246  98.150  72.102  1.00  0.00    -0.319 OA
ATOM      6  C   UNL     1      97.144  99.103  73.206  1.00  0.00     0.095 CG0
ATOM      7  C   UNL     1      96.213  97.148  72.056  1.00  0.00     0.289 C 
ATOM      8  C   UNL     1      97.591  98.395  74.551  1.00  0.00     0.023 C 
ATOM      9  G   UNL     1      98.023 100.308  72.760  1.00  0.00     0.000 G0
ATOM     10  O   UNL     1      94.919  97.742  71.986  1.00  0.00    -0.320 OA
ATOM     11  O   UNL     1      96.198  96.330  73.224  1.00  0.00    -0.313 OA
ATOM     12  C   UNL     1      94.798  98.240  73.327  1.00  0.00     0.170 C 
ATOM     13  C   UNL     1      96.408  97.622  75.211  1.00  0.00     0.049 C 
ATOM     14  C   UNL     1      98.808  97.462  74.434  1.00  0.00     0.011 C 
ATOM     15  C   UNL     1      95.422  97.098  74.166  1.00  0.00     0.122 C 
BRANCH   7  16
ATOM     16  C   UNL     1      96.446  96.281  70.835  1.00  0.00     0.135 C 
BRANCH  16  17
ATOM     17  C   UNL     1      97.271  96.986  69.788  1.00  0.00    -0.040 A 
ATOM     18  C   UNL     1      96.668  97.899  68.923  1.00  0.00     0.004 A 
ATOM     19  C   UNL     1      98.637  96.726  69.686  1.00  0.00     0.004 A 
ATOM     20  C   UNL     1      97.432  98.552  67.955  1.00  0.00     0.000 A 
ATOM     21  C   UNL     1      99.401  97.379  68.717  1.00  0.00     0.000 A 
ATOM     22  C   UNL     1      98.798  98.292  67.853  1.00  0.00     0.000 A 
ENDBRANCH  16  17
ENDBRANCH   7  16
BRANCH  15  23
ATOM     23  C   UNL     1      94.382  96.204  74.758  1.00  0.00    -0.046 C 
ATOM     24  C   UNL     1      93.094  96.860  75.158  1.00  0.00     0.042 C 
ATOM     25  C   UNL     1      94.587  94.888  74.922  1.00  0.00     0.010 C 
ENDBRANCH  15  23
ENDBRANCH   3   4
BRANCH   2  26
ATOM     26  C   UNL     1      96.692 102.533  72.713  1.00  0.00     0.078 C 
BRANCH  26  27
ATOM     27  C   UNL     1      97.722 101.681  73.452  1.00  0.00     0.140 C 
ATOM     28  C   UNL     1      97.990 100.340  72.739  1.00  0.00     0.086 CG0
ATOM     29  C   UNL     1      99.095 102.319  73.473  1.00  0.00     0.190 C 
ATOM     30  C   UNL     1      99.490 100.233  72.746  1.00  0.00    -0.010 C 
ATOM     31  G   UNL     1      97.136  99.128  73.213  1.00  0.00     0.000 G0
ATOM     32  O   UNL     1      99.333 103.477  73.782  1.00  0.00    -0.291 OA
ATOM     33  C   UNL     1     100.140 101.337  73.126  1.00  0.00    -0.008 C 
ATOM     34  C   UNL     1     101.590 101.618  73.175  1.00  0.00     0.048 C 
BRANCH  27  35
ATOM     35  O   UNL     1      97.392 101.544  74.824  1.00  0.00    -0.381 OA
ATOM     36  H   UNL     1      96.453 101.302  74.891  1.00  0.00     0.212 HD
ENDBRANCH  27  35
ENDBRANCH  26  27
ENDBRANCH   2  26
ENDBRANCH   1   2
BRANCH   1  37
ATOM     37  O   UNL     1      93.430 102.069  70.952  1.00  0.00    -0.461 OA
BRANCH  37  38
ATOM     38  C   UNL     1      93.357 101.206  69.884  1.00  0.00     0.310 C 
ATOM     39  O   UNL     1      93.839 101.412  68.779  1.00  0.00    -0.252 OA
BRANCH  38  40
ATOM     40  C   UNL     1      92.591  99.969  70.287  1.00  0.00     0.158 C 
BRANCH  40  41
ATOM     41  C   UNL     1      91.299  99.804  69.530  1.00  0.00    -0.037 A 
ATOM     42  C   UNL     1      90.532 100.923  69.206  1.00  0.00     0.008 A 
ATOM     43  C   UNL     1      90.869  98.532  69.151  1.00  0.00     0.008 A 
ATOM     44  C   UNL     1      89.335 100.771  68.506  1.00  0.00     0.046 A 
ATOM     45  C   UNL     1      89.673  98.379  68.450  1.00  0.00     0.046 A 
ATOM     46  C   UNL     1      88.906  99.498  68.128  1.00  0.00     0.115 A 
BRANCH  46  47
ATOM     47  O   UNL     1      87.738  99.350  67.444  1.00  0.00    -0.508 OA
ATOM     48  H   UNL     1      87.382 100.230  67.234  1.00  0.00     0.293 HD
ENDBRANCH  46  47
ENDBRANCH  40  41
ENDBRANCH  38  40
ENDBRANCH  37  38
ENDBRANCH   1  37
TORSDOF 10
ENDMDL
MODEL 8
REMARK VINA RESULT:    -5.504     35.394     39.048
REMARK INTER + INTRA:         -10.270
REMARK INTER:                  -8.720
REMARK INTRA:                  -1.550
REMARK UNBOUND:                -0.905
REMARK SMILES C=C(C)[C@]12C[C@@H](C)[C@@]34O[C@](Cc5ccccc5)(O[C@@H]1[C@@H]3C=C(COC(=O)Cc1ccc(O)cc1)C[C@]1(O)C(=O)C(C)=C[C@@H]41)O2
REMARK SMILES IDX 23 1 22 2 21 3 20 4 9 5 8 6 10 7 6 8 18 10 44 11 19 12 5 13
REMARK SMILES IDX 7 14 4 15 11 16 12 17 13 18 17 19 14 20 16 21 15 22 2 23
REMARK SMILES IDX 3 24 1 25 35 26 36 27 43 28 38 29 42 30 39 32 40 33 41 34
REMARK SMILES IDX 37 35 24 37 25 38 26 39 27 40 28 41 29 42 34 43 30 44 33 45
REMARK SMILES IDX 31 46 32 47
REMARK H PARENT 37 36 32 48
REMARK Flexibility Score: 90.00
ROOT
ATOM      1  C   UNL     1      61.988  89.538  77.360  1.00  0.00     0.264 C 
ENDROOT
BRANCH   1   2
ATOM      2  C   UNL     1      60.832  88.706  76.857  1.00  0.00    -0.033 C 
ATOM      3  C   UNL     1      59.639  89.298  76.638  1.00  0.00    -0.015 C 
BRANCH   3   4
ATOM      4  C   UNL     1      58.318  88.679  76.212  1.00  0.00     0.078 C 
ATOM      5  O   UNL     1      58.229  88.801  73.743  1.00  0.00    -0.319 OA
ATOM      6  C   UNL     1      58.272  87.866  74.866  1.00  0.00     0.095 CG0
ATOM      7  C   UNL     1      57.350  89.929  73.916  1.00  0.00     0.289 C 
ATOM      8  C   UNL     1      56.947  86.997  74.875  1.00  0.00     0.023 C 
ATOM      9  G   UNL     1      59.593  87.069  74.656  1.00  0.00     0.000 G0
ATOM     10  O   UNL     1      57.692  90.679  75.078  1.00  0.00    -0.320 OA
ATOM     11  O   UNL     1      55.992  89.536  74.096  1.00  0.00    -0.313 OA
ATOM     12  C   UNL     1      57.234  89.779  76.100  1.00  0.00     0.170 C 
ATOM     13  C   UNL     1      55.791  87.726  75.627  1.00  0.00     0.049 C 
ATOM     14  C   UNL     1      56.448  86.538  73.494  1.00  0.00     0.011 C 
ATOM     15  C   UNL     1      55.907  89.246  75.507  1.00  0.00     0.122 C 
BRANCH   7  16
ATOM     16  C   UNL     1      57.462  90.810  72.687  1.00  0.00     0.135 C 
BRANCH  16  17
ATOM     17  C   UNL     1      56.431  90.459  71.643  1.00  0.00    -0.040 A 
ATOM     18  C   UNL     1      56.576  89.299  70.882  1.00  0.00     0.004 A 
ATOM     19  C   UNL     1      55.334  91.294  71.439  1.00  0.00     0.004 A 
ATOM     20  C   UNL     1      55.622  88.974  69.917  1.00  0.00     0.000 A 
ATOM     21  C   UNL     1      54.380  90.969  70.474  1.00  0.00     0.000 A 
ATOM     22  C   UNL     1      54.525  89.810  69.713  1.00  0.00     0.000 A 
ENDBRANCH  16  17
ENDBRANCH   7  16
BRANCH  15  23
ATOM     23  C   UNL     1      54.717  89.958  76.062  1.00  0.00    -0.046 C 
ATOM     24  C   UNL     1      54.680  90.122  77.553  1.00  0.00     0.042 C 
ATOM     25  C   UNL     1      53.737  90.423  75.274  1.00  0.00     0.010 C 
ENDBRANCH  15  23
ENDBRANCH   3   4
BRANCH   2  26
ATOM     26  C   UNL     1      61.193  87.247  76.648  1.00  0.00     0.078 C 
BRANCH  26  27
ATOM     27  C   UNL     1      60.182  86.376  75.905  1.00  0.00     0.140 C 
ATOM     28  C   UNL     1      59.619  87.077  74.652  1.00  0.00     0.086 CG0
ATOM     29  C   UNL     1      60.809  85.127  75.324  1.00  0.00     0.190 C 
ATOM     30  C   UNL     1      59.691  86.013  73.593  1.00  0.00    -0.010 C 
ATOM     31  G   UNL     1      58.294  87.871  74.847  1.00  0.00     0.000 G0
ATOM     32  O   UNL     1      61.538  84.354  75.928  1.00  0.00    -0.291 OA
ATOM     33  C   UNL     1      60.378  84.917  73.929  1.00  0.00    -0.008 C 
ATOM     34  C   UNL     1      60.719  83.724  73.127  1.00  0.00     0.048 C 
BRANCH  27  35
ATOM     35  O   UNL     1      59.184  85.879  76.780  1.00  0.00    -0.381 OA
ATOM     36  H   UNL     1      58.316  86.008  76.361  1.00  0.00     0.212 HD
ENDBRANCH  27  35
ENDBRANCH  26  27
ENDBRANCH   2  26
ENDBRANCH   1   2
BRANCH   1  37
ATOM     37  O   UNL     1      61.850  89.735  78.751  1.00  0.00    -0.461 OA
BRANCH  37  38
ATOM     38  C   UNL     1      62.494  88.829  79.561  1.00  0.00     0.310 C 
ATOM     39  O   UNL     1      63.618  88.387  79.366  1.00  0.00    -0.252 OA
BRANCH  38  40
ATOM     40  C   UNL     1      61.601  88.467  80.723  1.00  0.00     0.158 C 
BRANCH  40  41
ATOM     41  C   UNL     1      60.249  89.128  80.653  1.00  0.00    -0.037 A 
ATOM     42  C   UNL     1      60.082  90.429  81.130  1.00  0.00     0.008 A 
ATOM     43  C   UNL     1      59.163  88.441  80.112  1.00  0.00     0.008 A 
ATOM     44  C   UNL     1      58.830  91.041  81.066  1.00  0.00     0.046 A 
ATOM     45  C   UNL     1      57.911  89.053  80.047  1.00  0.00     0.046 A 
ATOM     46  C   UNL     1      57.744  90.352  80.524  1.00  0.00     0.115 A 
BRANCH  46  47
ATOM     47  O   UNL     1      56.523  90.949  80.462  1.00  0.00    -0.508 OA
ATOM     48  H   UNL     1      56.414  91.354  79.584  1.00  0.00     0.293 HD
ENDBRANCH  46  47
ENDBRANCH  40  41
ENDBRANCH  38  40
ENDBRANCH  37  38
ENDBRANCH   1  37
TORSDOF 10
ENDMDL
MODEL 9
REMARK VINA RESULT:    -5.378     15.897     19.856
REMARK INTER + INTRA:         -10.055
REMARK INTER:                  -8.076
REMARK INTRA:                  -1.979
REMARK UNBOUND:                -0.905
REMARK SMILES C=C(C)[C@]12C[C@@H](C)[C@@]34O[C@](Cc5ccccc5)(O[C@@H]1[C@@H]3C=C(COC(=O)Cc1ccc(O)cc1)C[C@]1(O)C(=O)C(C)=C[C@@H]41)O2
REMARK SMILES IDX 23 1 22 2 21 3 20 4 9 5 8 6 10 7 6 8 18 10 44 11 19 12 5 13
REMARK SMILES IDX 7 14 4 15 11 16 12 17 13 18 17 19 14 20 16 21 15 22 2 23
REMARK SMILES IDX 3 24 1 25 35 26 36 27 43 28 38 29 42 30 39 32 40 33 41 34
REMARK SMILES IDX 37 35 24 37 25 38 26 39 27 40 28 41 29 42 34 43 30 44 33 45
REMARK SMILES IDX 31 46 32 47
REMARK H PARENT 37 36 32 48
REMARK Flexibility Score: 90.00
ROOT
ATOM      1  C   UNL     1     100.293  83.651  73.627  1.00  0.00     0.264 C 
ENDROOT
BRANCH   1   2
ATOM      2  C   UNL     1      99.441  82.470  74.033  1.00  0.00    -0.033 C 
ATOM      3  C   UNL     1      99.515  81.328  73.318  1.00  0.00    -0.015 C 
BRANCH   3   4
ATOM      4  C   UNL     1      98.719  80.042  73.470  1.00  0.00     0.078 C 
ATOM      5  O   UNL     1     100.030  78.553  74.947  1.00  0.00    -0.319 OA
ATOM      6  C   UNL     1      98.770  79.288  74.850  1.00  0.00     0.095 CG0
ATOM      7  C   UNL     1     100.432  77.861  73.750  1.00  0.00     0.289 C 
ATOM      8  C   UNL     1      97.563  78.264  74.883  1.00  0.00     0.023 C 
ATOM      9  G   UNL     1      98.820  80.301  76.032  1.00  0.00     0.000 G0
ATOM     10  O   UNL     1     100.547  78.756  72.648  1.00  0.00    -0.320 OA
ATOM     11  O   UNL     1      99.482  76.876  73.349  1.00  0.00    -0.313 OA
ATOM     12  C   UNL     1      99.159  79.020  72.393  1.00  0.00     0.170 C 
ATOM     13  C   UNL     1      97.253  77.699  73.462  1.00  0.00     0.049 C 
ATOM     14  C   UNL     1      97.712  77.096  75.873  1.00  0.00     0.011 C 
ATOM     15  C   UNL     1      98.510  77.629  72.595  1.00  0.00     0.122 C 
BRANCH   7  16
ATOM     16  C   UNL     1     101.768  77.195  74.013  1.00  0.00     0.135 C 
BRANCH  16  17
ATOM     17  C   UNL     1     102.605  77.974  74.997  1.00  0.00    -0.040 A 
ATOM     18  C   UNL     1     102.947  77.407  76.224  1.00  0.00     0.004 A 
ATOM     19  C   UNL     1     103.037  79.261  74.678  1.00  0.00     0.004 A 
ATOM     20  C   UNL     1     103.722  78.128  77.134  1.00  0.00     0.000 A 
ATOM     21  C   UNL     1     103.811  79.982  75.588  1.00  0.00     0.000 A 
ATOM     22  C   UNL     1     104.153  79.415  76.815  1.00  0.00     0.000 A 
ENDBRANCH  16  17
ENDBRANCH   7  16
BRANCH  15  23
ATOM     23  C   UNL     1      98.274  76.926  71.298  1.00  0.00    -0.046 C 
ATOM     24  C   UNL     1      98.155  75.432  71.367  1.00  0.00     0.042 C 
ATOM     25  C   UNL     1      98.174  77.592  70.138  1.00  0.00     0.010 C 
ENDBRANCH  15  23
ENDBRANCH   3   4
BRANCH   2  26
ATOM     26  C   UNL     1      98.583  82.746  75.253  1.00  0.00     0.078 C 
BRANCH  26  27
ATOM     27  C   UNL     1      97.878  81.553  75.894  1.00  0.00     0.140 C 
ATOM     28  C   UNL     1      98.809  80.331  76.037  1.00  0.00     0.086 CG0
ATOM     29  C   UNL     1      97.472  81.821  77.328  1.00  0.00     0.190 C 
ATOM     30  C   UNL     1      98.557  79.860  77.442  1.00  0.00    -0.010 C 
ATOM     31  G   UNL     1      98.774  79.302  74.869  1.00  0.00     0.000 G0
ATOM     32  O   UNL     1      96.878  82.813  77.722  1.00  0.00    -0.291 OA
ATOM     33  C   UNL     1      97.833  80.688  78.201  1.00  0.00    -0.008 C 
ATOM     34  C   UNL     1      97.465  80.592  79.629  1.00  0.00     0.048 C 
BRANCH  27  35
ATOM     35  O   UNL     1      96.651  81.265  75.244  1.00  0.00    -0.381 OA
ATOM     36  H   UNL     1      96.218  82.106  75.020  1.00  0.00     0.212 HD
ENDBRANCH  27  35
ENDBRANCH  26  27
ENDBRANCH   2  26
ENDBRANCH   1   2
BRANCH   1  37
ATOM     37  O   UNL     1     100.153  83.872  72.240  1.00  0.00    -0.461 OA
BRANCH  37  38
ATOM     38  C   UNL     1     101.311  84.143  71.548  1.00  0.00     0.310 C 
ATOM     39  O   UNL     1     101.363  84.538  70.392  1.00  0.00    -0.252 OA
BRANCH  38  40
ATOM     40  C   UNL     1     102.503  83.876  72.436  1.00  0.00     0.158 C 
BRANCH  40  41
ATOM     41  C   UNL     1     103.200  82.581  72.112  1.00  0.00    -0.037 A 
ATOM     42  C   UNL     1     102.543  81.603  71.364  1.00  0.00     0.008 A 
ATOM     43  C   UNL     1     104.502  82.358  72.558  1.00  0.00     0.008 A 
ATOM     44  C   UNL     1     103.187  80.403  71.064  1.00  0.00     0.046 A 
ATOM     45  C   UNL     1     105.148  81.158  72.257  1.00  0.00     0.046 A 
ATOM     46  C   UNL     1     104.491  80.181  71.511  1.00  0.00     0.115 A 
BRANCH  46  47
ATOM     47  O   UNL     1     105.119  79.010  71.219  1.00  0.00    -0.508 OA
ATOM     48  H   UNL     1     105.925  79.203  70.708  1.00  0.00     0.293 HD
ENDBRANCH  46  47
ENDBRANCH  40  41
ENDBRANCH  38  40
ENDBRANCH  37  38
ENDBRANCH   1  37
TORSDOF 10
ENDMDL
MODEL 10
REMARK VINA RESULT:    -5.219     31.618     37.798
REMARK INTER + INTRA:          -9.785
REMARK INTER:                  -8.464
REMARK INTRA:                  -1.322
REMARK UNBOUND:                -0.905
REMARK SMILES C=C(C)[C@]12C[C@@H](C)[C@@]34O[C@](Cc5ccccc5)(O[C@@H]1[C@@H]3C=C(COC(=O)Cc1ccc(O)cc1)C[C@]1(O)C(=O)C(C)=C[C@@H]41)O2
REMARK SMILES IDX 23 1 22 2 21 3 20 4 9 5 8 6 10 7 6 8 18 10 44 11 19 12 5 13
REMARK SMILES IDX 7 14 4 15 11 16 12 17 13 18 17 19 14 20 16 21 15 22 2 23
REMARK SMILES IDX 3 24 1 25 35 26 36 27 43 28 38 29 42 30 39 32 40 33 41 34
REMARK SMILES IDX 37 35 24 37 25 38 26 39 27 40 28 41 29 42 34 43 30 44 33 45
REMARK SMILES IDX 31 46 32 47
REMARK H PARENT 37 36 32 48
REMARK Flexibility Score: 90.00
ROOT
ATOM      1  C   UNL     1      75.832  73.649  89.574  1.00  0.00     0.264 C 
ENDROOT
BRANCH   1   2
ATOM      2  C   UNL     1      74.962  72.493  89.140  1.00  0.00    -0.033 C 
ATOM      3  C   UNL     1      75.418  71.643  88.196  1.00  0.00    -0.015 C 
BRANCH   3   4
ATOM      4  C   UNL     1      74.718  70.464  87.540  1.00  0.00     0.078 C 
ATOM      5  O   UNL     1      75.305  68.455  88.858  1.00  0.00    -0.319 OA
ATOM      6  C   UNL     1      74.184  69.305  88.460  1.00  0.00     0.095 CG0
ATOM      7  C   UNL     1      76.246  68.148  87.811  1.00  0.00     0.289 C 
ATOM      8  C   UNL     1      73.156  68.451  87.608  1.00  0.00     0.023 C 
ATOM      9  G   UNL     1      73.633  69.871  89.801  1.00  0.00     0.000 G0
ATOM     10  O   UNL     1      76.794  69.335  87.243  1.00  0.00    -0.320 OA
ATOM     11  O   UNL     1      75.642  67.446  86.727  1.00  0.00    -0.313 OA
ATOM     12  C   UNL     1      75.658  69.806  86.501  1.00  0.00     0.170 C 
ATOM     13  C   UNL     1      73.557  68.409  86.102  1.00  0.00     0.049 C 
ATOM     14  C   UNL     1      72.911  67.018  88.110  1.00  0.00     0.011 C 
ATOM     15  C   UNL     1      75.073  68.496  85.917  1.00  0.00     0.122 C 
BRANCH   7  16
ATOM     16  C   UNL     1      77.356  67.302  88.403  1.00  0.00     0.135 C 
BRANCH  16  17
ATOM     17  C   UNL     1      77.945  66.352  87.391  1.00  0.00    -0.040 A 
ATOM     18  C   UNL     1      78.993  66.768  86.570  1.00  0.00     0.004 A 
ATOM     19  C   UNL     1      77.442  65.057  87.277  1.00  0.00     0.004 A 
ATOM     20  C   UNL     1      79.539  65.888  85.635  1.00  0.00     0.000 A 
ATOM     21  C   UNL     1      77.987  64.177  86.341  1.00  0.00     0.000 A 
ATOM     22  C   UNL     1      79.035  64.593  85.520  1.00  0.00     0.000 A 
ENDBRANCH  16  17
ENDBRANCH   7  16
BRANCH  15  23
ATOM     23  C   UNL     1      75.492  68.277  84.500  1.00  0.00    -0.046 C 
ATOM     24  C   UNL     1      75.273  66.898  83.951  1.00  0.00     0.042 C 
ATOM     25  C   UNL     1      76.033  69.256  83.761  1.00  0.00     0.010 C 
ENDBRANCH  15  23
ENDBRANCH   3   4
BRANCH   2  26
ATOM     26  C   UNL     1      73.633  72.440  89.870  1.00  0.00     0.078 C 
BRANCH  26  27
ATOM     27  C   UNL     1      72.791  71.177  89.697  1.00  0.00     0.140 C 
ATOM     28  C   UNL     1      73.639  69.892  89.800  1.00  0.00     0.086 CG0
ATOM     29  C   UNL     1      71.786  70.994  90.814  1.00  0.00     0.190 C 
ATOM     30  C   UNL     1      72.828  69.010  90.708  1.00  0.00    -0.010 C 
ATOM     31  G   UNL     1      74.178  69.317  88.458  1.00  0.00     0.000 G0
ATOM     32  O   UNL     1      71.021  71.853  91.227  1.00  0.00    -0.291 OA
ATOM     33  C   UNL     1      71.798  69.606  91.315  1.00  0.00    -0.008 C 
ATOM     34  C   UNL     1      70.850  69.079  92.319  1.00  0.00     0.048 C 
BRANCH  27  35
ATOM     35  O   UNL     1      71.991  71.243  88.529  1.00  0.00    -0.381 OA
ATOM     36  H   UNL     1      72.277  70.539  87.922  1.00  0.00     0.212 HD
ENDBRANCH  27  35
ENDBRANCH  26  27
ENDBRANCH   2  26
ENDBRANCH   1   2
BRANCH   1  37
ATOM     37  O   UNL     1      77.176  73.223  89.642  1.00  0.00    -0.461 OA
BRANCH  37  38
ATOM     38  C   UNL     1      78.098  74.012  88.992  1.00  0.00     0.310 C 
ATOM     39  O   UNL     1      78.261  75.208  89.188  1.00  0.00    -0.252 OA
BRANCH  38  40
ATOM     40  C   UNL     1      78.872  73.172  88.004  1.00  0.00     0.158 C 
BRANCH  40  41
ATOM     41  C   UNL     1      78.541  73.497  86.571  1.00  0.00    -0.037 A 
ATOM     42  C   UNL     1      77.367  73.008  85.997  1.00  0.00     0.008 A 
ATOM     43  C   UNL     1      79.409  74.287  85.816  1.00  0.00     0.008 A 
ATOM     44  C   UNL     1      77.062  73.309  84.670  1.00  0.00     0.046 A 
ATOM     45  C   UNL     1      79.103  74.588  84.489  1.00  0.00     0.046 A 
ATOM     46  C   UNL     1      77.930  74.099  83.915  1.00  0.00     0.115 A 
BRANCH  46  47
ATOM     47  O   UNL     1      77.632  74.391  82.620  1.00  0.00    -0.508 OA
ATOM     48  H   UNL     1      77.864  75.320  82.445  1.00  0.00     0.293 HD
ENDBRANCH  46  47
ENDBRANCH  40  41
ENDBRANCH  38  40
ENDBRANCH  37  38
ENDBRANCH   1  37
TORSDOF 10
ENDMDL
