MODEL 1
REMARK VINA RESULT:    -5.714      0.000      0.000
REMARK INTER + INTRA:         -10.776
REMARK INTER:                  -9.389
REMARK INTRA:                  -1.388
REMARK UNBOUND:                -1.388
REMARK SMILES CCCCC[C@H](O)CC(=O)CCc1ccc(O)c(OC)c1
REMARK SMILES IDX 8 1 6 2 7 3 5 5 4 6 3 7 2 8 1 9 9 10 10 11 11 12 12 13 13 14
REMARK SMILES IDX 21 15 14 16 18 17 15 18 16 19 19 20 20 21 17 22
REMARK H PARENT 7 4 17 23
REMARK Flexibility Score: inf
ROOT
ATOM      1  C   UNL     1      94.482  93.243  78.354  1.00  0.00     0.107 C 
ENDROOT
BRANCH   1   2
ATOM      2  C   UNL     1      94.896  93.356  79.823  1.00  0.00     0.121 C 
BRANCH   2   3
ATOM      3  O   UNL     1      95.153  92.059  80.355  1.00  0.00    -0.393 OA
ATOM      4  H   UNL     1      95.909  91.683  79.871  1.00  0.00     0.210 HD
ENDBRANCH   2   3
BRANCH   2   5
ATOM      5  C   UNL     1      96.132  94.240  80.031  1.00  0.00     0.032 C 
BRANCH   5   6
ATOM      6  C   UNL     1      96.989  94.341  78.763  1.00  0.00     0.003 C 
BRANCH   6   7
ATOM      7  C   UNL     1      98.094  95.397  78.860  1.00  0.00    -0.000 C 
BRANCH   7   8
ATOM      8  C   UNL     1      98.132  96.355  77.671  1.00  0.00    -0.003 C 
ATOM      9  C   UNL     1      96.736  96.630  77.136  1.00  0.00     0.004 C 
ENDBRANCH   7   8
ENDBRANCH   6   7
ENDBRANCH   5   6
ENDBRANCH   2   5
ENDBRANCH   1   2
BRANCH   1  10
ATOM     10  C   UNL     1      93.172  93.950  78.049  1.00  0.00     0.135 C 
ATOM     11  O   UNL     1      92.091  93.396  78.249  1.00  0.00    -0.300 OA
BRANCH  10  12
ATOM     12  C   UNL     1      93.272  95.378  77.532  1.00  0.00     0.080 C 
BRANCH  12  13
ATOM     13  C   UNL     1      92.587  95.593  76.182  1.00  0.00     0.043 C 
BRANCH  13  14
ATOM     14  C   UNL     1      93.527  96.102  75.115  1.00  0.00    -0.044 A 
ATOM     15  C   UNL     1      93.422  97.416  74.662  1.00  0.00     0.054 A 
ATOM     16  C   UNL     1      94.501  95.256  74.584  1.00  0.00     0.008 A 
ATOM     17  C   UNL     1      94.292  97.886  73.677  1.00  0.00     0.160 A 
ATOM     18  C   UNL     1      95.371  95.725  73.599  1.00  0.00     0.050 A 
ATOM     19  C   UNL     1      95.266  97.040  73.146  1.00  0.00     0.157 A 
BRANCH  17  20
ATOM     20  O   UNL     1      94.179  99.172  73.242  1.00  0.00    -0.493 OA
ATOM     21  C   UNL     1      93.077  99.473  72.388  1.00  0.00     0.278 C 
ENDBRANCH  17  20
BRANCH  19  22
ATOM     22  O   UNL     1      96.120  97.487  72.184  1.00  0.00    -0.504 OA
ATOM     23  H   UNL     1      95.611  97.711  71.387  1.00  0.00     0.293 HD
ENDBRANCH  19  22
ENDBRANCH  13  14
ENDBRANCH  12  13
ENDBRANCH  10  12
ENDBRANCH   1  10
TORSDOF 12
ENDMDL
MODEL 2
REMARK VINA RESULT:    -5.631      1.970      6.741
REMARK INTER + INTRA:         -10.640
REMARK INTER:                  -9.354
REMARK INTRA:                  -1.286
REMARK UNBOUND:                -1.388
REMARK SMILES CCCCC[C@H](O)CC(=O)CCc1ccc(O)c(OC)c1
REMARK SMILES IDX 8 1 6 2 7 3 5 5 4 6 3 7 2 8 1 9 9 10 10 11 11 12 12 13 13 14
REMARK SMILES IDX 21 15 14 16 18 17 15 18 16 19 19 20 20 21 17 22
REMARK H PARENT 7 4 17 23
REMARK Flexibility Score: inf
ROOT
ATOM      1  C   UNL     1      95.876  96.032  74.763  1.00  0.00     0.107 C 
ENDROOT
BRANCH   1   2
ATOM      2  C   UNL     1      94.405  95.666  74.556  1.00  0.00     0.121 C 
BRANCH   2   3
ATOM      3  O   UNL     1      94.222  94.265  74.749  1.00  0.00    -0.393 OA
ATOM      4  H   UNL     1      94.208  94.097  75.707  1.00  0.00     0.210 HD
ENDBRANCH   2   3
BRANCH   2   5
ATOM      5  C   UNL     1      93.459  96.432  75.489  1.00  0.00     0.032 C 
BRANCH   5   6
ATOM      6  C   UNL     1      93.127  95.633  76.755  1.00  0.00     0.003 C 
BRANCH   6   7
ATOM      7  C   UNL     1      91.625  95.554  77.047  1.00  0.00    -0.000 C 
BRANCH   7   8
ATOM      8  C   UNL     1      91.127  94.136  77.316  1.00  0.00    -0.003 C 
ATOM      9  C   UNL     1      92.137  93.338  78.125  1.00  0.00     0.004 C 
ENDBRANCH   7   8
ENDBRANCH   6   7
ENDBRANCH   5   6
ENDBRANCH   2   5
ENDBRANCH   1   2
BRANCH   1  10
ATOM     10  C   UNL     1      96.089  97.510  75.046  1.00  0.00     0.135 C 
ATOM     11  O   UNL     1      95.712  98.368  74.248  1.00  0.00    -0.300 OA
BRANCH  10  12
ATOM     12  C   UNL     1      96.742  97.863  76.374  1.00  0.00     0.080 C 
BRANCH  12  13
ATOM     13  C   UNL     1      97.430  96.678  77.055  1.00  0.00     0.043 C 
BRANCH  13  14
ATOM     14  C   UNL     1      96.901  96.404  78.442  1.00  0.00    -0.044 A 
ATOM     15  C   UNL     1      96.163  95.247  78.692  1.00  0.00     0.054 A 
ATOM     16  C   UNL     1      97.150  97.309  79.475  1.00  0.00     0.008 A 
ATOM     17  C   UNL     1      95.675  94.994  79.974  1.00  0.00     0.160 A 
ATOM     18  C   UNL     1      96.662  97.056  80.757  1.00  0.00     0.050 A 
ATOM     19  C   UNL     1      95.924  95.899  81.006  1.00  0.00     0.157 A 
BRANCH  17  20
ATOM     20  O   UNL     1      94.956  93.860  80.205  1.00  0.00    -0.493 OA
ATOM     21  C   UNL     1      95.587  92.618  79.900  1.00  0.00     0.278 C 
ENDBRANCH  17  20
BRANCH  19  22
ATOM     22  O   UNL     1      95.453  95.663  82.262  1.00  0.00    -0.504 OA
ATOM     23  H   UNL     1      95.566  94.720  82.471  1.00  0.00     0.293 HD
ENDBRANCH  19  22
ENDBRANCH  13  14
ENDBRANCH  12  13
ENDBRANCH  10  12
ENDBRANCH   1  10
TORSDOF 12
ENDMDL
MODEL 3
REMARK VINA RESULT:    -5.547     12.924     15.874
REMARK INTER + INTRA:         -10.501
REMARK INTER:                  -9.539
REMARK INTRA:                  -0.962
REMARK UNBOUND:                -1.388
REMARK SMILES CCCCC[C@H](O)CC(=O)CCc1ccc(O)c(OC)c1
REMARK SMILES IDX 8 1 6 2 7 3 5 5 4 6 3 7 2 8 1 9 9 10 10 11 11 12 12 13 13 14
REMARK SMILES IDX 21 15 14 16 18 17 15 18 16 19 19 20 20 21 17 22
REMARK H PARENT 7 4 17 23
REMARK Flexibility Score: inf
ROOT
ATOM      1  C   UNL     1      96.927  81.204  76.487  1.00  0.00     0.107 C 
ENDROOT
BRANCH   1   2
ATOM      2  C   UNL     1      97.693  81.928  75.377  1.00  0.00     0.121 C 
BRANCH   2   3
ATOM      3  O   UNL     1      97.414  83.325  75.429  1.00  0.00    -0.393 OA
ATOM      4  H   UNL     1      96.711  83.464  76.086  1.00  0.00     0.210 HD
ENDBRANCH   2   3
BRANCH   2   5
ATOM      5  C   UNL     1      99.210  81.713  75.456  1.00  0.00     0.032 C 
BRANCH   5   6
ATOM      6  C   UNL     1      99.970  82.592  74.455  1.00  0.00     0.003 C 
BRANCH   6   7
ATOM      7  C   UNL     1      99.700  82.219  72.994  1.00  0.00    -0.000 C 
BRANCH   7   8
ATOM      8  C   UNL     1     100.033  83.336  72.006  1.00  0.00    -0.003 C 
ATOM      9  C   UNL     1      99.643  84.699  72.558  1.00  0.00     0.004 C 
ENDBRANCH   7   8
ENDBRANCH   6   7
ENDBRANCH   5   6
ENDBRANCH   2   5
ENDBRANCH   1   2
BRANCH   1  10
ATOM     10  C   UNL     1      96.659  82.084  77.697  1.00  0.00     0.135 C 
ATOM     11  O   UNL     1      95.631  82.756  77.776  1.00  0.00    -0.300 OA
BRANCH  10  12
ATOM     12  C   UNL     1      97.698  82.050  78.808  1.00  0.00     0.080 C 
BRANCH  12  13
ATOM     13  C   UNL     1      97.445  80.963  79.854  1.00  0.00     0.043 C 
BRANCH  13  14
ATOM     14  C   UNL     1      97.216  81.517  81.240  1.00  0.00    -0.044 A 
ATOM     15  C   UNL     1      97.868  80.950  82.335  1.00  0.00     0.054 A 
ATOM     16  C   UNL     1      96.351  82.596  81.425  1.00  0.00     0.008 A 
ATOM     17  C   UNL     1      97.657  81.464  83.614  1.00  0.00     0.160 A 
ATOM     18  C   UNL     1      96.139  83.110  82.705  1.00  0.00     0.050 A 
ATOM     19  C   UNL     1      96.792  82.543  83.799  1.00  0.00     0.157 A 
BRANCH  17  20
ATOM     20  O   UNL     1      98.299  80.901  84.676  1.00  0.00    -0.493 OA
ATOM     21  C   UNL     1      97.688  79.759  85.273  1.00  0.00     0.278 C 
ENDBRANCH  17  20
BRANCH  19  22
ATOM     22  O   UNL     1      96.577  83.053  85.044  1.00  0.00    -0.504 OA
ATOM     23  H   UNL     1      95.783  83.614  85.024  1.00  0.00     0.293 HD
ENDBRANCH  19  22
ENDBRANCH  13  14
ENDBRANCH  12  13
ENDBRANCH  10  12
ENDBRANCH   1  10
TORSDOF 12
ENDMDL
MODEL 4
REMARK VINA RESULT:    -5.446      2.753      5.598
REMARK INTER + INTRA:         -10.336
REMARK INTER:                  -8.736
REMARK INTRA:                  -1.601
REMARK UNBOUND:                -1.388
REMARK SMILES CCCCC[C@H](O)CC(=O)CCc1ccc(O)c(OC)c1
REMARK SMILES IDX 8 1 6 2 7 3 5 5 4 6 3 7 2 8 1 9 9 10 10 11 11 12 12 13 13 14
REMARK SMILES IDX 21 15 14 16 18 17 15 18 16 19 19 20 20 21 17 22
REMARK H PARENT 7 4 17 23
REMARK Flexibility Score: inf
ROOT
ATOM      1  C   UNL     1      93.639  94.179  78.447  1.00  0.00     0.107 C 
ENDROOT
BRANCH   1   2
ATOM      2  C   UNL     1      92.684  93.373  77.564  1.00  0.00     0.121 C 
BRANCH   2   3
ATOM      3  O   UNL     1      91.660  92.789  78.366  1.00  0.00    -0.393 OA
ATOM      4  H   UNL     1      91.729  91.823  78.279  1.00  0.00     0.210 HD
ENDBRANCH   2   3
BRANCH   2   5
ATOM      5  C   UNL     1      92.038  94.214  76.455  1.00  0.00     0.032 C 
BRANCH   5   6
ATOM      6  C   UNL     1      92.531  95.666  76.471  1.00  0.00     0.003 C 
BRANCH   6   7
ATOM      7  C   UNL     1      93.225  96.085  75.171  1.00  0.00    -0.000 C 
BRANCH   7   8
ATOM      8  C   UNL     1      94.402  95.189  74.789  1.00  0.00    -0.003 C 
ATOM      9  C   UNL     1      95.548  95.999  74.203  1.00  0.00     0.004 C 
ENDBRANCH   7   8
ENDBRANCH   6   7
ENDBRANCH   5   6
ENDBRANCH   2   5
ENDBRANCH   1   2
BRANCH   1  10
ATOM     10  C   UNL     1      94.529  93.305  79.315  1.00  0.00     0.135 C 
ATOM     11  O   UNL     1      94.046  92.548  80.156  1.00  0.00    -0.300 OA
BRANCH  10  12
ATOM     12  C   UNL     1      96.026  93.385  79.055  1.00  0.00     0.080 C 
BRANCH  12  13
ATOM     13  C   UNL     1      96.400  94.315  77.899  1.00  0.00     0.043 C 
BRANCH  13  14
ATOM     14  C   UNL     1      96.828  95.688  78.360  1.00  0.00    -0.044 A 
ATOM     15  C   UNL     1      96.691  96.049  79.701  1.00  0.00     0.054 A 
ATOM     16  C   UNL     1      97.359  96.597  77.444  1.00  0.00     0.008 A 
ATOM     17  C   UNL     1      97.087  97.317  80.125  1.00  0.00     0.160 A 
ATOM     18  C   UNL     1      97.755  97.865  77.868  1.00  0.00     0.050 A 
ATOM     19  C   UNL     1      97.618  98.225  79.209  1.00  0.00     0.157 A 
BRANCH  17  20
ATOM     20  O   UNL     1      96.949  97.658  81.437  1.00  0.00    -0.493 OA
ATOM     21  C   UNL     1      96.391  96.674  82.307  1.00  0.00     0.278 C 
ENDBRANCH  17  20
BRANCH  19  22
ATOM     22  O   UNL     1      98.008  99.467  79.611  1.00  0.00    -0.504 OA
ATOM     23  H   UNL     1      98.624  99.834  78.954  1.00  0.00     0.293 HD
ENDBRANCH  19  22
ENDBRANCH  13  14
ENDBRANCH  12  13
ENDBRANCH  10  12
ENDBRANCH   1  10
TORSDOF 12
ENDMDL
MODEL 5
REMARK VINA RESULT:    -5.419      7.712     11.481
REMARK INTER + INTRA:         -10.291
REMARK INTER:                  -8.913
REMARK INTRA:                  -1.379
REMARK UNBOUND:                -1.388
REMARK SMILES CCCCC[C@H](O)CC(=O)CCc1ccc(O)c(OC)c1
REMARK SMILES IDX 8 1 6 2 7 3 5 5 4 6 3 7 2 8 1 9 9 10 10 11 11 12 12 13 13 14
REMARK SMILES IDX 21 15 14 16 18 17 15 18 16 19 19 20 20 21 17 22
REMARK H PARENT 7 4 17 23
REMARK Flexibility Score: inf
ROOT
ATOM      1  C   UNL     1      90.268  99.096  68.695  1.00  0.00     0.107 C 
ENDROOT
BRANCH   1   2
ATOM      2  C   UNL     1      89.417  99.132  69.966  1.00  0.00     0.121 C 
BRANCH   2   3
ATOM      3  O   UNL     1      89.551  97.901  70.673  1.00  0.00    -0.393 OA
ATOM      4  H   UNL     1      90.238  98.020  71.351  1.00  0.00     0.210 HD
ENDBRANCH   2   3
BRANCH   2   5
ATOM      5  C   UNL     1      89.782 100.292  70.900  1.00  0.00     0.032 C 
BRANCH   5   6
ATOM      6  C   UNL     1      91.027 101.049  70.420  1.00  0.00     0.003 C 
BRANCH   6   7
ATOM      7  C   UNL     1      92.183 101.013  71.425  1.00  0.00    -0.000 C 
BRANCH   7   8
ATOM      8  C   UNL     1      92.834  99.638  71.560  1.00  0.00    -0.003 C 
ATOM      9  C   UNL     1      93.830  99.383  70.439  1.00  0.00     0.004 C 
ENDBRANCH   7   8
ENDBRANCH   6   7
ENDBRANCH   5   6
ENDBRANCH   2   5
ENDBRANCH   1   2
BRANCH   1  10
ATOM     10  C   UNL     1      89.650  98.258  67.588  1.00  0.00     0.135 C 
ATOM     11  O   UNL     1      89.533  97.038  67.708  1.00  0.00    -0.300 OA
BRANCH  10  12
ATOM     12  C   UNL     1      89.151  99.008  66.362  1.00  0.00     0.080 C 
BRANCH  12  13
ATOM     13  C   UNL     1      87.794  99.685  66.566  1.00  0.00     0.043 C 
BRANCH  13  14
ATOM     14  C   UNL     1      87.860 101.189  66.450  1.00  0.00    -0.044 A 
ATOM     15  C   UNL     1      89.086 101.845  66.565  1.00  0.00     0.054 A 
ATOM     16  C   UNL     1      86.694 101.923  66.228  1.00  0.00     0.008 A 
ATOM     17  C   UNL     1      89.146 103.234  66.457  1.00  0.00     0.160 A 
ATOM     18  C   UNL     1      86.754 103.312  66.120  1.00  0.00     0.050 A 
ATOM     19  C   UNL     1      87.980 103.968  66.235  1.00  0.00     0.157 A 
BRANCH  17  20
ATOM     20  O   UNL     1      90.348 103.864  66.571  1.00  0.00    -0.493 OA
ATOM     21  C   UNL     1      91.091 104.065  65.370  1.00  0.00     0.278 C 
ENDBRANCH  17  20
BRANCH  19  22
ATOM     22  O   UNL     1      88.026 105.325  66.128  1.00  0.00    -0.504 OA
ATOM     23  H   UNL     1      88.099 105.711  67.018  1.00  0.00     0.293 HD
ENDBRANCH  19  22
ENDBRANCH  13  14
ENDBRANCH  12  13
ENDBRANCH  10  12
ENDBRANCH   1  10
TORSDOF 12
ENDMDL
MODEL 6
REMARK VINA RESULT:    -5.417     13.180     15.148
REMARK INTER + INTRA:         -10.289
REMARK INTER:                  -9.402
REMARK INTRA:                  -0.887
REMARK UNBOUND:                -1.388
REMARK SMILES CCCCC[C@H](O)CC(=O)CCc1ccc(O)c(OC)c1
REMARK SMILES IDX 8 1 6 2 7 3 5 5 4 6 3 7 2 8 1 9 9 10 10 11 11 12 12 13 13 14
REMARK SMILES IDX 21 15 14 16 18 17 15 18 16 19 19 20 20 21 17 22
REMARK H PARENT 7 4 17 23
REMARK Flexibility Score: inf
ROOT
ATOM      1  C   UNL     1      96.076  81.246  82.707  1.00  0.00     0.107 C 
ENDROOT
BRANCH   1   2
ATOM      2  C   UNL     1      96.433  81.812  84.084  1.00  0.00     0.121 C 
BRANCH   2   3
ATOM      3  O   UNL     1      97.411  82.839  83.946  1.00  0.00    -0.393 OA
ATOM      4  H   UNL     1      96.944  83.673  83.761  1.00  0.00     0.210 HD
ENDBRANCH   2   3
BRANCH   2   5
ATOM      5  C   UNL     1      95.218  82.369  84.837  1.00  0.00     0.032 C 
BRANCH   5   6
ATOM      6  C   UNL     1      93.929  81.613  84.492  1.00  0.00     0.003 C 
BRANCH   6   7
ATOM      7  C   UNL     1      93.049  81.326  85.713  1.00  0.00    -0.000 C 
BRANCH   7   8
ATOM      8  C   UNL     1      92.580  79.875  85.802  1.00  0.00    -0.003 C 
ATOM      9  C   UNL     1      93.524  78.941  85.060  1.00  0.00     0.004 C 
ENDBRANCH   7   8
ENDBRANCH   6   7
ENDBRANCH   5   6
ENDBRANCH   2   5
ENDBRANCH   1   2
BRANCH   1  10
ATOM     10  C   UNL     1      97.251  81.242  81.743  1.00  0.00     0.135 C 
ATOM     11  O   UNL     1      98.286  80.632  82.009  1.00  0.00    -0.300 OA
BRANCH  10  12
ATOM     12  C   UNL     1      97.058  81.987  80.431  1.00  0.00     0.080 C 
BRANCH  12  13
ATOM     13  C   UNL     1      97.876  81.414  79.272  1.00  0.00     0.043 C 
BRANCH  13  14
ATOM     14  C   UNL     1      97.425  81.918  77.922  1.00  0.00    -0.044 A 
ATOM     15  C   UNL     1      98.243  81.749  76.805  1.00  0.00     0.054 A 
ATOM     16  C   UNL     1      96.189  82.552  77.793  1.00  0.00     0.008 A 
ATOM     17  C   UNL     1      97.824  82.214  75.558  1.00  0.00     0.160 A 
ATOM     18  C   UNL     1      95.770  83.017  76.546  1.00  0.00     0.050 A 
ATOM     19  C   UNL     1      96.588  82.849  75.429  1.00  0.00     0.157 A 
BRANCH  17  20
ATOM     20  O   UNL     1      98.631  82.044  74.474  1.00  0.00    -0.493 OA
ATOM     21  C   UNL     1      99.755  82.916  74.360  1.00  0.00     0.278 C 
ENDBRANCH  17  20
BRANCH  19  22
ATOM     22  O   UNL     1      96.168  83.307  74.217  1.00  0.00    -0.504 OA
ATOM     23  H   UNL     1      95.656  84.123  74.347  1.00  0.00     0.293 HD
ENDBRANCH  19  22
ENDBRANCH  13  14
ENDBRANCH  12  13
ENDBRANCH  10  12
ENDBRANCH   1  10
TORSDOF 12
ENDMDL
MODEL 7
REMARK VINA RESULT:    -5.405      1.874      4.203
REMARK INTER + INTRA:         -10.268
REMARK INTER:                  -8.982
REMARK INTRA:                  -1.286
REMARK UNBOUND:                -1.388
REMARK SMILES CCCCC[C@H](O)CC(=O)CCc1ccc(O)c(OC)c1
REMARK SMILES IDX 8 1 6 2 7 3 5 5 4 6 3 7 2 8 1 9 9 10 10 11 11 12 12 13 13 14
REMARK SMILES IDX 21 15 14 16 18 17 15 18 16 19 19 20 20 21 17 22
REMARK H PARENT 7 4 17 23
REMARK Flexibility Score: inf
ROOT
ATOM      1  C   UNL     1      95.994  94.025  80.730  1.00  0.00     0.107 C 
ENDROOT
BRANCH   1   2
ATOM      2  C   UNL     1      95.536  92.746  80.024  1.00  0.00     0.121 C 
BRANCH   2   3
ATOM      3  O   UNL     1      94.468  92.147  80.754  1.00  0.00    -0.393 OA
ATOM      4  H   UNL     1      93.668  92.679  80.602  1.00  0.00     0.210 HD
ENDBRANCH   2   3
BRANCH   2   5
ATOM      5  C   UNL     1      95.086  92.987  78.578  1.00  0.00     0.032 C 
BRANCH   5   6
ATOM      6  C   UNL     1      93.655  93.532  78.503  1.00  0.00     0.003 C 
BRANCH   6   7
ATOM      7  C   UNL     1      93.308  94.140  77.140  1.00  0.00    -0.000 C 
BRANCH   7   8
ATOM      8  C   UNL     1      92.591  95.486  77.234  1.00  0.00    -0.003 C 
ATOM      9  C   UNL     1      91.111  95.349  76.913  1.00  0.00     0.004 C 
ENDBRANCH   7   8
ENDBRANCH   6   7
ENDBRANCH   5   6
ENDBRANCH   2   5
ENDBRANCH   1   2
BRANCH   1  10
ATOM     10  C   UNL     1      97.496  94.244  80.649  1.00  0.00     0.135 C 
ATOM     11  O   UNL     1      98.259  93.699  81.446  1.00  0.00    -0.300 OA
BRANCH  10  12
ATOM     12  C   UNL     1      97.997  95.125  79.514  1.00  0.00     0.080 C 
BRANCH  12  13
ATOM     13  C   UNL     1      96.929  96.063  78.947  1.00  0.00     0.043 C 
BRANCH  13  14
ATOM     14  C   UNL     1      97.211  96.491  77.527  1.00  0.00    -0.044 A 
ATOM     15  C   UNL     1      96.172  96.556  76.598  1.00  0.00     0.054 A 
ATOM     16  C   UNL     1      98.511  96.822  77.144  1.00  0.00     0.008 A 
ATOM     17  C   UNL     1      96.434  96.952  75.287  1.00  0.00     0.160 A 
ATOM     18  C   UNL     1      98.773  97.218  75.832  1.00  0.00     0.050 A 
ATOM     19  C   UNL     1      97.734  97.283  74.903  1.00  0.00     0.157 A 
BRANCH  17  20
ATOM     20  O   UNL     1      95.411  97.011  74.388  1.00  0.00    -0.493 OA
ATOM     21  C   UNL     1      95.115  95.818  73.664  1.00  0.00     0.278 C 
ENDBRANCH  17  20
BRANCH  19  22
ATOM     22  O   UNL     1      98.002  97.671  73.626  1.00  0.00    -0.504 OA
ATOM     23  H   UNL     1      97.513  97.097  73.011  1.00  0.00     0.293 HD
ENDBRANCH  19  22
ENDBRANCH  13  14
ENDBRANCH  12  13
ENDBRANCH  10  12
ENDBRANCH   1  10
TORSDOF 12
ENDMDL
MODEL 8
REMARK VINA RESULT:    -5.374      3.022      6.421
REMARK INTER + INTRA:         -10.218
REMARK INTER:                  -9.009
REMARK INTRA:                  -1.209
REMARK UNBOUND:                -1.388
REMARK SMILES CCCCC[C@H](O)CC(=O)CCc1ccc(O)c(OC)c1
REMARK SMILES IDX 8 1 6 2 7 3 5 5 4 6 3 7 2 8 1 9 9 10 10 11 11 12 12 13 13 14
REMARK SMILES IDX 21 15 14 16 18 17 15 18 16 19 19 20 20 21 17 22
REMARK H PARENT 7 4 17 23
REMARK Flexibility Score: inf
ROOT
ATOM      1  C   UNL     1      93.575  93.896  78.695  1.00  0.00     0.107 C 
ENDROOT
BRANCH   1   2
ATOM      2  C   UNL     1      92.843  93.146  77.579  1.00  0.00     0.121 C 
BRANCH   2   3
ATOM      3  O   UNL     1      91.546  92.759  78.027  1.00  0.00    -0.393 OA
ATOM      4  H   UNL     1      90.899  93.367  77.627  1.00  0.00     0.210 HD
ENDBRANCH   2   3
BRANCH   2   5
ATOM      5  C   UNL     1      92.707  93.969  76.292  1.00  0.00     0.032 C 
BRANCH   5   6
ATOM      6  C   UNL     1      94.034  94.067  75.529  1.00  0.00     0.003 C 
BRANCH   6   7
ATOM      7  C   UNL     1      94.548  95.504  75.389  1.00  0.00    -0.000 C 
BRANCH   7   8
ATOM      8  C   UNL     1      93.513  96.472  74.821  1.00  0.00    -0.003 C 
ATOM      9  C   UNL     1      94.175  97.709  74.232  1.00  0.00     0.004 C 
ENDBRANCH   7   8
ENDBRANCH   6   7
ENDBRANCH   5   6
ENDBRANCH   2   5
ENDBRANCH   1   2
BRANCH   1  10
ATOM     10  C   UNL     1      94.660  93.063  79.359  1.00  0.00     0.135 C 
ATOM     11  O   UNL     1      94.460  92.510  80.440  1.00  0.00    -0.300 OA
BRANCH  10  12
ATOM     12  C   UNL     1      95.970  92.919  78.600  1.00  0.00     0.080 C 
BRANCH  12  13
ATOM     13  C   UNL     1      96.698  94.245  78.373  1.00  0.00     0.043 C 
BRANCH  13  14
ATOM     14  C   UNL     1      97.227  94.856  79.649  1.00  0.00    -0.044 A 
ATOM     15  C   UNL     1      97.040  96.215  79.901  1.00  0.00     0.054 A 
ATOM     16  C   UNL     1      97.902  94.061  80.575  1.00  0.00     0.008 A 
ATOM     17  C   UNL     1      97.528  96.778  81.081  1.00  0.00     0.160 A 
ATOM     18  C   UNL     1      98.390  94.624  81.754  1.00  0.00     0.050 A 
ATOM     19  C   UNL     1      98.203  95.983  82.007  1.00  0.00     0.157 A 
BRANCH  17  20
ATOM     20  O   UNL     1      97.339  98.107  81.316  1.00  0.00    -0.493 OA
ATOM     21  C   UNL     1      96.190  98.474  82.077  1.00  0.00     0.278 C 
ENDBRANCH  17  20
BRANCH  19  22
ATOM     22  O   UNL     1      98.684  96.521  83.161  1.00  0.00    -0.504 OA
ATOM     23  H   UNL     1      99.643  96.657  83.072  1.00  0.00     0.293 HD
ENDBRANCH  19  22
ENDBRANCH  13  14
ENDBRANCH  12  13
ENDBRANCH  10  12
ENDBRANCH   1  10
TORSDOF 12
ENDMDL
MODEL 9
REMARK VINA RESULT:    -5.340      4.112      7.872
REMARK INTER + INTRA:         -10.162
REMARK INTER:                  -9.314
REMARK INTRA:                  -0.848
REMARK UNBOUND:                -1.388
REMARK SMILES CCCCC[C@H](O)CC(=O)CCc1ccc(O)c(OC)c1
REMARK SMILES IDX 8 1 6 2 7 3 5 5 4 6 3 7 2 8 1 9 9 10 10 11 11 12 12 13 13 14
REMARK SMILES IDX 21 15 14 16 18 17 15 18 16 19 19 20 20 21 17 22
REMARK H PARENT 7 4 17 23
REMARK Flexibility Score: inf
ROOT
ATOM      1  C   UNL     1      94.263  94.412  78.249  1.00  0.00     0.107 C 
ENDROOT
BRANCH   1   2
ATOM      2  C   UNL     1      93.203  93.310  78.181  1.00  0.00     0.121 C 
BRANCH   2   3
ATOM      3  O   UNL     1      93.223  92.545  79.384  1.00  0.00    -0.393 OA
ATOM      4  H   UNL     1      92.412  92.007  79.407  1.00  0.00     0.210 HD
ENDBRANCH   2   3
BRANCH   2   5
ATOM      5  C   UNL     1      91.788  93.852  77.950  1.00  0.00     0.032 C 
BRANCH   5   6
ATOM      6  C   UNL     1      91.353  93.723  76.485  1.00  0.00     0.003 C 
BRANCH   6   7
ATOM      7  C   UNL     1      91.961  92.508  75.777  1.00  0.00    -0.000 C 
BRANCH   7   8
ATOM      8  C   UNL     1      90.923  91.493  75.301  1.00  0.00    -0.003 C 
ATOM      9  C   UNL     1      89.828  91.292  76.338  1.00  0.00     0.004 C 
ENDBRANCH   7   8
ENDBRANCH   6   7
ENDBRANCH   5   6
ENDBRANCH   2   5
ENDBRANCH   1   2
BRANCH   1  10
ATOM     10  C   UNL     1      95.685  93.874  78.238  1.00  0.00     0.135 C 
ATOM     11  O   UNL     1      95.904  92.669  78.113  1.00  0.00    -0.300 OA
BRANCH  10  12
ATOM     12  C   UNL     1      96.803  94.899  78.341  1.00  0.00     0.080 C 
BRANCH  12  13
ATOM     13  C   UNL     1      96.643  95.867  79.515  1.00  0.00     0.043 C 
BRANCH  13  14
ATOM     14  C   UNL     1      97.496  95.501  80.706  1.00  0.00    -0.044 A 
ATOM     15  C   UNL     1      97.724  96.436  81.715  1.00  0.00     0.054 A 
ATOM     16  C   UNL     1      98.056  94.226  80.796  1.00  0.00     0.008 A 
ATOM     17  C   UNL     1      98.512  96.095  82.815  1.00  0.00     0.160 A 
ATOM     18  C   UNL     1      98.843  93.885  81.896  1.00  0.00     0.050 A 
ATOM     19  C   UNL     1      99.072  94.820  82.905  1.00  0.00     0.157 A 
BRANCH  17  20
ATOM     20  O   UNL     1      98.728  97.017  83.795  1.00  0.00    -0.493 OA
ATOM     21  C   UNL     1      97.743  97.116  84.821  1.00  0.00     0.278 C 
ENDBRANCH  17  20
BRANCH  19  22
ATOM     22  O   UNL     1      99.842  94.477  83.974  1.00  0.00    -0.504 OA
ATOM     23  H   UNL     1     100.383  93.703  83.739  1.00  0.00     0.293 HD
ENDBRANCH  19  22
ENDBRANCH  13  14
ENDBRANCH  12  13
ENDBRANCH  10  12
ENDBRANCH   1  10
TORSDOF 12
ENDMDL
MODEL 10
REMARK VINA RESULT:    -5.245      9.029     11.725
REMARK INTER + INTRA:         -10.005
REMARK INTER:                  -7.887
REMARK INTRA:                  -2.118
REMARK UNBOUND:                -1.388
REMARK SMILES CCCCC[C@H](O)CC(=O)CCc1ccc(O)c(OC)c1
REMARK SMILES IDX 8 1 6 2 7 3 5 5 4 6 3 7 2 8 1 9 9 10 10 11 11 12 12 13 13 14
REMARK SMILES IDX 21 15 14 16 18 17 15 18 16 19 19 20 20 21 17 22
REMARK H PARENT 7 4 17 23
REMARK Flexibility Score: inf
ROOT
ATOM      1  C   UNL     1      89.190  98.743  69.289  1.00  0.00     0.107 C 
ENDROOT
BRANCH   1   2
ATOM      2  C   UNL     1      90.267  99.071  70.326  1.00  0.00     0.121 C 
BRANCH   2   3
ATOM      3  O   UNL     1      91.559  98.948  69.736  1.00  0.00    -0.393 OA
ATOM      4  H   UNL     1      91.442  98.611  68.831  1.00  0.00     0.210 HD
ENDBRANCH   2   3
BRANCH   2   5
ATOM      5  C   UNL     1      90.116 100.476  70.923  1.00  0.00     0.032 C 
BRANCH   5   6
ATOM      6  C   UNL     1      89.967 101.550  69.839  1.00  0.00     0.003 C 
BRANCH   6   7
ATOM      7  C   UNL     1      91.202 102.445  69.698  1.00  0.00    -0.000 C 
BRANCH   7   8
ATOM      8  C   UNL     1      90.868 103.917  69.460  1.00  0.00    -0.003 C 
ATOM      9  C   UNL     1      89.440 104.235  69.877  1.00  0.00     0.004 C 
ENDBRANCH   7   8
ENDBRANCH   6   7
ENDBRANCH   5   6
ENDBRANCH   2   5
ENDBRANCH   1   2
BRANCH   1  10
ATOM     10  C   UNL     1      89.736  98.007  68.076  1.00  0.00     0.135 C 
ATOM     11  O   UNL     1      90.330  96.936  68.200  1.00  0.00    -0.300 OA
BRANCH  10  12
ATOM     12  C   UNL     1      89.469  98.638  66.718  1.00  0.00     0.080 C 
BRANCH  12  13
ATOM     13  C   UNL     1      88.160  99.427  66.654  1.00  0.00     0.043 C 
BRANCH  13  14
ATOM     14  C   UNL     1      88.373 100.916  66.516  1.00  0.00    -0.044 A 
ATOM     15  C   UNL     1      89.657 101.421  66.306  1.00  0.00     0.054 A 
ATOM     16  C   UNL     1      87.286 101.786  66.598  1.00  0.00     0.008 A 
ATOM     17  C   UNL     1      89.852 102.796  66.178  1.00  0.00     0.160 A 
ATOM     18  C   UNL     1      87.481 103.162  66.469  1.00  0.00     0.050 A 
ATOM     19  C   UNL     1      88.765 103.666  66.260  1.00  0.00     0.157 A 
BRANCH  17  20
ATOM     20  O   UNL     1      91.110 103.278  65.974  1.00  0.00    -0.493 OA
ATOM     21  C   UNL     1      92.188 102.352  66.104  1.00  0.00     0.278 C 
ENDBRANCH  17  20
BRANCH  19  22
ATOM     22  O   UNL     1      88.943 105.011  66.136  1.00  0.00    -0.504 OA
ATOM     23  H   UNL     1      88.895 105.419  67.017  1.00  0.00     0.293 HD
ENDBRANCH  19  22
ENDBRANCH  13  14
ENDBRANCH  12  13
ENDBRANCH  10  12
ENDBRANCH   1  10
TORSDOF 12
ENDMDL
