MODEL 1
REMARK VINA RESULT:    -6.166      0.000      0.000
REMARK INTER + INTRA:         -11.036
REMARK INTER:                 -10.312
REMARK INTRA:                  -0.724
REMARK UNBOUND:                -0.724
REMARK SMILES COc1cc(CNC(=O)CCCCCCCC(C)C)ccc1O
REMARK SMILES IDX 11 1 10 2 8 3 9 4 7 5 6 7 5 8 4 9 20 10 3 11 21 12 22 13
REMARK SMILES IDX 2 14 1 15 23 16 12 18 13 19 14 20 15 21 16 22 17 23 18 24
REMARK SMILES IDX 19 25
REMARK H PARENT 7 6 23 17
REMARK Flexibility Score: inf
ROOT
ATOM      1  C   UNL     1      74.069  89.555  70.443  1.00  0.00     0.010 C 
ENDROOT
BRANCH   1   2
ATOM      2  C   UNL     1      74.358  91.054  70.472  1.00  0.00     0.100 C 
BRANCH   2   3
ATOM      3  C   UNL     1      73.768  91.734  71.696  1.00  0.00     0.220 C 
ATOM      4  O   UNL     1      72.650  91.479  72.135  1.00  0.00    -0.275 OA
ATOM      5  N   UNL     1      74.643  92.667  72.232  1.00  0.00    -0.352 N 
ATOM      6  H   UNL     1      75.547  92.818  71.792  1.00  0.00     0.163 HD
BRANCH   5   7
ATOM      7  C   UNL     1      74.325  93.461  73.397  1.00  0.00     0.151 C 
BRANCH   7   8
ATOM      8  C   UNL     1      75.550  93.808  74.191  1.00  0.00    -0.025 A 
ATOM      9  C   UNL     1      75.444  94.021  75.560  1.00  0.00     0.056 A 
ATOM     10  C   UNL     1      76.778  93.913  73.549  1.00  0.00     0.009 A 
ATOM     11  C   UNL     1      76.583  94.344  76.298  1.00  0.00     0.160 A 
ATOM     12  C   UNL     1      77.917  94.237  74.288  1.00  0.00     0.050 A 
ATOM     13  C   UNL     1      77.820  94.453  75.662  1.00  0.00     0.157 A 
BRANCH  11  14
ATOM     14  O   UNL     1      76.475  94.553  77.641  1.00  0.00    -0.493 OA
ATOM     15  C   UNL     1      75.438  93.851  78.324  1.00  0.00     0.278 C 
ENDBRANCH  11  14
BRANCH  13  16
ATOM     16  O   UNL     1      78.939  94.767  76.372  1.00  0.00    -0.504 OA
ATOM     17  H   UNL     1      79.136  95.711  76.250  1.00  0.00     0.293 HD
ENDBRANCH  13  16
ENDBRANCH   7   8
ENDBRANCH   5   7
ENDBRANCH   2   3
ENDBRANCH   1   2
BRANCH   1  18
ATOM     18  C   UNL     1      74.689  88.836  69.241  1.00  0.00     0.001 C 
BRANCH  18  19
ATOM     19  C   UNL     1      75.980  89.452  68.693  1.00  0.00     0.000 C 
BRANCH  19  20
ATOM     20  C   UNL     1      77.062  88.413  68.385  1.00  0.00     0.000 C 
BRANCH  20  21
ATOM     21  C   UNL     1      76.764  87.029  68.971  1.00  0.00     0.000 C 
BRANCH  21  22
ATOM     22  C   UNL     1      77.496  85.894  68.249  1.00  0.00     0.003 C 
BRANCH  22  23
ATOM     23  C   UNL     1      76.836  84.515  68.446  1.00  0.00    -0.017 C 
ATOM     24  C   UNL     1      75.729  84.317  67.407  1.00  0.00     0.007 C 
ATOM     25  C   UNL     1      76.260  84.336  69.851  1.00  0.00     0.007 C 
ENDBRANCH  22  23
ENDBRANCH  21  22
ENDBRANCH  20  21
ENDBRANCH  19  20
ENDBRANCH  18  19
ENDBRANCH   1  18
TORSDOF 12
ENDMDL
MODEL 2
REMARK VINA RESULT:    -6.096      1.203      2.264
REMARK INTER + INTRA:         -10.918
REMARK INTER:                 -10.135
REMARK INTRA:                  -0.783
REMARK UNBOUND:                -0.724
REMARK SMILES COc1cc(CNC(=O)CCCCCCCC(C)C)ccc1O
REMARK SMILES IDX 11 1 10 2 8 3 9 4 7 5 6 7 5 8 4 9 20 10 3 11 21 12 22 13
REMARK SMILES IDX 2 14 1 15 23 16 12 18 13 19 14 20 15 21 16 22 17 23 18 24
REMARK SMILES IDX 19 25
REMARK H PARENT 7 6 23 17
REMARK Flexibility Score: inf
ROOT
ATOM      1  C   UNL     1      73.439  89.944  70.152  1.00  0.00     0.010 C 
ENDROOT
BRANCH   1   2
ATOM      2  C   UNL     1      73.085  90.386  71.570  1.00  0.00     0.100 C 
BRANCH   2   3
ATOM      3  C   UNL     1      73.092  91.898  71.724  1.00  0.00     0.220 C 
ATOM      4  O   UNL     1      72.424  92.649  71.019  1.00  0.00    -0.275 OA
ATOM      5  N   UNL     1      73.943  92.304  72.741  1.00  0.00    -0.352 N 
ATOM      6  H   UNL     1      74.466  91.607  73.265  1.00  0.00     0.163 HD
BRANCH   5   7
ATOM      7  C   UNL     1      74.141  93.692  73.090  1.00  0.00     0.151 C 
BRANCH   7   8
ATOM      8  C   UNL     1      75.385  93.894  73.904  1.00  0.00    -0.025 A 
ATOM      9  C   UNL     1      76.543  94.353  73.288  1.00  0.00     0.056 A 
ATOM     10  C   UNL     1      75.367  93.619  75.266  1.00  0.00     0.009 A 
ATOM     11  C   UNL     1      77.700  94.541  74.045  1.00  0.00     0.160 A 
ATOM     12  C   UNL     1      76.524  93.806  76.023  1.00  0.00     0.050 A 
ATOM     13  C   UNL     1      77.691  94.267  75.413  1.00  0.00     0.157 A 
BRANCH  11  14
ATOM     14  O   UNL     1      78.833  94.991  73.437  1.00  0.00    -0.493 OA
ATOM     15  C   UNL     1      78.785  96.296  72.863  1.00  0.00     0.278 C 
ENDBRANCH  11  14
BRANCH  13  16
ATOM     16  O   UNL     1      78.813  94.447  76.162  1.00  0.00    -0.504 OA
ATOM     17  H   UNL     1      78.687  95.218  76.742  1.00  0.00     0.293 HD
ENDBRANCH  13  16
ENDBRANCH   7   8
ENDBRANCH   5   7
ENDBRANCH   2   3
ENDBRANCH   1   2
BRANCH   1  18
ATOM     18  C   UNL     1      74.931  90.061  69.830  1.00  0.00     0.001 C 
BRANCH  18  19
ATOM     19  C   UNL     1      75.507  88.959  68.935  1.00  0.00     0.000 C 
BRANCH  19  20
ATOM     20  C   UNL     1      76.892  89.295  68.376  1.00  0.00     0.000 C 
BRANCH  20  21
ATOM     21  C   UNL     1      77.470  88.197  67.476  1.00  0.00     0.000 C 
BRANCH  21  22
ATOM     22  C   UNL     1      76.669  86.892  67.522  1.00  0.00     0.003 C 
BRANCH  22  23
ATOM     23  C   UNL     1      77.402  85.748  68.250  1.00  0.00    -0.017 C 
ATOM     24  C   UNL     1      77.520  84.536  67.323  1.00  0.00     0.007 C 
ATOM     25  C   UNL     1      76.704  85.336  69.547  1.00  0.00     0.007 C 
ENDBRANCH  22  23
ENDBRANCH  21  22
ENDBRANCH  20  21
ENDBRANCH  19  20
ENDBRANCH  18  19
ENDBRANCH   1  18
TORSDOF 12
ENDMDL
MODEL 3
REMARK VINA RESULT:    -5.887      5.213      8.783
REMARK INTER + INTRA:         -10.569
REMARK INTER:                  -9.233
REMARK INTRA:                  -1.336
REMARK UNBOUND:                -0.724
REMARK SMILES COc1cc(CNC(=O)CCCCCCCC(C)C)ccc1O
REMARK SMILES IDX 11 1 10 2 8 3 9 4 7 5 6 7 5 8 4 9 20 10 3 11 21 12 22 13
REMARK SMILES IDX 2 14 1 15 23 16 12 18 13 19 14 20 15 21 16 22 17 23 18 24
REMARK SMILES IDX 19 25
REMARK H PARENT 7 6 23 17
REMARK Flexibility Score: inf
ROOT
ATOM      1  C   UNL     1      74.947  90.339  69.871  1.00  0.00     0.010 C 
ENDROOT
BRANCH   1   2
ATOM      2  C   UNL     1      73.703  90.135  70.735  1.00  0.00     0.100 C 
BRANCH   2   3
ATOM      3  C   UNL     1      72.440  89.987  69.903  1.00  0.00     0.220 C 
ATOM      4  O   UNL     1      72.162  90.725  68.962  1.00  0.00    -0.275 OA
ATOM      5  N   UNL     1      71.657  88.933  70.350  1.00  0.00    -0.352 N 
ATOM      6  H   UNL     1      71.964  88.382  71.147  1.00  0.00     0.163 HD
BRANCH   5   7
ATOM      7  C   UNL     1      70.396  88.580  69.739  1.00  0.00     0.151 C 
BRANCH   7   8
ATOM      8  C   UNL     1      70.274  87.100  69.516  1.00  0.00    -0.025 A 
ATOM      9  C   UNL     1      71.008  86.495  68.503  1.00  0.00     0.056 A 
ATOM     10  C   UNL     1      69.429  86.351  70.326  1.00  0.00     0.009 A 
ATOM     11  C   UNL     1      70.895  85.120  68.297  1.00  0.00     0.160 A 
ATOM     12  C   UNL     1      69.316  84.976  70.119  1.00  0.00     0.050 A 
ATOM     13  C   UNL     1      70.048  84.360  69.104  1.00  0.00     0.157 A 
BRANCH  11  14
ATOM     14  O   UNL     1      71.615  84.530  67.302  1.00  0.00    -0.493 OA
ATOM     15  C   UNL     1      71.145  84.712  65.967  1.00  0.00     0.278 C 
ENDBRANCH  11  14
BRANCH  13  16
ATOM     16  O   UNL     1      69.929  83.017  68.913  1.00  0.00    -0.504 OA
ATOM     17  H   UNL     1      69.298  82.660  69.560  1.00  0.00     0.293 HD
ENDBRANCH  13  16
ENDBRANCH   7   8
ENDBRANCH   5   7
ENDBRANCH   2   3
ENDBRANCH   1   2
BRANCH   1  18
ATOM     18  C   UNL     1      75.379  89.078  69.117  1.00  0.00     0.001 C 
BRANCH  18  19
ATOM     19  C   UNL     1      76.434  89.287  68.025  1.00  0.00     0.000 C 
BRANCH  19  20
ATOM     20  C   UNL     1      77.335  88.067  67.814  1.00  0.00     0.000 C 
BRANCH  20  21
ATOM     21  C   UNL     1      77.116  86.960  68.850  1.00  0.00     0.000 C 
BRANCH  21  22
ATOM     22  C   UNL     1      77.168  85.550  68.252  1.00  0.00     0.003 C 
BRANCH  22  23
ATOM     23  C   UNL     1      75.945  84.684  68.613  1.00  0.00    -0.017 C 
ATOM     24  C   UNL     1      74.660  85.486  68.393  1.00  0.00     0.007 C 
ATOM     25  C   UNL     1      75.993  84.174  70.053  1.00  0.00     0.007 C 
ENDBRANCH  22  23
ENDBRANCH  21  22
ENDBRANCH  20  21
ENDBRANCH  19  20
ENDBRANCH  18  19
ENDBRANCH   1  18
TORSDOF 12
ENDMDL
MODEL 4
REMARK VINA RESULT:    -5.866     24.193     25.285
REMARK INTER + INTRA:         -10.533
REMARK INTER:                  -9.854
REMARK INTRA:                  -0.679
REMARK UNBOUND:                -0.724
REMARK SMILES COc1cc(CNC(=O)CCCCCCCC(C)C)ccc1O
REMARK SMILES IDX 11 1 10 2 8 3 9 4 7 5 6 7 5 8 4 9 20 10 3 11 21 12 22 13
REMARK SMILES IDX 2 14 1 15 23 16 12 18 13 19 14 20 15 21 16 22 17 23 18 24
REMARK SMILES IDX 19 25
REMARK H PARENT 7 6 23 17
REMARK Flexibility Score: inf
ROOT
ATOM      1  C   UNL     1      81.035  65.295  71.394  1.00  0.00     0.010 C 
ENDROOT
BRANCH   1   2
ATOM      2  C   UNL     1      82.109  66.368  71.562  1.00  0.00     0.100 C 
BRANCH   2   3
ATOM      3  C   UNL     1      82.264  66.810  73.008  1.00  0.00     0.220 C 
ATOM      4  O   UNL     1      81.312  67.052  73.744  1.00  0.00    -0.275 OA
ATOM      5  N   UNL     1      83.600  66.907  73.371  1.00  0.00    -0.352 N 
ATOM      6  H   UNL     1      84.322  66.696  72.687  1.00  0.00     0.163 HD
BRANCH   5   7
ATOM      7  C   UNL     1      84.025  67.316  74.689  1.00  0.00     0.151 C 
BRANCH   7   8
ATOM      8  C   UNL     1      85.168  68.287  74.634  1.00  0.00    -0.025 A 
ATOM      9  C   UNL     1      85.497  68.895  73.429  1.00  0.00     0.056 A 
ATOM     10  C   UNL     1      85.887  68.568  75.790  1.00  0.00     0.009 A 
ATOM     11  C   UNL     1      86.559  69.797  73.378  1.00  0.00     0.160 A 
ATOM     12  C   UNL     1      86.951  69.470  75.739  1.00  0.00     0.050 A 
ATOM     13  C   UNL     1      87.287  70.085  74.533  1.00  0.00     0.157 A 
BRANCH  11  14
ATOM     14  O   UNL     1      86.878  70.391  72.194  1.00  0.00    -0.493 OA
ATOM     15  C   UNL     1      87.621  69.611  71.257  1.00  0.00     0.278 C 
ENDBRANCH  11  14
BRANCH  13  16
ATOM     16  O   UNL     1      88.326  70.964  74.496  1.00  0.00    -0.504 OA
ATOM     17  H   UNL     1      89.136  70.487  74.248  1.00  0.00     0.293 HD
ENDBRANCH  13  16
ENDBRANCH   7   8
ENDBRANCH   5   7
ENDBRANCH   2   3
ENDBRANCH   1   2
BRANCH   1  18
ATOM     18  C   UNL     1      80.410  65.271  69.996  1.00  0.00     0.001 C 
BRANCH  18  19
ATOM     19  C   UNL     1      79.081  64.519  69.876  1.00  0.00     0.000 C 
BRANCH  19  20
ATOM     20  C   UNL     1      79.021  63.586  68.663  1.00  0.00     0.000 C 
BRANCH  20  21
ATOM     21  C   UNL     1      77.870  63.906  67.703  1.00  0.00     0.000 C 
BRANCH  21  22
ATOM     22  C   UNL     1      76.861  64.906  68.279  1.00  0.00     0.003 C 
BRANCH  22  23
ATOM     23  C   UNL     1      75.430  64.714  67.739  1.00  0.00    -0.017 C 
ATOM     24  C   UNL     1      74.419  65.262  68.748  1.00  0.00     0.007 C 
ATOM     25  C   UNL     1      75.110  63.250  67.434  1.00  0.00     0.007 C 
ENDBRANCH  22  23
ENDBRANCH  21  22
ENDBRANCH  20  21
ENDBRANCH  19  20
ENDBRANCH  18  19
ENDBRANCH   1  18
TORSDOF 12
ENDMDL
MODEL 5
REMARK VINA RESULT:    -5.836     23.951     25.874
REMARK INTER + INTRA:         -10.484
REMARK INTER:                  -9.667
REMARK INTRA:                  -0.817
REMARK UNBOUND:                -0.724
REMARK SMILES COc1cc(CNC(=O)CCCCCCCC(C)C)ccc1O
REMARK SMILES IDX 11 1 10 2 8 3 9 4 7 5 6 7 5 8 4 9 20 10 3 11 21 12 22 13
REMARK SMILES IDX 2 14 1 15 23 16 12 18 13 19 14 20 15 21 16 22 17 23 18 24
REMARK SMILES IDX 19 25
REMARK H PARENT 7 6 23 17
REMARK Flexibility Score: inf
ROOT
ATOM      1  C   UNL     1      79.391  65.941  70.489  1.00  0.00     0.010 C 
ENDROOT
BRANCH   1   2
ATOM      2  C   UNL     1      80.893  65.755  70.687  1.00  0.00     0.100 C 
BRANCH   2   3
ATOM      3  C   UNL     1      81.278  65.684  72.156  1.00  0.00     0.220 C 
ATOM      4  O   UNL     1      80.548  66.073  73.063  1.00  0.00    -0.275 OA
ATOM      5  N   UNL     1      82.543  65.141  72.325  1.00  0.00    -0.352 N 
ATOM      6  H   UNL     1      83.081  64.857  71.511  1.00  0.00     0.163 HD
BRANCH   5   7
ATOM      7  C   UNL     1      83.154  64.969  73.623  1.00  0.00     0.151 C 
BRANCH   7   8
ATOM      8  C   UNL     1      83.931  66.183  74.044  1.00  0.00    -0.025 A 
ATOM      9  C   UNL     1      84.712  66.856  73.112  1.00  0.00     0.056 A 
ATOM     10  C   UNL     1      83.860  66.621  75.360  1.00  0.00     0.009 A 
ATOM     11  C   UNL     1      85.434  67.984  73.503  1.00  0.00     0.160 A 
ATOM     12  C   UNL     1      84.583  67.749  75.751  1.00  0.00     0.050 A 
ATOM     13  C   UNL     1      85.370  68.430  74.823  1.00  0.00     0.157 A 
BRANCH  11  14
ATOM     14  O   UNL     1      86.199  68.641  72.587  1.00  0.00    -0.493 OA
ATOM     15  C   UNL     1      85.667  69.848  72.045  1.00  0.00     0.278 C 
ENDBRANCH  11  14
BRANCH  13  16
ATOM     16  O   UNL     1      86.069  69.530  75.217  1.00  0.00    -0.504 OA
ATOM     17  H   UNL     1      85.758  69.805  76.096  1.00  0.00     0.293 HD
ENDBRANCH  13  16
ENDBRANCH   7   8
ENDBRANCH   5   7
ENDBRANCH   2   3
ENDBRANCH   1   2
BRANCH   1  18
ATOM     18  C   UNL     1      78.661  64.651  70.105  1.00  0.00     0.001 C 
BRANCH  18  19
ATOM     19  C   UNL     1      79.281  63.855  68.952  1.00  0.00     0.000 C 
BRANCH  19  20
ATOM     20  C   UNL     1      78.475  63.944  67.653  1.00  0.00     0.000 C 
BRANCH  20  21
ATOM     21  C   UNL     1      77.092  63.290  67.747  1.00  0.00     0.000 C 
BRANCH  21  22
ATOM     22  C   UNL     1      76.121  63.768  66.663  1.00  0.00     0.003 C 
BRANCH  22  23
ATOM     23  C   UNL     1      75.496  65.145  66.961  1.00  0.00    -0.017 C 
ATOM     24  C   UNL     1      74.951  65.167  68.391  1.00  0.00     0.007 C 
ATOM     25  C   UNL     1      74.380  65.507  65.980  1.00  0.00     0.007 C 
ENDBRANCH  22  23
ENDBRANCH  21  22
ENDBRANCH  20  21
ENDBRANCH  19  20
ENDBRANCH  18  19
ENDBRANCH   1  18
TORSDOF 12
ENDMDL
MODEL 6
REMARK VINA RESULT:    -5.783     23.032     24.534
REMARK INTER + INTRA:         -10.395
REMARK INTER:                  -9.319
REMARK INTRA:                  -1.075
REMARK UNBOUND:                -0.724
REMARK SMILES COc1cc(CNC(=O)CCCCCCCC(C)C)ccc1O
REMARK SMILES IDX 11 1 10 2 8 3 9 4 7 5 6 7 5 8 4 9 20 10 3 11 21 12 22 13
REMARK SMILES IDX 2 14 1 15 23 16 12 18 13 19 14 20 15 21 16 22 17 23 18 24
REMARK SMILES IDX 19 25
REMARK H PARENT 7 6 23 17
REMARK Flexibility Score: inf
ROOT
ATOM      1  C   UNL     1      97.414  82.837  77.743  1.00  0.00     0.010 C 
ENDROOT
BRANCH   1   2
ATOM      2  C   UNL     1      96.933  83.571  78.993  1.00  0.00     0.100 C 
BRANCH   2   3
ATOM      3  C   UNL     1      97.086  82.733  80.252  1.00  0.00     0.220 C 
ATOM      4  O   UNL     1      97.436  81.556  80.239  1.00  0.00    -0.275 OA
ATOM      5  N   UNL     1      96.775  83.462  81.390  1.00  0.00    -0.352 N 
ATOM      6  H   UNL     1      96.483  84.431  81.301  1.00  0.00     0.163 HD
BRANCH   5   7
ATOM      7  C   UNL     1      96.831  82.899  82.720  1.00  0.00     0.151 C 
BRANCH   7   8
ATOM      8  C   UNL     1      95.777  83.477  83.618  1.00  0.00    -0.025 A 
ATOM      9  C   UNL     1      94.733  82.673  84.061  1.00  0.00     0.056 A 
ATOM     10  C   UNL     1      95.855  84.812  83.999  1.00  0.00     0.009 A 
ATOM     11  C   UNL     1      93.754  83.211  84.896  1.00  0.00     0.160 A 
ATOM     12  C   UNL     1      94.875  85.350  84.833  1.00  0.00     0.050 A 
ATOM     13  C   UNL     1      93.824  84.550  85.282  1.00  0.00     0.157 A 
BRANCH  11  14
ATOM     14  O   UNL     1      92.732  82.420  85.327  1.00  0.00    -0.493 OA
ATOM     15  C   UNL     1      91.811  81.956  84.341  1.00  0.00     0.278 C 
ENDBRANCH  11  14
BRANCH  13  16
ATOM     16  O   UNL     1      92.874  85.086  86.097  1.00  0.00    -0.504 OA
ATOM     17  H   UNL     1      93.136  85.993  86.334  1.00  0.00     0.293 HD
ENDBRANCH  13  16
ENDBRANCH   7   8
ENDBRANCH   5   7
ENDBRANCH   2   3
ENDBRANCH   1   2
BRANCH   1  18
ATOM     18  C   UNL     1      97.601  83.753  76.531  1.00  0.00     0.001 C 
BRANCH  18  19
ATOM     19  C   UNL     1      98.532  83.223  75.435  1.00  0.00     0.000 C 
BRANCH  19  20
ATOM     20  C   UNL     1      99.830  84.024  75.304  1.00  0.00     0.000 C 
BRANCH  20  21
ATOM     21  C   UNL     1     101.084  83.212  75.645  1.00  0.00     0.000 C 
BRANCH  21  22
ATOM     22  C   UNL     1     100.806  81.717  75.834  1.00  0.00     0.003 C 
BRANCH  22  23
ATOM     23  C   UNL     1     101.519  81.110  77.058  1.00  0.00    -0.017 C 
ATOM     24  C   UNL     1     100.730  81.435  78.329  1.00  0.00     0.007 C 
ATOM     25  C   UNL     1     102.957  81.607  77.205  1.00  0.00     0.007 C 
ENDBRANCH  22  23
ENDBRANCH  21  22
ENDBRANCH  20  21
ENDBRANCH  19  20
ENDBRANCH  18  19
ENDBRANCH   1  18
TORSDOF 12
ENDMDL
MODEL 7
REMARK VINA RESULT:    -5.739     24.037     25.310
REMARK INTER + INTRA:         -10.322
REMARK INTER:                  -9.555
REMARK INTRA:                  -0.766
REMARK UNBOUND:                -0.724
REMARK SMILES COc1cc(CNC(=O)CCCCCCCC(C)C)ccc1O
REMARK SMILES IDX 11 1 10 2 8 3 9 4 7 5 6 7 5 8 4 9 20 10 3 11 21 12 22 13
REMARK SMILES IDX 2 14 1 15 23 16 12 18 13 19 14 20 15 21 16 22 17 23 18 24
REMARK SMILES IDX 19 25
REMARK H PARENT 7 6 23 17
REMARK Flexibility Score: inf
ROOT
ATOM      1  C   UNL     1      81.570  65.301  70.614  1.00  0.00     0.010 C 
ENDROOT
BRANCH   1   2
ATOM      2  C   UNL     1      82.713  66.294  70.818  1.00  0.00     0.100 C 
BRANCH   2   3
ATOM      3  C   UNL     1      83.406  66.111  72.158  1.00  0.00     0.220 C 
ATOM      4  O   UNL     1      83.998  65.084  72.476  1.00  0.00    -0.275 OA
ATOM      5  N   UNL     1      83.272  67.236  72.959  1.00  0.00    -0.352 N 
ATOM      6  H   UNL     1      82.752  68.039  72.614  1.00  0.00     0.163 HD
BRANCH   5   7
ATOM      7  C   UNL     1      83.831  67.322  74.288  1.00  0.00     0.151 C 
BRANCH   7   8
ATOM      8  C   UNL     1      84.989  68.276  74.349  1.00  0.00    -0.025 A 
ATOM      9  C   UNL     1      85.733  68.379  75.518  1.00  0.00     0.056 A 
ATOM     10  C   UNL     1      85.304  69.045  73.236  1.00  0.00     0.009 A 
ATOM     11  C   UNL     1      86.809  69.265  75.575  1.00  0.00     0.160 A 
ATOM     12  C   UNL     1      86.380  69.932  73.294  1.00  0.00     0.050 A 
ATOM     13  C   UNL     1      87.133  70.043  74.463  1.00  0.00     0.157 A 
BRANCH  11  14
ATOM     14  O   UNL     1      87.536  69.364  76.723  1.00  0.00    -0.493 OA
ATOM     15  C   UNL     1      88.322  68.232  77.092  1.00  0.00     0.278 C 
ENDBRANCH  11  14
BRANCH  13  16
ATOM     16  O   UNL     1      88.181  70.911  74.506  1.00  0.00    -0.504 OA
ATOM     17  H   UNL     1      88.162  71.389  75.353  1.00  0.00     0.293 HD
ENDBRANCH  13  16
ENDBRANCH   7   8
ENDBRANCH   5   7
ENDBRANCH   2   3
ENDBRANCH   1   2
BRANCH   1  18
ATOM     18  C   UNL     1      80.200  65.969  70.470  1.00  0.00     0.001 C 
BRANCH  18  19
ATOM     19  C   UNL     1      79.006  65.016  70.349  1.00  0.00     0.000 C 
BRANCH  19  20
ATOM     20  C   UNL     1      79.020  64.190  69.060  1.00  0.00     0.000 C 
BRANCH  20  21
ATOM     21  C   UNL     1      77.628  63.986  68.452  1.00  0.00     0.000 C 
BRANCH  21  22
ATOM     22  C   UNL     1      77.369  64.862  67.222  1.00  0.00     0.003 C 
BRANCH  22  23
ATOM     23  C   UNL     1      76.065  65.677  67.312  1.00  0.00    -0.017 C 
ATOM     24  C   UNL     1      75.548  65.669  68.752  1.00  0.00     0.007 C 
ATOM     25  C   UNL     1      74.979  65.151  66.373  1.00  0.00     0.007 C 
ENDBRANCH  22  23
ENDBRANCH  21  22
ENDBRANCH  20  21
ENDBRANCH  19  20
ENDBRANCH  18  19
ENDBRANCH   1  18
TORSDOF 12
ENDMDL
MODEL 8
REMARK VINA RESULT:    -5.727     22.887     23.992
REMARK INTER + INTRA:         -10.302
REMARK INTER:                  -9.582
REMARK INTRA:                  -0.719
REMARK UNBOUND:                -0.724
REMARK SMILES COc1cc(CNC(=O)CCCCCCCC(C)C)ccc1O
REMARK SMILES IDX 11 1 10 2 8 3 9 4 7 5 6 7 5 8 4 9 20 10 3 11 21 12 22 13
REMARK SMILES IDX 2 14 1 15 23 16 12 18 13 19 14 20 15 21 16 22 17 23 18 24
REMARK SMILES IDX 19 25
REMARK H PARENT 7 6 23 17
REMARK Flexibility Score: inf
ROOT
ATOM      1  C   UNL     1      97.337  82.743  77.720  1.00  0.00     0.010 C 
ENDROOT
BRANCH   1   2
ATOM      2  C   UNL     1      96.855  83.504  78.954  1.00  0.00     0.100 C 
BRANCH   2   3
ATOM      3  C   UNL     1      97.059  82.715  80.237  1.00  0.00     0.220 C 
ATOM      4  O   UNL     1      97.459  81.554  80.258  1.00  0.00    -0.275 OA
ATOM      5  N   UNL     1      96.733  83.468  81.355  1.00  0.00    -0.352 N 
ATOM      6  H   UNL     1      96.399  84.421  81.239  1.00  0.00     0.163 HD
BRANCH   5   7
ATOM      7  C   UNL     1      96.830  82.953  82.701  1.00  0.00     0.151 C 
BRANCH   7   8
ATOM      8  C   UNL     1      95.928  83.688  83.650  1.00  0.00    -0.025 A 
ATOM      9  C   UNL     1      95.049  82.974  84.456  1.00  0.00     0.056 A 
ATOM     10  C   UNL     1      95.980  85.075  83.712  1.00  0.00     0.009 A 
ATOM     11  C   UNL     1      94.211  83.657  85.337  1.00  0.00     0.160 A 
ATOM     12  C   UNL     1      95.141  85.758  84.593  1.00  0.00     0.050 A 
ATOM     13  C   UNL     1      94.256  85.050  85.405  1.00  0.00     0.157 A 
BRANCH  11  14
ATOM     14  O   UNL     1      93.350  82.954  86.125  1.00  0.00    -0.493 OA
ATOM     15  C   UNL     1      93.644  81.573  86.333  1.00  0.00     0.278 C 
ENDBRANCH  11  14
BRANCH  13  16
ATOM     16  O   UNL     1      93.443  85.728  86.262  1.00  0.00    -0.504 OA
ATOM     17  H   UNL     1      93.678  86.672  86.241  1.00  0.00     0.293 HD
ENDBRANCH  13  16
ENDBRANCH   7   8
ENDBRANCH   5   7
ENDBRANCH   2   3
ENDBRANCH   1   2
BRANCH   1  18
ATOM     18  C   UNL     1      97.985  83.642  76.664  1.00  0.00     0.001 C 
BRANCH  18  19
ATOM     19  C   UNL     1      98.366  82.954  75.349  1.00  0.00     0.000 C 
BRANCH  19  20
ATOM     20  C   UNL     1      97.479  83.366  74.171  1.00  0.00     0.000 C 
BRANCH  20  21
ATOM     21  C   UNL     1      98.272  83.838  72.947  1.00  0.00     0.000 C 
BRANCH  21  22
ATOM     22  C   UNL     1      99.774  83.554  73.051  1.00  0.00     0.003 C 
BRANCH  22  23
ATOM     23  C   UNL     1     100.655  84.764  72.683  1.00  0.00    -0.017 C 
ATOM     24  C   UNL     1     100.209  85.991  73.481  1.00  0.00     0.007 C 
ATOM     25  C   UNL     1     100.619  85.083  71.188  1.00  0.00     0.007 C 
ENDBRANCH  22  23
ENDBRANCH  21  22
ENDBRANCH  20  21
ENDBRANCH  19  20
ENDBRANCH  18  19
ENDBRANCH   1  18
TORSDOF 12
ENDMDL
MODEL 9
REMARK VINA RESULT:    -5.669     20.593     23.718
REMARK INTER + INTRA:         -10.205
REMARK INTER:                  -9.532
REMARK INTRA:                  -0.673
REMARK UNBOUND:                -0.724
REMARK SMILES COc1cc(CNC(=O)CCCCCCCC(C)C)ccc1O
REMARK SMILES IDX 11 1 10 2 8 3 9 4 7 5 6 7 5 8 4 9 20 10 3 11 21 12 22 13
REMARK SMILES IDX 2 14 1 15 23 16 12 18 13 19 14 20 15 21 16 22 17 23 18 24
REMARK SMILES IDX 19 25
REMARK H PARENT 7 6 23 17
REMARK Flexibility Score: inf
ROOT
ATOM      1  C   UNL     1      91.870  75.978  83.375  1.00  0.00     0.010 C 
ENDROOT
BRANCH   1   2
ATOM      2  C   UNL     1      92.429  75.696  81.982  1.00  0.00     0.100 C 
BRANCH   2   3
ATOM      3  C   UNL     1      91.351  75.258  81.004  1.00  0.00     0.220 C 
ATOM      4  O   UNL     1      90.385  74.574  81.328  1.00  0.00    -0.275 OA
ATOM      5  N   UNL     1      91.608  75.720  79.722  1.00  0.00    -0.352 N 
ATOM      6  H   UNL     1      92.443  76.273  79.546  1.00  0.00     0.163 HD
BRANCH   5   7
ATOM      7  C   UNL     1      90.743  75.438  78.600  1.00  0.00     0.151 C 
BRANCH   7   8
ATOM      8  C   UNL     1      91.211  76.118  77.346  1.00  0.00    -0.025 A 
ATOM      9  C   UNL     1      91.691  75.355  76.288  1.00  0.00     0.056 A 
ATOM     10  C   UNL     1      91.160  77.504  77.256  1.00  0.00     0.009 A 
ATOM     11  C   UNL     1      92.126  75.987  75.123  1.00  0.00     0.160 A 
ATOM     12  C   UNL     1      91.596  78.136  76.090  1.00  0.00     0.050 A 
ATOM     13  C   UNL     1      92.079  77.378  75.024  1.00  0.00     0.157 A 
BRANCH  11  14
ATOM     14  O   UNL     1      92.596  75.236  74.088  1.00  0.00    -0.493 OA
ATOM     15  C   UNL     1      92.648  73.823  74.284  1.00  0.00     0.278 C 
ENDBRANCH  11  14
BRANCH  13  16
ATOM     16  O   UNL     1      92.500  78.006  73.892  1.00  0.00    -0.504 OA
ATOM     17  H   UNL     1      92.972  77.366  73.331  1.00  0.00     0.293 HD
ENDBRANCH  13  16
ENDBRANCH   7   8
ENDBRANCH   5   7
ENDBRANCH   2   3
ENDBRANCH   1   2
BRANCH   1  18
ATOM     18  C   UNL     1      92.349  77.306  83.968  1.00  0.00     0.001 C 
BRANCH  18  19
ATOM     19  C   UNL     1      91.253  78.333  84.268  1.00  0.00     0.000 C 
BRANCH  19  20
ATOM     20  C   UNL     1      91.801  79.728  84.583  1.00  0.00     0.000 C 
BRANCH  20  21
ATOM     21  C   UNL     1      91.078  80.851  83.832  1.00  0.00     0.000 C 
BRANCH  21  22
ATOM     22  C   UNL     1      90.116  81.651  84.717  1.00  0.00     0.003 C 
BRANCH  22  23
ATOM     23  C   UNL     1      88.668  81.671  84.188  1.00  0.00    -0.017 C 
ATOM     24  C   UNL     1      87.828  82.646  85.017  1.00  0.00     0.007 C 
ATOM     25  C   UNL     1      88.018  80.287  84.207  1.00  0.00     0.007 C 
ENDBRANCH  22  23
ENDBRANCH  21  22
ENDBRANCH  20  21
ENDBRANCH  19  20
ENDBRANCH  18  19
ENDBRANCH   1  18
TORSDOF 12
ENDMDL
MODEL 10
REMARK VINA RESULT:    -5.661     15.953     19.289
REMARK INTER + INTRA:         -10.190
REMARK INTER:                  -9.214
REMARK INTRA:                  -0.976
REMARK UNBOUND:                -0.724
REMARK SMILES COc1cc(CNC(=O)CCCCCCCC(C)C)ccc1O
REMARK SMILES IDX 11 1 10 2 8 3 9 4 7 5 6 7 5 8 4 9 20 10 3 11 21 12 22 13
REMARK SMILES IDX 2 14 1 15 23 16 12 18 13 19 14 20 15 21 16 22 17 23 18 24
REMARK SMILES IDX 19 25
REMARK H PARENT 7 6 23 17
REMARK Flexibility Score: inf
ROOT
ATOM      1  C   UNL     1      94.328  98.132  73.877  1.00  0.00     0.010 C 
ENDROOT
BRANCH   1   2
ATOM      2  C   UNL     1      95.434  97.707  72.914  1.00  0.00     0.100 C 
BRANCH   2   3
ATOM      3  C   UNL     1      95.515  98.606  71.691  1.00  0.00     0.220 C 
ATOM      4  O   UNL     1      96.575  99.002  71.215  1.00  0.00    -0.275 OA
ATOM      5  N   UNL     1      94.254  98.917  71.203  1.00  0.00    -0.352 N 
ATOM      6  H   UNL     1      93.430  98.550  71.672  1.00  0.00     0.163 HD
BRANCH   5   7
ATOM      7  C   UNL     1      94.047  99.764  70.051  1.00  0.00     0.151 C 
BRANCH   7   8
ATOM      8  C   UNL     1      92.609 100.166  69.902  1.00  0.00    -0.025 A 
ATOM      9  C   UNL     1      91.811 100.299  71.032  1.00  0.00     0.056 A 
ATOM     10  C   UNL     1      92.089 100.401  68.634  1.00  0.00     0.009 A 
ATOM     11  C   UNL     1      90.474 100.672  70.892  1.00  0.00     0.160 A 
ATOM     12  C   UNL     1      90.752 100.774  68.495  1.00  0.00     0.050 A 
ATOM     13  C   UNL     1      89.944 100.910  69.624  1.00  0.00     0.157 A 
BRANCH  11  14
ATOM     14  O   UNL     1      89.695 100.801  72.003  1.00  0.00    -0.493 OA
ATOM     15  C   UNL     1      89.897 101.964  72.805  1.00  0.00     0.278 C 
ENDBRANCH  11  14
BRANCH  13  16
ATOM     16  O   UNL     1      88.641 101.276  69.475  1.00  0.00    -0.504 OA
ATOM     17  H   UNL     1      88.279 100.844  68.682  1.00  0.00     0.293 HD
ENDBRANCH  13  16
ENDBRANCH   7   8
ENDBRANCH   5   7
ENDBRANCH   2   3
ENDBRANCH   1   2
BRANCH   1  18
ATOM     18  C   UNL     1      94.734  98.044  75.350  1.00  0.00     0.001 C 
BRANCH  18  19
ATOM     19  C   UNL     1      94.031  96.955  76.169  1.00  0.00     0.000 C 
BRANCH  19  20
ATOM     20  C   UNL     1      93.862  95.639  75.406  1.00  0.00     0.000 C 
BRANCH  20  21
ATOM     21  C   UNL     1      92.399  95.213  75.240  1.00  0.00     0.000 C 
BRANCH  21  22
ATOM     22  C   UNL     1      91.532  95.534  76.462  1.00  0.00     0.003 C 
BRANCH  22  23
ATOM     23  C   UNL     1      90.167  94.818  76.452  1.00  0.00    -0.017 C 
ATOM     24  C   UNL     1      90.109  93.799  77.592  1.00  0.00     0.007 C 
ATOM     25  C   UNL     1      89.882  94.118  75.122  1.00  0.00     0.007 C 
ENDBRANCH  22  23
ENDBRANCH  21  22
ENDBRANCH  20  21
ENDBRANCH  19  20
ENDBRANCH  18  19
ENDBRANCH   1  18
TORSDOF 12
ENDMDL
