MODEL 1
REMARK VINA RESULT:    -6.351      0.000      0.000
REMARK INTER + INTRA:         -10.543
REMARK INTER:                  -9.878
REMARK INTRA:                  -0.665
REMARK UNBOUND:                -0.665
REMARK SMILES COc1cc(CNC(=O)CCCCCC(C)C)ccc1O
REMARK SMILES IDX 10 1 8 2 7 3 9 5 6 6 5 7 3 8 20 9 4 10 19 11 18 12 2 13 1 14
REMARK SMILES IDX 21 15 11 17 12 18 13 19 14 20 15 21 16 22 17 23
REMARK H PARENT 7 4 21 16
REMARK Flexibility Score: inf
ROOT
ATOM      1  C   UNL     1      92.598  93.195  78.444  1.00  0.00     0.100 C 
ENDROOT
BRANCH   1   2
ATOM      2  C   UNL     1      93.889  93.916  78.427  1.00  0.00     0.220 C 
ATOM      3  N   UNL     1      94.160  94.779  77.408  1.00  0.00    -0.352 N 
ATOM      4  H   UNL     1      93.493  94.764  76.649  1.00  0.00     0.163 HD
ATOM      5  O   UNL     1      94.692  93.748  79.377  1.00  0.00    -0.275 OA
BRANCH   3   6
ATOM      6  C   UNL     1      95.280  95.663  77.356  1.00  0.00     0.151 C 
BRANCH   6   7
ATOM      7  C   UNL     1      95.608  96.111  75.976  1.00  0.00    -0.025 A 
ATOM      8  C   UNL     1      96.934  97.504  74.444  1.00  0.00     0.160 A 
ATOM      9  C   UNL     1      96.278  96.915  73.343  1.00  0.00     0.157 A 
ATOM     10  C   UNL     1      96.582  97.112  75.753  1.00  0.00     0.056 A 
ATOM     11  C   UNL     1      95.288  95.937  73.553  1.00  0.00     0.050 A 
ATOM     12  C   UNL     1      94.959  95.534  74.859  1.00  0.00     0.009 A 
BRANCH   8  13
ATOM     13  O   UNL     1      97.887  98.472  74.262  1.00  0.00    -0.493 OA
ATOM     14  C   UNL     1      97.645  99.676  75.015  1.00  0.00     0.278 C 
ENDBRANCH   8  13
BRANCH   9  15
ATOM     15  O   UNL     1      96.607  97.286  72.080  1.00  0.00    -0.504 OA
ATOM     16  H   UNL     1      97.340  97.906  72.110  1.00  0.00     0.293 HD
ENDBRANCH   9  15
ENDBRANCH   6   7
ENDBRANCH   3   6
ENDBRANCH   1   2
BRANCH   1  17
ATOM     17  C   UNL     1      91.567  93.709  77.404  1.00  0.00     0.010 C 
BRANCH  17  18
ATOM     18  C   UNL     1      90.195  92.997  77.558  1.00  0.00     0.001 C 
BRANCH  18  19
ATOM     19  C   UNL     1      90.057  91.727  76.677  1.00  0.00     0.000 C 
BRANCH  19  20
ATOM     20  C   UNL     1      91.132  91.673  75.552  1.00  0.00     0.003 C 
BRANCH  20  21
ATOM     21  C   UNL     1      90.732  90.830  74.297  1.00  0.00    -0.017 C 
ATOM     22  C   UNL     1      89.271  91.146  73.859  1.00  0.00     0.007 C 
ATOM     23  C   UNL     1      90.904  89.299  74.517  1.00  0.00     0.007 C 
ENDBRANCH  20  21
ENDBRANCH  19  20
ENDBRANCH  18  19
ENDBRANCH  17  18
ENDBRANCH   1  17
TORSDOF 10
ENDMDL
MODEL 2
REMARK VINA RESULT:    -6.105      4.302      8.438
REMARK INTER + INTRA:         -10.161
REMARK INTER:                  -9.039
REMARK INTRA:                  -1.122
REMARK UNBOUND:                -0.665
REMARK SMILES COc1cc(CNC(=O)CCCCCC(C)C)ccc1O
REMARK SMILES IDX 10 1 8 2 7 3 9 5 6 6 5 7 3 8 20 9 4 10 19 11 18 12 2 13 1 14
REMARK SMILES IDX 21 15 11 17 12 18 13 19 14 20 15 21 16 22 17 23
REMARK H PARENT 7 4 21 16
REMARK Flexibility Score: inf
ROOT
ATOM      1  C   UNL     1      95.912  95.708  81.589  1.00  0.00     0.100 C 
ENDROOT
BRANCH   1   2
ATOM      2  C   UNL     1      95.870  95.117  80.235  1.00  0.00     0.220 C 
ATOM      3  N   UNL     1      95.060  94.047  79.997  1.00  0.00    -0.352 N 
ATOM      4  H   UNL     1      94.634  93.645  80.820  1.00  0.00     0.163 HD
ATOM      5  O   UNL     1      96.551  95.641  79.320  1.00  0.00    -0.275 OA
BRANCH   3   6
ATOM      6  C   UNL     1      94.791  93.491  78.710  1.00  0.00     0.151 C 
BRANCH   6   7
ATOM      7  C   UNL     1      93.490  93.934  78.141  1.00  0.00    -0.025 A 
ATOM      8  C   UNL     1      91.106  93.524  77.698  1.00  0.00     0.160 A 
ATOM      9  C   UNL     1      90.995  94.805  77.119  1.00  0.00     0.157 A 
ATOM     10  C   UNL     1      92.356  93.089  78.189  1.00  0.00     0.056 A 
ATOM     11  C   UNL     1      92.123  95.644  77.042  1.00  0.00     0.050 A 
ATOM     12  C   UNL     1      93.359  95.214  77.554  1.00  0.00     0.009 A 
BRANCH   8  13
ATOM     13  O   UNL     1      90.025  92.684  77.765  1.00  0.00    -0.493 OA
ATOM     14  C   UNL     1      89.974  91.716  76.699  1.00  0.00     0.278 C 
ENDBRANCH   8  13
BRANCH   9  15
ATOM     15  O   UNL     1      89.799  95.232  76.642  1.00  0.00    -0.504 OA
ATOM     16  H   UNL     1      89.738  96.185  76.737  1.00  0.00     0.293 HD
ENDBRANCH   9  15
ENDBRANCH   6   7
ENDBRANCH   3   6
ENDBRANCH   1   2
BRANCH   1  17
ATOM     17  C   UNL     1      96.546  97.124  81.648  1.00  0.00     0.010 C 
BRANCH  17  18
ATOM     18  C   UNL     1      96.934  97.518  83.100  1.00  0.00     0.001 C 
BRANCH  18  19
ATOM     19  C   UNL     1      98.132  96.706  83.659  1.00  0.00     0.000 C 
BRANCH  19  20
ATOM     20  C   UNL     1      99.410  96.866  82.785  1.00  0.00     0.003 C 
BRANCH  20  21
ATOM     21  C   UNL     1      99.918  95.549  82.112  1.00  0.00    -0.017 C 
ATOM     22  C   UNL     1      99.795  95.634  80.562  1.00  0.00     0.007 C 
ATOM     23  C   UNL     1      99.186  94.280  82.638  1.00  0.00     0.007 C 
ENDBRANCH  20  21
ENDBRANCH  19  20
ENDBRANCH  18  19
ENDBRANCH  17  18
ENDBRANCH   1  17
TORSDOF 10
ENDMDL
MODEL 3
REMARK VINA RESULT:    -6.088      4.136      5.876
REMARK INTER + INTRA:         -10.134
REMARK INTER:                  -9.409
REMARK INTRA:                  -0.725
REMARK UNBOUND:                -0.665
REMARK SMILES COc1cc(CNC(=O)CCCCCC(C)C)ccc1O
REMARK SMILES IDX 10 1 8 2 7 3 9 5 6 6 5 7 3 8 20 9 4 10 19 11 18 12 2 13 1 14
REMARK SMILES IDX 21 15 11 17 12 18 13 19 14 20 15 21 16 22 17 23
REMARK H PARENT 7 4 21 16
REMARK Flexibility Score: inf
ROOT
ATOM      1  C   UNL     1      93.356  93.756  78.335  1.00  0.00     0.100 C 
ENDROOT
BRANCH   1   2
ATOM      2  C   UNL     1      94.456  93.409  79.259  1.00  0.00     0.220 C 
ATOM      3  N   UNL     1      95.670  94.011  79.110  1.00  0.00    -0.352 N 
ATOM      4  H   UNL     1      95.768  94.569  78.274  1.00  0.00     0.163 HD
ATOM      5  O   UNL     1      94.236  92.597  80.190  1.00  0.00    -0.275 OA
BRANCH   3   6
ATOM      6  C   UNL     1      96.760  93.901  80.027  1.00  0.00     0.151 C 
BRANCH   6   7
ATOM      7  C   UNL     1      96.899  95.088  80.913  1.00  0.00    -0.025 A 
ATOM      8  C   UNL     1      98.243  96.450  82.458  1.00  0.00     0.160 A 
ATOM      9  C   UNL     1      97.189  97.384  82.548  1.00  0.00     0.157 A 
ATOM     10  C   UNL     1      98.084  95.299  81.656  1.00  0.00     0.056 A 
ATOM     11  C   UNL     1      95.996  97.170  81.834  1.00  0.00     0.050 A 
ATOM     12  C   UNL     1      95.853  96.035  81.018  1.00  0.00     0.009 A 
BRANCH   8  13
ATOM     13  O   UNL     1      99.406  96.629  83.161  1.00  0.00    -0.493 OA
ATOM     14  C   UNL     1      99.521  95.781  84.320  1.00  0.00     0.278 C 
ENDBRANCH   8  13
BRANCH   9  15
ATOM     15  O   UNL     1      97.330  98.492  83.318  1.00  0.00    -0.504 OA
ATOM     16  H   UNL     1      98.261  98.715  83.389  1.00  0.00     0.293 HD
ENDBRANCH   9  15
ENDBRANCH   6   7
ENDBRANCH   3   6
ENDBRANCH   1   2
BRANCH   1  17
ATOM     17  C   UNL     1      93.520  95.132  77.636  1.00  0.00     0.010 C 
BRANCH  17  18
ATOM     18  C   UNL     1      92.235  95.539  76.864  1.00  0.00     0.001 C 
BRANCH  18  19
ATOM     19  C   UNL     1      91.015  94.632  77.177  1.00  0.00     0.000 C 
BRANCH  19  20
ATOM     20  C   UNL     1      90.662  93.691  75.989  1.00  0.00     0.003 C 
BRANCH  20  21
ATOM     21  C   UNL     1      90.874  92.168  76.268  1.00  0.00    -0.017 C 
ATOM     22  C   UNL     1      91.077  91.382  74.939  1.00  0.00     0.007 C 
ATOM     23  C   UNL     1      89.711  91.536  77.089  1.00  0.00     0.007 C 
ENDBRANCH  20  21
ENDBRANCH  19  20
ENDBRANCH  18  19
ENDBRANCH  17  18
ENDBRANCH   1  17
TORSDOF 10
ENDMDL
MODEL 4
REMARK VINA RESULT:    -6.074      6.019      7.984
REMARK INTER + INTRA:         -10.112
REMARK INTER:                  -9.527
REMARK INTRA:                  -0.586
REMARK UNBOUND:                -0.665
REMARK SMILES COc1cc(CNC(=O)CCCCCC(C)C)ccc1O
REMARK SMILES IDX 10 1 8 2 7 3 9 5 6 6 5 7 3 8 20 9 4 10 19 11 18 12 2 13 1 14
REMARK SMILES IDX 21 15 11 17 12 18 13 19 14 20 15 21 16 22 17 23
REMARK H PARENT 7 4 21 16
REMARK Flexibility Score: inf
ROOT
ATOM      1  C   UNL     1      93.704  98.541  73.790  1.00  0.00     0.100 C 
ENDROOT
BRANCH   1   2
ATOM      2  C   UNL     1      93.537  99.119  72.440  1.00  0.00     0.220 C 
ATOM      3  N   UNL     1      92.364  99.730  72.114  1.00  0.00    -0.352 N 
ATOM      4  H   UNL     1      91.626  99.625  72.796  1.00  0.00     0.163 HD
ATOM      5  O   UNL     1      94.499  99.071  71.635  1.00  0.00    -0.275 OA
BRANCH   3   6
ATOM      6  C   UNL     1      92.130 100.476  70.919  1.00  0.00     0.151 C 
BRANCH   6   7
ATOM      7  C   UNL     1      91.220  99.783  69.967  1.00  0.00    -0.025 A 
ATOM      8  C   UNL     1      90.221  99.592  67.728  1.00  0.00     0.160 A 
ATOM      9  C   UNL     1      89.539  98.426  68.134  1.00  0.00     0.157 A 
ATOM     10  C   UNL     1      91.042 100.274  68.651  1.00  0.00     0.056 A 
ATOM     11  C   UNL     1      89.687  97.945  69.448  1.00  0.00     0.050 A 
ATOM     12  C   UNL     1      90.525  98.614  70.355  1.00  0.00     0.009 A 
BRANCH   8  13
ATOM     13  O   UNL     1      90.075 100.089  66.459  1.00  0.00    -0.493 OA
ATOM     14  C   UNL     1      89.193 101.225  66.377  1.00  0.00     0.278 C 
ENDBRANCH   8  13
BRANCH   9  15
ATOM     15  O   UNL     1      88.745  97.765  67.255  1.00  0.00    -0.504 OA
ATOM     16  H   UNL     1      88.941  98.060  66.362  1.00  0.00     0.293 HD
ENDBRANCH   9  15
ENDBRANCH   6   7
ENDBRANCH   3   6
ENDBRANCH   1   2
BRANCH   1  17
ATOM     17  C   UNL     1      94.926  97.594  73.933  1.00  0.00     0.010 C 
BRANCH  17  18
ATOM     18  C   UNL     1      94.527  96.238  74.579  1.00  0.00     0.001 C 
BRANCH  18  19
ATOM     19  C   UNL     1      93.202  96.305  75.383  1.00  0.00     0.000 C 
BRANCH  19  20
ATOM     20  C   UNL     1      92.645  94.891  75.718  1.00  0.00     0.003 C 
BRANCH  20  21
ATOM     21  C   UNL     1      92.058  94.737  77.159  1.00  0.00    -0.017 C 
ATOM     22  C   UNL     1      92.925  93.765  78.011  1.00  0.00     0.007 C 
ATOM     23  C   UNL     1      90.573  94.269  77.161  1.00  0.00     0.007 C 
ENDBRANCH  20  21
ENDBRANCH  19  20
ENDBRANCH  18  19
ENDBRANCH  17  18
ENDBRANCH   1  17
TORSDOF 10
ENDMDL
MODEL 5
REMARK VINA RESULT:    -5.836      3.532      5.015
REMARK INTER + INTRA:          -9.742
REMARK INTER:                  -8.689
REMARK INTRA:                  -1.052
REMARK UNBOUND:                -0.665
REMARK SMILES COc1cc(CNC(=O)CCCCCC(C)C)ccc1O
REMARK SMILES IDX 10 1 8 2 7 3 9 5 6 6 5 7 3 8 20 9 4 10 19 11 18 12 2 13 1 14
REMARK SMILES IDX 21 15 11 17 12 18 13 19 14 20 15 21 16 22 17 23
REMARK H PARENT 7 4 21 16
REMARK Flexibility Score: inf
ROOT
ATOM      1  C   UNL     1      93.167  93.916  78.093  1.00  0.00     0.100 C 
ENDROOT
BRANCH   1   2
ATOM      2  C   UNL     1      94.409  93.733  78.872  1.00  0.00     0.220 C 
ATOM      3  N   UNL     1      95.519  94.452  78.541  1.00  0.00    -0.352 N 
ATOM      4  H   UNL     1      95.445  94.976  77.681  1.00  0.00     0.163 HD
ATOM      5  O   UNL     1      94.404  92.947  79.851  1.00  0.00    -0.275 OA
BRANCH   3   6
ATOM      6  C   UNL     1      96.723  94.503  79.307  1.00  0.00     0.151 C 
BRANCH   6   7
ATOM      7  C   UNL     1      96.770  95.658  80.243  1.00  0.00    -0.025 A 
ATOM      8  C   UNL     1      97.430  97.974  80.741  1.00  0.00     0.160 A 
ATOM      9  C   UNL     1      96.803  97.880  82.001  1.00  0.00     0.157 A 
ATOM     10  C   UNL     1      97.427  96.858  79.878  1.00  0.00     0.056 A 
ATOM     11  C   UNL     1      96.171  96.683  82.386  1.00  0.00     0.050 A 
ATOM     12  C   UNL     1      96.149  95.583  81.512  1.00  0.00     0.009 A 
BRANCH   8  13
ATOM     13  O   UNL     1      98.069  99.124  80.356  1.00  0.00    -0.493 OA
ATOM     14  C   UNL     1      97.465  99.772  79.220  1.00  0.00     0.278 C 
ENDBRANCH   8  13
BRANCH   9  15
ATOM     15  O   UNL     1      96.803  98.947  82.839  1.00  0.00    -0.504 OA
ATOM     16  H   UNL     1      97.622  99.437  82.734  1.00  0.00     0.293 HD
ENDBRANCH   9  15
ENDBRANCH   6   7
ENDBRANCH   3   6
ENDBRANCH   1   2
BRANCH   1  17
ATOM     17  C   UNL     1      93.265  94.991  76.977  1.00  0.00     0.010 C 
BRANCH  17  18
ATOM     18  C   UNL     1      91.956  95.819  76.863  1.00  0.00     0.001 C 
BRANCH  18  19
ATOM     19  C   UNL     1      90.670  94.965  77.024  1.00  0.00     0.000 C 
BRANCH  19  20
ATOM     20  C   UNL     1      90.372  94.107  75.760  1.00  0.00     0.003 C 
BRANCH  20  21
ATOM     21  C   UNL     1      90.196  92.577  76.028  1.00  0.00    -0.017 C 
ATOM     22  C   UNL     1      90.009  92.297  77.548  1.00  0.00     0.007 C 
ATOM     23  C   UNL     1      91.373  91.726  75.469  1.00  0.00     0.007 C 
ENDBRANCH  20  21
ENDBRANCH  19  20
ENDBRANCH  18  19
ENDBRANCH  17  18
ENDBRANCH   1  17
TORSDOF 10
ENDMDL
MODEL 6
REMARK VINA RESULT:    -5.765     12.445     14.242
REMARK INTER + INTRA:          -9.633
REMARK INTER:                  -8.984
REMARK INTRA:                  -0.649
REMARK UNBOUND:                -0.665
REMARK SMILES COc1cc(CNC(=O)CCCCCC(C)C)ccc1O
REMARK SMILES IDX 10 1 8 2 7 3 9 5 6 6 5 7 3 8 20 9 4 10 19 11 18 12 2 13 1 14
REMARK SMILES IDX 21 15 11 17 12 18 13 19 14 20 15 21 16 22 17 23
REMARK H PARENT 7 4 21 16
REMARK Flexibility Score: inf
ROOT
ATOM      1  C   UNL     1      97.300  82.063  78.445  1.00  0.00     0.100 C 
ENDROOT
BRANCH   1   2
ATOM      2  C   UNL     1      96.611  82.098  77.138  1.00  0.00     0.220 C 
ATOM      3  N   UNL     1      96.835  83.141  76.291  1.00  0.00    -0.352 N 
ATOM      4  H   UNL     1      97.371  83.901  76.686  1.00  0.00     0.163 HD
ATOM      5  O   UNL     1      95.865  81.141  76.818  1.00  0.00    -0.275 OA
BRANCH   3   6
ATOM      6  C   UNL     1      96.377  83.217  74.941  1.00  0.00     0.151 C 
BRANCH   6   7
ATOM      7  C   UNL     1      97.266  82.507  73.982  1.00  0.00    -0.025 A 
ATOM      8  C   UNL     1      99.358  82.397  72.693  1.00  0.00     0.160 A 
ATOM      9  C   UNL     1      98.989  81.125  72.208  1.00  0.00     0.157 A 
ATOM     10  C   UNL     1      98.486  83.088  73.562  1.00  0.00     0.056 A 
ATOM     11  C   UNL     1      97.766  80.549  72.598  1.00  0.00     0.050 A 
ATOM     12  C   UNL     1      96.914  81.231  73.482  1.00  0.00     0.009 A 
BRANCH   8  13
ATOM     13  O   UNL     1     100.535  82.984  72.310  1.00  0.00    -0.493 OA
ATOM     14  C   UNL     1     100.469  84.421  72.226  1.00  0.00     0.278 C 
ENDBRANCH   8  13
BRANCH   9  15
ATOM     15  O   UNL     1      99.819  80.453  71.371  1.00  0.00    -0.504 OA
ATOM     16  H   UNL     1      99.952  80.967  70.571  1.00  0.00     0.293 HD
ENDBRANCH   9  15
ENDBRANCH   6   7
ENDBRANCH   3   6
ENDBRANCH   1   2
BRANCH   1  17
ATOM     17  C   UNL     1      98.000  80.714  78.762  1.00  0.00     0.010 C 
BRANCH  17  18
ATOM     18  C   UNL     1      97.793  80.295  80.244  1.00  0.00     0.001 C 
BRANCH  18  19
ATOM     19  C   UNL     1      97.219  81.431  81.131  1.00  0.00     0.000 C 
BRANCH  19  20
ATOM     20  C   UNL     1      96.303  80.887  82.265  1.00  0.00     0.003 C 
BRANCH  20  21
ATOM     21  C   UNL     1      96.004  81.901  83.417  1.00  0.00    -0.017 C 
ATOM     22  C   UNL     1      94.673  81.543  84.141  1.00  0.00     0.007 C 
ATOM     23  C   UNL     1      95.966  83.378  82.927  1.00  0.00     0.007 C 
ENDBRANCH  20  21
ENDBRANCH  19  20
ENDBRANCH  18  19
ENDBRANCH  17  18
ENDBRANCH   1  17
TORSDOF 10
ENDMDL
MODEL 7
REMARK VINA RESULT:    -5.746     12.347     14.412
REMARK INTER + INTRA:          -9.603
REMARK INTER:                  -8.807
REMARK INTRA:                  -0.796
REMARK UNBOUND:                -0.665
REMARK SMILES COc1cc(CNC(=O)CCCCCC(C)C)ccc1O
REMARK SMILES IDX 10 1 8 2 7 3 9 5 6 6 5 7 3 8 20 9 4 10 19 11 18 12 2 13 1 14
REMARK SMILES IDX 21 15 11 17 12 18 13 19 14 20 15 21 16 22 17 23
REMARK H PARENT 7 4 21 16
REMARK Flexibility Score: inf
ROOT
ATOM      1  C   UNL     1      96.700  82.037  77.884  1.00  0.00     0.100 C 
ENDROOT
BRANCH   1   2
ATOM      2  C   UNL     1      96.490  82.832  76.657  1.00  0.00     0.220 C 
ATOM      3  N   UNL     1      97.451  82.842  75.692  1.00  0.00    -0.352 N 
ATOM      4  H   UNL     1      98.319  82.394  75.952  1.00  0.00     0.163 HD
ATOM      5  O   UNL     1      95.407  83.451  76.511  1.00  0.00    -0.275 OA
BRANCH   3   6
ATOM      6  C   UNL     1      97.308  83.420  74.394  1.00  0.00     0.151 C 
BRANCH   6   7
ATOM      7  C   UNL     1      98.475  83.163  73.507  1.00  0.00    -0.025 A 
ATOM      8  C   UNL     1      99.840  81.611  72.176  1.00  0.00     0.160 A 
ATOM      9  C   UNL     1     100.658  82.686  71.765  1.00  0.00     0.157 A 
ATOM     10  C   UNL     1      98.766  81.854  73.058  1.00  0.00     0.056 A 
ATOM     11  C   UNL     1     100.393  83.988  72.227  1.00  0.00     0.050 A 
ATOM     12  C   UNL     1      99.307  84.227  73.087  1.00  0.00     0.009 A 
BRANCH   8  13
ATOM     13  O   UNL     1     100.093  80.332  71.753  1.00  0.00    -0.493 OA
ATOM     14  C   UNL     1      98.926  79.489  71.723  1.00  0.00     0.278 C 
ENDBRANCH   8  13
BRANCH   9  15
ATOM     15  O   UNL     1     101.694  82.463  70.919  1.00  0.00    -0.504 OA
ATOM     16  H   UNL     1     101.819  83.232  70.357  1.00  0.00     0.293 HD
ENDBRANCH   9  15
ENDBRANCH   6   7
ENDBRANCH   3   6
ENDBRANCH   1   2
BRANCH   1  17
ATOM     17  C   UNL     1      98.186  81.690  78.173  1.00  0.00     0.010 C 
BRANCH  17  18
ATOM     18  C   UNL     1      98.403  80.156  78.289  1.00  0.00     0.001 C 
BRANCH  18  19
ATOM     19  C   UNL     1      97.747  79.534  79.550  1.00  0.00     0.000 C 
BRANCH  19  20
ATOM     20  C   UNL     1      97.963  80.409  80.818  1.00  0.00     0.003 C 
BRANCH  20  21
ATOM     21  C   UNL     1      96.654  80.828  81.563  1.00  0.00    -0.017 C 
ATOM     22  C   UNL     1      96.648  82.358  81.857  1.00  0.00     0.007 C 
ATOM     23  C   UNL     1      96.425  80.030  82.879  1.00  0.00     0.007 C 
ENDBRANCH  20  21
ENDBRANCH  19  20
ENDBRANCH  18  19
ENDBRANCH  17  18
ENDBRANCH   1  17
TORSDOF 10
ENDMDL
MODEL 8
REMARK VINA RESULT:    -5.644     13.034     15.564
REMARK INTER + INTRA:          -9.444
REMARK INTER:                  -8.698
REMARK INTRA:                  -0.746
REMARK UNBOUND:                -0.665
REMARK SMILES COc1cc(CNC(=O)CCCCCC(C)C)ccc1O
REMARK SMILES IDX 10 1 8 2 7 3 9 5 6 6 5 7 3 8 20 9 4 10 19 11 18 12 2 13 1 14
REMARK SMILES IDX 21 15 11 17 12 18 13 19 14 20 15 21 16 22 17 23
REMARK H PARENT 7 4 21 16
REMARK Flexibility Score: inf
ROOT
ATOM      1  C   UNL     1      96.559  81.114  76.783  1.00  0.00     0.100 C 
ENDROOT
BRANCH   1   2
ATOM      2  C   UNL     1      97.457  81.255  77.947  1.00  0.00     0.220 C 
ATOM      3  N   UNL     1      97.352  80.378  78.985  1.00  0.00    -0.352 N 
ATOM      4  H   UNL     1      96.557  79.757  78.937  1.00  0.00     0.163 HD
ATOM      5  O   UNL     1      98.330  82.158  77.937  1.00  0.00    -0.275 OA
BRANCH   3   6
ATOM      6  C   UNL     1      98.260  80.290  80.083  1.00  0.00     0.151 C 
BRANCH   6   7
ATOM      7  C   UNL     1      97.776  80.997  81.299  1.00  0.00    -0.025 A 
ATOM      8  C   UNL     1      97.845  81.345  83.733  1.00  0.00     0.160 A 
ATOM      9  C   UNL     1      96.903  82.388  83.608  1.00  0.00     0.157 A 
ATOM     10  C   UNL     1      98.262  80.644  82.581  1.00  0.00     0.056 A 
ATOM     11  C   UNL     1      96.393  82.729  82.342  1.00  0.00     0.050 A 
ATOM     12  C   UNL     1      96.830  82.044  81.196  1.00  0.00     0.009 A 
BRANCH   8  13
ATOM     13  O   UNL     1      98.339  80.984  84.959  1.00  0.00    -0.493 OA
ATOM     14  C   UNL     1      98.138  79.594  85.281  1.00  0.00     0.278 C 
ENDBRANCH   8  13
BRANCH   9  15
ATOM     15  O   UNL     1      96.495  83.067  84.710  1.00  0.00    -0.504 OA
ATOM     16  H   UNL     1      96.925  82.704  85.487  1.00  0.00     0.293 HD
ENDBRANCH   9  15
ENDBRANCH   6   7
ENDBRANCH   3   6
ENDBRANCH   1   2
BRANCH   1  17
ATOM     17  C   UNL     1      97.119  80.214  75.649  1.00  0.00     0.010 C 
BRANCH  17  18
ATOM     18  C   UNL     1      97.125  80.952  74.282  1.00  0.00     0.001 C 
BRANCH  18  19
ATOM     19  C   UNL     1      96.639  82.422  74.373  1.00  0.00     0.000 C 
BRANCH  19  20
ATOM     20  C   UNL     1      97.781  83.438  74.077  1.00  0.00     0.003 C 
BRANCH  20  21
ATOM     21  C   UNL     1      99.094  82.808  73.511  1.00  0.00    -0.017 C 
ATOM     22  C   UNL     1     100.146  82.606  74.641  1.00  0.00     0.007 C 
ATOM     23  C   UNL     1      99.712  83.641  72.350  1.00  0.00     0.007 C 
ENDBRANCH  20  21
ENDBRANCH  19  20
ENDBRANCH  18  19
ENDBRANCH  17  18
ENDBRANCH   1  17
TORSDOF 10
ENDMDL
MODEL 9
REMARK VINA RESULT:    -5.628     20.776     23.079
REMARK INTER + INTRA:          -9.419
REMARK INTER:                  -7.858
REMARK INTRA:                  -1.560
REMARK UNBOUND:                -0.665
REMARK SMILES COc1cc(CNC(=O)CCCCCC(C)C)ccc1O
REMARK SMILES IDX 10 1 8 2 7 3 9 5 6 6 5 7 3 8 20 9 4 10 19 11 18 12 2 13 1 14
REMARK SMILES IDX 21 15 11 17 12 18 13 19 14 20 15 21 16 22 17 23
REMARK H PARENT 7 4 21 16
REMARK Flexibility Score: inf
ROOT
ATOM      1  C   UNL     1      72.676  89.001  69.185  1.00  0.00     0.100 C 
ENDROOT
BRANCH   1   2
ATOM      2  C   UNL     1      72.791  87.937  68.166  1.00  0.00     0.220 C 
ATOM      3  N   UNL     1      73.089  86.666  68.557  1.00  0.00    -0.352 N 
ATOM      4  H   UNL     1      73.344  86.568  69.529  1.00  0.00     0.163 HD
ATOM      5  O   UNL     1      72.570  88.219  66.963  1.00  0.00    -0.275 OA
BRANCH   3   6
ATOM      6  C   UNL     1      73.061  85.518  67.708  1.00  0.00     0.151 C 
BRANCH   6   7
ATOM      7  C   UNL     1      74.412  84.949  67.450  1.00  0.00    -0.025 A 
ATOM      8  C   UNL     1      75.905  83.522  66.115  1.00  0.00     0.160 A 
ATOM      9  C   UNL     1      76.996  83.918  66.918  1.00  0.00     0.157 A 
ATOM     10  C   UNL     1      74.617  84.025  66.398  1.00  0.00     0.056 A 
ATOM     11  C   UNL     1      76.799  84.815  67.983  1.00  0.00     0.050 A 
ATOM     12  C   UNL     1      75.518  85.331  68.244  1.00  0.00     0.009 A 
BRANCH   8  13
ATOM     13  O   UNL     1      76.073  82.634  65.085  1.00  0.00    -0.493 OA
ATOM     14  C   UNL     1      74.856  81.979  64.678  1.00  0.00     0.278 C 
ENDBRANCH   8  13
BRANCH   9  15
ATOM     15  O   UNL     1      78.238  83.438  66.656  1.00  0.00    -0.504 OA
ATOM     16  H   UNL     1      78.183  82.756  65.984  1.00  0.00     0.293 HD
ENDBRANCH   9  15
ENDBRANCH   6   7
ENDBRANCH   3   6
ENDBRANCH   1   2
BRANCH   1  17
ATOM     17  C   UNL     1      73.873  89.988  69.216  1.00  0.00     0.010 C 
BRANCH  17  18
ATOM     18  C   UNL     1      75.219  89.265  68.932  1.00  0.00     0.001 C 
BRANCH  18  19
ATOM     19  C   UNL     1      76.113  90.008  67.905  1.00  0.00     0.000 C 
BRANCH  19  20
ATOM     20  C   UNL     1      76.909  89.026  66.998  1.00  0.00     0.003 C 
BRANCH  20  21
ATOM     21  C   UNL     1      76.357  88.878  65.543  1.00  0.00    -0.017 C 
ATOM     22  C   UNL     1      75.239  89.926  65.263  1.00  0.00     0.007 C 
ATOM     23  C   UNL     1      75.832  87.444  65.238  1.00  0.00     0.007 C 
ENDBRANCH  20  21
ENDBRANCH  19  20
ENDBRANCH  18  19
ENDBRANCH  17  18
ENDBRANCH   1  17
TORSDOF 10
ENDMDL
MODEL 10
REMARK VINA RESULT:    -5.514      3.455      6.519
REMARK INTER + INTRA:          -9.242
REMARK INTER:                  -8.262
REMARK INTRA:                  -0.980
REMARK UNBOUND:                -0.665
REMARK SMILES COc1cc(CNC(=O)CCCCCC(C)C)ccc1O
REMARK SMILES IDX 10 1 8 2 7 3 9 5 6 6 5 7 3 8 20 9 4 10 19 11 18 12 2 13 1 14
REMARK SMILES IDX 21 15 11 17 12 18 13 19 14 20 15 21 16 22 17 23
REMARK H PARENT 7 4 21 16
REMARK Flexibility Score: inf
ROOT
ATOM      1  C   UNL     1      92.565  94.734  75.878  1.00  0.00     0.100 C 
ENDROOT
BRANCH   1   2
ATOM      2  C   UNL     1      93.291  93.744  76.700  1.00  0.00     0.220 C 
ATOM      3  N   UNL     1      94.654  93.736  76.690  1.00  0.00    -0.352 N 
ATOM      4  H   UNL     1      95.078  94.341  76.001  1.00  0.00     0.163 HD
ATOM      5  O   UNL     1      92.636  92.956  77.424  1.00  0.00    -0.275 OA
BRANCH   3   6
ATOM      6  C   UNL     1      95.478  92.957  77.558  1.00  0.00     0.151 C 
BRANCH   6   7
ATOM      7  C   UNL     1      95.803  93.652  78.833  1.00  0.00    -0.025 A 
ATOM      8  C   UNL     1      96.410  95.701  80.050  1.00  0.00     0.160 A 
ATOM      9  C   UNL     1      96.357  94.991  81.268  1.00  0.00     0.157 A 
ATOM     10  C   UNL     1      96.151  95.024  78.839  1.00  0.00     0.056 A 
ATOM     11  C   UNL     1      96.038  93.621  81.271  1.00  0.00     0.050 A 
ATOM     12  C   UNL     1      95.757  92.957  80.064  1.00  0.00     0.009 A 
BRANCH   8  13
ATOM     13  O   UNL     1      96.738  97.031  80.023  1.00  0.00    -0.493 OA
ATOM     14  C   UNL     1      97.506  97.418  78.867  1.00  0.00     0.278 C 
ENDBRANCH   8  13
BRANCH   9  15
ATOM     15  O   UNL     1      96.606  95.632  82.437  1.00  0.00    -0.504 OA
ATOM     16  H   UNL     1      97.376  95.244  82.858  1.00  0.00     0.293 HD
ENDBRANCH   9  15
ENDBRANCH   6   7
ENDBRANCH   3   6
ENDBRANCH   1   2
BRANCH   1  17
ATOM     17  C   UNL     1      93.143  96.173  75.953  1.00  0.00     0.010 C 
BRANCH  17  18
ATOM     18  C   UNL     1      93.626  96.670  74.562  1.00  0.00     0.001 C 
BRANCH  18  19
ATOM     19  C   UNL     1      94.893  95.936  74.051  1.00  0.00     0.000 C 
BRANCH  19  20
ATOM     20  C   UNL     1      95.742  96.823  73.095  1.00  0.00     0.003 C 
BRANCH  20  21
ATOM     21  C   UNL     1      97.174  97.173  73.617  1.00  0.00    -0.017 C 
ATOM     22  C   UNL     1      97.136  97.568  75.123  1.00  0.00     0.007 C 
ATOM     23  C   UNL     1      97.862  98.296  72.787  1.00  0.00     0.007 C 
ENDBRANCH  20  21
ENDBRANCH  19  20
ENDBRANCH  18  19
ENDBRANCH  17  18
ENDBRANCH   1  17
TORSDOF 10
ENDMDL
