MODEL 1
REMARK VINA RESULT:    -6.914      0.000      0.000
REMARK INTER + INTRA:         -12.308
REMARK INTER:                 -11.764
REMARK INTRA:                  -0.543
REMARK UNBOUND:                -0.543
REMARK SMILES C=C(C)[C@]12C[C@@H](C)[C@@]34O[C@](Cc5ccccc5)(O[C@@H]1[C@@H]3C=C(COC(=O)Cc1ccc(O)cc1)C[C@]1(O)C(=O)C(C)=C[C@@H]41)O2
REMARK SMILES IDX 23 1 22 2 21 3 20 4 9 5 8 6 10 7 6 8 18 10 44 11 19 12 5 13
REMARK SMILES IDX 7 14 4 15 11 16 12 17 13 18 17 19 14 20 16 21 15 22 2 23
REMARK SMILES IDX 3 24 1 25 35 26 36 27 43 28 38 29 42 30 39 32 40 33 41 34
REMARK SMILES IDX 37 35 24 37 25 38 26 39 27 40 28 41 29 42 34 43 30 44 33 45
REMARK SMILES IDX 31 46 32 47
REMARK H PARENT 37 36 32 48
REMARK Flexibility Score: 90.00
ROOT
ATOM      1  C   UNL     1      95.903  95.638  81.732  1.00  0.00     0.264 C 
ENDROOT
BRANCH   1   2
ATOM      2  C   UNL     1      96.785  96.833  82.010  1.00  0.00    -0.033 C 
ATOM      3  C   UNL     1      96.290  98.074  81.826  1.00  0.00    -0.015 C 
BRANCH   3   4
ATOM      4  C   UNL     1      96.986  99.420  81.960  1.00  0.00     0.078 C 
ATOM      5  O   UNL     1      96.573 100.219  84.264  1.00  0.00    -0.319 OA
ATOM      6  C   UNL     1      97.629  99.796  83.345  1.00  0.00     0.095 CG0
ATOM      7  C   UNL     1      95.571 101.082  83.693  1.00  0.00     0.289 C 
ATOM      8  C   UNL     1      98.624 101.004  83.100  1.00  0.00     0.023 C 
ATOM      9  G   UNL     1      98.254  98.542  84.023  1.00  0.00     0.000 G0
ATOM     10  O   UNL     1      94.938 100.472  82.572  1.00  0.00    -0.320 OA
ATOM     11  O   UNL     1      96.121 102.304  83.207  1.00  0.00    -0.313 OA
ATOM     12  C   UNL     1      95.998 100.559  81.607  1.00  0.00     0.170 C 
ATOM     13  C   UNL     1      98.116 101.941  81.961  1.00  0.00     0.049 C 
ATOM     14  C   UNL     1      98.960 101.846  84.342  1.00  0.00     0.011 C 
ATOM     15  C   UNL     1      96.589 101.963  81.885  1.00  0.00     0.122 C 
BRANCH   7  16
ATOM     16  C   UNL     1      94.540 101.384  84.763  1.00  0.00     0.135 C 
BRANCH  16  17
ATOM     17  C   UNL     1      93.807 102.674  84.494  1.00  0.00    -0.040 A 
ATOM     18  C   UNL     1      92.862 102.740  83.471  1.00  0.00     0.004 A 
ATOM     19  C   UNL     1      94.073 103.802  85.271  1.00  0.00     0.004 A 
ATOM     20  C   UNL     1      92.183 103.934  83.223  1.00  0.00     0.000 A 
ATOM     21  C   UNL     1      93.394 104.995  85.023  1.00  0.00     0.000 A 
ATOM     22  C   UNL     1      92.450 105.061  83.999  1.00  0.00     0.000 A 
ENDBRANCH  16  17
ENDBRANCH   7  16
BRANCH  15  23
ATOM     23  C   UNL     1      96.077 102.988  80.926  1.00  0.00    -0.046 C 
ATOM     24  C   UNL     1      95.399 102.463  79.696  1.00  0.00     0.042 C 
ATOM     25  C   UNL     1      96.216 104.303  81.152  1.00  0.00     0.010 C 
ENDBRANCH  15  23
ENDBRANCH   3   4
BRANCH   2  26
ATOM     26  C   UNL     1      98.173  96.450  82.489  1.00  0.00     0.078 C 
BRANCH  26  27
ATOM     27  C   UNL     1      99.043  97.563  83.069  1.00  0.00     0.140 C 
ATOM     28  C   UNL     1      98.245  98.505  83.994  1.00  0.00     0.086 CG0
ATOM     29  C   UNL     1     100.121  97.036  83.992  1.00  0.00     0.190 C 
ATOM     30  C   UNL     1      99.139  98.655  85.194  1.00  0.00    -0.010 C 
ATOM     31  G   UNL     1      97.644  99.776  83.326  1.00  0.00     0.000 G0
ATOM     32  O   UNL     1     100.881  96.113  83.739  1.00  0.00    -0.291 OA
ATOM     33  C   UNL     1     100.185  97.825  85.237  1.00  0.00    -0.008 C 
ATOM     34  C   UNL     1     101.209  97.637  86.285  1.00  0.00     0.048 C 
BRANCH  27  35
ATOM     35  O   UNL     1      99.768  98.237  82.053  1.00  0.00    -0.381 OA
ATOM     36  H   UNL     1     100.548  97.703  81.828  1.00  0.00     0.212 HD
ENDBRANCH  27  35
ENDBRANCH  26  27
ENDBRANCH   2  26
ENDBRANCH   1   2
BRANCH   1  37
ATOM     37  O   UNL     1      95.955  95.329  80.356  1.00  0.00    -0.461 OA
BRANCH  37  38
ATOM     38  C   UNL     1      95.505  94.079  79.996  1.00  0.00     0.310 C 
ATOM     39  O   UNL     1      95.265  93.168  80.775  1.00  0.00    -0.252 OA
BRANCH  38  40
ATOM     40  C   UNL     1      95.356  94.011  78.495  1.00  0.00     0.158 C 
BRANCH  40  41
ATOM     41  C   UNL     1      93.941  94.250  78.034  1.00  0.00    -0.037 A 
ATOM     42  C   UNL     1      93.625  95.412  77.329  1.00  0.00     0.008 A 
ATOM     43  C   UNL     1      92.948  93.312  78.312  1.00  0.00     0.008 A 
ATOM     44  C   UNL     1      92.315  95.634  76.902  1.00  0.00     0.046 A 
ATOM     45  C   UNL     1      91.638  93.533  77.885  1.00  0.00     0.046 A 
ATOM     46  C   UNL     1      91.322  94.694  77.181  1.00  0.00     0.115 A 
BRANCH  46  47
ATOM     47  O   UNL     1      90.044  94.912  76.765  1.00  0.00    -0.508 OA
ATOM     48  H   UNL     1      89.445  94.339  77.275  1.00  0.00     0.293 HD
ENDBRANCH  46  47
ENDBRANCH  40  41
ENDBRANCH  38  40
ENDBRANCH  37  38
ENDBRANCH   1  37
TORSDOF 10
ENDMDL
MODEL 2
REMARK VINA RESULT:    -6.871     27.038     30.170
REMARK INTER + INTRA:         -12.235
REMARK INTER:                 -10.755
REMARK INTRA:                  -1.480
REMARK UNBOUND:                -0.543
REMARK SMILES C=C(C)[C@]12C[C@@H](C)[C@@]34O[C@](Cc5ccccc5)(O[C@@H]1[C@@H]3C=C(COC(=O)Cc1ccc(O)cc1)C[C@]1(O)C(=O)C(C)=C[C@@H]41)O2
REMARK SMILES IDX 23 1 22 2 21 3 20 4 9 5 8 6 10 7 6 8 18 10 44 11 19 12 5 13
REMARK SMILES IDX 7 14 4 15 11 16 12 17 13 18 17 19 14 20 16 21 15 22 2 23
REMARK SMILES IDX 3 24 1 25 35 26 36 27 43 28 38 29 42 30 39 32 40 33 41 34
REMARK SMILES IDX 37 35 24 37 25 38 26 39 27 40 28 41 29 42 34 43 30 44 33 45
REMARK SMILES IDX 31 46 32 47
REMARK H PARENT 37 36 32 48
REMARK Flexibility Score: 90.00
ROOT
ATOM      1  C   UNL     1      71.788  89.979  70.453  1.00  0.00     0.264 C 
ENDROOT
BRANCH   1   2
ATOM      2  C   UNL     1      72.970  89.824  69.525  1.00  0.00    -0.033 C 
ATOM      3  C   UNL     1      73.484  88.594  69.314  1.00  0.00    -0.015 C 
BRANCH   3   4
ATOM      4  C   UNL     1      74.701  88.184  68.499  1.00  0.00     0.078 C 
ATOM      5  O   UNL     1      73.894  87.641  66.224  1.00  0.00    -0.319 OA
ATOM      6  C   UNL     1      74.743  88.566  66.973  1.00  0.00     0.095 CG0
ATOM      7  C   UNL     1      74.005  86.257  66.608  1.00  0.00     0.289 C 
ATOM      8  C   UNL     1      76.242  88.415  66.483  1.00  0.00     0.023 C 
ATOM      9  G   UNL     1      74.099  89.963  66.735  1.00  0.00     0.000 G0
ATOM     10  O   UNL     1      73.710  86.078  67.991  1.00  0.00    -0.320 OA
ATOM     11  O   UNL     1      75.323  85.747  66.426  1.00  0.00    -0.313 OA
ATOM     12  C   UNL     1      74.891  86.649  68.575  1.00  0.00     0.170 C 
ATOM     13  C   UNL     1      76.975  87.260  67.230  1.00  0.00     0.049 C 
ATOM     14  C   UNL     1      76.427  88.239  64.966  1.00  0.00     0.011 C 
ATOM     15  C   UNL     1      76.010  86.143  67.632  1.00  0.00     0.122 C 
BRANCH   7  16
ATOM     16  C   UNL     1      73.032  85.453  65.768  1.00  0.00     0.135 C 
BRANCH  16  17
ATOM     17  C   UNL     1      73.630  84.148  65.303  1.00  0.00    -0.040 A 
ATOM     18  C   UNL     1      73.244  82.951  65.905  1.00  0.00     0.004 A 
ATOM     19  C   UNL     1      74.569  84.141  64.272  1.00  0.00     0.004 A 
ATOM     20  C   UNL     1      73.797  81.744  65.474  1.00  0.00     0.000 A 
ATOM     21  C   UNL     1      75.121  82.934  63.842  1.00  0.00     0.000 A 
ATOM     22  C   UNL     1      74.736  81.737  64.443  1.00  0.00     0.000 A 
ENDBRANCH  16  17
ENDBRANCH   7  16
BRANCH  15  23
ATOM     23  C   UNL     1      76.714  84.948  68.186  1.00  0.00    -0.046 C 
ATOM     24  C   UNL     1      76.424  84.614  69.619  1.00  0.00     0.042 C 
ATOM     25  C   UNL     1      77.557  84.214  67.444  1.00  0.00     0.010 C 
ENDBRANCH  15  23
ENDBRANCH   3   4
BRANCH   2  26
ATOM     26  C   UNL     1      73.434  91.138  68.925  1.00  0.00     0.078 C 
BRANCH  26  27
ATOM     27  C   UNL     1      74.445  91.065  67.783  1.00  0.00     0.140 C 
ATOM     28  C   UNL     1      74.090  89.967  66.758  1.00  0.00     0.086 CG0
ATOM     29  C   UNL     1      74.447  92.316  66.930  1.00  0.00     0.190 C 
ATOM     30  C   UNL     1      74.265  90.655  65.433  1.00  0.00    -0.010 C 
ATOM     31  G   UNL     1      74.749  88.576  66.989  1.00  0.00     0.000 G0
ATOM     32  O   UNL     1      74.501  93.461  67.353  1.00  0.00    -0.291 OA
ATOM     33  C   UNL     1      74.439  91.978  65.494  1.00  0.00    -0.008 C 
ATOM     34  C   UNL     1      74.559  92.973  64.408  1.00  0.00     0.048 C 
BRANCH  27  35
ATOM     35  O   UNL     1      75.774  90.985  68.270  1.00  0.00    -0.381 OA
ATOM     36  H   UNL     1      75.849  90.191  68.826  1.00  0.00     0.212 HD
ENDBRANCH  27  35
ENDBRANCH  26  27
ENDBRANCH   2  26
ENDBRANCH   1   2
BRANCH   1  37
ATOM     37  O   UNL     1      70.670  90.423  69.713  1.00  0.00    -0.461 OA
BRANCH  37  38
ATOM     38  C   UNL     1      69.582  89.580  69.692  1.00  0.00     0.310 C 
ATOM     39  O   UNL     1      68.802  89.417  70.620  1.00  0.00    -0.252 OA
BRANCH  38  40
ATOM     40  C   UNL     1      69.504  88.893  68.350  1.00  0.00     0.158 C 
BRANCH  40  41
ATOM     41  C   UNL     1      69.344  87.399  68.464  1.00  0.00    -0.037 A 
ATOM     42  C   UNL     1      68.162  86.790  68.040  1.00  0.00     0.008 A 
ATOM     43  C   UNL     1      70.376  86.624  68.992  1.00  0.00     0.008 A 
ATOM     44  C   UNL     1      68.013  85.407  68.146  1.00  0.00     0.046 A 
ATOM     45  C   UNL     1      70.228  85.241  69.098  1.00  0.00     0.046 A 
ATOM     46  C   UNL     1      69.047  84.632  68.675  1.00  0.00     0.115 A 
BRANCH  46  47
ATOM     47  O   UNL     1      68.901  83.283  68.778  1.00  0.00    -0.508 OA
ATOM     48  H   UNL     1      68.849  82.902  67.885  1.00  0.00     0.293 HD
ENDBRANCH  46  47
ENDBRANCH  40  41
ENDBRANCH  38  40
ENDBRANCH  37  38
ENDBRANCH   1  37
TORSDOF 10
ENDMDL
MODEL 3
REMARK VINA RESULT:    -6.750      8.041     11.911
REMARK INTER + INTRA:         -12.029
REMARK INTER:                 -11.319
REMARK INTRA:                  -0.710
REMARK UNBOUND:                -0.543
REMARK SMILES C=C(C)[C@]12C[C@@H](C)[C@@]34O[C@](Cc5ccccc5)(O[C@@H]1[C@@H]3C=C(COC(=O)Cc1ccc(O)cc1)C[C@]1(O)C(=O)C(C)=C[C@@H]41)O2
REMARK SMILES IDX 23 1 22 2 21 3 20 4 9 5 8 6 10 7 6 8 18 10 44 11 19 12 5 13
REMARK SMILES IDX 7 14 4 15 11 16 12 17 13 18 17 19 14 20 16 21 15 22 2 23
REMARK SMILES IDX 3 24 1 25 35 26 36 27 43 28 38 29 42 30 39 32 40 33 41 34
REMARK SMILES IDX 37 35 24 37 25 38 26 39 27 40 28 41 29 42 34 43 30 44 33 45
REMARK SMILES IDX 31 46 32 47
REMARK H PARENT 37 36 32 48
REMARK Flexibility Score: 90.00
ROOT
ATOM      1  C   UNL     1      92.952 102.131  72.360  1.00  0.00     0.264 C 
ENDROOT
BRANCH   1   2
ATOM      2  C   UNL     1      94.299 101.473  72.170  1.00  0.00    -0.033 C 
ATOM      3  C   UNL     1      94.796 100.693  73.152  1.00  0.00    -0.015 C 
BRANCH   3   4
ATOM      4  C   UNL     1      96.141  99.989  73.239  1.00  0.00     0.078 C 
ATOM      5  O   UNL     1      95.821  97.711  72.330  1.00  0.00    -0.319 OA
ATOM      6  C   UNL     1      96.527  98.971  72.103  1.00  0.00     0.095 CG0
ATOM      7  C   UNL     1      95.788  97.262  73.699  1.00  0.00     0.289 C 
ATOM      8  C   UNL     1      98.089  98.720  72.195  1.00  0.00     0.023 C 
ATOM      9  G   UNL     1      96.009  99.462  70.720  1.00  0.00     0.000 G0
ATOM     10  O   UNL     1      95.196  98.239  74.550  1.00  0.00    -0.320 OA
ATOM     11  O   UNL     1      97.093  97.033  74.226  1.00  0.00    -0.313 OA
ATOM     12  C   UNL     1      96.246  99.218  74.578  1.00  0.00     0.170 C 
ATOM     13  C   UNL     1      98.594  98.792  73.668  1.00  0.00     0.049 C 
ATOM     14  C   UNL     1      98.588  97.417  71.548  1.00  0.00     0.011 C 
ATOM     15  C   UNL     1      97.519  98.341  74.658  1.00  0.00     0.122 C 
BRANCH   7  16
ATOM     16  C   UNL     1      94.987  95.977  73.758  1.00  0.00     0.135 C 
BRANCH  16  17
ATOM     17  C   UNL     1      94.381  95.749  75.120  1.00  0.00    -0.040 A 
ATOM     18  C   UNL     1      95.188  95.352  76.185  1.00  0.00     0.004 A 
ATOM     19  C   UNL     1      93.012  95.936  75.312  1.00  0.00     0.004 A 
ATOM     20  C   UNL     1      94.626  95.143  77.446  1.00  0.00     0.000 A 
ATOM     21  C   UNL     1      92.451  95.726  76.573  1.00  0.00     0.000 A 
ATOM     22  C   UNL     1      93.258  95.329  77.638  1.00  0.00     0.000 A 
ENDBRANCH  16  17
ENDBRANCH   7  16
BRANCH  15  23
ATOM     23  C   UNL     1      98.037  98.229  76.055  1.00  0.00    -0.046 C 
ATOM     24  C   UNL     1      97.499  99.223  77.042  1.00  0.00     0.042 C 
ATOM     25  C   UNL     1      98.931  97.294  76.408  1.00  0.00     0.010 C 
ENDBRANCH  15  23
ENDBRANCH   3   4
BRANCH   2  26
ATOM     26  C   UNL     1      94.933 101.790  70.829  1.00  0.00     0.078 C 
BRANCH  26  27
ATOM     27  C   UNL     1      96.181 100.999  70.442  1.00  0.00     0.140 C 
ATOM     28  C   UNL     1      96.018  99.487  70.706  1.00  0.00     0.086 CG0
ATOM     29  C   UNL     1      96.455 101.040  68.953  1.00  0.00     0.190 C 
ATOM     30  C   UNL     1      96.540  98.853  69.447  1.00  0.00    -0.010 C 
ATOM     31  G   UNL     1      96.525  98.975  72.086  1.00  0.00     0.000 G0
ATOM     32  O   UNL     1      96.470 102.049  68.264  1.00  0.00    -0.291 OA
ATOM     33  C   UNL     1      96.768  99.695  68.435  1.00  0.00    -0.008 C 
ATOM     34  C   UNL     1      97.197  99.421  67.048  1.00  0.00     0.048 C 
BRANCH  27  35
ATOM     35  O   UNL     1      97.349 101.558  71.017  1.00  0.00    -0.381 OA
ATOM     36  H   UNL     1      98.079 100.925  70.907  1.00  0.00     0.212 HD
ENDBRANCH  27  35
ENDBRANCH  26  27
ENDBRANCH   2  26
ENDBRANCH   1   2
BRANCH   1  37
ATOM     37  O   UNL     1      91.933 101.171  72.178  1.00  0.00    -0.461 OA
BRANCH  37  38
ATOM     38  C   UNL     1      90.830 101.583  71.467  1.00  0.00     0.310 C 
ATOM     39  O   UNL     1      90.643 102.720  71.057  1.00  0.00    -0.252 OA
BRANCH  38  40
ATOM     40  C   UNL     1      89.891 100.417  71.272  1.00  0.00     0.158 C 
BRANCH  40  41
ATOM     41  C   UNL     1      89.881  99.900  69.857  1.00  0.00    -0.037 A 
ATOM     42  C   UNL     1      89.378 100.696  68.827  1.00  0.00     0.008 A 
ATOM     43  C   UNL     1      90.373  98.626  69.575  1.00  0.00     0.008 A 
ATOM     44  C   UNL     1      89.368 100.217  67.517  1.00  0.00     0.046 A 
ATOM     45  C   UNL     1      90.364  98.147  68.265  1.00  0.00     0.046 A 
ATOM     46  C   UNL     1      89.861  98.943  67.236  1.00  0.00     0.115 A 
BRANCH  46  47
ATOM     47  O   UNL     1      89.850  98.476  65.958  1.00  0.00    -0.508 OA
ATOM     48  H   UNL     1      90.766  98.308  65.675  1.00  0.00     0.293 HD
ENDBRANCH  46  47
ENDBRANCH  40  41
ENDBRANCH  38  40
ENDBRANCH  37  38
ENDBRANCH   1  37
TORSDOF 10
ENDMDL
MODEL 4
REMARK VINA RESULT:    -6.746     16.476     19.582
REMARK INTER + INTRA:         -12.022
REMARK INTER:                 -11.062
REMARK INTRA:                  -0.960
REMARK UNBOUND:                -0.543
REMARK SMILES C=C(C)[C@]12C[C@@H](C)[C@@]34O[C@](Cc5ccccc5)(O[C@@H]1[C@@H]3C=C(COC(=O)Cc1ccc(O)cc1)C[C@]1(O)C(=O)C(C)=C[C@@H]41)O2
REMARK SMILES IDX 23 1 22 2 21 3 20 4 9 5 8 6 10 7 6 8 18 10 44 11 19 12 5 13
REMARK SMILES IDX 7 14 4 15 11 16 12 17 13 18 17 19 14 20 16 21 15 22 2 23
REMARK SMILES IDX 3 24 1 25 35 26 36 27 43 28 38 29 42 30 39 32 40 33 41 34
REMARK SMILES IDX 37 35 24 37 25 38 26 39 27 40 28 41 29 42 34 43 30 44 33 45
REMARK SMILES IDX 31 46 32 47
REMARK H PARENT 37 36 32 48
REMARK Flexibility Score: 90.00
ROOT
ATOM      1  C   UNL     1      96.360  82.247  84.124  1.00  0.00     0.264 C 
ENDROOT
BRANCH   1   2
ATOM      2  C   UNL     1      95.225  82.509  85.087  1.00  0.00    -0.033 C 
ATOM      3  C   UNL     1      94.044  81.884  84.899  1.00  0.00    -0.015 C 
BRANCH   3   4
ATOM      4  C   UNL     1      92.742  82.031  85.669  1.00  0.00     0.078 C 
ATOM      5  O   UNL     1      92.755  80.308  87.443  1.00  0.00    -0.319 OA
ATOM      6  C   UNL     1      92.752  81.752  87.217  1.00  0.00     0.095 CG0
ATOM      7  C   UNL     1      91.870  79.551  86.596  1.00  0.00     0.289 C 
ATOM      8  C   UNL     1      91.428  82.374  87.826  1.00  0.00     0.023 C 
ATOM      9  G   UNL     1      94.080  82.248  87.860  1.00  0.00     0.000 G0
ATOM     10  O   UNL     1      92.163  79.765  85.218  1.00  0.00    -0.320 OA
ATOM     11  O   UNL     1      90.505  79.928  86.762  1.00  0.00    -0.313 OA
ATOM     12  C   UNL     1      91.663  81.102  85.060  1.00  0.00     0.170 C 
ATOM     13  C   UNL     1      90.241  82.292  86.817  1.00  0.00     0.049 C 
ATOM     14  C   UNL     1      90.986  81.794  89.180  1.00  0.00     0.011 C 
ATOM     15  C   UNL     1      90.362  81.075  85.899  1.00  0.00     0.122 C 
BRANCH   7  16
ATOM     16  C   UNL     1      92.032  78.082  86.932  1.00  0.00     0.135 C 
BRANCH  16  17
ATOM     17  C   UNL     1      90.786  77.289  86.624  1.00  0.00    -0.040 A 
ATOM     18  C   UNL     1      90.559  76.823  85.329  1.00  0.00     0.004 A 
ATOM     19  C   UNL     1      89.863  77.022  87.634  1.00  0.00     0.004 A 
ATOM     20  C   UNL     1      89.406  76.090  85.044  1.00  0.00     0.000 A 
ATOM     21  C   UNL     1      88.711  76.289  87.349  1.00  0.00     0.000 A 
ATOM     22  C   UNL     1      88.483  75.823  86.055  1.00  0.00     0.000 A 
ENDBRANCH  16  17
ENDBRANCH   7  16
BRANCH  15  23
ATOM     23  C   UNL     1      89.150  80.874  85.049  1.00  0.00    -0.046 C 
ATOM     24  C   UNL     1      88.881  81.932  84.019  1.00  0.00     0.042 C 
ATOM     25  C   UNL     1      88.347  79.810  85.198  1.00  0.00     0.010 C 
ENDBRANCH  15  23
ENDBRANCH   3   4
BRANCH   2  26
ATOM     26  C   UNL     1      95.594  83.481  86.192  1.00  0.00     0.078 C 
BRANCH  26  27
ATOM     27  C   UNL     1      94.600  83.641  87.341  1.00  0.00     0.140 C 
ATOM     28  C   UNL     1      94.079  82.282  87.855  1.00  0.00     0.086 CG0
ATOM     29  C   UNL     1      95.237  84.233  88.581  1.00  0.00     0.190 C 
ATOM     30  C   UNL     1      94.177  82.412  89.349  1.00  0.00    -0.010 C 
ATOM     31  G   UNL     1      92.753  81.772  87.218  1.00  0.00     0.000 G0
ATOM     32  O   UNL     1      95.943  85.231  88.606  1.00  0.00    -0.291 OA
ATOM     33  C   UNL     1      94.847  83.482  89.788  1.00  0.00    -0.008 C 
ATOM     34  C   UNL     1      95.205  83.881  91.165  1.00  0.00     0.048 C 
BRANCH  27  35
ATOM     35  O   UNL     1      93.573  84.562  87.015  1.00  0.00    -0.381 OA
ATOM     36  H   UNL     1      93.225  84.334  86.136  1.00  0.00     0.212 HD
ENDBRANCH  27  35
ENDBRANCH  26  27
ENDBRANCH   2  26
ENDBRANCH   1   2
BRANCH   1  37
ATOM     37  O   UNL     1      96.974  81.018  84.449  1.00  0.00    -0.461 OA
BRANCH  37  38
ATOM     38  C   UNL     1      97.536  80.324  83.403  1.00  0.00     0.310 C 
ATOM     39  O   UNL     1      98.702  79.959  83.347  1.00  0.00    -0.252 OA
BRANCH  38  40
ATOM     40  C   UNL     1      96.492  80.085  82.338  1.00  0.00     0.158 C 
BRANCH  40  41
ATOM     41  C   UNL     1      96.978  80.421  80.952  1.00  0.00    -0.037 A 
ATOM     42  C   UNL     1      97.439  79.408  80.110  1.00  0.00     0.008 A 
ATOM     43  C   UNL     1      96.969  81.743  80.510  1.00  0.00     0.008 A 
ATOM     44  C   UNL     1      97.890  79.719  78.827  1.00  0.00     0.046 A 
ATOM     45  C   UNL     1      97.420  82.054  79.227  1.00  0.00     0.046 A 
ATOM     46  C   UNL     1      97.880  81.042  78.386  1.00  0.00     0.115 A 
BRANCH  46  47
ATOM     47  O   UNL     1      98.321  81.345  77.134  1.00  0.00    -0.508 OA
ATOM     48  H   UNL     1      97.590  81.745  76.631  1.00  0.00     0.293 HD
ENDBRANCH  46  47
ENDBRANCH  40  41
ENDBRANCH  38  40
ENDBRANCH  37  38
ENDBRANCH   1  37
TORSDOF 10
ENDMDL
MODEL 5
REMARK VINA RESULT:    -6.523     28.317     33.407
REMARK INTER + INTRA:         -11.641
REMARK INTER:                 -11.229
REMARK INTRA:                  -0.412
REMARK UNBOUND:                -0.543
REMARK SMILES C=C(C)[C@]12C[C@@H](C)[C@@]34O[C@](Cc5ccccc5)(O[C@@H]1[C@@H]3C=C(COC(=O)Cc1ccc(O)cc1)C[C@]1(O)C(=O)C(C)=C[C@@H]41)O2
REMARK SMILES IDX 23 1 22 2 21 3 20 4 9 5 8 6 10 7 6 8 18 10 44 11 19 12 5 13
REMARK SMILES IDX 7 14 4 15 11 16 12 17 13 18 17 19 14 20 16 21 15 22 2 23
REMARK SMILES IDX 3 24 1 25 35 26 36 27 43 28 38 29 42 30 39 32 40 33 41 34
REMARK SMILES IDX 37 35 24 37 25 38 26 39 27 40 28 41 29 42 34 43 30 44 33 45
REMARK SMILES IDX 31 46 32 47
REMARK H PARENT 37 36 32 48
REMARK Flexibility Score: 90.00
ROOT
ATOM      1  C   UNL     1      68.693  84.780  70.620  1.00  0.00     0.264 C 
ENDROOT
BRANCH   1   2
ATOM      2  C   UNL     1      69.178  85.219  69.258  1.00  0.00    -0.033 C 
ATOM      3  C   UNL     1      70.359  85.865  69.155  1.00  0.00    -0.015 C 
BRANCH   3   4
ATOM      4  C   UNL     1      71.025  86.468  67.929  1.00  0.00     0.078 C 
ATOM      5  O   UNL     1      72.507  84.729  66.985  1.00  0.00    -0.319 OA
ATOM      6  C   UNL     1      71.320  85.532  66.700  1.00  0.00     0.095 CG0
ATOM      7  C   UNL     1      73.595  85.438  67.608  1.00  0.00     0.289 C 
ATOM      8  C   UNL     1      71.603  86.460  65.448  1.00  0.00     0.023 C 
ATOM      9  G   UNL     1      70.181  84.488  66.514  1.00  0.00     0.000 G0
ATOM     10  O   UNL     1      73.187  86.040  68.833  1.00  0.00    -0.320 OA
ATOM     11  O   UNL     1      74.081  86.506  66.798  1.00  0.00    -0.313 OA
ATOM     12  C   UNL     1      72.376  87.112  68.329  1.00  0.00     0.170 C 
ATOM     13  C   UNL     1      72.306  87.788  65.867  1.00  0.00     0.049 C 
ATOM     14  C   UNL     1      72.395  85.804  64.304  1.00  0.00     0.011 C 
ATOM     15  C   UNL     1      73.187  87.597  67.102  1.00  0.00     0.122 C 
BRANCH   7  16
ATOM     16  C   UNL     1      74.717  84.453  67.869  1.00  0.00     0.135 C 
BRANCH  16  17
ATOM     17  C   UNL     1      75.045  83.631  66.647  1.00  0.00    -0.040 A 
ATOM     18  C   UNL     1      76.140  83.969  65.853  1.00  0.00     0.004 A 
ATOM     19  C   UNL     1      74.252  82.534  66.313  1.00  0.00     0.004 A 
ATOM     20  C   UNL     1      76.443  83.208  64.723  1.00  0.00     0.000 A 
ATOM     21  C   UNL     1      74.555  81.773  65.183  1.00  0.00     0.000 A 
ATOM     22  C   UNL     1      75.650  82.111  64.389  1.00  0.00     0.000 A 
ENDBRANCH  16  17
ENDBRANCH   7  16
BRANCH  15  23
ATOM     23  C   UNL     1      74.008  88.805  67.414  1.00  0.00    -0.046 C 
ATOM     24  C   UNL     1      74.422  89.645  66.241  1.00  0.00     0.042 C 
ATOM     25  C   UNL     1      74.356  89.122  68.670  1.00  0.00     0.010 C 
ENDBRANCH  15  23
ENDBRANCH   3   4
BRANCH   2  26
ATOM     26  C   UNL     1      68.226  84.847  68.137  1.00  0.00     0.078 C 
BRANCH  26  27
ATOM     27  C   UNL     1      68.726  85.031  66.706  1.00  0.00     0.140 C 
ATOM     28  C   UNL     1      70.158  84.491  66.514  1.00  0.00     0.086 CG0
ATOM     29  C   UNL     1      67.934  84.215  65.706  1.00  0.00     0.190 C 
ATOM     30  C   UNL     1      70.068  83.705  65.236  1.00  0.00    -0.010 C 
ATOM     31  G   UNL     1      71.310  85.522  66.697  1.00  0.00     0.000 G0
ATOM     32  O   UNL     1      66.715  84.173  65.633  1.00  0.00    -0.291 OA
ATOM     33  C   UNL     1      68.831  83.508  64.771  1.00  0.00    -0.008 C 
ATOM     34  C   UNL     1      68.365  82.727  63.607  1.00  0.00     0.048 C 
BRANCH  27  35
ATOM     35  O   UNL     1      68.554  86.367  66.264  1.00  0.00    -0.381 OA
ATOM     36  H   UNL     1      69.372  86.652  65.823  1.00  0.00     0.212 HD
ENDBRANCH  27  35
ENDBRANCH  26  27
ENDBRANCH   2  26
ENDBRANCH   1   2
BRANCH   1  37
ATOM     37  O   UNL     1      68.242  85.908  71.340  1.00  0.00    -0.461 OA
BRANCH  37  38
ATOM     38  C   UNL     1      67.048  85.764  72.009  1.00  0.00     0.310 C 
ATOM     39  O   UNL     1      66.912  85.821  73.223  1.00  0.00    -0.252 OA
BRANCH  38  40
ATOM     40  C   UNL     1      65.938  85.525  71.013  1.00  0.00     0.158 C 
BRANCH  40  41
ATOM     41  C   UNL     1      65.051  84.366  71.388  1.00  0.00    -0.037 A 
ATOM     42  C   UNL     1      64.083  84.522  72.380  1.00  0.00     0.008 A 
ATOM     43  C   UNL     1      65.198  83.138  70.745  1.00  0.00     0.008 A 
ATOM     44  C   UNL     1      63.262  83.448  72.728  1.00  0.00     0.046 A 
ATOM     45  C   UNL     1      64.377  82.065  71.092  1.00  0.00     0.046 A 
ATOM     46  C   UNL     1      63.410  82.220  72.084  1.00  0.00     0.115 A 
BRANCH  46  47
ATOM     47  O   UNL     1      62.609  81.173  72.423  1.00  0.00    -0.508 OA
ATOM     48  H   UNL     1      63.111  80.564  72.993  1.00  0.00     0.293 HD
ENDBRANCH  46  47
ENDBRANCH  40  41
ENDBRANCH  38  40
ENDBRANCH  37  38
ENDBRANCH   1  37
TORSDOF 10
ENDMDL
MODEL 6
REMARK VINA RESULT:    -6.491      4.436      7.258
REMARK INTER + INTRA:         -11.588
REMARK INTER:                 -10.188
REMARK INTRA:                  -1.400
REMARK UNBOUND:                -0.543
REMARK SMILES C=C(C)[C@]12C[C@@H](C)[C@@]34O[C@](Cc5ccccc5)(O[C@@H]1[C@@H]3C=C(COC(=O)Cc1ccc(O)cc1)C[C@]1(O)C(=O)C(C)=C[C@@H]41)O2
REMARK SMILES IDX 23 1 22 2 21 3 20 4 9 5 8 6 10 7 6 8 18 10 44 11 19 12 5 13
REMARK SMILES IDX 7 14 4 15 11 16 12 17 13 18 17 19 14 20 16 21 15 22 2 23
REMARK SMILES IDX 3 24 1 25 35 26 36 27 43 28 38 29 42 30 39 32 40 33 41 34
REMARK SMILES IDX 37 35 24 37 25 38 26 39 27 40 28 41 29 42 34 43 30 44 33 45
REMARK SMILES IDX 31 46 32 47
REMARK H PARENT 37 36 32 48
REMARK Flexibility Score: 90.00
ROOT
ATOM      1  C   UNL     1      97.783  94.387  79.942  1.00  0.00     0.264 C 
ENDROOT
BRANCH   1   2
ATOM      2  C   UNL     1      98.256  95.792  79.648  1.00  0.00    -0.033 C 
ATOM      3  C   UNL     1      98.558  96.133  78.378  1.00  0.00    -0.015 C 
BRANCH   3   4
ATOM      4  C   UNL     1      99.119  97.439  77.837  1.00  0.00     0.078 C 
ATOM      5  O   UNL     1      97.188  98.822  77.148  1.00  0.00    -0.319 OA
ATOM      6  C   UNL     1      98.307  98.763  78.086  1.00  0.00     0.095 CG0
ATOM      7  C   UNL     1      97.497  98.428  75.797  1.00  0.00     0.289 C 
ATOM      8  C   UNL     1      99.283  99.982  77.816  1.00  0.00     0.023 C 
ATOM      9  G   UNL     1      97.635  98.744  79.490  1.00  0.00     0.000 G0
ATOM     10  O   UNL     1      98.019  97.103  75.751  1.00  0.00    -0.320 OA
ATOM     11  O   UNL     1      98.494  99.256  75.205  1.00  0.00    -0.313 OA
ATOM     12  C   UNL     1      99.324  97.328  76.306  1.00  0.00     0.170 C 
ATOM     13  C   UNL     1     100.311  99.653  76.690  1.00  0.00     0.049 C 
ATOM     14  C   UNL     1      98.596 101.322  77.503  1.00  0.00     0.011 C 
ATOM     15  C   UNL     1      99.733  98.677  75.664  1.00  0.00     0.122 C 
BRANCH   7  16
ATOM     16  C   UNL     1      96.224  98.506  74.977  1.00  0.00     0.135 C 
BRANCH  16  17
ATOM     17  C   UNL     1      96.410  97.949  73.588  1.00  0.00    -0.040 A 
ATOM     18  C   UNL     1      97.305  98.554  72.707  1.00  0.00     0.004 A 
ATOM     19  C   UNL     1      95.685  96.827  73.186  1.00  0.00     0.004 A 
ATOM     20  C   UNL     1      97.477  98.037  71.422  1.00  0.00     0.000 A 
ATOM     21  C   UNL     1      95.857  96.310  71.901  1.00  0.00     0.000 A 
ATOM     22  C   UNL     1      96.752  96.915  71.020  1.00  0.00     0.000 A 
ENDBRANCH  16  17
ENDBRANCH   7  16
BRANCH  15  23
ATOM     23  C   UNL     1     100.630  98.488  74.484  1.00  0.00    -0.046 C 
ATOM     24  C   UNL     1     101.140  97.096  74.257  1.00  0.00     0.042 C 
ATOM     25  C   UNL     1     100.960  99.504  73.674  1.00  0.00     0.010 C 
ENDBRANCH  15  23
ENDBRANCH   3   4
BRANCH   2  26
ATOM     26  C   UNL     1      98.321  96.670  80.884  1.00  0.00     0.078 C 
BRANCH  26  27
ATOM     27  C   UNL     1      98.507  98.170  80.665  1.00  0.00     0.140 C 
ATOM     28  C   UNL     1      97.642  98.703  79.504  1.00  0.00     0.086 CG0
ATOM     29  C   UNL     1      98.018  98.992  81.839  1.00  0.00     0.190 C 
ATOM     30  C   UNL     1      97.030  99.954  80.069  1.00  0.00    -0.010 C 
ATOM     31  G   UNL     1      98.324  98.750  78.106  1.00  0.00     0.000 G0
ATOM     32  O   UNL     1      98.295  98.787  83.011  1.00  0.00    -0.291 OA
ATOM     33  C   UNL     1      97.199 100.131  81.383  1.00  0.00    -0.008 C 
ATOM     34  C   UNL     1      96.676 101.186  82.276  1.00  0.00     0.048 C 
BRANCH  27  35
ATOM     35  O   UNL     1      99.879  98.513  80.560  1.00  0.00    -0.381 OA
ATOM     36  H   UNL     1     100.354  98.108  81.306  1.00  0.00     0.212 HD
ENDBRANCH  27  35
ENDBRANCH  26  27
ENDBRANCH   2  26
ENDBRANCH   1   2
BRANCH   1  37
ATOM     37  O   UNL     1      96.407  94.415  80.255  1.00  0.00    -0.461 OA
BRANCH  37  38
ATOM     38  C   UNL     1      95.786  93.192  80.372  1.00  0.00     0.310 C 
ATOM     39  O   UNL     1      95.470  92.663  81.428  1.00  0.00    -0.252 OA
BRANCH  38  40
ATOM     40  C   UNL     1      95.557  92.610  78.997  1.00  0.00     0.158 C 
BRANCH  40  41
ATOM     41  C   UNL     1      94.647  93.455  78.145  1.00  0.00    -0.037 A 
ATOM     42  C   UNL     1      95.181  94.252  77.132  1.00  0.00     0.008 A 
ATOM     43  C   UNL     1      93.271  93.442  78.368  1.00  0.00     0.008 A 
ATOM     44  C   UNL     1      94.339  95.036  76.343  1.00  0.00     0.046 A 
ATOM     45  C   UNL     1      92.427  94.224  77.579  1.00  0.00     0.046 A 
ATOM     46  C   UNL     1      92.961  95.021  76.567  1.00  0.00     0.115 A 
BRANCH  46  47
ATOM     47  O   UNL     1      92.140  95.786  75.797  1.00  0.00    -0.508 OA
ATOM     48  H   UNL     1      92.673  96.455  75.334  1.00  0.00     0.293 HD
ENDBRANCH  46  47
ENDBRANCH  40  41
ENDBRANCH  38  40
ENDBRANCH  37  38
ENDBRANCH   1  37
TORSDOF 10
ENDMDL
MODEL 7
REMARK VINA RESULT:    -6.413     27.900     32.596
REMARK INTER + INTRA:         -11.455
REMARK INTER:                 -11.423
REMARK INTRA:                  -0.032
REMARK UNBOUND:                -0.543
REMARK SMILES C=C(C)[C@]12C[C@@H](C)[C@@]34O[C@](Cc5ccccc5)(O[C@@H]1[C@@H]3C=C(COC(=O)Cc1ccc(O)cc1)C[C@]1(O)C(=O)C(C)=C[C@@H]41)O2
REMARK SMILES IDX 23 1 22 2 21 3 20 4 9 5 8 6 10 7 6 8 18 10 44 11 19 12 5 13
REMARK SMILES IDX 7 14 4 15 11 16 12 17 13 18 17 19 14 20 16 21 15 22 2 23
REMARK SMILES IDX 3 24 1 25 35 26 36 27 43 28 38 29 42 30 39 32 40 33 41 34
REMARK SMILES IDX 37 35 24 37 25 38 26 39 27 40 28 41 29 42 34 43 30 44 33 45
REMARK SMILES IDX 31 46 32 47
REMARK H PARENT 37 36 32 48
REMARK Flexibility Score: 90.00
ROOT
ATOM      1  C   UNL     1      69.354  84.698  69.485  1.00  0.00     0.264 C 
ENDROOT
BRANCH   1   2
ATOM      2  C   UNL     1      69.969  85.020  68.142  1.00  0.00    -0.033 C 
ATOM      3  C   UNL     1      70.403  86.274  67.900  1.00  0.00    -0.015 C 
BRANCH   3   4
ATOM      4  C   UNL     1      70.981  86.866  66.624  1.00  0.00     0.078 C 
ATOM      5  O   UNL     1      73.439  86.631  66.770  1.00  0.00    -0.319 OA
ATOM      6  C   UNL     1      72.268  86.203  66.008  1.00  0.00     0.095 CG0
ATOM      7  C   UNL     1      73.465  88.027  67.124  1.00  0.00     0.289 C 
ATOM      8  C   UNL     1      72.401  86.712  64.513  1.00  0.00     0.023 C 
ATOM      9  G   UNL     1      72.233  84.657  66.186  1.00  0.00     0.000 G0
ATOM     10  O   UNL     1      72.312  88.392  67.877  1.00  0.00    -0.320 OA
ATOM     11  O   UNL     1      73.463  88.877  65.980  1.00  0.00    -0.313 OA
ATOM     12  C   UNL     1      71.316  88.362  66.843  1.00  0.00     0.170 C 
ATOM     13  C   UNL     1      71.872  88.171  64.357  1.00  0.00     0.049 C 
ATOM     14  C   UNL     1      73.809  86.613  63.904  1.00  0.00     0.011 C 
ATOM     15  C   UNL     1      72.065  88.983  65.639  1.00  0.00     0.122 C 
BRANCH   7  16
ATOM     16  C   UNL     1      74.715  88.285  67.942  1.00  0.00     0.135 C 
BRANCH  16  17
ATOM     17  C   UNL     1      75.294  87.013  68.509  1.00  0.00    -0.040 A 
ATOM     18  C   UNL     1      74.510  86.187  69.312  1.00  0.00     0.004 A 
ATOM     19  C   UNL     1      76.615  86.664  68.228  1.00  0.00     0.004 A 
ATOM     20  C   UNL     1      75.046  85.009  69.836  1.00  0.00     0.000 A 
ATOM     21  C   UNL     1      77.151  85.487  68.752  1.00  0.00     0.000 A 
ATOM     22  C   UNL     1      76.367  84.660  69.555  1.00  0.00     0.000 A 
ENDBRANCH  16  17
ENDBRANCH   7  16
BRANCH  15  23
ATOM     23  C   UNL     1      71.734  90.429  65.457  1.00  0.00    -0.046 C 
ATOM     24  C   UNL     1      72.889  91.340  65.161  1.00  0.00     0.042 C 
ATOM     25  C   UNL     1      70.477  90.886  65.554  1.00  0.00     0.010 C 
ENDBRANCH  15  23
ENDBRANCH   3   4
BRANCH   2  26
ATOM     26  C   UNL     1      70.023  83.824  67.210  1.00  0.00     0.078 C 
BRANCH  26  27
ATOM     27  C   UNL     1      70.852  83.971  65.935  1.00  0.00     0.140 C 
ATOM     28  C   UNL     1      72.213  84.648  66.197  1.00  0.00     0.086 CG0
ATOM     29  C   UNL     1      71.261  82.634  65.352  1.00  0.00     0.190 C 
ATOM     30  C   UNL     1      73.185  83.784  65.443  1.00  0.00    -0.010 C 
ATOM     31  G   UNL     1      72.258  86.192  66.008  1.00  0.00     0.000 G0
ATOM     32  O   UNL     1      70.513  81.687  65.160  1.00  0.00    -0.291 OA
ATOM     33  C   UNL     1      72.688  82.633  64.981  1.00  0.00    -0.008 C 
ATOM     34  C   UNL     1      73.360  81.520  64.278  1.00  0.00     0.048 C 
BRANCH  27  35
ATOM     35  O   UNL     1      70.101  84.577  64.896  1.00  0.00    -0.381 OA
ATOM     36  H   UNL     1      69.236  84.838  65.254  1.00  0.00     0.212 HD
ENDBRANCH  27  35
ENDBRANCH  26  27
ENDBRANCH   2  26
ENDBRANCH   1   2
BRANCH   1  37
ATOM     37  O   UNL     1      68.347  83.724  69.314  1.00  0.00    -0.461 OA
BRANCH  37  38
ATOM     38  C   UNL     1      67.058  84.195  69.212  1.00  0.00     0.310 C 
ATOM     39  O   UNL     1      66.354  84.104  68.217  1.00  0.00    -0.252 OA
BRANCH  38  40
ATOM     40  C   UNL     1      66.651  84.837  70.517  1.00  0.00     0.158 C 
BRANCH  40  41
ATOM     41  C   UNL     1      65.447  84.184  71.144  1.00  0.00    -0.037 A 
ATOM     42  C   UNL     1      64.993  82.955  70.666  1.00  0.00     0.008 A 
ATOM     43  C   UNL     1      64.786  84.808  72.201  1.00  0.00     0.008 A 
ATOM     44  C   UNL     1      63.877  82.350  71.246  1.00  0.00     0.046 A 
ATOM     45  C   UNL     1      63.670  84.204  72.782  1.00  0.00     0.046 A 
ATOM     46  C   UNL     1      63.216  82.976  72.304  1.00  0.00     0.115 A 
BRANCH  46  47
ATOM     47  O   UNL     1      62.127  82.386  72.869  1.00  0.00    -0.508 OA
ATOM     48  H   UNL     1      61.427  83.053  72.977  1.00  0.00     0.293 HD
ENDBRANCH  46  47
ENDBRANCH  40  41
ENDBRANCH  38  40
ENDBRANCH  37  38
ENDBRANCH   1  37
TORSDOF 10
ENDMDL
MODEL 8
REMARK VINA RESULT:    -6.246     15.902     19.954
REMARK INTER + INTRA:         -11.171
REMARK INTER:                  -8.962
REMARK INTRA:                  -2.208
REMARK UNBOUND:                -0.543
REMARK SMILES C=C(C)[C@]12C[C@@H](C)[C@@]34O[C@](Cc5ccccc5)(O[C@@H]1[C@@H]3C=C(COC(=O)Cc1ccc(O)cc1)C[C@]1(O)C(=O)C(C)=C[C@@H]41)O2
REMARK SMILES IDX 23 1 22 2 21 3 20 4 9 5 8 6 10 7 6 8 18 10 44 11 19 12 5 13
REMARK SMILES IDX 7 14 4 15 11 16 12 17 13 18 17 19 14 20 16 21 15 22 2 23
REMARK SMILES IDX 3 24 1 25 35 26 36 27 43 28 38 29 42 30 39 32 40 33 41 34
REMARK SMILES IDX 37 35 24 37 25 38 26 39 27 40 28 41 29 42 34 43 30 44 33 45
REMARK SMILES IDX 31 46 32 47
REMARK H PARENT 37 36 32 48
REMARK Flexibility Score: 90.00
ROOT
ATOM      1  C   UNL     1      96.094  81.703  83.320  1.00  0.00     0.264 C 
ENDROOT
BRANCH   1   2
ATOM      2  C   UNL     1      94.976  82.105  84.254  1.00  0.00    -0.033 C 
ATOM      3  C   UNL     1      93.860  81.348  84.309  1.00  0.00    -0.015 C 
BRANCH   3   4
ATOM      4  C   UNL     1      92.579  81.573  85.097  1.00  0.00     0.078 C 
ATOM      5  O   UNL     1      92.828  80.361  87.238  1.00  0.00    -0.319 OA
ATOM      6  C   UNL     1      92.675  81.695  86.662  1.00  0.00     0.095 CG0
ATOM      7  C   UNL     1      91.989  79.342  86.660  1.00  0.00     0.289 C 
ATOM      8  C   UNL     1      91.321  82.336  87.177  1.00  0.00     0.023 C 
ATOM      9  G   UNL     1      93.972  82.448  87.080  1.00  0.00     0.000 G0
ATOM     10  O   UNL     1      92.208  79.226  85.257  1.00  0.00    -0.320 OA
ATOM     11  O   UNL     1      90.601  79.632  86.811  1.00  0.00    -0.313 OA
ATOM     12  C   UNL     1      91.574  80.433  84.803  1.00  0.00     0.170 C 
ATOM     13  C   UNL     1      90.111  81.902  86.295  1.00  0.00     0.049 C 
ATOM     14  C   UNL     1      90.989  82.081  88.658  1.00  0.00     0.011 C 
ATOM     15  C   UNL     1      90.315  80.507  85.701  1.00  0.00     0.122 C 
BRANCH   7  16
ATOM     16  C   UNL     1      92.306  78.024  87.339  1.00  0.00     0.135 C 
BRANCH  16  17
ATOM     17  C   UNL     1      92.515  78.188  88.824  1.00  0.00    -0.040 A 
ATOM     18  C   UNL     1      93.793  78.063  89.367  1.00  0.00     0.004 A 
ATOM     19  C   UNL     1      91.428  78.465  89.653  1.00  0.00     0.004 A 
ATOM     20  C   UNL     1      93.985  78.215  90.741  1.00  0.00     0.000 A 
ATOM     21  C   UNL     1      91.621  78.617  91.026  1.00  0.00     0.000 A 
ATOM     22  C   UNL     1      92.899  78.492  91.570  1.00  0.00     0.000 A 
ENDBRANCH  16  17
ENDBRANCH   7  16
BRANCH  15  23
ATOM     23  C   UNL     1      89.096  79.997  85.003  1.00  0.00    -0.046 C 
ATOM     24  C   UNL     1      89.331  79.011  83.897  1.00  0.00     0.042 C 
ATOM     25  C   UNL     1      87.863  80.398  85.344  1.00  0.00     0.010 C 
ENDBRANCH  15  23
ENDBRANCH   3   4
BRANCH   2  26
ATOM     26  C   UNL     1      95.283  83.362  85.045  1.00  0.00     0.078 C 
BRANCH  26  27
ATOM     27  C   UNL     1      94.341  83.710  86.197  1.00  0.00     0.140 C 
ATOM     28  C   UNL     1      93.995  82.478  87.059  1.00  0.00     0.086 CG0
ATOM     29  C   UNL     1      94.977  84.644  87.204  1.00  0.00     0.190 C 
ATOM     30  C   UNL     1      94.159  82.980  88.467  1.00  0.00    -0.010 C 
ATOM     31  G   UNL     1      92.699  81.710  86.669  1.00  0.00     0.000 G0
ATOM     32  O   UNL     1      95.573  85.676  86.935  1.00  0.00    -0.291 OA
ATOM     33  C   UNL     1      94.734  84.181  88.583  1.00  0.00    -0.008 C 
ATOM     34  C   UNL     1      95.121  84.937  89.792  1.00  0.00     0.048 C 
BRANCH  27  35
ATOM     35  O   UNL     1      93.206  84.426  85.740  1.00  0.00    -0.381 OA
ATOM     36  H   UNL     1      92.516  84.374  86.423  1.00  0.00     0.212 HD
ENDBRANCH  27  35
ENDBRANCH  26  27
ENDBRANCH   2  26
ENDBRANCH   1   2
BRANCH   1  37
ATOM     37  O   UNL     1      96.046  80.309  83.106  1.00  0.00    -0.461 OA
BRANCH  37  38
ATOM     38  C   UNL     1      97.206  79.614  83.359  1.00  0.00     0.310 C 
ATOM     39  O   UNL     1      98.278  79.812  82.805  1.00  0.00    -0.252 OA
BRANCH  38  40
ATOM     40  C   UNL     1      96.949  78.575  84.423  1.00  0.00     0.158 C 
BRANCH  40  41
ATOM     41  C   UNL     1      97.244  79.072  85.814  1.00  0.00    -0.037 A 
ATOM     42  C   UNL     1      96.206  79.532  86.625  1.00  0.00     0.008 A 
ATOM     43  C   UNL     1      98.554  79.074  86.292  1.00  0.00     0.008 A 
ATOM     44  C   UNL     1      96.479  79.994  87.913  1.00  0.00     0.046 A 
ATOM     45  C   UNL     1      98.828  79.535  87.580  1.00  0.00     0.046 A 
ATOM     46  C   UNL     1      97.790  79.995  88.390  1.00  0.00     0.115 A 
BRANCH  46  47
ATOM     47  O   UNL     1      98.056  80.446  89.646  1.00  0.00    -0.508 OA
ATOM     48  H   UNL     1      97.459  80.003  90.274  1.00  0.00     0.293 HD
ENDBRANCH  46  47
ENDBRANCH  40  41
ENDBRANCH  38  40
ENDBRANCH  37  38
ENDBRANCH   1  37
TORSDOF 10
ENDMDL
MODEL 9
REMARK VINA RESULT:    -6.215      7.022     10.574
REMARK INTER + INTRA:         -11.118
REMARK INTER:                 -11.104
REMARK INTRA:                  -0.014
REMARK UNBOUND:                -0.543
REMARK SMILES C=C(C)[C@]12C[C@@H](C)[C@@]34O[C@](Cc5ccccc5)(O[C@@H]1[C@@H]3C=C(COC(=O)Cc1ccc(O)cc1)C[C@]1(O)C(=O)C(C)=C[C@@H]41)O2
REMARK SMILES IDX 23 1 22 2 21 3 20 4 9 5 8 6 10 7 6 8 18 10 44 11 19 12 5 13
REMARK SMILES IDX 7 14 4 15 11 16 12 17 13 18 17 19 14 20 16 21 15 22 2 23
REMARK SMILES IDX 3 24 1 25 35 26 36 27 43 28 38 29 42 30 39 32 40 33 41 34
REMARK SMILES IDX 37 35 24 37 25 38 26 39 27 40 28 41 29 42 34 43 30 44 33 45
REMARK SMILES IDX 31 46 32 47
REMARK H PARENT 37 36 32 48
REMARK Flexibility Score: 90.00
ROOT
ATOM      1  C   UNL     1      95.086  96.652  74.838  1.00  0.00     0.264 C 
ENDROOT
BRANCH   1   2
ATOM      2  C   UNL     1      95.027  97.338  73.493  1.00  0.00    -0.033 C 
ATOM      3  C   UNL     1      94.031  98.213  73.242  1.00  0.00    -0.015 C 
BRANCH   3   4
ATOM      4  C   UNL     1      93.709  98.967  71.962  1.00  0.00     0.078 C 
ATOM      5  O   UNL     1      94.884 101.139  72.089  1.00  0.00    -0.319 OA
ATOM      6  C   UNL     1      94.819  99.888  71.336  1.00  0.00     0.095 CG0
ATOM      7  C   UNL     1      93.611 101.711  72.443  1.00  0.00     0.289 C 
ATOM      8  C   UNL     1      94.398 100.199  69.840  1.00  0.00     0.023 C 
ATOM      9  G   UNL     1      96.230  99.254  71.514  1.00  0.00     0.000 G0
ATOM     10  O   UNL     1      92.827 100.798  73.205  1.00  0.00    -0.320 OA
ATOM     11  O   UNL     1      92.824 102.033  71.298  1.00  0.00    -0.313 OA
ATOM     12  C   UNL     1      92.463  99.862  72.178  1.00  0.00     0.170 C 
ATOM     13  C   UNL     1      92.848 100.281  69.688  1.00  0.00     0.049 C 
ATOM     14  C   UNL     1      95.038 101.453  69.220  1.00  0.00     0.011 C 
ATOM     15  C   UNL     1      92.179 100.785  70.968  1.00  0.00     0.122 C 
BRANCH   7  16
ATOM     16  C   UNL     1      93.863 102.969  73.251  1.00  0.00     0.135 C 
BRANCH  16  17
ATOM     17  C   UNL     1      92.784 103.208  74.278  1.00  0.00    -0.040 A 
ATOM     18  C   UNL     1      91.448 103.265  73.886  1.00  0.00     0.004 A 
ATOM     19  C   UNL     1      93.126 103.372  75.620  1.00  0.00     0.004 A 
ATOM     20  C   UNL     1      90.450 103.486  74.837  1.00  0.00     0.000 A 
ATOM     21  C   UNL     1      92.128 103.593  76.571  1.00  0.00     0.000 A 
ATOM     22  C   UNL     1      90.791 103.650  76.179  1.00  0.00     0.000 A 
ENDBRANCH  16  17
ENDBRANCH   7  16
BRANCH  15  23
ATOM     23  C   UNL     1      90.719 101.043  70.789  1.00  0.00    -0.046 C 
ATOM     24  C   UNL     1      89.840  99.832  70.690  1.00  0.00     0.042 C 
ATOM     25  C   UNL     1      90.221 102.287  70.720  1.00  0.00     0.010 C 
ENDBRANCH  15  23
ENDBRANCH   3   4
BRANCH   2  26
ATOM     26  C   UNL     1      96.158  96.932  72.567  1.00  0.00     0.078 C 
BRANCH  26  27
ATOM     27  C   UNL     1      96.310  97.716  71.265  1.00  0.00     0.140 C 
ATOM     28  C   UNL     1      96.241  99.240  71.490  1.00  0.00     0.086 CG0
ATOM     29  C   UNL     1      97.678  97.542  70.640  1.00  0.00     0.190 C 
ATOM     30  C   UNL     1      97.394  99.767  70.681  1.00  0.00    -0.010 C 
ATOM     31  G   UNL     1      94.836  99.893  71.332  1.00  0.00     0.000 G0
ATOM     32  O   UNL     1      98.242  96.473  70.457  1.00  0.00    -0.291 OA
ATOM     33  C   UNL     1      98.235  98.840  70.214  1.00  0.00    -0.008 C 
ATOM     34  C   UNL     1      99.499  98.993  69.464  1.00  0.00     0.048 C 
BRANCH  27  35
ATOM     35  O   UNL     1      95.420  97.243  70.268  1.00  0.00    -0.381 OA
ATOM     36  H   UNL     1      95.209  96.313  70.462  1.00  0.00     0.212 HD
ENDBRANCH  27  35
ENDBRANCH  26  27
ENDBRANCH   2  26
ENDBRANCH   1   2
BRANCH   1  37
ATOM     37  O   UNL     1      96.363  96.849  75.407  1.00  0.00    -0.461 OA
BRANCH  37  38
ATOM     38  C   UNL     1      96.548  96.346  76.674  1.00  0.00     0.310 C 
ATOM     39  O   UNL     1      97.579  96.443  77.325  1.00  0.00    -0.252 OA
BRANCH  38  40
ATOM     40  C   UNL     1      95.284  95.658  77.132  1.00  0.00     0.158 C 
BRANCH  40  41
ATOM     41  C   UNL     1      95.474  94.860  78.396  1.00  0.00    -0.037 A 
ATOM     42  C   UNL     1      95.546  93.468  78.337  1.00  0.00     0.008 A 
ATOM     43  C   UNL     1      95.579  95.512  79.624  1.00  0.00     0.008 A 
ATOM     44  C   UNL     1      95.721  92.728  79.507  1.00  0.00     0.046 A 
ATOM     45  C   UNL     1      95.755  94.773  80.794  1.00  0.00     0.046 A 
ATOM     46  C   UNL     1      95.826  93.381  80.736  1.00  0.00     0.115 A 
BRANCH  46  47
ATOM     47  O   UNL     1      95.996  92.660  81.877  1.00  0.00    -0.508 OA
ATOM     48  H   UNL     1      95.126  92.363  82.196  1.00  0.00     0.293 HD
ENDBRANCH  46  47
ENDBRANCH  40  41
ENDBRANCH  38  40
ENDBRANCH  37  38
ENDBRANCH   1  37
TORSDOF 10
ENDMDL
MODEL 10
REMARK VINA RESULT:    -5.965     33.453     37.304
REMARK INTER + INTRA:         -10.693
REMARK INTER:                  -9.047
REMARK INTRA:                  -1.645
REMARK UNBOUND:                -0.543
REMARK SMILES C=C(C)[C@]12C[C@@H](C)[C@@]34O[C@](Cc5ccccc5)(O[C@@H]1[C@@H]3C=C(COC(=O)Cc1ccc(O)cc1)C[C@]1(O)C(=O)C(C)=C[C@@H]41)O2
REMARK SMILES IDX 23 1 22 2 21 3 20 4 9 5 8 6 10 7 6 8 18 10 44 11 19 12 5 13
REMARK SMILES IDX 7 14 4 15 11 16 12 17 13 18 17 19 14 20 16 21 15 22 2 23
REMARK SMILES IDX 3 24 1 25 35 26 36 27 43 28 38 29 42 30 39 32 40 33 41 34
REMARK SMILES IDX 37 35 24 37 25 38 26 39 27 40 28 41 29 42 34 43 30 44 33 45
REMARK SMILES IDX 31 46 32 47
REMARK H PARENT 37 36 32 48
REMARK Flexibility Score: 90.00
ROOT
ATOM      1  C   UNL     1      61.954  82.417  73.138  1.00  0.00     0.264 C 
ENDROOT
BRANCH   1   2
ATOM      2  C   UNL     1      61.637  83.789  73.686  1.00  0.00    -0.033 C 
ATOM      3  C   UNL     1      62.590  84.467  74.358  1.00  0.00    -0.015 C 
BRANCH   3   4
ATOM      4  C   UNL     1      62.503  85.811  75.064  1.00  0.00     0.078 C 
ATOM      5  O   UNL     1      63.198  87.530  73.427  1.00  0.00    -0.319 OA
ATOM      6  C   UNL     1      62.064  87.069  74.227  1.00  0.00     0.095 CG0
ATOM      7  C   UNL     1      64.466  87.544  74.109  1.00  0.00     0.289 C 
ATOM      8  C   UNL     1      61.648  88.204  75.250  1.00  0.00     0.023 C 
ATOM      9  G   UNL     1      60.980  86.685  73.178  1.00  0.00     0.000 G0
ATOM     10  O   UNL     1      64.799  86.252  74.610  1.00  0.00    -0.320 OA
ATOM     11  O   UNL     1      64.463  88.408  75.243  1.00  0.00    -0.313 OA
ATOM     12  C   UNL     1      63.870  86.160  75.702  1.00  0.00     0.170 C 
ATOM     13  C   UNL     1      62.498  88.136  76.556  1.00  0.00     0.049 C 
ATOM     14  C   UNL     1      61.681  89.639  74.695  1.00  0.00     0.011 C 
ATOM     15  C   UNL     1      63.902  87.591  76.291  1.00  0.00     0.122 C 
BRANCH   7  16
ATOM     16  C   UNL     1      65.527  88.003  73.128  1.00  0.00     0.135 C 
BRANCH  16  17
ATOM     17  C   UNL     1      66.067  86.862  72.303  1.00  0.00    -0.040 A 
ATOM     18  C   UNL     1      67.167  86.134  72.754  1.00  0.00     0.004 A 
ATOM     19  C   UNL     1      65.464  86.536  71.088  1.00  0.00     0.004 A 
ATOM     20  C   UNL     1      67.666  85.078  71.990  1.00  0.00     0.000 A 
ATOM     21  C   UNL     1      65.963  85.479  70.324  1.00  0.00     0.000 A 
ATOM     22  C   UNL     1      67.063  84.751  70.775  1.00  0.00     0.000 A 
ENDBRANCH  16  17
ENDBRANCH   7  16
BRANCH  15  23
ATOM     23  C   UNL     1      64.790  87.686  77.488  1.00  0.00    -0.046 C 
ATOM     24  C   UNL     1      65.984  86.778  77.501  1.00  0.00     0.042 C 
ATOM     25  C   UNL     1      64.535  88.534  78.495  1.00  0.00     0.010 C 
ENDBRANCH  15  23
ENDBRANCH   3   4
BRANCH   2  26
ATOM     26  C   UNL     1      60.220  84.240  73.381  1.00  0.00     0.078 C 
BRANCH  26  27
ATOM     27  C   UNL     1      59.873  85.698  73.674  1.00  0.00     0.140 C 
ATOM     28  C   UNL     1      60.966  86.669  73.179  1.00  0.00     0.086 CG0
ATOM     29  C   UNL     1      58.652  86.168  72.912  1.00  0.00     0.190 C 
ATOM     30  C   UNL     1      60.186  87.748  72.481  1.00  0.00    -0.010 C 
ATOM     31  G   UNL     1      62.054  87.064  74.219  1.00  0.00     0.000 G0
ATOM     32  O   UNL     1      57.586  85.575  72.849  1.00  0.00    -0.291 OA
ATOM     33  C   UNL     1      58.890  87.485  72.291  1.00  0.00    -0.008 C 
ATOM     34  C   UNL     1      57.855  88.265  71.581  1.00  0.00     0.048 C 
BRANCH  27  35
ATOM     35  O   UNL     1      59.516  85.884  75.033  1.00  0.00    -0.381 OA
ATOM     36  H   UNL     1      58.724  85.351  75.217  1.00  0.00     0.212 HD
ENDBRANCH  27  35
ENDBRANCH  26  27
ENDBRANCH   2  26
ENDBRANCH   1   2
BRANCH   1  37
ATOM     37  O   UNL     1      61.847  82.441  71.730  1.00  0.00    -0.461 OA
BRANCH  37  38
ATOM     38  C   UNL     1      63.022  82.290  71.029  1.00  0.00     0.310 C 
ATOM     39  O   UNL     1      64.133  82.197  71.532  1.00  0.00    -0.252 OA
BRANCH  38  40
ATOM     40  C   UNL     1      62.724  82.256  69.549  1.00  0.00     0.158 C 
BRANCH  40  41
ATOM     41  C   UNL     1      62.808  83.615  68.903  1.00  0.00    -0.037 A 
ATOM     42  C   UNL     1      62.367  84.744  69.592  1.00  0.00     0.008 A 
ATOM     43  C   UNL     1      63.325  83.743  67.614  1.00  0.00     0.008 A 
ATOM     44  C   UNL     1      62.443  86.002  68.993  1.00  0.00     0.046 A 
ATOM     45  C   UNL     1      63.402  85.001  67.014  1.00  0.00     0.046 A 
ATOM     46  C   UNL     1      62.961  86.130  67.704  1.00  0.00     0.115 A 
BRANCH  46  47
ATOM     47  O   UNL     1      63.034  87.356  67.119  1.00  0.00    -0.508 OA
ATOM     48  H   UNL     1      63.387  87.256  66.218  1.00  0.00     0.293 HD
ENDBRANCH  46  47
ENDBRANCH  40  41
ENDBRANCH  38  40
ENDBRANCH  37  38
ENDBRANCH   1  37
TORSDOF 10
ENDMDL
