MODEL 1
REMARK VINA RESULT:    -5.906      0.000      0.000
REMARK INTER + INTRA:         -10.666
REMARK INTER:                  -9.704
REMARK INTRA:                  -0.961
REMARK UNBOUND:                -0.961
REMARK SMILES CCCCC[C@H](O)CC(=O)CCc1ccc(O)c(OC)c1
REMARK SMILES IDX 8 1 6 2 7 3 5 5 4 6 3 7 2 8 1 9 9 10 10 11 11 12 12 13 13 14
REMARK SMILES IDX 21 15 14 16 18 17 15 18 16 19 19 20 20 21 17 22
REMARK H PARENT 7 4 17 23
REMARK Flexibility Score: inf
ROOT
ATOM      1  C   UNL     1      76.797  85.018  66.768  1.00  0.00     0.107 C 
ENDROOT
BRANCH   1   2
ATOM      2  C   UNL     1      77.644  86.292  66.716  1.00  0.00     0.121 C 
BRANCH   2   3
ATOM      3  O   UNL     1      76.942  87.311  66.008  1.00  0.00    -0.393 OA
ATOM      4  H   UNL     1      76.884  87.039  65.076  1.00  0.00     0.210 HD
ENDBRANCH   2   3
BRANCH   2   5
ATOM      5  C   UNL     1      78.028  86.815  68.106  1.00  0.00     0.032 C 
BRANCH   5   6
ATOM      6  C   UNL     1      77.026  86.380  69.182  1.00  0.00     0.003 C 
BRANCH   6   7
ATOM      7  C   UNL     1      77.628  85.430  70.222  1.00  0.00    -0.000 C 
BRANCH   7   8
ATOM      8  C   UNL     1      76.832  84.138  70.405  1.00  0.00    -0.003 C 
ATOM      9  C   UNL     1      75.808  84.271  71.521  1.00  0.00     0.004 C 
ENDBRANCH   7   8
ENDBRANCH   6   7
ENDBRANCH   5   6
ENDBRANCH   2   5
ENDBRANCH   1   2
BRANCH   1  10
ATOM     10  C   UNL     1      77.625  83.747  66.673  1.00  0.00     0.135 C 
ATOM     11  O   UNL     1      78.855  83.789  66.707  1.00  0.00    -0.300 OA
BRANCH  10  12
ATOM     12  C   UNL     1      76.856  82.438  66.581  1.00  0.00     0.080 C 
BRANCH  12  13
ATOM     13  C   UNL     1      76.829  81.838  65.174  1.00  0.00     0.043 C 
BRANCH  13  14
ATOM     14  C   UNL     1      75.439  81.472  64.713  1.00  0.00    -0.044 A 
ATOM     15  C   UNL     1      74.366  81.553  65.601  1.00  0.00     0.054 A 
ATOM     16  C   UNL     1      75.228  81.053  63.399  1.00  0.00     0.008 A 
ATOM     17  C   UNL     1      73.081  81.215  65.173  1.00  0.00     0.160 A 
ATOM     18  C   UNL     1      73.943  80.715  62.972  1.00  0.00     0.050 A 
ATOM     19  C   UNL     1      72.870  80.796  63.859  1.00  0.00     0.157 A 
BRANCH  17  20
ATOM     20  O   UNL     1      72.041  81.297  66.049  1.00  0.00    -0.493 OA
ATOM     21  C   UNL     1      71.527  82.599  66.325  1.00  0.00     0.278 C 
ENDBRANCH  17  20
BRANCH  19  22
ATOM     22  O   UNL     1      71.621  80.464  63.431  1.00  0.00    -0.504 OA
ATOM     23  H   UNL     1      71.356  81.075  62.722  1.00  0.00     0.293 HD
ENDBRANCH  19  22
ENDBRANCH  13  14
ENDBRANCH  12  13
ENDBRANCH  10  12
ENDBRANCH   1  10
TORSDOF 12
ENDMDL
MODEL 2
REMARK VINA RESULT:    -5.811      2.140      6.471
REMARK INTER + INTRA:         -10.509
REMARK INTER:                  -9.410
REMARK INTRA:                  -1.099
REMARK UNBOUND:                -0.961
REMARK SMILES CCCCC[C@H](O)CC(=O)CCc1ccc(O)c(OC)c1
REMARK SMILES IDX 8 1 6 2 7 3 5 5 4 6 3 7 2 8 1 9 9 10 10 11 11 12 12 13 13 14
REMARK SMILES IDX 21 15 14 16 18 17 15 18 16 19 19 20 20 21 17 22
REMARK H PARENT 7 4 17 23
REMARK Flexibility Score: inf
ROOT
ATOM      1  C   UNL     1      72.733  82.193  64.209  1.00  0.00     0.107 C 
ENDROOT
BRANCH   1   2
ATOM      2  C   UNL     1      71.870  81.576  65.313  1.00  0.00     0.121 C 
BRANCH   2   3
ATOM      3  O   UNL     1      72.335  80.263  65.614  1.00  0.00    -0.393 OA
ATOM      4  H   UNL     1      72.097  79.685  64.868  1.00  0.00     0.210 HD
ENDBRANCH   2   3
BRANCH   2   5
ATOM      5  C   UNL     1      71.852  82.413  66.598  1.00  0.00     0.032 C 
BRANCH   5   6
ATOM      6  C   UNL     1      70.475  82.404  67.272  1.00  0.00     0.003 C 
BRANCH   6   7
ATOM      7  C   UNL     1      70.272  83.565  68.251  1.00  0.00    -0.000 C 
BRANCH   7   8
ATOM      8  C   UNL     1      69.567  83.159  69.544  1.00  0.00    -0.003 C 
ATOM      9  C   UNL     1      70.195  83.834  70.754  1.00  0.00     0.004 C 
ENDBRANCH   7   8
ENDBRANCH   6   7
ENDBRANCH   5   6
ENDBRANCH   2   5
ENDBRANCH   1   2
BRANCH   1  10
ATOM     10  C   UNL     1      74.030  81.437  63.975  1.00  0.00     0.135 C 
ATOM     11  O   UNL     1      74.047  80.397  63.316  1.00  0.00    -0.300 OA
BRANCH  10  12
ATOM     12  C   UNL     1      75.294  82.055  64.555  1.00  0.00     0.080 C 
BRANCH  12  13
ATOM     13  C   UNL     1      75.541  81.689  66.020  1.00  0.00     0.043 C 
BRANCH  13  14
ATOM     14  C   UNL     1      76.398  82.698  66.745  1.00  0.00    -0.044 A 
ATOM     15  C   UNL     1      75.903  83.352  67.873  1.00  0.00     0.054 A 
ATOM     16  C   UNL     1      77.687  82.976  66.287  1.00  0.00     0.008 A 
ATOM     17  C   UNL     1      76.696  84.284  68.543  1.00  0.00     0.160 A 
ATOM     18  C   UNL     1      78.480  83.907  66.957  1.00  0.00     0.050 A 
ATOM     19  C   UNL     1      77.984  84.561  68.085  1.00  0.00     0.157 A 
BRANCH  17  20
ATOM     20  O   UNL     1      76.201  84.917  69.643  1.00  0.00    -0.493 OA
ATOM     21  C   UNL     1      76.361  84.257  70.898  1.00  0.00     0.278 C 
ENDBRANCH  17  20
BRANCH  19  22
ATOM     22  O   UNL     1      78.768  85.469  68.731  1.00  0.00    -0.504 OA
ATOM     23  H   UNL     1      78.213  85.998  69.330  1.00  0.00     0.293 HD
ENDBRANCH  19  22
ENDBRANCH  13  14
ENDBRANCH  12  13
ENDBRANCH  10  12
ENDBRANCH   1  10
TORSDOF 12
ENDMDL
MODEL 3
REMARK VINA RESULT:    -5.591     20.350     23.292
REMARK INTER + INTRA:         -10.148
REMARK INTER:                  -8.045
REMARK INTRA:                  -2.103
REMARK UNBOUND:                -0.961
REMARK SMILES CCCCC[C@H](O)CC(=O)CCc1ccc(O)c(OC)c1
REMARK SMILES IDX 8 1 6 2 7 3 5 5 4 6 3 7 2 8 1 9 9 10 10 11 11 12 12 13 13 14
REMARK SMILES IDX 21 15 14 16 18 17 15 18 16 19 19 20 20 21 17 22
REMARK H PARENT 7 4 17 23
REMARK Flexibility Score: inf
ROOT
ATOM      1  C   UNL     1      88.841  98.544  70.766  1.00  0.00     0.107 C 
ENDROOT
BRANCH   1   2
ATOM      2  C   UNL     1      89.963  99.414  71.338  1.00  0.00     0.121 C 
BRANCH   2   3
ATOM      3  O   UNL     1      91.147  99.248  70.563  1.00  0.00    -0.393 OA
ATOM      4  H   UNL     1      91.858  98.961  71.163  1.00  0.00     0.210 HD
ENDBRANCH   2   3
BRANCH   2   5
ATOM      5  C   UNL     1      89.599 100.903  71.392  1.00  0.00     0.032 C 
BRANCH   5   6
ATOM      6  C   UNL     1      90.696 101.787  70.787  1.00  0.00     0.003 C 
BRANCH   6   7
ATOM      7  C   UNL     1      90.753 103.189  71.401  1.00  0.00    -0.000 C 
BRANCH   7   8
ATOM      8  C   UNL     1      89.525 103.540  72.240  1.00  0.00    -0.003 C 
ATOM      9  C   UNL     1      88.607 104.502  71.503  1.00  0.00     0.004 C 
ENDBRANCH   7   8
ENDBRANCH   6   7
ENDBRANCH   5   6
ENDBRANCH   2   5
ENDBRANCH   1   2
BRANCH   1  10
ATOM     10  C   UNL     1      89.304  97.648  69.628  1.00  0.00     0.135 C 
ATOM     11  O   UNL     1      89.936  96.616  69.852  1.00  0.00    -0.300 OA
BRANCH  10  12
ATOM     12  C   UNL     1      88.907  98.072  68.222  1.00  0.00     0.080 C 
BRANCH  12  13
ATOM     13  C   UNL     1      88.050  99.338  68.181  1.00  0.00     0.043 C 
BRANCH  13  14
ATOM     14  C   UNL     1      88.835 100.573  67.807  1.00  0.00    -0.044 A 
ATOM     15  C   UNL     1      88.269 101.837  67.974  1.00  0.00     0.054 A 
ATOM     16  C   UNL     1      90.127 100.449  67.296  1.00  0.00     0.008 A 
ATOM     17  C   UNL     1      88.996 102.977  67.630  1.00  0.00     0.160 A 
ATOM     18  C   UNL     1      90.854 101.589  66.952  1.00  0.00     0.050 A 
ATOM     19  C   UNL     1      90.288 102.852  67.118  1.00  0.00     0.157 A 
BRANCH  17  20
ATOM     20  O   UNL     1      88.432 104.206  67.796  1.00  0.00    -0.493 OA
ATOM     21  C   UNL     1      87.051 104.243  68.152  1.00  0.00     0.278 C 
ENDBRANCH  17  20
BRANCH  19  22
ATOM     22  O   UNL     1      91.007 103.958  66.779  1.00  0.00    -0.504 OA
ATOM     23  H   UNL     1      90.604 104.739  67.195  1.00  0.00     0.293 HD
ENDBRANCH  19  22
ENDBRANCH  13  14
ENDBRANCH  12  13
ENDBRANCH  10  12
ENDBRANCH   1  10
TORSDOF 12
ENDMDL
MODEL 4
REMARK VINA RESULT:    -5.513      2.894      6.412
REMARK INTER + INTRA:         -10.019
REMARK INTER:                  -8.023
REMARK INTRA:                  -1.996
REMARK UNBOUND:                -0.961
REMARK SMILES CCCCC[C@H](O)CC(=O)CCc1ccc(O)c(OC)c1
REMARK SMILES IDX 8 1 6 2 7 3 5 5 4 6 3 7 2 8 1 9 9 10 10 11 11 12 12 13 13 14
REMARK SMILES IDX 21 15 14 16 18 17 15 18 16 19 19 20 20 21 17 22
REMARK H PARENT 7 4 17 23
REMARK Flexibility Score: inf
ROOT
ATOM      1  C   UNL     1      77.920  85.784  67.049  1.00  0.00     0.107 C 
ENDROOT
BRANCH   1   2
ATOM      2  C   UNL     1      77.013  85.685  65.820  1.00  0.00     0.121 C 
BRANCH   2   3
ATOM      3  O   UNL     1      77.511  84.687  64.931  1.00  0.00    -0.393 OA
ATOM      4  H   UNL     1      77.176  83.825  65.234  1.00  0.00     0.210 HD
ENDBRANCH   2   3
BRANCH   2   5
ATOM      5  C   UNL     1      75.556  85.364  66.173  1.00  0.00     0.032 C 
BRANCH   5   6
ATOM      6  C   UNL     1      75.122  83.993  65.640  1.00  0.00     0.003 C 
BRANCH   6   7
ATOM      7  C   UNL     1      74.789  82.989  66.749  1.00  0.00    -0.000 C 
BRANCH   7   8
ATOM      8  C   UNL     1      75.321  81.582  66.480  1.00  0.00    -0.003 C 
ATOM      9  C   UNL     1      76.375  81.588  65.383  1.00  0.00     0.004 C 
ENDBRANCH   7   8
ENDBRANCH   6   7
ENDBRANCH   5   6
ENDBRANCH   2   5
ENDBRANCH   1   2
BRANCH   1  10
ATOM     10  C   UNL     1      78.097  84.457  67.768  1.00  0.00     0.135 C 
ATOM     11  O   UNL     1      78.737  83.539  67.254  1.00  0.00    -0.300 OA
BRANCH  10  12
ATOM     12  C   UNL     1      77.486  84.346  69.156  1.00  0.00     0.080 C 
BRANCH  12  13
ATOM     13  C   UNL     1      77.379  85.684  69.889  1.00  0.00     0.043 C 
BRANCH  13  14
ATOM     14  C   UNL     1      75.973  86.235  69.913  1.00  0.00    -0.044 A 
ATOM     15  C   UNL     1      75.761  87.601  70.100  1.00  0.00     0.054 A 
ATOM     16  C   UNL     1      74.885  85.376  69.749  1.00  0.00     0.008 A 
ATOM     17  C   UNL     1      74.462  88.108  70.121  1.00  0.00     0.160 A 
ATOM     18  C   UNL     1      73.586  85.884  69.771  1.00  0.00     0.050 A 
ATOM     19  C   UNL     1      73.375  87.250  69.957  1.00  0.00     0.157 A 
BRANCH  17  20
ATOM     20  O   UNL     1      74.268  89.444  70.304  1.00  0.00    -0.493 OA
ATOM     21  C   UNL     1      75.377  90.200  70.788  1.00  0.00     0.278 C 
ENDBRANCH  17  20
BRANCH  19  22
ATOM     22  O   UNL     1      72.102  87.734  69.976  1.00  0.00    -0.504 OA
ATOM     23  H   UNL     1      71.697  87.527  70.836  1.00  0.00     0.293 HD
ENDBRANCH  19  22
ENDBRANCH  13  14
ENDBRANCH  12  13
ENDBRANCH  10  12
ENDBRANCH   1  10
TORSDOF 12
ENDMDL
MODEL 5
REMARK VINA RESULT:    -5.428     20.605     23.934
REMARK INTER + INTRA:          -9.879
REMARK INTER:                  -9.011
REMARK INTRA:                  -0.869
REMARK UNBOUND:                -0.961
REMARK SMILES CCCCC[C@H](O)CC(=O)CCc1ccc(O)c(OC)c1
REMARK SMILES IDX 8 1 6 2 7 3 5 5 4 6 3 7 2 8 1 9 9 10 10 11 11 12 12 13 13 14
REMARK SMILES IDX 21 15 14 16 18 17 15 18 16 19 19 20 20 21 17 22
REMARK H PARENT 7 4 17 23
REMARK Flexibility Score: inf
ROOT
ATOM      1  C   UNL     1      92.916  99.135  74.043  1.00  0.00     0.107 C 
ENDROOT
BRANCH   1   2
ATOM      2  C   UNL     1      92.826 100.641  73.786  1.00  0.00     0.121 C 
BRANCH   2   3
ATOM      3  O   UNL     1      94.097 101.139  73.375  1.00  0.00    -0.393 OA
ATOM      4  H   UNL     1      94.757 100.841  74.026  1.00  0.00     0.210 HD
ENDBRANCH   2   3
BRANCH   2   5
ATOM      5  C   UNL     1      91.776 101.008  72.729  1.00  0.00     0.032 C 
BRANCH   5   6
ATOM      6  C   UNL     1      91.285  99.779  71.954  1.00  0.00     0.003 C 
BRANCH   6   7
ATOM      7  C   UNL     1      89.960 100.014  71.221  1.00  0.00    -0.000 C 
BRANCH   7   8
ATOM      8  C   UNL     1      89.042  98.793  71.211  1.00  0.00    -0.003 C 
ATOM      9  C   UNL     1      89.731  97.586  70.594  1.00  0.00     0.004 C 
ENDBRANCH   7   8
ENDBRANCH   6   7
ENDBRANCH   5   6
ENDBRANCH   2   5
ENDBRANCH   1   2
BRANCH   1  10
ATOM     10  C   UNL     1      93.672  98.793  75.317  1.00  0.00     0.135 C 
ATOM     11  O   UNL     1      94.115  99.679  76.047  1.00  0.00    -0.300 OA
BRANCH  10  12
ATOM     12  C   UNL     1      93.806  97.316  75.654  1.00  0.00     0.080 C 
BRANCH  12  13
ATOM     13  C   UNL     1      93.981  97.040  77.149  1.00  0.00     0.043 C 
BRANCH  13  14
ATOM     14  C   UNL     1      93.025  95.996  77.674  1.00  0.00    -0.044 A 
ATOM     15  C   UNL     1      91.711  95.955  77.208  1.00  0.00     0.054 A 
ATOM     16  C   UNL     1      93.457  95.071  78.625  1.00  0.00     0.008 A 
ATOM     17  C   UNL     1      90.829  94.989  77.693  1.00  0.00     0.160 A 
ATOM     18  C   UNL     1      92.575  94.105  79.110  1.00  0.00     0.050 A 
ATOM     19  C   UNL     1      91.261  94.064  78.644  1.00  0.00     0.157 A 
BRANCH  17  20
ATOM     20  O   UNL     1      89.547  94.960  77.231  1.00  0.00    -0.493 OA
ATOM     21  C   UNL     1      89.300  94.195  76.053  1.00  0.00     0.278 C 
ENDBRANCH  17  20
BRANCH  19  22
ATOM     22  O   UNL     1      90.409  93.117  79.125  1.00  0.00    -0.504 OA
ATOM     23  H   UNL     1      90.766  92.236  78.919  1.00  0.00     0.293 HD
ENDBRANCH  19  22
ENDBRANCH  13  14
ENDBRANCH  12  13
ENDBRANCH  10  12
ENDBRANCH   1  10
TORSDOF 12
ENDMDL
MODEL 6
REMARK VINA RESULT:    -5.418     10.274     13.528
REMARK INTER + INTRA:          -9.863
REMARK INTER:                  -7.707
REMARK INTRA:                  -2.156
REMARK UNBOUND:                -0.961
REMARK SMILES CCCCC[C@H](O)CC(=O)CCc1ccc(O)c(OC)c1
REMARK SMILES IDX 8 1 6 2 7 3 5 5 4 6 3 7 2 8 1 9 9 10 10 11 11 12 12 13 13 14
REMARK SMILES IDX 21 15 14 16 18 17 15 18 16 19 19 20 20 21 17 22
REMARK H PARENT 7 4 17 23
REMARK Flexibility Score: inf
ROOT
ATOM      1  C   UNL     1      63.798  82.829  75.501  1.00  0.00     0.107 C 
ENDROOT
BRANCH   1   2
ATOM      2  C   UNL     1      64.080  84.332  75.574  1.00  0.00     0.121 C 
BRANCH   2   3
ATOM      3  O   UNL     1      64.519  84.678  76.885  1.00  0.00    -0.393 OA
ATOM      4  H   UNL     1      65.346  84.196  77.059  1.00  0.00     0.210 HD
ENDBRANCH   2   3
BRANCH   2   5
ATOM      5  C   UNL     1      65.126  84.796  74.552  1.00  0.00     0.032 C 
BRANCH   5   6
ATOM      6  C   UNL     1      64.490  85.185  73.212  1.00  0.00     0.003 C 
BRANCH   6   7
ATOM      7  C   UNL     1      65.501  85.276  72.065  1.00  0.00    -0.000 C 
BRANCH   7   8
ATOM      8  C   UNL     1      66.869  84.690  72.407  1.00  0.00    -0.003 C 
ATOM      9  C   UNL     1      67.782  84.666  71.191  1.00  0.00     0.004 C 
ENDBRANCH   7   8
ENDBRANCH   6   7
ENDBRANCH   5   6
ENDBRANCH   2   5
ENDBRANCH   1   2
BRANCH   1  10
ATOM     10  C   UNL     1      62.447  82.506  74.883  1.00  0.00     0.135 C 
ATOM     11  O   UNL     1      61.427  83.089  75.251  1.00  0.00    -0.300 OA
BRANCH  10  12
ATOM     12  C   UNL     1      62.436  81.470  73.770  1.00  0.00     0.080 C 
BRANCH  12  13
ATOM     13  C   UNL     1      63.821  81.173  73.192  1.00  0.00     0.043 C 
BRANCH  13  14
ATOM     14  C   UNL     1      64.034  81.779  71.825  1.00  0.00    -0.044 A 
ATOM     15  C   UNL     1      63.028  82.543  71.236  1.00  0.00     0.054 A 
ATOM     16  C   UNL     1      65.239  81.573  71.152  1.00  0.00     0.008 A 
ATOM     17  C   UNL     1      63.226  83.102  69.973  1.00  0.00     0.160 A 
ATOM     18  C   UNL     1      65.438  82.133  69.890  1.00  0.00     0.050 A 
ATOM     19  C   UNL     1      64.431  82.897  69.300  1.00  0.00     0.157 A 
BRANCH  17  20
ATOM     20  O   UNL     1      62.235  83.846  69.407  1.00  0.00    -0.493 OA
ATOM     21  C   UNL     1      61.286  84.441  70.290  1.00  0.00     0.278 C 
ENDBRANCH  17  20
BRANCH  19  22
ATOM     22  O   UNL     1      64.636  83.438  68.067  1.00  0.00    -0.504 OA
ATOM     23  H   UNL     1      64.520  84.402  68.121  1.00  0.00     0.293 HD
ENDBRANCH  19  22
ENDBRANCH  13  14
ENDBRANCH  12  13
ENDBRANCH  10  12
ENDBRANCH   1  10
TORSDOF 12
ENDMDL
MODEL 7
REMARK VINA RESULT:    -5.399      2.387      6.265
REMARK INTER + INTRA:          -9.831
REMARK INTER:                  -7.697
REMARK INTRA:                  -2.135
REMARK UNBOUND:                -0.961
REMARK SMILES CCCCC[C@H](O)CC(=O)CCc1ccc(O)c(OC)c1
REMARK SMILES IDX 8 1 6 2 7 3 5 5 4 6 3 7 2 8 1 9 9 10 10 11 11 12 12 13 13 14
REMARK SMILES IDX 21 15 14 16 18 17 15 18 16 19 19 20 20 21 17 22
REMARK H PARENT 7 4 17 23
REMARK Flexibility Score: inf
ROOT
ATOM      1  C   UNL     1      75.905  83.059  65.411  1.00  0.00     0.107 C 
ENDROOT
BRANCH   1   2
ATOM      2  C   UNL     1      74.611  82.355  65.827  1.00  0.00     0.121 C 
BRANCH   2   3
ATOM      3  O   UNL     1      74.916  81.221  66.637  1.00  0.00    -0.393 OA
ATOM      4  H   UNL     1      75.807  80.914  66.394  1.00  0.00     0.210 HD
ENDBRANCH   2   3
BRANCH   2   5
ATOM      5  C   UNL     1      73.647  83.273  66.588  1.00  0.00     0.032 C 
BRANCH   5   6
ATOM      6  C   UNL     1      74.380  84.417  67.298  1.00  0.00     0.003 C 
BRANCH   6   7
ATOM      7  C   UNL     1      73.437  85.383  68.025  1.00  0.00    -0.000 C 
BRANCH   7   8
ATOM      8  C   UNL     1      73.764  85.557  69.507  1.00  0.00    -0.003 C 
ATOM      9  C   UNL     1      73.276  86.900  70.027  1.00  0.00     0.004 C 
ENDBRANCH   7   8
ENDBRANCH   6   7
ENDBRANCH   5   6
ENDBRANCH   2   5
ENDBRANCH   1   2
BRANCH   1  10
ATOM     10  C   UNL     1      77.153  82.376  65.946  1.00  0.00     0.135 C 
ATOM     11  O   UNL     1      77.498  81.271  65.529  1.00  0.00    -0.300 OA
BRANCH  10  12
ATOM     12  C   UNL     1      77.963  83.148  66.977  1.00  0.00     0.080 C 
BRANCH  12  13
ATOM     13  C   UNL     1      78.299  84.578  66.550  1.00  0.00     0.043 C 
BRANCH  13  14
ATOM     14  C   UNL     1      77.800  85.619  67.523  1.00  0.00    -0.044 A 
ATOM     15  C   UNL     1      77.147  86.758  67.052  1.00  0.00     0.054 A 
ATOM     16  C   UNL     1      77.991  85.441  68.894  1.00  0.00     0.008 A 
ATOM     17  C   UNL     1      76.686  87.719  67.952  1.00  0.00     0.160 A 
ATOM     18  C   UNL     1      77.529  86.401  69.794  1.00  0.00     0.050 A 
ATOM     19  C   UNL     1      76.877  87.541  69.323  1.00  0.00     0.157 A 
BRANCH  17  20
ATOM     20  O   UNL     1      76.050  88.828  67.481  1.00  0.00    -0.493 OA
ATOM     21  C   UNL     1      74.701  88.667  67.047  1.00  0.00     0.278 C 
ENDBRANCH  17  20
BRANCH  19  22
ATOM     22  O   UNL     1      76.431  88.472  70.211  1.00  0.00    -0.504 OA
ATOM     23  H   UNL     1      75.640  88.904  69.846  1.00  0.00     0.293 HD
ENDBRANCH  19  22
ENDBRANCH  13  14
ENDBRANCH  12  13
ENDBRANCH  10  12
ENDBRANCH   1  10
TORSDOF 12
ENDMDL
MODEL 8
REMARK VINA RESULT:    -5.354      2.235      6.117
REMARK INTER + INTRA:          -9.758
REMARK INTER:                  -7.863
REMARK INTRA:                  -1.895
REMARK UNBOUND:                -0.961
REMARK SMILES CCCCC[C@H](O)CC(=O)CCc1ccc(O)c(OC)c1
REMARK SMILES IDX 8 1 6 2 7 3 5 5 4 6 3 7 2 8 1 9 9 10 10 11 11 12 12 13 13 14
REMARK SMILES IDX 21 15 14 16 18 17 15 18 16 19 19 20 20 21 17 22
REMARK H PARENT 7 4 17 23
REMARK Flexibility Score: inf
ROOT
ATOM      1  C   UNL     1      74.859  81.319  66.038  1.00  0.00     0.107 C 
ENDROOT
BRANCH   1   2
ATOM      2  C   UNL     1      73.536  81.768  65.411  1.00  0.00     0.121 C 
BRANCH   2   3
ATOM      3  O   UNL     1      72.472  80.948  65.890  1.00  0.00    -0.393 OA
ATOM      4  H   UNL     1      72.375  80.199  65.276  1.00  0.00     0.210 HD
ENDBRANCH   2   3
BRANCH   2   5
ATOM      5  C   UNL     1      73.207  83.239  65.693  1.00  0.00     0.032 C 
BRANCH   5   6
ATOM      6  C   UNL     1      73.880  83.745  66.974  1.00  0.00     0.003 C 
BRANCH   6   7
ATOM      7  C   UNL     1      73.745  85.258  67.173  1.00  0.00    -0.000 C 
BRANCH   7   8
ATOM      8  C   UNL     1      73.987  85.711  68.612  1.00  0.00    -0.003 C 
ATOM      9  C   UNL     1      72.949  86.732  69.053  1.00  0.00     0.004 C 
ENDBRANCH   7   8
ENDBRANCH   6   7
ENDBRANCH   5   6
ENDBRANCH   2   5
ENDBRANCH   1   2
BRANCH   1  10
ATOM     10  C   UNL     1      76.050  81.505  65.112  1.00  0.00     0.135 C 
ATOM     11  O   UNL     1      76.042  81.045  63.971  1.00  0.00    -0.300 OA
BRANCH  10  12
ATOM     12  C   UNL     1      77.215  82.320  65.655  1.00  0.00     0.080 C 
BRANCH  12  13
ATOM     13  C   UNL     1      77.164  83.799  65.267  1.00  0.00     0.043 C 
BRANCH  13  14
ATOM     14  C   UNL     1      77.365  84.726  66.442  1.00  0.00    -0.044 A 
ATOM     15  C   UNL     1      77.481  84.204  67.731  1.00  0.00     0.054 A 
ATOM     16  C   UNL     1      77.433  86.104  66.238  1.00  0.00     0.008 A 
ATOM     17  C   UNL     1      77.667  85.062  68.815  1.00  0.00     0.160 A 
ATOM     18  C   UNL     1      77.619  86.962  67.323  1.00  0.00     0.050 A 
ATOM     19  C   UNL     1      77.736  86.440  68.611  1.00  0.00     0.157 A 
BRANCH  17  20
ATOM     20  O   UNL     1      77.780  84.541  70.069  1.00  0.00    -0.493 OA
ATOM     21  C   UNL     1      76.567  84.276  70.772  1.00  0.00     0.278 C 
ENDBRANCH  17  20
BRANCH  19  22
ATOM     22  O   UNL     1      77.917  87.287  69.663  1.00  0.00    -0.504 OA
ATOM     23  H   UNL     1      78.777  87.100  70.076  1.00  0.00     0.293 HD
ENDBRANCH  19  22
ENDBRANCH  13  14
ENDBRANCH  12  13
ENDBRANCH  10  12
ENDBRANCH   1  10
TORSDOF 12
ENDMDL
MODEL 9
REMARK VINA RESULT:    -5.329     19.819     22.979
REMARK INTER + INTRA:          -9.717
REMARK INTER:                  -8.875
REMARK INTRA:                  -0.843
REMARK UNBOUND:                -0.961
REMARK SMILES CCCCC[C@H](O)CC(=O)CCc1ccc(O)c(OC)c1
REMARK SMILES IDX 8 1 6 2 7 3 5 5 4 6 3 7 2 8 1 9 9 10 10 11 11 12 12 13 13 14
REMARK SMILES IDX 21 15 14 16 18 17 15 18 16 19 19 20 20 21 17 22
REMARK H PARENT 7 4 17 23
REMARK Flexibility Score: inf
ROOT
ATOM      1  C   UNL     1      93.856  99.962  73.161  1.00  0.00     0.107 C 
ENDROOT
BRANCH   1   2
ATOM      2  C   UNL     1      93.920  99.336  74.556  1.00  0.00     0.121 C 
BRANCH   2   3
ATOM      3  O   UNL     1      92.608  98.984  74.988  1.00  0.00    -0.393 OA
ATOM      4  H   UNL     1      92.353  99.598  75.699  1.00  0.00     0.210 HD
ENDBRANCH   2   3
BRANCH   2   5
ATOM      5  C   UNL     1      94.821  98.097  74.617  1.00  0.00     0.032 C 
BRANCH   5   6
ATOM      6  C   UNL     1      94.702  97.363  75.959  1.00  0.00     0.003 C 
BRANCH   6   7
ATOM      7  C   UNL     1      94.317  95.887  75.811  1.00  0.00    -0.000 C 
BRANCH   7   8
ATOM      8  C   UNL     1      93.665  95.297  77.060  1.00  0.00    -0.003 C 
ATOM      9  C   UNL     1      92.175  95.071  76.853  1.00  0.00     0.004 C 
ENDBRANCH   7   8
ENDBRANCH   6   7
ENDBRANCH   5   6
ENDBRANCH   2   5
ENDBRANCH   1   2
BRANCH   1  10
ATOM     10  C   UNL     1      92.548 100.688  72.893  1.00  0.00     0.135 C 
ATOM     11  O   UNL     1      92.167 101.599  73.629  1.00  0.00    -0.300 OA
BRANCH  10  12
ATOM     12  C   UNL     1      91.772 100.262  71.657  1.00  0.00     0.080 C 
BRANCH  12  13
ATOM     13  C   UNL     1      90.731  99.174  71.929  1.00  0.00     0.043 C 
BRANCH  13  14
ATOM     14  C   UNL     1      90.048  98.682  70.675  1.00  0.00    -0.044 A 
ATOM     15  C   UNL     1      89.421  99.589  69.820  1.00  0.00     0.054 A 
ATOM     16  C   UNL     1      90.044  97.320  70.372  1.00  0.00     0.008 A 
ATOM     17  C   UNL     1      88.791  99.133  68.662  1.00  0.00     0.160 A 
ATOM     18  C   UNL     1      89.413  96.864  69.214  1.00  0.00     0.050 A 
ATOM     19  C   UNL     1      88.787  97.771  68.359  1.00  0.00     0.157 A 
BRANCH  17  20
ATOM     20  O   UNL     1      88.181 100.028  67.835  1.00  0.00    -0.493 OA
ATOM     21  C   UNL     1      88.682 101.364  67.844  1.00  0.00     0.278 C 
ENDBRANCH  17  20
BRANCH  19  22
ATOM     22  O   UNL     1      88.175  97.314  67.231  1.00  0.00    -0.504 OA
ATOM     23  H   UNL     1      88.839  96.895  66.658  1.00  0.00     0.293 HD
ENDBRANCH  19  22
ENDBRANCH  13  14
ENDBRANCH  12  13
ENDBRANCH  10  12
ENDBRANCH   1  10
TORSDOF 12
ENDMDL
MODEL 10
REMARK VINA RESULT:    -5.306     10.403     14.111
REMARK INTER + INTRA:          -9.679
REMARK INTER:                  -7.613
REMARK INTRA:                  -2.066
REMARK UNBOUND:                -0.961
REMARK SMILES CCCCC[C@H](O)CC(=O)CCc1ccc(O)c(OC)c1
REMARK SMILES IDX 8 1 6 2 7 3 5 5 4 6 3 7 2 8 1 9 9 10 10 11 11 12 12 13 13 14
REMARK SMILES IDX 21 15 14 16 18 17 15 18 16 19 19 20 20 21 17 22
REMARK H PARENT 7 4 17 23
REMARK Flexibility Score: inf
ROOT
ATOM      1  C   UNL     1      65.214  84.583  69.624  1.00  0.00     0.107 C 
ENDROOT
BRANCH   1   2
ATOM      2  C   UNL     1      64.418  84.251  68.359  1.00  0.00     0.121 C 
BRANCH   2   3
ATOM      3  O   UNL     1      64.839  82.992  67.840  1.00  0.00    -0.393 OA
ATOM      4  H   UNL     1      64.975  82.390  68.592  1.00  0.00     0.210 HD
ENDBRANCH   2   3
BRANCH   2   5
ATOM      5  C   UNL     1      62.903  84.219  68.594  1.00  0.00     0.032 C 
BRANCH   5   6
ATOM      6  C   UNL     1      62.518  84.822  69.951  1.00  0.00     0.003 C 
BRANCH   6   7
ATOM      7  C   UNL     1      61.339  84.107  70.619  1.00  0.00    -0.000 C 
BRANCH   7   8
ATOM      8  C   UNL     1      60.298  85.059  71.204  1.00  0.00    -0.003 C 
ATOM      9  C   UNL     1      58.896  84.708  70.729  1.00  0.00     0.004 C 
ENDBRANCH   7   8
ENDBRANCH   6   7
ENDBRANCH   5   6
ENDBRANCH   2   5
ENDBRANCH   1   2
BRANCH   1  10
ATOM     10  C   UNL     1      66.328  83.587  69.905  1.00  0.00     0.135 C 
ATOM     11  O   UNL     1      67.294  83.488  69.150  1.00  0.00    -0.300 OA
BRANCH  10  12
ATOM     12  C   UNL     1      66.202  82.766  71.180  1.00  0.00     0.080 C 
BRANCH  12  13
ATOM     13  C   UNL     1      64.956  81.878  71.218  1.00  0.00     0.043 C 
BRANCH  13  14
ATOM     14  C   UNL     1      64.030  82.207  72.365  1.00  0.00    -0.044 A 
ATOM     15  C   UNL     1      64.125  83.442  73.006  1.00  0.00     0.054 A 
ATOM     16  C   UNL     1      63.079  81.276  72.781  1.00  0.00     0.008 A 
ATOM     17  C   UNL     1      63.268  83.746  74.064  1.00  0.00     0.160 A 
ATOM     18  C   UNL     1      62.222  81.579  73.840  1.00  0.00     0.050 A 
ATOM     19  C   UNL     1      62.317  82.814  74.481  1.00  0.00     0.157 A 
BRANCH  17  20
ATOM     20  O   UNL     1      63.370  84.955  74.683  1.00  0.00    -0.493 OA
ATOM     21  C   UNL     1      62.817  86.080  74.004  1.00  0.00     0.278 C 
ENDBRANCH  17  20
BRANCH  19  22
ATOM     22  O   UNL     1      61.475  83.099  75.513  1.00  0.00    -0.504 OA
ATOM     23  H   UNL     1      60.558  82.953  75.223  1.00  0.00     0.293 HD
ENDBRANCH  19  22
ENDBRANCH  13  14
ENDBRANCH  12  13
ENDBRANCH  10  12
ENDBRANCH   1  10
TORSDOF 12
ENDMDL
