MODEL 1
REMARK VINA RESULT:    -5.804      0.000      0.000
REMARK INTER + INTRA:         -10.053
REMARK INTER:                  -9.028
REMARK INTRA:                  -1.025
REMARK UNBOUND:                -1.025
REMARK SMILES CCCCC/C=C/C(=O)CCc1ccc(O)c(OC)c1
REMARK SMILES IDX 6 1 7 2 8 3 9 4 10 5 11 6 12 7 17 8 20 9 15 10 14 11 13 12
REMARK SMILES IDX 18 13 19 14 16 15 5 17 4 18 3 19 2 20 1 21
REMARK H PARENT 16 16
REMARK Flexibility Score: inf
ROOT
ATOM      1  C   UNL     1      77.293  85.855  66.501  1.00  0.00    -0.023 C 
ATOM      2  C   UNL     1      77.904  84.664  66.472  1.00  0.00     0.043 C 
ENDROOT
BRANCH   2   3
ATOM      3  C   UNL     1      77.556  83.678  65.413  1.00  0.00     0.155 C 
ATOM      4  O   UNL     1      77.464  84.001  64.231  1.00  0.00    -0.295 OA
BRANCH   3   5
ATOM      5  C   UNL     1      77.268  82.263  65.876  1.00  0.00     0.085 C 
BRANCH   5   6
ATOM      6  C   UNL     1      75.962  82.193  66.669  1.00  0.00     0.044 C 
BRANCH   6   7
ATOM      7  C   UNL     1      74.784  81.767  65.826  1.00  0.00    -0.044 A 
ATOM      8  C   UNL     1      72.417  81.742  65.431  1.00  0.00     0.160 A 
ATOM      9  C   UNL     1      73.505  82.135  66.211  1.00  0.00     0.054 A 
ATOM     10  C   UNL     1      72.622  80.987  64.277  1.00  0.00     0.157 A 
ATOM     11  C   UNL     1      73.917  80.624  63.902  1.00  0.00     0.050 A 
ATOM     12  C   UNL     1      75.004  81.017  64.682  1.00  0.00     0.008 A 
BRANCH   8  13
ATOM     13  O   UNL     1      71.158  82.102  65.808  1.00  0.00    -0.493 OA
ATOM     14  C   UNL     1      71.044  83.147  66.772  1.00  0.00     0.278 C 
ENDBRANCH   8  13
BRANCH  10  15
ATOM     15  O   UNL     1      71.568  80.597  63.507  1.00  0.00    -0.504 OA
ATOM     16  H   UNL     1      71.036  81.384  63.298  1.00  0.00     0.293 HD
ENDBRANCH  10  15
ENDBRANCH   6   7
ENDBRANCH   5   6
ENDBRANCH   3   5
ENDBRANCH   2   3
BRANCH   1  17
ATOM     17  C   UNL     1      77.587  86.903  67.535  1.00  0.00     0.027 C 
BRANCH  17  18
ATOM     18  C   UNL     1      78.265  86.338  68.788  1.00  0.00     0.004 C 
BRANCH  18  19
ATOM     19  C   UNL     1      77.295  86.063  69.940  1.00  0.00     0.000 C 
BRANCH  19  20
ATOM     20  C   UNL     1      77.008  84.567  70.076  1.00  0.00    -0.003 C 
ATOM     21  C   UNL     1      76.132  84.274  71.283  1.00  0.00     0.004 C 
ENDBRANCH  19  20
ENDBRANCH  18  19
ENDBRANCH  17  18
ENDBRANCH   1  17
TORSDOF 10
ENDMDL
MODEL 2
REMARK VINA RESULT:    -5.374      2.126      5.267
REMARK INTER + INTRA:          -9.383
REMARK INTER:                  -7.485
REMARK INTRA:                  -1.898
REMARK UNBOUND:                -1.025
REMARK SMILES CCCCC/C=C/C(=O)CCc1ccc(O)c(OC)c1
REMARK SMILES IDX 6 1 7 2 8 3 9 4 10 5 11 6 12 7 17 8 20 9 15 10 14 11 13 12
REMARK SMILES IDX 18 13 19 14 16 15 5 17 4 18 3 19 2 20 1 21
REMARK H PARENT 16 16
REMARK Flexibility Score: inf
ROOT
ATOM      1  C   UNL     1      73.441  83.308  66.758  1.00  0.00    -0.023 C 
ATOM      2  C   UNL     1      73.636  82.807  65.532  1.00  0.00     0.043 C 
ENDROOT
BRANCH   2   3
ATOM      3  C   UNL     1      74.497  81.607  65.350  1.00  0.00     0.155 C 
ATOM      4  O   UNL     1      74.246  80.750  64.504  1.00  0.00    -0.295 OA
BRANCH   3   5
ATOM      5  C   UNL     1      75.672  81.467  66.298  1.00  0.00     0.085 C 
BRANCH   5   6
ATOM      6  C   UNL     1      76.947  82.056  65.694  1.00  0.00     0.044 C 
BRANCH   6   7
ATOM      7  C   UNL     1      77.265  83.435  66.222  1.00  0.00    -0.044 A 
ATOM      8  C   UNL     1      77.134  85.821  66.004  1.00  0.00     0.160 A 
ATOM      9  C   UNL     1      76.841  84.548  65.515  1.00  0.00     0.054 A 
ATOM     10  C   UNL     1      77.848  85.965  67.193  1.00  0.00     0.157 A 
ATOM     11  C   UNL     1      78.269  84.834  67.894  1.00  0.00     0.050 A 
ATOM     12  C   UNL     1      77.976  83.561  67.405  1.00  0.00     0.008 A 
BRANCH   8  13
ATOM     13  O   UNL     1      76.718  86.918  65.310  1.00  0.00    -0.493 OA
ATOM     14  C   UNL     1      75.311  87.078  65.134  1.00  0.00     0.278 C 
ENDBRANCH   8  13
BRANCH  10  15
ATOM     15  O   UNL     1      78.141  87.202  67.681  1.00  0.00    -0.504 OA
ATOM     16  H   UNL     1      78.067  87.174  68.650  1.00  0.00     0.293 HD
ENDBRANCH  10  15
ENDBRANCH   6   7
ENDBRANCH   5   6
ENDBRANCH   3   5
ENDBRANCH   2   3
BRANCH   1  17
ATOM     17  C   UNL     1      72.588  84.514  67.025  1.00  0.00     0.027 C 
BRANCH  17  18
ATOM     18  C   UNL     1      73.274  85.550  67.922  1.00  0.00     0.004 C 
BRANCH  18  19
ATOM     19  C   UNL     1      74.581  85.050  68.547  1.00  0.00     0.000 C 
BRANCH  19  20
ATOM     20  C   UNL     1      74.729  85.548  69.986  1.00  0.00    -0.003 C 
ATOM     21  C   UNL     1      75.832  84.803  70.722  1.00  0.00     0.004 C 
ENDBRANCH  19  20
ENDBRANCH  18  19
ENDBRANCH  17  18
ENDBRANCH   1  17
TORSDOF 10
ENDMDL
MODEL 3
REMARK VINA RESULT:    -5.355      2.362      6.142
REMARK INTER + INTRA:          -9.354
REMARK INTER:                  -8.415
REMARK INTRA:                  -0.939
REMARK UNBOUND:                -1.025
REMARK SMILES CCCCC/C=C/C(=O)CCc1ccc(O)c(OC)c1
REMARK SMILES IDX 6 1 7 2 8 3 9 4 10 5 11 6 12 7 17 8 20 9 15 10 14 11 13 12
REMARK SMILES IDX 18 13 19 14 16 15 5 17 4 18 3 19 2 20 1 21
REMARK H PARENT 16 16
REMARK Flexibility Score: inf
ROOT
ATOM      1  C   UNL     1      71.598  82.429  66.220  1.00  0.00    -0.023 C 
ATOM      2  C   UNL     1      72.094  81.295  65.709  1.00  0.00     0.043 C 
ENDROOT
BRANCH   2   3
ATOM      3  C   UNL     1      73.309  81.337  64.851  1.00  0.00     0.155 C 
ATOM      4  O   UNL     1      73.448  80.590  63.885  1.00  0.00    -0.295 OA
BRANCH   3   5
ATOM      5  C   UNL     1      74.394  82.314  65.263  1.00  0.00     0.085 C 
BRANCH   5   6
ATOM      6  C   UNL     1      75.362  81.679  66.262  1.00  0.00     0.044 C 
BRANCH   6   7
ATOM      7  C   UNL     1      76.274  82.689  66.919  1.00  0.00    -0.044 A 
ATOM      8  C   UNL     1      76.674  84.308  68.645  1.00  0.00     0.160 A 
ATOM      9  C   UNL     1      75.831  83.376  68.038  1.00  0.00     0.054 A 
ATOM     10  C   UNL     1      77.946  84.541  68.124  1.00  0.00     0.157 A 
ATOM     11  C   UNL     1      78.377  83.842  66.996  1.00  0.00     0.050 A 
ATOM     12  C   UNL     1      77.535  82.910  66.390  1.00  0.00     0.008 A 
BRANCH   8  13
ATOM     13  O   UNL     1      76.241  84.985  69.745  1.00  0.00    -0.493 OA
ATOM     14  C   UNL     1      76.251  84.280  70.985  1.00  0.00     0.278 C 
ENDBRANCH   8  13
BRANCH  10  15
ATOM     15  O   UNL     1      78.778  85.449  68.708  1.00  0.00    -0.504 OA
ATOM     16  H   UNL     1      79.394  84.969  69.288  1.00  0.00     0.293 HD
ENDBRANCH  10  15
ENDBRANCH   6   7
ENDBRANCH   5   6
ENDBRANCH   3   5
ENDBRANCH   2   3
BRANCH   1  17
ATOM     17  C   UNL     1      70.377  82.471  67.092  1.00  0.00     0.027 C 
BRANCH  17  18
ATOM     18  C   UNL     1      70.224  83.794  67.850  1.00  0.00     0.004 C 
BRANCH  18  19
ATOM     19  C   UNL     1      71.539  84.323  68.432  1.00  0.00     0.000 C 
BRANCH  19  20
ATOM     20  C   UNL     1      71.323  84.933  69.818  1.00  0.00    -0.003 C 
ATOM     21  C   UNL     1      70.506  84.013  70.710  1.00  0.00     0.004 C 
ENDBRANCH  19  20
ENDBRANCH  18  19
ENDBRANCH  17  18
ENDBRANCH   1  17
TORSDOF 10
ENDMDL
MODEL 4
REMARK VINA RESULT:    -5.332      9.749     14.214
REMARK INTER + INTRA:          -9.318
REMARK INTER:                  -7.436
REMARK INTRA:                  -1.881
REMARK UNBOUND:                -1.025
REMARK SMILES CCCCC/C=C/C(=O)CCc1ccc(O)c(OC)c1
REMARK SMILES IDX 6 1 7 2 8 3 9 4 10 5 11 6 12 7 17 8 20 9 15 10 14 11 13 12
REMARK SMILES IDX 18 13 19 14 16 15 5 17 4 18 3 19 2 20 1 21
REMARK H PARENT 16 16
REMARK Flexibility Score: inf
ROOT
ATOM      1  C   UNL     1      60.461  83.870  72.687  1.00  0.00    -0.023 C 
ATOM      2  C   UNL     1      61.352  84.027  73.674  1.00  0.00     0.043 C 
ENDROOT
BRANCH   2   3
ATOM      3  C   UNL     1      61.924  82.833  74.354  1.00  0.00     0.155 C 
ATOM      4  O   UNL     1      62.181  82.832  75.556  1.00  0.00    -0.295 OA
BRANCH   3   5
ATOM      5  C   UNL     1      62.223  81.634  73.476  1.00  0.00     0.085 C 
BRANCH   5   6
ATOM      6  C   UNL     1      63.719  81.525  73.176  1.00  0.00     0.044 C 
BRANCH   6   7
ATOM      7  C   UNL     1      64.074  81.987  71.782  1.00  0.00    -0.044 A 
ATOM      8  C   UNL     1      65.559  83.150  70.299  1.00  0.00     0.160 A 
ATOM      9  C   UNL     1      65.231  82.724  71.586  1.00  0.00     0.054 A 
ATOM     10  C   UNL     1      64.726  82.835  69.226  1.00  0.00     0.157 A 
ATOM     11  C   UNL     1      63.563  82.094  69.440  1.00  0.00     0.050 A 
ATOM     12  C   UNL     1      63.236  81.667  70.727  1.00  0.00     0.008 A 
BRANCH   8  13
ATOM     13  O   UNL     1      66.697  83.874  70.103  1.00  0.00    -0.493 OA
ATOM     14  C   UNL     1      67.930  83.159  70.114  1.00  0.00     0.278 C 
ENDBRANCH   8  13
BRANCH  10  15
ATOM     15  O   UNL     1      65.035  83.246  67.964  1.00  0.00    -0.504 OA
ATOM     16  H   UNL     1      64.615  84.110  67.813  1.00  0.00     0.293 HD
ENDBRANCH  10  15
ENDBRANCH   6   7
ENDBRANCH   5   6
ENDBRANCH   3   5
ENDBRANCH   2   3
BRANCH   1  17
ATOM     17  C   UNL     1      59.838  85.022  71.953  1.00  0.00     0.027 C 
BRANCH  17  18
ATOM     18  C   UNL     1      59.669  84.759  70.453  1.00  0.00     0.004 C 
BRANCH  18  19
ATOM     19  C   UNL     1      60.995  84.692  69.688  1.00  0.00     0.000 C 
BRANCH  19  20
ATOM     20  C   UNL     1      61.768  86.006  69.810  1.00  0.00    -0.003 C 
ATOM     21  C   UNL     1      63.055  85.823  70.599  1.00  0.00     0.004 C 
ENDBRANCH  19  20
ENDBRANCH  18  19
ENDBRANCH  17  18
ENDBRANCH   1  17
TORSDOF 10
ENDMDL
MODEL 5
REMARK VINA RESULT:    -5.300      2.490      5.833
REMARK INTER + INTRA:          -9.268
REMARK INTER:                  -7.647
REMARK INTRA:                  -1.622
REMARK UNBOUND:                -1.025
REMARK SMILES CCCCC/C=C/C(=O)CCc1ccc(O)c(OC)c1
REMARK SMILES IDX 6 1 7 2 8 3 9 4 10 5 11 6 12 7 17 8 20 9 15 10 14 11 13 12
REMARK SMILES IDX 18 13 19 14 16 15 5 17 4 18 3 19 2 20 1 21
REMARK H PARENT 16 16
REMARK Flexibility Score: inf
ROOT
ATOM      1  C   UNL     1      74.342  85.991  69.038  1.00  0.00    -0.023 C 
ATOM      2  C   UNL     1      74.975  86.404  70.142  1.00  0.00     0.043 C 
ENDROOT
BRANCH   2   3
ATOM      3  C   UNL     1      76.312  87.050  70.033  1.00  0.00     0.155 C 
ATOM      4  O   UNL     1      76.448  88.271  70.076  1.00  0.00    -0.295 OA
BRANCH   3   5
ATOM      5  C   UNL     1      77.493  86.125  69.812  1.00  0.00     0.085 C 
BRANCH   5   6
ATOM      6  C   UNL     1      78.343  86.583  68.626  1.00  0.00     0.044 C 
BRANCH   6   7
ATOM      7  C   UNL     1      77.837  86.056  67.303  1.00  0.00    -0.044 A 
ATOM      8  C   UNL     1      77.570  84.238  65.760  1.00  0.00     0.160 A 
ATOM      9  C   UNL     1      78.038  84.724  66.981  1.00  0.00     0.054 A 
ATOM     10  C   UNL     1      76.907  85.091  64.877  1.00  0.00     0.157 A 
ATOM     11  C   UNL     1      76.713  86.430  65.216  1.00  0.00     0.050 A 
ATOM     12  C   UNL     1      77.181  86.916  66.437  1.00  0.00     0.008 A 
BRANCH   8  13
ATOM     13  O   UNL     1      77.767  82.928  65.440  1.00  0.00    -0.493 OA
ATOM     14  C   UNL     1      76.753  82.006  65.834  1.00  0.00     0.278 C 
ENDBRANCH   8  13
BRANCH  10  15
ATOM     15  O   UNL     1      76.446  84.628  63.682  1.00  0.00    -0.504 OA
ATOM     16  H   UNL     1      77.037  83.917  63.381  1.00  0.00     0.293 HD
ENDBRANCH  10  15
ENDBRANCH   6   7
ENDBRANCH   5   6
ENDBRANCH   3   5
ENDBRANCH   2   3
BRANCH   1  17
ATOM     17  C   UNL     1      72.994  85.331  69.063  1.00  0.00     0.027 C 
BRANCH  17  18
ATOM     18  C   UNL     1      72.620  84.674  67.731  1.00  0.00     0.004 C 
BRANCH  18  19
ATOM     19  C   UNL     1      73.808  84.494  66.780  1.00  0.00     0.000 C 
BRANCH  19  20
ATOM     20  C   UNL     1      73.452  83.563  65.621  1.00  0.00    -0.003 C 
ATOM     21  C   UNL     1      72.741  82.311  66.111  1.00  0.00     0.004 C 
ENDBRANCH  19  20
ENDBRANCH  18  19
ENDBRANCH  17  18
ENDBRANCH   1  17
TORSDOF 10
ENDMDL
MODEL 6
REMARK VINA RESULT:    -5.251      7.362     11.485
REMARK INTER + INTRA:          -9.191
REMARK INTER:                  -8.291
REMARK INTRA:                  -0.900
REMARK UNBOUND:                -1.025
REMARK SMILES CCCCC/C=C/C(=O)CCc1ccc(O)c(OC)c1
REMARK SMILES IDX 6 1 7 2 8 3 9 4 10 5 11 6 12 7 17 8 20 9 15 10 14 11 13 12
REMARK SMILES IDX 18 13 19 14 16 15 5 17 4 18 3 19 2 20 1 21
REMARK H PARENT 16 16
REMARK Flexibility Score: inf
ROOT
ATOM      1  C   UNL     1      75.161  87.591  70.592  1.00  0.00    -0.023 C 
ATOM      2  C   UNL     1      74.172  88.271  71.186  1.00  0.00     0.043 C 
ENDROOT
BRANCH   2   3
ATOM      3  C   UNL     1      74.315  89.733  71.422  1.00  0.00     0.155 C 
ATOM      4  O   UNL     1      73.676  90.315  72.295  1.00  0.00    -0.295 OA
BRANCH   3   5
ATOM      5  C   UNL     1      75.253  90.480  70.493  1.00  0.00     0.085 C 
BRANCH   5   6
ATOM      6  C   UNL     1      75.027  91.990  70.572  1.00  0.00     0.044 C 
BRANCH   6   7
ATOM      7  C   UNL     1      76.182  92.725  71.211  1.00  0.00    -0.044 A 
ATOM      8  C   UNL     1      77.362  94.772  71.627  1.00  0.00     0.160 A 
ATOM      9  C   UNL     1      76.296  94.094  71.036  1.00  0.00     0.054 A 
ATOM     10  C   UNL     1      78.300  94.072  72.385  1.00  0.00     0.157 A 
ATOM     11  C   UNL     1      78.172  92.692  72.552  1.00  0.00     0.050 A 
ATOM     12  C   UNL     1      77.105  92.014  71.961  1.00  0.00     0.008 A 
BRANCH   8  13
ATOM     13  O   UNL     1      77.477  96.119  71.456  1.00  0.00    -0.493 OA
ATOM     14  C   UNL     1      77.923  96.575  70.181  1.00  0.00     0.278 C 
ENDBRANCH   8  13
BRANCH  10  15
ATOM     15  O   UNL     1      79.345  94.722  72.967  1.00  0.00    -0.504 OA
ATOM     16  H   UNL     1      79.315  94.553  73.925  1.00  0.00     0.293 HD
ENDBRANCH  10  15
ENDBRANCH   6   7
ENDBRANCH   5   6
ENDBRANCH   3   5
ENDBRANCH   2   3
BRANCH   1  17
ATOM     17  C   UNL     1      75.094  86.116  70.319  1.00  0.00     0.027 C 
BRANCH  17  18
ATOM     18  C   UNL     1      76.371  85.565  69.676  1.00  0.00     0.004 C 
BRANCH  18  19
ATOM     19  C   UNL     1      77.530  86.566  69.657  1.00  0.00     0.000 C 
BRANCH  19  20
ATOM     20  C   UNL     1      78.234  86.570  68.299  1.00  0.00    -0.003 C 
ATOM     21  C   UNL     1      77.468  87.393  67.276  1.00  0.00     0.004 C 
ENDBRANCH  19  20
ENDBRANCH  18  19
ENDBRANCH  17  18
ENDBRANCH   1  17
TORSDOF 10
ENDMDL
MODEL 7
REMARK VINA RESULT:    -5.230      2.591      5.848
REMARK INTER + INTRA:          -9.159
REMARK INTER:                  -7.252
REMARK INTRA:                  -1.906
REMARK UNBOUND:                -1.025
REMARK SMILES CCCCC/C=C/C(=O)CCc1ccc(O)c(OC)c1
REMARK SMILES IDX 6 1 7 2 8 3 9 4 10 5 11 6 12 7 17 8 20 9 15 10 14 11 13 12
REMARK SMILES IDX 18 13 19 14 16 15 5 17 4 18 3 19 2 20 1 21
REMARK H PARENT 16 16
REMARK Flexibility Score: inf
ROOT
ATOM      1  C   UNL     1      73.271  84.331  64.529  1.00  0.00    -0.023 C 
ATOM      2  C   UNL     1      73.097  83.089  64.061  1.00  0.00     0.043 C 
ENDROOT
BRANCH   2   3
ATOM      3  C   UNL     1      73.064  81.938  65.003  1.00  0.00     0.155 C 
ATOM      4  O   UNL     1      72.420  80.920  64.762  1.00  0.00    -0.295 OA
BRANCH   3   5
ATOM      5  C   UNL     1      73.824  82.108  66.304  1.00  0.00     0.085 C 
BRANCH   5   6
ATOM      6  C   UNL     1      75.309  81.784  66.126  1.00  0.00     0.044 C 
BRANCH   6   7
ATOM      7  C   UNL     1      76.215  82.811  66.763  1.00  0.00    -0.044 A 
ATOM      8  C   UNL     1      76.512  84.698  68.216  1.00  0.00     0.160 A 
ATOM      9  C   UNL     1      75.675  83.750  67.627  1.00  0.00     0.054 A 
ATOM     10  C   UNL     1      77.877  84.694  67.933  1.00  0.00     0.157 A 
ATOM     11  C   UNL     1      78.406  83.743  67.060  1.00  0.00     0.050 A 
ATOM     12  C   UNL     1      77.569  82.795  66.472  1.00  0.00     0.008 A 
BRANCH   8  13
ATOM     13  O   UNL     1      75.983  85.622  69.066  1.00  0.00    -0.493 OA
ATOM     14  C   UNL     1      75.295  85.129  70.214  1.00  0.00     0.278 C 
ENDBRANCH   8  13
BRANCH  10  15
ATOM     15  O   UNL     1      78.705  85.614  68.502  1.00  0.00    -0.504 OA
ATOM     16  H   UNL     1      78.708  85.469  69.463  1.00  0.00     0.293 HD
ENDBRANCH  10  15
ENDBRANCH   6   7
ENDBRANCH   5   6
ENDBRANCH   3   5
ENDBRANCH   2   3
BRANCH   1  17
ATOM     17  C   UNL     1      73.316  85.543  63.645  1.00  0.00     0.027 C 
BRANCH  17  18
ATOM     18  C   UNL     1      74.583  86.383  63.840  1.00  0.00     0.004 C 
BRANCH  18  19
ATOM     19  C   UNL     1      75.788  85.572  64.327  1.00  0.00     0.000 C 
BRANCH  19  20
ATOM     20  C   UNL     1      76.827  85.407  63.217  1.00  0.00    -0.003 C 
ATOM     21  C   UNL     1      77.304  83.968  63.110  1.00  0.00     0.004 C 
ENDBRANCH  19  20
ENDBRANCH  18  19
ENDBRANCH  17  18
ENDBRANCH   1  17
TORSDOF 10
ENDMDL
MODEL 8
REMARK VINA RESULT:    -5.168     25.592     27.945
REMARK INTER + INTRA:          -9.062
REMARK INTER:                  -8.240
REMARK INTRA:                  -0.822
REMARK UNBOUND:                -1.025
REMARK SMILES CCCCC/C=C/C(=O)CCc1ccc(O)c(OC)c1
REMARK SMILES IDX 6 1 7 2 8 3 9 4 10 5 11 6 12 7 17 8 20 9 15 10 14 11 13 12
REMARK SMILES IDX 18 13 19 14 16 15 5 17 4 18 3 19 2 20 1 21
REMARK H PARENT 16 16
REMARK Flexibility Score: inf
ROOT
ATOM      1  C   UNL     1      98.307  82.101  83.179  1.00  0.00    -0.023 C 
ATOM      2  C   UNL     1      97.972  83.356  83.503  1.00  0.00     0.043 C 
ENDROOT
BRANCH   2   3
ATOM      3  C   UNL     1      97.329  83.637  84.815  1.00  0.00     0.155 C 
ATOM      4  O   UNL     1      97.480  84.711  85.394  1.00  0.00    -0.295 OA
BRANCH   3   5
ATOM      5  C   UNL     1      96.519  82.511  85.427  1.00  0.00     0.085 C 
BRANCH   5   6
ATOM      6  C   UNL     1      96.267  82.753  86.916  1.00  0.00     0.044 C 
BRANCH   6   7
ATOM      7  C   UNL     1      94.825  83.080  87.222  1.00  0.00    -0.044 A 
ATOM      8  C   UNL     1      92.524  82.406  87.332  1.00  0.00     0.160 A 
ATOM      9  C   UNL     1      93.856  82.104  87.049  1.00  0.00     0.054 A 
ATOM     10  C   UNL     1      92.178  83.680  87.784  1.00  0.00     0.157 A 
ATOM     11  C   UNL     1      93.165  84.652  87.952  1.00  0.00     0.050 A 
ATOM     12  C   UNL     1      94.497  84.349  87.669  1.00  0.00     0.008 A 
BRANCH   8  13
ATOM     13  O   UNL     1      91.570  81.449  87.164  1.00  0.00    -0.493 OA
ATOM     14  C   UNL     1      91.435  80.891  85.858  1.00  0.00     0.278 C 
ENDBRANCH   8  13
BRANCH  10  15
ATOM     15  O   UNL     1      90.881  83.987  88.064  1.00  0.00    -0.504 OA
ATOM     16  H   UNL     1      90.405  84.097  87.223  1.00  0.00     0.293 HD
ENDBRANCH  10  15
ENDBRANCH   6   7
ENDBRANCH   5   6
ENDBRANCH   3   5
ENDBRANCH   2   3
BRANCH   1  17
ATOM     17  C   UNL     1      98.958  81.734  81.877  1.00  0.00     0.027 C 
BRANCH  17  18
ATOM     18  C   UNL     1      99.474  82.950  81.100  1.00  0.00     0.004 C 
BRANCH  18  19
ATOM     19  C   UNL     1      99.470  82.754  79.581  1.00  0.00     0.000 C 
BRANCH  19  20
ATOM     20  C   UNL     1      98.066  82.426  79.071  1.00  0.00    -0.003 C 
ATOM     21  C   UNL     1      97.102  83.576  79.314  1.00  0.00     0.004 C 
ENDBRANCH  19  20
ENDBRANCH  18  19
ENDBRANCH  17  18
ENDBRANCH   1  17
TORSDOF 10
ENDMDL
MODEL 9
REMARK VINA RESULT:    -5.139     25.175     27.509
REMARK INTER + INTRA:          -9.018
REMARK INTER:                  -8.000
REMARK INTRA:                  -1.019
REMARK UNBOUND:                -1.025
REMARK SMILES CCCCC/C=C/C(=O)CCc1ccc(O)c(OC)c1
REMARK SMILES IDX 6 1 7 2 8 3 9 4 10 5 11 6 12 7 17 8 20 9 15 10 14 11 13 12
REMARK SMILES IDX 18 13 19 14 16 15 5 17 4 18 3 19 2 20 1 21
REMARK H PARENT 16 16
REMARK Flexibility Score: inf
ROOT
ATOM      1  C   UNL     1      99.015  81.983  79.880  1.00  0.00    -0.023 C 
ATOM      2  C   UNL     1      98.893  83.220  79.383  1.00  0.00     0.043 C 
ENDROOT
BRANCH   2   3
ATOM      3  C   UNL     1      97.605  83.652  78.776  1.00  0.00     0.155 C 
ATOM      4  O   UNL     1      96.546  83.603  79.397  1.00  0.00    -0.295 OA
BRANCH   3   5
ATOM      5  C   UNL     1      97.659  84.107  77.330  1.00  0.00     0.085 C 
BRANCH   5   6
ATOM      6  C   UNL     1      98.343  83.064  76.445  1.00  0.00     0.044 C 
BRANCH   6   7
ATOM      7  C   UNL     1      99.545  83.613  75.712  1.00  0.00    -0.044 A 
ATOM      8  C   UNL     1     101.628  83.248  74.578  1.00  0.00     0.160 A 
ATOM      9  C   UNL     1     100.519  82.740  75.255  1.00  0.00     0.054 A 
ATOM     10  C   UNL     1     101.748  84.621  74.368  1.00  0.00     0.157 A 
ATOM     11  C   UNL     1     100.759  85.488  74.835  1.00  0.00     0.050 A 
ATOM     12  C   UNL     1      99.650  84.980  75.512  1.00  0.00     0.008 A 
BRANCH   8  13
ATOM     13  O   UNL     1     102.587  82.391  74.128  1.00  0.00    -0.493 OA
ATOM     14  C   UNL     1     102.334  81.727  72.891  1.00  0.00     0.278 C 
ENDBRANCH   8  13
BRANCH  10  15
ATOM     15  O   UNL     1     102.826  85.129  73.708  1.00  0.00    -0.504 OA
ATOM     16  H   UNL     1     102.709  86.091  73.626  1.00  0.00     0.293 HD
ENDBRANCH  10  15
ENDBRANCH   6   7
ENDBRANCH   5   6
ENDBRANCH   3   5
ENDBRANCH   2   3
BRANCH   1  17
ATOM     17  C   UNL     1     100.278  81.471  80.508  1.00  0.00     0.027 C 
BRANCH  17  18
ATOM     18  C   UNL     1     100.202  81.393  82.037  1.00  0.00     0.004 C 
BRANCH  18  19
ATOM     19  C   UNL     1      99.029  80.551  82.550  1.00  0.00     0.000 C 
BRANCH  19  20
ATOM     20  C   UNL     1      98.247  81.296  83.632  1.00  0.00    -0.003 C 
ATOM     21  C   UNL     1      98.049  82.759  83.269  1.00  0.00     0.004 C 
ENDBRANCH  19  20
ENDBRANCH  18  19
ENDBRANCH  17  18
ENDBRANCH   1  17
TORSDOF 10
ENDMDL
MODEL 10
REMARK VINA RESULT:    -5.119     10.358     13.757
REMARK INTER + INTRA:          -8.987
REMARK INTER:                  -8.085
REMARK INTRA:                  -0.902
REMARK UNBOUND:                -1.025
REMARK SMILES CCCCC/C=C/C(=O)CCc1ccc(O)c(OC)c1
REMARK SMILES IDX 6 1 7 2 8 3 9 4 10 5 11 6 12 7 17 8 20 9 15 10 14 11 13 12
REMARK SMILES IDX 18 13 19 14 16 15 5 17 4 18 3 19 2 20 1 21
REMARK H PARENT 16 16
REMARK Flexibility Score: inf
ROOT
ATOM      1  C   UNL     1      63.832  83.120  75.837  1.00  0.00    -0.023 C 
ATOM      2  C   UNL     1      63.741  83.512  74.560  1.00  0.00     0.043 C 
ENDROOT
BRANCH   2   3
ATOM      3  C   UNL     1      62.573  83.095  73.737  1.00  0.00     0.155 C 
ATOM      4  O   UNL     1      61.614  83.841  73.547  1.00  0.00    -0.295 OA
BRANCH   3   5
ATOM      5  C   UNL     1      62.602  81.682  73.189  1.00  0.00     0.085 C 
BRANCH   5   6
ATOM      6  C   UNL     1      63.997  81.312  72.682  1.00  0.00     0.044 C 
BRANCH   6   7
ATOM      7  C   UNL     1      64.290  81.868  71.309  1.00  0.00    -0.044 A 
ATOM      8  C   UNL     1      65.802  82.939  69.784  1.00  0.00     0.160 A 
ATOM      9  C   UNL     1      65.532  82.426  71.053  1.00  0.00     0.054 A 
ATOM     10  C   UNL     1      64.827  82.888  68.788  1.00  0.00     0.157 A 
ATOM     11  C   UNL     1      63.581  82.323  69.062  1.00  0.00     0.050 A 
ATOM     12  C   UNL     1      63.311  81.810  70.331  1.00  0.00     0.008 A 
BRANCH   8  13
ATOM     13  O   UNL     1      67.023  83.488  69.530  1.00  0.00    -0.493 OA
ATOM     14  C   UNL     1      67.974  83.476  70.593  1.00  0.00     0.278 C 
ENDBRANCH   8  13
BRANCH  10  15
ATOM     15  O   UNL     1      65.079  83.385  67.546  1.00  0.00    -0.504 OA
ATOM     16  H   UNL     1      65.925  83.864  67.574  1.00  0.00     0.293 HD
ENDBRANCH  10  15
ENDBRANCH   6   7
ENDBRANCH   5   6
ENDBRANCH   3   5
ENDBRANCH   2   3
BRANCH   1  17
ATOM     17  C   UNL     1      64.977  83.497  76.732  1.00  0.00     0.027 C 
BRANCH  17  18
ATOM     18  C   UNL     1      64.531  84.220  78.007  1.00  0.00     0.004 C 
BRANCH  18  19
ATOM     19  C   UNL     1      63.011  84.251  78.195  1.00  0.00     0.000 C 
BRANCH  19  20
ATOM     20  C   UNL     1      62.640  84.637  79.628  1.00  0.00    -0.003 C 
ATOM     21  C   UNL     1      63.419  83.819  80.645  1.00  0.00     0.004 C 
ENDBRANCH  19  20
ENDBRANCH  18  19
ENDBRANCH  17  18
ENDBRANCH   1  17
TORSDOF 10
ENDMDL
