MODEL 1
REMARK VINA RESULT:    -6.429      0.000      0.000
REMARK INTER + INTRA:         -10.642
REMARK INTER:                  -9.999
REMARK INTRA:                  -0.644
REMARK UNBOUND:                -0.644
REMARK SMILES CCCCC/C=C/C(=O)CCc1ccc(O)c(OC)c1
REMARK SMILES IDX 6 1 7 2 8 3 9 4 10 5 11 6 12 7 17 8 20 9 15 10 14 11 13 12
REMARK SMILES IDX 18 13 19 14 16 15 5 17 4 18 3 19 2 20 1 21
REMARK H PARENT 16 16
REMARK Flexibility Score: inf
ROOT
ATOM      1  C   UNL     1      78.366  64.691  68.932  1.00  0.00    -0.023 C 
ATOM      2  C   UNL     1      79.222  64.464  69.936  1.00  0.00     0.043 C 
ENDROOT
BRANCH   2   3
ATOM      3  C   UNL     1      79.487  65.529  70.941  1.00  0.00     0.155 C 
ATOM      4  O   UNL     1      78.968  66.641  70.860  1.00  0.00    -0.295 OA
BRANCH   3   5
ATOM      5  C   UNL     1      80.472  65.189  72.043  1.00  0.00     0.085 C 
BRANCH   5   6
ATOM      6  C   UNL     1      81.910  65.473  71.608  1.00  0.00     0.044 C 
BRANCH   6   7
ATOM      7  C   UNL     1      82.726  66.152  72.683  1.00  0.00    -0.044 A 
ATOM      8  C   UNL     1      84.158  67.949  73.376  1.00  0.00     0.160 A 
ATOM      9  C   UNL     1      83.406  67.322  72.383  1.00  0.00     0.054 A 
ATOM     10  C   UNL     1      84.221  67.399  74.656  1.00  0.00     0.157 A 
ATOM     11  C   UNL     1      83.531  66.220  74.943  1.00  0.00     0.050 A 
ATOM     12  C   UNL     1      82.778  65.593  73.950  1.00  0.00     0.008 A 
BRANCH   8  13
ATOM     13  O   UNL     1      84.827  69.099  73.083  1.00  0.00    -0.493 OA
ATOM     14  C   UNL     1      86.056  68.970  72.371  1.00  0.00     0.278 C 
ENDBRANCH   8  13
BRANCH  10  15
ATOM     15  O   UNL     1      84.951  68.002  75.635  1.00  0.00    -0.504 OA
ATOM     16  H   UNL     1      84.707  68.943  75.662  1.00  0.00     0.293 HD
ENDBRANCH  10  15
ENDBRANCH   6   7
ENDBRANCH   5   6
ENDBRANCH   3   5
ENDBRANCH   2   3
BRANCH   1  17
ATOM     17  C   UNL     1      78.046  63.670  67.879  1.00  0.00     0.027 C 
BRANCH  17  18
ATOM     18  C   UNL     1      77.063  64.184  66.822  1.00  0.00     0.004 C 
BRANCH  18  19
ATOM     19  C   UNL     1      75.732  63.426  66.801  1.00  0.00     0.000 C 
BRANCH  19  20
ATOM     20  C   UNL     1      74.971  63.611  68.115  1.00  0.00    -0.003 C 
ATOM     21  C   UNL     1      74.533  65.054  68.307  1.00  0.00     0.004 C 
ENDBRANCH  19  20
ENDBRANCH  18  19
ENDBRANCH  17  18
ENDBRANCH   1  17
TORSDOF 10
ENDMDL
MODEL 2
REMARK VINA RESULT:    -6.368     28.798     33.315
REMARK INTER + INTRA:         -10.549
REMARK INTER:                  -9.780
REMARK INTRA:                  -0.769
REMARK UNBOUND:                -0.644
REMARK SMILES CCCCC/C=C/C(=O)CCc1ccc(O)c(OC)c1
REMARK SMILES IDX 6 1 7 2 8 3 9 4 10 5 11 6 12 7 17 8 20 9 15 10 14 11 13 12
REMARK SMILES IDX 18 13 19 14 16 15 5 17 4 18 3 19 2 20 1 21
REMARK H PARENT 16 16
REMARK Flexibility Score: inf
ROOT
ATOM      1  C   UNL     1      91.093  95.130  76.268  1.00  0.00    -0.023 C 
ATOM      2  C   UNL     1      92.291  94.988  75.687  1.00  0.00     0.043 C 
ENDROOT
BRANCH   2   3
ATOM      3  C   UNL     1      93.393  95.932  76.018  1.00  0.00     0.155 C 
ATOM      4  O   UNL     1      94.265  96.223  75.203  1.00  0.00    -0.295 OA
BRANCH   3   5
ATOM      5  C   UNL     1      93.414  96.476  77.433  1.00  0.00     0.085 C 
BRANCH   5   6
ATOM      6  C   UNL     1      94.587  97.435  77.642  1.00  0.00     0.044 C 
BRANCH   6   7
ATOM      7  C   UNL     1      95.322  97.190  78.939  1.00  0.00    -0.044 A 
ATOM      8  C   UNL     1      96.322  98.038  80.949  1.00  0.00     0.160 A 
ATOM      9  C   UNL     1      95.643  98.266  79.751  1.00  0.00     0.054 A 
ATOM     10  C   UNL     1      96.671  96.740  81.318  1.00  0.00     0.157 A 
ATOM     11  C   UNL     1      96.341  95.667  80.489  1.00  0.00     0.050 A 
ATOM     12  C   UNL     1      95.662  95.894  79.291  1.00  0.00     0.008 A 
BRANCH   8  13
ATOM     13  O   UNL     1      96.638  99.095  81.749  1.00  0.00    -0.493 OA
ATOM     14  C   UNL     1      95.601  99.611  82.582  1.00  0.00     0.278 C 
ENDBRANCH   8  13
BRANCH  10  15
ATOM     15  O   UNL     1      97.333  96.505  82.485  1.00  0.00    -0.504 OA
ATOM     16  H   UNL     1      97.445  95.545  82.584  1.00  0.00     0.293 HD
ENDBRANCH  10  15
ENDBRANCH   6   7
ENDBRANCH   5   6
ENDBRANCH   3   5
ENDBRANCH   2   3
BRANCH   1  17
ATOM     17  C   UNL     1      89.932  94.220  75.987  1.00  0.00     0.027 C 
BRANCH  17  18
ATOM     18  C   UNL     1      89.971  92.925  76.804  1.00  0.00     0.004 C 
BRANCH  18  19
ATOM     19  C   UNL     1      89.763  91.662  75.963  1.00  0.00     0.000 C 
BRANCH  19  20
ATOM     20  C   UNL     1      90.220  91.879  74.520  1.00  0.00    -0.003 C 
ATOM     21  C   UNL     1      90.636  90.572  73.864  1.00  0.00     0.004 C 
ENDBRANCH  19  20
ENDBRANCH  18  19
ENDBRANCH  17  18
ENDBRANCH   1  17
TORSDOF 10
ENDMDL
MODEL 3
REMARK VINA RESULT:    -6.324     28.654     33.399
REMARK INTER + INTRA:         -10.479
REMARK INTER:                  -9.540
REMARK INTRA:                  -0.939
REMARK UNBOUND:                -0.644
REMARK SMILES CCCCC/C=C/C(=O)CCc1ccc(O)c(OC)c1
REMARK SMILES IDX 6 1 7 2 8 3 9 4 10 5 11 6 12 7 17 8 20 9 15 10 14 11 13 12
REMARK SMILES IDX 18 13 19 14 16 15 5 17 4 18 3 19 2 20 1 21
REMARK H PARENT 16 16
REMARK Flexibility Score: inf
ROOT
ATOM      1  C   UNL     1      91.652  94.444  77.939  1.00  0.00    -0.023 C 
ATOM      2  C   UNL     1      92.571  95.341  77.562  1.00  0.00     0.043 C 
ENDROOT
BRANCH   2   3
ATOM      3  C   UNL     1      93.820  95.503  78.355  1.00  0.00     0.155 C 
ATOM      4  O   UNL     1      94.048  94.821  79.352  1.00  0.00    -0.295 OA
BRANCH   3   5
ATOM      5  C   UNL     1      94.775  96.589  77.899  1.00  0.00     0.085 C 
BRANCH   5   6
ATOM      6  C   UNL     1      94.106  97.532  76.898  1.00  0.00     0.044 C 
BRANCH   6   7
ATOM      7  C   UNL     1      94.770  97.515  75.541  1.00  0.00    -0.044 A 
ATOM      8  C   UNL     1      96.550  98.219  74.095  1.00  0.00     0.160 A 
ATOM      9  C   UNL     1      95.938  98.236  75.348  1.00  0.00     0.054 A 
ATOM     10  C   UNL     1      95.988  97.484  73.052  1.00  0.00     0.157 A 
ATOM     11  C   UNL     1      94.811  96.764  73.262  1.00  0.00     0.050 A 
ATOM     12  C   UNL     1      94.198  96.780  74.515  1.00  0.00     0.008 A 
BRANCH   8  13
ATOM     13  O   UNL     1      97.699  98.927  73.902  1.00  0.00    -0.493 OA
ATOM     14  C   UNL     1      98.929  98.219  74.048  1.00  0.00     0.278 C 
ENDBRANCH   8  13
BRANCH  10  15
ATOM     15  O   UNL     1      96.577  97.460  71.824  1.00  0.00    -0.504 OA
ATOM     16  H   UNL     1      95.895  97.637  71.154  1.00  0.00     0.293 HD
ENDBRANCH  10  15
ENDBRANCH   6   7
ENDBRANCH   5   6
ENDBRANCH   3   5
ENDBRANCH   2   3
BRANCH   1  17
ATOM     17  C   UNL     1      90.368  94.221  77.194  1.00  0.00     0.027 C 
BRANCH  17  18
ATOM     18  C   UNL     1      90.380  94.817  75.783  1.00  0.00     0.004 C 
BRANCH  18  19
ATOM     19  C   UNL     1      89.828  93.870  74.712  1.00  0.00     0.000 C 
BRANCH  19  20
ATOM     20  C   UNL     1      90.722  92.640  74.550  1.00  0.00    -0.003 C 
ATOM     21  C   UNL     1      89.920  91.352  74.655  1.00  0.00     0.004 C 
ENDBRANCH  19  20
ENDBRANCH  18  19
ENDBRANCH  17  18
ENDBRANCH   1  17
TORSDOF 10
ENDMDL
MODEL 4
REMARK VINA RESULT:    -6.238     28.647     33.184
REMARK INTER + INTRA:         -10.346
REMARK INTER:                  -9.770
REMARK INTRA:                  -0.576
REMARK UNBOUND:                -0.644
REMARK SMILES CCCCC/C=C/C(=O)CCc1ccc(O)c(OC)c1
REMARK SMILES IDX 6 1 7 2 8 3 9 4 10 5 11 6 12 7 17 8 20 9 15 10 14 11 13 12
REMARK SMILES IDX 18 13 19 14 16 15 5 17 4 18 3 19 2 20 1 21
REMARK H PARENT 16 16
REMARK Flexibility Score: inf
ROOT
ATOM      1  C   UNL     1      91.088  95.059  76.576  1.00  0.00    -0.023 C 
ATOM      2  C   UNL     1      92.306  94.568  76.315  1.00  0.00     0.043 C 
ENDROOT
BRANCH   2   3
ATOM      3  C   UNL     1      93.513  95.262  76.840  1.00  0.00     0.155 C 
ATOM      4  O   UNL     1      94.293  95.857  76.099  1.00  0.00    -0.295 OA
BRANCH   3   5
ATOM      5  C   UNL     1      93.761  95.152  78.332  1.00  0.00     0.085 C 
BRANCH   5   6
ATOM      6  C   UNL     1      95.258  95.093  78.643  1.00  0.00     0.044 C 
BRANCH   6   7
ATOM      7  C   UNL     1      95.728  96.253  79.488  1.00  0.00    -0.044 A 
ATOM      8  C   UNL     1      97.019  97.088  81.331  1.00  0.00     0.160 A 
ATOM      9  C   UNL     1      96.585  96.016  80.551  1.00  0.00     0.054 A 
ATOM     10  C   UNL     1      96.591  98.383  81.038  1.00  0.00     0.157 A 
ATOM     11  C   UNL     1      95.728  98.605  79.964  1.00  0.00     0.050 A 
ATOM     12  C   UNL     1      95.294  97.533  79.184  1.00  0.00     0.008 A 
BRANCH   8  13
ATOM     13  O   UNL     1      97.861  96.857  82.377  1.00  0.00    -0.493 OA
ATOM     14  C   UNL     1      98.898  95.899  82.175  1.00  0.00     0.278 C 
ENDBRANCH   8  13
BRANCH  10  15
ATOM     15  O   UNL     1      97.009  99.437  81.791  1.00  0.00    -0.504 OA
ATOM     16  H   UNL     1      97.219  99.112  82.683  1.00  0.00     0.293 HD
ENDBRANCH  10  15
ENDBRANCH   6   7
ENDBRANCH   5   6
ENDBRANCH   3   5
ENDBRANCH   2   3
BRANCH   1  17
ATOM     17  C   UNL     1      89.822  94.419  76.084  1.00  0.00     0.027 C 
BRANCH  17  18
ATOM     18  C   UNL     1      90.029  93.568  74.826  1.00  0.00     0.004 C 
BRANCH  18  19
ATOM     19  C   UNL     1      90.104  92.064  75.109  1.00  0.00     0.000 C 
BRANCH  19  20
ATOM     20  C   UNL     1      90.484  91.284  73.850  1.00  0.00    -0.003 C 
ATOM     21  C   UNL     1      90.539  89.789  74.116  1.00  0.00     0.004 C 
ENDBRANCH  19  20
ENDBRANCH  18  19
ENDBRANCH  17  18
ENDBRANCH   1  17
TORSDOF 10
ENDMDL
MODEL 5
REMARK VINA RESULT:    -6.223     21.148     24.400
REMARK INTER + INTRA:         -10.323
REMARK INTER:                  -9.598
REMARK INTRA:                  -0.725
REMARK UNBOUND:                -0.644
REMARK SMILES CCCCC/C=C/C(=O)CCc1ccc(O)c(OC)c1
REMARK SMILES IDX 6 1 7 2 8 3 9 4 10 5 11 6 12 7 17 8 20 9 15 10 14 11 13 12
REMARK SMILES IDX 18 13 19 14 16 15 5 17 4 18 3 19 2 20 1 21
REMARK H PARENT 16 16
REMARK Flexibility Score: inf
ROOT
ATOM      1  C   UNL     1      88.749  80.884  84.135  1.00  0.00    -0.023 C 
ATOM      2  C   UNL     1      89.614  79.914  83.814  1.00  0.00     0.043 C 
ENDROOT
BRANCH   2   3
ATOM      3  C   UNL     1      91.058  80.072  84.136  1.00  0.00     0.155 C 
ATOM      4  O   UNL     1      91.779  79.105  84.372  1.00  0.00    -0.295 OA
BRANCH   3   5
ATOM      5  C   UNL     1      91.583  81.492  84.209  1.00  0.00     0.085 C 
BRANCH   5   6
ATOM      6  C   UNL     1      92.673  81.626  85.274  1.00  0.00     0.044 C 
BRANCH   6   7
ATOM      7  C   UNL     1      93.732  82.639  84.906  1.00  0.00    -0.044 A 
ATOM      8  C   UNL     1      94.829  84.734  85.312  1.00  0.00     0.160 A 
ATOM      9  C   UNL     1      93.850  83.800  85.652  1.00  0.00     0.054 A 
ATOM     10  C   UNL     1      95.676  84.495  84.231  1.00  0.00     0.157 A 
ATOM     11  C   UNL     1      95.544  83.321  83.489  1.00  0.00     0.050 A 
ATOM     12  C   UNL     1      94.566  82.387  83.829  1.00  0.00     0.008 A 
BRANCH   8  13
ATOM     13  O   UNL     1      94.946  85.877  86.045  1.00  0.00    -0.493 OA
ATOM     14  C   UNL     1      94.141  86.986  85.650  1.00  0.00     0.278 C 
ENDBRANCH   8  13
BRANCH  10  15
ATOM     15  O   UNL     1      96.635  85.399  83.889  1.00  0.00    -0.504 OA
ATOM     16  H   UNL     1      96.817  85.308  82.938  1.00  0.00     0.293 HD
ENDBRANCH  10  15
ENDBRANCH   6   7
ENDBRANCH   5   6
ENDBRANCH   3   5
ENDBRANCH   2   3
BRANCH   1  17
ATOM     17  C   UNL     1      87.278  80.802  83.844  1.00  0.00     0.027 C 
BRANCH  17  18
ATOM     18  C   UNL     1      86.600  82.175  83.781  1.00  0.00     0.004 C 
BRANCH  18  19
ATOM     19  C   UNL     1      87.563  83.346  83.998  1.00  0.00     0.000 C 
BRANCH  19  20
ATOM     20  C   UNL     1      87.490  83.861  85.436  1.00  0.00    -0.003 C 
ATOM     21  C   UNL     1      86.051  84.060  85.884  1.00  0.00     0.004 C 
ENDBRANCH  19  20
ENDBRANCH  18  19
ENDBRANCH  17  18
ENDBRANCH   1  17
TORSDOF 10
ENDMDL
MODEL 6
REMARK VINA RESULT:    -5.952     24.821     26.475
REMARK INTER + INTRA:          -9.901
REMARK INTER:                  -9.220
REMARK INTRA:                  -0.681
REMARK UNBOUND:                -0.644
REMARK SMILES CCCCC/C=C/C(=O)CCc1ccc(O)c(OC)c1
REMARK SMILES IDX 6 1 7 2 8 3 9 4 10 5 11 6 12 7 17 8 20 9 15 10 14 11 13 12
REMARK SMILES IDX 18 13 19 14 16 15 5 17 4 18 3 19 2 20 1 21
REMARK H PARENT 16 16
REMARK Flexibility Score: inf
ROOT
ATOM      1  C   UNL     1      97.971  84.287  73.806  1.00  0.00    -0.023 C 
ATOM      2  C   UNL     1      98.122  84.201  75.133  1.00  0.00     0.043 C 
ENDROOT
BRANCH   2   3
ATOM      3  C   UNL     1      96.936  84.320  76.024  1.00  0.00     0.155 C 
ATOM      4  O   UNL     1      96.169  85.278  75.960  1.00  0.00    -0.295 OA
BRANCH   3   5
ATOM      5  C   UNL     1      96.750  83.221  77.053  1.00  0.00     0.085 C 
BRANCH   5   6
ATOM      6  C   UNL     1      96.409  83.799  78.427  1.00  0.00     0.044 C 
BRANCH   6   7
ATOM      7  C   UNL     1      97.145  83.112  79.553  1.00  0.00    -0.044 A 
ATOM      8  C   UNL     1      97.373  82.629  81.892  1.00  0.00     0.160 A 
ATOM      9  C   UNL     1      96.693  83.265  80.853  1.00  0.00     0.054 A 
ATOM     10  C   UNL     1      98.496  81.849  81.618  1.00  0.00     0.157 A 
ATOM     11  C   UNL     1      98.939  81.705  80.302  1.00  0.00     0.050 A 
ATOM     12  C   UNL     1      98.259  82.341  79.263  1.00  0.00     0.008 A 
BRANCH   8  13
ATOM     13  O   UNL     1      96.930  82.778  83.172  1.00  0.00    -0.493 OA
ATOM     14  C   UNL     1      95.751  83.558  83.364  1.00  0.00     0.278 C 
ENDBRANCH   8  13
BRANCH  10  15
ATOM     15  O   UNL     1      99.168  81.224  82.624  1.00  0.00    -0.504 OA
ATOM     16  H   UNL     1      98.517  80.783  83.197  1.00  0.00     0.293 HD
ENDBRANCH  10  15
ENDBRANCH   6   7
ENDBRANCH   5   6
ENDBRANCH   3   5
ENDBRANCH   2   3
BRANCH   1  17
ATOM     17  C   UNL     1      99.115  84.179  72.841  1.00  0.00     0.027 C 
BRANCH  17  18
ATOM     18  C   UNL     1      99.712  85.538  72.461  1.00  0.00     0.004 C 
BRANCH  18  19
ATOM     19  C   UNL     1     101.175  85.706  72.884  1.00  0.00     0.000 C 
BRANCH  19  20
ATOM     20  C   UNL     1     101.301  85.808  74.405  1.00  0.00    -0.003 C 
ATOM     21  C   UNL     1     102.707  86.206  74.822  1.00  0.00     0.004 C 
ENDBRANCH  19  20
ENDBRANCH  18  19
ENDBRANCH  17  18
ENDBRANCH   1  17
TORSDOF 10
ENDMDL
MODEL 7
REMARK VINA RESULT:    -5.707     23.685     25.033
REMARK INTER + INTRA:          -9.520
REMARK INTER:                  -8.941
REMARK INTRA:                  -0.580
REMARK UNBOUND:                -0.644
REMARK SMILES CCCCC/C=C/C(=O)CCc1ccc(O)c(OC)c1
REMARK SMILES IDX 6 1 7 2 8 3 9 4 10 5 11 6 12 7 17 8 20 9 15 10 14 11 13 12
REMARK SMILES IDX 18 13 19 14 16 15 5 17 4 18 3 19 2 20 1 21
REMARK H PARENT 16 16
REMARK Flexibility Score: inf
ROOT
ATOM      1  C   UNL     1      98.413  83.479  73.900  1.00  0.00    -0.023 C 
ATOM      2  C   UNL     1      97.477  84.405  74.144  1.00  0.00     0.043 C 
ENDROOT
BRANCH   2   3
ATOM      3  C   UNL     1      96.965  84.594  75.528  1.00  0.00     0.155 C 
ATOM      4  O   UNL     1      96.089  85.417  75.789  1.00  0.00    -0.295 OA
BRANCH   3   5
ATOM      5  C   UNL     1      97.617  83.757  76.611  1.00  0.00     0.085 C 
BRANCH   5   6
ATOM      6  C   UNL     1      96.759  83.720  77.877  1.00  0.00     0.044 C 
BRANCH   6   7
ATOM      7  C   UNL     1      97.415  82.967  79.009  1.00  0.00    -0.044 A 
ATOM      8  C   UNL     1      99.075  81.415  79.781  1.00  0.00     0.160 A 
ATOM      9  C   UNL     1      98.469  82.110  78.735  1.00  0.00     0.054 A 
ATOM     10  C   UNL     1      98.619  81.585  81.088  1.00  0.00     0.157 A 
ATOM     11  C   UNL     1      97.556  82.451  81.349  1.00  0.00     0.050 A 
ATOM     12  C   UNL     1      96.951  83.146  80.302  1.00  0.00     0.008 A 
BRANCH   8  13
ATOM     13  O   UNL     1     100.112  80.572  79.514  1.00  0.00    -0.493 OA
ATOM     14  C   UNL     1     101.399  81.162  79.341  1.00  0.00     0.278 C 
ENDBRANCH   8  13
BRANCH  10  15
ATOM     15  O   UNL     1      99.203  80.912  82.119  1.00  0.00    -0.504 OA
ATOM     16  H   UNL     1      99.756  81.538  82.618  1.00  0.00     0.293 HD
ENDBRANCH  10  15
ENDBRANCH   6   7
ENDBRANCH   5   6
ENDBRANCH   3   5
ENDBRANCH   2   3
BRANCH   1  17
ATOM     17  C   UNL     1      98.980  83.226  72.533  1.00  0.00     0.027 C 
BRANCH  17  18
ATOM     18  C   UNL     1      99.076  81.736  72.188  1.00  0.00     0.004 C 
BRANCH  18  19
ATOM     19  C   UNL     1      98.088  81.292  71.105  1.00  0.00     0.000 C 
BRANCH  19  20
ATOM     20  C   UNL     1      98.812  80.612  69.942  1.00  0.00    -0.003 C 
ATOM     21  C   UNL     1      98.150  80.930  68.611  1.00  0.00     0.004 C 
ENDBRANCH  19  20
ENDBRANCH  18  19
ENDBRANCH  17  18
ENDBRANCH   1  17
TORSDOF 10
ENDMDL
MODEL 8
REMARK VINA RESULT:    -5.662     28.958     33.744
REMARK INTER + INTRA:          -9.450
REMARK INTER:                  -8.861
REMARK INTRA:                  -0.589
REMARK UNBOUND:                -0.644
REMARK SMILES CCCCC/C=C/C(=O)CCc1ccc(O)c(OC)c1
REMARK SMILES IDX 6 1 7 2 8 3 9 4 10 5 11 6 12 7 17 8 20 9 15 10 14 11 13 12
REMARK SMILES IDX 18 13 19 14 16 15 5 17 4 18 3 19 2 20 1 21
REMARK H PARENT 16 16
REMARK Flexibility Score: inf
ROOT
ATOM      1  C   UNL     1      92.243  95.649  77.225  1.00  0.00    -0.023 C 
ATOM      2  C   UNL     1      92.710  96.796  76.717  1.00  0.00     0.043 C 
ENDROOT
BRANCH   2   3
ATOM      3  C   UNL     1      94.111  97.214  76.994  1.00  0.00     0.155 C 
ATOM      4  O   UNL     1      94.480  97.540  78.120  1.00  0.00    -0.295 OA
BRANCH   3   5
ATOM      5  C   UNL     1      95.048  97.268  75.803  1.00  0.00     0.085 C 
BRANCH   5   6
ATOM      6  C   UNL     1      94.420  96.613  74.572  1.00  0.00     0.044 C 
BRANCH   6   7
ATOM      7  C   UNL     1      94.679  97.384  73.299  1.00  0.00    -0.044 A 
ATOM      8  C   UNL     1      96.156  97.999  71.511  1.00  0.00     0.160 A 
ATOM      9  C   UNL     1      95.918  97.286  72.686  1.00  0.00     0.054 A 
ATOM     10  C   UNL     1      95.154  98.800  70.964  1.00  0.00     0.157 A 
ATOM     11  C   UNL     1      93.912  98.889  71.594  1.00  0.00     0.050 A 
ATOM     12  C   UNL     1      93.674  98.177  72.770  1.00  0.00     0.008 A 
BRANCH   8  13
ATOM     13  O   UNL     1      97.374  97.903  70.906  1.00  0.00    -0.493 OA
ATOM     14  C   UNL     1      98.523  97.969  71.747  1.00  0.00     0.278 C 
ENDBRANCH   8  13
BRANCH  10  15
ATOM     15  O   UNL     1      95.375  99.500  69.817  1.00  0.00    -0.504 OA
ATOM     16  H   UNL     1      95.864 100.310  70.043  1.00  0.00     0.293 HD
ENDBRANCH  10  15
ENDBRANCH   6   7
ENDBRANCH   5   6
ENDBRANCH   3   5
ENDBRANCH   2   3
BRANCH   1  17
ATOM     17  C   UNL     1      90.844  95.158  76.993  1.00  0.00     0.027 C 
BRANCH  17  18
ATOM     18  C   UNL     1      90.679  93.658  77.263  1.00  0.00     0.004 C 
BRANCH  18  19
ATOM     19  C   UNL     1      90.296  92.849  76.020  1.00  0.00     0.000 C 
BRANCH  19  20
ATOM     20  C   UNL     1      89.566  91.561  76.403  1.00  0.00    -0.003 C 
ATOM     21  C   UNL     1      89.662  90.517  75.302  1.00  0.00     0.004 C 
ENDBRANCH  19  20
ENDBRANCH  18  19
ENDBRANCH  17  18
ENDBRANCH   1  17
TORSDOF 10
ENDMDL
MODEL 9
REMARK VINA RESULT:    -5.659     24.334     26.565
REMARK INTER + INTRA:          -9.446
REMARK INTER:                  -8.824
REMARK INTRA:                  -0.622
REMARK UNBOUND:                -0.644
REMARK SMILES CCCCC/C=C/C(=O)CCc1ccc(O)c(OC)c1
REMARK SMILES IDX 6 1 7 2 8 3 9 4 10 5 11 6 12 7 17 8 20 9 15 10 14 11 13 12
REMARK SMILES IDX 18 13 19 14 16 15 5 17 4 18 3 19 2 20 1 21
REMARK H PARENT 16 16
REMARK Flexibility Score: inf
ROOT
ATOM      1  C   UNL     1      97.417  83.509  78.565  1.00  0.00    -0.023 C 
ATOM      2  C   UNL     1      96.435  83.813  77.708  1.00  0.00     0.043 C 
ENDROOT
BRANCH   2   3
ATOM      3  C   UNL     1      96.767  84.293  76.339  1.00  0.00     0.155 C 
ATOM      4  O   UNL     1      96.197  85.258  75.834  1.00  0.00    -0.295 OA
BRANCH   3   5
ATOM      5  C   UNL     1      97.809  83.497  75.578  1.00  0.00     0.085 C 
BRANCH   5   6
ATOM      6  C   UNL     1      97.785  83.836  74.086  1.00  0.00     0.044 C 
BRANCH   6   7
ATOM      7  C   UNL     1      99.046  84.524  73.620  1.00  0.00    -0.044 A 
ATOM      8  C   UNL     1     100.537  85.142  71.844  1.00  0.00     0.160 A 
ATOM      9  C   UNL     1      99.372  84.506  72.274  1.00  0.00     0.054 A 
ATOM     10  C   UNL     1     101.360  85.788  72.766  1.00  0.00     0.157 A 
ATOM     11  C   UNL     1     101.019  85.797  74.119  1.00  0.00     0.050 A 
ATOM     12  C   UNL     1      99.854  85.161  74.549  1.00  0.00     0.008 A 
BRANCH   8  13
ATOM     13  O   UNL     1     100.859  85.126  70.520  1.00  0.00    -0.493 OA
ATOM     14  C   UNL     1     101.211  83.865  69.954  1.00  0.00     0.278 C 
ENDBRANCH   8  13
BRANCH  10  15
ATOM     15  O   UNL     1     102.499  86.413  72.359  1.00  0.00    -0.504 OA
ATOM     16  H   UNL     1     102.355  86.757  71.460  1.00  0.00     0.293 HD
ENDBRANCH  10  15
ENDBRANCH   6   7
ENDBRANCH   5   6
ENDBRANCH   3   5
ENDBRANCH   2   3
BRANCH   1  17
ATOM     17  C   UNL     1      97.165  83.019  79.962  1.00  0.00     0.027 C 
BRANCH  17  18
ATOM     18  C   UNL     1      98.079  81.857  80.366  1.00  0.00     0.004 C 
BRANCH  18  19
ATOM     19  C   UNL     1      97.322  80.566  80.692  1.00  0.00     0.000 C 
BRANCH  19  20
ATOM     20  C   UNL     1      96.613  80.669  82.044  1.00  0.00    -0.003 C 
ATOM     21  C   UNL     1      96.517  79.314  82.727  1.00  0.00     0.004 C 
ENDBRANCH  19  20
ENDBRANCH  18  19
ENDBRANCH  17  18
ENDBRANCH   1  17
TORSDOF 10
ENDMDL
MODEL 10
REMARK VINA RESULT:    -5.628     21.818     24.742
REMARK INTER + INTRA:          -9.397
REMARK INTER:                  -8.926
REMARK INTRA:                  -0.472
REMARK UNBOUND:                -0.644
REMARK SMILES CCCCC/C=C/C(=O)CCc1ccc(O)c(OC)c1
REMARK SMILES IDX 6 1 7 2 8 3 9 4 10 5 11 6 12 7 17 8 20 9 15 10 14 11 13 12
REMARK SMILES IDX 18 13 19 14 16 15 5 17 4 18 3 19 2 20 1 21
REMARK H PARENT 16 16
REMARK Flexibility Score: inf
ROOT
ATOM      1  C   UNL     1      96.738  83.350  81.696  1.00  0.00    -0.023 C 
ATOM      2  C   UNL     1      96.084  82.744  82.695  1.00  0.00     0.043 C 
ENDROOT
BRANCH   2   3
ATOM      3  C   UNL     1      95.670  83.526  83.892  1.00  0.00     0.155 C 
ATOM      4  O   UNL     1      96.262  84.547  84.237  1.00  0.00    -0.295 OA
BRANCH   3   5
ATOM      5  C   UNL     1      94.511  82.969  84.695  1.00  0.00     0.085 C 
BRANCH   5   6
ATOM      6  C   UNL     1      94.521  81.440  84.697  1.00  0.00     0.044 C 
BRANCH   6   7
ATOM      7  C   UNL     1      93.138  80.843  84.577  1.00  0.00    -0.044 A 
ATOM      8  C   UNL     1      90.784  81.123  84.207  1.00  0.00     0.160 A 
ATOM      9  C   UNL     1      92.060  81.675  84.318  1.00  0.00     0.054 A 
ATOM     10  C   UNL     1      90.602  79.749  84.356  1.00  0.00     0.157 A 
ATOM     11  C   UNL     1      91.697  78.924  84.617  1.00  0.00     0.050 A 
ATOM     12  C   UNL     1      92.974  79.476  84.728  1.00  0.00     0.008 A 
BRANCH   8  13
ATOM     13  O   UNL     1      89.722  81.938  83.952  1.00  0.00    -0.493 OA
ATOM     14  C   UNL     1      88.891  82.285  85.059  1.00  0.00     0.278 C 
ENDBRANCH   8  13
BRANCH  10  15
ATOM     15  O   UNL     1      89.360  79.198  84.249  1.00  0.00    -0.504 OA
ATOM     16  H   UNL     1      89.390  78.510  83.563  1.00  0.00     0.293 HD
ENDBRANCH  10  15
ENDBRANCH   6   7
ENDBRANCH   5   6
ENDBRANCH   3   5
ENDBRANCH   2   3
BRANCH   1  17
ATOM     17  C   UNL     1      97.190  82.632  80.457  1.00  0.00     0.027 C 
BRANCH  17  18
ATOM     18  C   UNL     1      96.773  83.342  79.165  1.00  0.00     0.004 C 
BRANCH  18  19
ATOM     19  C   UNL     1      97.862  83.345  78.087  1.00  0.00     0.000 C 
BRANCH  19  20
ATOM     20  C   UNL     1      97.720  82.141  77.155  1.00  0.00    -0.003 C 
ATOM     21  C   UNL     1      98.647  82.252  75.956  1.00  0.00     0.004 C 
ENDBRANCH  19  20
ENDBRANCH  18  19
ENDBRANCH  17  18
ENDBRANCH   1  17
TORSDOF 10
ENDMDL
