MODEL 1
REMARK VINA RESULT:    -5.878      0.000      0.000
REMARK INTER + INTRA:         -10.493
REMARK INTER:                  -9.142
REMARK INTRA:                  -1.351
REMARK UNBOUND:                -1.351
REMARK SMILES COc1cc(CNC(=O)CCCC/C=C/C(C)C)ccc1O
REMARK SMILES IDX 10 1 8 2 7 3 9 5 6 6 5 7 3 8 21 9 4 10 20 11 19 12 2 13 1 14
REMARK SMILES IDX 22 15 11 17 12 18 13 19 14 20 15 21 16 22 17 23 18 24
REMARK H PARENT 7 4 22 16
REMARK Flexibility Score: inf
ROOT
ATOM      1  C   UNL     1      95.469  99.183  75.087  1.00  0.00     0.100 C 
ENDROOT
BRANCH   1   2
ATOM      2  C   UNL     1      96.528  98.568  75.910  1.00  0.00     0.220 C 
ATOM      3  N   UNL     1      96.218  97.941  77.079  1.00  0.00    -0.352 N 
ATOM      4  H   UNL     1      95.238  97.960  77.327  1.00  0.00     0.163 HD
ATOM      5  O   UNL     1      97.709  98.619  75.490  1.00  0.00    -0.275 OA
BRANCH   3   6
ATOM      6  C   UNL     1      97.161  97.288  77.929  1.00  0.00     0.151 C 
BRANCH   6   7
ATOM      7  C   UNL     1      96.490  96.357  78.877  1.00  0.00    -0.025 A 
ATOM      8  C   UNL     1      96.286  95.401  81.137  1.00  0.00     0.160 A 
ATOM      9  C   UNL     1      95.208  94.601  80.702  1.00  0.00     0.157 A 
ATOM     10  C   UNL     1      96.917  96.268  80.221  1.00  0.00     0.056 A 
ATOM     11  C   UNL     1      94.784  94.664  79.360  1.00  0.00     0.050 A 
ATOM     12  C   UNL     1      95.413  95.542  78.456  1.00  0.00     0.009 A 
BRANCH   8  13
ATOM     13  O   UNL     1      96.745  95.295  82.425  1.00  0.00    -0.493 OA
ATOM     14  C   UNL     1      98.162  95.507  82.562  1.00  0.00     0.278 C 
ENDBRANCH   8  13
BRANCH   9  15
ATOM     15  O   UNL     1      94.571  93.765  81.561  1.00  0.00    -0.504 OA
ATOM     16  H   UNL     1      94.037  93.140  81.065  1.00  0.00     0.293 HD
ENDBRANCH   9  15
ENDBRANCH   6   7
ENDBRANCH   3   6
ENDBRANCH   1   2
BRANCH   1  17
ATOM     17  C   UNL     1      95.047  98.260  73.912  1.00  0.00     0.010 C 
BRANCH  17  18
ATOM     18  C   UNL     1      93.790  97.406  74.235  1.00  0.00     0.005 C 
BRANCH  18  19
ATOM     19  C   UNL     1      94.154  95.968  74.693  1.00  0.00     0.027 C 
BRANCH  19  20
ATOM     20  C   UNL     1      93.044  95.309  75.364  1.00  0.00    -0.031 C 
ATOM     21  C   UNL     1      92.013  95.959  75.935  1.00  0.00    -0.028 C 
BRANCH  21  22
ATOM     22  C   UNL     1      90.896  95.275  76.588  1.00  0.00     0.005 C 
ATOM     23  C   UNL     1      90.052  94.438  75.587  1.00  0.00     0.012 C 
ATOM     24  C   UNL     1      91.416  94.389  77.750  1.00  0.00     0.012 C 
ENDBRANCH  21  22
ENDBRANCH  19  20
ENDBRANCH  18  19
ENDBRANCH  17  18
ENDBRANCH   1  17
TORSDOF 10
ENDMDL
MODEL 2
REMARK VINA RESULT:    -5.771     17.688     20.064
REMARK INTER + INTRA:         -10.326
REMARK INTER:                  -9.704
REMARK INTRA:                  -0.623
REMARK UNBOUND:                -1.351
REMARK SMILES COc1cc(CNC(=O)CCCC/C=C/C(C)C)ccc1O
REMARK SMILES IDX 10 1 8 2 7 3 9 5 6 6 5 7 3 8 21 9 4 10 20 11 19 12 2 13 1 14
REMARK SMILES IDX 22 15 11 17 12 18 13 19 14 20 15 21 16 22 17 23 18 24
REMARK H PARENT 7 4 22 16
REMARK Flexibility Score: inf
ROOT
ATOM      1  C   UNL     1      91.769  74.804  82.063  1.00  0.00     0.100 C 
ENDROOT
BRANCH   1   2
ATOM      2  C   UNL     1      90.883  75.192  83.177  1.00  0.00     0.220 C 
ATOM      3  N   UNL     1      90.451  76.478  83.301  1.00  0.00    -0.352 N 
ATOM      4  H   UNL     1      90.802  77.115  82.599  1.00  0.00     0.163 HD
ATOM      5  O   UNL     1      90.525  74.302  83.987  1.00  0.00    -0.275 OA
BRANCH   3   6
ATOM      6  C   UNL     1      89.569  76.947  84.321  1.00  0.00     0.151 C 
BRANCH   6   7
ATOM      7  C   UNL     1      89.381  78.422  84.245  1.00  0.00    -0.025 A 
ATOM      8  C   UNL     1      90.336  80.683  84.048  1.00  0.00     0.160 A 
ATOM      9  C   UNL     1      89.038  81.234  84.079  1.00  0.00     0.157 A 
ATOM     10  C   UNL     1      90.495  79.284  84.133  1.00  0.00     0.056 A 
ATOM     11  C   UNL     1      87.919  80.389  84.210  1.00  0.00     0.050 A 
ATOM     12  C   UNL     1      88.087  78.992  84.282  1.00  0.00     0.009 A 
BRANCH   8  13
ATOM     13  O   UNL     1      91.432  81.505  83.987  1.00  0.00    -0.493 OA
ATOM     14  C   UNL     1      92.055  81.748  85.261  1.00  0.00     0.278 C 
ENDBRANCH   8  13
BRANCH   9  15
ATOM     15  O   UNL     1      88.849  82.576  83.985  1.00  0.00    -0.504 OA
ATOM     16  H   UNL     1      88.101  82.756  83.411  1.00  0.00     0.293 HD
ENDBRANCH   9  15
ENDBRANCH   6   7
ENDBRANCH   3   6
ENDBRANCH   1   2
BRANCH   1  17
ATOM     17  C   UNL     1      91.229  75.309  80.698  1.00  0.00     0.010 C 
BRANCH  17  18
ATOM     18  C   UNL     1      91.686  74.428  79.502  1.00  0.00     0.005 C 
BRANCH  18  19
ATOM     19  C   UNL     1      90.711  74.516  78.297  1.00  0.00     0.027 C 
BRANCH  19  20
ATOM     20  C   UNL     1      91.073  75.585  77.378  1.00  0.00    -0.031 C 
ATOM     21  C   UNL     1      90.182  76.330  76.697  1.00  0.00    -0.028 C 
BRANCH  21  22
ATOM     22  C   UNL     1      90.568  77.413  75.793  1.00  0.00     0.005 C 
ATOM     23  C   UNL     1      91.637  78.350  76.419  1.00  0.00     0.012 C 
ATOM     24  C   UNL     1      91.063  76.834  74.442  1.00  0.00     0.012 C 
ENDBRANCH  21  22
ENDBRANCH  19  20
ENDBRANCH  18  19
ENDBRANCH  17  18
ENDBRANCH   1  17
TORSDOF 10
ENDMDL
MODEL 3
REMARK VINA RESULT:    -5.737      2.453      5.759
REMARK INTER + INTRA:         -10.275
REMARK INTER:                  -9.181
REMARK INTRA:                  -1.094
REMARK UNBOUND:                -1.351
REMARK SMILES COc1cc(CNC(=O)CCCC/C=C/C(C)C)ccc1O
REMARK SMILES IDX 10 1 8 2 7 3 9 5 6 6 5 7 3 8 21 9 4 10 20 11 19 12 2 13 1 14
REMARK SMILES IDX 22 15 11 17 12 18 13 19 14 20 15 21 16 22 17 23 18 24
REMARK H PARENT 7 4 22 16
REMARK Flexibility Score: inf
ROOT
ATOM      1  C   UNL     1      94.807  99.525  74.262  1.00  0.00     0.100 C 
ENDROOT
BRANCH   1   2
ATOM      2  C   UNL     1      94.738  98.084  73.956  1.00  0.00     0.220 C 
ATOM      3  N   UNL     1      94.003  97.245  74.740  1.00  0.00    -0.352 N 
ATOM      4  H   UNL     1      93.551  97.686  75.529  1.00  0.00     0.163 HD
ATOM      5  O   UNL     1      95.352  97.662  72.947  1.00  0.00    -0.275 OA
BRANCH   3   6
ATOM      6  C   UNL     1      93.846  95.844  74.511  1.00  0.00     0.151 C 
BRANCH   6   7
ATOM      7  C   UNL     1      92.926  95.228  75.506  1.00  0.00    -0.025 A 
ATOM      8  C   UNL     1      90.989  93.794  76.012  1.00  0.00     0.160 A 
ATOM      9  C   UNL     1      91.174  94.030  77.390  1.00  0.00     0.157 A 
ATOM     10  C   UNL     1      91.864  94.397  75.084  1.00  0.00     0.056 A 
ATOM     11  C   UNL     1      92.217  94.872  77.825  1.00  0.00     0.050 A 
ATOM     12  C   UNL     1      93.093  95.459  76.892  1.00  0.00     0.009 A 
BRANCH   8  13
ATOM     13  O   UNL     1      89.936  93.029  75.581  1.00  0.00    -0.493 OA
ATOM     14  C   UNL     1      90.098  92.504  74.250  1.00  0.00     0.278 C 
ENDBRANCH   8  13
BRANCH   9  15
ATOM     15  O   UNL     1      90.358  93.454  78.311  1.00  0.00    -0.504 OA
ATOM     16  H   UNL     1      90.461  93.901  79.154  1.00  0.00     0.293 HD
ENDBRANCH   9  15
ENDBRANCH   6   7
ENDBRANCH   3   6
ENDBRANCH   1   2
BRANCH   1  17
ATOM     17  C   UNL     1      96.085  99.879  75.069  1.00  0.00     0.010 C 
BRANCH  17  18
ATOM     18  C   UNL     1      95.993  99.460  76.563  1.00  0.00     0.005 C 
BRANCH  18  19
ATOM     19  C   UNL     1      96.748  98.134  76.853  1.00  0.00     0.027 C 
BRANCH  19  20
ATOM     20  C   UNL     1      96.127  97.374  77.926  1.00  0.00    -0.031 C 
ATOM     21  C   UNL     1      96.800  96.832  78.957  1.00  0.00    -0.028 C 
BRANCH  21  22
ATOM     22  C   UNL     1      96.152  96.087  80.036  1.00  0.00     0.005 C 
ATOM     23  C   UNL     1      95.474  94.784  79.528  1.00  0.00     0.012 C 
ATOM     24  C   UNL     1      97.172  95.777  81.162  1.00  0.00     0.012 C 
ENDBRANCH  21  22
ENDBRANCH  19  20
ENDBRANCH  18  19
ENDBRANCH  17  18
ENDBRANCH   1  17
TORSDOF 10
ENDMDL
MODEL 4
REMARK VINA RESULT:    -5.659     17.462     20.912
REMARK INTER + INTRA:         -10.153
REMARK INTER:                  -9.456
REMARK INTRA:                  -0.697
REMARK UNBOUND:                -1.351
REMARK SMILES COc1cc(CNC(=O)CCCC/C=C/C(C)C)ccc1O
REMARK SMILES IDX 10 1 8 2 7 3 9 5 6 6 5 7 3 8 21 9 4 10 20 11 19 12 2 13 1 14
REMARK SMILES IDX 22 15 11 17 12 18 13 19 14 20 15 21 16 22 17 23 18 24
REMARK H PARENT 7 4 22 16
REMARK Flexibility Score: inf
ROOT
ATOM      1  C   UNL     1      73.618  90.423  71.230  1.00  0.00     0.100 C 
ENDROOT
BRANCH   1   2
ATOM      2  C   UNL     1      73.470  91.720  71.919  1.00  0.00     0.220 C 
ATOM      3  N   UNL     1      74.503  92.608  71.952  1.00  0.00    -0.352 N 
ATOM      4  H   UNL     1      75.350  92.293  71.499  1.00  0.00     0.163 HD
ATOM      5  O   UNL     1      72.364  91.986  72.448  1.00  0.00    -0.275 OA
BRANCH   3   6
ATOM      6  C   UNL     1      74.450  93.897  72.562  1.00  0.00     0.151 C 
BRANCH   6   7
ATOM      7  C   UNL     1      75.565  94.090  73.529  1.00  0.00    -0.025 A 
ATOM      8  C   UNL     1      77.800  94.983  74.052  1.00  0.00     0.160 A 
ATOM      9  C   UNL     1      77.693  94.483  75.366  1.00  0.00     0.157 A 
ATOM     10  C   UNL     1      76.737  94.780  73.146  1.00  0.00     0.056 A 
ATOM     11  C   UNL     1      76.538  93.777  75.757  1.00  0.00     0.050 A 
ATOM     12  C   UNL     1      75.478  93.589  74.849  1.00  0.00     0.009 A 
BRANCH   8  13
ATOM     13  O   UNL     1      78.949  95.613  73.647  1.00  0.00    -0.493 OA
ATOM     14  C   UNL     1      78.820  96.325  72.402  1.00  0.00     0.278 C 
ENDBRANCH   8  13
BRANCH   9  15
ATOM     15  O   UNL     1      78.691  94.673  76.267  1.00  0.00    -0.504 OA
ATOM     16  H   UNL     1      78.736  93.919  76.860  1.00  0.00     0.293 HD
ENDBRANCH   9  15
ENDBRANCH   6   7
ENDBRANCH   3   6
ENDBRANCH   1   2
BRANCH   1  17
ATOM     17  C   UNL     1      74.865  90.406  70.305  1.00  0.00     0.010 C 
BRANCH  17  18
ATOM     18  C   UNL     1      74.564  89.824  68.895  1.00  0.00     0.005 C 
BRANCH  18  19
ATOM     19  C   UNL     1      75.853  89.615  68.055  1.00  0.00     0.027 C 
BRANCH  19  20
ATOM     20  C   UNL     1      76.631  88.477  68.519  1.00  0.00    -0.031 C 
ATOM     21  C   UNL     1      76.102  87.286  68.853  1.00  0.00    -0.028 C 
BRANCH  21  22
ATOM     22  C   UNL     1      76.906  86.148  69.299  1.00  0.00     0.005 C 
ATOM     23  C   UNL     1      76.068  85.111  70.097  1.00  0.00     0.012 C 
ATOM     24  C   UNL     1      77.606  85.478  68.088  1.00  0.00     0.012 C 
ENDBRANCH  21  22
ENDBRANCH  19  20
ENDBRANCH  18  19
ENDBRANCH  17  18
ENDBRANCH   1  17
TORSDOF 10
ENDMDL
MODEL 5
REMARK VINA RESULT:    -5.596     17.899     21.210
REMARK INTER + INTRA:         -10.055
REMARK INTER:                  -9.496
REMARK INTRA:                  -0.559
REMARK UNBOUND:                -1.351
REMARK SMILES COc1cc(CNC(=O)CCCC/C=C/C(C)C)ccc1O
REMARK SMILES IDX 10 1 8 2 7 3 9 5 6 6 5 7 3 8 21 9 4 10 20 11 19 12 2 13 1 14
REMARK SMILES IDX 22 15 11 17 12 18 13 19 14 20 15 21 16 22 17 23 18 24
REMARK H PARENT 7 4 22 16
REMARK Flexibility Score: inf
ROOT
ATOM      1  C   UNL     1      73.399  90.393  71.284  1.00  0.00     0.100 C 
ENDROOT
BRANCH   1   2
ATOM      2  C   UNL     1      73.165  91.468  72.267  1.00  0.00     0.220 C 
ATOM      3  N   UNL     1      74.150  92.361  72.563  1.00  0.00    -0.352 N 
ATOM      4  H   UNL     1      75.025  92.206  72.082  1.00  0.00     0.163 HD
ATOM      5  O   UNL     1      72.031  91.547  72.800  1.00  0.00    -0.275 OA
BRANCH   3   6
ATOM      6  C   UNL     1      74.014  93.453  73.473  1.00  0.00     0.151 C 
BRANCH   6   7
ATOM      7  C   UNL     1      75.287  93.724  74.195  1.00  0.00    -0.025 A 
ATOM      8  C   UNL     1      76.491  94.156  76.299  1.00  0.00     0.160 A 
ATOM      9  C   UNL     1      77.708  94.222  75.590  1.00  0.00     0.157 A 
ATOM     10  C   UNL     1      75.293  93.911  75.595  1.00  0.00     0.056 A 
ATOM     11  C   UNL     1      77.716  94.058  74.191  1.00  0.00     0.050 A 
ATOM     12  C   UNL     1      76.516  93.801  73.499  1.00  0.00     0.009 A 
BRANCH   8  13
ATOM     13  O   UNL     1      76.469  94.381  77.652  1.00  0.00    -0.493 OA
ATOM     14  C   UNL     1      75.146  94.455  78.214  1.00  0.00     0.278 C 
ENDBRANCH   8  13
BRANCH   9  15
ATOM     15  O   UNL     1      78.880  94.444  76.239  1.00  0.00    -0.504 OA
ATOM     16  H   UNL     1      79.204  93.619  76.607  1.00  0.00     0.293 HD
ENDBRANCH   9  15
ENDBRANCH   6   7
ENDBRANCH   3   6
ENDBRANCH   1   2
BRANCH   1  17
ATOM     17  C   UNL     1      74.678  90.654  70.444  1.00  0.00     0.010 C 
BRANCH  17  18
ATOM     18  C   UNL     1      74.710  89.838  69.121  1.00  0.00     0.005 C 
BRANCH  18  19
ATOM     19  C   UNL     1      76.022  89.025  68.959  1.00  0.00     0.027 C 
BRANCH  19  20
ATOM     20  C   UNL     1      75.776  87.592  68.917  1.00  0.00    -0.031 C 
ATOM     21  C   UNL     1      76.673  86.683  68.491  1.00  0.00    -0.028 C 
BRANCH  21  22
ATOM     22  C   UNL     1      76.411  85.244  68.475  1.00  0.00     0.005 C 
ATOM     23  C   UNL     1      77.436  84.468  67.603  1.00  0.00     0.012 C 
ATOM     24  C   UNL     1      76.384  84.688  69.923  1.00  0.00     0.012 C 
ENDBRANCH  21  22
ENDBRANCH  19  20
ENDBRANCH  18  19
ENDBRANCH  17  18
ENDBRANCH   1  17
TORSDOF 10
ENDMDL
MODEL 6
REMARK VINA RESULT:    -5.396     13.058     15.696
REMARK INTER + INTRA:          -9.743
REMARK INTER:                  -8.317
REMARK INTRA:                  -1.426
REMARK UNBOUND:                -1.351
REMARK SMILES COc1cc(CNC(=O)CCCC/C=C/C(C)C)ccc1O
REMARK SMILES IDX 10 1 8 2 7 3 9 5 6 6 5 7 3 8 21 9 4 10 20 11 19 12 2 13 1 14
REMARK SMILES IDX 22 15 11 17 12 18 13 19 14 20 15 21 16 22 17 23 18 24
REMARK H PARENT 7 4 22 16
REMARK Flexibility Score: inf
ROOT
ATOM      1  C   UNL     1      96.637  78.511  82.779  1.00  0.00     0.100 C 
ENDROOT
BRANCH   1   2
ATOM      2  C   UNL     1      96.164  79.361  83.889  1.00  0.00     0.220 C 
ATOM      3  N   UNL     1      95.182  80.283  83.684  1.00  0.00    -0.352 N 
ATOM      4  H   UNL     1      94.843  80.341  82.734  1.00  0.00     0.163 HD
ATOM      5  O   UNL     1      96.675  79.193  85.023  1.00  0.00    -0.275 OA
BRANCH   3   6
ATOM      6  C   UNL     1      94.634  81.130  84.695  1.00  0.00     0.151 C 
BRANCH   6   7
ATOM      7  C   UNL     1      94.985  82.557  84.462  1.00  0.00    -0.025 A 
ATOM      8  C   UNL     1      95.060  84.887  85.254  1.00  0.00     0.160 A 
ATOM      9  C   UNL     1      95.666  85.280  84.043  1.00  0.00     0.157 A 
ATOM     10  C   UNL     1      94.724  83.532  85.452  1.00  0.00     0.056 A 
ATOM     11  C   UNL     1      95.915  84.323  83.039  1.00  0.00     0.050 A 
ATOM     12  C   UNL     1      95.586  82.970  83.250  1.00  0.00     0.009 A 
BRANCH   8  13
ATOM     13  O   UNL     1      94.756  85.826  86.207  1.00  0.00    -0.493 OA
ATOM     14  C   UNL     1      93.445  85.675  86.782  1.00  0.00     0.278 C 
ENDBRANCH   8  13
BRANCH   9  15
ATOM     15  O   UNL     1      96.014  86.575  83.826  1.00  0.00    -0.504 OA
ATOM     16  H   UNL     1      96.887  86.610  83.428  1.00  0.00     0.293 HD
ENDBRANCH   9  15
ENDBRANCH   6   7
ENDBRANCH   3   6
ENDBRANCH   1   2
BRANCH   1  17
ATOM     17  C   UNL     1      97.053  79.358  81.546  1.00  0.00     0.010 C 
BRANCH  17  18
ATOM     18  C   UNL     1      98.485  79.948  81.674  1.00  0.00     0.005 C 
BRANCH  18  19
ATOM     19  C   UNL     1      98.481  81.500  81.735  1.00  0.00     0.027 C 
BRANCH  19  20
ATOM     20  C   UNL     1      97.855  82.092  80.563  1.00  0.00    -0.031 C 
ATOM     21  C   UNL     1      98.493  82.329  79.403  1.00  0.00    -0.028 C 
BRANCH  21  22
ATOM     22  C   UNL     1      97.838  82.907  78.230  1.00  0.00     0.005 C 
ATOM     23  C   UNL     1      97.596  81.856  77.111  1.00  0.00     0.012 C 
ATOM     24  C   UNL     1      96.509  83.592  78.642  1.00  0.00     0.012 C 
ENDBRANCH  21  22
ENDBRANCH  19  20
ENDBRANCH  18  19
ENDBRANCH  17  18
ENDBRANCH   1  17
TORSDOF 10
ENDMDL
MODEL 7
REMARK VINA RESULT:    -5.230     13.582     15.906
REMARK INTER + INTRA:          -9.486
REMARK INTER:                  -8.142
REMARK INTRA:                  -1.344
REMARK UNBOUND:                -1.351
REMARK SMILES COc1cc(CNC(=O)CCCC/C=C/C(C)C)ccc1O
REMARK SMILES IDX 10 1 8 2 7 3 9 5 6 6 5 7 3 8 21 9 4 10 20 11 19 12 2 13 1 14
REMARK SMILES IDX 22 15 11 17 12 18 13 19 14 20 15 21 16 22 17 23 18 24
REMARK H PARENT 7 4 22 16
REMARK Flexibility Score: inf
ROOT
ATOM      1  C   UNL     1     100.359  78.801  80.187  1.00  0.00     0.100 C 
ENDROOT
BRANCH   1   2
ATOM      2  C   UNL     1     100.676  80.037  79.446  1.00  0.00     0.220 C 
ATOM      3  N   UNL     1     100.038  80.326  78.278  1.00  0.00    -0.352 N 
ATOM      4  H   UNL     1      99.374  79.628  77.970  1.00  0.00     0.163 HD
ATOM      5  O   UNL     1     101.527  80.818  79.935  1.00  0.00    -0.275 OA
BRANCH   3   6
ATOM      6  C   UNL     1     100.249  81.507  77.504  1.00  0.00     0.151 C 
BRANCH   6   7
ATOM      7  C   UNL     1      99.029  82.359  77.462  1.00  0.00    -0.025 A 
ATOM      8  C   UNL     1      97.532  83.875  76.229  1.00  0.00     0.160 A 
ATOM      9  C   UNL     1      96.696  83.971  77.360  1.00  0.00     0.157 A 
ATOM     10  C   UNL     1      98.690  83.072  76.291  1.00  0.00     0.056 A 
ATOM     11  C   UNL     1      97.031  83.281  78.542  1.00  0.00     0.050 A 
ATOM     12  C   UNL     1      98.183  82.473  78.591  1.00  0.00     0.009 A 
BRANCH   8  13
ATOM     13  O   UNL     1      97.245  84.597  75.098  1.00  0.00    -0.493 OA
ATOM     14  C   UNL     1      97.449  83.872  73.871  1.00  0.00     0.278 C 
ENDBRANCH   8  13
BRANCH   9  15
ATOM     15  O   UNL     1      95.566  84.724  77.329  1.00  0.00    -0.504 OA
ATOM     16  H   UNL     1      95.788  85.625  77.081  1.00  0.00     0.293 HD
ENDBRANCH   9  15
ENDBRANCH   6   7
ENDBRANCH   3   6
ENDBRANCH   1   2
BRANCH   1  17
ATOM     17  C   UNL     1      99.647  79.106  81.533  1.00  0.00     0.010 C 
BRANCH  17  18
ATOM     18  C   UNL     1      98.122  78.806  81.492  1.00  0.00     0.005 C 
BRANCH  18  19
ATOM     19  C   UNL     1      97.301  79.997  80.929  1.00  0.00     0.027 C 
BRANCH  19  20
ATOM     20  C   UNL     1      96.713  80.806  81.986  1.00  0.00    -0.031 C 
ATOM     21  C   UNL     1      97.041  82.087  82.229  1.00  0.00    -0.028 C 
BRANCH  21  22
ATOM     22  C   UNL     1      96.423  82.888  83.286  1.00  0.00     0.005 C 
ATOM     23  C   UNL     1      95.923  84.264  82.767  1.00  0.00     0.012 C 
ATOM     24  C   UNL     1      95.268  82.095  83.952  1.00  0.00     0.012 C 
ENDBRANCH  21  22
ENDBRANCH  19  20
ENDBRANCH  18  19
ENDBRANCH  17  18
ENDBRANCH   1  17
TORSDOF 10
ENDMDL
MODEL 8
REMARK VINA RESULT:    -5.201     12.721     14.074
REMARK INTER + INTRA:          -9.440
REMARK INTER:                  -8.842
REMARK INTRA:                  -0.598
REMARK UNBOUND:                -1.351
REMARK SMILES COc1cc(CNC(=O)CCCC/C=C/C(C)C)ccc1O
REMARK SMILES IDX 10 1 8 2 7 3 9 5 6 6 5 7 3 8 21 9 4 10 20 11 19 12 2 13 1 14
REMARK SMILES IDX 22 15 11 17 12 18 13 19 14 20 15 21 16 22 17 23 18 24
REMARK H PARENT 7 4 22 16
REMARK Flexibility Score: inf
ROOT
ATOM      1  C   UNL     1      98.491  84.665  74.716  1.00  0.00     0.100 C 
ENDROOT
BRANCH   1   2
ATOM      2  C   UNL     1      97.401  84.420  75.680  1.00  0.00     0.220 C 
ATOM      3  N   UNL     1      97.665  83.870  76.898  1.00  0.00    -0.352 N 
ATOM      4  H   UNL     1      98.635  83.634  77.058  1.00  0.00     0.163 HD
ATOM      5  O   UNL     1      96.236  84.753  75.353  1.00  0.00    -0.275 OA
BRANCH   3   6
ATOM      6  C   UNL     1      96.689  83.622  77.910  1.00  0.00     0.151 C 
BRANCH   6   7
ATOM      7  C   UNL     1      97.308  83.056  79.139  1.00  0.00    -0.025 A 
ATOM      8  C   UNL     1      97.229  82.640  81.565  1.00  0.00     0.160 A 
ATOM      9  C   UNL     1      98.465  81.965  81.490  1.00  0.00     0.157 A 
ATOM     10  C   UNL     1      96.664  83.181  80.391  1.00  0.00     0.056 A 
ATOM     11  C   UNL     1      99.128  81.849  80.253  1.00  0.00     0.050 A 
ATOM     12  C   UNL     1      98.550  82.381  79.084  1.00  0.00     0.009 A 
BRANCH   8  13
ATOM     13  O   UNL     1      96.612  82.813  82.778  1.00  0.00    -0.493 OA
ATOM     14  C   UNL     1      95.993  84.102  82.943  1.00  0.00     0.278 C 
ENDBRANCH   8  13
BRANCH   9  15
ATOM     15  O   UNL     1      99.030  81.422  82.599  1.00  0.00    -0.504 OA
ATOM     16  H   UNL     1      98.577  81.746  83.381  1.00  0.00     0.293 HD
ENDBRANCH   9  15
ENDBRANCH   6   7
ENDBRANCH   3   6
ENDBRANCH   1   2
BRANCH   1  17
ATOM     17  C   UNL     1      98.057  84.331  73.263  1.00  0.00     0.010 C 
BRANCH  17  18
ATOM     18  C   UNL     1      98.574  82.946  72.782  1.00  0.00     0.005 C 
BRANCH  18  19
ATOM     19  C   UNL     1      99.927  83.050  72.028  1.00  0.00     0.027 C 
BRANCH  19  20
ATOM     20  C   UNL     1     100.803  84.054  72.612  1.00  0.00    -0.031 C 
ATOM     21  C   UNL     1     101.893  83.770  73.349  1.00  0.00    -0.028 C 
BRANCH  21  22
ATOM     22  C   UNL     1     102.771  84.796  73.910  1.00  0.00     0.005 C 
ATOM     23  C   UNL     1     102.003  85.799  74.815  1.00  0.00     0.012 C 
ATOM     24  C   UNL     1     103.940  84.135  74.686  1.00  0.00     0.012 C 
ENDBRANCH  21  22
ENDBRANCH  19  20
ENDBRANCH  18  19
ENDBRANCH  17  18
ENDBRANCH   1  17
TORSDOF 10
ENDMDL
MODEL 9
REMARK VINA RESULT:    -5.093     12.928     14.248
REMARK INTER + INTRA:          -9.272
REMARK INTER:                  -8.647
REMARK INTRA:                  -0.625
REMARK UNBOUND:                -1.351
REMARK SMILES COc1cc(CNC(=O)CCCC/C=C/C(C)C)ccc1O
REMARK SMILES IDX 10 1 8 2 7 3 9 5 6 6 5 7 3 8 21 9 4 10 20 11 19 12 2 13 1 14
REMARK SMILES IDX 22 15 11 17 12 18 13 19 14 20 15 21 16 22 17 23 18 24
REMARK H PARENT 7 4 22 16
REMARK Flexibility Score: inf
ROOT
ATOM      1  C   UNL     1      97.946  83.400  75.008  1.00  0.00     0.100 C 
ENDROOT
BRANCH   1   2
ATOM      2  C   UNL     1      97.165  83.807  76.191  1.00  0.00     0.220 C 
ATOM      3  N   UNL     1      97.382  83.218  77.400  1.00  0.00    -0.352 N 
ATOM      4  H   UNL     1      98.083  82.489  77.399  1.00  0.00     0.163 HD
ATOM      5  O   UNL     1      96.317  84.723  76.055  1.00  0.00    -0.275 OA
BRANCH   3   6
ATOM      6  C   UNL     1      96.704  83.561  78.609  1.00  0.00     0.151 C 
BRANCH   6   7
ATOM      7  C   UNL     1      97.339  82.920  79.793  1.00  0.00    -0.025 A 
ATOM      8  C   UNL     1      97.375  82.490  82.217  1.00  0.00     0.160 A 
ATOM      9  C   UNL     1      98.524  81.688  82.058  1.00  0.00     0.157 A 
ATOM     10  C   UNL     1      96.795  83.099  81.084  1.00  0.00     0.056 A 
ATOM     11  C   UNL     1      99.089  81.516  80.779  1.00  0.00     0.050 A 
ATOM     12  C   UNL     1      98.496  82.119  79.653  1.00  0.00     0.009 A 
BRANCH   8  13
ATOM     13  O   UNL     1      96.860  82.714  83.468  1.00  0.00    -0.493 OA
ATOM     14  C   UNL     1      96.169  83.970  83.602  1.00  0.00     0.278 C 
ENDBRANCH   8  13
BRANCH   9  15
ATOM     15  O   UNL     1      99.099  81.077  83.126  1.00  0.00    -0.504 OA
ATOM     16  H   UNL     1      98.890  81.564  83.926  1.00  0.00     0.293 HD
ENDBRANCH   9  15
ENDBRANCH   6   7
ENDBRANCH   3   6
ENDBRANCH   1   2
BRANCH   1  17
ATOM     17  C   UNL     1      97.997  84.526  73.940  1.00  0.00     0.010 C 
BRANCH  17  18
ATOM     18  C   UNL     1      99.401  85.183  73.820  1.00  0.00     0.005 C 
BRANCH  18  19
ATOM     19  C   UNL     1      99.642  85.810  72.421  1.00  0.00     0.027 C 
BRANCH  19  20
ATOM     20  C   UNL     1     100.530  84.998  71.602  1.00  0.00    -0.031 C 
ATOM     21  C   UNL     1     100.251  83.745  71.199  1.00  0.00    -0.028 C 
BRANCH  21  22
ATOM     22  C   UNL     1     101.150  82.954  70.359  1.00  0.00     0.005 C 
ATOM     23  C   UNL     1     100.380  82.098  69.315  1.00  0.00     0.012 C 
ATOM     24  C   UNL     1     102.184  83.876  69.664  1.00  0.00     0.012 C 
ENDBRANCH  21  22
ENDBRANCH  19  20
ENDBRANCH  18  19
ENDBRANCH  17  18
ENDBRANCH   1  17
TORSDOF 10
ENDMDL
MODEL 10
REMARK VINA RESULT:    -5.036     13.055     15.379
REMARK INTER + INTRA:          -9.183
REMARK INTER:                  -8.374
REMARK INTRA:                  -0.809
REMARK UNBOUND:                -1.351
REMARK SMILES COc1cc(CNC(=O)CCCC/C=C/C(C)C)ccc1O
REMARK SMILES IDX 10 1 8 2 7 3 9 5 6 6 5 7 3 8 21 9 4 10 20 11 19 12 2 13 1 14
REMARK SMILES IDX 22 15 11 17 12 18 13 19 14 20 15 21 16 22 17 23 18 24
REMARK H PARENT 7 4 22 16
REMARK Flexibility Score: inf
ROOT
ATOM      1  C   UNL     1      96.976  81.528  81.837  1.00  0.00     0.100 C 
ENDROOT
BRANCH   1   2
ATOM      2  C   UNL     1      97.139  82.103  83.186  1.00  0.00     0.220 C 
ATOM      3  N   UNL     1      96.257  83.030  83.654  1.00  0.00    -0.352 N 
ATOM      4  H   UNL     1      95.527  83.291  83.004  1.00  0.00     0.163 HD
ATOM      5  O   UNL     1      98.094  81.697  83.891  1.00  0.00    -0.275 OA
BRANCH   3   6
ATOM      6  C   UNL     1      96.308  83.623  84.952  1.00  0.00     0.151 C 
BRANCH   6   7
ATOM      7  C   UNL     1      95.318  83.003  85.875  1.00  0.00    -0.025 A 
ATOM      8  C   UNL     1      93.112  81.978  86.253  1.00  0.00     0.160 A 
ATOM      9  C   UNL     1      93.426  81.802  87.616  1.00  0.00     0.157 A 
ATOM     10  C   UNL     1      94.058  82.578  85.396  1.00  0.00     0.056 A 
ATOM     11  C   UNL     1      94.671  82.239  88.112  1.00  0.00     0.050 A 
ATOM     12  C   UNL     1      95.614  82.826  87.246  1.00  0.00     0.009 A 
BRANCH   8  13
ATOM     13  O   UNL     1      91.877  81.615  85.779  1.00  0.00    -0.493 OA
ATOM     14  C   UNL     1      91.660  81.940  84.394  1.00  0.00     0.278 C 
ENDBRANCH   8  13
BRANCH   9  15
ATOM     15  O   UNL     1      92.542  81.216  88.465  1.00  0.00    -0.504 OA
ATOM     16  H   UNL     1      91.647  81.443  88.202  1.00  0.00     0.293 HD
ENDBRANCH   9  15
ENDBRANCH   6   7
ENDBRANCH   3   6
ENDBRANCH   1   2
BRANCH   1  17
ATOM     17  C   UNL     1      98.288  81.620  81.012  1.00  0.00     0.010 C 
BRANCH  17  18
ATOM     18  C   UNL     1      98.304  82.828  80.034  1.00  0.00     0.005 C 
BRANCH  18  19
ATOM     19  C   UNL     1      96.884  83.198  79.529  1.00  0.00     0.027 C 
BRANCH  19  20
ATOM     20  C   UNL     1      96.893  83.633  78.140  1.00  0.00    -0.031 C 
ATOM     21  C   UNL     1      97.987  83.641  77.357  1.00  0.00    -0.028 C 
BRANCH  21  22
ATOM     22  C   UNL     1      97.968  84.064  75.957  1.00  0.00     0.005 C 
ATOM     23  C   UNL     1      98.183  82.875  74.980  1.00  0.00     0.012 C 
ATOM     24  C   UNL     1      96.646  84.809  75.640  1.00  0.00     0.012 C 
ENDBRANCH  21  22
ENDBRANCH  19  20
ENDBRANCH  18  19
ENDBRANCH  17  18
ENDBRANCH   1  17
TORSDOF 10
ENDMDL
