MODEL 1
REMARK VINA RESULT:    -6.397      0.000      0.000
REMARK INTER + INTRA:         -12.912
REMARK INTER:                 -11.258
REMARK INTRA:                  -1.654
REMARK UNBOUND:                -1.654
REMARK SMILES C=C(C)[C@]12C[C@@H](C)[C@@]34O[C@](Cc5ccccc5)(O[C@@H]1[C@@H]3C=C(COC(=O)Cc1ccc(O)c(OC)c1)C[C@]1(O)C(=O)C(C)=C[C@@H]41)O2
REMARK SMILES IDX 23 1 22 2 21 3 20 4 9 5 8 6 10 7 6 8 18 9 46 10 19 11 5 12
REMARK SMILES IDX 7 13 4 14 45 15 38 16 44 17 40 18 42 20 41 21 43 22 39 23
REMARK SMILES IDX 11 25 12 26 13 27 17 28 14 29 16 30 15 31 2 32 3 33 1 34
REMARK SMILES IDX 37 35 24 37 25 38 26 39 27 40 28 41 36 42 29 43 33 44 30 45
REMARK SMILES IDX 31 46 34 47 35 48 32 49
REMARK H PARENT 39 24 32 50
REMARK Flexibility Score: 90.00
ROOT
ATOM      1  C   UNL     1      97.484  76.831  84.319  1.00  0.00     0.264 C 
ENDROOT
BRANCH   1   2
ATOM      2  C   UNL     1      98.046  78.127  83.784  1.00  0.00    -0.033 C 
ATOM      3  C   UNL     1      98.727  78.120  82.621  1.00  0.00    -0.015 C 
BRANCH   3   4
ATOM      4  C   UNL     1      99.447  79.259  81.918  1.00  0.00     0.078 C 
ATOM      5  O   UNL     1      97.839  80.253  80.322  1.00  0.00    -0.319 OA
ATOM      6  C   UNL     1      98.619  80.539  81.524  1.00  0.00     0.095 C 
ATOM      7  C   UNL     1      98.534  79.521  79.295  1.00  0.00     0.289 C 
ATOM      8  C   UNL     1      99.651  81.701  81.214  1.00  0.00     0.023 C 
ATOM      9  O   UNL     1      99.025  78.277  79.789  1.00  0.00    -0.320 OA
ATOM     10  O   UNL     1      99.678  80.221  78.812  1.00  0.00    -0.313 OA
ATOM     11  C   UNL     1     100.104  78.742  80.614  1.00  0.00     0.170 C 
ATOM     12  C   UNL     1     100.966  81.145  80.586  1.00  0.00     0.049 C 
ATOM     13  C   UNL     1      99.112  82.846  80.341  1.00  0.00     0.011 C 
ATOM     14  C   UNL     1     100.710  79.884  79.761  1.00  0.00     0.122 C 
BRANCH   6  15
ATOM     15  C   UNL     1      97.554  80.863  82.611  1.00  0.00     0.086 C 
ATOM     16  C   UNL     1      98.020  80.741  84.077  1.00  0.00     0.140 CG0
ATOM     17  C   UNL     1      96.847  82.189  82.578  1.00  0.00    -0.010 C 
ATOM     18  C   UNL     1      97.235  81.841  84.761  1.00  0.00     0.190 C 
ATOM     19  G   UNL     1      97.725  79.361  84.663  1.00  0.00     0.000 G0
ATOM     20  C   UNL     1      96.629  82.751  83.771  1.00  0.00    -0.008 C 
ATOM     21  O   UNL     1      97.146  82.002  85.968  1.00  0.00    -0.291 OA
ATOM     22  C   UNL     1      95.902  83.989  84.121  1.00  0.00     0.048 C 
BRANCH  16  23
ATOM     23  O   UNL     1      99.373  81.113  84.282  1.00  0.00    -0.381 OA
ATOM     24  H   UNL     1      99.915  80.307  84.290  1.00  0.00     0.212 HD
ENDBRANCH  16  23
ENDBRANCH   6  15
BRANCH   7  25
ATOM     25  C   UNL     1      97.571  79.274  78.152  1.00  0.00     0.135 C 
BRANCH  25  26
ATOM     26  C   UNL     1      97.633  80.368  77.115  1.00  0.00    -0.040 A 
ATOM     27  C   UNL     1      98.442  80.216  75.988  1.00  0.00     0.004 A 
ATOM     28  C   UNL     1      96.880  81.531  77.281  1.00  0.00     0.004 A 
ATOM     29  C   UNL     1      98.499  81.228  75.029  1.00  0.00     0.000 A 
ATOM     30  C   UNL     1      96.937  82.542  76.322  1.00  0.00     0.000 A 
ATOM     31  C   UNL     1      97.747  82.390  75.196  1.00  0.00     0.000 A 
ENDBRANCH  25  26
ENDBRANCH   7  25
BRANCH  14  32
ATOM     32  C   UNL     1     101.918  79.438  79.004  1.00  0.00    -0.046 C 
ATOM     33  C   UNL     1     103.188  80.186  79.282  1.00  0.00     0.042 C 
ATOM     34  C   UNL     1     101.871  78.426  78.124  1.00  0.00     0.010 C 
ENDBRANCH  14  32
ENDBRANCH   3   4
BRANCH   2  35
ATOM     35  C   UNL     1      97.743  79.318  84.674  1.00  0.00     0.078 CG0
ATOM     36  G   UNL     1      98.002  80.708  84.092  1.00  0.00     0.000 G0
ENDBRANCH   2  35
ENDBRANCH   1   2
BRANCH   1  37
ATOM     37  O   UNL     1      96.566  77.111  85.353  1.00  0.00    -0.461 OA
BRANCH  37  38
ATOM     38  C   UNL     1      95.264  76.728  85.131  1.00  0.00     0.310 C 
ATOM     39  O   UNL     1      94.882  76.052  84.185  1.00  0.00    -0.252 OA
BRANCH  38  40
ATOM     40  C   UNL     1      94.383  77.269  86.232  1.00  0.00     0.158 C 
BRANCH  40  41
ATOM     41  C   UNL     1      93.619  78.502  85.822  1.00  0.00    -0.033 A 
ATOM     42  C   UNL     1      92.224  78.479  85.788  1.00  0.00     0.054 A 
ATOM     43  C   UNL     1      94.306  79.665  85.476  1.00  0.00     0.008 A 
ATOM     44  C   UNL     1      91.517  79.619  85.409  1.00  0.00     0.160 A 
ATOM     45  C   UNL     1      93.598  80.806  85.096  1.00  0.00     0.050 A 
ATOM     46  C   UNL     1      92.205  80.784  85.062  1.00  0.00     0.157 A 
BRANCH  44  47
ATOM     47  O   UNL     1      90.156  79.585  85.379  1.00  0.00    -0.493 OA
ATOM     48  C   UNL     1      89.549  78.784  84.367  1.00  0.00     0.278 C 
ENDBRANCH  44  47
BRANCH  46  49
ATOM     49  O   UNL     1      91.525  81.904  84.691  1.00  0.00    -0.504 OA
ATOM     50  H   UNL     1      91.040  82.249  85.459  1.00  0.00     0.293 HD
ENDBRANCH  46  49
ENDBRANCH  40  41
ENDBRANCH  38  40
ENDBRANCH  37  38
ENDBRANCH   1  37
TORSDOF 11
ENDMDL
MODEL 2
REMARK VINA RESULT:    -6.227     31.096     35.731
REMARK INTER + INTRA:         -12.613
REMARK INTER:                 -11.732
REMARK INTRA:                  -0.881
REMARK UNBOUND:                -1.654
REMARK SMILES C=C(C)[C@]12C[C@@H](C)[C@@]34O[C@](Cc5ccccc5)(O[C@@H]1[C@@H]3C=C(COC(=O)Cc1ccc(O)c(OC)c1)C[C@]1(O)C(=O)C(C)=C[C@@H]41)O2
REMARK SMILES IDX 23 1 22 2 21 3 20 4 9 5 8 6 10 7 6 8 18 9 46 10 19 11 5 12
REMARK SMILES IDX 7 13 4 14 45 15 38 16 44 17 40 18 42 20 41 21 43 22 39 23
REMARK SMILES IDX 11 25 12 26 13 27 17 28 14 29 16 30 15 31 2 32 3 33 1 34
REMARK SMILES IDX 37 35 24 37 25 38 26 39 27 40 28 41 36 42 29 43 33 44 30 45
REMARK SMILES IDX 31 46 34 47 35 48 32 49
REMARK H PARENT 39 24 32 50
REMARK Flexibility Score: 90.00
ROOT
ATOM      1  C   UNL     1      63.602  86.310  76.848  1.00  0.00     0.264 C 
ENDROOT
BRANCH   1   2
ATOM      2  C   UNL     1      63.045  85.311  75.861  1.00  0.00    -0.033 C 
ATOM      3  C   UNL     1      62.207  85.735  74.894  1.00  0.00    -0.015 C 
BRANCH   3   4
ATOM      4  C   UNL     1      61.461  84.931  73.842  1.00  0.00     0.078 C 
ATOM      5  O   UNL     1      62.901  84.864  71.831  1.00  0.00    -0.319 OA
ATOM      6  C   UNL     1      62.296  84.024  72.862  1.00  0.00     0.095 C 
ATOM      7  C   UNL     1      62.045  85.887  71.287  1.00  0.00     0.289 C 
ATOM      8  C   UNL     1      61.293  83.003  72.182  1.00  0.00     0.023 C 
ATOM      9  O   UNL     1      61.559  86.753  72.310  1.00  0.00    -0.320 OA
ATOM     10  O   UNL     1      60.886  85.344  70.660  1.00  0.00    -0.313 OA
ATOM     11  C   UNL     1      60.619  85.880  72.954  1.00  0.00     0.170 C 
ATOM     12  C   UNL     1      59.882  83.637  71.980  1.00  0.00     0.049 C 
ATOM     13  C   UNL     1      61.773  82.390  70.857  1.00  0.00     0.011 C 
ATOM     14  C   UNL     1      59.967  85.147  71.755  1.00  0.00     0.122 C 
BRANCH   6  15
ATOM     15  C   UNL     1      63.506  83.382  73.600  1.00  0.00     0.086 C 
ATOM     16  C   UNL     1      63.229  82.844  75.019  1.00  0.00     0.140 CG0
ATOM     17  C   UNL     1      64.259  82.260  72.942  1.00  0.00    -0.010 C 
ATOM     18  C   UNL     1      64.142  81.639  75.095  1.00  0.00     0.190 C 
ATOM     19  G   UNL     1      63.536  83.880  76.099  1.00  0.00     0.000 G0
ATOM     20  C   UNL     1      64.654  81.279  73.760  1.00  0.00    -0.008 C 
ATOM     21  O   UNL     1      64.393  81.003  76.108  1.00  0.00    -0.291 OA
ATOM     22  C   UNL     1      65.473  80.081  73.482  1.00  0.00     0.048 C 
BRANCH  16  23
ATOM     23  O   UNL     1      61.931  82.296  75.182  1.00  0.00    -0.381 OA
ATOM     24  H   UNL     1      61.689  82.354  76.121  1.00  0.00     0.212 HD
ENDBRANCH  16  23
ENDBRANCH   6  15
BRANCH   7  25
ATOM     25  C   UNL     1      62.841  86.685  70.275  1.00  0.00     0.135 C 
BRANCH  25  26
ATOM     26  C   UNL     1      62.545  86.257  68.859  1.00  0.00    -0.040 A 
ATOM     27  C   UNL     1      63.107  85.085  68.352  1.00  0.00     0.004 A 
ATOM     28  C   UNL     1      61.708  87.033  68.056  1.00  0.00     0.004 A 
ATOM     29  C   UNL     1      62.833  84.689  67.043  1.00  0.00     0.000 A 
ATOM     30  C   UNL     1      61.434  86.637  66.747  1.00  0.00     0.000 A 
ATOM     31  C   UNL     1      61.997  85.465  66.241  1.00  0.00     0.000 A 
ENDBRANCH  25  26
ENDBRANCH   7  25
BRANCH  14  32
ATOM     32  C   UNL     1      58.652  85.747  71.378  1.00  0.00    -0.046 C 
ATOM     33  C   UNL     1      57.469  84.825  71.415  1.00  0.00     0.042 C 
ATOM     34  C   UNL     1      58.534  87.036  71.027  1.00  0.00     0.010 C 
ENDBRANCH  14  32
ENDBRANCH   3   4
BRANCH   2  35
ATOM     35  C   UNL     1      63.538  83.897  76.104  1.00  0.00     0.078 CG0
ATOM     36  G   UNL     1      63.251  82.860  75.019  1.00  0.00     0.000 G0
ENDBRANCH   2  35
ENDBRANCH   1   2
BRANCH   1  37
ATOM     37  O   UNL     1      64.861  86.760  76.397  1.00  0.00    -0.461 OA
BRANCH  37  38
ATOM     38  C   UNL     1      65.933  86.489  77.215  1.00  0.00     0.310 C 
ATOM     39  O   UNL     1      67.081  86.860  77.014  1.00  0.00    -0.252 OA
BRANCH  38  40
ATOM     40  C   UNL     1      65.472  85.665  78.394  1.00  0.00     0.158 C 
BRANCH  40  41
ATOM     41  C   UNL     1      65.835  86.282  79.720  1.00  0.00    -0.033 A 
ATOM     42  C   UNL     1      64.965  87.186  80.331  1.00  0.00     0.054 A 
ATOM     43  C   UNL     1      67.041  85.950  80.337  1.00  0.00     0.008 A 
ATOM     44  C   UNL     1      65.301  87.757  81.558  1.00  0.00     0.160 A 
ATOM     45  C   UNL     1      67.377  86.521  81.565  1.00  0.00     0.050 A 
ATOM     46  C   UNL     1      66.508  87.424  82.175  1.00  0.00     0.157 A 
BRANCH  44  47
ATOM     47  O   UNL     1      64.444  88.638  82.144  1.00  0.00    -0.493 OA
ATOM     48  C   UNL     1      63.274  88.096  82.755  1.00  0.00     0.278 C 
ENDBRANCH  44  47
BRANCH  46  49
ATOM     49  O   UNL     1      66.846  87.975  83.374  1.00  0.00    -0.504 OA
ATOM     50  H   UNL     1      66.529  88.893  83.402  1.00  0.00     0.293 HD
ENDBRANCH  46  49
ENDBRANCH  40  41
ENDBRANCH  38  40
ENDBRANCH  37  38
ENDBRANCH   1  37
TORSDOF 11
ENDMDL
MODEL 3
REMARK VINA RESULT:    -6.117     32.040     35.594
REMARK INTER + INTRA:         -12.419
REMARK INTER:                 -10.081
REMARK INTRA:                  -2.338
REMARK UNBOUND:                -1.654
REMARK SMILES C=C(C)[C@]12C[C@@H](C)[C@@]34O[C@](Cc5ccccc5)(O[C@@H]1[C@@H]3C=C(COC(=O)Cc1ccc(O)c(OC)c1)C[C@]1(O)C(=O)C(C)=C[C@@H]41)O2
REMARK SMILES IDX 23 1 22 2 21 3 20 4 9 5 8 6 10 7 6 8 18 9 46 10 19 11 5 12
REMARK SMILES IDX 7 13 4 14 45 15 38 16 44 17 40 18 42 20 41 21 43 22 39 23
REMARK SMILES IDX 11 25 12 26 13 27 17 28 14 29 16 30 15 31 2 32 3 33 1 34
REMARK SMILES IDX 37 35 24 37 25 38 26 39 27 40 28 41 36 42 29 43 33 44 30 45
REMARK SMILES IDX 31 46 34 47 35 48 32 49
REMARK H PARENT 39 24 32 50
REMARK Flexibility Score: 90.00
ROOT
ATOM      1  C   UNL     1      64.290  86.888  76.594  1.00  0.00     0.264 C 
ENDROOT
BRANCH   1   2
ATOM      2  C   UNL     1      63.565  85.924  75.684  1.00  0.00    -0.033 C 
ATOM      3  C   UNL     1      62.821  86.408  74.669  1.00  0.00    -0.015 C 
BRANCH   3   4
ATOM      4  C   UNL     1      61.946  85.664  73.675  1.00  0.00     0.078 C 
ATOM      5  O   UNL     1      63.352  85.180  71.698  1.00  0.00    -0.319 OA
ATOM      6  C   UNL     1      62.607  84.547  72.784  1.00  0.00     0.095 C 
ATOM      7  C   UNL     1      62.689  86.289  71.060  1.00  0.00     0.289 C 
ATOM      8  C   UNL     1      61.440  83.666  72.174  1.00  0.00     0.023 C 
ATOM      9  O   UNL     1      62.363  87.308  72.002  1.00  0.00    -0.320 OA
ATOM     10  O   UNL     1      61.452  85.908  70.462  1.00  0.00    -0.313 OA
ATOM     11  C   UNL     1      61.283  86.669  72.701  1.00  0.00     0.170 C 
ATOM     12  C   UNL     1      60.163  84.518  71.900  1.00  0.00     0.049 C 
ATOM     13  C   UNL     1      61.805  82.871  70.910  1.00  0.00     0.011 C 
ATOM     14  C   UNL     1      60.513  85.966  71.555  1.00  0.00     0.122 C 
BRANCH   6  15
ATOM     15  C   UNL     1      63.685  83.765  73.589  1.00  0.00     0.086 C 
ATOM     16  C   UNL     1      63.312  83.390  75.039  1.00  0.00     0.140 CG0
ATOM     17  C   UNL     1      64.238  82.485  73.029  1.00  0.00    -0.010 C 
ATOM     18  C   UNL     1      64.004  82.056  75.219  1.00  0.00     0.190 C 
ATOM     19  G   UNL     1      63.786  84.437  76.046  1.00  0.00     0.000 G0
ATOM     20  C   UNL     1      64.455  81.515  73.923  1.00  0.00    -0.008 C 
ATOM     21  O   UNL     1      64.137  81.465  76.280  1.00  0.00    -0.291 OA
ATOM     22  C   UNL     1      65.058  80.177  73.749  1.00  0.00     0.048 C 
BRANCH  16  23
ATOM     23  O   UNL     1      61.938  83.086  75.217  1.00  0.00    -0.381 OA
ATOM     24  H   UNL     1      61.562  83.722  75.847  1.00  0.00     0.212 HD
ENDBRANCH  16  23
ENDBRANCH   6  15
BRANCH   7  25
ATOM     25  C   UNL     1      63.613  86.849  69.998  1.00  0.00     0.135 C 
BRANCH  25  26
ATOM     26  C   UNL     1      63.986  85.811  68.969  1.00  0.00    -0.040 A 
ATOM     27  C   UNL     1      65.327  85.484  68.763  1.00  0.00     0.004 A 
ATOM     28  C   UNL     1      62.992  85.178  68.224  1.00  0.00     0.004 A 
ATOM     29  C   UNL     1      65.672  84.524  67.811  1.00  0.00     0.000 A 
ATOM     30  C   UNL     1      63.337  84.218  67.272  1.00  0.00     0.000 A 
ATOM     31  C   UNL     1      64.678  83.892  67.066  1.00  0.00     0.000 A 
ENDBRANCH  25  26
ENDBRANCH   7  25
BRANCH  14  32
ATOM     32  C   UNL     1      59.324  86.755  71.112  1.00  0.00    -0.046 C 
ATOM     33  C   UNL     1      58.052  86.517  71.871  1.00  0.00     0.042 C 
ATOM     34  C   UNL     1      59.389  87.626  70.094  1.00  0.00     0.010 C 
ENDBRANCH  14  32
ENDBRANCH   3   4
BRANCH   2  35
ATOM     35  C   UNL     1      63.794  84.471  76.054  1.00  0.00     0.078 CG0
ATOM     36  G   UNL     1      63.326  83.414  75.056  1.00  0.00     0.000 G0
ENDBRANCH   2  35
ENDBRANCH   1   2
BRANCH   1  37
ATOM     37  O   UNL     1      65.587  86.396  76.858  1.00  0.00    -0.461 OA
BRANCH  37  38
ATOM     38  C   UNL     1      66.618  87.004  76.180  1.00  0.00     0.310 C 
ATOM     39  O   UNL     1      67.792  86.667  76.239  1.00  0.00    -0.252 OA
BRANCH  38  40
ATOM     40  C   UNL     1      66.075  88.146  75.353  1.00  0.00     0.158 C 
BRANCH  40  41
ATOM     41  C   UNL     1      66.511  88.088  73.912  1.00  0.00    -0.033 A 
ATOM     42  C   UNL     1      67.081  89.211  73.310  1.00  0.00     0.054 A 
ATOM     43  C   UNL     1      66.345  86.913  73.179  1.00  0.00     0.008 A 
ATOM     44  C   UNL     1      67.485  89.157  71.976  1.00  0.00     0.160 A 
ATOM     45  C   UNL     1      66.749  86.859  71.845  1.00  0.00     0.050 A 
ATOM     46  C   UNL     1      67.319  87.981  71.243  1.00  0.00     0.157 A 
BRANCH  44  47
ATOM     47  O   UNL     1      68.040  90.259  71.400  1.00  0.00    -0.493 OA
ATOM     48  C   UNL     1      67.161  91.338  71.084  1.00  0.00     0.278 C 
ENDBRANCH  44  47
BRANCH  46  49
ATOM     49  O   UNL     1      67.710  87.917  69.941  1.00  0.00    -0.504 OA
ATOM     50  H   UNL     1      67.888  88.817  69.619  1.00  0.00     0.293 HD
ENDBRANCH  46  49
ENDBRANCH  40  41
ENDBRANCH  38  40
ENDBRANCH  37  38
ENDBRANCH   1  37
TORSDOF 11
ENDMDL
MODEL 4
REMARK VINA RESULT:    -5.820     33.583     36.372
REMARK INTER + INTRA:         -11.896
REMARK INTER:                 -10.588
REMARK INTRA:                  -1.308
REMARK UNBOUND:                -1.654
REMARK SMILES C=C(C)[C@]12C[C@@H](C)[C@@]34O[C@](Cc5ccccc5)(O[C@@H]1[C@@H]3C=C(COC(=O)Cc1ccc(O)c(OC)c1)C[C@]1(O)C(=O)C(C)=C[C@@H]41)O2
REMARK SMILES IDX 23 1 22 2 21 3 20 4 9 5 8 6 10 7 6 8 18 9 46 10 19 11 5 12
REMARK SMILES IDX 7 13 4 14 45 15 38 16 44 17 40 18 42 20 41 21 43 22 39 23
REMARK SMILES IDX 11 25 12 26 13 27 17 28 14 29 16 30 15 31 2 32 3 33 1 34
REMARK SMILES IDX 37 35 24 37 25 38 26 39 27 40 28 41 36 42 29 43 33 44 30 45
REMARK SMILES IDX 31 46 34 47 35 48 32 49
REMARK H PARENT 39 24 32 50
REMARK Flexibility Score: 90.00
ROOT
ATOM      1  C   UNL     1      65.084  86.874  75.821  1.00  0.00     0.264 C 
ENDROOT
BRANCH   1   2
ATOM      2  C   UNL     1      64.126  85.898  75.178  1.00  0.00    -0.033 C 
ATOM      3  C   UNL     1      63.293  86.332  74.211  1.00  0.00    -0.015 C 
BRANCH   3   4
ATOM      4  C   UNL     1      62.198  85.580  73.472  1.00  0.00     0.078 C 
ATOM      5  O   UNL     1      63.215  84.673  71.407  1.00  0.00    -0.319 OA
ATOM      6  C   UNL     1      62.591  84.284  72.669  1.00  0.00     0.095 C 
ATOM      7  C   UNL     1      62.578  85.764  70.715  1.00  0.00     0.289 C 
ATOM      8  C   UNL     1      61.257  83.483  72.368  1.00  0.00     0.023 C 
ATOM      9  O   UNL     1      62.513  86.929  71.534  1.00  0.00    -0.320 OA
ATOM     10  O   UNL     1      61.229  85.466  70.362  1.00  0.00    -0.313 OA
ATOM     11  C   UNL     1      61.498  86.526  72.466  1.00  0.00     0.170 C 
ATOM     12  C   UNL     1      60.048  84.446  72.158  1.00  0.00     0.049 C 
ATOM     13  C   UNL     1      61.332  82.493  71.195  1.00  0.00     0.011 C 
ATOM     14  C   UNL     1      60.487  85.782  71.557  1.00  0.00     0.122 C 
BRANCH   6  15
ATOM     15  C   UNL     1      63.696  83.484  73.419  1.00  0.00     0.086 C 
ATOM     16  C   UNL     1      63.519  83.346  74.945  1.00  0.00     0.140 CG0
ATOM     17  C   UNL     1      64.020  82.085  72.976  1.00  0.00    -0.010 C 
ATOM     18  C   UNL     1      64.091  81.971  75.217  1.00  0.00     0.190 C 
ATOM     19  G   UNL     1      64.250  84.447  75.713  1.00  0.00     0.000 G0
ATOM     20  C   UNL     1      64.274  81.218  73.962  1.00  0.00    -0.008 C 
ATOM     21  O   UNL     1      64.327  81.508  76.322  1.00  0.00    -0.291 OA
ATOM     22  C   UNL     1      64.702  79.805  73.899  1.00  0.00     0.048 C 
BRANCH  16  23
ATOM     23  O   UNL     1      62.166  83.238  75.358  1.00  0.00    -0.381 OA
ATOM     24  H   UNL     1      61.863  84.114  75.648  1.00  0.00     0.212 HD
ENDBRANCH  16  23
ENDBRANCH   6  15
BRANCH   7  25
ATOM     25  C   UNL     1      63.375  86.063  69.461  1.00  0.00     0.135 C 
BRANCH  25  26
ATOM     26  C   UNL     1      62.830  85.334  68.258  1.00  0.00    -0.040 A 
ATOM     27  C   UNL     1      62.901  83.942  68.194  1.00  0.00     0.004 A 
ATOM     28  C   UNL     1      62.253  86.052  67.210  1.00  0.00     0.004 A 
ATOM     29  C   UNL     1      62.397  83.269  67.081  1.00  0.00     0.000 A 
ATOM     30  C   UNL     1      61.749  85.378  66.098  1.00  0.00     0.000 A 
ATOM     31  C   UNL     1      61.821  83.986  66.034  1.00  0.00     0.000 A 
ENDBRANCH  25  26
ENDBRANCH   7  25
BRANCH  14  32
ATOM     32  C   UNL     1      59.330  86.649  71.178  1.00  0.00    -0.046 C 
ATOM     33  C   UNL     1      58.007  86.291  71.786  1.00  0.00     0.042 C 
ATOM     34  C   UNL     1      59.467  87.688  70.341  1.00  0.00     0.010 C 
ENDBRANCH  14  32
ENDBRANCH   3   4
BRANCH   2  35
ATOM     35  C   UNL     1      64.247  84.492  75.735  1.00  0.00     0.078 CG0
ATOM     36  G   UNL     1      63.544  83.374  74.967  1.00  0.00     0.000 G0
ENDBRANCH   2  35
ENDBRANCH   1   2
BRANCH   1  37
ATOM     37  O   UNL     1      64.579  88.184  75.682  1.00  0.00    -0.461 OA
BRANCH  37  38
ATOM     38  C   UNL     1      64.333  88.868  76.850  1.00  0.00     0.310 C 
ATOM     39  O   UNL     1      64.177  90.078  76.936  1.00  0.00    -0.252 OA
BRANCH  38  40
ATOM     40  C   UNL     1      64.287  87.895  78.005  1.00  0.00     0.158 C 
BRANCH  40  41
ATOM     41  C   UNL     1      63.001  87.970  78.787  1.00  0.00    -0.033 A 
ATOM     42  C   UNL     1      63.035  88.043  80.180  1.00  0.00     0.054 A 
ATOM     43  C   UNL     1      61.777  87.968  78.118  1.00  0.00     0.008 A 
ATOM     44  C   UNL     1      61.845  88.113  80.904  1.00  0.00     0.160 A 
ATOM     45  C   UNL     1      60.587  88.038  78.842  1.00  0.00     0.050 A 
ATOM     46  C   UNL     1      60.620  88.110  80.234  1.00  0.00     0.157 A 
BRANCH  44  47
ATOM     47  O   UNL     1      61.890  88.182  82.263  1.00  0.00    -0.493 OA
ATOM     48  C   UNL     1      62.226  86.985  82.963  1.00  0.00     0.278 C 
ENDBRANCH  44  47
BRANCH  46  49
ATOM     49  O   UNL     1      59.451  88.179  80.930  1.00  0.00    -0.504 OA
ATOM     50  H   UNL     1      59.642  88.089  81.879  1.00  0.00     0.293 HD
ENDBRANCH  46  49
ENDBRANCH  40  41
ENDBRANCH  38  40
ENDBRANCH  37  38
ENDBRANCH   1  37
TORSDOF 11
ENDMDL
MODEL 5
REMARK VINA RESULT:    -5.485     21.539     25.666
REMARK INTER + INTRA:         -11.308
REMARK INTER:                  -9.625
REMARK INTRA:                  -1.683
REMARK UNBOUND:                -1.654
REMARK SMILES C=C(C)[C@]12C[C@@H](C)[C@@]34O[C@](Cc5ccccc5)(O[C@@H]1[C@@H]3C=C(COC(=O)Cc1ccc(O)c(OC)c1)C[C@]1(O)C(=O)C(C)=C[C@@H]41)O2
REMARK SMILES IDX 23 1 22 2 21 3 20 4 9 5 8 6 10 7 6 8 18 9 46 10 19 11 5 12
REMARK SMILES IDX 7 13 4 14 45 15 38 16 44 17 40 18 42 20 41 21 43 22 39 23
REMARK SMILES IDX 11 25 12 26 13 27 17 28 14 29 16 30 15 31 2 32 3 33 1 34
REMARK SMILES IDX 37 35 24 37 25 38 26 39 27 40 28 41 36 42 29 43 33 44 30 45
REMARK SMILES IDX 31 46 34 47 35 48 32 49
REMARK H PARENT 39 24 32 50
REMARK Flexibility Score: 90.00
ROOT
ATOM      1  C   UNL     1      93.320 100.269  73.066  1.00  0.00     0.264 C 
ENDROOT
BRANCH   1   2
ATOM      2  C   UNL     1      93.001 101.519  72.280  1.00  0.00    -0.033 C 
ATOM      3  C   UNL     1      93.563 101.697  71.067  1.00  0.00    -0.015 C 
BRANCH   3   4
ATOM      4  C   UNL     1      93.467 102.885  70.124  1.00  0.00     0.078 C 
ATOM      5  O   UNL     1      91.584 102.432  68.585  1.00  0.00    -0.319 OA
ATOM      6  C   UNL     1      92.041 103.339  69.635  1.00  0.00     0.095 C 
ATOM      7  C   UNL     1      92.580 102.067  67.610  1.00  0.00     0.289 C 
ATOM      8  C   UNL     1      92.182 104.801  69.040  1.00  0.00     0.023 C 
ATOM      9  O   UNL     1      93.712 101.462  68.229  1.00  0.00    -0.320 OA
ATOM     10  O   UNL     1      93.084 103.196  66.902  1.00  0.00    -0.313 OA
ATOM     11  C   UNL     1      94.304 102.614  68.850  1.00  0.00     0.170 C 
ATOM     12  C   UNL     1      93.571 105.011  68.362  1.00  0.00     0.049 C 
ATOM     13  C   UNL     1      91.069 105.228  68.069  1.00  0.00     0.011 C 
ATOM     14  C   UNL     1      94.115 103.710  67.771  1.00  0.00     0.122 C 
BRANCH   6  15
ATOM     15  C   UNL     1      90.991 103.178  70.772  1.00  0.00     0.086 C 
ATOM     16  C   UNL     1      91.438 103.625  72.179  1.00  0.00     0.140 CG0
ATOM     17  C   UNL     1      89.636 103.810  70.618  1.00  0.00    -0.010 C 
ATOM     18  C   UNL     1      90.154 104.167  72.772  1.00  0.00     0.190 C 
ATOM     19  G   UNL     1      92.018 102.470  72.995  1.00  0.00     0.000 G0
ATOM     20  C   UNL     1      89.126 104.350  71.730  1.00  0.00    -0.008 C 
ATOM     21  O   UNL     1      89.987 104.467  73.944  1.00  0.00    -0.291 OA
ATOM     22  C   UNL     1      87.808 104.973  71.967  1.00  0.00     0.048 C 
BRANCH  16  23
ATOM     23  O   UNL     1      92.308 104.745  72.176  1.00  0.00    -0.381 OA
ATOM     24  H   UNL     1      93.050 104.559  72.775  1.00  0.00     0.212 HD
ENDBRANCH  16  23
ENDBRANCH   6  15
BRANCH   7  25
ATOM     25  C   UNL     1      91.952 101.095  66.631  1.00  0.00     0.135 C 
BRANCH  25  26
ATOM     26  C   UNL     1      91.245  99.962  67.333  1.00  0.00    -0.040 A 
ATOM     27  C   UNL     1      91.525  99.690  68.672  1.00  0.00     0.004 A 
ATOM     28  C   UNL     1      90.312  99.189  66.644  1.00  0.00     0.004 A 
ATOM     29  C   UNL     1      90.871  98.642  69.322  1.00  0.00     0.000 A 
ATOM     30  C   UNL     1      89.658  98.141  67.294  1.00  0.00     0.000 A 
ATOM     31  C   UNL     1      89.938  97.869  68.633  1.00  0.00     0.000 A 
ENDBRANCH  25  26
ENDBRANCH   7  25
BRANCH  14  32
ATOM     32  C   UNL     1      95.352 103.920  66.961  1.00  0.00    -0.046 C 
ATOM     33  C   UNL     1      95.364 103.298  65.597  1.00  0.00     0.042 C 
ATOM     34  C   UNL     1      96.394 104.625  67.427  1.00  0.00     0.010 C 
ENDBRANCH  14  32
ENDBRANCH   3   4
BRANCH   2  35
ATOM     35  C   UNL     1      92.038 102.444  72.999  1.00  0.00     0.078 CG0
ATOM     36  G   UNL     1      91.431 103.589  72.188  1.00  0.00     0.000 G0
ENDBRANCH   2  35
ENDBRANCH   1   2
BRANCH   1  37
ATOM     37  O   UNL     1      92.963  99.135  72.305  1.00  0.00    -0.461 OA
BRANCH  37  38
ATOM     38  C   UNL     1      93.953  98.203  72.101  1.00  0.00     0.310 C 
ATOM     39  O   UNL     1      94.674  97.741  72.974  1.00  0.00    -0.252 OA
BRANCH  38  40
ATOM     40  C   UNL     1      94.010  97.840  70.635  1.00  0.00     0.158 C 
BRANCH  40  41
ATOM     41  C   UNL     1      95.404  97.908  70.067  1.00  0.00    -0.033 A 
ATOM     42  C   UNL     1      96.073  99.131  70.003  1.00  0.00     0.054 A 
ATOM     43  C   UNL     1      96.026  96.748  69.605  1.00  0.00     0.008 A 
ATOM     44  C   UNL     1      97.364  99.193  69.477  1.00  0.00     0.160 A 
ATOM     45  C   UNL     1      97.316  96.810  69.079  1.00  0.00     0.050 A 
ATOM     46  C   UNL     1      97.985  98.032  69.014  1.00  0.00     0.157 A 
BRANCH  44  47
ATOM     47  O   UNL     1      98.006 100.392  69.420  1.00  0.00    -0.493 OA
ATOM     48  C   UNL     1      97.639 101.372  70.390  1.00  0.00     0.278 C 
ENDBRANCH  44  47
BRANCH  46  49
ATOM     49  O   UNL     1      99.245  98.081  68.500  1.00  0.00    -0.504 OA
ATOM     50  H   UNL     1      99.780  97.378  68.906  1.00  0.00     0.293 HD
ENDBRANCH  46  49
ENDBRANCH  40  41
ENDBRANCH  38  40
ENDBRANCH  37  38
ENDBRANCH   1  37
TORSDOF 11
ENDMDL
MODEL 6
REMARK VINA RESULT:    -5.271     33.649     38.936
REMARK INTER + INTRA:         -10.930
REMARK INTER:                 -10.104
REMARK INTRA:                  -0.825
REMARK UNBOUND:                -1.654
REMARK SMILES C=C(C)[C@]12C[C@@H](C)[C@@]34O[C@](Cc5ccccc5)(O[C@@H]1[C@@H]3C=C(COC(=O)Cc1ccc(O)c(OC)c1)C[C@]1(O)C(=O)C(C)=C[C@@H]41)O2
REMARK SMILES IDX 23 1 22 2 21 3 20 4 9 5 8 6 10 7 6 8 18 9 46 10 19 11 5 12
REMARK SMILES IDX 7 13 4 14 45 15 38 16 44 17 40 18 42 20 41 21 43 22 39 23
REMARK SMILES IDX 11 25 12 26 13 27 17 28 14 29 16 30 15 31 2 32 3 33 1 34
REMARK SMILES IDX 37 35 24 37 25 38 26 39 27 40 28 41 36 42 29 43 33 44 30 45
REMARK SMILES IDX 31 46 34 47 35 48 32 49
REMARK H PARENT 39 24 32 50
REMARK Flexibility Score: 90.00
ROOT
ATOM      1  C   UNL     1      57.601  87.630  73.815  1.00  0.00     0.264 C 
ENDROOT
BRANCH   1   2
ATOM      2  C   UNL     1      59.064  87.452  73.479  1.00  0.00    -0.033 C 
ATOM      3  C   UNL     1      59.943  87.209  74.472  1.00  0.00    -0.015 C 
BRANCH   3   4
ATOM      4  C   UNL     1      61.455  87.070  74.408  1.00  0.00     0.078 C 
ATOM      5  O   UNL     1      61.946  84.663  74.118  1.00  0.00    -0.319 OA
ATOM      6  C   UNL     1      62.067  85.966  73.467  1.00  0.00     0.095 C 
ATOM      7  C   UNL     1      62.261  84.644  75.523  1.00  0.00     0.289 C 
ATOM      8  C   UNL     1      63.600  86.307  73.260  1.00  0.00     0.023 C 
ATOM      9  O   UNL     1      61.443  85.558  76.249  1.00  0.00    -0.320 OA
ATOM     10  O   UNL     1      63.605  85.042  75.782  1.00  0.00    -0.313 OA
ATOM     11  C   UNL     1      62.020  86.804  75.825  1.00  0.00     0.170 C 
ATOM     12  C   UNL     1      64.214  86.972  74.530  1.00  0.00     0.049 C 
ATOM     13  C   UNL     1      64.485  85.130  72.821  1.00  0.00     0.011 C 
ATOM     14  C   UNL     1      63.535  86.482  75.810  1.00  0.00     0.122 C 
BRANCH   6  15
ATOM     15  C   UNL     1      61.230  85.827  72.162  1.00  0.00     0.086 C 
ATOM     16  C   UNL     1      60.775  87.146  71.504  1.00  0.00     0.140 CG0
ATOM     17  C   UNL     1      61.786  85.036  71.012  1.00  0.00    -0.010 C 
ATOM     18  C   UNL     1      60.818  86.806  70.029  1.00  0.00     0.190 C 
ATOM     19  G   UNL     1      59.381  87.570  71.966  1.00  0.00     0.000 G0
ATOM     20  C   UNL     1      61.547  85.544  69.799  1.00  0.00    -0.008 C 
ATOM     21  O   UNL     1      60.362  87.495  69.130  1.00  0.00    -0.291 OA
ATOM     22  C   UNL     1      61.865  85.004  68.461  1.00  0.00     0.048 C 
BRANCH  16  23
ATOM     23  O   UNL     1      61.708  88.205  71.634  1.00  0.00    -0.381 OA
ATOM     24  H   UNL     1      61.851  88.374  72.580  1.00  0.00     0.212 HD
ENDBRANCH  16  23
ENDBRANCH   6  15
BRANCH   7  25
ATOM     25  C   UNL     1      62.041  83.238  76.041  1.00  0.00     0.135 C 
BRANCH  25  26
ATOM     26  C   UNL     1      62.887  82.226  75.308  1.00  0.00    -0.040 A 
ATOM     27  C   UNL     1      64.182  81.950  75.748  1.00  0.00     0.004 A 
ATOM     28  C   UNL     1      62.374  81.567  74.191  1.00  0.00     0.004 A 
ATOM     29  C   UNL     1      64.964  81.014  75.070  1.00  0.00     0.000 A 
ATOM     30  C   UNL     1      63.157  80.631  73.513  1.00  0.00     0.000 A 
ATOM     31  C   UNL     1      64.452  80.356  73.953  1.00  0.00     0.000 A 
ENDBRANCH  25  26
ENDBRANCH   7  25
BRANCH  14  32
ATOM     32  C   UNL     1      64.223  86.963  77.046  1.00  0.00    -0.046 C 
ATOM     33  C   UNL     1      63.369  87.091  78.272  1.00  0.00     0.042 C 
ATOM     34  C   UNL     1      65.531  87.264  77.058  1.00  0.00     0.010 C 
ENDBRANCH  14  32
ENDBRANCH   3   4
BRANCH   2  35
ATOM     35  C   UNL     1      59.351  87.570  71.994  1.00  0.00     0.078 CG0
ATOM     36  G   UNL     1      60.744  87.160  71.518  1.00  0.00     0.000 G0
ENDBRANCH   2  35
ENDBRANCH   1   2
BRANCH   1  37
ATOM     37  O   UNL     1      57.418  88.876  74.454  1.00  0.00    -0.461 OA
BRANCH  37  38
ATOM     38  C   UNL     1      56.809  89.858  73.707  1.00  0.00     0.310 C 
ATOM     39  O   UNL     1      57.290  90.383  72.712  1.00  0.00    -0.252 OA
BRANCH  38  40
ATOM     40  C   UNL     1      55.462  90.186  74.306  1.00  0.00     0.158 C 
BRANCH  40  41
ATOM     41  C   UNL     1      55.396  91.577  74.881  1.00  0.00    -0.033 A 
ATOM     42  C   UNL     1      54.956  92.639  74.088  1.00  0.00     0.054 A 
ATOM     43  C   UNL     1      55.774  91.805  76.204  1.00  0.00     0.008 A 
ATOM     44  C   UNL     1      54.896  93.927  74.620  1.00  0.00     0.160 A 
ATOM     45  C   UNL     1      55.713  93.093  76.735  1.00  0.00     0.050 A 
ATOM     46  C   UNL     1      55.274  94.154  75.944  1.00  0.00     0.157 A 
BRANCH  44  47
ATOM     47  O   UNL     1      54.465  94.955  73.837  1.00  0.00    -0.493 OA
ATOM     48  C   UNL     1      53.981  94.621  72.537  1.00  0.00     0.278 C 
ENDBRANCH  44  47
BRANCH  46  49
ATOM     49  O   UNL     1      55.218  95.407  76.474  1.00  0.00    -0.504 OA
ATOM     50  H   UNL     1      54.625  95.954  75.932  1.00  0.00     0.293 HD
ENDBRANCH  46  49
ENDBRANCH  40  41
ENDBRANCH  38  40
ENDBRANCH  37  38
ENDBRANCH   1  37
TORSDOF 11
ENDMDL
MODEL 7
REMARK VINA RESULT:    -5.140     17.321     20.922
REMARK INTER + INTRA:         -10.701
REMARK INTER:                  -9.569
REMARK INTRA:                  -1.131
REMARK UNBOUND:                -1.654
REMARK SMILES C=C(C)[C@]12C[C@@H](C)[C@@]34O[C@](Cc5ccccc5)(O[C@@H]1[C@@H]3C=C(COC(=O)Cc1ccc(O)c(OC)c1)C[C@]1(O)C(=O)C(C)=C[C@@H]41)O2
REMARK SMILES IDX 23 1 22 2 21 3 20 4 9 5 8 6 10 7 6 8 18 9 46 10 19 11 5 12
REMARK SMILES IDX 7 13 4 14 45 15 38 16 44 17 40 18 42 20 41 21 43 22 39 23
REMARK SMILES IDX 11 25 12 26 13 27 17 28 14 29 16 30 15 31 2 32 3 33 1 34
REMARK SMILES IDX 37 35 24 37 25 38 26 39 27 40 28 41 36 42 29 43 33 44 30 45
REMARK SMILES IDX 31 46 34 47 35 48 32 49
REMARK H PARENT 39 24 32 50
REMARK Flexibility Score: 90.00
ROOT
ATOM      1  C   UNL     1      94.061  97.536  73.333  1.00  0.00     0.264 C 
ENDROOT
BRANCH   1   2
ATOM      2  C   UNL     1      95.192  97.005  74.183  1.00  0.00    -0.033 C 
ATOM      3  C   UNL     1      96.385  97.632  74.160  1.00  0.00    -0.015 C 
BRANCH   3   4
ATOM      4  C   UNL     1      97.685  97.258  74.852  1.00  0.00     0.078 C 
ATOM      5  O   UNL     1      97.705  98.431  77.030  1.00  0.00    -0.319 OA
ATOM      6  C   UNL     1      97.682  97.105  76.419  1.00  0.00     0.095 C 
ATOM      7  C   UNL     1      98.603  99.377  76.417  1.00  0.00     0.289 C 
ATOM      8  C   UNL     1      98.996  96.318  76.826  1.00  0.00     0.023 C 
ATOM      9  O   UNL     1      98.305  99.552  75.035  1.00  0.00    -0.320 OA
ATOM     10  O   UNL     1      99.960  98.944  76.467  1.00  0.00    -0.313 OA
ATOM     11  C   UNL     1      98.780  98.300  74.514  1.00  0.00     0.170 C 
ATOM     12  C   UNL     1     100.182  96.652  75.870  1.00  0.00     0.049 C 
ATOM     13  C   UNL     1      99.448  96.498  78.285  1.00  0.00     0.011 C 
ATOM     14  C   UNL     1     100.083  98.076  75.322  1.00  0.00     0.122 C 
BRANCH   6  15
ATOM     15  C   UNL     1      96.346  96.475  76.908  1.00  0.00     0.086 C 
ATOM     16  C   UNL     1      95.798  95.303  76.067  1.00  0.00     0.140 CG0
ATOM     17  C   UNL     1      96.244  95.969  78.320  1.00  0.00    -0.010 C 
ATOM     18  C   UNL     1      95.148  94.425  77.116  1.00  0.00     0.190 C 
ATOM     19  G   UNL     1      94.809  95.771  75.001  1.00  0.00     0.000 G0
ATOM     20  C   UNL     1      95.554  94.834  78.474  1.00  0.00    -0.008 C 
ATOM     21  O   UNL     1      94.423  93.469  76.888  1.00  0.00    -0.291 OA
ATOM     22  C   UNL     1      95.185  94.103  79.703  1.00  0.00     0.048 C 
BRANCH  16  23
ATOM     23  O   UNL     1      96.806  94.475  75.511  1.00  0.00    -0.381 OA
ATOM     24  H   UNL     1      97.605  95.012  75.378  1.00  0.00     0.212 HD
ENDBRANCH  16  23
ENDBRANCH   6  15
BRANCH   7  25
ATOM     25  C   UNL     1      98.466 100.700  77.142  1.00  0.00     0.135 C 
BRANCH  25  26
ATOM     26  C   UNL     1      97.023 101.092  77.338  1.00  0.00    -0.040 A 
ATOM     27  C   UNL     1      96.212 101.340  76.230  1.00  0.00     0.004 A 
ATOM     28  C   UNL     1      96.499 101.205  78.625  1.00  0.00     0.004 A 
ATOM     29  C   UNL     1      94.876 101.702  76.410  1.00  0.00     0.000 A 
ATOM     30  C   UNL     1      95.163 101.566  78.805  1.00  0.00     0.000 A 
ATOM     31  C   UNL     1      94.353 101.815  77.697  1.00  0.00     0.000 A 
ENDBRANCH  25  26
ENDBRANCH   7  25
BRANCH  14  32
ATOM     32  C   UNL     1     101.297  98.480  74.552  1.00  0.00    -0.046 C 
ATOM     33  C   UNL     1     101.250  98.249  73.071  1.00  0.00     0.042 C 
ATOM     34  C   UNL     1     102.370  99.020  75.151  1.00  0.00     0.010 C 
ENDBRANCH  14  32
ENDBRANCH   3   4
BRANCH   2  35
ATOM     35  C   UNL     1      94.804  95.781  74.992  1.00  0.00     0.078 CG0
ATOM     36  G   UNL     1      95.793  95.305  76.055  1.00  0.00     0.000 G0
ENDBRANCH   2  35
ENDBRANCH   1   2
BRANCH   1  37
ATOM     37  O   UNL     1      93.532  98.698  73.934  1.00  0.00    -0.461 OA
BRANCH  37  38
ATOM     38  C   UNL     1      93.351  99.783  73.107  1.00  0.00     0.310 C 
ATOM     39  O   UNL     1      92.756 100.807  73.412  1.00  0.00    -0.252 OA
BRANCH  38  40
ATOM     40  C   UNL     1      94.001  99.511  71.771  1.00  0.00     0.158 C 
BRANCH  40  41
ATOM     41  C   UNL     1      93.022  99.539  70.625  1.00  0.00    -0.033 A 
ATOM     42  C   UNL     1      92.953 100.657  69.793  1.00  0.00     0.054 A 
ATOM     43  C   UNL     1      92.186  98.446  70.396  1.00  0.00     0.008 A 
ATOM     44  C   UNL     1      92.047 100.682  68.733  1.00  0.00     0.160 A 
ATOM     45  C   UNL     1      91.279  98.472  69.335  1.00  0.00     0.050 A 
ATOM     46  C   UNL     1      91.210  99.589  68.504  1.00  0.00     0.157 A 
BRANCH  44  47
ATOM     47  O   UNL     1      91.989 101.779  67.928  1.00  0.00    -0.493 OA
ATOM     48  C   UNL     1      93.005 101.910  66.935  1.00  0.00     0.278 C 
ENDBRANCH  44  47
BRANCH  46  49
ATOM     49  O   UNL     1      90.322  99.602  67.471  1.00  0.00    -0.504 OA
ATOM     50  H   UNL     1      89.608  98.970  67.659  1.00  0.00     0.293 HD
ENDBRANCH  46  49
ENDBRANCH  40  41
ENDBRANCH  38  40
ENDBRANCH  37  38
ENDBRANCH   1  37
TORSDOF 11
ENDMDL
MODEL 8
REMARK VINA RESULT:    -5.122     20.816     24.315
REMARK INTER + INTRA:         -10.668
REMARK INTER:                  -8.872
REMARK INTRA:                  -1.796
REMARK UNBOUND:                -1.654
REMARK SMILES C=C(C)[C@]12C[C@@H](C)[C@@]34O[C@](Cc5ccccc5)(O[C@@H]1[C@@H]3C=C(COC(=O)Cc1ccc(O)c(OC)c1)C[C@]1(O)C(=O)C(C)=C[C@@H]41)O2
REMARK SMILES IDX 23 1 22 2 21 3 20 4 9 5 8 6 10 7 6 8 18 9 46 10 19 11 5 12
REMARK SMILES IDX 7 13 4 14 45 15 38 16 44 17 40 18 42 20 41 21 43 22 39 23
REMARK SMILES IDX 11 25 12 26 13 27 17 28 14 29 16 30 15 31 2 32 3 33 1 34
REMARK SMILES IDX 37 35 24 37 25 38 26 39 27 40 28 41 36 42 29 43 33 44 30 45
REMARK SMILES IDX 31 46 34 47 35 48 32 49
REMARK H PARENT 39 24 32 50
REMARK Flexibility Score: 90.00
ROOT
ATOM      1  C   UNL     1      73.095  69.351  86.551  1.00  0.00     0.264 C 
ENDROOT
BRANCH   1   2
ATOM      2  C   UNL     1      74.552  69.572  86.888  1.00  0.00    -0.033 C 
ATOM      3  C   UNL     1      75.354  68.505  87.076  1.00  0.00    -0.015 C 
BRANCH   3   4
ATOM      4  C   UNL     1      76.815  68.459  87.493  1.00  0.00     0.078 C 
ATOM      5  O   UNL     1      78.157  68.426  85.416  1.00  0.00    -0.319 OA
ATOM      6  C   UNL     1      77.871  69.220  86.608  1.00  0.00     0.095 C 
ATOM      7  C   UNL     1      78.314  67.012  85.639  1.00  0.00     0.289 C 
ATOM      8  C   UNL     1      79.195  69.372  87.466  1.00  0.00     0.023 C 
ATOM      9  O   UNL     1      77.156  66.453  86.253  1.00  0.00    -0.320 OA
ATOM     10  O   UNL     1      79.395  66.721  86.521  1.00  0.00    -0.313 OA
ATOM     11  C   UNL     1      77.291  66.987  87.579  1.00  0.00     0.170 C 
ATOM     12  C   UNL     1      79.401  68.155  88.420  1.00  0.00     0.049 C 
ATOM     13  C   UNL     1      80.481  69.611  86.657  1.00  0.00     0.011 C 
ATOM     14  C   UNL     1      78.814  66.870  87.833  1.00  0.00     0.122 C 
BRANCH   6  15
ATOM     15  C   UNL     1      77.275  70.548  86.057  1.00  0.00     0.086 C 
ATOM     16  C   UNL     1      76.446  71.386  87.053  1.00  0.00     0.140 CG0
ATOM     17  C   UNL     1      78.190  71.559  85.426  1.00  0.00    -0.010 C 
ATOM     18  C   UNL     1      76.757  72.804  86.623  1.00  0.00     0.190 C 
ATOM     19  G   UNL     1      74.955  71.064  86.976  1.00  0.00     0.000 G0
ATOM     20  C   UNL     1      77.908  72.837  85.702  1.00  0.00    -0.008 C 
ATOM     21  O   UNL     1      76.177  73.805  87.014  1.00  0.00    -0.291 OA
ATOM     22  C   UNL     1      78.531  74.079  85.199  1.00  0.00     0.048 C 
BRANCH  16  23
ATOM     23  O   UNL     1      76.921  71.325  88.388  1.00  0.00    -0.381 OA
ATOM     24  H   UNL     1      76.200  71.005  88.956  1.00  0.00     0.212 HD
ENDBRANCH  16  23
ENDBRANCH   6  15
BRANCH   7  25
ATOM     25  C   UNL     1      78.558  66.343  84.302  1.00  0.00     0.135 C 
BRANCH  25  26
ATOM     26  C   UNL     1      77.313  66.308  83.451  1.00  0.00    -0.040 A 
ATOM     27  C   UNL     1      76.778  67.496  82.951  1.00  0.00     0.004 A 
ATOM     28  C   UNL     1      76.697  65.091  83.164  1.00  0.00     0.004 A 
ATOM     29  C   UNL     1      75.626  67.464  82.164  1.00  0.00     0.000 A 
ATOM     30  C   UNL     1      75.545  65.059  82.378  1.00  0.00     0.000 A 
ATOM     31  C   UNL     1      75.010  66.247  81.878  1.00  0.00     0.000 A 
ENDBRANCH  25  26
ENDBRANCH   7  25
BRANCH  14  32
ATOM     32  C   UNL     1      79.158  65.661  88.641  1.00  0.00    -0.046 C 
ATOM     33  C   UNL     1      80.483  65.688  89.342  1.00  0.00     0.042 C 
ATOM     34  C   UNL     1      78.328  64.611  88.734  1.00  0.00     0.010 C 
ENDBRANCH  14  32
ENDBRANCH   3   4
BRANCH   2  35
ATOM     35  C   UNL     1      74.928  71.040  86.965  1.00  0.00     0.078 CG0
ATOM     36  G   UNL     1      76.415  71.375  87.067  1.00  0.00     0.000 G0
ENDBRANCH   2  35
ENDBRANCH   1   2
BRANCH   1  37
ATOM     37  O   UNL     1      72.291  69.902  87.572  1.00  0.00    -0.461 OA
BRANCH  37  38
ATOM     38  C   UNL     1      72.117  69.126  88.694  1.00  0.00     0.310 C 
ATOM     39  O   UNL     1      72.142  67.903  88.714  1.00  0.00    -0.252 OA
BRANCH  38  40
ATOM     40  C   UNL     1      71.890  70.017  89.893  1.00  0.00     0.158 C 
BRANCH  40  41
ATOM     41  C   UNL     1      72.446  71.405  89.707  1.00  0.00    -0.033 A 
ATOM     42  C   UNL     1      73.757  71.689  90.093  1.00  0.00     0.054 A 
ATOM     43  C   UNL     1      71.651  72.406  89.150  1.00  0.00     0.008 A 
ATOM     44  C   UNL     1      74.271  72.974  89.921  1.00  0.00     0.160 A 
ATOM     45  C   UNL     1      72.165  73.692  88.978  1.00  0.00     0.050 A 
ATOM     46  C   UNL     1      73.475  73.976  89.364  1.00  0.00     0.157 A 
BRANCH  44  47
ATOM     47  O   UNL     1      75.552  73.239  90.302  1.00  0.00    -0.493 OA
ATOM     48  C   UNL     1      75.815  73.288  91.703  1.00  0.00     0.278 C 
ENDBRANCH  44  47
BRANCH  46  49
ATOM     49  O   UNL     1      73.967  75.234  89.190  1.00  0.00    -0.504 OA
ATOM     50  H   UNL     1      73.861  75.732  90.018  1.00  0.00     0.293 HD
ENDBRANCH  46  49
ENDBRANCH  40  41
ENDBRANCH  38  40
ENDBRANCH  37  38
ENDBRANCH   1  37
TORSDOF 11
ENDMDL
MODEL 9
REMARK VINA RESULT:    -5.121     26.143     29.457
REMARK INTER + INTRA:         -10.667
REMARK INTER:                  -9.087
REMARK INTRA:                  -1.579
REMARK UNBOUND:                -1.654
REMARK SMILES C=C(C)[C@]12C[C@@H](C)[C@@]34O[C@](Cc5ccccc5)(O[C@@H]1[C@@H]3C=C(COC(=O)Cc1ccc(O)c(OC)c1)C[C@]1(O)C(=O)C(C)=C[C@@H]41)O2
REMARK SMILES IDX 23 1 22 2 21 3 20 4 9 5 8 6 10 7 6 8 18 9 46 10 19 11 5 12
REMARK SMILES IDX 7 13 4 14 45 15 38 16 44 17 40 18 42 20 41 21 43 22 39 23
REMARK SMILES IDX 11 25 12 26 13 27 17 28 14 29 16 30 15 31 2 32 3 33 1 34
REMARK SMILES IDX 37 35 24 37 25 38 26 39 27 40 28 41 36 42 29 43 33 44 30 45
REMARK SMILES IDX 31 46 34 47 35 48 32 49
REMARK H PARENT 39 24 32 50
REMARK Flexibility Score: 90.00
ROOT
ATOM      1  C   UNL     1      77.184  96.011  71.493  1.00  0.00     0.264 C 
ENDROOT
BRANCH   1   2
ATOM      2  C   UNL     1      77.669  96.031  70.062  1.00  0.00    -0.033 C 
ATOM      3  C   UNL     1      77.102  95.202  69.162  1.00  0.00    -0.015 C 
BRANCH   3   4
ATOM      4  C   UNL     1      77.456  94.977  67.701  1.00  0.00     0.078 C 
ATOM      5  O   UNL     1      76.031  96.501  66.372  1.00  0.00    -0.319 OA
ATOM      6  C   UNL     1      77.419  96.210  66.723  1.00  0.00     0.095 C 
ATOM      7  C   UNL     1      75.214  95.351  66.085  1.00  0.00     0.289 C 
ATOM      8  C   UNL     1      78.217  95.808  65.414  1.00  0.00     0.023 C 
ATOM      9  O   UNL     1      75.192  94.444  67.185  1.00  0.00    -0.320 OA
ATOM     10  O   UNL     1      75.706  94.600  64.977  1.00  0.00    -0.313 OA
ATOM     11  C   UNL     1      76.519  93.904  67.092  1.00  0.00     0.170 C 
ATOM     12  C   UNL     1      78.062  94.290  65.094  1.00  0.00     0.049 C 
ATOM     13  C   UNL     1      77.885  96.632  64.160  1.00  0.00     0.011 C 
ATOM     14  C   UNL     1      76.711  93.748  65.563  1.00  0.00     0.122 C 
BRANCH   6  15
ATOM     15  C   UNL     1      77.917  97.498  67.440  1.00  0.00     0.086 C 
ATOM     16  C   UNL     1      79.159  97.338  68.341  1.00  0.00     0.140 CG0
ATOM     17  C   UNL     1      78.231  98.721  66.625  1.00  0.00    -0.010 C 
ATOM     18  C   UNL     1      79.863  98.667  68.164  1.00  0.00     0.190 C 
ATOM     19  G   UNL     1      78.785  97.063  69.797  1.00  0.00     0.000 G0
ATOM     20  C   UNL     1      79.303  99.415  67.023  1.00  0.00    -0.008 C 
ATOM     21  O   UNL     1      80.805  99.064  68.834  1.00  0.00    -0.291 OA
ATOM     22  C   UNL     1      79.851 100.690  66.519  1.00  0.00     0.048 C 
BRANCH  16  23
ATOM     23  O   UNL     1      80.098  96.391  67.860  1.00  0.00    -0.381 OA
ATOM     24  H   UNL     1      80.960  96.831  67.772  1.00  0.00     0.212 HD
ENDBRANCH  16  23
ENDBRANCH   6  15
BRANCH   7  25
ATOM     25  C   UNL     1      73.807  95.829  65.787  1.00  0.00     0.135 C 
BRANCH  25  26
ATOM     26  C   UNL     1      72.762  94.894  66.345  1.00  0.00    -0.040 A 
ATOM     27  C   UNL     1      72.116  95.206  67.541  1.00  0.00     0.004 A 
ATOM     28  C   UNL     1      72.442  93.720  65.664  1.00  0.00     0.004 A 
ATOM     29  C   UNL     1      71.149  94.342  68.057  1.00  0.00     0.000 A 
ATOM     30  C   UNL     1      71.475  92.856  66.180  1.00  0.00     0.000 A 
ATOM     31  C   UNL     1      70.830  93.168  67.377  1.00  0.00     0.000 A 
ENDBRANCH  25  26
ENDBRANCH   7  25
BRANCH  14  32
ATOM     32  C   UNL     1      76.464  92.347  65.107  1.00  0.00    -0.046 C 
ATOM     33  C   UNL     1      77.224  91.902  63.892  1.00  0.00     0.042 C 
ATOM     34  C   UNL     1      75.612  91.532  65.747  1.00  0.00     0.010 C 
ENDBRANCH  14  32
ENDBRANCH   3   4
BRANCH   2  35
ATOM     35  C   UNL     1      78.779  97.037  69.824  1.00  0.00     0.078 CG0
ATOM     36  G   UNL     1      79.150  97.338  68.372  1.00  0.00     0.000 G0
ENDBRANCH   2  35
ENDBRANCH   1   2
BRANCH   1  37
ATOM     37  O   UNL     1      78.133  95.345  72.298  1.00  0.00    -0.461 OA
BRANCH  37  38
ATOM     38  C   UNL     1      77.691  94.218  72.952  1.00  0.00     0.310 C 
ATOM     39  O   UNL     1      77.550  94.119  74.163  1.00  0.00    -0.252 OA
BRANCH  38  40
ATOM     40  C   UNL     1      77.409  93.128  71.946  1.00  0.00     0.158 C 
BRANCH  40  41
ATOM     41  C   UNL     1      75.936  92.911  71.711  1.00  0.00    -0.033 A 
ATOM     42  C   UNL     1      75.508  92.163  70.614  1.00  0.00     0.054 A 
ATOM     43  C   UNL     1      75.002  93.457  72.590  1.00  0.00     0.008 A 
ATOM     44  C   UNL     1      74.144  91.962  70.396  1.00  0.00     0.160 A 
ATOM     45  C   UNL     1      73.638  93.256  72.373  1.00  0.00     0.050 A 
ATOM     46  C   UNL     1      73.210  92.510  71.276  1.00  0.00     0.157 A 
BRANCH  44  47
ATOM     47  O   UNL     1      73.738  91.231  69.322  1.00  0.00    -0.493 OA
ATOM     48  C   UNL     1      74.204  89.885  69.240  1.00  0.00     0.278 C 
ENDBRANCH  44  47
BRANCH  46  49
ATOM     49  O   UNL     1      71.876  92.319  71.075  1.00  0.00    -0.504 OA
ATOM     50  H   UNL     1      71.661  92.537  70.152  1.00  0.00     0.293 HD
ENDBRANCH  46  49
ENDBRANCH  40  41
ENDBRANCH  38  40
ENDBRANCH  37  38
ENDBRANCH   1  37
TORSDOF 11
ENDMDL
MODEL 10
REMARK VINA RESULT:    -4.862     26.819     29.804
REMARK INTER + INTRA:         -10.211
REMARK INTER:                  -7.988
REMARK INTRA:                  -2.223
REMARK UNBOUND:                -1.654
REMARK SMILES C=C(C)[C@]12C[C@@H](C)[C@@]34O[C@](Cc5ccccc5)(O[C@@H]1[C@@H]3C=C(COC(=O)Cc1ccc(O)c(OC)c1)C[C@]1(O)C(=O)C(C)=C[C@@H]41)O2
REMARK SMILES IDX 23 1 22 2 21 3 20 4 9 5 8 6 10 7 6 8 18 9 46 10 19 11 5 12
REMARK SMILES IDX 7 13 4 14 45 15 38 16 44 17 40 18 42 20 41 21 43 22 39 23
REMARK SMILES IDX 11 25 12 26 13 27 17 28 14 29 16 30 15 31 2 32 3 33 1 34
REMARK SMILES IDX 37 35 24 37 25 38 26 39 27 40 28 41 36 42 29 43 33 44 30 45
REMARK SMILES IDX 31 46 34 47 35 48 32 49
REMARK H PARENT 39 24 32 50
REMARK Flexibility Score: 90.00
ROOT
ATOM      1  C   UNL     1      72.627  96.626  68.128  1.00  0.00     0.264 C 
ENDROOT
BRANCH   1   2
ATOM      2  C   UNL     1      74.114  96.812  68.316  1.00  0.00    -0.033 C 
ATOM      3  C   UNL     1      74.623  96.836  69.565  1.00  0.00    -0.015 C 
BRANCH   3   4
ATOM      4  C   UNL     1      76.052  97.083  70.020  1.00  0.00     0.078 C 
ATOM      5  O   UNL     1      77.147  94.872  70.187  1.00  0.00    -0.319 OA
ATOM      6  C   UNL     1      77.186  96.143  69.468  1.00  0.00     0.095 C 
ATOM      7  C   UNL     1      76.948  94.975  71.610  1.00  0.00     0.289 C 
ATOM      8  C   UNL     1      78.575  96.855  69.740  1.00  0.00     0.023 C 
ATOM      9  O   UNL     1      75.744  95.673  71.915  1.00  0.00    -0.320 OA
ATOM     10  O   UNL     1      77.990  95.708  72.250  1.00  0.00    -0.313 OA
ATOM     11  C   UNL     1      76.132  97.010  71.565  1.00  0.00     0.170 C 
ATOM     12  C   UNL     1      78.540  97.691  71.056  1.00  0.00     0.049 C 
ATOM     13  C   UNL     1      79.801  95.928  69.756  1.00  0.00     0.011 C 
ATOM     14  C   UNL     1      77.588  97.083  72.087  1.00  0.00     0.122 C 
BRANCH   6  15
ATOM     15  C   UNL     1      76.912  95.758  67.985  1.00  0.00     0.086 C 
ATOM     16  C   UNL     1      76.418  96.896  67.068  1.00  0.00     0.140 CG0
ATOM     17  C   UNL     1      78.000  95.107  67.179  1.00  0.00    -0.010 C 
ATOM     18  C   UNL     1      77.049  96.540  65.738  1.00  0.00     0.190 C 
ATOM     19  G   UNL     1      74.893  96.958  66.994  1.00  0.00     0.000 G0
ATOM     20  C   UNL     1      78.086  95.504  65.905  1.00  0.00    -0.008 C 
ATOM     21  O   UNL     1      76.786  97.064  64.666  1.00  0.00    -0.291 OA
ATOM     22  C   UNL     1      78.964  95.028  64.817  1.00  0.00     0.048 C 
BRANCH  16  23
ATOM     23  O   UNL     1      76.974  98.164  67.377  1.00  0.00    -0.381 OA
ATOM     24  H   UNL     1      77.862  98.028  67.746  1.00  0.00     0.212 HD
ENDBRANCH  16  23
ENDBRANCH   6  15
BRANCH   7  25
ATOM     25  C   UNL     1      76.888  93.574  72.185  1.00  0.00     0.135 C 
BRANCH  25  26
ATOM     26  C   UNL     1      75.469  93.086  72.337  1.00  0.00    -0.040 A 
ATOM     27  C   UNL     1      74.777  92.598  71.229  1.00  0.00     0.004 A 
ATOM     28  C   UNL     1      74.850  93.121  73.586  1.00  0.00     0.004 A 
ATOM     29  C   UNL     1      73.464  92.147  71.369  1.00  0.00     0.000 A 
ATOM     30  C   UNL     1      73.537  92.669  73.727  1.00  0.00     0.000 A 
ATOM     31  C   UNL     1      72.845  92.182  72.618  1.00  0.00     0.000 A 
ENDBRANCH  25  26
ENDBRANCH   7  25
BRANCH  14  32
ATOM     32  C   UNL     1      77.674  97.759  73.417  1.00  0.00    -0.046 C 
ATOM     33  C   UNL     1      78.222  96.935  74.544  1.00  0.00     0.042 C 
ATOM     34  C   UNL     1      77.284  99.030  73.593  1.00  0.00     0.010 C 
ENDBRANCH  14  32
ENDBRANCH   3   4
BRANCH   2  35
ATOM     35  C   UNL     1      74.868  96.946  67.007  1.00  0.00     0.078 CG0
ATOM     36  G   UNL     1      76.393  96.899  67.070  1.00  0.00     0.000 G0
ENDBRANCH   2  35
ENDBRANCH   1   2
BRANCH   1  37
ATOM     37  O   UNL     1      72.400  95.572  67.217  1.00  0.00    -0.461 OA
BRANCH  37  38
ATOM     38  C   UNL     1      72.467  94.298  67.732  1.00  0.00     0.310 C 
ATOM     39  O   UNL     1      72.023  93.955  68.819  1.00  0.00    -0.252 OA
BRANCH  38  40
ATOM     40  C   UNL     1      73.173  93.393  66.750  1.00  0.00     0.158 C 
BRANCH  40  41
ATOM     41  C   UNL     1      73.530  92.052  67.337  1.00  0.00    -0.033 A 
ATOM     42  C   UNL     1      72.541  91.085  67.521  1.00  0.00     0.054 A 
ATOM     43  C   UNL     1      74.849  91.778  67.698  1.00  0.00     0.008 A 
ATOM     44  C   UNL     1      72.873  89.844  68.065  1.00  0.00     0.160 A 
ATOM     45  C   UNL     1      75.181  90.537  68.242  1.00  0.00     0.050 A 
ATOM     46  C   UNL     1      74.193  89.570  68.426  1.00  0.00     0.157 A 
BRANCH  44  47
ATOM     47  O   UNL     1      71.899  88.908  68.239  1.00  0.00    -0.493 OA
ATOM     48  C   UNL     1      71.142  88.537  67.088  1.00  0.00     0.278 C 
ENDBRANCH  44  47
BRANCH  46  49
ATOM     49  O   UNL     1      74.528  88.362  68.957  1.00  0.00    -0.504 OA
ATOM     50  H   UNL     1      73.900  87.691  68.639  1.00  0.00     0.293 HD
ENDBRANCH  46  49
ENDBRANCH  40  41
ENDBRANCH  38  40
ENDBRANCH  37  38
ENDBRANCH   1  37
TORSDOF 11
ENDMDL
