MODEL 1
REMARK VINA RESULT:    -6.618      0.000      0.000
REMARK INTER + INTRA:         -11.550
REMARK INTER:                 -10.680
REMARK INTRA:                  -0.870
REMARK UNBOUND:                -0.870
REMARK SMILES COc1cc(CNC(=O)CCCCCCC(C)C)ccc1O
REMARK SMILES IDX 11 1 10 2 8 3 7 4 9 6 6 7 5 8 3 9 21 10 4 11 20 12 19 13
REMARK SMILES IDX 2 14 1 15 22 16 12 18 13 19 14 20 15 21 16 22 17 23 18 24
REMARK H PARENT 7 5 22 17
REMARK Flexibility Score: inf
ROOT
ATOM      1  C   UNL     1      90.679  94.286  77.480  1.00  0.00     0.010 C 
ENDROOT
BRANCH   1   2
ATOM      2  C   UNL     1      91.659  95.302  76.834  1.00  0.00     0.100 C 
BRANCH   2   3
ATOM      3  C   UNL     1      93.078  95.038  77.164  1.00  0.00     0.220 C 
ATOM      4  N   UNL     1      93.490  95.014  78.464  1.00  0.00    -0.352 N 
ATOM      5  H   UNL     1      92.770  95.231  79.138  1.00  0.00     0.163 HD
ATOM      6  O   UNL     1      93.882  94.813  76.226  1.00  0.00    -0.275 OA
BRANCH   4   7
ATOM      7  C   UNL     1      94.818  94.713  78.905  1.00  0.00     0.151 C 
BRANCH   7   8
ATOM      8  C   UNL     1      95.587  95.919  79.318  1.00  0.00    -0.025 A 
ATOM      9  C   UNL     1      97.582  96.924  80.347  1.00  0.00     0.160 A 
ATOM     10  C   UNL     1      97.078  98.213  80.070  1.00  0.00     0.157 A 
ATOM     11  C   UNL     1      96.825  95.789  79.987  1.00  0.00     0.056 A 
ATOM     12  C   UNL     1      95.829  98.356  79.441  1.00  0.00     0.050 A 
ATOM     13  C   UNL     1      95.092  97.219  79.057  1.00  0.00     0.009 A 
BRANCH   9  14
ATOM     14  O   UNL     1      98.778  96.773  80.995  1.00  0.00    -0.493 OA
ATOM     15  C   UNL     1      98.768  95.742  81.999  1.00  0.00     0.278 C 
ENDBRANCH   9  14
BRANCH  10  16
ATOM     16  O   UNL     1      97.785  99.324  80.408  1.00  0.00    -0.504 OA
ATOM     17  H   UNL     1      98.323  99.138  81.181  1.00  0.00     0.293 HD
ENDBRANCH  10  16
ENDBRANCH   7   8
ENDBRANCH   4   7
ENDBRANCH   2   3
ENDBRANCH   1   2
BRANCH   1  18
ATOM     18  C   UNL     1      89.878  93.484  76.415  1.00  0.00     0.001 C 
BRANCH  18  19
ATOM     19  C   UNL     1      89.971  94.079  74.982  1.00  0.00     0.000 C 
BRANCH  19  20
ATOM     20  C   UNL     1      89.982  92.964  73.899  1.00  0.00     0.000 C 
BRANCH  20  21
ATOM     21  C   UNL     1      90.654  91.639  74.355  1.00  0.00     0.003 C 
BRANCH  21  22
ATOM     22  C   UNL     1      89.813  90.352  74.071  1.00  0.00    -0.017 C 
ATOM     23  C   UNL     1      88.343  90.727  73.731  1.00  0.00     0.007 C 
ATOM     24  C   UNL     1      89.856  89.309  75.226  1.00  0.00     0.007 C 
ENDBRANCH  21  22
ENDBRANCH  20  21
ENDBRANCH  19  20
ENDBRANCH  18  19
ENDBRANCH   1  18
TORSDOF 11
ENDMDL
MODEL 2
REMARK VINA RESULT:    -5.817      2.212      2.900
REMARK INTER + INTRA:         -10.258
REMARK INTER:                  -9.584
REMARK INTRA:                  -0.674
REMARK UNBOUND:                -0.870
REMARK SMILES COc1cc(CNC(=O)CCCCCCC(C)C)ccc1O
REMARK SMILES IDX 11 1 10 2 8 3 7 4 9 6 6 7 5 8 3 9 21 10 4 11 20 12 19 13
REMARK SMILES IDX 2 14 1 15 22 16 12 18 13 19 14 20 15 21 16 22 17 23 18 24
REMARK H PARENT 7 5 22 17
REMARK Flexibility Score: inf
ROOT
ATOM      1  C   UNL     1      92.887  95.818  77.534  1.00  0.00     0.010 C 
ENDROOT
BRANCH   1   2
ATOM      2  C   UNL     1      94.059  95.288  78.405  1.00  0.00     0.100 C 
BRANCH   2   3
ATOM      3  C   UNL     1      95.138  96.283  78.601  1.00  0.00     0.220 C 
ATOM      4  N   UNL     1      94.838  97.560  78.976  1.00  0.00    -0.352 N 
ATOM      5  H   UNL     1      93.850  97.754  79.056  1.00  0.00     0.163 HD
ATOM      6  O   UNL     1      96.328  95.919  78.439  1.00  0.00    -0.275 OA
BRANCH   4   7
ATOM      7  C   UNL     1      95.796  98.587  79.250  1.00  0.00     0.151 C 
BRANCH   7   8
ATOM      8  C   UNL     1      96.062  98.769  80.703  1.00  0.00    -0.025 A 
ATOM      9  C   UNL     1      97.418  98.282  82.697  1.00  0.00     0.160 A 
ATOM     10  C   UNL     1      96.603  99.143  83.464  1.00  0.00     0.157 A 
ATOM     11  C   UNL     1      97.131  98.087  81.329  1.00  0.00     0.056 A 
ATOM     12  C   UNL     1      95.513  99.797  82.861  1.00  0.00     0.050 A 
ATOM     13  C   UNL     1      95.250  99.621  81.488  1.00  0.00     0.009 A 
BRANCH   9  14
ATOM     14  O   UNL     1      98.457  97.611  83.282  1.00  0.00    -0.493 OA
ATOM     15  C   UNL     1      99.740  98.223  83.063  1.00  0.00     0.278 C 
ENDBRANCH   9  14
BRANCH  10  16
ATOM     16  O   UNL     1      96.856  99.349  84.783  1.00  0.00    -0.504 OA
ATOM     17  H   UNL     1      96.812  98.512  85.251  1.00  0.00     0.293 HD
ENDBRANCH  10  16
ENDBRANCH   7   8
ENDBRANCH   4   7
ENDBRANCH   2   3
ENDBRANCH   1   2
BRANCH   1  18
ATOM     18  C   UNL     1      91.874  94.695  77.168  1.00  0.00     0.001 C 
BRANCH  18  19
ATOM     19  C   UNL     1      91.688  94.493  75.638  1.00  0.00     0.000 C 
BRANCH  19  20
ATOM     20  C   UNL     1      90.190  94.309  75.263  1.00  0.00     0.000 C 
BRANCH  20  21
ATOM     21  C   UNL     1      89.919  93.138  74.278  1.00  0.00     0.003 C 
BRANCH  21  22
ATOM     22  C   UNL     1      90.412  91.741  74.778  1.00  0.00    -0.017 C 
ATOM     23  C   UNL     1      90.553  90.755  73.584  1.00  0.00     0.007 C 
ATOM     24  C   UNL     1      89.516  91.123  75.891  1.00  0.00     0.007 C 
ENDBRANCH  21  22
ENDBRANCH  20  21
ENDBRANCH  19  20
ENDBRANCH  18  19
ENDBRANCH   1  18
TORSDOF 11
ENDMDL
MODEL 3
REMARK VINA RESULT:    -5.603     12.376     14.287
REMARK INTER + INTRA:          -9.913
REMARK INTER:                  -9.242
REMARK INTRA:                  -0.671
REMARK UNBOUND:                -0.870
REMARK SMILES COc1cc(CNC(=O)CCCCCCC(C)C)ccc1O
REMARK SMILES IDX 11 1 10 2 8 3 7 4 9 6 6 7 5 8 3 9 21 10 4 11 20 12 19 13
REMARK SMILES IDX 2 14 1 15 22 16 12 18 13 19 14 20 15 21 16 22 17 23 18 24
REMARK H PARENT 7 5 22 17
REMARK Flexibility Score: inf
ROOT
ATOM      1  C   UNL     1      97.070  83.142  79.781  1.00  0.00     0.010 C 
ENDROOT
BRANCH   1   2
ATOM      2  C   UNL     1      97.196  81.753  80.465  1.00  0.00     0.100 C 
BRANCH   2   3
ATOM      3  C   UNL     1      97.079  81.815  81.939  1.00  0.00     0.220 C 
ATOM      4  N   UNL     1      96.149  81.058  82.589  1.00  0.00    -0.352 N 
ATOM      5  H   UNL     1      95.551  80.515  81.984  1.00  0.00     0.163 HD
ATOM      6  O   UNL     1      97.868  82.557  82.575  1.00  0.00    -0.275 OA
BRANCH   4   7
ATOM      7  C   UNL     1      95.984  80.992  84.010  1.00  0.00     0.151 C 
BRANCH   7   8
ATOM      8  C   UNL     1      94.986  81.966  84.530  1.00  0.00    -0.025 A 
ATOM      9  C   UNL     1      92.688  82.493  85.229  1.00  0.00     0.160 A 
ATOM     10  C   UNL     1      93.088  83.806  85.563  1.00  0.00     0.157 A 
ATOM     11  C   UNL     1      93.634  81.591  84.699  1.00  0.00     0.056 A 
ATOM     12  C   UNL     1      94.422  84.203  85.363  1.00  0.00     0.050 A 
ATOM     13  C   UNL     1      95.368  83.288  84.860  1.00  0.00     0.009 A 
BRANCH   9  14
ATOM     14  O   UNL     1      91.384  82.108  85.383  1.00  0.00    -0.493 OA
ATOM     15  C   UNL     1      90.660  82.005  84.143  1.00  0.00     0.278 C 
ENDBRANCH   9  14
BRANCH  10  16
ATOM     16  O   UNL     1      92.197  84.696  86.074  1.00  0.00    -0.504 OA
ATOM     17  H   UNL     1      91.644  84.257  86.725  1.00  0.00     0.293 HD
ENDBRANCH  10  16
ENDBRANCH   7   8
ENDBRANCH   4   7
ENDBRANCH   2   3
ENDBRANCH   1   2
BRANCH   1  18
ATOM     18  C   UNL     1      96.994  83.028  78.231  1.00  0.00     0.001 C 
BRANCH  18  19
ATOM     19  C   UNL     1      96.250  84.213  77.552  1.00  0.00     0.000 C 
BRANCH  19  20
ATOM     20  C   UNL     1      96.798  84.489  76.124  1.00  0.00     0.000 C 
BRANCH  20  21
ATOM     21  C   UNL     1      98.251  83.989  75.892  1.00  0.00     0.003 C 
BRANCH  21  22
ATOM     22  C   UNL     1      98.399  82.924  74.757  1.00  0.00    -0.017 C 
ATOM     23  C   UNL     1      99.883  82.484  74.613  1.00  0.00     0.007 C 
ATOM     24  C   UNL     1      97.833  83.390  73.383  1.00  0.00     0.007 C 
ENDBRANCH  21  22
ENDBRANCH  20  21
ENDBRANCH  19  20
ENDBRANCH  18  19
ENDBRANCH   1  18
TORSDOF 11
ENDMDL
MODEL 4
REMARK VINA RESULT:    -5.590     12.097     14.248
REMARK INTER + INTRA:          -9.891
REMARK INTER:                  -8.749
REMARK INTRA:                  -1.142
REMARK UNBOUND:                -0.870
REMARK SMILES COc1cc(CNC(=O)CCCCCCC(C)C)ccc1O
REMARK SMILES IDX 11 1 10 2 8 3 7 4 9 6 6 7 5 8 3 9 21 10 4 11 20 12 19 13
REMARK SMILES IDX 2 14 1 15 22 16 12 18 13 19 14 20 15 21 16 22 17 23 18 24
REMARK H PARENT 7 5 22 17
REMARK Flexibility Score: inf
ROOT
ATOM      1  C   UNL     1      97.474  83.282  78.444  1.00  0.00     0.010 C 
ENDROOT
BRANCH   1   2
ATOM      2  C   UNL     1      96.268  83.835  77.636  1.00  0.00     0.100 C 
BRANCH   2   3
ATOM      3  C   UNL     1      96.639  84.312  76.284  1.00  0.00     0.220 C 
ATOM      4  N   UNL     1      97.387  83.526  75.457  1.00  0.00    -0.352 N 
ATOM      5  H   UNL     1      97.682  82.650  75.862  1.00  0.00     0.163 HD
ATOM      6  O   UNL     1      96.232  85.440  75.912  1.00  0.00    -0.275 OA
BRANCH   4   7
ATOM      7  C   UNL     1      97.755  83.857  74.114  1.00  0.00     0.151 C 
BRANCH   7   8
ATOM      8  C   UNL     1      99.157  84.345  73.993  1.00  0.00    -0.025 A 
ATOM      9  C   UNL     1     100.964  85.316  72.638  1.00  0.00     0.160 A 
ATOM     10  C   UNL     1     101.813  85.318  73.767  1.00  0.00     0.157 A 
ATOM     11  C   UNL     1      99.652  84.813  72.755  1.00  0.00     0.056 A 
ATOM     12  C   UNL     1     101.344  84.819  74.995  1.00  0.00     0.050 A 
ATOM     13  C   UNL     1     100.023  84.345  75.112  1.00  0.00     0.009 A 
BRANCH   9  14
ATOM     14  O   UNL     1     101.423  85.763  71.428  1.00  0.00    -0.493 OA
ATOM     15  C   UNL     1     101.476  84.742  70.415  1.00  0.00     0.278 C 
ENDBRANCH   9  14
BRANCH  10  16
ATOM     16  O   UNL     1     103.082  85.796  73.683  1.00  0.00    -0.504 OA
ATOM     17  H   UNL     1     103.100  86.555  73.096  1.00  0.00     0.293 HD
ENDBRANCH  10  16
ENDBRANCH   7   8
ENDBRANCH   4   7
ENDBRANCH   2   3
ENDBRANCH   1   2
BRANCH   1  18
ATOM     18  C   UNL     1      97.107  83.002  79.929  1.00  0.00     0.001 C 
BRANCH  18  19
ATOM     19  C   UNL     1      98.108  82.060  80.655  1.00  0.00     0.000 C 
BRANCH  19  20
ATOM     20  C   UNL     1      99.582  82.426  80.323  1.00  0.00     0.000 C 
BRANCH  20  21
ATOM     21  C   UNL     1     100.516  81.198  80.134  1.00  0.00     0.003 C 
BRANCH  21  22
ATOM     22  C   UNL     1     101.476  81.295  78.904  1.00  0.00    -0.017 C 
ATOM     23  C   UNL     1     100.665  81.540  77.600  1.00  0.00     0.007 C 
ATOM     24  C   UNL     1     102.409  80.059  78.741  1.00  0.00     0.007 C 
ENDBRANCH  21  22
ENDBRANCH  20  21
ENDBRANCH  19  20
ENDBRANCH  18  19
ENDBRANCH   1  18
TORSDOF 11
ENDMDL
MODEL 5
REMARK VINA RESULT:    -5.513     14.002     17.324
REMARK INTER + INTRA:          -9.767
REMARK INTER:                  -9.059
REMARK INTRA:                  -0.709
REMARK UNBOUND:                -0.870
REMARK SMILES COc1cc(CNC(=O)CCCCCCC(C)C)ccc1O
REMARK SMILES IDX 11 1 10 2 8 3 7 4 9 6 6 7 5 8 3 9 21 10 4 11 20 12 19 13
REMARK SMILES IDX 2 14 1 15 22 16 12 18 13 19 14 20 15 21 16 22 17 23 18 24
REMARK H PARENT 7 5 22 17
REMARK Flexibility Score: inf
ROOT
ATOM      1  C   UNL     1      96.462  78.929  83.446  1.00  0.00     0.010 C 
ENDROOT
BRANCH   1   2
ATOM      2  C   UNL     1      95.728  78.065  84.509  1.00  0.00     0.100 C 
BRANCH   2   3
ATOM      3  C   UNL     1      94.335  77.735  84.133  1.00  0.00     0.220 C 
ATOM      4  N   UNL     1      93.311  78.563  84.490  1.00  0.00    -0.352 N 
ATOM      5  H   UNL     1      93.586  79.358  85.047  1.00  0.00     0.163 HD
ATOM      6  O   UNL     1      94.123  76.696  83.462  1.00  0.00    -0.275 OA
BRANCH   4   7
ATOM      7  C   UNL     1      91.936  78.377  84.134  1.00  0.00     0.151 C 
BRANCH   7   8
ATOM      8  C   UNL     1      91.130  79.624  84.239  1.00  0.00    -0.025 A 
ATOM      9  C   UNL     1      88.943  80.751  84.257  1.00  0.00     0.160 A 
ATOM     10  C   UNL     1      89.582  81.990  84.482  1.00  0.00     0.157 A 
ATOM     11  C   UNL     1      89.722  79.582  84.119  1.00  0.00     0.056 A 
ATOM     12  C   UNL     1      90.984  82.050  84.565  1.00  0.00     0.050 A 
ATOM     13  C   UNL     1      91.754  80.875  84.455  1.00  0.00     0.009 A 
BRANCH   9  14
ATOM     14  O   UNL     1      87.582  80.687  84.136  1.00  0.00    -0.493 OA
ATOM     15  C   UNL     1      87.122  80.654  82.772  1.00  0.00     0.278 C 
ENDBRANCH   9  14
BRANCH  10  16
ATOM     16  O   UNL     1      88.857  83.132  84.618  1.00  0.00    -0.504 OA
ATOM     17  H   UNL     1      88.493  83.382  83.765  1.00  0.00     0.293 HD
ENDBRANCH  10  16
ENDBRANCH   7   8
ENDBRANCH   4   7
ENDBRANCH   2   3
ENDBRANCH   1   2
BRANCH   1  18
ATOM     18  C   UNL     1      96.006  80.416  83.481  1.00  0.00     0.001 C 
BRANCH  18  19
ATOM     19  C   UNL     1      96.575  81.274  82.316  1.00  0.00     0.000 C 
BRANCH  19  20
ATOM     20  C   UNL     1      97.614  80.479  81.475  1.00  0.00     0.000 C 
BRANCH  20  21
ATOM     21  C   UNL     1      97.588  80.805  79.957  1.00  0.00     0.003 C 
BRANCH  21  22
ATOM     22  C   UNL     1      98.390  82.085  79.552  1.00  0.00    -0.017 C 
ATOM     23  C   UNL     1      99.574  82.318  80.534  1.00  0.00     0.007 C 
ATOM     24  C   UNL     1      97.511  83.366  79.446  1.00  0.00     0.007 C 
ENDBRANCH  21  22
ENDBRANCH  20  21
ENDBRANCH  19  20
ENDBRANCH  18  19
ENDBRANCH   1  18
TORSDOF 11
ENDMDL
MODEL 6
REMARK VINA RESULT:    -5.295     19.267     20.852
REMARK INTER + INTRA:          -9.415
REMARK INTER:                  -8.456
REMARK INTRA:                  -0.959
REMARK UNBOUND:                -0.870
REMARK SMILES COc1cc(CNC(=O)CCCCCCC(C)C)ccc1O
REMARK SMILES IDX 11 1 10 2 8 3 7 4 9 6 6 7 5 8 3 9 21 10 4 11 20 12 19 13
REMARK SMILES IDX 2 14 1 15 22 16 12 18 13 19 14 20 15 21 16 22 17 23 18 24
REMARK H PARENT 7 5 22 17
REMARK Flexibility Score: inf
ROOT
ATOM      1  C   UNL     1      75.024  89.647  68.647  1.00  0.00     0.010 C 
ENDROOT
BRANCH   1   2
ATOM      2  C   UNL     1      74.129  88.744  69.540  1.00  0.00     0.100 C 
BRANCH   2   3
ATOM      3  C   UNL     1      73.192  89.510  70.393  1.00  0.00     0.220 C 
ATOM      4  N   UNL     1      73.668  90.337  71.369  1.00  0.00    -0.352 N 
ATOM      5  H   UNL     1      74.672  90.334  71.470  1.00  0.00     0.163 HD
ATOM      6  O   UNL     1      71.960  89.400  70.183  1.00  0.00    -0.275 OA
BRANCH   4   7
ATOM      7  C   UNL     1      72.864  91.167  72.213  1.00  0.00     0.151 C 
BRANCH   7   8
ATOM      8  C   UNL     1      73.644  92.225  72.912  1.00  0.00    -0.025 A 
ATOM      9  C   UNL     1      74.156  93.495  74.955  1.00  0.00     0.160 A 
ATOM     10  C   UNL     1      75.159  94.208  74.263  1.00  0.00     0.157 A 
ATOM     11  C   UNL     1      73.395  92.524  74.271  1.00  0.00     0.056 A 
ATOM     12  C   UNL     1      75.390  93.947  72.900  1.00  0.00     0.050 A 
ATOM     13  C   UNL     1      74.646  92.956  72.231  1.00  0.00     0.009 A 
BRANCH   9  14
ATOM     14  O   UNL     1      73.896  93.769  76.270  1.00  0.00    -0.493 OA
ATOM     15  C   UNL     1      72.526  93.541  76.650  1.00  0.00     0.278 C 
ENDBRANCH   9  14
BRANCH  10  16
ATOM     16  O   UNL     1      75.906  95.150  74.896  1.00  0.00    -0.504 OA
ATOM     17  H   UNL     1      76.224  94.798  75.731  1.00  0.00     0.293 HD
ENDBRANCH  10  16
ENDBRANCH   7   8
ENDBRANCH   4   7
ENDBRANCH   2   3
ENDBRANCH   1   2
BRANCH   1  18
ATOM     18  C   UNL     1      76.535  89.316  68.807  1.00  0.00     0.001 C 
BRANCH  18  19
ATOM     19  C   UNL     1      77.195  88.763  67.512  1.00  0.00     0.000 C 
BRANCH  19  20
ATOM     20  C   UNL     1      77.179  87.208  67.481  1.00  0.00     0.000 C 
BRANCH  20  21
ATOM     21  C   UNL     1      77.093  86.544  68.883  1.00  0.00     0.003 C 
BRANCH  21  22
ATOM     22  C   UNL     1      75.993  85.440  69.013  1.00  0.00    -0.017 C 
ATOM     23  C   UNL     1      76.000  84.832  70.444  1.00  0.00     0.007 C 
ATOM     24  C   UNL     1      76.107  84.315  67.942  1.00  0.00     0.007 C 
ENDBRANCH  21  22
ENDBRANCH  20  21
ENDBRANCH  19  20
ENDBRANCH  18  19
ENDBRANCH   1  18
TORSDOF 11
ENDMDL
MODEL 7
REMARK VINA RESULT:    -5.289     12.303     15.174
REMARK INTER + INTRA:          -9.406
REMARK INTER:                  -8.421
REMARK INTRA:                  -0.984
REMARK UNBOUND:                -0.870
REMARK SMILES COc1cc(CNC(=O)CCCCCCC(C)C)ccc1O
REMARK SMILES IDX 11 1 10 2 8 3 7 4 9 6 6 7 5 8 3 9 21 10 4 11 20 12 19 13
REMARK SMILES IDX 2 14 1 15 22 16 12 18 13 19 14 20 15 21 16 22 17 23 18 24
REMARK H PARENT 7 5 22 17
REMARK Flexibility Score: inf
ROOT
ATOM      1  C   UNL     1      97.363  82.494  77.443  1.00  0.00     0.010 C 
ENDROOT
BRANCH   1   2
ATOM      2  C   UNL     1      96.628  83.844  77.219  1.00  0.00     0.100 C 
BRANCH   2   3
ATOM      3  C   UNL     1      97.018  84.521  75.961  1.00  0.00     0.220 C 
ATOM      4  N   UNL     1      98.293  84.412  75.487  1.00  0.00    -0.352 N 
ATOM      5  H   UNL     1      98.919  83.886  76.079  1.00  0.00     0.163 HD
ATOM      6  O   UNL     1      96.148  85.172  75.334  1.00  0.00    -0.275 OA
BRANCH   4   7
ATOM      7  C   UNL     1      98.768  84.972  74.258  1.00  0.00     0.151 C 
BRANCH   7   8
ATOM      8  C   UNL     1      99.005  83.950  73.202  1.00  0.00    -0.025 A 
ATOM      9  C   UNL     1     100.443  82.991  71.452  1.00  0.00     0.160 A 
ATOM     10  C   UNL     1      99.485  81.981  71.215  1.00  0.00     0.157 A 
ATOM     11  C   UNL     1     100.188  83.977  72.428  1.00  0.00     0.056 A 
ATOM     12  C   UNL     1      98.287  81.967  71.951  1.00  0.00     0.050 A 
ATOM     13  C   UNL     1      98.052  82.937  72.945  1.00  0.00     0.009 A 
BRANCH   9  14
ATOM     14  O   UNL     1     101.595  83.038  70.714  1.00  0.00    -0.493 OA
ATOM     15  C   UNL     1     102.733  82.458  71.378  1.00  0.00     0.278 C 
ENDBRANCH   9  14
BRANCH  10  16
ATOM     16  O   UNL     1      99.704  81.020  70.280  1.00  0.00    -0.504 OA
ATOM     17  H   UNL     1      98.951  80.424  70.253  1.00  0.00     0.293 HD
ENDBRANCH  10  16
ENDBRANCH   7   8
ENDBRANCH   4   7
ENDBRANCH   2   3
ENDBRANCH   1   2
BRANCH   1  18
ATOM     18  C   UNL     1      98.214  82.499  78.745  1.00  0.00     0.001 C 
BRANCH  18  19
ATOM     19  C   UNL     1      97.518  83.198  79.946  1.00  0.00     0.000 C 
BRANCH  19  20
ATOM     20  C   UNL     1      97.025  82.168  81.001  1.00  0.00     0.000 C 
BRANCH  20  21
ATOM     21  C   UNL     1      97.352  80.690  80.649  1.00  0.00     0.003 C 
BRANCH  21  22
ATOM     22  C   UNL     1      98.417  80.021  81.577  1.00  0.00    -0.017 C 
ATOM     23  C   UNL     1      98.960  81.048  82.611  1.00  0.00     0.007 C 
ATOM     24  C   UNL     1      99.592  79.356  80.802  1.00  0.00     0.007 C 
ENDBRANCH  21  22
ENDBRANCH  20  21
ENDBRANCH  19  20
ENDBRANCH  18  19
ENDBRANCH   1  18
TORSDOF 11
ENDMDL
MODEL 8
REMARK VINA RESULT:    -5.179     12.661     14.898
REMARK INTER + INTRA:          -9.228
REMARK INTER:                  -8.035
REMARK INTRA:                  -1.193
REMARK UNBOUND:                -0.870
REMARK SMILES COc1cc(CNC(=O)CCCCCCC(C)C)ccc1O
REMARK SMILES IDX 11 1 10 2 8 3 7 4 9 6 6 7 5 8 3 9 21 10 4 11 20 12 19 13
REMARK SMILES IDX 2 14 1 15 22 16 12 18 13 19 14 20 15 21 16 22 17 23 18 24
REMARK H PARENT 7 5 22 17
REMARK Flexibility Score: inf
ROOT
ATOM      1  C   UNL     1      99.862  84.538  74.905  1.00  0.00     0.010 C 
ENDROOT
BRANCH   1   2
ATOM      2  C   UNL     1      98.447  84.606  74.268  1.00  0.00     0.100 C 
BRANCH   2   3
ATOM      3  C   UNL     1      97.353  84.497  75.258  1.00  0.00     0.220 C 
ATOM      4  N   UNL     1      97.608  84.045  76.520  1.00  0.00    -0.352 N 
ATOM      5  H   UNL     1      98.565  83.765  76.681  1.00  0.00     0.163 HD
ATOM      6  O   UNL     1      96.197  84.852  74.920  1.00  0.00    -0.275 OA
BRANCH   4   7
ATOM      7  C   UNL     1      96.646  83.953  77.575  1.00  0.00     0.151 C 
BRANCH   7   8
ATOM      8  C   UNL     1      97.067  83.044  78.677  1.00  0.00    -0.025 A 
ATOM      9  C   UNL     1      98.057  80.920  79.424  1.00  0.00     0.160 A 
ATOM     10  C   UNL     1      97.914  81.325  80.769  1.00  0.00     0.157 A 
ATOM     11  C   UNL     1      97.616  81.773  78.390  1.00  0.00     0.056 A 
ATOM     12  C   UNL     1      97.334  82.571  81.068  1.00  0.00     0.050 A 
ATOM     13  C   UNL     1      96.923  83.430  80.030  1.00  0.00     0.009 A 
BRANCH   9  14
ATOM     14  O   UNL     1      98.583  79.694  79.123  1.00  0.00    -0.493 OA
ATOM     15  C   UNL     1      98.307  79.257  77.780  1.00  0.00     0.278 C 
ENDBRANCH   9  14
BRANCH  10  16
ATOM     16  O   UNL     1      98.329  80.523  81.785  1.00  0.00    -0.504 OA
ATOM     17  H   UNL     1      98.470  79.633  81.452  1.00  0.00     0.293 HD
ENDBRANCH  10  16
ENDBRANCH   7   8
ENDBRANCH   4   7
ENDBRANCH   2   3
ENDBRANCH   1   2
BRANCH   1  18
ATOM     18  C   UNL     1     100.989  84.797  73.865  1.00  0.00     0.001 C 
BRANCH  18  19
ATOM     19  C   UNL     1     102.025  83.643  73.763  1.00  0.00     0.000 C 
BRANCH  19  20
ATOM     20  C   UNL     1     103.016  83.657  74.961  1.00  0.00     0.000 C 
BRANCH  20  21
ATOM     21  C   UNL     1     103.259  82.263  75.602  1.00  0.00     0.003 C 
BRANCH  21  22
ATOM     22  C   UNL     1     102.456  82.003  76.919  1.00  0.00    -0.017 C 
ATOM     23  C   UNL     1     103.278  81.109  77.890  1.00  0.00     0.007 C 
ATOM     24  C   UNL     1     101.044  81.392  76.679  1.00  0.00     0.007 C 
ENDBRANCH  21  22
ENDBRANCH  20  21
ENDBRANCH  19  20
ENDBRANCH  18  19
ENDBRANCH   1  18
TORSDOF 11
ENDMDL
MODEL 9
REMARK VINA RESULT:    -5.176     12.574     14.951
REMARK INTER + INTRA:          -9.224
REMARK INTER:                  -7.980
REMARK INTRA:                  -1.244
REMARK UNBOUND:                -0.870
REMARK SMILES COc1cc(CNC(=O)CCCCCCC(C)C)ccc1O
REMARK SMILES IDX 11 1 10 2 8 3 7 4 9 6 6 7 5 8 3 9 21 10 4 11 20 12 19 13
REMARK SMILES IDX 2 14 1 15 22 16 12 18 13 19 14 20 15 21 16 22 17 23 18 24
REMARK H PARENT 7 5 22 17
REMARK Flexibility Score: inf
ROOT
ATOM      1  C   UNL     1     102.488  85.532  74.050  1.00  0.00     0.010 C 
ENDROOT
BRANCH   1   2
ATOM      2  C   UNL     1     101.542  85.007  72.935  1.00  0.00     0.100 C 
BRANCH   2   3
ATOM      3  C   UNL     1     100.114  85.291  73.199  1.00  0.00     0.220 C 
ATOM      4  N   UNL     1      99.212  84.271  73.285  1.00  0.00    -0.352 N 
ATOM      5  H   UNL     1      99.597  83.354  73.113  1.00  0.00     0.163 HD
ATOM      6  O   UNL     1      99.758  86.484  73.364  1.00  0.00    -0.275 OA
BRANCH   4   7
ATOM      7  C   UNL     1      97.822  84.420  73.592  1.00  0.00     0.151 C 
BRANCH   7   8
ATOM      8  C   UNL     1      97.495  84.090  75.006  1.00  0.00    -0.025 A 
ATOM      9  C   UNL     1      97.786  82.652  76.980  1.00  0.00     0.160 A 
ATOM     10  C   UNL     1      96.910  83.480  77.715  1.00  0.00     0.157 A 
ATOM     11  C   UNL     1      98.057  82.952  75.628  1.00  0.00     0.056 A 
ATOM     12  C   UNL     1      96.314  84.593  77.096  1.00  0.00     0.050 A 
ATOM     13  C   UNL     1      96.611  84.904  75.755  1.00  0.00     0.009 A 
BRANCH   9  14
ATOM     14  O   UNL     1      98.341  81.544  77.561  1.00  0.00    -0.493 OA
ATOM     15  C   UNL     1      99.746  81.678  77.842  1.00  0.00     0.278 C 
ENDBRANCH   9  14
BRANCH  10  16
ATOM     16  O   UNL     1      96.630  83.214  79.018  1.00  0.00    -0.504 OA
ATOM     17  H   UNL     1      96.632  84.033  79.519  1.00  0.00     0.293 HD
ENDBRANCH  10  16
ENDBRANCH   7   8
ENDBRANCH   4   7
ENDBRANCH   2   3
ENDBRANCH   1   2
BRANCH   1  18
ATOM     18  C   UNL     1     103.209  84.377  74.801  1.00  0.00     0.001 C 
BRANCH  18  19
ATOM     19  C   UNL     1     102.244  83.280  75.336  1.00  0.00     0.000 C 
BRANCH  19  20
ATOM     20  C   UNL     1     102.752  81.853  74.986  1.00  0.00     0.000 C 
BRANCH  20  21
ATOM     21  C   UNL     1     102.914  80.916  76.215  1.00  0.00     0.003 C 
BRANCH  21  22
ATOM     22  C   UNL     1     103.676  81.553  77.423  1.00  0.00    -0.017 C 
ATOM     23  C   UNL     1     105.212  81.411  77.233  1.00  0.00     0.007 C 
ATOM     24  C   UNL     1     103.243  80.984  78.806  1.00  0.00     0.007 C 
ENDBRANCH  21  22
ENDBRANCH  20  21
ENDBRANCH  19  20
ENDBRANCH  18  19
ENDBRANCH   1  18
TORSDOF 11
ENDMDL
MODEL 10
REMARK VINA RESULT:    -5.170     16.608     19.424
REMARK INTER + INTRA:          -9.214
REMARK INTER:                  -8.562
REMARK INTRA:                  -0.652
REMARK UNBOUND:                -0.870
REMARK SMILES COc1cc(CNC(=O)CCCCCCC(C)C)ccc1O
REMARK SMILES IDX 11 1 10 2 8 3 7 4 9 6 6 7 5 8 3 9 21 10 4 11 20 12 19 13
REMARK SMILES IDX 2 14 1 15 22 16 12 18 13 19 14 20 15 21 16 22 17 23 18 24
REMARK H PARENT 7 5 22 17
REMARK Flexibility Score: inf
ROOT
ATOM      1  C   UNL     1      74.114  90.154  68.711  1.00  0.00     0.010 C 
ENDROOT
BRANCH   1   2
ATOM      2  C   UNL     1      74.477  90.070  70.220  1.00  0.00     0.100 C 
BRANCH   2   3
ATOM      3  C   UNL     1      73.884  91.160  71.026  1.00  0.00     0.220 C 
ATOM      4  N   UNL     1      74.687  92.066  71.656  1.00  0.00    -0.352 N 
ATOM      5  H   UNL     1      75.676  91.894  71.555  1.00  0.00     0.163 HD
ATOM      6  O   UNL     1      72.633  91.245  71.096  1.00  0.00    -0.275 OA
BRANCH   4   7
ATOM      7  C   UNL     1      74.227  93.192  72.412  1.00  0.00     0.151 C 
BRANCH   7   8
ATOM      8  C   UNL     1      75.092  93.505  73.582  1.00  0.00    -0.025 A 
ATOM      9  C   UNL     1      77.212  94.350  74.498  1.00  0.00     0.160 A 
ATOM     10  C   UNL     1      76.730  94.145  75.809  1.00  0.00     0.157 A 
ATOM     11  C   UNL     1      76.399  94.011  73.397  1.00  0.00     0.056 A 
ATOM     12  C   UNL     1      75.446  93.605  76.007  1.00  0.00     0.050 A 
ATOM     13  C   UNL     1      74.628  93.297  74.903  1.00  0.00     0.009 A 
BRANCH   9  14
ATOM     14  O   UNL     1      78.474  94.837  74.295  1.00  0.00    -0.493 OA
ATOM     15  C   UNL     1      78.504  96.219  73.892  1.00  0.00     0.278 C 
ENDBRANCH   9  14
BRANCH  10  16
ATOM     16  O   UNL     1      77.493  94.460  76.889  1.00  0.00    -0.504 OA
ATOM     17  H   UNL     1      76.959  94.940  77.528  1.00  0.00     0.293 HD
ENDBRANCH  10  16
ENDBRANCH   7   8
ENDBRANCH   4   7
ENDBRANCH   2   3
ENDBRANCH   1   2
BRANCH   1  18
ATOM     18  C   UNL     1      75.324  89.812  67.796  1.00  0.00     0.001 C 
BRANCH  18  19
ATOM     19  C   UNL     1      76.632  89.501  68.578  1.00  0.00     0.000 C 
BRANCH  19  20
ATOM     20  C   UNL     1      77.576  88.570  67.766  1.00  0.00     0.000 C 
BRANCH  20  21
ATOM     21  C   UNL     1      76.836  87.512  66.900  1.00  0.00     0.003 C 
BRANCH  21  22
ATOM     22  C   UNL     1      76.663  86.117  67.585  1.00  0.00    -0.017 C 
ATOM     23  C   UNL     1      77.302  86.124  69.002  1.00  0.00     0.007 C 
ATOM     24  C   UNL     1      77.220  84.933  66.741  1.00  0.00     0.007 C 
ENDBRANCH  21  22
ENDBRANCH  20  21
ENDBRANCH  19  20
ENDBRANCH  18  19
ENDBRANCH   1  18
TORSDOF 11
ENDMDL
