MODEL 1
REMARK VINA RESULT:    -6.170      0.000      0.000
REMARK INTER + INTRA:         -10.619
REMARK INTER:                  -9.957
REMARK INTRA:                  -0.662
REMARK UNBOUND:                -0.662
REMARK SMILES COc1cc(CNC(=O)CCCCCCC(C)C)ccc1O
REMARK SMILES IDX 11 1 10 2 8 3 7 4 9 6 6 7 5 8 3 9 21 10 4 11 20 12 19 13
REMARK SMILES IDX 2 14 1 15 22 16 12 18 13 19 14 20 15 21 16 22 17 23 18 24
REMARK H PARENT 7 5 22 17
REMARK Flexibility Score: inf
ROOT
ATOM      1  C   UNL     1      95.085  97.783  73.359  1.00  0.00     0.010 C 
ENDROOT
BRANCH   1   2
ATOM      2  C   UNL     1      93.693  98.370  73.720  1.00  0.00     0.100 C 
BRANCH   2   3
ATOM      3  C   UNL     1      93.271  99.468  72.821  1.00  0.00     0.220 C 
ATOM      4  N   UNL     1      92.226  99.291  71.961  1.00  0.00    -0.352 N 
ATOM      5  H   UNL     1      91.825  98.365  71.971  1.00  0.00     0.163 HD
ATOM      6  O   UNL     1      93.876 100.566  72.886  1.00  0.00    -0.275 OA
BRANCH   4   7
ATOM      7  C   UNL     1      91.694 100.295  71.090  1.00  0.00     0.151 C 
BRANCH   7   8
ATOM      8  C   UNL     1      90.889  99.734  69.970  1.00  0.00    -0.025 A 
ATOM      9  C   UNL     1      90.033  99.900  67.671  1.00  0.00     0.160 A 
ATOM     10  C   UNL     1      89.393  98.650  67.816  1.00  0.00     0.157 A 
ATOM     11  C   UNL     1      90.759 100.440  68.753  1.00  0.00     0.056 A 
ATOM     12  C   UNL     1      89.483  97.955  69.036  1.00  0.00     0.050 A 
ATOM     13  C   UNL     1      90.234  98.487  70.103  1.00  0.00     0.009 A 
BRANCH   9  14
ATOM     14  O   UNL     1      89.920 100.602  66.502  1.00  0.00    -0.493 OA
ATOM     15  C   UNL     1      91.080 100.510  65.655  1.00  0.00     0.278 C 
ENDBRANCH   9  14
BRANCH  10  16
ATOM     16  O   UNL     1      88.686  98.106  66.791  1.00  0.00    -0.504 OA
ATOM     17  H   UNL     1      89.134  97.317  66.477  1.00  0.00     0.293 HD
ENDBRANCH  10  16
ENDBRANCH   7   8
ENDBRANCH   4   7
ENDBRANCH   2   3
ENDBRANCH   1   2
BRANCH   1  18
ATOM     18  C   UNL     1      95.164  96.252  73.626  1.00  0.00     0.001 C 
BRANCH  18  19
ATOM     19  C   UNL     1      95.251  95.883  75.134  1.00  0.00     0.000 C 
BRANCH  19  20
ATOM     20  C   UNL     1      94.315  94.693  75.486  1.00  0.00     0.000 C 
BRANCH  20  21
ATOM     21  C   UNL     1      94.188  94.413  77.009  1.00  0.00     0.003 C 
BRANCH  21  22
ATOM     22  C   UNL     1      92.786  94.745  77.617  1.00  0.00    -0.017 C 
ATOM     23  C   UNL     1      91.887  93.477  77.636  1.00  0.00     0.007 C 
ATOM     24  C   UNL     1      92.056  95.920  76.901  1.00  0.00     0.007 C 
ENDBRANCH  21  22
ENDBRANCH  20  21
ENDBRANCH  19  20
ENDBRANCH  18  19
ENDBRANCH   1  18
TORSDOF 11
ENDMDL
MODEL 2
REMARK VINA RESULT:    -6.056     16.265     17.862
REMARK INTER + INTRA:         -10.435
REMARK INTER:                  -9.667
REMARK INTRA:                  -0.768
REMARK UNBOUND:                -0.662
REMARK SMILES COc1cc(CNC(=O)CCCCCCC(C)C)ccc1O
REMARK SMILES IDX 11 1 10 2 8 3 7 4 9 6 6 7 5 8 3 9 21 10 4 11 20 12 19 13
REMARK SMILES IDX 2 14 1 15 22 16 12 18 13 19 14 20 15 21 16 22 17 23 18 24
REMARK H PARENT 7 5 22 17
REMARK Flexibility Score: inf
ROOT
ATOM      1  C   UNL     1      97.075  81.659  77.884  1.00  0.00     0.010 C 
ENDROOT
BRANCH   1   2
ATOM      2  C   UNL     1      95.909  82.518  77.323  1.00  0.00     0.100 C 
BRANCH   2   3
ATOM      3  C   UNL     1      96.255  83.227  76.070  1.00  0.00     0.220 C 
ATOM      4  N   UNL     1      97.319  82.821  75.320  1.00  0.00    -0.352 N 
ATOM      5  H   UNL     1      97.844  82.055  75.714  1.00  0.00     0.163 HD
ATOM      6  O   UNL     1      95.535  84.189  75.705  1.00  0.00    -0.275 OA
BRANCH   4   7
ATOM      7  C   UNL     1      97.712  83.391  74.067  1.00  0.00     0.151 C 
BRANCH   7   8
ATOM      8  C   UNL     1      99.149  83.169  73.746  1.00  0.00    -0.025 A 
ATOM      9  C   UNL     1     101.158  83.757  72.456  1.00  0.00     0.160 A 
ATOM     10  C   UNL     1     101.898  82.782  73.160  1.00  0.00     0.157 A 
ATOM     11  C   UNL     1      99.787  83.930  72.740  1.00  0.00     0.056 A 
ATOM     12  C   UNL     1     101.265  81.992  74.136  1.00  0.00     0.050 A 
ATOM     13  C   UNL     1      99.903  82.190  74.435  1.00  0.00     0.009 A 
BRANCH   9  14
ATOM     14  O   UNL     1     101.755  84.504  71.477  1.00  0.00    -0.493 OA
ATOM     15  C   UNL     1     101.324  84.168  70.146  1.00  0.00     0.278 C 
ENDBRANCH   9  14
BRANCH  10  16
ATOM     16  O   UNL     1     103.220  82.593  72.905  1.00  0.00    -0.504 OA
ATOM     17  H   UNL     1     103.735  83.238  73.397  1.00  0.00     0.293 HD
ENDBRANCH  10  16
ENDBRANCH   7   8
ENDBRANCH   4   7
ENDBRANCH   2   3
ENDBRANCH   1   2
BRANCH   1  18
ATOM     18  C   UNL     1      97.412  82.018  79.359  1.00  0.00     0.001 C 
BRANCH  18  19
ATOM     19  C   UNL     1      98.048  80.847  80.160  1.00  0.00     0.000 C 
BRANCH  19  20
ATOM     20  C   UNL     1      97.032  80.218  81.155  1.00  0.00     0.000 C 
BRANCH  20  21
ATOM     21  C   UNL     1      97.043  80.862  82.569  1.00  0.00     0.003 C 
BRANCH  21  22
ATOM     22  C   UNL     1      95.901  81.900  82.820  1.00  0.00    -0.017 C 
ATOM     23  C   UNL     1      96.483  83.340  82.902  1.00  0.00     0.007 C 
ATOM     24  C   UNL     1      95.037  81.588  84.077  1.00  0.00     0.007 C 
ENDBRANCH  21  22
ENDBRANCH  20  21
ENDBRANCH  19  20
ENDBRANCH  18  19
ENDBRANCH   1  18
TORSDOF 11
ENDMDL
MODEL 3
REMARK VINA RESULT:    -5.791     33.740     36.737
REMARK INTER + INTRA:         -10.007
REMARK INTER:                  -9.371
REMARK INTRA:                  -0.636
REMARK UNBOUND:                -0.662
REMARK SMILES COc1cc(CNC(=O)CCCCCCC(C)C)ccc1O
REMARK SMILES IDX 11 1 10 2 8 3 7 4 9 6 6 7 5 8 3 9 21 10 4 11 20 12 19 13
REMARK SMILES IDX 2 14 1 15 22 16 12 18 13 19 14 20 15 21 16 22 17 23 18 24
REMARK H PARENT 7 5 22 17
REMARK Flexibility Score: inf
ROOT
ATOM      1  C   UNL     1      57.607  87.350  70.500  1.00  0.00     0.010 C 
ENDROOT
BRANCH   1   2
ATOM      2  C   UNL     1      57.175  85.863  70.379  1.00  0.00     0.100 C 
BRANCH   2   3
ATOM      3  C   UNL     1      57.679  85.016  71.483  1.00  0.00     0.220 C 
ATOM      4  N   UNL     1      59.009  85.002  71.790  1.00  0.00    -0.352 N 
ATOM      5  H   UNL     1      59.586  85.567  71.184  1.00  0.00     0.163 HD
ATOM      6  O   UNL     1      56.857  84.334  72.142  1.00  0.00    -0.275 OA
BRANCH   4   7
ATOM      7  C   UNL     1      59.601  84.271  72.868  1.00  0.00     0.151 C 
BRANCH   7   8
ATOM      8  C   UNL     1      60.794  83.480  72.456  1.00  0.00    -0.025 A 
ATOM      9  C   UNL     1      62.735  83.169  70.979  1.00  0.00     0.160 A 
ATOM     10  C   UNL     1      63.094  82.004  71.692  1.00  0.00     0.157 A 
ATOM     11  C   UNL     1      61.580  83.886  71.354  1.00  0.00     0.056 A 
ATOM     12  C   UNL     1      62.297  81.568  72.766  1.00  0.00     0.050 A 
ATOM     13  C   UNL     1      61.161  82.306  73.154  1.00  0.00     0.009 A 
BRANCH   9  14
ATOM     14  O   UNL     1      63.481  83.580  69.908  1.00  0.00    -0.493 OA
ATOM     15  C   UNL     1      62.846  84.602  69.117  1.00  0.00     0.278 C 
ENDBRANCH   9  14
BRANCH  10  16
ATOM     16  O   UNL     1      64.201  81.293  71.352  1.00  0.00    -0.504 OA
ATOM     17  H   UNL     1      64.219  81.166  70.401  1.00  0.00     0.293 HD
ENDBRANCH  10  16
ENDBRANCH   7   8
ENDBRANCH   4   7
ENDBRANCH   2   3
ENDBRANCH   1   2
BRANCH   1  18
ATOM     18  C   UNL     1      56.560  88.205  71.268  1.00  0.00     0.001 C 
BRANCH  18  19
ATOM     19  C   UNL     1      55.978  89.381  70.434  1.00  0.00     0.000 C 
BRANCH  19  20
ATOM     20  C   UNL     1      55.022  88.873  69.318  1.00  0.00     0.000 C 
BRANCH  20  21
ATOM     21  C   UNL     1      53.679  89.649  69.227  1.00  0.00     0.003 C 
BRANCH  21  22
ATOM     22  C   UNL     1      52.813  89.305  67.971  1.00  0.00    -0.017 C 
ATOM     23  C   UNL     1      52.993  87.811  67.580  1.00  0.00     0.007 C 
ATOM     24  C   UNL     1      53.092  90.226  66.747  1.00  0.00     0.007 C 
ENDBRANCH  21  22
ENDBRANCH  20  21
ENDBRANCH  19  20
ENDBRANCH  18  19
ENDBRANCH   1  18
TORSDOF 11
ENDMDL
MODEL 4
REMARK VINA RESULT:    -5.656     28.770     32.291
REMARK INTER + INTRA:          -9.789
REMARK INTER:                  -8.259
REMARK INTRA:                  -1.530
REMARK UNBOUND:                -0.662
REMARK SMILES COc1cc(CNC(=O)CCCCCCC(C)C)ccc1O
REMARK SMILES IDX 11 1 10 2 8 3 7 4 9 6 6 7 5 8 3 9 21 10 4 11 20 12 19 13
REMARK SMILES IDX 2 14 1 15 22 16 12 18 13 19 14 20 15 21 16 22 17 23 18 24
REMARK H PARENT 7 5 22 17
REMARK Flexibility Score: inf
ROOT
ATOM      1  C   UNL     1      80.423  65.998  74.917  1.00  0.00     0.010 C 
ENDROOT
BRANCH   1   2
ATOM      2  C   UNL     1      81.467  65.378  75.887  1.00  0.00     0.100 C 
BRANCH   2   3
ATOM      3  C   UNL     1      82.865  65.693  75.519  1.00  0.00     0.220 C 
ATOM      4  N   UNL     1      83.235  66.979  75.252  1.00  0.00    -0.352 N 
ATOM      5  H   UNL     1      82.481  67.649  75.284  1.00  0.00     0.163 HD
ATOM      6  O   UNL     1      83.703  64.758  75.484  1.00  0.00    -0.275 OA
BRANCH   4   7
ATOM      7  C   UNL     1      84.565  67.409  74.944  1.00  0.00     0.151 C 
BRANCH   7   8
ATOM      8  C   UNL     1      84.621  68.385  73.821  1.00  0.00    -0.025 A 
ATOM      9  C   UNL     1      85.204  70.616  72.967  1.00  0.00     0.160 A 
ATOM     10  C   UNL     1      84.773  70.237  71.677  1.00  0.00     0.157 A 
ATOM     11  C   UNL     1      85.108  69.695  74.031  1.00  0.00     0.056 A 
ATOM     12  C   UNL     1      84.250  68.949  71.464  1.00  0.00     0.050 A 
ATOM     13  C   UNL     1      84.184  68.025  72.525  1.00  0.00     0.009 A 
BRANCH   9  14
ATOM     14  O   UNL     1      85.677  71.880  73.193  1.00  0.00    -0.493 OA
ATOM     15  C   UNL     1      86.830  71.922  74.055  1.00  0.00     0.278 C 
ENDBRANCH   9  14
BRANCH  10  16
ATOM     16  O   UNL     1      84.852  71.104  70.633  1.00  0.00    -0.504 OA
ATOM     17  H   UNL     1      85.319  71.896  70.911  1.00  0.00     0.293 HD
ENDBRANCH  10  16
ENDBRANCH   7   8
ENDBRANCH   4   7
ENDBRANCH   2   3
ENDBRANCH   1   2
BRANCH   1  18
ATOM     18  C   UNL     1      80.366  65.246  73.557  1.00  0.00     0.001 C 
BRANCH  18  19
ATOM     19  C   UNL     1      81.008  66.032  72.379  1.00  0.00     0.000 C 
BRANCH  19  20
ATOM     20  C   UNL     1      82.096  65.190  71.655  1.00  0.00     0.000 C 
BRANCH  20  21
ATOM     21  C   UNL     1      82.428  65.679  70.217  1.00  0.00     0.003 C 
BRANCH  21  22
ATOM     22  C   UNL     1      81.216  66.292  69.443  1.00  0.00    -0.017 C 
ATOM     23  C   UNL     1      80.361  65.168  68.792  1.00  0.00     0.007 C 
ATOM     24  C   UNL     1      81.626  67.351  68.377  1.00  0.00     0.007 C 
ENDBRANCH  21  22
ENDBRANCH  20  21
ENDBRANCH  19  20
ENDBRANCH  18  19
ENDBRANCH   1  18
TORSDOF 11
ENDMDL
MODEL 5
REMARK VINA RESULT:    -5.629     17.909     21.568
REMARK INTER + INTRA:          -9.746
REMARK INTER:                  -9.309
REMARK INTRA:                  -0.436
REMARK UNBOUND:                -0.662
REMARK SMILES COc1cc(CNC(=O)CCCCCCC(C)C)ccc1O
REMARK SMILES IDX 11 1 10 2 8 3 7 4 9 6 6 7 5 8 3 9 21 10 4 11 20 12 19 13
REMARK SMILES IDX 2 14 1 15 22 16 12 18 13 19 14 20 15 21 16 22 17 23 18 24
REMARK H PARENT 7 5 22 17
REMARK Flexibility Score: inf
ROOT
ATOM      1  C   UNL     1      97.114  81.670  82.676  1.00  0.00     0.010 C 
ENDROOT
BRANCH   1   2
ATOM      2  C   UNL     1      96.127  80.610  83.239  1.00  0.00     0.100 C 
BRANCH   2   3
ATOM      3  C   UNL     1      94.978  81.205  83.958  1.00  0.00     0.220 C 
ATOM      4  N   UNL     1      93.922  80.426  84.332  1.00  0.00    -0.352 N 
ATOM      5  H   UNL     1      93.985  79.462  84.041  1.00  0.00     0.163 HD
ATOM      6  O   UNL     1      95.009  82.429  84.234  1.00  0.00    -0.275 OA
BRANCH   4   7
ATOM      7  C   UNL     1      92.787  80.877  85.079  1.00  0.00     0.151 C 
BRANCH   7   8
ATOM      8  C   UNL     1      91.556  80.084  84.811  1.00  0.00    -0.025 A 
ATOM      9  C   UNL     1      89.157  79.990  84.276  1.00  0.00     0.160 A 
ATOM     10  C   UNL     1      89.214  78.580  84.257  1.00  0.00     0.157 A 
ATOM     11  C   UNL     1      90.322  80.730  84.571  1.00  0.00     0.056 A 
ATOM     12  C   UNL     1      90.428  77.924  84.534  1.00  0.00     0.050 A 
ATOM     13  C   UNL     1      91.593  78.670  84.798  1.00  0.00     0.009 A 
BRANCH   9  14
ATOM     14  O   UNL     1      87.973  80.637  84.048  1.00  0.00    -0.493 OA
ATOM     15  C   UNL     1      87.239  80.944  85.247  1.00  0.00     0.278 C 
ENDBRANCH   9  14
BRANCH  10  16
ATOM     16  O   UNL     1      88.108  77.842  83.978  1.00  0.00    -0.504 OA
ATOM     17  H   UNL     1      87.684  77.579  84.798  1.00  0.00     0.293 HD
ENDBRANCH  10  16
ENDBRANCH   7   8
ENDBRANCH   4   7
ENDBRANCH   2   3
ENDBRANCH   1   2
BRANCH   1  18
ATOM     18  C   UNL     1      96.673  82.201  81.283  1.00  0.00     0.001 C 
BRANCH  18  19
ATOM     19  C   UNL     1      97.420  81.536  80.093  1.00  0.00     0.000 C 
BRANCH  19  20
ATOM     20  C   UNL     1      96.960  82.123  78.729  1.00  0.00     0.000 C 
BRANCH  20  21
ATOM     21  C   UNL     1      96.757  81.059  77.614  1.00  0.00     0.003 C 
BRANCH  21  22
ATOM     22  C   UNL     1      97.085  81.561  76.170  1.00  0.00    -0.017 C 
ATOM     23  C   UNL     1      98.611  81.815  76.016  1.00  0.00     0.007 C 
ATOM     24  C   UNL     1      96.277  82.823  75.747  1.00  0.00     0.007 C 
ENDBRANCH  21  22
ENDBRANCH  20  21
ENDBRANCH  19  20
ENDBRANCH  18  19
ENDBRANCH   1  18
TORSDOF 11
ENDMDL
MODEL 6
REMARK VINA RESULT:    -5.519     20.131     22.060
REMARK INTER + INTRA:          -9.569
REMARK INTER:                  -8.210
REMARK INTRA:                  -1.359
REMARK UNBOUND:                -0.662
REMARK SMILES COc1cc(CNC(=O)CCCCCCC(C)C)ccc1O
REMARK SMILES IDX 11 1 10 2 8 3 7 4 9 6 6 7 5 8 3 9 21 10 4 11 20 12 19 13
REMARK SMILES IDX 2 14 1 15 22 16 12 18 13 19 14 20 15 21 16 22 17 23 18 24
REMARK H PARENT 7 5 22 17
REMARK Flexibility Score: inf
ROOT
ATOM      1  C   UNL     1      92.011  83.967  89.634  1.00  0.00     0.010 C 
ENDROOT
BRANCH   1   2
ATOM      2  C   UNL     1      91.056  83.743  88.429  1.00  0.00     0.100 C 
BRANCH   2   3
ATOM      3  C   UNL     1      91.509  82.669  87.516  1.00  0.00     0.220 C 
ATOM      4  N   UNL     1      91.389  82.818  86.165  1.00  0.00    -0.352 N 
ATOM      5  H   UNL     1      90.940  83.673  85.873  1.00  0.00     0.163 HD
ATOM      6  O   UNL     1      92.024  81.637  88.010  1.00  0.00    -0.275 OA
BRANCH   4   7
ATOM      7  C   UNL     1      91.842  81.876  85.187  1.00  0.00     0.151 C 
BRANCH   7   8
ATOM      8  C   UNL     1      90.838  80.821  84.879  1.00  0.00    -0.025 A 
ATOM      9  C   UNL     1      88.548  80.178  84.254  1.00  0.00     0.160 A 
ATOM     10  C   UNL     1      88.929  78.818  84.247  1.00  0.00     0.157 A 
ATOM     11  C   UNL     1      89.499  81.165  84.587  1.00  0.00     0.056 A 
ATOM     12  C   UNL     1      90.249  78.460  84.574  1.00  0.00     0.050 A 
ATOM     13  C   UNL     1      91.201  79.453  84.877  1.00  0.00     0.009 A 
BRANCH   9  14
ATOM     14  O   UNL     1      87.257  80.535  83.976  1.00  0.00    -0.493 OA
ATOM     15  C   UNL     1      86.597  81.215  85.060  1.00  0.00     0.278 C 
ENDBRANCH   9  14
BRANCH  10  16
ATOM     16  O   UNL     1      88.034  77.846  83.931  1.00  0.00    -0.504 OA
ATOM     17  H   UNL     1      87.683  77.461  84.738  1.00  0.00     0.293 HD
ENDBRANCH  10  16
ENDBRANCH   7   8
ENDBRANCH   4   7
ENDBRANCH   2   3
ENDBRANCH   1   2
BRANCH   1  18
ATOM     18  C   UNL     1      92.379  85.467  89.820  1.00  0.00     0.001 C 
BRANCH  18  19
ATOM     19  C   UNL     1      93.901  85.719  90.017  1.00  0.00     0.000 C 
BRANCH  19  20
ATOM     20  C   UNL     1      94.529  86.420  88.780  1.00  0.00     0.000 C 
BRANCH  20  21
ATOM     21  C   UNL     1      95.451  85.504  87.928  1.00  0.00     0.003 C 
BRANCH  21  22
ATOM     22  C   UNL     1      94.692  84.472  87.031  1.00  0.00    -0.017 C 
ATOM     23  C   UNL     1      95.217  83.032  87.296  1.00  0.00     0.007 C 
ATOM     24  C   UNL     1      94.751  84.802  85.511  1.00  0.00     0.007 C 
ENDBRANCH  21  22
ENDBRANCH  20  21
ENDBRANCH  19  20
ENDBRANCH  18  19
ENDBRANCH   1  18
TORSDOF 11
ENDMDL
MODEL 7
REMARK VINA RESULT:    -5.465     16.467     19.652
REMARK INTER + INTRA:          -9.481
REMARK INTER:                  -8.560
REMARK INTRA:                  -0.921
REMARK UNBOUND:                -0.662
REMARK SMILES COc1cc(CNC(=O)CCCCCCC(C)C)ccc1O
REMARK SMILES IDX 11 1 10 2 8 3 7 4 9 6 6 7 5 8 3 9 21 10 4 11 20 12 19 13
REMARK SMILES IDX 2 14 1 15 22 16 12 18 13 19 14 20 15 21 16 22 17 23 18 24
REMARK H PARENT 7 5 22 17
REMARK Flexibility Score: inf
ROOT
ATOM      1  C   UNL     1      98.915  83.021  74.329  1.00  0.00     0.010 C 
ENDROOT
BRANCH   1   2
ATOM      2  C   UNL     1      97.379  82.969  74.104  1.00  0.00     0.100 C 
BRANCH   2   3
ATOM      3  C   UNL     1      96.598  83.147  75.349  1.00  0.00     0.220 C 
ATOM      4  N   UNL     1      96.917  82.436  76.470  1.00  0.00    -0.352 N 
ATOM      5  H   UNL     1      97.672  81.777  76.350  1.00  0.00     0.163 HD
ATOM      6  O   UNL     1      95.659  83.980  75.357  1.00  0.00    -0.275 OA
BRANCH   4   7
ATOM      7  C   UNL     1      96.273  82.567  77.741  1.00  0.00     0.151 C 
BRANCH   7   8
ATOM      8  C   UNL     1      97.003  81.879  78.842  1.00  0.00    -0.025 A 
ATOM      9  C   UNL     1      97.388  81.522  81.244  1.00  0.00     0.160 A 
ATOM     10  C   UNL     1      98.359  80.541  80.945  1.00  0.00     0.157 A 
ATOM     11  C   UNL     1      96.732  82.195  80.192  1.00  0.00     0.056 A 
ATOM     12  C   UNL     1      98.665  80.245  79.605  1.00  0.00     0.050 A 
ATOM     13  C   UNL     1      97.986  80.901  78.559  1.00  0.00     0.009 A 
BRANCH   9  14
ATOM     14  O   UNL     1      97.111  81.845  82.545  1.00  0.00    -0.493 OA
ATOM     15  C   UNL     1      96.531  83.152  82.706  1.00  0.00     0.278 C 
ENDBRANCH   9  14
BRANCH  10  16
ATOM     16  O   UNL     1      99.007  79.877  81.938  1.00  0.00    -0.504 OA
ATOM     17  H   UNL     1      99.945  79.835  81.734  1.00  0.00     0.293 HD
ENDBRANCH  10  16
ENDBRANCH   7   8
ENDBRANCH   4   7
ENDBRANCH   2   3
ENDBRANCH   1   2
BRANCH   1  18
ATOM     18  C   UNL     1      99.669  83.602  73.100  1.00  0.00     0.001 C 
BRANCH  18  19
ATOM     19  C   UNL     1     101.104  84.105  73.425  1.00  0.00     0.000 C 
BRANCH  19  20
ATOM     20  C   UNL     1     102.188  83.152  72.849  1.00  0.00     0.000 C 
BRANCH  20  21
ATOM     21  C   UNL     1     101.717  81.681  72.676  1.00  0.00     0.003 C 
BRANCH  21  22
ATOM     22  C   UNL     1     102.391  80.663  73.653  1.00  0.00    -0.017 C 
ATOM     23  C   UNL     1     101.686  80.690  75.038  1.00  0.00     0.007 C 
ATOM     24  C   UNL     1     103.925  80.877  73.819  1.00  0.00     0.007 C 
ENDBRANCH  21  22
ENDBRANCH  20  21
ENDBRANCH  19  20
ENDBRANCH  18  19
ENDBRANCH   1  18
TORSDOF 11
ENDMDL
MODEL 8
REMARK VINA RESULT:    -5.394     16.881     20.002
REMARK INTER + INTRA:          -9.366
REMARK INTER:                  -7.164
REMARK INTRA:                  -2.202
REMARK UNBOUND:                -0.662
REMARK SMILES COc1cc(CNC(=O)CCCCCCC(C)C)ccc1O
REMARK SMILES IDX 11 1 10 2 8 3 7 4 9 6 6 7 5 8 3 9 21 10 4 11 20 12 19 13
REMARK SMILES IDX 2 14 1 15 22 16 12 18 13 19 14 20 15 21 16 22 17 23 18 24
REMARK H PARENT 7 5 22 17
REMARK Flexibility Score: inf
ROOT
ATOM      1  C   UNL     1      96.298  83.504  76.187  1.00  0.00     0.010 C 
ENDROOT
BRANCH   1   2
ATOM      2  C   UNL     1      95.865  82.419  77.212  1.00  0.00     0.100 C 
BRANCH   2   3
ATOM      3  C   UNL     1      97.008  81.716  77.837  1.00  0.00     0.220 C 
ATOM      4  N   UNL     1      97.205  80.384  77.613  1.00  0.00    -0.352 N 
ATOM      5  H   UNL     1      96.497  79.944  77.043  1.00  0.00     0.163 HD
ATOM      6  O   UNL     1      97.801  82.375  78.553  1.00  0.00    -0.275 OA
BRANCH   4   7
ATOM      7  C   UNL     1      98.303  79.615  78.115  1.00  0.00     0.151 C 
BRANCH   7   8
ATOM      8  C   UNL     1      99.388  79.420  77.115  1.00  0.00    -0.025 A 
ATOM      9  C   UNL     1     100.138  78.610  74.918  1.00  0.00     0.160 A 
ATOM     10  C   UNL     1     101.441  79.083  75.186  1.00  0.00     0.157 A 
ATOM     11  C   UNL     1      99.128  78.765  75.890  1.00  0.00     0.056 A 
ATOM     12  C   UNL     1     101.722  79.702  76.417  1.00  0.00     0.050 A 
ATOM     13  C   UNL     1     100.701  79.880  77.372  1.00  0.00     0.009 A 
BRANCH   9  14
ATOM     14  O   UNL     1      99.864  77.971  73.739  1.00  0.00    -0.493 OA
ATOM     15  C   UNL     1      98.719  78.499  73.046  1.00  0.00     0.278 C 
ENDBRANCH   9  14
BRANCH  10  16
ATOM     16  O   UNL     1     102.434  78.946  74.268  1.00  0.00    -0.504 OA
ATOM     17  H   UNL     1     102.320  78.119  73.794  1.00  0.00     0.293 HD
ENDBRANCH  10  16
ENDBRANCH   7   8
ENDBRANCH   4   7
ENDBRANCH   2   3
ENDBRANCH   1   2
BRANCH   1  18
ATOM     18  C   UNL     1      96.066  83.049  74.718  1.00  0.00     0.001 C 
BRANCH  18  19
ATOM     19  C   UNL     1      97.360  83.030  73.856  1.00  0.00     0.000 C 
BRANCH  19  20
ATOM     20  C   UNL     1      98.335  81.908  74.313  1.00  0.00     0.000 C 
BRANCH  20  21
ATOM     21  C   UNL     1      99.635  82.429  74.986  1.00  0.00     0.003 C 
BRANCH  21  22
ATOM     22  C   UNL     1     100.850  82.592  74.015  1.00  0.00    -0.017 C 
ATOM     23  C   UNL     1     101.073  84.092  73.671  1.00  0.00     0.007 C 
ATOM     24  C   UNL     1     100.728  81.746  72.714  1.00  0.00     0.007 C 
ENDBRANCH  21  22
ENDBRANCH  20  21
ENDBRANCH  19  20
ENDBRANCH  18  19
ENDBRANCH   1  18
TORSDOF 11
ENDMDL
MODEL 9
REMARK VINA RESULT:    -5.260      1.164      2.110
REMARK INTER + INTRA:          -9.150
REMARK INTER:                  -8.545
REMARK INTRA:                  -0.605
REMARK UNBOUND:                -0.662
REMARK SMILES COc1cc(CNC(=O)CCCCCCC(C)C)ccc1O
REMARK SMILES IDX 11 1 10 2 8 3 7 4 9 6 6 7 5 8 3 9 21 10 4 11 20 12 19 13
REMARK SMILES IDX 2 14 1 15 22 16 12 18 13 19 14 20 15 21 16 22 17 23 18 24
REMARK H PARENT 7 5 22 17
REMARK Flexibility Score: inf
ROOT
ATOM      1  C   UNL     1      94.789  98.126  73.701  1.00  0.00     0.010 C 
ENDROOT
BRANCH   1   2
ATOM      2  C   UNL     1      93.433  98.884  73.684  1.00  0.00     0.100 C 
BRANCH   2   3
ATOM      3  C   UNL     1      93.448 100.089  72.825  1.00  0.00     0.220 C 
ATOM      4  N   UNL     1      92.574 100.204  71.783  1.00  0.00    -0.352 N 
ATOM      5  H   UNL     1      91.980  99.400  71.641  1.00  0.00     0.163 HD
ATOM      6  O   UNL     1      94.261 101.008  73.092  1.00  0.00    -0.275 OA
BRANCH   4   7
ATOM      7  C   UNL     1      92.457 101.344  70.925  1.00  0.00     0.151 C 
BRANCH   7   8
ATOM      8  C   UNL     1      91.719 101.055  69.664  1.00  0.00    -0.025 A 
ATOM      9  C   UNL     1      90.571  99.460  68.186  1.00  0.00     0.160 A 
ATOM     10  C   UNL     1      90.273 100.505  67.285  1.00  0.00     0.157 A 
ATOM     11  C   UNL     1      91.307  99.739  69.357  1.00  0.00     0.056 A 
ATOM     12  C   UNL     1      90.712 101.813  67.561  1.00  0.00     0.050 A 
ATOM     13  C   UNL     1      91.421 102.090  68.746  1.00  0.00     0.009 A 
BRANCH   9  14
ATOM     14  O   UNL     1      90.184  98.177  67.908  1.00  0.00    -0.493 OA
ATOM     15  C   UNL     1      89.788  97.426  69.071  1.00  0.00     0.278 C 
ENDBRANCH   9  14
BRANCH  10  16
ATOM     16  O   UNL     1      89.568 100.266  66.149  1.00  0.00    -0.504 OA
ATOM     17  H   UNL     1      89.943 100.775  65.426  1.00  0.00     0.293 HD
ENDBRANCH  10  16
ENDBRANCH   7   8
ENDBRANCH   4   7
ENDBRANCH   2   3
ENDBRANCH   1   2
BRANCH   1  18
ATOM     18  C   UNL     1      94.627  96.641  74.135  1.00  0.00     0.001 C 
BRANCH  18  19
ATOM     19  C   UNL     1      93.367  96.378  75.008  1.00  0.00     0.000 C 
BRANCH  19  20
ATOM     20  C   UNL     1      93.515  95.080  75.850  1.00  0.00     0.000 C 
BRANCH  20  21
ATOM     21  C   UNL     1      92.949  95.188  77.293  1.00  0.00     0.003 C 
BRANCH  21  22
ATOM     22  C   UNL     1      91.649  94.356  77.545  1.00  0.00    -0.017 C 
ATOM     23  C   UNL     1      91.867  92.871  77.141  1.00  0.00     0.007 C 
ATOM     24  C   UNL     1      90.389  94.935  76.836  1.00  0.00     0.007 C 
ENDBRANCH  21  22
ENDBRANCH  20  21
ENDBRANCH  19  20
ENDBRANCH  18  19
ENDBRANCH   1  18
TORSDOF 11
ENDMDL
MODEL 10
REMARK VINA RESULT:    -5.168     17.129     20.198
REMARK INTER + INTRA:          -9.002
REMARK INTER:                  -8.403
REMARK INTRA:                  -0.599
REMARK UNBOUND:                -0.662
REMARK SMILES COc1cc(CNC(=O)CCCCCCC(C)C)ccc1O
REMARK SMILES IDX 11 1 10 2 8 3 7 4 9 6 6 7 5 8 3 9 21 10 4 11 20 12 19 13
REMARK SMILES IDX 2 14 1 15 22 16 12 18 13 19 14 20 15 21 16 22 17 23 18 24
REMARK H PARENT 7 5 22 17
REMARK Flexibility Score: inf
ROOT
ATOM      1  C   UNL     1      97.387  81.110  75.414  1.00  0.00     0.010 C 
ENDROOT
BRANCH   1   2
ATOM      2  C   UNL     1      96.598  80.933  76.741  1.00  0.00     0.100 C 
BRANCH   2   3
ATOM      3  C   UNL     1      97.260  81.566  77.904  1.00  0.00     0.220 C 
ATOM      4  N   UNL     1      96.900  81.221  79.174  1.00  0.00    -0.352 N 
ATOM      5  H   UNL     1      96.141  80.557  79.231  1.00  0.00     0.163 HD
ATOM      6  O   UNL     1      98.171  82.404  77.695  1.00  0.00    -0.275 OA
BRANCH   4   7
ATOM      7  C   UNL     1      97.507  81.722  80.370  1.00  0.00     0.151 C 
BRANCH   7   8
ATOM      8  C   UNL     1      96.790  81.311  81.608  1.00  0.00    -0.025 A 
ATOM      9  C   UNL     1      95.528  81.904  83.634  1.00  0.00     0.160 A 
ATOM     10  C   UNL     1      95.384  80.535  83.948  1.00  0.00     0.157 A 
ATOM     11  C   UNL     1      96.244  82.281  82.479  1.00  0.00     0.056 A 
ATOM     12  C   UNL     1      95.956  79.560  83.110  1.00  0.00     0.050 A 
ATOM     13  C   UNL     1      96.645  79.944  81.942  1.00  0.00     0.009 A 
BRANCH   9  14
ATOM     14  O   UNL     1      95.009  82.861  84.463  1.00  0.00    -0.493 OA
ATOM     15  C   UNL     1      95.556  84.174  84.247  1.00  0.00     0.278 C 
ENDBRANCH   9  14
BRANCH  10  16
ATOM     16  O   UNL     1      94.700  80.142  85.055  1.00  0.00    -0.504 OA
ATOM     17  H   UNL     1      93.865  79.749  84.791  1.00  0.00     0.293 HD
ENDBRANCH  10  16
ENDBRANCH   7   8
ENDBRANCH   4   7
ENDBRANCH   2   3
ENDBRANCH   1   2
BRANCH   1  18
ATOM     18  C   UNL     1      96.712  82.139  74.463  1.00  0.00     0.001 C 
BRANCH  18  19
ATOM     19  C   UNL     1      97.711  83.126  73.797  1.00  0.00     0.000 C 
BRANCH  19  20
ATOM     20  C   UNL     1      99.084  82.450  73.521  1.00  0.00     0.000 C 
BRANCH  20  21
ATOM     21  C   UNL     1     100.307  83.257  74.040  1.00  0.00     0.003 C 
BRANCH  21  22
ATOM     22  C   UNL     1     100.956  84.206  72.979  1.00  0.00    -0.017 C 
ATOM     23  C   UNL     1     100.459  83.846  71.551  1.00  0.00     0.007 C 
ATOM     24  C   UNL     1     102.513  84.223  73.026  1.00  0.00     0.007 C 
ENDBRANCH  21  22
ENDBRANCH  20  21
ENDBRANCH  19  20
ENDBRANCH  18  19
ENDBRANCH   1  18
TORSDOF 11
ENDMDL
