MODEL 1
REMARK VINA RESULT:    -8.100      0.000      0.000
REMARK INTER + INTRA:         -12.946
REMARK INTER:                 -13.782
REMARK INTRA:                   0.837
REMARK UNBOUND:                 0.837
REMARK SMILES C=C(C)[C@]12C[C@@H](C)[C@@]34O[C@](Cc5ccccc5)(O[C@@H]1[C@@H]3C=C(COC(=O)Cc1ccc(O)cc1)C[C@]1(O)C(=O)C(C)=C[C@@H]41)O2
REMARK SMILES IDX 23 1 22 2 21 3 20 4 9 5 8 6 10 7 6 8 18 10 44 11 19 12 5 13
REMARK SMILES IDX 7 14 4 15 11 16 12 17 13 18 17 19 14 20 16 21 15 22 2 23
REMARK SMILES IDX 3 24 1 25 35 26 36 27 43 28 38 29 42 30 39 32 40 33 41 34
REMARK SMILES IDX 37 35 24 37 25 38 26 39 27 40 28 41 29 42 34 43 30 44 33 45
REMARK SMILES IDX 31 46 32 47
REMARK H PARENT 37 36 32 48
REMARK Flexibility Score: 90.00
ROOT
ATOM      1  C   UNL     1      94.671  96.890  74.397  1.00  0.00     0.264 C 
ENDROOT
BRANCH   1   2
ATOM      2  C   UNL     1      94.758  97.616  73.074  1.00  0.00    -0.033 C 
ATOM      3  C   UNL     1      93.704  98.346  72.652  1.00  0.00    -0.015 C 
BRANCH   3   4
ATOM      4  C   UNL     1      93.513  99.098  71.345  1.00  0.00     0.078 C 
ATOM      5  O   UNL     1      94.283 101.417  71.728  1.00  0.00    -0.319 OA
ATOM      6  C   UNL     1      94.561 100.206  70.958  1.00  0.00     0.095 CG0
ATOM      7  C   UNL     1      92.891 101.770  71.837  1.00  0.00     0.289 C 
ATOM      8  C   UNL     1      94.384 100.515  69.414  1.00  0.00     0.023 C 
ATOM      9  G   UNL     1      95.995  99.788  71.396  1.00  0.00     0.000 G0
ATOM     10  O   UNL     1      92.133 100.714  72.420  1.00  0.00    -0.320 OA
ATOM     11  O   UNL     1      92.293 102.018  70.567  1.00  0.00    -0.313 OA
ATOM     12  C   UNL     1      92.123  99.780  71.329  1.00  0.00     0.170 C 
ATOM     13  C   UNL     1      92.898 100.364  68.967  1.00  0.00     0.049 C 
ATOM     14  C   UNL     1      94.922 101.878  68.947  1.00  0.00     0.011 C 
ATOM     15  C   UNL     1      91.929 100.702  70.101  1.00  0.00     0.122 C 
BRANCH   7  16
ATOM     16  C   UNL     1      92.783 103.014  72.697  1.00  0.00     0.135 C 
BRANCH  16  17
ATOM     17  C   UNL     1      91.440 103.120  73.374  1.00  0.00    -0.040 A 
ATOM     18  C   UNL     1      90.740 101.965  73.721  1.00  0.00     0.004 A 
ATOM     19  C   UNL     1      90.898 104.374  73.654  1.00  0.00     0.004 A 
ATOM     20  C   UNL     1      89.498 102.063  74.349  1.00  0.00     0.000 A 
ATOM     21  C   UNL     1      89.655 104.472  74.281  1.00  0.00     0.000 A 
ATOM     22  C   UNL     1      88.956 103.317  74.628  1.00  0.00     0.000 A 
ENDBRANCH  16  17
ENDBRANCH   7  16
BRANCH  15  23
ATOM     23  C   UNL     1      90.506 100.741  69.647  1.00  0.00    -0.046 C 
ATOM     24  C   UNL     1      89.482 100.270  70.637  1.00  0.00     0.042 C 
ATOM     25  C   UNL     1      90.163 101.172  68.424  1.00  0.00     0.010 C 
ENDBRANCH  15  23
ENDBRANCH   3   4
BRANCH   2  26
ATOM     26  C   UNL     1      96.089  97.419  72.373  1.00  0.00     0.078 C 
BRANCH  26  27
ATOM     27  C   UNL     1      96.362  98.278  71.140  1.00  0.00     0.140 C 
ATOM     28  C   UNL     1      96.007  99.762  71.371  1.00  0.00     0.086 CG0
ATOM     29  C   UNL     1      97.834  98.346  70.795  1.00  0.00     0.190 C 
ATOM     30  C   UNL     1      97.195 100.496  70.816  1.00  0.00    -0.010 C 
ATOM     31  G   UNL     1      94.574 100.197  70.949  1.00  0.00     0.000 G0
ATOM     32  O   UNL     1      98.587  97.387  70.710  1.00  0.00    -0.291 OA
ATOM     33  C   UNL     1      98.248  99.733  70.509  1.00  0.00    -0.008 C 
ATOM     34  C   UNL     1      99.591 100.114  70.026  1.00  0.00     0.048 C 
BRANCH  27  35
ATOM     35  O   UNL     1      95.768  97.722  69.979  1.00  0.00    -0.381 OA
ATOM     36  H   UNL     1      94.957  97.254  70.243  1.00  0.00     0.212 HD
ENDBRANCH  27  35
ENDBRANCH  26  27
ENDBRANCH   2  26
ENDBRANCH   1   2
BRANCH   1  37
ATOM     37  O   UNL     1      93.726  95.846  74.294  1.00  0.00    -0.461 OA
BRANCH  37  38
ATOM     38  C   UNL     1      93.348  95.251  75.476  1.00  0.00     0.310 C 
ATOM     39  O   UNL     1      94.095  94.637  76.224  1.00  0.00    -0.252 OA
BRANCH  38  40
ATOM     40  C   UNL     1      91.872  95.474  75.702  1.00  0.00     0.158 C 
BRANCH  40  41
ATOM     41  C   UNL     1      91.069  94.201  75.645  1.00  0.00    -0.037 A 
ATOM     42  C   UNL     1      90.643  93.591  76.826  1.00  0.00     0.008 A 
ATOM     43  C   UNL     1      90.752  93.630  74.413  1.00  0.00     0.008 A 
ATOM     44  C   UNL     1      89.900  92.411  76.773  1.00  0.00     0.046 A 
ATOM     45  C   UNL     1      90.009  92.450  74.360  1.00  0.00     0.046 A 
ATOM     46  C   UNL     1      89.584  91.841  75.540  1.00  0.00     0.115 A 
BRANCH  46  47
ATOM     47  O   UNL     1      88.860  90.690  75.489  1.00  0.00    -0.508 OA
ATOM     48  H   UNL     1      88.936  90.308  74.597  1.00  0.00     0.293 HD
ENDBRANCH  46  47
ENDBRANCH  40  41
ENDBRANCH  38  40
ENDBRANCH  37  38
ENDBRANCH   1  37
TORSDOF 10
ENDMDL
MODEL 2
REMARK VINA RESULT:    -7.947     18.303     22.885
REMARK INTER + INTRA:         -12.685
REMARK INTER:                 -12.397
REMARK INTRA:                  -0.288
REMARK UNBOUND:                 0.837
REMARK SMILES C=C(C)[C@]12C[C@@H](C)[C@@]34O[C@](Cc5ccccc5)(O[C@@H]1[C@@H]3C=C(COC(=O)Cc1ccc(O)cc1)C[C@]1(O)C(=O)C(C)=C[C@@H]41)O2
REMARK SMILES IDX 23 1 22 2 21 3 20 4 9 5 8 6 10 7 6 8 18 10 44 11 19 12 5 13
REMARK SMILES IDX 7 14 4 15 11 16 12 17 13 18 17 19 14 20 16 21 15 22 2 23
REMARK SMILES IDX 3 24 1 25 35 26 36 27 43 28 38 29 42 30 39 32 40 33 41 34
REMARK SMILES IDX 37 35 24 37 25 38 26 39 27 40 28 41 29 42 34 43 30 44 33 45
REMARK SMILES IDX 31 46 32 47
REMARK H PARENT 37 36 32 48
REMARK Flexibility Score: 90.00
ROOT
ATOM      1  C   UNL     1      93.448  87.130  89.319  1.00  0.00     0.264 C 
ENDROOT
BRANCH   1   2
ATOM      2  C   UNL     1      93.641  85.634  89.402  1.00  0.00    -0.033 C 
ATOM      3  C   UNL     1      93.714  84.915  88.263  1.00  0.00    -0.015 C 
BRANCH   3   4
ATOM      4  C   UNL     1      93.827  83.410  88.077  1.00  0.00     0.078 C 
ATOM      5  O   UNL     1      96.239  82.879  87.949  1.00  0.00    -0.319 OA
ATOM      6  C   UNL     1      95.036  82.661  88.750  1.00  0.00     0.095 CG0
ATOM      7  C   UNL     1      96.055  82.782  86.523  1.00  0.00     0.289 C 
ATOM      8  C   UNL     1      94.692  81.115  88.769  1.00  0.00     0.023 C 
ATOM      9  G   UNL     1      95.373  83.288  90.134  1.00  0.00     0.000 G0
ATOM     10  O   UNL     1      95.069  83.703  86.065  1.00  0.00    -0.320 OA
ATOM     11  O   UNL     1      95.596  81.494  86.122  1.00  0.00    -0.313 OA
ATOM     12  C   UNL     1      93.881  83.069  86.567  1.00  0.00     0.170 C 
ATOM     13  C   UNL     1      93.845  80.702  87.526  1.00  0.00     0.049 C 
ATOM     14  C   UNL     1      95.899  80.170  88.899  1.00  0.00     0.011 C 
ATOM     15  C   UNL     1      94.167  81.570  86.308  1.00  0.00     0.122 C 
BRANCH   7  16
ATOM     16  C   UNL     1      97.382  83.077  85.853  1.00  0.00     0.135 C 
BRANCH  16  17
ATOM     17  C   UNL     1      97.309  82.911  84.355  1.00  0.00    -0.040 A 
ATOM     18  C   UNL     1      96.564  83.807  83.590  1.00  0.00     0.004 A 
ATOM     19  C   UNL     1      97.987  81.861  83.737  1.00  0.00     0.004 A 
ATOM     20  C   UNL     1      96.497  83.654  82.204  1.00  0.00     0.000 A 
ATOM     21  C   UNL     1      97.920  81.707  82.352  1.00  0.00     0.000 A 
ATOM     22  C   UNL     1      97.175  82.603  81.586  1.00  0.00     0.000 A 
ENDBRANCH  16  17
ENDBRANCH   7  16
BRANCH  15  23
ATOM     23  C   UNL     1      93.504  81.079  85.063  1.00  0.00    -0.046 C 
ATOM     24  C   UNL     1      93.773  79.651  84.688  1.00  0.00     0.042 C 
ATOM     25  C   UNL     1      92.714  81.869  84.321  1.00  0.00     0.010 C 
ENDBRANCH  15  23
ENDBRANCH   3   4
BRANCH   2  26
ATOM     26  C   UNL     1      93.737  85.123  90.828  1.00  0.00     0.078 C 
BRANCH  26  27
ATOM     27  C   UNL     1      94.168  83.671  91.021  1.00  0.00     0.140 C 
ATOM     28  C   UNL     1      95.372  83.296  90.132  1.00  0.00     0.086 CG0
ATOM     29  C   UNL     1      94.698  83.404  92.414  1.00  0.00     0.190 C 
ATOM     30  C   UNL     1      96.288  82.564  91.073  1.00  0.00    -0.010 C 
ATOM     31  G   UNL     1      95.033  82.664  88.750  1.00  0.00     0.000 G0
ATOM     32  O   UNL     1      94.150  83.734  93.456  1.00  0.00    -0.291 OA
ATOM     33  C   UNL     1      95.953  82.630  92.365  1.00  0.00    -0.008 C 
ATOM     34  C   UNL     1      96.653  82.109  93.557  1.00  0.00     0.048 C 
BRANCH  27  35
ATOM     35  O   UNL     1      93.069  82.783  90.902  1.00  0.00    -0.381 OA
ATOM     36  H   UNL     1      92.884  82.405  91.778  1.00  0.00     0.212 HD
ENDBRANCH  27  35
ENDBRANCH  26  27
ENDBRANCH   2  26
ENDBRANCH   1   2
BRANCH   1  37
ATOM     37  O   UNL     1      93.591  87.691  90.607  1.00  0.00    -0.461 OA
BRANCH  37  38
ATOM     38  C   UNL     1      92.650  88.627  90.970  1.00  0.00     0.310 C 
ATOM     39  O   UNL     1      92.263  88.828  92.112  1.00  0.00    -0.252 OA
BRANCH  38  40
ATOM     40  C   UNL     1      92.174  89.365  89.741  1.00  0.00     0.158 C 
BRANCH  40  41
ATOM     41  C   UNL     1      92.818  90.718  89.582  1.00  0.00    -0.037 A 
ATOM     42  C   UNL     1      93.858  90.893  88.670  1.00  0.00     0.008 A 
ATOM     43  C   UNL     1      92.373  91.796  90.347  1.00  0.00     0.008 A 
ATOM     44  C   UNL     1      94.455  92.146  88.523  1.00  0.00     0.046 A 
ATOM     45  C   UNL     1      92.969  93.049  90.200  1.00  0.00     0.046 A 
ATOM     46  C   UNL     1      94.009  93.224  89.289  1.00  0.00     0.115 A 
BRANCH  46  47
ATOM     47  O   UNL     1      94.591  94.446  89.146  1.00  0.00    -0.508 OA
ATOM     48  H   UNL     1      94.202  95.059  89.794  1.00  0.00     0.293 HD
ENDBRANCH  46  47
ENDBRANCH  40  41
ENDBRANCH  38  40
ENDBRANCH  37  38
ENDBRANCH   1  37
TORSDOF 10
ENDMDL
MODEL 3
REMARK VINA RESULT:    -7.265      1.557      2.030
REMARK INTER + INTRA:         -11.526
REMARK INTER:                 -11.300
REMARK INTRA:                  -0.225
REMARK UNBOUND:                 0.837
REMARK SMILES C=C(C)[C@]12C[C@@H](C)[C@@]34O[C@](Cc5ccccc5)(O[C@@H]1[C@@H]3C=C(COC(=O)Cc1ccc(O)cc1)C[C@]1(O)C(=O)C(C)=C[C@@H]41)O2
REMARK SMILES IDX 23 1 22 2 21 3 20 4 9 5 8 6 10 7 6 8 18 10 44 11 19 12 5 13
REMARK SMILES IDX 7 14 4 15 11 16 12 17 13 18 17 19 14 20 16 21 15 22 2 23
REMARK SMILES IDX 3 24 1 25 35 26 36 27 43 28 38 29 42 30 39 32 40 33 41 34
REMARK SMILES IDX 37 35 24 37 25 38 26 39 27 40 28 41 29 42 34 43 30 44 33 45
REMARK SMILES IDX 31 46 32 47
REMARK H PARENT 37 36 32 48
REMARK Flexibility Score: 90.00
ROOT
ATOM      1  C   UNL     1      95.331  98.279  74.746  1.00  0.00     0.264 C 
ENDROOT
BRANCH   1   2
ATOM      2  C   UNL     1      95.095  98.557  73.279  1.00  0.00    -0.033 C 
ATOM      3  C   UNL     1      93.998  99.250  72.908  1.00  0.00    -0.015 C 
BRANCH   3   4
ATOM      4  C   UNL     1      93.499  99.591  71.513  1.00  0.00     0.078 C 
ATOM      5  O   UNL     1      94.405 101.822  70.949  1.00  0.00    -0.319 OA
ATOM      6  C   UNL     1      94.442 100.413  70.561  1.00  0.00     0.095 CG0
ATOM      7  C   UNL     1      93.098 102.338  71.265  1.00  0.00     0.289 C 
ATOM      8  C   UNL     1      93.885 100.262  69.086  1.00  0.00     0.023 C 
ATOM      9  G   UNL     1      95.929  99.996  70.759  1.00  0.00     0.000 G0
ATOM     10  O   UNL     1      92.486 101.593  72.313  1.00  0.00    -0.320 OA
ATOM     11  O   UNL     1      92.201 102.256  70.160  1.00  0.00    -0.313 OA
ATOM     12  C   UNL     1      92.170 100.381  71.609  1.00  0.00     0.170 C 
ATOM     13  C   UNL     1      92.330 100.144  69.071  1.00  0.00     0.049 C 
ATOM     14  C   UNL     1      94.322 101.357  68.098  1.00  0.00     0.011 C 
ATOM     15  C   UNL     1      91.693 100.908  70.234  1.00  0.00     0.122 C 
BRANCH   7  16
ATOM     16  C   UNL     1      93.248 103.787  71.686  1.00  0.00     0.135 C 
BRANCH  16  17
ATOM     17  C   UNL     1      93.330 103.936  73.185  1.00  0.00    -0.040 A 
ATOM     18  C   UNL     1      92.492 104.835  73.843  1.00  0.00     0.004 A 
ATOM     19  C   UNL     1      94.243 103.173  73.911  1.00  0.00     0.004 A 
ATOM     20  C   UNL     1      92.567 104.972  75.229  1.00  0.00     0.000 A 
ATOM     21  C   UNL     1      94.318 103.310  75.298  1.00  0.00     0.000 A 
ATOM     22  C   UNL     1      93.481 104.209  75.956  1.00  0.00     0.000 A 
ENDBRANCH  16  17
ENDBRANCH   7  16
BRANCH  15  23
ATOM     23  C   UNL     1      90.203 100.961  70.138  1.00  0.00    -0.046 C 
ATOM     24  C   UNL     1      89.639 101.343  68.802  1.00  0.00     0.042 C 
ATOM     25  C   UNL     1      89.415 100.682  71.187  1.00  0.00     0.010 C 
ENDBRANCH  15  23
ENDBRANCH   3   4
BRANCH   2  26
ATOM     26  C   UNL     1      96.183  97.996  72.384  1.00  0.00     0.078 C 
BRANCH  26  27
ATOM     27  C   UNL     1      96.202  98.465  70.931  1.00  0.00     0.140 C 
ATOM     28  C   UNL     1      95.935  99.979  70.802  1.00  0.00     0.086 CG0
ATOM     29  C   UNL     1      97.568  98.322  70.292  1.00  0.00     0.190 C 
ATOM     30  C   UNL     1      96.990 100.441  69.837  1.00  0.00    -0.010 C 
ATOM     31  G   UNL     1      94.453 100.397  70.571  1.00  0.00     0.000 G0
ATOM     32  O   UNL     1      98.265  97.319  70.331  1.00  0.00    -0.291 OA
ATOM     33  C   UNL     1      97.938  99.542  69.552  1.00  0.00    -0.008 C 
ATOM     34  C   UNL     1      99.153  99.672  68.722  1.00  0.00     0.048 C 
BRANCH  27  35
ATOM     35  O   UNL     1      95.362  97.665  70.116  1.00  0.00    -0.381 OA
ATOM     36  H   UNL     1      94.472  98.057  70.115  1.00  0.00     0.212 HD
ENDBRANCH  27  35
ENDBRANCH  26  27
ENDBRANCH   2  26
ENDBRANCH   1   2
BRANCH   1  37
ATOM     37  O   UNL     1      94.089  98.089  75.390  1.00  0.00    -0.461 OA
BRANCH  37  38
ATOM     38  C   UNL     1      94.083  97.213  76.452  1.00  0.00     0.310 C 
ATOM     39  O   UNL     1      94.088  97.538  77.631  1.00  0.00    -0.252 OA
BRANCH  38  40
ATOM     40  C   UNL     1      94.069  95.795  75.934  1.00  0.00     0.158 C 
BRANCH  40  41
ATOM     41  C   UNL     1      92.780  95.074  76.230  1.00  0.00    -0.037 A 
ATOM     42  C   UNL     1      92.436  94.772  77.548  1.00  0.00     0.008 A 
ATOM     43  C   UNL     1      91.930  94.707  75.188  1.00  0.00     0.008 A 
ATOM     44  C   UNL     1      91.243  94.104  77.823  1.00  0.00     0.046 A 
ATOM     45  C   UNL     1      90.736  94.039  75.461  1.00  0.00     0.046 A 
ATOM     46  C   UNL     1      90.393  93.737  76.778  1.00  0.00     0.115 A 
BRANCH  46  47
ATOM     47  O   UNL     1      89.229  93.085  77.046  1.00  0.00    -0.508 OA
ATOM     48  H   UNL     1      88.673  93.650  77.611  1.00  0.00     0.293 HD
ENDBRANCH  46  47
ENDBRANCH  40  41
ENDBRANCH  38  40
ENDBRANCH  37  38
ENDBRANCH   1  37
TORSDOF 10
ENDMDL
MODEL 4
REMARK VINA RESULT:    -7.255     12.024     15.471
REMARK INTER + INTRA:         -11.508
REMARK INTER:                 -10.543
REMARK INTRA:                  -0.965
REMARK UNBOUND:                 0.837
REMARK SMILES C=C(C)[C@]12C[C@@H](C)[C@@]34O[C@](Cc5ccccc5)(O[C@@H]1[C@@H]3C=C(COC(=O)Cc1ccc(O)cc1)C[C@]1(O)C(=O)C(C)=C[C@@H]41)O2
REMARK SMILES IDX 23 1 22 2 21 3 20 4 9 5 8 6 10 7 6 8 18 10 44 11 19 12 5 13
REMARK SMILES IDX 7 14 4 15 11 16 12 17 13 18 17 19 14 20 16 21 15 22 2 23
REMARK SMILES IDX 3 24 1 25 35 26 36 27 43 28 38 29 42 30 39 32 40 33 41 34
REMARK SMILES IDX 37 35 24 37 25 38 26 39 27 40 28 41 29 42 34 43 30 44 33 45
REMARK SMILES IDX 31 46 32 47
REMARK H PARENT 37 36 32 48
REMARK Flexibility Score: 90.00
ROOT
ATOM      1  C   UNL     1      78.752  96.377  73.445  1.00  0.00     0.264 C 
ENDROOT
BRANCH   1   2
ATOM      2  C   UNL     1      78.320  97.228  72.273  1.00  0.00    -0.033 C 
ATOM      3  C   UNL     1      79.027  98.336  71.967  1.00  0.00    -0.015 C 
BRANCH   3   4
ATOM      4  C   UNL     1      78.760  99.386  70.901  1.00  0.00     0.078 C 
ATOM      5  O   UNL     1      80.034  98.713  68.892  1.00  0.00    -0.319 OA
ATOM      6  C   UNL     1      78.680  98.925  69.400  1.00  0.00     0.095 CG0
ATOM      7  C   UNL     1      80.998  99.714  69.272  1.00  0.00     0.289 C 
ATOM      8  C   UNL     1      77.989 100.089  68.577  1.00  0.00     0.023 C 
ATOM      9  G   UNL     1      78.000  97.530  69.284  1.00  0.00     0.000 G0
ATOM     10  O   UNL     1      81.090  99.832  70.689  1.00  0.00    -0.320 OA
ATOM     11  O   UNL     1      80.646 101.013  68.800  1.00  0.00    -0.313 OA
ATOM     12  C   UNL     1      79.844 100.490  70.968  1.00  0.00     0.170 C 
ATOM     13  C   UNL     1      78.344 101.491  69.160  1.00  0.00     0.049 C 
ATOM     14  C   UNL     1      78.264 100.083  67.063  1.00  0.00     0.011 C 
ATOM     15  C   UNL     1      79.732 101.502  69.802  1.00  0.00     0.122 C 
BRANCH   7  16
ATOM     16  C   UNL     1      82.345  99.317  68.701  1.00  0.00     0.135 C 
BRANCH  16  17
ATOM     17  C   UNL     1      83.263 100.503  68.538  1.00  0.00    -0.040 A 
ATOM     18  C   UNL     1      83.937 101.021  69.643  1.00  0.00     0.004 A 
ATOM     19  C   UNL     1      83.436 101.081  67.281  1.00  0.00     0.004 A 
ATOM     20  C   UNL     1      84.786 102.118  69.491  1.00  0.00     0.000 A 
ATOM     21  C   UNL     1      84.285 102.178  67.129  1.00  0.00     0.000 A 
ATOM     22  C   UNL     1      84.959 102.696  68.234  1.00  0.00     0.000 A 
ENDBRANCH  16  17
ENDBRANCH   7  16
BRANCH  15  23
ATOM     23  C   UNL     1      80.167 102.874  70.205  1.00  0.00    -0.046 C 
ATOM     24  C   UNL     1      81.077 103.587  69.250  1.00  0.00     0.042 C 
ATOM     25  C   UNL     1      79.767 103.435  71.356  1.00  0.00     0.010 C 
ENDBRANCH  15  23
ENDBRANCH   3   4
BRANCH   2  26
ATOM     26  C   UNL     1      77.094  96.685  71.564  1.00  0.00     0.078 C 
BRANCH  26  27
ATOM     27  C   UNL     1      76.744  97.297  70.209  1.00  0.00     0.140 C 
ATOM     28  C   UNL     1      77.991  97.512  69.326  1.00  0.00     0.086 CG0
ATOM     29  C   UNL     1      75.898  96.374  69.357  1.00  0.00     0.190 C 
ATOM     30  C   UNL     1      77.567  96.981  67.985  1.00  0.00    -0.010 C 
ATOM     31  G   UNL     1      78.660  98.915  69.415  1.00  0.00     0.000 G0
ATOM     32  O   UNL     1      74.893  95.789  69.731  1.00  0.00    -0.291 OA
ATOM     33  C   UNL     1      76.410  96.312  67.975  1.00  0.00    -0.008 C 
ATOM     34  C   UNL     1      75.735  95.595  66.873  1.00  0.00     0.048 C 
BRANCH  27  35
ATOM     35  O   UNL     1      75.939  98.455  70.355  1.00  0.00    -0.381 OA
ATOM     36  H   UNL     1      75.007  98.181  70.371  1.00  0.00     0.212 HD
ENDBRANCH  27  35
ENDBRANCH  26  27
ENDBRANCH   2  26
ENDBRANCH   1   2
BRANCH   1  37
ATOM     37  O   UNL     1      77.648  95.633  73.914  1.00  0.00    -0.461 OA
BRANCH  37  38
ATOM     38  C   UNL     1      77.928  94.637  74.821  1.00  0.00     0.310 C 
ATOM     39  O   UNL     1      77.860  93.438  74.592  1.00  0.00    -0.252 OA
BRANCH  38  40
ATOM     40  C   UNL     1      78.329  95.255  76.139  1.00  0.00     0.158 C 
BRANCH  40  41
ATOM     41  C   UNL     1      77.173  95.892  76.866  1.00  0.00    -0.037 A 
ATOM     42  C   UNL     1      76.142  95.099  77.369  1.00  0.00     0.008 A 
ATOM     43  C   UNL     1      77.133  97.276  77.036  1.00  0.00     0.008 A 
ATOM     44  C   UNL     1      75.071  95.689  78.041  1.00  0.00     0.046 A 
ATOM     45  C   UNL     1      76.063  97.867  77.708  1.00  0.00     0.046 A 
ATOM     46  C   UNL     1      75.032  97.073  78.210  1.00  0.00     0.115 A 
BRANCH  46  47
ATOM     47  O   UNL     1      73.987  97.649  78.865  1.00  0.00    -0.508 OA
ATOM     48  H   UNL     1      73.409  96.948  79.214  1.00  0.00     0.293 HD
ENDBRANCH  46  47
ENDBRANCH  40  41
ENDBRANCH  38  40
ENDBRANCH  37  38
ENDBRANCH   1  37
TORSDOF 10
ENDMDL
MODEL 5
REMARK VINA RESULT:    -7.069      2.094      3.007
REMARK INTER + INTRA:         -11.192
REMARK INTER:                  -9.981
REMARK INTRA:                  -1.210
REMARK UNBOUND:                 0.837
REMARK SMILES C=C(C)[C@]12C[C@@H](C)[C@@]34O[C@](Cc5ccccc5)(O[C@@H]1[C@@H]3C=C(COC(=O)Cc1ccc(O)cc1)C[C@]1(O)C(=O)C(C)=C[C@@H]41)O2
REMARK SMILES IDX 23 1 22 2 21 3 20 4 9 5 8 6 10 7 6 8 18 10 44 11 19 12 5 13
REMARK SMILES IDX 7 14 4 15 11 16 12 17 13 18 17 19 14 20 16 21 15 22 2 23
REMARK SMILES IDX 3 24 1 25 35 26 36 27 43 28 38 29 42 30 39 32 40 33 41 34
REMARK SMILES IDX 37 35 24 37 25 38 26 39 27 40 28 41 29 42 34 43 30 44 33 45
REMARK SMILES IDX 31 46 32 47
REMARK H PARENT 37 36 32 48
REMARK Flexibility Score: 90.00
ROOT
ATOM      1  C   UNL     1      96.390  98.226  75.551  1.00  0.00     0.264 C 
ENDROOT
BRANCH   1   2
ATOM      2  C   UNL     1      95.835  98.473  74.167  1.00  0.00    -0.033 C 
ATOM      3  C   UNL     1      94.771  99.289  74.020  1.00  0.00    -0.015 C 
BRANCH   3   4
ATOM      4  C   UNL     1      93.987  99.637  72.764  1.00  0.00     0.078 C 
ATOM      5  O   UNL     1      94.979 101.708  71.847  1.00  0.00    -0.319 OA
ATOM      6  C   UNL     1      94.757 100.292  71.559  1.00  0.00     0.095 CG0
ATOM      7  C   UNL     1      93.857 102.401  72.428  1.00  0.00     0.289 C 
ATOM      8  C   UNL     1      93.841 100.156  70.274  1.00  0.00     0.023 C 
ATOM      9  G   UNL     1      96.188  99.695  71.426  1.00  0.00     0.000 G0
ATOM     10  O   UNL     1      93.439 101.782  73.642  1.00  0.00    -0.320 OA
ATOM     11  O   UNL     1      92.713 102.391  71.577  1.00  0.00    -0.313 OA
ATOM     12  C   UNL     1      92.823 100.594  73.119  1.00  0.00     0.170 C 
ATOM     13  C   UNL     1      92.327 100.239  70.639  1.00  0.00     0.049 C 
ATOM     14  C   UNL     1      94.146 101.146  69.137  1.00  0.00     0.011 C 
ATOM     15  C   UNL     1      92.088 101.123  71.863  1.00  0.00     0.122 C 
BRANCH   7  16
ATOM     16  C   UNL     1      94.272 103.833  72.699  1.00  0.00     0.135 C 
BRANCH  16  17
ATOM     17  C   UNL     1      93.811 104.772  71.612  1.00  0.00    -0.040 A 
ATOM     18  C   UNL     1      94.521 104.856  70.416  1.00  0.00     0.004 A 
ATOM     19  C   UNL     1      92.674 105.555  71.805  1.00  0.00     0.004 A 
ATOM     20  C   UNL     1      94.094 105.724  69.410  1.00  0.00     0.000 A 
ATOM     21  C   UNL     1      92.246 106.423  70.800  1.00  0.00     0.000 A 
ATOM     22  C   UNL     1      92.957 106.508  69.603  1.00  0.00     0.000 A 
ENDBRANCH  16  17
ENDBRANCH   7  16
BRANCH  15  23
ATOM     23  C   UNL     1      90.636 101.363  72.123  1.00  0.00    -0.046 C 
ATOM     24  C   UNL     1      89.689 100.914  71.050  1.00  0.00     0.042 C 
ATOM     25  C   UNL     1      90.204 101.947  73.250  1.00  0.00     0.010 C 
ENDBRANCH  15  23
ENDBRANCH   3   4
BRANCH   2  26
ATOM     26  C   UNL     1      96.595  97.737  73.080  1.00  0.00     0.078 C 
BRANCH  26  27
ATOM     27  C   UNL     1      96.300  98.129  71.634  1.00  0.00     0.140 C 
ATOM     28  C   UNL     1      96.193  99.658  71.454  1.00  0.00     0.086 CG0
ATOM     29  C   UNL     1      97.430  97.770  70.693  1.00  0.00     0.190 C 
ATOM     30  C   UNL     1      97.016  99.924  70.224  1.00  0.00    -0.010 C 
ATOM     31  G   UNL     1      94.763 100.263  71.562  1.00  0.00     0.000 G0
ATOM     32  O   UNL     1      97.988  96.684  70.639  1.00  0.00    -0.291 OA
ATOM     33  C   UNL     1      97.744  98.892  69.788  1.00  0.00    -0.008 C 
ATOM     34  C   UNL     1      98.715  98.814  68.677  1.00  0.00     0.048 C 
BRANCH  27  35
ATOM     35  O   UNL     1      95.190  97.414  71.118  1.00  0.00    -0.381 OA
ATOM     36  H   UNL     1      94.393  97.697  71.598  1.00  0.00     0.212 HD
ENDBRANCH  27  35
ENDBRANCH  26  27
ENDBRANCH   2  26
ENDBRANCH   1   2
BRANCH   1  37
ATOM     37  O   UNL     1      95.453  98.658  76.514  1.00  0.00    -0.461 OA
BRANCH  37  38
ATOM     38  C   UNL     1      95.178  97.776  77.533  1.00  0.00     0.310 C 
ATOM     39  O   UNL     1      94.964  98.090  78.695  1.00  0.00    -0.252 OA
BRANCH  38  40
ATOM     40  C   UNL     1      95.181  96.366  76.993  1.00  0.00     0.158 C 
BRANCH  40  41
ATOM     41  C   UNL     1      93.807  95.878  76.613  1.00  0.00    -0.037 A 
ATOM     42  C   UNL     1      92.836  95.695  77.597  1.00  0.00     0.008 A 
ATOM     43  C   UNL     1      93.506  95.610  75.278  1.00  0.00     0.008 A 
ATOM     44  C   UNL     1      91.563  95.242  77.246  1.00  0.00     0.046 A 
ATOM     45  C   UNL     1      92.234  95.158  74.926  1.00  0.00     0.046 A 
ATOM     46  C   UNL     1      91.263  94.974  75.909  1.00  0.00     0.115 A 
BRANCH  46  47
ATOM     47  O   UNL     1      90.022  94.533  75.567  1.00  0.00    -0.508 OA
ATOM     48  H   UNL     1      89.423  94.658  76.323  1.00  0.00     0.293 HD
ENDBRANCH  46  47
ENDBRANCH  40  41
ENDBRANCH  38  40
ENDBRANCH  37  38
ENDBRANCH   1  37
TORSDOF 10
ENDMDL
MODEL 6
REMARK VINA RESULT:    -6.955     12.367     16.342
REMARK INTER + INTRA:         -10.997
REMARK INTER:                  -9.190
REMARK INTRA:                  -1.807
REMARK UNBOUND:                 0.837
REMARK SMILES C=C(C)[C@]12C[C@@H](C)[C@@]34O[C@](Cc5ccccc5)(O[C@@H]1[C@@H]3C=C(COC(=O)Cc1ccc(O)cc1)C[C@]1(O)C(=O)C(C)=C[C@@H]41)O2
REMARK SMILES IDX 23 1 22 2 21 3 20 4 9 5 8 6 10 7 6 8 18 10 44 11 19 12 5 13
REMARK SMILES IDX 7 14 4 15 11 16 12 17 13 18 17 19 14 20 16 21 15 22 2 23
REMARK SMILES IDX 3 24 1 25 35 26 36 27 43 28 38 29 42 30 39 32 40 33 41 34
REMARK SMILES IDX 37 35 24 37 25 38 26 39 27 40 28 41 29 42 34 43 30 44 33 45
REMARK SMILES IDX 31 46 32 47
REMARK H PARENT 37 36 32 48
REMARK Flexibility Score: 90.00
ROOT
ATOM      1  C   UNL     1      74.617 100.685  73.566  1.00  0.00     0.264 C 
ENDROOT
BRANCH   1   2
ATOM      2  C   UNL     1      75.256  99.635  72.688  1.00  0.00    -0.033 C 
ATOM      3  C   UNL     1      75.925 100.019  71.581  1.00  0.00    -0.015 C 
BRANCH   3   4
ATOM      4  C   UNL     1      76.583  99.167  70.507  1.00  0.00     0.078 C 
ATOM      5  O   UNL     1      78.950  98.882  71.162  1.00  0.00    -0.319 OA
ATOM      6  C   UNL     1      77.704  98.152  70.939  1.00  0.00     0.095 CG0
ATOM      7  C   UNL     1      79.254  99.895  70.184  1.00  0.00     0.289 C 
ATOM      8  C   UNL     1      77.905  97.125  69.749  1.00  0.00     0.023 C 
ATOM      9  G   UNL     1      77.373  97.517  72.321  1.00  0.00     0.000 G0
ATOM     10  O   UNL     1      78.209 100.858  70.094  1.00  0.00    -0.320 OA
ATOM     11  O   UNL     1      79.395  99.356  68.872  1.00  0.00    -0.313 OA
ATOM     12  C   UNL     1      77.206 100.079  69.422  1.00  0.00     0.170 C 
ATOM     13  C   UNL     1      77.667  97.801  68.364  1.00  0.00     0.049 C 
ATOM     14  C   UNL     1      79.256  96.389  69.732  1.00  0.00     0.011 C 
ATOM     15  C   UNL     1      78.039  99.284  68.386  1.00  0.00     0.122 C 
BRANCH   7  16
ATOM     16  C   UNL     1      80.546 100.576  70.591  1.00  0.00     0.135 C 
BRANCH  16  17
ATOM     17  C   UNL     1      81.446 100.835  69.409  1.00  0.00    -0.040 A 
ATOM     18  C   UNL     1      82.270  99.820  68.924  1.00  0.00     0.004 A 
ATOM     19  C   UNL     1      81.454 102.091  68.802  1.00  0.00     0.004 A 
ATOM     20  C   UNL     1      83.103 100.060  67.830  1.00  0.00     0.000 A 
ATOM     21  C   UNL     1      82.287 102.331  67.708  1.00  0.00     0.000 A 
ATOM     22  C   UNL     1      83.111 101.316  67.223  1.00  0.00     0.000 A 
ENDBRANCH  16  17
ENDBRANCH   7  16
BRANCH  15  23
ATOM     23  C   UNL     1      77.991  99.908  67.029  1.00  0.00    -0.046 C 
ATOM     24  C   UNL     1      76.677  99.830  66.310  1.00  0.00     0.042 C 
ATOM     25  C   UNL     1      79.063 100.504  66.485  1.00  0.00     0.010 C 
ENDBRANCH  15  23
ENDBRANCH   3   4
BRANCH   2  26
ATOM     26  C   UNL     1      75.052  98.223  73.204  1.00  0.00     0.078 C 
BRANCH  26  27
ATOM     27  C   UNL     1      75.866  97.113  72.541  1.00  0.00     0.140 C 
ATOM     28  C   UNL     1      77.339  97.518  72.325  1.00  0.00     0.086 CG0
ATOM     29  C   UNL     1      75.992  95.884  73.416  1.00  0.00     0.190 C 
ATOM     30  C   UNL     1      78.106  96.317  72.803  1.00  0.00    -0.010 C 
ATOM     31  G   UNL     1      77.682  98.143  70.942  1.00  0.00     0.000 G0
ATOM     32  O   UNL     1      75.069  95.326  73.991  1.00  0.00    -0.291 OA
ATOM     33  C   UNL     1      77.383  95.394  73.445  1.00  0.00    -0.008 C 
ATOM     34  C   UNL     1      77.809  94.146  74.111  1.00  0.00     0.048 C 
BRANCH  27  35
ATOM     35  O   UNL     1      75.227  96.630  71.371  1.00  0.00    -0.381 OA
ATOM     36  H   UNL     1      75.810  95.973  70.953  1.00  0.00     0.212 HD
ENDBRANCH  27  35
ENDBRANCH  26  27
ENDBRANCH   2  26
ENDBRANCH   1   2
BRANCH   1  37
ATOM     37  O   UNL     1      75.618 101.336  74.319  1.00  0.00    -0.461 OA
BRANCH  37  38
ATOM     38  C   UNL     1      75.784 100.902  75.614  1.00  0.00     0.310 C 
ATOM     39  O   UNL     1      75.099 100.049  76.161  1.00  0.00    -0.252 OA
BRANCH  38  40
ATOM     40  C   UNL     1      76.938 101.639  76.249  1.00  0.00     0.158 C 
BRANCH  40  41
ATOM     41  C   UNL     1      78.277 101.219  75.701  1.00  0.00    -0.037 A 
ATOM     42  C   UNL     1      79.398 102.025  75.904  1.00  0.00     0.008 A 
ATOM     43  C   UNL     1      78.397 100.026  74.990  1.00  0.00     0.008 A 
ATOM     44  C   UNL     1      80.638 101.637  75.395  1.00  0.00     0.046 A 
ATOM     45  C   UNL     1      79.637  99.636  74.482  1.00  0.00     0.046 A 
ATOM     46  C   UNL     1      80.757 100.442  74.684  1.00  0.00     0.115 A 
BRANCH  46  47
ATOM     47  O   UNL     1      81.966 100.063  74.188  1.00  0.00    -0.508 OA
ATOM     48  H   UNL     1      82.606 100.781  74.336  1.00  0.00     0.293 HD
ENDBRANCH  46  47
ENDBRANCH  40  41
ENDBRANCH  38  40
ENDBRANCH  37  38
ENDBRANCH   1  37
TORSDOF 10
ENDMDL
MODEL 7
REMARK VINA RESULT:    -6.642     37.933     40.419
REMARK INTER + INTRA:         -10.465
REMARK INTER:                  -9.837
REMARK INTRA:                  -0.628
REMARK UNBOUND:                 0.837
REMARK SMILES C=C(C)[C@]12C[C@@H](C)[C@@]34O[C@](Cc5ccccc5)(O[C@@H]1[C@@H]3C=C(COC(=O)Cc1ccc(O)cc1)C[C@]1(O)C(=O)C(C)=C[C@@H]41)O2
REMARK SMILES IDX 23 1 22 2 21 3 20 4 9 5 8 6 10 7 6 8 18 10 44 11 19 12 5 13
REMARK SMILES IDX 7 14 4 15 11 16 12 17 13 18 17 19 14 20 16 21 15 22 2 23
REMARK SMILES IDX 3 24 1 25 35 26 36 27 43 28 38 29 42 30 39 32 40 33 41 34
REMARK SMILES IDX 37 35 24 37 25 38 26 39 27 40 28 41 29 42 34 43 30 44 33 45
REMARK SMILES IDX 31 46 32 47
REMARK H PARENT 37 36 32 48
REMARK Flexibility Score: 90.00
ROOT
ATOM      1  C   UNL     1      55.484  93.658  71.207  1.00  0.00     0.264 C 
ENDROOT
BRANCH   1   2
ATOM      2  C   UNL     1      54.373  93.926  72.196  1.00  0.00    -0.033 C 
ATOM      3  C   UNL     1      54.225  93.107  73.258  1.00  0.00    -0.015 C 
BRANCH   3   4
ATOM      4  C   UNL     1      53.157  93.114  74.340  1.00  0.00     0.078 C 
ATOM      5  O   UNL     1      54.039  94.466  76.214  1.00  0.00    -0.319 OA
ATOM      6  C   UNL     1      52.980  94.414  75.208  1.00  0.00     0.095 CG0
ATOM      7  C   UNL     1      54.329  93.215  76.867  1.00  0.00     0.289 C 
ATOM      8  C   UNL     1      51.574  94.318  75.933  1.00  0.00     0.023 C 
ATOM      9  G   UNL     1      53.201  95.690  74.345  1.00  0.00     0.000 G0
ATOM     10  O   UNL     1      54.688  92.209  75.925  1.00  0.00    -0.320 OA
ATOM     11  O   UNL     1      53.203  92.698  77.572  1.00  0.00    -0.313 OA
ATOM     12  C   UNL     1      53.406  91.951  75.332  1.00  0.00     0.170 C 
ATOM     13  C   UNL     1      51.209  92.843  76.281  1.00  0.00     0.049 C 
ATOM     14  C   UNL     1      51.417  95.192  77.189  1.00  0.00     0.011 C 
ATOM     15  C   UNL     1      52.456  92.000  76.554  1.00  0.00     0.122 C 
BRANCH   7  16
ATOM     16  C   UNL     1      55.472  93.440  77.838  1.00  0.00     0.135 C 
BRANCH  16  17
ATOM     17  C   UNL     1      54.980  93.757  79.228  1.00  0.00    -0.040 A 
ATOM     18  C   UNL     1      55.024  92.780  80.223  1.00  0.00     0.004 A 
ATOM     19  C   UNL     1      54.481  95.026  79.518  1.00  0.00     0.004 A 
ATOM     20  C   UNL     1      54.569  93.073  81.509  1.00  0.00     0.000 A 
ATOM     21  C   UNL     1      54.026  95.319  80.805  1.00  0.00     0.000 A 
ATOM     22  C   UNL     1      54.070  94.343  81.799  1.00  0.00     0.000 A 
ENDBRANCH  16  17
ENDBRANCH   7  16
BRANCH  15  23
ATOM     23  C   UNL     1      52.126  90.636  77.065  1.00  0.00    -0.046 C 
ATOM     24  C   UNL     1      52.808  90.222  78.335  1.00  0.00     0.042 C 
ATOM     25  C   UNL     1      51.270  89.826  76.424  1.00  0.00     0.010 C 
ENDBRANCH  15  23
ENDBRANCH   3   4
BRANCH   2  26
ATOM     26  C   UNL     1      53.542  95.145  71.843  1.00  0.00     0.078 C 
BRANCH  26  27
ATOM     27  C   UNL     1      52.587  95.672  72.912  1.00  0.00     0.140 C 
ATOM     28  C   UNL     1      53.224  95.668  74.317  1.00  0.00     0.086 CG0
ATOM     29  C   UNL     1      52.245  97.134  72.715  1.00  0.00     0.190 C 
ATOM     30  C   UNL     1      52.869  97.022  74.867  1.00  0.00    -0.010 C 
ATOM     31  G   UNL     1      52.967  94.401  75.183  1.00  0.00     0.000 G0
ATOM     32  O   UNL     1      51.885  97.640  71.663  1.00  0.00    -0.291 OA
ATOM     33  C   UNL     1      52.343  97.877  73.985  1.00  0.00    -0.008 C 
ATOM     34  C   UNL     1      51.957  99.294  74.148  1.00  0.00     0.048 C 
BRANCH  27  35
ATOM     35  O   UNL     1      51.330  95.019  72.852  1.00  0.00    -0.381 OA
ATOM     36  H   UNL     1      50.728  95.563  72.316  1.00  0.00     0.212 HD
ENDBRANCH  27  35
ENDBRANCH  26  27
ENDBRANCH   2  26
ENDBRANCH   1   2
BRANCH   1  37
ATOM     37  O   UNL     1      55.060  92.676  70.284  1.00  0.00    -0.461 OA
BRANCH  37  38
ATOM     38  C   UNL     1      54.934  93.086  68.977  1.00  0.00     0.310 C 
ATOM     39  O   UNL     1      53.984  93.708  68.524  1.00  0.00    -0.252 OA
BRANCH  38  40
ATOM     40  C   UNL     1      56.148  92.647  68.193  1.00  0.00     0.158 C 
BRANCH  40  41
ATOM     41  C   UNL     1      56.048  91.226  67.701  1.00  0.00    -0.037 A 
ATOM     42  C   UNL     1      57.195  90.438  67.608  1.00  0.00     0.008 A 
ATOM     43  C   UNL     1      54.809  90.699  67.338  1.00  0.00     0.008 A 
ATOM     44  C   UNL     1      57.103  89.123  67.152  1.00  0.00     0.046 A 
ATOM     45  C   UNL     1      54.717  89.383  66.882  1.00  0.00     0.046 A 
ATOM     46  C   UNL     1      55.863  88.596  66.789  1.00  0.00     0.115 A 
BRANCH  46  47
ATOM     47  O   UNL     1      55.774  87.313  66.344  1.00  0.00    -0.508 OA
ATOM     48  H   UNL     1      56.312  87.220  65.538  1.00  0.00     0.293 HD
ENDBRANCH  46  47
ENDBRANCH  40  41
ENDBRANCH  38  40
ENDBRANCH  37  38
ENDBRANCH   1  37
TORSDOF 10
ENDMDL
MODEL 8
REMARK VINA RESULT:    -6.637     17.101     19.811
REMARK INTER + INTRA:         -10.456
REMARK INTER:                 -10.159
REMARK INTRA:                  -0.297
REMARK UNBOUND:                 0.837
REMARK SMILES C=C(C)[C@]12C[C@@H](C)[C@@]34O[C@](Cc5ccccc5)(O[C@@H]1[C@@H]3C=C(COC(=O)Cc1ccc(O)cc1)C[C@]1(O)C(=O)C(C)=C[C@@H]41)O2
REMARK SMILES IDX 23 1 22 2 21 3 20 4 9 5 8 6 10 7 6 8 18 10 44 11 19 12 5 13
REMARK SMILES IDX 7 14 4 15 11 16 12 17 13 18 17 19 14 20 16 21 15 22 2 23
REMARK SMILES IDX 3 24 1 25 35 26 36 27 43 28 38 29 42 30 39 32 40 33 41 34
REMARK SMILES IDX 37 35 24 37 25 38 26 39 27 40 28 41 29 42 34 43 30 44 33 45
REMARK SMILES IDX 31 46 32 47
REMARK H PARENT 37 36 32 48
REMARK Flexibility Score: 90.00
ROOT
ATOM      1  C   UNL     1      91.061  93.287  92.215  1.00  0.00     0.264 C 
ENDROOT
BRANCH   1   2
ATOM      2  C   UNL     1      91.138  94.709  91.709  1.00  0.00    -0.033 C 
ATOM      3  C   UNL     1      90.014  95.454  91.664  1.00  0.00    -0.015 C 
BRANCH   3   4
ATOM      4  C   UNL     1      89.812  96.865  91.133  1.00  0.00     0.078 C 
ATOM      5  O   UNL     1      90.087  98.402  93.051  1.00  0.00    -0.319 OA
ATOM      6  C   UNL     1      90.663  98.030  91.760  1.00  0.00     0.095 CG0
ATOM      7  C   UNL     1      88.649  98.484  93.082  1.00  0.00     0.289 C 
ATOM      8  C   UNL     1      90.583  99.267  90.774  1.00  0.00     0.023 C 
ATOM      9  G   UNL     1      92.101  97.541  92.104  1.00  0.00     0.000 G0
ATOM     10  O   UNL     1      88.052  97.251  92.691  1.00  0.00    -0.320 OA
ATOM     11  O   UNL     1      88.141  99.461  92.176  1.00  0.00    -0.313 OA
ATOM     12  C   UNL     1      88.326  97.274  91.281  1.00  0.00     0.170 C 
ATOM     13  C   UNL     1      89.203  99.333  90.050  1.00  0.00     0.049 C 
ATOM     14  C   UNL     1      90.895 100.636  91.403  1.00  0.00     0.011 C 
ATOM     15  C   UNL     1      88.081  98.759  90.917  1.00  0.00     0.122 C 
BRANCH   7  16
ATOM     16  C   UNL     1      88.224  98.835  94.494  1.00  0.00     0.135 C 
BRANCH  16  17
ATOM     17  C   UNL     1      86.727  98.772  94.667  1.00  0.00    -0.040 A 
ATOM     18  C   UNL     1      86.050  97.571  94.458  1.00  0.00     0.004 A 
ATOM     19  C   UNL     1      86.020  99.916  95.036  1.00  0.00     0.004 A 
ATOM     20  C   UNL     1      84.665  97.512  94.619  1.00  0.00     0.000 A 
ATOM     21  C   UNL     1      84.635  99.858  95.196  1.00  0.00     0.000 A 
ATOM     22  C   UNL     1      83.958  98.656  94.988  1.00  0.00     0.000 A 
ENDBRANCH  16  17
ENDBRANCH   7  16
BRANCH  15  23
ATOM     23  C   UNL     1      86.728  98.976  90.323  1.00  0.00    -0.046 C 
ATOM     24  C   UNL     1      86.698  99.420  88.890  1.00  0.00     0.042 C 
ATOM     25  C   UNL     1      85.604  98.785  91.028  1.00  0.00     0.010 C 
ENDBRANCH  15  23
ENDBRANCH   3   4
BRANCH   2  26
ATOM     26  C   UNL     1      92.541  95.124  91.308  1.00  0.00     0.078 C 
BRANCH  26  27
ATOM     27  C   UNL     1      92.778  96.607  91.029  1.00  0.00     0.140 C 
ATOM     28  C   UNL     1      92.105  97.513  92.080  1.00  0.00     0.086 CG0
ATOM     29  C   UNL     1      94.236  96.994  91.152  1.00  0.00     0.190 C 
ATOM     30  C   UNL     1      93.176  98.512  92.419  1.00  0.00    -0.010 C 
ATOM     31  G   UNL     1      90.673  98.017  91.735  1.00  0.00     0.000 G0
ATOM     32  O   UNL     1      95.172  96.402  90.636  1.00  0.00    -0.291 OA
ATOM     33  C   UNL     1      94.391  98.234  91.936  1.00  0.00    -0.008 C 
ATOM     34  C   UNL     1      95.676  98.936  92.133  1.00  0.00     0.048 C 
BRANCH  27  35
ATOM     35  O   UNL     1      92.451  96.941  89.690  1.00  0.00    -0.381 OA
ATOM     36  H   UNL     1      91.702  97.562  89.704  1.00  0.00     0.212 HD
ENDBRANCH  27  35
ENDBRANCH  26  27
ENDBRANCH   2  26
ENDBRANCH   1   2
BRANCH   1  37
ATOM     37  O   UNL     1      91.279  92.397  91.142  1.00  0.00    -0.461 OA
BRANCH  37  38
ATOM     38  C   UNL     1      92.341  91.532  91.276  1.00  0.00     0.310 C 
ATOM     39  O   UNL     1      93.323  91.729  91.978  1.00  0.00    -0.252 OA
BRANCH  38  40
ATOM     40  C   UNL     1      92.102  90.307  90.426  1.00  0.00     0.158 C 
BRANCH  40  41
ATOM     41  C   UNL     1      93.051  90.207  89.260  1.00  0.00    -0.037 A 
ATOM     42  C   UNL     1      93.566  88.967  88.883  1.00  0.00     0.008 A 
ATOM     43  C   UNL     1      93.414  91.355  88.556  1.00  0.00     0.008 A 
ATOM     44  C   UNL     1      94.445  88.875  87.804  1.00  0.00     0.046 A 
ATOM     45  C   UNL     1      94.293  91.264  87.476  1.00  0.00     0.046 A 
ATOM     46  C   UNL     1      94.808  90.024  87.100  1.00  0.00     0.115 A 
BRANCH  46  47
ATOM     47  O   UNL     1      95.665  89.934  86.047  1.00  0.00    -0.508 OA
ATOM     48  H   UNL     1      95.670  89.017  85.721  1.00  0.00     0.293 HD
ENDBRANCH  46  47
ENDBRANCH  40  41
ENDBRANCH  38  40
ENDBRANCH  37  38
ENDBRANCH   1  37
TORSDOF 10
ENDMDL
MODEL 9
REMARK VINA RESULT:    -6.441     16.667     20.757
REMARK INTER + INTRA:         -10.123
REMARK INTER:                  -9.328
REMARK INTRA:                  -0.795
REMARK UNBOUND:                 0.837
REMARK SMILES C=C(C)[C@]12C[C@@H](C)[C@@]34O[C@](Cc5ccccc5)(O[C@@H]1[C@@H]3C=C(COC(=O)Cc1ccc(O)cc1)C[C@]1(O)C(=O)C(C)=C[C@@H]41)O2
REMARK SMILES IDX 23 1 22 2 21 3 20 4 9 5 8 6 10 7 6 8 18 10 44 11 19 12 5 13
REMARK SMILES IDX 7 14 4 15 11 16 12 17 13 18 17 19 14 20 16 21 15 22 2 23
REMARK SMILES IDX 3 24 1 25 35 26 36 27 43 28 38 29 42 30 39 32 40 33 41 34
REMARK SMILES IDX 37 35 24 37 25 38 26 39 27 40 28 41 29 42 34 43 30 44 33 45
REMARK SMILES IDX 31 46 32 47
REMARK H PARENT 37 36 32 48
REMARK Flexibility Score: 90.00
ROOT
ATOM      1  C   UNL     1      93.540  99.108  90.374  1.00  0.00     0.264 C 
ENDROOT
BRANCH   1   2
ATOM      2  C   UNL     1      92.777  97.879  90.813  1.00  0.00    -0.033 C 
ATOM      3  C   UNL     1      93.236  96.660  90.462  1.00  0.00    -0.015 C 
BRANCH   3   4
ATOM      4  C   UNL     1      92.622  95.291  90.708  1.00  0.00     0.078 C 
ATOM      5  O   UNL     1      93.575  94.444  92.827  1.00  0.00    -0.319 OA
ATOM      6  C   UNL     1      92.326  94.859  92.192  1.00  0.00     0.095 CG0
ATOM      7  C   UNL     1      94.438  93.626  92.013  1.00  0.00     0.289 C 
ATOM      8  C   UNL     1      91.329  93.628  92.143  1.00  0.00     0.023 C 
ATOM      9  G   UNL     1      91.846  96.075  93.037  1.00  0.00     0.000 G0
ATOM     10  O   UNL     1      94.779  94.285  90.797  1.00  0.00    -0.320 OA
ATOM     11  O   UNL     1      93.818  92.402  91.627  1.00  0.00    -0.313 OA
ATOM     12  C   UNL     1      93.527  94.191  90.100  1.00  0.00     0.170 C 
ATOM     13  C   UNL     1      91.581  92.737  90.888  1.00  0.00     0.049 C 
ATOM     14  C   UNL     1      91.310  92.743  93.401  1.00  0.00     0.011 C 
ATOM     15  C   UNL     1      93.049  92.763  90.461  1.00  0.00     0.122 C 
BRANCH   7  16
ATOM     16  C   UNL     1      95.695  93.328  92.805  1.00  0.00     0.135 C 
BRANCH  16  17
ATOM     17  C   UNL     1      96.756  94.381  92.602  1.00  0.00    -0.040 A 
ATOM     18  C   UNL     1      97.984  94.034  92.039  1.00  0.00     0.004 A 
ATOM     19  C   UNL     1      96.508  95.700  92.979  1.00  0.00     0.004 A 
ATOM     20  C   UNL     1      98.965  95.009  91.850  1.00  0.00     0.000 A 
ATOM     21  C   UNL     1      97.489  96.675  92.791  1.00  0.00     0.000 A 
ATOM     22  C   UNL     1      98.717  96.328  92.227  1.00  0.00     0.000 A 
ENDBRANCH  16  17
ENDBRANCH   7  16
BRANCH  15  23
ATOM     23  C   UNL     1      93.349  91.780  89.377  1.00  0.00    -0.046 C 
ATOM     24  C   UNL     1      94.441  92.161  88.421  1.00  0.00     0.042 C 
ATOM     25  C   UNL     1      92.680  90.623  89.263  1.00  0.00     0.010 C 
ENDBRANCH  15  23
ENDBRANCH   3   4
BRANCH   2  26
ATOM     26  C   UNL     1      91.544  98.205  91.634  1.00  0.00     0.078 C 
BRANCH  26  27
ATOM     27  C   UNL     1      90.837  97.039  92.323  1.00  0.00     0.140 C 
ATOM     28  C   UNL     1      91.828  96.080  93.014  1.00  0.00     0.086 CG0
ATOM     29  C   UNL     1      89.964  97.490  93.475  1.00  0.00     0.190 C 
ATOM     30  C   UNL     1      91.207  95.847  94.363  1.00  0.00    -0.010 C 
ATOM     31  G   UNL     1      92.304  94.861  92.171  1.00  0.00     0.000 G0
ATOM     32  O   UNL     1      89.149  98.399  93.432  1.00  0.00    -0.291 OA
ATOM     33  C   UNL     1      90.176  96.642  94.663  1.00  0.00    -0.008 C 
ATOM     34  C   UNL     1      89.389  96.749  95.909  1.00  0.00     0.048 C 
BRANCH  27  35
ATOM     35  O   UNL     1      89.931  96.391  91.445  1.00  0.00    -0.381 OA
ATOM     36  H   UNL     1      89.732  96.994  90.709  1.00  0.00     0.212 HD
ENDBRANCH  27  35
ENDBRANCH  26  27
ENDBRANCH   2  26
ENDBRANCH   1   2
BRANCH   1  37
ATOM     37  O   UNL     1      93.133  99.469  89.071  1.00  0.00    -0.461 OA
BRANCH  37  38
ATOM     38  C   UNL     1      93.320 100.786  88.720  1.00  0.00     0.310 C 
ATOM     39  O   UNL     1      94.324 101.442  88.960  1.00  0.00    -0.252 OA
BRANCH  38  40
ATOM     40  C   UNL     1      92.096 101.293  87.994  1.00  0.00     0.158 C 
BRANCH  40  41
ATOM     41  C   UNL     1      90.812 100.980  88.718  1.00  0.00    -0.037 A 
ATOM     42  C   UNL     1      90.176  99.755  88.512  1.00  0.00     0.008 A 
ATOM     43  C   UNL     1      90.259 101.914  89.593  1.00  0.00     0.008 A 
ATOM     44  C   UNL     1      88.987  99.466  89.181  1.00  0.00     0.046 A 
ATOM     45  C   UNL     1      89.070 101.624  90.264  1.00  0.00     0.046 A 
ATOM     46  C   UNL     1      88.434 100.401  90.057  1.00  0.00     0.115 A 
BRANCH  46  47
ATOM     47  O   UNL     1      87.274 100.118  90.710  1.00  0.00    -0.508 OA
ATOM     48  H   UNL     1      86.944 100.930  91.133  1.00  0.00     0.293 HD
ENDBRANCH  46  47
ENDBRANCH  40  41
ENDBRANCH  38  40
ENDBRANCH  37  38
ENDBRANCH   1  37
TORSDOF 10
ENDMDL
MODEL 10
REMARK VINA RESULT:    -6.406      7.447     10.486
REMARK INTER + INTRA:         -10.064
REMARK INTER:                  -9.836
REMARK INTRA:                  -0.228
REMARK UNBOUND:                 0.837
REMARK SMILES C=C(C)[C@]12C[C@@H](C)[C@@]34O[C@](Cc5ccccc5)(O[C@@H]1[C@@H]3C=C(COC(=O)Cc1ccc(O)cc1)C[C@]1(O)C(=O)C(C)=C[C@@H]41)O2
REMARK SMILES IDX 23 1 22 2 21 3 20 4 9 5 8 6 10 7 6 8 18 10 44 11 19 12 5 13
REMARK SMILES IDX 7 14 4 15 11 16 12 17 13 18 17 19 14 20 16 21 15 22 2 23
REMARK SMILES IDX 3 24 1 25 35 26 36 27 43 28 38 29 42 30 39 32 40 33 41 34
REMARK SMILES IDX 37 35 24 37 25 38 26 39 27 40 28 41 29 42 34 43 30 44 33 45
REMARK SMILES IDX 31 46 32 47
REMARK H PARENT 37 36 32 48
REMARK Flexibility Score: 90.00
ROOT
ATOM      1  C   UNL     1     101.962  96.761  77.221  1.00  0.00     0.264 C 
ENDROOT
BRANCH   1   2
ATOM      2  C   UNL     1     100.812  97.366  77.993  1.00  0.00    -0.033 C 
ATOM      3  C   UNL     1      99.922  98.146  77.346  1.00  0.00    -0.015 C 
BRANCH   3   4
ATOM      4  C   UNL     1      98.738  98.924  77.899  1.00  0.00     0.078 C 
ATOM      5  O   UNL     1      96.761  97.451  77.718  1.00  0.00    -0.319 OA
ATOM      6  C   UNL     1      97.624  98.135  78.679  1.00  0.00     0.095 CG0
ATOM      7  C   UNL     1      96.397  98.224  76.558  1.00  0.00     0.289 C 
ATOM      8  C   UNL     1      96.767  99.192  79.492  1.00  0.00     0.023 C 
ATOM      9  G   UNL     1      98.247  96.987  79.526  1.00  0.00     0.000 G0
ATOM     10  O   UNL     1      97.551  98.669  75.850  1.00  0.00    -0.320 OA
ATOM     11  O   UNL     1      95.675  99.405  76.898  1.00  0.00    -0.313 OA
ATOM     12  C   UNL     1      98.024  99.681  76.753  1.00  0.00     0.170 C 
ATOM     13  C   UNL     1      96.666 100.550  78.733  1.00  0.00     0.049 C 
ATOM     14  C   UNL     1      95.358  98.729  79.898  1.00  0.00     0.011 C 
ATOM     15  C   UNL     1      96.711 100.357  77.217  1.00  0.00     0.122 C 
BRANCH   7  16
ATOM     16  C   UNL     1      95.545  97.353  75.656  1.00  0.00     0.135 C 
BRANCH  16  17
ATOM     17  C   UNL     1      94.497  96.591  76.428  1.00  0.00    -0.040 A 
ATOM     18  C   UNL     1      93.185  97.061  76.474  1.00  0.00     0.004 A 
ATOM     19  C   UNL     1      94.842  95.417  77.096  1.00  0.00     0.004 A 
ATOM     20  C   UNL     1      92.216  96.355  77.189  1.00  0.00     0.000 A 
ATOM     21  C   UNL     1      93.873  94.711  77.811  1.00  0.00     0.000 A 
ATOM     22  C   UNL     1      92.561  95.181  77.857  1.00  0.00     0.000 A 
ENDBRANCH  16  17
ENDBRANCH   7  16
BRANCH  15  23
ATOM     23  C   UNL     1      96.434 101.620  76.468  1.00  0.00    -0.046 C 
ATOM     24  C   UNL     1      96.960 102.883  77.084  1.00  0.00     0.042 C 
ATOM     25  C   UNL     1      95.755 101.625  75.312  1.00  0.00     0.010 C 
ENDBRANCH  15  23
ENDBRANCH   3   4
BRANCH   2  26
ATOM     26  C   UNL     1     100.816  96.987  79.462  1.00  0.00     0.078 C 
BRANCH  26  27
ATOM     27  C   UNL     1      99.571  97.335  80.276  1.00  0.00     0.140 C 
ATOM     28  C   UNL     1      98.268  96.992  79.524  1.00  0.00     0.086 CG0
ATOM     29  C   UNL     1      99.449  96.501  81.534  1.00  0.00     0.190 C 
ATOM     30  C   UNL     1      97.436  96.296  80.565  1.00  0.00    -0.010 C 
ATOM     31  G   UNL     1      97.637  98.142  78.686  1.00  0.00     0.000 G0
ATOM     32  O   UNL     1     100.341  96.313  82.348  1.00  0.00    -0.291 OA
ATOM     33  C   UNL     1      98.078  95.981  81.694  1.00  0.00    -0.008 C 
ATOM     34  C   UNL     1      97.608  95.234  82.879  1.00  0.00     0.048 C 
BRANCH  27  35
ATOM     35  O   UNL     1      99.621  98.667  80.756  1.00  0.00    -0.381 OA
ATOM     36  H   UNL     1     100.316  99.143  80.269  1.00  0.00     0.212 HD
ENDBRANCH  27  35
ENDBRANCH  26  27
ENDBRANCH   2  26
ENDBRANCH   1   2
BRANCH   1  37
ATOM     37  O   UNL     1     102.481  95.664  77.942  1.00  0.00    -0.461 OA
BRANCH  37  38
ATOM     38  C   UNL     1     103.769  95.289  77.633  1.00  0.00     0.310 C 
ATOM     39  O   UNL     1     104.775  95.718  78.179  1.00  0.00    -0.252 OA
BRANCH  38  40
ATOM     40  C   UNL     1     103.743  94.269  76.520  1.00  0.00     0.158 C 
BRANCH  40  41
ATOM     41  C   UNL     1     104.207  92.905  76.962  1.00  0.00    -0.037 A 
ATOM     42  C   UNL     1     103.993  92.487  78.276  1.00  0.00     0.008 A 
ATOM     43  C   UNL     1     104.849  92.060  76.058  1.00  0.00     0.008 A 
ATOM     44  C   UNL     1     104.423  91.225  78.685  1.00  0.00     0.046 A 
ATOM     45  C   UNL     1     105.279  90.797  76.467  1.00  0.00     0.046 A 
ATOM     46  C   UNL     1     105.066  90.380  77.780  1.00  0.00     0.115 A 
BRANCH  46  47
ATOM     47  O   UNL     1     105.485  89.148  78.180  1.00  0.00    -0.508 OA
ATOM     48  H   UNL     1     106.377  88.988  77.826  1.00  0.00     0.293 HD
ENDBRANCH  46  47
ENDBRANCH  40  41
ENDBRANCH  38  40
ENDBRANCH  37  38
ENDBRANCH   1  37
TORSDOF 10
ENDMDL
