MODEL 1
REMARK VINA RESULT:    -6.430      0.000      0.000
REMARK INTER + INTRA:         -10.659
REMARK INTER:                 -10.000
REMARK INTRA:                  -0.659
REMARK UNBOUND:                -0.659
REMARK SMILES CCCCC/C=C/C(=O)CCc1ccc(O)c(OC)c1
REMARK SMILES IDX 6 1 7 2 8 3 9 4 10 5 11 6 12 7 17 8 20 9 15 10 14 11 13 12
REMARK SMILES IDX 18 13 19 14 16 15 5 17 4 18 3 19 2 20 1 21
REMARK H PARENT 16 16
REMARK Flexibility Score: inf
ROOT
ATOM      1  C   UNL     1      92.376  93.265  78.289  1.00  0.00    -0.023 C 
ATOM      2  C   UNL     1      93.660  93.615  78.143  1.00  0.00     0.043 C 
ENDROOT
BRANCH   2   3
ATOM      3  C   UNL     1      94.690  93.054  79.059  1.00  0.00     0.155 C 
ATOM      4  O   UNL     1      94.409  92.666  80.191  1.00  0.00    -0.295 OA
BRANCH   3   5
ATOM      5  C   UNL     1      96.115  93.034  78.542  1.00  0.00     0.085 C 
BRANCH   5   6
ATOM      6  C   UNL     1      96.709  94.442  78.498  1.00  0.00     0.044 C 
BRANCH   6   7
ATOM      7  C   UNL     1      96.867  95.057  79.869  1.00  0.00    -0.044 A 
ATOM      8  C   UNL     1      98.068  95.229  81.939  1.00  0.00     0.160 A 
ATOM      9  C   UNL     1      97.923  94.660  80.673  1.00  0.00     0.054 A 
ATOM     10  C   UNL     1      97.156  96.185  82.383  1.00  0.00     0.157 A 
ATOM     11  C   UNL     1      96.097  96.574  81.561  1.00  0.00     0.050 A 
ATOM     12  C   UNL     1      95.952  96.006  80.296  1.00  0.00     0.008 A 
BRANCH   8  13
ATOM     13  O   UNL     1      99.106  94.840  82.732  1.00  0.00    -0.493 OA
ATOM     14  C   UNL     1     100.322  95.577  82.616  1.00  0.00     0.278 C 
ENDBRANCH   8  13
BRANCH  10  15
ATOM     15  O   UNL     1      97.287  96.748  83.617  1.00  0.00    -0.504 OA
ATOM     16  H   UNL     1      96.523  96.483  84.156  1.00  0.00     0.293 HD
ENDBRANCH  10  15
ENDBRANCH   6   7
ENDBRANCH   5   6
ENDBRANCH   3   5
ENDBRANCH   2   3
BRANCH   1  17
ATOM     17  C   UNL     1      91.278  93.787  77.407  1.00  0.00     0.027 C 
BRANCH  17  18
ATOM     18  C   UNL     1      89.991  92.960  77.496  1.00  0.00     0.004 C 
BRANCH  18  19
ATOM     19  C   UNL     1      90.047  91.649  76.704  1.00  0.00     0.000 C 
BRANCH  19  20
ATOM     20  C   UNL     1      90.890  91.806  75.438  1.00  0.00    -0.003 C 
ATOM     21  C   UNL     1      90.862  90.544  74.591  1.00  0.00     0.004 C 
ENDBRANCH  19  20
ENDBRANCH  18  19
ENDBRANCH  17  18
ENDBRANCH   1  17
TORSDOF 10
ENDMDL
MODEL 2
REMARK VINA RESULT:    -6.098     22.653     25.573
REMARK INTER + INTRA:         -10.143
REMARK INTER:                  -9.440
REMARK INTRA:                  -0.704
REMARK UNBOUND:                -0.659
REMARK SMILES CCCCC/C=C/C(=O)CCc1ccc(O)c(OC)c1
REMARK SMILES IDX 6 1 7 2 8 3 9 4 10 5 11 6 12 7 17 8 20 9 15 10 14 11 13 12
REMARK SMILES IDX 18 13 19 14 16 15 5 17 4 18 3 19 2 20 1 21
REMARK H PARENT 16 16
REMARK Flexibility Score: inf
ROOT
ATOM      1  C   UNL     1      75.701  82.116  64.887  1.00  0.00    -0.023 C 
ATOM      2  C   UNL     1      76.324  83.294  65.010  1.00  0.00     0.043 C 
ENDROOT
BRANCH   2   3
ATOM      3  C   UNL     1      76.844  83.723  66.337  1.00  0.00     0.155 C 
ATOM      4  O   UNL     1      78.027  83.587  66.644  1.00  0.00    -0.295 OA
BRANCH   3   5
ATOM      5  C   UNL     1      75.829  84.289  67.311  1.00  0.00     0.085 C 
BRANCH   5   6
ATOM      6  C   UNL     1      76.510  85.111  68.407  1.00  0.00     0.044 C 
BRANCH   6   7
ATOM      7  C   UNL     1      76.344  86.600  68.213  1.00  0.00    -0.044 A 
ATOM      8  C   UNL     1      75.027  88.590  68.461  1.00  0.00     0.160 A 
ATOM      9  C   UNL     1      75.179  87.215  68.640  1.00  0.00     0.054 A 
ATOM     10  C   UNL     1      76.041  89.332  67.857  1.00  0.00     0.157 A 
ATOM     11  C   UNL     1      77.209  88.698  67.431  1.00  0.00     0.050 A 
ATOM     12  C   UNL     1      77.361  87.322  67.610  1.00  0.00     0.008 A 
BRANCH   8  13
ATOM     13  O   UNL     1      73.881  89.197  68.881  1.00  0.00    -0.493 OA
ATOM     14  C   UNL     1      72.650  88.559  68.549  1.00  0.00     0.278 C 
ENDBRANCH   8  13
BRANCH  10  15
ATOM     15  O   UNL     1      75.905  90.675  67.677  1.00  0.00    -0.504 OA
ATOM     16  H   UNL     1      75.238  90.824  66.984  1.00  0.00     0.293 HD
ENDBRANCH  10  15
ENDBRANCH   6   7
ENDBRANCH   5   6
ENDBRANCH   3   5
ENDBRANCH   2   3
BRANCH   1  17
ATOM     17  C   UNL     1      75.148  81.612  63.586  1.00  0.00     0.027 C 
BRANCH  17  18
ATOM     18  C   UNL     1      73.617  81.655  63.526  1.00  0.00     0.004 C 
BRANCH  18  19
ATOM     19  C   UNL     1      72.938  81.104  64.783  1.00  0.00     0.000 C 
BRANCH  19  20
ATOM     20  C   UNL     1      71.530  80.594  64.472  1.00  0.00    -0.003 C 
ATOM     21  C   UNL     1      71.370  80.267  62.996  1.00  0.00     0.004 C 
ENDBRANCH  19  20
ENDBRANCH  18  19
ENDBRANCH  17  18
ENDBRANCH   1  17
TORSDOF 10
ENDMDL
MODEL 3
REMARK VINA RESULT:    -5.934      2.955      4.288
REMARK INTER + INTRA:          -9.888
REMARK INTER:                  -8.838
REMARK INTRA:                  -1.050
REMARK UNBOUND:                -0.659
REMARK SMILES CCCCC/C=C/C(=O)CCc1ccc(O)c(OC)c1
REMARK SMILES IDX 6 1 7 2 8 3 9 4 10 5 11 6 12 7 17 8 20 9 15 10 14 11 13 12
REMARK SMILES IDX 18 13 19 14 16 15 5 17 4 18 3 19 2 20 1 21
REMARK H PARENT 16 16
REMARK Flexibility Score: inf
ROOT
ATOM      1  C   UNL     1      93.798  93.506  78.732  1.00  0.00    -0.023 C 
ATOM      2  C   UNL     1      94.995  92.938  78.923  1.00  0.00     0.043 C 
ENDROOT
BRANCH   2   3
ATOM      3  C   UNL     1      95.672  93.061  80.243  1.00  0.00     0.155 C 
ATOM      4  O   UNL     1      95.210  92.547  81.260  1.00  0.00    -0.295 OA
BRANCH   3   5
ATOM      5  C   UNL     1      96.935  93.898  80.280  1.00  0.00     0.085 C 
BRANCH   5   6
ATOM      6  C   UNL     1      96.620  95.386  80.115  1.00  0.00     0.044 C 
BRANCH   6   7
ATOM      7  C   UNL     1      97.148  95.959  78.821  1.00  0.00    -0.044 A 
ATOM      8  C   UNL     1      96.760  96.722  76.580  1.00  0.00     0.160 A 
ATOM      9  C   UNL     1      96.271  96.193  77.774  1.00  0.00     0.054 A 
ATOM     10  C   UNL     1      98.118  97.011  76.447  1.00  0.00     0.157 A 
ATOM     11  C   UNL     1      98.988  96.769  77.511  1.00  0.00     0.050 A 
ATOM     12  C   UNL     1      98.500  96.239  78.705  1.00  0.00     0.008 A 
BRANCH   8  13
ATOM     13  O   UNL     1      95.899  96.954  75.549  1.00  0.00    -0.493 OA
ATOM     14  C   UNL     1      94.894  95.970  75.310  1.00  0.00     0.278 C 
ENDBRANCH   8  13
BRANCH  10  15
ATOM     15  O   UNL     1      98.606  97.528  75.286  1.00  0.00    -0.504 OA
ATOM     16  H   UNL     1      97.864  97.905  74.784  1.00  0.00     0.293 HD
ENDBRANCH  10  15
ENDBRANCH   6   7
ENDBRANCH   5   6
ENDBRANCH   3   5
ENDBRANCH   2   3
BRANCH   1  17
ATOM     17  C   UNL     1      93.051  93.428  77.432  1.00  0.00     0.027 C 
BRANCH  17  18
ATOM     18  C   UNL     1      91.584  93.855  77.555  1.00  0.00     0.004 C 
BRANCH  18  19
ATOM     19  C   UNL     1      90.653  93.140  76.571  1.00  0.00     0.000 C 
BRANCH  19  20
ATOM     20  C   UNL     1      91.431  92.172  75.679  1.00  0.00    -0.003 C 
ATOM     21  C   UNL     1      90.631  90.911  75.394  1.00  0.00     0.004 C 
ENDBRANCH  19  20
ENDBRANCH  18  19
ENDBRANCH  17  18
ENDBRANCH   1  17
TORSDOF 10
ENDMDL
MODEL 4
REMARK VINA RESULT:    -5.832     12.108     14.012
REMARK INTER + INTRA:          -9.730
REMARK INTER:                  -9.246
REMARK INTRA:                  -0.484
REMARK UNBOUND:                -0.659
REMARK SMILES CCCCC/C=C/C(=O)CCc1ccc(O)c(OC)c1
REMARK SMILES IDX 6 1 7 2 8 3 9 4 10 5 11 6 12 7 17 8 20 9 15 10 14 11 13 12
REMARK SMILES IDX 18 13 19 14 16 15 5 17 4 18 3 19 2 20 1 21
REMARK H PARENT 16 16
REMARK Flexibility Score: inf
ROOT
ATOM      1  C   UNL     1      95.793  80.158  83.639  1.00  0.00    -0.023 C 
ATOM      2  C   UNL     1      96.046  81.177  82.809  1.00  0.00     0.043 C 
ENDROOT
BRANCH   2   3
ATOM      3  C   UNL     1      97.152  81.072  81.819  1.00  0.00     0.155 C 
ATOM      4  O   UNL     1      98.112  80.324  81.996  1.00  0.00    -0.295 OA
BRANCH   3   5
ATOM      5  C   UNL     1      97.062  81.976  80.605  1.00  0.00     0.085 C 
BRANCH   5   6
ATOM      6  C   UNL     1      97.666  81.308  79.369  1.00  0.00     0.044 C 
BRANCH   6   7
ATOM      7  C   UNL     1      97.216  81.947  78.077  1.00  0.00    -0.044 A 
ATOM      8  C   UNL     1      97.619  82.463  75.768  1.00  0.00     0.160 A 
ATOM      9  C   UNL     1      98.035  81.872  76.961  1.00  0.00     0.054 A 
ATOM     10  C   UNL     1      96.391  83.121  75.706  1.00  0.00     0.157 A 
ATOM     11  C   UNL     1      95.578  83.189  76.838  1.00  0.00     0.050 A 
ATOM     12  C   UNL     1      95.994  82.598  78.032  1.00  0.00     0.008 A 
BRANCH   8  13
ATOM     13  O   UNL     1      98.422  82.390  74.670  1.00  0.00    -0.493 OA
ATOM     14  C   UNL     1      99.790  82.051  74.888  1.00  0.00     0.278 C 
ENDBRANCH   8  13
BRANCH  10  15
ATOM     15  O   UNL     1      95.974  83.701  74.546  1.00  0.00    -0.504 OA
ATOM     16  H   UNL     1      95.233  83.179  74.193  1.00  0.00     0.293 HD
ENDBRANCH  10  15
ENDBRANCH   6   7
ENDBRANCH   5   6
ENDBRANCH   3   5
ENDBRANCH   2   3
BRANCH   1  17
ATOM     17  C   UNL     1      94.697  80.186  84.663  1.00  0.00     0.027 C 
BRANCH  17  18
ATOM     18  C   UNL     1      93.812  81.433  84.564  1.00  0.00     0.004 C 
BRANCH  18  19
ATOM     19  C   UNL     1      92.320  81.143  84.752  1.00  0.00     0.000 C 
BRANCH  19  20
ATOM     20  C   UNL     1      91.680  82.147  85.713  1.00  0.00    -0.003 C 
ATOM     21  C   UNL     1      90.198  81.867  85.904  1.00  0.00     0.004 C 
ENDBRANCH  19  20
ENDBRANCH  18  19
ENDBRANCH  17  18
ENDBRANCH   1  17
TORSDOF 10
ENDMDL
MODEL 5
REMARK VINA RESULT:    -5.794      1.947      2.775
REMARK INTER + INTRA:          -9.671
REMARK INTER:                  -8.490
REMARK INTRA:                  -1.181
REMARK UNBOUND:                -0.659
REMARK SMILES CCCCC/C=C/C(=O)CCc1ccc(O)c(OC)c1
REMARK SMILES IDX 6 1 7 2 8 3 9 4 10 5 11 6 12 7 17 8 20 9 15 10 14 11 13 12
REMARK SMILES IDX 18 13 19 14 16 15 5 17 4 18 3 19 2 20 1 21
REMARK H PARENT 16 16
REMARK Flexibility Score: inf
ROOT
ATOM      1  C   UNL     1      94.132  94.733  77.738  1.00  0.00    -0.023 C 
ATOM      2  C   UNL     1      94.019  93.750  78.640  1.00  0.00     0.043 C 
ENDROOT
BRANCH   2   3
ATOM      3  C   UNL     1      95.228  92.999  79.075  1.00  0.00     0.155 C 
ATOM      4  O   UNL     1      95.954  92.417  78.272  1.00  0.00    -0.295 OA
BRANCH   3   5
ATOM      5  C   UNL     1      95.490  92.946  80.568  1.00  0.00     0.085 C 
BRANCH   5   6
ATOM      6  C   UNL     1      96.876  93.496  80.908  1.00  0.00     0.044 C 
BRANCH   6   7
ATOM      7  C   UNL     1      97.016  94.968  80.598  1.00  0.00    -0.044 A 
ATOM      8  C   UNL     1      96.588  97.258  81.173  1.00  0.00     0.160 A 
ATOM      9  C   UNL     1      96.458  95.899  81.460  1.00  0.00     0.054 A 
ATOM     10  C   UNL     1      97.273  97.668  80.030  1.00  0.00     0.157 A 
ATOM     11  C   UNL     1      97.829  96.718  79.172  1.00  0.00     0.050 A 
ATOM     12  C   UNL     1      97.699  95.359  79.458  1.00  0.00     0.008 A 
BRANCH   8  13
ATOM     13  O   UNL     1      96.041  98.176  82.019  1.00  0.00    -0.493 OA
ATOM     14  C   UNL     1      96.769  98.478  83.207  1.00  0.00     0.278 C 
ENDBRANCH   8  13
BRANCH  10  15
ATOM     15  O   UNL     1      97.407  98.992  79.740  1.00  0.00    -0.504 OA
ATOM     16  H   UNL     1      96.579  99.301  79.334  1.00  0.00     0.293 HD
ENDBRANCH  10  15
ENDBRANCH   6   7
ENDBRANCH   5   6
ENDBRANCH   3   5
ENDBRANCH   2   3
BRANCH   1  17
ATOM     17  C   UNL     1      92.962  95.536  77.248  1.00  0.00     0.027 C 
BRANCH  17  18
ATOM     18  C   UNL     1      91.651  94.743  77.237  1.00  0.00     0.004 C 
BRANCH  18  19
ATOM     19  C   UNL     1      91.501  93.821  76.023  1.00  0.00     0.000 C 
BRANCH  19  20
ATOM     20  C   UNL     1      90.812  92.511  76.407  1.00  0.00    -0.003 C 
ATOM     21  C   UNL     1      90.299  92.550  77.837  1.00  0.00     0.004 C 
ENDBRANCH  19  20
ENDBRANCH  18  19
ENDBRANCH  17  18
ENDBRANCH   1  17
TORSDOF 10
ENDMDL
MODEL 6
REMARK VINA RESULT:    -5.782      1.462      2.562
REMARK INTER + INTRA:          -9.653
REMARK INTER:                  -9.015
REMARK INTRA:                  -0.638
REMARK UNBOUND:                -0.659
REMARK SMILES CCCCC/C=C/C(=O)CCc1ccc(O)c(OC)c1
REMARK SMILES IDX 6 1 7 2 8 3 9 4 10 5 11 6 12 7 17 8 20 9 15 10 14 11 13 12
REMARK SMILES IDX 18 13 19 14 16 15 5 17 4 18 3 19 2 20 1 21
REMARK H PARENT 16 16
REMARK Flexibility Score: inf
ROOT
ATOM      1  C   UNL     1      93.108  93.215  78.475  1.00  0.00    -0.023 C 
ATOM      2  C   UNL     1      94.293  93.781  78.734  1.00  0.00     0.043 C 
ENDROOT
BRANCH   2   3
ATOM      3  C   UNL     1      95.092  93.328  79.905  1.00  0.00     0.155 C 
ATOM      4  O   UNL     1      94.693  92.443  80.659  1.00  0.00    -0.295 OA
BRANCH   3   5
ATOM      5  C   UNL     1      96.402  94.050  80.151  1.00  0.00     0.085 C 
BRANCH   5   6
ATOM      6  C   UNL     1      96.215  95.568  80.114  1.00  0.00     0.044 C 
BRANCH   6   7
ATOM      7  C   UNL     1      96.808  96.262  81.317  1.00  0.00    -0.044 A 
ATOM      8  C   UNL     1      96.793  98.086  82.876  1.00  0.00     0.160 A 
ATOM      9  C   UNL     1      96.244  97.446  81.765  1.00  0.00     0.054 A 
ATOM     10  C   UNL     1      97.898  97.536  83.525  1.00  0.00     0.157 A 
ATOM     11  C   UNL     1      98.455  96.343  83.061  1.00  0.00     0.050 A 
ATOM     12  C   UNL     1      97.907  95.703  81.950  1.00  0.00     0.008 A 
BRANCH   8  13
ATOM     13  O   UNL     1      96.240  99.250  83.319  1.00  0.00    -0.493 OA
ATOM     14  C   UNL     1      95.667 100.111  82.336  1.00  0.00     0.278 C 
ENDBRANCH   8  13
BRANCH  10  15
ATOM     15  O   UNL     1      98.442  98.152  84.611  1.00  0.00    -0.504 OA
ATOM     16  H   UNL     1      97.910  98.940  84.813  1.00  0.00     0.293 HD
ENDBRANCH  10  15
ENDBRANCH   6   7
ENDBRANCH   5   6
ENDBRANCH   3   5
ENDBRANCH   2   3
BRANCH   1  17
ATOM     17  C   UNL     1      92.243  93.616  77.316  1.00  0.00     0.027 C 
BRANCH  17  18
ATOM     18  C   UNL     1      90.760  93.297  77.533  1.00  0.00     0.004 C 
BRANCH  18  19
ATOM     19  C   UNL     1      90.275  92.073  76.751  1.00  0.00     0.000 C 
BRANCH  19  20
ATOM     20  C   UNL     1      91.140  91.831  75.513  1.00  0.00    -0.003 C 
ATOM     21  C   UNL     1      90.825  90.491  74.867  1.00  0.00     0.004 C 
ENDBRANCH  19  20
ENDBRANCH  18  19
ENDBRANCH  17  18
ENDBRANCH   1  17
TORSDOF 10
ENDMDL
MODEL 7
REMARK VINA RESULT:    -5.737     12.046     14.365
REMARK INTER + INTRA:          -9.582
REMARK INTER:                  -8.637
REMARK INTRA:                  -0.944
REMARK UNBOUND:                -0.659
REMARK SMILES CCCCC/C=C/C(=O)CCc1ccc(O)c(OC)c1
REMARK SMILES IDX 6 1 7 2 8 3 9 4 10 5 11 6 12 7 17 8 20 9 15 10 14 11 13 12
REMARK SMILES IDX 18 13 19 14 16 15 5 17 4 18 3 19 2 20 1 21
REMARK H PARENT 16 16
REMARK Flexibility Score: inf
ROOT
ATOM      1  C   UNL     1      97.013  79.611  81.749  1.00  0.00    -0.023 C 
ATOM      2  C   UNL     1      98.217  80.197  81.747  1.00  0.00     0.043 C 
ENDROOT
BRANCH   2   3
ATOM      3  C   UNL     1      99.090  80.095  80.547  1.00  0.00     0.155 C 
ATOM      4  O   UNL     1     100.026  79.300  80.491  1.00  0.00    -0.295 OA
BRANCH   3   5
ATOM      5  C   UNL     1      98.799  81.061  79.415  1.00  0.00     0.085 C 
BRANCH   5   6
ATOM      6  C   UNL     1      97.934  80.407  78.336  1.00  0.00     0.044 C 
BRANCH   6   7
ATOM      7  C   UNL     1      97.300  81.411  77.403  1.00  0.00    -0.044 A 
ATOM      8  C   UNL     1      97.195  82.462  75.248  1.00  0.00     0.160 A 
ATOM      9  C   UNL     1      97.781  81.534  76.109  1.00  0.00     0.054 A 
ATOM     10  C   UNL     1      96.136  83.254  75.691  1.00  0.00     0.157 A 
ATOM     11  C   UNL     1      95.663  83.118  76.997  1.00  0.00     0.050 A 
ATOM     12  C   UNL     1      96.249  82.191  77.858  1.00  0.00     0.008 A 
BRANCH   8  13
ATOM     13  O   UNL     1      97.666  82.584  73.975  1.00  0.00    -0.493 OA
ATOM     14  C   UNL     1      99.041  82.930  73.823  1.00  0.00     0.278 C 
ENDBRANCH   8  13
BRANCH  10  15
ATOM     15  O   UNL     1      95.555  84.162  74.859  1.00  0.00    -0.504 OA
ATOM     16  H   UNL     1      95.104  83.679  74.146  1.00  0.00     0.293 HD
ENDBRANCH  10  15
ENDBRANCH   6   7
ENDBRANCH   5   6
ENDBRANCH   3   5
ENDBRANCH   2   3
BRANCH   1  17
ATOM     17  C   UNL     1      96.074  79.668  82.919  1.00  0.00     0.027 C 
BRANCH  17  18
ATOM     18  C   UNL     1      96.715  80.264  84.176  1.00  0.00     0.004 C 
BRANCH  18  19
ATOM     19  C   UNL     1      96.043  81.554  84.655  1.00  0.00     0.000 C 
BRANCH  19  20
ATOM     20  C   UNL     1      95.409  82.312  83.488  1.00  0.00    -0.003 C 
ATOM     21  C   UNL     1      96.370  83.332  82.898  1.00  0.00     0.004 C 
ENDBRANCH  19  20
ENDBRANCH  18  19
ENDBRANCH  17  18
ENDBRANCH   1  17
TORSDOF 10
ENDMDL
MODEL 8
REMARK VINA RESULT:    -5.701     12.201     13.916
REMARK INTER + INTRA:          -9.527
REMARK INTER:                  -8.854
REMARK INTRA:                  -0.672
REMARK UNBOUND:                -0.659
REMARK SMILES CCCCC/C=C/C(=O)CCc1ccc(O)c(OC)c1
REMARK SMILES IDX 6 1 7 2 8 3 9 4 10 5 11 6 12 7 17 8 20 9 15 10 14 11 13 12
REMARK SMILES IDX 18 13 19 14 16 15 5 17 4 18 3 19 2 20 1 21
REMARK H PARENT 16 16
REMARK Flexibility Score: inf
ROOT
ATOM      1  C   UNL     1      97.099  81.676  81.361  1.00  0.00    -0.023 C 
ATOM      2  C   UNL     1      96.714  82.342  82.456  1.00  0.00     0.043 C 
ENDROOT
BRANCH   2   3
ATOM      3  C   UNL     1      97.149  81.874  83.800  1.00  0.00     0.155 C 
ATOM      4  O   UNL     1      98.299  81.496  84.016  1.00  0.00    -0.295 OA
BRANCH   3   5
ATOM      5  C   UNL     1      96.084  81.836  84.880  1.00  0.00     0.085 C 
BRANCH   5   6
ATOM      6  C   UNL     1      94.719  81.461  84.301  1.00  0.00     0.044 C 
BRANCH   6   7
ATOM      7  C   UNL     1      93.568  82.021  85.102  1.00  0.00    -0.044 A 
ATOM      8  C   UNL     1      91.248  81.967  85.715  1.00  0.00     0.160 A 
ATOM      9  C   UNL     1      92.311  81.450  84.974  1.00  0.00     0.054 A 
ATOM     10  C   UNL     1      91.455  83.047  86.573  1.00  0.00     0.157 A 
ATOM     11  C   UNL     1      92.726  83.611  86.690  1.00  0.00     0.050 A 
ATOM     12  C   UNL     1      93.789  83.094  85.949  1.00  0.00     0.008 A 
BRANCH   8  13
ATOM     13  O   UNL     1      90.012  81.408  85.592  1.00  0.00    -0.493 OA
ATOM     14  C   UNL     1      89.798  80.158  86.243  1.00  0.00     0.278 C 
ENDBRANCH   8  13
BRANCH  10  15
ATOM     15  O   UNL     1      90.425  83.561  87.301  1.00  0.00    -0.504 OA
ATOM     16  H   UNL     1      89.876  84.106  86.712  1.00  0.00     0.293 HD
ENDBRANCH  10  15
ENDBRANCH   6   7
ENDBRANCH   5   6
ENDBRANCH   3   5
ENDBRANCH   2   3
BRANCH   1  17
ATOM     17  C   UNL     1      96.703  82.083  79.971  1.00  0.00     0.027 C 
BRANCH  17  18
ATOM     18  C   UNL     1      97.815  81.861  78.940  1.00  0.00     0.004 C 
BRANCH  18  19
ATOM     19  C   UNL     1      97.310  81.819  77.494  1.00  0.00     0.000 C 
BRANCH  19  20
ATOM     20  C   UNL     1      96.008  82.606  77.341  1.00  0.00    -0.003 C 
ATOM     21  C   UNL     1      95.941  83.315  75.998  1.00  0.00     0.004 C 
ENDBRANCH  19  20
ENDBRANCH  18  19
ENDBRANCH  17  18
ENDBRANCH   1  17
TORSDOF 10
ENDMDL
MODEL 9
REMARK VINA RESULT:    -5.631     13.946     16.401
REMARK INTER + INTRA:          -9.417
REMARK INTER:                  -8.344
REMARK INTRA:                  -1.072
REMARK UNBOUND:                -0.659
REMARK SMILES CCCCC/C=C/C(=O)CCc1ccc(O)c(OC)c1
REMARK SMILES IDX 6 1 7 2 8 3 9 4 10 5 11 6 12 7 17 8 20 9 15 10 14 11 13 12
REMARK SMILES IDX 18 13 19 14 16 15 5 17 4 18 3 19 2 20 1 21
REMARK H PARENT 16 16
REMARK Flexibility Score: inf
ROOT
ATOM      1  C   UNL     1      88.522  98.806  67.979  1.00  0.00    -0.023 C 
ATOM      2  C   UNL     1      88.346  99.185  66.707  1.00  0.00     0.043 C 
ENDROOT
BRANCH   2   3
ATOM      3  C   UNL     1      87.298 100.186  66.369  1.00  0.00     0.155 C 
ATOM      4  O   UNL     1      86.152  99.851  66.077  1.00  0.00    -0.295 OA
BRANCH   3   5
ATOM      5  C   UNL     1      87.731 101.639  66.354  1.00  0.00     0.085 C 
BRANCH   5   6
ATOM      6  C   UNL     1      88.993 101.851  67.190  1.00  0.00     0.044 C 
BRANCH   6   7
ATOM      7  C   UNL     1      90.210 102.160  66.350  1.00  0.00    -0.044 A 
ATOM      8  C   UNL     1      91.599 103.757  65.219  1.00  0.00     0.160 A 
ATOM      9  C   UNL     1      90.475 103.473  65.995  1.00  0.00     0.054 A 
ATOM     10  C   UNL     1      92.443 102.725  64.808  1.00  0.00     0.157 A 
ATOM     11  C   UNL     1      92.162 101.408  65.173  1.00  0.00     0.050 A 
ATOM     12  C   UNL     1      91.038 101.124  65.949  1.00  0.00     0.008 A 
BRANCH   8  13
ATOM     13  O   UNL     1      91.862 105.047  64.869  1.00  0.00    -0.493 OA
ATOM     14  C   UNL     1      91.088 105.602  63.808  1.00  0.00     0.278 C 
ENDBRANCH   8  13
BRANCH  10  15
ATOM     15  O   UNL     1      93.543 102.990  64.051  1.00  0.00    -0.504 OA
ATOM     16  H   UNL     1      93.442 102.538  63.196  1.00  0.00     0.293 HD
ENDBRANCH  10  15
ENDBRANCH   6   7
ENDBRANCH   5   6
ENDBRANCH   3   5
ENDBRANCH   2   3
BRANCH   1  17
ATOM     17  C   UNL     1      89.556  97.802  68.400  1.00  0.00     0.027 C 
BRANCH  17  18
ATOM     18  C   UNL     1      89.854  97.841  69.903  1.00  0.00     0.004 C 
BRANCH  18  19
ATOM     19  C   UNL     1      89.970  99.259  70.470  1.00  0.00     0.000 C 
BRANCH  19  20
ATOM     20  C   UNL     1      91.360  99.844  70.214  1.00  0.00    -0.003 C 
ATOM     21  C   UNL     1      91.299 101.345  69.982  1.00  0.00     0.004 C 
ENDBRANCH  19  20
ENDBRANCH  18  19
ENDBRANCH  17  18
ENDBRANCH   1  17
TORSDOF 10
ENDMDL
MODEL 10
REMARK VINA RESULT:    -5.545     11.428     13.214
REMARK INTER + INTRA:          -9.284
REMARK INTER:                  -7.771
REMARK INTRA:                  -1.513
REMARK UNBOUND:                -0.659
REMARK SMILES CCCCC/C=C/C(=O)CCc1ccc(O)c(OC)c1
REMARK SMILES IDX 6 1 7 2 8 3 9 4 10 5 11 6 12 7 17 8 20 9 15 10 14 11 13 12
REMARK SMILES IDX 18 13 19 14 16 15 5 17 4 18 3 19 2 20 1 21
REMARK H PARENT 16 16
REMARK Flexibility Score: inf
ROOT
ATOM      1  C   UNL     1      88.450  99.554  67.083  1.00  0.00    -0.023 C 
ATOM      2  C   UNL     1      88.427  98.875  68.236  1.00  0.00     0.043 C 
ENDROOT
BRANCH   2   3
ATOM      3  C   UNL     1      89.627  98.111  68.671  1.00  0.00     0.155 C 
ATOM      4  O   UNL     1      90.331  97.498  67.871  1.00  0.00    -0.295 OA
BRANCH   3   5
ATOM      5  C   UNL     1      89.909  98.084  70.161  1.00  0.00     0.085 C 
BRANCH   5   6
ATOM      6  C   UNL     1      89.604  99.436  70.808  1.00  0.00     0.044 C 
BRANCH   6   7
ATOM      7  C   UNL     1      90.785 100.378  70.783  1.00  0.00    -0.044 A 
ATOM      8  C   UNL     1      93.045 100.888  71.408  1.00  0.00     0.160 A 
ATOM      9  C   UNL     1      91.955 100.018  71.432  1.00  0.00     0.054 A 
ATOM     10  C   UNL     1      92.950 102.107  70.737  1.00  0.00     0.157 A 
ATOM     11  C   UNL     1      91.764 102.456  70.089  1.00  0.00     0.050 A 
ATOM     12  C   UNL     1      90.675 101.586  70.113  1.00  0.00     0.008 A 
BRANCH   8  13
ATOM     13  O   UNL     1      94.197 100.536  72.044  1.00  0.00    -0.493 OA
ATOM     14  C   UNL     1      94.074 100.009  73.364  1.00  0.00     0.278 C 
ENDBRANCH   8  13
BRANCH  10  15
ATOM     15  O   UNL     1      94.007 102.965  70.706  1.00  0.00    -0.504 OA
ATOM     16  H   UNL     1      94.197 103.249  71.617  1.00  0.00     0.293 HD
ENDBRANCH  10  15
ENDBRANCH   6   7
ENDBRANCH   5   6
ENDBRANCH   3   5
ENDBRANCH   2   3
BRANCH   1  17
ATOM     17  C   UNL     1      87.281 100.348  66.574  1.00  0.00     0.027 C 
BRANCH  17  18
ATOM     18  C   UNL     1      87.641 101.798  66.233  1.00  0.00     0.004 C 
BRANCH  18  19
ATOM     19  C   UNL     1      88.739 102.384  67.127  1.00  0.00     0.000 C 
BRANCH  19  20
ATOM     20  C   UNL     1      89.886 102.954  66.291  1.00  0.00    -0.003 C 
ATOM     21  C   UNL     1      91.019 101.951  66.143  1.00  0.00     0.004 C 
ENDBRANCH  19  20
ENDBRANCH  18  19
ENDBRANCH  17  18
ENDBRANCH   1  17
TORSDOF 10
ENDMDL
