MODEL 1
REMARK VINA RESULT:    -6.721      0.000      0.000
REMARK INTER + INTRA:         -11.327
REMARK INTER:                 -10.453
REMARK INTRA:                  -0.874
REMARK UNBOUND:                -0.874
REMARK SMILES COc1cc(CNC(=O)CCCC/C=C/C(C)C)ccc1O
REMARK SMILES IDX 10 1 8 2 7 3 9 5 6 6 5 7 3 8 21 9 4 10 20 11 19 12 2 13 1 14
REMARK SMILES IDX 22 15 11 17 12 18 13 19 14 20 15 21 16 22 17 23 18 24
REMARK H PARENT 7 4 22 16
REMARK Flexibility Score: inf
ROOT
ATOM      1  C   UNL     1      93.891  94.990  75.753  1.00  0.00     0.100 C 
ENDROOT
BRANCH   1   2
ATOM      2  C   UNL     1      92.596  94.339  75.475  1.00  0.00     0.220 C 
ATOM      3  N   UNL     1      91.504  94.615  76.242  1.00  0.00    -0.352 N 
ATOM      4  H   UNL     1      91.669  95.261  77.002  1.00  0.00     0.163 HD
ATOM      5  O   UNL     1      92.527  93.548  74.503  1.00  0.00    -0.275 OA
BRANCH   3   6
ATOM      6  C   UNL     1      90.203  94.064  76.037  1.00  0.00     0.151 C 
BRANCH   6   7
ATOM      7  C   UNL     1      90.116  92.665  76.537  1.00  0.00    -0.025 A 
ATOM      8  C   UNL     1      89.665  90.281  76.122  1.00  0.00     0.160 A 
ATOM      9  C   UNL     1      89.964  89.989  77.469  1.00  0.00     0.157 A 
ATOM     10  C   UNL     1      89.741  91.614  75.670  1.00  0.00     0.056 A 
ATOM     11  C   UNL     1      90.319  91.029  78.350  1.00  0.00     0.050 A 
ATOM     12  C   UNL     1      90.405  92.356  77.887  1.00  0.00     0.009 A 
BRANCH   8  13
ATOM     13  O   UNL     1      89.254  89.281  75.277  1.00  0.00    -0.493 OA
ATOM     14  C   UNL     1      90.156  89.030  74.184  1.00  0.00     0.278 C 
ENDBRANCH   8  13
BRANCH   9  15
ATOM     15  O   UNL     1      89.912  88.714  77.933  1.00  0.00    -0.504 OA
ATOM     16  H   UNL     1      89.690  88.721  78.867  1.00  0.00     0.293 HD
ENDBRANCH   9  15
ENDBRANCH   6   7
ENDBRANCH   3   6
ENDBRANCH   1   2
BRANCH   1  17
ATOM     17  C   UNL     1      95.084  94.048  75.439  1.00  0.00     0.010 C 
BRANCH  17  18
ATOM     18  C   UNL     1      96.425  94.548  76.045  1.00  0.00     0.005 C 
BRANCH  18  19
ATOM     19  C   UNL     1      96.245  95.832  76.899  1.00  0.00     0.027 C 
BRANCH  19  20
ATOM     20  C   UNL     1      96.599  95.616  78.294  1.00  0.00    -0.031 C 
ATOM     21  C   UNL     1      95.714  95.307  79.259  1.00  0.00    -0.028 C 
BRANCH  21  22
ATOM     22  C   UNL     1      96.095  95.075  80.652  1.00  0.00     0.005 C 
ATOM     23  C   UNL     1      95.644  93.677  81.161  1.00  0.00     0.012 C 
ATOM     24  C   UNL     1      97.624  95.260  80.828  1.00  0.00     0.012 C 
ENDBRANCH  21  22
ENDBRANCH  19  20
ENDBRANCH  18  19
ENDBRANCH  17  18
ENDBRANCH   1  17
TORSDOF 10
ENDMDL
MODEL 2
REMARK VINA RESULT:    -6.532      1.172      2.189
REMARK INTER + INTRA:         -11.034
REMARK INTER:                 -10.212
REMARK INTRA:                  -0.822
REMARK UNBOUND:                -0.874
REMARK SMILES COc1cc(CNC(=O)CCCC/C=C/C(C)C)ccc1O
REMARK SMILES IDX 10 1 8 2 7 3 9 5 6 6 5 7 3 8 21 9 4 10 20 11 19 12 2 13 1 14
REMARK SMILES IDX 22 15 11 17 12 18 13 19 14 20 15 21 16 22 17 23 18 24
REMARK H PARENT 7 4 22 16
REMARK Flexibility Score: inf
ROOT
ATOM      1  C   UNL     1      94.205  94.367  75.440  1.00  0.00     0.100 C 
ENDROOT
BRANCH   1   2
ATOM      2  C   UNL     1      92.773  94.014  75.494  1.00  0.00     0.220 C 
ATOM      3  N   UNL     1      92.187  93.684  76.678  1.00  0.00    -0.352 N 
ATOM      4  H   UNL     1      92.808  93.681  77.476  1.00  0.00     0.163 HD
ATOM      5  O   UNL     1      92.113  94.051  74.427  1.00  0.00    -0.275 OA
BRANCH   3   6
ATOM      6  C   UNL     1      90.806  93.359  76.842  1.00  0.00     0.151 C 
BRANCH   6   7
ATOM      7  C   UNL     1      90.598  91.889  76.940  1.00  0.00    -0.025 A 
ATOM      8  C   UNL     1      90.000  89.907  78.273  1.00  0.00     0.160 A 
ATOM      9  C   UNL     1      90.180  89.089  77.138  1.00  0.00     0.157 A 
ATOM     10  C   UNL     1      90.213  91.297  78.164  1.00  0.00     0.056 A 
ATOM     11  C   UNL     1      90.582  89.661  75.916  1.00  0.00     0.050 A 
ATOM     12  C   UNL     1      90.781  91.052  75.814  1.00  0.00     0.009 A 
BRANCH   8  13
ATOM     13  O   UNL     1      89.672  89.346  79.481  1.00  0.00    -0.493 OA
ATOM     14  C   UNL     1      90.416  89.874  80.595  1.00  0.00     0.278 C 
ENDBRANCH   8  13
BRANCH   9  15
ATOM     15  O   UNL     1      89.970  87.748  77.206  1.00  0.00    -0.504 OA
ATOM     16  H   UNL     1      90.296  87.332  76.406  1.00  0.00     0.293 HD
ENDBRANCH   9  15
ENDBRANCH   6   7
ENDBRANCH   3   6
ENDBRANCH   1   2
BRANCH   1  17
ATOM     17  C   UNL     1      94.909  94.114  76.800  1.00  0.00     0.010 C 
BRANCH  17  18
ATOM     18  C   UNL     1      96.423  94.466  76.772  1.00  0.00     0.005 C 
BRANCH  18  19
ATOM     19  C   UNL     1      96.798  95.541  77.828  1.00  0.00     0.027 C 
BRANCH  19  20
ATOM     20  C   UNL     1      96.516  95.096  79.185  1.00  0.00    -0.031 C 
ATOM     21  C   UNL     1      95.714  95.751  80.044  1.00  0.00    -0.028 C 
BRANCH  21  22
ATOM     22  C   UNL     1      95.429  95.276  81.397  1.00  0.00     0.005 C 
ATOM     23  C   UNL     1      95.852  93.795  81.603  1.00  0.00     0.012 C 
ATOM     24  C   UNL     1      96.110  96.196  82.443  1.00  0.00     0.012 C 
ENDBRANCH  21  22
ENDBRANCH  19  20
ENDBRANCH  18  19
ENDBRANCH  17  18
ENDBRANCH   1  17
TORSDOF 10
ENDMDL
MODEL 3
REMARK VINA RESULT:    -6.319      3.338      8.538
REMARK INTER + INTRA:         -10.702
REMARK INTER:                 -10.044
REMARK INTRA:                  -0.658
REMARK UNBOUND:                -0.874
REMARK SMILES COc1cc(CNC(=O)CCCC/C=C/C(C)C)ccc1O
REMARK SMILES IDX 10 1 8 2 7 3 9 5 6 6 5 7 3 8 21 9 4 10 20 11 19 12 2 13 1 14
REMARK SMILES IDX 22 15 11 17 12 18 13 19 14 20 15 21 16 22 17 23 18 24
REMARK H PARENT 7 4 22 16
REMARK Flexibility Score: inf
ROOT
ATOM      1  C   UNL     1      93.165  93.854  75.598  1.00  0.00     0.100 C 
ENDROOT
BRANCH   1   2
ATOM      2  C   UNL     1      94.561  94.069  76.024  1.00  0.00     0.220 C 
ATOM      3  N   UNL     1      94.837  94.605  77.246  1.00  0.00    -0.352 N 
ATOM      4  H   UNL     1      94.026  94.851  77.797  1.00  0.00     0.163 HD
ATOM      5  O   UNL     1      95.479  93.725  75.241  1.00  0.00    -0.275 OA
BRANCH   3   6
ATOM      6  C   UNL     1      96.150  94.823  77.764  1.00  0.00     0.151 C 
BRANCH   6   7
ATOM      7  C   UNL     1      96.115  95.186  79.207  1.00  0.00    -0.025 A 
ATOM      8  C   UNL     1      96.601  96.790  81.011  1.00  0.00     0.160 A 
ATOM      9  C   UNL     1      96.040  95.902  81.952  1.00  0.00     0.157 A 
ATOM     10  C   UNL     1      96.636  96.423  79.649  1.00  0.00     0.056 A 
ATOM     11  C   UNL     1      95.535  94.657  81.528  1.00  0.00     0.050 A 
ATOM     12  C   UNL     1      95.563  94.304  80.165  1.00  0.00     0.009 A 
BRANCH   8  13
ATOM     13  O   UNL     1      97.153  97.974  81.427  1.00  0.00    -0.493 OA
ATOM     14  C   UNL     1      98.058  98.566  80.476  1.00  0.00     0.278 C 
ENDBRANCH   8  13
BRANCH   9  15
ATOM     15  O   UNL     1      95.979  96.230  83.268  1.00  0.00    -0.504 OA
ATOM     16  H   UNL     1      95.675  97.136  83.360  1.00  0.00     0.293 HD
ENDBRANCH   9  15
ENDBRANCH   6   7
ENDBRANCH   3   6
ENDBRANCH   1   2
BRANCH   1  17
ATOM     17  C   UNL     1      92.337  93.131  76.695  1.00  0.00     0.010 C 
BRANCH  17  18
ATOM     18  C   UNL     1      90.900  93.704  76.844  1.00  0.00     0.005 C 
BRANCH  18  19
ATOM     19  C   UNL     1      89.838  92.589  77.045  1.00  0.00     0.027 C 
BRANCH  19  20
ATOM     20  C   UNL     1      89.774  91.683  75.909  1.00  0.00    -0.031 C 
ATOM     21  C   UNL     1      88.850  90.715  75.765  1.00  0.00    -0.028 C 
BRANCH  21  22
ATOM     22  C   UNL     1      88.793  89.827  74.604  1.00  0.00     0.005 C 
ATOM     23  C   UNL     1      88.291  90.558  73.328  1.00  0.00     0.012 C 
ATOM     24  C   UNL     1      90.178  89.175  74.359  1.00  0.00     0.012 C 
ENDBRANCH  21  22
ENDBRANCH  19  20
ENDBRANCH  18  19
ENDBRANCH  17  18
ENDBRANCH   1  17
TORSDOF 10
ENDMDL
MODEL 4
REMARK VINA RESULT:    -6.286      3.301      7.819
REMARK INTER + INTRA:         -10.651
REMARK INTER:                  -9.808
REMARK INTRA:                  -0.843
REMARK UNBOUND:                -0.874
REMARK SMILES COc1cc(CNC(=O)CCCC/C=C/C(C)C)ccc1O
REMARK SMILES IDX 10 1 8 2 7 3 9 5 6 6 5 7 3 8 21 9 4 10 20 11 19 12 2 13 1 14
REMARK SMILES IDX 22 15 11 17 12 18 13 19 14 20 15 21 16 22 17 23 18 24
REMARK H PARENT 7 4 22 16
REMARK Flexibility Score: inf
ROOT
ATOM      1  C   UNL     1      94.499  93.847  75.122  1.00  0.00     0.100 C 
ENDROOT
BRANCH   1   2
ATOM      2  C   UNL     1      95.688  94.172  75.933  1.00  0.00     0.220 C 
ATOM      3  N   UNL     1      95.805  95.390  76.532  1.00  0.00    -0.352 N 
ATOM      4  H   UNL     1      95.042  96.028  76.352  1.00  0.00     0.163 HD
ATOM      5  O   UNL     1      96.570  93.289  76.072  1.00  0.00    -0.275 OA
BRANCH   3   6
ATOM      6  C   UNL     1      96.897  95.790  77.360  1.00  0.00     0.151 C 
BRANCH   6   7
ATOM      7  C   UNL     1      96.548  95.704  78.804  1.00  0.00    -0.025 A 
ATOM      8  C   UNL     1      96.574  96.685  81.063  1.00  0.00     0.160 A 
ATOM      9  C   UNL     1      95.872  95.566  81.557  1.00  0.00     0.157 A 
ATOM     10  C   UNL     1      96.907  96.742  79.693  1.00  0.00     0.056 A 
ATOM     11  C   UNL     1      95.524  94.514  80.687  1.00  0.00     0.050 A 
ATOM     12  C   UNL     1      95.851  94.586  79.318  1.00  0.00     0.009 A 
BRANCH   8  13
ATOM     13  O   UNL     1      96.972  97.680  81.918  1.00  0.00    -0.493 OA
ATOM     14  C   UNL     1      98.366  97.626  82.274  1.00  0.00     0.278 C 
ENDBRANCH   8  13
BRANCH   9  15
ATOM     15  O   UNL     1      95.525  95.485  82.868  1.00  0.00    -0.504 OA
ATOM     16  H   UNL     1      96.179  95.942  83.402  1.00  0.00     0.293 HD
ENDBRANCH   9  15
ENDBRANCH   6   7
ENDBRANCH   3   6
ENDBRANCH   1   2
BRANCH   1  17
ATOM     17  C   UNL     1      93.522  95.050  75.031  1.00  0.00     0.010 C 
BRANCH  17  18
ATOM     18  C   UNL     1      92.034  94.634  75.205  1.00  0.00     0.005 C 
BRANCH  18  19
ATOM     19  C   UNL     1      91.595  94.620  76.694  1.00  0.00     0.027 C 
BRANCH  19  20
ATOM     20  C   UNL     1      91.443  93.266  77.207  1.00  0.00    -0.031 C 
ATOM     21  C   UNL     1      90.561  92.370  76.727  1.00  0.00    -0.028 C 
BRANCH  21  22
ATOM     22  C   UNL     1      90.440  91.008  77.245  1.00  0.00     0.005 C 
ATOM     23  C   UNL     1      90.333  90.974  78.795  1.00  0.00     0.012 C 
ATOM     24  C   UNL     1      89.229  90.292  76.591  1.00  0.00     0.012 C 
ENDBRANCH  21  22
ENDBRANCH  19  20
ENDBRANCH  18  19
ENDBRANCH  17  18
ENDBRANCH   1  17
TORSDOF 10
ENDMDL
MODEL 5
REMARK VINA RESULT:    -5.920      6.664      9.153
REMARK INTER + INTRA:         -10.081
REMARK INTER:                  -9.414
REMARK INTRA:                  -0.667
REMARK UNBOUND:                -0.874
REMARK SMILES COc1cc(CNC(=O)CCCC/C=C/C(C)C)ccc1O
REMARK SMILES IDX 10 1 8 2 7 3 9 5 6 6 5 7 3 8 21 9 4 10 20 11 19 12 2 13 1 14
REMARK SMILES IDX 22 15 11 17 12 18 13 19 14 20 15 21 16 22 17 23 18 24
REMARK H PARENT 7 4 22 16
REMARK Flexibility Score: inf
ROOT
ATOM      1  C   UNL     1      94.578  97.445  73.050  1.00  0.00     0.100 C 
ENDROOT
BRANCH   1   2
ATOM      2  C   UNL     1      93.654  98.549  72.729  1.00  0.00     0.220 C 
ATOM      3  N   UNL     1      93.097  98.646  71.489  1.00  0.00    -0.352 N 
ATOM      4  H   UNL     1      93.387  97.932  70.834  1.00  0.00     0.163 HD
ATOM      5  O   UNL     1      93.381  99.375  73.633  1.00  0.00    -0.275 OA
BRANCH   3   6
ATOM      6  C   UNL     1      92.169  99.654  71.088  1.00  0.00     0.151 C 
BRANCH   6   7
ATOM      7  C   UNL     1      91.529  99.322  69.786  1.00  0.00    -0.025 A 
ATOM      8  C   UNL     1      91.128  99.853  67.415  1.00  0.00     0.160 A 
ATOM      9  C   UNL     1      90.333  98.694  67.290  1.00  0.00     0.157 A 
ATOM     10  C   UNL     1      91.715 100.157  68.661  1.00  0.00     0.056 A 
ATOM     11  C   UNL     1      90.123  97.863  68.408  1.00  0.00     0.050 A 
ATOM     12  C   UNL     1      90.724  98.168  69.644  1.00  0.00     0.009 A 
BRANCH   8  13
ATOM     13  O   UNL     1      91.282 100.700  66.347  1.00  0.00    -0.493 OA
ATOM     14  C   UNL     1      92.652 101.020  66.045  1.00  0.00     0.278 C 
ENDBRANCH   8  13
BRANCH   9  15
ATOM     15  O   UNL     1      89.764  98.365  66.102  1.00  0.00    -0.504 OA
ATOM     16  H   UNL     1      89.702  97.410  66.029  1.00  0.00     0.293 HD
ENDBRANCH   9  15
ENDBRANCH   6   7
ENDBRANCH   3   6
ENDBRANCH   1   2
BRANCH   1  17
ATOM     17  C   UNL     1      94.254  96.809  74.429  1.00  0.00     0.010 C 
BRANCH  17  18
ATOM     18  C   UNL     1      95.495  96.159  75.102  1.00  0.00     0.005 C 
BRANCH  18  19
ATOM     19  C   UNL     1      95.110  94.984  76.042  1.00  0.00     0.027 C 
BRANCH  19  20
ATOM     20  C   UNL     1      93.671  94.770  76.088  1.00  0.00    -0.031 C 
ATOM     21  C   UNL     1      93.092  93.581  76.335  1.00  0.00    -0.028 C 
BRANCH  21  22
ATOM     22  C   UNL     1      91.642  93.393  76.397  1.00  0.00     0.005 C 
ATOM     23  C   UNL     1      91.204  92.603  77.661  1.00  0.00     0.012 C 
ATOM     24  C   UNL     1      90.920  94.763  76.323  1.00  0.00     0.012 C 
ENDBRANCH  21  22
ENDBRANCH  19  20
ENDBRANCH  18  19
ENDBRANCH  17  18
ENDBRANCH   1  17
TORSDOF 10
ENDMDL
MODEL 6
REMARK VINA RESULT:    -5.804     26.964     29.737
REMARK INTER + INTRA:          -9.900
REMARK INTER:                  -8.972
REMARK INTRA:                  -0.929
REMARK UNBOUND:                -0.874
REMARK SMILES COc1cc(CNC(=O)CCCC/C=C/C(C)C)ccc1O
REMARK SMILES IDX 10 1 8 2 7 3 9 5 6 6 5 7 3 8 21 9 4 10 20 11 19 12 2 13 1 14
REMARK SMILES IDX 22 15 11 17 12 18 13 19 14 20 15 21 16 22 17 23 18 24
REMARK H PARENT 7 4 22 16
REMARK Flexibility Score: inf
ROOT
ATOM      1  C   UNL     1      82.856  64.243  75.577  1.00  0.00     0.100 C 
ENDROOT
BRANCH   1   2
ATOM      2  C   UNL     1      84.019  63.702  76.306  1.00  0.00     0.220 C 
ATOM      3  N   UNL     1      83.954  63.486  77.650  1.00  0.00    -0.352 N 
ATOM      4  H   UNL     1      83.077  63.745  78.081  1.00  0.00     0.163 HD
ATOM      5  O   UNL     1      85.054  63.428  75.650  1.00  0.00    -0.275 OA
BRANCH   3   6
ATOM      6  C   UNL     1      85.010  62.938  78.440  1.00  0.00     0.151 C 
BRANCH   6   7
ATOM      7  C   UNL     1      85.409  63.863  79.536  1.00  0.00    -0.025 A 
ATOM      8  C   UNL     1      86.498  65.944  80.274  1.00  0.00     0.160 A 
ATOM      9  C   UNL     1      86.161  65.647  81.611  1.00  0.00     0.157 A 
ATOM     10  C   UNL     1      86.121  65.049  79.250  1.00  0.00     0.056 A 
ATOM     11  C   UNL     1      85.468  64.457  81.913  1.00  0.00     0.050 A 
ATOM     12  C   UNL     1      85.086  63.576  80.882  1.00  0.00     0.009 A 
BRANCH   8  13
ATOM     13  O   UNL     1      87.229  67.067  79.982  1.00  0.00    -0.493 OA
ATOM     14  C   UNL     1      87.680  67.136  78.617  1.00  0.00     0.278 C 
ENDBRANCH   8  13
BRANCH   9  15
ATOM     15  O   UNL     1      86.497  66.493  82.618  1.00  0.00    -0.504 OA
ATOM     16  H   UNL     1      86.671  67.366  82.259  1.00  0.00     0.293 HD
ENDBRANCH   9  15
ENDBRANCH   6   7
ENDBRANCH   3   6
ENDBRANCH   1   2
BRANCH   1  17
ATOM     17  C   UNL     1      81.948  65.099  76.502  1.00  0.00     0.010 C 
BRANCH  17  18
ATOM     18  C   UNL     1      81.631  66.500  75.909  1.00  0.00     0.005 C 
BRANCH  18  19
ATOM     19  C   UNL     1      82.786  67.044  75.026  1.00  0.00     0.027 C 
BRANCH  19  20
ATOM     20  C   UNL     1      82.352  67.317  73.664  1.00  0.00    -0.031 C 
ATOM     21  C   UNL     1      81.103  67.105  73.211  1.00  0.00    -0.028 C 
BRANCH  21  22
ATOM     22  C   UNL     1      80.684  67.405  71.843  1.00  0.00     0.005 C 
ATOM     23  C   UNL     1      81.842  67.987  70.986  1.00  0.00     0.012 C 
ATOM     24  C   UNL     1      80.085  66.139  71.176  1.00  0.00     0.012 C 
ENDBRANCH  21  22
ENDBRANCH  19  20
ENDBRANCH  18  19
ENDBRANCH  17  18
ENDBRANCH   1  17
TORSDOF 10
ENDMDL
MODEL 7
REMARK VINA RESULT:    -5.688     19.486     21.250
REMARK INTER + INTRA:          -9.721
REMARK INTER:                  -7.611
REMARK INTRA:                  -2.110
REMARK UNBOUND:                -0.874
REMARK SMILES COc1cc(CNC(=O)CCCC/C=C/C(C)C)ccc1O
REMARK SMILES IDX 10 1 8 2 7 3 9 5 6 6 5 7 3 8 21 9 4 10 20 11 19 12 2 13 1 14
REMARK SMILES IDX 22 15 11 17 12 18 13 19 14 20 15 21 16 22 17 23 18 24
REMARK H PARENT 7 4 22 16
REMARK Flexibility Score: inf
ROOT
ATOM      1  C   UNL     1      74.258  90.662  65.397  1.00  0.00     0.100 C 
ENDROOT
BRANCH   1   2
ATOM      2  C   UNL     1      75.435  90.115  64.695  1.00  0.00     0.220 C 
ATOM      3  N   UNL     1      76.511  89.663  65.398  1.00  0.00    -0.352 N 
ATOM      4  H   UNL     1      76.435  89.757  66.402  1.00  0.00     0.163 HD
ATOM      5  O   UNL     1      75.405  90.060  63.442  1.00  0.00    -0.275 OA
BRANCH   3   6
ATOM      6  C   UNL     1      77.682  89.088  64.817  1.00  0.00     0.151 C 
BRANCH   6   7
ATOM      7  C   UNL     1      77.837  87.658  65.200  1.00  0.00    -0.025 A 
ATOM      8  C   UNL     1      77.805  85.275  64.584  1.00  0.00     0.160 A 
ATOM      9  C   UNL     1      78.147  84.927  65.908  1.00  0.00     0.157 A 
ATOM     10  C   UNL     1      77.651  86.635  64.244  1.00  0.00     0.056 A 
ATOM     11  C   UNL     1      78.317  85.936  66.877  1.00  0.00     0.050 A 
ATOM     12  C   UNL     1      78.173  87.292  66.524  1.00  0.00     0.009 A 
BRANCH   8  13
ATOM     13  O   UNL     1      77.574  84.293  63.654  1.00  0.00    -0.493 OA
ATOM     14  C   UNL     1      76.187  83.936  63.509  1.00  0.00     0.278 C 
ENDBRANCH   8  13
BRANCH   9  15
ATOM     15  O   UNL     1      78.316  83.628  66.265  1.00  0.00    -0.504 OA
ATOM     16  H   UNL     1      77.459  83.201  66.334  1.00  0.00     0.293 HD
ENDBRANCH   9  15
ENDBRANCH   6   7
ENDBRANCH   3   6
ENDBRANCH   1   2
BRANCH   1  17
ATOM     17  C   UNL     1      74.656  91.361  66.725  1.00  0.00     0.010 C 
BRANCH  17  18
ATOM     18  C   UNL     1      74.025  90.686  67.976  1.00  0.00     0.005 C 
BRANCH  18  19
ATOM     19  C   UNL     1      75.046  89.812  68.753  1.00  0.00     0.027 C 
BRANCH  19  20
ATOM     20  C   UNL     1      75.042  88.430  68.296  1.00  0.00    -0.031 C 
ATOM     21  C   UNL     1      73.934  87.756  67.936  1.00  0.00    -0.028 C 
BRANCH  21  22
ATOM     22  C   UNL     1      73.955  86.373  67.461  1.00  0.00     0.005 C 
ATOM     23  C   UNL     1      74.404  86.266  65.978  1.00  0.00     0.012 C 
ATOM     24  C   UNL     1      74.859  85.506  68.376  1.00  0.00     0.012 C 
ENDBRANCH  21  22
ENDBRANCH  19  20
ENDBRANCH  18  19
ENDBRANCH  17  18
ENDBRANCH   1  17
TORSDOF 10
ENDMDL
MODEL 8
REMARK VINA RESULT:    -5.644      5.557      8.675
REMARK INTER + INTRA:          -9.653
REMARK INTER:                  -9.106
REMARK INTRA:                  -0.547
REMARK UNBOUND:                -0.874
REMARK SMILES COc1cc(CNC(=O)CCCC/C=C/C(C)C)ccc1O
REMARK SMILES IDX 10 1 8 2 7 3 9 5 6 6 5 7 3 8 21 9 4 10 20 11 19 12 2 13 1 14
REMARK SMILES IDX 22 15 11 17 12 18 13 19 14 20 15 21 16 22 17 23 18 24
REMARK H PARENT 7 4 22 16
REMARK Flexibility Score: inf
ROOT
ATOM      1  C   UNL     1      94.481 100.122  73.059  1.00  0.00     0.100 C 
ENDROOT
BRANCH   1   2
ATOM      2  C   UNL     1      95.281  98.883  73.098  1.00  0.00     0.220 C 
ATOM      3  N   UNL     1      95.064  97.950  74.067  1.00  0.00    -0.352 N 
ATOM      4  H   UNL     1      94.350  98.192  74.740  1.00  0.00     0.163 HD
ATOM      5  O   UNL     1      96.144  98.707  72.204  1.00  0.00    -0.275 OA
BRANCH   3   6
ATOM      6  C   UNL     1      95.760  96.708  74.174  1.00  0.00     0.151 C 
BRANCH   6   7
ATOM      7  C   UNL     1      95.268  95.903  75.325  1.00  0.00    -0.025 A 
ATOM      8  C   UNL     1      93.496  94.555  76.377  1.00  0.00     0.160 A 
ATOM      9  C   UNL     1      94.321  94.348  77.503  1.00  0.00     0.157 A 
ATOM     10  C   UNL     1      93.976  95.331  75.301  1.00  0.00     0.056 A 
ATOM     11  C   UNL     1      95.604  94.929  77.549  1.00  0.00     0.050 A 
ATOM     12  C   UNL     1      96.078  95.692  76.465  1.00  0.00     0.009 A 
BRANCH   8  13
ATOM     13  O   UNL     1      92.222  94.047  76.356  1.00  0.00    -0.493 OA
ATOM     14  C   UNL     1      92.146  92.669  75.945  1.00  0.00     0.278 C 
ENDBRANCH   8  13
BRANCH   9  15
ATOM     15  O   UNL     1      93.894  93.596  78.550  1.00  0.00    -0.504 OA
ATOM     16  H   UNL     1      94.653  93.243  79.021  1.00  0.00     0.293 HD
ENDBRANCH   9  15
ENDBRANCH   6   7
ENDBRANCH   3   6
ENDBRANCH   1   2
BRANCH   1  17
ATOM     17  C   UNL     1      92.981  99.827  72.784  1.00  0.00     0.010 C 
BRANCH  17  18
ATOM     18  C   UNL     1      92.600  99.981  71.285  1.00  0.00     0.005 C 
BRANCH  18  19
ATOM     19  C   UNL     1      92.533  98.615  70.549  1.00  0.00     0.027 C 
BRANCH  19  20
ATOM     20  C   UNL     1      91.777  98.698  69.308  1.00  0.00    -0.031 C 
ATOM     21  C   UNL     1      90.606  98.072  69.094  1.00  0.00    -0.028 C 
BRANCH  21  22
ATOM     22  C   UNL     1      89.853  98.186  67.845  1.00  0.00     0.005 C 
ATOM     23  C   UNL     1      90.449  99.259  66.892  1.00  0.00     0.012 C 
ATOM     24  C   UNL     1      89.771  96.807  67.141  1.00  0.00     0.012 C 
ENDBRANCH  21  22
ENDBRANCH  19  20
ENDBRANCH  18  19
ENDBRANCH  17  18
ENDBRANCH   1  17
TORSDOF 10
ENDMDL
MODEL 9
REMARK VINA RESULT:    -5.639      5.590      9.109
REMARK INTER + INTRA:          -9.644
REMARK INTER:                  -9.020
REMARK INTRA:                  -0.624
REMARK UNBOUND:                -0.874
REMARK SMILES COc1cc(CNC(=O)CCCC/C=C/C(C)C)ccc1O
REMARK SMILES IDX 10 1 8 2 7 3 9 5 6 6 5 7 3 8 21 9 4 10 20 11 19 12 2 13 1 14
REMARK SMILES IDX 22 15 11 17 12 18 13 19 14 20 15 21 16 22 17 23 18 24
REMARK H PARENT 7 4 22 16
REMARK Flexibility Score: inf
ROOT
ATOM      1  C   UNL     1      94.645  99.795  73.256  1.00  0.00     0.100 C 
ENDROOT
BRANCH   1   2
ATOM      2  C   UNL     1      95.324  98.484  73.247  1.00  0.00     0.220 C 
ATOM      3  N   UNL     1      95.218  97.644  74.314  1.00  0.00    -0.352 N 
ATOM      4  H   UNL     1      94.674  98.002  75.087  1.00  0.00     0.163 HD
ATOM      5  O   UNL     1      95.976  98.162  72.224  1.00  0.00    -0.275 OA
BRANCH   3   6
ATOM      6  C   UNL     1      95.808  96.345  74.391  1.00  0.00     0.151 C 
BRANCH   6   7
ATOM      7  C   UNL     1      95.446  95.655  75.659  1.00  0.00    -0.025 A 
ATOM      8  C   UNL     1      95.961  95.100  78.002  1.00  0.00     0.160 A 
ATOM      9  C   UNL     1      94.763  94.361  78.091  1.00  0.00     0.157 A 
ATOM     10  C   UNL     1      96.292  95.737  76.788  1.00  0.00     0.056 A 
ATOM     11  C   UNL     1      93.919  94.255  76.968  1.00  0.00     0.050 A 
ATOM     12  C   UNL     1      94.252  94.904  75.763  1.00  0.00     0.009 A 
BRANCH   8  13
ATOM     13  O   UNL     1      96.818  95.152  79.072  1.00  0.00    -0.493 OA
ATOM     14  C   UNL     1      96.735  96.372  79.831  1.00  0.00     0.278 C 
ENDBRANCH   8  13
BRANCH   9  15
ATOM     15  O   UNL     1      94.408  93.747  79.249  1.00  0.00    -0.504 OA
ATOM     16  H   UNL     1      93.455  93.633  79.272  1.00  0.00     0.293 HD
ENDBRANCH   9  15
ENDBRANCH   6   7
ENDBRANCH   3   6
ENDBRANCH   1   2
BRANCH   1  17
ATOM     17  C   UNL     1      93.120  99.651  73.004  1.00  0.00     0.010 C 
BRANCH  17  18
ATOM     18  C   UNL     1      92.726  99.896  71.520  1.00  0.00     0.005 C 
BRANCH  18  19
ATOM     19  C   UNL     1      92.637  98.575  70.708  1.00  0.00     0.027 C 
BRANCH  19  20
ATOM     20  C   UNL     1      91.867  98.737  69.484  1.00  0.00    -0.031 C 
ATOM     21  C   UNL     1      90.719  98.085  69.221  1.00  0.00    -0.028 C 
BRANCH  21  22
ATOM     22  C   UNL     1      89.951  98.278  67.991  1.00  0.00     0.005 C 
ATOM     23  C   UNL     1      90.541  99.405  67.098  1.00  0.00     0.012 C 
ATOM     24  C   UNL     1      89.852  96.945  67.206  1.00  0.00     0.012 C 
ENDBRANCH  21  22
ENDBRANCH  19  20
ENDBRANCH  18  19
ENDBRANCH  17  18
ENDBRANCH   1  17
TORSDOF 10
ENDMDL
MODEL 10
REMARK VINA RESULT:    -5.553     25.756     28.594
REMARK INTER + INTRA:          -9.510
REMARK INTER:                  -7.657
REMARK INTRA:                  -1.853
REMARK UNBOUND:                -0.874
REMARK SMILES COc1cc(CNC(=O)CCCC/C=C/C(C)C)ccc1O
REMARK SMILES IDX 10 1 8 2 7 3 9 5 6 6 5 7 3 8 21 9 4 10 20 11 19 12 2 13 1 14
REMARK SMILES IDX 22 15 11 17 12 18 13 19 14 20 15 21 16 22 17 23 18 24
REMARK H PARENT 7 4 22 16
REMARK Flexibility Score: inf
ROOT
ATOM      1  C   UNL     1      80.183  65.120  73.765  1.00  0.00     0.100 C 
ENDROOT
BRANCH   1   2
ATOM      2  C   UNL     1      81.527  64.806  74.288  1.00  0.00     0.220 C 
ATOM      3  N   UNL     1      81.765  64.811  75.630  1.00  0.00    -0.352 N 
ATOM      4  H   UNL     1      80.971  65.064  76.203  1.00  0.00     0.163 HD
ATOM      5  O   UNL     1      82.429  64.514  73.467  1.00  0.00    -0.275 OA
BRANCH   3   6
ATOM      6  C   UNL     1      83.017  64.491  76.237  1.00  0.00     0.151 C 
BRANCH   6   7
ATOM      7  C   UNL     1      83.788  65.718  76.579  1.00  0.00    -0.025 A 
ATOM      8  C   UNL     1      85.905  66.785  77.243  1.00  0.00     0.160 A 
ATOM      9  C   UNL     1      85.278  68.048  77.213  1.00  0.00     0.157 A 
ATOM     10  C   UNL     1      85.154  65.633  76.928  1.00  0.00     0.056 A 
ATOM     11  C   UNL     1      83.911  68.146  76.886  1.00  0.00     0.050 A 
ATOM     12  C   UNL     1      83.173  66.991  76.561  1.00  0.00     0.009 A 
BRANCH   8  13
ATOM     13  O   UNL     1      87.218  66.678  77.624  1.00  0.00    -0.493 OA
ATOM     14  C   UNL     1      87.402  66.168  78.958  1.00  0.00     0.278 C 
ENDBRANCH   8  13
BRANCH   9  15
ATOM     15  O   UNL     1      85.975  69.178  77.498  1.00  0.00    -0.504 OA
ATOM     16  H   UNL     1      86.875  69.090  77.177  1.00  0.00     0.293 HD
ENDBRANCH   9  15
ENDBRANCH   6   7
ENDBRANCH   3   6
ENDBRANCH   1   2
BRANCH   1  17
ATOM     17  C   UNL     1      80.235  65.549  72.274  1.00  0.00     0.010 C 
BRANCH  17  18
ATOM     18  C   UNL     1      80.237  67.092  72.088  1.00  0.00     0.005 C 
BRANCH  18  19
ATOM     19  C   UNL     1      81.282  67.560  71.039  1.00  0.00     0.027 C 
BRANCH  19  20
ATOM     20  C   UNL     1      82.624  67.629  71.597  1.00  0.00    -0.031 C 
ATOM     21  C   UNL     1      82.942  68.298  72.720  1.00  0.00    -0.028 C 
BRANCH  21  22
ATOM     22  C   UNL     1      84.295  68.338  73.274  1.00  0.00     0.005 C 
ATOM     23  C   UNL     1      84.998  66.954  73.212  1.00  0.00     0.012 C 
ATOM     24  C   UNL     1      85.139  69.420  72.550  1.00  0.00     0.012 C 
ENDBRANCH  21  22
ENDBRANCH  19  20
ENDBRANCH  18  19
ENDBRANCH  17  18
ENDBRANCH   1  17
TORSDOF 10
ENDMDL
