MODEL 1
REMARK VINA RESULT:    -6.139      0.000      0.000
REMARK INTER + INTRA:         -10.939
REMARK INTER:                 -10.265
REMARK INTRA:                  -0.674
REMARK UNBOUND:                -0.674
REMARK SMILES COc1cc(CNC(=O)CCCCCCCC(C)C)ccc1O
REMARK SMILES IDX 11 1 10 2 8 3 9 4 7 5 6 7 5 8 4 9 20 10 3 11 21 12 22 13
REMARK SMILES IDX 2 14 1 15 23 16 12 18 13 19 14 20 15 21 16 22 17 23 18 24
REMARK SMILES IDX 19 25
REMARK H PARENT 7 6 23 17
REMARK Flexibility Score: inf
ROOT
ATOM      1  C   UNL     1      96.961  80.899  82.688  1.00  0.00     0.010 C 
ENDROOT
BRANCH   1   2
ATOM      2  C   UNL     1      96.861  81.681  83.996  1.00  0.00     0.100 C 
BRANCH   2   3
ATOM      3  C   UNL     1      95.583  82.499  84.085  1.00  0.00     0.220 C 
ATOM      4  O   UNL     1      95.566  83.726  84.065  1.00  0.00    -0.275 OA
ATOM      5  N   UNL     1      94.465  81.686  84.198  1.00  0.00    -0.352 N 
ATOM      6  H   UNL     1      94.578  80.676  84.218  1.00  0.00     0.163 HD
BRANCH   5   7
ATOM      7  C   UNL     1      93.123  82.211  84.308  1.00  0.00     0.151 C 
BRANCH   7   8
ATOM      8  C   UNL     1      92.094  81.119  84.339  1.00  0.00    -0.025 A 
ATOM      9  C   UNL     1      90.788  81.393  83.948  1.00  0.00     0.056 A 
ATOM     10  C   UNL     1      92.457  79.845  84.758  1.00  0.00     0.009 A 
ATOM     11  C   UNL     1      89.832  80.377  83.978  1.00  0.00     0.160 A 
ATOM     12  C   UNL     1      91.500  78.830  84.788  1.00  0.00     0.050 A 
ATOM     13  C   UNL     1      90.188  79.095  84.398  1.00  0.00     0.157 A 
BRANCH  11  14
ATOM     14  O   UNL     1      88.553  80.650  83.595  1.00  0.00    -0.493 OA
ATOM     15  C   UNL     1      87.728  81.337  84.535  1.00  0.00     0.278 C 
ENDBRANCH  11  14
BRANCH  13  16
ATOM     16  O   UNL     1      89.263  78.096  84.430  1.00  0.00    -0.504 OA
ATOM     17  H   UNL     1      88.374  78.484  84.361  1.00  0.00     0.293 HD
ENDBRANCH  13  16
ENDBRANCH   7   8
ENDBRANCH   5   7
ENDBRANCH   2   3
ENDBRANCH   1   2
BRANCH   1  18
ATOM     18  C   UNL     1      96.813  81.775  81.441  1.00  0.00     0.001 C 
BRANCH  18  19
ATOM     19  C   UNL     1      98.120  82.312  80.848  1.00  0.00     0.000 C 
BRANCH  19  20
ATOM     20  C   UNL     1      97.903  83.268  79.672  1.00  0.00     0.000 C 
BRANCH  20  21
ATOM     21  C   UNL     1      98.084  82.602  78.303  1.00  0.00     0.000 C 
BRANCH  21  22
ATOM     22  C   UNL     1      97.022  83.019  77.281  1.00  0.00     0.003 C 
BRANCH  22  23
ATOM     23  C   UNL     1      97.560  83.962  76.186  1.00  0.00    -0.017 C 
ATOM     24  C   UNL     1      96.531  85.056  75.894  1.00  0.00     0.007 C 
ATOM     25  C   UNL     1      97.904  83.222  74.893  1.00  0.00     0.007 C 
ENDBRANCH  22  23
ENDBRANCH  21  22
ENDBRANCH  20  21
ENDBRANCH  19  20
ENDBRANCH  18  19
ENDBRANCH   1  18
TORSDOF 12
ENDMDL
MODEL 2
REMARK VINA RESULT:    -6.053     20.673     23.667
REMARK INTER + INTRA:         -10.796
REMARK INTER:                  -9.940
REMARK INTRA:                  -0.856
REMARK UNBOUND:                -0.674
REMARK SMILES COc1cc(CNC(=O)CCCCCCCC(C)C)ccc1O
REMARK SMILES IDX 11 1 10 2 8 3 9 4 7 5 6 7 5 8 4 9 20 10 3 11 21 12 22 13
REMARK SMILES IDX 2 14 1 15 23 16 12 18 13 19 14 20 15 21 16 22 17 23 18 24
REMARK SMILES IDX 19 25
REMARK H PARENT 7 6 23 17
REMARK Flexibility Score: inf
ROOT
ATOM      1  C   UNL     1      81.651  64.835  70.764  1.00  0.00     0.010 C 
ENDROOT
BRANCH   1   2
ATOM      2  C   UNL     1      80.660  65.796  71.417  1.00  0.00     0.100 C 
BRANCH   2   3
ATOM      3  C   UNL     1      81.088  66.207  72.816  1.00  0.00     0.220 C 
ATOM      4  O   UNL     1      80.452  66.994  73.511  1.00  0.00    -0.275 OA
ATOM      5  N   UNL     1      82.274  65.590  73.187  1.00  0.00    -0.352 N 
ATOM      6  H   UNL     1      82.737  64.960  72.538  1.00  0.00     0.163 HD
BRANCH   5   7
ATOM      7  C   UNL     1      82.906  65.815  74.467  1.00  0.00     0.151 C 
BRANCH   7   8
ATOM      8  C   UNL     1      84.272  66.418  74.320  1.00  0.00    -0.025 A 
ATOM      9  C   UNL     1      84.400  67.772  74.037  1.00  0.00     0.056 A 
ATOM     10  C   UNL     1      85.397  65.615  74.469  1.00  0.00     0.009 A 
ATOM     11  C   UNL     1      85.670  68.332  73.901  1.00  0.00     0.160 A 
ATOM     12  C   UNL     1      86.667  66.175  74.332  1.00  0.00     0.050 A 
ATOM     13  C   UNL     1      86.805  67.533  74.047  1.00  0.00     0.157 A 
BRANCH  11  14
ATOM     14  O   UNL     1      85.791  69.660  73.622  1.00  0.00    -0.493 OA
ATOM     15  C   UNL     1      85.489  70.073  72.290  1.00  0.00     0.278 C 
ENDBRANCH  11  14
BRANCH  13  16
ATOM     16  O   UNL     1      88.050  68.068  73.917  1.00  0.00    -0.504 OA
ATOM     17  H   UNL     1      88.155  68.409  73.012  1.00  0.00     0.293 HD
ENDBRANCH  13  16
ENDBRANCH   7   8
ENDBRANCH   5   7
ENDBRANCH   2   3
ENDBRANCH   1   2
BRANCH   1  18
ATOM     18  C   UNL     1      80.980  63.688  70.003  1.00  0.00     0.001 C 
BRANCH  18  19
ATOM     19  C   UNL     1      79.830  64.091  69.074  1.00  0.00     0.000 C 
BRANCH  19  20
ATOM     20  C   UNL     1      78.545  63.295  69.321  1.00  0.00     0.000 C 
BRANCH  20  21
ATOM     21  C   UNL     1      77.370  63.747  68.447  1.00  0.00     0.000 C 
BRANCH  21  22
ATOM     22  C   UNL     1      76.969  65.208  68.679  1.00  0.00     0.003 C 
BRANCH  22  23
ATOM     23  C   UNL     1      75.690  65.621  67.923  1.00  0.00    -0.017 C 
ATOM     24  C   UNL     1      74.713  64.443  67.878  1.00  0.00     0.007 C 
ATOM     25  C   UNL     1      75.980  66.103  66.501  1.00  0.00     0.007 C 
ENDBRANCH  22  23
ENDBRANCH  21  22
ENDBRANCH  20  21
ENDBRANCH  19  20
ENDBRANCH  18  19
ENDBRANCH   1  18
TORSDOF 12
ENDMDL
MODEL 3
REMARK VINA RESULT:    -6.045      5.345     11.729
REMARK INTER + INTRA:         -10.782
REMARK INTER:                  -9.749
REMARK INTRA:                  -1.033
REMARK UNBOUND:                -0.674
REMARK SMILES COc1cc(CNC(=O)CCCCCCCC(C)C)ccc1O
REMARK SMILES IDX 11 1 10 2 8 3 9 4 7 5 6 7 5 8 4 9 20 10 3 11 21 12 22 13
REMARK SMILES IDX 2 14 1 15 23 16 12 18 13 19 14 20 15 21 16 22 17 23 18 24
REMARK SMILES IDX 19 25
REMARK H PARENT 7 6 23 17
REMARK Flexibility Score: inf
ROOT
ATOM      1  C   UNL     1      97.735  83.526  78.414  1.00  0.00     0.010 C 
ENDROOT
BRANCH   1   2
ATOM      2  C   UNL     1      96.452  83.624  77.591  1.00  0.00     0.100 C 
BRANCH   2   3
ATOM      3  C   UNL     1      96.663  84.353  76.275  1.00  0.00     0.220 C 
ATOM      4  O   UNL     1      96.202  85.466  76.040  1.00  0.00    -0.275 OA
ATOM      5  N   UNL     1      97.424  83.601  75.392  1.00  0.00    -0.352 N 
ATOM      6  H   UNL     1      97.754  82.681  75.672  1.00  0.00     0.163 HD
BRANCH   5   7
ATOM      7  C   UNL     1      97.765  84.059  74.065  1.00  0.00     0.151 C 
BRANCH   7   8
ATOM      8  C   UNL     1      99.212  84.444  73.959  1.00  0.00    -0.025 A 
ATOM      9  C   UNL     1      99.709  84.929  72.755  1.00  0.00     0.056 A 
ATOM     10  C   UNL     1     100.041  84.312  75.066  1.00  0.00     0.009 A 
ATOM     11  C   UNL     1     101.053  85.286  72.656  1.00  0.00     0.160 A 
ATOM     12  C   UNL     1     101.387  84.669  74.967  1.00  0.00     0.050 A 
ATOM     13  C   UNL     1     101.893  85.156  73.763  1.00  0.00     0.157 A 
BRANCH  11  14
ATOM     14  O   UNL     1     101.536  85.760  71.474  1.00  0.00    -0.493 OA
ATOM     15  C   UNL     1     101.662  84.824  70.404  1.00  0.00     0.278 C 
ENDBRANCH  11  14
BRANCH  13  16
ATOM     16  O   UNL     1     103.207  85.502  73.679  1.00  0.00    -0.504 OA
ATOM     17  H   UNL     1     103.356  86.309  74.202  1.00  0.00     0.293 HD
ENDBRANCH  13  16
ENDBRANCH   7   8
ENDBRANCH   5   7
ENDBRANCH   2   3
ENDBRANCH   1   2
BRANCH   1  18
ATOM     18  C   UNL     1      97.495  83.123  79.872  1.00  0.00     0.001 C 
BRANCH  18  19
ATOM     19  C   UNL     1      97.662  81.633  80.185  1.00  0.00     0.000 C 
BRANCH  19  20
ATOM     20  C   UNL     1      96.850  81.175  81.399  1.00  0.00     0.000 C 
BRANCH  20  21
ATOM     21  C   UNL     1      97.622  81.266  82.720  1.00  0.00     0.000 C 
BRANCH  21  22
ATOM     22  C   UNL     1      97.213  82.467  83.580  1.00  0.00     0.003 C 
BRANCH  22  23
ATOM     23  C   UNL     1      95.873  83.099  83.154  1.00  0.00    -0.017 C 
ATOM     24  C   UNL     1      95.968  84.624  83.248  1.00  0.00     0.007 C 
ATOM     25  C   UNL     1      94.697  82.604  83.997  1.00  0.00     0.007 C 
ENDBRANCH  22  23
ENDBRANCH  21  22
ENDBRANCH  20  21
ENDBRANCH  19  20
ENDBRANCH  18  19
ENDBRANCH   1  18
TORSDOF 12
ENDMDL
MODEL 4
REMARK VINA RESULT:    -6.021      3.727      5.212
REMARK INTER + INTRA:         -10.742
REMARK INTER:                  -9.546
REMARK INTRA:                  -1.197
REMARK UNBOUND:                -0.674
REMARK SMILES COc1cc(CNC(=O)CCCCCCCC(C)C)ccc1O
REMARK SMILES IDX 11 1 10 2 8 3 9 4 7 5 6 7 5 8 4 9 20 10 3 11 21 12 22 13
REMARK SMILES IDX 2 14 1 15 23 16 12 18 13 19 14 20 15 21 16 22 17 23 18 24
REMARK SMILES IDX 19 25
REMARK H PARENT 7 6 23 17
REMARK Flexibility Score: inf
ROOT
ATOM      1  C   UNL     1     100.436  81.473  80.392  1.00  0.00     0.010 C 
ENDROOT
BRANCH   1   2
ATOM      2  C   UNL     1      99.304  82.497  80.443  1.00  0.00     0.100 C 
BRANCH   2   3
ATOM      3  C   UNL     1      98.016  81.909  80.995  1.00  0.00     0.220 C 
ATOM      4  O   UNL     1      97.507  80.878  80.564  1.00  0.00    -0.275 OA
ATOM      5  N   UNL     1      97.502  82.684  82.024  1.00  0.00    -0.352 N 
ATOM      6  H   UNL     1      97.989  83.530  82.307  1.00  0.00     0.163 HD
BRANCH   5   7
ATOM      7  C   UNL     1      96.279  82.353  82.718  1.00  0.00     0.151 C 
BRANCH   7   8
ATOM      8  C   UNL     1      95.796  83.485  83.577  1.00  0.00    -0.025 A 
ATOM      9  C   UNL     1      95.087  83.212  84.741  1.00  0.00     0.056 A 
ATOM     10  C   UNL     1      96.064  84.796  83.199  1.00  0.00     0.009 A 
ATOM     11  C   UNL     1      94.639  84.265  85.539  1.00  0.00     0.160 A 
ATOM     12  C   UNL     1      95.614  85.849  83.998  1.00  0.00     0.050 A 
ATOM     13  C   UNL     1      94.902  85.584  85.167  1.00  0.00     0.157 A 
BRANCH  11  14
ATOM     14  O   UNL     1      93.944  83.993  86.679  1.00  0.00    -0.493 OA
ATOM     15  C   UNL     1      93.492  82.652  86.858  1.00  0.00     0.278 C 
ENDBRANCH  11  14
BRANCH  13  16
ATOM     16  O   UNL     1      94.471  86.620  85.938  1.00  0.00    -0.504 OA
ATOM     17  H   UNL     1      94.585  87.451  85.445  1.00  0.00     0.293 HD
ENDBRANCH  13  16
ENDBRANCH   7   8
ENDBRANCH   5   7
ENDBRANCH   2   3
ENDBRANCH   1   2
BRANCH   1  18
ATOM     18  C   UNL     1     100.978  81.232  78.981  1.00  0.00     0.001 C 
BRANCH  18  19
ATOM     19  C   UNL     1     100.184  80.241  78.124  1.00  0.00     0.000 C 
BRANCH  19  20
ATOM     20  C   UNL     1      99.562  80.880  76.879  1.00  0.00     0.000 C 
BRANCH  20  21
ATOM     21  C   UNL     1      98.204  81.538  77.144  1.00  0.00     0.000 C 
BRANCH  21  22
ATOM     22  C   UNL     1      97.900  82.705  76.198  1.00  0.00     0.003 C 
BRANCH  22  23
ATOM     23  C   UNL     1      97.374  83.960  76.920  1.00  0.00    -0.017 C 
ATOM     24  C   UNL     1      96.455  83.547  78.073  1.00  0.00     0.007 C 
ATOM     25  C   UNL     1      96.625  84.906  75.981  1.00  0.00     0.007 C 
ENDBRANCH  22  23
ENDBRANCH  21  22
ENDBRANCH  20  21
ENDBRANCH  19  20
ENDBRANCH  18  19
ENDBRANCH   1  18
TORSDOF 12
ENDMDL
MODEL 5
REMARK VINA RESULT:    -6.012     22.848     25.191
REMARK INTER + INTRA:         -10.728
REMARK INTER:                  -8.593
REMARK INTRA:                  -2.136
REMARK UNBOUND:                -0.674
REMARK SMILES COc1cc(CNC(=O)CCCCCCCC(C)C)ccc1O
REMARK SMILES IDX 11 1 10 2 8 3 9 4 7 5 6 7 5 8 4 9 20 10 3 11 21 12 22 13
REMARK SMILES IDX 2 14 1 15 23 16 12 18 13 19 14 20 15 21 16 22 17 23 18 24
REMARK SMILES IDX 19 25
REMARK H PARENT 7 6 23 17
REMARK Flexibility Score: inf
ROOT
ATOM      1  C   UNL     1      74.421  87.909  65.689  1.00  0.00     0.010 C 
ENDROOT
BRANCH   1   2
ATOM      2  C   UNL     1      73.977  86.536  66.187  1.00  0.00     0.100 C 
BRANCH   2   3
ATOM      3  C   UNL     1      73.327  86.601  67.559  1.00  0.00     0.220 C 
ATOM      4  O   UNL     1      73.233  85.631  68.307  1.00  0.00    -0.275 OA
ATOM      5  N   UNL     1      72.856  87.874  67.840  1.00  0.00    -0.352 N 
ATOM      6  H   UNL     1      72.968  88.614  67.152  1.00  0.00     0.163 HD
BRANCH   5   7
ATOM      7  C   UNL     1      72.187  88.207  69.077  1.00  0.00     0.151 C 
BRANCH   7   8
ATOM      8  C   UNL     1      72.856  89.347  69.788  1.00  0.00    -0.025 A 
ATOM      9  C   UNL     1      72.084  90.277  70.474  1.00  0.00     0.056 A 
ATOM     10  C   UNL     1      74.240  89.462  69.752  1.00  0.00     0.009 A 
ATOM     11  C   UNL     1      72.706  91.337  71.135  1.00  0.00     0.160 A 
ATOM     12  C   UNL     1      74.862  90.522  70.412  1.00  0.00     0.050 A 
ATOM     13  C   UNL     1      74.095  91.460  71.103  1.00  0.00     0.157 A 
BRANCH  11  14
ATOM     14  O   UNL     1      71.946  92.247  71.807  1.00  0.00    -0.493 OA
ATOM     15  C   UNL     1      71.314  91.803  73.006  1.00  0.00     0.278 C 
ENDBRANCH  11  14
BRANCH  13  16
ATOM     16  O   UNL     1      74.714  92.489  71.745  1.00  0.00    -0.504 OA
ATOM     17  H   UNL     1      74.680  93.280  71.180  1.00  0.00     0.293 HD
ENDBRANCH  13  16
ENDBRANCH   7   8
ENDBRANCH   5   7
ENDBRANCH   2   3
ENDBRANCH   1   2
BRANCH   1  18
ATOM     18  C   UNL     1      75.938  88.113  65.731  1.00  0.00     0.001 C 
BRANCH  18  19
ATOM     19  C   UNL     1      76.441  89.154  66.735  1.00  0.00     0.000 C 
BRANCH  19  20
ATOM     20  C   UNL     1      77.316  88.556  67.841  1.00  0.00     0.000 C 
BRANCH  20  21
ATOM     21  C   UNL     1      77.314  87.023  67.857  1.00  0.00     0.000 C 
BRANCH  21  22
ATOM     22  C   UNL     1      76.834  86.432  69.187  1.00  0.00     0.003 C 
BRANCH  22  23
ATOM     23  C   UNL     1      76.825  84.891  69.205  1.00  0.00    -0.017 C 
ATOM     24  C   UNL     1      76.531  84.358  67.801  1.00  0.00     0.007 C 
ATOM     25  C   UNL     1      75.807  84.322  70.195  1.00  0.00     0.007 C 
ENDBRANCH  22  23
ENDBRANCH  21  22
ENDBRANCH  20  21
ENDBRANCH  19  20
ENDBRANCH  18  19
ENDBRANCH   1  18
TORSDOF 12
ENDMDL
MODEL 6
REMARK VINA RESULT:    -6.010      1.992      3.629
REMARK INTER + INTRA:         -10.725
REMARK INTER:                  -9.943
REMARK INTRA:                  -0.781
REMARK UNBOUND:                -0.674
REMARK SMILES COc1cc(CNC(=O)CCCCCCCC(C)C)ccc1O
REMARK SMILES IDX 11 1 10 2 8 3 9 4 7 5 6 7 5 8 4 9 20 10 3 11 21 12 22 13
REMARK SMILES IDX 2 14 1 15 23 16 12 18 13 19 14 20 15 21 16 22 17 23 18 24
REMARK SMILES IDX 19 25
REMARK H PARENT 7 6 23 17
REMARK Flexibility Score: inf
ROOT
ATOM      1  C   UNL     1      97.543  82.374  79.782  1.00  0.00     0.010 C 
ENDROOT
BRANCH   1   2
ATOM      2  C   UNL     1      96.814  83.323  80.730  1.00  0.00     0.100 C 
BRANCH   2   3
ATOM      3  C   UNL     1      96.804  82.817  82.162  1.00  0.00     0.220 C 
ATOM      4  O   UNL     1      97.582  81.964  82.581  1.00  0.00    -0.275 OA
ATOM      5  N   UNL     1      95.813  83.431  82.914  1.00  0.00    -0.352 N 
ATOM      6  H   UNL     1      95.207  84.120  82.477  1.00  0.00     0.163 HD
BRANCH   5   7
ATOM      7  C   UNL     1      95.583  83.124  84.307  1.00  0.00     0.151 C 
BRANCH   7   8
ATOM      8  C   UNL     1      94.383  82.243  84.496  1.00  0.00    -0.025 A 
ATOM      9  C   UNL     1      94.539  80.862  84.504  1.00  0.00     0.056 A 
ATOM     10  C   UNL     1      93.129  82.817  84.663  1.00  0.00     0.009 A 
ATOM     11  C   UNL     1      93.423  80.043  84.680  1.00  0.00     0.160 A 
ATOM     12  C   UNL     1      92.013  81.997  84.838  1.00  0.00     0.050 A 
ATOM     13  C   UNL     1      92.160  80.610  84.847  1.00  0.00     0.157 A 
BRANCH  11  14
ATOM     14  O   UNL     1      93.580  78.689  84.686  1.00  0.00    -0.493 OA
ATOM     15  C   UNL     1      94.788  78.174  84.128  1.00  0.00     0.278 C 
ENDBRANCH  11  14
BRANCH  13  16
ATOM     16  O   UNL     1      91.064  79.821  85.020  1.00  0.00    -0.504 OA
ATOM     17  H   UNL     1      91.318  78.892  84.888  1.00  0.00     0.293 HD
ENDBRANCH  13  16
ENDBRANCH   7   8
ENDBRANCH   5   7
ENDBRANCH   2   3
ENDBRANCH   1   2
BRANCH   1  18
ATOM     18  C   UNL     1      97.508  82.825  78.319  1.00  0.00     0.001 C 
BRANCH  18  19
ATOM     19  C   UNL     1      96.345  83.745  77.936  1.00  0.00     0.000 C 
BRANCH  19  20
ATOM     20  C   UNL     1      96.549  84.451  76.592  1.00  0.00     0.000 C 
BRANCH  20  21
ATOM     21  C   UNL     1      97.873  84.092  75.910  1.00  0.00     0.000 C 
BRANCH  21  22
ATOM     22  C   UNL     1      97.830  84.241  74.385  1.00  0.00     0.003 C 
BRANCH  22  23
ATOM     23  C   UNL     1      99.224  84.359  73.740  1.00  0.00    -0.017 C 
ATOM     24  C   UNL     1     100.303  84.303  74.825  1.00  0.00     0.007 C 
ATOM     25  C   UNL     1      99.385  85.641  72.922  1.00  0.00     0.007 C 
ENDBRANCH  22  23
ENDBRANCH  21  22
ENDBRANCH  20  21
ENDBRANCH  19  20
ENDBRANCH  18  19
ENDBRANCH   1  18
TORSDOF 12
ENDMDL
MODEL 7
REMARK VINA RESULT:    -5.870      3.593      9.554
REMARK INTER + INTRA:         -10.489
REMARK INTER:                  -9.929
REMARK INTRA:                  -0.560
REMARK UNBOUND:                -0.674
REMARK SMILES COc1cc(CNC(=O)CCCCCCCC(C)C)ccc1O
REMARK SMILES IDX 11 1 10 2 8 3 9 4 7 5 6 7 5 8 4 9 20 10 3 11 21 12 22 13
REMARK SMILES IDX 2 14 1 15 23 16 12 18 13 19 14 20 15 21 16 22 17 23 18 24
REMARK SMILES IDX 19 25
REMARK H PARENT 7 6 23 17
REMARK Flexibility Score: inf
ROOT
ATOM      1  C   UNL     1      96.934  79.660  83.356  1.00  0.00     0.010 C 
ENDROOT
BRANCH   1   2
ATOM      2  C   UNL     1      96.585  80.693  82.287  1.00  0.00     0.100 C 
BRANCH   2   3
ATOM      3  C   UNL     1      97.818  81.252  81.597  1.00  0.00     0.220 C 
ATOM      4  O   UNL     1      98.905  81.374  82.155  1.00  0.00    -0.275 OA
ATOM      5  N   UNL     1      97.551  81.603  80.282  1.00  0.00    -0.352 N 
ATOM      6  H   UNL     1      96.615  81.475  79.908  1.00  0.00     0.163 HD
BRANCH   5   7
ATOM      7  C   UNL     1      98.550  82.167  79.404  1.00  0.00     0.151 C 
BRANCH   7   8
ATOM      8  C   UNL     1      97.933  82.903  78.251  1.00  0.00    -0.025 A 
ATOM      9  C   UNL     1      98.582  82.926  77.022  1.00  0.00     0.056 A 
ATOM     10  C   UNL     1      96.718  83.555  78.423  1.00  0.00     0.009 A 
ATOM     11  C   UNL     1      98.008  83.610  75.951  1.00  0.00     0.160 A 
ATOM     12  C   UNL     1      96.144  84.240  77.352  1.00  0.00     0.050 A 
ATOM     13  C   UNL     1      96.789  84.268  76.115  1.00  0.00     0.157 A 
BRANCH  11  14
ATOM     14  O   UNL     1      98.648  83.631  74.748  1.00  0.00    -0.493 OA
ATOM     15  C   UNL     1      99.695  84.587  74.587  1.00  0.00     0.278 C 
ENDBRANCH  11  14
BRANCH  13  16
ATOM     16  O   UNL     1      96.218  84.939  75.077  1.00  0.00    -0.504 OA
ATOM     17  H   UNL     1      96.658  85.801  74.976  1.00  0.00     0.293 HD
ENDBRANCH  13  16
ENDBRANCH   7   8
ENDBRANCH   5   7
ENDBRANCH   2   3
ENDBRANCH   1   2
BRANCH   1  18
ATOM     18  C   UNL     1      95.900  78.538  83.481  1.00  0.00     0.001 C 
BRANCH  18  19
ATOM     19  C   UNL     1      94.903  78.680  84.636  1.00  0.00     0.000 C 
BRANCH  19  20
ATOM     20  C   UNL     1      93.470  78.306  84.247  1.00  0.00     0.000 C 
BRANCH  20  21
ATOM     21  C   UNL     1      92.406  79.160  84.945  1.00  0.00     0.000 C 
BRANCH  21  22
ATOM     22  C   UNL     1      91.060  79.171  84.213  1.00  0.00     0.003 C 
BRANCH  22  23
ATOM     23  C   UNL     1      90.250  80.464  84.435  1.00  0.00    -0.017 C 
ATOM     24  C   UNL     1      88.876  80.334  83.773  1.00  0.00     0.007 C 
ATOM     25  C   UNL     1      90.965  81.703  83.896  1.00  0.00     0.007 C 
ENDBRANCH  22  23
ENDBRANCH  21  22
ENDBRANCH  20  21
ENDBRANCH  19  20
ENDBRANCH  18  19
ENDBRANCH   1  18
TORSDOF 12
ENDMDL
MODEL 8
REMARK VINA RESULT:    -5.769      5.215     11.331
REMARK INTER + INTRA:         -10.321
REMARK INTER:                  -9.350
REMARK INTRA:                  -0.970
REMARK UNBOUND:                -0.674
REMARK SMILES COc1cc(CNC(=O)CCCCCCCC(C)C)ccc1O
REMARK SMILES IDX 11 1 10 2 8 3 9 4 7 5 6 7 5 8 4 9 20 10 3 11 21 12 22 13
REMARK SMILES IDX 2 14 1 15 23 16 12 18 13 19 14 20 15 21 16 22 17 23 18 24
REMARK SMILES IDX 19 25
REMARK H PARENT 7 6 23 17
REMARK Flexibility Score: inf
ROOT
ATOM      1  C   UNL     1      98.240  83.130  78.321  1.00  0.00     0.010 C 
ENDROOT
BRANCH   1   2
ATOM      2  C   UNL     1      96.812  83.169  77.780  1.00  0.00     0.100 C 
BRANCH   2   3
ATOM      3  C   UNL     1      96.635  84.210  76.688  1.00  0.00     0.220 C 
ATOM      4  O   UNL     1      95.927  85.205  76.814  1.00  0.00    -0.275 OA
ATOM      5  N   UNL     1      97.361  83.885  75.551  1.00  0.00    -0.352 N 
ATOM      6  H   UNL     1      97.912  83.032  75.535  1.00  0.00     0.163 HD
BRANCH   5   7
ATOM      7  C   UNL     1      97.361  84.705  74.361  1.00  0.00     0.151 C 
BRANCH   7   8
ATOM      8  C   UNL     1      98.383  84.244  73.363  1.00  0.00    -0.025 A 
ATOM      9  C   UNL     1      98.448  82.900  73.016  1.00  0.00     0.056 A 
ATOM     10  C   UNL     1      99.253  85.167  72.795  1.00  0.00     0.009 A 
ATOM     11  C   UNL     1      99.398  82.472  72.089  1.00  0.00     0.160 A 
ATOM     12  C   UNL     1     100.204  84.738  71.868  1.00  0.00     0.050 A 
ATOM     13  C   UNL     1     100.276  83.391  71.514  1.00  0.00     0.157 A 
BRANCH  11  14
ATOM     14  O   UNL     1      99.460  81.153  71.752  1.00  0.00    -0.493 OA
ATOM     15  C   UNL     1     100.109  80.279  72.674  1.00  0.00     0.278 C 
ENDBRANCH  11  14
BRANCH  13  16
ATOM     16  O   UNL     1     101.208  82.985  70.607  1.00  0.00    -0.504 OA
ATOM     17  H   UNL     1     102.072  82.919  71.049  1.00  0.00     0.293 HD
ENDBRANCH  13  16
ENDBRANCH   7   8
ENDBRANCH   5   7
ENDBRANCH   2   3
ENDBRANCH   1   2
BRANCH   1  18
ATOM     18  C   UNL     1      98.332  82.621  79.762  1.00  0.00     0.001 C 
BRANCH  18  19
ATOM     19  C   UNL     1      97.075  81.936  80.307  1.00  0.00     0.000 C 
BRANCH  19  20
ATOM     20  C   UNL     1      97.382  80.768  81.248  1.00  0.00     0.000 C 
BRANCH  20  21
ATOM     21  C   UNL     1      96.785  80.939  82.649  1.00  0.00     0.000 C 
BRANCH  21  22
ATOM     22  C   UNL     1      97.282  82.196  83.370  1.00  0.00     0.003 C 
BRANCH  22  23
ATOM     23  C   UNL     1      96.148  83.149  83.796  1.00  0.00    -0.017 C 
ATOM     24  C   UNL     1      94.838  82.368  83.928  1.00  0.00     0.007 C 
ATOM     25  C   UNL     1      95.958  84.309  82.818  1.00  0.00     0.007 C 
ENDBRANCH  22  23
ENDBRANCH  21  22
ENDBRANCH  20  21
ENDBRANCH  19  20
ENDBRANCH  18  19
ENDBRANCH   1  18
TORSDOF 12
ENDMDL
MODEL 9
REMARK VINA RESULT:    -5.583     23.887     27.971
REMARK INTER + INTRA:         -10.010
REMARK INTER:                  -8.983
REMARK INTRA:                  -1.027
REMARK UNBOUND:                -0.674
REMARK SMILES COc1cc(CNC(=O)CCCCCCCC(C)C)ccc1O
REMARK SMILES IDX 11 1 10 2 8 3 9 4 7 5 6 7 5 8 4 9 20 10 3 11 21 12 22 13
REMARK SMILES IDX 2 14 1 15 23 16 12 18 13 19 14 20 15 21 16 22 17 23 18 24
REMARK SMILES IDX 19 25
REMARK H PARENT 7 6 23 17
REMARK Flexibility Score: inf
ROOT
ATOM      1  C   UNL     1      70.716  84.333  67.150  1.00  0.00     0.010 C 
ENDROOT
BRANCH   1   2
ATOM      2  C   UNL     1      70.538  83.646  65.798  1.00  0.00     0.100 C 
BRANCH   2   3
ATOM      3  C   UNL     1      71.757  82.831  65.399  1.00  0.00     0.220 C 
ATOM      4  O   UNL     1      71.693  81.664  65.023  1.00  0.00    -0.275 OA
ATOM      5  N   UNL     1      72.926  83.568  65.522  1.00  0.00    -0.352 N 
ATOM      6  H   UNL     1      72.881  84.528  65.854  1.00  0.00     0.163 HD
BRANCH   5   7
ATOM      7  C   UNL     1      74.229  83.026  65.214  1.00  0.00     0.151 C 
BRANCH   7   8
ATOM      8  C   UNL     1      75.316  83.693  66.007  1.00  0.00    -0.025 A 
ATOM      9  C   UNL     1      75.005  84.319  67.208  1.00  0.00     0.056 A 
ATOM     10  C   UNL     1      76.621  83.677  65.531  1.00  0.00     0.009 A 
ATOM     11  C   UNL     1      76.015  84.938  67.944  1.00  0.00     0.160 A 
ATOM     12  C   UNL     1      77.631  84.298  66.267  1.00  0.00     0.050 A 
ATOM     13  C   UNL     1      77.328  84.929  67.474  1.00  0.00     0.157 A 
BRANCH  11  14
ATOM     14  O   UNL     1      75.707  85.552  69.121  1.00  0.00    -0.493 OA
ATOM     15  C   UNL     1      75.701  84.738  70.293  1.00  0.00     0.278 C 
ENDBRANCH  11  14
BRANCH  13  16
ATOM     16  O   UNL     1      78.323  85.530  68.184  1.00  0.00    -0.504 OA
ATOM     17  H   UNL     1      79.172  85.369  67.737  1.00  0.00     0.293 HD
ENDBRANCH  13  16
ENDBRANCH   7   8
ENDBRANCH   5   7
ENDBRANCH   2   3
ENDBRANCH   1   2
BRANCH   1  18
ATOM     18  C   UNL     1      70.080  83.565  68.313  1.00  0.00     0.001 C 
BRANCH  18  19
ATOM     19  C   UNL     1      69.702  84.406  69.537  1.00  0.00     0.000 C 
BRANCH  19  20
ATOM     20  C   UNL     1      68.250  84.210  69.981  1.00  0.00     0.000 C 
BRANCH  20  21
ATOM     21  C   UNL     1      67.226  84.711  68.956  1.00  0.00     0.000 C 
BRANCH  21  22
ATOM     22  C   UNL     1      66.405  83.585  68.319  1.00  0.00     0.003 C 
BRANCH  22  23
ATOM     23  C   UNL     1      65.580  82.774  69.338  1.00  0.00    -0.017 C 
ATOM     24  C   UNL     1      65.780  81.277  69.090  1.00  0.00     0.007 C 
ATOM     25  C   UNL     1      64.089  83.109  69.285  1.00  0.00     0.007 C 
ENDBRANCH  22  23
ENDBRANCH  21  22
ENDBRANCH  20  21
ENDBRANCH  19  20
ENDBRANCH  18  19
ENDBRANCH   1  18
TORSDOF 12
ENDMDL
MODEL 10
REMARK VINA RESULT:    -5.567      3.688      8.227
REMARK INTER + INTRA:          -9.984
REMARK INTER:                  -9.032
REMARK INTRA:                  -0.952
REMARK UNBOUND:                -0.674
REMARK SMILES COc1cc(CNC(=O)CCCCCCCC(C)C)ccc1O
REMARK SMILES IDX 11 1 10 2 8 3 9 4 7 5 6 7 5 8 4 9 20 10 3 11 21 12 22 13
REMARK SMILES IDX 2 14 1 15 23 16 12 18 13 19 14 20 15 21 16 22 17 23 18 24
REMARK SMILES IDX 19 25
REMARK H PARENT 7 6 23 17
REMARK Flexibility Score: inf
ROOT
ATOM      1  C   UNL     1      91.065  78.898  84.264  1.00  0.00     0.010 C 
ENDROOT
BRANCH   1   2
ATOM      2  C   UNL     1      90.706  80.228  83.605  1.00  0.00     0.100 C 
BRANCH   2   3
ATOM      3  C   UNL     1      91.026  81.419  84.494  1.00  0.00     0.220 C 
ATOM      4  O   UNL     1      90.325  82.426  84.549  1.00  0.00    -0.275 OA
ATOM      5  N   UNL     1      92.196  81.220  85.212  1.00  0.00    -0.352 N 
ATOM      6  H   UNL     1      92.717  80.355  85.092  1.00  0.00     0.163 HD
BRANCH   5   7
ATOM      7  C   UNL     1      92.731  82.203  86.126  1.00  0.00     0.151 C 
BRANCH   7   8
ATOM      8  C   UNL     1      93.698  83.130  85.450  1.00  0.00    -0.025 A 
ATOM      9  C   UNL     1      94.475  82.665  84.396  1.00  0.00     0.056 A 
ATOM     10  C   UNL     1      93.806  84.445  85.885  1.00  0.00     0.009 A 
ATOM     11  C   UNL     1      95.373  83.527  83.768  1.00  0.00     0.160 A 
ATOM     12  C   UNL     1      94.706  85.308  85.257  1.00  0.00     0.050 A 
ATOM     13  C   UNL     1      95.490  84.849  84.199  1.00  0.00     0.157 A 
BRANCH  11  14
ATOM     14  O   UNL     1      96.134  83.067  82.735  1.00  0.00    -0.493 OA
ATOM     15  C   UNL     1      96.549  81.703  82.794  1.00  0.00     0.278 C 
ENDBRANCH  11  14
BRANCH  13  16
ATOM     16  O   UNL     1      96.363  85.701  83.593  1.00  0.00    -0.504 OA
ATOM     17  H   UNL     1      96.354  85.534  82.635  1.00  0.00     0.293 HD
ENDBRANCH  13  16
ENDBRANCH   7   8
ENDBRANCH   5   7
ENDBRANCH   2   3
ENDBRANCH   1   2
BRANCH   1  18
ATOM     18  C   UNL     1      89.881  77.934  84.379  1.00  0.00     0.001 C 
BRANCH  18  19
ATOM     19  C   UNL     1      90.202  76.456  84.136  1.00  0.00     0.000 C 
BRANCH  19  20
ATOM     20  C   UNL     1      91.698  76.181  83.963  1.00  0.00     0.000 C 
BRANCH  20  21
ATOM     21  C   UNL     1      92.006  75.129  82.893  1.00  0.00     0.000 C 
BRANCH  21  22
ATOM     22  C   UNL     1      91.917  75.674  81.463  1.00  0.00     0.003 C 
BRANCH  22  23
ATOM     23  C   UNL     1      90.962  74.871  80.559  1.00  0.00    -0.017 C 
ATOM     24  C   UNL     1      91.242  73.374  80.710  1.00  0.00     0.007 C 
ATOM     25  C   UNL     1      91.076  75.269  79.087  1.00  0.00     0.007 C 
ENDBRANCH  22  23
ENDBRANCH  21  22
ENDBRANCH  20  21
ENDBRANCH  19  20
ENDBRANCH  18  19
ENDBRANCH   1  18
TORSDOF 12
ENDMDL
