MODEL 1
REMARK VINA RESULT:    -6.442      0.000      0.000
REMARK INTER + INTRA:         -10.651
REMARK INTER:                 -10.020
REMARK INTRA:                  -0.632
REMARK UNBOUND:                -0.632
REMARK SMILES CCCCC/C=C/C(=O)CCc1ccc(O)c(OC)c1
REMARK SMILES IDX 6 1 7 2 8 3 9 4 10 5 11 6 12 7 17 8 20 9 15 10 14 11 13 12
REMARK SMILES IDX 18 13 19 14 16 15 5 17 4 18 3 19 2 20 1 21
REMARK H PARENT 16 16
REMARK Flexibility Score: inf
ROOT
ATOM      1  C   UNL     1      78.576  64.591  69.289  1.00  0.00    -0.023 C 
ATOM      2  C   UNL     1      79.724  64.736  69.963  1.00  0.00     0.043 C 
ENDROOT
BRANCH   2   3
ATOM      3  C   UNL     1      79.819  65.736  71.061  1.00  0.00     0.155 C 
ATOM      4  O   UNL     1      79.055  66.697  71.130  1.00  0.00    -0.295 OA
BRANCH   3   5
ATOM      5  C   UNL     1      80.941  65.538  72.061  1.00  0.00     0.085 C 
BRANCH   5   6
ATOM      6  C   UNL     1      80.971  66.668  73.092  1.00  0.00     0.044 C 
BRANCH   6   7
ATOM      7  C   UNL     1      82.372  67.031  73.524  1.00  0.00    -0.044 A 
ATOM      8  C   UNL     1      84.458  68.134  73.084  1.00  0.00     0.160 A 
ATOM      9  C   UNL     1      83.164  67.798  72.684  1.00  0.00     0.054 A 
ATOM     10  C   UNL     1      84.943  67.698  74.317  1.00  0.00     0.157 A 
ATOM     11  C   UNL     1      84.133  66.926  75.151  1.00  0.00     0.050 A 
ATOM     12  C   UNL     1      82.839  66.590  74.751  1.00  0.00     0.008 A 
BRANCH   8  13
ATOM     13  O   UNL     1      85.238  68.888  72.261  1.00  0.00    -0.493 OA
ATOM     14  C   UNL     1      85.027  70.298  72.279  1.00  0.00     0.278 C 
ENDBRANCH   8  13
BRANCH  10  15
ATOM     15  O   UNL     1      86.204  68.020  74.719  1.00  0.00    -0.504 OA
ATOM     16  H   UNL     1      86.264  67.878  75.679  1.00  0.00     0.293 HD
ENDBRANCH  10  15
ENDBRANCH   6   7
ENDBRANCH   5   6
ENDBRANCH   3   5
ENDBRANCH   2   3
BRANCH   1  17
ATOM     17  C   UNL     1      78.400  63.606  68.170  1.00  0.00     0.027 C 
BRANCH  17  18
ATOM     18  C   UNL     1      77.065  63.763  67.435  1.00  0.00     0.004 C 
BRANCH  18  19
ATOM     19  C   UNL     1      76.874  65.142  66.796  1.00  0.00     0.000 C 
BRANCH  19  20
ATOM     20  C   UNL     1      75.690  65.881  67.422  1.00  0.00    -0.003 C 
ATOM     21  C   UNL     1      74.866  64.962  68.309  1.00  0.00     0.004 C 
ENDBRANCH  19  20
ENDBRANCH  18  19
ENDBRANCH  17  18
ENDBRANCH   1  17
TORSDOF 10
ENDMDL
MODEL 2
REMARK VINA RESULT:    -6.437     28.118     32.835
REMARK INTER + INTRA:         -10.643
REMARK INTER:                  -9.878
REMARK INTRA:                  -0.765
REMARK UNBOUND:                -0.632
REMARK SMILES CCCCC/C=C/C(=O)CCc1ccc(O)c(OC)c1
REMARK SMILES IDX 6 1 7 2 8 3 9 4 10 5 11 6 12 7 17 8 20 9 15 10 14 11 13 12
REMARK SMILES IDX 18 13 19 14 16 15 5 17 4 18 3 19 2 20 1 21
REMARK H PARENT 16 16
REMARK Flexibility Score: inf
ROOT
ATOM      1  C   UNL     1      90.822  95.270  76.549  1.00  0.00    -0.023 C 
ATOM      2  C   UNL     1      92.038  94.907  76.122  1.00  0.00     0.043 C 
ENDROOT
BRANCH   2   3
ATOM      3  C   UNL     1      93.137  95.909  76.073  1.00  0.00     0.155 C 
ATOM      4  O   UNL     1      93.984  95.900  75.182  1.00  0.00    -0.295 OA
BRANCH   3   5
ATOM      5  C   UNL     1      93.190  96.910  77.211  1.00  0.00     0.085 C 
BRANCH   5   6
ATOM      6  C   UNL     1      94.568  97.567  77.308  1.00  0.00     0.044 C 
BRANCH   6   7
ATOM      7  C   UNL     1      95.236  97.336  78.643  1.00  0.00    -0.044 A 
ATOM      8  C   UNL     1      96.077  98.198  80.718  1.00  0.00     0.160 A 
ATOM      9  C   UNL     1      95.461  98.413  79.485  1.00  0.00     0.054 A 
ATOM     10  C   UNL     1      96.461  96.911  81.092  1.00  0.00     0.157 A 
ATOM     11  C   UNL     1      96.228  95.836  80.233  1.00  0.00     0.050 A 
ATOM     12  C   UNL     1      95.611  96.051  79.000  1.00  0.00     0.008 A 
BRANCH   8  13
ATOM     13  O   UNL     1      96.300  99.255  81.549  1.00  0.00    -0.493 OA
ATOM     14  C   UNL     1      96.361 100.549  80.950  1.00  0.00     0.278 C 
ENDBRANCH   8  13
BRANCH  10  15
ATOM     15  O   UNL     1      97.063  96.689  82.293  1.00  0.00    -0.504 OA
ATOM     16  H   UNL     1      98.016  96.859  82.194  1.00  0.00     0.293 HD
ENDBRANCH  10  15
ENDBRANCH   6   7
ENDBRANCH   5   6
ENDBRANCH   3   5
ENDBRANCH   2   3
BRANCH   1  17
ATOM     17  C   UNL     1      89.662  94.321  76.627  1.00  0.00     0.027 C 
BRANCH  17  18
ATOM     18  C   UNL     1      90.047  92.944  77.179  1.00  0.00     0.004 C 
BRANCH  18  19
ATOM     19  C   UNL     1      89.700  91.786  76.239  1.00  0.00     0.000 C 
BRANCH  19  20
ATOM     20  C   UNL     1      90.132  92.092  74.804  1.00  0.00    -0.003 C 
ATOM     21  C   UNL     1      90.535  90.828  74.062  1.00  0.00     0.004 C 
ENDBRANCH  19  20
ENDBRANCH  18  19
ENDBRANCH  17  18
ENDBRANCH   1  17
TORSDOF 10
ENDMDL
MODEL 3
REMARK VINA RESULT:    -6.370     27.950     32.672
REMARK INTER + INTRA:         -10.540
REMARK INTER:                  -9.906
REMARK INTRA:                  -0.634
REMARK UNBOUND:                -0.632
REMARK SMILES CCCCC/C=C/C(=O)CCc1ccc(O)c(OC)c1
REMARK SMILES IDX 6 1 7 2 8 3 9 4 10 5 11 6 12 7 17 8 20 9 15 10 14 11 13 12
REMARK SMILES IDX 18 13 19 14 16 15 5 17 4 18 3 19 2 20 1 21
REMARK H PARENT 16 16
REMARK Flexibility Score: inf
ROOT
ATOM      1  C   UNL     1      91.455  94.089  77.029  1.00  0.00    -0.023 C 
ATOM      2  C   UNL     1      92.034  94.875  77.944  1.00  0.00     0.043 C 
ENDROOT
BRANCH   2   3
ATOM      3  C   UNL     1      93.366  95.480  77.668  1.00  0.00     0.155 C 
ATOM      4  O   UNL     1      93.519  96.349  76.812  1.00  0.00    -0.295 OA
BRANCH   3   5
ATOM      5  C   UNL     1      94.536  94.930  78.460  1.00  0.00     0.085 C 
BRANCH   5   6
ATOM      6  C   UNL     1      95.778  95.807  78.298  1.00  0.00     0.044 C 
BRANCH   6   7
ATOM      7  C   UNL     1      96.019  96.709  79.485  1.00  0.00    -0.044 A 
ATOM      8  C   UNL     1      97.034  97.094  81.626  1.00  0.00     0.160 A 
ATOM      9  C   UNL     1      96.811  96.260  80.530  1.00  0.00     0.054 A 
ATOM     10  C   UNL     1      96.461  98.365  81.663  1.00  0.00     0.157 A 
ATOM     11  C   UNL     1      95.665  98.803  80.604  1.00  0.00     0.050 A 
ATOM     12  C   UNL     1      95.442  97.969  79.508  1.00  0.00     0.008 A 
BRANCH   8  13
ATOM     13  O   UNL     1      97.812  96.655  82.654  1.00  0.00    -0.493 OA
ATOM     14  C   UNL     1      97.824  95.251  82.905  1.00  0.00     0.278 C 
ENDBRANCH   8  13
BRANCH  10  15
ATOM     15  O   UNL     1      96.671  99.189  82.728  1.00  0.00    -0.504 OA
ATOM     16  H   UNL     1      95.837  99.647  82.929  1.00  0.00     0.293 HD
ENDBRANCH  10  15
ENDBRANCH   6   7
ENDBRANCH   5   6
ENDBRANCH   3   5
ENDBRANCH   2   3
BRANCH   1  17
ATOM     17  C   UNL     1      90.116  93.442  77.231  1.00  0.00     0.027 C 
BRANCH  17  18
ATOM     18  C   UNL     1      89.920  92.185  76.378  1.00  0.00     0.004 C 
BRANCH  18  19
ATOM     19  C   UNL     1      90.389  92.347  74.929  1.00  0.00     0.000 C 
BRANCH  19  20
ATOM     20  C   UNL     1      90.492  90.992  74.227  1.00  0.00    -0.003 C 
ATOM     21  C   UNL     1      89.409  90.036  74.700  1.00  0.00     0.004 C 
ENDBRANCH  19  20
ENDBRANCH  18  19
ENDBRANCH  17  18
ENDBRANCH   1  17
TORSDOF 10
ENDMDL
MODEL 4
REMARK VINA RESULT:    -6.220     27.684     32.601
REMARK INTER + INTRA:         -10.307
REMARK INTER:                  -9.369
REMARK INTRA:                  -0.937
REMARK UNBOUND:                -0.632
REMARK SMILES CCCCC/C=C/C(=O)CCc1ccc(O)c(OC)c1
REMARK SMILES IDX 6 1 7 2 8 3 9 4 10 5 11 6 12 7 17 8 20 9 15 10 14 11 13 12
REMARK SMILES IDX 18 13 19 14 16 15 5 17 4 18 3 19 2 20 1 21
REMARK H PARENT 16 16
REMARK Flexibility Score: inf
ROOT
ATOM      1  C   UNL     1      91.947  94.623  76.786  1.00  0.00    -0.023 C 
ATOM      2  C   UNL     1      92.592  94.846  77.938  1.00  0.00     0.043 C 
ENDROOT
BRANCH   2   3
ATOM      3  C   UNL     1      94.028  95.239  77.919  1.00  0.00     0.155 C 
ATOM      4  O   UNL     1      94.927  94.407  77.817  1.00  0.00    -0.295 OA
BRANCH   3   5
ATOM      5  C   UNL     1      94.326  96.717  78.084  1.00  0.00     0.085 C 
BRANCH   5   6
ATOM      6  C   UNL     1      93.687  97.541  76.967  1.00  0.00     0.044 C 
BRANCH   6   7
ATOM      7  C   UNL     1      94.476  97.498  75.679  1.00  0.00    -0.044 A 
ATOM      8  C   UNL     1      96.428  98.104  74.422  1.00  0.00     0.160 A 
ATOM      9  C   UNL     1      95.699  98.145  75.611  1.00  0.00     0.054 A 
ATOM     10  C   UNL     1      95.923  97.419  73.317  1.00  0.00     0.157 A 
ATOM     11  C   UNL     1      94.689  96.773  73.402  1.00  0.00     0.050 A 
ATOM     12  C   UNL     1      93.961  96.813  74.591  1.00  0.00     0.008 A 
BRANCH   8  13
ATOM     13  O   UNL     1      97.631  98.739  74.352  1.00  0.00    -0.493 OA
ATOM     14  C   UNL     1      98.438  98.731  75.528  1.00  0.00     0.278 C 
ENDBRANCH   8  13
BRANCH  10  15
ATOM     15  O   UNL     1      96.625  97.371  72.151  1.00  0.00    -0.504 OA
ATOM     16  H   UNL     1      96.269  98.050  71.553  1.00  0.00     0.293 HD
ENDBRANCH  10  15
ENDBRANCH   6   7
ENDBRANCH   5   6
ENDBRANCH   3   5
ENDBRANCH   2   3
BRANCH   1  17
ATOM     17  C   UNL     1      90.501  94.223  76.721  1.00  0.00     0.027 C 
BRANCH  17  18
ATOM     18  C   UNL     1      89.935  94.245  75.297  1.00  0.00     0.004 C 
BRANCH  18  19
ATOM     19  C   UNL     1      90.516  93.155  74.389  1.00  0.00     0.000 C 
BRANCH  19  20
ATOM     20  C   UNL     1      90.296  91.765  74.987  1.00  0.00    -0.003 C 
ATOM     21  C   UNL     1      89.250  90.982  74.209  1.00  0.00     0.004 C 
ENDBRANCH  19  20
ENDBRANCH  18  19
ENDBRANCH  17  18
ENDBRANCH   1  17
TORSDOF 10
ENDMDL
MODEL 5
REMARK VINA RESULT:    -6.038      1.772      2.951
REMARK INTER + INTRA:         -10.023
REMARK INTER:                  -9.402
REMARK INTRA:                  -0.621
REMARK UNBOUND:                -0.632
REMARK SMILES CCCCC/C=C/C(=O)CCc1ccc(O)c(OC)c1
REMARK SMILES IDX 6 1 7 2 8 3 9 4 10 5 11 6 12 7 17 8 20 9 15 10 14 11 13 12
REMARK SMILES IDX 18 13 19 14 16 15 5 17 4 18 3 19 2 20 1 21
REMARK H PARENT 16 16
REMARK Flexibility Score: inf
ROOT
ATOM      1  C   UNL     1      77.830  63.986  68.908  1.00  0.00    -0.023 C 
ATOM      2  C   UNL     1      79.066  63.484  68.803  1.00  0.00     0.043 C 
ENDROOT
BRANCH   2   3
ATOM      3  C   UNL     1      80.151  63.994  69.685  1.00  0.00     0.155 C 
ATOM      4  O   UNL     1      81.133  63.311  69.967  1.00  0.00    -0.295 OA
BRANCH   3   5
ATOM      5  C   UNL     1      79.958  65.384  70.260  1.00  0.00     0.085 C 
BRANCH   5   6
ATOM      6  C   UNL     1      80.201  65.398  71.770  1.00  0.00     0.044 C 
BRANCH   6   7
ATOM      7  C   UNL     1      81.579  65.896  72.138  1.00  0.00    -0.044 A 
ATOM      8  C   UNL     1      83.404  65.987  73.694  1.00  0.00     0.160 A 
ATOM      9  C   UNL     1      82.131  65.528  73.355  1.00  0.00     0.054 A 
ATOM     10  C   UNL     1      84.107  66.808  72.814  1.00  0.00     0.157 A 
ATOM     11  C   UNL     1      83.537  67.171  71.592  1.00  0.00     0.050 A 
ATOM     12  C   UNL     1      82.264  66.711  71.253  1.00  0.00     0.008 A 
BRANCH   8  13
ATOM     13  O   UNL     1      83.949  65.626  74.889  1.00  0.00    -0.493 OA
ATOM     14  C   UNL     1      83.764  64.275  75.305  1.00  0.00     0.278 C 
ENDBRANCH   8  13
BRANCH  10  15
ATOM     15  O   UNL     1      85.351  67.263  73.133  1.00  0.00    -0.504 OA
ATOM     16  H   UNL     1      85.272  67.847  73.907  1.00  0.00     0.293 HD
ENDBRANCH  10  15
ENDBRANCH   6   7
ENDBRANCH   5   6
ENDBRANCH   3   5
ENDBRANCH   2   3
BRANCH   1  17
ATOM     17  C   UNL     1      76.682  63.526  68.057  1.00  0.00     0.027 C 
BRANCH  17  18
ATOM     18  C   UNL     1      75.321  64.005  68.572  1.00  0.00     0.004 C 
BRANCH  18  19
ATOM     19  C   UNL     1      74.471  64.703  67.504  1.00  0.00     0.000 C 
BRANCH  19  20
ATOM     20  C   UNL     1      75.287  64.971  66.239  1.00  0.00    -0.003 C 
ATOM     21  C   UNL     1      76.006  66.309  66.313  1.00  0.00     0.004 C 
ENDBRANCH  19  20
ENDBRANCH  18  19
ENDBRANCH  17  18
ENDBRANCH   1  17
TORSDOF 10
ENDMDL
MODEL 6
REMARK VINA RESULT:    -6.029     24.522     25.606
REMARK INTER + INTRA:         -10.008
REMARK INTER:                  -9.103
REMARK INTRA:                  -0.905
REMARK UNBOUND:                -0.632
REMARK SMILES CCCCC/C=C/C(=O)CCc1ccc(O)c(OC)c1
REMARK SMILES IDX 6 1 7 2 8 3 9 4 10 5 11 6 12 7 17 8 20 9 15 10 14 11 13 12
REMARK SMILES IDX 18 13 19 14 16 15 5 17 4 18 3 19 2 20 1 21
REMARK H PARENT 16 16
REMARK Flexibility Score: inf
ROOT
ATOM      1  C   UNL     1      96.708  81.144  82.117  1.00  0.00    -0.023 C 
ATOM      2  C   UNL     1      97.740  81.991  82.024  1.00  0.00     0.043 C 
ENDROOT
BRANCH   2   3
ATOM      3  C   UNL     1      98.449  82.157  80.726  1.00  0.00     0.155 C 
ATOM      4  O   UNL     1      99.638  82.465  80.670  1.00  0.00    -0.295 OA
BRANCH   3   5
ATOM      5  C   UNL     1      97.615  81.978  79.472  1.00  0.00     0.085 C 
BRANCH   5   6
ATOM      6  C   UNL     1      96.928  83.284  79.071  1.00  0.00     0.044 C 
BRANCH   6   7
ATOM      7  C   UNL     1      97.209  83.681  77.641  1.00  0.00    -0.044 A 
ATOM      8  C   UNL     1      98.610  83.571  75.696  1.00  0.00     0.160 A 
ATOM      9  C   UNL     1      98.351  83.205  77.017  1.00  0.00     0.054 A 
ATOM     10  C   UNL     1      97.725  84.408  75.017  1.00  0.00     0.157 A 
ATOM     11  C   UNL     1      96.580  84.879  75.659  1.00  0.00     0.050 A 
ATOM     12  C   UNL     1      96.321  84.513  76.980  1.00  0.00     0.008 A 
BRANCH   8  13
ATOM     13  O   UNL     1      99.733  83.105  75.079  1.00  0.00    -0.493 OA
ATOM     14  C   UNL     1      99.888  81.689  75.000  1.00  0.00     0.278 C 
ENDBRANCH   8  13
BRANCH  10  15
ATOM     15  O   UNL     1      97.967  84.772  73.727  1.00  0.00    -0.504 OA
ATOM     16  H   UNL     1      98.930  84.792  73.590  1.00  0.00     0.293 HD
ENDBRANCH  10  15
ENDBRANCH   6   7
ENDBRANCH   5   6
ENDBRANCH   3   5
ENDBRANCH   2   3
BRANCH   1  17
ATOM     17  C   UNL     1      95.943  80.920  83.389  1.00  0.00     0.027 C 
BRANCH  17  18
ATOM     18  C   UNL     1      95.007  82.082  83.741  1.00  0.00     0.004 C 
BRANCH  18  19
ATOM     19  C   UNL     1      95.528  82.966  84.878  1.00  0.00     0.000 C 
BRANCH  19  20
ATOM     20  C   UNL     1      95.115  84.425  84.676  1.00  0.00    -0.003 C 
ATOM     21  C   UNL     1      95.994  85.114  83.644  1.00  0.00     0.004 C 
ENDBRANCH  19  20
ENDBRANCH  18  19
ENDBRANCH  17  18
ENDBRANCH   1  17
TORSDOF 10
ENDMDL
MODEL 7
REMARK VINA RESULT:    -5.980     29.391     33.400
REMARK INTER + INTRA:          -9.932
REMARK INTER:                  -9.087
REMARK INTRA:                  -0.845
REMARK UNBOUND:                -0.632
REMARK SMILES CCCCC/C=C/C(=O)CCc1ccc(O)c(OC)c1
REMARK SMILES IDX 6 1 7 2 8 3 9 4 10 5 11 6 12 7 17 8 20 9 15 10 14 11 13 12
REMARK SMILES IDX 18 13 19 14 16 15 5 17 4 18 3 19 2 20 1 21
REMARK H PARENT 16 16
REMARK Flexibility Score: inf
ROOT
ATOM      1  C   UNL     1      92.956  95.658  77.625  1.00  0.00    -0.023 C 
ATOM      2  C   UNL     1      94.148  95.452  77.052  1.00  0.00     0.043 C 
ENDROOT
BRANCH   2   3
ATOM      3  C   UNL     1      95.088  96.590  76.866  1.00  0.00     0.155 C 
ATOM      4  O   UNL     1      95.981  96.834  77.676  1.00  0.00    -0.295 OA
BRANCH   3   5
ATOM      5  C   UNL     1      94.857  97.467  75.651  1.00  0.00     0.085 C 
BRANCH   5   6
ATOM      6  C   UNL     1      94.401  96.641  74.448  1.00  0.00     0.044 C 
BRANCH   6   7
ATOM      7  C   UNL     1      94.599  97.358  73.133  1.00  0.00    -0.044 A 
ATOM      8  C   UNL     1      95.788  97.603  71.064  1.00  0.00     0.160 A 
ATOM      9  C   UNL     1      95.606  96.941  72.278  1.00  0.00     0.054 A 
ATOM     10  C   UNL     1      94.962  98.673  70.721  1.00  0.00     0.157 A 
ATOM     11  C   UNL     1      93.952  99.082  71.594  1.00  0.00     0.050 A 
ATOM     12  C   UNL     1      93.770  98.419  72.808  1.00  0.00     0.008 A 
BRANCH   8  13
ATOM     13  O   UNL     1      96.777  97.195  70.220  1.00  0.00    -0.493 OA
ATOM     14  C   UNL     1      98.111  97.574  70.554  1.00  0.00     0.278 C 
ENDBRANCH   8  13
BRANCH  10  15
ATOM     15  O   UNL     1      95.130  99.328  69.539  1.00  0.00    -0.504 OA
ATOM     16  H   UNL     1      95.644 100.135  69.707  1.00  0.00     0.293 HD
ENDBRANCH  10  15
ENDBRANCH   6   7
ENDBRANCH   5   6
ENDBRANCH   3   5
ENDBRANCH   2   3
BRANCH   1  17
ATOM     17  C   UNL     1      91.952  94.565  77.848  1.00  0.00     0.027 C 
BRANCH  17  18
ATOM     18  C   UNL     1      90.629  94.804  77.113  1.00  0.00     0.004 C 
BRANCH  18  19
ATOM     19  C   UNL     1      90.786  94.943  75.596  1.00  0.00     0.000 C 
BRANCH  19  20
ATOM     20  C   UNL     1      89.882  93.958  74.854  1.00  0.00    -0.003 C 
ATOM     21  C   UNL     1      90.615  92.667  74.526  1.00  0.00     0.004 C 
ENDBRANCH  19  20
ENDBRANCH  18  19
ENDBRANCH  17  18
ENDBRANCH   1  17
TORSDOF 10
ENDMDL
MODEL 8
REMARK VINA RESULT:    -5.889     20.850     23.940
REMARK INTER + INTRA:          -9.791
REMARK INTER:                  -9.191
REMARK INTRA:                  -0.600
REMARK UNBOUND:                -0.632
REMARK SMILES CCCCC/C=C/C(=O)CCc1ccc(O)c(OC)c1
REMARK SMILES IDX 6 1 7 2 8 3 9 4 10 5 11 6 12 7 17 8 20 9 15 10 14 11 13 12
REMARK SMILES IDX 18 13 19 14 16 15 5 17 4 18 3 19 2 20 1 21
REMARK H PARENT 16 16
REMARK Flexibility Score: inf
ROOT
ATOM      1  C   UNL     1      92.796  82.821  84.671  1.00  0.00    -0.023 C 
ATOM      2  C   UNL     1      93.981  82.283  84.358  1.00  0.00     0.043 C 
ENDROOT
BRANCH   2   3
ATOM      3  C   UNL     1      95.181  83.155  84.228  1.00  0.00     0.155 C 
ATOM      4  O   UNL     1      95.576  83.857  85.157  1.00  0.00    -0.295 OA
BRANCH   3   5
ATOM      5  C   UNL     1      95.861  83.172  82.873  1.00  0.00     0.085 C 
BRANCH   5   6
ATOM      6  C   UNL     1      96.608  81.863  82.610  1.00  0.00     0.044 C 
BRANCH   6   7
ATOM      7  C   UNL     1      97.072  81.729  81.179  1.00  0.00    -0.044 A 
ATOM      8  C   UNL     1      97.509  82.722  79.039  1.00  0.00     0.160 A 
ATOM      9  C   UNL     1      97.080  82.847  80.361  1.00  0.00     0.054 A 
ATOM     10  C   UNL     1      97.924  81.483  78.554  1.00  0.00     0.157 A 
ATOM     11  C   UNL     1      97.910  80.366  79.391  1.00  0.00     0.050 A 
ATOM     12  C   UNL     1      97.480  80.491  80.712  1.00  0.00     0.008 A 
BRANCH   8  13
ATOM     13  O   UNL     1      97.519  83.820  78.232  1.00  0.00    -0.493 OA
ATOM     14  C   UNL     1      96.326  84.097  77.501  1.00  0.00     0.278 C 
ENDBRANCH   8  13
BRANCH  10  15
ATOM     15  O   UNL     1      98.346  81.349  77.266  1.00  0.00    -0.504 OA
ATOM     16  H   UNL     1      98.590  82.229  76.931  1.00  0.00     0.293 HD
ENDBRANCH  10  15
ENDBRANCH   6   7
ENDBRANCH   5   6
ENDBRANCH   3   5
ENDBRANCH   2   3
BRANCH   1  17
ATOM     17  C   UNL     1      91.541  82.012  84.820  1.00  0.00     0.027 C 
BRANCH  17  18
ATOM     18  C   UNL     1      91.655  80.608  84.216  1.00  0.00     0.004 C 
BRANCH  18  19
ATOM     19  C   UNL     1      90.301  79.950  83.933  1.00  0.00     0.000 C 
BRANCH  19  20
ATOM     20  C   UNL     1      89.146  80.863  84.346  1.00  0.00    -0.003 C 
ATOM     21  C   UNL     1      87.880  80.548  83.565  1.00  0.00     0.004 C 
ENDBRANCH  19  20
ENDBRANCH  18  19
ENDBRANCH  17  18
ENDBRANCH   1  17
TORSDOF 10
ENDMDL
MODEL 9
REMARK VINA RESULT:    -5.646     21.475     24.514
REMARK INTER + INTRA:          -9.413
REMARK INTER:                  -8.833
REMARK INTRA:                  -0.580
REMARK UNBOUND:                -0.632
REMARK SMILES CCCCC/C=C/C(=O)CCc1ccc(O)c(OC)c1
REMARK SMILES IDX 6 1 7 2 8 3 9 4 10 5 11 6 12 7 17 8 20 9 15 10 14 11 13 12
REMARK SMILES IDX 18 13 19 14 16 15 5 17 4 18 3 19 2 20 1 21
REMARK H PARENT 16 16
REMARK Flexibility Score: inf
ROOT
ATOM      1  C   UNL     1      94.767  81.789  84.522  1.00  0.00    -0.023 C 
ATOM      2  C   UNL     1      95.364  81.664  83.330  1.00  0.00     0.043 C 
ENDROOT
BRANCH   2   3
ATOM      3  C   UNL     1      96.616  82.416  83.045  1.00  0.00     0.155 C 
ATOM      4  O   UNL     1      97.518  82.512  83.874  1.00  0.00    -0.295 OA
BRANCH   3   5
ATOM      5  C   UNL     1      96.699  83.103  81.696  1.00  0.00     0.085 C 
BRANCH   5   6
ATOM      6  C   UNL     1      97.692  82.395  80.773  1.00  0.00     0.044 C 
BRANCH   6   7
ATOM      7  C   UNL     1      97.578  82.842  79.335  1.00  0.00    -0.044 A 
ATOM      8  C   UNL     1      98.490  82.949  77.117  1.00  0.00     0.160 A 
ATOM      9  C   UNL     1      98.596  82.536  78.446  1.00  0.00     0.054 A 
ATOM     10  C   UNL     1      97.369  83.663  76.696  1.00  0.00     0.157 A 
ATOM     11  C   UNL     1      96.352  83.964  77.603  1.00  0.00     0.050 A 
ATOM     12  C   UNL     1      96.458  83.551  78.931  1.00  0.00     0.008 A 
BRANCH   8  13
ATOM     13  O   UNL     1      99.490  82.649  76.241  1.00  0.00    -0.493 OA
ATOM     14  C   UNL     1      99.559  81.304  75.772  1.00  0.00     0.278 C 
ENDBRANCH   8  13
BRANCH  10  15
ATOM     15  O   UNL     1      97.254  84.071  75.401  1.00  0.00    -0.504 OA
ATOM     16  H   UNL     1      96.531  83.570  74.986  1.00  0.00     0.293 HD
ENDBRANCH  10  15
ENDBRANCH   6   7
ENDBRANCH   5   6
ENDBRANCH   3   5
ENDBRANCH   2   3
BRANCH   1  17
ATOM     17  C   UNL     1      93.503  81.066  84.887  1.00  0.00     0.027 C 
BRANCH  17  18
ATOM     18  C   UNL     1      92.383  82.006  85.345  1.00  0.00     0.004 C 
BRANCH  18  19
ATOM     19  C   UNL     1      91.178  82.032  84.398  1.00  0.00     0.000 C 
BRANCH  19  20
ATOM     20  C   UNL     1      90.805  80.621  83.940  1.00  0.00    -0.003 C 
ATOM     21  C   UNL     1      89.309  80.487  83.711  1.00  0.00     0.004 C 
ENDBRANCH  19  20
ENDBRANCH  18  19
ENDBRANCH  17  18
ENDBRANCH   1  17
TORSDOF 10
ENDMDL
