MODEL 1
REMARK VINA RESULT:    -6.737      0.000      0.000
REMARK INTER + INTRA:         -13.429
REMARK INTER:                 -11.462
REMARK INTRA:                  -1.967
REMARK UNBOUND:                -1.967
REMARK SMILES C=C(C)[C@]12C[C@@H](C)[C@@]34O[C@](Cc5ccccc5)(O[C@@H]1[C@@H]3C=C(COC(=O)Cc1ccc(O)cc1)C[C@]1(O)C(=O)C(C)=C[C@@H]41)O2
REMARK SMILES IDX 23 1 22 2 21 3 20 4 9 5 8 6 10 7 6 8 18 10 44 11 19 12 5 13
REMARK SMILES IDX 7 14 4 15 11 16 12 17 13 18 17 19 14 20 16 21 15 22 2 23
REMARK SMILES IDX 3 24 1 25 35 26 36 27 43 28 38 29 42 30 39 32 40 33 41 34
REMARK SMILES IDX 37 35 24 37 25 38 26 39 27 40 28 41 29 42 34 43 30 44 33 45
REMARK SMILES IDX 31 46 32 47
REMARK H PARENT 37 36 32 48
REMARK Flexibility Score: 90.00
ROOT
ATOM      1  C   UNL     1      64.803  88.631  74.051  1.00  0.00     0.264 C 
ENDROOT
BRANCH   1   2
ATOM      2  C   UNL     1      63.638  88.122  73.234  1.00  0.00    -0.033 C 
ATOM      3  C   UNL     1      63.717  86.902  72.663  1.00  0.00    -0.015 C 
BRANCH   3   4
ATOM      4  C   UNL     1      62.729  86.201  71.744  1.00  0.00     0.078 C 
ATOM      5  O   UNL     1      61.242  84.847  73.183  1.00  0.00    -0.319 OA
ATOM      6  C   UNL     1      61.259  85.978  72.257  1.00  0.00     0.095 CG0
ATOM      7  C   UNL     1      62.029  83.710  72.781  1.00  0.00     0.289 C 
ATOM      8  C   UNL     1      60.359  85.637  70.999  1.00  0.00     0.023 C 
ATOM      9  G   UNL     1      60.781  87.187  73.113  1.00  0.00     0.000 G0
ATOM     10  O   UNL     1      63.392  84.070  72.576  1.00  0.00    -0.320 OA
ATOM     11  O   UNL     1      61.588  83.155  71.544  1.00  0.00    -0.313 OA
ATOM     12  C   UNL     1      63.276  84.808  71.349  1.00  0.00     0.170 C 
ATOM     13  C   UNL     1      61.159  84.842  69.921  1.00  0.00     0.049 C 
ATOM     14  C   UNL     1      59.045  84.897  71.306  1.00  0.00     0.011 C 
ATOM     15  C   UNL     1      62.246  83.971  70.552  1.00  0.00     0.122 C 
BRANCH   7  16
ATOM     16  C   UNL     1      61.934  82.658  73.868  1.00  0.00     0.135 C 
BRANCH  16  17
ATOM     17  C   UNL     1      63.206  81.856  73.992  1.00  0.00    -0.040 A 
ATOM     18  C   UNL     1      63.634  81.058  72.932  1.00  0.00     0.004 A 
ATOM     19  C   UNL     1      63.953  81.913  75.169  1.00  0.00     0.004 A 
ATOM     20  C   UNL     1      64.811  80.316  73.048  1.00  0.00     0.000 A 
ATOM     21  C   UNL     1      65.129  81.172  75.284  1.00  0.00     0.000 A 
ATOM     22  C   UNL     1      65.557  80.374  74.224  1.00  0.00     0.000 A 
ENDBRANCH  16  17
ENDBRANCH   7  16
BRANCH  15  23
ATOM     23  C   UNL     1      62.903  83.067  69.561  1.00  0.00    -0.046 C 
ATOM     24  C   UNL     1      63.730  83.734  68.502  1.00  0.00     0.042 C 
ATOM     25  C   UNL     1      62.762  81.734  69.614  1.00  0.00     0.010 C 
ENDBRANCH  15  23
ENDBRANCH   3   4
BRANCH   2  26
ATOM     26  C   UNL     1      62.480  89.101  73.174  1.00  0.00     0.078 C 
BRANCH  26  27
ATOM     27  C   UNL     1      61.163  88.588  72.596  1.00  0.00     0.140 C 
ATOM     28  C   UNL     1      60.802  87.183  73.122  1.00  0.00     0.086 CG0
ATOM     29  C   UNL     1      59.974  89.416  73.038  1.00  0.00     0.190 C 
ATOM     30  C   UNL     1      59.348  87.309  73.486  1.00  0.00    -0.010 C 
ATOM     31  G   UNL     1      61.269  85.983  72.249  1.00  0.00     0.000 G0
ATOM     32  O   UNL     1      59.907  90.635  72.997  1.00  0.00    -0.291 OA
ATOM     33  C   UNL     1      58.861  88.553  73.476  1.00  0.00    -0.008 C 
ATOM     34  C   UNL     1      57.523  89.054  73.852  1.00  0.00     0.048 C 
BRANCH  27  35
ATOM     35  O   UNL     1      61.141  88.692  71.182  1.00  0.00    -0.381 OA
ATOM     36  H   UNL     1      61.416  89.592  70.937  1.00  0.00     0.212 HD
ENDBRANCH  27  35
ENDBRANCH  26  27
ENDBRANCH   2  26
ENDBRANCH   1   2
BRANCH   1  37
ATOM     37  O   UNL     1      64.478  88.558  75.423  1.00  0.00    -0.461 OA
BRANCH  37  38
ATOM     38  C   UNL     1      65.324  87.810  76.209  1.00  0.00     0.310 C 
ATOM     39  O   UNL     1      66.482  87.533  75.928  1.00  0.00    -0.252 OA
BRANCH  38  40
ATOM     40  C   UNL     1      64.602  87.386  77.466  1.00  0.00     0.158 C 
BRANCH  40  41
ATOM     41  C   UNL     1      63.205  86.888  77.201  1.00  0.00    -0.037 A 
ATOM     42  C   UNL     1      62.106  87.660  77.578  1.00  0.00     0.008 A 
ATOM     43  C   UNL     1      63.010  85.655  76.581  1.00  0.00     0.008 A 
ATOM     44  C   UNL     1      60.812  87.198  77.334  1.00  0.00     0.046 A 
ATOM     45  C   UNL     1      61.716  85.192  76.336  1.00  0.00     0.046 A 
ATOM     46  C   UNL     1      60.618  85.964  76.713  1.00  0.00     0.115 A 
BRANCH  46  47
ATOM     47  O   UNL     1      59.356  85.514  76.476  1.00  0.00    -0.508 OA
ATOM     48  H   UNL     1      59.377  84.898  75.722  1.00  0.00     0.293 HD
ENDBRANCH  46  47
ENDBRANCH  40  41
ENDBRANCH  38  40
ENDBRANCH  37  38
ENDBRANCH   1  37
TORSDOF 10
ENDMDL
MODEL 2
REMARK VINA RESULT:    -6.221      1.631      2.276
REMARK INTER + INTRA:         -12.552
REMARK INTER:                 -10.869
REMARK INTRA:                  -1.682
REMARK UNBOUND:                -1.967
REMARK SMILES C=C(C)[C@]12C[C@@H](C)[C@@]34O[C@](Cc5ccccc5)(O[C@@H]1[C@@H]3C=C(COC(=O)Cc1ccc(O)cc1)C[C@]1(O)C(=O)C(C)=C[C@@H]41)O2
REMARK SMILES IDX 23 1 22 2 21 3 20 4 9 5 8 6 10 7 6 8 18 10 44 11 19 12 5 13
REMARK SMILES IDX 7 14 4 15 11 16 12 17 13 18 17 19 14 20 16 21 15 22 2 23
REMARK SMILES IDX 3 24 1 25 35 26 36 27 43 28 38 29 42 30 39 32 40 33 41 34
REMARK SMILES IDX 37 35 24 37 25 38 26 39 27 40 28 41 29 42 34 43 30 44 33 45
REMARK SMILES IDX 31 46 32 47
REMARK H PARENT 37 36 32 48
REMARK Flexibility Score: 90.00
ROOT
ATOM      1  C   UNL     1      64.455  89.577  72.269  1.00  0.00     0.264 C 
ENDROOT
BRANCH   1   2
ATOM      2  C   UNL     1      63.259  88.763  71.831  1.00  0.00    -0.033 C 
ATOM      3  C   UNL     1      63.413  87.445  71.587  1.00  0.00    -0.015 C 
BRANCH   3   4
ATOM      4  C   UNL     1      62.401  86.435  71.069  1.00  0.00     0.078 C 
ATOM      5  O   UNL     1      61.348  85.391  73.048  1.00  0.00    -0.319 OA
ATOM      6  C   UNL     1      61.070  86.226  71.881  1.00  0.00     0.095 CG0
ATOM      7  C   UNL     1      62.212  84.264  72.807  1.00  0.00     0.289 C 
ATOM      8  C   UNL     1      60.044  85.477  70.934  1.00  0.00     0.023 C 
ATOM      9  G   UNL     1      60.568  87.573  72.478  1.00  0.00     0.000 G0
ATOM     10  O   UNL     1      63.466  84.678  72.274  1.00  0.00    -0.320 OA
ATOM     11  O   UNL     1      61.667  83.358  71.851  1.00  0.00    -0.313 OA
ATOM     12  C   UNL     1      63.066  85.042  70.943  1.00  0.00     0.170 C 
ATOM     13  C   UNL     1      60.771  84.497  69.964  1.00  0.00     0.049 C 
ATOM     14  C   UNL     1      58.905  84.732  71.652  1.00  0.00     0.011 C 
ATOM     15  C   UNL     1      62.049  83.931  70.584  1.00  0.00     0.122 C 
BRANCH   7  16
ATOM     16  C   UNL     1      62.427  83.541  74.122  1.00  0.00     0.135 C 
BRANCH  16  17
ATOM     17  C   UNL     1      63.500  82.486  74.019  1.00  0.00    -0.040 A 
ATOM     18  C   UNL     1      63.163  81.179  73.669  1.00  0.00     0.004 A 
ATOM     19  C   UNL     1      64.830  82.819  74.275  1.00  0.00     0.004 A 
ATOM     20  C   UNL     1      64.156  80.203  73.573  1.00  0.00     0.000 A 
ATOM     21  C   UNL     1      65.823  81.843  74.180  1.00  0.00     0.000 A 
ATOM     22  C   UNL     1      65.486  80.536  73.829  1.00  0.00     0.000 A 
ENDBRANCH  16  17
ENDBRANCH   7  16
BRANCH  15  23
ATOM     23  C   UNL     1      62.665  82.856  69.748  1.00  0.00    -0.046 C 
ATOM     24  C   UNL     1      63.489  83.314  68.582  1.00  0.00     0.042 C 
ATOM     25  C   UNL     1      62.491  81.555  70.025  1.00  0.00     0.010 C 
ENDBRANCH  15  23
ENDBRANCH   3   4
BRANCH   2  26
ATOM     26  C   UNL     1      61.987  89.582  71.729  1.00  0.00     0.078 C 
BRANCH  26  27
ATOM     27  C   UNL     1      60.678  88.817  71.543  1.00  0.00     0.140 C 
ATOM     28  C   UNL     1      60.582  87.589  72.472  1.00  0.00     0.086 CG0
ATOM     29  C   UNL     1      59.468  89.630  71.953  1.00  0.00     0.190 C 
ATOM     30  C   UNL     1      59.192  87.685  73.037  1.00  0.00    -0.010 C 
ATOM     31  G   UNL     1      61.071  86.238  71.874  1.00  0.00     0.000 G0
ATOM     32  O   UNL     1      59.237  90.780  71.608  1.00  0.00    -0.291 OA
ATOM     33  C   UNL     1      58.551  88.831  72.787  1.00  0.00    -0.008 C 
ATOM     34  C   UNL     1      57.227  89.299  73.246  1.00  0.00     0.048 C 
BRANCH  27  35
ATOM     35  O   UNL     1      60.439  88.522  70.177  1.00  0.00    -0.381 OA
ATOM     36  H   UNL     1      61.274  88.222  69.778  1.00  0.00     0.212 HD
ENDBRANCH  27  35
ENDBRANCH  26  27
ENDBRANCH   2  26
ENDBRANCH   1   2
BRANCH   1  37
ATOM     37  O   UNL     1      65.079  88.938  73.363  1.00  0.00    -0.461 OA
BRANCH  37  38
ATOM     38  C   UNL     1      66.345  88.447  73.139  1.00  0.00     0.310 C 
ATOM     39  O   UNL     1      67.285  89.100  72.708  1.00  0.00    -0.252 OA
BRANCH  38  40
ATOM     40  C   UNL     1      66.390  86.984  73.507  1.00  0.00     0.158 C 
BRANCH  40  41
ATOM     41  C   UNL     1      66.087  86.733  74.961  1.00  0.00    -0.037 A 
ATOM     42  C   UNL     1      64.861  86.181  75.333  1.00  0.00     0.008 A 
ATOM     43  C   UNL     1      67.031  87.053  75.936  1.00  0.00     0.008 A 
ATOM     44  C   UNL     1      64.579  85.950  76.680  1.00  0.00     0.046 A 
ATOM     45  C   UNL     1      66.750  86.822  77.283  1.00  0.00     0.046 A 
ATOM     46  C   UNL     1      65.524  86.271  77.655  1.00  0.00     0.115 A 
BRANCH  46  47
ATOM     47  O   UNL     1      65.249  86.046  78.968  1.00  0.00    -0.508 OA
ATOM     48  H   UNL     1      65.024  86.892  79.393  1.00  0.00     0.293 HD
ENDBRANCH  46  47
ENDBRANCH  40  41
ENDBRANCH  38  40
ENDBRANCH  37  38
ENDBRANCH   1  37
TORSDOF 10
ENDMDL
MODEL 3
REMARK VINA RESULT:    -5.990      2.242      5.970
REMARK INTER + INTRA:         -12.160
REMARK INTER:                 -11.010
REMARK INTRA:                  -1.149
REMARK UNBOUND:                -1.967
REMARK SMILES C=C(C)[C@]12C[C@@H](C)[C@@]34O[C@](Cc5ccccc5)(O[C@@H]1[C@@H]3C=C(COC(=O)Cc1ccc(O)cc1)C[C@]1(O)C(=O)C(C)=C[C@@H]41)O2
REMARK SMILES IDX 23 1 22 2 21 3 20 4 9 5 8 6 10 7 6 8 18 10 44 11 19 12 5 13
REMARK SMILES IDX 7 14 4 15 11 16 12 17 13 18 17 19 14 20 16 21 15 22 2 23
REMARK SMILES IDX 3 24 1 25 35 26 36 27 43 28 38 29 42 30 39 32 40 33 41 34
REMARK SMILES IDX 37 35 24 37 25 38 26 39 27 40 28 41 29 42 34 43 30 44 33 45
REMARK SMILES IDX 31 46 32 47
REMARK H PARENT 37 36 32 48
REMARK Flexibility Score: 90.00
ROOT
ATOM      1  C   UNL     1      66.836  86.633  70.551  1.00  0.00     0.264 C 
ENDROOT
BRANCH   1   2
ATOM      2  C   UNL     1      65.917  86.783  71.741  1.00  0.00    -0.033 C 
ATOM      3  C   UNL     1      64.620  86.430  71.622  1.00  0.00    -0.015 C 
BRANCH   3   4
ATOM      4  C   UNL     1      63.490  86.552  72.631  1.00  0.00     0.078 C 
ATOM      5  O   UNL     1      63.387  84.410  73.862  1.00  0.00    -0.319 OA
ATOM      6  C   UNL     1      63.649  85.839  74.024  1.00  0.00     0.095 CG0
ATOM      7  C   UNL     1      62.260  84.082  73.026  1.00  0.00     0.289 C 
ATOM      8  C   UNL     1      62.573  86.460  75.007  1.00  0.00     0.023 C 
ATOM      9  G   UNL     1      65.124  85.909  74.516  1.00  0.00     0.000 G0
ATOM     10  O   UNL     1      62.405  84.637  71.722  1.00  0.00    -0.320 OA
ATOM     11  O   UNL     1      61.036  84.607  73.534  1.00  0.00    -0.313 OA
ATOM     12  C   UNL     1      62.172  86.024  72.012  1.00  0.00     0.170 C 
ATOM     13  C   UNL     1      61.271  86.864  74.249  1.00  0.00     0.049 C 
ATOM     14  C   UNL     1      62.206  85.591  76.222  1.00  0.00     0.011 C 
ATOM     15  C   UNL     1      61.017  85.962  73.040  1.00  0.00     0.122 C 
BRANCH   7  16
ATOM     16  C   UNL     1      62.162  82.572  72.933  1.00  0.00     0.135 C 
BRANCH  16  17
ATOM     17  C   UNL     1      63.302  81.885  73.643  1.00  0.00    -0.040 A 
ATOM     18  C   UNL     1      63.390  81.935  75.033  1.00  0.00     0.004 A 
ATOM     19  C   UNL     1      64.269  81.201  72.906  1.00  0.00     0.004 A 
ATOM     20  C   UNL     1      64.445  81.299  75.689  1.00  0.00     0.000 A 
ATOM     21  C   UNL     1      65.324  80.566  73.562  1.00  0.00     0.000 A 
ATOM     22  C   UNL     1      65.412  80.615  74.953  1.00  0.00     0.000 A 
ENDBRANCH  16  17
ENDBRANCH   7  16
BRANCH  15  23
ATOM     23  C   UNL     1      59.687  86.213  72.407  1.00  0.00    -0.046 C 
ATOM     24  C   UNL     1      58.700  86.991  73.226  1.00  0.00     0.042 C 
ATOM     25  C   UNL     1      59.392  85.767  71.177  1.00  0.00     0.010 C 
ENDBRANCH  15  23
ENDBRANCH   3   4
BRANCH   2  26
ATOM     26  C   UNL     1      66.618  87.332  72.969  1.00  0.00     0.078 C 
BRANCH  26  27
ATOM     27  C   UNL     1      65.851  87.288  74.289  1.00  0.00     0.140 C 
ATOM     28  C   UNL     1      65.149  85.933  74.511  1.00  0.00     0.086 CG0
ATOM     29  C   UNL     1      66.763  87.382  75.494  1.00  0.00     0.190 C 
ATOM     30  C   UNL     1      65.483  85.594  75.937  1.00  0.00    -0.010 C 
ATOM     31  G   UNL     1      63.671  85.839  74.031  1.00  0.00     0.000 G0
ATOM     32  O   UNL     1      67.650  88.210  75.648  1.00  0.00    -0.291 OA
ATOM     33  C   UNL     1      66.408  86.372  76.508  1.00  0.00    -0.008 C 
ATOM     34  C   UNL     1      67.031  86.285  77.845  1.00  0.00     0.048 C 
BRANCH  27  35
ATOM     35  O   UNL     1      64.992  88.408  74.427  1.00  0.00    -0.381 OA
ATOM     36  H   UNL     1      64.736  88.709  73.539  1.00  0.00     0.212 HD
ENDBRANCH  27  35
ENDBRANCH  26  27
ENDBRANCH   2  26
ENDBRANCH   1   2
BRANCH   1  37
ATOM     37  O   UNL     1      66.305  87.352  69.458  1.00  0.00    -0.461 OA
BRANCH  37  38
ATOM     38  C   UNL     1      66.197  86.663  68.272  1.00  0.00     0.310 C 
ATOM     39  O   UNL     1      67.111  86.063  67.723  1.00  0.00    -0.252 OA
BRANCH  38  40
ATOM     40  C   UNL     1      64.781  86.764  67.757  1.00  0.00     0.158 C 
BRANCH  40  41
ATOM     41  C   UNL     1      63.993  85.495  67.954  1.00  0.00    -0.037 A 
ATOM     42  C   UNL     1      62.611  85.553  68.130  1.00  0.00     0.008 A 
ATOM     43  C   UNL     1      64.645  84.263  67.959  1.00  0.00     0.008 A 
ATOM     44  C   UNL     1      61.880  84.379  68.313  1.00  0.00     0.046 A 
ATOM     45  C   UNL     1      63.915  83.087  68.141  1.00  0.00     0.046 A 
ATOM     46  C   UNL     1      62.533  83.145  68.318  1.00  0.00     0.115 A 
BRANCH  46  47
ATOM     47  O   UNL     1      61.821  82.000  68.497  1.00  0.00    -0.508 OA
ATOM     48  H   UNL     1      61.165  82.143  69.201  1.00  0.00     0.293 HD
ENDBRANCH  46  47
ENDBRANCH  40  41
ENDBRANCH  38  40
ENDBRANCH  37  38
ENDBRANCH   1  37
TORSDOF 10
ENDMDL
MODEL 4
REMARK VINA RESULT:    -5.975     30.796     34.583
REMARK INTER + INTRA:         -12.133
REMARK INTER:                 -11.893
REMARK INTRA:                  -0.241
REMARK UNBOUND:                -1.967
REMARK SMILES C=C(C)[C@]12C[C@@H](C)[C@@]34O[C@](Cc5ccccc5)(O[C@@H]1[C@@H]3C=C(COC(=O)Cc1ccc(O)cc1)C[C@]1(O)C(=O)C(C)=C[C@@H]41)O2
REMARK SMILES IDX 23 1 22 2 21 3 20 4 9 5 8 6 10 7 6 8 18 10 44 11 19 12 5 13
REMARK SMILES IDX 7 14 4 15 11 16 12 17 13 18 17 19 14 20 16 21 15 22 2 23
REMARK SMILES IDX 3 24 1 25 35 26 36 27 43 28 38 29 42 30 39 32 40 33 41 34
REMARK SMILES IDX 37 35 24 37 25 38 26 39 27 40 28 41 29 42 34 43 30 44 33 45
REMARK SMILES IDX 31 46 32 47
REMARK H PARENT 37 36 32 48
REMARK Flexibility Score: 90.00
ROOT
ATOM      1  C   UNL     1      96.428  81.870  84.481  1.00  0.00     0.264 C 
ENDROOT
BRANCH   1   2
ATOM      2  C   UNL     1      95.134  82.225  85.177  1.00  0.00    -0.033 C 
ATOM      3  C   UNL     1      94.049  81.444  84.991  1.00  0.00    -0.015 C 
BRANCH   3   4
ATOM      4  C   UNL     1      92.631  81.623  85.508  1.00  0.00     0.078 C 
ATOM      5  O   UNL     1      92.480  80.382  87.642  1.00  0.00    -0.319 OA
ATOM      6  C   UNL     1      92.408  81.722  87.061  1.00  0.00     0.095 CG0
ATOM      7  C   UNL     1      91.804  79.352  86.896  1.00  0.00     0.289 C 
ATOM      8  C   UNL     1      90.960  82.319  87.301  1.00  0.00     0.023 C 
ATOM      9  G   UNL     1      93.572  82.501  87.739  1.00  0.00     0.000 G0
ATOM     10  O   UNL     1      92.302  79.264  85.564  1.00  0.00    -0.320 OA
ATOM     11  O   UNL     1      90.406  79.603  86.768  1.00  0.00    -0.313 OA
ATOM     12  C   UNL     1      91.738  80.462  85.006  1.00  0.00     0.170 C 
ATOM     13  C   UNL     1      89.964  81.868  86.188  1.00  0.00     0.049 C 
ATOM     14  C   UNL     1      90.346  82.031  88.682  1.00  0.00     0.011 C 
ATOM     15  C   UNL     1      90.323  80.489  85.633  1.00  0.00     0.122 C 
BRANCH   7  16
ATOM     16  C   UNL     1      92.016  78.032  87.611  1.00  0.00     0.135 C 
BRANCH  16  17
ATOM     17  C   UNL     1      93.414  77.500  87.415  1.00  0.00    -0.040 A 
ATOM     18  C   UNL     1      93.648  76.473  86.502  1.00  0.00     0.004 A 
ATOM     19  C   UNL     1      94.471  78.037  88.148  1.00  0.00     0.004 A 
ATOM     20  C   UNL     1      94.941  75.982  86.321  1.00  0.00     0.000 A 
ATOM     21  C   UNL     1      95.765  77.545  87.967  1.00  0.00     0.000 A 
ATOM     22  C   UNL     1      95.999  76.518  87.054  1.00  0.00     0.000 A 
ENDBRANCH  16  17
ENDBRANCH   7  16
BRANCH  15  23
ATOM     23  C   UNL     1      89.284  79.959  84.699  1.00  0.00    -0.046 C 
ATOM     24  C   UNL     1      88.111  80.857  84.435  1.00  0.00     0.042 C 
ATOM     25  C   UNL     1      89.393  78.750  84.129  1.00  0.00     0.010 C 
ENDBRANCH  15  23
ENDBRANCH   3   4
BRANCH   2  26
ATOM     26  C   UNL     1      95.243  83.469  86.038  1.00  0.00     0.078 C 
BRANCH  26  27
ATOM     27  C   UNL     1      94.076  83.773  86.976  1.00  0.00     0.140 C 
ATOM     28  C   UNL     1      93.580  82.514  87.717  1.00  0.00     0.086 CG0
ATOM     29  C   UNL     1      94.472  84.686  88.116  1.00  0.00     0.190 C 
ATOM     30  C   UNL     1      93.439  82.978  89.140  1.00  0.00    -0.010 C 
ATOM     31  G   UNL     1      92.407  81.741  87.046  1.00  0.00     0.000 G0
ATOM     32  O   UNL     1      95.093  85.733  88.003  1.00  0.00    -0.291 OA
ATOM     33  C   UNL     1      93.955  84.182  89.403  1.00  0.00    -0.008 C 
ATOM     34  C   UNL     1      94.069  84.910  90.684  1.00  0.00     0.048 C 
BRANCH  27  35
ATOM     35  O   UNL     1      93.049  84.488  86.310  1.00  0.00    -0.381 OA
ATOM     36  H   UNL     1      92.214  84.003  86.426  1.00  0.00     0.212 HD
ENDBRANCH  27  35
ENDBRANCH  26  27
ENDBRANCH   2  26
ENDBRANCH   1   2
BRANCH   1  37
ATOM     37  O   UNL     1      96.193  81.750  83.094  1.00  0.00    -0.461 OA
BRANCH  37  38
ATOM     38  C   UNL     1      97.052  82.442  82.271  1.00  0.00     0.310 C 
ATOM     39  O   UNL     1      97.304  83.635  82.363  1.00  0.00    -0.252 OA
BRANCH  38  40
ATOM     40  C   UNL     1      97.632  81.501  81.242  1.00  0.00     0.158 C 
BRANCH  40  41
ATOM     41  C   UNL     1      97.615  82.071  79.848  1.00  0.00    -0.037 A 
ATOM     42  C   UNL     1      96.405  82.441  79.260  1.00  0.00     0.008 A 
ATOM     43  C   UNL     1      98.808  82.230  79.144  1.00  0.00     0.008 A 
ATOM     44  C   UNL     1      96.389  82.968  77.968  1.00  0.00     0.046 A 
ATOM     45  C   UNL     1      98.793  82.758  77.853  1.00  0.00     0.046 A 
ATOM     46  C   UNL     1      97.584  83.127  77.265  1.00  0.00     0.115 A 
BRANCH  46  47
ATOM     47  O   UNL     1      97.568  83.641  76.005  1.00  0.00    -0.508 OA
ATOM     48  H   UNL     1      98.203  83.150  75.456  1.00  0.00     0.293 HD
ENDBRANCH  46  47
ENDBRANCH  40  41
ENDBRANCH  38  40
ENDBRANCH  37  38
ENDBRANCH   1  37
TORSDOF 10
ENDMDL
MODEL 5
REMARK VINA RESULT:    -5.782     26.694     30.050
REMARK INTER + INTRA:         -11.804
REMARK INTER:                 -10.899
REMARK INTRA:                  -0.905
REMARK UNBOUND:                -1.967
REMARK SMILES C=C(C)[C@]12C[C@@H](C)[C@@]34O[C@](Cc5ccccc5)(O[C@@H]1[C@@H]3C=C(COC(=O)Cc1ccc(O)cc1)C[C@]1(O)C(=O)C(C)=C[C@@H]41)O2
REMARK SMILES IDX 23 1 22 2 21 3 20 4 9 5 8 6 10 7 6 8 18 10 44 11 19 12 5 13
REMARK SMILES IDX 7 14 4 15 11 16 12 17 13 18 17 19 14 20 16 21 15 22 2 23
REMARK SMILES IDX 3 24 1 25 35 26 36 27 43 28 38 29 42 30 39 32 40 33 41 34
REMARK SMILES IDX 37 35 24 37 25 38 26 39 27 40 28 41 29 42 34 43 30 44 33 45
REMARK SMILES IDX 31 46 32 47
REMARK H PARENT 37 36 32 48
REMARK Flexibility Score: 90.00
ROOT
ATOM      1  C   UNL     1      87.257  70.078  73.790  1.00  0.00     0.264 C 
ENDROOT
BRANCH   1   2
ATOM      2  C   UNL     1      86.230  69.236  74.510  1.00  0.00    -0.033 C 
ATOM      3  C   UNL     1      85.278  68.602  73.795  1.00  0.00    -0.015 C 
BRANCH   3   4
ATOM      4  C   UNL     1      84.102  67.769  74.278  1.00  0.00     0.078 C 
ATOM      5  O   UNL     1      84.858  65.414  74.325  1.00  0.00    -0.319 OA
ATOM      6  C   UNL     1      84.394  66.510  75.175  1.00  0.00     0.095 CG0
ATOM      7  C   UNL     1      84.137  65.247  73.089  1.00  0.00     0.289 C 
ATOM      8  C   UNL     1      83.035  66.092  75.873  1.00  0.00     0.023 C 
ATOM      9  G   UNL     1      85.585  66.783  76.139  1.00  0.00     0.000 G0
ATOM     10  O   UNL     1      84.173  66.436  72.304  1.00  0.00    -0.320 OA
ATOM     11  O   UNL     1      82.756  64.966  73.300  1.00  0.00    -0.313 OA
ATOM     12  C   UNL     1      83.280  67.266  73.065  1.00  0.00     0.170 C 
ATOM     13  C   UNL     1      81.807  66.386  74.957  1.00  0.00     0.049 C 
ATOM     14  C   UNL     1      82.965  64.637  76.367  1.00  0.00     0.011 C 
ATOM     15  C   UNL     1      82.166  66.271  73.475  1.00  0.00     0.122 C 
BRANCH   7  16
ATOM     16  C   UNL     1      84.773  64.106  72.320  1.00  0.00     0.135 C 
BRANCH  16  17
ATOM     17  C   UNL     1      84.998  64.456  70.870  1.00  0.00    -0.040 A 
ATOM     18  C   UNL     1      86.289  64.705  70.405  1.00  0.00     0.004 A 
ATOM     19  C   UNL     1      83.914  64.530  69.995  1.00  0.00     0.004 A 
ATOM     20  C   UNL     1      86.497  65.028  69.063  1.00  0.00     0.000 A 
ATOM     21  C   UNL     1      84.122  64.854  68.654  1.00  0.00     0.000 A 
ATOM     22  C   UNL     1      85.413  65.102  68.189  1.00  0.00     0.000 A 
ENDBRANCH  16  17
ENDBRANCH   7  16
BRANCH  15  23
ATOM     23  C   UNL     1      80.970  66.370  72.585  1.00  0.00    -0.046 C 
ATOM     24  C   UNL     1      80.735  67.703  71.937  1.00  0.00     0.042 C 
ATOM     25  C   UNL     1      80.153  65.327  72.378  1.00  0.00     0.010 C 
ENDBRANCH  15  23
ENDBRANCH   3   4
BRANCH   2  26
ATOM     26  C   UNL     1      86.426  69.214  76.015  1.00  0.00     0.078 C 
BRANCH  26  27
ATOM     27  C   UNL     1      85.602  68.205  76.812  1.00  0.00     0.140 C 
ATOM     28  C   UNL     1      85.587  66.811  76.150  1.00  0.00     0.086 CG0
ATOM     29  C   UNL     1      86.200  67.912  78.171  1.00  0.00     0.190 C 
ATOM     30  C   UNL     1      85.851  65.876  77.297  1.00  0.00    -0.010 C 
ATOM     31  G   UNL     1      84.399  66.522  75.187  1.00  0.00     0.000 G0
ATOM     32  O   UNL     1      86.572  68.753  78.977  1.00  0.00    -0.291 OA
ATOM     33  C   UNL     1      86.225  66.462  78.438  1.00  0.00    -0.008 C 
ATOM     34  C   UNL     1      86.637  65.863  79.725  1.00  0.00     0.048 C 
BRANCH  27  35
ATOM     35  O   UNL     1      84.312  68.710  77.111  1.00  0.00    -0.381 OA
ATOM     36  H   UNL     1      83.989  68.270  77.916  1.00  0.00     0.212 HD
ENDBRANCH  27  35
ENDBRANCH  26  27
ENDBRANCH   2  26
ENDBRANCH   1   2
BRANCH   1  37
ATOM     37  O   UNL     1      87.917  69.285  72.826  1.00  0.00    -0.461 OA
BRANCH  37  38
ATOM     38  C   UNL     1      88.038  69.831  71.569  1.00  0.00     0.310 C 
ATOM     39  O   UNL     1      88.896  70.634  71.232  1.00  0.00    -0.252 OA
BRANCH  38  40
ATOM     40  C   UNL     1      86.949  69.285  70.676  1.00  0.00     0.158 C 
BRANCH  40  41
ATOM     41  C   UNL     1      87.137  69.655  69.228  1.00  0.00    -0.037 A 
ATOM     42  C   UNL     1      87.506  68.680  68.301  1.00  0.00     0.008 A 
ATOM     43  C   UNL     1      86.942  70.972  68.813  1.00  0.00     0.008 A 
ATOM     44  C   UNL     1      87.681  69.023  66.960  1.00  0.00     0.046 A 
ATOM     45  C   UNL     1      87.116  71.315  67.472  1.00  0.00     0.046 A 
ATOM     46  C   UNL     1      87.486  70.341  66.546  1.00  0.00     0.115 A 
BRANCH  46  47
ATOM     47  O   UNL     1      87.657  70.675  65.237  1.00  0.00    -0.508 OA
ATOM     48  H   UNL     1      88.607  70.794  65.063  1.00  0.00     0.293 HD
ENDBRANCH  46  47
ENDBRANCH  40  41
ENDBRANCH  38  40
ENDBRANCH  37  38
ENDBRANCH   1  37
TORSDOF 10
ENDMDL
MODEL 6
REMARK VINA RESULT:    -5.714     35.449     38.692
REMARK INTER + INTRA:         -11.690
REMARK INTER:                 -10.137
REMARK INTRA:                  -1.553
REMARK UNBOUND:                -1.967
REMARK SMILES C=C(C)[C@]12C[C@@H](C)[C@@]34O[C@](Cc5ccccc5)(O[C@@H]1[C@@H]3C=C(COC(=O)Cc1ccc(O)cc1)C[C@]1(O)C(=O)C(C)=C[C@@H]41)O2
REMARK SMILES IDX 23 1 22 2 21 3 20 4 9 5 8 6 10 7 6 8 18 10 44 11 19 12 5 13
REMARK SMILES IDX 7 14 4 15 11 16 12 17 13 18 17 19 14 20 16 21 15 22 2 23
REMARK SMILES IDX 3 24 1 25 35 26 36 27 43 28 38 29 42 30 39 32 40 33 41 34
REMARK SMILES IDX 37 35 24 37 25 38 26 39 27 40 28 41 29 42 34 43 30 44 33 45
REMARK SMILES IDX 31 46 32 47
REMARK H PARENT 37 36 32 48
REMARK Flexibility Score: 90.00
ROOT
ATOM      1  C   UNL     1      97.058  82.637  78.926  1.00  0.00     0.264 C 
ENDROOT
BRANCH   1   2
ATOM      2  C   UNL     1      97.333  81.827  80.172  1.00  0.00    -0.033 C 
ATOM      3  C   UNL     1      97.947  80.631  80.058  1.00  0.00    -0.015 C 
BRANCH   3   4
ATOM      4  C   UNL     1      98.265  79.603  81.133  1.00  0.00     0.078 C 
ATOM      5  O   UNL     1     100.550  80.091  81.943  1.00  0.00    -0.319 OA
ATOM      6  C   UNL     1      99.149  80.048  82.356  1.00  0.00     0.095 CG0
ATOM      7  C   UNL     1     100.984  78.989  81.123  1.00  0.00     0.289 C 
ATOM      8  C   UNL     1      98.971  78.962  83.495  1.00  0.00     0.023 C 
ATOM      9  G   UNL     1      98.822  81.512  82.771  1.00  0.00     0.000 G0
ATOM     10  O   UNL     1     100.196  78.882  79.940  1.00  0.00    -0.320 OA
ATOM     11  O   UNL     1     100.853  77.734  81.787  1.00  0.00    -0.313 OA
ATOM     12  C   UNL     1      98.972  78.380  80.498  1.00  0.00     0.170 C 
ATOM     13  C   UNL     1      98.759  77.537  82.899  1.00  0.00     0.049 C 
ATOM     14  C   UNL     1     100.097  78.913  84.543  1.00  0.00     0.011 C 
ATOM     15  C   UNL     1      99.476  77.371  81.559  1.00  0.00     0.122 C 
BRANCH   7  16
ATOM     16  C   UNL     1     102.437  79.215  80.753  1.00  0.00     0.135 C 
BRANCH  16  17
ATOM     17  C   UNL     1     102.633  79.311  79.261  1.00  0.00    -0.040 A 
ATOM     18  C   UNL     1     103.162  80.473  78.701  1.00  0.00     0.004 A 
ATOM     19  C   UNL     1     102.285  78.237  78.442  1.00  0.00     0.004 A 
ATOM     20  C   UNL     1     103.344  80.562  77.320  1.00  0.00     0.000 A 
ATOM     21  C   UNL     1     102.467  78.326  77.062  1.00  0.00     0.000 A 
ATOM     22  C   UNL     1     102.997  79.488  76.501  1.00  0.00     0.000 A 
ENDBRANCH  16  17
ENDBRANCH   7  16
BRANCH  15  23
ATOM     23  C   UNL     1      99.437  75.964  81.057  1.00  0.00    -0.046 C 
ATOM     24  C   UNL     1      98.081  75.331  80.966  1.00  0.00     0.042 C 
ATOM     25  C   UNL     1     100.552  75.304  80.709  1.00  0.00     0.010 C 
ENDBRANCH  15  23
ENDBRANCH   3   4
BRANCH   2  26
ATOM     26  C   UNL     1      96.862  82.510  81.442  1.00  0.00     0.078 C 
BRANCH  26  27
ATOM     27  C   UNL     1      97.299  81.893  82.769  1.00  0.00     0.140 C 
ATOM     28  C   UNL     1      98.796  81.518  82.774  1.00  0.00     0.086 CG0
ATOM     29  C   UNL     1      97.205  82.870  83.922  1.00  0.00     0.190 C 
ATOM     30  C   UNL     1      99.284  82.045  84.094  1.00  0.00    -0.010 C 
ATOM     31  G   UNL     1      99.138  80.056  82.362  1.00  0.00     0.000 G0
ATOM     32  O   UNL     1      96.237  83.570  84.179  1.00  0.00    -0.291 OA
ATOM     33  C   UNL     1      98.425  82.831  84.750  1.00  0.00    -0.008 C 
ATOM     34  C   UNL     1      98.593  83.577  86.014  1.00  0.00     0.048 C 
BRANCH  27  35
ATOM     35  O   UNL     1      96.442  80.831  83.154  1.00  0.00    -0.381 OA
ATOM     36  H   UNL     1      95.658  80.846  82.579  1.00  0.00     0.212 HD
ENDBRANCH  27  35
ENDBRANCH  26  27
ENDBRANCH   2  26
ENDBRANCH   1   2
BRANCH   1  37
ATOM     37  O   UNL     1      96.520  81.793  77.930  1.00  0.00    -0.461 OA
BRANCH  37  38
ATOM     38  C   UNL     1      97.085  81.892  76.679  1.00  0.00     0.310 C 
ATOM     39  O   UNL     1      96.711  82.653  75.798  1.00  0.00    -0.252 OA
BRANCH  38  40
ATOM     40  C   UNL     1      98.233  80.918  76.567  1.00  0.00     0.158 C 
BRANCH  40  41
ATOM     41  C   UNL     1      99.455  81.522  75.925  1.00  0.00    -0.037 A 
ATOM     42  C   UNL     1      99.968  80.976  74.748  1.00  0.00     0.008 A 
ATOM     43  C   UNL     1     100.075  82.628  76.507  1.00  0.00     0.008 A 
ATOM     44  C   UNL     1     101.100  81.535  74.154  1.00  0.00     0.046 A 
ATOM     45  C   UNL     1     101.207  83.187  75.914  1.00  0.00     0.046 A 
ATOM     46  C   UNL     1     101.719  82.640  74.738  1.00  0.00     0.115 A 
BRANCH  46  47
ATOM     47  O   UNL     1     102.824  83.185  74.158  1.00  0.00    -0.508 OA
ATOM     48  H   UNL     1     102.547  83.732  73.403  1.00  0.00     0.293 HD
ENDBRANCH  46  47
ENDBRANCH  40  41
ENDBRANCH  38  40
ENDBRANCH  37  38
ENDBRANCH   1  37
TORSDOF 10
ENDMDL
MODEL 7
REMARK VINA RESULT:    -5.697     30.604     34.435
REMARK INTER + INTRA:         -11.661
REMARK INTER:                 -11.336
REMARK INTRA:                  -0.326
REMARK UNBOUND:                -1.967
REMARK SMILES C=C(C)[C@]12C[C@@H](C)[C@@]34O[C@](Cc5ccccc5)(O[C@@H]1[C@@H]3C=C(COC(=O)Cc1ccc(O)cc1)C[C@]1(O)C(=O)C(C)=C[C@@H]41)O2
REMARK SMILES IDX 23 1 22 2 21 3 20 4 9 5 8 6 10 7 6 8 18 10 44 11 19 12 5 13
REMARK SMILES IDX 7 14 4 15 11 16 12 17 13 18 17 19 14 20 16 21 15 22 2 23
REMARK SMILES IDX 3 24 1 25 35 26 36 27 43 28 38 29 42 30 39 32 40 33 41 34
REMARK SMILES IDX 37 35 24 37 25 38 26 39 27 40 28 41 29 42 34 43 30 44 33 45
REMARK SMILES IDX 31 46 32 47
REMARK H PARENT 37 36 32 48
REMARK Flexibility Score: 90.00
ROOT
ATOM      1  C   UNL     1      96.473  81.509  84.338  1.00  0.00     0.264 C 
ENDROOT
BRANCH   1   2
ATOM      2  C   UNL     1      95.211  82.136  84.883  1.00  0.00    -0.033 C 
ATOM      3  C   UNL     1      94.132  81.358  85.107  1.00  0.00    -0.015 C 
BRANCH   3   4
ATOM      4  C   UNL     1      92.739  81.750  85.574  1.00  0.00     0.078 C 
ATOM      5  O   UNL     1      92.722  81.554  88.039  1.00  0.00    -0.319 OA
ATOM      6  C   UNL     1      92.595  82.512  86.942  1.00  0.00     0.095 CG0
ATOM      7  C   UNL     1      92.028  80.306  87.850  1.00  0.00     0.289 C 
ATOM      8  C   UNL     1      91.150  83.161  86.979  1.00  0.00     0.023 C 
ATOM      9  G   UNL     1      93.778  83.502  87.152  1.00  0.00     0.000 G0
ATOM     10  O   UNL     1      92.459  79.649  86.661  1.00  0.00    -0.320 OA
ATOM     11  O   UNL     1      90.621  80.485  87.703  1.00  0.00    -0.313 OA
ATOM     12  C   UNL     1      91.843  80.490  85.672  1.00  0.00     0.170 C 
ATOM     13  C   UNL     1      90.107  82.279  86.227  1.00  0.00     0.049 C 
ATOM     14  C   UNL     1      90.614  83.501  88.381  1.00  0.00     0.011 C 
ATOM     15  C   UNL     1      90.462  80.793  86.303  1.00  0.00     0.122 C 
BRANCH   7  16
ATOM     16  C   UNL     1      92.302  79.424  89.051  1.00  0.00     0.135 C 
BRANCH  16  17
ATOM     17  C   UNL     1      91.286  79.627  90.147  1.00  0.00    -0.040 A 
ATOM     18  C   UNL     1      91.354  80.756  90.962  1.00  0.00     0.004 A 
ATOM     19  C   UNL     1      90.277  78.684  90.344  1.00  0.00     0.004 A 
ATOM     20  C   UNL     1      90.413  80.944  91.975  1.00  0.00     0.000 A 
ATOM     21  C   UNL     1      89.336  78.872  91.357  1.00  0.00     0.000 A 
ATOM     22  C   UNL     1      89.404  80.002  92.172  1.00  0.00     0.000 A 
ENDBRANCH  16  17
ENDBRANCH   7  16
BRANCH  15  23
ATOM     23  C   UNL     1      89.387  79.917  85.748  1.00  0.00    -0.046 C 
ATOM     24  C   UNL     1      88.069  80.579  85.475  1.00  0.00     0.042 C 
ATOM     25  C   UNL     1      89.588  78.613  85.508  1.00  0.00     0.010 C 
ENDBRANCH  15  23
ENDBRANCH   3   4
BRANCH   2  26
ATOM     26  C   UNL     1      95.342  83.628  85.122  1.00  0.00     0.078 C 
BRANCH  26  27
ATOM     27  C   UNL     1      94.221  84.312  85.903  1.00  0.00     0.140 C 
ATOM     28  C   UNL     1      93.795  83.500  87.143  1.00  0.00     0.086 CG0
ATOM     29  C   UNL     1      94.656  85.629  86.510  1.00  0.00     0.190 C 
ATOM     30  C   UNL     1      93.720  84.535  88.230  1.00  0.00    -0.010 C 
ATOM     31  G   UNL     1      92.606  82.515  86.943  1.00  0.00     0.000 G0
ATOM     32  O   UNL     1      95.246  86.521  85.918  1.00  0.00    -0.291 OA
ATOM     33  C   UNL     1      94.221  85.733  87.915  1.00  0.00    -0.008 C 
ATOM     34  C   UNL     1      94.387  86.944  88.746  1.00  0.00     0.048 C 
BRANCH  27  35
ATOM     35  O   UNL     1      93.143  84.670  85.054  1.00  0.00    -0.381 OA
ATOM     36  H   UNL     1      92.667  85.414  85.461  1.00  0.00     0.212 HD
ENDBRANCH  27  35
ENDBRANCH  26  27
ENDBRANCH   2  26
ENDBRANCH   1   2
BRANCH   1  37
ATOM     37  O   UNL     1      96.577  81.794  82.959  1.00  0.00    -0.461 OA
BRANCH  37  38
ATOM     38  C   UNL     1      97.770  82.337  82.539  1.00  0.00     0.310 C 
ATOM     39  O   UNL     1      98.270  83.361  82.983  1.00  0.00    -0.252 OA
BRANCH  38  40
ATOM     40  C   UNL     1      98.360  81.474  81.450  1.00  0.00     0.158 C 
BRANCH  40  41
ATOM     41  C   UNL     1      98.075  81.996  80.066  1.00  0.00    -0.037 A 
ATOM     42  C   UNL     1      96.757  82.142  79.633  1.00  0.00     0.008 A 
ATOM     43  C   UNL     1      99.128  82.335  79.217  1.00  0.00     0.008 A 
ATOM     44  C   UNL     1      96.493  82.625  78.351  1.00  0.00     0.046 A 
ATOM     45  C   UNL     1      98.865  82.819  77.935  1.00  0.00     0.046 A 
ATOM     46  C   UNL     1      97.547  82.963  77.502  1.00  0.00     0.115 A 
BRANCH  46  47
ATOM     47  O   UNL     1      97.289  83.434  76.252  1.00  0.00    -0.508 OA
ATOM     48  H   UNL     1      97.397  84.401  76.250  1.00  0.00     0.293 HD
ENDBRANCH  46  47
ENDBRANCH  40  41
ENDBRANCH  38  40
ENDBRANCH  37  38
ENDBRANCH   1  37
TORSDOF 10
ENDMDL
MODEL 8
REMARK VINA RESULT:    -5.685      2.659      7.004
REMARK INTER + INTRA:         -11.640
REMARK INTER:                 -10.158
REMARK INTRA:                  -1.481
REMARK UNBOUND:                -1.967
REMARK SMILES C=C(C)[C@]12C[C@@H](C)[C@@]34O[C@](Cc5ccccc5)(O[C@@H]1[C@@H]3C=C(COC(=O)Cc1ccc(O)cc1)C[C@]1(O)C(=O)C(C)=C[C@@H]41)O2
REMARK SMILES IDX 23 1 22 2 21 3 20 4 9 5 8 6 10 7 6 8 18 10 44 11 19 12 5 13
REMARK SMILES IDX 7 14 4 15 11 16 12 17 13 18 17 19 14 20 16 21 15 22 2 23
REMARK SMILES IDX 3 24 1 25 35 26 36 27 43 28 38 29 42 30 39 32 40 33 41 34
REMARK SMILES IDX 37 35 24 37 25 38 26 39 27 40 28 41 29 42 34 43 30 44 33 45
REMARK SMILES IDX 31 46 32 47
REMARK H PARENT 37 36 32 48
REMARK Flexibility Score: 90.00
ROOT
ATOM      1  C   UNL     1      61.904  85.190  70.064  1.00  0.00     0.264 C 
ENDROOT
BRANCH   1   2
ATOM      2  C   UNL     1      62.853  86.213  70.645  1.00  0.00    -0.033 C 
ATOM      3  C   UNL     1      62.661  86.649  71.907  1.00  0.00    -0.015 C 
BRANCH   3   4
ATOM      4  C   UNL     1      63.417  87.714  72.686  1.00  0.00     0.078 C 
ATOM      5  O   UNL     1      65.205  86.554  73.941  1.00  0.00    -0.319 OA
ATOM      6  C   UNL     1      64.968  87.535  72.885  1.00  0.00     0.095 CG0
ATOM      7  C   UNL     1      64.355  86.677  75.098  1.00  0.00     0.289 C 
ATOM      8  C   UNL     1      65.558  88.937  73.330  1.00  0.00     0.023 C 
ATOM      9  G   UNL     1      65.619  86.907  71.618  1.00  0.00     0.000 G0
ATOM     10  O   UNL     1      62.978  86.591  74.740  1.00  0.00    -0.320 OA
ATOM     11  O   UNL     1      64.505  87.936  75.750  1.00  0.00    -0.313 OA
ATOM     12  C   UNL     1      62.805  87.865  74.100  1.00  0.00     0.170 C 
ATOM     13  C   UNL     1      64.538  89.738  74.196  1.00  0.00     0.049 C 
ATOM     14  C   UNL     1      66.913  88.883  74.057  1.00  0.00     0.011 C 
ATOM     15  C   UNL     1      63.631  88.810  75.005  1.00  0.00     0.122 C 
BRANCH   7  16
ATOM     16  C   UNL     1      64.704  85.564  76.065  1.00  0.00     0.135 C 
BRANCH  16  17
ATOM     17  C   UNL     1      64.918  86.077  77.467  1.00  0.00    -0.040 A 
ATOM     18  C   UNL     1      66.195  86.067  78.027  1.00  0.00     0.004 A 
ATOM     19  C   UNL     1      63.837  86.563  78.202  1.00  0.00     0.004 A 
ATOM     20  C   UNL     1      66.392  86.543  79.324  1.00  0.00     0.000 A 
ATOM     21  C   UNL     1      64.034  87.039  79.499  1.00  0.00     0.000 A 
ATOM     22  C   UNL     1      65.311  87.028  80.059  1.00  0.00     0.000 A 
ENDBRANCH  16  17
ENDBRANCH   7  16
BRANCH  15  23
ATOM     23  C   UNL     1      62.771  89.553  75.976  1.00  0.00    -0.046 C 
ATOM     24  C   UNL     1      63.473  90.150  77.160  1.00  0.00     0.042 C 
ATOM     25  C   UNL     1      61.448  89.678  75.799  1.00  0.00     0.010 C 
ENDBRANCH  15  23
ENDBRANCH   3   4
BRANCH   2  26
ATOM     26  C   UNL     1      63.951  86.621  69.680  1.00  0.00     0.078 C 
BRANCH  26  27
ATOM     27  C   UNL     1      65.100  87.455  70.243  1.00  0.00     0.140 C 
ATOM     28  C   UNL     1      65.605  86.913  71.597  1.00  0.00     0.086 CG0
ATOM     29  C   UNL     1      66.344  87.385  69.382  1.00  0.00     0.190 C 
ATOM     30  C   UNL     1      67.101  86.924  71.443  1.00  0.00    -0.010 C 
ATOM     31  G   UNL     1      64.965  87.542  72.869  1.00  0.00     0.000 G0
ATOM     32  O   UNL     1      66.375  87.544  68.171  1.00  0.00    -0.291 OA
ATOM     33  C   UNL     1      67.546  87.157  70.205  1.00  0.00    -0.008 C 
ATOM     34  C   UNL     1      68.926  87.161  69.675  1.00  0.00     0.048 C 
BRANCH  27  35
ATOM     35  O   UNL     1      64.779  88.835  70.263  1.00  0.00    -0.381 OA
ATOM     36  H   UNL     1      63.811  88.925  70.240  1.00  0.00     0.212 HD
ENDBRANCH  27  35
ENDBRANCH  26  27
ENDBRANCH   2  26
ENDBRANCH   1   2
BRANCH   1  37
ATOM     37  O   UNL     1      61.654  84.187  71.026  1.00  0.00    -0.461 OA
BRANCH  37  38
ATOM     38  C   UNL     1      62.443  83.063  70.950  1.00  0.00     0.310 C 
ATOM     39  O   UNL     1      63.210  82.803  70.033  1.00  0.00    -0.252 OA
BRANCH  38  40
ATOM     40  C   UNL     1      62.214  82.203  72.170  1.00  0.00     0.158 C 
BRANCH  40  41
ATOM     41  C   UNL     1      63.494  81.818  72.866  1.00  0.00    -0.037 A 
ATOM     42  C   UNL     1      64.071  80.571  72.625  1.00  0.00     0.008 A 
ATOM     43  C   UNL     1      64.102  82.708  73.751  1.00  0.00     0.008 A 
ATOM     44  C   UNL     1      65.255  80.214  73.269  1.00  0.00     0.046 A 
ATOM     45  C   UNL     1      65.287  82.351  74.395  1.00  0.00     0.046 A 
ATOM     46  C   UNL     1      65.863  81.104  74.155  1.00  0.00     0.115 A 
BRANCH  46  47
ATOM     47  O   UNL     1      67.018  80.755  74.784  1.00  0.00    -0.508 OA
ATOM     48  H   UNL     1      67.470  80.072  74.259  1.00  0.00     0.293 HD
ENDBRANCH  46  47
ENDBRANCH  40  41
ENDBRANCH  38  40
ENDBRANCH  37  38
ENDBRANCH   1  37
TORSDOF 10
ENDMDL
MODEL 9
REMARK VINA RESULT:    -5.556     33.615     37.608
REMARK INTER + INTRA:         -11.421
REMARK INTER:                 -10.789
REMARK INTRA:                  -0.631
REMARK UNBOUND:                -1.967
REMARK SMILES C=C(C)[C@]12C[C@@H](C)[C@@]34O[C@](Cc5ccccc5)(O[C@@H]1[C@@H]3C=C(COC(=O)Cc1ccc(O)cc1)C[C@]1(O)C(=O)C(C)=C[C@@H]41)O2
REMARK SMILES IDX 23 1 22 2 21 3 20 4 9 5 8 6 10 7 6 8 18 10 44 11 19 12 5 13
REMARK SMILES IDX 7 14 4 15 11 16 12 17 13 18 17 19 14 20 16 21 15 22 2 23
REMARK SMILES IDX 3 24 1 25 35 26 36 27 43 28 38 29 42 30 39 32 40 33 41 34
REMARK SMILES IDX 37 35 24 37 25 38 26 39 27 40 28 41 29 42 34 43 30 44 33 45
REMARK SMILES IDX 31 46 32 47
REMARK H PARENT 37 36 32 48
REMARK Flexibility Score: 90.00
ROOT
ATOM      1  C   UNL     1      97.171  81.906  78.686  1.00  0.00     0.264 C 
ENDROOT
BRANCH   1   2
ATOM      2  C   UNL     1      97.856  81.943  80.033  1.00  0.00    -0.033 C 
ATOM      3  C   UNL     1      97.166  82.365  81.112  1.00  0.00    -0.015 C 
BRANCH   3   4
ATOM      4  C   UNL     1      97.639  82.566  82.543  1.00  0.00     0.078 C 
ATOM      5  O   UNL     1      97.200  80.452  83.750  1.00  0.00    -0.319 OA
ATOM      6  C   UNL     1      98.270  81.340  83.301  1.00  0.00     0.095 CG0
ATOM      7  C   UNL     1      96.048  81.112  84.311  1.00  0.00     0.289 C 
ATOM      8  C   UNL     1      99.046  81.904  84.562  1.00  0.00     0.023 C 
ATOM      9  G   UNL     1      99.118  80.466  82.331  1.00  0.00     0.000 G0
ATOM     10  O   UNL     1      95.476  82.031  83.385  1.00  0.00    -0.320 OA
ATOM     11  O   UNL     1      96.373  81.881  85.467  1.00  0.00    -0.313 OA
ATOM     12  C   UNL     1      96.467  83.071  83.419  1.00  0.00     0.170 C 
ATOM     13  C   UNL     1      98.347  83.170  85.145  1.00  0.00     0.049 C 
ATOM     14  C   UNL     1      99.293  80.892  85.694  1.00  0.00     0.011 C 
ATOM     15  C   UNL     1      96.834  83.134  84.922  1.00  0.00     0.122 C 
BRANCH   7  16
ATOM     16  C   UNL     1      95.028  80.053  84.680  1.00  0.00     0.135 C 
BRANCH  16  17
ATOM     17  C   UNL     1      93.963  80.590  85.603  1.00  0.00    -0.040 A 
ATOM     18  C   UNL     1      94.052  80.368  86.976  1.00  0.00     0.004 A 
ATOM     19  C   UNL     1      92.888  81.310  85.081  1.00  0.00     0.004 A 
ATOM     20  C   UNL     1      93.067  80.865  87.830  1.00  0.00     0.000 A 
ATOM     21  C   UNL     1      91.903  81.808  85.935  1.00  0.00     0.000 A 
ATOM     22  C   UNL     1      91.993  81.585  87.308  1.00  0.00     0.000 A 
ENDBRANCH  16  17
ENDBRANCH   7  16
BRANCH  15  23
ATOM     23  C   UNL     1      96.124  84.243  85.627  1.00  0.00    -0.046 C 
ATOM     24  C   UNL     1      96.258  84.271  87.121  1.00  0.00     0.042 C 
ATOM     25  C   UNL     1      95.406  85.161  84.964  1.00  0.00     0.010 C 
ENDBRANCH  15  23
ENDBRANCH   3   4
BRANCH   2  26
ATOM     26  C   UNL     1      99.296  81.468  79.982  1.00  0.00     0.078 C 
BRANCH  26  27
ATOM     27  C   UNL     1      99.996  81.217  81.316  1.00  0.00     0.140 C 
ATOM     28  C   UNL     1      99.097  80.457  82.313  1.00  0.00     0.086 CG0
ATOM     29  C   UNL     1     101.187  80.291  81.181  1.00  0.00     0.190 C 
ATOM     30  C   UNL     1     100.007  79.395  82.866  1.00  0.00    -0.010 C 
ATOM     31  G   UNL     1      98.265  81.335  83.293  1.00  0.00     0.000 G0
ATOM     32  O   UNL     1     102.076  80.398  80.350  1.00  0.00    -0.291 OA
ATOM     33  C   UNL     1     101.176  79.258  82.234  1.00  0.00    -0.008 C 
ATOM     34  C   UNL     1     102.263  78.280  82.447  1.00  0.00     0.048 C 
BRANCH  27  35
ATOM     35  O   UNL     1     100.553  82.410  81.842  1.00  0.00    -0.381 OA
ATOM     36  H   UNL     1     100.365  83.135  81.222  1.00  0.00     0.212 HD
ENDBRANCH  27  35
ENDBRANCH  26  27
ENDBRANCH   2  26
ENDBRANCH   1   2
BRANCH   1  37
ATOM     37  O   UNL     1      97.308  80.616  78.129  1.00  0.00    -0.461 OA
BRANCH  37  38
ATOM     38  C   UNL     1      97.567  80.562  76.779  1.00  0.00     0.310 C 
ATOM     39  O   UNL     1      97.819  79.543  76.152  1.00  0.00    -0.252 OA
BRANCH  38  40
ATOM     40  C   UNL     1      97.493  81.953  76.196  1.00  0.00     0.158 C 
BRANCH  40  41
ATOM     41  C   UNL     1      98.832  82.472  75.741  1.00  0.00    -0.037 A 
ATOM     42  C   UNL     1      98.902  83.600  74.923  1.00  0.00     0.008 A 
ATOM     43  C   UNL     1     100.003  81.825  76.137  1.00  0.00     0.008 A 
ATOM     44  C   UNL     1     100.143  84.080  74.500  1.00  0.00     0.046 A 
ATOM     45  C   UNL     1     101.243  82.305  75.715  1.00  0.00     0.046 A 
ATOM     46  C   UNL     1     101.313  83.432  74.897  1.00  0.00     0.115 A 
BRANCH  46  47
ATOM     47  O   UNL     1     102.522  83.900  74.485  1.00  0.00    -0.508 OA
ATOM     48  H   UNL     1     103.224  83.446  74.984  1.00  0.00     0.293 HD
ENDBRANCH  46  47
ENDBRANCH  40  41
ENDBRANCH  38  40
ENDBRANCH  37  38
ENDBRANCH   1  37
TORSDOF 10
ENDMDL
MODEL 10
REMARK VINA RESULT:    -5.538     35.386     38.884
REMARK INTER + INTRA:         -11.389
REMARK INTER:                  -9.277
REMARK INTRA:                  -2.112
REMARK UNBOUND:                -1.967
REMARK SMILES C=C(C)[C@]12C[C@@H](C)[C@@]34O[C@](Cc5ccccc5)(O[C@@H]1[C@@H]3C=C(COC(=O)Cc1ccc(O)cc1)C[C@]1(O)C(=O)C(C)=C[C@@H]41)O2
REMARK SMILES IDX 23 1 22 2 21 3 20 4 9 5 8 6 10 7 6 8 18 10 44 11 19 12 5 13
REMARK SMILES IDX 7 14 4 15 11 16 12 17 13 18 17 19 14 20 16 21 15 22 2 23
REMARK SMILES IDX 3 24 1 25 35 26 36 27 43 28 38 29 42 30 39 32 40 33 41 34
REMARK SMILES IDX 37 35 24 37 25 38 26 39 27 40 28 41 29 42 34 43 30 44 33 45
REMARK SMILES IDX 31 46 32 47
REMARK H PARENT 37 36 32 48
REMARK Flexibility Score: 90.00
ROOT
ATOM      1  C   UNL     1     102.866  80.223  79.895  1.00  0.00     0.264 C 
ENDROOT
BRANCH   1   2
ATOM      2  C   UNL     1     101.809  79.728  80.856  1.00  0.00    -0.033 C 
ATOM      3  C   UNL     1     101.126  80.621  81.602  1.00  0.00    -0.015 C 
BRANCH   3   4
ATOM      4  C   UNL     1     100.083  80.379  82.681  1.00  0.00     0.078 C 
ATOM      5  O   UNL     1      97.873  80.439  81.573  1.00  0.00    -0.319 OA
ATOM      6  C   UNL     1      98.790  79.567  82.304  1.00  0.00     0.095 CG0
ATOM      7  C   UNL     1      97.739  81.772  82.102  1.00  0.00     0.289 C 
ATOM      8  C   UNL     1      98.105  79.101  83.655  1.00  0.00     0.023 C 
ATOM      9  G   UNL     1      99.127  78.427  81.298  1.00  0.00     0.000 G0
ATOM     10  O   UNL     1      98.998  82.435  82.160  1.00  0.00    -0.320 OA
ATOM     11  O   UNL     1      97.238  81.778  83.437  1.00  0.00    -0.313 OA
ATOM     12  C   UNL     1      99.601  81.733  83.259  1.00  0.00     0.170 C 
ATOM     13  C   UNL     1      98.316  80.146  84.793  1.00  0.00     0.049 C 
ATOM     14  C   UNL     1      96.610  78.753  83.552  1.00  0.00     0.011 C 
ATOM     15  C   UNL     1      98.416  81.570  84.242  1.00  0.00     0.122 C 
BRANCH   7  16
ATOM     16  C   UNL     1      96.793  82.545  81.205  1.00  0.00     0.135 C 
BRANCH  16  17
ATOM     17  C   UNL     1      97.265  82.571  79.772  1.00  0.00    -0.040 A 
ATOM     18  C   UNL     1      98.625  82.683  79.488  1.00  0.00     0.004 A 
ATOM     19  C   UNL     1      96.339  82.484  78.733  1.00  0.00     0.004 A 
ATOM     20  C   UNL     1      99.062  82.706  78.163  1.00  0.00     0.000 A 
ATOM     21  C   UNL     1      96.776  82.508  77.408  1.00  0.00     0.000 A 
ATOM     22  C   UNL     1      98.136  82.619  77.123  1.00  0.00     0.000 A 
ENDBRANCH  16  17
ENDBRANCH   7  16
BRANCH  15  23
ATOM     23  C   UNL     1      98.436  82.602  85.322  1.00  0.00    -0.046 C 
ATOM     24  C   UNL     1      97.304  83.587  85.317  1.00  0.00     0.042 C 
ATOM     25  C   UNL     1      99.410  82.647  86.243  1.00  0.00     0.010 C 
ENDBRANCH  15  23
ENDBRANCH   3   4
BRANCH   2  26
ATOM     26  C   UNL     1     101.651  78.219  80.842  1.00  0.00     0.078 C 
BRANCH  26  27
ATOM     27  C   UNL     1     100.448  77.636  81.581  1.00  0.00     0.140 C 
ATOM     28  C   UNL     1      99.153  78.428  81.305  1.00  0.00     0.086 CG0
ATOM     29  C   UNL     1     100.088  76.247  81.099  1.00  0.00     0.190 C 
ATOM     30  C   UNL     1      98.139  77.354  81.026  1.00  0.00    -0.010 C 
ATOM     31  G   UNL     1      98.811  79.558  82.319  1.00  0.00     0.000 G0
ATOM     32  O   UNL     1     100.874  75.322  80.954  1.00  0.00    -0.291 OA
ATOM     33  C   UNL     1      98.635  76.123  80.877  1.00  0.00    -0.008 C 
ATOM     34  C   UNL     1      97.956  74.860  80.522  1.00  0.00     0.048 C 
BRANCH  27  35
ATOM     35  O   UNL     1     100.725  77.455  82.960  1.00  0.00    -0.381 OA
ATOM     36  H   UNL     1      99.881  77.342  83.429  1.00  0.00     0.212 HD
ENDBRANCH  27  35
ENDBRANCH  26  27
ENDBRANCH   2  26
ENDBRANCH   1   2
BRANCH   1  37
ATOM     37  O   UNL     1     102.245  80.938  78.848  1.00  0.00    -0.461 OA
BRANCH  37  38
ATOM     38  C   UNL     1     102.524  80.509  77.571  1.00  0.00     0.310 C 
ATOM     39  O   UNL     1     103.641  80.257  77.143  1.00  0.00    -0.252 OA
BRANCH  38  40
ATOM     40  C   UNL     1     101.239  80.400  76.785  1.00  0.00     0.158 C 
BRANCH  40  41
ATOM     41  C   UNL     1     100.555  79.069  76.960  1.00  0.00    -0.037 A 
ATOM     42  C   UNL     1     101.311  77.897  77.008  1.00  0.00     0.008 A 
ATOM     43  C   UNL     1      99.167  79.007  77.073  1.00  0.00     0.008 A 
ATOM     44  C   UNL     1     100.678  76.664  77.168  1.00  0.00     0.046 A 
ATOM     45  C   UNL     1      98.533  77.774  77.234  1.00  0.00     0.046 A 
ATOM     46  C   UNL     1      99.288  76.603  77.282  1.00  0.00     0.115 A 
BRANCH  46  47
ATOM     47  O   UNL     1      98.671  75.401  77.438  1.00  0.00    -0.508 OA
ATOM     48  H   UNL     1      97.727  75.552  77.619  1.00  0.00     0.293 HD
ENDBRANCH  46  47
ENDBRANCH  40  41
ENDBRANCH  38  40
ENDBRANCH  37  38
ENDBRANCH   1  37
TORSDOF 10
ENDMDL
