MODEL 1
REMARK VINA RESULT:    -6.309      0.000      0.000
REMARK INTER + INTRA:         -11.632
REMARK INTER:                 -10.367
REMARK INTRA:                  -1.265
REMARK UNBOUND:                -1.265
REMARK SMILES CCCCC[C@H](O)CC(=O)CCc1ccc(O)c(OC)c1
REMARK SMILES IDX 8 1 6 2 7 3 5 5 4 6 3 7 2 8 1 9 9 10 10 11 11 12 12 13 13 14
REMARK SMILES IDX 21 15 14 16 18 17 15 18 16 19 19 20 20 21 17 22
REMARK H PARENT 7 4 17 23
REMARK Flexibility Score: inf
ROOT
ATOM      1  C   UNL     1      91.173  91.135  76.057  1.00  0.00     0.107 C 
ENDROOT
BRANCH   1   2
ATOM      2  C   UNL     1      90.329  89.911  75.690  1.00  0.00     0.121 C 
BRANCH   2   3
ATOM      3  O   UNL     1      90.265  89.018  76.799  1.00  0.00    -0.393 OA
ATOM      4  H   UNL     1      90.240  89.553  77.612  1.00  0.00     0.210 HD
ENDBRANCH   2   3
BRANCH   2   5
ATOM      5  C   UNL     1      88.905  90.274  75.251  1.00  0.00     0.032 C 
BRANCH   5   6
ATOM      6  C   UNL     1      88.668  89.981  73.765  1.00  0.00     0.003 C 
BRANCH   6   7
ATOM      7  C   UNL     1      88.392  91.239  72.935  1.00  0.00    -0.000 C 
BRANCH   7   8
ATOM      8  C   UNL     1      89.655  92.011  72.556  1.00  0.00    -0.003 C 
ATOM      9  C   UNL     1      89.417  93.513  72.587  1.00  0.00     0.004 C 
ENDBRANCH   7   8
ENDBRANCH   6   7
ENDBRANCH   5   6
ENDBRANCH   2   5
ENDBRANCH   1   2
BRANCH   1  10
ATOM     10  C   UNL     1      90.630  91.895  77.255  1.00  0.00     0.135 C 
ATOM     11  O   UNL     1      90.285  91.303  78.278  1.00  0.00    -0.300 OA
BRANCH  10  12
ATOM     12  C   UNL     1      90.581  93.411  77.136  1.00  0.00     0.080 C 
BRANCH  12  13
ATOM     13  C   UNL     1      91.216  93.947  75.852  1.00  0.00     0.043 C 
BRANCH  13  14
ATOM     14  C   UNL     1      92.653  94.374  76.035  1.00  0.00    -0.044 A 
ATOM     15  C   UNL     1      93.341  94.027  77.197  1.00  0.00     0.054 A 
ATOM     16  C   UNL     1      93.292  95.114  75.040  1.00  0.00     0.008 A 
ATOM     17  C   UNL     1      94.669  94.421  77.365  1.00  0.00     0.160 A 
ATOM     18  C   UNL     1      94.620  95.508  75.207  1.00  0.00     0.050 A 
ATOM     19  C   UNL     1      95.308  95.161  76.370  1.00  0.00     0.157 A 
BRANCH  17  20
ATOM     20  O   UNL     1      95.331  94.077  78.505  1.00  0.00    -0.493 OA
ATOM     21  C   UNL     1      95.167  94.934  79.633  1.00  0.00     0.278 C 
ENDBRANCH  17  20
BRANCH  19  22
ATOM     22  O   UNL     1      96.604  95.551  76.522  1.00  0.00    -0.504 OA
ATOM     23  H   UNL     1      96.821  95.568  77.470  1.00  0.00     0.293 HD
ENDBRANCH  19  22
ENDBRANCH  13  14
ENDBRANCH  12  13
ENDBRANCH  10  12
ENDBRANCH   1  10
TORSDOF 12
ENDMDL
MODEL 2
REMARK VINA RESULT:    -6.142      1.970      2.914
REMARK INTER + INTRA:         -11.357
REMARK INTER:                 -10.294
REMARK INTRA:                  -1.063
REMARK UNBOUND:                -1.265
REMARK SMILES CCCCC[C@H](O)CC(=O)CCc1ccc(O)c(OC)c1
REMARK SMILES IDX 8 1 6 2 7 3 5 5 4 6 3 7 2 8 1 9 9 10 10 11 11 12 12 13 13 14
REMARK SMILES IDX 21 15 14 16 18 17 15 18 16 19 19 20 20 21 17 22
REMARK H PARENT 7 4 17 23
REMARK Flexibility Score: inf
ROOT
ATOM      1  C   UNL     1      90.119  91.660  74.835  1.00  0.00     0.107 C 
ENDROOT
BRANCH   1   2
ATOM      2  C   UNL     1      90.820  90.934  73.685  1.00  0.00     0.121 C 
BRANCH   2   3
ATOM      3  O   UNL     1      92.209  90.796  73.975  1.00  0.00    -0.393 OA
ATOM      4  H   UNL     1      92.307  90.747  74.942  1.00  0.00     0.210 HD
ENDBRANCH   2   3
BRANCH   2   5
ATOM      5  C   UNL     1      90.225  89.550  73.398  1.00  0.00     0.032 C 
BRANCH   5   6
ATOM      6  C   UNL     1      89.245  89.106  74.491  1.00  0.00     0.003 C 
BRANCH   6   7
ATOM      7  C   UNL     1      89.615  87.762  75.128  1.00  0.00    -0.000 C 
BRANCH   7   8
ATOM      8  C   UNL     1      90.617  87.884  76.275  1.00  0.00    -0.003 C 
ATOM      9  C   UNL     1      90.001  88.583  77.477  1.00  0.00     0.004 C 
ENDBRANCH   7   8
ENDBRANCH   6   7
ENDBRANCH   5   6
ENDBRANCH   2   5
ENDBRANCH   1   2
BRANCH   1  10
ATOM     10  C   UNL     1      90.180  93.174  74.709  1.00  0.00     0.135 C 
ATOM     11  O   UNL     1      89.863  93.735  73.660  1.00  0.00    -0.300 OA
BRANCH  10  12
ATOM     12  C   UNL     1      90.603  93.945  75.950  1.00  0.00     0.080 C 
BRANCH  12  13
ATOM     13  C   UNL     1      91.560  93.171  76.858  1.00  0.00     0.043 C 
BRANCH  13  14
ATOM     14  C   UNL     1      92.996  93.621  76.726  1.00  0.00    -0.044 A 
ATOM     15  C   UNL     1      93.709  94.020  77.856  1.00  0.00     0.054 A 
ATOM     16  C   UNL     1      93.608  93.637  75.472  1.00  0.00     0.008 A 
ATOM     17  C   UNL     1      95.035  94.434  77.733  1.00  0.00     0.160 A 
ATOM     18  C   UNL     1      94.935  94.052  75.349  1.00  0.00     0.050 A 
ATOM     19  C   UNL     1      95.648  94.451  76.479  1.00  0.00     0.157 A 
BRANCH  17  20
ATOM     20  O   UNL     1      95.722  94.822  78.844  1.00  0.00    -0.493 OA
ATOM     21  C   UNL     1      95.596  94.001  80.003  1.00  0.00     0.278 C 
ENDBRANCH  17  20
BRANCH  19  22
ATOM     22  O   UNL     1      96.942  94.853  76.347  1.00  0.00    -0.504 OA
ATOM     23  H   UNL     1      97.406  94.239  75.751  1.00  0.00     0.293 HD
ENDBRANCH  19  22
ENDBRANCH  13  14
ENDBRANCH  12  13
ENDBRANCH  10  12
ENDBRANCH   1  10
TORSDOF 12
ENDMDL
MODEL 3
REMARK VINA RESULT:    -6.020      2.209      7.593
REMARK INTER + INTRA:         -11.156
REMARK INTER:                 -10.420
REMARK INTRA:                  -0.736
REMARK UNBOUND:                -1.265
REMARK SMILES CCCCC[C@H](O)CC(=O)CCc1ccc(O)c(OC)c1
REMARK SMILES IDX 8 1 6 2 7 3 5 5 4 6 3 7 2 8 1 9 9 10 10 11 11 12 12 13 13 14
REMARK SMILES IDX 21 15 14 16 18 17 15 18 16 19 19 20 20 21 17 22
REMARK H PARENT 7 4 17 23
REMARK Flexibility Score: inf
ROOT
ATOM      1  C   UNL     1      93.670  94.697  75.898  1.00  0.00     0.107 C 
ENDROOT
BRANCH   1   2
ATOM      2  C   UNL     1      94.910  93.806  76.010  1.00  0.00     0.121 C 
BRANCH   2   3
ATOM      3  O   UNL     1      95.674  93.887  74.809  1.00  0.00    -0.393 OA
ATOM      4  H   UNL     1      96.315  93.154  74.814  1.00  0.00     0.210 HD
ENDBRANCH   2   3
BRANCH   2   5
ATOM      5  C   UNL     1      95.804  94.168  77.202  1.00  0.00     0.032 C 
BRANCH   5   6
ATOM      6  C   UNL     1      94.986  94.482  78.461  1.00  0.00     0.003 C 
BRANCH   6   7
ATOM      7  C   UNL     1      95.666  94.023  79.755  1.00  0.00    -0.000 C 
BRANCH   7   8
ATOM      8  C   UNL     1      96.577  95.081  80.376  1.00  0.00    -0.003 C 
ATOM      9  C   UNL     1      95.828  95.932  81.390  1.00  0.00     0.004 C 
ENDBRANCH   7   8
ENDBRANCH   6   7
ENDBRANCH   5   6
ENDBRANCH   2   5
ENDBRANCH   1   2
BRANCH   1  10
ATOM     10  C   UNL     1      92.373  93.907  75.834  1.00  0.00     0.135 C 
ATOM     11  O   UNL     1      91.755  93.789  74.776  1.00  0.00    -0.300 OA
BRANCH  10  12
ATOM     12  C   UNL     1      91.914  93.243  77.123  1.00  0.00     0.080 C 
BRANCH  12  13
ATOM     13  C   UNL     1      90.439  92.839  77.116  1.00  0.00     0.043 C 
BRANCH  13  14
ATOM     14  C   UNL     1      90.226  91.369  77.387  1.00  0.00    -0.044 A 
ATOM     15  C   UNL     1      90.119  90.472  76.324  1.00  0.00     0.054 A 
ATOM     16  C   UNL     1      90.137  90.908  78.700  1.00  0.00     0.008 A 
ATOM     17  C   UNL     1      89.924  89.114  76.575  1.00  0.00     0.160 A 
ATOM     18  C   UNL     1      89.942  89.549  78.952  1.00  0.00     0.050 A 
ATOM     19  C   UNL     1      89.835  88.653  77.889  1.00  0.00     0.157 A 
BRANCH  17  20
ATOM     20  O   UNL     1      89.820  88.247  75.529  1.00  0.00    -0.493 OA
ATOM     21  C   UNL     1      89.983  88.789  74.220  1.00  0.00     0.278 C 
ENDBRANCH  17  20
BRANCH  19  22
ATOM     22  O   UNL     1      89.644  87.329  78.147  1.00  0.00    -0.504 OA
ATOM     23  H   UNL     1      89.059  86.955  77.466  1.00  0.00     0.293 HD
ENDBRANCH  19  22
ENDBRANCH  13  14
ENDBRANCH  12  13
ENDBRANCH  10  12
ENDBRANCH   1  10
TORSDOF 12
ENDMDL
MODEL 4
REMARK VINA RESULT:    -5.974      2.281      7.177
REMARK INTER + INTRA:         -11.080
REMARK INTER:                 -10.135
REMARK INTRA:                  -0.945
REMARK UNBOUND:                -1.265
REMARK SMILES CCCCC[C@H](O)CC(=O)CCc1ccc(O)c(OC)c1
REMARK SMILES IDX 8 1 6 2 7 3 5 5 4 6 3 7 2 8 1 9 9 10 10 11 11 12 12 13 13 14
REMARK SMILES IDX 21 15 14 16 18 17 15 18 16 19 19 20 20 21 17 22
REMARK H PARENT 7 4 17 23
REMARK Flexibility Score: inf
ROOT
ATOM      1  C   UNL     1      92.697  92.652  75.953  1.00  0.00     0.107 C 
ENDROOT
BRANCH   1   2
ATOM      2  C   UNL     1      93.260  93.596  74.888  1.00  0.00     0.121 C 
BRANCH   2   3
ATOM      3  O   UNL     1      92.192  94.272  74.228  1.00  0.00    -0.393 OA
ATOM      4  H   UNL     1      91.630  93.598  73.807  1.00  0.00     0.210 HD
ENDBRANCH   2   3
BRANCH   2   5
ATOM      5  C   UNL     1      94.235  94.633  75.460  1.00  0.00     0.032 C 
BRANCH   5   6
ATOM      6  C   UNL     1      95.699  94.225  75.249  1.00  0.00     0.003 C 
BRANCH   6   7
ATOM      7  C   UNL     1      96.373  93.705  76.522  1.00  0.00    -0.000 C 
BRANCH   7   8
ATOM      8  C   UNL     1      95.630  94.076  77.804  1.00  0.00    -0.003 C 
ATOM      9  C   UNL     1      96.320  95.218  78.534  1.00  0.00     0.004 C 
ENDBRANCH   7   8
ENDBRANCH   6   7
ENDBRANCH   5   6
ENDBRANCH   2   5
ENDBRANCH   1   2
BRANCH   1  10
ATOM     10  C   UNL     1      91.758  93.345  76.928  1.00  0.00     0.135 C 
ATOM     11  O   UNL     1      91.497  94.542  76.812  1.00  0.00    -0.300 OA
BRANCH  10  12
ATOM     12  C   UNL     1      91.135  92.476  78.009  1.00  0.00     0.080 C 
BRANCH  12  13
ATOM     13  C   UNL     1      89.698  92.048  77.701  1.00  0.00     0.043 C 
BRANCH  13  14
ATOM     14  C   UNL     1      89.621  90.772  76.897  1.00  0.00    -0.044 A 
ATOM     15  C   UNL     1      89.154  90.803  75.583  1.00  0.00     0.054 A 
ATOM     16  C   UNL     1      90.015  89.562  77.469  1.00  0.00     0.008 A 
ATOM     17  C   UNL     1      89.083  89.624  74.840  1.00  0.00     0.160 A 
ATOM     18  C   UNL     1      89.945  88.383  76.727  1.00  0.00     0.050 A 
ATOM     19  C   UNL     1      89.478  88.414  75.413  1.00  0.00     0.157 A 
BRANCH  17  20
ATOM     20  O   UNL     1      88.626  89.666  73.558  1.00  0.00    -0.493 OA
ATOM     21  C   UNL     1      89.525  90.155  72.565  1.00  0.00     0.278 C 
ENDBRANCH  17  20
BRANCH  19  22
ATOM     22  O   UNL     1      89.414  87.256  74.698  1.00  0.00    -0.504 OA
ATOM     23  H   UNL     1      88.613  86.769  74.956  1.00  0.00     0.293 HD
ENDBRANCH  19  22
ENDBRANCH  13  14
ENDBRANCH  12  13
ENDBRANCH  10  12
ENDBRANCH   1  10
TORSDOF 12
ENDMDL
MODEL 5
REMARK VINA RESULT:    -5.970      2.564      5.901
REMARK INTER + INTRA:         -11.074
REMARK INTER:                  -9.865
REMARK INTRA:                  -1.209
REMARK UNBOUND:                -1.265
REMARK SMILES CCCCC[C@H](O)CC(=O)CCc1ccc(O)c(OC)c1
REMARK SMILES IDX 8 1 6 2 7 3 5 5 4 6 3 7 2 8 1 9 9 10 10 11 11 12 12 13 13 14
REMARK SMILES IDX 21 15 14 16 18 17 15 18 16 19 19 20 20 21 17 22
REMARK H PARENT 7 4 17 23
REMARK Flexibility Score: inf
ROOT
ATOM      1  C   UNL     1      92.107  92.535  75.678  1.00  0.00     0.107 C 
ENDROOT
BRANCH   1   2
ATOM      2  C   UNL     1      91.553  93.476  74.605  1.00  0.00     0.121 C 
BRANCH   2   3
ATOM      3  O   UNL     1      92.577  94.366  74.166  1.00  0.00    -0.393 OA
ATOM      4  H   UNL     1      93.125  94.593  74.938  1.00  0.00     0.210 HD
ENDBRANCH   2   3
BRANCH   2   5
ATOM      5  C   UNL     1      90.977  92.732  73.394  1.00  0.00     0.032 C 
BRANCH   5   6
ATOM      6  C   UNL     1      89.761  93.453  72.800  1.00  0.00     0.003 C 
BRANCH   6   7
ATOM      7  C   UNL     1      88.637  92.501  72.380  1.00  0.00    -0.000 C 
BRANCH   7   8
ATOM      8  C   UNL     1      88.883  91.048  72.783  1.00  0.00    -0.003 C 
ATOM      9  C   UNL     1      87.579  90.271  72.880  1.00  0.00     0.004 C 
ENDBRANCH   7   8
ENDBRANCH   6   7
ENDBRANCH   5   6
ENDBRANCH   2   5
ENDBRANCH   1   2
BRANCH   1  10
ATOM     10  C   UNL     1      91.623  92.877  77.078  1.00  0.00     0.135 C 
ATOM     11  O   UNL     1      92.404  92.898  78.030  1.00  0.00    -0.300 OA
BRANCH  10  12
ATOM     12  C   UNL     1      90.151  93.230  77.223  1.00  0.00     0.080 C 
BRANCH  12  13
ATOM     13  C   UNL     1      89.208  92.210  76.582  1.00  0.00     0.043 C 
BRANCH  13  14
ATOM     14  C   UNL     1      89.502  90.789  77.000  1.00  0.00    -0.044 A 
ATOM     15  C   UNL     1      89.602  89.785  76.036  1.00  0.00     0.054 A 
ATOM     16  C   UNL     1      89.672  90.480  78.349  1.00  0.00     0.008 A 
ATOM     17  C   UNL     1      89.875  88.473  76.422  1.00  0.00     0.160 A 
ATOM     18  C   UNL     1      89.945  89.167  78.736  1.00  0.00     0.050 A 
ATOM     19  C   UNL     1      90.045  88.164  77.772  1.00  0.00     0.157 A 
BRANCH  17  20
ATOM     20  O   UNL     1      89.970  87.501  75.472  1.00  0.00    -0.493 OA
ATOM     21  C   UNL     1      91.213  87.390  74.782  1.00  0.00     0.278 C 
ENDBRANCH  17  20
BRANCH  19  22
ATOM     22  O   UNL     1      90.311  86.886  78.162  1.00  0.00    -0.504 OA
ATOM     23  H   UNL     1      89.848  86.706  78.998  1.00  0.00     0.293 HD
ENDBRANCH  19  22
ENDBRANCH  13  14
ENDBRANCH  12  13
ENDBRANCH  10  12
ENDBRANCH   1  10
TORSDOF 12
ENDMDL
MODEL 6
REMARK VINA RESULT:    -5.863     13.345     16.218
REMARK INTER + INTRA:         -10.899
REMARK INTER:                  -9.495
REMARK INTRA:                  -1.404
REMARK UNBOUND:                -1.265
REMARK SMILES CCCCC[C@H](O)CC(=O)CCc1ccc(O)c(OC)c1
REMARK SMILES IDX 8 1 6 2 7 3 5 5 4 6 3 7 2 8 1 9 9 10 10 11 11 12 12 13 13 14
REMARK SMILES IDX 21 15 14 16 18 17 15 18 16 19 19 20 20 21 17 22
REMARK H PARENT 7 4 17 23
REMARK Flexibility Score: inf
ROOT
ATOM      1  C   UNL     1      83.634  90.160  85.033  1.00  0.00     0.107 C 
ENDROOT
BRANCH   1   2
ATOM      2  C   UNL     1      84.485  89.576  86.163  1.00  0.00     0.121 C 
BRANCH   2   3
ATOM      3  O   UNL     1      85.831  89.415  85.721  1.00  0.00    -0.393 OA
ATOM      4  H   UNL     1      86.242  88.721  86.265  1.00  0.00     0.210 HD
ENDBRANCH   2   3
BRANCH   2   5
ATOM      5  C   UNL     1      84.470  90.437  87.432  1.00  0.00     0.032 C 
BRANCH   5   6
ATOM      6  C   UNL     1      83.759  91.777  87.211  1.00  0.00     0.003 C 
BRANCH   6   7
ATOM      7  C   UNL     1      83.210  92.393  88.502  1.00  0.00    -0.000 C 
BRANCH   7   8
ATOM      8  C   UNL     1      82.687  93.817  88.327  1.00  0.00    -0.003 C 
ATOM      9  C   UNL     1      83.708  94.701  87.627  1.00  0.00     0.004 C 
ENDBRANCH   7   8
ENDBRANCH   6   7
ENDBRANCH   5   6
ENDBRANCH   2   5
ENDBRANCH   1   2
BRANCH   1  10
ATOM     10  C   UNL     1      82.519  89.230  84.585  1.00  0.00     0.135 C 
ATOM     11  O   UNL     1      82.738  88.038  84.368  1.00  0.00    -0.300 OA
BRANCH  10  12
ATOM     12  C   UNL     1      81.129  89.837  84.466  1.00  0.00     0.080 C 
BRANCH  12  13
ATOM     13  C   UNL     1      80.440  90.062  85.813  1.00  0.00     0.043 C 
BRANCH  13  14
ATOM     14  C   UNL     1      80.594  88.895  86.759  1.00  0.00    -0.044 A 
ATOM     15  C   UNL     1      81.259  89.065  87.974  1.00  0.00     0.054 A 
ATOM     16  C   UNL     1      80.071  87.647  86.418  1.00  0.00     0.008 A 
ATOM     17  C   UNL     1      81.400  87.986  88.847  1.00  0.00     0.160 A 
ATOM     18  C   UNL     1      80.212  86.569  87.292  1.00  0.00     0.050 A 
ATOM     19  C   UNL     1      80.877  86.739  88.506  1.00  0.00     0.157 A 
BRANCH  17  20
ATOM     20  O   UNL     1      82.052  88.164  90.030  1.00  0.00    -0.493 OA
ATOM     21  C   UNL     1      82.071  89.485  90.568  1.00  0.00     0.278 C 
ENDBRANCH  17  20
BRANCH  19  22
ATOM     22  O   UNL     1      81.009  85.678  89.351  1.00  0.00    -0.504 OA
ATOM     23  H   UNL     1      80.729  85.947  90.243  1.00  0.00     0.293 HD
ENDBRANCH  19  22
ENDBRANCH  13  14
ENDBRANCH  12  13
ENDBRANCH  10  12
ENDBRANCH   1  10
TORSDOF 12
ENDMDL
MODEL 7
REMARK VINA RESULT:    -5.795     13.309     15.681
REMARK INTER + INTRA:         -10.787
REMARK INTER:                  -9.355
REMARK INTRA:                  -1.432
REMARK UNBOUND:                -1.265
REMARK SMILES CCCCC[C@H](O)CC(=O)CCc1ccc(O)c(OC)c1
REMARK SMILES IDX 8 1 6 2 7 3 5 5 4 6 3 7 2 8 1 9 9 10 10 11 11 12 12 13 13 14
REMARK SMILES IDX 21 15 14 16 18 17 15 18 16 19 19 20 20 21 17 22
REMARK H PARENT 7 4 17 23
REMARK Flexibility Score: inf
ROOT
ATOM      1  C   UNL     1      81.597  87.104  84.399  1.00  0.00     0.107 C 
ENDROOT
BRANCH   1   2
ATOM      2  C   UNL     1      81.412  85.737  85.064  1.00  0.00     0.121 C 
BRANCH   2   3
ATOM      3  O   UNL     1      82.057  84.731  84.287  1.00  0.00    -0.393 OA
ATOM      4  H   UNL     1      81.719  84.796  83.376  1.00  0.00     0.210 HD
ENDBRANCH   2   3
BRANCH   2   5
ATOM      5  C   UNL     1      81.952  85.690  86.499  1.00  0.00     0.032 C 
BRANCH   5   6
ATOM      6  C   UNL     1      81.308  86.757  87.392  1.00  0.00     0.003 C 
BRANCH   6   7
ATOM      7  C   UNL     1      80.898  86.228  88.770  1.00  0.00    -0.000 C 
BRANCH   7   8
ATOM      8  C   UNL     1      80.074  87.221  89.587  1.00  0.00    -0.003 C 
ATOM      9  C   UNL     1      79.333  86.527  90.720  1.00  0.00     0.004 C 
ENDBRANCH   7   8
ENDBRANCH   6   7
ENDBRANCH   5   6
ENDBRANCH   2   5
ENDBRANCH   1   2
BRANCH   1  10
ATOM     10  C   UNL     1      80.296  87.696  83.884  1.00  0.00     0.135 C 
ATOM     11  O   UNL     1      79.772  87.271  82.854  1.00  0.00    -0.300 OA
BRANCH  10  12
ATOM     12  C   UNL     1      79.665  88.795  84.726  1.00  0.00     0.080 C 
BRANCH  12  13
ATOM     13  C   UNL     1      80.426  90.121  84.675  1.00  0.00     0.043 C 
BRANCH  13  14
ATOM     14  C   UNL     1      81.424  90.275  85.798  1.00  0.00    -0.044 A 
ATOM     15  C   UNL     1      82.785  90.383  85.513  1.00  0.00     0.054 A 
ATOM     16  C   UNL     1      80.983  90.309  87.122  1.00  0.00     0.008 A 
ATOM     17  C   UNL     1      83.705  90.526  86.551  1.00  0.00     0.160 A 
ATOM     18  C   UNL     1      81.904  90.451  88.160  1.00  0.00     0.050 A 
ATOM     19  C   UNL     1      83.265  90.560  87.875  1.00  0.00     0.157 A 
BRANCH  17  20
ATOM     20  O   UNL     1      85.032  90.630  86.260  1.00  0.00    -0.493 OA
ATOM     21  C   UNL     1      85.415  91.645  85.334  1.00  0.00     0.278 C 
ENDBRANCH  17  20
BRANCH  19  22
ATOM     22  O   UNL     1      84.154  90.698  88.897  1.00  0.00    -0.504 OA
ATOM     23  H   UNL     1      83.890  90.114  89.628  1.00  0.00     0.293 HD
ENDBRANCH  19  22
ENDBRANCH  13  14
ENDBRANCH  12  13
ENDBRANCH  10  12
ENDBRANCH   1  10
TORSDOF 12
ENDMDL
MODEL 8
REMARK VINA RESULT:    -5.415     13.768     16.774
REMARK INTER + INTRA:         -10.162
REMARK INTER:                  -8.299
REMARK INTRA:                  -1.863
REMARK UNBOUND:                -1.265
REMARK SMILES CCCCC[C@H](O)CC(=O)CCc1ccc(O)c(OC)c1
REMARK SMILES IDX 8 1 6 2 7 3 5 5 4 6 3 7 2 8 1 9 9 10 10 11 11 12 12 13 13 14
REMARK SMILES IDX 21 15 14 16 18 17 15 18 16 19 19 20 20 21 17 22
REMARK H PARENT 7 4 17 23
REMARK Flexibility Score: inf
ROOT
ATOM      1  C   UNL     1      80.955  90.723  88.949  1.00  0.00     0.107 C 
ENDROOT
BRANCH   1   2
ATOM      2  C   UNL     1      82.180  91.591  88.649  1.00  0.00     0.121 C 
BRANCH   2   3
ATOM      3  O   UNL     1      83.251  91.234  89.521  1.00  0.00    -0.393 OA
ATOM      4  H   UNL     1      84.082  91.519  89.104  1.00  0.00     0.210 HD
ENDBRANCH   2   3
BRANCH   2   5
ATOM      5  C   UNL     1      82.655  91.478  87.196  1.00  0.00     0.032 C 
BRANCH   5   6
ATOM      6  C   UNL     1      82.185  90.176  86.535  1.00  0.00     0.003 C 
BRANCH   6   7
ATOM      7  C   UNL     1      83.089  89.718  85.386  1.00  0.00    -0.000 C 
BRANCH   7   8
ATOM      8  C   UNL     1      84.381  89.051  85.852  1.00  0.00    -0.003 C 
ATOM      9  C   UNL     1      85.583  89.955  85.630  1.00  0.00     0.004 C 
ENDBRANCH   7   8
ENDBRANCH   6   7
ENDBRANCH   5   6
ENDBRANCH   2   5
ENDBRANCH   1   2
BRANCH   1  10
ATOM     10  C   UNL     1      81.187  89.735  90.081  1.00  0.00     0.135 C 
ATOM     11  O   UNL     1      81.302  90.121  91.244  1.00  0.00    -0.300 OA
BRANCH  10  12
ATOM     12  C   UNL     1      81.224  88.262  89.703  1.00  0.00     0.080 C 
BRANCH  12  13
ATOM     13  C   UNL     1      80.113  87.847  88.737  1.00  0.00     0.043 C 
BRANCH  13  14
ATOM     14  C   UNL     1      80.620  87.046  87.562  1.00  0.00    -0.044 A 
ATOM     15  C   UNL     1      80.003  87.167  86.316  1.00  0.00     0.054 A 
ATOM     16  C   UNL     1      81.705  86.183  87.722  1.00  0.00     0.008 A 
ATOM     17  C   UNL     1      80.473  86.427  85.231  1.00  0.00     0.160 A 
ATOM     18  C   UNL     1      82.174  85.443  86.637  1.00  0.00     0.050 A 
ATOM     19  C   UNL     1      81.558  85.565  85.392  1.00  0.00     0.157 A 
BRANCH  17  20
ATOM     20  O   UNL     1      79.863  86.554  84.020  1.00  0.00    -0.493 OA
ATOM     21  C   UNL     1      80.289  87.632  83.189  1.00  0.00     0.278 C 
ENDBRANCH  17  20
BRANCH  19  22
ATOM     22  O   UNL     1      82.025  84.837  84.340  1.00  0.00    -0.504 OA
ATOM     23  H   UNL     1      81.303  84.702  83.702  1.00  0.00     0.293 HD
ENDBRANCH  19  22
ENDBRANCH  13  14
ENDBRANCH  12  13
ENDBRANCH  10  12
ENDBRANCH   1  10
TORSDOF 12
ENDMDL
MODEL 9
REMARK VINA RESULT:    -5.365     26.393     28.992
REMARK INTER + INTRA:         -10.080
REMARK INTER:                  -9.273
REMARK INTRA:                  -0.807
REMARK UNBOUND:                -1.265
REMARK SMILES CCCCC[C@H](O)CC(=O)CCc1ccc(O)c(OC)c1
REMARK SMILES IDX 8 1 6 2 7 3 5 5 4 6 3 7 2 8 1 9 9 10 10 11 11 12 12 13 13 14
REMARK SMILES IDX 21 15 14 16 18 17 15 18 16 19 19 20 20 21 17 22
REMARK H PARENT 7 4 17 23
REMARK Flexibility Score: inf
ROOT
ATOM      1  C   UNL     1      83.485  65.850  76.007  1.00  0.00     0.107 C 
ENDROOT
BRANCH   1   2
ATOM      2  C   UNL     1      81.976  66.057  76.160  1.00  0.00     0.121 C 
BRANCH   2   3
ATOM      3  O   UNL     1      81.725  67.216  76.950  1.00  0.00    -0.393 OA
ATOM      4  H   UNL     1      81.954  67.003  77.872  1.00  0.00     0.210 HD
ENDBRANCH   2   3
BRANCH   2   5
ATOM      5  C   UNL     1      81.250  66.195  74.816  1.00  0.00     0.032 C 
BRANCH   5   6
ATOM      6  C   UNL     1      80.615  64.874  74.366  1.00  0.00     0.003 C 
BRANCH   6   7
ATOM      7  C   UNL     1      80.179  64.880  72.897  1.00  0.00    -0.000 C 
BRANCH   7   8
ATOM      8  C   UNL     1      80.240  66.261  72.246  1.00  0.00    -0.003 C 
ATOM      9  C   UNL     1      80.269  66.158  70.729  1.00  0.00     0.004 C 
ENDBRANCH   7   8
ENDBRANCH   6   7
ENDBRANCH   5   6
ENDBRANCH   2   5
ENDBRANCH   1   2
BRANCH   1  10
ATOM     10  C   UNL     1      83.903  64.394  76.141  1.00  0.00     0.135 C 
ATOM     11  O   UNL     1      84.462  63.808  75.214  1.00  0.00    -0.300 OA
BRANCH  10  12
ATOM     12  C   UNL     1      83.636  63.729  77.482  1.00  0.00     0.080 C 
BRANCH  12  13
ATOM     13  C   UNL     1      84.894  63.178  78.157  1.00  0.00     0.043 C 
BRANCH  13  14
ATOM     14  C   UNL     1      85.337  64.000  79.344  1.00  0.00    -0.044 A 
ATOM     15  C   UNL     1      86.058  65.177  79.147  1.00  0.00     0.054 A 
ATOM     16  C   UNL     1      85.025  63.581  80.637  1.00  0.00     0.008 A 
ATOM     17  C   UNL     1      86.467  65.936  80.244  1.00  0.00     0.160 A 
ATOM     18  C   UNL     1      85.434  64.339  81.734  1.00  0.00     0.050 A 
ATOM     19  C   UNL     1      86.155  65.517  81.537  1.00  0.00     0.157 A 
BRANCH  17  20
ATOM     20  O   UNL     1      87.171  67.085  80.039  1.00  0.00    -0.493 OA
ATOM     21  C   UNL     1      87.591  67.357  78.703  1.00  0.00     0.278 C 
ENDBRANCH  17  20
BRANCH  19  22
ATOM     22  O   UNL     1      86.548  66.250  82.616  1.00  0.00    -0.504 OA
ATOM     23  H   UNL     1      87.289  65.796  83.054  1.00  0.00     0.293 HD
ENDBRANCH  19  22
ENDBRANCH  13  14
ENDBRANCH  12  13
ENDBRANCH  10  12
ENDBRANCH   1  10
TORSDOF 12
ENDMDL
MODEL 10
REMARK VINA RESULT:    -5.289     18.240     22.607
REMARK INTER + INTRA:          -9.955
REMARK INTER:                  -8.523
REMARK INTRA:                  -1.432
REMARK UNBOUND:                -1.265
REMARK SMILES CCCCC[C@H](O)CC(=O)CCc1ccc(O)c(OC)c1
REMARK SMILES IDX 8 1 6 2 7 3 5 5 4 6 3 7 2 8 1 9 9 10 10 11 11 12 12 13 13 14
REMARK SMILES IDX 21 15 14 16 18 17 15 18 16 19 19 20 20 21 17 22
REMARK H PARENT 7 4 17 23
REMARK Flexibility Score: inf
ROOT
ATOM      1  C   UNL     1      77.888  86.546  65.109  1.00  0.00     0.107 C 
ENDROOT
BRANCH   1   2
ATOM      2  C   UNL     1      77.607  86.475  66.612  1.00  0.00     0.121 C 
BRANCH   2   3
ATOM      3  O   UNL     1      78.808  86.162  67.314  1.00  0.00    -0.393 OA
ATOM      4  H   UNL     1      78.877  86.770  68.071  1.00  0.00     0.210 HD
ENDBRANCH   2   3
BRANCH   2   5
ATOM      5  C   UNL     1      77.018  87.775  67.174  1.00  0.00     0.032 C 
BRANCH   5   6
ATOM      6  C   UNL     1      75.569  87.596  67.642  1.00  0.00     0.003 C 
BRANCH   6   7
ATOM      7  C   UNL     1      75.006  86.201  67.352  1.00  0.00    -0.000 C 
BRANCH   7   8
ATOM      8  C   UNL     1      74.645  85.413  68.609  1.00  0.00    -0.003 C 
ATOM      9  C   UNL     1      75.626  84.276  68.851  1.00  0.00     0.004 C 
ENDBRANCH   7   8
ENDBRANCH   6   7
ENDBRANCH   5   6
ENDBRANCH   2   5
ENDBRANCH   1   2
BRANCH   1  10
ATOM     10  C   UNL     1      76.821  85.862  64.271  1.00  0.00     0.135 C 
ATOM     11  O   UNL     1      75.910  86.510  63.754  1.00  0.00    -0.300 OA
BRANCH  10  12
ATOM     12  C   UNL     1      76.967  84.361  64.072  1.00  0.00     0.080 C 
BRANCH  12  13
ATOM     13  C   UNL     1      76.491  83.534  65.267  1.00  0.00     0.043 C 
BRANCH  13  14
ATOM     14  C   UNL     1      75.264  82.707  64.965  1.00  0.00    -0.044 A 
ATOM     15  C   UNL     1      74.045  83.336  64.711  1.00  0.00     0.054 A 
ATOM     16  C   UNL     1      75.350  81.315  64.939  1.00  0.00     0.008 A 
ATOM     17  C   UNL     1      72.912  82.571  64.430  1.00  0.00     0.160 A 
ATOM     18  C   UNL     1      74.217  80.551  64.658  1.00  0.00     0.050 A 
ATOM     19  C   UNL     1      72.998  81.179  64.404  1.00  0.00     0.157 A 
BRANCH  17  20
ATOM     20  O   UNL     1      71.727  83.196  64.184  1.00  0.00    -0.493 OA
ATOM     21  C   UNL     1      70.939  83.562  65.316  1.00  0.00     0.278 C 
ENDBRANCH  17  20
BRANCH  19  22
ATOM     22  O   UNL     1      71.899  80.422  64.132  1.00  0.00    -0.504 OA
ATOM     23  H   UNL     1      72.105  79.489  64.312  1.00  0.00     0.293 HD
ENDBRANCH  19  22
ENDBRANCH  13  14
ENDBRANCH  12  13
ENDBRANCH  10  12
ENDBRANCH   1  10
TORSDOF 12
ENDMDL
