MODEL 1
REMARK VINA RESULT:    -6.668      0.000      0.000
REMARK INTER + INTRA:         -11.995
REMARK INTER:                 -10.956
REMARK INTRA:                  -1.038
REMARK UNBOUND:                -1.038
REMARK SMILES CCCCC[C@H](O)CC(=O)CCc1ccc(O)c(OC)c1
REMARK SMILES IDX 8 1 6 2 7 3 5 5 4 6 3 7 2 8 1 9 9 10 10 11 11 12 12 13 13 14
REMARK SMILES IDX 21 15 14 16 18 17 15 18 16 19 19 20 20 21 17 22
REMARK H PARENT 7 4 17 23
REMARK Flexibility Score: inf
ROOT
ATOM      1  C   UNL     1      91.615  91.412  73.351  1.00  0.00     0.107 C 
ENDROOT
BRANCH   1   2
ATOM      2  C   UNL     1      92.093  92.632  74.142  1.00  0.00     0.121 C 
BRANCH   2   3
ATOM      3  O   UNL     1      91.310  93.771  73.795  1.00  0.00    -0.393 OA
ATOM      4  H   UNL     1      90.377  93.498  73.781  1.00  0.00     0.210 HD
ENDBRANCH   2   3
BRANCH   2   5
ATOM      5  C   UNL     1      92.035  92.423  75.660  1.00  0.00     0.032 C 
BRANCH   5   6
ATOM      6  C   UNL     1      91.703  93.720  76.408  1.00  0.00     0.003 C 
BRANCH   6   7
ATOM      7  C   UNL     1      92.946  94.500  76.850  1.00  0.00    -0.000 C 
BRANCH   7   8
ATOM      8  C   UNL     1      94.253  93.737  76.643  1.00  0.00    -0.003 C 
ATOM      9  C   UNL     1      95.088  94.356  75.533  1.00  0.00     0.004 C 
ENDBRANCH   7   8
ENDBRANCH   6   7
ENDBRANCH   5   6
ENDBRANCH   2   5
ENDBRANCH   1   2
BRANCH   1  10
ATOM     10  C   UNL     1      90.324  91.666  72.589  1.00  0.00     0.135 C 
ATOM     11  O   UNL     1      90.328  91.802  71.365  1.00  0.00    -0.300 OA
BRANCH  10  12
ATOM     12  C   UNL     1      89.043  91.694  73.408  1.00  0.00     0.080 C 
BRANCH  12  13
ATOM     13  C   UNL     1      88.449  90.309  73.668  1.00  0.00     0.043 C 
BRANCH  13  14
ATOM     14  C   UNL     1      89.194  89.535  74.730  1.00  0.00    -0.044 A 
ATOM     15  C   UNL     1      89.215  89.997  76.045  1.00  0.00     0.054 A 
ATOM     16  C   UNL     1      89.862  88.357  74.393  1.00  0.00     0.008 A 
ATOM     17  C   UNL     1      89.903  89.281  77.025  1.00  0.00     0.160 A 
ATOM     18  C   UNL     1      90.550  87.641  75.373  1.00  0.00     0.050 A 
ATOM     19  C   UNL     1      90.571  88.103  76.689  1.00  0.00     0.157 A 
BRANCH  17  20
ATOM     20  O   UNL     1      89.917  89.743  78.307  1.00  0.00    -0.493 OA
ATOM     21  C   UNL     1      90.224  91.123  78.495  1.00  0.00     0.278 C 
ENDBRANCH  17  20
BRANCH  19  22
ATOM     22  O   UNL     1      91.246  87.396  77.636  1.00  0.00    -0.504 OA
ATOM     23  H   UNL     1      91.773  86.704  77.200  1.00  0.00     0.293 HD
ENDBRANCH  19  22
ENDBRANCH  13  14
ENDBRANCH  12  13
ENDBRANCH  10  12
ENDBRANCH   1  10
TORSDOF 12
ENDMDL
MODEL 2
REMARK VINA RESULT:    -6.598     12.853     15.619
REMARK INTER + INTRA:         -11.880
REMARK INTER:                  -9.971
REMARK INTRA:                  -1.908
REMARK UNBOUND:                -1.038
REMARK SMILES CCCCC[C@H](O)CC(=O)CCc1ccc(O)c(OC)c1
REMARK SMILES IDX 8 1 6 2 7 3 5 5 4 6 3 7 2 8 1 9 9 10 10 11 11 12 12 13 13 14
REMARK SMILES IDX 21 15 14 16 18 17 15 18 16 19 19 20 20 21 17 22
REMARK H PARENT 7 4 17 23
REMARK Flexibility Score: inf
ROOT
ATOM      1  C   UNL     1      80.679  85.848  86.253  1.00  0.00     0.107 C 
ENDROOT
BRANCH   1   2
ATOM      2  C   UNL     1      81.239  86.104  84.852  1.00  0.00     0.121 C 
BRANCH   2   3
ATOM      3  O   UNL     1      81.943  84.951  84.395  1.00  0.00    -0.393 OA
ATOM      4  H   UNL     1      82.853  85.223  84.183  1.00  0.00     0.210 HD
ENDBRANCH   2   3
BRANCH   2   5
ATOM      5  C   UNL     1      80.155  86.471  83.831  1.00  0.00     0.032 C 
BRANCH   5   6
ATOM      6  C   UNL     1      80.133  87.975  83.530  1.00  0.00     0.003 C 
BRANCH   6   7
ATOM      7  C   UNL     1      79.387  88.794  84.588  1.00  0.00    -0.000 C 
BRANCH   7   8
ATOM      8  C   UNL     1      80.093  90.095  84.964  1.00  0.00    -0.003 C 
ATOM      9  C   UNL     1      81.492  90.159  84.370  1.00  0.00     0.004 C 
ENDBRANCH   7   8
ENDBRANCH   6   7
ENDBRANCH   5   6
ENDBRANCH   2   5
ENDBRANCH   1   2
BRANCH   1  10
ATOM     10  C   UNL     1      81.755  85.809  87.326  1.00  0.00     0.135 C 
ATOM     11  O   UNL     1      82.689  85.011  87.257  1.00  0.00    -0.300 OA
BRANCH  10  12
ATOM     12  C   UNL     1      81.636  86.828  88.449  1.00  0.00     0.080 C 
BRANCH  12  13
ATOM     13  C   UNL     1      80.797  88.053  88.080  1.00  0.00     0.043 C 
BRANCH  13  14
ATOM     14  C   UNL     1      81.592  89.337  88.079  1.00  0.00    -0.044 A 
ATOM     15  C   UNL     1      82.869  89.366  87.518  1.00  0.00     0.054 A 
ATOM     16  C   UNL     1      81.049  90.494  88.638  1.00  0.00     0.008 A 
ATOM     17  C   UNL     1      83.602  90.553  87.517  1.00  0.00     0.160 A 
ATOM     18  C   UNL     1      81.782  91.681  88.637  1.00  0.00     0.050 A 
ATOM     19  C   UNL     1      83.059  91.710  88.076  1.00  0.00     0.157 A 
BRANCH  17  20
ATOM     20  O   UNL     1      84.849  90.569  86.967  1.00  0.00    -0.493 OA
ATOM     21  C   UNL     1      85.145  89.561  86.002  1.00  0.00     0.278 C 
ENDBRANCH  17  20
BRANCH  19  22
ATOM     22  O   UNL     1      83.766  92.874  88.081  1.00  0.00    -0.504 OA
ATOM     23  H   UNL     1      84.157  93.004  88.962  1.00  0.00     0.293 HD
ENDBRANCH  19  22
ENDBRANCH  13  14
ENDBRANCH  12  13
ENDBRANCH  10  12
ENDBRANCH   1  10
TORSDOF 12
ENDMDL
MODEL 3
REMARK VINA RESULT:    -6.202      3.646      5.623
REMARK INTER + INTRA:         -11.229
REMARK INTER:                 -10.311
REMARK INTRA:                  -0.918
REMARK UNBOUND:                -1.038
REMARK SMILES CCCCC[C@H](O)CC(=O)CCc1ccc(O)c(OC)c1
REMARK SMILES IDX 8 1 6 2 7 3 5 5 4 6 3 7 2 8 1 9 9 10 10 11 11 12 12 13 13 14
REMARK SMILES IDX 21 15 14 16 18 17 15 18 16 19 19 20 20 21 17 22
REMARK H PARENT 7 4 17 23
REMARK Flexibility Score: inf
ROOT
ATOM      1  C   UNL     1      95.678  93.682  77.332  1.00  0.00     0.107 C 
ENDROOT
BRANCH   1   2
ATOM      2  C   UNL     1      94.974  94.424  78.471  1.00  0.00     0.121 C 
BRANCH   2   3
ATOM      3  O   UNL     1      94.413  93.485  79.386  1.00  0.00    -0.393 OA
ATOM      4  H   UNL     1      93.643  93.905  79.809  1.00  0.00     0.210 HD
ENDBRANCH   2   3
BRANCH   2   5
ATOM      5  C   UNL     1      95.904  95.376  79.233  1.00  0.00     0.032 C 
BRANCH   5   6
ATOM      6  C   UNL     1      95.494  95.531  80.702  1.00  0.00     0.003 C 
BRANCH   6   7
ATOM      7  C   UNL     1      96.619  96.066  81.593  1.00  0.00    -0.000 C 
BRANCH   7   8
ATOM      8  C   UNL     1      96.322  97.437  82.198  1.00  0.00    -0.003 C 
ATOM      9  C   UNL     1      96.456  97.415  83.713  1.00  0.00     0.004 C 
ENDBRANCH   7   8
ENDBRANCH   6   7
ENDBRANCH   5   6
ENDBRANCH   2   5
ENDBRANCH   1   2
BRANCH   1  10
ATOM     10  C   UNL     1      95.256  94.167  75.955  1.00  0.00     0.135 C 
ATOM     11  O   UNL     1      95.980  93.995  74.974  1.00  0.00    -0.300 OA
BRANCH  10  12
ATOM     12  C   UNL     1      93.890  94.827  75.853  1.00  0.00     0.080 C 
BRANCH  12  13
ATOM     13  C   UNL     1      92.903  94.065  74.967  1.00  0.00     0.043 C 
BRANCH  13  14
ATOM     14  C   UNL     1      92.136  93.000  75.716  1.00  0.00    -0.044 A 
ATOM     15  C   UNL     1      91.843  91.786  75.096  1.00  0.00     0.054 A 
ATOM     16  C   UNL     1      91.721  93.233  77.027  1.00  0.00     0.008 A 
ATOM     17  C   UNL     1      91.135  90.803  75.788  1.00  0.00     0.160 A 
ATOM     18  C   UNL     1      91.013  92.250  77.720  1.00  0.00     0.050 A 
ATOM     19  C   UNL     1      90.720  91.035  77.100  1.00  0.00     0.157 A 
BRANCH  17  20
ATOM     20  O   UNL     1      90.854  89.621  75.173  1.00  0.00    -0.493 OA
ATOM     21  C   UNL     1      90.254  89.690  73.881  1.00  0.00     0.278 C 
ENDBRANCH  17  20
BRANCH  19  22
ATOM     22  O   UNL     1      90.029  90.083  77.786  1.00  0.00    -0.504 OA
ATOM     23  H   UNL     1      90.135  90.241  78.740  1.00  0.00     0.293 HD
ENDBRANCH  19  22
ENDBRANCH  13  14
ENDBRANCH  12  13
ENDBRANCH  10  12
ENDBRANCH   1  10
TORSDOF 12
ENDMDL
MODEL 4
REMARK VINA RESULT:    -6.062      2.345      4.527
REMARK INTER + INTRA:         -10.999
REMARK INTER:                 -10.029
REMARK INTRA:                  -0.970
REMARK UNBOUND:                -1.038
REMARK SMILES CCCCC[C@H](O)CC(=O)CCc1ccc(O)c(OC)c1
REMARK SMILES IDX 8 1 6 2 7 3 5 5 4 6 3 7 2 8 1 9 9 10 10 11 11 12 12 13 13 14
REMARK SMILES IDX 21 15 14 16 18 17 15 18 16 19 19 20 20 21 17 22
REMARK H PARENT 7 4 17 23
REMARK Flexibility Score: inf
ROOT
ATOM      1  C   UNL     1      93.916  94.434  76.933  1.00  0.00     0.107 C 
ENDROOT
BRANCH   1   2
ATOM      2  C   UNL     1      94.682  93.746  75.801  1.00  0.00     0.121 C 
BRANCH   2   3
ATOM      3  O   UNL     1      93.763  93.168  74.877  1.00  0.00    -0.393 OA
ATOM      4  H   UNL     1      93.791  92.202  74.994  1.00  0.00     0.210 HD
ENDBRANCH   2   3
BRANCH   2   5
ATOM      5  C   UNL     1      95.624  94.695  75.050  1.00  0.00     0.032 C 
BRANCH   5   6
ATOM      6  C   UNL     1      95.338  96.166  75.375  1.00  0.00     0.003 C 
BRANCH   6   7
ATOM      7  C   UNL     1      95.426  97.085  74.151  1.00  0.00    -0.000 C 
BRANCH   7   8
ATOM      8  C   UNL     1      94.063  97.490  73.592  1.00  0.00    -0.003 C 
ATOM      9  C   UNL     1      93.890  99.001  73.593  1.00  0.00     0.004 C 
ENDBRANCH   7   8
ENDBRANCH   6   7
ENDBRANCH   5   6
ENDBRANCH   2   5
ENDBRANCH   1   2
BRANCH   1  10
ATOM     10  C   UNL     1      92.479  93.953  77.058  1.00  0.00     0.135 C 
ATOM     11  O   UNL     1      92.208  92.925  77.677  1.00  0.00    -0.300 OA
BRANCH  10  12
ATOM     12  C   UNL     1      91.409  94.829  76.423  1.00  0.00     0.080 C 
BRANCH  12  13
ATOM     13  C   UNL     1      90.045  94.147  76.309  1.00  0.00     0.043 C 
BRANCH  13  14
ATOM     14  C   UNL     1      90.025  93.030  75.292  1.00  0.00    -0.044 A 
ATOM     15  C   UNL     1      89.644  91.744  75.675  1.00  0.00     0.054 A 
ATOM     16  C   UNL     1      90.387  93.286  73.969  1.00  0.00     0.008 A 
ATOM     17  C   UNL     1      89.625  90.714  74.735  1.00  0.00     0.160 A 
ATOM     18  C   UNL     1      90.368  92.255  73.029  1.00  0.00     0.050 A 
ATOM     19  C   UNL     1      89.987  90.969  73.412  1.00  0.00     0.157 A 
BRANCH  17  20
ATOM     20  O   UNL     1      89.252  89.462  75.121  1.00  0.00    -0.493 OA
ATOM     21  C   UNL     1      90.178  88.727  75.920  1.00  0.00     0.278 C 
ENDBRANCH  17  20
BRANCH  19  22
ATOM     22  O   UNL     1      89.972  89.971  72.485  1.00  0.00    -0.504 OA
ATOM     23  H   UNL     1      89.395  89.255  72.801  1.00  0.00     0.293 HD
ENDBRANCH  19  22
ENDBRANCH  13  14
ENDBRANCH  12  13
ENDBRANCH  10  12
ENDBRANCH   1  10
TORSDOF 12
ENDMDL
MODEL 5
REMARK VINA RESULT:    -6.057     12.838     15.618
REMARK INTER + INTRA:         -10.990
REMARK INTER:                  -9.023
REMARK INTRA:                  -1.967
REMARK UNBOUND:                -1.038
REMARK SMILES CCCCC[C@H](O)CC(=O)CCc1ccc(O)c(OC)c1
REMARK SMILES IDX 8 1 6 2 7 3 5 5 4 6 3 7 2 8 1 9 9 10 10 11 11 12 12 13 13 14
REMARK SMILES IDX 21 15 14 16 18 17 15 18 16 19 19 20 20 21 17 22
REMARK H PARENT 7 4 17 23
REMARK Flexibility Score: inf
ROOT
ATOM      1  C   UNL     1      80.221  86.224  85.775  1.00  0.00     0.107 C 
ENDROOT
BRANCH   1   2
ATOM      2  C   UNL     1      81.054  86.745  84.601  1.00  0.00     0.121 C 
BRANCH   2   3
ATOM      3  O   UNL     1      81.053  85.787  83.546  1.00  0.00    -0.393 OA
ATOM      4  H   UNL     1      80.214  85.878  83.061  1.00  0.00     0.210 HD
ENDBRANCH   2   3
BRANCH   2   5
ATOM      5  C   UNL     1      80.554  88.091  84.062  1.00  0.00     0.032 C 
BRANCH   5   6
ATOM      6  C   UNL     1      81.438  89.259  84.517  1.00  0.00     0.003 C 
BRANCH   6   7
ATOM      7  C   UNL     1      82.822  88.818  85.004  1.00  0.00    -0.000 C 
BRANCH   7   8
ATOM      8  C   UNL     1      83.849  89.948  85.034  1.00  0.00    -0.003 C 
ATOM      9  C   UNL     1      84.907  89.708  86.100  1.00  0.00     0.004 C 
ENDBRANCH   7   8
ENDBRANCH   6   7
ENDBRANCH   5   6
ENDBRANCH   2   5
ENDBRANCH   1   2
BRANCH   1  10
ATOM     10  C   UNL     1      80.931  86.353  87.113  1.00  0.00     0.135 C 
ATOM     11  O   UNL     1      82.024  85.820  87.303  1.00  0.00    -0.300 OA
BRANCH  10  12
ATOM     12  C   UNL     1      80.244  87.204  88.170  1.00  0.00     0.080 C 
BRANCH  12  13
ATOM     13  C   UNL     1      80.239  88.699  87.848  1.00  0.00     0.043 C 
BRANCH  13  14
ATOM     14  C   UNL     1      81.395  89.444  88.472  1.00  0.00    -0.044 A 
ATOM     15  C   UNL     1      81.748  90.708  87.999  1.00  0.00     0.054 A 
ATOM     16  C   UNL     1      82.110  88.867  89.522  1.00  0.00     0.008 A 
ATOM     17  C   UNL     1      82.815  91.395  88.577  1.00  0.00     0.160 A 
ATOM     18  C   UNL     1      83.177  89.554  90.100  1.00  0.00     0.050 A 
ATOM     19  C   UNL     1      83.530  90.818  89.627  1.00  0.00     0.157 A 
BRANCH  17  20
ATOM     20  O   UNL     1      83.151  92.628  88.107  1.00  0.00    -0.493 OA
ATOM     21  C   UNL     1      82.439  93.742  88.642  1.00  0.00     0.278 C 
ENDBRANCH  17  20
BRANCH  19  22
ATOM     22  O   UNL     1      84.575  91.479  90.199  1.00  0.00    -0.504 OA
ATOM     23  H   UNL     1      84.290  91.840  91.057  1.00  0.00     0.293 HD
ENDBRANCH  19  22
ENDBRANCH  13  14
ENDBRANCH  12  13
ENDBRANCH  10  12
ENDBRANCH   1  10
TORSDOF 12
ENDMDL
MODEL 6
REMARK VINA RESULT:    -5.840     13.207     16.139
REMARK INTER + INTRA:         -10.633
REMARK INTER:                  -8.325
REMARK INTRA:                  -2.308
REMARK UNBOUND:                -1.038
REMARK SMILES CCCCC[C@H](O)CC(=O)CCc1ccc(O)c(OC)c1
REMARK SMILES IDX 8 1 6 2 7 3 5 5 4 6 3 7 2 8 1 9 9 10 10 11 11 12 12 13 13 14
REMARK SMILES IDX 21 15 14 16 18 17 15 18 16 19 19 20 20 21 17 22
REMARK H PARENT 7 4 17 23
REMARK Flexibility Score: inf
ROOT
ATOM      1  C   UNL     1      80.436  85.940  85.539  1.00  0.00     0.107 C 
ENDROOT
BRANCH   1   2
ATOM      2  C   UNL     1      80.361  86.954  84.394  1.00  0.00     0.121 C 
BRANCH   2   3
ATOM      3  O   UNL     1      79.558  86.431  83.338  1.00  0.00    -0.393 OA
ATOM      4  H   UNL     1      80.156  86.112  82.640  1.00  0.00     0.210 HD
ENDBRANCH   2   3
BRANCH   2   5
ATOM      5  C   UNL     1      79.798  88.312  84.831  1.00  0.00     0.032 C 
BRANCH   5   6
ATOM      6  C   UNL     1      80.711  89.473  84.419  1.00  0.00     0.003 C 
BRANCH   6   7
ATOM      7  C   UNL     1      81.835  89.747  85.424  1.00  0.00    -0.000 C 
BRANCH   7   8
ATOM      8  C   UNL     1      83.199  89.229  84.972  1.00  0.00    -0.003 C 
ATOM      9  C   UNL     1      84.192  89.202  86.124  1.00  0.00     0.004 C 
ENDBRANCH   7   8
ENDBRANCH   6   7
ENDBRANCH   5   6
ENDBRANCH   2   5
ENDBRANCH   1   2
BRANCH   1  10
ATOM     10  C   UNL     1      81.822  85.840  86.155  1.00  0.00     0.135 C 
ATOM     11  O   UNL     1      82.816  85.660  85.452  1.00  0.00    -0.300 OA
BRANCH  10  12
ATOM     12  C   UNL     1      81.912  86.018  87.663  1.00  0.00     0.080 C 
BRANCH  12  13
ATOM     13  C   UNL     1      80.668  86.659  88.282  1.00  0.00     0.043 C 
BRANCH  13  14
ATOM     14  C   UNL     1      80.856  88.122  88.607  1.00  0.00    -0.044 A 
ATOM     15  C   UNL     1      79.786  89.008  88.479  1.00  0.00     0.054 A 
ATOM     16  C   UNL     1      82.099  88.587  89.035  1.00  0.00     0.008 A 
ATOM     17  C   UNL     1      79.960  90.359  88.780  1.00  0.00     0.160 A 
ATOM     18  C   UNL     1      82.274  89.938  89.336  1.00  0.00     0.050 A 
ATOM     19  C   UNL     1      81.204  90.824  89.208  1.00  0.00     0.157 A 
BRANCH  17  20
ATOM     20  O   UNL     1      78.908  91.215  88.651  1.00  0.00    -0.493 OA
ATOM     21  C   UNL     1      77.990  91.283  89.740  1.00  0.00     0.278 C 
ENDBRANCH  17  20
BRANCH  19  22
ATOM     22  O   UNL     1      81.386  92.141  89.505  1.00  0.00    -0.504 OA
ATOM     23  H   UNL     1      82.328  92.361  89.402  1.00  0.00     0.293 HD
ENDBRANCH  19  22
ENDBRANCH  13  14
ENDBRANCH  12  13
ENDBRANCH  10  12
ENDBRANCH   1  10
TORSDOF 12
ENDMDL
MODEL 7
REMARK VINA RESULT:    -5.798     12.086     15.297
REMARK INTER + INTRA:         -10.565
REMARK INTER:                  -8.492
REMARK INTRA:                  -2.074
REMARK UNBOUND:                -1.038
REMARK SMILES CCCCC[C@H](O)CC(=O)CCc1ccc(O)c(OC)c1
REMARK SMILES IDX 8 1 6 2 7 3 5 5 4 6 3 7 2 8 1 9 9 10 10 11 11 12 12 13 13 14
REMARK SMILES IDX 21 15 14 16 18 17 15 18 16 19 19 20 20 21 17 22
REMARK H PARENT 7 4 17 23
REMARK Flexibility Score: inf
ROOT
ATOM      1  C   UNL     1      83.689  90.815  84.271  1.00  0.00     0.107 C 
ENDROOT
BRANCH   1   2
ATOM      2  C   UNL     1      82.689  89.662  84.153  1.00  0.00     0.121 C 
BRANCH   2   3
ATOM      3  O   UNL     1      83.161  88.535  84.886  1.00  0.00    -0.393 OA
ATOM      4  H   UNL     1      84.066  88.343  84.586  1.00  0.00     0.210 HD
ENDBRANCH   2   3
BRANCH   2   5
ATOM      5  C   UNL     1      81.285  90.034  84.646  1.00  0.00     0.032 C 
BRANCH   5   6
ATOM      6  C   UNL     1      80.524  88.818  85.189  1.00  0.00     0.003 C 
BRANCH   6   7
ATOM      7  C   UNL     1      79.457  88.290  84.224  1.00  0.00    -0.000 C 
BRANCH   7   8
ATOM      8  C   UNL     1      79.988  87.265  83.224  1.00  0.00    -0.003 C 
ATOM      9  C   UNL     1      80.792  86.177  83.920  1.00  0.00     0.004 C 
ENDBRANCH   7   8
ENDBRANCH   6   7
ENDBRANCH   5   6
ENDBRANCH   2   5
ENDBRANCH   1   2
BRANCH   1  10
ATOM     10  C   UNL     1      84.803  90.536  85.268  1.00  0.00     0.135 C 
ATOM     11  O   UNL     1      85.811  89.914  84.933  1.00  0.00    -0.300 OA
BRANCH  10  12
ATOM     12  C   UNL     1      84.622  91.103  86.668  1.00  0.00     0.080 C 
BRANCH  12  13
ATOM     13  C   UNL     1      84.270  90.047  87.717  1.00  0.00     0.043 C 
BRANCH  13  14
ATOM     14  C   UNL     1      82.805  90.043  88.084  1.00  0.00    -0.044 A 
ATOM     15  C   UNL     1      82.195  88.863  88.510  1.00  0.00     0.054 A 
ATOM     16  C   UNL     1      82.061  91.220  87.995  1.00  0.00     0.008 A 
ATOM     17  C   UNL     1      80.842  88.861  88.849  1.00  0.00     0.160 A 
ATOM     18  C   UNL     1      80.708  91.218  88.334  1.00  0.00     0.050 A 
ATOM     19  C   UNL     1      80.098  90.038  88.761  1.00  0.00     0.157 A 
BRANCH  17  20
ATOM     20  O   UNL     1      80.257  87.703  89.264  1.00  0.00    -0.493 OA
ATOM     21  C   UNL     1      79.756  86.831  88.253  1.00  0.00     0.278 C 
ENDBRANCH  17  20
BRANCH  19  22
ATOM     22  O   UNL     1      78.776  90.048  89.089  1.00  0.00    -0.504 OA
ATOM     23  H   UNL     1      78.300  89.433  88.505  1.00  0.00     0.293 HD
ENDBRANCH  19  22
ENDBRANCH  13  14
ENDBRANCH  12  13
ENDBRANCH  10  12
ENDBRANCH   1  10
TORSDOF 12
ENDMDL
MODEL 8
REMARK VINA RESULT:    -5.765      2.619      5.161
REMARK INTER + INTRA:         -10.511
REMARK INTER:                  -9.348
REMARK INTRA:                  -1.163
REMARK UNBOUND:                -1.038
REMARK SMILES CCCCC[C@H](O)CC(=O)CCc1ccc(O)c(OC)c1
REMARK SMILES IDX 8 1 6 2 7 3 5 5 4 6 3 7 2 8 1 9 9 10 10 11 11 12 12 13 13 14
REMARK SMILES IDX 21 15 14 16 18 17 15 18 16 19 19 20 20 21 17 22
REMARK H PARENT 7 4 17 23
REMARK Flexibility Score: inf
ROOT
ATOM      1  C   UNL     1      94.682  94.939  77.567  1.00  0.00     0.107 C 
ENDROOT
BRANCH   1   2
ATOM      2  C   UNL     1      95.925  94.131  77.188  1.00  0.00     0.121 C 
BRANCH   2   3
ATOM      3  O   UNL     1      95.931  92.893  77.895  1.00  0.00    -0.393 OA
ATOM      4  H   UNL     1      95.330  92.981  78.656  1.00  0.00     0.210 HD
ENDBRANCH   2   3
BRANCH   2   5
ATOM      5  C   UNL     1      96.025  93.853  75.683  1.00  0.00     0.032 C 
BRANCH   5   6
ATOM      6  C   UNL     1      96.033  95.146  74.858  1.00  0.00     0.003 C 
BRANCH   6   7
ATOM      7  C   UNL     1      97.146  96.118  75.263  1.00  0.00    -0.000 C 
BRANCH   7   8
ATOM      8  C   UNL     1      96.670  97.560  75.426  1.00  0.00    -0.003 C 
ATOM      9  C   UNL     1      96.915  98.068  76.839  1.00  0.00     0.004 C 
ENDBRANCH   7   8
ENDBRANCH   6   7
ENDBRANCH   5   6
ENDBRANCH   2   5
ENDBRANCH   1   2
BRANCH   1  10
ATOM     10  C   UNL     1      93.383  94.211  77.261  1.00  0.00     0.135 C 
ATOM     11  O   UNL     1      93.027  93.242  77.932  1.00  0.00    -0.300 OA
BRANCH  10  12
ATOM     12  C   UNL     1      92.540  94.769  76.125  1.00  0.00     0.080 C 
BRANCH  12  13
ATOM     13  C   UNL     1      91.033  94.675  76.373  1.00  0.00     0.043 C 
BRANCH  13  14
ATOM     14  C   UNL     1      90.434  93.375  75.893  1.00  0.00    -0.044 A 
ATOM     15  C   UNL     1      90.659  92.943  74.586  1.00  0.00     0.054 A 
ATOM     16  C   UNL     1      89.655  92.605  76.757  1.00  0.00     0.008 A 
ATOM     17  C   UNL     1      90.106  91.741  74.143  1.00  0.00     0.160 A 
ATOM     18  C   UNL     1      89.101  91.403  76.315  1.00  0.00     0.050 A 
ATOM     19  C   UNL     1      89.327  90.972  75.008  1.00  0.00     0.157 A 
BRANCH  17  20
ATOM     20  O   UNL     1      90.333  91.330  72.864  1.00  0.00    -0.493 OA
ATOM     21  C   UNL     1      89.909  92.203  71.819  1.00  0.00     0.278 C 
ENDBRANCH  17  20
BRANCH  19  22
ATOM     22  O   UNL     1      88.782  89.797  74.587  1.00  0.00    -0.504 OA
ATOM     23  H   UNL     1      88.002  89.988  74.038  1.00  0.00     0.293 HD
ENDBRANCH  19  22
ENDBRANCH  13  14
ENDBRANCH  12  13
ENDBRANCH  10  12
ENDBRANCH   1  10
TORSDOF 12
ENDMDL
MODEL 9
REMARK VINA RESULT:    -5.726      3.229      6.988
REMARK INTER + INTRA:         -10.446
REMARK INTER:                  -9.513
REMARK INTRA:                  -0.933
REMARK UNBOUND:                -1.038
REMARK SMILES CCCCC[C@H](O)CC(=O)CCc1ccc(O)c(OC)c1
REMARK SMILES IDX 8 1 6 2 7 3 5 5 4 6 3 7 2 8 1 9 9 10 10 11 11 12 12 13 13 14
REMARK SMILES IDX 21 15 14 16 18 17 15 18 16 19 19 20 20 21 17 22
REMARK H PARENT 7 4 17 23
REMARK Flexibility Score: inf
ROOT
ATOM      1  C   UNL     1      90.260  92.855  74.804  1.00  0.00     0.107 C 
ENDROOT
BRANCH   1   2
ATOM      2  C   UNL     1      90.520  91.450  75.354  1.00  0.00     0.121 C 
BRANCH   2   3
ATOM      3  O   UNL     1      90.114  91.383  76.719  1.00  0.00    -0.393 OA
ATOM      4  H   UNL     1      89.806  90.477  76.894  1.00  0.00     0.210 HD
ENDBRANCH   2   3
BRANCH   2   5
ATOM      5  C   UNL     1      89.802  90.352  74.560  1.00  0.00     0.032 C 
BRANCH   5   6
ATOM      6  C   UNL     1      90.782  89.323  73.984  1.00  0.00     0.003 C 
BRANCH   6   7
ATOM      7  C   UNL     1      91.163  88.224  74.981  1.00  0.00    -0.000 C 
BRANCH   7   8
ATOM      8  C   UNL     1      89.988  87.723  75.818  1.00  0.00    -0.003 C 
ATOM      9  C   UNL     1      90.250  87.902  77.305  1.00  0.00     0.004 C 
ENDBRANCH   7   8
ENDBRANCH   6   7
ENDBRANCH   5   6
ENDBRANCH   2   5
ENDBRANCH   1   2
BRANCH   1  10
ATOM     10  C   UNL     1      90.736  93.957  75.736  1.00  0.00     0.135 C 
ATOM     11  O   UNL     1      89.935  94.615  76.400  1.00  0.00    -0.300 OA
BRANCH  10  12
ATOM     12  C   UNL     1      92.240  94.165  75.834  1.00  0.00     0.080 C 
BRANCH  12  13
ATOM     13  C   UNL     1      92.835  93.730  77.174  1.00  0.00     0.043 C 
BRANCH  13  14
ATOM     14  C   UNL     1      94.209  94.306  77.426  1.00  0.00    -0.044 A 
ATOM     15  C   UNL     1      94.747  94.289  78.713  1.00  0.00     0.054 A 
ATOM     16  C   UNL     1      94.939  94.854  76.372  1.00  0.00     0.008 A 
ATOM     17  C   UNL     1      96.016  94.819  78.945  1.00  0.00     0.160 A 
ATOM     18  C   UNL     1      96.208  95.384  76.603  1.00  0.00     0.050 A 
ATOM     19  C   UNL     1      96.746  95.367  77.890  1.00  0.00     0.157 A 
BRANCH  17  20
ATOM     20  O   UNL     1      96.531  94.798  80.206  1.00  0.00    -0.493 OA
ATOM     21  C   UNL     1      95.841  94.009  81.174  1.00  0.00     0.278 C 
ENDBRANCH  17  20
BRANCH  19  22
ATOM     22  O   UNL     1      97.986  95.889  78.104  1.00  0.00    -0.504 OA
ATOM     23  H   UNL     1      97.928  96.574  78.791  1.00  0.00     0.293 HD
ENDBRANCH  19  22
ENDBRANCH  13  14
ENDBRANCH  12  13
ENDBRANCH  10  12
ENDBRANCH   1  10
TORSDOF 12
ENDMDL
MODEL 10
REMARK VINA RESULT:    -5.713      2.362      4.548
REMARK INTER + INTRA:         -10.424
REMARK INTER:                  -9.665
REMARK INTRA:                  -0.760
REMARK UNBOUND:                -1.038
REMARK SMILES CCCCC[C@H](O)CC(=O)CCc1ccc(O)c(OC)c1
REMARK SMILES IDX 8 1 6 2 7 3 5 5 4 6 3 7 2 8 1 9 9 10 10 11 11 12 12 13 13 14
REMARK SMILES IDX 21 15 14 16 18 17 15 18 16 19 19 20 20 21 17 22
REMARK H PARENT 7 4 17 23
REMARK Flexibility Score: inf
ROOT
ATOM      1  C   UNL     1      93.761  94.289  77.127  1.00  0.00     0.107 C 
ENDROOT
BRANCH   1   2
ATOM      2  C   UNL     1      94.643  93.678  76.034  1.00  0.00     0.121 C 
BRANCH   2   3
ATOM      3  O   UNL     1      93.834  93.267  74.934  1.00  0.00    -0.393 OA
ATOM      4  H   UNL     1      93.795  92.295  74.940  1.00  0.00     0.210 HD
ENDBRANCH   2   3
BRANCH   2   5
ATOM      5  C   UNL     1      95.727  94.639  75.532  1.00  0.00     0.032 C 
BRANCH   5   6
ATOM      6  C   UNL     1      96.927  94.703  76.486  1.00  0.00     0.003 C 
BRANCH   6   7
ATOM      7  C   UNL     1      97.013  96.021  77.264  1.00  0.00    -0.000 C 
BRANCH   7   8
ATOM      8  C   UNL     1      96.617  95.891  78.733  1.00  0.00    -0.003 C 
ATOM      9  C   UNL     1      97.813  96.096  79.650  1.00  0.00     0.004 C 
ENDBRANCH   7   8
ENDBRANCH   6   7
ENDBRANCH   5   6
ENDBRANCH   2   5
ENDBRANCH   1   2
BRANCH   1  10
ATOM     10  C   UNL     1      92.327  93.785  77.086  1.00  0.00     0.135 C 
ATOM     11  O   UNL     1      92.019  92.712  77.605  1.00  0.00    -0.300 OA
BRANCH  10  12
ATOM     12  C   UNL     1      91.305  94.691  76.418  1.00  0.00     0.080 C 
BRANCH  12  13
ATOM     13  C   UNL     1      89.938  94.033  76.217  1.00  0.00     0.043 C 
BRANCH  13  14
ATOM     14  C   UNL     1      89.947  92.962  75.152  1.00  0.00    -0.044 A 
ATOM     15  C   UNL     1      89.555  91.661  75.468  1.00  0.00     0.054 A 
ATOM     16  C   UNL     1      90.348  93.275  73.853  1.00  0.00     0.008 A 
ATOM     17  C   UNL     1      89.563  90.673  74.483  1.00  0.00     0.160 A 
ATOM     18  C   UNL     1      90.355  92.287  72.868  1.00  0.00     0.050 A 
ATOM     19  C   UNL     1      89.963  90.986  73.183  1.00  0.00     0.157 A 
BRANCH  17  20
ATOM     20  O   UNL     1      89.178  89.406  74.803  1.00  0.00    -0.493 OA
ATOM     21  C   UNL     1      90.068  88.644  75.616  1.00  0.00     0.278 C 
ENDBRANCH  17  20
BRANCH  19  22
ATOM     22  O   UNL     1      89.975  90.030  72.214  1.00  0.00    -0.504 OA
ATOM     23  H   UNL     1      89.389  89.301  72.480  1.00  0.00     0.293 HD
ENDBRANCH  19  22
ENDBRANCH  13  14
ENDBRANCH  12  13
ENDBRANCH  10  12
ENDBRANCH   1  10
TORSDOF 12
ENDMDL
