MODEL 1
REMARK VINA RESULT:    -6.376      0.000      0.000
REMARK INTER + INTRA:         -10.688
REMARK INTER:                  -9.918
REMARK INTRA:                  -0.771
REMARK UNBOUND:                -0.771
REMARK SMILES CCCCC/C=C/C(=O)CCc1ccc(O)c(OC)c1
REMARK SMILES IDX 6 1 7 2 8 3 9 4 10 5 11 6 12 7 17 8 20 9 15 10 14 11 13 12
REMARK SMILES IDX 18 13 19 14 16 15 5 17 4 18 3 19 2 20 1 21
REMARK H PARENT 16 16
REMARK Flexibility Score: inf
ROOT
ATOM      1  C   UNL     1      91.230  93.515  77.261  1.00  0.00    -0.023 C 
ATOM      2  C   UNL     1      92.348  93.712  77.969  1.00  0.00     0.043 C 
ENDROOT
BRANCH   2   3
ATOM      3  C   UNL     1      93.298  94.787  77.572  1.00  0.00     0.155 C 
ATOM      4  O   UNL     1      94.212  95.150  78.310  1.00  0.00    -0.295 OA
BRANCH   3   5
ATOM      5  C   UNL     1      93.047  95.450  76.232  1.00  0.00     0.085 C 
BRANCH   5   6
ATOM      6  C   UNL     1      94.160  95.125  75.235  1.00  0.00     0.044 C 
BRANCH   6   7
ATOM      7  C   UNL     1      94.485  96.281  74.319  1.00  0.00    -0.044 A 
ATOM      8  C   UNL     1      95.912  97.284  72.671  1.00  0.00     0.160 A 
ATOM      9  C   UNL     1      95.613  96.216  73.517  1.00  0.00     0.054 A 
ATOM     10  C   UNL     1      95.081  98.404  72.639  1.00  0.00     0.157 A 
ATOM     11  C   UNL     1      93.949  98.455  73.454  1.00  0.00     0.050 A 
ATOM     12  C   UNL     1      93.650  97.386  74.300  1.00  0.00     0.008 A 
BRANCH   8  13
ATOM     13  O   UNL     1      97.021  97.222  71.881  1.00  0.00    -0.493 OA
ATOM     14  C   UNL     1      98.229  97.761  72.414  1.00  0.00     0.278 C 
ENDBRANCH   8  13
BRANCH  10  15
ATOM     15  O   UNL     1      95.363  99.453  71.818  1.00  0.00    -0.504 OA
ATOM     16  H   UNL     1      96.238  99.802  72.058  1.00  0.00     0.293 HD
ENDBRANCH  10  15
ENDBRANCH   6   7
ENDBRANCH   5   6
ENDBRANCH   3   5
ENDBRANCH   2   3
BRANCH   1  17
ATOM     17  C   UNL     1      90.223  92.453  77.595  1.00  0.00     0.027 C 
BRANCH  17  18
ATOM     18  C   UNL     1      89.994  91.459  76.451  1.00  0.00     0.004 C 
BRANCH  18  19
ATOM     19  C   UNL     1      90.782  91.794  75.181  1.00  0.00     0.000 C 
BRANCH  19  20
ATOM     20  C   UNL     1      90.823  90.600  74.226  1.00  0.00    -0.003 C 
ATOM     21  C   UNL     1      90.817  89.281  74.983  1.00  0.00     0.004 C 
ENDBRANCH  19  20
ENDBRANCH  18  19
ENDBRANCH  17  18
ENDBRANCH   1  17
TORSDOF 10
ENDMDL
MODEL 2
REMARK VINA RESULT:    -6.367      1.208      2.073
REMARK INTER + INTRA:         -10.674
REMARK INTER:                  -9.912
REMARK INTRA:                  -0.761
REMARK UNBOUND:                -0.771
REMARK SMILES CCCCC/C=C/C(=O)CCc1ccc(O)c(OC)c1
REMARK SMILES IDX 6 1 7 2 8 3 9 4 10 5 11 6 12 7 17 8 20 9 15 10 14 11 13 12
REMARK SMILES IDX 18 13 19 14 16 15 5 17 4 18 3 19 2 20 1 21
REMARK H PARENT 16 16
REMARK Flexibility Score: inf
ROOT
ATOM      1  C   UNL     1      91.016  93.483  77.480  1.00  0.00    -0.023 C 
ATOM      2  C   UNL     1      92.216  93.596  78.063  1.00  0.00     0.043 C 
ENDROOT
BRANCH   2   3
ATOM      3  C   UNL     1      93.082  94.767  77.756  1.00  0.00     0.155 C 
ATOM      4  O   UNL     1      94.183  94.915  78.283  1.00  0.00    -0.295 OA
BRANCH   3   5
ATOM      5  C   UNL     1      92.514  95.796  76.799  1.00  0.00     0.085 C 
BRANCH   5   6
ATOM      6  C   UNL     1      92.920  95.496  75.355  1.00  0.00     0.044 C 
BRANCH   6   7
ATOM      7  C   UNL     1      93.990  96.429  74.840  1.00  0.00    -0.044 A 
ATOM      8  C   UNL     1      94.610  98.492  73.784  1.00  0.00     0.160 A 
ATOM      9  C   UNL     1      93.621  97.631  74.259  1.00  0.00     0.054 A 
ATOM     10  C   UNL     1      95.955  98.140  73.896  1.00  0.00     0.157 A 
ATOM     11  C   UNL     1      96.311  96.926  74.483  1.00  0.00     0.050 A 
ATOM     12  C   UNL     1      95.322  96.064  74.958  1.00  0.00     0.008 A 
BRANCH   8  13
ATOM     13  O   UNL     1      94.250  99.675  73.211  1.00  0.00    -0.493 OA
ATOM     14  C   UNL     1      93.460  99.608  72.026  1.00  0.00     0.278 C 
ENDBRANCH   8  13
BRANCH  10  15
ATOM     15  O   UNL     1      96.930  98.973  73.436  1.00  0.00    -0.504 OA
ATOM     16  H   UNL     1      97.607  98.434  72.992  1.00  0.00     0.293 HD
ENDBRANCH  10  15
ENDBRANCH   6   7
ENDBRANCH   5   6
ENDBRANCH   3   5
ENDBRANCH   2   3
BRANCH   1  17
ATOM     17  C   UNL     1      90.084  92.334  77.736  1.00  0.00     0.027 C 
BRANCH  17  18
ATOM     18  C   UNL     1      89.826  91.480  76.490  1.00  0.00     0.004 C 
BRANCH  18  19
ATOM     19  C   UNL     1      91.034  91.379  75.554  1.00  0.00     0.000 C 
BRANCH  19  20
ATOM     20  C   UNL     1      90.637  90.780  74.204  1.00  0.00    -0.003 C 
ATOM     21  C   UNL     1      89.270  91.272  73.757  1.00  0.00     0.004 C 
ENDBRANCH  19  20
ENDBRANCH  18  19
ENDBRANCH  17  18
ENDBRANCH   1  17
TORSDOF 10
ENDMDL
MODEL 3
REMARK VINA RESULT:    -6.297      1.671      2.179
REMARK INTER + INTRA:         -10.565
REMARK INTER:                  -9.655
REMARK INTRA:                  -0.909
REMARK UNBOUND:                -0.771
REMARK SMILES CCCCC/C=C/C(=O)CCc1ccc(O)c(OC)c1
REMARK SMILES IDX 6 1 7 2 8 3 9 4 10 5 11 6 12 7 17 8 20 9 15 10 14 11 13 12
REMARK SMILES IDX 18 13 19 14 16 15 5 17 4 18 3 19 2 20 1 21
REMARK H PARENT 16 16
REMARK Flexibility Score: inf
ROOT
ATOM      1  C   UNL     1      92.324  93.813  77.745  1.00  0.00    -0.023 C 
ATOM      2  C   UNL     1      92.926  93.069  78.681  1.00  0.00     0.043 C 
ENDROOT
BRANCH   2   3
ATOM      3  C   UNL     1      94.354  93.317  79.020  1.00  0.00     0.155 C 
ATOM      4  O   UNL     1      94.757  93.298  80.181  1.00  0.00    -0.295 OA
BRANCH   3   5
ATOM      5  C   UNL     1      95.276  93.646  77.863  1.00  0.00     0.085 C 
BRANCH   5   6
ATOM      6  C   UNL     1      95.588  95.142  77.809  1.00  0.00     0.044 C 
BRANCH   6   7
ATOM      7  C   UNL     1      95.555  95.699  76.406  1.00  0.00    -0.044 A 
ATOM      8  C   UNL     1      96.322  97.300  74.791  1.00  0.00     0.160 A 
ATOM      9  C   UNL     1      96.352  96.787  76.088  1.00  0.00     0.054 A 
ATOM     10  C   UNL     1      95.496  96.720  73.830  1.00  0.00     0.157 A 
ATOM     11  C   UNL     1      94.699  95.625  74.165  1.00  0.00     0.050 A 
ATOM     12  C   UNL     1      94.729  95.112  75.462  1.00  0.00     0.008 A 
BRANCH   8  13
ATOM     13  O   UNL     1      97.105  98.370  74.476  1.00  0.00    -0.493 OA
ATOM     14  C   UNL     1      98.457  98.099  74.112  1.00  0.00     0.278 C 
ENDBRANCH   8  13
BRANCH  10  15
ATOM     15  O   UNL     1      95.458  97.212  72.560  1.00  0.00    -0.504 OA
ATOM     16  H   UNL     1      94.560  97.086  72.210  1.00  0.00     0.293 HD
ENDBRANCH  10  15
ENDBRANCH   6   7
ENDBRANCH   5   6
ENDBRANCH   3   5
ENDBRANCH   2   3
BRANCH   1  17
ATOM     17  C   UNL     1      90.889  93.627  77.345  1.00  0.00     0.027 C 
BRANCH  17  18
ATOM     18  C   UNL     1      90.597  92.230  76.785  1.00  0.00     0.004 C 
BRANCH  18  19
ATOM     19  C   UNL     1      91.346  91.922  75.485  1.00  0.00     0.000 C 
BRANCH  19  20
ATOM     20  C   UNL     1      90.471  91.120  74.521  1.00  0.00    -0.003 C 
ATOM     21  C   UNL     1      90.829  89.642  74.542  1.00  0.00     0.004 C 
ENDBRANCH  19  20
ENDBRANCH  18  19
ENDBRANCH  17  18
ENDBRANCH   1  17
TORSDOF 10
ENDMDL
MODEL 4
REMARK VINA RESULT:    -6.110      4.307      7.074
REMARK INTER + INTRA:         -10.274
REMARK INTER:                  -9.419
REMARK INTRA:                  -0.854
REMARK UNBOUND:                -0.771
REMARK SMILES CCCCC/C=C/C(=O)CCc1ccc(O)c(OC)c1
REMARK SMILES IDX 6 1 7 2 8 3 9 4 10 5 11 6 12 7 17 8 20 9 15 10 14 11 13 12
REMARK SMILES IDX 18 13 19 14 16 15 5 17 4 18 3 19 2 20 1 21
REMARK H PARENT 16 16
REMARK Flexibility Score: inf
ROOT
ATOM      1  C   UNL     1      93.260  93.310  77.750  1.00  0.00    -0.023 C 
ATOM      2  C   UNL     1      93.499  93.148  79.057  1.00  0.00     0.043 C 
ENDROOT
BRANCH   2   3
ATOM      3  C   UNL     1      94.854  92.743  79.518  1.00  0.00     0.155 C 
ATOM      4  O   UNL     1      95.053  92.321  80.656  1.00  0.00    -0.295 OA
BRANCH   3   5
ATOM      5  C   UNL     1      95.989  92.928  78.529  1.00  0.00     0.085 C 
BRANCH   5   6
ATOM      6  C   UNL     1      96.423  94.392  78.450  1.00  0.00     0.044 C 
BRANCH   6   7
ATOM      7  C   UNL     1      96.657  95.010  79.808  1.00  0.00    -0.044 A 
ATOM      8  C   UNL     1      98.001  95.230  81.784  1.00  0.00     0.160 A 
ATOM      9  C   UNL     1      97.786  94.658  80.530  1.00  0.00     0.054 A 
ATOM     10  C   UNL     1      97.085  96.145  82.301  1.00  0.00     0.157 A 
ATOM     11  C   UNL     1      95.951  96.489  81.562  1.00  0.00     0.050 A 
ATOM     12  C   UNL     1      95.736  95.917  80.308  1.00  0.00     0.008 A 
BRANCH   8  13
ATOM     13  O   UNL     1      99.111  94.885  82.495  1.00  0.00    -0.493 OA
ATOM     14  C   UNL     1     100.302  95.627  82.239  1.00  0.00     0.278 C 
ENDBRANCH   8  13
BRANCH  10  15
ATOM     15  O   UNL     1      97.284  96.710  83.524  1.00  0.00    -0.504 OA
ATOM     16  H   UNL     1      96.603  97.391  83.660  1.00  0.00     0.293 HD
ENDBRANCH  10  15
ENDBRANCH   6   7
ENDBRANCH   5   6
ENDBRANCH   3   5
ENDBRANCH   2   3
BRANCH   1  17
ATOM     17  C   UNL     1      91.921  93.716  77.204  1.00  0.00     0.027 C 
BRANCH  17  18
ATOM     18  C   UNL     1      91.792  95.228  76.990  1.00  0.00     0.004 C 
BRANCH  18  19
ATOM     19  C   UNL     1      93.110  95.908  76.605  1.00  0.00     0.000 C 
BRANCH  19  20
ATOM     20  C   UNL     1      93.331  95.865  75.093  1.00  0.00    -0.003 C 
ATOM     21  C   UNL     1      93.811  97.207  74.562  1.00  0.00     0.004 C 
ENDBRANCH  19  20
ENDBRANCH  18  19
ENDBRANCH  17  18
ENDBRANCH   1  17
TORSDOF 10
ENDMDL
MODEL 5
REMARK VINA RESULT:    -6.073      3.421      6.748
REMARK INTER + INTRA:         -10.216
REMARK INTER:                  -8.657
REMARK INTRA:                  -1.560
REMARK UNBOUND:                -0.771
REMARK SMILES CCCCC/C=C/C(=O)CCc1ccc(O)c(OC)c1
REMARK SMILES IDX 6 1 7 2 8 3 9 4 10 5 11 6 12 7 17 8 20 9 15 10 14 11 13 12
REMARK SMILES IDX 18 13 19 14 16 15 5 17 4 18 3 19 2 20 1 21
REMARK H PARENT 16 16
REMARK Flexibility Score: inf
ROOT
ATOM      1  C   UNL     1      95.342  95.661  75.131  1.00  0.00    -0.023 C 
ATOM      2  C   UNL     1      95.462  96.979  75.332  1.00  0.00     0.043 C 
ENDROOT
BRANCH   2   3
ATOM      3  C   UNL     1      96.732  97.534  75.874  1.00  0.00     0.155 C 
ATOM      4  O   UNL     1      97.157  98.636  75.530  1.00  0.00    -0.295 OA
BRANCH   3   5
ATOM      5  C   UNL     1      97.503  96.648  76.832  1.00  0.00     0.085 C 
BRANCH   5   6
ATOM      6  C   UNL     1      97.082  96.899  78.281  1.00  0.00     0.044 C 
BRANCH   6   7
ATOM      7  C   UNL     1      96.521  95.667  78.951  1.00  0.00    -0.044 A 
ATOM      8  C   UNL     1      96.742  93.895  80.554  1.00  0.00     0.160 A 
ATOM      9  C   UNL     1      97.261  95.032  79.935  1.00  0.00     0.054 A 
ATOM     10  C   UNL     1      95.490  93.408  80.181  1.00  0.00     0.157 A 
ATOM     11  C   UNL     1      94.756  94.058  79.187  1.00  0.00     0.050 A 
ATOM     12  C   UNL     1      95.276  95.195  78.569  1.00  0.00     0.008 A 
BRANCH   8  13
ATOM     13  O   UNL     1      97.468  93.269  81.522  1.00  0.00    -0.493 OA
ATOM     14  C   UNL     1      98.679  93.900  81.935  1.00  0.00     0.278 C 
ENDBRANCH   8  13
BRANCH  10  15
ATOM     15  O   UNL     1      94.972  92.298  80.778  1.00  0.00    -0.504 OA
ATOM     16  H   UNL     1      94.180  92.027  80.283  1.00  0.00     0.293 HD
ENDBRANCH  10  15
ENDBRANCH   6   7
ENDBRANCH   5   6
ENDBRANCH   3   5
ENDBRANCH   2   3
BRANCH   1  17
ATOM     17  C   UNL     1      94.096  95.023  74.589  1.00  0.00     0.027 C 
BRANCH  17  18
ATOM     18  C   UNL     1      93.253  94.337  75.669  1.00  0.00     0.004 C 
BRANCH  18  19
ATOM     19  C   UNL     1      92.276  95.280  76.377  1.00  0.00     0.000 C 
BRANCH  19  20
ATOM     20  C   UNL     1      91.413  94.524  77.389  1.00  0.00    -0.003 C 
ATOM     21  C   UNL     1      91.632  93.023  77.295  1.00  0.00     0.004 C 
ENDBRANCH  19  20
ENDBRANCH  18  19
ENDBRANCH  17  18
ENDBRANCH   1  17
TORSDOF 10
ENDMDL
MODEL 6
REMARK VINA RESULT:    -5.999      4.046      5.797
REMARK INTER + INTRA:         -10.101
REMARK INTER:                  -8.802
REMARK INTRA:                  -1.299
REMARK UNBOUND:                -0.771
REMARK SMILES CCCCC/C=C/C(=O)CCc1ccc(O)c(OC)c1
REMARK SMILES IDX 6 1 7 2 8 3 9 4 10 5 11 6 12 7 17 8 20 9 15 10 14 11 13 12
REMARK SMILES IDX 18 13 19 14 16 15 5 17 4 18 3 19 2 20 1 21
REMARK H PARENT 16 16
REMARK Flexibility Score: inf
ROOT
ATOM      1  C   UNL     1      93.823  94.749  78.114  1.00  0.00    -0.023 C 
ATOM      2  C   UNL     1      93.699  93.546  78.687  1.00  0.00     0.043 C 
ENDROOT
BRANCH   2   3
ATOM      3  C   UNL     1      94.811  92.999  79.512  1.00  0.00     0.155 C 
ATOM      4  O   UNL     1      94.607  92.455  80.595  1.00  0.00    -0.295 OA
BRANCH   3   5
ATOM      5  C   UNL     1      96.214  93.195  78.971  1.00  0.00     0.085 C 
BRANCH   5   6
ATOM      6  C   UNL     1      97.094  93.947  79.971  1.00  0.00     0.044 C 
BRANCH   6   7
ATOM      7  C   UNL     1      97.241  95.413  79.638  1.00  0.00    -0.044 A 
ATOM      8  C   UNL     1      97.430  97.695  80.356  1.00  0.00     0.160 A 
ATOM      9  C   UNL     1      97.293  96.341  80.665  1.00  0.00     0.054 A 
ATOM     10  C   UNL     1      97.512  98.102  79.025  1.00  0.00     0.157 A 
ATOM     11  C   UNL     1      97.457  97.155  78.001  1.00  0.00     0.050 A 
ATOM     12  C   UNL     1      97.321  95.802  78.310  1.00  0.00     0.008 A 
BRANCH   8  13
ATOM     13  O   UNL     1      97.481  98.610  81.365  1.00  0.00    -0.493 OA
ATOM     14  C   UNL     1      96.247  98.959  81.987  1.00  0.00     0.278 C 
ENDBRANCH   8  13
BRANCH  10  15
ATOM     15  O   UNL     1      97.645  99.421  78.711  1.00  0.00    -0.504 OA
ATOM     16  H   UNL     1      98.504  99.729  79.048  1.00  0.00     0.293 HD
ENDBRANCH  10  15
ENDBRANCH   6   7
ENDBRANCH   5   6
ENDBRANCH   3   5
ENDBRANCH   2   3
BRANCH   1  17
ATOM     17  C   UNL     1      92.750  95.370  77.267  1.00  0.00     0.027 C 
BRANCH  17  18
ATOM     18  C   UNL     1      92.463  94.581  75.986  1.00  0.00     0.004 C 
BRANCH  18  19
ATOM     19  C   UNL     1      91.021  94.071  75.888  1.00  0.00     0.000 C 
BRANCH  19  20
ATOM     20  C   UNL     1      90.366  94.004  77.268  1.00  0.00    -0.003 C 
ATOM     21  C   UNL     1      90.108  92.567  77.693  1.00  0.00     0.004 C 
ENDBRANCH  19  20
ENDBRANCH  18  19
ENDBRANCH  17  18
ENDBRANCH   1  17
TORSDOF 10
ENDMDL
MODEL 7
REMARK VINA RESULT:    -5.833     19.789     21.035
REMARK INTER + INTRA:          -9.843
REMARK INTER:                  -8.552
REMARK INTRA:                  -1.290
REMARK UNBOUND:                -0.771
REMARK SMILES CCCCC/C=C/C(=O)CCc1ccc(O)c(OC)c1
REMARK SMILES IDX 6 1 7 2 8 3 9 4 10 5 11 6 12 7 17 8 20 9 15 10 14 11 13 12
REMARK SMILES IDX 18 13 19 14 16 15 5 17 4 18 3 19 2 20 1 21
REMARK H PARENT 16 16
REMARK Flexibility Score: inf
ROOT
ATOM      1  C   UNL     1      76.879  86.426  66.630  1.00  0.00    -0.023 C 
ATOM      2  C   UNL     1      77.068  87.683  67.048  1.00  0.00     0.043 C 
ENDROOT
BRANCH   2   3
ATOM      3  C   UNL     1      76.497  88.817  66.272  1.00  0.00     0.155 C 
ATOM      4  O   UNL     1      76.480  88.819  65.042  1.00  0.00    -0.295 OA
BRANCH   3   5
ATOM      5  C   UNL     1      75.983  89.996  67.075  1.00  0.00     0.085 C 
BRANCH   5   6
ATOM      6  C   UNL     1      76.089  89.732  68.578  1.00  0.00     0.044 C 
BRANCH   6   7
ATOM      7  C   UNL     1      74.922  90.293  69.356  1.00  0.00    -0.044 A 
ATOM      8  C   UNL     1      73.950  92.068  70.645  1.00  0.00     0.160 A 
ATOM      9  C   UNL     1      75.028  91.551  69.927  1.00  0.00     0.054 A 
ATOM     10  C   UNL     1      72.780  91.321  70.783  1.00  0.00     0.157 A 
ATOM     11  C   UNL     1      72.688  90.056  70.202  1.00  0.00     0.050 A 
ATOM     12  C   UNL     1      73.767  89.538  69.484  1.00  0.00     0.008 A 
BRANCH   8  13
ATOM     13  O   UNL     1      74.052  93.305  71.208  1.00  0.00    -0.493 OA
ATOM     14  C   UNL     1      73.755  94.423  70.375  1.00  0.00     0.278 C 
ENDBRANCH   8  13
BRANCH  10  15
ATOM     15  O   UNL     1      71.720  91.816  71.481  1.00  0.00    -0.504 OA
ATOM     16  H   UNL     1      71.487  91.176  72.176  1.00  0.00     0.293 HD
ENDBRANCH  10  15
ENDBRANCH   6   7
ENDBRANCH   5   6
ENDBRANCH   3   5
ENDBRANCH   2   3
BRANCH   1  17
ATOM     17  C   UNL     1      77.422  85.229  67.356  1.00  0.00     0.027 C 
BRANCH  17  18
ATOM     18  C   UNL     1      77.034  85.198  68.838  1.00  0.00     0.004 C 
BRANCH  18  19
ATOM     19  C   UNL     1      75.705  84.486  69.110  1.00  0.00     0.000 C 
BRANCH  19  20
ATOM     20  C   UNL     1      74.659  85.461  69.655  1.00  0.00    -0.003 C 
ATOM     21  C   UNL     1      73.744  85.968  68.552  1.00  0.00     0.004 C 
ENDBRANCH  19  20
ENDBRANCH  18  19
ENDBRANCH  17  18
ENDBRANCH   1  17
TORSDOF 10
ENDMDL
MODEL 8
REMARK VINA RESULT:    -5.679     12.627     15.236
REMARK INTER + INTRA:          -9.604
REMARK INTER:                  -8.610
REMARK INTRA:                  -0.994
REMARK UNBOUND:                -0.771
REMARK SMILES CCCCC/C=C/C(=O)CCc1ccc(O)c(OC)c1
REMARK SMILES IDX 6 1 7 2 8 3 9 4 10 5 11 6 12 7 17 8 20 9 15 10 14 11 13 12
REMARK SMILES IDX 18 13 19 14 16 15 5 17 4 18 3 19 2 20 1 21
REMARK H PARENT 16 16
REMARK Flexibility Score: inf
ROOT
ATOM      1  C   UNL     1      97.981  81.149  81.055  1.00  0.00    -0.023 C 
ATOM      2  C   UNL     1      98.222  80.032  80.358  1.00  0.00     0.043 C 
ENDROOT
BRANCH   2   3
ATOM      3  C   UNL     1      99.338  79.997  79.375  1.00  0.00     0.155 C 
ATOM      4  O   UNL     1     100.506  80.184  79.711  1.00  0.00    -0.295 OA
BRANCH   3   5
ATOM      5  C   UNL     1      98.955  79.772  77.925  1.00  0.00     0.085 C 
BRANCH   5   6
ATOM      6  C   UNL     1      97.437  79.783  77.744  1.00  0.00     0.044 C 
BRANCH   6   7
ATOM      7  C   UNL     1      96.943  80.995  76.989  1.00  0.00    -0.044 A 
ATOM      8  C   UNL     1      96.824  82.266  74.957  1.00  0.00     0.160 A 
ATOM      9  C   UNL     1      97.280  81.146  75.654  1.00  0.00     0.054 A 
ATOM     10  C   UNL     1      96.038  83.218  75.605  1.00  0.00     0.157 A 
ATOM     11  C   UNL     1      95.707  83.051  76.950  1.00  0.00     0.050 A 
ATOM     12  C   UNL     1      96.164  81.932  77.647  1.00  0.00     0.008 A 
BRANCH   8  13
ATOM     13  O   UNL     1      97.154  82.417  73.644  1.00  0.00    -0.493 OA
ATOM     14  C   UNL     1      98.455  82.926  73.357  1.00  0.00     0.278 C 
ENDBRANCH   8  13
BRANCH  10  15
ATOM     15  O   UNL     1      95.586  84.315  74.935  1.00  0.00    -0.504 OA
ATOM     16  H   UNL     1      95.506  85.048  75.569  1.00  0.00     0.293 HD
ENDBRANCH  10  15
ENDBRANCH   6   7
ENDBRANCH   5   6
ENDBRANCH   3   5
ENDBRANCH   2   3
BRANCH   1  17
ATOM     17  C   UNL     1      96.875  81.265  82.064  1.00  0.00     0.027 C 
BRANCH  17  18
ATOM     18  C   UNL     1      96.294  79.908  82.477  1.00  0.00     0.004 C 
BRANCH  18  19
ATOM     19  C   UNL     1      95.362  79.984  83.691  1.00  0.00     0.000 C 
BRANCH  19  20
ATOM     20  C   UNL     1      94.854  81.410  83.908  1.00  0.00    -0.003 C 
ATOM     21  C   UNL     1      93.878  81.483  85.071  1.00  0.00     0.004 C 
ENDBRANCH  19  20
ENDBRANCH  18  19
ENDBRANCH  17  18
ENDBRANCH   1  17
TORSDOF 10
ENDMDL
MODEL 9
REMARK VINA RESULT:    -5.658      2.853      7.569
REMARK INTER + INTRA:          -9.571
REMARK INTER:                  -9.038
REMARK INTRA:                  -0.534
REMARK UNBOUND:                -0.771
REMARK SMILES CCCCC/C=C/C(=O)CCc1ccc(O)c(OC)c1
REMARK SMILES IDX 6 1 7 2 8 3 9 4 10 5 11 6 12 7 17 8 20 9 15 10 14 11 13 12
REMARK SMILES IDX 18 13 19 14 16 15 5 17 4 18 3 19 2 20 1 21
REMARK H PARENT 16 16
REMARK Flexibility Score: inf
ROOT
ATOM      1  C   UNL     1      93.860  98.938  72.630  1.00  0.00    -0.023 C 
ATOM      2  C   UNL     1      93.658  98.255  73.764  1.00  0.00     0.043 C 
ENDROOT
BRANCH   2   3
ATOM      3  C   UNL     1      94.769  97.467  74.363  1.00  0.00     0.155 C 
ATOM      4  O   UNL     1      95.900  97.931  74.487  1.00  0.00    -0.295 OA
BRANCH   3   5
ATOM      5  C   UNL     1      94.446  96.041  74.766  1.00  0.00     0.085 C 
BRANCH   5   6
ATOM      6  C   UNL     1      93.276  95.994  75.750  1.00  0.00     0.044 C 
BRANCH   6   7
ATOM      7  C   UNL     1      93.521  95.057  76.910  1.00  0.00    -0.044 A 
ATOM      8  C   UNL     1      94.949  94.259  78.665  1.00  0.00     0.160 A 
ATOM      9  C   UNL     1      94.724  95.124  77.594  1.00  0.00     0.054 A 
ATOM     10  C   UNL     1      93.970  93.339  79.038  1.00  0.00     0.157 A 
ATOM     11  C   UNL     1      92.764  93.284  78.338  1.00  0.00     0.050 A 
ATOM     12  C   UNL     1      92.538  94.149  77.267  1.00  0.00     0.008 A 
BRANCH   8  13
ATOM     13  O   UNL     1      96.132  94.323  79.340  1.00  0.00    -0.493 OA
ATOM     14  C   UNL     1      97.244  94.886  78.647  1.00  0.00     0.278 C 
ENDBRANCH   8  13
BRANCH  10  15
ATOM     15  O   UNL     1      94.179  92.490  80.082  1.00  0.00    -0.504 OA
ATOM     16  H   UNL     1      93.469  92.627  80.733  1.00  0.00     0.293 HD
ENDBRANCH  10  15
ENDBRANCH   6   7
ENDBRANCH   5   6
ENDBRANCH   3   5
ENDBRANCH   2   3
BRANCH   1  17
ATOM     17  C   UNL     1      92.793  99.755  71.963  1.00  0.00     0.027 C 
BRANCH  17  18
ATOM     18  C   UNL     1      92.802  99.625  70.436  1.00  0.00     0.004 C 
BRANCH  18  19
ATOM     19  C   UNL     1      91.763 100.509  69.738  1.00  0.00     0.000 C 
BRANCH  19  20
ATOM     20  C   UNL     1      90.784  99.668  68.918  1.00  0.00    -0.003 C 
ATOM     21  C   UNL     1      89.498  99.404  69.684  1.00  0.00     0.004 C 
ENDBRANCH  19  20
ENDBRANCH  18  19
ENDBRANCH  17  18
ENDBRANCH   1  17
TORSDOF 10
ENDMDL
MODEL 10
REMARK VINA RESULT:    -5.646      4.385      6.667
REMARK INTER + INTRA:          -9.552
REMARK INTER:                  -8.946
REMARK INTRA:                  -0.606
REMARK UNBOUND:                -0.771
REMARK SMILES CCCCC/C=C/C(=O)CCc1ccc(O)c(OC)c1
REMARK SMILES IDX 6 1 7 2 8 3 9 4 10 5 11 6 12 7 17 8 20 9 15 10 14 11 13 12
REMARK SMILES IDX 18 13 19 14 16 15 5 17 4 18 3 19 2 20 1 21
REMARK H PARENT 16 16
REMARK Flexibility Score: inf
ROOT
ATOM      1  C   UNL     1      94.848  96.779  73.753  1.00  0.00    -0.023 C 
ATOM      2  C   UNL     1      94.004  97.817  73.816  1.00  0.00     0.043 C 
ENDROOT
BRANCH   2   3
ATOM      3  C   UNL     1      94.201  98.989  72.921  1.00  0.00     0.155 C 
ATOM      4  O   UNL     1      95.322  99.404  72.633  1.00  0.00    -0.295 OA
BRANCH   3   5
ATOM      5  C   UNL     1      92.946  99.678  72.422  1.00  0.00     0.085 C 
BRANCH   5   6
ATOM      6  C   UNL     1      93.020  99.948  70.919  1.00  0.00     0.044 C 
BRANCH   6   7
ATOM      7  C   UNL     1      91.715  99.677  70.208  1.00  0.00    -0.044 A 
ATOM      8  C   UNL     1      90.238 100.077  68.360  1.00  0.00     0.160 A 
ATOM      9  C   UNL     1      91.443 100.329  69.016  1.00  0.00     0.054 A 
ATOM     10  C   UNL     1      89.321  99.178  68.904  1.00  0.00     0.157 A 
ATOM     11  C   UNL     1      89.610  98.530  70.105  1.00  0.00     0.050 A 
ATOM     12  C   UNL     1      90.815  98.782  70.762  1.00  0.00     0.008 A 
BRANCH   8  13
ATOM     13  O   UNL     1      89.968 100.717  67.187  1.00  0.00    -0.493 OA
ATOM     14  C   UNL     1      90.634 100.239  66.020  1.00  0.00     0.278 C 
ENDBRANCH   8  13
BRANCH  10  15
ATOM     15  O   UNL     1      88.142  98.924  68.272  1.00  0.00    -0.504 OA
ATOM     16  H   UNL     1      87.724  99.774  68.052  1.00  0.00     0.293 HD
ENDBRANCH  10  15
ENDBRANCH   6   7
ENDBRANCH   5   6
ENDBRANCH   3   5
ENDBRANCH   2   3
BRANCH   1  17
ATOM     17  C   UNL     1      94.718  95.562  74.621  1.00  0.00     0.027 C 
BRANCH  17  18
ATOM     18  C   UNL     1      93.822  95.787  75.844  1.00  0.00     0.004 C 
BRANCH  18  19
ATOM     19  C   UNL     1      92.492  95.030  75.777  1.00  0.00     0.000 C 
BRANCH  19  20
ATOM     20  C   UNL     1      91.841  94.936  77.159  1.00  0.00    -0.003 C 
ATOM     21  C   UNL     1      90.414  94.421  77.068  1.00  0.00     0.004 C 
ENDBRANCH  19  20
ENDBRANCH  18  19
ENDBRANCH  17  18
ENDBRANCH   1  17
TORSDOF 10
ENDMDL
