MODEL 1
REMARK VINA RESULT:    -6.528      0.000      0.000
REMARK INTER + INTRA:         -10.850
REMARK INTER:                 -10.153
REMARK INTRA:                  -0.696
REMARK UNBOUND:                -0.696
REMARK SMILES COc1cc(CNC(=O)CCCCCC(C)C)ccc1O
REMARK SMILES IDX 10 1 8 2 7 3 9 5 6 6 5 7 3 8 20 9 4 10 19 11 18 12 2 13 1 14
REMARK SMILES IDX 21 15 11 17 12 18 13 19 14 20 15 21 16 22 17 23
REMARK H PARENT 7 4 21 16
REMARK Flexibility Score: inf
ROOT
ATOM      1  C   UNL     1      80.535  65.099  69.560  1.00  0.00     0.100 C 
ENDROOT
BRANCH   1   2
ATOM      2  C   UNL     1      80.256  65.746  70.859  1.00  0.00     0.220 C 
ATOM      3  N   UNL     1      81.193  65.695  71.847  1.00  0.00    -0.352 N 
ATOM      4  H   UNL     1      81.979  65.090  71.657  1.00  0.00     0.163 HD
ATOM      5  O   UNL     1      79.175  66.366  71.010  1.00  0.00    -0.275 OA
BRANCH   3   6
ATOM      6  C   UNL     1      81.129  66.417  73.077  1.00  0.00     0.151 C 
BRANCH   6   7
ATOM      7  C   UNL     1      82.456  66.908  73.536  1.00  0.00    -0.025 A 
ATOM      8  C   UNL     1      84.419  68.357  73.221  1.00  0.00     0.160 A 
ATOM      9  C   UNL     1      84.953  67.894  74.443  1.00  0.00     0.157 A 
ATOM     10  C   UNL     1      83.184  67.847  72.767  1.00  0.00     0.056 A 
ATOM     11  C   UNL     1      84.251  66.941  75.203  1.00  0.00     0.050 A 
ATOM     12  C   UNL     1      83.010  66.456  74.756  1.00  0.00     0.009 A 
BRANCH   8  13
ATOM     13  O   UNL     1      85.096  69.270  72.457  1.00  0.00    -0.493 OA
ATOM     14  C   UNL     1      84.319  70.435  72.117  1.00  0.00     0.278 C 
ENDBRANCH   8  13
BRANCH   9  15
ATOM     15  O   UNL     1      86.141  68.376  74.888  1.00  0.00    -0.504 OA
ATOM     16  H   UNL     1      85.984  69.109  75.487  1.00  0.00     0.293 HD
ENDBRANCH   9  15
ENDBRANCH   6   7
ENDBRANCH   3   6
ENDBRANCH   1   2
BRANCH   1  17
ATOM     17  C   UNL     1      80.179  63.588  69.509  1.00  0.00     0.010 C 
BRANCH  17  18
ATOM     18  C   UNL     1      78.682  63.365  69.158  1.00  0.00     0.001 C 
BRANCH  18  19
ATOM     19  C   UNL     1      78.115  64.422  68.174  1.00  0.00     0.000 C 
BRANCH  19  20
ATOM     20  C   UNL     1      76.848  65.129  68.736  1.00  0.00     0.003 C 
BRANCH  20  21
ATOM     21  C   UNL     1      75.656  65.246  67.730  1.00  0.00    -0.017 C 
ATOM     22  C   UNL     1      75.109  63.838  67.352  1.00  0.00     0.007 C 
ATOM     23  C   UNL     1      76.027  66.038  66.443  1.00  0.00     0.007 C 
ENDBRANCH  20  21
ENDBRANCH  19  20
ENDBRANCH  18  19
ENDBRANCH  17  18
ENDBRANCH   1  17
TORSDOF 10
ENDMDL
MODEL 2
REMARK VINA RESULT:    -6.215     28.548     33.041
REMARK INTER + INTRA:         -10.364
REMARK INTER:                  -9.593
REMARK INTRA:                  -0.770
REMARK UNBOUND:                -0.696
REMARK SMILES COc1cc(CNC(=O)CCCCCC(C)C)ccc1O
REMARK SMILES IDX 10 1 8 2 7 3 9 5 6 6 5 7 3 8 20 9 4 10 19 11 18 12 2 13 1 14
REMARK SMILES IDX 21 15 11 17 12 18 13 19 14 20 15 21 16 22 17 23
REMARK H PARENT 7 4 21 16
REMARK Flexibility Score: inf
ROOT
ATOM      1  C   UNL     1      93.083  95.141  76.589  1.00  0.00     0.100 C 
ENDROOT
BRANCH   1   2
ATOM      2  C   UNL     1      93.772  96.353  77.079  1.00  0.00     0.220 C 
ATOM      3  N   UNL     1      95.112  96.309  77.324  1.00  0.00    -0.352 N 
ATOM      4  H   UNL     1      95.522  95.387  77.275  1.00  0.00     0.163 HD
ATOM      5  O   UNL     1      93.113  97.412  77.220  1.00  0.00    -0.275 OA
BRANCH   3   6
ATOM      6  C   UNL     1      95.928  97.439  77.632  1.00  0.00     0.151 C 
BRANCH   6   7
ATOM      7  C   UNL     1      96.106  97.651  79.093  1.00  0.00    -0.025 A 
ATOM      8  C   UNL     1      96.741  96.797  81.310  1.00  0.00     0.160 A 
ATOM      9  C   UNL     1      96.509  98.073  81.866  1.00  0.00     0.157 A 
ATOM     10  C   UNL     1      96.521  96.589  79.932  1.00  0.00     0.056 A 
ATOM     11  C   UNL     1      96.071  99.129  81.046  1.00  0.00     0.050 A 
ATOM     12  C   UNL     1      95.876  98.922  79.670  1.00  0.00     0.009 A 
BRANCH   8  13
ATOM     13  O   UNL     1      97.149  95.750  82.095  1.00  0.00    -0.493 OA
ATOM     14  C   UNL     1      98.575  95.548  82.101  1.00  0.00     0.278 C 
ENDBRANCH   8  13
BRANCH   9  15
ATOM     15  O   UNL     1      96.716  98.282  83.190  1.00  0.00    -0.504 OA
ATOM     16  H   UNL     1      97.423  97.711  83.498  1.00  0.00     0.293 HD
ENDBRANCH   9  15
ENDBRANCH   6   7
ENDBRANCH   3   6
ENDBRANCH   1   2
BRANCH   1  17
ATOM     17  C   UNL     1      91.877  94.695  77.459  1.00  0.00     0.010 C 
BRANCH  17  18
ATOM     18  C   UNL     1      90.523  95.038  76.780  1.00  0.00     0.001 C 
BRANCH  18  19
ATOM     19  C   UNL     1      89.419  93.979  77.038  1.00  0.00     0.000 C 
BRANCH  19  20
ATOM     20  C   UNL     1      89.938  92.526  76.836  1.00  0.00     0.003 C 
BRANCH  20  21
ATOM     21  C   UNL     1      89.656  91.914  75.426  1.00  0.00    -0.017 C 
ATOM     22  C   UNL     1      89.607  90.359  75.495  1.00  0.00     0.007 C 
ATOM     23  C   UNL     1      90.688  92.368  74.353  1.00  0.00     0.007 C 
ENDBRANCH  20  21
ENDBRANCH  19  20
ENDBRANCH  18  19
ENDBRANCH  17  18
ENDBRANCH   1  17
TORSDOF 10
ENDMDL
MODEL 3
REMARK VINA RESULT:    -6.166     21.006     24.051
REMARK INTER + INTRA:         -10.286
REMARK INTER:                  -9.538
REMARK INTRA:                  -0.748
REMARK UNBOUND:                -0.696
REMARK SMILES COc1cc(CNC(=O)CCCCCC(C)C)ccc1O
REMARK SMILES IDX 10 1 8 2 7 3 9 5 6 6 5 7 3 8 20 9 4 10 19 11 18 12 2 13 1 14
REMARK SMILES IDX 21 15 11 17 12 18 13 19 14 20 15 21 16 22 17 23
REMARK H PARENT 7 4 21 16
REMARK Flexibility Score: inf
ROOT
ATOM      1  C   UNL     1      91.054  80.294  83.747  1.00  0.00     0.100 C 
ENDROOT
BRANCH   1   2
ATOM      2  C   UNL     1      92.095  80.701  84.714  1.00  0.00     0.220 C 
ATOM      3  N   UNL     1      93.408  80.629  84.354  1.00  0.00    -0.352 N 
ATOM      4  H   UNL     1      93.582  80.167  83.473  1.00  0.00     0.163 HD
ATOM      5  O   UNL     1      91.745  81.145  85.835  1.00  0.00    -0.275 OA
BRANCH   3   6
ATOM      6  C   UNL     1      94.498  81.147  85.117  1.00  0.00     0.151 C 
BRANCH   6   7
ATOM      7  C   UNL     1      94.860  82.542  84.745  1.00  0.00    -0.025 A 
ATOM      8  C   UNL     1      94.919  84.942  85.275  1.00  0.00     0.160 A 
ATOM      9  C   UNL     1      95.610  85.189  84.070  1.00  0.00     0.157 A 
ATOM     10  C   UNL     1      94.532  83.624  85.596  1.00  0.00     0.056 A 
ATOM     11  C   UNL     1      95.917  84.124  83.203  1.00  0.00     0.050 A 
ATOM     12  C   UNL     1      95.551  82.810  83.540  1.00  0.00     0.009 A 
BRANCH   8  13
ATOM     13  O   UNL     1      94.593  85.968  86.123  1.00  0.00    -0.493 OA
ATOM     14  C   UNL     1      93.434  85.703  86.938  1.00  0.00     0.278 C 
ENDBRANCH   8  13
BRANCH   9  15
ATOM     15  O   UNL     1      95.984  86.453  83.750  1.00  0.00    -0.504 OA
ATOM     16  H   UNL     1      95.205  86.976  83.548  1.00  0.00     0.293 HD
ENDBRANCH   9  15
ENDBRANCH   6   7
ENDBRANCH   3   6
ENDBRANCH   1   2
BRANCH   1  17
ATOM     17  C   UNL     1      89.874  79.505  84.374  1.00  0.00     0.010 C 
BRANCH  17  18
ATOM     18  C   UNL     1      88.512  79.920  83.752  1.00  0.00     0.001 C 
BRANCH  18  19
ATOM     19  C   UNL     1      87.695  80.888  84.647  1.00  0.00     0.000 C 
BRANCH  19  20
ATOM     20  C   UNL     1      88.185  82.360  84.523  1.00  0.00     0.003 C 
BRANCH  20  21
ATOM     21  C   UNL     1      87.075  83.396  84.148  1.00  0.00    -0.017 C 
ATOM     22  C   UNL     1      86.126  83.654  85.356  1.00  0.00     0.007 C 
ATOM     23  C   UNL     1      86.248  82.970  82.901  1.00  0.00     0.007 C 
ENDBRANCH  20  21
ENDBRANCH  19  20
ENDBRANCH  18  19
ENDBRANCH  17  18
ENDBRANCH   1  17
TORSDOF 10
ENDMDL
MODEL 4
REMARK VINA RESULT:    -5.987      1.327      2.386
REMARK INTER + INTRA:         -10.009
REMARK INTER:                  -9.571
REMARK INTRA:                  -0.438
REMARK UNBOUND:                -0.696
REMARK SMILES COc1cc(CNC(=O)CCCCCC(C)C)ccc1O
REMARK SMILES IDX 10 1 8 2 7 3 9 5 6 6 5 7 3 8 20 9 4 10 19 11 18 12 2 13 1 14
REMARK SMILES IDX 21 15 11 17 12 18 13 19 14 20 15 21 16 22 17 23
REMARK H PARENT 7 4 21 16
REMARK Flexibility Score: inf
ROOT
ATOM      1  C   UNL     1      80.678  65.121  70.482  1.00  0.00     0.100 C 
ENDROOT
BRANCH   1   2
ATOM      2  C   UNL     1      80.867  65.472  71.905  1.00  0.00     0.220 C 
ATOM      3  N   UNL     1      82.050  66.014  72.310  1.00  0.00    -0.352 N 
ATOM      4  H   UNL     1      82.779  66.015  71.610  1.00  0.00     0.163 HD
ATOM      5  O   UNL     1      79.915  65.302  72.705  1.00  0.00    -0.275 OA
BRANCH   3   6
ATOM      6  C   UNL     1      82.305  66.555  73.606  1.00  0.00     0.151 C 
BRANCH   6   7
ATOM      7  C   UNL     1      83.456  67.498  73.629  1.00  0.00    -0.025 A 
ATOM      8  C   UNL     1      85.444  68.409  74.753  1.00  0.00     0.160 A 
ATOM      9  C   UNL     1      85.684  69.247  73.644  1.00  0.00     0.157 A 
ATOM     10  C   UNL     1      84.321  67.554  74.747  1.00  0.00     0.056 A 
ATOM     11  C   UNL     1      84.815  69.220  72.539  1.00  0.00     0.050 A 
ATOM     12  C   UNL     1      83.712  68.348  72.528  1.00  0.00     0.009 A 
BRANCH   8  13
ATOM     13  O   UNL     1      86.268  68.435  75.848  1.00  0.00    -0.493 OA
ATOM     14  C   UNL     1      87.415  67.571  75.734  1.00  0.00     0.278 C 
ENDBRANCH   8  13
BRANCH   9  15
ATOM     15  O   UNL     1      86.759  70.075  73.641  1.00  0.00    -0.504 OA
ATOM     16  H   UNL     1      86.613  70.793  74.261  1.00  0.00     0.293 HD
ENDBRANCH   9  15
ENDBRANCH   6   7
ENDBRANCH   3   6
ENDBRANCH   1   2
BRANCH   1  17
ATOM     17  C   UNL     1      79.198  65.123  70.015  1.00  0.00     0.010 C 
BRANCH  17  18
ATOM     18  C   UNL     1      78.992  64.228  68.761  1.00  0.00     0.001 C 
BRANCH  18  19
ATOM     19  C   UNL     1      77.533  63.729  68.593  1.00  0.00     0.000 C 
BRANCH  19  20
ATOM     20  C   UNL     1      77.153  63.510  67.100  1.00  0.00     0.003 C 
BRANCH  20  21
ATOM     21  C   UNL     1      75.905  64.315  66.611  1.00  0.00    -0.017 C 
ATOM     22  C   UNL     1      76.227  65.835  66.515  1.00  0.00     0.007 C 
ATOM     23  C   UNL     1      74.652  64.090  67.507  1.00  0.00     0.007 C 
ENDBRANCH  20  21
ENDBRANCH  19  20
ENDBRANCH  18  19
ENDBRANCH  17  18
ENDBRANCH   1  17
TORSDOF 10
ENDMDL
MODEL 5
REMARK VINA RESULT:    -5.937     24.194     25.548
REMARK INTER + INTRA:          -9.930
REMARK INTER:                  -9.127
REMARK INTRA:                  -0.803
REMARK UNBOUND:                -0.696
REMARK SMILES COc1cc(CNC(=O)CCCCCC(C)C)ccc1O
REMARK SMILES IDX 10 1 8 2 7 3 9 5 6 6 5 7 3 8 20 9 4 10 19 11 18 12 2 13 1 14
REMARK SMILES IDX 21 15 11 17 12 18 13 19 14 20 15 21 16 22 17 23
REMARK H PARENT 7 4 21 16
REMARK Flexibility Score: inf
ROOT
ATOM      1  C   UNL     1      95.969  82.120  83.095  1.00  0.00     0.100 C 
ENDROOT
BRANCH   1   2
ATOM      2  C   UNL     1      96.715  81.789  81.863  1.00  0.00     0.220 C 
ATOM      3  N   UNL     1      97.371  82.778  81.192  1.00  0.00    -0.352 N 
ATOM      4  H   UNL     1      97.185  83.713  81.525  1.00  0.00     0.163 HD
ATOM      5  O   UNL     1      96.763  80.594  81.483  1.00  0.00    -0.275 OA
BRANCH   3   6
ATOM      6  C   UNL     1      98.264  82.574  80.097  1.00  0.00     0.151 C 
BRANCH   6   7
ATOM      7  C   UNL     1      97.759  83.142  78.818  1.00  0.00    -0.025 A 
ATOM      8  C   UNL     1      98.065  83.604  76.422  1.00  0.00     0.160 A 
ATOM      9  C   UNL     1      96.771  84.162  76.367  1.00  0.00     0.157 A 
ATOM     10  C   UNL     1      98.559  83.115  77.651  1.00  0.00     0.056 A 
ATOM     11  C   UNL     1      95.977  84.219  77.528  1.00  0.00     0.050 A 
ATOM     12  C   UNL     1      96.465  83.708  78.742  1.00  0.00     0.009 A 
BRANCH   8  13
ATOM     13  O   UNL     1      98.861  83.557  75.308  1.00  0.00    -0.493 OA
ATOM     14  C   UNL     1      99.118  82.222  74.831  1.00  0.00     0.278 C 
ENDBRANCH   8  13
BRANCH   9  15
ATOM     15  O   UNL     1      96.288  84.637  75.191  1.00  0.00    -0.504 OA
ATOM     16  H   UNL     1      96.454  85.581  75.135  1.00  0.00     0.293 HD
ENDBRANCH   9  15
ENDBRANCH   6   7
ENDBRANCH   3   6
ENDBRANCH   1   2
BRANCH   1  17
ATOM     17  C   UNL     1      95.475  80.884  83.894  1.00  0.00     0.010 C 
BRANCH  17  18
ATOM     18  C   UNL     1      94.066  81.122  84.504  1.00  0.00     0.001 C 
BRANCH  18  19
ATOM     19  C   UNL     1      93.611  82.604  84.445  1.00  0.00     0.000 C 
BRANCH  19  20
ATOM     20  C   UNL     1      93.291  83.179  85.855  1.00  0.00     0.003 C 
BRANCH  20  21
ATOM     21  C   UNL     1      94.135  84.429  86.266  1.00  0.00    -0.017 C 
ATOM     22  C   UNL     1      93.254  85.472  87.016  1.00  0.00     0.007 C 
ATOM     23  C   UNL     1      94.846  85.103  85.056  1.00  0.00     0.007 C 
ENDBRANCH  20  21
ENDBRANCH  19  20
ENDBRANCH  18  19
ENDBRANCH  17  18
ENDBRANCH   1  17
TORSDOF 10
ENDMDL
MODEL 6
REMARK VINA RESULT:    -5.818      1.613      2.322
REMARK INTER + INTRA:          -9.746
REMARK INTER:                  -9.273
REMARK INTRA:                  -0.472
REMARK UNBOUND:                -0.696
REMARK SMILES COc1cc(CNC(=O)CCCCCC(C)C)ccc1O
REMARK SMILES IDX 10 1 8 2 7 3 9 5 6 6 5 7 3 8 20 9 4 10 19 11 18 12 2 13 1 14
REMARK SMILES IDX 21 15 11 17 12 18 13 19 14 20 15 21 16 22 17 23
REMARK H PARENT 7 4 21 16
REMARK Flexibility Score: inf
ROOT
ATOM      1  C   UNL     1      79.881  64.729  69.835  1.00  0.00     0.100 C 
ENDROOT
BRANCH   1   2
ATOM      2  C   UNL     1      81.327  64.968  70.027  1.00  0.00     0.220 C 
ATOM      3  N   UNL     1      81.787  66.247  70.129  1.00  0.00    -0.352 N 
ATOM      4  H   UNL     1      81.102  66.962  69.929  1.00  0.00     0.163 HD
ATOM      5  O   UNL     1      82.097  63.983  70.135  1.00  0.00    -0.275 OA
BRANCH   3   6
ATOM      6  C   UNL     1      83.119  66.615  70.486  1.00  0.00     0.151 C 
BRANCH   6   7
ATOM      7  C   UNL     1      83.309  66.770  71.953  1.00  0.00    -0.025 A 
ATOM      8  C   UNL     1      84.724  67.391  73.867  1.00  0.00     0.160 A 
ATOM      9  C   UNL     1      83.650  67.130  74.743  1.00  0.00     0.157 A 
ATOM     10  C   UNL     1      84.553  67.192  72.480  1.00  0.00     0.056 A 
ATOM     11  C   UNL     1      82.416  66.685  74.233  1.00  0.00     0.050 A 
ATOM     12  C   UNL     1      82.245  66.512  72.849  1.00  0.00     0.009 A 
BRANCH   8  13
ATOM     13  O   UNL     1      85.939  67.806  74.345  1.00  0.00    -0.493 OA
ATOM     14  C   UNL     1      86.924  66.758  74.419  1.00  0.00     0.278 C 
ENDBRANCH   8  13
BRANCH   9  15
ATOM     15  O   UNL     1      83.804  67.317  76.078  1.00  0.00    -0.504 OA
ATOM     16  H   UNL     1      82.987  67.657  76.450  1.00  0.00     0.293 HD
ENDBRANCH   9  15
ENDBRANCH   6   7
ENDBRANCH   3   6
ENDBRANCH   1   2
BRANCH   1  17
ATOM     17  C   UNL     1      79.533  63.312  69.305  1.00  0.00     0.010 C 
BRANCH  17  18
ATOM     18  C   UNL     1      78.088  63.253  68.737  1.00  0.00     0.001 C 
BRANCH  18  19
ATOM     19  C   UNL     1      77.780  64.380  67.716  1.00  0.00     0.000 C 
BRANCH  19  20
ATOM     20  C   UNL     1      76.793  63.915  66.606  1.00  0.00     0.003 C 
BRANCH  20  21
ATOM     21  C   UNL     1      75.510  64.796  66.453  1.00  0.00    -0.017 C 
ATOM     22  C   UNL     1      75.884  66.302  66.316  1.00  0.00     0.007 C 
ATOM     23  C   UNL     1      74.499  64.600  67.619  1.00  0.00     0.007 C 
ENDBRANCH  20  21
ENDBRANCH  19  20
ENDBRANCH  18  19
ENDBRANCH  17  18
ENDBRANCH   1  17
TORSDOF 10
ENDMDL
MODEL 7
REMARK VINA RESULT:    -5.741     21.355     24.449
REMARK INTER + INTRA:          -9.626
REMARK INTER:                  -9.015
REMARK INTRA:                  -0.611
REMARK UNBOUND:                -0.696
REMARK SMILES COc1cc(CNC(=O)CCCCCC(C)C)ccc1O
REMARK SMILES IDX 10 1 8 2 7 3 9 5 6 6 5 7 3 8 20 9 4 10 19 11 18 12 2 13 1 14
REMARK SMILES IDX 21 15 11 17 12 18 13 19 14 20 15 21 16 22 17 23
REMARK H PARENT 7 4 21 16
REMARK Flexibility Score: inf
ROOT
ATOM      1  C   UNL     1      97.142  82.097  80.355  1.00  0.00     0.100 C 
ENDROOT
BRANCH   1   2
ATOM      2  C   UNL     1      96.656  82.423  81.711  1.00  0.00     0.220 C 
ATOM      3  N   UNL     1      96.391  81.414  82.588  1.00  0.00    -0.352 N 
ATOM      4  H   UNL     1      96.423  80.486  82.191  1.00  0.00     0.163 HD
ATOM      5  O   UNL     1      96.537  83.629  82.042  1.00  0.00    -0.275 OA
BRANCH   3   6
ATOM      6  C   UNL     1      96.084  81.588  83.972  1.00  0.00     0.151 C 
BRANCH   6   7
ATOM      7  C   UNL     1      94.638  81.416  84.276  1.00  0.00    -0.025 A 
ATOM      8  C   UNL     1      92.754  79.981  84.938  1.00  0.00     0.160 A 
ATOM      9  C   UNL     1      91.897  81.101  84.921  1.00  0.00     0.157 A 
ATOM     10  C   UNL     1      94.114  80.141  84.597  1.00  0.00     0.056 A 
ATOM     11  C   UNL     1      92.402  82.369  84.577  1.00  0.00     0.050 A 
ATOM     12  C   UNL     1      93.762  82.527  84.262  1.00  0.00     0.009 A 
BRANCH   8  13
ATOM     13  O   UNL     1      92.278  78.734  85.251  1.00  0.00    -0.493 OA
ATOM     14  C   UNL     1      92.017  77.906  84.102  1.00  0.00     0.278 C 
ENDBRANCH   8  13
BRANCH   9  15
ATOM     15  O   UNL     1      90.588  80.957  85.244  1.00  0.00    -0.504 OA
ATOM     16  H   UNL     1      90.497  80.283  85.921  1.00  0.00     0.293 HD
ENDBRANCH   9  15
ENDBRANCH   6   7
ENDBRANCH   3   6
ENDBRANCH   1   2
BRANCH   1  17
ATOM     17  C   UNL     1      97.300  83.327  79.420  1.00  0.00     0.010 C 
BRANCH  17  18
ATOM     18  C   UNL     1      96.561  83.118  78.070  1.00  0.00     0.001 C 
BRANCH  18  19
ATOM     19  C   UNL     1      96.646  84.346  77.125  1.00  0.00     0.000 C 
BRANCH  19  20
ATOM     20  C   UNL     1      96.863  83.932  75.640  1.00  0.00     0.003 C 
BRANCH  20  21
ATOM     21  C   UNL     1      98.193  84.446  74.999  1.00  0.00    -0.017 C 
ATOM     22  C   UNL     1      98.169  84.269  73.452  1.00  0.00     0.007 C 
ATOM     23  C   UNL     1      99.456  83.759  75.596  1.00  0.00     0.007 C 
ENDBRANCH  20  21
ENDBRANCH  19  20
ENDBRANCH  18  19
ENDBRANCH  17  18
ENDBRANCH   1  17
TORSDOF 10
ENDMDL
MODEL 8
REMARK VINA RESULT:    -5.698     23.717     25.449
REMARK INTER + INTRA:          -9.559
REMARK INTER:                  -8.842
REMARK INTRA:                  -0.716
REMARK UNBOUND:                -0.696
REMARK SMILES COc1cc(CNC(=O)CCCCCC(C)C)ccc1O
REMARK SMILES IDX 10 1 8 2 7 3 9 5 6 6 5 7 3 8 20 9 4 10 19 11 18 12 2 13 1 14
REMARK SMILES IDX 21 15 11 17 12 18 13 19 14 20 15 21 16 22 17 23
REMARK H PARENT 7 4 21 16
REMARK Flexibility Score: inf
ROOT
ATOM      1  C   UNL     1      97.423  81.696  79.896  1.00  0.00     0.100 C 
ENDROOT
BRANCH   1   2
ATOM      2  C   UNL     1      97.262  81.382  81.331  1.00  0.00     0.220 C 
ATOM      3  N   UNL     1      97.711  82.267  82.265  1.00  0.00    -0.352 N 
ATOM      4  H   UNL     1      98.253  83.035  81.896  1.00  0.00     0.163 HD
ATOM      5  O   UNL     1      96.675  80.322  81.659  1.00  0.00    -0.275 OA
BRANCH   3   6
ATOM      6  C   UNL     1      97.469  82.174  83.669  1.00  0.00     0.151 C 
BRANCH   6   7
ATOM      7  C   UNL     1      96.284  82.959  84.110  1.00  0.00    -0.025 A 
ATOM      8  C   UNL     1      93.991  83.043  84.993  1.00  0.00     0.160 A 
ATOM      9  C   UNL     1      94.053  84.453  85.014  1.00  0.00     0.157 A 
ATOM     10  C   UNL     1      95.099  82.306  84.524  1.00  0.00     0.056 A 
ATOM     11  C   UNL     1      95.218  85.113  84.580  1.00  0.00     0.050 A 
ATOM     12  C   UNL     1      96.326  84.372  84.137  1.00  0.00     0.009 A 
BRANCH   8  13
ATOM     13  O   UNL     1      92.859  82.382  85.393  1.00  0.00    -0.493 OA
ATOM     14  C   UNL     1      92.007  81.976  84.305  1.00  0.00     0.278 C 
ENDBRANCH   8  13
BRANCH   9  15
ATOM     15  O   UNL     1      92.993  85.171  85.462  1.00  0.00    -0.504 OA
ATOM     16  H   UNL     1      92.274  85.109  84.829  1.00  0.00     0.293 HD
ENDBRANCH   9  15
ENDBRANCH   6   7
ENDBRANCH   3   6
ENDBRANCH   1   2
BRANCH   1  17
ATOM     17  C   UNL     1      97.522  83.213  79.582  1.00  0.00     0.010 C 
BRANCH  17  18
ATOM     18  C   UNL     1      96.395  83.673  78.616  1.00  0.00     0.001 C 
BRANCH  18  19
ATOM     19  C   UNL     1      96.735  83.446  77.120  1.00  0.00     0.000 C 
BRANCH  19  20
ATOM     20  C   UNL     1      98.268  83.492  76.851  1.00  0.00     0.003 C 
BRANCH  20  21
ATOM     21  C   UNL     1      98.676  84.061  75.453  1.00  0.00    -0.017 C 
ATOM     22  C   UNL     1      97.801  83.442  74.324  1.00  0.00     0.007 C 
ATOM     23  C   UNL     1     100.185  83.854  75.134  1.00  0.00     0.007 C 
ENDBRANCH  20  21
ENDBRANCH  19  20
ENDBRANCH  18  19
ENDBRANCH  17  18
ENDBRANCH   1  17
TORSDOF 10
ENDMDL
MODEL 9
REMARK VINA RESULT:    -5.522     22.835     25.158
REMARK INTER + INTRA:          -9.284
REMARK INTER:                  -8.607
REMARK INTRA:                  -0.677
REMARK UNBOUND:                -0.696
REMARK SMILES COc1cc(CNC(=O)CCCCCC(C)C)ccc1O
REMARK SMILES IDX 10 1 8 2 7 3 9 5 6 6 5 7 3 8 20 9 4 10 19 11 18 12 2 13 1 14
REMARK SMILES IDX 21 15 11 17 12 18 13 19 14 20 15 21 16 22 17 23
REMARK H PARENT 7 4 21 16
REMARK Flexibility Score: inf
ROOT
ATOM      1  C   UNL     1      97.016  82.022  81.350  1.00  0.00     0.100 C 
ENDROOT
BRANCH   1   2
ATOM      2  C   UNL     1      96.552  82.743  82.554  1.00  0.00     0.220 C 
ATOM      3  N   UNL     1      96.578  82.114  83.762  1.00  0.00    -0.352 N 
ATOM      4  H   UNL     1      96.797  81.128  83.724  1.00  0.00     0.163 HD
ATOM      5  O   UNL     1      96.182  83.937  82.443  1.00  0.00    -0.275 OA
BRANCH   3   6
ATOM      6  C   UNL     1      96.325  82.740  85.020  1.00  0.00     0.151 C 
BRANCH   6   7
ATOM      7  C   UNL     1      95.103  82.225  85.694  1.00  0.00    -0.025 A 
ATOM      8  C   UNL     1      92.669  81.874  85.720  1.00  0.00     0.160 A 
ATOM      9  C   UNL     1      92.783  81.185  86.946  1.00  0.00     0.157 A 
ATOM     10  C   UNL     1      93.826  82.406  85.112  1.00  0.00     0.056 A 
ATOM     11  C   UNL     1      94.045  81.022  87.547  1.00  0.00     0.050 A 
ATOM     12  C   UNL     1      95.196  81.532  86.924  1.00  0.00     0.009 A 
BRANCH   8  13
ATOM     13  O   UNL     1      91.448  82.061  85.128  1.00  0.00    -0.493 OA
ATOM     14  C   UNL     1      91.132  81.078  84.123  1.00  0.00     0.278 C 
ENDBRANCH   8  13
BRANCH   9  15
ATOM     15  O   UNL     1      91.677  80.672  87.540  1.00  0.00    -0.504 OA
ATOM     16  H   UNL     1      91.330  79.954  87.005  1.00  0.00     0.293 HD
ENDBRANCH   9  15
ENDBRANCH   6   7
ENDBRANCH   3   6
ENDBRANCH   1   2
BRANCH   1  17
ATOM     17  C   UNL     1      98.390  82.502  80.809  1.00  0.00     0.010 C 
BRANCH  17  18
ATOM     18  C   UNL     1      98.246  83.224  79.441  1.00  0.00     0.001 C 
BRANCH  18  19
ATOM     19  C   UNL     1      96.771  83.444  79.012  1.00  0.00     0.000 C 
BRANCH  19  20
ATOM     20  C   UNL     1      96.557  83.197  77.490  1.00  0.00     0.003 C 
BRANCH  20  21
ATOM     21  C   UNL     1      97.461  84.058  76.549  1.00  0.00    -0.017 C 
ATOM     22  C   UNL     1      96.604  85.063  75.723  1.00  0.00     0.007 C 
ATOM     23  C   UNL     1      98.337  83.194  75.596  1.00  0.00     0.007 C 
ENDBRANCH  20  21
ENDBRANCH  19  20
ENDBRANCH  18  19
ENDBRANCH  17  18
ENDBRANCH   1  17
TORSDOF 10
ENDMDL
MODEL 10
REMARK VINA RESULT:    -5.389     22.965     25.304
REMARK INTER + INTRA:          -9.079
REMARK INTER:                  -8.546
REMARK INTRA:                  -0.533
REMARK UNBOUND:                -0.696
REMARK SMILES COc1cc(CNC(=O)CCCCCC(C)C)ccc1O
REMARK SMILES IDX 10 1 8 2 7 3 9 5 6 6 5 7 3 8 20 9 4 10 19 11 18 12 2 13 1 14
REMARK SMILES IDX 21 15 11 17 12 18 13 19 14 20 15 21 16 22 17 23
REMARK H PARENT 7 4 21 16
REMARK Flexibility Score: inf
ROOT
ATOM      1  C   UNL     1      74.949  90.654  70.114  1.00  0.00     0.100 C 
ENDROOT
BRANCH   1   2
ATOM      2  C   UNL     1      73.904  90.679  71.159  1.00  0.00     0.220 C 
ATOM      3  N   UNL     1      73.770  91.784  71.945  1.00  0.00    -0.352 N 
ATOM      4  H   UNL     1      74.502  92.473  71.839  1.00  0.00     0.163 HD
ATOM      5  O   UNL     1      73.131  89.696  71.272  1.00  0.00    -0.275 OA
BRANCH   3   6
ATOM      6  C   UNL     1      72.704  92.013  72.867  1.00  0.00     0.151 C 
BRANCH   6   7
ATOM      7  C   UNL     1      73.163  92.108  74.279  1.00  0.00    -0.025 A 
ATOM      8  C   UNL     1      74.606  93.130  75.988  1.00  0.00     0.160 A 
ATOM      9  C   UNL     1      73.990  92.337  76.979  1.00  0.00     0.157 A 
ATOM     10  C   UNL     1      74.202  92.997  74.643  1.00  0.00     0.056 A 
ATOM     11  C   UNL     1      72.974  91.430  76.625  1.00  0.00     0.050 A 
ATOM     12  C   UNL     1      72.559  91.320  75.287  1.00  0.00     0.009 A 
BRANCH   8  13
ATOM     13  O   UNL     1      75.611  94.004  76.309  1.00  0.00    -0.493 OA
ATOM     14  C   UNL     1      75.194  95.382  76.345  1.00  0.00     0.278 C 
ENDBRANCH   8  13
BRANCH   9  15
ATOM     15  O   UNL     1      74.372  92.455  78.276  1.00  0.00    -0.504 OA
ATOM     16  H   UNL     1      73.600  92.402  78.843  1.00  0.00     0.293 HD
ENDBRANCH   9  15
ENDBRANCH   6   7
ENDBRANCH   3   6
ENDBRANCH   1   2
BRANCH   1  17
ATOM     17  C   UNL     1      75.080  89.295  69.375  1.00  0.00     0.010 C 
BRANCH  17  18
ATOM     18  C   UNL     1      76.478  89.133  68.717  1.00  0.00     0.001 C 
BRANCH  18  19
ATOM     19  C   UNL     1      76.776  87.684  68.251  1.00  0.00     0.000 C 
BRANCH  19  20
ATOM     20  C   UNL     1      75.963  86.628  69.057  1.00  0.00     0.003 C 
BRANCH  20  21
ATOM     21  C   UNL     1      76.707  85.277  69.311  1.00  0.00    -0.017 C 
ATOM     22  C   UNL     1      77.163  84.633  67.969  1.00  0.00     0.007 C 
ATOM     23  C   UNL     1      75.855  84.262  70.127  1.00  0.00     0.007 C 
ENDBRANCH  20  21
ENDBRANCH  19  20
ENDBRANCH  18  19
ENDBRANCH  17  18
ENDBRANCH   1  17
TORSDOF 10
ENDMDL
