MODEL 1
REMARK VINA RESULT:    -7.813      0.000      0.000
REMARK INTER + INTRA:         -13.398
REMARK INTER:                 -13.294
REMARK INTRA:                  -0.104
REMARK UNBOUND:                -0.104
REMARK SMILES C=C(C)[C@]12C[C@@H](C)[C@@]34O[C@](Cc5ccccc5)(O[C@@H]1[C@@H]3C=C(COC(=O)Cc1ccc(O)cc1)C[C@]1(O)C(=O)C(C)=C[C@@H]41)O2
REMARK SMILES IDX 23 1 22 2 21 3 20 4 9 5 8 6 10 7 6 8 18 10 44 11 19 12 5 13
REMARK SMILES IDX 7 14 4 15 11 16 12 17 13 18 17 19 14 20 16 21 15 22 2 23
REMARK SMILES IDX 3 24 1 25 35 26 36 27 43 28 38 29 42 30 39 32 40 33 41 34
REMARK SMILES IDX 37 35 24 37 25 38 26 39 27 40 28 41 29 42 34 43 30 44 33 45
REMARK SMILES IDX 31 46 32 47
REMARK H PARENT 37 36 32 48
REMARK Flexibility Score: 90.00
ROOT
ATOM      1  C   UNL     1      93.074  99.935  73.630  1.00  0.00     0.264 C 
ENDROOT
BRANCH   1   2
ATOM      2  C   UNL     1      92.344 101.144  73.093  1.00  0.00    -0.033 C 
ATOM      3  C   UNL     1      92.211 101.295  71.759  1.00  0.00    -0.015 C 
BRANCH   3   4
ATOM      4  C   UNL     1      91.596 102.443  70.974  1.00  0.00     0.078 C 
ATOM      5  O   UNL     1      89.206 101.896  70.652  1.00  0.00    -0.319 OA
ATOM      6  C   UNL     1      90.110 102.852  71.288  1.00  0.00     0.095 CG0
ATOM      7  C   UNL     1      89.563 101.509  69.311  1.00  0.00     0.289 C 
ATOM      8  C   UNL     1      89.869 104.291  70.670  1.00  0.00     0.023 C 
ATOM      9  G   UNL     1      89.809 102.719  72.809  1.00  0.00     0.000 G0
ATOM     10  O   UNL     1      90.872 100.950  69.265  1.00  0.00    -0.320 OA
ATOM     11  O   UNL     1      89.586 102.618  68.415  1.00  0.00    -0.313 OA
ATOM     12  C   UNL     1      91.659 102.136  69.458  1.00  0.00     0.170 C 
ATOM     13  C   UNL     1      90.693 104.498  69.363  1.00  0.00     0.049 C 
ATOM     14  C   UNL     1      88.398 104.661  70.409  1.00  0.00     0.011 C 
ATOM     15  C   UNL     1      90.898 103.184  68.609  1.00  0.00     0.122 C 
BRANCH   7  16
ATOM     16  C   UNL     1      88.552 100.489  68.826  1.00  0.00     0.135 C 
BRANCH  16  17
ATOM     17  C   UNL     1      88.886  99.094  69.292  1.00  0.00    -0.040 A 
ATOM     18  C   UNL     1      88.936  98.046  68.374  1.00  0.00     0.004 A 
ATOM     19  C   UNL     1      89.146  98.854  70.641  1.00  0.00     0.004 A 
ATOM     20  C   UNL     1      89.246  96.755  68.805  1.00  0.00     0.000 A 
ATOM     21  C   UNL     1      89.457  97.564  71.072  1.00  0.00     0.000 A 
ATOM     22  C   UNL     1      89.506  96.515  70.154  1.00  0.00     0.000 A 
ENDBRANCH  16  17
ENDBRANCH   7  16
BRANCH  15  23
ATOM     23  C   UNL     1      91.527 103.384  67.268  1.00  0.00    -0.046 C 
ATOM     24  C   UNL     1      92.338 104.634  67.097  1.00  0.00     0.042 C 
ATOM     25  C   UNL     1      91.374 102.496  66.274  1.00  0.00     0.010 C 
ENDBRANCH  15  23
ENDBRANCH   3   4
BRANCH   2  26
ATOM     26  C   UNL     1      91.828 102.062  74.185  1.00  0.00     0.078 C 
BRANCH  26  27
ATOM     27  C   UNL     1      90.912 103.208  73.759  1.00  0.00     0.140 C 
ATOM     28  C   UNL     1      89.797 102.739  72.803  1.00  0.00     0.086 CG0
ATOM     29  C   UNL     1      90.126 103.783  74.918  1.00  0.00     0.190 C 
ATOM     30  C   UNL     1      88.561 103.390  73.359  1.00  0.00    -0.010 C 
ATOM     31  G   UNL     1      90.103 102.858  71.281  1.00  0.00     0.000 G0
ATOM     32  O   UNL     1      90.594 104.111  75.998  1.00  0.00    -0.291 OA
ATOM     33  C   UNL     1      88.706 103.961  74.559  1.00  0.00    -0.008 C 
ATOM     34  C   UNL     1      87.706 104.611  75.430  1.00  0.00     0.048 C 
BRANCH  27  35
ATOM     35  O   UNL     1      91.656 104.313  73.273  1.00  0.00    -0.381 OA
ATOM     36  H   UNL     1      92.601 104.086  73.309  1.00  0.00     0.212 HD
ENDBRANCH  27  35
ENDBRANCH  26  27
ENDBRANCH   2  26
ENDBRANCH   1   2
BRANCH   1  37
ATOM     37  O   UNL     1      92.944  99.897  75.036  1.00  0.00    -0.461 OA
BRANCH  37  38
ATOM     38  C   UNL     1      93.664  98.922  75.687  1.00  0.00     0.310 C 
ATOM     39  O   UNL     1      94.527  99.130  76.527  1.00  0.00    -0.252 OA
BRANCH  38  40
ATOM     40  C   UNL     1      93.221  97.562  75.202  1.00  0.00     0.158 C 
BRANCH  40  41
ATOM     41  C   UNL     1      93.138  96.543  76.309  1.00  0.00    -0.037 A 
ATOM     42  C   UNL     1      91.950  96.382  77.022  1.00  0.00     0.008 A 
ATOM     43  C   UNL     1      94.249  95.760  76.621  1.00  0.00     0.008 A 
ATOM     44  C   UNL     1      91.873  95.439  78.047  1.00  0.00     0.046 A 
ATOM     45  C   UNL     1      94.173  94.816  77.646  1.00  0.00     0.046 A 
ATOM     46  C   UNL     1      92.985  94.656  78.359  1.00  0.00     0.115 A 
BRANCH  46  47
ATOM     47  O   UNL     1      92.910  93.736  79.359  1.00  0.00    -0.508 OA
ATOM     48  H   UNL     1      92.134  93.933  79.911  1.00  0.00     0.293 HD
ENDBRANCH  46  47
ENDBRANCH  40  41
ENDBRANCH  38  40
ENDBRANCH  37  38
ENDBRANCH   1  37
TORSDOF 10
ENDMDL
MODEL 2
REMARK VINA RESULT:    -7.772     28.712     31.783
REMARK INTER + INTRA:         -13.327
REMARK INTER:                 -11.778
REMARK INTRA:                  -1.549
REMARK UNBOUND:                -0.104
REMARK SMILES C=C(C)[C@]12C[C@@H](C)[C@@]34O[C@](Cc5ccccc5)(O[C@@H]1[C@@H]3C=C(COC(=O)Cc1ccc(O)cc1)C[C@]1(O)C(=O)C(C)=C[C@@H]41)O2
REMARK SMILES IDX 23 1 22 2 21 3 20 4 9 5 8 6 10 7 6 8 18 10 44 11 19 12 5 13
REMARK SMILES IDX 7 14 4 15 11 16 12 17 13 18 17 19 14 20 16 21 15 22 2 23
REMARK SMILES IDX 3 24 1 25 35 26 36 27 43 28 38 29 42 30 39 32 40 33 41 34
REMARK SMILES IDX 37 35 24 37 25 38 26 39 27 40 28 41 29 42 34 43 30 44 33 45
REMARK SMILES IDX 31 46 32 47
REMARK H PARENT 37 36 32 48
REMARK Flexibility Score: 90.00
ROOT
ATOM      1  C   UNL     1      62.630  81.361  73.151  1.00  0.00     0.264 C 
ENDROOT
BRANCH   1   2
ATOM      2  C   UNL     1      62.455  82.590  74.013  1.00  0.00    -0.033 C 
ATOM      3  C   UNL     1      63.245  82.754  75.094  1.00  0.00    -0.015 C 
BRANCH   3   4
ATOM      4  C   UNL     1      63.220  83.847  76.150  1.00  0.00     0.078 C 
ATOM      5  O   UNL     1      64.792  85.605  75.405  1.00  0.00    -0.319 OA
ATOM      6  C   UNL     1      63.382  85.341  75.685  1.00  0.00     0.095 CG0
ATOM      7  C   UNL     1      65.722  85.059  76.361  1.00  0.00     0.289 C 
ATOM      8  C   UNL     1      62.902  86.269  76.876  1.00  0.00     0.023 C 
ATOM      9  G   UNL     1      62.665  85.577  74.324  1.00  0.00     0.000 G0
ATOM     10  O   UNL     1      65.570  83.647  76.482  1.00  0.00    -0.320 OA
ATOM     11  O   UNL     1      65.522  85.582  77.672  1.00  0.00    -0.313 OA
ATOM     12  C   UNL     1      64.328  83.589  77.201  1.00  0.00     0.170 C 
ATOM     13  C   UNL     1      63.217  85.629  78.263  1.00  0.00     0.049 C 
ATOM     14  C   UNL     1      63.437  87.711  76.848  1.00  0.00     0.011 C 
ATOM     15  C   UNL     1      64.470  84.754  78.211  1.00  0.00     0.122 C 
BRANCH   7  16
ATOM     16  C   UNL     1      67.127  85.386  75.896  1.00  0.00     0.135 C 
BRANCH  16  17
ATOM     17  C   UNL     1      67.406  86.868  75.935  1.00  0.00    -0.040 A 
ATOM     18  C   UNL     1      67.375  87.615  74.758  1.00  0.00     0.004 A 
ATOM     19  C   UNL     1      67.694  87.490  77.149  1.00  0.00     0.004 A 
ATOM     20  C   UNL     1      67.633  88.986  74.795  1.00  0.00     0.000 A 
ATOM     21  C   UNL     1      67.951  88.861  77.186  1.00  0.00     0.000 A 
ATOM     22  C   UNL     1      67.921  89.608  76.009  1.00  0.00     0.000 A 
ENDBRANCH  16  17
ENDBRANCH   7  16
BRANCH  15  23
ATOM     23  C   UNL     1      64.894  84.277  79.562  1.00  0.00    -0.046 C 
ATOM     24  C   UNL     1      63.814  84.180  80.598  1.00  0.00     0.042 C 
ATOM     25  C   UNL     1      66.167  83.955  79.833  1.00  0.00     0.010 C 
ENDBRANCH  15  23
ENDBRANCH   3   4
BRANCH   2  26
ATOM     26  C   UNL     1      61.366  83.519  73.511  1.00  0.00     0.078 C 
BRANCH  26  27
ATOM     27  C   UNL     1      61.260  84.892  74.173  1.00  0.00     0.140 C 
ATOM     28  C   UNL     1      62.637  85.570  74.334  1.00  0.00     0.086 CG0
ATOM     29  C   UNL     1      60.504  85.890  73.321  1.00  0.00     0.190 C 
ATOM     30  C   UNL     1      62.393  86.975  73.859  1.00  0.00    -0.010 C 
ATOM     31  G   UNL     1      63.361  85.338  75.692  1.00  0.00     0.000 G0
ATOM     32  O   UNL     1      59.423  85.690  72.788  1.00  0.00    -0.291 OA
ATOM     33  C   UNL     1      61.216  87.180  73.260  1.00  0.00    -0.008 C 
ATOM     34  C   UNL     1      60.679  88.393  72.608  1.00  0.00     0.048 C 
BRANCH  27  35
ATOM     35  O   UNL     1      60.508  84.833  75.373  1.00  0.00    -0.381 OA
ATOM     36  H   UNL     1      60.346  85.741  75.679  1.00  0.00     0.212 HD
ENDBRANCH  27  35
ENDBRANCH  26  27
ENDBRANCH   2  26
ENDBRANCH   1   2
BRANCH   1  37
ATOM     37  O   UNL     1      63.958  81.309  72.676  1.00  0.00    -0.461 OA
BRANCH  37  38
ATOM     38  C   UNL     1      64.156  81.727  71.380  1.00  0.00     0.310 C 
ATOM     39  O   UNL     1      63.267  81.960  70.573  1.00  0.00    -0.252 OA
BRANCH  38  40
ATOM     40  C   UNL     1      65.637  81.853  71.112  1.00  0.00     0.158 C 
BRANCH  40  41
ATOM     41  C   UNL     1      66.092  83.283  70.983  1.00  0.00    -0.037 A 
ATOM     42  C   UNL     1      65.998  83.937  69.754  1.00  0.00     0.008 A 
ATOM     43  C   UNL     1      66.607  83.954  72.092  1.00  0.00     0.008 A 
ATOM     44  C   UNL     1      66.420  85.261  69.634  1.00  0.00     0.046 A 
ATOM     45  C   UNL     1      67.028  85.279  71.972  1.00  0.00     0.046 A 
ATOM     46  C   UNL     1      66.935  85.932  70.744  1.00  0.00     0.115 A 
BRANCH  46  47
ATOM     47  O   UNL     1      67.347  87.224  70.627  1.00  0.00    -0.508 OA
ATOM     48  H   UNL     1      68.226  87.313  71.035  1.00  0.00     0.293 HD
ENDBRANCH  46  47
ENDBRANCH  40  41
ENDBRANCH  38  40
ENDBRANCH  37  38
ENDBRANCH   1  37
TORSDOF 10
ENDMDL
MODEL 3
REMARK VINA RESULT:    -7.296     29.548     31.987
REMARK INTER + INTRA:         -12.518
REMARK INTER:                 -12.196
REMARK INTRA:                  -0.322
REMARK UNBOUND:                -0.104
REMARK SMILES C=C(C)[C@]12C[C@@H](C)[C@@]34O[C@](Cc5ccccc5)(O[C@@H]1[C@@H]3C=C(COC(=O)Cc1ccc(O)cc1)C[C@]1(O)C(=O)C(C)=C[C@@H]41)O2
REMARK SMILES IDX 23 1 22 2 21 3 20 4 9 5 8 6 10 7 6 8 18 10 44 11 19 12 5 13
REMARK SMILES IDX 7 14 4 15 11 16 12 17 13 18 17 19 14 20 16 21 15 22 2 23
REMARK SMILES IDX 3 24 1 25 35 26 36 27 43 28 38 29 42 30 39 32 40 33 41 34
REMARK SMILES IDX 37 35 24 37 25 38 26 39 27 40 28 41 29 42 34 43 30 44 33 45
REMARK SMILES IDX 31 46 32 47
REMARK H PARENT 37 36 32 48
REMARK Flexibility Score: 90.00
ROOT
ATOM      1  C   UNL     1      65.265  85.147  79.676  1.00  0.00     0.264 C 
ENDROOT
BRANCH   1   2
ATOM      2  C   UNL     1      65.418  85.308  78.181  1.00  0.00    -0.033 C 
ATOM      3  C   UNL     1      64.731  84.490  77.356  1.00  0.00    -0.015 C 
BRANCH   3   4
ATOM      4  C   UNL     1      64.768  84.397  75.839  1.00  0.00     0.078 C 
ATOM      5  O   UNL     1      62.981  85.877  74.983  1.00  0.00    -0.319 OA
ATOM      6  C   UNL     1      64.430  85.685  75.002  1.00  0.00     0.095 CG0
ATOM      7  C   UNL     1      62.204  84.680  74.781  1.00  0.00     0.289 C 
ATOM      8  C   UNL     1      64.945  85.445  73.523  1.00  0.00     0.023 C 
ATOM      9  G   UNL     1      64.980  86.961  75.703  1.00  0.00     0.000 G0
ATOM     10  O   UNL     1      62.490  83.703  75.778  1.00  0.00    -0.320 OA
ATOM     11  O   UNL     1      62.491  84.052  73.534  1.00  0.00    -0.313 OA
ATOM     12  C   UNL     1      63.800  83.289  75.357  1.00  0.00     0.170 C 
ATOM     13  C   UNL     1      64.830  83.945  73.114  1.00  0.00     0.049 C 
ATOM     14  C   UNL     1      64.286  86.320  72.443  1.00  0.00     0.011 C 
ATOM     15  C   UNL     1      63.659  83.255  73.815  1.00  0.00     0.122 C 
BRANCH   7  16
ATOM     16  C   UNL     1      60.736  85.052  74.834  1.00  0.00     0.135 C 
BRANCH  16  17
ATOM     17  C   UNL     1      60.202  85.444  73.478  1.00  0.00    -0.040 A 
ATOM     18  C   UNL     1      60.139  86.789  73.116  1.00  0.00     0.004 A 
ATOM     19  C   UNL     1      59.773  84.460  72.588  1.00  0.00     0.004 A 
ATOM     20  C   UNL     1      59.645  87.151  71.862  1.00  0.00     0.000 A 
ATOM     21  C   UNL     1      59.280  84.823  71.334  1.00  0.00     0.000 A 
ATOM     22  C   UNL     1      59.216  86.167  70.972  1.00  0.00     0.000 A 
ENDBRANCH  16  17
ENDBRANCH   7  16
BRANCH  15  23
ATOM     23  C   UNL     1      63.419  81.872  73.304  1.00  0.00    -0.046 C 
ATOM     24  C   UNL     1      64.326  81.406  72.204  1.00  0.00     0.042 C 
ATOM     25  C   UNL     1      62.448  81.091  73.800  1.00  0.00     0.010 C 
ENDBRANCH  15  23
ENDBRANCH   3   4
BRANCH   2  26
ATOM     26  C   UNL     1      66.365  86.429  77.796  1.00  0.00     0.078 C 
BRANCH  26  27
ATOM     27  C   UNL     1      66.424  86.818  76.320  1.00  0.00     0.140 C 
ATOM     28  C   UNL     1      65.019  86.959  75.697  1.00  0.00     0.086 CG0
ATOM     29  C   UNL     1      67.014  88.195  76.106  1.00  0.00     0.190 C 
ATOM     30  C   UNL     1      65.106  88.248  74.928  1.00  0.00    -0.010 C 
ATOM     31  G   UNL     1      64.449  85.690  74.999  1.00  0.00     0.000 G0
ATOM     32  O   UNL     1      68.052  88.606  76.603  1.00  0.00    -0.291 OA
ATOM     33  C   UNL     1      66.200  88.979  75.158  1.00  0.00    -0.008 C 
ATOM     34  C   UNL     1      66.576  90.315  74.650  1.00  0.00     0.048 C 
BRANCH  27  35
ATOM     35  O   UNL     1      67.289  85.962  75.593  1.00  0.00    -0.381 OA
ATOM     36  H   UNL     1      66.829  85.120  75.439  1.00  0.00     0.212 HD
ENDBRANCH  27  35
ENDBRANCH  26  27
ENDBRANCH   2  26
ENDBRANCH   1   2
BRANCH   1  37
ATOM     37  O   UNL     1      64.399  84.064  79.942  1.00  0.00    -0.461 OA
BRANCH  37  38
ATOM     38  C   UNL     1      63.238  84.366  80.616  1.00  0.00     0.310 C 
ATOM     39  O   UNL     1      62.225  84.819  80.102  1.00  0.00    -0.252 OA
BRANCH  38  40
ATOM     40  C   UNL     1      63.411  84.052  82.083  1.00  0.00     0.158 C 
BRANCH  40  41
ATOM     41  C   UNL     1      63.871  82.639  82.331  1.00  0.00    -0.037 A 
ATOM     42  C   UNL     1      62.950  81.592  82.308  1.00  0.00     0.008 A 
ATOM     43  C   UNL     1      65.217  82.378  82.584  1.00  0.00     0.008 A 
ATOM     44  C   UNL     1      63.376  80.283  82.539  1.00  0.00     0.046 A 
ATOM     45  C   UNL     1      65.643  81.070  82.815  1.00  0.00     0.046 A 
ATOM     46  C   UNL     1      64.723  80.023  82.792  1.00  0.00     0.115 A 
BRANCH  46  47
ATOM     47  O   UNL     1      65.138  78.746  83.018  1.00  0.00    -0.508 OA
ATOM     48  H   UNL     1      66.069  78.665  82.748  1.00  0.00     0.293 HD
ENDBRANCH  46  47
ENDBRANCH  40  41
ENDBRANCH  38  40
ENDBRANCH  37  38
ENDBRANCH   1  37
TORSDOF 10
ENDMDL
MODEL 4
REMARK VINA RESULT:    -7.122     20.407     24.757
REMARK INTER + INTRA:         -12.222
REMARK INTER:                 -10.983
REMARK INTRA:                  -1.240
REMARK UNBOUND:                -0.104
REMARK SMILES C=C(C)[C@]12C[C@@H](C)[C@@]34O[C@](Cc5ccccc5)(O[C@@H]1[C@@H]3C=C(COC(=O)Cc1ccc(O)cc1)C[C@]1(O)C(=O)C(C)=C[C@@H]41)O2
REMARK SMILES IDX 23 1 22 2 21 3 20 4 9 5 8 6 10 7 6 8 18 10 44 11 19 12 5 13
REMARK SMILES IDX 7 14 4 15 11 16 12 17 13 18 17 19 14 20 16 21 15 22 2 23
REMARK SMILES IDX 3 24 1 25 35 26 36 27 43 28 38 29 42 30 39 32 40 33 41 34
REMARK SMILES IDX 37 35 24 37 25 38 26 39 27 40 28 41 29 42 34 43 30 44 33 45
REMARK SMILES IDX 31 46 32 47
REMARK H PARENT 37 36 32 48
REMARK Flexibility Score: 90.00
ROOT
ATOM      1  C   UNL     1      93.061  85.899  91.810  1.00  0.00     0.264 C 
ENDROOT
BRANCH   1   2
ATOM      2  C   UNL     1      93.176  85.080  90.545  1.00  0.00    -0.033 C 
ATOM      3  C   UNL     1      94.370  84.991  89.923  1.00  0.00    -0.015 C 
BRANCH   3   4
ATOM      4  C   UNL     1      94.728  84.303  88.615  1.00  0.00     0.078 C 
ATOM      5  O   UNL     1      95.496  82.023  89.187  1.00  0.00    -0.319 OA
ATOM      6  C   UNL     1      94.451  82.761  88.480  1.00  0.00     0.095 CG0
ATOM      7  C   UNL     1      96.835  82.519  88.996  1.00  0.00     0.289 C 
ATOM      8  C   UNL     1      94.504  82.397  86.939  1.00  0.00     0.023 C 
ATOM      9  G   UNL     1      93.136  82.369  89.214  1.00  0.00     0.000 G0
ATOM     10  O   UNL     1      96.943  83.885  89.386  1.00  0.00    -0.320 OA
ATOM     11  O   UNL     1      97.240  82.475  87.629  1.00  0.00    -0.313 OA
ATOM     12  C   UNL     1      96.232  84.511  88.307  1.00  0.00     0.170 C 
ATOM     13  C   UNL     1      95.537  83.284  86.177  1.00  0.00     0.049 C 
ATOM     14  C   UNL     1      94.769  80.916  86.618  1.00  0.00     0.011 C 
ATOM     15  C   UNL     1      96.702  83.695  87.078  1.00  0.00     0.122 C 
BRANCH   7  16
ATOM     16  C   UNL     1      97.778  81.672  89.828  1.00  0.00     0.135 C 
BRANCH  16  17
ATOM     17  C   UNL     1      99.202  81.761  89.338  1.00  0.00    -0.040 A 
ATOM     18  C   UNL     1      99.688  80.821  88.430  1.00  0.00     0.004 A 
ATOM     19  C   UNL     1     100.032  82.786  89.793  1.00  0.00     0.004 A 
ATOM     20  C   UNL     1     101.005  80.904  87.977  1.00  0.00     0.000 A 
ATOM     21  C   UNL     1     101.349  82.869  89.339  1.00  0.00     0.000 A 
ATOM     22  C   UNL     1     101.834  81.929  88.432  1.00  0.00     0.000 A 
ENDBRANCH  16  17
ENDBRANCH   7  16
BRANCH  15  23
ATOM     23  C   UNL     1      97.790  84.390  86.326  1.00  0.00    -0.046 C 
ATOM     24  C   UNL     1      97.357  85.479  85.390  1.00  0.00     0.042 C 
ATOM     25  C   UNL     1      99.081  84.060  86.478  1.00  0.00     0.010 C 
ENDBRANCH  15  23
ENDBRANCH   3   4
BRANCH   2  26
ATOM     26  C   UNL     1      91.867  84.432  90.134  1.00  0.00     0.078 C 
BRANCH  26  27
ATOM     27  C   UNL     1      91.928  83.371  89.037  1.00  0.00     0.140 C 
ATOM     28  C   UNL     1      93.110  82.398  89.230  1.00  0.00     0.086 CG0
ATOM     29  C   UNL     1      90.734  82.440  89.064  1.00  0.00     0.190 C 
ATOM     30  C   UNL     1      92.491  81.046  89.008  1.00  0.00    -0.010 C 
ATOM     31  G   UNL     1      94.428  82.766  88.488  1.00  0.00     0.000 G0
ATOM     32  O   UNL     1      89.565  82.790  89.129  1.00  0.00    -0.291 OA
ATOM     33  C   UNL     1      91.156  81.032  88.939  1.00  0.00    -0.008 C 
ATOM     34  C   UNL     1      90.222  79.895  88.812  1.00  0.00     0.048 C 
BRANCH  27  35
ATOM     35  O   UNL     1      91.872  83.955  87.747  1.00  0.00    -0.381 OA
ATOM     36  H   UNL     1      92.705  84.432  87.590  1.00  0.00     0.212 HD
ENDBRANCH  27  35
ENDBRANCH  26  27
ENDBRANCH   2  26
ENDBRANCH   1   2
BRANCH   1  37
ATOM     37  O   UNL     1      93.739  87.125  91.634  1.00  0.00    -0.461 OA
BRANCH  37  38
ATOM     38  C   UNL     1      94.180  87.745  92.781  1.00  0.00     0.310 C 
ATOM     39  O   UNL     1      93.620  87.693  93.867  1.00  0.00    -0.252 OA
BRANCH  38  40
ATOM     40  C   UNL     1      95.458  88.494  92.489  1.00  0.00     0.158 C 
BRANCH  40  41
ATOM     41  C   UNL     1      95.492  89.079  91.102  1.00  0.00    -0.037 A 
ATOM     42  C   UNL     1      94.782  90.247  90.819  1.00  0.00     0.008 A 
ATOM     43  C   UNL     1      96.233  88.455  90.099  1.00  0.00     0.008 A 
ATOM     44  C   UNL     1      94.813  90.788  89.534  1.00  0.00     0.046 A 
ATOM     45  C   UNL     1      96.265  88.997  88.813  1.00  0.00     0.046 A 
ATOM     46  C   UNL     1      95.555  90.163  88.531  1.00  0.00     0.115 A 
BRANCH  46  47
ATOM     47  O   UNL     1      95.584  90.691  87.277  1.00  0.00    -0.508 OA
ATOM     48  H   UNL     1      95.657  91.659  87.344  1.00  0.00     0.293 HD
ENDBRANCH  46  47
ENDBRANCH  40  41
ENDBRANCH  38  40
ENDBRANCH  37  38
ENDBRANCH   1  37
TORSDOF 10
ENDMDL
MODEL 5
REMARK VINA RESULT:    -6.976     27.990     30.643
REMARK INTER + INTRA:         -11.974
REMARK INTER:                 -10.225
REMARK INTRA:                  -1.749
REMARK UNBOUND:                -0.104
REMARK SMILES C=C(C)[C@]12C[C@@H](C)[C@@]34O[C@](Cc5ccccc5)(O[C@@H]1[C@@H]3C=C(COC(=O)Cc1ccc(O)cc1)C[C@]1(O)C(=O)C(C)=C[C@@H]41)O2
REMARK SMILES IDX 23 1 22 2 21 3 20 4 9 5 8 6 10 7 6 8 18 10 44 11 19 12 5 13
REMARK SMILES IDX 7 14 4 15 11 16 12 17 13 18 17 19 14 20 16 21 15 22 2 23
REMARK SMILES IDX 3 24 1 25 35 26 36 27 43 28 38 29 42 30 39 32 40 33 41 34
REMARK SMILES IDX 37 35 24 37 25 38 26 39 27 40 28 41 29 42 34 43 30 44 33 45
REMARK SMILES IDX 31 46 32 47
REMARK H PARENT 37 36 32 48
REMARK Flexibility Score: 90.00
ROOT
ATOM      1  C   UNL     1      62.536  84.658  76.681  1.00  0.00     0.264 C 
ENDROOT
BRANCH   1   2
ATOM      2  C   UNL     1      62.676  85.277  75.310  1.00  0.00    -0.033 C 
ATOM      3  C   UNL     1      63.907  85.578  74.845  1.00  0.00    -0.015 C 
BRANCH   3   4
ATOM      4  C   UNL     1      64.308  86.265  73.550  1.00  0.00     0.078 C 
ATOM      5  O   UNL     1      64.709  84.484  71.882  1.00  0.00    -0.319 OA
ATOM      6  C   UNL     1      63.848  85.625  72.189  1.00  0.00     0.095 CG0
ATOM      7  C   UNL     1      66.113  84.689  72.126  1.00  0.00     0.289 C 
ATOM      8  C   UNL     1      64.015  86.725  71.061  1.00  0.00     0.023 C 
ATOM      9  G   UNL     1      62.423  85.012  72.319  1.00  0.00     0.000 G0
ATOM     10  O   UNL     1      66.356  85.051  73.483  1.00  0.00    -0.320 OA
ATOM     11  O   UNL     1      66.650  85.753  71.342  1.00  0.00    -0.313 OA
ATOM     12  C   UNL     1      65.850  86.395  73.479  1.00  0.00     0.170 C 
ATOM     13  C   UNL     1      65.229  87.661  71.350  1.00  0.00     0.049 C 
ATOM     14  C   UNL     1      64.118  86.187  69.623  1.00  0.00     0.011 C 
ATOM     15  C   UNL     1      66.337  86.933  72.111  1.00  0.00     0.122 C 
BRANCH   7  16
ATOM     16  C   UNL     1      66.845  83.403  71.799  1.00  0.00     0.135 C 
BRANCH  16  17
ATOM     17  C   UNL     1      68.080  83.649  70.969  1.00  0.00    -0.040 A 
ATOM     18  C   UNL     1      69.270  84.035  71.585  1.00  0.00     0.004 A 
ATOM     19  C   UNL     1      68.031  83.490  69.584  1.00  0.00     0.004 A 
ATOM     20  C   UNL     1      70.412  84.262  70.817  1.00  0.00     0.000 A 
ATOM     21  C   UNL     1      69.174  83.717  68.816  1.00  0.00     0.000 A 
ATOM     22  C   UNL     1      70.363  84.103  69.432  1.00  0.00     0.000 A 
ENDBRANCH  16  17
ENDBRANCH   7  16
BRANCH  15  23
ATOM     23  C   UNL     1      67.579  87.753  72.241  1.00  0.00    -0.046 C 
ATOM     24  C   UNL     1      67.639  88.683  73.416  1.00  0.00     0.042 C 
ATOM     25  C   UNL     1      68.583  87.663  71.356  1.00  0.00     0.010 C 
ENDBRANCH  15  23
ENDBRANCH   3   4
BRANCH   2  26
ATOM     26  C   UNL     1      61.346  85.478  74.608  1.00  0.00     0.078 C 
BRANCH  26  27
ATOM     27  C   UNL     1      61.388  85.871  73.132  1.00  0.00     0.140 C 
ATOM     28  C   UNL     1      62.397  85.022  72.331  1.00  0.00     0.086 CG0
ATOM     29  C   UNL     1      60.084  85.586  72.419  1.00  0.00     0.190 C 
ATOM     30  C   UNL     1      61.629  84.641  71.096  1.00  0.00    -0.010 C 
ATOM     31  G   UNL     1      63.829  85.614  72.187  1.00  0.00     0.000 G0
ATOM     32  O   UNL     1      58.974  85.903  72.820  1.00  0.00    -0.291 OA
ATOM     33  C   UNL     1      60.322  84.918  71.126  1.00  0.00    -0.008 C 
ATOM     34  C   UNL     1      59.263  84.616  70.141  1.00  0.00     0.048 C 
BRANCH  27  35
ATOM     35  O   UNL     1      61.562  87.269  72.973  1.00  0.00    -0.381 OA
ATOM     36  H   UNL     1      62.158  87.586  73.673  1.00  0.00     0.212 HD
ENDBRANCH  27  35
ENDBRANCH  26  27
ENDBRANCH   2  26
ENDBRANCH   1   2
BRANCH   1  37
ATOM     37  O   UNL     1      62.292  85.676  77.629  1.00  0.00    -0.461 OA
BRANCH  37  38
ATOM     38  C   UNL     1      62.810  85.470  78.888  1.00  0.00     0.310 C 
ATOM     39  O   UNL     1      62.417  84.624  79.679  1.00  0.00    -0.252 OA
BRANCH  38  40
ATOM     40  C   UNL     1      63.933  86.448  79.136  1.00  0.00     0.158 C 
BRANCH  40  41
ATOM     41  C   UNL     1      65.231  86.027  78.497  1.00  0.00    -0.037 A 
ATOM     42  C   UNL     1      65.749  84.755  78.742  1.00  0.00     0.008 A 
ATOM     43  C   UNL     1      65.915  86.908  77.660  1.00  0.00     0.008 A 
ATOM     44  C   UNL     1      66.951  84.366  78.151  1.00  0.00     0.046 A 
ATOM     45  C   UNL     1      67.117  86.519  77.068  1.00  0.00     0.046 A 
ATOM     46  C   UNL     1      67.635  85.249  77.314  1.00  0.00     0.115 A 
BRANCH  46  47
ATOM     47  O   UNL     1      68.808  84.869  76.737  1.00  0.00    -0.508 OA
ATOM     48  H   UNL     1      69.538  85.059  77.352  1.00  0.00     0.293 HD
ENDBRANCH  46  47
ENDBRANCH  40  41
ENDBRANCH  38  40
ENDBRANCH  37  38
ENDBRANCH   1  37
TORSDOF 10
ENDMDL
MODEL 6
REMARK VINA RESULT:    -6.856      2.685      7.162
REMARK INTER + INTRA:         -11.770
REMARK INTER:                 -10.052
REMARK INTRA:                  -1.718
REMARK UNBOUND:                -0.104
REMARK SMILES C=C(C)[C@]12C[C@@H](C)[C@@]34O[C@](Cc5ccccc5)(O[C@@H]1[C@@H]3C=C(COC(=O)Cc1ccc(O)cc1)C[C@]1(O)C(=O)C(C)=C[C@@H]41)O2
REMARK SMILES IDX 23 1 22 2 21 3 20 4 9 5 8 6 10 7 6 8 18 10 44 11 19 12 5 13
REMARK SMILES IDX 7 14 4 15 11 16 12 17 13 18 17 19 14 20 16 21 15 22 2 23
REMARK SMILES IDX 3 24 1 25 35 26 36 27 43 28 38 29 42 30 39 32 40 33 41 34
REMARK SMILES IDX 37 35 24 37 25 38 26 39 27 40 28 41 29 42 34 43 30 44 33 45
REMARK SMILES IDX 31 46 32 47
REMARK H PARENT 37 36 32 48
REMARK Flexibility Score: 90.00
ROOT
ATOM      1  C   UNL     1      92.615 102.205  68.750  1.00  0.00     0.264 C 
ENDROOT
BRANCH   1   2
ATOM      2  C   UNL     1      92.854 102.407  70.229  1.00  0.00    -0.033 C 
ATOM      3  C   UNL     1      92.200 103.396  70.873  1.00  0.00    -0.015 C 
BRANCH   3   4
ATOM      4  C   UNL     1      92.319 103.849  72.319  1.00  0.00     0.078 C 
ATOM      5  O   UNL     1      90.597 102.623  73.603  1.00  0.00    -0.319 OA
ATOM      6  C   UNL     1      92.040 102.800  73.458  1.00  0.00     0.095 CG0
ATOM      7  C   UNL     1      89.820 103.836  73.555  1.00  0.00     0.289 C 
ATOM      8  C   UNL     1      92.634 103.386  74.805  1.00  0.00     0.023 C 
ATOM      9  G   UNL     1      92.565 101.392  73.053  1.00  0.00     0.000 G0
ATOM     10  O   UNL     1      90.041 104.545  72.339  1.00  0.00    -0.320 OA
ATOM     11  O   UNL     1      90.168 104.743  74.598  1.00  0.00    -0.313 OA
ATOM     12  C   UNL     1      91.367 105.043  72.576  1.00  0.00     0.170 C 
ATOM     13  C   UNL     1      92.526 104.941  74.849  1.00  0.00     0.049 C 
ATOM     14  C   UNL     1      92.045 102.798  76.098  1.00  0.00     0.011 C 
ATOM     15  C   UNL     1      91.311 105.447  74.070  1.00  0.00     0.122 C 
BRANCH   7  16
ATOM     16  C   UNL     1      88.355 103.466  73.676  1.00  0.00     0.135 C 
BRANCH  16  17
ATOM     17  C   UNL     1      87.784 103.844  75.020  1.00  0.00    -0.040 A 
ATOM     18  C   UNL     1      86.937 104.945  75.134  1.00  0.00     0.004 A 
ATOM     19  C   UNL     1      88.106 103.090  76.149  1.00  0.00     0.004 A 
ATOM     20  C   UNL     1      86.408 105.293  76.378  1.00  0.00     0.000 A 
ATOM     21  C   UNL     1      87.577 103.439  77.392  1.00  0.00     0.000 A 
ATOM     22  C   UNL     1      86.729 104.540  77.506  1.00  0.00     0.000 A 
ENDBRANCH  16  17
ENDBRANCH   7  16
BRANCH  15  23
ATOM     23  C   UNL     1      91.085 106.913  74.247  1.00  0.00    -0.046 C 
ATOM     24  C   UNL     1      92.312 107.774  74.268  1.00  0.00     0.042 C 
ATOM     25  C   UNL     1      89.854 107.429  74.381  1.00  0.00     0.010 C 
ENDBRANCH  15  23
ENDBRANCH   3   4
BRANCH   2  26
ATOM     26  C   UNL     1      93.840 101.414  70.815  1.00  0.00     0.078 C 
BRANCH  26  27
ATOM     27  C   UNL     1      93.955 101.359  72.337  1.00  0.00     0.140 C 
ATOM     28  C   UNL     1      92.576 101.396  73.028  1.00  0.00     0.086 CG0
ATOM     29  C   UNL     1      94.531 100.048  72.828  1.00  0.00     0.190 C 
ATOM     30  C   UNL     1      92.673 100.306  74.059  1.00  0.00    -0.010 C 
ATOM     31  G   UNL     1      92.057 102.802  73.449  1.00  0.00     0.000 G0
ATOM     32  O   UNL     1      95.540  99.511  72.395  1.00  0.00    -0.291 OA
ATOM     33  C   UNL     1      93.745  99.514  73.956  1.00  0.00    -0.008 C 
ATOM     34  C   UNL     1      94.118  98.314  74.733  1.00  0.00     0.048 C 
BRANCH  27  35
ATOM     35  O   UNL     1      94.865 102.332  72.823  1.00  0.00    -0.381 OA
ATOM     36  H   UNL     1      95.699 101.885  73.049  1.00  0.00     0.212 HD
ENDBRANCH  27  35
ENDBRANCH  26  27
ENDBRANCH   2  26
ENDBRANCH   1   2
BRANCH   1  37
ATOM     37  O   UNL     1      91.362 102.752  68.401  1.00  0.00    -0.461 OA
BRANCH  37  38
ATOM     38  C   UNL     1      90.530 101.942  67.662  1.00  0.00     0.310 C 
ATOM     39  O   UNL     1      90.774 101.523  66.539  1.00  0.00    -0.252 OA
BRANCH  38  40
ATOM     40  C   UNL     1      89.276 101.653  68.451  1.00  0.00     0.158 C 
BRANCH  40  41
ATOM     41  C   UNL     1      89.330 100.336  69.179  1.00  0.00    -0.037 A 
ATOM     42  C   UNL     1      88.803  99.188  68.586  1.00  0.00     0.008 A 
ATOM     43  C   UNL     1      89.906 100.262  70.447  1.00  0.00     0.008 A 
ATOM     44  C   UNL     1      88.852  97.968  69.261  1.00  0.00     0.046 A 
ATOM     45  C   UNL     1      89.956  99.042  71.122  1.00  0.00     0.046 A 
ATOM     46  C   UNL     1      89.429  97.895  70.529  1.00  0.00     0.115 A 
BRANCH  46  47
ATOM     47  O   UNL     1      89.476  96.705  71.187  1.00  0.00    -0.508 OA
ATOM     48  H   UNL     1      89.836  96.028  70.588  1.00  0.00     0.293 HD
ENDBRANCH  46  47
ENDBRANCH  40  41
ENDBRANCH  38  40
ENDBRANCH  37  38
ENDBRANCH   1  37
TORSDOF 10
ENDMDL
MODEL 7
REMARK VINA RESULT:    -6.731     30.417     32.861
REMARK INTER + INTRA:         -11.557
REMARK INTER:                 -10.667
REMARK INTRA:                  -0.890
REMARK UNBOUND:                -0.104
REMARK SMILES C=C(C)[C@]12C[C@@H](C)[C@@]34O[C@](Cc5ccccc5)(O[C@@H]1[C@@H]3C=C(COC(=O)Cc1ccc(O)cc1)C[C@]1(O)C(=O)C(C)=C[C@@H]41)O2
REMARK SMILES IDX 23 1 22 2 21 3 20 4 9 5 8 6 10 7 6 8 18 10 44 11 19 12 5 13
REMARK SMILES IDX 7 14 4 15 11 16 12 17 13 18 17 19 14 20 16 21 15 22 2 23
REMARK SMILES IDX 3 24 1 25 35 26 36 27 43 28 38 29 42 30 39 32 40 33 41 34
REMARK SMILES IDX 37 35 24 37 25 38 26 39 27 40 28 41 29 42 34 43 30 44 33 45
REMARK SMILES IDX 31 46 32 47
REMARK H PARENT 37 36 32 48
REMARK Flexibility Score: 90.00
ROOT
ATOM      1  C   UNL     1      63.716  88.032  75.798  1.00  0.00     0.264 C 
ENDROOT
BRANCH   1   2
ATOM      2  C   UNL     1      62.647  87.221  75.102  1.00  0.00    -0.033 C 
ATOM      3  C   UNL     1      61.940  87.784  74.101  1.00  0.00    -0.015 C 
BRANCH   3   4
ATOM      4  C   UNL     1      60.777  87.216  73.303  1.00  0.00     0.078 C 
ATOM      5  O   UNL     1      61.734  86.184  71.269  1.00  0.00    -0.319 OA
ATOM      6  C   UNL     1      61.001  85.883  72.498  1.00  0.00     0.095 CG0
ATOM      7  C   UNL     1      61.303  87.366  70.569  1.00  0.00     0.289 C 
ATOM      8  C   UNL     1      59.575  85.301  72.128  1.00  0.00     0.023 C 
ATOM      9  G   UNL     1      61.936  84.915  73.280  1.00  0.00     0.000 G0
ATOM     10  O   UNL     1      61.382  88.519  71.403  1.00  0.00    -0.320 OA
ATOM     11  O   UNL     1      59.941  87.284  70.153  1.00  0.00    -0.313 OA
ATOM     12  C   UNL     1      60.275  88.269  72.283  1.00  0.00     0.170 C 
ATOM     13  C   UNL     1      58.539  86.440  71.880  1.00  0.00     0.049 C 
ATOM     14  C   UNL     1      59.548  84.321  70.942  1.00  0.00     0.011 C 
ATOM     15  C   UNL     1      59.204  87.699  71.322  1.00  0.00     0.122 C 
BRANCH   7  16
ATOM     16  C   UNL     1      62.191  87.549  69.355  1.00  0.00     0.135 C 
BRANCH  16  17
ATOM     17  C   UNL     1      63.165  86.409  69.188  1.00  0.00    -0.040 A 
ATOM     18  C   UNL     1      62.742  85.208  68.619  1.00  0.00     0.004 A 
ATOM     19  C   UNL     1      64.488  86.557  69.603  1.00  0.00     0.004 A 
ATOM     20  C   UNL     1      63.643  84.154  68.465  1.00  0.00     0.000 A 
ATOM     21  C   UNL     1      65.389  85.503  69.449  1.00  0.00     0.000 A 
ATOM     22  C   UNL     1      64.966  84.302  68.880  1.00  0.00     0.000 A 
ENDBRANCH  16  17
ENDBRANCH   7  16
BRANCH  15  23
ATOM     23  C   UNL     1      58.212  88.737  70.908  1.00  0.00    -0.046 C 
ATOM     24  C   UNL     1      57.460  88.464  69.639  1.00  0.00     0.042 C 
ATOM     25  C   UNL     1      58.006  89.848  71.629  1.00  0.00     0.010 C 
ENDBRANCH  15  23
ENDBRANCH   3   4
BRANCH   2  26
ATOM     26  C   UNL     1      62.517  85.812  75.650  1.00  0.00     0.078 C 
BRANCH  26  27
ATOM     27  C   UNL     1      61.688  84.820  74.836  1.00  0.00     0.140 C 
ATOM     28  C   UNL     1      61.956  84.941  73.321  1.00  0.00     0.086 CG0
ATOM     29  C   UNL     1      62.064  83.381  75.119  1.00  0.00     0.190 C 
ATOM     30  C   UNL     1      62.119  83.513  72.880  1.00  0.00    -0.010 C 
ATOM     31  G   UNL     1      61.001  85.881  72.529  1.00  0.00     0.000 G0
ATOM     32  O   UNL     1      62.185  82.886  76.229  1.00  0.00    -0.291 OA
ATOM     33  C   UNL     1      62.211  82.616  73.866  1.00  0.00    -0.008 C 
ATOM     34  C   UNL     1      62.455  81.160  73.808  1.00  0.00     0.048 C 
BRANCH  27  35
ATOM     35  O   UNL     1      60.315  84.886  75.182  1.00  0.00    -0.381 OA
ATOM     36  H   UNL     1      59.790  84.658  74.396  1.00  0.00     0.212 HD
ENDBRANCH  27  35
ENDBRANCH  26  27
ENDBRANCH   2  26
ENDBRANCH   1   2
BRANCH   1  37
ATOM     37  O   UNL     1      63.104  88.990  76.634  1.00  0.00    -0.461 OA
BRANCH  37  38
ATOM     38  C   UNL     1      63.589  89.074  77.919  1.00  0.00     0.310 C 
ATOM     39  O   UNL     1      64.742  89.354  78.218  1.00  0.00    -0.252 OA
BRANCH  38  40
ATOM     40  C   UNL     1      62.480  88.768  78.897  1.00  0.00     0.158 C 
BRANCH  40  41
ATOM     41  C   UNL     1      62.701  87.483  79.652  1.00  0.00    -0.037 A 
ATOM     42  C   UNL     1      62.566  87.458  81.041  1.00  0.00     0.008 A 
ATOM     43  C   UNL     1      63.040  86.319  78.964  1.00  0.00     0.008 A 
ATOM     44  C   UNL     1      62.771  86.269  81.740  1.00  0.00     0.046 A 
ATOM     45  C   UNL     1      63.244  85.129  79.663  1.00  0.00     0.046 A 
ATOM     46  C   UNL     1      63.110  85.104  81.051  1.00  0.00     0.115 A 
BRANCH  46  47
ATOM     47  O   UNL     1      63.310  83.944  81.734  1.00  0.00    -0.508 OA
ATOM     48  H   UNL     1      64.220  83.934  82.080  1.00  0.00     0.293 HD
ENDBRANCH  46  47
ENDBRANCH  40  41
ENDBRANCH  38  40
ENDBRANCH  37  38
ENDBRANCH   1  37
TORSDOF 10
ENDMDL
MODEL 8
REMARK VINA RESULT:    -6.545     20.105     24.923
REMARK INTER + INTRA:         -11.241
REMARK INTER:                 -10.949
REMARK INTRA:                  -0.292
REMARK UNBOUND:                -0.104
REMARK SMILES C=C(C)[C@]12C[C@@H](C)[C@@]34O[C@](Cc5ccccc5)(O[C@@H]1[C@@H]3C=C(COC(=O)Cc1ccc(O)cc1)C[C@]1(O)C(=O)C(C)=C[C@@H]41)O2
REMARK SMILES IDX 23 1 22 2 21 3 20 4 9 5 8 6 10 7 6 8 18 10 44 11 19 12 5 13
REMARK SMILES IDX 7 14 4 15 11 16 12 17 13 18 17 19 14 20 16 21 15 22 2 23
REMARK SMILES IDX 3 24 1 25 35 26 36 27 43 28 38 29 42 30 39 32 40 33 41 34
REMARK SMILES IDX 37 35 24 37 25 38 26 39 27 40 28 41 29 42 34 43 30 44 33 45
REMARK SMILES IDX 31 46 32 47
REMARK H PARENT 37 36 32 48
REMARK Flexibility Score: 90.00
ROOT
ATOM      1  C   UNL     1      92.908  88.575  92.371  1.00  0.00     0.264 C 
ENDROOT
BRANCH   1   2
ATOM      2  C   UNL     1      93.565  87.300  91.894  1.00  0.00    -0.033 C 
ATOM      3  C   UNL     1      93.155  86.118  92.399  1.00  0.00    -0.015 C 
BRANCH   3   4
ATOM      4  C   UNL     1      93.696  84.720  92.145  1.00  0.00     0.078 C 
ATOM      5  O   UNL     1      92.378  83.764  90.284  1.00  0.00    -0.319 OA
ATOM      6  C   UNL     1      93.725  84.185  90.666  1.00  0.00     0.095 CG0
ATOM      7  C   UNL     1      91.657  83.024  91.288  1.00  0.00     0.289 C 
ATOM      8  C   UNL     1      94.696  82.934  90.628  1.00  0.00     0.023 C 
ATOM      9  G   UNL     1      94.070  85.331  89.670  1.00  0.00     0.000 G0
ATOM     10  O   UNL     1      91.541  83.769  92.497  1.00  0.00    -0.320 OA
ATOM     11  O   UNL     1      92.315  81.811  91.645  1.00  0.00    -0.313 OA
ATOM     12  C   UNL     1      92.893  83.687  92.974  1.00  0.00     0.170 C 
ATOM     13  C   UNL     1      94.651  82.133  91.965  1.00  0.00     0.049 C 
ATOM     14  C   UNL     1      94.485  81.969  89.448  1.00  0.00     0.011 C 
ATOM     15  C   UNL     1      93.279  82.227  92.635  1.00  0.00     0.122 C 
BRANCH   7  16
ATOM     16  C   UNL     1      90.277  82.708  90.745  1.00  0.00     0.135 C 
BRANCH  16  17
ATOM     17  C   UNL     1      90.339  82.057  89.386  1.00  0.00    -0.040 A 
ATOM     18  C   UNL     1      90.769  80.737  89.263  1.00  0.00     0.004 A 
ATOM     19  C   UNL     1      89.966  82.778  88.251  1.00  0.00     0.004 A 
ATOM     20  C   UNL     1      90.825  80.135  88.005  1.00  0.00     0.000 A 
ATOM     21  C   UNL     1      90.022  82.176  86.994  1.00  0.00     0.000 A 
ATOM     22  C   UNL     1      90.452  80.855  86.871  1.00  0.00     0.000 A 
ENDBRANCH  16  17
ENDBRANCH   7  16
BRANCH  15  23
ATOM     23  C   UNL     1      93.157  81.324  93.819  1.00  0.00    -0.046 C 
ATOM     24  C   UNL     1      92.269  80.127  93.650  1.00  0.00     0.042 C 
ATOM     25  C   UNL     1      93.803  81.570  94.968  1.00  0.00     0.010 C 
ENDBRANCH  15  23
ENDBRANCH   3   4
BRANCH   2  26
ATOM     26  C   UNL     1      94.645  87.539  90.856  1.00  0.00     0.078 C 
BRANCH  26  27
ATOM     27  C   UNL     1      95.194  86.315  90.125  1.00  0.00     0.140 C 
ATOM     28  C   UNL     1      94.075  85.350  89.681  1.00  0.00     0.086 CG0
ATOM     29  C   UNL     1      95.855  86.673  88.810  1.00  0.00     0.190 C 
ATOM     30  C   UNL     1      94.439  85.022  88.260  1.00  0.00    -0.010 C 
ATOM     31  G   UNL     1      93.734  84.196  90.668  1.00  0.00     0.000 G0
ATOM     32  O   UNL     1      96.682  87.558  88.652  1.00  0.00    -0.291 OA
ATOM     33  C   UNL     1      95.416  85.766  87.733  1.00  0.00    -0.008 C 
ATOM     34  C   UNL     1      95.968  85.778  86.363  1.00  0.00     0.048 C 
BRANCH  27  35
ATOM     35  O   UNL     1      96.229  85.690  90.865  1.00  0.00    -0.381 OA
ATOM     36  H   UNL     1      97.064  85.802  90.379  1.00  0.00     0.212 HD
ENDBRANCH  27  35
ENDBRANCH  26  27
ENDBRANCH   2  26
ENDBRANCH   1   2
BRANCH   1  37
ATOM     37  O   UNL     1      93.154  89.604  91.437  1.00  0.00    -0.461 OA
BRANCH  37  38
ATOM     38  C   UNL     1      93.999  90.609  91.848  1.00  0.00     0.310 C 
ATOM     39  O   UNL     1      94.552  90.660  92.938  1.00  0.00    -0.252 OA
BRANCH  38  40
ATOM     40  C   UNL     1      94.135  91.634  90.748  1.00  0.00     0.158 C 
BRANCH  40  41
ATOM     41  C   UNL     1      93.238  92.829  90.944  1.00  0.00    -0.037 A 
ATOM     42  C   UNL     1      93.695  94.106  90.615  1.00  0.00     0.008 A 
ATOM     43  C   UNL     1      91.951  92.660  91.454  1.00  0.00     0.008 A 
ATOM     44  C   UNL     1      92.865  95.213  90.798  1.00  0.00     0.046 A 
ATOM     45  C   UNL     1      91.121  93.766  91.636  1.00  0.00     0.046 A 
ATOM     46  C   UNL     1      91.578  95.042  91.308  1.00  0.00     0.115 A 
BRANCH  46  47
ATOM     47  O   UNL     1      90.769  96.122  91.486  1.00  0.00    -0.508 OA
ATOM     48  H   UNL     1      90.101  96.136  90.779  1.00  0.00     0.293 HD
ENDBRANCH  46  47
ENDBRANCH  40  41
ENDBRANCH  38  40
ENDBRANCH  37  38
ENDBRANCH   1  37
TORSDOF 10
ENDMDL
MODEL 9
REMARK VINA RESULT:    -6.466     16.573     19.719
REMARK INTER + INTRA:         -11.106
REMARK INTER:                 -10.736
REMARK INTRA:                  -0.370
REMARK UNBOUND:                -0.104
REMARK SMILES C=C(C)[C@]12C[C@@H](C)[C@@]34O[C@](Cc5ccccc5)(O[C@@H]1[C@@H]3C=C(COC(=O)Cc1ccc(O)cc1)C[C@]1(O)C(=O)C(C)=C[C@@H]41)O2
REMARK SMILES IDX 23 1 22 2 21 3 20 4 9 5 8 6 10 7 6 8 18 10 44 11 19 12 5 13
REMARK SMILES IDX 7 14 4 15 11 16 12 17 13 18 17 19 14 20 16 21 15 22 2 23
REMARK SMILES IDX 3 24 1 25 35 26 36 27 43 28 38 29 42 30 39 32 40 33 41 34
REMARK SMILES IDX 37 35 24 37 25 38 26 39 27 40 28 41 29 42 34 43 30 44 33 45
REMARK SMILES IDX 31 46 32 47
REMARK H PARENT 37 36 32 48
REMARK Flexibility Score: 90.00
ROOT
ATOM      1  C   UNL     1      92.886  93.464  90.793  1.00  0.00     0.264 C 
ENDROOT
BRANCH   1   2
ATOM      2  C   UNL     1      92.816  94.858  91.371  1.00  0.00    -0.033 C 
ATOM      3  C   UNL     1      93.806  95.734  91.101  1.00  0.00    -0.015 C 
BRANCH   3   4
ATOM      4  C   UNL     1      94.009  97.150  91.615  1.00  0.00     0.078 C 
ATOM      5  O   UNL     1      92.929  98.668  89.988  1.00  0.00    -0.319 OA
ATOM      6  C   UNL     1      92.866  98.204  91.373  1.00  0.00     0.095 CG0
ATOM      7  C   UNL     1      94.253  98.935  89.488  1.00  0.00     0.289 C 
ATOM      8  C   UNL     1      93.128  99.427  92.346  1.00  0.00     0.023 C 
ATOM      9  G   UNL     1      91.465  97.539  91.497  1.00  0.00     0.000 G0
ATOM     10  O   UNL     1      95.086  97.784  89.587  1.00  0.00    -0.320 OA
ATOM     11  O   UNL     1      94.917  99.956  90.228  1.00  0.00    -0.313 OA
ATOM     12  C   UNL     1      95.300  97.751  91.007  1.00  0.00     0.170 C 
ATOM     13  C   UNL     1      94.653  99.660  92.575  1.00  0.00     0.049 C 
ATOM     14  C   UNL     1      92.465 100.753  91.935  1.00  0.00     0.011 C 
ATOM     15  C   UNL     1      95.477  99.249  91.354  1.00  0.00     0.122 C 
BRANCH   7  16
ATOM     16  C   UNL     1      94.135  99.359  88.037  1.00  0.00     0.135 C 
BRANCH  16  17
ATOM     17  C   UNL     1      95.484  99.605  87.408  1.00  0.00    -0.040 A 
ATOM     18  C   UNL     1      96.085 100.858  87.512  1.00  0.00     0.004 A 
ATOM     19  C   UNL     1      96.129  98.576  86.721  1.00  0.00     0.004 A 
ATOM     20  C   UNL     1      97.333 101.085  86.930  1.00  0.00     0.000 A 
ATOM     21  C   UNL     1      97.377  98.803  86.139  1.00  0.00     0.000 A 
ATOM     22  C   UNL     1      97.978 100.057  86.244  1.00  0.00     0.000 A 
ENDBRANCH  16  17
ENDBRANCH   7  16
BRANCH  15  23
ATOM     23  C   UNL     1      96.917  99.630  91.479  1.00  0.00    -0.046 C 
ATOM     24  C   UNL     1      97.900  98.498  91.520  1.00  0.00     0.042 C 
ATOM     25  C   UNL     1      97.307 100.911  91.551  1.00  0.00     0.010 C 
ENDBRANCH  15  23
ENDBRANCH   3   4
BRANCH   2  26
ATOM     26  C   UNL     1      91.575  95.093  92.212  1.00  0.00     0.078 C 
BRANCH  26  27
ATOM     27  C   UNL     1      91.296  96.527  92.658  1.00  0.00     0.140 C 
ATOM     28  C   UNL     1      91.465  97.540  91.506  1.00  0.00     0.086 CG0
ATOM     29  C   UNL     1      89.852  96.736  93.065  1.00  0.00     0.190 C 
ATOM     30  C   UNL     1      90.244  98.409  91.623  1.00  0.00    -0.010 C 
ATOM     31  G   UNL     1      92.867  98.204  91.379  1.00  0.00     0.000 G0
ATOM     32  O   UNL     1      89.220  96.019  93.825  1.00  0.00    -0.291 OA
ATOM     33  C   UNL     1      89.308  97.970  92.468  1.00  0.00    -0.008 C 
ATOM     34  C   UNL     1      87.967  98.515  92.769  1.00  0.00     0.048 C 
BRANCH  27  35
ATOM     35  O   UNL     1      92.028  96.859  93.825  1.00  0.00    -0.381 OA
ATOM     36  H   UNL     1      92.743  96.209  93.934  1.00  0.00     0.212 HD
ENDBRANCH  27  35
ENDBRANCH  26  27
ENDBRANCH   2  26
ENDBRANCH   1   2
BRANCH   1  37
ATOM     37  O   UNL     1      93.374  92.575  91.775  1.00  0.00    -0.461 OA
BRANCH  37  38
ATOM     38  C   UNL     1      92.601  91.465  92.028  1.00  0.00     0.310 C 
ATOM     39  O   UNL     1      92.104  91.186  93.110  1.00  0.00    -0.252 OA
BRANCH  38  40
ATOM     40  C   UNL     1      92.463  90.649  90.765  1.00  0.00     0.158 C 
BRANCH  40  41
ATOM     41  C   UNL     1      93.752  89.988  90.349  1.00  0.00    -0.037 A 
ATOM     42  C   UNL     1      94.450  90.458  89.236  1.00  0.00     0.008 A 
ATOM     43  C   UNL     1      94.247  88.906  91.075  1.00  0.00     0.008 A 
ATOM     44  C   UNL     1      95.642  89.845  88.850  1.00  0.00     0.046 A 
ATOM     45  C   UNL     1      95.440  88.293  90.691  1.00  0.00     0.046 A 
ATOM     46  C   UNL     1      96.138  88.763  89.578  1.00  0.00     0.115 A 
BRANCH  46  47
ATOM     47  O   UNL     1      97.301  88.165  89.201  1.00  0.00    -0.508 OA
ATOM     48  H   UNL     1      97.694  88.673  88.470  1.00  0.00     0.293 HD
ENDBRANCH  46  47
ENDBRANCH  40  41
ENDBRANCH  38  40
ENDBRANCH  37  38
ENDBRANCH   1  37
TORSDOF 10
ENDMDL
MODEL 10
REMARK VINA RESULT:    -6.435      2.358      3.917
REMARK INTER + INTRA:         -11.054
REMARK INTER:                 -10.023
REMARK INTRA:                  -1.030
REMARK UNBOUND:                -0.104
REMARK SMILES C=C(C)[C@]12C[C@@H](C)[C@@]34O[C@](Cc5ccccc5)(O[C@@H]1[C@@H]3C=C(COC(=O)Cc1ccc(O)cc1)C[C@]1(O)C(=O)C(C)=C[C@@H]41)O2
REMARK SMILES IDX 23 1 22 2 21 3 20 4 9 5 8 6 10 7 6 8 18 10 44 11 19 12 5 13
REMARK SMILES IDX 7 14 4 15 11 16 12 17 13 18 17 19 14 20 16 21 15 22 2 23
REMARK SMILES IDX 3 24 1 25 35 26 36 27 43 28 38 29 42 30 39 32 40 33 41 34
REMARK SMILES IDX 37 35 24 37 25 38 26 39 27 40 28 41 29 42 34 43 30 44 33 45
REMARK SMILES IDX 31 46 32 47
REMARK H PARENT 37 36 32 48
REMARK Flexibility Score: 90.00
ROOT
ATOM      1  C   UNL     1      93.859  99.080  75.522  1.00  0.00     0.264 C 
ENDROOT
BRANCH   1   2
ATOM      2  C   UNL     1      93.418 100.402  74.937  1.00  0.00    -0.033 C 
ATOM      3  C   UNL     1      93.114 100.473  73.625  1.00  0.00    -0.015 C 
BRANCH   3   4
ATOM      4  C   UNL     1      92.725 101.682  72.789  1.00  0.00     0.078 C 
ATOM      5  O   UNL     1      90.255 101.805  72.806  1.00  0.00    -0.319 OA
ATOM      6  C   UNL     1      91.463 102.516  73.221  1.00  0.00     0.095 CG0
ATOM      7  C   UNL     1      90.302 101.229  71.487  1.00  0.00     0.289 C 
ATOM      8  C   UNL     1      91.531 103.911  72.474  1.00  0.00     0.023 C 
ATOM      9  G   UNL     1      91.355 102.592  74.772  1.00  0.00     0.000 G0
ATOM     10  O   UNL     1      91.393 100.323  71.356  1.00  0.00    -0.320 OA
ATOM     11  O   UNL     1      90.494 102.213  70.473  1.00  0.00    -0.313 OA
ATOM     12  C   UNL     1      92.488 101.252  71.320  1.00  0.00     0.170 C 
ATOM     13  C   UNL     1      92.188 103.775  71.066  1.00  0.00     0.049 C 
ATOM     14  C   UNL     1      90.192 104.657  72.341  1.00  0.00     0.011 C 
ATOM     15  C   UNL     1      91.924 102.401  70.449  1.00  0.00     0.122 C 
BRANCH   7  16
ATOM     16  C   UNL     1      88.996 100.499  71.240  1.00  0.00     0.135 C 
BRANCH  16  17
ATOM     17  C   UNL     1      89.195  99.239  70.435  1.00  0.00    -0.040 A 
ATOM     18  C   UNL     1      89.500  98.041  71.079  1.00  0.00     0.004 A 
ATOM     19  C   UNL     1      89.073  99.275  69.046  1.00  0.00     0.004 A 
ATOM     20  C   UNL     1      89.683  96.875  70.333  1.00  0.00     0.000 A 
ATOM     21  C   UNL     1      89.256  98.109  68.301  1.00  0.00     0.000 A 
ATOM     22  C   UNL     1      89.561  96.910  68.944  1.00  0.00     0.000 A 
ENDBRANCH  16  17
ENDBRANCH   7  16
BRANCH  15  23
ATOM     23  C   UNL     1      92.387 102.310  69.031  1.00  0.00    -0.046 C 
ATOM     24  C   UNL     1      91.408 102.755  67.986  1.00  0.00     0.042 C 
ATOM     25  C   UNL     1      93.608 101.856  68.711  1.00  0.00     0.010 C 
ENDBRANCH  15  23
ENDBRANCH   3   4
BRANCH   2  26
ATOM     26  C   UNL     1      93.369 101.520  75.962  1.00  0.00     0.078 C 
BRANCH  26  27
ATOM     27  C   UNL     1      92.687 102.821  75.543  1.00  0.00     0.140 C 
ATOM     28  C   UNL     1      91.375 102.570  74.772  1.00  0.00     0.086 CG0
ATOM     29  C   UNL     1      92.216 103.637  76.728  1.00  0.00     0.190 C 
ATOM     30  C   UNL     1      90.406 103.529  75.408  1.00  0.00    -0.010 C 
ATOM     31  G   UNL     1      91.490 102.519  73.220  1.00  0.00     0.000 G0
ATOM     32  O   UNL     1      92.889 103.911  77.711  1.00  0.00    -0.291 OA
ATOM     33  C   UNL     1      90.839 104.122  76.524  1.00  0.00    -0.008 C 
ATOM     34  C   UNL     1      90.139 105.043  77.444  1.00  0.00     0.048 C 
BRANCH  27  35
ATOM     35  O   UNL     1      93.589 103.686  74.873  1.00  0.00    -0.381 OA
ATOM     36  H   UNL     1      93.088 104.447  74.533  1.00  0.00     0.212 HD
ENDBRANCH  27  35
ENDBRANCH  26  27
ENDBRANCH   2  26
ENDBRANCH   1   2
BRANCH   1  37
ATOM     37  O   UNL     1      94.921  99.301  76.426  1.00  0.00    -0.461 OA
BRANCH  37  38
ATOM     38  C   UNL     1      96.105  99.736  75.877  1.00  0.00     0.310 C 
ATOM     39  O   UNL     1      96.562 100.864  75.998  1.00  0.00    -0.252 OA
BRANCH  38  40
ATOM     40  C   UNL     1      96.747  98.608  75.105  1.00  0.00     0.158 C 
BRANCH  40  41
ATOM     41  C   UNL     1      96.625  98.773  73.613  1.00  0.00    -0.037 A 
ATOM     42  C   UNL     1      96.196  97.704  72.826  1.00  0.00     0.008 A 
ATOM     43  C   UNL     1      96.941  99.993  73.017  1.00  0.00     0.008 A 
ATOM     44  C   UNL     1      96.083  97.856  71.444  1.00  0.00     0.046 A 
ATOM     45  C   UNL     1      96.828 100.146  71.635  1.00  0.00     0.046 A 
ATOM     46  C   UNL     1      96.400  99.078  70.848  1.00  0.00     0.115 A 
BRANCH  46  47
ATOM     47  O   UNL     1      96.290  99.226  69.500  1.00  0.00    -0.508 OA
ATOM     48  H   UNL     1      97.164  99.449  69.135  1.00  0.00     0.293 HD
ENDBRANCH  46  47
ENDBRANCH  40  41
ENDBRANCH  38  40
ENDBRANCH  37  38
ENDBRANCH   1  37
TORSDOF 10
ENDMDL
