MODEL 1
REMARK VINA RESULT:    -7.210      0.000      0.000
REMARK INTER + INTRA:         -13.024
REMARK INTER:                 -11.214
REMARK INTRA:                  -1.810
REMARK UNBOUND:                -1.810
REMARK SMILES CCCCC/C=C/C(=O)CCc1ccc(O)c(OC)c1
REMARK SMILES IDX 6 1 7 2 8 3 9 4 10 5 11 6 12 7 17 8 20 9 15 10 14 11 13 12
REMARK SMILES IDX 18 13 19 14 16 15 5 17 4 18 3 19 2 20 1 21
REMARK H PARENT 16 16
REMARK Flexibility Score: inf
ROOT
ATOM      1  C   UNL     1      90.426  90.758  77.373  1.00  0.00    -0.023 C 
ATOM      2  C   UNL     1      89.575  89.750  77.143  1.00  0.00     0.043 C 
ENDROOT
BRANCH   2   3
ATOM      3  C   UNL     1      90.095  88.419  76.727  1.00  0.00     0.155 C 
ATOM      4  O   UNL     1      90.689  87.682  77.511  1.00  0.00    -0.295 OA
BRANCH   3   5
ATOM      5  C   UNL     1      89.901  88.041  75.272  1.00  0.00     0.085 C 
BRANCH   5   6
ATOM      6  C   UNL     1      90.986  88.660  74.388  1.00  0.00     0.044 C 
BRANCH   6   7
ATOM      7  C   UNL     1      90.596  90.012  73.839  1.00  0.00    -0.044 A 
ATOM      8  C   UNL     1      88.970  91.438  72.800  1.00  0.00     0.160 A 
ATOM      9  C   UNL     1      89.329  90.189  73.307  1.00  0.00     0.054 A 
ATOM     10  C   UNL     1      89.881  92.493  72.833  1.00  0.00     0.157 A 
ATOM     11  C   UNL     1      91.154  92.299  73.372  1.00  0.00     0.050 A 
ATOM     12  C   UNL     1      91.513  91.049  73.878  1.00  0.00     0.008 A 
BRANCH   8  13
ATOM     13  O   UNL     1      87.725  91.615  72.276  1.00  0.00    -0.493 OA
ATOM     14  C   UNL     1      86.704  90.721  72.714  1.00  0.00     0.278 C 
ENDBRANCH   8  13
BRANCH  10  15
ATOM     15  O   UNL     1      89.542  93.717  72.342  1.00  0.00    -0.504 OA
ATOM     16  H   UNL     1      88.683  93.971  72.720  1.00  0.00     0.293 HD
ENDBRANCH  10  15
ENDBRANCH   6   7
ENDBRANCH   5   6
ENDBRANCH   3   5
ENDBRANCH   2   3
BRANCH   1  17
ATOM     17  C   UNL     1      89.981  92.128  77.794  1.00  0.00     0.027 C 
BRANCH  17  18
ATOM     18  C   UNL     1      89.536  93.004  76.617  1.00  0.00     0.004 C 
BRANCH  18  19
ATOM     19  C   UNL     1      90.352  94.292  76.467  1.00  0.00     0.000 C 
BRANCH  19  20
ATOM     20  C   UNL     1      91.835  94.041  76.745  1.00  0.00    -0.003 C 
ATOM     21  C   UNL     1      92.719  94.758  75.738  1.00  0.00     0.004 C 
ENDBRANCH  19  20
ENDBRANCH  18  19
ENDBRANCH  17  18
ENDBRANCH   1  17
TORSDOF 10
ENDMDL
MODEL 2
REMARK VINA RESULT:    -6.486      1.596      4.798
REMARK INTER + INTRA:         -11.898
REMARK INTER:                 -10.880
REMARK INTRA:                  -1.018
REMARK UNBOUND:                -1.810
REMARK SMILES CCCCC/C=C/C(=O)CCc1ccc(O)c(OC)c1
REMARK SMILES IDX 6 1 7 2 8 3 9 4 10 5 11 6 12 7 17 8 20 9 15 10 14 11 13 12
REMARK SMILES IDX 18 13 19 14 16 15 5 17 4 18 3 19 2 20 1 21
REMARK H PARENT 16 16
REMARK Flexibility Score: inf
ROOT
ATOM      1  C   UNL     1      91.089  93.476  74.963  1.00  0.00    -0.023 C 
ATOM      2  C   UNL     1      90.089  93.709  74.104  1.00  0.00     0.043 C 
ENDROOT
BRANCH   2   3
ATOM      3  C   UNL     1      89.794  92.727  73.025  1.00  0.00     0.155 C 
ATOM      4  O   UNL     1      88.808  92.837  72.299  1.00  0.00    -0.295 OA
BRANCH   3   5
ATOM      5  C   UNL     1      90.745  91.552  72.902  1.00  0.00     0.085 C 
BRANCH   5   6
ATOM      6  C   UNL     1      89.995  90.221  72.971  1.00  0.00     0.044 C 
BRANCH   6   7
ATOM      7  C   UNL     1      90.253  89.467  74.254  1.00  0.00    -0.044 A 
ATOM      8  C   UNL     1      90.166  89.361  76.650  1.00  0.00     0.160 A 
ATOM      9  C   UNL     1      89.928  90.057  75.465  1.00  0.00     0.054 A 
ATOM     10  C   UNL     1      90.725  88.084  76.609  1.00  0.00     0.157 A 
ATOM     11  C   UNL     1      91.048  87.503  75.381  1.00  0.00     0.050 A 
ATOM     12  C   UNL     1      90.810  88.200  74.197  1.00  0.00     0.008 A 
BRANCH   8  13
ATOM     13  O   UNL     1      89.847  89.939  77.842  1.00  0.00    -0.493 OA
ATOM     14  C   UNL     1      90.286  91.279  78.051  1.00  0.00     0.278 C 
ENDBRANCH   8  13
BRANCH  10  15
ATOM     15  O   UNL     1      90.962  87.394  77.759  1.00  0.00    -0.504 OA
ATOM     16  H   UNL     1      91.304  86.515  77.522  1.00  0.00     0.293 HD
ENDBRANCH  10  15
ENDBRANCH   6   7
ENDBRANCH   5   6
ENDBRANCH   3   5
ENDBRANCH   2   3
BRANCH   1  17
ATOM     17  C   UNL     1      91.450  94.416  76.076  1.00  0.00     0.027 C 
BRANCH  17  18
ATOM     18  C   UNL     1      92.630  93.924  76.920  1.00  0.00     0.004 C 
BRANCH  18  19
ATOM     19  C   UNL     1      93.974  94.537  76.512  1.00  0.00     0.000 C 
BRANCH  19  20
ATOM     20  C   UNL     1      95.129  93.900  77.287  1.00  0.00    -0.003 C 
ATOM     21  C   UNL     1      95.233  94.465  78.695  1.00  0.00     0.004 C 
ENDBRANCH  19  20
ENDBRANCH  18  19
ENDBRANCH  17  18
ENDBRANCH   1  17
TORSDOF 10
ENDMDL
MODEL 3
REMARK VINA RESULT:    -6.391      2.370      6.183
REMARK INTER + INTRA:         -11.750
REMARK INTER:                 -10.517
REMARK INTRA:                  -1.233
REMARK UNBOUND:                -1.810
REMARK SMILES CCCCC/C=C/C(=O)CCc1ccc(O)c(OC)c1
REMARK SMILES IDX 6 1 7 2 8 3 9 4 10 5 11 6 12 7 17 8 20 9 15 10 14 11 13 12
REMARK SMILES IDX 18 13 19 14 16 15 5 17 4 18 3 19 2 20 1 21
REMARK H PARENT 16 16
REMARK Flexibility Score: inf
ROOT
ATOM      1  C   UNL     1      91.782  92.410  74.030  1.00  0.00    -0.023 C 
ATOM      2  C   UNL     1      91.588  93.632  74.542  1.00  0.00     0.043 C 
ENDROOT
BRANCH   2   3
ATOM      3  C   UNL     1      92.381  94.078  75.719  1.00  0.00     0.155 C 
ATOM      4  O   UNL     1      93.251  94.941  75.626  1.00  0.00    -0.295 OA
BRANCH   3   5
ATOM      5  C   UNL     1      92.098  93.373  77.032  1.00  0.00     0.085 C 
BRANCH   5   6
ATOM      6  C   UNL     1      90.604  93.093  77.201  1.00  0.00     0.044 C 
BRANCH   6   7
ATOM      7  C   UNL     1      90.307  91.638  77.478  1.00  0.00    -0.044 A 
ATOM      8  C   UNL     1      89.981  89.850  79.045  1.00  0.00     0.160 A 
ATOM      9  C   UNL     1      90.257  91.193  78.789  1.00  0.00     0.054 A 
ATOM     10  C   UNL     1      89.761  88.969  77.986  1.00  0.00     0.157 A 
ATOM     11  C   UNL     1      89.816  89.432  76.671  1.00  0.00     0.050 A 
ATOM     12  C   UNL     1      90.091  90.776  76.416  1.00  0.00     0.008 A 
BRANCH   8  13
ATOM     13  O   UNL     1      89.931  89.410  80.333  1.00  0.00    -0.493 OA
ATOM     14  C   UNL     1      91.043  89.724  81.169  1.00  0.00     0.278 C 
ENDBRANCH   8  13
BRANCH  10  15
ATOM     15  O   UNL     1      89.491  87.655  78.223  1.00  0.00    -0.504 OA
ATOM     16  H   UNL     1      88.657  87.429  77.776  1.00  0.00     0.293 HD
ENDBRANCH  10  15
ENDBRANCH   6   7
ENDBRANCH   5   6
ENDBRANCH   3   5
ENDBRANCH   2   3
BRANCH   1  17
ATOM     17  C   UNL     1      91.023  91.886  72.846  1.00  0.00     0.027 C 
BRANCH  17  18
ATOM     18  C   UNL     1      89.898  92.821  72.391  1.00  0.00     0.004 C 
BRANCH  18  19
ATOM     19  C   UNL     1      88.523  92.147  72.338  1.00  0.00     0.000 C 
BRANCH  19  20
ATOM     20  C   UNL     1      88.658  90.630  72.202  1.00  0.00    -0.003 C 
ATOM     21  C   UNL     1      88.064  89.909  73.402  1.00  0.00     0.004 C 
ENDBRANCH  19  20
ENDBRANCH  18  19
ENDBRANCH  17  18
ENDBRANCH   1  17
TORSDOF 10
ENDMDL
MODEL 4
REMARK VINA RESULT:    -5.884      3.280      6.246
REMARK INTER + INTRA:         -10.961
REMARK INTER:                  -9.872
REMARK INTRA:                  -1.089
REMARK UNBOUND:                -1.810
REMARK SMILES CCCCC/C=C/C(=O)CCc1ccc(O)c(OC)c1
REMARK SMILES IDX 6 1 7 2 8 3 9 4 10 5 11 6 12 7 17 8 20 9 15 10 14 11 13 12
REMARK SMILES IDX 18 13 19 14 16 15 5 17 4 18 3 19 2 20 1 21
REMARK H PARENT 16 16
REMARK Flexibility Score: inf
ROOT
ATOM      1  C   UNL     1      89.746  90.625  75.528  1.00  0.00    -0.023 C 
ATOM      2  C   UNL     1      89.316  91.639  76.288  1.00  0.00     0.043 C 
ENDROOT
BRANCH   2   3
ATOM      3  C   UNL     1      90.264  92.340  77.196  1.00  0.00     0.155 C 
ATOM      4  O   UNL     1      90.757  91.783  78.175  1.00  0.00    -0.295 OA
BRANCH   3   5
ATOM      5  C   UNL     1      90.551  93.795  76.882  1.00  0.00     0.085 C 
BRANCH   5   6
ATOM      6  C   UNL     1      91.441  93.931  75.645  1.00  0.00     0.044 C 
BRANCH   6   7
ATOM      7  C   UNL     1      92.837  94.402  75.975  1.00  0.00    -0.044 A 
ATOM      8  C   UNL     1      94.706  94.458  77.479  1.00  0.00     0.160 A 
ATOM      9  C   UNL     1      93.416  94.023  77.175  1.00  0.00     0.054 A 
ATOM     10  C   UNL     1      95.401  95.266  76.579  1.00  0.00     0.157 A 
ATOM     11  C   UNL     1      94.804  95.640  75.374  1.00  0.00     0.050 A 
ATOM     12  C   UNL     1      93.514  95.205  75.070  1.00  0.00     0.008 A 
BRANCH   8  13
ATOM     13  O   UNL     1      95.278  94.087  78.659  1.00  0.00    -0.493 OA
ATOM     14  C   UNL     1      95.139  94.985  79.758  1.00  0.00     0.278 C 
ENDBRANCH   8  13
BRANCH  10  15
ATOM     15  O   UNL     1      96.661  95.697  76.864  1.00  0.00    -0.504 OA
ATOM     16  H   UNL     1      96.895  96.397  76.231  1.00  0.00     0.293 HD
ENDBRANCH  10  15
ENDBRANCH   6   7
ENDBRANCH   5   6
ENDBRANCH   3   5
ENDBRANCH   2   3
BRANCH   1  17
ATOM     17  C   UNL     1      88.854  89.868  74.588  1.00  0.00     0.027 C 
BRANCH  17  18
ATOM     18  C   UNL     1      89.062  90.252  73.119  1.00  0.00     0.004 C 
BRANCH  18  19
ATOM     19  C   UNL     1      90.336  91.067  72.873  1.00  0.00     0.000 C 
BRANCH  19  20
ATOM     20  C   UNL     1      90.080  92.205  71.883  1.00  0.00    -0.003 C 
ATOM     21  C   UNL     1      89.416  93.393  72.559  1.00  0.00     0.004 C 
ENDBRANCH  19  20
ENDBRANCH  18  19
ENDBRANCH  17  18
ENDBRANCH   1  17
TORSDOF 10
ENDMDL
MODEL 5
REMARK VINA RESULT:    -5.795      5.207      8.959
REMARK INTER + INTRA:         -10.823
REMARK INTER:                  -9.878
REMARK INTRA:                  -0.944
REMARK UNBOUND:                -1.810
REMARK SMILES CCCCC/C=C/C(=O)CCc1ccc(O)c(OC)c1
REMARK SMILES IDX 6 1 7 2 8 3 9 4 10 5 11 6 12 7 17 8 20 9 15 10 14 11 13 12
REMARK SMILES IDX 18 13 19 14 16 15 5 17 4 18 3 19 2 20 1 21
REMARK H PARENT 16 16
REMARK Flexibility Score: inf
ROOT
ATOM      1  C   UNL     1      93.357  93.693  76.203  1.00  0.00    -0.023 C 
ATOM      2  C   UNL     1      93.509  94.769  75.422  1.00  0.00     0.043 C 
ENDROOT
BRANCH   2   3
ATOM      3  C   UNL     1      94.805  95.500  75.410  1.00  0.00     0.155 C 
ATOM      4  O   UNL     1      94.939  96.575  74.829  1.00  0.00    -0.295 OA
BRANCH   3   5
ATOM      5  C   UNL     1      95.969  94.824  76.109  1.00  0.00     0.085 C 
BRANCH   5   6
ATOM      6  C   UNL     1      96.591  95.741  77.164  1.00  0.00     0.044 C 
BRANCH   6   7
ATOM      7  C   UNL     1      96.214  95.354  78.575  1.00  0.00    -0.044 A 
ATOM      8  C   UNL     1      95.992  95.929  80.894  1.00  0.00     0.160 A 
ATOM      9  C   UNL     1      96.341  96.287  79.591  1.00  0.00     0.054 A 
ATOM     10  C   UNL     1      95.522  94.644  81.163  1.00  0.00     0.157 A 
ATOM     11  C   UNL     1      95.401  93.715  80.128  1.00  0.00     0.050 A 
ATOM     12  C   UNL     1      95.750  94.073  78.825  1.00  0.00     0.008 A 
BRANCH   8  13
ATOM     13  O   UNL     1      96.115  96.844  81.895  1.00  0.00    -0.493 OA
ATOM     14  C   UNL     1      97.361  96.885  82.588  1.00  0.00     0.278 C 
ENDBRANCH   8  13
BRANCH  10  15
ATOM     15  O   UNL     1      95.178  94.282  82.430  1.00  0.00    -0.504 OA
ATOM     16  H   UNL     1      95.549  93.401  82.608  1.00  0.00     0.293 HD
ENDBRANCH  10  15
ENDBRANCH   6   7
ENDBRANCH   5   6
ENDBRANCH   3   5
ENDBRANCH   2   3
BRANCH   1  17
ATOM     17  C   UNL     1      92.083  92.902  76.272  1.00  0.00     0.027 C 
BRANCH  17  18
ATOM     18  C   UNL     1      90.875  93.744  76.698  1.00  0.00     0.004 C 
BRANCH  18  19
ATOM     19  C   UNL     1      89.696  92.910  77.209  1.00  0.00     0.000 C 
BRANCH  19  20
ATOM     20  C   UNL     1      90.182  91.678  77.974  1.00  0.00    -0.003 C 
ATOM     21  C   UNL     1      89.815  90.392  77.251  1.00  0.00     0.004 C 
ENDBRANCH  19  20
ENDBRANCH  18  19
ENDBRANCH  17  18
ENDBRANCH   1  17
TORSDOF 10
ENDMDL
MODEL 6
REMARK VINA RESULT:    -5.716      4.811      8.180
REMARK INTER + INTRA:         -10.701
REMARK INTER:                  -9.632
REMARK INTRA:                  -1.069
REMARK UNBOUND:                -1.810
REMARK SMILES CCCCC/C=C/C(=O)CCc1ccc(O)c(OC)c1
REMARK SMILES IDX 6 1 7 2 8 3 9 4 10 5 11 6 12 7 17 8 20 9 15 10 14 11 13 12
REMARK SMILES IDX 18 13 19 14 16 15 5 17 4 18 3 19 2 20 1 21
REMARK H PARENT 16 16
REMARK Flexibility Score: inf
ROOT
ATOM      1  C   UNL     1      92.355  93.905  76.895  1.00  0.00    -0.023 C 
ATOM      2  C   UNL     1      93.200  93.603  75.902  1.00  0.00     0.043 C 
ENDROOT
BRANCH   2   3
ATOM      3  C   UNL     1      94.036  94.670  75.289  1.00  0.00     0.155 C 
ATOM      4  O   UNL     1      93.538  95.673  74.781  1.00  0.00    -0.295 OA
BRANCH   3   5
ATOM      5  C   UNL     1      95.534  94.433  75.275  1.00  0.00     0.085 C 
BRANCH   5   6
ATOM      6  C   UNL     1      95.989  93.688  76.531  1.00  0.00     0.044 C 
BRANCH   6   7
ATOM      7  C   UNL     1      96.102  94.588  77.739  1.00  0.00    -0.044 A 
ATOM      8  C   UNL     1      95.627  95.027  80.050  1.00  0.00     0.160 A 
ATOM      9  C   UNL     1      95.522  94.196  78.935  1.00  0.00     0.054 A 
ATOM     10  C   UNL     1      96.310  96.239  79.956  1.00  0.00     0.157 A 
ATOM     11  C   UNL     1      96.889  96.620  78.744  1.00  0.00     0.050 A 
ATOM     12  C   UNL     1      96.783  95.789  77.629  1.00  0.00     0.008 A 
BRANCH   8  13
ATOM     13  O   UNL     1      95.058  94.643  81.227  1.00  0.00    -0.493 OA
ATOM     14  C   UNL     1      95.737  93.640  81.980  1.00  0.00     0.278 C 
ENDBRANCH   8  13
BRANCH  10  15
ATOM     15  O   UNL     1      96.420  97.059  81.038  1.00  0.00    -0.504 OA
ATOM     16  H   UNL     1      96.965  96.610  81.707  1.00  0.00     0.293 HD
ENDBRANCH  10  15
ENDBRANCH   6   7
ENDBRANCH   5   6
ENDBRANCH   3   5
ENDBRANCH   2   3
BRANCH   1  17
ATOM     17  C   UNL     1      91.478  92.887  77.565  1.00  0.00     0.027 C 
BRANCH  17  18
ATOM     18  C   UNL     1      90.037  92.899  77.045  1.00  0.00     0.004 C 
BRANCH  18  19
ATOM     19  C   UNL     1      89.536  91.523  76.592  1.00  0.00     0.000 C 
BRANCH  19  20
ATOM     20  C   UNL     1      89.455  91.440  75.067  1.00  0.00    -0.003 C 
ATOM     21  C   UNL     1      88.776  90.157  74.615  1.00  0.00     0.004 C 
ENDBRANCH  19  20
ENDBRANCH  18  19
ENDBRANCH  17  18
ENDBRANCH   1  17
TORSDOF 10
ENDMDL
MODEL 7
REMARK VINA RESULT:    -5.280     13.000     15.496
REMARK INTER + INTRA:         -10.022
REMARK INTER:                  -8.393
REMARK INTRA:                  -1.629
REMARK UNBOUND:                -1.810
REMARK SMILES CCCCC/C=C/C(=O)CCc1ccc(O)c(OC)c1
REMARK SMILES IDX 6 1 7 2 8 3 9 4 10 5 11 6 12 7 17 8 20 9 15 10 14 11 13 12
REMARK SMILES IDX 18 13 19 14 16 15 5 17 4 18 3 19 2 20 1 21
REMARK H PARENT 16 16
REMARK Flexibility Score: inf
ROOT
ATOM      1  C   UNL     1      81.228  86.230  86.881  1.00  0.00    -0.023 C 
ATOM      2  C   UNL     1      80.152  86.702  87.523  1.00  0.00     0.043 C 
ENDROOT
BRANCH   2   3
ATOM      3  C   UNL     1      80.222  86.978  88.984  1.00  0.00     0.155 C 
ATOM      4  O   UNL     1      79.793  86.182  89.816  1.00  0.00    -0.295 OA
BRANCH   3   5
ATOM      5  C   UNL     1      80.803  88.318  89.392  1.00  0.00     0.085 C 
BRANCH   5   6
ATOM      6  C   UNL     1      80.352  89.431  88.443  1.00  0.00     0.044 C 
BRANCH   6   7
ATOM      7  C   UNL     1      81.466  90.386  88.087  1.00  0.00    -0.044 A 
ATOM      8  C   UNL     1      83.452  90.883  86.835  1.00  0.00     0.160 A 
ATOM      9  C   UNL     1      82.424  89.999  87.163  1.00  0.00     0.054 A 
ATOM     10  C   UNL     1      83.510  92.140  87.434  1.00  0.00     0.157 A 
ATOM     11  C   UNL     1      82.539  92.515  88.364  1.00  0.00     0.050 A 
ATOM     12  C   UNL     1      81.511  91.632  88.692  1.00  0.00     0.008 A 
BRANCH   8  13
ATOM     13  O   UNL     1      84.395  90.505  85.926  1.00  0.00    -0.493 OA
ATOM     14  C   UNL     1      84.021  90.542  84.550  1.00  0.00     0.278 C 
ENDBRANCH   8  13
BRANCH  10  15
ATOM     15  O   UNL     1      84.509  93.012  87.122  1.00  0.00    -0.504 OA
ATOM     16  H   UNL     1      84.131  93.907  87.076  1.00  0.00     0.293 HD
ENDBRANCH  10  15
ENDBRANCH   6   7
ENDBRANCH   5   6
ENDBRANCH   3   5
ENDBRANCH   2   3
BRANCH   1  17
ATOM     17  C   UNL     1      81.238  85.926  85.411  1.00  0.00     0.027 C 
BRANCH  17  18
ATOM     18  C   UNL     1      79.897  86.214  84.728  1.00  0.00     0.004 C 
BRANCH  18  19
ATOM     19  C   UNL     1      79.992  87.244  83.597  1.00  0.00     0.000 C 
BRANCH  19  20
ATOM     20  C   UNL     1      80.741  88.497  84.054  1.00  0.00    -0.003 C 
ATOM     21  C   UNL     1      79.814  89.471  84.765  1.00  0.00     0.004 C 
ENDBRANCH  19  20
ENDBRANCH  18  19
ENDBRANCH  17  18
ENDBRANCH   1  17
TORSDOF 10
ENDMDL
MODEL 8
REMARK VINA RESULT:    -5.205     24.382     27.276
REMARK INTER + INTRA:          -9.906
REMARK INTER:                  -9.277
REMARK INTRA:                  -0.629
REMARK UNBOUND:                -1.810
REMARK SMILES CCCCC/C=C/C(=O)CCc1ccc(O)c(OC)c1
REMARK SMILES IDX 6 1 7 2 8 3 9 4 10 5 11 6 12 7 17 8 20 9 15 10 14 11 13 12
REMARK SMILES IDX 18 13 19 14 16 15 5 17 4 18 3 19 2 20 1 21
REMARK H PARENT 16 16
REMARK Flexibility Score: inf
ROOT
ATOM      1  C   UNL     1      84.915  63.735  78.489  1.00  0.00    -0.023 C 
ATOM      2  C   UNL     1      84.277  63.138  77.474  1.00  0.00     0.043 C 
ENDROOT
BRANCH   2   3
ATOM      3  C   UNL     1      83.826  63.941  76.306  1.00  0.00     0.155 C 
ATOM      4  O   UNL     1      83.974  63.547  75.151  1.00  0.00    -0.295 OA
BRANCH   3   5
ATOM      5  C   UNL     1      83.223  65.298  76.611  1.00  0.00     0.085 C 
BRANCH   5   6
ATOM      6  C   UNL     1      81.698  65.267  76.491  1.00  0.00     0.044 C 
BRANCH   6   7
ATOM      7  C   UNL     1      81.214  65.545  75.088  1.00  0.00    -0.044 A 
ATOM      8  C   UNL     1      81.037  67.029  73.210  1.00  0.00     0.160 A 
ATOM      9  C   UNL     1      81.484  66.773  74.506  1.00  0.00     0.054 A 
ATOM     10  C   UNL     1      80.325  66.053  72.512  1.00  0.00     0.157 A 
ATOM     11  C   UNL     1      80.060  64.821  73.112  1.00  0.00     0.050 A 
ATOM     12  C   UNL     1      80.508  64.566  74.408  1.00  0.00     0.008 A 
BRANCH   8  13
ATOM     13  O   UNL     1      81.302  68.236  72.636  1.00  0.00    -0.493 OA
ATOM     14  C   UNL     1      82.655  68.495  72.265  1.00  0.00     0.278 C 
ENDBRANCH   8  13
BRANCH  10  15
ATOM     15  O   UNL     1      79.884  66.291  71.246  1.00  0.00    -0.504 OA
ATOM     16  H   UNL     1      78.921  66.156  71.228  1.00  0.00     0.293 HD
ENDBRANCH  10  15
ENDBRANCH   6   7
ENDBRANCH   5   6
ENDBRANCH   3   5
ENDBRANCH   2   3
BRANCH   1  17
ATOM     17  C   UNL     1      85.400  62.995  79.702  1.00  0.00     0.027 C 
BRANCH  17  18
ATOM     18  C   UNL     1      84.989  63.664  81.019  1.00  0.00     0.004 C 
BRANCH  18  19
ATOM     19  C   UNL     1      86.175  64.174  81.844  1.00  0.00     0.000 C 
BRANCH  19  20
ATOM     20  C   UNL     1      85.734  65.255  82.832  1.00  0.00    -0.003 C 
ATOM     21  C   UNL     1      86.521  66.541  82.638  1.00  0.00     0.004 C 
ENDBRANCH  19  20
ENDBRANCH  18  19
ENDBRANCH  17  18
ENDBRANCH   1  17
TORSDOF 10
ENDMDL
MODEL 9
REMARK VINA RESULT:    -5.052      4.021      6.725
REMARK INTER + INTRA:          -9.668
REMARK INTER:                  -8.979
REMARK INTRA:                  -0.689
REMARK UNBOUND:                -1.810
REMARK SMILES CCCCC/C=C/C(=O)CCc1ccc(O)c(OC)c1
REMARK SMILES IDX 6 1 7 2 8 3 9 4 10 5 11 6 12 7 17 8 20 9 15 10 14 11 13 12
REMARK SMILES IDX 18 13 19 14 16 15 5 17 4 18 3 19 2 20 1 21
REMARK H PARENT 16 16
REMARK Flexibility Score: inf
ROOT
ATOM      1  C   UNL     1      94.052  97.565  73.715  1.00  0.00    -0.023 C 
ATOM      2  C   UNL     1      95.010  97.149  74.553  1.00  0.00     0.043 C 
ENDROOT
BRANCH   2   3
ATOM      3  C   UNL     1      95.009  95.743  75.041  1.00  0.00     0.155 C 
ATOM      4  O   UNL     1      96.038  95.072  75.087  1.00  0.00    -0.295 OA
BRANCH   3   5
ATOM      5  C   UNL     1      93.664  95.163  75.431  1.00  0.00     0.085 C 
BRANCH   5   6
ATOM      6  C   UNL     1      93.804  93.728  75.939  1.00  0.00     0.044 C 
BRANCH   6   7
ATOM      7  C   UNL     1      92.475  93.025  76.088  1.00  0.00    -0.044 A 
ATOM      8  C   UNL     1      90.692  91.735  75.131  1.00  0.00     0.160 A 
ATOM      9  C   UNL     1      91.919  92.384  74.992  1.00  0.00     0.054 A 
ATOM     10  C   UNL     1      90.037  91.735  76.362  1.00  0.00     0.157 A 
ATOM     11  C   UNL     1      90.610  92.385  77.456  1.00  0.00     0.050 A 
ATOM     12  C   UNL     1      91.837  93.034  77.317  1.00  0.00     0.008 A 
BRANCH   8  13
ATOM     13  O   UNL     1      90.143  91.105  74.055  1.00  0.00    -0.493 OA
ATOM     14  C   UNL     1      89.383  91.906  73.151  1.00  0.00     0.278 C 
ENDBRANCH   8  13
BRANCH  10  15
ATOM     15  O   UNL     1      88.839  91.104  76.510  1.00  0.00    -0.504 OA
ATOM     16  H   UNL     1      88.356  91.533  77.237  1.00  0.00     0.293 HD
ENDBRANCH  10  15
ENDBRANCH   6   7
ENDBRANCH   5   6
ENDBRANCH   3   5
ENDBRANCH   2   3
BRANCH   1  17
ATOM     17  C   UNL     1      93.982  98.965  73.178  1.00  0.00     0.027 C 
BRANCH  17  18
ATOM     18  C   UNL     1      93.295  99.051  71.811  1.00  0.00     0.004 C 
BRANCH  18  19
ATOM     19  C   UNL     1      93.870  98.082  70.773  1.00  0.00     0.000 C 
BRANCH  19  20
ATOM     20  C   UNL     1      95.318  98.437  70.429  1.00  0.00    -0.003 C 
ATOM     21  C   UNL     1      96.045  97.260  69.800  1.00  0.00     0.004 C 
ENDBRANCH  19  20
ENDBRANCH  18  19
ENDBRANCH  17  18
ENDBRANCH   1  17
TORSDOF 10
ENDMDL
MODEL 10
REMARK VINA RESULT:    -5.032     13.688     16.399
REMARK INTER + INTRA:          -9.636
REMARK INTER:                  -7.948
REMARK INTRA:                  -1.688
REMARK UNBOUND:                -1.810
REMARK SMILES CCCCC/C=C/C(=O)CCc1ccc(O)c(OC)c1
REMARK SMILES IDX 6 1 7 2 8 3 9 4 10 5 11 6 12 7 17 8 20 9 15 10 14 11 13 12
REMARK SMILES IDX 18 13 19 14 16 15 5 17 4 18 3 19 2 20 1 21
REMARK H PARENT 16 16
REMARK Flexibility Score: inf
ROOT
ATOM      1  C   UNL     1      80.948  89.829  85.270  1.00  0.00    -0.023 C 
ATOM      2  C   UNL     1      82.254  89.547  85.180  1.00  0.00     0.043 C 
ENDROOT
BRANCH   2   3
ATOM      3  C   UNL     1      83.251  90.435  85.837  1.00  0.00     0.155 C 
ATOM      4  O   UNL     1      84.317  90.724  85.298  1.00  0.00    -0.295 OA
BRANCH   3   5
ATOM      5  C   UNL     1      82.908  90.923  87.231  1.00  0.00     0.085 C 
BRANCH   5   6
ATOM      6  C   UNL     1      83.021  89.795  88.258  1.00  0.00     0.044 C 
BRANCH   6   7
ATOM      7  C   UNL     1      81.686  89.177  88.601  1.00  0.00    -0.044 A 
ATOM      8  C   UNL     1      79.413  89.423  89.332  1.00  0.00     0.160 A 
ATOM      9  C   UNL     1      80.646  89.994  89.016  1.00  0.00     0.054 A 
ATOM     10  C   UNL     1      79.236  88.043  89.230  1.00  0.00     0.157 A 
ATOM     11  C   UNL     1      80.293  87.234  88.811  1.00  0.00     0.050 A 
ATOM     12  C   UNL     1      81.526  87.805  88.494  1.00  0.00     0.008 A 
BRANCH   8  13
ATOM     13  O   UNL     1      78.389  90.224  89.740  1.00  0.00    -0.493 OA
ATOM     14  C   UNL     1      78.508  91.618  89.467  1.00  0.00     0.278 C 
ENDBRANCH   8  13
BRANCH  10  15
ATOM     15  O   UNL     1      78.037  87.474  89.535  1.00  0.00    -0.504 OA
ATOM     16  H   UNL     1      78.107  86.516  89.385  1.00  0.00     0.293 HD
ENDBRANCH  10  15
ENDBRANCH   6   7
ENDBRANCH   5   6
ENDBRANCH   3   5
ENDBRANCH   2   3
BRANCH   1  17
ATOM     17  C   UNL     1      79.881  88.985  84.637  1.00  0.00     0.027 C 
BRANCH  17  18
ATOM     18  C   UNL     1      80.406  88.108  83.495  1.00  0.00     0.004 C 
BRANCH  18  19
ATOM     19  C   UNL     1      80.129  86.614  83.690  1.00  0.00     0.000 C 
BRANCH  19  20
ATOM     20  C   UNL     1      80.191  86.231  85.169  1.00  0.00    -0.003 C 
ATOM     21  C   UNL     1      81.563  85.698  85.550  1.00  0.00     0.004 C 
ENDBRANCH  19  20
ENDBRANCH  18  19
ENDBRANCH  17  18
ENDBRANCH   1  17
TORSDOF 10
ENDMDL
