MODEL 1
REMARK VINA RESULT:    -6.139      0.000      0.000
REMARK INTER + INTRA:         -10.961
REMARK INTER:                 -10.086
REMARK INTRA:                  -0.875
REMARK UNBOUND:                -0.875
REMARK SMILES CCCCC[C@H](O)CC(=O)CCc1ccc(O)c(OC)c1
REMARK SMILES IDX 8 1 6 2 7 3 5 5 4 6 3 7 2 8 1 9 9 10 10 11 11 12 12 13 13 14
REMARK SMILES IDX 21 15 14 16 18 17 15 18 16 19 19 20 20 21 17 22
REMARK H PARENT 7 4 17 23
REMARK Flexibility Score: inf
ROOT
ATOM      1  C   UNL     1      76.968  84.477  67.894  1.00  0.00     0.107 C 
ENDROOT
BRANCH   1   2
ATOM      2  C   UNL     1      77.628  84.500  69.275  1.00  0.00     0.121 C 
BRANCH   2   3
ATOM      3  O   UNL     1      78.705  85.434  69.281  1.00  0.00    -0.393 OA
ATOM      4  H   UNL     1      79.526  84.942  69.105  1.00  0.00     0.210 HD
ENDBRANCH   2   3
BRANCH   2   5
ATOM      5  C   UNL     1      76.649  84.851  70.401  1.00  0.00     0.032 C 
BRANCH   5   6
ATOM      6  C   UNL     1      75.529  85.784  69.923  1.00  0.00     0.003 C 
BRANCH   6   7
ATOM      7  C   UNL     1      75.862  87.269  70.097  1.00  0.00    -0.000 C 
BRANCH   7   8
ATOM      8  C   UNL     1      74.666  88.118  70.524  1.00  0.00    -0.003 C 
ATOM      9  C   UNL     1      75.101  89.506  70.968  1.00  0.00     0.004 C 
ENDBRANCH   7   8
ENDBRANCH   6   7
ENDBRANCH   5   6
ENDBRANCH   2   5
ENDBRANCH   1   2
BRANCH   1  10
ATOM     10  C   UNL     1      77.810  83.770  66.843  1.00  0.00     0.135 C 
ATOM     11  O   UNL     1      79.010  83.569  67.025  1.00  0.00    -0.300 OA
BRANCH  10  12
ATOM     12  C   UNL     1      77.083  83.294  65.595  1.00  0.00     0.080 C 
BRANCH  12  13
ATOM     13  C   UNL     1      76.805  81.790  65.581  1.00  0.00     0.043 C 
BRANCH  13  14
ATOM     14  C   UNL     1      75.427  81.447  65.066  1.00  0.00    -0.044 A 
ATOM     15  C   UNL     1      74.307  81.670  65.867  1.00  0.00     0.054 A 
ATOM     16  C   UNL     1      75.275  80.908  63.788  1.00  0.00     0.008 A 
ATOM     17  C   UNL     1      73.035  81.354  65.390  1.00  0.00     0.160 A 
ATOM     18  C   UNL     1      74.003  80.592  63.311  1.00  0.00     0.050 A 
ATOM     19  C   UNL     1      72.883  80.815  64.112  1.00  0.00     0.157 A 
BRANCH  17  20
ATOM     20  O   UNL     1      71.949  81.576  66.181  1.00  0.00    -0.493 OA
ATOM     21  C   UNL     1      71.776  82.897  66.690  1.00  0.00     0.278 C 
ENDBRANCH  17  20
BRANCH  19  22
ATOM     22  O   UNL     1      71.646  80.503  63.635  1.00  0.00    -0.504 OA
ATOM     23  H   UNL     1      71.510  79.543  63.712  1.00  0.00     0.293 HD
ENDBRANCH  19  22
ENDBRANCH  13  14
ENDBRANCH  12  13
ENDBRANCH  10  12
ENDBRANCH   1  10
TORSDOF 12
ENDMDL
MODEL 2
REMARK VINA RESULT:    -6.056     21.610     26.201
REMARK INTER + INTRA:         -10.826
REMARK INTER:                  -9.827
REMARK INTRA:                  -0.999
REMARK UNBOUND:                -0.875
REMARK SMILES CCCCC[C@H](O)CC(=O)CCc1ccc(O)c(OC)c1
REMARK SMILES IDX 8 1 6 2 7 3 5 5 4 6 3 7 2 8 1 9 9 10 10 11 11 12 12 13 13 14
REMARK SMILES IDX 21 15 14 16 18 17 15 18 16 19 19 20 20 21 17 22
REMARK H PARENT 7 4 17 23
REMARK Flexibility Score: inf
ROOT
ATOM      1  C   UNL     1      94.136  96.293  75.671  1.00  0.00     0.107 C 
ENDROOT
BRANCH   1   2
ATOM      2  C   UNL     1      93.219  95.426  76.537  1.00  0.00     0.121 C 
BRANCH   2   3
ATOM      3  O   UNL     1      93.997  94.493  77.282  1.00  0.00    -0.393 OA
ATOM      4  H   UNL     1      93.459  94.190  78.034  1.00  0.00     0.210 HD
ENDBRANCH   2   3
BRANCH   2   5
ATOM      5  C   UNL     1      92.353  96.246  77.502  1.00  0.00     0.032 C 
BRANCH   5   6
ATOM      6  C   UNL     1      91.107  95.476  77.955  1.00  0.00     0.003 C 
BRANCH   6   7
ATOM      7  C   UNL     1      90.395  94.747  76.811  1.00  0.00    -0.000 C 
BRANCH   7   8
ATOM      8  C   UNL     1      89.510  93.593  77.278  1.00  0.00    -0.003 C 
ATOM      9  C   UNL     1      89.910  93.112  78.664  1.00  0.00     0.004 C 
ENDBRANCH   7   8
ENDBRANCH   6   7
ENDBRANCH   5   6
ENDBRANCH   2   5
ENDBRANCH   1   2
BRANCH   1  10
ATOM     10  C   UNL     1      94.689  97.500  76.412  1.00  0.00     0.135 C 
ATOM     11  O   UNL     1      94.204  98.619  76.250  1.00  0.00    -0.300 OA
BRANCH  10  12
ATOM     12  C   UNL     1      95.828  97.239  77.386  1.00  0.00     0.080 C 
BRANCH  12  13
ATOM     13  C   UNL     1      95.882  98.231  78.549  1.00  0.00     0.043 C 
BRANCH  13  14
ATOM     14  C   UNL     1      95.601  97.590  79.887  1.00  0.00    -0.044 A 
ATOM     15  C   UNL     1      95.189  96.258  79.950  1.00  0.00     0.054 A 
ATOM     16  C   UNL     1      95.754  98.329  81.060  1.00  0.00     0.008 A 
ATOM     17  C   UNL     1      94.930  95.667  81.187  1.00  0.00     0.160 A 
ATOM     18  C   UNL     1      95.495  97.738  82.297  1.00  0.00     0.050 A 
ATOM     19  C   UNL     1      95.083  96.407  82.360  1.00  0.00     0.157 A 
BRANCH  17  20
ATOM     20  O   UNL     1      94.528  94.366  81.236  1.00  0.00    -0.493 OA
ATOM     21  C   UNL     1      95.346  93.409  80.566  1.00  0.00     0.278 C 
ENDBRANCH  17  20
BRANCH  19  22
ATOM     22  O   UNL     1      94.833  95.840  83.573  1.00  0.00    -0.504 OA
ATOM     23  H   UNL     1      94.364  94.999  83.439  1.00  0.00     0.293 HD
ENDBRANCH  19  22
ENDBRANCH  13  14
ENDBRANCH  12  13
ENDBRANCH  10  12
ENDBRANCH   1  10
TORSDOF 12
ENDMDL
MODEL 3
REMARK VINA RESULT:    -5.727     22.514     26.384
REMARK INTER + INTRA:         -10.284
REMARK INTER:                  -8.615
REMARK INTRA:                  -1.669
REMARK UNBOUND:                -0.875
REMARK SMILES CCCCC[C@H](O)CC(=O)CCc1ccc(O)c(OC)c1
REMARK SMILES IDX 8 1 6 2 7 3 5 5 4 6 3 7 2 8 1 9 9 10 10 11 11 12 12 13 13 14
REMARK SMILES IDX 21 15 14 16 18 17 15 18 16 19 19 20 20 21 17 22
REMARK H PARENT 7 4 17 23
REMARK Flexibility Score: inf
ROOT
ATOM      1  C   UNL     1      95.130  96.215  82.705  1.00  0.00     0.107 C 
ENDROOT
BRANCH   1   2
ATOM      2  C   UNL     1      96.253  96.955  83.436  1.00  0.00     0.121 C 
BRANCH   2   3
ATOM      3  O   UNL     1      97.252  96.027  83.853  1.00  0.00    -0.393 OA
ATOM      4  H   UNL     1      97.902  95.946  83.133  1.00  0.00     0.210 HD
ENDBRANCH   2   3
BRANCH   2   5
ATOM      5  C   UNL     1      96.905  98.050  82.584  1.00  0.00     0.032 C 
BRANCH   5   6
ATOM      6  C   UNL     1      95.866  98.886  81.826  1.00  0.00     0.003 C 
BRANCH   6   7
ATOM      7  C   UNL     1      96.271  99.191  80.380  1.00  0.00    -0.000 C 
BRANCH   7   8
ATOM      8  C   UNL     1      96.083  98.010  79.429  1.00  0.00    -0.003 C 
ATOM      9  C   UNL     1      95.835  98.480  78.004  1.00  0.00     0.004 C 
ENDBRANCH   7   8
ENDBRANCH   6   7
ENDBRANCH   5   6
ENDBRANCH   2   5
ENDBRANCH   1   2
BRANCH   1  10
ATOM     10  C   UNL     1      95.533  94.822  82.248  1.00  0.00     0.135 C 
ATOM     11  O   UNL     1      95.330  93.839  82.960  1.00  0.00    -0.300 OA
BRANCH  10  12
ATOM     12  C   UNL     1      96.151  94.711  80.862  1.00  0.00     0.080 C 
BRANCH  12  13
ATOM     13  C   UNL     1      95.500  93.642  79.983  1.00  0.00     0.043 C 
BRANCH  13  14
ATOM     14  C   UNL     1      94.443  94.198  79.059  1.00  0.00    -0.044 A 
ATOM     15  C   UNL     1      93.092  94.013  79.354  1.00  0.00     0.054 A 
ATOM     16  C   UNL     1      94.818  94.897  77.912  1.00  0.00     0.008 A 
ATOM     17  C   UNL     1      92.116  94.528  78.500  1.00  0.00     0.160 A 
ATOM     18  C   UNL     1      93.842  95.412  77.058  1.00  0.00     0.050 A 
ATOM     19  C   UNL     1      92.491  95.227  77.352  1.00  0.00     0.157 A 
BRANCH  17  20
ATOM     20  O   UNL     1      90.800  94.341  78.797  1.00  0.00    -0.493 OA
ATOM     21  C   UNL     1      90.216  93.101  78.403  1.00  0.00     0.278 C 
ENDBRANCH  17  20
BRANCH  19  22
ATOM     22  O   UNL     1      91.547  95.734  76.511  1.00  0.00    -0.504 OA
ATOM     23  H   UNL     1      91.974  95.993  75.676  1.00  0.00     0.293 HD
ENDBRANCH  19  22
ENDBRANCH  13  14
ENDBRANCH  12  13
ENDBRANCH  10  12
ENDBRANCH   1  10
TORSDOF 12
ENDMDL
MODEL 4
REMARK VINA RESULT:    -5.338     25.284     28.623
REMARK INTER + INTRA:          -9.645
REMARK INTER:                  -8.804
REMARK INTRA:                  -0.841
REMARK UNBOUND:                -0.875
REMARK SMILES CCCCC[C@H](O)CC(=O)CCc1ccc(O)c(OC)c1
REMARK SMILES IDX 8 1 6 2 7 3 5 5 4 6 3 7 2 8 1 9 9 10 10 11 11 12 12 13 13 14
REMARK SMILES IDX 21 15 14 16 18 17 15 18 16 19 19 20 20 21 17 22
REMARK H PARENT 7 4 17 23
REMARK Flexibility Score: inf
ROOT
ATOM      1  C   UNL     1     100.874  81.872  80.657  1.00  0.00     0.107 C 
ENDROOT
BRANCH   1   2
ATOM      2  C   UNL     1     100.832  81.314  79.232  1.00  0.00     0.121 C 
BRANCH   2   3
ATOM      3  O   UNL     1      99.500  80.926  78.903  1.00  0.00    -0.393 OA
ATOM      4  H   UNL     1      99.460  79.954  78.923  1.00  0.00     0.210 HD
ENDBRANCH   2   3
BRANCH   2   5
ATOM      5  C   UNL     1     101.342  82.310  78.182  1.00  0.00     0.032 C 
BRANCH   5   6
ATOM      6  C   UNL     1     100.521  82.253  76.888  1.00  0.00     0.003 C 
BRANCH   6   7
ATOM      7  C   UNL     1      99.820  83.575  76.556  1.00  0.00    -0.000 C 
BRANCH   7   8
ATOM      8  C   UNL     1      98.309  83.438  76.376  1.00  0.00    -0.003 C 
ATOM      9  C   UNL     1      97.559  84.511  77.150  1.00  0.00     0.004 C 
ENDBRANCH   7   8
ENDBRANCH   6   7
ENDBRANCH   5   6
ENDBRANCH   2   5
ENDBRANCH   1   2
BRANCH   1  10
ATOM     10  C   UNL     1      99.623  82.650  81.029  1.00  0.00     0.135 C 
ATOM     11  O   UNL     1      99.200  83.552  80.306  1.00  0.00    -0.300 OA
BRANCH  10  12
ATOM     12  C   UNL     1      98.908  82.224  82.302  1.00  0.00     0.080 C 
BRANCH  12  13
ATOM     13  C   UNL     1      97.746  83.139  82.691  1.00  0.00     0.043 C 
BRANCH  13  14
ATOM     14  C   UNL     1      97.817  83.612  84.123  1.00  0.00    -0.044 A 
ATOM     15  C   UNL     1      96.995  84.651  84.557  1.00  0.00     0.054 A 
ATOM     16  C   UNL     1      98.706  83.008  85.013  1.00  0.00     0.008 A 
ATOM     17  C   UNL     1      97.061  85.086  85.881  1.00  0.00     0.160 A 
ATOM     18  C   UNL     1      98.772  83.442  86.337  1.00  0.00     0.050 A 
ATOM     19  C   UNL     1      97.950  84.482  86.771  1.00  0.00     0.157 A 
BRANCH  17  20
ATOM     20  O   UNL     1      96.253  86.103  86.293  1.00  0.00    -0.493 OA
ATOM     21  C   UNL     1      94.980  85.743  86.828  1.00  0.00     0.278 C 
ENDBRANCH  17  20
BRANCH  19  22
ATOM     22  O   UNL     1      98.024  84.898  88.065  1.00  0.00    -0.504 OA
ATOM     23  H   UNL     1      98.851  85.393  88.192  1.00  0.00     0.293 HD
ENDBRANCH  19  22
ENDBRANCH  13  14
ENDBRANCH  12  13
ENDBRANCH  10  12
ENDBRANCH   1  10
TORSDOF 12
ENDMDL
MODEL 5
REMARK VINA RESULT:    -5.315     23.860     27.331
REMARK INTER + INTRA:          -9.608
REMARK INTER:                  -7.802
REMARK INTRA:                  -1.806
REMARK UNBOUND:                -0.875
REMARK SMILES CCCCC[C@H](O)CC(=O)CCc1ccc(O)c(OC)c1
REMARK SMILES IDX 8 1 6 2 7 3 5 5 4 6 3 7 2 8 1 9 9 10 10 11 11 12 12 13 13 14
REMARK SMILES IDX 21 15 14 16 18 17 15 18 16 19 19 20 20 21 17 22
REMARK H PARENT 7 4 17 23
REMARK Flexibility Score: inf
ROOT
ATOM      1  C   UNL     1      96.694  95.350  81.371  1.00  0.00     0.107 C 
ENDROOT
BRANCH   1   2
ATOM      2  C   UNL     1      95.976  94.150  81.992  1.00  0.00     0.121 C 
BRANCH   2   3
ATOM      3  O   UNL     1      95.160  94.583  83.078  1.00  0.00    -0.393 OA
ATOM      4  H   UNL     1      94.659  93.813  83.400  1.00  0.00     0.210 HD
ENDBRANCH   2   3
BRANCH   2   5
ATOM      5  C   UNL     1      95.110  93.382  80.985  1.00  0.00     0.032 C 
BRANCH   5   6
ATOM      6  C   UNL     1      95.404  93.797  79.538  1.00  0.00     0.003 C 
BRANCH   6   7
ATOM      7  C   UNL     1      94.153  93.853  78.657  1.00  0.00    -0.000 C 
BRANCH   7   8
ATOM      8  C   UNL     1      93.009  94.660  79.268  1.00  0.00    -0.003 C 
ATOM      9  C   UNL     1      91.888  94.881  78.264  1.00  0.00     0.004 C 
ENDBRANCH   7   8
ENDBRANCH   6   7
ENDBRANCH   5   6
ENDBRANCH   2   5
ENDBRANCH   1   2
BRANCH   1  10
ATOM     10  C   UNL     1      96.043  96.679  81.718  1.00  0.00     0.135 C 
ATOM     11  O   UNL     1      96.129  97.149  82.852  1.00  0.00    -0.300 OA
BRANCH  10  12
ATOM     12  C   UNL     1      95.329  97.404  80.587  1.00  0.00     0.080 C 
BRANCH  12  13
ATOM     13  C   UNL     1      96.258  98.249  79.714  1.00  0.00     0.043 C 
BRANCH  13  14
ATOM     14  C   UNL     1      96.104  97.967  78.239  1.00  0.00    -0.044 A 
ATOM     15  C   UNL     1      96.933  98.604  77.316  1.00  0.00     0.054 A 
ATOM     16  C   UNL     1      95.131  97.068  77.800  1.00  0.00     0.008 A 
ATOM     17  C   UNL     1      96.789  98.342  75.953  1.00  0.00     0.160 A 
ATOM     18  C   UNL     1      94.988  96.806  76.437  1.00  0.00     0.050 A 
ATOM     19  C   UNL     1      95.816  97.443  75.514  1.00  0.00     0.157 A 
BRANCH  17  20
ATOM     20  O   UNL     1      97.604  98.971  75.061  1.00  0.00    -0.493 OA
ATOM     21  C   UNL     1      97.351 100.353  74.814  1.00  0.00     0.278 C 
ENDBRANCH  17  20
BRANCH  19  22
ATOM     22  O   UNL     1      95.667  97.179  74.186  1.00  0.00    -0.504 OA
ATOM     23  H   UNL     1      95.052  96.433  74.078  1.00  0.00     0.293 HD
ENDBRANCH  19  22
ENDBRANCH  13  14
ENDBRANCH  12  13
ENDBRANCH  10  12
ENDBRANCH   1  10
TORSDOF 12
ENDMDL
MODEL 6
REMARK VINA RESULT:    -5.284     10.646     13.992
REMARK INTER + INTRA:          -9.557
REMARK INTER:                  -8.140
REMARK INTRA:                  -1.416
REMARK UNBOUND:                -0.875
REMARK SMILES CCCCC[C@H](O)CC(=O)CCc1ccc(O)c(OC)c1
REMARK SMILES IDX 8 1 6 2 7 3 5 5 4 6 3 7 2 8 1 9 9 10 10 11 11 12 12 13 13 14
REMARK SMILES IDX 21 15 14 16 18 17 15 18 16 19 19 20 20 21 17 22
REMARK H PARENT 7 4 17 23
REMARK Flexibility Score: inf
ROOT
ATOM      1  C   UNL     1      65.292  83.610  69.081  1.00  0.00     0.107 C 
ENDROOT
BRANCH   1   2
ATOM      2  C   UNL     1      64.639  84.959  69.391  1.00  0.00     0.121 C 
BRANCH   2   3
ATOM      3  O   UNL     1      65.411  86.012  68.817  1.00  0.00    -0.393 OA
ATOM      4  H   UNL     1      64.881  86.418  68.109  1.00  0.00     0.210 HD
ENDBRANCH   2   3
BRANCH   2   5
ATOM      5  C   UNL     1      63.195  85.058  68.884  1.00  0.00     0.032 C 
BRANCH   5   6
ATOM      6  C   UNL     1      62.476  86.298  69.430  1.00  0.00     0.003 C 
BRANCH   6   7
ATOM      7  C   UNL     1      60.959  86.118  69.543  1.00  0.00    -0.000 C 
BRANCH   7   8
ATOM      8  C   UNL     1      60.532  84.679  69.822  1.00  0.00    -0.003 C 
ATOM      9  C   UNL     1      59.106  84.615  70.347  1.00  0.00     0.004 C 
ENDBRANCH   7   8
ENDBRANCH   6   7
ENDBRANCH   5   6
ENDBRANCH   2   5
ENDBRANCH   1   2
BRANCH   1  10
ATOM     10  C   UNL     1      65.996  82.999  70.282  1.00  0.00     0.135 C 
ATOM     11  O   UNL     1      66.978  83.545  70.785  1.00  0.00    -0.300 OA
BRANCH  10  12
ATOM     12  C   UNL     1      65.398  81.719  70.845  1.00  0.00     0.080 C 
BRANCH  12  13
ATOM     13  C   UNL     1      63.871  81.669  70.771  1.00  0.00     0.043 C 
BRANCH  13  14
ATOM     14  C   UNL     1      63.202  82.067  72.066  1.00  0.00    -0.044 A 
ATOM     15  C   UNL     1      62.369  83.185  72.107  1.00  0.00     0.054 A 
ATOM     16  C   UNL     1      63.418  81.315  73.221  1.00  0.00     0.008 A 
ATOM     17  C   UNL     1      61.751  83.550  73.303  1.00  0.00     0.160 A 
ATOM     18  C   UNL     1      62.800  81.680  74.417  1.00  0.00     0.050 A 
ATOM     19  C   UNL     1      61.967  82.798  74.458  1.00  0.00     0.157 A 
BRANCH  17  20
ATOM     20  O   UNL     1      60.940  84.644  73.331  1.00  0.00    -0.493 OA
ATOM     21  C   UNL     1      61.572  85.916  73.471  1.00  0.00     0.278 C 
ENDBRANCH  17  20
BRANCH  19  22
ATOM     22  O   UNL     1      61.370  83.145  75.632  1.00  0.00    -0.504 OA
ATOM     23  H   UNL     1      61.318  82.361  76.205  1.00  0.00     0.293 HD
ENDBRANCH  19  22
ENDBRANCH  13  14
ENDBRANCH  12  13
ENDBRANCH  10  12
ENDBRANCH   1  10
TORSDOF 12
ENDMDL
MODEL 7
REMARK VINA RESULT:    -5.261     24.842     27.751
REMARK INTER + INTRA:          -9.519
REMARK INTER:                  -7.334
REMARK INTRA:                  -2.185
REMARK UNBOUND:                -0.875
REMARK SMILES CCCCC[C@H](O)CC(=O)CCc1ccc(O)c(OC)c1
REMARK SMILES IDX 8 1 6 2 7 3 5 5 4 6 3 7 2 8 1 9 9 10 10 11 11 12 12 13 13 14
REMARK SMILES IDX 21 15 14 16 18 17 15 18 16 19 19 20 20 21 17 22
REMARK H PARENT 7 4 17 23
REMARK Flexibility Score: inf
ROOT
ATOM      1  C   UNL     1      99.173  83.253  79.206  1.00  0.00     0.107 C 
ENDROOT
BRANCH   1   2
ATOM      2  C   UNL     1      99.436  81.762  79.426  1.00  0.00     0.121 C 
BRANCH   2   3
ATOM      3  O   UNL     1      98.308  81.003  78.996  1.00  0.00    -0.393 OA
ATOM      4  H   UNL     1      97.779  81.566  78.404  1.00  0.00     0.210 HD
ENDBRANCH   2   3
BRANCH   2   5
ATOM      5  C   UNL     1     100.689  81.260  78.698  1.00  0.00     0.032 C 
BRANCH   5   6
ATOM      6  C   UNL     1     101.667  82.398  78.382  1.00  0.00     0.003 C 
BRANCH   6   7
ATOM      7  C   UNL     1     103.081  81.909  78.051  1.00  0.00    -0.000 C 
BRANCH   7   8
ATOM      8  C   UNL     1     103.650  80.938  79.084  1.00  0.00    -0.003 C 
ATOM      9  C   UNL     1     105.107  81.247  79.392  1.00  0.00     0.004 C 
ENDBRANCH   7   8
ENDBRANCH   6   7
ENDBRANCH   5   6
ENDBRANCH   2   5
ENDBRANCH   1   2
BRANCH   1  10
ATOM     10  C   UNL     1      97.794  83.537  78.632  1.00  0.00     0.135 C 
ATOM     11  O   UNL     1      96.780  83.371  79.309  1.00  0.00    -0.300 OA
BRANCH  10  12
ATOM     12  C   UNL     1      97.746  84.071  77.209  1.00  0.00     0.080 C 
BRANCH  12  13
ATOM     13  C   UNL     1      98.039  83.013  76.144  1.00  0.00     0.043 C 
BRANCH  13  14
ATOM     14  C   UNL     1      99.453  83.082  75.615  1.00  0.00    -0.044 A 
ATOM     15  C   UNL     1     100.081  81.926  75.151  1.00  0.00     0.054 A 
ATOM     16  C   UNL     1     100.129  84.302  75.591  1.00  0.00     0.008 A 
ATOM     17  C   UNL     1     101.386  81.991  74.663  1.00  0.00     0.160 A 
ATOM     18  C   UNL     1     101.434  84.366  75.102  1.00  0.00     0.050 A 
ATOM     19  C   UNL     1     102.062  83.211  74.639  1.00  0.00     0.157 A 
BRANCH  17  20
ATOM     20  O   UNL     1     101.990  80.855  74.213  1.00  0.00    -0.493 OA
ATOM     21  C   UNL     1     102.183  79.806  75.159  1.00  0.00     0.278 C 
ENDBRANCH  17  20
BRANCH  19  22
ATOM     22  O   UNL     1     103.337  83.286  74.164  1.00  0.00    -0.504 OA
ATOM     23  H   UNL     1     103.871  82.586  74.576  1.00  0.00     0.293 HD
ENDBRANCH  19  22
ENDBRANCH  13  14
ENDBRANCH  12  13
ENDBRANCH  10  12
ENDBRANCH   1  10
TORSDOF 12
ENDMDL
MODEL 8
REMARK VINA RESULT:    -5.237     25.596     27.678
REMARK INTER + INTRA:          -9.480
REMARK INTER:                  -8.437
REMARK INTRA:                  -1.043
REMARK UNBOUND:                -0.875
REMARK SMILES CCCCC[C@H](O)CC(=O)CCc1ccc(O)c(OC)c1
REMARK SMILES IDX 8 1 6 2 7 3 5 5 4 6 3 7 2 8 1 9 9 10 10 11 11 12 12 13 13 14
REMARK SMILES IDX 21 15 14 16 18 17 15 18 16 19 19 20 20 21 17 22
REMARK H PARENT 7 4 17 23
REMARK Flexibility Score: inf
ROOT
ATOM      1  C   UNL     1      96.214  85.726  86.335  1.00  0.00     0.107 C 
ENDROOT
BRANCH   1   2
ATOM      2  C   UNL     1      97.308  85.280  85.360  1.00  0.00     0.121 C 
BRANCH   2   3
ATOM      3  O   UNL     1      98.399  84.717  86.084  1.00  0.00    -0.393 OA
ATOM      4  H   UNL     1      99.046  84.385  85.437  1.00  0.00     0.210 HD
ENDBRANCH   2   3
BRANCH   2   5
ATOM      5  C   UNL     1      96.811  84.264  84.325  1.00  0.00     0.032 C 
BRANCH   5   6
ATOM      6  C   UNL     1      97.529  82.915  84.450  1.00  0.00     0.003 C 
BRANCH   6   7
ATOM      7  C   UNL     1      98.477  82.622  83.283  1.00  0.00    -0.000 C 
BRANCH   7   8
ATOM      8  C   UNL     1      98.007  83.206  81.952  1.00  0.00    -0.003 C 
ATOM      9  C   UNL     1      99.087  83.097  80.886  1.00  0.00     0.004 C 
ENDBRANCH   7   8
ENDBRANCH   6   7
ENDBRANCH   5   6
ENDBRANCH   2   5
ENDBRANCH   1   2
BRANCH   1  10
ATOM     10  C   UNL     1      96.173  84.893  87.605  1.00  0.00     0.135 C 
ATOM     11  O   UNL     1      97.110  84.910  88.404  1.00  0.00    -0.300 OA
BRANCH  10  12
ATOM     12  C   UNL     1      94.907  84.087  87.851  1.00  0.00     0.080 C 
BRANCH  12  13
ATOM     13  C   UNL     1      94.751  82.886  86.916  1.00  0.00     0.043 C 
BRANCH  13  14
ATOM     14  C   UNL     1      93.366  82.284  86.951  1.00  0.00    -0.044 A 
ATOM     15  C   UNL     1      93.177  80.948  86.600  1.00  0.00     0.054 A 
ATOM     16  C   UNL     1      92.276  83.066  87.335  1.00  0.00     0.008 A 
ATOM     17  C   UNL     1      91.898  80.393  86.634  1.00  0.00     0.160 A 
ATOM     18  C   UNL     1      90.997  82.511  87.369  1.00  0.00     0.050 A 
ATOM     19  C   UNL     1      90.808  81.175  87.018  1.00  0.00     0.157 A 
BRANCH  17  20
ATOM     20  O   UNL     1      91.725  79.086  86.288  1.00  0.00    -0.493 OA
ATOM     21  C   UNL     1      91.862  78.118  87.326  1.00  0.00     0.278 C 
ENDBRANCH  17  20
BRANCH  19  22
ATOM     22  O   UNL     1      89.554  80.644  87.054  1.00  0.00    -0.504 OA
ATOM     23  H   UNL     1      89.619  79.674  87.020  1.00  0.00     0.293 HD
ENDBRANCH  19  22
ENDBRANCH  13  14
ENDBRANCH  12  13
ENDBRANCH  10  12
ENDBRANCH   1  10
TORSDOF 12
ENDMDL
MODEL 9
REMARK VINA RESULT:    -5.158     25.786     28.575
REMARK INTER + INTRA:          -9.350
REMARK INTER:                  -8.475
REMARK INTRA:                  -0.875
REMARK UNBOUND:                -0.875
REMARK SMILES CCCCC[C@H](O)CC(=O)CCc1ccc(O)c(OC)c1
REMARK SMILES IDX 8 1 6 2 7 3 5 5 4 6 3 7 2 8 1 9 9 10 10 11 11 12 12 13 13 14
REMARK SMILES IDX 21 15 14 16 18 17 15 18 16 19 19 20 20 21 17 22
REMARK H PARENT 7 4 17 23
REMARK Flexibility Score: inf
ROOT
ATOM      1  C   UNL     1      96.085  83.989  86.715  1.00  0.00     0.107 C 
ENDROOT
BRANCH   1   2
ATOM      2  C   UNL     1      96.861  83.998  88.034  1.00  0.00     0.121 C 
BRANCH   2   3
ATOM      3  O   UNL     1      97.855  85.020  88.004  1.00  0.00    -0.393 OA
ATOM      4  H   UNL     1      98.598  84.728  88.560  1.00  0.00     0.210 HD
ENDBRANCH   2   3
BRANCH   2   5
ATOM      5  C   UNL     1      95.960  84.206  89.258  1.00  0.00     0.032 C 
BRANCH   5   6
ATOM      6  C   UNL     1      95.405  85.634  89.329  1.00  0.00     0.003 C 
BRANCH   6   7
ATOM      7  C   UNL     1      94.717  85.951  90.661  1.00  0.00    -0.000 C 
BRANCH   7   8
ATOM      8  C   UNL     1      93.734  87.118  90.579  1.00  0.00    -0.003 C 
ATOM      9  C   UNL     1      94.463  88.450  90.481  1.00  0.00     0.004 C 
ENDBRANCH   7   8
ENDBRANCH   6   7
ENDBRANCH   5   6
ENDBRANCH   2   5
ENDBRANCH   1   2
BRANCH   1  10
ATOM     10  C   UNL     1      96.586  85.026  85.723  1.00  0.00     0.135 C 
ATOM     11  O   UNL     1      96.391  86.227  85.910  1.00  0.00    -0.300 OA
BRANCH  10  12
ATOM     12  C   UNL     1      97.369  84.505  84.528  1.00  0.00     0.080 C 
BRANCH  12  13
ATOM     13  C   UNL     1      97.421  82.978  84.445  1.00  0.00     0.043 C 
BRANCH  13  14
ATOM     14  C   UNL     1      98.096  82.476  83.191  1.00  0.00    -0.044 A 
ATOM     15  C   UNL     1      98.085  83.254  82.033  1.00  0.00     0.054 A 
ATOM     16  C   UNL     1      98.730  81.233  83.191  1.00  0.00     0.008 A 
ATOM     17  C   UNL     1      98.709  82.789  80.875  1.00  0.00     0.160 A 
ATOM     18  C   UNL     1      99.355  80.768  82.033  1.00  0.00     0.050 A 
ATOM     19  C   UNL     1      99.344  81.546  80.876  1.00  0.00     0.157 A 
BRANCH  17  20
ATOM     20  O   UNL     1      98.691  83.557  79.750  1.00  0.00    -0.493 OA
ATOM     21  C   UNL     1      97.486  83.561  78.988  1.00  0.00     0.278 C 
ENDBRANCH  17  20
BRANCH  19  22
ATOM     22  O   UNL     1      99.957  81.082  79.751  1.00  0.00    -0.504 OA
ATOM     23  H   UNL     1     100.326  80.201  79.933  1.00  0.00     0.293 HD
ENDBRANCH  19  22
ENDBRANCH  13  14
ENDBRANCH  12  13
ENDBRANCH  10  12
ENDBRANCH   1  10
TORSDOF 12
ENDMDL
MODEL 10
REMARK VINA RESULT:    -5.115     10.335     13.116
REMARK INTER + INTRA:          -9.280
REMARK INTER:                  -7.548
REMARK INTRA:                  -1.732
REMARK UNBOUND:                -0.875
REMARK SMILES CCCCC[C@H](O)CC(=O)CCc1ccc(O)c(OC)c1
REMARK SMILES IDX 8 1 6 2 7 3 5 5 4 6 3 7 2 8 1 9 9 10 10 11 11 12 12 13 13 14
REMARK SMILES IDX 21 15 14 16 18 17 15 18 16 19 19 20 20 21 17 22
REMARK H PARENT 7 4 17 23
REMARK Flexibility Score: inf
ROOT
ATOM      1  C   UNL     1      65.589  84.137  70.117  1.00  0.00     0.107 C 
ENDROOT
BRANCH   1   2
ATOM      2  C   UNL     1      65.637  85.196  71.221  1.00  0.00     0.121 C 
BRANCH   2   3
ATOM      3  O   UNL     1      64.407  85.914  71.256  1.00  0.00    -0.393 OA
ATOM      4  H   UNL     1      63.700  85.283  71.479  1.00  0.00     0.210 HD
ENDBRANCH   2   3
BRANCH   2   5
ATOM      5  C   UNL     1      65.916  84.604  72.608  1.00  0.00     0.032 C 
BRANCH   5   6
ATOM      6  C   UNL     1      65.057  85.258  73.697  1.00  0.00     0.003 C 
BRANCH   6   7
ATOM      7  C   UNL     1      65.323  84.696  75.098  1.00  0.00    -0.000 C 
BRANCH   7   8
ATOM      8  C   UNL     1      66.726  84.995  75.622  1.00  0.00    -0.003 C 
ATOM      9  C   UNL     1      66.794  86.367  76.273  1.00  0.00     0.004 C 
ENDBRANCH   7   8
ENDBRANCH   6   7
ENDBRANCH   5   6
ENDBRANCH   2   5
ENDBRANCH   1   2
BRANCH   1  10
ATOM     10  C   UNL     1      66.312  82.853  70.490  1.00  0.00     0.135 C 
ATOM     11  O   UNL     1      67.541  82.808  70.532  1.00  0.00    -0.300 OA
BRANCH  10  12
ATOM     12  C   UNL     1      65.440  81.660  70.849  1.00  0.00     0.080 C 
BRANCH  12  13
ATOM     13  C   UNL     1      63.940  81.929  70.705  1.00  0.00     0.043 C 
BRANCH  13  14
ATOM     14  C   UNL     1      63.266  82.236  72.021  1.00  0.00    -0.044 A 
ATOM     15  C   UNL     1      62.313  83.252  72.097  1.00  0.00     0.054 A 
ATOM     16  C   UNL     1      63.595  81.502  73.161  1.00  0.00     0.008 A 
ATOM     17  C   UNL     1      61.690  83.534  73.313  1.00  0.00     0.160 A 
ATOM     18  C   UNL     1      62.972  81.784  74.377  1.00  0.00     0.050 A 
ATOM     19  C   UNL     1      62.020  82.800  74.453  1.00  0.00     0.157 A 
BRANCH  17  20
ATOM     20  O   UNL     1      60.762  84.530  73.374  1.00  0.00    -0.493 OA
ATOM     21  C   UNL     1      61.224  85.861  73.154  1.00  0.00     0.278 C 
ENDBRANCH  17  20
BRANCH  19  22
ATOM     22  O   UNL     1      61.418  83.067  75.645  1.00  0.00    -0.504 OA
ATOM     23  H   UNL     1      61.570  82.320  76.250  1.00  0.00     0.293 HD
ENDBRANCH  19  22
ENDBRANCH  13  14
ENDBRANCH  12  13
ENDBRANCH  10  12
ENDBRANCH   1  10
TORSDOF 12
ENDMDL
