MODEL 1
REMARK VINA RESULT:    -6.282      0.000      0.000
REMARK INTER + INTRA:         -10.867
REMARK INTER:                 -10.138
REMARK INTRA:                  -0.730
REMARK UNBOUND:                -0.730
REMARK SMILES COc1cc(CNC(=O)CCCCC/C=C/C(C)C)ccc1O
REMARK SMILES IDX 11 1 10 2 8 3 7 4 9 6 6 7 5 8 3 9 22 10 4 11 21 12 20 13
REMARK SMILES IDX 2 14 1 15 23 16 12 18 13 19 14 20 15 21 16 22 17 23 18 24
REMARK SMILES IDX 19 25
REMARK H PARENT 7 5 23 17
REMARK Flexibility Score: inf
ROOT
ATOM      1  C   UNL     1      74.581  89.599  70.222  1.00  0.00     0.010 C 
ENDROOT
BRANCH   1   2
ATOM      2  C   UNL     1      74.201  91.100  70.136  1.00  0.00     0.100 C 
BRANCH   2   3
ATOM      3  C   UNL     1      73.912  91.721  71.441  1.00  0.00     0.220 C 
ATOM      4  N   UNL     1      74.427  92.947  71.738  1.00  0.00    -0.352 N 
ATOM      5  H   UNL     1      75.054  93.321  71.038  1.00  0.00     0.163 HD
ATOM      6  O   UNL     1      73.156  91.114  72.236  1.00  0.00    -0.275 OA
BRANCH   4   7
ATOM      7  C   UNL     1      74.150  93.700  72.917  1.00  0.00     0.151 C 
BRANCH   7   8
ATOM      8  C   UNL     1      75.353  93.897  73.766  1.00  0.00    -0.025 A 
ATOM      9  C   UNL     1      77.713  94.545  74.010  1.00  0.00     0.160 A 
ATOM     10  C   UNL     1      77.660  94.219  75.383  1.00  0.00     0.157 A 
ATOM     11  C   UNL     1      76.564  94.373  73.211  1.00  0.00     0.056 A 
ATOM     12  C   UNL     1      76.456  93.761  75.949  1.00  0.00     0.050 A 
ATOM     13  C   UNL     1      75.308  93.611  75.149  1.00  0.00     0.009 A 
BRANCH   9  14
ATOM     14  O   UNL     1      78.854  95.074  73.467  1.00  0.00    -0.493 OA
ATOM     15  C   UNL     1      78.866  96.510  73.409  1.00  0.00     0.278 C 
ENDBRANCH   9  14
BRANCH  10  16
ATOM     16  O   UNL     1      78.751  94.343  76.179  1.00  0.00    -0.504 OA
ATOM     17  H   UNL     1      78.688  93.720  76.907  1.00  0.00     0.293 HD
ENDBRANCH  10  16
ENDBRANCH   7   8
ENDBRANCH   4   7
ENDBRANCH   2   3
ENDBRANCH   1   2
BRANCH   1  18
ATOM     18  C   UNL     1      74.717  88.975  68.809  1.00  0.00     0.001 C 
BRANCH  18  19
ATOM     19  C   UNL     1      75.856  89.595  67.961  1.00  0.00     0.004 C 
BRANCH  19  20
ATOM     20  C   UNL     1      77.216  88.896  68.239  1.00  0.00     0.027 C 
BRANCH  20  21
ATOM     21  C   UNL     1      77.209  87.471  67.956  1.00  0.00    -0.031 C 
ATOM     22  C   UNL     1      77.100  86.546  68.926  1.00  0.00    -0.028 C 
BRANCH  22  23
ATOM     23  C   UNL     1      77.084  85.107  68.675  1.00  0.00     0.005 C 
ATOM     24  C   UNL     1      75.914  84.439  69.445  1.00  0.00     0.012 C 
ATOM     25  C   UNL     1      77.019  84.830  67.148  1.00  0.00     0.012 C 
ENDBRANCH  22  23
ENDBRANCH  20  21
ENDBRANCH  19  20
ENDBRANCH  18  19
ENDBRANCH   1  18
TORSDOF 11
ENDMDL
MODEL 2
REMARK VINA RESULT:    -5.877      4.455     10.843
REMARK INTER + INTRA:         -10.215
REMARK INTER:                  -9.317
REMARK INTRA:                  -0.898
REMARK UNBOUND:                -0.730
REMARK SMILES COc1cc(CNC(=O)CCCCC/C=C/C(C)C)ccc1O
REMARK SMILES IDX 11 1 10 2 8 3 7 4 9 6 6 7 5 8 3 9 22 10 4 11 21 12 20 13
REMARK SMILES IDX 2 14 1 15 23 16 12 18 13 19 14 20 15 21 16 22 17 23 18 24
REMARK SMILES IDX 19 25
REMARK H PARENT 7 5 23 17
REMARK Flexibility Score: inf
ROOT
ATOM      1  C   UNL     1      76.514  88.986  67.233  1.00  0.00     0.010 C 
ENDROOT
BRANCH   1   2
ATOM      2  C   UNL     1      77.293  88.214  68.328  1.00  0.00     0.100 C 
BRANCH   2   3
ATOM      3  C   UNL     1      77.087  86.754  68.295  1.00  0.00     0.220 C 
ATOM      4  N   UNL     1      77.501  86.035  67.215  1.00  0.00    -0.352 N 
ATOM      5  H   UNL     1      77.869  86.591  66.455  1.00  0.00     0.163 HD
ATOM      6  O   UNL     1      76.566  86.203  69.294  1.00  0.00    -0.275 OA
BRANCH   4   7
ATOM      7  C   UNL     1      77.451  84.615  67.096  1.00  0.00     0.151 C 
BRANCH   7   8
ATOM      8  C   UNL     1      76.443  84.159  66.103  1.00  0.00    -0.025 A 
ATOM      9  C   UNL     1      74.101  83.763  65.465  1.00  0.00     0.160 A 
ATOM     10  C   UNL     1      74.529  83.238  64.226  1.00  0.00     0.157 A 
ATOM     11  C   UNL     1      75.060  84.210  66.396  1.00  0.00     0.056 A 
ATOM     12  C   UNL     1      75.901  83.197  63.917  1.00  0.00     0.050 A 
ATOM     13  C   UNL     1      76.851  83.664  64.844  1.00  0.00     0.009 A 
BRANCH   9  14
ATOM     14  O   UNL     1      72.766  83.887  65.740  1.00  0.00    -0.493 OA
ATOM     15  C   UNL     1      72.446  84.980  66.617  1.00  0.00     0.278 C 
ENDBRANCH   9  14
BRANCH  10  16
ATOM     16  O   UNL     1      73.640  82.770  63.314  1.00  0.00    -0.504 OA
ATOM     17  H   UNL     1      73.272  83.507  62.820  1.00  0.00     0.293 HD
ENDBRANCH  10  16
ENDBRANCH   7   8
ENDBRANCH   4   7
ENDBRANCH   2   3
ENDBRANCH   1   2
BRANCH   1  18
ATOM     18  C   UNL     1      75.392  89.858  67.853  1.00  0.00     0.001 C 
BRANCH  18  19
ATOM     19  C   UNL     1      75.382  89.851  69.402  1.00  0.00     0.004 C 
BRANCH  19  20
ATOM     20  C   UNL     1      73.952  89.603  69.959  1.00  0.00     0.027 C 
BRANCH  20  21
ATOM     21  C   UNL     1      73.645  90.380  71.147  1.00  0.00    -0.031 C 
ATOM     22  C   UNL     1      74.124  91.622  71.338  1.00  0.00    -0.028 C 
BRANCH  22  23
ATOM     23  C   UNL     1      73.830  92.431  72.518  1.00  0.00     0.005 C 
ATOM     24  C   UNL     1      74.914  93.525  72.705  1.00  0.00     0.012 C 
ATOM     25  C   UNL     1      72.400  93.029  72.416  1.00  0.00     0.012 C 
ENDBRANCH  22  23
ENDBRANCH  20  21
ENDBRANCH  19  20
ENDBRANCH  18  19
ENDBRANCH   1  18
TORSDOF 11
ENDMDL
MODEL 3
REMARK VINA RESULT:    -5.845      4.956      6.828
REMARK INTER + INTRA:         -10.162
REMARK INTER:                  -8.943
REMARK INTRA:                  -1.219
REMARK UNBOUND:                -0.730
REMARK SMILES COc1cc(CNC(=O)CCCCC/C=C/C(C)C)ccc1O
REMARK SMILES IDX 11 1 10 2 8 3 7 4 9 6 6 7 5 8 3 9 22 10 4 11 21 12 20 13
REMARK SMILES IDX 2 14 1 15 23 16 12 18 13 19 14 20 15 21 16 22 17 23 18 24
REMARK SMILES IDX 19 25
REMARK H PARENT 7 5 23 17
REMARK Flexibility Score: inf
ROOT
ATOM      1  C   UNL     1      74.243  85.472  64.581  1.00  0.00     0.010 C 
ENDROOT
BRANCH   1   2
ATOM      2  C   UNL     1      75.009  86.818  64.507  1.00  0.00     0.100 C 
BRANCH   2   3
ATOM      3  C   UNL     1      75.485  87.311  65.813  1.00  0.00     0.220 C 
ATOM      4  N   UNL     1      76.475  88.244  65.866  1.00  0.00    -0.352 N 
ATOM      5  H   UNL     1      76.875  88.485  64.970  1.00  0.00     0.163 HD
ATOM      6  O   UNL     1      74.928  86.880  66.850  1.00  0.00    -0.275 OA
BRANCH   4   7
ATOM      7  C   UNL     1      76.960  88.873  67.051  1.00  0.00     0.151 C 
BRANCH   7   8
ATOM      8  C   UNL     1      75.924  89.700  67.724  1.00  0.00    -0.025 A 
ATOM      9  C   UNL     1      74.226  91.477  67.644  1.00  0.00     0.160 A 
ATOM     10  C   UNL     1      73.989  91.311  69.026  1.00  0.00     0.157 A 
ATOM     11  C   UNL     1      75.197  90.678  67.006  1.00  0.00     0.056 A 
ATOM     12  C   UNL     1      74.694  90.330  69.746  1.00  0.00     0.050 A 
ATOM     13  C   UNL     1      75.648  89.523  69.098  1.00  0.00     0.009 A 
BRANCH   9  14
ATOM     14  O   UNL     1      73.483  92.368  66.916  1.00  0.00    -0.493 OA
ATOM     15  C   UNL     1      74.259  93.205  66.043  1.00  0.00     0.278 C 
ENDBRANCH   9  14
BRANCH  10  16
ATOM     16  O   UNL     1      73.084  92.079  69.683  1.00  0.00    -0.504 OA
ATOM     17  H   UNL     1      73.361  92.998  69.650  1.00  0.00     0.293 HD
ENDBRANCH  10  16
ENDBRANCH   7   8
ENDBRANCH   4   7
ENDBRANCH   2   3
ENDBRANCH   1   2
BRANCH   1  18
ATOM     18  C   UNL     1      75.129  84.297  64.095  1.00  0.00     0.001 C 
BRANCH  18  19
ATOM     19  C   UNL     1      75.735  83.456  65.247  1.00  0.00     0.004 C 
BRANCH  19  20
ATOM     20  C   UNL     1      77.232  83.805  65.477  1.00  0.00     0.027 C 
BRANCH  20  21
ATOM     21  C   UNL     1      77.557  84.105  66.862  1.00  0.00    -0.031 C 
ATOM     22  C   UNL     1      76.610  84.340  67.787  1.00  0.00    -0.028 C 
BRANCH  22  23
ATOM     23  C   UNL     1      76.903  84.638  69.187  1.00  0.00     0.005 C 
ATOM     24  C   UNL     1      77.187  86.153  69.366  1.00  0.00     0.012 C 
ATOM     25  C   UNL     1      75.743  84.145  70.095  1.00  0.00     0.012 C 
ENDBRANCH  22  23
ENDBRANCH  20  21
ENDBRANCH  19  20
ENDBRANCH  18  19
ENDBRANCH   1  18
TORSDOF 11
ENDMDL
MODEL 4
REMARK VINA RESULT:    -5.687      7.402      9.580
REMARK INTER + INTRA:          -9.907
REMARK INTER:                  -7.920
REMARK INTRA:                  -1.987
REMARK UNBOUND:                -0.730
REMARK SMILES COc1cc(CNC(=O)CCCCC/C=C/C(C)C)ccc1O
REMARK SMILES IDX 11 1 10 2 8 3 7 4 9 6 6 7 5 8 3 9 22 10 4 11 21 12 20 13
REMARK SMILES IDX 2 14 1 15 23 16 12 18 13 19 14 20 15 21 16 22 17 23 18 24
REMARK SMILES IDX 19 25
REMARK H PARENT 7 5 23 17
REMARK Flexibility Score: inf
ROOT
ATOM      1  C   UNL     1      74.952  86.135  63.604  1.00  0.00     0.010 C 
ENDROOT
BRANCH   1   2
ATOM      2  C   UNL     1      75.688  87.209  64.446  1.00  0.00     0.100 C 
BRANCH   2   3
ATOM      3  C   UNL     1      74.941  87.654  65.637  1.00  0.00     0.220 C 
ATOM      4  N   UNL     1      73.963  86.863  66.158  1.00  0.00    -0.352 N 
ATOM      5  H   UNL     1      73.767  86.028  65.624  1.00  0.00     0.163 HD
ATOM      6  O   UNL     1      75.259  88.745  66.166  1.00  0.00    -0.275 OA
BRANCH   4   7
ATOM      7  C   UNL     1      73.233  87.127  67.355  1.00  0.00     0.151 C 
BRANCH   7   8
ATOM      8  C   UNL     1      72.273  86.043  67.690  1.00  0.00    -0.025 A 
ATOM      9  C   UNL     1      70.626  85.046  69.221  1.00  0.00     0.160 A 
ATOM     10  C   UNL     1      70.483  83.945  68.348  1.00  0.00     0.157 A 
ATOM     11  C   UNL     1      71.525  86.080  68.891  1.00  0.00     0.056 A 
ATOM     12  C   UNL     1      71.209  83.906  67.144  1.00  0.00     0.050 A 
ATOM     13  C   UNL     1      72.089  84.952  66.812  1.00  0.00     0.009 A 
BRANCH   9  14
ATOM     14  O   UNL     1      69.860  85.137  70.353  1.00  0.00    -0.493 OA
ATOM     15  C   UNL     1      69.127  86.368  70.469  1.00  0.00     0.278 C 
ENDBRANCH   9  14
BRANCH  10  16
ATOM     16  O   UNL     1      69.650  82.916  68.643  1.00  0.00    -0.504 OA
ATOM     17  H   UNL     1      68.743  83.176  68.463  1.00  0.00     0.293 HD
ENDBRANCH  10  16
ENDBRANCH   7   8
ENDBRANCH   4   7
ENDBRANCH   2   3
ENDBRANCH   1   2
BRANCH   1  18
ATOM     18  C   UNL     1      75.782  84.829  63.514  1.00  0.00     0.001 C 
BRANCH  18  19
ATOM     19  C   UNL     1      75.548  83.858  64.699  1.00  0.00     0.004 C 
BRANCH  19  20
ATOM     20  C   UNL     1      76.848  83.646  65.524  1.00  0.00     0.027 C 
BRANCH  20  21
ATOM     21  C   UNL     1      76.913  84.452  66.730  1.00  0.00    -0.031 C 
ATOM     22  C   UNL     1      75.946  84.428  67.665  1.00  0.00    -0.028 C 
BRANCH  22  23
ATOM     23  C   UNL     1      75.984  85.222  68.890  1.00  0.00     0.005 C 
ATOM     24  C   UNL     1      76.035  84.293  70.132  1.00  0.00     0.012 C 
ATOM     25  C   UNL     1      77.176  86.217  68.848  1.00  0.00     0.012 C 
ENDBRANCH  22  23
ENDBRANCH  20  21
ENDBRANCH  19  20
ENDBRANCH  18  19
ENDBRANCH   1  18
TORSDOF 11
ENDMDL
MODEL 5
REMARK VINA RESULT:    -5.620      7.395      9.994
REMARK INTER + INTRA:          -9.799
REMARK INTER:                  -7.846
REMARK INTRA:                  -1.953
REMARK UNBOUND:                -0.730
REMARK SMILES COc1cc(CNC(=O)CCCCC/C=C/C(C)C)ccc1O
REMARK SMILES IDX 11 1 10 2 8 3 7 4 9 6 6 7 5 8 3 9 22 10 4 11 21 12 20 13
REMARK SMILES IDX 2 14 1 15 23 16 12 18 13 19 14 20 15 21 16 22 17 23 18 24
REMARK SMILES IDX 19 25
REMARK H PARENT 7 5 23 17
REMARK Flexibility Score: inf
ROOT
ATOM      1  C   UNL     1      75.049  86.153  63.598  1.00  0.00     0.010 C 
ENDROOT
BRANCH   1   2
ATOM      2  C   UNL     1      75.715  87.249  64.470  1.00  0.00     0.100 C 
BRANCH   2   3
ATOM      3  C   UNL     1      74.898  87.679  65.621  1.00  0.00     0.220 C 
ATOM      4  N   UNL     1      73.965  86.836  66.142  1.00  0.00    -0.352 N 
ATOM      5  H   UNL     1      73.848  85.970  65.634  1.00  0.00     0.163 HD
ATOM      6  O   UNL     1      75.118  88.808  66.119  1.00  0.00    -0.275 OA
BRANCH   4   7
ATOM      7  C   UNL     1      73.179  87.086  67.307  1.00  0.00     0.151 C 
BRANCH   7   8
ATOM      8  C   UNL     1      72.253  85.968  67.623  1.00  0.00    -0.025 A 
ATOM      9  C   UNL     1      71.025  83.951  66.934  1.00  0.00     0.160 A 
ATOM     10  C   UNL     1      70.442  83.869  68.218  1.00  0.00     0.157 A 
ATOM     11  C   UNL     1      71.917  85.003  66.644  1.00  0.00     0.056 A 
ATOM     12  C   UNL     1      70.782  84.813  69.204  1.00  0.00     0.050 A 
ATOM     13  C   UNL     1      71.688  85.848  68.913  1.00  0.00     0.009 A 
BRANCH   9  14
ATOM     14  O   UNL     1      70.770  82.988  65.994  1.00  0.00    -0.493 OA
ATOM     15  C   UNL     1      71.935  82.531  65.289  1.00  0.00     0.278 C 
ENDBRANCH   9  14
BRANCH  10  16
ATOM     16  O   UNL     1      69.558  82.888  68.528  1.00  0.00    -0.504 OA
ATOM     17  H   UNL     1      70.032  82.070  68.691  1.00  0.00     0.293 HD
ENDBRANCH  10  16
ENDBRANCH   7   8
ENDBRANCH   4   7
ENDBRANCH   2   3
ENDBRANCH   1   2
BRANCH   1  18
ATOM     18  C   UNL     1      75.937  84.885  63.520  1.00  0.00     0.001 C 
BRANCH  18  19
ATOM     19  C   UNL     1      75.710  83.893  64.689  1.00  0.00     0.004 C 
BRANCH  19  20
ATOM     20  C   UNL     1      76.996  83.724  65.546  1.00  0.00     0.027 C 
BRANCH  20  21
ATOM     21  C   UNL     1      76.992  84.514  66.766  1.00  0.00    -0.031 C 
ATOM     22  C   UNL     1      75.993  84.445  67.664  1.00  0.00    -0.028 C 
BRANCH  22  23
ATOM     23  C   UNL     1      75.963  85.221  68.901  1.00  0.00     0.005 C 
ATOM     24  C   UNL     1      75.974  84.274  70.131  1.00  0.00     0.012 C 
ATOM     25  C   UNL     1      77.138  86.236  68.928  1.00  0.00     0.012 C 
ENDBRANCH  22  23
ENDBRANCH  20  21
ENDBRANCH  19  20
ENDBRANCH  18  19
ENDBRANCH   1  18
TORSDOF 11
ENDMDL
MODEL 6
REMARK VINA RESULT:    -5.557      2.828      8.689
REMARK INTER + INTRA:          -9.698
REMARK INTER:                  -8.689
REMARK INTRA:                  -1.009
REMARK UNBOUND:                -0.730
REMARK SMILES COc1cc(CNC(=O)CCCCC/C=C/C(C)C)ccc1O
REMARK SMILES IDX 11 1 10 2 8 3 7 4 9 6 6 7 5 8 3 9 22 10 4 11 21 12 20 13
REMARK SMILES IDX 2 14 1 15 23 16 12 18 13 19 14 20 15 21 16 22 17 23 18 24
REMARK SMILES IDX 19 25
REMARK H PARENT 7 5 23 17
REMARK Flexibility Score: inf
ROOT
ATOM      1  C   UNL     1      74.960  94.306  72.118  1.00  0.00     0.010 C 
ENDROOT
BRANCH   1   2
ATOM      2  C   UNL     1      74.514  92.825  72.230  1.00  0.00     0.100 C 
BRANCH   2   3
ATOM      3  C   UNL     1      74.185  92.199  70.937  1.00  0.00     0.220 C 
ATOM      4  N   UNL     1      74.288  90.849  70.791  1.00  0.00    -0.352 N 
ATOM      5  H   UNL     1      74.668  90.366  71.594  1.00  0.00     0.163 HD
ATOM      6  O   UNL     1      73.774  92.932  70.007  1.00  0.00    -0.275 OA
BRANCH   4   7
ATOM      7  C   UNL     1      73.911  90.107  69.632  1.00  0.00     0.151 C 
BRANCH   7   8
ATOM      8  C   UNL     1      74.952  89.134  69.212  1.00  0.00    -0.025 A 
ATOM      9  C   UNL     1      75.678  86.815  68.831  1.00  0.00     0.160 A 
ATOM     10  C   UNL     1      76.960  87.279  68.460  1.00  0.00     0.157 A 
ATOM     11  C   UNL     1      74.689  87.744  69.212  1.00  0.00     0.056 A 
ATOM     12  C   UNL     1      77.227  88.660  68.440  1.00  0.00     0.050 A 
ATOM     13  C   UNL     1      76.228  89.581  68.803  1.00  0.00     0.009 A 
BRANCH   9  14
ATOM     14  O   UNL     1      75.381  85.480  68.770  1.00  0.00    -0.493 OA
ATOM     15  C   UNL     1      74.387  85.143  67.787  1.00  0.00     0.278 C 
ENDBRANCH   9  14
BRANCH  10  16
ATOM     16  O   UNL     1      77.948  86.416  68.114  1.00  0.00    -0.504 OA
ATOM     17  H   UNL     1      77.989  86.344  67.157  1.00  0.00     0.293 HD
ENDBRANCH  10  16
ENDBRANCH   7   8
ENDBRANCH   4   7
ENDBRANCH   2   3
ENDBRANCH   1   2
BRANCH   1  18
ATOM     18  C   UNL     1      75.451  94.847  73.486  1.00  0.00     0.001 C 
BRANCH  18  19
ATOM     19  C   UNL     1      76.788  94.223  73.959  1.00  0.00     0.004 C 
BRANCH  19  20
ATOM     20  C   UNL     1      76.661  93.630  75.390  1.00  0.00     0.027 C 
BRANCH  20  21
ATOM     21  C   UNL     1      75.289  93.507  75.853  1.00  0.00    -0.031 C 
ATOM     22  C   UNL     1      74.740  92.321  76.168  1.00  0.00    -0.028 C 
BRANCH  22  23
ATOM     23  C   UNL     1      73.366  92.165  76.640  1.00  0.00     0.005 C 
ATOM     24  C   UNL     1      72.732  90.885  76.035  1.00  0.00     0.012 C 
ATOM     25  C   UNL     1      73.330  92.165  78.193  1.00  0.00     0.012 C 
ENDBRANCH  22  23
ENDBRANCH  20  21
ENDBRANCH  19  20
ENDBRANCH  18  19
ENDBRANCH   1  18
TORSDOF 11
ENDMDL
MODEL 7
REMARK VINA RESULT:    -5.469     24.128     26.078
REMARK INTER + INTRA:          -9.555
REMARK INTER:                  -8.206
REMARK INTRA:                  -1.349
REMARK UNBOUND:                -0.730
REMARK SMILES COc1cc(CNC(=O)CCCCC/C=C/C(C)C)ccc1O
REMARK SMILES IDX 11 1 10 2 8 3 7 4 9 6 6 7 5 8 3 9 22 10 4 11 21 12 20 13
REMARK SMILES IDX 2 14 1 15 23 16 12 18 13 19 14 20 15 21 16 22 17 23 18 24
REMARK SMILES IDX 19 25
REMARK H PARENT 7 5 23 17
REMARK Flexibility Score: inf
ROOT
ATOM      1  C   UNL     1     101.209  78.762  80.703  1.00  0.00     0.010 C 
ENDROOT
BRANCH   1   2
ATOM      2  C   UNL     1     101.236  80.111  79.939  1.00  0.00     0.100 C 
BRANCH   2   3
ATOM      3  C   UNL     1     100.722  80.029  78.559  1.00  0.00     0.220 C 
ATOM      4  N   UNL     1      99.505  80.559  78.256  1.00  0.00    -0.352 N 
ATOM      5  H   UNL     1      98.993  80.920  79.049  1.00  0.00     0.163 HD
ATOM      6  O   UNL     1     101.449  79.503  77.683  1.00  0.00    -0.275 OA
BRANCH   4   7
ATOM      7  C   UNL     1      98.935  80.634  76.950  1.00  0.00     0.151 C 
BRANCH   7   8
ATOM      8  C   UNL     1      98.259  81.933  76.695  1.00  0.00    -0.025 A 
ATOM      9  C   UNL     1      97.996  83.977  75.354  1.00  0.00     0.160 A 
ATOM     10  C   UNL     1      97.002  84.434  76.246  1.00  0.00     0.157 A 
ATOM     11  C   UNL     1      98.622  82.736  75.589  1.00  0.00     0.056 A 
ATOM     12  C   UNL     1      96.620  83.636  77.340  1.00  0.00     0.050 A 
ATOM     13  C   UNL     1      97.236  82.389  77.557  1.00  0.00     0.009 A 
BRANCH   9  14
ATOM     14  O   UNL     1      98.312  84.706  74.238  1.00  0.00    -0.493 OA
ATOM     15  C   UNL     1      98.453  83.919  73.043  1.00  0.00     0.278 C 
ENDBRANCH   9  14
BRANCH  10  16
ATOM     16  O   UNL     1      96.395  85.635  76.071  1.00  0.00    -0.504 OA
ATOM     17  H   UNL     1      96.759  86.066  75.294  1.00  0.00     0.293 HD
ENDBRANCH  10  16
ENDBRANCH   7   8
ENDBRANCH   4   7
ENDBRANCH   2   3
ENDBRANCH   1   2
BRANCH   1  18
ATOM     18  C   UNL     1      99.889  78.596  81.497  1.00  0.00     0.001 C 
BRANCH  18  19
ATOM     19  C   UNL     1      98.761  77.900  80.694  1.00  0.00     0.004 C 
BRANCH  19  20
ATOM     20  C   UNL     1      97.411  78.656  80.842  1.00  0.00     0.027 C 
BRANCH  20  21
ATOM     21  C   UNL     1      97.561  80.058  81.190  1.00  0.00    -0.031 C 
ATOM     22  C   UNL     1      96.729  80.680  82.045  1.00  0.00    -0.028 C 
BRANCH  22  23
ATOM     23  C   UNL     1      96.856  82.086  82.420  1.00  0.00     0.005 C 
ATOM     24  C   UNL     1      96.911  82.978  81.151  1.00  0.00     0.012 C 
ATOM     25  C   UNL     1      95.704  82.492  83.377  1.00  0.00     0.012 C 
ENDBRANCH  22  23
ENDBRANCH  20  21
ENDBRANCH  19  20
ENDBRANCH  18  19
ENDBRANCH   1  18
TORSDOF 11
ENDMDL
MODEL 8
REMARK VINA RESULT:    -5.373     18.099     21.789
REMARK INTER + INTRA:          -9.401
REMARK INTER:                  -8.663
REMARK INTRA:                  -0.738
REMARK UNBOUND:                -0.730
REMARK SMILES COc1cc(CNC(=O)CCCCC/C=C/C(C)C)ccc1O
REMARK SMILES IDX 11 1 10 2 8 3 7 4 9 6 6 7 5 8 3 9 22 10 4 11 21 12 20 13
REMARK SMILES IDX 2 14 1 15 23 16 12 18 13 19 14 20 15 21 16 22 17 23 18 24
REMARK SMILES IDX 19 25
REMARK H PARENT 7 5 23 17
REMARK Flexibility Score: inf
ROOT
ATOM      1  C   UNL     1      94.810  97.817  78.440  1.00  0.00     0.010 C 
ENDROOT
BRANCH   1   2
ATOM      2  C   UNL     1      95.890  96.753  78.763  1.00  0.00     0.100 C 
BRANCH   2   3
ATOM      3  C   UNL     1      96.432  96.844  80.132  1.00  0.00     0.220 C 
ATOM      4  N   UNL     1      96.105  97.904  80.921  1.00  0.00    -0.352 N 
ATOM      5  H   UNL     1      95.550  98.615  80.464  1.00  0.00     0.163 HD
ATOM      6  O   UNL     1      97.155  95.909  80.549  1.00  0.00    -0.275 OA
BRANCH   4   7
ATOM      7  C   UNL     1      96.479  98.067  82.288  1.00  0.00     0.151 C 
BRANCH   7   8
ATOM      8  C   UNL     1      96.618  99.494  82.677  1.00  0.00    -0.025 A 
ATOM      9  C   UNL     1      95.618 101.607  83.442  1.00  0.00     0.160 A 
ATOM     10  C   UNL     1      96.882 102.231  83.367  1.00  0.00     0.157 A 
ATOM     11  C   UNL     1      95.494 100.248  83.088  1.00  0.00     0.056 A 
ATOM     12  C   UNL     1      98.010 101.487  82.976  1.00  0.00     0.050 A 
ATOM     13  C   UNL     1      97.881 100.126  82.644  1.00  0.00     0.009 A 
BRANCH   9  14
ATOM     14  O   UNL     1      94.530 102.299  83.905  1.00  0.00    -0.493 OA
ATOM     15  C   UNL     1      93.689 102.834  82.869  1.00  0.00     0.278 C 
ENDBRANCH   9  14
BRANCH  10  16
ATOM     16  O   UNL     1      97.039 103.544  83.671  1.00  0.00    -0.504 OA
ATOM     17  H   UNL     1      97.915 103.832  83.402  1.00  0.00     0.293 HD
ENDBRANCH  10  16
ENDBRANCH   7   8
ENDBRANCH   4   7
ENDBRANCH   2   3
ENDBRANCH   1   2
BRANCH   1  18
ATOM     18  C   UNL     1      93.995  97.423  77.181  1.00  0.00     0.001 C 
BRANCH  18  19
ATOM     19  C   UNL     1      93.752  95.899  77.049  1.00  0.00     0.004 C 
BRANCH  19  20
ATOM     20  C   UNL     1      93.552  95.483  75.564  1.00  0.00     0.027 C 
BRANCH  20  21
ATOM     21  C   UNL     1      92.260  94.876  75.296  1.00  0.00    -0.031 C 
ATOM     22  C   UNL     1      91.252  94.907  76.186  1.00  0.00    -0.028 C 
BRANCH  22  23
ATOM     23  C   UNL     1      89.941  94.310  75.945  1.00  0.00     0.005 C 
ATOM     24  C   UNL     1      89.848  93.787  74.487  1.00  0.00     0.012 C 
ATOM     25  C   UNL     1      89.656  93.198  76.991  1.00  0.00     0.012 C 
ENDBRANCH  22  23
ENDBRANCH  20  21
ENDBRANCH  19  20
ENDBRANCH  18  19
ENDBRANCH   1  18
TORSDOF 11
ENDMDL
MODEL 9
REMARK VINA RESULT:    -5.210     20.787     24.202
REMARK INTER + INTRA:          -9.137
REMARK INTER:                  -8.530
REMARK INTRA:                  -0.607
REMARK UNBOUND:                -0.730
REMARK SMILES COc1cc(CNC(=O)CCCCC/C=C/C(C)C)ccc1O
REMARK SMILES IDX 11 1 10 2 8 3 7 4 9 6 6 7 5 8 3 9 22 10 4 11 21 12 20 13
REMARK SMILES IDX 2 14 1 15 23 16 12 18 13 19 14 20 15 21 16 22 17 23 18 24
REMARK SMILES IDX 19 25
REMARK H PARENT 7 5 23 17
REMARK Flexibility Score: inf
ROOT
ATOM      1  C   UNL     1      96.125  97.262  79.542  1.00  0.00     0.010 C 
ENDROOT
BRANCH   1   2
ATOM      2  C   UNL     1      97.221  96.311  80.087  1.00  0.00     0.100 C 
BRANCH   2   3
ATOM      3  C   UNL     1      97.530  96.507  81.516  1.00  0.00     0.220 C 
ATOM      4  N   UNL     1      97.961  97.722  81.956  1.00  0.00    -0.352 N 
ATOM      5  H   UNL     1      98.110  98.405  81.226  1.00  0.00     0.163 HD
ATOM      6  O   UNL     1      97.347  95.548  82.302  1.00  0.00    -0.275 OA
BRANCH   4   7
ATOM      7  C   UNL     1      98.201  98.074  83.317  1.00  0.00     0.151 C 
BRANCH   7   8
ATOM      8  C   UNL     1      99.570  97.715  83.768  1.00  0.00    -0.025 A 
ATOM      9  C   UNL     1     101.074  96.675  85.413  1.00  0.00     0.160 A 
ATOM     10  C   UNL     1     102.189  97.080  84.648  1.00  0.00     0.157 A 
ATOM     11  C   UNL     1      99.775  97.003  84.973  1.00  0.00     0.056 A 
ATOM     12  C   UNL     1     101.997  97.773  83.440  1.00  0.00     0.050 A 
ATOM     13  C   UNL     1     100.697  98.080  82.997  1.00  0.00     0.009 A 
BRANCH   9  14
ATOM     14  O   UNL     1     101.246  95.924  86.546  1.00  0.00    -0.493 OA
ATOM     15  C   UNL     1     101.227  96.685  87.765  1.00  0.00     0.278 C 
ENDBRANCH   9  14
BRANCH  10  16
ATOM     16  O   UNL     1     103.456  96.809  85.052  1.00  0.00    -0.504 OA
ATOM     17  H   UNL     1     103.647  95.880  84.903  1.00  0.00     0.293 HD
ENDBRANCH  10  16
ENDBRANCH   7   8
ENDBRANCH   4   7
ENDBRANCH   2   3
ENDBRANCH   1   2
BRANCH   1  18
ATOM     18  C   UNL     1      95.554  96.745  78.197  1.00  0.00     0.001 C 
BRANCH  18  19
ATOM     19  C   UNL     1      94.357  95.774  78.360  1.00  0.00     0.004 C 
BRANCH  19  20
ATOM     20  C   UNL     1      94.017  95.064  77.020  1.00  0.00     0.027 C 
BRANCH  20  21
ATOM     21  C   UNL     1      92.594  95.017  76.729  1.00  0.00    -0.031 C 
ATOM     22  C   UNL     1      92.110  94.468  75.601  1.00  0.00    -0.028 C 
BRANCH  22  23
ATOM     23  C   UNL     1      90.686  94.400  75.281  1.00  0.00     0.005 C 
ATOM     24  C   UNL     1      90.353  93.051  74.590  1.00  0.00     0.012 C 
ATOM     25  C   UNL     1      89.837  94.633  76.560  1.00  0.00     0.012 C 
ENDBRANCH  22  23
ENDBRANCH  20  21
ENDBRANCH  19  20
ENDBRANCH  18  19
ENDBRANCH   1  18
TORSDOF 11
ENDMDL
MODEL 10
REMARK VINA RESULT:    -5.134     23.285     24.926
REMARK INTER + INTRA:          -9.016
REMARK INTER:                  -8.029
REMARK INTRA:                  -0.986
REMARK UNBOUND:                -0.730
REMARK SMILES COc1cc(CNC(=O)CCCCC/C=C/C(C)C)ccc1O
REMARK SMILES IDX 11 1 10 2 8 3 7 4 9 6 6 7 5 8 3 9 22 10 4 11 21 12 20 13
REMARK SMILES IDX 2 14 1 15 23 16 12 18 13 19 14 20 15 21 16 22 17 23 18 24
REMARK SMILES IDX 19 25
REMARK H PARENT 7 5 23 17
REMARK Flexibility Score: inf
ROOT
ATOM      1  C   UNL     1      96.949  79.985  81.501  1.00  0.00     0.010 C 
ENDROOT
BRANCH   1   2
ATOM      2  C   UNL     1      96.640  78.908  82.573  1.00  0.00     0.100 C 
BRANCH   2   3
ATOM      3  C   UNL     1      96.220  79.459  83.875  1.00  0.00     0.220 C 
ATOM      4  N   UNL     1      96.547  80.739  84.206  1.00  0.00    -0.352 N 
ATOM      5  H   UNL     1      97.140  81.209  83.536  1.00  0.00     0.163 HD
ATOM      6  O   UNL     1      95.529  78.738  84.633  1.00  0.00    -0.275 OA
BRANCH   4   7
ATOM      7  C   UNL     1      96.124  81.425  85.384  1.00  0.00     0.151 C 
BRANCH   7   8
ATOM      8  C   UNL     1      95.709  82.826  85.112  1.00  0.00    -0.025 A 
ATOM      9  C   UNL     1      94.186  84.717  85.503  1.00  0.00     0.160 A 
ATOM     10  C   UNL     1      94.892  85.481  84.548  1.00  0.00     0.157 A 
ATOM     11  C   UNL     1      94.594  83.394  85.771  1.00  0.00     0.056 A 
ATOM     12  C   UNL     1      96.012  84.932  83.899  1.00  0.00     0.050 A 
ATOM     13  C   UNL     1      96.425  83.618  84.186  1.00  0.00     0.009 A 
BRANCH   9  14
ATOM     14  O   UNL     1      93.148  85.271  86.204  1.00  0.00    -0.493 OA
ATOM     15  C   UNL     1      93.344  85.290  87.627  1.00  0.00     0.278 C 
ENDBRANCH   9  14
BRANCH  10  16
ATOM     16  O   UNL     1      94.514  86.748  84.240  1.00  0.00    -0.504 OA
ATOM     17  H   UNL     1      95.104  87.103  83.570  1.00  0.00     0.293 HD
ENDBRANCH  10  16
ENDBRANCH   7   8
ENDBRANCH   4   7
ENDBRANCH   2   3
ENDBRANCH   1   2
BRANCH   1  18
ATOM     18  C   UNL     1      98.460  80.012  81.155  1.00  0.00     0.001 C 
BRANCH  18  19
ATOM     19  C   UNL     1      98.751  79.946  79.634  1.00  0.00     0.004 C 
BRANCH  19  20
ATOM     20  C   UNL     1      99.551  81.191  79.157  1.00  0.00     0.027 C 
BRANCH  20  21
ATOM     21  C   UNL     1      98.716  82.250  78.617  1.00  0.00    -0.031 C 
ATOM     22  C   UNL     1      97.722  82.008  77.744  1.00  0.00    -0.028 C 
BRANCH  22  23
ATOM     23  C   UNL     1      96.862  83.049  77.188  1.00  0.00     0.005 C 
ATOM     24  C   UNL     1      96.162  83.835  78.329  1.00  0.00     0.012 C 
ATOM     25  C   UNL     1      97.680  83.976  76.249  1.00  0.00     0.012 C 
ENDBRANCH  22  23
ENDBRANCH  20  21
ENDBRANCH  19  20
ENDBRANCH  18  19
ENDBRANCH   1  18
TORSDOF 11
ENDMDL
