MODEL 1
REMARK VINA RESULT:    -7.473      0.000      0.000
REMARK INTER + INTRA:         -12.811
REMARK INTER:                 -12.716
REMARK INTRA:                  -0.095
REMARK UNBOUND:                -0.095
REMARK SMILES C=C(C)[C@]12C[C@@H](C)[C@@]34O[C@](Cc5ccccc5)(O[C@@H]1[C@@H]3C=C(COC(=O)Cc1ccc(O)cc1)C[C@]1(O)C(=O)C(C)=C[C@@H]41)O2
REMARK SMILES IDX 23 1 22 2 21 3 20 4 9 5 8 6 10 7 6 8 18 10 44 11 19 12 5 13
REMARK SMILES IDX 7 14 4 15 11 16 12 17 13 18 17 19 14 20 16 21 15 22 2 23
REMARK SMILES IDX 3 24 1 25 35 26 36 27 43 28 38 29 42 30 39 32 40 33 41 34
REMARK SMILES IDX 37 35 24 37 25 38 26 39 27 40 28 41 29 42 34 43 30 44 33 45
REMARK SMILES IDX 31 46 32 47
REMARK H PARENT 37 36 32 48
REMARK Flexibility Score: 90.00
ROOT
ATOM      1  C   UNL     1      92.500  79.653  86.056  1.00  0.00     0.264 C 
ENDROOT
BRANCH   1   2
ATOM      2  C   UNL     1      93.964  79.565  85.690  1.00  0.00    -0.033 C 
ATOM      3  C   UNL     1      94.426  80.283  84.646  1.00  0.00    -0.015 C 
BRANCH   3   4
ATOM      4  C   UNL     1      95.818  80.312  84.035  1.00  0.00     0.078 C 
ATOM      5  O   UNL     1      97.052  82.148  85.139  1.00  0.00    -0.319 OA
ATOM      6  C   UNL     1      97.032  80.698  84.957  1.00  0.00     0.095 CG0
ATOM      7  C   UNL     1      96.794  82.922  83.951  1.00  0.00     0.289 C 
ATOM      8  C   UNL     1      98.359  80.245  84.218  1.00  0.00     0.023 C 
ATOM      9  G   UNL     1      96.840  80.129  86.393  1.00  0.00     0.000 G0
ATOM     10  O   UNL     1      95.535  82.584  83.377  1.00  0.00    -0.320 OA
ATOM     11  O   UNL     1      97.760  82.684  82.930  1.00  0.00    -0.313 OA
ATOM     12  C   UNL     1      95.845  81.290  82.835  1.00  0.00     0.170 C 
ATOM     13  C   UNL     1      98.220  80.364  82.669  1.00  0.00     0.049 C 
ATOM     14  C   UNL     1      99.644  80.959  84.671  1.00  0.00     0.011 C 
ATOM     15  C   UNL     1      97.273  81.497  82.271  1.00  0.00     0.122 C 
BRANCH   7  16
ATOM     16  C   UNL     1      96.809  84.390  84.328  1.00  0.00     0.135 C 
BRANCH  16  17
ATOM     17  C   UNL     1      95.558  84.798  85.065  1.00  0.00    -0.040 A 
ATOM     18  C   UNL     1      94.956  86.026  84.792  1.00  0.00     0.004 A 
ATOM     19  C   UNL     1      95.003  83.946  86.020  1.00  0.00     0.004 A 
ATOM     20  C   UNL     1      93.799  86.403  85.473  1.00  0.00     0.000 A 
ATOM     21  C   UNL     1      93.845  84.323  86.701  1.00  0.00     0.000 A 
ATOM     22  C   UNL     1      93.244  85.551  86.428  1.00  0.00     0.000 A 
ENDBRANCH  16  17
ENDBRANCH   7  16
BRANCH  15  23
ATOM     23  C   UNL     1      97.264  81.747  80.798  1.00  0.00    -0.046 C 
ATOM     24  C   UNL     1      97.461  80.545  79.922  1.00  0.00     0.042 C 
ATOM     25  C   UNL     1      97.090  82.975  80.288  1.00  0.00     0.010 C 
ENDBRANCH  15  23
ENDBRANCH   3   4
BRANCH   2  26
ATOM     26  C   UNL     1      94.751  78.639  86.598  1.00  0.00     0.078 C 
BRANCH  26  27
ATOM     27  C   UNL     1      96.273  78.670  86.477  1.00  0.00     0.140 C 
ATOM     28  C   UNL     1      96.823  80.109  86.395  1.00  0.00     0.086 CG0
ATOM     29  C   UNL     1      96.964  78.127  87.710  1.00  0.00     0.190 C 
ATOM     30  C   UNL     1      97.977  80.098  87.358  1.00  0.00    -0.010 C 
ATOM     31  G   UNL     1      97.028  80.685  84.964  1.00  0.00     0.000 G0
ATOM     32  O   UNL     1      96.693  77.074  88.268  1.00  0.00    -0.291 OA
ATOM     33  C   UNL     1      98.068  79.011  88.131  1.00  0.00    -0.008 C 
ATOM     34  C   UNL     1      99.009  78.698  89.226  1.00  0.00     0.048 C 
BRANCH  27  35
ATOM     35  O   UNL     1      96.727  77.824  85.434  1.00  0.00    -0.381 OA
ATOM     36  H   UNL     1      96.219  78.027  84.631  1.00  0.00     0.212 HD
ENDBRANCH  27  35
ENDBRANCH  26  27
ENDBRANCH   2  26
ENDBRANCH   1   2
BRANCH   1  37
ATOM     37  O   UNL     1      91.936  80.797  85.452  1.00  0.00    -0.461 OA
BRANCH  37  38
ATOM     38  C   UNL     1      91.112  80.571  84.374  1.00  0.00     0.310 C 
ATOM     39  O   UNL     1      91.433  80.717  83.202  1.00  0.00    -0.252 OA
BRANCH  38  40
ATOM     40  C   UNL     1      89.757  80.117  84.861  1.00  0.00     0.158 C 
BRANCH  40  41
ATOM     41  C   UNL     1      88.625  80.935  84.297  1.00  0.00    -0.037 A 
ATOM     42  C   UNL     1      88.461  82.264  84.689  1.00  0.00     0.008 A 
ATOM     43  C   UNL     1      87.739  80.364  83.383  1.00  0.00     0.008 A 
ATOM     44  C   UNL     1      87.412  83.021  84.167  1.00  0.00     0.046 A 
ATOM     45  C   UNL     1      86.690  81.121  82.861  1.00  0.00     0.046 A 
ATOM     46  C   UNL     1      86.527  82.449  83.253  1.00  0.00     0.115 A 
BRANCH  46  47
ATOM     47  O   UNL     1      85.503  83.188  82.745  1.00  0.00    -0.508 OA
ATOM     48  H   UNL     1      85.870  83.880  82.167  1.00  0.00     0.293 HD
ENDBRANCH  46  47
ENDBRANCH  40  41
ENDBRANCH  38  40
ENDBRANCH  37  38
ENDBRANCH   1  37
TORSDOF 10
ENDMDL
MODEL 2
REMARK VINA RESULT:    -7.390      2.753      5.348
REMARK INTER + INTRA:         -12.669
REMARK INTER:                 -11.107
REMARK INTRA:                  -1.562
REMARK UNBOUND:                -0.095
REMARK SMILES C=C(C)[C@]12C[C@@H](C)[C@@]34O[C@](Cc5ccccc5)(O[C@@H]1[C@@H]3C=C(COC(=O)Cc1ccc(O)cc1)C[C@]1(O)C(=O)C(C)=C[C@@H]41)O2
REMARK SMILES IDX 23 1 22 2 21 3 20 4 9 5 8 6 10 7 6 8 18 10 44 11 19 12 5 13
REMARK SMILES IDX 7 14 4 15 11 16 12 17 13 18 17 19 14 20 16 21 15 22 2 23
REMARK SMILES IDX 3 24 1 25 35 26 36 27 43 28 38 29 42 30 39 32 40 33 41 34
REMARK SMILES IDX 37 35 24 37 25 38 26 39 27 40 28 41 29 42 34 43 30 44 33 45
REMARK SMILES IDX 31 46 32 47
REMARK H PARENT 37 36 32 48
REMARK Flexibility Score: 90.00
ROOT
ATOM      1  C   UNL     1      94.090  83.692  85.048  1.00  0.00     0.264 C 
ENDROOT
BRANCH   1   2
ATOM      2  C   UNL     1      95.194  82.667  85.164  1.00  0.00    -0.033 C 
ATOM      3  C   UNL     1      95.496  81.900  84.096  1.00  0.00    -0.015 C 
BRANCH   3   4
ATOM      4  C   UNL     1      96.496  80.761  83.977  1.00  0.00     0.078 C 
ATOM      5  O   UNL     1      98.621  81.749  83.186  1.00  0.00    -0.319 OA
ATOM      6  C   UNL     1      98.005  81.052  84.314  1.00  0.00     0.095 CG0
ATOM      7  C   UNL     1      98.275  81.238  81.885  1.00  0.00     0.289 C 
ATOM      8  C   UNL     1      98.727  79.658  84.526  1.00  0.00     0.023 C 
ATOM      9  G   UNL     1      98.124  82.054  85.500  1.00  0.00     0.000 G0
ATOM     10  O   UNL     1      96.866  81.261  81.678  1.00  0.00    -0.320 OA
ATOM     11  O   UNL     1      98.668  79.878  81.713  1.00  0.00    -0.313 OA
ATOM     12  C   UNL     1      96.468  80.184  82.541  1.00  0.00     0.170 C 
ATOM     13  C   UNL     1      98.116  78.553  83.611  1.00  0.00     0.049 C 
ATOM     14  C   UNL     1     100.256  79.672  84.358  1.00  0.00     0.011 C 
ATOM     15  C   UNL     1      97.581  79.134  82.302  1.00  0.00     0.122 C 
BRANCH   7  16
ATOM     16  C   UNL     1      98.961  82.097  80.840  1.00  0.00     0.135 C 
BRANCH  16  17
ATOM     17  C   UNL     1     100.295  81.527  80.426  1.00  0.00    -0.040 A 
ATOM     18  C   UNL     1     100.528  81.194  79.093  1.00  0.00     0.004 A 
ATOM     19  C   UNL     1     101.295  81.335  81.379  1.00  0.00     0.004 A 
ATOM     20  C   UNL     1     101.763  80.668  78.710  1.00  0.00     0.000 A 
ATOM     21  C   UNL     1     102.530  80.809  80.996  1.00  0.00     0.000 A 
ATOM     22  C   UNL     1     102.763  80.476  79.662  1.00  0.00     0.000 A 
ENDBRANCH  16  17
ENDBRANCH   7  16
BRANCH  15  23
ATOM     23  C   UNL     1      97.158  78.077  81.335  1.00  0.00    -0.046 C 
ATOM     24  C   UNL     1      96.372  76.934  81.906  1.00  0.00     0.042 C 
ATOM     25  C   UNL     1      97.463  78.145  80.031  1.00  0.00     0.010 C 
ENDBRANCH  15  23
ENDBRANCH   3   4
BRANCH   2  26
ATOM     26  C   UNL     1      95.847  82.647  86.533  1.00  0.00     0.078 C 
BRANCH  26  27
ATOM     27  C   UNL     1      97.136  81.841  86.680  1.00  0.00     0.140 C 
ATOM     28  C   UNL     1      98.103  82.068  85.499  1.00  0.00     0.086 CG0
ATOM     29  C   UNL     1      97.964  82.284  87.867  1.00  0.00     0.190 C 
ATOM     30  C   UNL     1      99.432  82.280  86.170  1.00  0.00    -0.010 C 
ATOM     31  G   UNL     1      97.996  81.056  84.321  1.00  0.00     0.000 G0
ATOM     32  O   UNL     1      97.542  82.451  89.002  1.00  0.00    -0.291 OA
ATOM     33  C   UNL     1      99.384  82.433  87.497  1.00  0.00    -0.008 C 
ATOM     34  C   UNL     1     100.464  82.736  88.459  1.00  0.00     0.048 C 
BRANCH  27  35
ATOM     35  O   UNL     1      96.867  80.475  86.945  1.00  0.00    -0.381 OA
ATOM     36  H   UNL     1      96.949  80.327  87.902  1.00  0.00     0.212 HD
ENDBRANCH  27  35
ENDBRANCH  26  27
ENDBRANCH   2  26
ENDBRANCH   1   2
BRANCH   1  37
ATOM     37  O   UNL     1      93.008  83.309  85.870  1.00  0.00    -0.461 OA
BRANCH  37  38
ATOM     38  C   UNL     1      92.166  82.348  85.358  1.00  0.00     0.310 C 
ATOM     39  O   UNL     1      91.504  82.467  84.338  1.00  0.00    -0.252 OA
BRANCH  38  40
ATOM     40  C   UNL     1      92.190  81.130  86.251  1.00  0.00     0.158 C 
BRANCH  40  41
ATOM     41  C   UNL     1      92.424  79.850  85.492  1.00  0.00    -0.037 A 
ATOM     42  C   UNL     1      91.392  79.286  84.741  1.00  0.00     0.008 A 
ATOM     43  C   UNL     1      93.671  79.228  85.540  1.00  0.00     0.008 A 
ATOM     44  C   UNL     1      91.608  78.100  84.039  1.00  0.00     0.046 A 
ATOM     45  C   UNL     1      93.888  78.042  84.838  1.00  0.00     0.046 A 
ATOM     46  C   UNL     1      92.857  77.478  84.087  1.00  0.00     0.115 A 
BRANCH  46  47
ATOM     47  O   UNL     1      93.067  76.321  83.403  1.00  0.00    -0.508 OA
ATOM     48  H   UNL     1      94.018  76.115  83.415  1.00  0.00     0.293 HD
ENDBRANCH  46  47
ENDBRANCH  40  41
ENDBRANCH  38  40
ENDBRANCH  37  38
ENDBRANCH   1  37
TORSDOF 10
ENDMDL
MODEL 3
REMARK VINA RESULT:    -7.020      2.745      3.999
REMARK INTER + INTRA:         -12.039
REMARK INTER:                 -10.675
REMARK INTRA:                  -1.364
REMARK UNBOUND:                -0.095
REMARK SMILES C=C(C)[C@]12C[C@@H](C)[C@@]34O[C@](Cc5ccccc5)(O[C@@H]1[C@@H]3C=C(COC(=O)Cc1ccc(O)cc1)C[C@]1(O)C(=O)C(C)=C[C@@H]41)O2
REMARK SMILES IDX 23 1 22 2 21 3 20 4 9 5 8 6 10 7 6 8 18 10 44 11 19 12 5 13
REMARK SMILES IDX 7 14 4 15 11 16 12 17 13 18 17 19 14 20 16 21 15 22 2 23
REMARK SMILES IDX 3 24 1 25 35 26 36 27 43 28 38 29 42 30 39 32 40 33 41 34
REMARK SMILES IDX 37 35 24 37 25 38 26 39 27 40 28 41 29 42 34 43 30 44 33 45
REMARK SMILES IDX 31 46 32 47
REMARK H PARENT 37 36 32 48
REMARK Flexibility Score: 90.00
ROOT
ATOM      1  C   UNL     1      95.944  75.636  83.118  1.00  0.00     0.264 C 
ENDROOT
BRANCH   1   2
ATOM      2  C   UNL     1      96.620  76.793  83.817  1.00  0.00    -0.033 C 
ATOM      3  C   UNL     1      96.293  78.055  83.470  1.00  0.00    -0.015 C 
BRANCH   3   4
ATOM      4  C   UNL     1      96.873  79.372  83.960  1.00  0.00     0.078 C 
ATOM      5  O   UNL     1      95.482  80.107  85.868  1.00  0.00    -0.319 OA
ATOM      6  C   UNL     1      96.831  79.681  85.502  1.00  0.00     0.095 CG0
ATOM      7  C   UNL     1      94.854  81.021  84.949  1.00  0.00     0.289 C 
ATOM      8  C   UNL     1      97.848  80.863  85.782  1.00  0.00     0.023 C 
ATOM      9  G   UNL     1      97.068  78.386  86.332  1.00  0.00     0.000 G0
ATOM     10  O   UNL     1      94.783  80.469  83.637  1.00  0.00    -0.320 OA
ATOM     11  O   UNL     1      95.582  82.240  84.814  1.00  0.00    -0.313 OA
ATOM     12  C   UNL     1      96.165  80.554  83.253  1.00  0.00     0.170 C 
ATOM     13  C   UNL     1      97.918  81.854  84.580  1.00  0.00     0.049 C 
ATOM     14  C   UNL     1      97.603  81.653  87.079  1.00  0.00     0.011 C 
ATOM     15  C   UNL     1      96.588  81.928  83.829  1.00  0.00     0.122 C 
BRANCH   7  16
ATOM     16  C   UNL     1      93.458  81.320  85.456  1.00  0.00     0.135 C 
BRANCH  16  17
ATOM     17  C   UNL     1      93.395  82.628  86.205  1.00  0.00    -0.040 A 
ATOM     18  C   UNL     1      93.734  82.675  87.557  1.00  0.00     0.004 A 
ATOM     19  C   UNL     1      92.999  83.791  85.544  1.00  0.00     0.004 A 
ATOM     20  C   UNL     1      93.676  83.885  88.249  1.00  0.00     0.000 A 
ATOM     21  C   UNL     1      92.942  85.001  86.236  1.00  0.00     0.000 A 
ATOM     22  C   UNL     1      93.280  85.048  87.588  1.00  0.00     0.000 A 
ENDBRANCH  16  17
ENDBRANCH   7  16
BRANCH  15  23
ATOM     23  C   UNL     1      96.575  83.000  82.788  1.00  0.00    -0.046 C 
ATOM     24  C   UNL     1      95.970  84.311  83.196  1.00  0.00     0.042 C 
ATOM     25  C   UNL     1      97.075  82.803  81.560  1.00  0.00     0.010 C 
ENDBRANCH  15  23
ENDBRANCH   3   4
BRANCH   2  26
ATOM     26  C   UNL     1      97.618  76.351  84.871  1.00  0.00     0.078 C 
BRANCH  26  27
ATOM     27  C   UNL     1      98.184  77.430  85.792  1.00  0.00     0.140 C 
ATOM     28  C   UNL     1      97.088  78.378  86.324  1.00  0.00     0.086 CG0
ATOM     29  C   UNL     1      98.765  76.858  87.068  1.00  0.00     0.190 C 
ATOM     30  C   UNL     1      97.397  78.483  87.791  1.00  0.00    -0.010 C 
ATOM     31  G   UNL     1      96.845  79.676  85.500  1.00  0.00     0.000 G0
ATOM     32  O   UNL     1      99.544  75.919  87.132  1.00  0.00    -0.291 OA
ATOM     33  C   UNL     1      98.314  77.623  88.246  1.00  0.00    -0.008 C 
ATOM     34  C   UNL     1      98.800  77.390  89.621  1.00  0.00     0.048 C 
BRANCH  27  35
ATOM     35  O   UNL     1      99.279  78.102  85.193  1.00  0.00    -0.381 OA
ATOM     36  H   UNL     1      99.059  78.278  84.263  1.00  0.00     0.212 HD
ENDBRANCH  27  35
ENDBRANCH  26  27
ENDBRANCH   2  26
ENDBRANCH   1   2
BRANCH   1  37
ATOM     37  O   UNL     1      95.034  76.136  82.162  1.00  0.00    -0.461 OA
BRANCH  37  38
ATOM     38  C   UNL     1      93.873  75.418  81.994  1.00  0.00     0.310 C 
ATOM     39  O   UNL     1      93.386  75.111  80.915  1.00  0.00    -0.252 OA
BRANCH  38  40
ATOM     40  C   UNL     1      93.297  75.068  83.346  1.00  0.00     0.158 C 
BRANCH  40  41
ATOM     41  C   UNL     1      92.088  75.894  83.702  1.00  0.00    -0.037 A 
ATOM     42  C   UNL     1      90.878  75.268  83.997  1.00  0.00     0.008 A 
ATOM     43  C   UNL     1      92.179  77.285  83.735  1.00  0.00     0.008 A 
ATOM     44  C   UNL     1      89.758  76.032  84.326  1.00  0.00     0.046 A 
ATOM     45  C   UNL     1      91.060  78.051  84.064  1.00  0.00     0.046 A 
ATOM     46  C   UNL     1      89.849  77.424  84.359  1.00  0.00     0.115 A 
BRANCH  46  47
ATOM     47  O   UNL     1      88.757  78.170  84.679  1.00  0.00    -0.508 OA
ATOM     48  H   UNL     1      89.046  78.960  85.167  1.00  0.00     0.293 HD
ENDBRANCH  46  47
ENDBRANCH  40  41
ENDBRANCH  38  40
ENDBRANCH  37  38
ENDBRANCH   1  37
TORSDOF 10
ENDMDL
MODEL 4
REMARK VINA RESULT:    -6.989      2.736      6.551
REMARK INTER + INTRA:         -11.987
REMARK INTER:                 -10.974
REMARK INTRA:                  -1.014
REMARK UNBOUND:                -0.095
REMARK SMILES C=C(C)[C@]12C[C@@H](C)[C@@]34O[C@](Cc5ccccc5)(O[C@@H]1[C@@H]3C=C(COC(=O)Cc1ccc(O)cc1)C[C@]1(O)C(=O)C(C)=C[C@@H]41)O2
REMARK SMILES IDX 23 1 22 2 21 3 20 4 9 5 8 6 10 7 6 8 18 10 44 11 19 12 5 13
REMARK SMILES IDX 7 14 4 15 11 16 12 17 13 18 17 19 14 20 16 21 15 22 2 23
REMARK SMILES IDX 3 24 1 25 35 26 36 27 43 28 38 29 42 30 39 32 40 33 41 34
REMARK SMILES IDX 37 35 24 37 25 38 26 39 27 40 28 41 29 42 34 43 30 44 33 45
REMARK SMILES IDX 31 46 32 47
REMARK H PARENT 37 36 32 48
REMARK Flexibility Score: 90.00
ROOT
ATOM      1  C   UNL     1      95.322  82.524  83.569  1.00  0.00     0.264 C 
ENDROOT
BRANCH   1   2
ATOM      2  C   UNL     1      96.595  82.124  82.858  1.00  0.00    -0.033 C 
ATOM      3  C   UNL     1      97.429  81.243  83.447  1.00  0.00    -0.015 C 
BRANCH   3   4
ATOM      4  C   UNL     1      98.788  80.743  82.983  1.00  0.00     0.078 C 
ATOM      5  O   UNL     1      98.393  78.663  81.704  1.00  0.00    -0.319 OA
ATOM      6  C   UNL     1      98.886  80.033  81.582  1.00  0.00     0.095 CG0
ATOM      7  C   UNL     1      98.822  77.957  82.884  1.00  0.00     0.289 C 
ATOM      8  C   UNL     1     100.415  80.004  81.166  1.00  0.00     0.023 C 
ATOM      9  G   UNL     1      97.927  80.702  80.555  1.00  0.00     0.000 G0
ATOM     10  O   UNL     1      98.443  78.651  84.069  1.00  0.00    -0.320 OA
ATOM     11  O   UNL     1     100.240  77.825  82.951  1.00  0.00    -0.313 OA
ATOM     12  C   UNL     1      99.366  79.751  84.022  1.00  0.00     0.170 C 
ATOM     13  C   UNL     1     101.344  79.862  82.410  1.00  0.00     0.049 C 
ATOM     14  C   UNL     1     100.795  78.940  80.122  1.00  0.00     0.011 C 
ATOM     15  C   UNL     1     100.670  79.073  83.533  1.00  0.00     0.122 C 
BRANCH   7  16
ATOM     16  C   UNL     1      98.187  76.580  82.871  1.00  0.00     0.135 C 
BRANCH  16  17
ATOM     17  C   UNL     1      96.788  76.596  83.434  1.00  0.00    -0.040 A 
ATOM     18  C   UNL     1      96.587  76.440  84.805  1.00  0.00     0.004 A 
ATOM     19  C   UNL     1      95.697  76.768  82.583  1.00  0.00     0.004 A 
ATOM     20  C   UNL     1      95.292  76.455  85.326  1.00  0.00     0.000 A 
ATOM     21  C   UNL     1      94.403  76.783  83.105  1.00  0.00     0.000 A 
ATOM     22  C   UNL     1      94.201  76.626  84.475  1.00  0.00     0.000 A 
ENDBRANCH  16  17
ENDBRANCH   7  16
BRANCH  15  23
ATOM     23  C   UNL     1     101.602  78.770  84.661  1.00  0.00    -0.046 C 
ATOM     24  C   UNL     1     101.147  79.191  86.027  1.00  0.00     0.042 C 
ATOM     25  C   UNL     1     102.778  78.156  84.463  1.00  0.00     0.010 C 
ENDBRANCH  15  23
ENDBRANCH   3   4
BRANCH   2  26
ATOM     26  C   UNL     1      96.761  82.800  81.510  1.00  0.00     0.078 C 
BRANCH  26  27
ATOM     27  C   UNL     1      97.884  82.291  80.609  1.00  0.00     0.140 C 
ATOM     28  C   UNL     1      97.936  80.750  80.552  1.00  0.00     0.086 CG0
ATOM     29  C   UNL     1      97.675  82.662  79.156  1.00  0.00     0.190 C 
ATOM     30  C   UNL     1      98.086  80.458  79.085  1.00  0.00    -0.010 C 
ATOM     31  G   UNL     1      98.888  80.058  81.571  1.00  0.00     0.000 G0
ATOM     32  O   UNL     1      97.392  83.778  78.744  1.00  0.00    -0.291 OA
ATOM     33  C   UNL     1      97.918  81.506  78.273  1.00  0.00    -0.008 C 
ATOM     34  C   UNL     1      97.912  81.574  76.797  1.00  0.00     0.048 C 
BRANCH  27  35
ATOM     35  O   UNL     1      99.125  82.894  80.936  1.00  0.00    -0.381 OA
ATOM     36  H   UNL     1      99.093  83.828  80.667  1.00  0.00     0.212 HD
ENDBRANCH  27  35
ENDBRANCH  26  27
ENDBRANCH   2  26
ENDBRANCH   1   2
BRANCH   1  37
ATOM     37  O   UNL     1      94.683  81.368  84.066  1.00  0.00    -0.461 OA
BRANCH  37  38
ATOM     38  C   UNL     1      94.501  81.313  85.429  1.00  0.00     0.310 C 
ATOM     39  O   UNL     1      95.046  82.047  86.241  1.00  0.00    -0.252 OA
BRANCH  38  40
ATOM     40  C   UNL     1      93.526  80.209  85.763  1.00  0.00     0.158 C 
BRANCH  40  41
ATOM     41  C   UNL     1      92.177  80.402  85.120  1.00  0.00    -0.037 A 
ATOM     42  C   UNL     1      91.518  79.317  84.541  1.00  0.00     0.008 A 
ATOM     43  C   UNL     1      91.587  81.665  85.102  1.00  0.00     0.008 A 
ATOM     44  C   UNL     1      90.270  79.495  83.945  1.00  0.00     0.046 A 
ATOM     45  C   UNL     1      90.338  81.844  84.507  1.00  0.00     0.046 A 
ATOM     46  C   UNL     1      89.679  80.760  83.928  1.00  0.00     0.115 A 
BRANCH  46  47
ATOM     47  O   UNL     1      88.462  80.934  83.346  1.00  0.00    -0.508 OA
ATOM     48  H   UNL     1      87.838  80.288  83.721  1.00  0.00     0.293 HD
ENDBRANCH  46  47
ENDBRANCH  40  41
ENDBRANCH  38  40
ENDBRANCH  37  38
ENDBRANCH   1  37
TORSDOF 10
ENDMDL
MODEL 5
REMARK VINA RESULT:    -6.985      2.962      7.280
REMARK INTER + INTRA:         -11.979
REMARK INTER:                 -11.730
REMARK INTRA:                  -0.249
REMARK UNBOUND:                -0.095
REMARK SMILES C=C(C)[C@]12C[C@@H](C)[C@@]34O[C@](Cc5ccccc5)(O[C@@H]1[C@@H]3C=C(COC(=O)Cc1ccc(O)cc1)C[C@]1(O)C(=O)C(C)=C[C@@H]41)O2
REMARK SMILES IDX 23 1 22 2 21 3 20 4 9 5 8 6 10 7 6 8 18 10 44 11 19 12 5 13
REMARK SMILES IDX 7 14 4 15 11 16 12 17 13 18 17 19 14 20 16 21 15 22 2 23
REMARK SMILES IDX 3 24 1 25 35 26 36 27 43 28 38 29 42 30 39 32 40 33 41 34
REMARK SMILES IDX 37 35 24 37 25 38 26 39 27 40 28 41 29 42 34 43 30 44 33 45
REMARK SMILES IDX 31 46 32 47
REMARK H PARENT 37 36 32 48
REMARK Flexibility Score: 90.00
ROOT
ATOM      1  C   UNL     1      99.275  80.695  82.055  1.00  0.00     0.264 C 
ENDROOT
BRANCH   1   2
ATOM      2  C   UNL     1      99.254  80.970  83.541  1.00  0.00    -0.033 C 
ATOM      3  C   UNL     1      98.088  81.303  84.133  1.00  0.00    -0.015 C 
BRANCH   3   4
ATOM      4  C   UNL     1      97.816  81.696  85.576  1.00  0.00     0.078 C 
ATOM      5  O   UNL     1      97.213  79.625  86.785  1.00  0.00    -0.319 OA
ATOM      6  C   UNL     1      98.215  80.687  86.714  1.00  0.00     0.095 CG0
ATOM      7  C   UNL     1      95.844  80.063  86.678  1.00  0.00     0.289 C 
ATOM      8  C   UNL     1      98.228  81.487  88.082  1.00  0.00     0.023 C 
ATOM      9  G   UNL     1      99.538  79.948  86.360  1.00  0.00     0.000 G0
ATOM     10  O   UNL     1      95.622  80.776  85.465  1.00  0.00    -0.320 OA
ATOM     11  O   UNL     1      95.479  80.961  87.724  1.00  0.00    -0.313 OA
ATOM     12  C   UNL     1      96.310  82.001  85.763  1.00  0.00     0.170 C 
ATOM     13  C   UNL     1      97.150  82.613  88.096  1.00  0.00     0.049 C 
ATOM     14  C   UNL     1      98.086  80.629  89.351  1.00  0.00     0.011 C 
ATOM     15  C   UNL     1      95.934  82.243  87.246  1.00  0.00     0.122 C 
BRANCH   7  16
ATOM     16  C   UNL     1      94.950  78.841  86.727  1.00  0.00     0.135 C 
BRANCH  16  17
ATOM     17  C   UNL     1      93.725  79.001  85.861  1.00  0.00    -0.040 A 
ATOM     18  C   UNL     1      93.544  78.178  84.749  1.00  0.00     0.004 A 
ATOM     19  C   UNL     1      92.774  79.971  86.173  1.00  0.00     0.004 A 
ATOM     20  C   UNL     1      92.411  78.326  83.948  1.00  0.00     0.000 A 
ATOM     21  C   UNL     1      91.640  80.119  85.372  1.00  0.00     0.000 A 
ATOM     22  C   UNL     1      91.460  79.297  84.260  1.00  0.00     0.000 A 
ENDBRANCH  16  17
ENDBRANCH   7  16
BRANCH  15  23
ATOM     23  C   UNL     1      94.814  83.222  87.388  1.00  0.00    -0.046 C 
ATOM     24  C   UNL     1      94.531  84.083  86.193  1.00  0.00     0.042 C 
ATOM     25  C   UNL     1      94.103  83.327  88.521  1.00  0.00     0.010 C 
ENDBRANCH  15  23
ENDBRANCH   3   4
BRANCH   2  26
ATOM     26  C   UNL     1     100.614  80.817  84.195  1.00  0.00     0.078 C 
BRANCH  26  27
ATOM     27  C   UNL     1     100.661  80.839  85.721  1.00  0.00     0.140 C 
ATOM     28  C   UNL     1      99.567  79.954  86.352  1.00  0.00     0.086 CG0
ATOM     29  C   UNL     1     101.932  80.226  86.271  1.00  0.00     0.190 C 
ATOM     30  C   UNL     1     100.305  79.189  87.415  1.00  0.00    -0.010 C 
ATOM     31  G   UNL     1      98.231  80.667  86.713  1.00  0.00     0.000 G0
ATOM     32  O   UNL     1     103.065  80.489  85.896  1.00  0.00    -0.291 OA
ATOM     33  C   UNL     1     101.636  79.298  87.379  1.00  0.00    -0.008 C 
ATOM     34  C   UNL     1     102.668  78.634  88.202  1.00  0.00     0.048 C 
BRANCH  27  35
ATOM     35  O   UNL     1     100.682  82.166  86.220  1.00  0.00    -0.381 OA
ATOM     36  H   UNL     1     101.605  82.472  86.239  1.00  0.00     0.212 HD
ENDBRANCH  27  35
ENDBRANCH  26  27
ENDBRANCH   2  26
ENDBRANCH   1   2
BRANCH   1  37
ATOM     37  O   UNL     1      99.066  81.903  81.354  1.00  0.00    -0.461 OA
BRANCH  37  38
ATOM     38  C   UNL     1      97.815  82.080  80.809  1.00  0.00     0.310 C 
ATOM     39  O   UNL     1      96.903  82.706  81.331  1.00  0.00    -0.252 OA
BRANCH  38  40
ATOM     40  C   UNL     1      97.746  81.383  79.471  1.00  0.00     0.158 C 
BRANCH  40  41
ATOM     41  C   UNL     1      97.804  82.339  78.307  1.00  0.00    -0.037 A 
ATOM     42  C   UNL     1      96.779  83.264  78.112  1.00  0.00     0.008 A 
ATOM     43  C   UNL     1      98.883  82.298  77.425  1.00  0.00     0.008 A 
ATOM     44  C   UNL     1      96.832  84.148  77.034  1.00  0.00     0.046 A 
ATOM     45  C   UNL     1      98.937  83.183  76.347  1.00  0.00     0.046 A 
ATOM     46  C   UNL     1      97.912  84.107  76.152  1.00  0.00     0.115 A 
BRANCH  46  47
ATOM     47  O   UNL     1      97.963  84.969  75.100  1.00  0.00    -0.508 OA
ATOM     48  H   UNL     1      97.217  84.784  74.503  1.00  0.00     0.293 HD
ENDBRANCH  46  47
ENDBRANCH  40  41
ENDBRANCH  38  40
ENDBRANCH  37  38
ENDBRANCH   1  37
TORSDOF 10
ENDMDL
MODEL 6
REMARK VINA RESULT:    -6.844     31.319     34.803
REMARK INTER + INTRA:         -11.740
REMARK INTER:                 -10.455
REMARK INTRA:                  -1.285
REMARK UNBOUND:                -0.095
REMARK SMILES C=C(C)[C@]12C[C@@H](C)[C@@]34O[C@](Cc5ccccc5)(O[C@@H]1[C@@H]3C=C(COC(=O)Cc1ccc(O)cc1)C[C@]1(O)C(=O)C(C)=C[C@@H]41)O2
REMARK SMILES IDX 23 1 22 2 21 3 20 4 9 5 8 6 10 7 6 8 18 10 44 11 19 12 5 13
REMARK SMILES IDX 7 14 4 15 11 16 12 17 13 18 17 19 14 20 16 21 15 22 2 23
REMARK SMILES IDX 3 24 1 25 35 26 36 27 43 28 38 29 42 30 39 32 40 33 41 34
REMARK SMILES IDX 37 35 24 37 25 38 26 39 27 40 28 41 29 42 34 43 30 44 33 45
REMARK SMILES IDX 31 46 32 47
REMARK H PARENT 37 36 32 48
REMARK Flexibility Score: 90.00
ROOT
ATOM      1  C   UNL     1      61.491  90.294  72.163  1.00  0.00     0.264 C 
ENDROOT
BRANCH   1   2
ATOM      2  C   UNL     1      62.021  89.103  72.928  1.00  0.00    -0.033 C 
ATOM      3  C   UNL     1      62.378  87.992  72.251  1.00  0.00    -0.015 C 
BRANCH   3   4
ATOM      4  C   UNL     1      62.861  86.652  72.783  1.00  0.00     0.078 C 
ATOM      5  O   UNL     1      65.332  86.739  72.820  1.00  0.00    -0.319 OA
ATOM      6  C   UNL     1      64.154  86.624  73.678  1.00  0.00     0.095 CG0
ATOM      7  C   UNL     1      65.293  85.955  71.612  1.00  0.00     0.289 C 
ATOM      8  C   UNL     1      64.188  85.229  74.428  1.00  0.00     0.023 C 
ATOM      9  G   UNL     1      64.219  87.879  74.596  1.00  0.00     0.000 G0
ATOM     10  O   UNL     1      64.156  86.284  70.818  1.00  0.00    -0.320 OA
ATOM     11  O   UNL     1      65.187  84.558  71.875  1.00  0.00    -0.313 OA
ATOM     12  C   UNL     1      63.117  85.680  71.605  1.00  0.00     0.170 C 
ATOM     13  C   UNL     1      63.568  84.095  73.556  1.00  0.00     0.049 C 
ATOM     14  C   UNL     1      65.571  84.784  74.935  1.00  0.00     0.011 C 
ATOM     15  C   UNL     1      63.772  84.354  72.062  1.00  0.00     0.122 C 
BRANCH   7  16
ATOM     16  C   UNL     1      66.562  86.227  70.828  1.00  0.00     0.135 C 
BRANCH  16  17
ATOM     17  C   UNL     1      66.572  85.509  69.502  1.00  0.00    -0.040 A 
ATOM     18  C   UNL     1      66.892  84.154  69.444  1.00  0.00     0.004 A 
ATOM     19  C   UNL     1      66.262  86.203  68.333  1.00  0.00     0.004 A 
ATOM     20  C   UNL     1      66.902  83.490  68.217  1.00  0.00     0.000 A 
ATOM     21  C   UNL     1      66.271  85.540  67.105  1.00  0.00     0.000 A 
ATOM     22  C   UNL     1      66.591  84.184  67.048  1.00  0.00     0.000 A 
ENDBRANCH  16  17
ENDBRANCH   7  16
BRANCH  15  23
ATOM     23  C   UNL     1      63.348  83.197  71.217  1.00  0.00    -0.046 C 
ATOM     24  C   UNL     1      62.932  81.957  71.951  1.00  0.00     0.042 C 
ATOM     25  C   UNL     1      63.340  83.264  69.877  1.00  0.00     0.010 C 
ENDBRANCH  15  23
ENDBRANCH   3   4
BRANCH   2  26
ATOM     26  C   UNL     1      62.088  89.338  74.425  1.00  0.00     0.078 C 
BRANCH  26  27
ATOM     27  C   UNL     1      62.850  88.311  75.259  1.00  0.00     0.140 C 
ATOM     28  C   UNL     1      64.181  87.895  74.600  1.00  0.00     0.086 CG0
ATOM     29  C   UNL     1      63.307  88.869  76.591  1.00  0.00     0.190 C 
ATOM     30  C   UNL     1      65.166  87.950  75.734  1.00  0.00    -0.010 C 
ATOM     31  G   UNL     1      64.131  86.631  73.693  1.00  0.00     0.000 G0
ATOM     32  O   UNL     1      62.606  89.487  77.378  1.00  0.00    -0.291 OA
ATOM     33  C   UNL     1      64.715  88.517  76.857  1.00  0.00    -0.008 C 
ATOM     34  C   UNL     1      65.417  88.811  78.123  1.00  0.00     0.048 C 
BRANCH  27  35
ATOM     35  O   UNL     1      62.022  87.217  75.617  1.00  0.00    -0.381 OA
ATOM     36  H   UNL     1      62.586  86.435  75.747  1.00  0.00     0.212 HD
ENDBRANCH  27  35
ENDBRANCH  26  27
ENDBRANCH   2  26
ENDBRANCH   1   2
BRANCH   1  37
ATOM     37  O   UNL     1      60.269  90.710  72.735  1.00  0.00    -0.461 OA
BRANCH  37  38
ATOM     38  C   UNL     1      59.306  91.150  71.857  1.00  0.00     0.310 C 
ATOM     39  O   UNL     1      59.433  92.094  71.090  1.00  0.00    -0.252 OA
BRANCH  38  40
ATOM     40  C   UNL     1      58.072  90.289  71.990  1.00  0.00     0.158 C 
BRANCH  40  41
ATOM     41  C   UNL     1      58.174  88.995  71.226  1.00  0.00    -0.037 A 
ATOM     42  C   UNL     1      58.005  88.987  69.841  1.00  0.00     0.008 A 
ATOM     43  C   UNL     1      58.437  87.804  71.902  1.00  0.00     0.008 A 
ATOM     44  C   UNL     1      58.098  87.788  69.133  1.00  0.00     0.046 A 
ATOM     45  C   UNL     1      58.531  86.605  71.195  1.00  0.00     0.046 A 
ATOM     46  C   UNL     1      58.361  86.597  69.811  1.00  0.00     0.115 A 
BRANCH  46  47
ATOM     47  O   UNL     1      58.452  85.428  69.120  1.00  0.00    -0.508 OA
ATOM     48  H   UNL     1      59.242  85.456  68.553  1.00  0.00     0.293 HD
ENDBRANCH  46  47
ENDBRANCH  40  41
ENDBRANCH  38  40
ENDBRANCH  37  38
ENDBRANCH   1  37
TORSDOF 10
ENDMDL
MODEL 7
REMARK VINA RESULT:    -6.761     25.527     28.474
REMARK INTER + INTRA:         -11.599
REMARK INTER:                 -11.322
REMARK INTRA:                  -0.277
REMARK UNBOUND:                -0.095
REMARK SMILES C=C(C)[C@]12C[C@@H](C)[C@@]34O[C@](Cc5ccccc5)(O[C@@H]1[C@@H]3C=C(COC(=O)Cc1ccc(O)cc1)C[C@]1(O)C(=O)C(C)=C[C@@H]41)O2
REMARK SMILES IDX 23 1 22 2 21 3 20 4 9 5 8 6 10 7 6 8 18 10 44 11 19 12 5 13
REMARK SMILES IDX 7 14 4 15 11 16 12 17 13 18 17 19 14 20 16 21 15 22 2 23
REMARK SMILES IDX 3 24 1 25 35 26 36 27 43 28 38 29 42 30 39 32 40 33 41 34
REMARK SMILES IDX 37 35 24 37 25 38 26 39 27 40 28 41 29 42 34 43 30 44 33 45
REMARK SMILES IDX 31 46 32 47
REMARK H PARENT 37 36 32 48
REMARK Flexibility Score: 90.00
ROOT
ATOM      1  C   UNL     1      70.446  85.386  67.369  1.00  0.00     0.264 C 
ENDROOT
BRANCH   1   2
ATOM      2  C   UNL     1      71.746  86.072  67.017  1.00  0.00    -0.033 C 
ATOM      3  C   UNL     1      71.879  87.394  67.251  1.00  0.00    -0.015 C 
BRANCH   3   4
ATOM      4  C   UNL     1      73.038  88.321  66.923  1.00  0.00     0.078 C 
ATOM      5  O   UNL     1      74.513  88.360  68.907  1.00  0.00    -0.319 OA
ATOM      6  C   UNL     1      74.460  87.974  67.498  1.00  0.00     0.095 CG0
ATOM      7  C   UNL     1      73.918  89.635  69.218  1.00  0.00     0.289 C 
ATOM      8  C   UNL     1      75.526  88.816  66.684  1.00  0.00     0.023 C 
ATOM      9  G   UNL     1      74.692  86.435  67.509  1.00  0.00     0.000 G0
ATOM     10  O   UNL     1      72.552  89.680  68.818  1.00  0.00    -0.320 OA
ATOM     11  O   UNL     1      74.556  90.712  68.536  1.00  0.00    -0.313 OA
ATOM     12  C   UNL     1      72.711  89.760  67.393  1.00  0.00     0.170 C 
ATOM     13  C   UNL     1      74.950  90.198  66.246  1.00  0.00     0.049 C 
ATOM     14  C   UNL     1      76.879  89.027  67.386  1.00  0.00     0.011 C 
ATOM     15  C   UNL     1      73.915  90.721  67.243  1.00  0.00     0.122 C 
BRANCH   7  16
ATOM     16  C   UNL     1      74.022  89.854  70.715  1.00  0.00     0.135 C 
BRANCH  16  17
ATOM     17  C   UNL     1      73.581  91.239  71.116  1.00  0.00    -0.040 A 
ATOM     18  C   UNL     1      72.226  91.568  71.115  1.00  0.00     0.004 A 
ATOM     19  C   UNL     1      74.530  92.192  71.488  1.00  0.00     0.004 A 
ATOM     20  C   UNL     1      71.818  92.850  71.487  1.00  0.00     0.000 A 
ATOM     21  C   UNL     1      74.122  93.473  71.859  1.00  0.00     0.000 A 
ATOM     22  C   UNL     1      72.767  93.802  71.859  1.00  0.00     0.000 A 
ENDBRANCH  16  17
ENDBRANCH   7  16
BRANCH  15  23
ATOM     23  C   UNL     1      73.484  92.119  66.942  1.00  0.00    -0.046 C 
ATOM     24  C   UNL     1      73.906  93.169  67.928  1.00  0.00     0.042 C 
ATOM     25  C   UNL     1      72.761  92.420  65.853  1.00  0.00     0.010 C 
ENDBRANCH  15  23
ENDBRANCH   3   4
BRANCH   2  26
ATOM     26  C   UNL     1      72.777  85.128  66.426  1.00  0.00     0.078 C 
BRANCH  26  27
ATOM     27  C   UNL     1      74.195  85.667  66.246  1.00  0.00     0.140 C 
ATOM     28  C   UNL     1      74.691  86.431  67.492  1.00  0.00     0.086 CG0
ATOM     29  C   UNL     1      75.222  84.562  66.112  1.00  0.00     0.190 C 
ATOM     30  C   UNL     1      76.079  85.893  67.703  1.00  0.00    -0.010 C 
ATOM     31  G   UNL     1      74.461  87.970  67.488  1.00  0.00     0.000 G0
ATOM     32  O   UNL     1      75.132  83.598  65.367  1.00  0.00    -0.291 OA
ATOM     33  C   UNL     1      76.397  84.826  66.963  1.00  0.00    -0.008 C 
ATOM     34  C   UNL     1      77.621  83.998  66.965  1.00  0.00     0.048 C 
BRANCH  27  35
ATOM     35  O   UNL     1      74.323  86.397  65.038  1.00  0.00    -0.381 OA
ATOM     36  H   UNL     1      73.853  87.242  65.139  1.00  0.00     0.212 HD
ENDBRANCH  27  35
ENDBRANCH  26  27
ENDBRANCH   2  26
ENDBRANCH   1   2
BRANCH   1  37
ATOM     37  O   UNL     1      70.232  85.480  68.761  1.00  0.00    -0.461 OA
BRANCH  37  38
ATOM     38  C   UNL     1      69.782  84.339  69.384  1.00  0.00     0.310 C 
ATOM     39  O   UNL     1      70.081  83.198  69.060  1.00  0.00    -0.252 OA
BRANCH  38  40
ATOM     40  C   UNL     1      68.868  84.715  70.525  1.00  0.00     0.158 C 
BRANCH  40  41
ATOM     41  C   UNL     1      67.433  84.322  70.283  1.00  0.00    -0.037 A 
ATOM     42  C   UNL     1      66.413  84.911  71.029  1.00  0.00     0.008 A 
ATOM     43  C   UNL     1      67.125  83.369  69.312  1.00  0.00     0.008 A 
ATOM     44  C   UNL     1      65.085  84.546  70.806  1.00  0.00     0.046 A 
ATOM     45  C   UNL     1      65.797  83.005  69.088  1.00  0.00     0.046 A 
ATOM     46  C   UNL     1      64.777  83.593  69.835  1.00  0.00     0.115 A 
BRANCH  46  47
ATOM     47  O   UNL     1      63.482  83.237  69.617  1.00  0.00    -0.508 OA
ATOM     48  H   UNL     1      63.083  83.866  68.990  1.00  0.00     0.293 HD
ENDBRANCH  46  47
ENDBRANCH  40  41
ENDBRANCH  38  40
ENDBRANCH  37  38
ENDBRANCH   1  37
TORSDOF 10
ENDMDL
MODEL 8
REMARK VINA RESULT:    -6.533     30.430     35.778
REMARK INTER + INTRA:         -11.211
REMARK INTER:                 -10.708
REMARK INTRA:                  -0.503
REMARK UNBOUND:                -0.095
REMARK SMILES C=C(C)[C@]12C[C@@H](C)[C@@]34O[C@](Cc5ccccc5)(O[C@@H]1[C@@H]3C=C(COC(=O)Cc1ccc(O)cc1)C[C@]1(O)C(=O)C(C)=C[C@@H]41)O2
REMARK SMILES IDX 23 1 22 2 21 3 20 4 9 5 8 6 10 7 6 8 18 10 44 11 19 12 5 13
REMARK SMILES IDX 7 14 4 15 11 16 12 17 13 18 17 19 14 20 16 21 15 22 2 23
REMARK SMILES IDX 3 24 1 25 35 26 36 27 43 28 38 29 42 30 39 32 40 33 41 34
REMARK SMILES IDX 37 35 24 37 25 38 26 39 27 40 28 41 29 42 34 43 30 44 33 45
REMARK SMILES IDX 31 46 32 47
REMARK H PARENT 37 36 32 48
REMARK Flexibility Score: 90.00
ROOT
ATOM      1  C   UNL     1      60.498  89.458  70.413  1.00  0.00     0.264 C 
ENDROOT
BRANCH   1   2
ATOM      2  C   UNL     1      61.105  88.461  71.373  1.00  0.00    -0.033 C 
ATOM      3  C   UNL     1      61.883  87.470  70.890  1.00  0.00    -0.015 C 
BRANCH   3   4
ATOM      4  C   UNL     1      62.539  86.313  71.625  1.00  0.00     0.078 C 
ATOM      5  O   UNL     1      64.816  87.052  72.246  1.00  0.00    -0.319 OA
ATOM      6  C   UNL     1      63.529  86.639  72.803  1.00  0.00     0.095 CG0
ATOM      7  C   UNL     1      65.282  86.270  71.129  1.00  0.00     0.289 C 
ATOM      8  C   UNL     1      63.725  85.313  73.647  1.00  0.00     0.023 C 
ATOM      9  G   UNL     1      63.041  87.878  73.609  1.00  0.00     0.000 G0
ATOM     10  O   UNL     1      64.337  86.276  70.063  1.00  0.00    -0.320 OA
ATOM     11  O   UNL     1      65.471  84.898  71.469  1.00  0.00    -0.313 OA
ATOM     12  C   UNL     1      63.321  85.429  70.623  1.00  0.00     0.170 C 
ATOM     13  C   UNL     1      63.652  84.044  72.743  1.00  0.00     0.049 C 
ATOM     14  C   UNL     1      65.002  85.256  74.503  1.00  0.00     0.011 C 
ATOM     15  C   UNL     1      64.153  84.329  71.327  1.00  0.00     0.122 C 
BRANCH   7  16
ATOM     16  C   UNL     1      66.596  86.858  70.654  1.00  0.00     0.135 C 
BRANCH  16  17
ATOM     17  C   UNL     1      67.466  85.827  69.978  1.00  0.00    -0.040 A 
ATOM     18  C   UNL     1      68.431  85.140  70.713  1.00  0.00     0.004 A 
ATOM     19  C   UNL     1      67.303  85.563  68.619  1.00  0.00     0.004 A 
ATOM     20  C   UNL     1      69.236  84.186  70.087  1.00  0.00     0.000 A 
ATOM     21  C   UNL     1      68.108  84.609  67.994  1.00  0.00     0.000 A 
ATOM     22  C   UNL     1      69.073  83.921  68.728  1.00  0.00     0.000 A 
ENDBRANCH  16  17
ENDBRANCH   7  16
BRANCH  15  23
ATOM     23  C   UNL     1      64.263  83.091  70.497  1.00  0.00    -0.046 C 
ATOM     24  C   UNL     1      63.559  81.876  71.025  1.00  0.00     0.042 C 
ATOM     25  C   UNL     1      64.953  83.067  69.347  1.00  0.00     0.010 C 
ENDBRANCH  15  23
ENDBRANCH   3   4
BRANCH   2  26
ATOM     26  C   UNL     1      60.741  88.731  72.821  1.00  0.00     0.078 C 
BRANCH  26  27
ATOM     27  C   UNL     1      61.504  87.950  73.889  1.00  0.00     0.140 C 
ATOM     28  C   UNL     1      63.018  87.889  73.599  1.00  0.00     0.086 CG0
ATOM     29  C   UNL     1      61.459  88.625  75.244  1.00  0.00     0.190 C 
ATOM     30  C   UNL     1      63.642  88.215  74.927  1.00  0.00    -0.010 C 
ATOM     31  G   UNL     1      63.515  86.645  72.807  1.00  0.00     0.000 G0
ATOM     32  O   UNL     1      60.452  89.048  75.792  1.00  0.00    -0.291 OA
ATOM     33  C   UNL     1      62.798  88.658  75.863  1.00  0.00    -0.008 C 
ATOM     34  C   UNL     1      63.065  89.142  77.234  1.00  0.00     0.048 C 
BRANCH  27  35
ATOM     35  O   UNL     1      60.915  86.682  74.124  1.00  0.00    -0.381 OA
ATOM     36  H   UNL     1      60.454  86.711  74.980  1.00  0.00     0.212 HD
ENDBRANCH  27  35
ENDBRANCH  26  27
ENDBRANCH   2  26
ENDBRANCH   1   2
BRANCH   1  37
ATOM     37  O   UNL     1      59.865  88.765  69.359  1.00  0.00    -0.461 OA
BRANCH  37  38
ATOM     38  C   UNL     1      58.601  88.289  69.618  1.00  0.00     0.310 C 
ATOM     39  O   UNL     1      58.234  87.136  69.438  1.00  0.00    -0.252 OA
BRANCH  38  40
ATOM     40  C   UNL     1      57.742  89.407  70.157  1.00  0.00     0.158 C 
BRANCH  40  41
ATOM     41  C   UNL     1      56.726  89.902  69.160  1.00  0.00    -0.037 A 
ATOM     42  C   UNL     1      56.555  89.232  67.948  1.00  0.00     0.008 A 
ATOM     43  C   UNL     1      55.958  91.029  69.447  1.00  0.00     0.008 A 
ATOM     44  C   UNL     1      55.616  89.690  67.024  1.00  0.00     0.046 A 
ATOM     45  C   UNL     1      55.018  91.488  68.523  1.00  0.00     0.046 A 
ATOM     46  C   UNL     1      54.847  90.819  67.312  1.00  0.00     0.115 A 
BRANCH  46  47
ATOM     47  O   UNL     1      53.931  91.266  66.410  1.00  0.00    -0.508 OA
ATOM     48  H   UNL     1      54.399  91.674  65.661  1.00  0.00     0.293 HD
ENDBRANCH  46  47
ENDBRANCH  40  41
ENDBRANCH  38  40
ENDBRANCH  37  38
ENDBRANCH   1  37
TORSDOF 10
ENDMDL
MODEL 9
REMARK VINA RESULT:    -6.451      7.375     11.559
REMARK INTER + INTRA:         -11.070
REMARK INTER:                 -10.223
REMARK INTRA:                  -0.848
REMARK UNBOUND:                -0.095
REMARK SMILES C=C(C)[C@]12C[C@@H](C)[C@@]34O[C@](Cc5ccccc5)(O[C@@H]1[C@@H]3C=C(COC(=O)Cc1ccc(O)cc1)C[C@]1(O)C(=O)C(C)=C[C@@H]41)O2
REMARK SMILES IDX 23 1 22 2 21 3 20 4 9 5 8 6 10 7 6 8 18 10 44 11 19 12 5 13
REMARK SMILES IDX 7 14 4 15 11 16 12 17 13 18 17 19 14 20 16 21 15 22 2 23
REMARK SMILES IDX 3 24 1 25 35 26 36 27 43 28 38 29 42 30 39 32 40 33 41 34
REMARK SMILES IDX 37 35 24 37 25 38 26 39 27 40 28 41 29 42 34 43 30 44 33 45
REMARK SMILES IDX 31 46 32 47
REMARK H PARENT 37 36 32 48
REMARK Flexibility Score: 90.00
ROOT
ATOM      1  C   UNL     1     100.736  81.531  80.206  1.00  0.00     0.264 C 
ENDROOT
BRANCH   1   2
ATOM      2  C   UNL     1     101.360  81.247  78.859  1.00  0.00    -0.033 C 
ATOM      3  C   UNL     1     100.744  81.687  77.742  1.00  0.00    -0.015 C 
BRANCH   3   4
ATOM      4  C   UNL     1     101.119  81.471  76.284  1.00  0.00     0.078 C 
ATOM      5  O   UNL     1     102.555  83.372  75.620  1.00  0.00    -0.319 OA
ATOM      6  C   UNL     1     102.547  81.922  75.804  1.00  0.00     0.095 CG0
ATOM      7  C   UNL     1     101.388  83.916  74.972  1.00  0.00     0.289 C 
ATOM      8  C   UNL     1     102.831  81.216  74.414  1.00  0.00     0.023 C 
ATOM      9  G   UNL     1     103.610  81.667  76.912  1.00  0.00     0.000 G0
ATOM     10  O   UNL     1     100.199  83.584  75.684  1.00  0.00    -0.320 OA
ATOM     11  O   UNL     1     101.207  83.397  73.656  1.00  0.00    -0.313 OA
ATOM     12  C   UNL     1     100.098  82.187  75.367  1.00  0.00     0.170 C 
ATOM     13  C   UNL     1     101.522  81.039  73.585  1.00  0.00     0.049 C 
ATOM     14  C   UNL     1     103.903  81.888  73.538  1.00  0.00     0.011 C 
ATOM     15  C   UNL     1     100.513  82.151  73.876  1.00  0.00     0.122 C 
BRANCH   7  16
ATOM     16  C   UNL     1     101.542  85.422  74.903  1.00  0.00     0.135 C 
BRANCH  16  17
ATOM     17  C   UNL     1     102.435  85.849  73.764  1.00  0.00    -0.040 A 
ATOM     18  C   UNL     1     101.879  86.188  72.531  1.00  0.00     0.004 A 
ATOM     19  C   UNL     1     103.816  85.904  73.946  1.00  0.00     0.004 A 
ATOM     20  C   UNL     1     102.705  86.583  71.478  1.00  0.00     0.000 A 
ATOM     21  C   UNL     1     104.642  86.299  72.893  1.00  0.00     0.000 A 
ATOM     22  C   UNL     1     104.087  86.638  71.660  1.00  0.00     0.000 A 
ENDBRANCH  16  17
ENDBRANCH   7  16
BRANCH  15  23
ATOM     23  C   UNL     1      99.330  82.105  72.964  1.00  0.00    -0.046 C 
ATOM     24  C   UNL     1      99.441  81.188  71.782  1.00  0.00     0.042 C 
ATOM     25  C   UNL     1      98.232  82.841  73.189  1.00  0.00     0.010 C 
ENDBRANCH  15  23
ENDBRANCH   3   4
BRANCH   2  26
ATOM     26  C   UNL     1     102.661  80.473  78.956  1.00  0.00     0.078 C 
BRANCH  26  27
ATOM     27  C   UNL     1     103.480  80.322  77.675  1.00  0.00     0.140 C 
ATOM     28  C   UNL     1     103.611  81.653  76.906  1.00  0.00     0.086 CG0
ATOM     29  C   UNL     1     104.925  79.962  77.950  1.00  0.00     0.190 C 
ATOM     30  C   UNL     1     105.071  81.710  76.552  1.00  0.00    -0.010 C 
ATOM     31  G   UNL     1     102.547  81.913  75.800  1.00  0.00     0.000 G0
ATOM     32  O   UNL     1     105.303  79.073  78.698  1.00  0.00    -0.291 OA
ATOM     33  C   UNL     1     105.840  80.792  77.145  1.00  0.00    -0.008 C 
ATOM     34  C   UNL     1     107.305  80.603  77.097  1.00  0.00     0.048 C 
BRANCH  27  35
ATOM     35  O   UNL     1     103.009  79.246  76.882  1.00  0.00    -0.381 OA
ATOM     36  H   UNL     1     103.154  79.468  75.947  1.00  0.00     0.212 HD
ENDBRANCH  27  35
ENDBRANCH  26  27
ENDBRANCH   2  26
ENDBRANCH   1   2
BRANCH   1  37
ATOM     37  O   UNL     1     100.218  80.332  80.742  1.00  0.00    -0.461 OA
BRANCH  37  38
ATOM     38  C   UNL     1      99.012  79.910  80.230  1.00  0.00     0.310 C 
ATOM     39  O   UNL     1      98.849  78.900  79.560  1.00  0.00    -0.252 OA
BRANCH  38  40
ATOM     40  C   UNL     1      97.928  80.884  80.625  1.00  0.00     0.158 C 
BRANCH  40  41
ATOM     41  C   UNL     1      97.503  81.781  79.491  1.00  0.00    -0.037 A 
ATOM     42  C   UNL     1      97.546  81.313  78.178  1.00  0.00     0.008 A 
ATOM     43  C   UNL     1      97.068  83.079  79.754  1.00  0.00     0.008 A 
ATOM     44  C   UNL     1      97.153  82.144  77.128  1.00  0.00     0.046 A 
ATOM     45  C   UNL     1      96.674  83.910  78.705  1.00  0.00     0.046 A 
ATOM     46  C   UNL     1      96.717  83.443  77.392  1.00  0.00     0.115 A 
BRANCH  46  47
ATOM     47  O   UNL     1      96.335  84.253  76.368  1.00  0.00    -0.508 OA
ATOM     48  H   UNL     1      95.998  83.703  75.639  1.00  0.00     0.293 HD
ENDBRANCH  46  47
ENDBRANCH  40  41
ENDBRANCH  38  40
ENDBRANCH  37  38
ENDBRANCH   1  37
TORSDOF 10
ENDMDL
MODEL 10
REMARK VINA RESULT:    -6.444     25.892     28.509
REMARK INTER + INTRA:         -11.060
REMARK INTER:                  -9.650
REMARK INTRA:                  -1.410
REMARK UNBOUND:                -0.095
REMARK SMILES C=C(C)[C@]12C[C@@H](C)[C@@]34O[C@](Cc5ccccc5)(O[C@@H]1[C@@H]3C=C(COC(=O)Cc1ccc(O)cc1)C[C@]1(O)C(=O)C(C)=C[C@@H]41)O2
REMARK SMILES IDX 23 1 22 2 21 3 20 4 9 5 8 6 10 7 6 8 18 10 44 11 19 12 5 13
REMARK SMILES IDX 7 14 4 15 11 16 12 17 13 18 17 19 14 20 16 21 15 22 2 23
REMARK SMILES IDX 3 24 1 25 35 26 36 27 43 28 38 29 42 30 39 32 40 33 41 34
REMARK SMILES IDX 37 35 24 37 25 38 26 39 27 40 28 41 29 42 34 43 30 44 33 45
REMARK SMILES IDX 31 46 32 47
REMARK H PARENT 37 36 32 48
REMARK Flexibility Score: 90.00
ROOT
ATOM      1  C   UNL     1      70.465  85.761  65.973  1.00  0.00     0.264 C 
ENDROOT
BRANCH   1   2
ATOM      2  C   UNL     1      71.842  86.385  65.952  1.00  0.00    -0.033 C 
ATOM      3  C   UNL     1      72.009  87.630  66.443  1.00  0.00    -0.015 C 
BRANCH   3   4
ATOM      4  C   UNL     1      73.257  88.498  66.468  1.00  0.00     0.078 C 
ATOM      5  O   UNL     1      74.401  88.054  68.615  1.00  0.00    -0.319 OA
ATOM      6  C   UNL     1      74.548  87.932  67.165  1.00  0.00     0.095 CG0
ATOM      7  C   UNL     1      73.839  89.298  69.074  1.00  0.00     0.289 C 
ATOM      8  C   UNL     1      75.776  88.813  66.688  1.00  0.00     0.023 C 
ATOM      9  G   UNL     1      74.687  86.402  66.917  1.00  0.00     0.000 G0
ATOM     10  O   UNL     1      72.557  89.531  68.496  1.00  0.00    -0.320 OA
ATOM     11  O   UNL     1      74.636  90.422  68.708  1.00  0.00    -0.313 OA
ATOM     12  C   UNL     1      72.943  89.852  67.150  1.00  0.00     0.170 C 
ATOM     13  C   UNL     1      75.356  90.295  66.443  1.00  0.00     0.049 C 
ATOM     14  C   UNL     1      77.011  88.778  67.605  1.00  0.00     0.011 C 
ATOM     15  C   UNL     1      74.209  90.717  67.362  1.00  0.00     0.122 C 
BRANCH   7  16
ATOM     16  C   UNL     1      73.718  89.236  70.584  1.00  0.00     0.135 C 
BRANCH  16  17
ATOM     17  C   UNL     1      73.454  90.593  71.187  1.00  0.00    -0.040 A 
ATOM     18  C   UNL     1      72.153  90.967  71.522  1.00  0.00     0.004 A 
ATOM     19  C   UNL     1      74.513  91.473  71.410  1.00  0.00     0.004 A 
ATOM     20  C   UNL     1      71.910  92.222  72.081  1.00  0.00     0.000 A 
ATOM     21  C   UNL     1      74.270  92.728  71.968  1.00  0.00     0.000 A 
ATOM     22  C   UNL     1      72.969  93.102  72.304  1.00  0.00     0.000 A 
ENDBRANCH  16  17
ENDBRANCH   7  16
BRANCH  15  23
ATOM     23  C   UNL     1      73.911  92.179  67.274  1.00  0.00    -0.046 C 
ATOM     24  C   UNL     1      74.389  92.877  66.035  1.00  0.00     0.042 C 
ATOM     25  C   UNL     1      73.256  92.829  68.246  1.00  0.00     0.010 C 
ENDBRANCH  15  23
ENDBRANCH   3   4
BRANCH   2  26
ATOM     26  C   UNL     1      72.899  85.473  65.357  1.00  0.00     0.078 C 
BRANCH  26  27
ATOM     27  C   UNL     1      74.354  85.923  65.474  1.00  0.00     0.140 C 
ATOM     28  C   UNL     1      74.701  86.415  66.894  1.00  0.00     0.086 CG0
ATOM     29  C   UNL     1      75.331  84.783  65.277  1.00  0.00     0.190 C 
ATOM     30  C   UNL     1      76.013  85.742  67.188  1.00  0.00    -0.010 C 
ATOM     31  G   UNL     1      74.554  87.945  67.145  1.00  0.00     0.000 G0
ATOM     32  O   UNL     1      75.302  83.976  64.361  1.00  0.00    -0.291 OA
ATOM     33  C   UNL     1      76.381  84.801  66.314  1.00  0.00    -0.008 C 
ATOM     34  C   UNL     1      77.547  83.893  66.328  1.00  0.00     0.048 C 
BRANCH  27  35
ATOM     35  O   UNL     1      74.696  86.842  64.450  1.00  0.00    -0.381 OA
ATOM     36  H   UNL     1      75.506  86.528  64.014  1.00  0.00     0.212 HD
ENDBRANCH  27  35
ENDBRANCH  26  27
ENDBRANCH   2  26
ENDBRANCH   1   2
BRANCH   1  37
ATOM     37  O   UNL     1      70.116  85.448  67.305  1.00  0.00    -0.461 OA
BRANCH  37  38
ATOM     38  C   UNL     1      68.770  85.369  67.577  1.00  0.00     0.310 C 
ATOM     39  O   UNL     1      68.151  84.332  67.768  1.00  0.00    -0.252 OA
BRANCH  38  40
ATOM     40  C   UNL     1      68.179  86.759  67.603  1.00  0.00     0.158 C 
BRANCH  40  41
ATOM     41  C   UNL     1      68.192  87.378  68.977  1.00  0.00    -0.037 A 
ATOM     42  C   UNL     1      67.092  87.224  69.821  1.00  0.00     0.008 A 
ATOM     43  C   UNL     1      69.302  88.104  69.404  1.00  0.00     0.008 A 
ATOM     44  C   UNL     1      67.103  87.798  71.093  1.00  0.00     0.046 A 
ATOM     45  C   UNL     1      69.315  88.678  70.676  1.00  0.00     0.046 A 
ATOM     46  C   UNL     1      68.215  88.525  71.520  1.00  0.00     0.115 A 
BRANCH  46  47
ATOM     47  O   UNL     1      68.226  89.085  72.760  1.00  0.00    -0.508 OA
ATOM     48  H   UNL     1      67.325  89.375  72.983  1.00  0.00     0.293 HD
ENDBRANCH  46  47
ENDBRANCH  40  41
ENDBRANCH  38  40
ENDBRANCH  37  38
ENDBRANCH   1  37
TORSDOF 10
ENDMDL
