MODEL 1
REMARK VINA RESULT:    -6.458      0.000      0.000
REMARK INTER + INTRA:         -11.153
REMARK INTER:                 -10.422
REMARK INTRA:                  -0.731
REMARK UNBOUND:                -0.731
REMARK SMILES CCCCCCCCC(=O)NCc1ccc(O)c(OC)c1
REMARK SMILES IDX 7 1 6 2 5 3 4 4 3 5 2 6 1 7 8 8 9 9 10 10 11 11 12 13 13 14
REMARK SMILES IDX 21 15 14 16 18 17 15 18 16 19 19 20 20 21 17 22
REMARK H PARENT 11 12 17 23
REMARK Flexibility Score: inf
ROOT
ATOM      1  C   UNL     1      91.011  94.184  77.434  1.00  0.00     0.010 C 
ENDROOT
BRANCH   1   2
ATOM      2  C   UNL     1      89.903  93.548  76.546  1.00  0.00     0.001 C 
BRANCH   2   3
ATOM      3  C   UNL     1      89.961  94.058  75.076  1.00  0.00     0.000 C 
BRANCH   3   4
ATOM      4  C   UNL     1      90.398  92.972  74.053  1.00  0.00    -0.000 C 
BRANCH   4   5
ATOM      5  C   UNL     1      89.643  91.626  74.247  1.00  0.00    -0.000 C 
BRANCH   5   6
ATOM      6  C   UNL     1      90.574  90.393  74.095  1.00  0.00    -0.003 C 
ATOM      7  C   UNL     1      90.073  89.162  74.881  1.00  0.00     0.004 C 
ENDBRANCH   5   6
ENDBRANCH   4   5
ENDBRANCH   3   4
ENDBRANCH   2   3
ENDBRANCH   1   2
BRANCH   1   8
ATOM      8  C   UNL     1      91.458  95.597  76.967  1.00  0.00     0.100 C 
BRANCH   8   9
ATOM      9  C   UNL     1      92.929  95.759  77.066  1.00  0.00     0.220 C 
ATOM     10  O   UNL     1      93.657  94.799  76.718  1.00  0.00    -0.275 OA
ATOM     11  N   UNL     1      93.470  96.935  77.498  1.00  0.00    -0.352 N 
ATOM     12  H   UNL     1      92.796  97.607  77.833  1.00  0.00     0.163 HD
BRANCH  11  13
ATOM     13  C   UNL     1      94.864  97.262  77.503  1.00  0.00     0.151 C 
BRANCH  13  14
ATOM     14  C   UNL     1      95.501  97.156  78.842  1.00  0.00    -0.025 A 
ATOM     15  C   UNL     1      95.627  98.302  79.664  1.00  0.00     0.056 A 
ATOM     16  C   UNL     1      95.994  95.919  79.317  1.00  0.00     0.009 A 
ATOM     17  C   UNL     1      96.215  98.214  80.946  1.00  0.00     0.160 A 
ATOM     18  C   UNL     1      96.579  95.824  80.592  1.00  0.00     0.050 A 
ATOM     19  C   UNL     1      96.698  96.968  81.405  1.00  0.00     0.157 A 
BRANCH  17  20
ATOM     20  O   UNL     1      96.374  99.333  81.724  1.00  0.00    -0.493 OA
ATOM     21  C   UNL     1      95.139  99.963  82.109  1.00  0.00     0.278 C 
ENDBRANCH  17  20
BRANCH  19  22
ATOM     22  O   UNL     1      97.289  96.871  82.624  1.00  0.00    -0.504 OA
ATOM     23  H   UNL     1      96.631  97.003  83.310  1.00  0.00     0.293 HD
ENDBRANCH  19  22
ENDBRANCH  13  14
ENDBRANCH  11  13
ENDBRANCH   8   9
ENDBRANCH   1   8
TORSDOF 11
ENDMDL
MODEL 2
REMARK VINA RESULT:    -6.048     13.257     16.665
REMARK INTER + INTRA:         -10.491
REMARK INTER:                  -9.921
REMARK INTRA:                  -0.570
REMARK UNBOUND:                -0.731
REMARK SMILES CCCCCCCCC(=O)NCc1ccc(O)c(OC)c1
REMARK SMILES IDX 7 1 6 2 5 3 4 4 3 5 2 6 1 7 8 8 9 9 10 10 11 11 12 13 13 14
REMARK SMILES IDX 21 15 14 16 18 17 15 18 16 19 19 20 20 21 17 22
REMARK H PARENT 11 12 17 23
REMARK Flexibility Score: inf
ROOT
ATOM      1  C   UNL     1      95.777  81.065  83.430  1.00  0.00     0.010 C 
ENDROOT
BRANCH   1   2
ATOM      2  C   UNL     1      96.987  81.219  82.463  1.00  0.00     0.001 C 
BRANCH   2   3
ATOM      3  C   UNL     1      96.956  82.572  81.692  1.00  0.00     0.000 C 
BRANCH   3   4
ATOM      4  C   UNL     1      97.561  82.492  80.262  1.00  0.00    -0.000 C 
BRANCH   4   5
ATOM      5  C   UNL     1      96.719  83.268  79.210  1.00  0.00    -0.000 C 
BRANCH   5   6
ATOM      6  C   UNL     1      97.498  83.520  77.891  1.00  0.00    -0.003 C 
ATOM      7  C   UNL     1      96.673  84.303  76.847  1.00  0.00     0.004 C 
ENDBRANCH   5   6
ENDBRANCH   4   5
ENDBRANCH   3   4
ENDBRANCH   2   3
ENDBRANCH   1   2
BRANCH   1   8
ATOM      8  C   UNL     1      95.727  82.141  84.551  1.00  0.00     0.100 C 
BRANCH   8   9
ATOM      9  C   UNL     1      94.333  82.404  84.983  1.00  0.00     0.220 C 
ATOM     10  O   UNL     1      94.149  82.957  86.094  1.00  0.00    -0.275 OA
ATOM     11  N   UNL     1      93.282  82.078  84.175  1.00  0.00    -0.352 N 
ATOM     12  H   UNL     1      93.538  81.561  83.346  1.00  0.00     0.163 HD
BRANCH  11  13
ATOM     13  C   UNL     1      91.910  82.407  84.414  1.00  0.00     0.151 C 
BRANCH  13  14
ATOM     14  C   UNL     1      90.997  81.233  84.385  1.00  0.00    -0.025 A 
ATOM     15  C   UNL     1      89.595  81.423  84.330  1.00  0.00     0.056 A 
ATOM     16  C   UNL     1      91.506  79.915  84.415  1.00  0.00     0.009 A 
ATOM     17  C   UNL     1      88.715  80.317  84.284  1.00  0.00     0.160 A 
ATOM     18  C   UNL     1      90.636  78.811  84.369  1.00  0.00     0.050 A 
ATOM     19  C   UNL     1      89.243  79.007  84.311  1.00  0.00     0.157 A 
BRANCH  17  20
ATOM     20  O   UNL     1      87.356  80.503  84.274  1.00  0.00    -0.493 OA
ATOM     21  C   UNL     1      86.949  81.864  84.046  1.00  0.00     0.278 C 
ENDBRANCH  17  20
BRANCH  19  22
ATOM     22  O   UNL     1      88.411  77.934  84.295  1.00  0.00    -0.504 OA
ATOM     23  H   UNL     1      87.712  78.062  84.941  1.00  0.00     0.293 HD
ENDBRANCH  19  22
ENDBRANCH  13  14
ENDBRANCH  11  13
ENDBRANCH   8   9
ENDBRANCH   1   8
TORSDOF 11
ENDMDL
MODEL 3
REMARK VINA RESULT:    -5.837     28.255     31.912
REMARK INTER + INTRA:         -10.151
REMARK INTER:                  -9.552
REMARK INTRA:                  -0.599
REMARK UNBOUND:                -0.731
REMARK SMILES CCCCCCCCC(=O)NCc1ccc(O)c(OC)c1
REMARK SMILES IDX 7 1 6 2 5 3 4 4 3 5 2 6 1 7 8 8 9 9 10 10 11 11 12 13 13 14
REMARK SMILES IDX 21 15 14 16 18 17 15 18 16 19 19 20 20 21 17 22
REMARK H PARENT 11 12 17 23
REMARK Flexibility Score: inf
ROOT
ATOM      1  C   UNL     1      80.811  64.942  70.372  1.00  0.00     0.010 C 
ENDROOT
BRANCH   1   2
ATOM      2  C   UNL     1      80.160  63.747  69.618  1.00  0.00     0.001 C 
BRANCH   2   3
ATOM      3  C   UNL     1      78.618  63.911  69.474  1.00  0.00     0.000 C 
BRANCH   3   4
ATOM      4  C   UNL     1      78.170  64.414  68.072  1.00  0.00    -0.000 C 
BRANCH   4   5
ATOM      5  C   UNL     1      76.906  63.676  67.546  1.00  0.00    -0.000 C 
BRANCH   5   6
ATOM      6  C   UNL     1      75.704  64.635  67.327  1.00  0.00    -0.003 C 
ATOM      7  C   UNL     1      76.105  65.946  66.616  1.00  0.00     0.004 C 
ENDBRANCH   5   6
ENDBRANCH   4   5
ENDBRANCH   3   4
ENDBRANCH   2   3
ENDBRANCH   1   2
BRANCH   1   8
ATOM      8  C   UNL     1      79.901  65.567  71.465  1.00  0.00     0.100 C 
BRANCH   8   9
ATOM      9  C   UNL     1      80.696  66.045  72.622  1.00  0.00     0.220 C 
ATOM     10  O   UNL     1      80.164  66.855  73.417  1.00  0.00    -0.275 OA
ATOM     11  N   UNL     1      81.966  65.586  72.827  1.00  0.00    -0.352 N 
ATOM     12  H   UNL     1      82.326  65.007  72.083  1.00  0.00     0.163 HD
BRANCH  11  13
ATOM     13  C   UNL     1      82.778  65.859  73.973  1.00  0.00     0.151 C 
BRANCH  13  14
ATOM     14  C   UNL     1      83.689  67.023  73.801  1.00  0.00    -0.025 A 
ATOM     15  C   UNL     1      84.510  67.449  74.873  1.00  0.00     0.056 A 
ATOM     16  C   UNL     1      83.751  67.723  72.574  1.00  0.00     0.009 A 
ATOM     17  C   UNL     1      85.393  68.542  74.719  1.00  0.00     0.160 A 
ATOM     18  C   UNL     1      84.628  68.810  72.415  1.00  0.00     0.050 A 
ATOM     19  C   UNL     1      85.444  69.227  73.484  1.00  0.00     0.157 A 
BRANCH  17  20
ATOM     20  O   UNL     1      86.157  68.980  75.771  1.00  0.00    -0.493 OA
ATOM     21  C   UNL     1      87.302  68.156  76.052  1.00  0.00     0.278 C 
ENDBRANCH  17  20
BRANCH  19  22
ATOM     22  O   UNL     1      86.267  70.295  73.328  1.00  0.00    -0.504 OA
ATOM     23  H   UNL     1      86.006  70.789  72.547  1.00  0.00     0.293 HD
ENDBRANCH  19  22
ENDBRANCH  13  14
ENDBRANCH  11  13
ENDBRANCH   8   9
ENDBRANCH   1   8
TORSDOF 11
ENDMDL
MODEL 4
REMARK VINA RESULT:    -5.777     13.135     16.264
REMARK INTER + INTRA:         -10.054
REMARK INTER:                  -9.475
REMARK INTRA:                  -0.579
REMARK UNBOUND:                -0.731
REMARK SMILES CCCCCCCCC(=O)NCc1ccc(O)c(OC)c1
REMARK SMILES IDX 7 1 6 2 5 3 4 4 3 5 2 6 1 7 8 8 9 9 10 10 11 11 12 13 13 14
REMARK SMILES IDX 21 15 14 16 18 17 15 18 16 19 19 20 20 21 17 22
REMARK H PARENT 11 12 17 23
REMARK Flexibility Score: inf
ROOT
ATOM      1  C   UNL     1      96.722  81.466  81.935  1.00  0.00     0.010 C 
ENDROOT
BRANCH   1   2
ATOM      2  C   UNL     1      97.557  81.907  80.698  1.00  0.00     0.001 C 
BRANCH   2   3
ATOM      3  C   UNL     1      97.024  83.228  80.069  1.00  0.00     0.000 C 
BRANCH   3   4
ATOM      4  C   UNL     1      97.454  83.435  78.589  1.00  0.00    -0.000 C 
BRANCH   4   5
ATOM      5  C   UNL     1      96.260  83.805  77.664  1.00  0.00    -0.000 C 
BRANCH   5   6
ATOM      6  C   UNL     1      96.711  84.545  76.376  1.00  0.00    -0.003 C 
ATOM      7  C   UNL     1      97.833  83.801  75.618  1.00  0.00     0.004 C 
ENDBRANCH   5   6
ENDBRANCH   4   5
ENDBRANCH   3   4
ENDBRANCH   2   3
ENDBRANCH   1   2
BRANCH   1   8
ATOM      8  C   UNL     1      97.253  82.026  83.284  1.00  0.00     0.100 C 
BRANCH   8   9
ATOM      9  C   UNL     1      96.158  82.179  84.273  1.00  0.00     0.220 C 
ATOM     10  O   UNL     1      96.444  82.114  85.492  1.00  0.00    -0.275 OA
ATOM     11  N   UNL     1      94.878  82.415  83.860  1.00  0.00    -0.352 N 
ATOM     12  H   UNL     1      94.745  82.361  82.861  1.00  0.00     0.163 HD
BRANCH  11  13
ATOM     13  C   UNL     1      93.768  82.719  84.710  1.00  0.00     0.151 C 
BRANCH  13  14
ATOM     14  C   UNL     1      92.645  81.749  84.603  1.00  0.00    -0.025 A 
ATOM     15  C   UNL     1      92.901  80.357  84.634  1.00  0.00     0.056 A 
ATOM     16  C   UNL     1      91.311  82.195  84.466  1.00  0.00     0.009 A 
ATOM     17  C   UNL     1      91.842  79.423  84.551  1.00  0.00     0.160 A 
ATOM     18  C   UNL     1      90.253  81.271  84.383  1.00  0.00     0.050 A 
ATOM     19  C   UNL     1      90.514  79.888  84.418  1.00  0.00     0.157 A 
BRANCH  17  20
ATOM     20  O   UNL     1      92.096  78.075  84.538  1.00  0.00    -0.493 OA
ATOM     21  C   UNL     1      93.490  77.737  84.644  1.00  0.00     0.278 C 
ENDBRANCH  17  20
BRANCH  19  22
ATOM     22  O   UNL     1      89.489  79.004  84.310  1.00  0.00    -0.504 OA
ATOM     23  H   UNL     1      89.512  78.592  83.443  1.00  0.00     0.293 HD
ENDBRANCH  19  22
ENDBRANCH  13  14
ENDBRANCH  11  13
ENDBRANCH   8   9
ENDBRANCH   1   8
TORSDOF 11
ENDMDL
MODEL 5
REMARK VINA RESULT:    -5.513     12.620     15.252
REMARK INTER + INTRA:          -9.628
REMARK INTER:                  -8.914
REMARK INTRA:                  -0.714
REMARK UNBOUND:                -0.731
REMARK SMILES CCCCCCCCC(=O)NCc1ccc(O)c(OC)c1
REMARK SMILES IDX 7 1 6 2 5 3 4 4 3 5 2 6 1 7 8 8 9 9 10 10 11 11 12 13 13 14
REMARK SMILES IDX 21 15 14 16 18 17 15 18 16 19 19 20 20 21 17 22
REMARK H PARENT 11 12 17 23
REMARK Flexibility Score: inf
ROOT
ATOM      1  C   UNL     1      95.308  82.805  83.530  1.00  0.00     0.010 C 
ENDROOT
BRANCH   1   2
ATOM      2  C   UNL     1      95.078  82.865  85.067  1.00  0.00     0.001 C 
BRANCH   2   3
ATOM      3  C   UNL     1      93.565  82.878  85.437  1.00  0.00     0.000 C 
BRANCH   3   4
ATOM      4  C   UNL     1      92.710  81.877  84.609  1.00  0.00    -0.000 C 
BRANCH   4   5
ATOM      5  C   UNL     1      92.106  80.740  85.482  1.00  0.00    -0.000 C 
BRANCH   5   6
ATOM      6  C   UNL     1      93.065  80.285  86.614  1.00  0.00    -0.003 C 
ATOM      7  C   UNL     1      92.432  80.398  88.019  1.00  0.00     0.004 C 
ENDBRANCH   5   6
ENDBRANCH   4   5
ENDBRANCH   3   4
ENDBRANCH   2   3
ENDBRANCH   1   2
BRANCH   1   8
ATOM      8  C   UNL     1      96.067  81.534  83.056  1.00  0.00     0.100 C 
BRANCH   8   9
ATOM      9  C   UNL     1      97.209  81.883  82.178  1.00  0.00     0.220 C 
ATOM     10  O   UNL     1      98.330  82.074  82.707  1.00  0.00    -0.275 OA
ATOM     11  N   UNL     1      97.045  81.964  80.825  1.00  0.00    -0.352 N 
ATOM     12  H   UNL     1      96.088  81.878  80.514  1.00  0.00     0.163 HD
BRANCH  11  13
ATOM     13  C   UNL     1      98.090  82.152  79.866  1.00  0.00     0.151 C 
BRANCH  13  14
ATOM     14  C   UNL     1      97.651  82.846  78.626  1.00  0.00    -0.025 A 
ATOM     15  C   UNL     1      98.419  82.743  77.441  1.00  0.00     0.056 A 
ATOM     16  C   UNL     1      96.469  83.622  78.607  1.00  0.00     0.009 A 
ATOM     17  C   UNL     1      98.005  83.383  76.250  1.00  0.00     0.160 A 
ATOM     18  C   UNL     1      96.051  84.260  77.426  1.00  0.00     0.050 A 
ATOM     19  C   UNL     1      96.818  84.150  76.250  1.00  0.00     0.157 A 
BRANCH  17  20
ATOM     20  O   UNL     1      98.772  83.316  75.115  1.00  0.00    -0.493 OA
ATOM     21  C   UNL     1      99.911  84.194  75.121  1.00  0.00     0.278 C 
ENDBRANCH  17  20
BRANCH  19  22
ATOM     22  O   UNL     1      96.421  84.793  75.122  1.00  0.00    -0.504 OA
ATOM     23  H   UNL     1      96.202  84.147  74.446  1.00  0.00     0.293 HD
ENDBRANCH  19  22
ENDBRANCH  13  14
ENDBRANCH  11  13
ENDBRANCH   8   9
ENDBRANCH   1   8
TORSDOF 11
ENDMDL
MODEL 6
REMARK VINA RESULT:    -5.506     12.120     13.600
REMARK INTER + INTRA:          -9.617
REMARK INTER:                  -9.015
REMARK INTRA:                  -0.602
REMARK UNBOUND:                -0.731
REMARK SMILES CCCCCCCCC(=O)NCc1ccc(O)c(OC)c1
REMARK SMILES IDX 7 1 6 2 5 3 4 4 3 5 2 6 1 7 8 8 9 9 10 10 11 11 12 13 13 14
REMARK SMILES IDX 21 15 14 16 18 17 15 18 16 19 19 20 20 21 17 22
REMARK H PARENT 11 12 17 23
REMARK Flexibility Score: inf
ROOT
ATOM      1  C   UNL     1      94.130  82.759  86.058  1.00  0.00     0.010 C 
ENDROOT
BRANCH   1   2
ATOM      2  C   UNL     1      93.236  81.684  85.376  1.00  0.00     0.001 C 
BRANCH   2   3
ATOM      3  C   UNL     1      92.050  82.316  84.589  1.00  0.00     0.000 C 
BRANCH   3   4
ATOM      4  C   UNL     1      91.141  81.273  83.879  1.00  0.00    -0.000 C 
BRANCH   4   5
ATOM      5  C   UNL     1      90.999  79.952  84.688  1.00  0.00    -0.000 C 
BRANCH   5   6
ATOM      6  C   UNL     1      91.400  78.701  83.860  1.00  0.00    -0.003 C 
ATOM      7  C   UNL     1      90.593  77.442  84.247  1.00  0.00     0.004 C 
ENDBRANCH   5   6
ENDBRANCH   4   5
ENDBRANCH   3   4
ENDBRANCH   2   3
ENDBRANCH   1   2
BRANCH   1   8
ATOM      8  C   UNL     1      93.512  84.185  86.056  1.00  0.00     0.100 C 
BRANCH   8   9
ATOM      9  C   UNL     1      93.697  84.855  87.365  1.00  0.00     0.220 C 
ATOM     10  O   UNL     1      94.479  84.333  88.196  1.00  0.00    -0.275 OA
ATOM     11  N   UNL     1      93.051  86.026  87.643  1.00  0.00    -0.352 N 
ATOM     12  H   UNL     1      92.383  86.310  86.942  1.00  0.00     0.163 HD
BRANCH  11  13
ATOM     13  C   UNL     1      93.254  86.837  88.804  1.00  0.00     0.151 C 
BRANCH  13  14
ATOM     14  C   UNL     1      93.624  88.245  88.498  1.00  0.00    -0.025 A 
ATOM     15  C   UNL     1      93.118  89.303  89.291  1.00  0.00     0.056 A 
ATOM     16  C   UNL     1      94.478  88.552  87.414  1.00  0.00     0.009 A 
ATOM     17  C   UNL     1      93.475  90.644  89.022  1.00  0.00     0.160 A 
ATOM     18  C   UNL     1      94.838  89.884  87.143  1.00  0.00     0.050 A 
ATOM     19  C   UNL     1      94.333  90.932  87.937  1.00  0.00     0.157 A 
BRANCH  17  20
ATOM     20  O   UNL     1      92.950  91.672  89.765  1.00  0.00    -0.493 OA
ATOM     21  C   UNL     1      93.018  91.464  91.187  1.00  0.00     0.278 C 
ENDBRANCH  17  20
BRANCH  19  22
ATOM     22  O   UNL     1      94.664  92.217  87.650  1.00  0.00    -0.504 OA
ATOM     23  H   UNL     1      94.816  92.698  88.467  1.00  0.00     0.293 HD
ENDBRANCH  19  22
ENDBRANCH  13  14
ENDBRANCH  11  13
ENDBRANCH   8   9
ENDBRANCH   1   8
TORSDOF 11
ENDMDL
MODEL 7
REMARK VINA RESULT:    -5.494     12.616     14.365
REMARK INTER + INTRA:          -9.598
REMARK INTER:                  -8.711
REMARK INTRA:                  -0.887
REMARK UNBOUND:                -0.731
REMARK SMILES CCCCCCCCC(=O)NCc1ccc(O)c(OC)c1
REMARK SMILES IDX 7 1 6 2 5 3 4 4 3 5 2 6 1 7 8 8 9 9 10 10 11 11 12 13 13 14
REMARK SMILES IDX 21 15 14 16 18 17 15 18 16 19 19 20 20 21 17 22
REMARK H PARENT 11 12 17 23
REMARK Flexibility Score: inf
ROOT
ATOM      1  C   UNL     1      97.792  83.232  78.351  1.00  0.00     0.010 C 
ENDROOT
BRANCH   1   2
ATOM      2  C   UNL     1      97.770  81.696  78.601  1.00  0.00     0.001 C 
BRANCH   2   3
ATOM      3  C   UNL     1      97.459  81.346  80.086  1.00  0.00     0.000 C 
BRANCH   3   4
ATOM      4  C   UNL     1      97.862  82.462  81.091  1.00  0.00    -0.000 C 
BRANCH   4   5
ATOM      5  C   UNL     1      96.631  83.160  81.736  1.00  0.00    -0.000 C 
BRANCH   5   6
ATOM      6  C   UNL     1      96.560  82.944  83.272  1.00  0.00    -0.003 C 
ATOM      7  C   UNL     1      95.347  82.091  83.702  1.00  0.00     0.004 C 
ENDBRANCH   5   6
ENDBRANCH   4   5
ENDBRANCH   3   4
ENDBRANCH   2   3
ENDBRANCH   1   2
BRANCH   1   8
ATOM      8  C   UNL     1      96.469  83.793  77.759  1.00  0.00     0.100 C 
BRANCH   8   9
ATOM      9  C   UNL     1      96.644  84.214  76.349  1.00  0.00     0.220 C 
ATOM     10  O   UNL     1      96.213  85.341  76.006  1.00  0.00    -0.275 OA
ATOM     11  N   UNL     1      97.284  83.402  75.456  1.00  0.00    -0.352 N 
ATOM     12  H   UNL     1      97.511  82.486  75.814  1.00  0.00     0.163 HD
BRANCH  11  13
ATOM     13  C   UNL     1      97.638  83.751  74.114  1.00  0.00     0.151 C 
BRANCH  13  14
ATOM     14  C   UNL     1      98.975  84.389  73.992  1.00  0.00    -0.025 A 
ATOM     15  C   UNL     1     100.066  83.911  74.756  1.00  0.00     0.056 A 
ATOM     16  C   UNL     1      99.182  85.482  73.118  1.00  0.00     0.009 A 
ATOM     17  C   UNL     1     101.347  84.497  74.637  1.00  0.00     0.160 A 
ATOM     18  C   UNL     1     100.454  86.068  72.995  1.00  0.00     0.050 A 
ATOM     19  C   UNL     1     101.535  85.585  73.756  1.00  0.00     0.157 A 
BRANCH  17  20
ATOM     20  O   UNL     1     102.393  84.059  75.410  1.00  0.00    -0.493 OA
ATOM     21  C   UNL     1     102.901  82.765  75.036  1.00  0.00     0.278 C 
ENDBRANCH  17  20
BRANCH  19  22
ATOM     22  O   UNL     1     102.753  86.176  73.650  1.00  0.00    -0.504 OA
ATOM     23  H   UNL     1     102.937  86.675  74.450  1.00  0.00     0.293 HD
ENDBRANCH  19  22
ENDBRANCH  13  14
ENDBRANCH  11  13
ENDBRANCH   8   9
ENDBRANCH   1   8
TORSDOF 11
ENDMDL
MODEL 8
REMARK VINA RESULT:    -5.470      4.955      6.835
REMARK INTER + INTRA:          -9.558
REMARK INTER:                  -8.698
REMARK INTRA:                  -0.861
REMARK UNBOUND:                -0.731
REMARK SMILES CCCCCCCCC(=O)NCc1ccc(O)c(OC)c1
REMARK SMILES IDX 7 1 6 2 5 3 4 4 3 5 2 6 1 7 8 8 9 9 10 10 11 11 12 13 13 14
REMARK SMILES IDX 21 15 14 16 18 17 15 18 16 19 19 20 20 21 17 22
REMARK H PARENT 11 12 17 23
REMARK Flexibility Score: inf
ROOT
ATOM      1  C   UNL     1      93.391  95.742  76.986  1.00  0.00     0.010 C 
ENDROOT
BRANCH   1   2
ATOM      2  C   UNL     1      92.130  94.961  77.455  1.00  0.00     0.001 C 
BRANCH   2   3
ATOM      3  C   UNL     1      90.823  95.512  76.810  1.00  0.00     0.000 C 
BRANCH   3   4
ATOM      4  C   UNL     1      89.702  94.445  76.658  1.00  0.00    -0.000 C 
BRANCH   4   5
ATOM      5  C   UNL     1      90.234  92.991  76.795  1.00  0.00    -0.000 C 
BRANCH   5   6
ATOM      6  C   UNL     1      90.105  92.182  75.476  1.00  0.00    -0.003 C 
ATOM      7  C   UNL     1      90.407  93.030  74.221  1.00  0.00     0.004 C 
ENDBRANCH   5   6
ENDBRANCH   4   5
ENDBRANCH   3   4
ENDBRANCH   2   3
ENDBRANCH   1   2
BRANCH   1   8
ATOM      8  C   UNL     1      93.733  95.541  75.483  1.00  0.00     0.100 C 
BRANCH   8   9
ATOM      9  C   UNL     1      94.080  96.827  74.831  1.00  0.00     0.220 C 
ATOM     10  O   UNL     1      94.543  97.749  75.544  1.00  0.00    -0.275 OA
ATOM     11  N   UNL     1      93.924  96.986  73.484  1.00  0.00    -0.352 N 
ATOM     12  H   UNL     1      93.464  96.215  73.023  1.00  0.00     0.163 HD
BRANCH  11  13
ATOM     13  C   UNL     1      94.351  98.120  72.722  1.00  0.00     0.151 C 
BRANCH  13  14
ATOM     14  C   UNL     1      95.603  97.890  71.953  1.00  0.00    -0.025 A 
ATOM     15  C   UNL     1      96.861  98.001  72.591  1.00  0.00     0.056 A 
ATOM     16  C   UNL     1      95.562  97.563  70.578  1.00  0.00     0.009 A 
ATOM     17  C   UNL     1      98.060  97.768  71.877  1.00  0.00     0.160 A 
ATOM     18  C   UNL     1      96.750  97.329  69.862  1.00  0.00     0.050 A 
ATOM     19  C   UNL     1      97.998  97.438  70.504  1.00  0.00     0.157 A 
BRANCH  17  20
ATOM     20  O   UNL     1      99.280  97.917  72.487  1.00  0.00    -0.493 OA
ATOM     21  C   UNL     1      99.210  98.459  73.818  1.00  0.00     0.278 C 
ENDBRANCH  17  20
BRANCH  19  22
ATOM     22  O   UNL     1      99.140  97.238  69.799  1.00  0.00    -0.504 OA
ATOM     23  H   UNL     1      98.952  97.307  68.860  1.00  0.00     0.293 HD
ENDBRANCH  19  22
ENDBRANCH  13  14
ENDBRANCH  11  13
ENDBRANCH   8   9
ENDBRANCH   1   8
TORSDOF 11
ENDMDL
MODEL 9
REMARK VINA RESULT:    -5.391     12.733     14.984
REMARK INTER + INTRA:          -9.431
REMARK INTER:                  -8.905
REMARK INTRA:                  -0.526
REMARK UNBOUND:                -0.731
REMARK SMILES CCCCCCCCC(=O)NCc1ccc(O)c(OC)c1
REMARK SMILES IDX 7 1 6 2 5 3 4 4 3 5 2 6 1 7 8 8 9 9 10 10 11 11 12 13 13 14
REMARK SMILES IDX 21 15 14 16 18 17 15 18 16 19 19 20 20 21 17 22
REMARK H PARENT 11 12 17 23
REMARK Flexibility Score: inf
ROOT
ATOM      1  C   UNL     1      97.387  82.371  77.988  1.00  0.00     0.010 C 
ENDROOT
BRANCH   1   2
ATOM      2  C   UNL     1      97.570  82.150  79.518  1.00  0.00     0.001 C 
BRANCH   2   3
ATOM      3  C   UNL     1      96.900  83.276  80.359  1.00  0.00     0.000 C 
BRANCH   3   4
ATOM      4  C   UNL     1      96.726  82.916  81.862  1.00  0.00    -0.000 C 
BRANCH   4   5
ATOM      5  C   UNL     1      96.060  84.059  82.680  1.00  0.00    -0.000 C 
BRANCH   5   6
ATOM      6  C   UNL     1      95.425  83.553  84.003  1.00  0.00    -0.003 C 
ATOM      7  C   UNL     1      94.657  82.225  83.831  1.00  0.00     0.004 C 
ENDBRANCH   5   6
ENDBRANCH   4   5
ENDBRANCH   3   4
ENDBRANCH   2   3
ENDBRANCH   1   2
BRANCH   1   8
ATOM      8  C   UNL     1      97.416  83.865  77.560  1.00  0.00     0.100 C 
BRANCH   8   9
ATOM      9  C   UNL     1      97.056  84.024  76.131  1.00  0.00     0.220 C 
ATOM     10  O   UNL     1      96.238  84.922  75.819  1.00  0.00    -0.275 OA
ATOM     11  N   UNL     1      97.627  83.228  75.179  1.00  0.00    -0.352 N 
ATOM     12  H   UNL     1      98.202  82.484  75.547  1.00  0.00     0.163 HD
BRANCH  11  13
ATOM     13  C   UNL     1      97.471  83.374  73.764  1.00  0.00     0.151 C 
BRANCH  13  14
ATOM     14  C   UNL     1      98.645  83.990  73.090  1.00  0.00    -0.025 A 
ATOM     15  C   UNL     1      99.386  83.254  72.135  1.00  0.00     0.056 A 
ATOM     16  C   UNL     1      99.044  85.313  73.391  1.00  0.00     0.009 A 
ATOM     17  C   UNL     1     100.494  83.832  71.474  1.00  0.00     0.160 A 
ATOM     18  C   UNL     1     100.145  85.894  72.736  1.00  0.00     0.050 A 
ATOM     19  C   UNL     1     100.875  85.157  71.785  1.00  0.00     0.157 A 
BRANCH  17  20
ATOM     20  O   UNL     1     101.236  83.103  70.579  1.00  0.00    -0.493 OA
ATOM     21  C   UNL     1     100.660  81.830  70.237  1.00  0.00     0.278 C 
ENDBRANCH  17  20
BRANCH  19  22
ATOM     22  O   UNL     1     101.953  85.717  71.178  1.00  0.00    -0.504 OA
ATOM     23  H   UNL     1     101.772  86.642  70.996  1.00  0.00     0.293 HD
ENDBRANCH  19  22
ENDBRANCH  13  14
ENDBRANCH  11  13
ENDBRANCH   8   9
ENDBRANCH   1   8
TORSDOF 11
ENDMDL
MODEL 10
REMARK VINA RESULT:    -5.219     21.204     24.757
REMARK INTER + INTRA:          -9.153
REMARK INTER:                  -8.060
REMARK INTRA:                  -1.093
REMARK UNBOUND:                -0.731
REMARK SMILES CCCCCCCCC(=O)NCc1ccc(O)c(OC)c1
REMARK SMILES IDX 7 1 6 2 5 3 4 4 3 5 2 6 1 7 8 8 9 9 10 10 11 11 12 13 13 14
REMARK SMILES IDX 21 15 14 16 18 17 15 18 16 19 19 20 20 21 17 22
REMARK H PARENT 11 12 17 23
REMARK Flexibility Score: inf
ROOT
ATOM      1  C   UNL     1      75.538  89.617  68.261  1.00  0.00     0.010 C 
ENDROOT
BRANCH   1   2
ATOM      2  C   UNL     1      77.028  89.177  68.184  1.00  0.00     0.001 C 
BRANCH   2   3
ATOM      3  C   UNL     1      77.183  87.706  67.698  1.00  0.00     0.000 C 
BRANCH   3   4
ATOM      4  C   UNL     1      75.882  86.863  67.825  1.00  0.00    -0.000 C 
BRANCH   4   5
ATOM      5  C   UNL     1      75.598  86.415  69.287  1.00  0.00    -0.000 C 
BRANCH   5   6
ATOM      6  C   UNL     1      76.614  85.357  69.795  1.00  0.00    -0.003 C 
ATOM      7  C   UNL     1      75.996  83.948  69.930  1.00  0.00     0.004 C 
ENDBRANCH   5   6
ENDBRANCH   4   5
ENDBRANCH   3   4
ENDBRANCH   2   3
ENDBRANCH   1   2
BRANCH   1   8
ATOM      8  C   UNL     1      75.068  90.002  69.691  1.00  0.00     0.100 C 
BRANCH   8   9
ATOM      9  C   UNL     1      73.655  89.613  69.919  1.00  0.00     0.220 C 
ATOM     10  O   UNL     1      73.196  89.692  71.083  1.00  0.00    -0.275 OA
ATOM     11  N   UNL     1      72.871  89.207  68.877  1.00  0.00    -0.352 N 
ATOM     12  H   UNL     1      73.363  89.098  68.002  1.00  0.00     0.163 HD
BRANCH  11  13
ATOM     13  C   UNL     1      71.466  88.943  68.942  1.00  0.00     0.151 C 
BRANCH  13  14
ATOM     14  C   UNL     1      71.130  87.498  69.045  1.00  0.00    -0.025 A 
ATOM     15  C   UNL     1      71.770  86.556  68.204  1.00  0.00     0.056 A 
ATOM     16  C   UNL     1      70.169  87.040  69.976  1.00  0.00     0.009 A 
ATOM     17  C   UNL     1      71.474  85.177  68.303  1.00  0.00     0.160 A 
ATOM     18  C   UNL     1      69.871  85.670  70.080  1.00  0.00     0.050 A 
ATOM     19  C   UNL     1      70.514  84.737  69.242  1.00  0.00     0.157 A 
BRANCH  17  20
ATOM     20  O   UNL     1      72.064  84.270  67.459  1.00  0.00    -0.493 OA
ATOM     21  C   UNL     1      71.946  84.601  66.064  1.00  0.00     0.278 C 
ENDBRANCH  17  20
BRANCH  19  22
ATOM     22  O   UNL     1      70.199  83.420  69.331  1.00  0.00    -0.504 OA
ATOM     23  H   UNL     1      69.298  83.285  69.028  1.00  0.00     0.293 HD
ENDBRANCH  19  22
ENDBRANCH  13  14
ENDBRANCH  11  13
ENDBRANCH   8   9
ENDBRANCH   1   8
TORSDOF 11
ENDMDL
