MODEL 1
REMARK VINA RESULT:    -6.160      0.000      0.000
REMARK INTER + INTRA:         -10.374
REMARK INTER:                  -9.582
REMARK INTRA:                  -0.792
REMARK UNBOUND:                -0.792
REMARK SMILES COc1cc(CNC(=O)CCCC/C=C/C(C)C)ccc1O
REMARK SMILES IDX 10 1 8 2 7 3 9 5 6 6 5 7 3 8 21 9 4 10 20 11 19 12 2 13 1 14
REMARK SMILES IDX 22 15 11 17 12 18 13 19 14 20 15 21 16 22 17 23 18 24
REMARK H PARENT 7 4 22 16
REMARK Flexibility Score: inf
ROOT
ATOM      1  C   UNL     1      94.242  99.451  73.626  1.00  0.00     0.100 C 
ENDROOT
BRANCH   1   2
ATOM      2  C   UNL     1      95.036  98.744  74.649  1.00  0.00     0.220 C 
ATOM      3  N   UNL     1      94.520  97.665  75.301  1.00  0.00    -0.352 N 
ATOM      4  H   UNL     1      93.573  97.423  75.043  1.00  0.00     0.163 HD
ATOM      5  O   UNL     1      96.200  99.151  74.881  1.00  0.00    -0.275 OA
BRANCH   3   6
ATOM      6  C   UNL     1      95.216  96.894  76.282  1.00  0.00     0.151 C 
BRANCH   6   7
ATOM      7  C   UNL     1      94.290  96.009  77.039  1.00  0.00    -0.025 A 
ATOM      8  C   UNL     1      93.689  94.842  79.122  1.00  0.00     0.160 A 
ATOM      9  C   UNL     1      92.525  94.338  78.505  1.00  0.00     0.157 A 
ATOM     10  C   UNL     1      94.561  95.669  78.384  1.00  0.00     0.056 A 
ATOM     11  C   UNL     1      92.252  94.653  77.159  1.00  0.00     0.050 A 
ATOM     12  C   UNL     1      93.122  95.490  76.434  1.00  0.00     0.009 A 
BRANCH   8  13
ATOM     13  O   UNL     1      93.993  94.485  80.411  1.00  0.00    -0.493 OA
ATOM     14  C   UNL     1      94.931  93.398  80.514  1.00  0.00     0.278 C 
ENDBRANCH   8  13
BRANCH   9  15
ATOM     15  O   UNL     1      91.659  93.550  79.192  1.00  0.00    -0.504 OA
ATOM     16  H   UNL     1      91.280  92.897  78.598  1.00  0.00     0.293 HD
ENDBRANCH   9  15
ENDBRANCH   6   7
ENDBRANCH   3   6
ENDBRANCH   1   2
BRANCH   1  17
ATOM     17  C   UNL     1      92.786  99.701  74.103  1.00  0.00     0.010 C 
BRANCH  17  18
ATOM     18  C   UNL     1      91.956 100.545  73.095  1.00  0.00     0.005 C 
BRANCH  18  19
ATOM     19  C   UNL     1      92.365 100.277  71.622  1.00  0.00     0.027 C 
BRANCH  19  20
ATOM     20  C   UNL     1      91.339  99.548  70.892  1.00  0.00    -0.031 C 
ATOM     21  C   UNL     1      90.201  99.090  71.444  1.00  0.00    -0.028 C 
BRANCH  21  22
ATOM     22  C   UNL     1      89.173  98.376  70.686  1.00  0.00     0.005 C 
ATOM     23  C   UNL     1      88.791  99.113  69.372  1.00  0.00     0.012 C 
ATOM     24  C   UNL     1      89.634  96.925  70.394  1.00  0.00     0.012 C 
ENDBRANCH  21  22
ENDBRANCH  19  20
ENDBRANCH  18  19
ENDBRANCH  17  18
ENDBRANCH   1  17
TORSDOF 10
ENDMDL
MODEL 2
REMARK VINA RESULT:    -6.081      1.129      2.198
REMARK INTER + INTRA:         -10.250
REMARK INTER:                  -9.465
REMARK INTRA:                  -0.784
REMARK UNBOUND:                -0.792
REMARK SMILES COc1cc(CNC(=O)CCCC/C=C/C(C)C)ccc1O
REMARK SMILES IDX 10 1 8 2 7 3 9 5 6 6 5 7 3 8 21 9 4 10 20 11 19 12 2 13 1 14
REMARK SMILES IDX 22 15 11 17 12 18 13 19 14 20 15 21 16 22 17 23 18 24
REMARK H PARENT 7 4 22 16
REMARK Flexibility Score: inf
ROOT
ATOM      1  C   UNL     1      94.088  99.226  74.008  1.00  0.00     0.100 C 
ENDROOT
BRANCH   1   2
ATOM      2  C   UNL     1      94.721  98.597  75.183  1.00  0.00     0.220 C 
ATOM      3  N   UNL     1      94.003  97.775  75.998  1.00  0.00    -0.352 N 
ATOM      4  H   UNL     1      93.032  97.663  75.743  1.00  0.00     0.163 HD
ATOM      5  O   UNL     1      95.938  98.824  75.393  1.00  0.00    -0.275 OA
BRANCH   3   6
ATOM      6  C   UNL     1      94.529  97.095  77.138  1.00  0.00     0.151 C 
BRANCH   6   7
ATOM      7  C   UNL     1      93.587  96.056  77.638  1.00  0.00    -0.025 A 
ATOM      8  C   UNL     1      91.509  94.762  77.372  1.00  0.00     0.160 A 
ATOM      9  C   UNL     1      91.790  94.065  78.565  1.00  0.00     0.157 A 
ATOM     10  C   UNL     1      92.408  95.752  76.921  1.00  0.00     0.056 A 
ATOM     11  C   UNL     1      92.951  94.372  79.301  1.00  0.00     0.050 A 
ATOM     12  C   UNL     1      93.849  95.353  78.837  1.00  0.00     0.009 A 
BRANCH   8  13
ATOM     13  O   UNL     1      90.347  94.514  76.687  1.00  0.00    -0.493 OA
ATOM     14  C   UNL     1      89.196  95.199  77.216  1.00  0.00     0.278 C 
ENDBRANCH   8  13
BRANCH   9  15
ATOM     15  O   UNL     1      90.952  93.098  79.020  1.00  0.00    -0.504 OA
ATOM     16  H   UNL     1      91.023  93.035  79.975  1.00  0.00     0.293 HD
ENDBRANCH   9  15
ENDBRANCH   6   7
ENDBRANCH   3   6
ENDBRANCH   1   2
BRANCH   1  17
ATOM     17  C   UNL     1      92.666  99.754  74.337  1.00  0.00     0.010 C 
BRANCH  17  18
ATOM     18  C   UNL     1      92.090 100.674  73.224  1.00  0.00     0.005 C 
BRANCH  18  19
ATOM     19  C   UNL     1      92.541 100.237  71.804  1.00  0.00     0.027 C 
BRANCH  19  20
ATOM     20  C   UNL     1      91.460  99.617  71.053  1.00  0.00    -0.031 C 
ATOM     21  C   UNL     1      90.264  99.294  71.576  1.00  0.00    -0.028 C 
BRANCH  21  22
ATOM     22  C   UNL     1      89.184  98.690  70.796  1.00  0.00     0.005 C 
ATOM     23  C   UNL     1      88.830  99.524  69.534  1.00  0.00     0.012 C 
ATOM     24  C   UNL     1      89.552  97.233  70.411  1.00  0.00     0.012 C 
ENDBRANCH  21  22
ENDBRANCH  19  20
ENDBRANCH  18  19
ENDBRANCH  17  18
ENDBRANCH   1  17
TORSDOF 10
ENDMDL
MODEL 3
REMARK VINA RESULT:    -6.041     15.645     18.600
REMARK INTER + INTRA:         -10.188
REMARK INTER:                  -9.558
REMARK INTRA:                  -0.630
REMARK UNBOUND:                -0.792
REMARK SMILES COc1cc(CNC(=O)CCCC/C=C/C(C)C)ccc1O
REMARK SMILES IDX 10 1 8 2 7 3 9 5 6 6 5 7 3 8 21 9 4 10 20 11 19 12 2 13 1 14
REMARK SMILES IDX 22 15 11 17 12 18 13 19 14 20 15 21 16 22 17 23 18 24
REMARK H PARENT 7 4 22 16
REMARK Flexibility Score: inf
ROOT
ATOM      1  C   UNL     1      96.718  82.524  85.436  1.00  0.00     0.100 C 
ENDROOT
BRANCH   1   2
ATOM      2  C   UNL     1      95.590  82.897  86.311  1.00  0.00     0.220 C 
ATOM      3  N   UNL     1      94.764  81.941  86.820  1.00  0.00    -0.352 N 
ATOM      4  H   UNL     1      94.976  80.996  86.531  1.00  0.00     0.163 HD
ATOM      5  O   UNL     1      95.432  84.111  86.589  1.00  0.00    -0.275 OA
BRANCH   3   6
ATOM      6  C   UNL     1      93.667  82.194  87.699  1.00  0.00     0.151 C 
BRANCH   6   7
ATOM      7  C   UNL     1      92.372  81.783  87.089  1.00  0.00    -0.025 A 
ATOM      8  C   UNL     1      91.078  80.227  85.688  1.00  0.00     0.160 A 
ATOM      9  C   UNL     1      89.909  80.974  85.936  1.00  0.00     0.157 A 
ATOM     10  C   UNL     1      92.298  80.639  86.264  1.00  0.00     0.056 A 
ATOM     11  C   UNL     1      89.971  82.129  86.741  1.00  0.00     0.050 A 
ATOM     12  C   UNL     1      91.191  82.526  87.322  1.00  0.00     0.009 A 
BRANCH   8  13
ATOM     13  O   UNL     1      91.035  79.140  84.851  1.00  0.00    -0.493 OA
ATOM     14  C   UNL     1      91.634  77.952  85.401  1.00  0.00     0.278 C 
ENDBRANCH   8  13
BRANCH   9  15
ATOM     15  O   UNL     1      88.716  80.598  85.407  1.00  0.00    -0.504 OA
ATOM     16  H   UNL     1      88.846  79.843  84.828  1.00  0.00     0.293 HD
ENDBRANCH   9  15
ENDBRANCH   6   7
ENDBRANCH   3   6
ENDBRANCH   1   2
BRANCH   1  17
ATOM     17  C   UNL     1      97.326  83.763  84.725  1.00  0.00     0.010 C 
BRANCH  17  18
ATOM     18  C   UNL     1      97.489  83.562  83.193  1.00  0.00     0.005 C 
BRANCH  18  19
ATOM     19  C   UNL     1      98.619  82.554  82.846  1.00  0.00     0.027 C 
BRANCH  19  20
ATOM     20  C   UNL     1      98.710  82.305  81.415  1.00  0.00    -0.031 C 
ATOM     21  C   UNL     1      98.303  83.172  80.470  1.00  0.00    -0.028 C 
BRANCH  21  22
ATOM     22  C   UNL     1      98.423  82.909  79.036  1.00  0.00     0.005 C 
ATOM     23  C   UNL     1      97.517  83.844  78.188  1.00  0.00     0.012 C 
ATOM     24  C   UNL     1      99.904  83.022  78.592  1.00  0.00     0.012 C 
ENDBRANCH  21  22
ENDBRANCH  19  20
ENDBRANCH  18  19
ENDBRANCH  17  18
ENDBRANCH   1  17
TORSDOF 10
ENDMDL
MODEL 4
REMARK VINA RESULT:    -5.785     20.417     24.066
REMARK INTER + INTRA:          -9.790
REMARK INTER:                  -7.674
REMARK INTRA:                  -2.116
REMARK UNBOUND:                -0.792
REMARK SMILES COc1cc(CNC(=O)CCCC/C=C/C(C)C)ccc1O
REMARK SMILES IDX 10 1 8 2 7 3 9 5 6 6 5 7 3 8 21 9 4 10 20 11 19 12 2 13 1 14
REMARK SMILES IDX 22 15 11 17 12 18 13 19 14 20 15 21 16 22 17 23 18 24
REMARK H PARENT 7 4 22 16
REMARK Flexibility Score: inf
ROOT
ATOM      1  C   UNL     1      77.428  87.300  67.753  1.00  0.00     0.100 C 
ENDROOT
BRANCH   1   2
ATOM      2  C   UNL     1      76.056  87.264  67.212  1.00  0.00     0.220 C 
ATOM      3  N   UNL     1      75.802  86.675  66.010  1.00  0.00    -0.352 N 
ATOM      4  H   UNL     1      76.614  86.304  65.536  1.00  0.00     0.163 HD
ATOM      5  O   UNL     1      75.135  87.768  67.899  1.00  0.00    -0.275 OA
BRANCH   3   6
ATOM      6  C   UNL     1      74.508  86.560  65.416  1.00  0.00     0.151 C 
BRANCH   6   7
ATOM      7  C   UNL     1      73.964  85.182  65.553  1.00  0.00    -0.025 A 
ATOM      8  C   UNL     1      73.354  83.023  64.538  1.00  0.00     0.160 A 
ATOM      9  C   UNL     1      72.947  82.543  65.800  1.00  0.00     0.157 A 
ATOM     10  C   UNL     1      73.856  84.336  64.426  1.00  0.00     0.056 A 
ATOM     11  C   UNL     1      73.031  83.381  66.930  1.00  0.00     0.050 A 
ATOM     12  C   UNL     1      73.544  84.687  66.810  1.00  0.00     0.009 A 
BRANCH   8  13
ATOM     13  O   UNL     1      73.213  82.234  63.424  1.00  0.00    -0.493 OA
ATOM     14  C   UNL     1      74.448  81.672  62.943  1.00  0.00     0.278 C 
ENDBRANCH   8  13
BRANCH   9  15
ATOM     15  O   UNL     1      72.472  81.279  65.945  1.00  0.00    -0.504 OA
ATOM     16  H   UNL     1      71.974  81.032  65.162  1.00  0.00     0.293 HD
ENDBRANCH   9  15
ENDBRANCH   6   7
ENDBRANCH   3   6
ENDBRANCH   1   2
BRANCH   1  17
ATOM     17  C   UNL     1      77.451  87.005  69.277  1.00  0.00     0.010 C 
BRANCH  17  18
ATOM     18  C   UNL     1      77.950  85.570  69.608  1.00  0.00     0.005 C 
BRANCH  18  19
ATOM     19  C   UNL     1      76.811  84.517  69.538  1.00  0.00     0.027 C 
BRANCH  19  20
ATOM     20  C   UNL     1      76.746  83.867  68.238  1.00  0.00    -0.031 C 
ATOM     21  C   UNL     1      77.818  83.602  67.471  1.00  0.00    -0.028 C 
BRANCH  21  22
ATOM     22  C   UNL     1      77.731  82.928  66.175  1.00  0.00     0.005 C 
ATOM     23  C   UNL     1      76.554  81.916  66.115  1.00  0.00     0.012 C 
ATOM     24  C   UNL     1      77.621  83.973  65.034  1.00  0.00     0.012 C 
ENDBRANCH  21  22
ENDBRANCH  19  20
ENDBRANCH  18  19
ENDBRANCH  17  18
ENDBRANCH   1  17
TORSDOF 10
ENDMDL
MODEL 5
REMARK VINA RESULT:    -5.776     14.358     17.372
REMARK INTER + INTRA:          -9.776
REMARK INTER:                  -8.821
REMARK INTRA:                  -0.955
REMARK UNBOUND:                -0.792
REMARK SMILES COc1cc(CNC(=O)CCCC/C=C/C(C)C)ccc1O
REMARK SMILES IDX 10 1 8 2 7 3 9 5 6 6 5 7 3 8 21 9 4 10 20 11 19 12 2 13 1 14
REMARK SMILES IDX 22 15 11 17 12 18 13 19 14 20 15 21 16 22 17 23 18 24
REMARK H PARENT 7 4 22 16
REMARK Flexibility Score: inf
ROOT
ATOM      1  C   UNL     1     101.328  81.683  80.869  1.00  0.00     0.100 C 
ENDROOT
BRANCH   1   2
ATOM      2  C   UNL     1     100.102  81.438  81.652  1.00  0.00     0.220 C 
ATOM      3  N   UNL     1     100.154  81.353  83.010  1.00  0.00    -0.352 N 
ATOM      4  H   UNL     1     101.078  81.445  83.409  1.00  0.00     0.163 HD
ATOM      5  O   UNL     1      99.015  81.336  81.033  1.00  0.00    -0.275 OA
BRANCH   3   6
ATOM      6  C   UNL     1      99.023  81.151  83.859  1.00  0.00     0.151 C 
BRANCH   6   7
ATOM      7  C   UNL     1      98.513  82.438  84.406  1.00  0.00    -0.025 A 
ATOM      8  C   UNL     1      98.564  84.180  86.145  1.00  0.00     0.160 A 
ATOM      9  C   UNL     1      97.567  84.900  85.454  1.00  0.00     0.157 A 
ATOM     10  C   UNL     1      99.026  82.956  85.617  1.00  0.00     0.056 A 
ATOM     11  C   UNL     1      97.033  84.385  84.256  1.00  0.00     0.050 A 
ATOM     12  C   UNL     1      97.509  83.169  83.730  1.00  0.00     0.009 A 
BRANCH   8  13
ATOM     13  O   UNL     1      99.040  84.644  87.345  1.00  0.00    -0.493 OA
ATOM     14  C   UNL     1     100.227  83.971  87.805  1.00  0.00     0.278 C 
ENDBRANCH   8  13
BRANCH   9  15
ATOM     15  O   UNL     1      97.110  86.087  85.928  1.00  0.00    -0.504 OA
ATOM     16  H   UNL     1      96.327  86.349  85.439  1.00  0.00     0.293 HD
ENDBRANCH   9  15
ENDBRANCH   6   7
ENDBRANCH   3   6
ENDBRANCH   1   2
BRANCH   1  17
ATOM     17  C   UNL     1     101.167  81.228  79.394  1.00  0.00     0.010 C 
BRANCH  17  18
ATOM     18  C   UNL     1     102.141  81.957  78.426  1.00  0.00     0.005 C 
BRANCH  18  19
ATOM     19  C   UNL     1     101.395  82.688  77.277  1.00  0.00     0.027 C 
BRANCH  19  20
ATOM     20  C   UNL     1     100.095  83.187  77.699  1.00  0.00    -0.031 C 
ATOM     21  C   UNL     1      98.969  83.070  76.974  1.00  0.00    -0.028 C 
BRANCH  21  22
ATOM     22  C   UNL     1      97.668  83.562  77.427  1.00  0.00     0.005 C 
ATOM     23  C   UNL     1      97.479  83.403  78.961  1.00  0.00     0.012 C 
ATOM     24  C   UNL     1      97.474  85.040  76.997  1.00  0.00     0.012 C 
ENDBRANCH  21  22
ENDBRANCH  19  20
ENDBRANCH  18  19
ENDBRANCH  17  18
ENDBRANCH   1  17
TORSDOF 10
ENDMDL
MODEL 6
REMARK VINA RESULT:    -5.727     15.132     17.074
REMARK INTER + INTRA:          -9.700
REMARK INTER:                  -8.803
REMARK INTRA:                  -0.897
REMARK UNBOUND:                -0.792
REMARK SMILES COc1cc(CNC(=O)CCCC/C=C/C(C)C)ccc1O
REMARK SMILES IDX 10 1 8 2 7 3 9 5 6 6 5 7 3 8 21 9 4 10 20 11 19 12 2 13 1 14
REMARK SMILES IDX 22 15 11 17 12 18 13 19 14 20 15 21 16 22 17 23 18 24
REMARK H PARENT 7 4 22 16
REMARK Flexibility Score: inf
ROOT
ATOM      1  C   UNL     1      98.531  82.095  79.532  1.00  0.00     0.100 C 
ENDROOT
BRANCH   1   2
ATOM      2  C   UNL     1      98.984  82.516  80.872  1.00  0.00     0.220 C 
ATOM      3  N   UNL     1      98.759  81.724  81.958  1.00  0.00    -0.352 N 
ATOM      4  H   UNL     1      98.252  80.871  81.767  1.00  0.00     0.163 HD
ATOM      5  O   UNL     1      99.599  83.605  80.975  1.00  0.00    -0.275 OA
BRANCH   3   6
ATOM      6  C   UNL     1      99.184  82.025  83.288  1.00  0.00     0.151 C 
BRANCH   6   7
ATOM      7  C   UNL     1      98.049  82.490  84.132  1.00  0.00    -0.025 A 
ATOM      8  C   UNL     1      96.364  82.040  85.870  1.00  0.00     0.160 A 
ATOM      9  C   UNL     1      95.899  83.367  85.763  1.00  0.00     0.157 A 
ATOM     10  C   UNL     1      97.432  81.614  85.053  1.00  0.00     0.056 A 
ATOM     11  C   UNL     1      96.491  84.246  84.835  1.00  0.00     0.050 A 
ATOM     12  C   UNL     1      97.565  83.815  84.032  1.00  0.00     0.009 A 
BRANCH   8  13
ATOM     13  O   UNL     1      95.748  81.162  86.725  1.00  0.00    -0.493 OA
ATOM     14  C   UNL     1      96.512  80.859  87.906  1.00  0.00     0.278 C 
ENDBRANCH   8  13
BRANCH   9  15
ATOM     15  O   UNL     1      94.881  83.813  86.544  1.00  0.00    -0.504 OA
ATOM     16  H   UNL     1      95.133  83.747  87.468  1.00  0.00     0.293 HD
ENDBRANCH   9  15
ENDBRANCH   6   7
ENDBRANCH   3   6
ENDBRANCH   1   2
BRANCH   1  17
ATOM     17  C   UNL     1      97.322  82.939  79.046  1.00  0.00     0.010 C 
BRANCH  17  18
ATOM     18  C   UNL     1      97.736  84.096  78.093  1.00  0.00     0.005 C 
BRANCH  18  19
ATOM     19  C   UNL     1      97.342  83.816  76.618  1.00  0.00     0.027 C 
BRANCH  19  20
ATOM     20  C   UNL     1      98.322  82.983  75.938  1.00  0.00    -0.031 C 
ATOM     21  C   UNL     1      99.653  83.153  76.030  1.00  0.00    -0.028 C 
BRANCH  21  22
ATOM     22  C   UNL     1     100.621  82.290  75.353  1.00  0.00     0.005 C 
ATOM     23  C   UNL     1     101.516  83.078  74.356  1.00  0.00     0.012 C 
ATOM     24  C   UNL     1     101.486  81.534  76.394  1.00  0.00     0.012 C 
ENDBRANCH  21  22
ENDBRANCH  19  20
ENDBRANCH  18  19
ENDBRANCH  17  18
ENDBRANCH   1  17
TORSDOF 10
ENDMDL
MODEL 7
REMARK VINA RESULT:    -5.709     15.320     18.042
REMARK INTER + INTRA:          -9.672
REMARK INTER:                  -9.001
REMARK INTRA:                  -0.671
REMARK UNBOUND:                -0.792
REMARK SMILES COc1cc(CNC(=O)CCCC/C=C/C(C)C)ccc1O
REMARK SMILES IDX 10 1 8 2 7 3 9 5 6 6 5 7 3 8 21 9 4 10 20 11 19 12 2 13 1 14
REMARK SMILES IDX 22 15 11 17 12 18 13 19 14 20 15 21 16 22 17 23 18 24
REMARK H PARENT 7 4 22 16
REMARK Flexibility Score: inf
ROOT
ATOM      1  C   UNL     1      97.077  83.732  84.508  1.00  0.00     0.100 C 
ENDROOT
BRANCH   1   2
ATOM      2  C   UNL     1      98.128  83.129  83.667  1.00  0.00     0.220 C 
ATOM      3  N   UNL     1      98.245  83.472  82.353  1.00  0.00    -0.352 N 
ATOM      4  H   UNL     1      97.555  84.133  82.023  1.00  0.00     0.163 HD
ATOM      5  O   UNL     1      98.919  82.314  84.201  1.00  0.00    -0.275 OA
BRANCH   3   6
ATOM      6  C   UNL     1      99.244  82.972  81.465  1.00  0.00     0.151 C 
BRANCH   6   7
ATOM      7  C   UNL     1      98.851  83.155  80.041  1.00  0.00    -0.025 A 
ATOM      8  C   UNL     1      99.430  83.097  77.649  1.00  0.00     0.160 A 
ATOM      9  C   UNL     1      98.114  83.481  77.320  1.00  0.00     0.157 A 
ATOM     10  C   UNL     1      99.787  82.940  79.004  1.00  0.00     0.056 A 
ATOM     11  C   UNL     1      97.175  83.719  78.344  1.00  0.00     0.050 A 
ATOM     12  C   UNL     1      97.537  83.548  79.694  1.00  0.00     0.009 A 
BRANCH   8  13
ATOM     13  O   UNL     1     100.365  82.928  76.659  1.00  0.00    -0.493 OA
ATOM     14  C   UNL     1     100.775  81.562  76.465  1.00  0.00     0.278 C 
ENDBRANCH   8  13
BRANCH   9  15
ATOM     15  O   UNL     1      97.734  83.629  76.024  1.00  0.00    -0.504 OA
ATOM     16  H   UNL     1      98.080  82.900  75.504  1.00  0.00     0.293 HD
ENDBRANCH   9  15
ENDBRANCH   6   7
ENDBRANCH   3   6
ENDBRANCH   1   2
BRANCH   1  17
ATOM     17  C   UNL     1      97.645  84.854  85.418  1.00  0.00     0.010 C 
BRANCH  17  18
ATOM     18  C   UNL     1      97.818  84.404  86.897  1.00  0.00     0.005 C 
BRANCH  18  19
ATOM     19  C   UNL     1      96.457  84.124  87.591  1.00  0.00     0.027 C 
BRANCH  19  20
ATOM     20  C   UNL     1      96.114  85.154  88.559  1.00  0.00    -0.031 C 
ATOM     21  C   UNL     1      95.633  86.368  88.233  1.00  0.00    -0.028 C 
BRANCH  21  22
ATOM     22  C   UNL     1      95.276  87.382  89.225  1.00  0.00     0.005 C 
ATOM     23  C   UNL     1      95.065  86.775  90.639  1.00  0.00     0.012 C 
ATOM     24  C   UNL     1      96.349  88.501  89.258  1.00  0.00     0.012 C 
ENDBRANCH  21  22
ENDBRANCH  19  20
ENDBRANCH  18  19
ENDBRANCH  17  18
ENDBRANCH   1  17
TORSDOF 10
ENDMDL
MODEL 8
REMARK VINA RESULT:    -5.707     15.670     18.207
REMARK INTER + INTRA:          -9.668
REMARK INTER:                  -9.107
REMARK INTRA:                  -0.561
REMARK UNBOUND:                -0.792
REMARK SMILES COc1cc(CNC(=O)CCCC/C=C/C(C)C)ccc1O
REMARK SMILES IDX 10 1 8 2 7 3 9 5 6 6 5 7 3 8 21 9 4 10 20 11 19 12 2 13 1 14
REMARK SMILES IDX 22 15 11 17 12 18 13 19 14 20 15 21 16 22 17 23 18 24
REMARK H PARENT 7 4 22 16
REMARK Flexibility Score: inf
ROOT
ATOM      1  C   UNL     1      97.177  85.206  85.301  1.00  0.00     0.100 C 
ENDROOT
BRANCH   1   2
ATOM      2  C   UNL     1      96.009  85.365  86.188  1.00  0.00     0.220 C 
ATOM      3  N   UNL     1      95.158  84.324  86.404  1.00  0.00    -0.352 N 
ATOM      4  H   UNL     1      95.382  83.477  85.900  1.00  0.00     0.163 HD
ATOM      5  O   UNL     1      95.840  86.474  86.751  1.00  0.00    -0.275 OA
BRANCH   3   6
ATOM      6  C   UNL     1      94.020  84.366  87.267  1.00  0.00     0.151 C 
BRANCH   6   7
ATOM      7  C   UNL     1      93.235  83.103  87.197  1.00  0.00    -0.025 A 
ATOM      8  C   UNL     1      91.077  81.927  87.353  1.00  0.00     0.160 A 
ATOM      9  C   UNL     1      91.718  80.709  87.049  1.00  0.00     0.157 A 
ATOM     10  C   UNL     1      91.840  83.111  87.426  1.00  0.00     0.056 A 
ATOM     11  C   UNL     1      93.111  80.682  86.837  1.00  0.00     0.050 A 
ATOM     12  C   UNL     1      93.863  81.871  86.901  1.00  0.00     0.009 A 
BRANCH   8  13
ATOM     13  O   UNL     1      89.733  81.948  87.625  1.00  0.00    -0.493 OA
ATOM     14  C   UNL     1      88.898  82.015  86.454  1.00  0.00     0.278 C 
ENDBRANCH   8  13
BRANCH   9  15
ATOM     15  O   UNL     1      91.011  79.553  86.958  1.00  0.00    -0.504 OA
ATOM     16  H   UNL     1      90.702  79.296  87.830  1.00  0.00     0.293 HD
ENDBRANCH   9  15
ENDBRANCH   6   7
ENDBRANCH   3   6
ENDBRANCH   1   2
BRANCH   1  17
ATOM     17  C   UNL     1      97.826  83.804  85.455  1.00  0.00     0.010 C 
BRANCH  17  18
ATOM     18  C   UNL     1      97.529  82.864  84.253  1.00  0.00     0.005 C 
BRANCH  18  19
ATOM     19  C   UNL     1      98.741  82.732  83.292  1.00  0.00     0.027 C 
BRANCH  19  20
ATOM     20  C   UNL     1      98.328  82.607  81.903  1.00  0.00    -0.031 C 
ATOM     21  C   UNL     1      99.033  83.080  80.859  1.00  0.00    -0.028 C 
BRANCH  21  22
ATOM     22  C   UNL     1      98.607  82.925  79.468  1.00  0.00     0.005 C 
ATOM     23  C   UNL     1      98.600  81.438  79.016  1.00  0.00     0.012 C 
ATOM     24  C   UNL     1      97.214  83.573  79.258  1.00  0.00     0.012 C 
ENDBRANCH  21  22
ENDBRANCH  19  20
ENDBRANCH  18  19
ENDBRANCH  17  18
ENDBRANCH   1  17
TORSDOF 10
ENDMDL
MODEL 9
REMARK VINA RESULT:    -5.701     20.278     23.785
REMARK INTER + INTRA:          -9.659
REMARK INTER:                  -8.149
REMARK INTRA:                  -1.510
REMARK UNBOUND:                -0.792
REMARK SMILES COc1cc(CNC(=O)CCCC/C=C/C(C)C)ccc1O
REMARK SMILES IDX 10 1 8 2 7 3 9 5 6 6 5 7 3 8 21 9 4 10 20 11 19 12 2 13 1 14
REMARK SMILES IDX 22 15 11 17 12 18 13 19 14 20 15 21 16 22 17 23 18 24
REMARK H PARENT 7 4 22 16
REMARK Flexibility Score: inf
ROOT
ATOM      1  C   UNL     1      76.390  88.038  69.762  1.00  0.00     0.100 C 
ENDROOT
BRANCH   1   2
ATOM      2  C   UNL     1      75.018  87.647  70.139  1.00  0.00     0.220 C 
ATOM      3  N   UNL     1      74.285  86.831  69.331  1.00  0.00    -0.352 N 
ATOM      4  H   UNL     1      74.744  86.554  68.475  1.00  0.00     0.163 HD
ATOM      5  O   UNL     1      74.561  88.067  71.230  1.00  0.00    -0.275 OA
BRANCH   3   6
ATOM      6  C   UNL     1      72.964  86.371  69.620  1.00  0.00     0.151 C 
BRANCH   6   7
ATOM      7  C   UNL     1      72.550  85.284  68.691  1.00  0.00    -0.025 A 
ATOM      8  C   UNL     1      73.031  83.837  66.758  1.00  0.00     0.160 A 
ATOM      9  C   UNL     1      71.783  83.200  66.923  1.00  0.00     0.157 A 
ATOM     10  C   UNL     1      73.401  84.873  67.641  1.00  0.00     0.056 A 
ATOM     11  C   UNL     1      70.915  83.613  67.954  1.00  0.00     0.050 A 
ATOM     12  C   UNL     1      71.299  84.640  68.838  1.00  0.00     0.009 A 
BRANCH   8  13
ATOM     13  O   UNL     1      73.850  83.484  65.716  1.00  0.00    -0.493 OA
ATOM     14  C   UNL     1      73.622  84.234  64.509  1.00  0.00     0.278 C 
ENDBRANCH   8  13
BRANCH   9  15
ATOM     15  O   UNL     1      71.402  82.190  66.099  1.00  0.00    -0.504 OA
ATOM     16  H   UNL     1      72.177  81.711  65.799  1.00  0.00     0.293 HD
ENDBRANCH   9  15
ENDBRANCH   6   7
ENDBRANCH   3   6
ENDBRANCH   1   2
BRANCH   1  17
ATOM     17  C   UNL     1      77.150  86.870  69.077  1.00  0.00     0.010 C 
BRANCH  17  18
ATOM     18  C   UNL     1      77.648  85.797  70.086  1.00  0.00     0.005 C 
BRANCH  18  19
ATOM     19  C   UNL     1      77.128  84.376  69.741  1.00  0.00     0.027 C 
BRANCH  19  20
ATOM     20  C   UNL     1      77.015  84.168  68.306  1.00  0.00    -0.031 C 
ATOM     21  C   UNL     1      78.025  83.752  67.520  1.00  0.00    -0.028 C 
BRANCH  21  22
ATOM     22  C   UNL     1      77.884  83.531  66.081  1.00  0.00     0.005 C 
ATOM     23  C   UNL     1      77.124  82.214  65.759  1.00  0.00     0.012 C 
ATOM     24  C   UNL     1      77.187  84.747  65.418  1.00  0.00     0.012 C 
ENDBRANCH  21  22
ENDBRANCH  19  20
ENDBRANCH  18  19
ENDBRANCH  17  18
ENDBRANCH   1  17
TORSDOF 10
ENDMDL
MODEL 10
REMARK VINA RESULT:    -5.510     30.051     32.200
REMARK INTER + INTRA:          -9.363
REMARK INTER:                  -7.425
REMARK INTRA:                  -1.938
REMARK UNBOUND:                -0.792
REMARK SMILES COc1cc(CNC(=O)CCCC/C=C/C(C)C)ccc1O
REMARK SMILES IDX 10 1 8 2 7 3 9 5 6 6 5 7 3 8 21 9 4 10 20 11 19 12 2 13 1 14
REMARK SMILES IDX 22 15 11 17 12 18 13 19 14 20 15 21 16 22 17 23 18 24
REMARK H PARENT 7 4 22 16
REMARK Flexibility Score: inf
ROOT
ATOM      1  C   UNL     1      65.371  82.860  70.859  1.00  0.00     0.100 C 
ENDROOT
BRANCH   1   2
ATOM      2  C   UNL     1      65.928  83.843  71.808  1.00  0.00     0.220 C 
ATOM      3  N   UNL     1      65.158  84.345  72.815  1.00  0.00    -0.352 N 
ATOM      4  H   UNL     1      64.205  84.011  72.830  1.00  0.00     0.163 HD
ATOM      5  O   UNL     1      67.129  84.181  71.675  1.00  0.00    -0.275 OA
BRANCH   3   6
ATOM      6  C   UNL     1      65.610  85.273  73.801  1.00  0.00     0.151 C 
BRANCH   6   7
ATOM      7  C   UNL     1      64.960  85.030  75.118  1.00  0.00    -0.025 A 
ATOM      8  C   UNL     1      64.047  85.898  77.234  1.00  0.00     0.160 A 
ATOM      9  C   UNL     1      63.703  84.587  77.624  1.00  0.00     0.157 A 
ATOM     10  C   UNL     1      64.674  86.107  75.987  1.00  0.00     0.056 A 
ATOM     11  C   UNL     1      64.000  83.502  76.776  1.00  0.00     0.050 A 
ATOM     12  C   UNL     1      64.615  83.721  75.529  1.00  0.00     0.009 A 
BRANCH   8  13
ATOM     13  O   UNL     1      63.820  86.951  78.083  1.00  0.00    -0.493 OA
ATOM     14  C   UNL     1      62.932  87.952  77.552  1.00  0.00     0.278 C 
ENDBRANCH   8  13
BRANCH   9  15
ATOM     15  O   UNL     1      63.087  84.353  78.811  1.00  0.00    -0.504 OA
ATOM     16  H   UNL     1      63.199  83.432  79.055  1.00  0.00     0.293 HD
ENDBRANCH   9  15
ENDBRANCH   6   7
ENDBRANCH   3   6
ENDBRANCH   1   2
BRANCH   1  17
ATOM     17  C   UNL     1      64.785  81.624  71.592  1.00  0.00     0.010 C 
BRANCH  17  18
ATOM     18  C   UNL     1      63.246  81.713  71.792  1.00  0.00     0.005 C 
BRANCH  18  19
ATOM     19  C   UNL     1      62.817  81.363  73.243  1.00  0.00     0.027 C 
BRANCH  19  20
ATOM     20  C   UNL     1      61.798  82.271  73.746  1.00  0.00    -0.031 C 
ATOM     21  C   UNL     1      61.647  83.542  73.332  1.00  0.00    -0.028 C 
BRANCH  21  22
ATOM     22  C   UNL     1      60.603  84.432  73.839  1.00  0.00     0.005 C 
ATOM     23  C   UNL     1      61.139  85.420  74.912  1.00  0.00     0.012 C 
ATOM     24  C   UNL     1      59.936  85.198  72.667  1.00  0.00     0.012 C 
ENDBRANCH  21  22
ENDBRANCH  19  20
ENDBRANCH  18  19
ENDBRANCH  17  18
ENDBRANCH   1  17
TORSDOF 10
ENDMDL
