MODEL 1
REMARK VINA RESULT:    -7.523      0.000      0.000
REMARK INTER + INTRA:          -9.213
REMARK INTER:                  -8.843
REMARK INTRA:                  -0.370
REMARK UNBOUND:                -0.370
REMARK SMILES O=C(/C=C/C=C/c1ccc2c(c1)OCO2)N1CCCCC1
REMARK SMILES IDX 3 1 4 2 2 3 1 4 16 5 17 6 21 7 18 8 20 9 19 10 5 11 6 12
REMARK SMILES IDX 7 13 12 14 8 15 11 16 9 17 13 18 10 19 14 20 15 21
REMARK H PARENT
REMARK Flexibility Score: inf
ROOT
ATOM      1  C   UNL     1      95.504  97.666  77.611  1.00  0.00     0.071 C 
ATOM      2  C   UNL     1      94.531  97.734  76.704  1.00  0.00     0.006 C 
ENDROOT
BRANCH   1   3
ATOM      3  C   UNL     1      96.271  98.894  77.900  1.00  0.00     0.246 C 
ATOM      4  O   UNL     1      96.714  99.528  76.942  1.00  0.00    -0.270 OA
ATOM      5  N   UNL     1      96.448  99.250  79.237  1.00  0.00    -0.339 N 
ATOM      6  C   UNL     1      97.210 100.461  79.555  1.00  0.00     0.120 C 
ATOM      7  C   UNL     1      95.975  98.496  80.407  1.00  0.00     0.120 C 
ATOM      8  C   UNL     1      96.425 101.387  80.478  1.00  0.00     0.022 C 
ATOM      9  C   UNL     1      95.184  99.392  81.360  1.00  0.00     0.022 C 
ATOM     10  C   UNL     1      95.966 100.648  81.732  1.00  0.00     0.004 C 
ENDBRANCH   1   3
BRANCH   2  11
ATOM     11  C   UNL     1      93.725  96.585  76.353  1.00  0.00     0.001 C 
ATOM     12  C   UNL     1      92.707  96.152  77.113  1.00  0.00     0.008 C 
BRANCH  12  13
ATOM     13  C   UNL     1      91.861  94.985  76.808  1.00  0.00    -0.022 A 
ATOM     14  C   UNL     1      91.803  94.516  75.503  1.00  0.00     0.058 A 
ATOM     15  C   UNL     1      91.140  94.382  77.841  1.00  0.00     0.012 A 
ATOM     16  C   UNL     1      90.997  93.421  75.266  1.00  0.00     0.166 A 
ATOM     17  C   UNL     1      90.332  93.275  77.574  1.00  0.00     0.051 A 
ATOM     18  O   UNL     1      90.806  92.816  74.062  1.00  0.00    -0.454 OA
ATOM     19  C   UNL     1      90.281  92.817  76.274  1.00  0.00     0.165 A 
ATOM     20  C   UNL     1      89.890  91.764  74.425  1.00  0.00     0.468 C 
ATOM     21  O   UNL     1      89.552  91.758  75.827  1.00  0.00    -0.454 OA
ENDBRANCH  12  13
ENDBRANCH   2  11
TORSDOF 3
ENDMDL
MODEL 2
REMARK VINA RESULT:    -7.306     13.733     15.948
REMARK INTER + INTRA:          -8.958
REMARK INTER:                  -8.627
REMARK INTRA:                  -0.331
REMARK UNBOUND:                -0.370
REMARK SMILES O=C(/C=C/C=C/c1ccc2c(c1)OCO2)N1CCCCC1
REMARK SMILES IDX 3 1 4 2 2 3 1 4 16 5 17 6 21 7 18 8 20 9 19 10 5 11 6 12
REMARK SMILES IDX 7 13 12 14 8 15 11 16 9 17 13 18 10 19 14 20 15 21
REMARK H PARENT
REMARK Flexibility Score: inf
ROOT
ATOM      1  C   UNL     1      96.029  82.059  82.806  1.00  0.00     0.071 C 
ATOM      2  C   UNL     1      96.670  82.984  82.094  1.00  0.00     0.006 C 
ENDROOT
BRANCH   1   3
ATOM      3  C   UNL     1      95.595  82.412  84.172  1.00  0.00     0.246 C 
ATOM      4  O   UNL     1      95.842  83.551  84.571  1.00  0.00    -0.270 OA
ATOM      5  N   UNL     1      94.941  81.434  84.919  1.00  0.00    -0.339 N 
ATOM      6  C   UNL     1      94.503  81.753  86.281  1.00  0.00     0.120 C 
ATOM      7  C   UNL     1      94.670  80.053  84.494  1.00  0.00     0.120 C 
ATOM      8  C   UNL     1      93.024  81.437  86.479  1.00  0.00     0.022 C 
ATOM      9  C   UNL     1      93.195  79.696  84.681  1.00  0.00     0.022 C 
ATOM     10  C   UNL     1      92.719  79.992  86.100  1.00  0.00     0.004 C 
ENDBRANCH   1   3
BRANCH   2  11
ATOM     11  C   UNL     1      97.134  82.732  80.746  1.00  0.00     0.001 C 
ATOM     12  C   UNL     1      96.814  83.521  79.708  1.00  0.00     0.008 C 
BRANCH  12  13
ATOM     13  C   UNL     1      97.251  83.307  78.318  1.00  0.00    -0.022 A 
ATOM     14  C   UNL     1      96.705  84.089  77.309  1.00  0.00     0.058 A 
ATOM     15  C   UNL     1      98.205  82.321  78.052  1.00  0.00     0.012 A 
ATOM     16  C   UNL     1      97.146  83.851  76.024  1.00  0.00     0.166 A 
ATOM     17  C   UNL     1      98.634  82.102  76.741  1.00  0.00     0.051 A 
ATOM     18  O   UNL     1      96.734  84.507  74.904  1.00  0.00    -0.454 OA
ATOM     19  C   UNL     1      98.086  82.884  75.747  1.00  0.00     0.165 A 
ATOM     20  C   UNL     1      97.519  83.844  73.893  1.00  0.00     0.468 C 
ATOM     21  O   UNL     1      98.379  82.813  74.420  1.00  0.00    -0.454 OA
ENDBRANCH  12  13
ENDBRANCH   2  11
TORSDOF 3
ENDMDL
MODEL 3
REMARK VINA RESULT:    -7.275      2.542      3.326
REMARK INTER + INTRA:          -8.921
REMARK INTER:                  -8.522
REMARK INTRA:                  -0.398
REMARK UNBOUND:                -0.370
REMARK SMILES O=C(/C=C/C=C/c1ccc2c(c1)OCO2)N1CCCCC1
REMARK SMILES IDX 3 1 4 2 2 3 1 4 16 5 17 6 21 7 18 8 20 9 19 10 5 11 6 12
REMARK SMILES IDX 7 13 12 14 8 15 11 16 9 17 13 18 10 19 14 20 15 21
REMARK H PARENT
REMARK Flexibility Score: inf
ROOT
ATOM      1  C   UNL     1      96.057  97.487  79.938  1.00  0.00     0.071 C 
ATOM      2  C   UNL     1      95.520  98.130  78.903  1.00  0.00     0.006 C 
ENDROOT
BRANCH   1   3
ATOM      3  C   UNL     1      96.883  98.262  80.885  1.00  0.00     0.246 C 
ATOM      4  O   UNL     1      96.670  99.472  80.968  1.00  0.00    -0.270 OA
ATOM      5  N   UNL     1      97.850  97.574  81.618  1.00  0.00    -0.339 N 
ATOM      6  C   UNL     1      98.689  98.318  82.562  1.00  0.00     0.120 C 
ATOM      7  C   UNL     1      98.163  96.141  81.514  1.00  0.00     0.120 C 
ATOM      8  C   UNL     1      98.661  97.686  83.949  1.00  0.00     0.022 C 
ATOM      9  C   UNL     1      98.148  95.471  82.887  1.00  0.00     0.022 C 
ATOM     10  C   UNL     1      99.037  96.209  83.884  1.00  0.00     0.004 C 
ENDBRANCH   1   3
BRANCH   2  11
ATOM     11  C   UNL     1      94.696  97.457  77.922  1.00  0.00     0.001 C 
ATOM     12  C   UNL     1      94.015  96.332  78.194  1.00  0.00     0.008 C 
BRANCH  12  13
ATOM     13  C   UNL     1      93.170  95.603  77.233  1.00  0.00    -0.022 A 
ATOM     14  C   UNL     1      92.235  94.695  77.709  1.00  0.00     0.058 A 
ATOM     15  C   UNL     1      93.334  95.847  75.867  1.00  0.00     0.012 A 
ATOM     16  C   UNL     1      91.467  94.037  76.770  1.00  0.00     0.166 A 
ATOM     17  C   UNL     1      92.544  95.166  74.938  1.00  0.00     0.051 A 
ATOM     18  O   UNL     1      90.502  93.113  77.033  1.00  0.00    -0.454 OA
ATOM     19  C   UNL     1      91.617  94.266  75.421  1.00  0.00     0.165 A 
ATOM     20  C   UNL     1      90.062  92.787  75.699  1.00  0.00     0.468 C 
ATOM     21  O   UNL     1      90.765  93.515  74.671  1.00  0.00    -0.454 OA
ENDBRANCH  12  13
ENDBRANCH   2  11
TORSDOF 3
ENDMDL
MODEL 4
REMARK VINA RESULT:    -7.133     13.681     15.480
REMARK INTER + INTRA:          -8.754
REMARK INTER:                  -8.435
REMARK INTRA:                  -0.319
REMARK UNBOUND:                -0.370
REMARK SMILES O=C(/C=C/C=C/c1ccc2c(c1)OCO2)N1CCCCC1
REMARK SMILES IDX 3 1 4 2 2 3 1 4 16 5 17 6 21 7 18 8 20 9 19 10 5 11 6 12
REMARK SMILES IDX 7 13 12 14 8 15 11 16 9 17 13 18 10 19 14 20 15 21
REMARK H PARENT
REMARK Flexibility Score: inf
ROOT
ATOM      1  C   UNL     1      96.938  82.294  82.894  1.00  0.00     0.071 C 
ATOM      2  C   UNL     1      96.576  83.415  82.272  1.00  0.00     0.006 C 
ENDROOT
BRANCH   1   3
ATOM      3  C   UNL     1      96.805  82.241  84.364  1.00  0.00     0.246 C 
ATOM      4  O   UNL     1      97.809  82.480  85.035  1.00  0.00    -0.270 OA
ATOM      5  N   UNL     1      95.555  81.920  84.891  1.00  0.00    -0.339 N 
ATOM      6  C   UNL     1      95.393  81.854  86.347  1.00  0.00     0.120 C 
ATOM      7  C   UNL     1      94.347  81.584  84.123  1.00  0.00     0.120 C 
ATOM      8  C   UNL     1      94.230  82.720  86.818  1.00  0.00     0.022 C 
ATOM      9  C   UNL     1      93.155  82.431  84.569  1.00  0.00     0.022 C 
ATOM     10  C   UNL     1      92.945  82.358  86.078  1.00  0.00     0.004 C 
ENDBRANCH   1   3
BRANCH   2  11
ATOM     11  C   UNL     1      96.671  83.562  80.835  1.00  0.00     0.001 C 
ATOM     12  C   UNL     1      97.507  82.829  80.083  1.00  0.00     0.008 C 
BRANCH  12  13
ATOM     13  C   UNL     1      97.649  82.943  78.622  1.00  0.00    -0.022 A 
ATOM     14  C   UNL     1      96.838  83.834  77.932  1.00  0.00     0.058 A 
ATOM     15  C   UNL     1      98.598  82.152  77.969  1.00  0.00     0.012 A 
ATOM     16  C   UNL     1      97.008  83.906  76.565  1.00  0.00     0.166 A 
ATOM     17  C   UNL     1      98.749  82.245  76.584  1.00  0.00     0.051 A 
ATOM     18  O   UNL     1      96.313  84.711  75.715  1.00  0.00    -0.454 OA
ATOM     19  C   UNL     1      97.938  83.133  75.908  1.00  0.00     0.165 A 
ATOM     20  C   UNL     1      96.910  84.358  74.451  1.00  0.00     0.468 C 
ATOM     21  O   UNL     1      97.942  83.357  74.566  1.00  0.00    -0.454 OA
ENDBRANCH  12  13
ENDBRANCH   2  11
TORSDOF 3
ENDMDL
MODEL 5
REMARK VINA RESULT:    -7.079      3.751      5.069
REMARK INTER + INTRA:          -8.691
REMARK INTER:                  -8.327
REMARK INTRA:                  -0.364
REMARK UNBOUND:                -0.370
REMARK SMILES O=C(/C=C/C=C/c1ccc2c(c1)OCO2)N1CCCCC1
REMARK SMILES IDX 3 1 4 2 2 3 1 4 16 5 17 6 21 7 18 8 20 9 19 10 5 11 6 12
REMARK SMILES IDX 7 13 12 14 8 15 11 16 9 17 13 18 10 19 14 20 15 21
REMARK H PARENT
REMARK Flexibility Score: inf
ROOT
ATOM      1  C   UNL     1      94.485  98.295  74.771  1.00  0.00     0.071 C 
ATOM      2  C   UNL     1      94.666  97.072  74.277  1.00  0.00     0.006 C 
ENDROOT
BRANCH   1   3
ATOM      3  C   UNL     1      95.352  99.381  74.272  1.00  0.00     0.246 C 
ATOM      4  O   UNL     1      96.400  99.598  74.882  1.00  0.00    -0.270 OA
ATOM      5  N   UNL     1      94.926 100.090  73.150  1.00  0.00    -0.339 N 
ATOM      6  C   UNL     1      95.763 101.177  72.635  1.00  0.00     0.120 C 
ATOM      7  C   UNL     1      93.662  99.890  72.424  1.00  0.00     0.120 C 
ATOM      8  C   UNL     1      96.049 101.003  71.147  1.00  0.00     0.022 C 
ATOM      9  C   UNL     1      93.907  99.715  70.926  1.00  0.00     0.022 C 
ATOM     10  C   UNL     1      94.754 100.849  70.356  1.00  0.00     0.004 C 
ENDBRANCH   1   3
BRANCH   2  11
ATOM     11  C   UNL     1      93.866  95.944  74.704  1.00  0.00     0.001 C 
ATOM     12  C   UNL     1      92.732  96.083  75.409  1.00  0.00     0.008 C 
BRANCH  12  13
ATOM     13  C   UNL     1      91.886  94.971  75.875  1.00  0.00    -0.022 A 
ATOM     14  C   UNL     1      91.504  93.988  74.972  1.00  0.00     0.058 A 
ATOM     15  C   UNL     1      91.490  94.936  77.214  1.00  0.00     0.012 A 
ATOM     16  C   UNL     1      90.711  92.967  75.455  1.00  0.00     0.166 A 
ATOM     17  C   UNL     1      90.687  93.891  77.677  1.00  0.00     0.051 A 
ATOM     18  O   UNL     1      90.234  91.917  74.733  1.00  0.00    -0.454 OA
ATOM     19  C   UNL     1      90.314  92.920  76.772  1.00  0.00     0.165 A 
ATOM     20  C   UNL     1      89.492  91.203  75.742  1.00  0.00     0.468 C 
ATOM     21  O   UNL     1      89.538  91.834  77.039  1.00  0.00    -0.454 OA
ENDBRANCH  12  13
ENDBRANCH   2  11
TORSDOF 3
ENDMDL
MODEL 6
REMARK VINA RESULT:    -6.787     25.708     28.444
REMARK INTER + INTRA:          -8.348
REMARK INTER:                  -8.012
REMARK INTRA:                  -0.335
REMARK UNBOUND:                -0.370
REMARK SMILES O=C(/C=C/C=C/c1ccc2c(c1)OCO2)N1CCCCC1
REMARK SMILES IDX 3 1 4 2 2 3 1 4 16 5 17 6 21 7 18 8 20 9 19 10 5 11 6 12
REMARK SMILES IDX 7 13 12 14 8 15 11 16 9 17 13 18 10 19 14 20 15 21
REMARK H PARENT
REMARK Flexibility Score: inf
ROOT
ATOM      1  C   UNL     1      86.382  69.830  71.888  1.00  0.00     0.071 C 
ATOM      2  C   UNL     1      87.525  70.142  71.280  1.00  0.00     0.006 C 
ENDROOT
BRANCH   1   3
ATOM      3  C   UNL     1      86.453  69.090  73.163  1.00  0.00     0.246 C 
ATOM      4  O   UNL     1      87.331  69.417  73.963  1.00  0.00    -0.270 OA
ATOM      5  N   UNL     1      85.528  68.069  73.374  1.00  0.00    -0.339 N 
ATOM      6  C   UNL     1      85.577  67.312  74.629  1.00  0.00     0.120 C 
ATOM      7  C   UNL     1      84.497  67.621  72.426  1.00  0.00     0.120 C 
ATOM      8  C   UNL     1      84.218  67.293  75.321  1.00  0.00     0.022 C 
ATOM      9  C   UNL     1      83.118  67.584  73.085  1.00  0.00     0.022 C 
ATOM     10  C   UNL     1      83.133  66.778  74.381  1.00  0.00     0.004 C 
ENDBRANCH   1   3
BRANCH   2  11
ATOM     11  C   UNL     1      87.558  70.866  70.027  1.00  0.00     0.001 C 
ATOM     12  C   UNL     1      88.618  71.590  69.633  1.00  0.00     0.008 C 
BRANCH  12  13
ATOM     13  C   UNL     1      88.701  72.350  68.375  1.00  0.00    -0.022 A 
ATOM     14  C   UNL     1      89.871  73.034  68.074  1.00  0.00     0.058 A 
ATOM     15  C   UNL     1      87.598  72.363  67.517  1.00  0.00     0.012 A 
ATOM     16  C   UNL     1      89.901  73.732  66.884  1.00  0.00     0.166 A 
ATOM     17  C   UNL     1      87.656  73.077  66.318  1.00  0.00     0.051 A 
ATOM     18  O   UNL     1      90.949  74.462  66.413  1.00  0.00    -0.454 OA
ATOM     19  C   UNL     1      88.823  73.753  66.029  1.00  0.00     0.165 A 
ATOM     20  C   UNL     1      90.409  74.945  65.166  1.00  0.00     0.468 C 
ATOM     21  O   UNL     1      89.060  74.499  64.916  1.00  0.00    -0.454 OA
ENDBRANCH  12  13
ENDBRANCH   2  11
TORSDOF 3
ENDMDL
MODEL 7
REMARK VINA RESULT:    -6.766     12.797     14.167
REMARK INTER + INTRA:          -8.322
REMARK INTER:                  -7.948
REMARK INTRA:                  -0.375
REMARK UNBOUND:                -0.370
REMARK SMILES O=C(/C=C/C=C/c1ccc2c(c1)OCO2)N1CCCCC1
REMARK SMILES IDX 3 1 4 2 2 3 1 4 16 5 17 6 21 7 18 8 20 9 19 10 5 11 6 12
REMARK SMILES IDX 7 13 12 14 8 15 11 16 9 17 13 18 10 19 14 20 15 21
REMARK H PARENT
REMARK Flexibility Score: inf
ROOT
ATOM      1  C   UNL     1      92.958  87.969  88.600  1.00  0.00     0.071 C 
ATOM      2  C   UNL     1      92.733  86.683  88.862  1.00  0.00     0.006 C 
ENDROOT
BRANCH   1   3
ATOM      3  C   UNL     1      92.369  88.975  89.505  1.00  0.00     0.246 C 
ATOM      4  O   UNL     1      91.655  88.568  90.422  1.00  0.00    -0.270 OA
ATOM      5  N   UNL     1      92.655  90.317  89.259  1.00  0.00    -0.339 N 
ATOM      6  C   UNL     1      92.080  91.340  90.138  1.00  0.00     0.120 C 
ATOM      7  C   UNL     1      93.464  90.844  88.149  1.00  0.00     0.120 C 
ATOM      8  C   UNL     1      93.156  92.272  90.685  1.00  0.00     0.022 C 
ATOM      9  C   UNL     1      94.553  91.788  88.658  1.00  0.00     0.022 C 
ATOM     10  C   UNL     1      93.979  92.881  89.554  1.00  0.00     0.004 C 
ENDBRANCH   1   3
BRANCH   2  11
ATOM     11  C   UNL     1      93.267  85.624  88.032  1.00  0.00     0.001 C 
ATOM     12  C   UNL     1      93.289  85.692  86.691  1.00  0.00     0.008 C 
BRANCH  12  13
ATOM     13  C   UNL     1      93.813  84.642  85.801  1.00  0.00    -0.022 A 
ATOM     14  C   UNL     1      94.925  84.915  85.016  1.00  0.00     0.058 A 
ATOM     15  C   UNL     1      93.175  83.400  85.770  1.00  0.00     0.012 A 
ATOM     16  C   UNL     1      95.378  83.900  84.199  1.00  0.00     0.166 A 
ATOM     17  C   UNL     1      93.654  82.390  84.933  1.00  0.00     0.051 A 
ATOM     18  O   UNL     1      96.446  83.969  83.358  1.00  0.00    -0.454 OA
ATOM     19  C   UNL     1      94.760  82.671  84.158  1.00  0.00     0.165 A 
ATOM     20  C   UNL     1      96.431  82.646  82.784  1.00  0.00     0.468 C 
ATOM     21  O   UNL     1      95.364  81.817  83.287  1.00  0.00    -0.454 OA
ENDBRANCH  12  13
ENDBRANCH   2  11
TORSDOF 3
ENDMDL
MODEL 8
REMARK VINA RESULT:    -6.565     17.423     21.713
REMARK INTER + INTRA:          -8.086
REMARK INTER:                  -7.680
REMARK INTRA:                  -0.406
REMARK UNBOUND:                -0.370
REMARK SMILES O=C(/C=C/C=C/c1ccc2c(c1)OCO2)N1CCCCC1
REMARK SMILES IDX 3 1 4 2 2 3 1 4 16 5 17 6 21 7 18 8 20 9 19 10 5 11 6 12
REMARK SMILES IDX 7 13 12 14 8 15 11 16 9 17 13 18 10 19 14 20 15 21
REMARK H PARENT
REMARK Flexibility Score: inf
ROOT
ATOM      1  C   UNL     1      90.762  75.538  83.376  1.00  0.00     0.071 C 
ATOM      2  C   UNL     1      89.885  76.296  84.032  1.00  0.00     0.006 C 
ENDROOT
BRANCH   1   3
ATOM      3  C   UNL     1      90.384  74.144  83.072  1.00  0.00     0.246 C 
ATOM      4  O   UNL     1      89.937  73.461  83.995  1.00  0.00    -0.270 OA
ATOM      5  N   UNL     1      90.563  73.692  81.765  1.00  0.00    -0.339 N 
ATOM      6  C   UNL     1      90.202  72.311  81.434  1.00  0.00     0.120 C 
ATOM      7  C   UNL     1      91.134  74.462  80.650  1.00  0.00     0.120 C 
ATOM      8  C   UNL     1      89.260  72.253  80.236  1.00  0.00     0.022 C 
ATOM      9  C   UNL     1      90.220  74.425  79.426  1.00  0.00     0.022 C 
ATOM     10  C   UNL     1      89.850  72.996  79.041  1.00  0.00     0.004 C 
ENDBRANCH   1   3
BRANCH   2  11
ATOM     11  C   UNL     1      90.165  77.674  84.376  1.00  0.00     0.001 C 
ATOM     12  C   UNL     1      91.254  78.326  83.937  1.00  0.00     0.008 C 
BRANCH  12  13
ATOM     13  C   UNL     1      91.591  79.722  84.262  1.00  0.00    -0.022 A 
ATOM     14  C   UNL     1      92.821  80.004  84.839  1.00  0.00     0.058 A 
ATOM     15  C   UNL     1      90.661  80.726  83.980  1.00  0.00     0.012 A 
ATOM     16  C   UNL     1      93.091  81.326  85.124  1.00  0.00     0.166 A 
ATOM     17  C   UNL     1      90.960  82.057  84.280  1.00  0.00     0.051 A 
ATOM     18  O   UNL     1      94.234  81.804  85.689  1.00  0.00    -0.454 OA
ATOM     19  C   UNL     1      92.185  82.326  84.853  1.00  0.00     0.165 A 
ATOM     20  C   UNL     1      93.946  83.216  85.741  1.00  0.00     0.468 C 
ATOM     21  O   UNL     1      92.647  83.554  85.212  1.00  0.00    -0.454 OA
ENDBRANCH  12  13
ENDBRANCH   2  11
TORSDOF 3
ENDMDL
MODEL 9
REMARK VINA RESULT:    -6.519     18.849     20.710
REMARK INTER + INTRA:          -8.032
REMARK INTER:                  -7.655
REMARK INTRA:                  -0.377
REMARK UNBOUND:                -0.370
REMARK SMILES O=C(/C=C/C=C/c1ccc2c(c1)OCO2)N1CCCCC1
REMARK SMILES IDX 3 1 4 2 2 3 1 4 16 5 17 6 21 7 18 8 20 9 19 10 5 11 6 12
REMARK SMILES IDX 7 13 12 14 8 15 11 16 9 17 13 18 10 19 14 20 15 21
REMARK H PARENT
REMARK Flexibility Score: inf
ROOT
ATOM      1  C   UNL     1      74.404  92.156  71.537  1.00  0.00     0.071 C 
ATOM      2  C   UNL     1      73.642  91.134  71.153  1.00  0.00     0.006 C 
ENDROOT
BRANCH   1   3
ATOM      3  C   UNL     1      73.750  93.296  72.210  1.00  0.00     0.246 C 
ATOM      4  O   UNL     1      72.570  93.518  71.936  1.00  0.00    -0.270 OA
ATOM      5  N   UNL     1      74.511  94.046  73.105  1.00  0.00    -0.339 N 
ATOM      6  C   UNL     1      73.890  95.187  73.785  1.00  0.00     0.120 C 
ATOM      7  C   UNL     1      75.932  93.839  73.423  1.00  0.00     0.120 C 
ATOM      8  C   UNL     1      74.069  95.099  75.297  1.00  0.00     0.022 C 
ATOM      9  C   UNL     1      76.153  93.749  74.933  1.00  0.00     0.022 C 
ATOM     10  C   UNL     1      75.541  94.941  75.665  1.00  0.00     0.004 C 
ENDBRANCH   1   3
BRANCH   2  11
ATOM     11  C   UNL     1      74.191  89.973  70.485  1.00  0.00     0.001 C 
ATOM     12  C   UNL     1      75.261  90.038  69.677  1.00  0.00     0.008 C 
BRANCH  12  13
ATOM     13  C   UNL     1      75.855  88.892  68.968  1.00  0.00    -0.022 A 
ATOM     14  C   UNL     1      75.306  87.630  69.146  1.00  0.00     0.058 A 
ATOM     15  C   UNL     1      76.956  89.107  68.136  1.00  0.00     0.012 A 
ATOM     16  C   UNL     1      75.896  86.588  68.460  1.00  0.00     0.166 A 
ATOM     17  C   UNL     1      77.535  88.034  67.454  1.00  0.00     0.051 A 
ATOM     18  O   UNL     1      75.508  85.283  68.502  1.00  0.00    -0.454 OA
ATOM     19  C   UNL     1      76.981  86.784  67.637  1.00  0.00     0.165 A 
ATOM     20  C   UNL     1      76.471  84.682  67.613  1.00  0.00     0.468 C 
ATOM     21  O   UNL     1      77.408  85.628  67.060  1.00  0.00    -0.454 OA
ENDBRANCH  12  13
ENDBRANCH   2  11
TORSDOF 3
ENDMDL
MODEL 10
REMARK VINA RESULT:    -6.509     14.320     15.995
REMARK INTER + INTRA:          -8.021
REMARK INTER:                  -7.638
REMARK INTRA:                  -0.383
REMARK UNBOUND:                -0.370
REMARK SMILES O=C(/C=C/C=C/c1ccc2c(c1)OCO2)N1CCCCC1
REMARK SMILES IDX 3 1 4 2 2 3 1 4 16 5 17 6 21 7 18 8 20 9 19 10 5 11 6 12
REMARK SMILES IDX 7 13 12 14 8 15 11 16 9 17 13 18 10 19 14 20 15 21
REMARK H PARENT
REMARK Flexibility Score: inf
ROOT
ATOM      1  C   UNL     1      97.371  82.629  79.516  1.00  0.00     0.071 C 
ATOM      2  C   UNL     1      96.782  83.504  78.704  1.00  0.00     0.006 C 
ENDROOT
BRANCH   1   3
ATOM      3  C   UNL     1      96.968  82.619  80.936  1.00  0.00     0.246 C 
ATOM      4  O   UNL     1      96.449  83.641  81.387  1.00  0.00    -0.270 OA
ATOM      5  N   UNL     1      97.206  81.458  81.671  1.00  0.00    -0.339 N 
ATOM      6  C   UNL     1      96.821  81.421  83.085  1.00  0.00     0.120 C 
ATOM      7  C   UNL     1      97.862  80.238  81.179  1.00  0.00     0.120 C 
ATOM      8  C   UNL     1      95.947  80.209  83.393  1.00  0.00     0.022 C 
ATOM      9  C   UNL     1      97.017  78.999  81.473  1.00  0.00     0.022 C 
ATOM     10  C   UNL     1      96.626  78.918  82.946  1.00  0.00     0.004 C 
ENDBRANCH   1   3
BRANCH   2  11
ATOM     11  C   UNL     1      97.110  83.590  77.296  1.00  0.00     0.001 C 
ATOM     12  C   UNL     1      98.374  83.648  76.847  1.00  0.00     0.008 C 
BRANCH  12  13
ATOM     13  C   UNL     1      98.764  83.744  75.430  1.00  0.00    -0.022 A 
ATOM     14  C   UNL     1     100.088  84.010  75.110  1.00  0.00     0.058 A 
ATOM     15  C   UNL     1      97.788  83.564  74.446  1.00  0.00     0.012 A 
ATOM     16  C   UNL     1     100.404  84.090  73.769  1.00  0.00     0.166 A 
ATOM     17  C   UNL     1      98.136  83.651  73.096  1.00  0.00     0.051 A 
ATOM     18  O   UNL     1     101.639  84.342  73.254  1.00  0.00    -0.454 OA
ATOM     19  C   UNL     1      99.454  83.915  72.789  1.00  0.00     0.165 A 
ATOM     20  C   UNL     1     101.359  84.306  71.840  1.00  0.00     0.468 C 
ATOM     21  O   UNL     1      99.975  84.036  71.537  1.00  0.00    -0.454 OA
ENDBRANCH  12  13
ENDBRANCH   2  11
TORSDOF 3
ENDMDL
