MODEL 1
REMARK VINA RESULT:    -6.655      0.000      0.000
REMARK INTER + INTRA:         -11.166
REMARK INTER:                 -10.351
REMARK INTRA:                  -0.815
REMARK UNBOUND:                -0.815
REMARK SMILES COc1cc(CNC(=O)CCCC/C=C/C(C)C)ccc1O
REMARK SMILES IDX 10 1 8 2 7 3 9 5 6 6 5 7 3 8 21 9 4 10 20 11 19 12 2 13 1 14
REMARK SMILES IDX 22 15 11 17 12 18 13 19 14 20 15 21 16 22 17 23 18 24
REMARK H PARENT 7 4 22 16
REMARK Flexibility Score: inf
ROOT
ATOM      1  C   UNL     1      92.468  93.914  75.877  1.00  0.00     0.100 C 
ENDROOT
BRANCH   1   2
ATOM      2  C   UNL     1      93.842  94.309  76.242  1.00  0.00     0.220 C 
ATOM      3  N   UNL     1      94.493  93.686  77.264  1.00  0.00    -0.352 N 
ATOM      4  H   UNL     1      93.955  92.975  77.741  1.00  0.00     0.163 HD
ATOM      5  O   UNL     1      94.396  95.214  75.571  1.00  0.00    -0.275 OA
BRANCH   3   6
ATOM      6  C   UNL     1      95.830  93.971  77.674  1.00  0.00     0.151 C 
BRANCH   6   7
ATOM      7  C   UNL     1      95.875  94.503  79.063  1.00  0.00    -0.025 A 
ATOM      8  C   UNL     1      96.236  96.381  80.613  1.00  0.00     0.160 A 
ATOM      9  C   UNL     1      95.944  95.538  81.705  1.00  0.00     0.157 A 
ATOM     10  C   UNL     1      96.200  95.856  79.305  1.00  0.00     0.056 A 
ATOM     11  C   UNL     1      95.637  94.181  81.482  1.00  0.00     0.050 A 
ATOM     12  C   UNL     1      95.593  93.669  80.170  1.00  0.00     0.009 A 
BRANCH   8  13
ATOM     13  O   UNL     1      96.599  97.686  80.830  1.00  0.00    -0.493 OA
ATOM     14  C   UNL     1      97.983  97.965  80.546  1.00  0.00     0.278 C 
ENDBRANCH   8  13
BRANCH   9  15
ATOM     15  O   UNL     1      95.957  96.015  82.977  1.00  0.00    -0.504 OA
ATOM     16  H   UNL     1      95.065  96.004  83.332  1.00  0.00     0.293 HD
ENDBRANCH   9  15
ENDBRANCH   6   7
ENDBRANCH   3   6
ENDBRANCH   1   2
BRANCH   1  17
ATOM     17  C   UNL     1      92.079  92.549  76.505  1.00  0.00     0.010 C 
BRANCH  17  18
ATOM     18  C   UNL     1      90.975  92.676  77.593  1.00  0.00     0.005 C 
BRANCH  18  19
ATOM     19  C   UNL     1      89.618  92.083  77.128  1.00  0.00     0.027 C 
BRANCH  19  20
ATOM     20  C   UNL     1      89.787  91.068  76.100  1.00  0.00    -0.031 C 
ATOM     21  C   UNL     1      88.788  90.591  75.335  1.00  0.00    -0.028 C 
BRANCH  21  22
ATOM     22  C   UNL     1      88.985  89.584  74.293  1.00  0.00     0.005 C 
ATOM     23  C   UNL     1      90.088  89.994  73.279  1.00  0.00     0.012 C 
ATOM     24  C   UNL     1      89.304  88.208  74.932  1.00  0.00     0.012 C 
ENDBRANCH  21  22
ENDBRANCH  19  20
ENDBRANCH  18  19
ENDBRANCH  17  18
ENDBRANCH   1  17
TORSDOF 10
ENDMDL
MODEL 2
REMARK VINA RESULT:    -6.398     14.239     16.578
REMARK INTER + INTRA:         -10.766
REMARK INTER:                  -8.525
REMARK INTRA:                  -2.241
REMARK UNBOUND:                -0.815
REMARK SMILES COc1cc(CNC(=O)CCCC/C=C/C(C)C)ccc1O
REMARK SMILES IDX 10 1 8 2 7 3 9 5 6 6 5 7 3 8 21 9 4 10 20 11 19 12 2 13 1 14
REMARK SMILES IDX 22 15 11 17 12 18 13 19 14 20 15 21 16 22 17 23 18 24
REMARK H PARENT 7 4 22 16
REMARK Flexibility Score: inf
ROOT
ATOM      1  C   UNL     1      80.993  85.742  84.551  1.00  0.00     0.100 C 
ENDROOT
BRANCH   1   2
ATOM      2  C   UNL     1      81.706  85.984  85.820  1.00  0.00     0.220 C 
ATOM      3  N   UNL     1      81.012  86.227  86.968  1.00  0.00    -0.352 N 
ATOM      4  H   UNL     1      80.007  86.249  86.862  1.00  0.00     0.163 HD
ATOM      5  O   UNL     1      82.959  85.935  85.814  1.00  0.00    -0.275 OA
BRANCH   3   6
ATOM      6  C   UNL     1      81.604  86.441  88.249  1.00  0.00     0.151 C 
BRANCH   6   7
ATOM      7  C   UNL     1      81.308  87.804  88.768  1.00  0.00    -0.025 A 
ATOM      8  C   UNL     1      81.900  89.707  90.214  1.00  0.00     0.160 A 
ATOM      9  C   UNL     1      80.768  90.411  89.753  1.00  0.00     0.157 A 
ATOM     10  C   UNL     1      82.158  88.411  89.719  1.00  0.00     0.056 A 
ATOM     11  C   UNL     1      79.900  89.810  88.819  1.00  0.00     0.050 A 
ATOM     12  C   UNL     1      80.173  88.521  88.322  1.00  0.00     0.009 A 
BRANCH   8  13
ATOM     13  O   UNL     1      82.711  90.261  91.171  1.00  0.00    -0.493 OA
ATOM     14  C   UNL     1      83.878  90.919  90.644  1.00  0.00     0.278 C 
ENDBRANCH   8  13
BRANCH   9  15
ATOM     15  O   UNL     1      80.498  91.665  90.199  1.00  0.00    -0.504 OA
ATOM     16  H   UNL     1      79.550  91.774  90.295  1.00  0.00     0.293 HD
ENDBRANCH   9  15
ENDBRANCH   6   7
ENDBRANCH   3   6
ENDBRANCH   1   2
BRANCH   1  17
ATOM     17  C   UNL     1      79.827  86.748  84.349  1.00  0.00     0.010 C 
BRANCH  17  18
ATOM     18  C   UNL     1      80.298  88.109  83.763  1.00  0.00     0.005 C 
BRANCH  18  19
ATOM     19  C   UNL     1      79.947  89.303  84.691  1.00  0.00     0.027 C 
BRANCH  19  20
ATOM     20  C   UNL     1      81.135  90.003  85.156  1.00  0.00    -0.031 C 
ATOM     21  C   UNL     1      82.326  89.413  85.369  1.00  0.00    -0.028 C 
BRANCH  21  22
ATOM     22  C   UNL     1      83.513  90.139  85.817  1.00  0.00     0.005 C 
ATOM     23  C   UNL     1      84.213  90.897  84.655  1.00  0.00     0.012 C 
ATOM     24  C   UNL     1      83.144  91.111  86.968  1.00  0.00     0.012 C 
ENDBRANCH  21  22
ENDBRANCH  19  20
ENDBRANCH  18  19
ENDBRANCH  17  18
ENDBRANCH   1  17
TORSDOF 10
ENDMDL
MODEL 3
REMARK VINA RESULT:    -6.300      2.306      3.969
REMARK INTER + INTRA:         -10.614
REMARK INTER:                  -9.934
REMARK INTRA:                  -0.680
REMARK UNBOUND:                -0.815
REMARK SMILES COc1cc(CNC(=O)CCCC/C=C/C(C)C)ccc1O
REMARK SMILES IDX 10 1 8 2 7 3 9 5 6 6 5 7 3 8 21 9 4 10 20 11 19 12 2 13 1 14
REMARK SMILES IDX 22 15 11 17 12 18 13 19 14 20 15 21 16 22 17 23 18 24
REMARK H PARENT 7 4 22 16
REMARK Flexibility Score: inf
ROOT
ATOM      1  C   UNL     1      91.658  91.885  73.090  1.00  0.00     0.100 C 
ENDROOT
BRANCH   1   2
ATOM      2  C   UNL     1      91.918  92.252  74.496  1.00  0.00     0.220 C 
ATOM      3  N   UNL     1      92.170  93.547  74.837  1.00  0.00    -0.352 N 
ATOM      4  H   UNL     1      92.185  94.197  74.063  1.00  0.00     0.163 HD
ATOM      5  O   UNL     1      91.877  91.345  75.362  1.00  0.00    -0.275 OA
BRANCH   3   6
ATOM      6  C   UNL     1      92.402  94.009  76.168  1.00  0.00     0.151 C 
BRANCH   6   7
ATOM      7  C   UNL     1      93.828  94.380  76.378  1.00  0.00    -0.025 A 
ATOM      8  C   UNL     1      95.759  94.647  77.881  1.00  0.00     0.160 A 
ATOM      9  C   UNL     1      96.551  95.064  76.792  1.00  0.00     0.157 A 
ATOM     10  C   UNL     1      94.406  94.311  77.665  1.00  0.00     0.056 A 
ATOM     11  C   UNL     1      95.983  95.155  75.505  1.00  0.00     0.050 A 
ATOM     12  C   UNL     1      94.635  94.807  75.297  1.00  0.00     0.009 A 
BRANCH   8  13
ATOM     13  O   UNL     1      96.290  94.619  79.146  1.00  0.00    -0.493 OA
ATOM     14  C   UNL     1      95.324  94.360  80.182  1.00  0.00     0.278 C 
ENDBRANCH   8  13
BRANCH   9  15
ATOM     15  O   UNL     1      97.860  95.381  76.963  1.00  0.00    -0.504 OA
ATOM     16  H   UNL     1      98.327  95.279  76.131  1.00  0.00     0.293 HD
ENDBRANCH   9  15
ENDBRANCH   6   7
ENDBRANCH   3   6
ENDBRANCH   1   2
BRANCH   1  17
ATOM     17  C   UNL     1      90.490  90.870  72.971  1.00  0.00     0.010 C 
BRANCH  17  18
ATOM     18  C   UNL     1      89.094  91.531  73.149  1.00  0.00     0.005 C 
BRANCH  18  19
ATOM     19  C   UNL     1      88.183  90.734  74.123  1.00  0.00     0.027 C 
BRANCH  19  20
ATOM     20  C   UNL     1      88.939  89.781  74.922  1.00  0.00    -0.031 C 
ATOM     21  C   UNL     1      89.173  88.507  74.558  1.00  0.00    -0.028 C 
BRANCH  21  22
ATOM     22  C   UNL     1      89.952  87.572  75.369  1.00  0.00     0.005 C 
ATOM     23  C   UNL     1      91.342  87.267  74.744  1.00  0.00     0.012 C 
ATOM     24  C   UNL     1      90.101  88.111  76.815  1.00  0.00     0.012 C 
ENDBRANCH  21  22
ENDBRANCH  19  20
ENDBRANCH  18  19
ENDBRANCH  17  18
ENDBRANCH   1  17
TORSDOF 10
ENDMDL
MODEL 4
REMARK VINA RESULT:    -6.042      6.359      7.898
REMARK INTER + INTRA:         -10.212
REMARK INTER:                  -9.640
REMARK INTRA:                  -0.572
REMARK UNBOUND:                -0.815
REMARK SMILES COc1cc(CNC(=O)CCCC/C=C/C(C)C)ccc1O
REMARK SMILES IDX 10 1 8 2 7 3 9 5 6 6 5 7 3 8 21 9 4 10 20 11 19 12 2 13 1 14
REMARK SMILES IDX 22 15 11 17 12 18 13 19 14 20 15 21 16 22 17 23 18 24
REMARK H PARENT 7 4 22 16
REMARK Flexibility Score: inf
ROOT
ATOM      1  C   UNL     1      93.834  99.399  72.172  1.00  0.00     0.100 C 
ENDROOT
BRANCH   1   2
ATOM      2  C   UNL     1      94.782  98.327  72.531  1.00  0.00     0.220 C 
ATOM      3  N   UNL     1      94.878  97.892  73.819  1.00  0.00    -0.352 N 
ATOM      4  H   UNL     1      94.281  98.373  74.477  1.00  0.00     0.163 HD
ATOM      5  O   UNL     1      95.473  97.817  71.617  1.00  0.00    -0.275 OA
BRANCH   3   6
ATOM      6  C   UNL     1      95.738  96.842  74.263  1.00  0.00     0.151 C 
BRANCH   6   7
ATOM      7  C   UNL     1      95.019  95.884  75.146  1.00  0.00    -0.025 A 
ATOM      8  C   UNL     1      95.019  94.361  77.081  1.00  0.00     0.160 A 
ATOM      9  C   UNL     1      93.659  94.069  76.852  1.00  0.00     0.157 A 
ATOM     10  C   UNL     1      95.687  95.263  76.226  1.00  0.00     0.056 A 
ATOM     11  C   UNL     1      92.986  94.665  75.768  1.00  0.00     0.050 A 
ATOM     12  C   UNL     1      93.657  95.573  74.926  1.00  0.00     0.009 A 
BRANCH   8  13
ATOM     13  O   UNL     1      95.696  93.733  78.096  1.00  0.00    -0.493 OA
ATOM     14  C   UNL     1      95.813  94.517  79.297  1.00  0.00     0.278 C 
ENDBRANCH   8  13
BRANCH   9  15
ATOM     15  O   UNL     1      92.984  93.215  77.664  1.00  0.00    -0.504 OA
ATOM     16  H   UNL     1      92.355  92.708  77.145  1.00  0.00     0.293 HD
ENDBRANCH   9  15
ENDBRANCH   6   7
ENDBRANCH   3   6
ENDBRANCH   1   2
BRANCH   1  17
ATOM     17  C   UNL     1      93.158  99.130  70.800  1.00  0.00     0.010 C 
BRANCH  17  18
ATOM     18  C   UNL     1      91.920 100.035  70.548  1.00  0.00     0.005 C 
BRANCH  18  19
ATOM     19  C   UNL     1      91.681 100.303  69.038  1.00  0.00     0.027 C 
BRANCH  19  20
ATOM     20  C   UNL     1      91.190  99.121  68.344  1.00  0.00    -0.031 C 
ATOM     21  C   UNL     1      90.605  99.145  67.132  1.00  0.00    -0.028 C 
BRANCH  21  22
ATOM     22  C   UNL     1      90.137  97.942  66.445  1.00  0.00     0.005 C 
ATOM     23  C   UNL     1      90.177  96.686  67.359  1.00  0.00     0.012 C 
ATOM     24  C   UNL     1      88.711  98.168  65.879  1.00  0.00     0.012 C 
ENDBRANCH  21  22
ENDBRANCH  19  20
ENDBRANCH  18  19
ENDBRANCH  17  18
ENDBRANCH   1  17
TORSDOF 10
ENDMDL
MODEL 5
REMARK VINA RESULT:    -5.991     28.209     30.226
REMARK INTER + INTRA:         -10.133
REMARK INTER:                  -9.272
REMARK INTRA:                  -0.861
REMARK UNBOUND:                -0.815
REMARK SMILES COc1cc(CNC(=O)CCCC/C=C/C(C)C)ccc1O
REMARK SMILES IDX 10 1 8 2 7 3 9 5 6 6 5 7 3 8 21 9 4 10 20 11 19 12 2 13 1 14
REMARK SMILES IDX 22 15 11 17 12 18 13 19 14 20 15 21 16 22 17 23 18 24
REMARK H PARENT 7 4 22 16
REMARK Flexibility Score: inf
ROOT
ATOM      1  C   UNL     1      63.412  86.499  75.894  1.00  0.00     0.100 C 
ENDROOT
BRANCH   1   2
ATOM      2  C   UNL     1      63.904  87.219  77.085  1.00  0.00     0.220 C 
ATOM      3  N   UNL     1      63.657  86.737  78.335  1.00  0.00    -0.352 N 
ATOM      4  H   UNL     1      63.108  85.889  78.365  1.00  0.00     0.163 HD
ATOM      5  O   UNL     1      64.570  88.267  76.909  1.00  0.00    -0.275 OA
BRANCH   3   6
ATOM      6  C   UNL     1      64.114  87.339  79.546  1.00  0.00     0.151 C 
BRANCH   6   7
ATOM      7  C   UNL     1      65.117  86.484  80.238  1.00  0.00    -0.025 A 
ATOM      8  C   UNL     1      65.880  85.311  82.264  1.00  0.00     0.160 A 
ATOM      9  C   UNL     1      67.009  84.837  81.566  1.00  0.00     0.157 A 
ATOM     10  C   UNL     1      64.946  86.131  81.595  1.00  0.00     0.056 A 
ATOM     11  C   UNL     1      67.203  85.197  80.217  1.00  0.00     0.050 A 
ATOM     12  C   UNL     1      66.260  86.006  79.554  1.00  0.00     0.009 A 
BRANCH   8  13
ATOM     13  O   UNL     1      65.721  85.019  83.595  1.00  0.00    -0.493 OA
ATOM     14  C   UNL     1      66.091  86.092  84.480  1.00  0.00     0.278 C 
ENDBRANCH   8  13
BRANCH   9  15
ATOM     15  O   UNL     1      67.920  84.036  82.177  1.00  0.00    -0.504 OA
ATOM     16  H   UNL     1      68.732  84.526  82.323  1.00  0.00     0.293 HD
ENDBRANCH   9  15
ENDBRANCH   6   7
ENDBRANCH   3   6
ENDBRANCH   1   2
BRANCH   1  17
ATOM     17  C   UNL     1      62.235  85.549  76.245  1.00  0.00     0.010 C 
BRANCH  17  18
ATOM     18  C   UNL     1      62.532  84.063  75.896  1.00  0.00     0.005 C 
BRANCH  18  19
ATOM     19  C   UNL     1      64.040  83.810  75.626  1.00  0.00     0.027 C 
BRANCH  19  20
ATOM     20  C   UNL     1      64.250  82.817  74.583  1.00  0.00    -0.031 C 
ATOM     21  C   UNL     1      63.595  81.644  74.513  1.00  0.00    -0.028 C 
BRANCH  21  22
ATOM     22  C   UNL     1      63.807  80.669  73.443  1.00  0.00     0.005 C 
ATOM     23  C   UNL     1      63.378  81.216  72.054  1.00  0.00     0.012 C 
ATOM     24  C   UNL     1      65.288  80.210  73.424  1.00  0.00     0.012 C 
ENDBRANCH  21  22
ENDBRANCH  19  20
ENDBRANCH  18  19
ENDBRANCH  17  18
ENDBRANCH   1  17
TORSDOF 10
ENDMDL
MODEL 6
REMARK VINA RESULT:    -5.580     13.679     15.777
REMARK INTER + INTRA:          -9.495
REMARK INTER:                  -7.764
REMARK INTRA:                  -1.731
REMARK UNBOUND:                -0.815
REMARK SMILES COc1cc(CNC(=O)CCCC/C=C/C(C)C)ccc1O
REMARK SMILES IDX 10 1 8 2 7 3 9 5 6 6 5 7 3 8 21 9 4 10 20 11 19 12 2 13 1 14
REMARK SMILES IDX 22 15 11 17 12 18 13 19 14 20 15 21 16 22 17 23 18 24
REMARK H PARENT 7 4 22 16
REMARK Flexibility Score: inf
ROOT
ATOM      1  C   UNL     1      81.102  87.146  86.757  1.00  0.00     0.100 C 
ENDROOT
BRANCH   1   2
ATOM      2  C   UNL     1      81.308  87.705  88.107  1.00  0.00     0.220 C 
ATOM      3  N   UNL     1      81.042  89.017  88.359  1.00  0.00    -0.352 N 
ATOM      4  H   UNL     1      80.728  89.550  87.560  1.00  0.00     0.163 HD
ATOM      5  O   UNL     1      81.709  86.935  89.012  1.00  0.00    -0.275 OA
BRANCH   3   6
ATOM      6  C   UNL     1      81.177  89.646  89.634  1.00  0.00     0.151 C 
BRANCH   6   7
ATOM      7  C   UNL     1      81.951  90.914  89.539  1.00  0.00    -0.025 A 
ATOM      8  C   UNL     1      83.491  92.549  90.548  1.00  0.00     0.160 A 
ATOM      9  C   UNL     1      83.449  93.319  89.367  1.00  0.00     0.157 A 
ATOM     10  C   UNL     1      82.741  91.356  90.624  1.00  0.00     0.056 A 
ATOM     11  C   UNL     1      82.650  92.900  88.285  1.00  0.00     0.050 A 
ATOM     12  C   UNL     1      81.914  91.702  88.365  1.00  0.00     0.009 A 
BRANCH   8  13
ATOM     13  O   UNL     1      84.214  92.986  91.629  1.00  0.00    -0.493 OA
ATOM     14  C   UNL     1      84.662  91.931  92.501  1.00  0.00     0.278 C 
ENDBRANCH   8  13
BRANCH   9  15
ATOM     15  O   UNL     1      84.169  94.465  89.257  1.00  0.00    -0.504 OA
ATOM     16  H   UNL     1      83.967  94.892  88.422  1.00  0.00     0.293 HD
ENDBRANCH   9  15
ENDBRANCH   6   7
ENDBRANCH   3   6
ENDBRANCH   1   2
BRANCH   1  17
ATOM     17  C   UNL     1      80.176  88.048  85.898  1.00  0.00     0.010 C 
BRANCH  17  18
ATOM     18  C   UNL     1      80.767  88.361  84.495  1.00  0.00     0.005 C 
BRANCH  18  19
ATOM     19  C   UNL     1      81.231  89.837  84.365  1.00  0.00     0.027 C 
BRANCH  19  20
ATOM     20  C   UNL     1      82.439  90.100  85.133  1.00  0.00    -0.031 C 
ATOM     21  C   UNL     1      83.640  90.361  84.587  1.00  0.00    -0.028 C 
BRANCH  21  22
ATOM     22  C   UNL     1      84.838  90.643  85.379  1.00  0.00     0.005 C 
ATOM     23  C   UNL     1      85.063  92.166  85.584  1.00  0.00     0.012 C 
ATOM     24  C   UNL     1      84.765  89.906  86.741  1.00  0.00     0.012 C 
ENDBRANCH  21  22
ENDBRANCH  19  20
ENDBRANCH  18  19
ENDBRANCH  17  18
ENDBRANCH   1  17
TORSDOF 10
ENDMDL
MODEL 7
REMARK VINA RESULT:    -5.513     18.400     21.558
REMARK INTER + INTRA:          -9.390
REMARK INTER:                  -8.694
REMARK INTRA:                  -0.696
REMARK UNBOUND:                -0.815
REMARK SMILES COc1cc(CNC(=O)CCCC/C=C/C(C)C)ccc1O
REMARK SMILES IDX 10 1 8 2 7 3 9 5 6 6 5 7 3 8 21 9 4 10 20 11 19 12 2 13 1 14
REMARK SMILES IDX 22 15 11 17 12 18 13 19 14 20 15 21 16 22 17 23 18 24
REMARK H PARENT 7 4 22 16
REMARK Flexibility Score: inf
ROOT
ATOM      1  C   UNL     1      76.179  92.379  65.081  1.00  0.00     0.100 C 
ENDROOT
BRANCH   1   2
ATOM      2  C   UNL     1      75.833  91.424  66.152  1.00  0.00     0.220 C 
ATOM      3  N   UNL     1      76.012  90.086  65.969  1.00  0.00    -0.352 N 
ATOM      4  H   UNL     1      76.366  89.823  65.060  1.00  0.00     0.163 HD
ATOM      5  O   UNL     1      75.395  91.882  67.235  1.00  0.00    -0.275 OA
BRANCH   3   6
ATOM      6  C   UNL     1      75.740  89.085  66.951  1.00  0.00     0.151 C 
BRANCH   6   7
ATOM      7  C   UNL     1      76.517  87.842  66.695  1.00  0.00    -0.025 A 
ATOM      8  C   UNL     1      76.766  85.403  66.920  1.00  0.00     0.160 A 
ATOM      9  C   UNL     1      77.977  85.459  66.199  1.00  0.00     0.157 A 
ATOM     10  C   UNL     1      76.050  86.594  67.163  1.00  0.00     0.056 A 
ATOM     11  C   UNL     1      78.465  86.700  65.742  1.00  0.00     0.050 A 
ATOM     12  C   UNL     1      77.737  87.882  65.980  1.00  0.00     0.009 A 
BRANCH   8  13
ATOM     13  O   UNL     1      76.320  84.207  67.423  1.00  0.00    -0.493 OA
ATOM     14  C   UNL     1      75.780  84.295  68.754  1.00  0.00     0.278 C 
ENDBRANCH   8  13
BRANCH   9  15
ATOM     15  O   UNL     1      78.684  84.330  65.936  1.00  0.00    -0.504 OA
ATOM     16  H   UNL     1      78.362  83.931  65.125  1.00  0.00     0.293 HD
ENDBRANCH   9  15
ENDBRANCH   6   7
ENDBRANCH   3   6
ENDBRANCH   1   2
BRANCH   1  17
ATOM     17  C   UNL     1      76.884  93.642  65.646  1.00  0.00     0.010 C 
BRANCH  17  18
ATOM     18  C   UNL     1      77.775  94.359  64.593  1.00  0.00     0.005 C 
BRANCH  18  19
ATOM     19  C   UNL     1      79.106  94.877  65.201  1.00  0.00     0.027 C 
BRANCH  19  20
ATOM     20  C   UNL     1      79.013  95.066  66.641  1.00  0.00    -0.031 C 
ATOM     21  C   UNL     1      79.716  95.983  67.330  1.00  0.00    -0.028 C 
BRANCH  21  22
ATOM     22  C   UNL     1      79.592  96.169  68.776  1.00  0.00     0.005 C 
ATOM     23  C   UNL     1      79.731  97.659  69.193  1.00  0.00     0.012 C 
ATOM     24  C   UNL     1      78.250  95.577  69.279  1.00  0.00     0.012 C 
ENDBRANCH  21  22
ENDBRANCH  19  20
ENDBRANCH  18  19
ENDBRANCH  17  18
ENDBRANCH   1  17
TORSDOF 10
ENDMDL
MODEL 8
REMARK VINA RESULT:    -5.482     31.432     33.722
REMARK INTER + INTRA:          -9.341
REMARK INTER:                  -7.999
REMARK INTRA:                  -1.342
REMARK UNBOUND:                -0.815
REMARK SMILES COc1cc(CNC(=O)CCCC/C=C/C(C)C)ccc1O
REMARK SMILES IDX 10 1 8 2 7 3 9 5 6 6 5 7 3 8 21 9 4 10 20 11 19 12 2 13 1 14
REMARK SMILES IDX 22 15 11 17 12 18 13 19 14 20 15 21 16 22 17 23 18 24
REMARK H PARENT 7 4 22 16
REMARK Flexibility Score: inf
ROOT
ATOM      1  C   UNL     1      62.451  86.622  73.854  1.00  0.00     0.100 C 
ENDROOT
BRANCH   1   2
ATOM      2  C   UNL     1      61.582  85.530  73.374  1.00  0.00     0.220 C 
ATOM      3  N   UNL     1      61.233  85.452  72.060  1.00  0.00    -0.352 N 
ATOM      4  H   UNL     1      61.591  86.197  71.478  1.00  0.00     0.163 HD
ATOM      5  O   UNL     1      61.199  84.670  74.204  1.00  0.00    -0.275 OA
BRANCH   3   6
ATOM      6  C   UNL     1      60.426  84.420  71.490  1.00  0.00     0.151 C 
BRANCH   6   7
ATOM      7  C   UNL     1      61.202  83.584  70.534  1.00  0.00    -0.025 A 
ATOM      8  C   UNL     1      61.823  83.018  68.220  1.00  0.00     0.160 A 
ATOM      9  C   UNL     1      62.689  82.013  68.698  1.00  0.00     0.157 A 
ATOM     10  C   UNL     1      61.087  83.792  69.141  1.00  0.00     0.056 A 
ATOM     11  C   UNL     1      62.799  81.781  70.083  1.00  0.00     0.050 A 
ATOM     12  C   UNL     1      62.069  82.567  70.996  1.00  0.00     0.009 A 
BRANCH   8  13
ATOM     13  O   UNL     1      61.663  83.204  66.870  1.00  0.00    -0.493 OA
ATOM     14  C   UNL     1      62.118  84.484  66.396  1.00  0.00     0.278 C 
ENDBRANCH   8  13
BRANCH   9  15
ATOM     15  O   UNL     1      63.422  81.259  67.838  1.00  0.00    -0.504 OA
ATOM     16  H   UNL     1      62.906  80.499  67.558  1.00  0.00     0.293 HD
ENDBRANCH   9  15
ENDBRANCH   6   7
ENDBRANCH   3   6
ENDBRANCH   1   2
BRANCH   1  17
ATOM     17  C   UNL     1      63.870  86.108  74.215  1.00  0.00     0.010 C 
BRANCH  17  18
ATOM     18  C   UNL     1      64.062  85.882  75.741  1.00  0.00     0.005 C 
BRANCH  18  19
ATOM     19  C   UNL     1      64.555  84.447  76.069  1.00  0.00     0.027 C 
BRANCH  19  20
ATOM     20  C   UNL     1      64.470  83.562  74.916  1.00  0.00    -0.031 C 
ATOM     21  C   UNL     1      64.416  82.220  74.995  1.00  0.00    -0.028 C 
BRANCH  21  22
ATOM     22  C   UNL     1      64.310  81.351  73.823  1.00  0.00     0.005 C 
ATOM     23  C   UNL     1      65.532  80.402  73.681  1.00  0.00     0.012 C 
ATOM     24  C   UNL     1      62.986  80.545  73.871  1.00  0.00     0.012 C 
ENDBRANCH  21  22
ENDBRANCH  19  20
ENDBRANCH  18  19
ENDBRANCH  17  18
ENDBRANCH   1  17
TORSDOF 10
ENDMDL
MODEL 9
REMARK VINA RESULT:    -5.472      4.382      6.906
REMARK INTER + INTRA:          -9.326
REMARK INTER:                  -8.500
REMARK INTRA:                  -0.826
REMARK UNBOUND:                -0.815
REMARK SMILES COc1cc(CNC(=O)CCCC/C=C/C(C)C)ccc1O
REMARK SMILES IDX 10 1 8 2 7 3 9 5 6 6 5 7 3 8 21 9 4 10 20 11 19 12 2 13 1 14
REMARK SMILES IDX 22 15 11 17 12 18 13 19 14 20 15 21 16 22 17 23 18 24
REMARK H PARENT 7 4 22 16
REMARK Flexibility Score: inf
ROOT
ATOM      1  C   UNL     1      94.987  93.939  76.565  1.00  0.00     0.100 C 
ENDROOT
BRANCH   1   2
ATOM      2  C   UNL     1      95.727  95.135  76.117  1.00  0.00     0.220 C 
ATOM      3  N   UNL     1      96.036  95.305  74.801  1.00  0.00    -0.352 N 
ATOM      4  H   UNL     1      95.743  94.552  74.194  1.00  0.00     0.163 HD
ATOM      5  O   UNL     1      96.039  95.995  76.977  1.00  0.00    -0.275 OA
BRANCH   3   6
ATOM      6  C   UNL     1      96.719  96.438  74.264  1.00  0.00     0.151 C 
BRANCH   6   7
ATOM      7  C   UNL     1      95.928  97.092  73.186  1.00  0.00    -0.025 A 
ATOM      8  C   UNL     1      95.705  97.796  70.837  1.00  0.00     0.160 A 
ATOM      9  C   UNL     1      94.425  98.318  71.114  1.00  0.00     0.157 A 
ATOM     10  C   UNL     1      96.445  97.191  71.874  1.00  0.00     0.056 A 
ATOM     11  C   UNL     1      93.904  98.245  72.421  1.00  0.00     0.050 A 
ATOM     12  C   UNL     1      94.645  97.628  73.448  1.00  0.00     0.009 A 
BRANCH   8  13
ATOM     13  O   UNL     1      96.243  97.924  69.582  1.00  0.00    -0.493 OA
ATOM     14  C   UNL     1      96.664  96.679  68.994  1.00  0.00     0.278 C 
ENDBRANCH   8  13
BRANCH   9  15
ATOM     15  O   UNL     1      93.681  98.896  70.135  1.00  0.00    -0.504 OA
ATOM     16  H   UNL     1      92.798  98.520  70.140  1.00  0.00     0.293 HD
ENDBRANCH   9  15
ENDBRANCH   6   7
ENDBRANCH   3   6
ENDBRANCH   1   2
BRANCH   1  17
ATOM     17  C   UNL     1      93.670  94.320  77.293  1.00  0.00     0.010 C 
BRANCH  17  18
ATOM     18  C   UNL     1      92.493  93.362  76.955  1.00  0.00     0.005 C 
BRANCH  18  19
ATOM     19  C   UNL     1      91.164  94.125  76.705  1.00  0.00     0.027 C 
BRANCH  19  20
ATOM     20  C   UNL     1      90.408  93.558  75.598  1.00  0.00    -0.031 C 
ATOM     21  C   UNL     1      90.965  92.933  74.544  1.00  0.00    -0.028 C 
BRANCH  21  22
ATOM     22  C   UNL     1      90.184  92.353  73.451  1.00  0.00     0.005 C 
ATOM     23  C   UNL     1      89.168  91.290  73.953  1.00  0.00     0.012 C 
ATOM     24  C   UNL     1      89.465  93.472  72.653  1.00  0.00     0.012 C 
ENDBRANCH  21  22
ENDBRANCH  19  20
ENDBRANCH  18  19
ENDBRANCH  17  18
ENDBRANCH   1  17
TORSDOF 10
ENDMDL
MODEL 10
REMARK VINA RESULT:    -5.444     24.044     27.567
REMARK INTER + INTRA:          -9.283
REMARK INTER:                  -8.546
REMARK INTRA:                  -0.738
REMARK UNBOUND:                -0.815
REMARK SMILES COc1cc(CNC(=O)CCCC/C=C/C(C)C)ccc1O
REMARK SMILES IDX 10 1 8 2 7 3 9 5 6 6 5 7 3 8 21 9 4 10 20 11 19 12 2 13 1 14
REMARK SMILES IDX 22 15 11 17 12 18 13 19 14 20 15 21 16 22 17 23 18 24
REMARK H PARENT 7 4 22 16
REMARK Flexibility Score: inf
ROOT
ATOM      1  C   UNL     1      86.011  68.883  70.725  1.00  0.00     0.100 C 
ENDROOT
BRANCH   1   2
ATOM      2  C   UNL     1      84.627  69.166  71.150  1.00  0.00     0.220 C 
ATOM      3  N   UNL     1      83.712  68.160  71.240  1.00  0.00    -0.352 N 
ATOM      4  H   UNL     1      84.055  67.247  70.975  1.00  0.00     0.163 HD
ATOM      5  O   UNL     1      84.328  70.348  71.447  1.00  0.00    -0.275 OA
BRANCH   3   6
ATOM      6  C   UNL     1      82.360  68.323  71.671  1.00  0.00     0.151 C 
BRANCH   6   7
ATOM      7  C   UNL     1      82.117  67.650  72.976  1.00  0.00    -0.025 A 
ATOM      8  C   UNL     1      82.943  66.900  75.170  1.00  0.00     0.160 A 
ATOM      9  C   UNL     1      81.666  66.387  75.476  1.00  0.00     0.157 A 
ATOM     10  C   UNL     1      83.157  67.525  73.924  1.00  0.00     0.056 A 
ATOM     11  C   UNL     1      80.625  66.487  74.533  1.00  0.00     0.050 A 
ATOM     12  C   UNL     1      80.845  67.122  73.296  1.00  0.00     0.009 A 
BRANCH   8  13
ATOM     13  O   UNL     1      83.978  66.747  76.059  1.00  0.00    -0.493 OA
ATOM     14  C   UNL     1      84.290  67.936  76.807  1.00  0.00     0.278 C 
ENDBRANCH   8  13
BRANCH   9  15
ATOM     15  O   UNL     1      81.423  65.792  76.673  1.00  0.00    -0.504 OA
ATOM     16  H   UNL     1      80.588  66.108  77.025  1.00  0.00     0.293 HD
ENDBRANCH   9  15
ENDBRANCH   6   7
ENDBRANCH   3   6
ENDBRANCH   1   2
BRANCH   1  17
ATOM     17  C   UNL     1      86.974  70.042  71.100  1.00  0.00     0.010 C 
BRANCH  17  18
ATOM     18  C   UNL     1      87.825  70.535  69.896  1.00  0.00     0.005 C 
BRANCH  18  19
ATOM     19  C   UNL     1      86.953  70.885  68.660  1.00  0.00     0.027 C 
BRANCH  19  20
ATOM     20  C   UNL     1      87.479  72.025  67.924  1.00  0.00    -0.031 C 
ATOM     21  C   UNL     1      88.596  72.694  68.264  1.00  0.00    -0.028 C 
BRANCH  21  22
ATOM     22  C   UNL     1      89.117  73.826  67.498  1.00  0.00     0.005 C 
ATOM     23  C   UNL     1      90.509  73.526  66.877  1.00  0.00     0.012 C 
ATOM     24  C   UNL     1      88.102  74.245  66.403  1.00  0.00     0.012 C 
ENDBRANCH  21  22
ENDBRANCH  19  20
ENDBRANCH  18  19
ENDBRANCH  17  18
ENDBRANCH   1  17
TORSDOF 10
ENDMDL
