MODEL 1
REMARK VINA RESULT:    -7.410      0.000      0.000
REMARK INTER + INTRA:          -9.016
REMARK INTER:                  -8.709
REMARK INTRA:                  -0.307
REMARK UNBOUND:                -0.307
REMARK SMILES O=C(/C=C/C=C/c1ccc2c(c1)OCO2)N1CCCCC1
REMARK SMILES IDX 3 1 4 2 2 3 1 4 16 5 17 6 21 7 18 8 20 9 19 10 5 11 6 12
REMARK SMILES IDX 7 13 12 14 8 15 11 16 9 17 13 18 10 19 14 20 15 21
REMARK H PARENT
REMARK Flexibility Score: inf
ROOT
ATOM      1  C   UNL     1      97.020  82.237  82.658  1.00  0.00     0.071 C 
ATOM      2  C   UNL     1      97.040  81.454  81.581  1.00  0.00     0.006 C 
ENDROOT
BRANCH   1   3
ATOM      3  C   UNL     1      97.233  81.610  83.977  1.00  0.00     0.246 C 
ATOM      4  O   UNL     1      98.395  81.415  84.333  1.00  0.00    -0.270 OA
ATOM      5  N   UNL     1      96.106  81.276  84.728  1.00  0.00    -0.339 N 
ATOM      6  C   UNL     1      96.286  80.647  86.039  1.00  0.00     0.120 C 
ATOM      7  C   UNL     1      94.705  81.452  84.317  1.00  0.00     0.120 C 
ATOM      8  C   UNL     1      95.524  81.398  87.126  1.00  0.00     0.022 C 
ATOM      9  C   UNL     1      93.906  82.199  85.385  1.00  0.00     0.022 C 
ATOM     10  C   UNL     1      94.052  81.548  86.757  1.00  0.00     0.004 C 
ENDBRANCH   1   3
BRANCH   2  11
ATOM     11  C   UNL     1      96.841  81.976  80.246  1.00  0.00     0.001 C 
ATOM     12  C   UNL     1      97.465  81.474  79.169  1.00  0.00     0.008 C 
BRANCH  12  13
ATOM     13  C   UNL     1      97.306  81.972  77.792  1.00  0.00    -0.022 A 
ATOM     14  C   UNL     1      98.336  81.782  76.881  1.00  0.00     0.058 A 
ATOM     15  C   UNL     1      96.121  82.622  77.439  1.00  0.00     0.012 A 
ATOM     16  C   UNL     1      98.140  82.265  75.604  1.00  0.00     0.166 A 
ATOM     17  C   UNL     1      95.949  83.101  76.139  1.00  0.00     0.051 A 
ATOM     18  O   UNL     1      99.026  82.179  74.573  1.00  0.00    -0.454 OA
ATOM     19  C   UNL     1      96.978  82.907  75.242  1.00  0.00     0.165 A 
ATOM     20  C   UNL     1      98.290  82.839  73.523  1.00  0.00     0.468 C 
ATOM     21  O   UNL     1      96.990  83.304  73.940  1.00  0.00    -0.454 OA
ENDBRANCH  12  13
ENDBRANCH   2  11
TORSDOF 3
ENDMDL
MODEL 2
REMARK VINA RESULT:    -7.258      2.887      8.957
REMARK INTER + INTRA:          -8.839
REMARK INTER:                  -8.448
REMARK INTRA:                  -0.391
REMARK UNBOUND:                -0.307
REMARK SMILES O=C(/C=C/C=C/c1ccc2c(c1)OCO2)N1CCCCC1
REMARK SMILES IDX 3 1 4 2 2 3 1 4 16 5 17 6 21 7 18 8 20 9 19 10 5 11 6 12
REMARK SMILES IDX 7 13 12 14 8 15 11 16 9 17 13 18 10 19 14 20 15 21
REMARK H PARENT
REMARK Flexibility Score: inf
ROOT
ATOM      1  C   UNL     1      97.507  81.016  78.690  1.00  0.00     0.071 C 
ATOM      2  C   UNL     1      98.226  80.847  79.798  1.00  0.00     0.006 C 
ENDROOT
BRANCH   1   3
ATOM      3  C   UNL     1      98.130  80.665  77.398  1.00  0.00     0.246 C 
ATOM      4  O   UNL     1      98.808  79.637  77.354  1.00  0.00    -0.270 OA
ATOM      5  N   UNL     1      97.915  81.520  76.319  1.00  0.00    -0.339 N 
ATOM      6  C   UNL     1      98.525  81.201  75.025  1.00  0.00     0.120 C 
ATOM      7  C   UNL     1      97.152  82.777  76.345  1.00  0.00     0.120 C 
ATOM      8  C   UNL     1      97.489  81.194  73.907  1.00  0.00     0.022 C 
ATOM      9  C   UNL     1      96.102  82.810  75.234  1.00  0.00     0.022 C 
ATOM     10  C   UNL     1      96.716  82.508  73.870  1.00  0.00     0.004 C 
ENDBRANCH   1   3
BRANCH   2  11
ATOM     11  C   UNL     1      97.702  81.163  81.110  1.00  0.00     0.001 C 
ATOM     12  C   UNL     1      96.655  81.983  81.296  1.00  0.00     0.008 C 
BRANCH  12  13
ATOM     13  C   UNL     1      96.088  82.345  82.607  1.00  0.00    -0.022 A 
ATOM     14  C   UNL     1      96.032  83.682  82.973  1.00  0.00     0.058 A 
ATOM     15  C   UNL     1      95.622  81.330  83.446  1.00  0.00     0.012 A 
ATOM     16  C   UNL     1      95.492  83.971  84.209  1.00  0.00     0.166 A 
ATOM     17  C   UNL     1      95.080  81.651  84.693  1.00  0.00     0.051 A 
ATOM     18  O   UNL     1      95.351  85.213  84.748  1.00  0.00    -0.454 OA
ATOM     19  C   UNL     1      95.029  82.983  85.047  1.00  0.00     0.165 A 
ATOM     20  C   UNL     1      94.746  84.895  86.018  1.00  0.00     0.468 C 
ATOM     21  O   UNL     1      94.539  83.481  86.214  1.00  0.00    -0.454 OA
ENDBRANCH  12  13
ENDBRANCH   2  11
TORSDOF 3
ENDMDL
MODEL 3
REMARK VINA RESULT:    -7.030      1.478      2.379
REMARK INTER + INTRA:          -8.571
REMARK INTER:                  -8.235
REMARK INTRA:                  -0.336
REMARK UNBOUND:                -0.307
REMARK SMILES O=C(/C=C/C=C/c1ccc2c(c1)OCO2)N1CCCCC1
REMARK SMILES IDX 3 1 4 2 2 3 1 4 16 5 17 6 21 7 18 8 20 9 19 10 5 11 6 12
REMARK SMILES IDX 7 13 12 14 8 15 11 16 9 17 13 18 10 19 14 20 15 21
REMARK H PARENT
REMARK Flexibility Score: inf
ROOT
ATOM      1  C   UNL     1      95.376  81.815  83.517  1.00  0.00     0.071 C 
ATOM      2  C   UNL     1      96.402  82.464  82.972  1.00  0.00     0.006 C 
ENDROOT
BRANCH   1   3
ATOM      3  C   UNL     1      95.333  81.694  84.988  1.00  0.00     0.246 C 
ATOM      4  O   UNL     1      96.388  81.855  85.603  1.00  0.00    -0.270 OA
ATOM      5  N   UNL     1      94.105  81.401  85.580  1.00  0.00    -0.339 N 
ATOM      6  C   UNL     1      94.032  81.270  87.039  1.00  0.00     0.120 C 
ATOM      7  C   UNL     1      92.837  81.159  84.877  1.00  0.00     0.120 C 
ATOM      8  C   UNL     1      92.943  82.162  87.625  1.00  0.00     0.022 C 
ATOM      9  C   UNL     1      91.716  82.033  85.440  1.00  0.00     0.022 C 
ATOM     10  C   UNL     1      91.599  81.894  86.955  1.00  0.00     0.004 C 
ENDBRANCH   1   3
BRANCH   2  11
ATOM     11  C   UNL     1      96.532  82.634  81.540  1.00  0.00     0.001 C 
ATOM     12  C   UNL     1      97.034  81.682  80.738  1.00  0.00     0.008 C 
BRANCH  12  13
ATOM     13  C   UNL     1      97.195  81.804  79.279  1.00  0.00    -0.022 A 
ATOM     14  C   UNL     1      96.213  82.452  78.543  1.00  0.00     0.058 A 
ATOM     15  C   UNL     1      98.335  81.265  78.676  1.00  0.00     0.012 A 
ATOM     16  C   UNL     1      96.409  82.543  77.180  1.00  0.00     0.166 A 
ATOM     17  C   UNL     1      98.508  81.371  77.294  1.00  0.00     0.051 A 
ATOM     18  O   UNL     1      95.566  83.134  76.290  1.00  0.00    -0.454 OA
ATOM     19  C   UNL     1      97.526  82.017  76.572  1.00  0.00     0.165 A 
ATOM     20  C   UNL     1      96.278  82.922  75.054  1.00  0.00     0.468 C 
ATOM     21  O   UNL     1      97.523  82.213  75.225  1.00  0.00    -0.454 OA
ENDBRANCH  12  13
ENDBRANCH   2  11
TORSDOF 3
ENDMDL
MODEL 4
REMARK VINA RESULT:    -6.908      3.054      9.641
REMARK INTER + INTRA:          -8.427
REMARK INTER:                  -8.116
REMARK INTRA:                  -0.311
REMARK UNBOUND:                -0.307
REMARK SMILES O=C(/C=C/C=C/c1ccc2c(c1)OCO2)N1CCCCC1
REMARK SMILES IDX 3 1 4 2 2 3 1 4 16 5 17 6 21 7 18 8 20 9 19 10 5 11 6 12
REMARK SMILES IDX 7 13 12 14 8 15 11 16 9 17 13 18 10 19 14 20 15 21
REMARK H PARENT
REMARK Flexibility Score: inf
ROOT
ATOM      1  C   UNL     1      98.321  82.044  76.528  1.00  0.00     0.071 C 
ATOM      2  C   UNL     1      97.336  81.954  77.420  1.00  0.00     0.006 C 
ENDROOT
BRANCH   1   3
ATOM      3  C   UNL     1      97.966  82.377  75.134  1.00  0.00     0.246 C 
ATOM      4  O   UNL     1      96.771  82.386  74.837  1.00  0.00    -0.270 OA
ATOM      5  N   UNL     1      99.006  82.653  74.248  1.00  0.00    -0.339 N 
ATOM      6  C   UNL     1      98.686  82.982  72.855  1.00  0.00     0.120 C 
ATOM      7  C   UNL     1     100.444  82.609  74.554  1.00  0.00     0.120 C 
ATOM      8  C   UNL     1      99.342  84.290  72.427  1.00  0.00     0.022 C 
ATOM      9  C   UNL     1     101.140  83.903  74.134  1.00  0.00     0.022 C 
ATOM     10  C   UNL     1     100.846  84.255  72.679  1.00  0.00     0.004 C 
ENDBRANCH   1   3
BRANCH   2  11
ATOM     11  C   UNL     1      97.584  81.632  78.809  1.00  0.00     0.001 C 
ATOM     12  C   UNL     1      96.830  82.113  79.812  1.00  0.00     0.008 C 
BRANCH  12  13
ATOM     13  C   UNL     1      97.042  81.825  81.240  1.00  0.00    -0.022 A 
ATOM     14  C   UNL     1      97.681  80.647  81.605  1.00  0.00     0.058 A 
ATOM     15  C   UNL     1      96.595  82.746  82.191  1.00  0.00     0.012 A 
ATOM     16  C   UNL     1      97.857  80.422  82.955  1.00  0.00     0.166 A 
ATOM     17  C   UNL     1      96.786  82.493  83.551  1.00  0.00     0.051 A 
ATOM     18  O   UNL     1      98.455  79.333  83.511  1.00  0.00    -0.454 OA
ATOM     19  C   UNL     1      97.421  81.320  83.902  1.00  0.00     0.165 A 
ATOM     20  C   UNL     1      98.347  79.647  84.914  1.00  0.00     0.468 C 
ATOM     21  O   UNL     1      97.692  80.907  85.170  1.00  0.00    -0.454 OA
ENDBRANCH  12  13
ENDBRANCH   2  11
TORSDOF 3
ENDMDL
MODEL 5
REMARK VINA RESULT:    -6.764     24.522     26.679
REMARK INTER + INTRA:          -8.257
REMARK INTER:                  -7.886
REMARK INTRA:                  -0.371
REMARK UNBOUND:                -0.307
REMARK SMILES O=C(/C=C/C=C/c1ccc2c(c1)OCO2)N1CCCCC1
REMARK SMILES IDX 3 1 4 2 2 3 1 4 16 5 17 6 21 7 18 8 20 9 19 10 5 11 6 12
REMARK SMILES IDX 7 13 12 14 8 15 11 16 9 17 13 18 10 19 14 20 15 21
REMARK H PARENT
REMARK Flexibility Score: inf
ROOT
ATOM      1  C   UNL     1      76.331  85.809  66.388  1.00  0.00     0.071 C 
ATOM      2  C   UNL     1      77.221  86.448  67.144  1.00  0.00     0.006 C 
ENDROOT
BRANCH   1   3
ATOM      3  C   UNL     1      76.615  84.410  66.013  1.00  0.00     0.246 C 
ATOM      4  O   UNL     1      77.728  83.961  66.290  1.00  0.00    -0.270 OA
ATOM      5  N   UNL     1      75.609  83.693  65.366  1.00  0.00    -0.339 N 
ATOM      6  C   UNL     1      75.864  82.303  64.976  1.00  0.00     0.120 C 
ATOM      7  C   UNL     1      74.288  84.208  64.979  1.00  0.00     0.120 C 
ATOM      8  C   UNL     1      74.777  81.370  65.499  1.00  0.00     0.022 C 
ATOM      9  C   UNL     1      73.169  83.296  65.482  1.00  0.00     0.022 C 
ATOM     10  C   UNL     1      73.394  81.845  65.066  1.00  0.00     0.004 C 
ENDBRANCH   1   3
BRANCH   2  11
ATOM     11  C   UNL     1      77.032  87.821  67.563  1.00  0.00     0.001 C 
ATOM     12  C   UNL     1      75.827  88.415  67.581  1.00  0.00     0.008 C 
BRANCH  12  13
ATOM     13  C   UNL     1      75.579  89.808  67.989  1.00  0.00    -0.022 A 
ATOM     14  C   UNL     1      75.652  90.814  67.036  1.00  0.00     0.058 A 
ATOM     15  C   UNL     1      75.277  90.078  69.326  1.00  0.00     0.012 A 
ATOM     16  C   UNL     1      75.411  92.103  67.466  1.00  0.00     0.166 A 
ATOM     17  C   UNL     1      75.038  91.393  69.735  1.00  0.00     0.051 A 
ATOM     18  O   UNL     1      75.436  93.221  66.690  1.00  0.00    -0.454 OA
ATOM     19  C   UNL     1      75.112  92.385  68.779  1.00  0.00     0.165 A 
ATOM     20  C   UNL     1      75.119  94.238  67.662  1.00  0.00     0.468 C 
ATOM     21  O   UNL     1      74.912  93.714  68.990  1.00  0.00    -0.454 OA
ENDBRANCH  12  13
ENDBRANCH   2  11
TORSDOF 3
ENDMDL
MODEL 6
REMARK VINA RESULT:    -6.447      2.399      3.383
REMARK INTER + INTRA:          -7.885
REMARK INTER:                  -7.471
REMARK INTRA:                  -0.414
REMARK UNBOUND:                -0.307
REMARK SMILES O=C(/C=C/C=C/c1ccc2c(c1)OCO2)N1CCCCC1
REMARK SMILES IDX 3 1 4 2 2 3 1 4 16 5 17 6 21 7 18 8 20 9 19 10 5 11 6 12
REMARK SMILES IDX 7 13 12 14 8 15 11 16 9 17 13 18 10 19 14 20 15 21
REMARK H PARENT
REMARK Flexibility Score: inf
ROOT
ATOM      1  C   UNL     1      95.954  82.349  84.398  1.00  0.00     0.071 C 
ATOM      2  C   UNL     1      95.824  83.180  83.366  1.00  0.00     0.006 C 
ENDROOT
BRANCH   1   3
ATOM      3  C   UNL     1      95.237  82.675  85.647  1.00  0.00     0.246 C 
ATOM      4  O   UNL     1      95.756  83.497  86.403  1.00  0.00    -0.270 OA
ATOM      5  N   UNL     1      94.027  82.028  85.889  1.00  0.00    -0.339 N 
ATOM      6  C   UNL     1      93.294  82.327  87.124  1.00  0.00     0.120 C 
ATOM      7  C   UNL     1      93.399  81.010  85.034  1.00  0.00     0.120 C 
ATOM      8  C   UNL     1      91.850  82.721  86.833  1.00  0.00     0.022 C 
ATOM      9  C   UNL     1      91.946  81.368  84.722  1.00  0.00     0.022 C 
ATOM     10  C   UNL     1      91.152  81.656  85.993  1.00  0.00     0.004 C 
ENDBRANCH   1   3
BRANCH   2  11
ATOM     11  C   UNL     1      96.487  82.945  82.101  1.00  0.00     0.001 C 
ATOM     12  C   UNL     1      96.721  81.713  81.621  1.00  0.00     0.008 C 
BRANCH  12  13
ATOM     13  C   UNL     1      97.398  81.419  80.346  1.00  0.00    -0.022 A 
ATOM     14  C   UNL     1      98.479  80.547  80.341  1.00  0.00     0.058 A 
ATOM     15  C   UNL     1      96.934  82.025  79.176  1.00  0.00     0.012 A 
ATOM     16  C   UNL     1      99.079  80.302  79.123  1.00  0.00     0.166 A 
ATOM     17  C   UNL     1      97.561  81.759  77.957  1.00  0.00     0.051 A 
ATOM     18  O   UNL     1     100.146  79.484  78.910  1.00  0.00    -0.454 OA
ATOM     19  C   UNL     1      98.633  80.891  77.963  1.00  0.00     0.165 A 
ATOM     20  C   UNL     1     100.321  79.625  77.486  1.00  0.00     0.468 C 
ATOM     21  O   UNL     1      99.364  80.517  76.878  1.00  0.00    -0.454 OA
ENDBRANCH  12  13
ENDBRANCH   2  11
TORSDOF 3
ENDMDL
MODEL 7
REMARK VINA RESULT:    -6.290     24.148     26.084
REMARK INTER + INTRA:          -7.701
REMARK INTER:                  -7.554
REMARK INTRA:                  -0.146
REMARK UNBOUND:                -0.307
REMARK SMILES O=C(/C=C/C=C/c1ccc2c(c1)OCO2)N1CCCCC1
REMARK SMILES IDX 3 1 4 2 2 3 1 4 16 5 17 6 21 7 18 8 20 9 19 10 5 11 6 12
REMARK SMILES IDX 7 13 12 14 8 15 11 16 9 17 13 18 10 19 14 20 15 21
REMARK H PARENT
REMARK Flexibility Score: inf
ROOT
ATOM      1  C   UNL     1      74.458  91.023  69.675  1.00  0.00     0.071 C 
ATOM      2  C   UNL     1      75.574  90.493  69.178  1.00  0.00     0.006 C 
ENDROOT
BRANCH   1   3
ATOM      3  C   UNL     1      74.536  92.371  70.272  1.00  0.00     0.246 C 
ATOM      4  O   UNL     1      74.435  92.458  71.497  1.00  0.00    -0.270 OA
ATOM      5  N   UNL     1      74.712  93.454  69.412  1.00  0.00    -0.339 N 
ATOM      6  C   UNL     1      74.787  94.805  69.975  1.00  0.00     0.120 C 
ATOM      7  C   UNL     1      74.792  93.394  67.945  1.00  0.00     0.120 C 
ATOM      8  C   UNL     1      76.037  95.539  69.500  1.00  0.00     0.022 C 
ATOM      9  C   UNL     1      76.032  94.123  67.428  1.00  0.00     0.022 C 
ATOM     10  C   UNL     1      76.121  95.544  67.976  1.00  0.00     0.004 C 
ENDBRANCH   1   3
BRANCH   2  11
ATOM     11  C   UNL     1      75.598  89.179  68.573  1.00  0.00     0.001 C 
ATOM     12  C   UNL     1      76.720  88.623  68.086  1.00  0.00     0.008 C 
BRANCH  12  13
ATOM     13  C   UNL     1      76.799  87.295  67.455  1.00  0.00    -0.022 A 
ATOM     14  C   UNL     1      76.366  87.143  66.145  1.00  0.00     0.058 A 
ATOM     15  C   UNL     1      77.309  86.224  68.192  1.00  0.00     0.012 A 
ATOM     16  C   UNL     1      76.461  85.881  65.596  1.00  0.00     0.166 A 
ATOM     17  C   UNL     1      77.393  84.956  67.612  1.00  0.00     0.051 A 
ATOM     18  O   UNL     1      76.090  85.528  64.335  1.00  0.00    -0.454 OA
ATOM     19  C   UNL     1      76.961  84.816  66.310  1.00  0.00     0.165 A 
ATOM     20  C   UNL     1      76.412  84.123  64.335  1.00  0.00     0.468 C 
ATOM     21  O   UNL     1      76.966  83.664  65.586  1.00  0.00    -0.454 OA
ENDBRANCH  12  13
ENDBRANCH   2  11
TORSDOF 3
ENDMDL
MODEL 8
REMARK VINA RESULT:    -6.194     23.299     25.556
REMARK INTER + INTRA:          -7.588
REMARK INTER:                  -7.156
REMARK INTRA:                  -0.432
REMARK UNBOUND:                -0.307
REMARK SMILES O=C(/C=C/C=C/c1ccc2c(c1)OCO2)N1CCCCC1
REMARK SMILES IDX 3 1 4 2 2 3 1 4 16 5 17 6 21 7 18 8 20 9 19 10 5 11 6 12
REMARK SMILES IDX 7 13 12 14 8 15 11 16 9 17 13 18 10 19 14 20 15 21
REMARK H PARENT
REMARK Flexibility Score: inf
ROOT
ATOM      1  C   UNL     1      76.326  94.483  79.142  1.00  0.00     0.071 C 
ATOM      2  C   UNL     1      77.033  93.650  79.904  1.00  0.00     0.006 C 
ENDROOT
BRANCH   1   3
ATOM      3  C   UNL     1      77.023  95.174  78.038  1.00  0.00     0.246 C 
ATOM      4  O   UNL     1      77.861  96.024  78.339  1.00  0.00    -0.270 OA
ATOM      5  N   UNL     1      76.681  94.823  76.733  1.00  0.00    -0.339 N 
ATOM      6  C   UNL     1      77.352  95.496  75.617  1.00  0.00     0.120 C 
ATOM      7  C   UNL     1      75.655  93.847  76.336  1.00  0.00     0.120 C 
ATOM      8  C   UNL     1      77.952  94.491  74.640  1.00  0.00     0.022 C 
ATOM      9  C   UNL     1      76.218  92.822  75.352  1.00  0.00     0.022 C 
ATOM     10  C   UNL     1      76.898  93.496  74.163  1.00  0.00     0.004 C 
ENDBRANCH   1   3
BRANCH   2  11
ATOM     11  C   UNL     1      76.439  92.928  81.009  1.00  0.00     0.001 C 
ATOM     12  C   UNL     1      75.204  92.402  80.954  1.00  0.00     0.008 C 
BRANCH  12  13
ATOM     13  C   UNL     1      74.550  91.666  82.049  1.00  0.00    -0.022 A 
ATOM     14  C   UNL     1      73.318  91.068  81.820  1.00  0.00     0.058 A 
ATOM     15  C   UNL     1      75.188  91.590  83.290  1.00  0.00     0.012 A 
ATOM     16  C   UNL     1      72.746  90.390  82.876  1.00  0.00     0.166 A 
ATOM     17  C   UNL     1      74.585  90.897  84.342  1.00  0.00     0.051 A 
ATOM     18  O   UNL     1      71.549  89.742  82.853  1.00  0.00    -0.454 OA
ATOM     19  C   UNL     1      73.362  90.306  84.103  1.00  0.00     0.165 A 
ATOM     20  C   UNL     1      71.481  89.241  84.203  1.00  0.00     0.468 C 
ATOM     21  O   UNL     1      72.628  89.595  85.003  1.00  0.00    -0.454 OA
ENDBRANCH  12  13
ENDBRANCH   2  11
TORSDOF 3
ENDMDL
MODEL 9
REMARK VINA RESULT:    -6.133     23.431     26.480
REMARK INTER + INTRA:          -7.516
REMARK INTER:                  -7.141
REMARK INTRA:                  -0.376
REMARK UNBOUND:                -0.307
REMARK SMILES O=C(/C=C/C=C/c1ccc2c(c1)OCO2)N1CCCCC1
REMARK SMILES IDX 3 1 4 2 2 3 1 4 16 5 17 6 21 7 18 8 20 9 19 10 5 11 6 12
REMARK SMILES IDX 7 13 12 14 8 15 11 16 9 17 13 18 10 19 14 20 15 21
REMARK H PARENT
REMARK Flexibility Score: inf
ROOT
ATOM      1  C   UNL     1      88.111  99.804  67.339  1.00  0.00     0.071 C 
ATOM      2  C   UNL     1      88.162 100.926  66.623  1.00  0.00     0.006 C 
ENDROOT
BRANCH   1   3
ATOM      3  C   UNL     1      89.378  99.100  67.618  1.00  0.00     0.246 C 
ATOM      4  O   UNL     1      89.932  98.531  66.676  1.00  0.00    -0.270 OA
ATOM      5  N   UNL     1      89.860  99.122  68.926  1.00  0.00    -0.339 N 
ATOM      6  C   UNL     1      91.113  98.427  69.234  1.00  0.00     0.120 C 
ATOM      7  C   UNL     1      89.205  99.752  70.082  1.00  0.00     0.120 C 
ATOM      8  C   UNL     1      92.100  99.348  69.944  1.00  0.00     0.022 C 
ATOM      9  C   UNL     1      90.166 100.681  70.824  1.00  0.00     0.022 C 
ATOM     10  C   UNL     1      91.470  99.975  71.183  1.00  0.00     0.004 C 
ENDBRANCH   1   3
BRANCH   2  11
ATOM     11  C   UNL     1      86.973 101.686  66.299  1.00  0.00     0.001 C 
ATOM     12  C   UNL     1      86.973 103.025  66.196  1.00  0.00     0.008 C 
BRANCH  12  13
ATOM     13  C   UNL     1      85.793 103.847  65.877  1.00  0.00    -0.022 A 
ATOM     14  C   UNL     1      84.608 103.218  65.520  1.00  0.00     0.058 A 
ATOM     15  C   UNL     1      85.899 105.239  65.941  1.00  0.00     0.012 A 
ATOM     16  C   UNL     1      83.531 104.030  65.231  1.00  0.00     0.166 A 
ATOM     17  C   UNL     1      84.793 106.037  65.643  1.00  0.00     0.051 A 
ATOM     18  O   UNL     1      82.290 103.609  64.862  1.00  0.00    -0.454 OA
ATOM     19  C   UNL     1      83.620 105.402  65.290  1.00  0.00     0.165 A 
ATOM     20  C   UNL     1      81.609 104.869  64.697  1.00  0.00     0.468 C 
ATOM     21  O   UNL     1      82.447 106.011  64.967  1.00  0.00    -0.454 OA
ENDBRANCH  12  13
ENDBRANCH   2  11
TORSDOF 3
ENDMDL
MODEL 10
REMARK VINA RESULT:    -6.011     18.419     19.749
REMARK INTER + INTRA:          -7.372
REMARK INTER:                  -7.032
REMARK INTRA:                  -0.341
REMARK UNBOUND:                -0.307
REMARK SMILES O=C(/C=C/C=C/c1ccc2c(c1)OCO2)N1CCCCC1
REMARK SMILES IDX 3 1 4 2 2 3 1 4 16 5 17 6 21 7 18 8 20 9 19 10 5 11 6 12
REMARK SMILES IDX 7 13 12 14 8 15 11 16 9 17 13 18 10 19 14 20 15 21
REMARK H PARENT
REMARK Flexibility Score: inf
ROOT
ATOM      1  C   UNL     1      85.261  68.138  71.983  1.00  0.00     0.071 C 
ATOM      2  C   UNL     1      85.576  69.431  71.931  1.00  0.00     0.006 C 
ENDROOT
BRANCH   1   3
ATOM      3  C   UNL     1      84.112  67.736  72.819  1.00  0.00     0.246 C 
ATOM      4  O   UNL     1      83.949  68.329  73.886  1.00  0.00    -0.270 OA
ATOM      5  N   UNL     1      83.293  66.711  72.348  1.00  0.00    -0.339 N 
ATOM      6  C   UNL     1      82.148  66.286  73.158  1.00  0.00     0.120 C 
ATOM      7  C   UNL     1      83.482  65.950  71.103  1.00  0.00     0.120 C 
ATOM      8  C   UNL     1      80.856  66.301  72.348  1.00  0.00     0.022 C 
ATOM      9  C   UNL     1      82.205  65.939  70.263  1.00  0.00     0.022 C 
ATOM     10  C   UNL     1      80.999  65.473  71.075  1.00  0.00     0.004 C 
ENDBRANCH   1   3
BRANCH   2  11
ATOM     11  C   UNL     1      86.685  69.921  71.140  1.00  0.00     0.001 C 
ATOM     12  C   UNL     1      86.592  71.006  70.354  1.00  0.00     0.008 C 
BRANCH  12  13
ATOM     13  C   UNL     1      87.684  71.543  69.524  1.00  0.00    -0.022 A 
ATOM     14  C   UNL     1      87.438  71.833  68.189  1.00  0.00     0.058 A 
ATOM     15  C   UNL     1      88.939  71.745  70.104  1.00  0.00     0.012 A 
ATOM     16  C   UNL     1      88.492  72.334  67.452  1.00  0.00     0.166 A 
ATOM     17  C   UNL     1      89.989  72.253  69.334  1.00  0.00     0.051 A 
ATOM     18  O   UNL     1      88.453  72.677  66.136  1.00  0.00    -0.454 OA
ATOM     19  C   UNL     1      89.733  72.538  68.010  1.00  0.00     0.165 A 
ATOM     20  C   UNL     1      89.810  73.121  65.927  1.00  0.00     0.468 C 
ATOM     21  O   UNL     1      90.628  73.036  67.112  1.00  0.00    -0.454 OA
ENDBRANCH  12  13
ENDBRANCH   2  11
TORSDOF 3
ENDMDL
