MODEL 1
REMARK VINA RESULT:    -7.672      0.000      0.000
REMARK INTER + INTRA:         -13.517
REMARK INTER:                 -13.054
REMARK INTRA:                  -0.464
REMARK UNBOUND:                -0.464
REMARK SMILES C=C(C)[C@]12C[C@@H](C)[C@@]34O[C@](Cc5ccccc5)(O[C@@H]1[C@@H]3C=C(COC(=O)Cc1ccc(O)cc1)C[C@]1(O)C(=O)C(C)=C[C@@H]41)O2
REMARK SMILES IDX 23 1 22 2 21 3 20 4 9 5 8 6 10 7 6 8 18 10 44 11 19 12 5 13
REMARK SMILES IDX 7 14 4 15 11 16 12 17 13 18 17 19 14 20 16 21 15 22 2 23
REMARK SMILES IDX 3 24 1 25 35 26 36 27 43 28 38 29 42 30 39 32 40 33 41 34
REMARK SMILES IDX 37 35 24 37 25 38 26 39 27 40 28 41 29 42 34 43 30 44 33 45
REMARK SMILES IDX 31 46 32 47
REMARK H PARENT 37 36 32 48
REMARK Flexibility Score: 90.00
ROOT
ATOM      1  C   UNL     1      94.527  98.618  74.507  1.00  0.00     0.264 C 
ENDROOT
BRANCH   1   2
ATOM      2  C   UNL     1      93.978  99.954  74.060  1.00  0.00    -0.033 C 
ATOM      3  C   UNL     1      93.433 100.064  72.831  1.00  0.00    -0.015 C 
BRANCH   3   4
ATOM      4  C   UNL     1      92.888 101.295  72.124  1.00  0.00     0.078 C 
ATOM      5  O   UNL     1      90.463 101.385  72.602  1.00  0.00    -0.319 OA
ATOM      6  C   UNL     1      91.722 102.097  72.811  1.00  0.00     0.095 CG0
ATOM      7  C   UNL     1      90.269 100.854  71.277  1.00  0.00     0.289 C 
ATOM      8  C   UNL     1      91.642 103.518  72.114  1.00  0.00     0.023 C 
ATOM      9  G   UNL     1      91.902 102.121  74.357  1.00  0.00     0.000 G0
ATOM     10  O   UNL     1      91.323  99.967  70.915  1.00  0.00    -0.320 OA
ATOM     11  O   UNL     1      90.264 101.874  70.280  1.00  0.00    -0.313 OA
ATOM     12  C   UNL     1      92.387 100.911  70.710  1.00  0.00     0.170 C 
ATOM     13  C   UNL     1      92.028 103.437  70.605  1.00  0.00     0.049 C 
ATOM     14  C   UNL     1      90.297 104.250  72.257  1.00  0.00     0.011 C 
ATOM     15  C   UNL     1      91.664 102.081  69.999  1.00  0.00     0.122 C 
BRANCH   7  16
ATOM     16  C   UNL     1      88.945 100.116  71.250  1.00  0.00     0.135 C 
BRANCH  16  17
ATOM     17  C   UNL     1      88.908  99.060  70.174  1.00  0.00    -0.040 A 
ATOM     18  C   UNL     1      88.438  99.377  68.900  1.00  0.00     0.004 A 
ATOM     19  C   UNL     1      89.344  97.765  70.455  1.00  0.00     0.004 A 
ATOM     20  C   UNL     1      88.404  98.399  67.905  1.00  0.00     0.000 A 
ATOM     21  C   UNL     1      89.309  96.787  69.460  1.00  0.00     0.000 A 
ATOM     22  C   UNL     1      88.839  97.105  68.186  1.00  0.00     0.000 A 
ENDBRANCH  16  17
ENDBRANCH   7  16
BRANCH  15  23
ATOM     23  C   UNL     1      91.858 102.043  68.518  1.00  0.00    -0.046 C 
ATOM     24  C   UNL     1      90.623 101.826  67.695  1.00  0.00     0.042 C 
ATOM     25  C   UNL     1      93.066 102.194  67.957  1.00  0.00     0.010 C 
ENDBRANCH  15  23
ENDBRANCH   3   4
BRANCH   2  26
ATOM     26  C   UNL     1      94.118 101.038  75.113  1.00  0.00     0.078 C 
BRANCH  26  27
ATOM     27  C   UNL     1      93.363 102.344  74.874  1.00  0.00     0.140 C 
ATOM     28  C   UNL     1      91.926 102.103  74.366  1.00  0.00     0.086 CG0
ATOM     29  C   UNL     1      93.129 103.120  76.153  1.00  0.00     0.190 C 
ATOM     30  C   UNL     1      91.097 103.033  75.207  1.00  0.00    -0.010 C 
ATOM     31  G   UNL     1      91.737 102.097  72.821  1.00  0.00     0.000 G0
ATOM     32  O   UNL     1      93.979 103.373  76.993  1.00  0.00    -0.291 OA
ATOM     33  C   UNL     1      91.736 103.598  76.235  1.00  0.00    -0.008 C 
ATOM     34  C   UNL     1      91.226 104.485  77.301  1.00  0.00     0.048 C 
BRANCH  27  35
ATOM     35  O   UNL     1      94.113 103.237  74.068  1.00  0.00    -0.381 OA
ATOM     36  H   UNL     1      94.994 103.342  74.466  1.00  0.00     0.212 HD
ENDBRANCH  27  35
ENDBRANCH  26  27
ENDBRANCH   2  26
ENDBRANCH   1   2
BRANCH   1  37
ATOM     37  O   UNL     1      94.131  98.374  75.840  1.00  0.00    -0.461 OA
BRANCH  37  38
ATOM     38  C   UNL     1      93.521  97.165  76.081  1.00  0.00     0.310 C 
ATOM     39  O   UNL     1      92.313  96.975  76.078  1.00  0.00    -0.252 OA
BRANCH  38  40
ATOM     40  C   UNL     1      94.572  96.114  76.346  1.00  0.00     0.158 C 
BRANCH  40  41
ATOM     41  C   UNL     1      94.685  95.750  77.804  1.00  0.00    -0.037 A 
ATOM     42  C   UNL     1      94.482  94.431  78.211  1.00  0.00     0.008 A 
ATOM     43  C   UNL     1      94.992  96.731  78.746  1.00  0.00     0.008 A 
ATOM     44  C   UNL     1      94.585  94.095  79.561  1.00  0.00     0.046 A 
ATOM     45  C   UNL     1      95.096  96.395  80.096  1.00  0.00     0.046 A 
ATOM     46  C   UNL     1      94.892  95.077  80.504  1.00  0.00     0.115 A 
BRANCH  46  47
ATOM     47  O   UNL     1      94.993  94.748  81.820  1.00  0.00    -0.508 OA
ATOM     48  H   UNL     1      94.781  95.531  82.358  1.00  0.00     0.293 HD
ENDBRANCH  46  47
ENDBRANCH  40  41
ENDBRANCH  38  40
ENDBRANCH  37  38
ENDBRANCH   1  37
TORSDOF 10
ENDMDL
MODEL 2
REMARK VINA RESULT:    -7.406     28.487     32.122
REMARK INTER + INTRA:         -13.065
REMARK INTER:                 -11.882
REMARK INTRA:                  -1.183
REMARK UNBOUND:                -0.464
REMARK SMILES C=C(C)[C@]12C[C@@H](C)[C@@]34O[C@](Cc5ccccc5)(O[C@@H]1[C@@H]3C=C(COC(=O)Cc1ccc(O)cc1)C[C@]1(O)C(=O)C(C)=C[C@@H]41)O2
REMARK SMILES IDX 23 1 22 2 21 3 20 4 9 5 8 6 10 7 6 8 18 10 44 11 19 12 5 13
REMARK SMILES IDX 7 14 4 15 11 16 12 17 13 18 17 19 14 20 16 21 15 22 2 23
REMARK SMILES IDX 3 24 1 25 35 26 36 27 43 28 38 29 42 30 39 32 40 33 41 34
REMARK SMILES IDX 37 35 24 37 25 38 26 39 27 40 28 41 29 42 34 43 30 44 33 45
REMARK SMILES IDX 31 46 32 47
REMARK H PARENT 37 36 32 48
REMARK Flexibility Score: 90.00
ROOT
ATOM      1  C   UNL     1      67.965  87.106  72.473  1.00  0.00     0.264 C 
ENDROOT
BRANCH   1   2
ATOM      2  C   UNL     1      67.478  85.803  71.883  1.00  0.00    -0.033 C 
ATOM      3  C   UNL     1      66.242  85.360  72.194  1.00  0.00    -0.015 C 
BRANCH   3   4
ATOM      4  C   UNL     1      65.554  84.063  71.799  1.00  0.00     0.078 C 
ATOM      5  O   UNL     1      64.243  84.535  69.757  1.00  0.00    -0.319 OA
ATOM      6  C   UNL     1      65.365  83.751  70.269  1.00  0.00     0.095 CG0
ATOM      7  C   UNL     1      63.086  84.587  70.615  1.00  0.00     0.289 C 
ATOM      8  C   UNL     1      65.033  82.208  70.132  1.00  0.00     0.023 C 
ATOM      9  G   UNL     1      66.591  84.247  69.448  1.00  0.00     0.000 G0
ATOM     10  O   UNL     1      63.417  85.109  71.898  1.00  0.00    -0.320 OA
ATOM     11  O   UNL     1      62.531  83.296  70.855  1.00  0.00    -0.313 OA
ATOM     12  C   UNL     1      64.147  83.998  72.441  1.00  0.00     0.170 C 
ATOM     13  C   UNL     1      64.213  81.688  71.352  1.00  0.00     0.049 C 
ATOM     14  C   UNL     1      64.323  81.798  68.830  1.00  0.00     0.011 C 
ATOM     15  C   UNL     1      63.325  82.783  71.945  1.00  0.00     0.122 C 
BRANCH   7  16
ATOM     16  C   UNL     1      62.045  85.469  69.954  1.00  0.00     0.135 C 
BRANCH  16  17
ATOM     17  C   UNL     1      60.759  85.513  70.741  1.00  0.00    -0.040 A 
ATOM     18  C   UNL     1      59.695  84.685  70.385  1.00  0.00     0.004 A 
ATOM     19  C   UNL     1      60.635  86.381  71.825  1.00  0.00     0.004 A 
ATOM     20  C   UNL     1      58.505  84.725  71.113  1.00  0.00     0.000 A 
ATOM     21  C   UNL     1      59.445  86.422  72.553  1.00  0.00     0.000 A 
ATOM     22  C   UNL     1      58.381  85.594  72.197  1.00  0.00     0.000 A 
ENDBRANCH  16  17
ENDBRANCH   7  16
BRANCH  15  23
ATOM     23  C   UNL     1      62.399  82.264  72.997  1.00  0.00    -0.046 C 
ATOM     24  C   UNL     1      61.277  83.174  73.399  1.00  0.00     0.042 C 
ATOM     25  C   UNL     1      62.562  81.053  73.551  1.00  0.00     0.010 C 
ENDBRANCH  15  23
ENDBRANCH   3   4
BRANCH   2  26
ATOM     26  C   UNL     1      68.496  85.145  70.970  1.00  0.00     0.078 C 
BRANCH  26  27
ATOM     27  C   UNL     1      68.011  83.980  70.109  1.00  0.00     0.140 C 
ATOM     28  C   UNL     1      66.635  84.261  69.469  1.00  0.00     0.086 CG0
ATOM     29  C   UNL     1      68.891  83.749  68.899  1.00  0.00     0.190 C 
ATOM     30  C   UNL     1      66.820  83.833  68.040  1.00  0.00    -0.010 C 
ATOM     31  G   UNL     1      65.395  83.757  70.263  1.00  0.00     0.000 G0
ATOM     32  O   UNL     1      70.110  83.670  68.915  1.00  0.00    -0.291 OA
ATOM     33  C   UNL     1      68.079  83.566  67.681  1.00  0.00    -0.008 C 
ATOM     34  C   UNL     1      68.635  83.203  66.361  1.00  0.00     0.048 C 
BRANCH  27  35
ATOM     35  O   UNL     1      68.075  82.752  70.814  1.00  0.00    -0.381 OA
ATOM     36  H   UNL     1      68.373  82.061  70.199  1.00  0.00     0.212 HD
ENDBRANCH  27  35
ENDBRANCH  26  27
ENDBRANCH   2  26
ENDBRANCH   1   2
BRANCH   1  37
ATOM     37  O   UNL     1      66.954  87.655  73.291  1.00  0.00    -0.461 OA
BRANCH  37  38
ATOM     38  C   UNL     1      67.209  87.673  74.643  1.00  0.00     0.310 C 
ATOM     39  O   UNL     1      67.330  88.684  75.321  1.00  0.00    -0.252 OA
BRANCH  38  40
ATOM     40  C   UNL     1      67.317  86.257  75.155  1.00  0.00     0.158 C 
BRANCH  40  41
ATOM     41  C   UNL     1      66.005  85.711  75.655  1.00  0.00    -0.037 A 
ATOM     42  C   UNL     1      64.826  86.427  75.444  1.00  0.00     0.008 A 
ATOM     43  C   UNL     1      65.967  84.491  76.329  1.00  0.00     0.008 A 
ATOM     44  C   UNL     1      63.611  85.923  75.909  1.00  0.00     0.046 A 
ATOM     45  C   UNL     1      64.752  83.986  76.793  1.00  0.00     0.046 A 
ATOM     46  C   UNL     1      63.574  84.702  76.583  1.00  0.00     0.115 A 
BRANCH  46  47
ATOM     47  O   UNL     1      62.389  84.210  77.036  1.00  0.00    -0.508 OA
ATOM     48  H   UNL     1      62.062  84.783  77.752  1.00  0.00     0.293 HD
ENDBRANCH  46  47
ENDBRANCH  40  41
ENDBRANCH  38  40
ENDBRANCH  37  38
ENDBRANCH   1  37
TORSDOF 10
ENDMDL
MODEL 3
REMARK VINA RESULT:    -7.365     20.246     23.398
REMARK INTER + INTRA:         -12.996
REMARK INTER:                 -12.296
REMARK INTRA:                  -0.700
REMARK UNBOUND:                -0.464
REMARK SMILES C=C(C)[C@]12C[C@@H](C)[C@@]34O[C@](Cc5ccccc5)(O[C@@H]1[C@@H]3C=C(COC(=O)Cc1ccc(O)cc1)C[C@]1(O)C(=O)C(C)=C[C@@H]41)O2
REMARK SMILES IDX 23 1 22 2 21 3 20 4 9 5 8 6 10 7 6 8 18 10 44 11 19 12 5 13
REMARK SMILES IDX 7 14 4 15 11 16 12 17 13 18 17 19 14 20 16 21 15 22 2 23
REMARK SMILES IDX 3 24 1 25 35 26 36 27 43 28 38 29 42 30 39 32 40 33 41 34
REMARK SMILES IDX 37 35 24 37 25 38 26 39 27 40 28 41 29 42 34 43 30 44 33 45
REMARK SMILES IDX 31 46 32 47
REMARK H PARENT 37 36 32 48
REMARK Flexibility Score: 90.00
ROOT
ATOM      1  C   UNL     1      95.833  85.938  87.418  1.00  0.00     0.264 C 
ENDROOT
BRANCH   1   2
ATOM      2  C   UNL     1      94.620  85.399  88.139  1.00  0.00    -0.033 C 
ATOM      3  C   UNL     1      93.909  84.400  87.576  1.00  0.00    -0.015 C 
BRANCH   3   4
ATOM      4  C   UNL     1      92.624  83.742  88.052  1.00  0.00     0.078 C 
ATOM      5  O   UNL     1      93.278  81.793  89.427  1.00  0.00    -0.319 OA
ATOM      6  C   UNL     1      92.603  83.088  89.483  1.00  0.00     0.095 CG0
ATOM      7  C   UNL     1      92.963  80.984  88.277  1.00  0.00     0.289 C 
ATOM      8  C   UNL     1      91.087  82.872  89.890  1.00  0.00     0.023 C 
ATOM      9  G   UNL     1      93.451  83.925  90.485  1.00  0.00     0.000 G0
ATOM     10  O   UNL     1      93.260  81.670  87.064  1.00  0.00    -0.320 OA
ATOM     11  O   UNL     1      91.576  80.660  88.206  1.00  0.00    -0.313 OA
ATOM     12  C   UNL     1      92.198  82.636  87.055  1.00  0.00     0.170 C 
ATOM     13  C   UNL     1      90.202  82.551  88.647  1.00  0.00     0.049 C 
ATOM     14  C   UNL     1      90.840  81.813  90.978  1.00  0.00     0.011 C 
ATOM     15  C   UNL     1      90.991  81.812  87.565  1.00  0.00     0.122 C 
BRANCH   7  16
ATOM     16  C   UNL     1      93.776  79.708  88.358  1.00  0.00     0.135 C 
BRANCH  16  17
ATOM     17  C   UNL     1      93.074  78.546  87.699  1.00  0.00    -0.040 A 
ATOM     18  C   UNL     1      92.256  77.707  88.453  1.00  0.00     0.004 A 
ATOM     19  C   UNL     1      93.245  78.313  86.334  1.00  0.00     0.004 A 
ATOM     20  C   UNL     1      91.606  76.633  87.843  1.00  0.00     0.000 A 
ATOM     21  C   UNL     1      92.595  77.240  85.724  1.00  0.00     0.000 A 
ATOM     22  C   UNL     1      91.777  76.400  86.479  1.00  0.00     0.000 A 
ENDBRANCH  16  17
ENDBRANCH   7  16
BRANCH  15  23
ATOM     23  C   UNL     1      90.122  81.336  86.446  1.00  0.00    -0.046 C 
ATOM     24  C   UNL     1      88.878  82.133  86.189  1.00  0.00     0.042 C 
ATOM     25  C   UNL     1      90.437  80.258  85.713  1.00  0.00     0.010 C 
ENDBRANCH  15  23
ENDBRANCH   3   4
BRANCH   2  26
ATOM     26  C   UNL     1      94.360  86.086  89.466  1.00  0.00     0.078 C 
BRANCH  26  27
ATOM     27  C   UNL     1      93.290  85.477  90.370  1.00  0.00     0.140 C 
ATOM     28  C   UNL     1      93.441  83.948  90.504  1.00  0.00     0.086 CG0
ATOM     29  C   UNL     1      93.411  85.942  91.806  1.00  0.00     0.190 C 
ATOM     30  C   UNL     1      93.291  83.709  91.981  1.00  0.00    -0.010 C 
ATOM     31  G   UNL     1      92.614  83.088  89.504  1.00  0.00     0.000 G0
ATOM     32  O   UNL     1      93.534  87.104  92.166  1.00  0.00    -0.291 OA
ATOM     33  C   UNL     1      93.300  84.808  92.742  1.00  0.00    -0.008 C 
ATOM     34  C   UNL     1      93.258  84.947  94.212  1.00  0.00     0.048 C 
BRANCH  27  35
ATOM     35  O   UNL     1      91.990  85.894  89.988  1.00  0.00    -0.381 OA
ATOM     36  H   UNL     1      91.486  86.102  90.793  1.00  0.00     0.212 HD
ENDBRANCH  27  35
ENDBRANCH  26  27
ENDBRANCH   2  26
ENDBRANCH   1   2
BRANCH   1  37
ATOM     37  O   UNL     1      96.507  84.875  86.778  1.00  0.00    -0.461 OA
BRANCH  37  38
ATOM     38  C   UNL     1      96.891  85.096  85.476  1.00  0.00     0.310 C 
ATOM     39  O   UNL     1      97.436  86.112  85.066  1.00  0.00    -0.252 OA
BRANCH  38  40
ATOM     40  C   UNL     1      96.536  83.893  84.635  1.00  0.00     0.158 C 
BRANCH  40  41
ATOM     41  C   UNL     1      97.741  83.229  84.021  1.00  0.00    -0.037 A 
ATOM     42  C   UNL     1      97.884  83.188  82.634  1.00  0.00     0.008 A 
ATOM     43  C   UNL     1      98.714  82.655  84.839  1.00  0.00     0.008 A 
ATOM     44  C   UNL     1      99.000  82.572  82.065  1.00  0.00     0.046 A 
ATOM     45  C   UNL     1      99.830  82.040  84.271  1.00  0.00     0.046 A 
ATOM     46  C   UNL     1      99.973  81.998  82.884  1.00  0.00     0.115 A 
BRANCH  46  47
ATOM     47  O   UNL     1     101.060  81.397  82.329  1.00  0.00    -0.508 OA
ATOM     48  H   UNL     1     101.325  81.895  81.536  1.00  0.00     0.293 HD
ENDBRANCH  46  47
ENDBRANCH  40  41
ENDBRANCH  38  40
ENDBRANCH  37  38
ENDBRANCH   1  37
TORSDOF 10
ENDMDL
MODEL 4
REMARK VINA RESULT:    -7.165     30.352     33.281
REMARK INTER + INTRA:         -12.655
REMARK INTER:                 -10.470
REMARK INTRA:                  -2.185
REMARK UNBOUND:                -0.464
REMARK SMILES C=C(C)[C@]12C[C@@H](C)[C@@]34O[C@](Cc5ccccc5)(O[C@@H]1[C@@H]3C=C(COC(=O)Cc1ccc(O)cc1)C[C@]1(O)C(=O)C(C)=C[C@@H]41)O2
REMARK SMILES IDX 23 1 22 2 21 3 20 4 9 5 8 6 10 7 6 8 18 10 44 11 19 12 5 13
REMARK SMILES IDX 7 14 4 15 11 16 12 17 13 18 17 19 14 20 16 21 15 22 2 23
REMARK SMILES IDX 3 24 1 25 35 26 36 27 43 28 38 29 42 30 39 32 40 33 41 34
REMARK SMILES IDX 37 35 24 37 25 38 26 39 27 40 28 41 29 42 34 43 30 44 33 45
REMARK SMILES IDX 31 46 32 47
REMARK H PARENT 37 36 32 48
REMARK Flexibility Score: 90.00
ROOT
ATOM      1  C   UNL     1      63.778  88.836  70.322  1.00  0.00     0.264 C 
ENDROOT
BRANCH   1   2
ATOM      2  C   UNL     1      64.241  87.851  71.371  1.00  0.00    -0.033 C 
ATOM      3  C   UNL     1      63.681  87.883  72.598  1.00  0.00    -0.015 C 
BRANCH   3   4
ATOM      4  C   UNL     1      64.017  87.064  73.834  1.00  0.00     0.078 C 
ATOM      5  O   UNL     1      62.518  85.097  73.824  1.00  0.00    -0.319 OA
ATOM      6  C   UNL     1      63.922  85.496  73.741  1.00  0.00     0.095 CG0
ATOM      7  C   UNL     1      61.737  85.795  74.814  1.00  0.00     0.289 C 
ATOM      8  C   UNL     1      64.711  84.894  74.976  1.00  0.00     0.023 C 
ATOM      9  G   UNL     1      64.385  84.995  72.343  1.00  0.00     0.000 G0
ATOM     10  O   UNL     1      61.766  87.203  74.598  1.00  0.00    -0.320 OA
ATOM     11  O   UNL     1      62.236  85.598  76.135  1.00  0.00    -0.313 OA
ATOM     12  C   UNL     1      63.110  87.493  75.012  1.00  0.00     0.170 C 
ATOM     13  C   UNL     1      64.604  85.816  76.229  1.00  0.00     0.049 C 
ATOM     14  C   UNL     1      64.329  83.456  75.368  1.00  0.00     0.011 C 
ATOM     15  C   UNL     1      63.281  86.585  76.254  1.00  0.00     0.122 C 
BRANCH   7  16
ATOM     16  C   UNL     1      60.310  85.292  74.734  1.00  0.00     0.135 C 
BRANCH  16  17
ATOM     17  C   UNL     1      59.720  85.479  73.358  1.00  0.00    -0.040 A 
ATOM     18  C   UNL     1      59.399  86.757  72.904  1.00  0.00     0.004 A 
ATOM     19  C   UNL     1      59.497  84.371  72.540  1.00  0.00     0.004 A 
ATOM     20  C   UNL     1      58.854  86.930  71.631  1.00  0.00     0.000 A 
ATOM     21  C   UNL     1      58.952  84.544  71.267  1.00  0.00     0.000 A 
ATOM     22  C   UNL     1      58.631  85.823  70.813  1.00  0.00     0.000 A 
ENDBRANCH  16  17
ENDBRANCH   7  16
BRANCH  15  23
ATOM     23  C   UNL     1      63.077  87.334  77.531  1.00  0.00    -0.046 C 
ATOM     24  C   UNL     1      62.861  86.501  78.759  1.00  0.00     0.042 C 
ATOM     25  C   UNL     1      63.087  88.674  77.576  1.00  0.00     0.010 C 
ENDBRANCH  15  23
ENDBRANCH   3   4
BRANCH   2  26
ATOM     26  C   UNL     1      65.321  86.911  70.869  1.00  0.00     0.078 C 
BRANCH  26  27
ATOM     27  C   UNL     1      65.642  85.692  71.733  1.00  0.00     0.140 C 
ATOM     28  C   UNL     1      64.371  85.042  72.319  1.00  0.00     0.086 CG0
ATOM     29  C   UNL     1      66.248  84.559  70.933  1.00  0.00     0.190 C 
ATOM     30  C   UNL     1      64.583  83.574  72.069  1.00  0.00    -0.010 C 
ATOM     31  G   UNL     1      63.947  85.522  73.737  1.00  0.00     0.000 G0
ATOM     32  O   UNL     1      67.176  84.665  70.145  1.00  0.00    -0.291 OA
ATOM     33  C   UNL     1      65.612  83.272  71.272  1.00  0.00    -0.008 C 
ATOM     34  C   UNL     1      66.061  81.963  70.753  1.00  0.00     0.048 C 
BRANCH  27  35
ATOM     35  O   UNL     1      66.632  85.990  72.703  1.00  0.00    -0.381 OA
ATOM     36  H   UNL     1      67.497  86.012  72.260  1.00  0.00     0.212 HD
ENDBRANCH  27  35
ENDBRANCH  26  27
ENDBRANCH   2  26
ENDBRANCH   1   2
BRANCH   1  37
ATOM     37  O   UNL     1      62.387  88.690  70.128  1.00  0.00    -0.461 OA
BRANCH  37  38
ATOM     38  C   UNL     1      61.999  88.021  68.990  1.00  0.00     0.310 C 
ATOM     39  O   UNL     1      60.866  88.015  68.530  1.00  0.00    -0.252 OA
BRANCH  38  40
ATOM     40  C   UNL     1      63.187  87.300  68.400  1.00  0.00     0.158 C 
BRANCH  40  41
ATOM     41  C   UNL     1      63.071  85.801  68.494  1.00  0.00    -0.037 A 
ATOM     42  C   UNL     1      63.808  84.989  67.632  1.00  0.00     0.008 A 
ATOM     43  C   UNL     1      62.227  85.225  69.442  1.00  0.00     0.008 A 
ATOM     44  C   UNL     1      63.700  83.601  67.718  1.00  0.00     0.046 A 
ATOM     45  C   UNL     1      62.119  83.837  69.530  1.00  0.00     0.046 A 
ATOM     46  C   UNL     1      62.855  83.025  68.668  1.00  0.00     0.115 A 
BRANCH  46  47
ATOM     47  O   UNL     1      62.750  81.671  68.752  1.00  0.00    -0.508 OA
ATOM     48  H   UNL     1      62.391  81.435  69.625  1.00  0.00     0.293 HD
ENDBRANCH  46  47
ENDBRANCH  40  41
ENDBRANCH  38  40
ENDBRANCH  37  38
ENDBRANCH   1  37
TORSDOF 10
ENDMDL
MODEL 5
REMARK VINA RESULT:    -7.117     20.187     23.913
REMARK INTER + INTRA:         -12.574
REMARK INTER:                 -10.928
REMARK INTRA:                  -1.646
REMARK UNBOUND:                -0.464
REMARK SMILES C=C(C)[C@]12C[C@@H](C)[C@@]34O[C@](Cc5ccccc5)(O[C@@H]1[C@@H]3C=C(COC(=O)Cc1ccc(O)cc1)C[C@]1(O)C(=O)C(C)=C[C@@H]41)O2
REMARK SMILES IDX 23 1 22 2 21 3 20 4 9 5 8 6 10 7 6 8 18 10 44 11 19 12 5 13
REMARK SMILES IDX 7 14 4 15 11 16 12 17 13 18 17 19 14 20 16 21 15 22 2 23
REMARK SMILES IDX 3 24 1 25 35 26 36 27 43 28 38 29 42 30 39 32 40 33 41 34
REMARK SMILES IDX 37 35 24 37 25 38 26 39 27 40 28 41 29 42 34 43 30 44 33 45
REMARK SMILES IDX 31 46 32 47
REMARK H PARENT 37 36 32 48
REMARK Flexibility Score: 90.00
ROOT
ATOM      1  C   UNL     1      71.485  88.891  71.936  1.00  0.00     0.264 C 
ENDROOT
BRANCH   1   2
ATOM      2  C   UNL     1      72.796  88.909  71.184  1.00  0.00    -0.033 C 
ATOM      3  C   UNL     1      73.394  87.740  70.874  1.00  0.00    -0.015 C 
BRANCH   3   4
ATOM      4  C   UNL     1      74.734  87.490  70.200  1.00  0.00     0.078 C 
ATOM      5  O   UNL     1      74.290  87.262  67.778  1.00  0.00    -0.319 OA
ATOM      6  C   UNL     1      74.974  88.093  68.767  1.00  0.00     0.095 CG0
ATOM      7  C   UNL     1      74.415  85.841  67.976  1.00  0.00     0.289 C 
ATOM      8  C   UNL     1      76.534  88.061  68.489  1.00  0.00     0.023 C 
ATOM      9  G   UNL     1      74.300  89.489  68.634  1.00  0.00     0.000 G0
ATOM     10  O   UNL     1      73.936  85.452  69.260  1.00  0.00    -0.320 OA
ATOM     11  O   UNL     1      75.771  85.403  67.922  1.00  0.00    -0.313 OA
ATOM     12  C   UNL     1      74.990  85.967  70.088  1.00  0.00     0.170 C 
ATOM     13  C   UNL     1      77.211  86.831  69.168  1.00  0.00     0.049 C 
ATOM     14  C   UNL     1      76.942  88.114  67.007  1.00  0.00     0.011 C 
ATOM     15  C   UNL     1      76.257  85.639  69.260  1.00  0.00     0.122 C 
BRANCH   7  16
ATOM     16  C   UNL     1      73.616  85.139  66.896  1.00  0.00     0.135 C 
BRANCH  16  17
ATOM     17  C   UNL     1      74.413  84.054  66.216  1.00  0.00    -0.040 A 
ATOM     18  C   UNL     1      74.337  82.740  66.675  1.00  0.00     0.004 A 
ATOM     19  C   UNL     1      75.226  84.366  65.126  1.00  0.00     0.004 A 
ATOM     20  C   UNL     1      75.074  81.736  66.046  1.00  0.00     0.000 A 
ATOM     21  C   UNL     1      75.963  83.363  64.497  1.00  0.00     0.000 A 
ATOM     22  C   UNL     1      75.887  82.049  64.956  1.00  0.00     0.000 A 
ENDBRANCH  16  17
ENDBRANCH   7  16
BRANCH  15  23
ATOM     23  C   UNL     1      76.935  84.397  69.740  1.00  0.00    -0.046 C 
ATOM     24  C   UNL     1      77.666  83.599  68.701  1.00  0.00     0.042 C 
ATOM     25  C   UNL     1      76.893  84.017  71.025  1.00  0.00     0.010 C 
ENDBRANCH  15  23
ENDBRANCH   3   4
BRANCH   2  26
ATOM     26  C   UNL     1      73.276  90.310  70.858  1.00  0.00     0.078 C 
BRANCH  26  27
ATOM     27  C   UNL     1      74.441  90.438  69.878  1.00  0.00     0.140 C 
ATOM     28  C   UNL     1      74.289  89.499  68.664  1.00  0.00     0.086 CG0
ATOM     29  C   UNL     1      74.504  91.804  69.227  1.00  0.00     0.190 C 
ATOM     30  C   UNL     1      74.615  90.385  67.494  1.00  0.00    -0.010 C 
ATOM     31  G   UNL     1      74.975  88.107  68.783  1.00  0.00     0.000 G0
ATOM     32  O   UNL     1      74.441  92.873  69.817  1.00  0.00    -0.291 OA
ATOM     33  C   UNL     1      74.715  91.688  67.772  1.00  0.00    -0.008 C 
ATOM     34  C   UNL     1      74.939  92.839  66.873  1.00  0.00     0.048 C 
BRANCH  27  35
ATOM     35  O   UNL     1      75.690  90.321  70.540  1.00  0.00    -0.381 OA
ATOM     36  H   UNL     1      76.356  90.809  70.026  1.00  0.00     0.212 HD
ENDBRANCH  27  35
ENDBRANCH  26  27
ENDBRANCH   2  26
ENDBRANCH   1   2
BRANCH   1  37
ATOM     37  O   UNL     1      70.492  89.523  71.157  1.00  0.00    -0.461 OA
BRANCH  37  38
ATOM     38  C   UNL     1      69.645  88.692  70.461  1.00  0.00     0.310 C 
ATOM     39  O   UNL     1      69.362  88.810  69.277  1.00  0.00    -0.252 OA
BRANCH  38  40
ATOM     40  C   UNL     1      69.123  87.617  71.383  1.00  0.00     0.158 C 
BRANCH  40  41
ATOM     41  C   UNL     1      69.270  86.230  70.813  1.00  0.00    -0.037 A 
ATOM     42  C   UNL     1      68.144  85.533  70.374  1.00  0.00     0.008 A 
ATOM     43  C   UNL     1      70.531  85.643  70.723  1.00  0.00     0.008 A 
ATOM     44  C   UNL     1      68.280  84.249  69.846  1.00  0.00     0.046 A 
ATOM     45  C   UNL     1      70.668  84.358  70.195  1.00  0.00     0.046 A 
ATOM     46  C   UNL     1      69.543  83.661  69.757  1.00  0.00     0.115 A 
BRANCH  46  47
ATOM     47  O   UNL     1      69.675  82.409  69.243  1.00  0.00    -0.508 OA
ATOM     48  H   UNL     1      70.525  82.349  68.772  1.00  0.00     0.293 HD
ENDBRANCH  46  47
ENDBRANCH  40  41
ENDBRANCH  38  40
ENDBRANCH  37  38
ENDBRANCH   1  37
TORSDOF 10
ENDMDL
MODEL 6
REMARK VINA RESULT:    -7.046     21.664     25.371
REMARK INTER + INTRA:         -12.453
REMARK INTER:                 -10.931
REMARK INTRA:                  -1.522
REMARK UNBOUND:                -0.464
REMARK SMILES C=C(C)[C@]12C[C@@H](C)[C@@]34O[C@](Cc5ccccc5)(O[C@@H]1[C@@H]3C=C(COC(=O)Cc1ccc(O)cc1)C[C@]1(O)C(=O)C(C)=C[C@@H]41)O2
REMARK SMILES IDX 23 1 22 2 21 3 20 4 9 5 8 6 10 7 6 8 18 10 44 11 19 12 5 13
REMARK SMILES IDX 7 14 4 15 11 16 12 17 13 18 17 19 14 20 16 21 15 22 2 23
REMARK SMILES IDX 3 24 1 25 35 26 36 27 43 28 38 29 42 30 39 32 40 33 41 34
REMARK SMILES IDX 37 35 24 37 25 38 26 39 27 40 28 41 29 42 34 43 30 44 33 45
REMARK SMILES IDX 31 46 32 47
REMARK H PARENT 37 36 32 48
REMARK Flexibility Score: 90.00
ROOT
ATOM      1  C   UNL     1      69.859  85.600  70.711  1.00  0.00     0.264 C 
ENDROOT
BRANCH   1   2
ATOM      2  C   UNL     1      71.097  86.402  70.384  1.00  0.00    -0.033 C 
ATOM      3  C   UNL     1      72.220  85.756  70.007  1.00  0.00    -0.015 C 
BRANCH   3   4
ATOM      4  C   UNL     1      73.600  86.318  69.702  1.00  0.00     0.078 C 
ATOM      5  O   UNL     1      73.682  86.746  67.268  1.00  0.00    -0.319 OA
ATOM      6  C   UNL     1      73.733  87.404  68.572  1.00  0.00     0.095 CG0
ATOM      7  C   UNL     1      74.439  85.524  67.165  1.00  0.00     0.289 C 
ATOM      8  C   UNL     1      75.141  88.108  68.748  1.00  0.00     0.023 C 
ATOM      9  G   UNL     1      72.503  88.358  68.574  1.00  0.00     0.000 G0
ATOM     10  O   UNL     1      74.018  84.571  68.137  1.00  0.00    -0.320 OA
ATOM     11  O   UNL     1      75.830  85.726  67.401  1.00  0.00    -0.313 OA
ATOM     12  C   UNL     1      74.564  85.166  69.325  1.00  0.00     0.170 C 
ATOM     13  C   UNL     1      76.214  87.116  69.293  1.00  0.00     0.049 C 
ATOM     14  C   UNL     1      75.689  88.813  67.495  1.00  0.00     0.011 C 
ATOM     15  C   UNL     1      75.941  85.682  68.838  1.00  0.00     0.122 C 
BRANCH   7  16
ATOM     16  C   UNL     1      74.240  84.958  65.773  1.00  0.00     0.135 C 
BRANCH  16  17
ATOM     17  C   UNL     1      75.096  83.741  65.528  1.00  0.00    -0.040 A 
ATOM     18  C   UNL     1      76.180  83.814  64.655  1.00  0.00     0.004 A 
ATOM     19  C   UNL     1      74.802  82.542  66.177  1.00  0.00     0.004 A 
ATOM     20  C   UNL     1      76.972  82.688  64.429  1.00  0.00     0.000 A 
ATOM     21  C   UNL     1      75.595  81.415  65.952  1.00  0.00     0.000 A 
ATOM     22  C   UNL     1      76.679  81.489  65.078  1.00  0.00     0.000 A 
ENDBRANCH  16  17
ENDBRANCH   7  16
BRANCH  15  23
ATOM     23  C   UNL     1      77.049  84.746  69.196  1.00  0.00    -0.046 C 
ATOM     24  C   UNL     1      77.151  84.362  70.642  1.00  0.00     0.042 C 
ATOM     25  C   UNL     1      77.905  84.276  68.276  1.00  0.00     0.010 C 
ENDBRANCH  15  23
ENDBRANCH   3   4
BRANCH   2  26
ATOM     26  C   UNL     1      70.892  87.898  70.526  1.00  0.00     0.078 C 
BRANCH  26  27
ATOM     27  C   UNL     1      71.993  88.808  69.985  1.00  0.00     0.140 C 
ATOM     28  C   UNL     1      72.492  88.359  68.596  1.00  0.00     0.086 CG0
ATOM     29  C   UNL     1      71.503  90.215  69.715  1.00  0.00     0.190 C 
ATOM     30  C   UNL     1      72.537  89.639  67.809  1.00  0.00    -0.010 C 
ATOM     31  G   UNL     1      73.727  87.411  68.585  1.00  0.00     0.000 G0
ATOM     32  O   UNL     1      70.852  90.899  70.491  1.00  0.00    -0.291 OA
ATOM     33  C   UNL     1      71.965  90.693  68.398  1.00  0.00    -0.008 C 
ATOM     34  C   UNL     1      71.754  92.066  67.895  1.00  0.00     0.048 C 
BRANCH  27  35
ATOM     35  O   UNL     1      73.031  88.988  70.935  1.00  0.00    -0.381 OA
ATOM     36  H   UNL     1      73.821  89.309  70.469  1.00  0.00     0.212 HD
ENDBRANCH  27  35
ENDBRANCH  26  27
ENDBRANCH   2  26
ENDBRANCH   1   2
BRANCH   1  37
ATOM     37  O   UNL     1      69.207  85.238  69.512  1.00  0.00    -0.461 OA
BRANCH  37  38
ATOM     38  C   UNL     1      68.829  83.920  69.400  1.00  0.00     0.310 C 
ATOM     39  O   UNL     1      68.960  83.075  70.273  1.00  0.00    -0.252 OA
BRANCH  38  40
ATOM     40  C   UNL     1      68.228  83.684  68.035  1.00  0.00     0.158 C 
BRANCH  40  41
ATOM     41  C   UNL     1      69.240  83.223  67.019  1.00  0.00    -0.037 A 
ATOM     42  C   UNL     1      70.488  82.762  67.437  1.00  0.00     0.008 A 
ATOM     43  C   UNL     1      68.931  83.259  65.659  1.00  0.00     0.008 A 
ATOM     44  C   UNL     1      71.427  82.336  66.496  1.00  0.00     0.046 A 
ATOM     45  C   UNL     1      69.869  82.833  64.718  1.00  0.00     0.046 A 
ATOM     46  C   UNL     1      71.116  82.372  65.136  1.00  0.00     0.115 A 
BRANCH  46  47
ATOM     47  O   UNL     1      72.032  81.957  64.219  1.00  0.00    -0.508 OA
ATOM     48  H   UNL     1      72.269  82.709  63.648  1.00  0.00     0.293 HD
ENDBRANCH  46  47
ENDBRANCH  40  41
ENDBRANCH  38  40
ENDBRANCH  37  38
ENDBRANCH   1  37
TORSDOF 10
ENDMDL
MODEL 7
REMARK VINA RESULT:    -6.745     21.272     25.715
REMARK INTER + INTRA:         -11.941
REMARK INTER:                 -11.506
REMARK INTRA:                  -0.435
REMARK UNBOUND:                -0.464
REMARK SMILES C=C(C)[C@]12C[C@@H](C)[C@@]34O[C@](Cc5ccccc5)(O[C@@H]1[C@@H]3C=C(COC(=O)Cc1ccc(O)cc1)C[C@]1(O)C(=O)C(C)=C[C@@H]41)O2
REMARK SMILES IDX 23 1 22 2 21 3 20 4 9 5 8 6 10 7 6 8 18 10 44 11 19 12 5 13
REMARK SMILES IDX 7 14 4 15 11 16 12 17 13 18 17 19 14 20 16 21 15 22 2 23
REMARK SMILES IDX 3 24 1 25 35 26 36 27 43 28 38 29 42 30 39 32 40 33 41 34
REMARK SMILES IDX 37 35 24 37 25 38 26 39 27 40 28 41 29 42 34 43 30 44 33 45
REMARK SMILES IDX 31 46 32 47
REMARK H PARENT 37 36 32 48
REMARK Flexibility Score: 90.00
ROOT
ATOM      1  C   UNL     1      70.480  83.544  67.971  1.00  0.00     0.264 C 
ENDROOT
BRANCH   1   2
ATOM      2  C   UNL     1      71.720  84.146  67.353  1.00  0.00    -0.033 C 
ATOM      3  C   UNL     1      72.014  85.441  67.592  1.00  0.00    -0.015 C 
BRANCH   3   4
ATOM      4  C   UNL     1      73.144  86.292  67.036  1.00  0.00     0.078 C 
ATOM      5  O   UNL     1      75.027  86.120  68.631  1.00  0.00    -0.319 OA
ATOM      6  C   UNL     1      74.625  85.810  67.260  1.00  0.00     0.095 CG0
ATOM      7  C   UNL     1      74.628  87.419  69.110  1.00  0.00     0.289 C 
ATOM      8  C   UNL     1      75.547  86.609  66.250  1.00  0.00     0.023 C 
ATOM      9  G   UNL     1      74.721  84.259  67.169  1.00  0.00     0.000 G0
ATOM     10  O   UNL     1      73.216  87.587  69.034  1.00  0.00    -0.320 OA
ATOM     11  O   UNL     1      75.185  88.478  68.334  1.00  0.00    -0.313 OA
ATOM     12  C   UNL     1      73.055  87.727  67.614  1.00  0.00     0.170 C 
ATOM     13  C   UNL     1      75.007  88.050  66.000  1.00  0.00     0.049 C 
ATOM     14  C   UNL     1      77.036  86.682  66.630  1.00  0.00     0.011 C 
ATOM     15  C   UNL     1      74.272  88.600  67.223  1.00  0.00     0.122 C 
BRANCH   7  16
ATOM     16  C   UNL     1      75.085  87.554  70.549  1.00  0.00     0.135 C 
BRANCH  16  17
ATOM     17  C   UNL     1      74.621  88.848  71.171  1.00  0.00    -0.040 A 
ATOM     18  C   UNL     1      75.271  90.043  70.863  1.00  0.00     0.004 A 
ATOM     19  C   UNL     1      73.542  88.848  72.054  1.00  0.00     0.004 A 
ATOM     20  C   UNL     1      74.842  91.239  71.438  1.00  0.00     0.000 A 
ATOM     21  C   UNL     1      73.113  90.045  72.629  1.00  0.00     0.000 A 
ATOM     22  C   UNL     1      73.762  91.239  72.321  1.00  0.00     0.000 A 
ENDBRANCH  16  17
ENDBRANCH   7  16
BRANCH  15  23
ATOM     23  C   UNL     1      73.905  90.040  67.073  1.00  0.00    -0.046 C 
ATOM     24  C   UNL     1      72.438  90.346  67.006  1.00  0.00     0.042 C 
ATOM     25  C   UNL     1      74.833  91.005  67.002  1.00  0.00     0.010 C 
ENDBRANCH  15  23
ENDBRANCH   3   4
BRANCH   2  26
ATOM     26  C   UNL     1      72.507  83.157  66.512  1.00  0.00     0.078 C 
BRANCH  26  27
ATOM     27  C   UNL     1      73.886  83.597  66.026  1.00  0.00     0.140 C 
ATOM     28  C   UNL     1      74.713  84.266  67.144  1.00  0.00     0.086 CG0
ATOM     29  C   UNL     1      74.762  82.427  65.630  1.00  0.00     0.190 C 
ATOM     30  C   UNL     1      76.064  83.618  67.016  1.00  0.00    -0.010 C 
ATOM     31  G   UNL     1      74.616  85.817  67.234  1.00  0.00     0.000 G0
ATOM     32  O   UNL     1      74.426  81.507  64.900  1.00  0.00    -0.291 OA
ATOM     33  C   UNL     1      76.118  82.564  66.195  1.00  0.00    -0.008 C 
ATOM     34  C   UNL     1      77.238  81.650  65.894  1.00  0.00     0.048 C 
BRANCH  27  35
ATOM     35  O   UNL     1      73.797  84.369  64.840  1.00  0.00    -0.381 OA
ATOM     36  H   UNL     1      74.064  83.811  64.090  1.00  0.00     0.212 HD
ENDBRANCH  27  35
ENDBRANCH  26  27
ENDBRANCH   2  26
ENDBRANCH   1   2
BRANCH   1  37
ATOM     37  O   UNL     1      69.892  84.483  68.846  1.00  0.00    -0.461 OA
BRANCH  37  38
ATOM     38  C   UNL     1      68.521  84.440  68.952  1.00  0.00     0.310 C 
ATOM     39  O   UNL     1      67.745  85.143  68.320  1.00  0.00    -0.252 OA
BRANCH  38  40
ATOM     40  C   UNL     1      68.126  83.393  69.965  1.00  0.00     0.158 C 
BRANCH  40  41
ATOM     41  C   UNL     1      67.305  83.952  71.098  1.00  0.00    -0.037 A 
ATOM     42  C   UNL     1      65.927  83.736  71.133  1.00  0.00     0.008 A 
ATOM     43  C   UNL     1      67.921  84.685  72.112  1.00  0.00     0.008 A 
ATOM     44  C   UNL     1      65.165  84.254  72.181  1.00  0.00     0.046 A 
ATOM     45  C   UNL     1      67.160  85.203  73.161  1.00  0.00     0.046 A 
ATOM     46  C   UNL     1      65.783  84.988  73.195  1.00  0.00     0.115 A 
BRANCH  46  47
ATOM     47  O   UNL     1      65.040  85.493  74.217  1.00  0.00    -0.508 OA
ATOM     48  H   UNL     1      64.712  84.757  74.763  1.00  0.00     0.293 HD
ENDBRANCH  46  47
ENDBRANCH  40  41
ENDBRANCH  38  40
ENDBRANCH  37  38
ENDBRANCH   1  37
TORSDOF 10
ENDMDL
MODEL 8
REMARK VINA RESULT:    -6.692     28.189     31.636
REMARK INTER + INTRA:         -11.850
REMARK INTER:                 -10.136
REMARK INTRA:                  -1.713
REMARK UNBOUND:                -0.464
REMARK SMILES C=C(C)[C@]12C[C@@H](C)[C@@]34O[C@](Cc5ccccc5)(O[C@@H]1[C@@H]3C=C(COC(=O)Cc1ccc(O)cc1)C[C@]1(O)C(=O)C(C)=C[C@@H]41)O2
REMARK SMILES IDX 23 1 22 2 21 3 20 4 9 5 8 6 10 7 6 8 18 10 44 11 19 12 5 13
REMARK SMILES IDX 7 14 4 15 11 16 12 17 13 18 17 19 14 20 16 21 15 22 2 23
REMARK SMILES IDX 3 24 1 25 35 26 36 27 43 28 38 29 42 30 39 32 40 33 41 34
REMARK SMILES IDX 37 35 24 37 25 38 26 39 27 40 28 41 29 42 34 43 30 44 33 45
REMARK SMILES IDX 31 46 32 47
REMARK H PARENT 37 36 32 48
REMARK Flexibility Score: 90.00
ROOT
ATOM      1  C   UNL     1      67.050  86.530  74.948  1.00  0.00     0.264 C 
ENDROOT
BRANCH   1   2
ATOM      2  C   UNL     1      67.039  86.236  73.466  1.00  0.00    -0.033 C 
ATOM      3  C   UNL     1      66.020  85.523  72.943  1.00  0.00    -0.015 C 
BRANCH   3   4
ATOM      4  C   UNL     1      65.815  85.035  71.518  1.00  0.00     0.078 C 
ATOM      5  O   UNL     1      64.524  86.782  70.337  1.00  0.00    -0.319 OA
ATOM      6  C   UNL     1      65.814  86.095  70.356  1.00  0.00     0.095 CG0
ATOM      7  C   UNL     1      63.373  85.935  70.519  1.00  0.00     0.289 C 
ATOM      8  C   UNL     1      66.012  85.313  68.993  1.00  0.00     0.023 C 
ATOM      9  G   UNL     1      66.850  87.223  70.636  1.00  0.00     0.000 G0
ATOM     10  O   UNL     1      63.450  85.214  71.745  1.00  0.00    -0.320 OA
ATOM     11  O   UNL     1      63.259  84.947  69.497  1.00  0.00    -0.313 OA
ATOM     12  C   UNL     1      64.475  84.264  71.414  1.00  0.00     0.170 C 
ATOM     13  C   UNL     1      65.348  83.903  69.041  1.00  0.00     0.049 C 
ATOM     14  C   UNL     1      65.541  86.055  67.730  1.00  0.00     0.011 C 
ATOM     15  C   UNL     1      64.122  83.885  69.955  1.00  0.00     0.122 C 
BRANCH   7  16
ATOM     16  C   UNL     1      62.135  86.810  70.515  1.00  0.00     0.135 C 
BRANCH  16  17
ATOM     17  C   UNL     1      60.898  86.042  70.909  1.00  0.00    -0.040 A 
ATOM     18  C   UNL     1      60.351  86.204  72.181  1.00  0.00     0.004 A 
ATOM     19  C   UNL     1      60.301  85.170  69.999  1.00  0.00     0.004 A 
ATOM     20  C   UNL     1      59.206  85.493  72.545  1.00  0.00     0.000 A 
ATOM     21  C   UNL     1      59.156  84.459  70.362  1.00  0.00     0.000 A 
ATOM     22  C   UNL     1      58.610  84.621  71.634  1.00  0.00     0.000 A 
ENDBRANCH  16  17
ENDBRANCH   7  16
BRANCH  15  23
ATOM     23  C   UNL     1      63.366  82.599  69.876  1.00  0.00    -0.046 C 
ATOM     24  C   UNL     1      62.742  82.278  68.550  1.00  0.00     0.042 C 
ATOM     25  C   UNL     1      63.250  81.778  70.930  1.00  0.00     0.010 C 
ENDBRANCH  15  23
ENDBRANCH   3   4
BRANCH   2  26
ATOM     26  C   UNL     1      68.232  86.820  72.733  1.00  0.00     0.078 C 
BRANCH  26  27
ATOM     27  C   UNL     1      68.211  86.763  71.207  1.00  0.00     0.140 C 
ATOM     28  C   UNL     1      66.858  87.222  70.624  1.00  0.00     0.086 CG0
ATOM     29  C   UNL     1      69.184  87.736  70.577  1.00  0.00     0.190 C 
ATOM     30  C   UNL     1      67.254  88.149  69.509  1.00  0.00    -0.010 C 
ATOM     31  G   UNL     1      65.813  86.102  70.351  1.00  0.00     0.000 G0
ATOM     32  O   UNL     1      70.357  87.869  70.892  1.00  0.00    -0.291 OA
ATOM     33  C   UNL     1      68.549  88.480  69.472  1.00  0.00    -0.008 C 
ATOM     34  C   UNL     1      69.267  89.415  68.582  1.00  0.00     0.048 C 
BRANCH  27  35
ATOM     35  O   UNL     1      68.640  85.499  70.730  1.00  0.00    -0.381 OA
ATOM     36  H   UNL     1      67.866  84.912  70.678  1.00  0.00     0.212 HD
ENDBRANCH  27  35
ENDBRANCH  26  27
ENDBRANCH   2  26
ENDBRANCH   1   2
BRANCH   1  37
ATOM     37  O   UNL     1      66.566  85.405  75.650  1.00  0.00    -0.461 OA
BRANCH  37  38
ATOM     38  C   UNL     1      65.665  85.659  76.659  1.00  0.00     0.310 C 
ATOM     39  O   UNL     1      65.391  86.770  77.092  1.00  0.00    -0.252 OA
BRANCH  38  40
ATOM     40  C   UNL     1      65.072  84.359  77.145  1.00  0.00     0.158 C 
BRANCH  40  41
ATOM     41  C   UNL     1      64.011  83.816  76.224  1.00  0.00    -0.037 A 
ATOM     42  C   UNL     1      62.742  84.396  76.203  1.00  0.00     0.008 A 
ATOM     43  C   UNL     1      64.296  82.734  75.392  1.00  0.00     0.008 A 
ATOM     44  C   UNL     1      61.759  83.893  75.350  1.00  0.00     0.046 A 
ATOM     45  C   UNL     1      63.313  82.231  74.538  1.00  0.00     0.046 A 
ATOM     46  C   UNL     1      62.045  82.810  74.518  1.00  0.00     0.115 A 
BRANCH  46  47
ATOM     47  O   UNL     1      61.086  82.320  73.687  1.00  0.00    -0.508 OA
ATOM     48  H   UNL     1      61.096  82.829  72.857  1.00  0.00     0.293 HD
ENDBRANCH  46  47
ENDBRANCH  40  41
ENDBRANCH  38  40
ENDBRANCH  37  38
ENDBRANCH   1  37
TORSDOF 10
ENDMDL
MODEL 9
REMARK VINA RESULT:    -6.564     20.861     24.456
REMARK INTER + INTRA:         -11.633
REMARK INTER:                 -10.766
REMARK INTRA:                  -0.867
REMARK UNBOUND:                -0.464
REMARK SMILES C=C(C)[C@]12C[C@@H](C)[C@@]34O[C@](Cc5ccccc5)(O[C@@H]1[C@@H]3C=C(COC(=O)Cc1ccc(O)cc1)C[C@]1(O)C(=O)C(C)=C[C@@H]41)O2
REMARK SMILES IDX 23 1 22 2 21 3 20 4 9 5 8 6 10 7 6 8 18 10 44 11 19 12 5 13
REMARK SMILES IDX 7 14 4 15 11 16 12 17 13 18 17 19 14 20 16 21 15 22 2 23
REMARK SMILES IDX 3 24 1 25 35 26 36 27 43 28 38 29 42 30 39 32 40 33 41 34
REMARK SMILES IDX 37 35 24 37 25 38 26 39 27 40 28 41 29 42 34 43 30 44 33 45
REMARK SMILES IDX 31 46 32 47
REMARK H PARENT 37 36 32 48
REMARK Flexibility Score: 90.00
ROOT
ATOM      1  C   UNL     1      96.142  84.251  87.020  1.00  0.00     0.264 C 
ENDROOT
BRANCH   1   2
ATOM      2  C   UNL     1      94.811  83.713  87.492  1.00  0.00    -0.033 C 
ATOM      3  C   UNL     1      94.416  82.487  87.089  1.00  0.00    -0.015 C 
BRANCH   3   4
ATOM      4  C   UNL     1      93.109  81.758  87.356  1.00  0.00     0.078 C 
ATOM      5  O   UNL     1      93.452  80.381  89.381  1.00  0.00    -0.319 OA
ATOM      6  C   UNL     1      92.684  81.506  88.849  1.00  0.00     0.095 CG0
ATOM      7  C   UNL     1      93.598  79.259  88.490  1.00  0.00     0.289 C 
ATOM      8  C   UNL     1      91.144  81.137  88.854  1.00  0.00     0.023 C 
ATOM      9  G   UNL     1      93.086  82.710  89.750  1.00  0.00     0.000 G0
ATOM     10  O   UNL     1      94.210  79.648  87.263  1.00  0.00    -0.320 OA
ATOM     11  O   UNL     1      92.343  78.687  88.129  1.00  0.00    -0.313 OA
ATOM     12  C   UNL     1      93.126  80.375  86.661  1.00  0.00     0.170 C 
ATOM     13  C   UNL     1      90.739  80.353  87.568  1.00  0.00     0.049 C 
ATOM     14  C   UNL     1      90.651  80.371  90.094  1.00  0.00     0.011 C 
ATOM     15  C   UNL     1      91.897  79.510  87.032  1.00  0.00     0.122 C 
BRANCH   7  16
ATOM     16  C   UNL     1      94.450  78.213  89.179  1.00  0.00     0.135 C 
BRANCH  16  17
ATOM     17  C   UNL     1      94.258  76.841  88.581  1.00  0.00    -0.040 A 
ATOM     18  C   UNL     1      94.994  76.460  87.459  1.00  0.00     0.004 A 
ATOM     19  C   UNL     1      93.344  75.955  89.150  1.00  0.00     0.004 A 
ATOM     20  C   UNL     1      94.816  75.192  86.906  1.00  0.00     0.000 A 
ATOM     21  C   UNL     1      93.167  74.687  88.597  1.00  0.00     0.000 A 
ATOM     22  C   UNL     1      93.902  74.305  87.476  1.00  0.00     0.000 A 
ENDBRANCH  16  17
ENDBRANCH   7  16
BRANCH  15  23
ATOM     23  C   UNL     1      91.482  78.614  85.910  1.00  0.00    -0.046 C 
ATOM     24  C   UNL     1      90.793  79.276  84.754  1.00  0.00     0.042 C 
ATOM     25  C   UNL     1      91.713  77.293  85.936  1.00  0.00     0.010 C 
ENDBRANCH  15  23
ENDBRANCH   3   4
BRANCH   2  26
ATOM     26  C   UNL     1      94.071  84.671  88.405  1.00  0.00     0.078 C 
BRANCH  26  27
ATOM     27  C   UNL     1      92.842  84.131  89.135  1.00  0.00     0.140 C 
ATOM     28  C   UNL     1      93.091  82.734  89.741  1.00  0.00     0.086 CG0
ATOM     29  C   UNL     1      92.484  84.955  90.354  1.00  0.00     0.190 C 
ATOM     30  C   UNL     1      92.530  82.850  91.131  1.00  0.00    -0.010 C 
ATOM     31  G   UNL     1      92.687  81.521  88.854  1.00  0.00     0.000 G0
ATOM     32  O   UNL     1      92.382  86.172  90.381  1.00  0.00    -0.291 OA
ATOM     33  C   UNL     1      92.206  84.089  91.516  1.00  0.00    -0.008 C 
ATOM     34  C   UNL     1      91.714  84.582  92.818  1.00  0.00     0.048 C 
BRANCH  27  35
ATOM     35  O   UNL     1      91.683  84.205  88.323  1.00  0.00    -0.381 OA
ATOM     36  H   UNL     1      91.852  84.837  87.604  1.00  0.00     0.212 HD
ENDBRANCH  27  35
ENDBRANCH  26  27
ENDBRANCH   2  26
ENDBRANCH   1   2
BRANCH   1  37
ATOM     37  O   UNL     1      96.880  83.209  86.418  1.00  0.00    -0.461 OA
BRANCH  37  38
ATOM     38  C   UNL     1      97.832  83.590  85.500  1.00  0.00     0.310 C 
ATOM     39  O   UNL     1      98.974  83.933  85.774  1.00  0.00    -0.252 OA
BRANCH  38  40
ATOM     40  C   UNL     1      97.248  83.519  84.110  1.00  0.00     0.158 C 
BRANCH  40  41
ATOM     41  C   UNL     1      98.045  82.639  83.182  1.00  0.00    -0.037 A 
ATOM     42  C   UNL     1      98.469  83.131  81.947  1.00  0.00     0.008 A 
ATOM     43  C   UNL     1      98.359  81.333  83.557  1.00  0.00     0.008 A 
ATOM     44  C   UNL     1      99.206  82.316  81.087  1.00  0.00     0.046 A 
ATOM     45  C   UNL     1      99.096  80.518  82.697  1.00  0.00     0.046 A 
ATOM     46  C   UNL     1      99.520  81.009  81.463  1.00  0.00     0.115 A 
BRANCH  46  47
ATOM     47  O   UNL     1     100.238  80.215  80.624  1.00  0.00    -0.508 OA
ATOM     48  H   UNL     1      99.723  79.412  80.431  1.00  0.00     0.293 HD
ENDBRANCH  46  47
ENDBRANCH  40  41
ENDBRANCH  38  40
ENDBRANCH  37  38
ENDBRANCH   1  37
TORSDOF 10
ENDMDL
MODEL 10
REMARK VINA RESULT:    -6.538     22.229     26.774
REMARK INTER + INTRA:         -11.587
REMARK INTER:                 -11.411
REMARK INTRA:                  -0.176
REMARK UNBOUND:                -0.464
REMARK SMILES C=C(C)[C@]12C[C@@H](C)[C@@]34O[C@](Cc5ccccc5)(O[C@@H]1[C@@H]3C=C(COC(=O)Cc1ccc(O)cc1)C[C@]1(O)C(=O)C(C)=C[C@@H]41)O2
REMARK SMILES IDX 23 1 22 2 21 3 20 4 9 5 8 6 10 7 6 8 18 10 44 11 19 12 5 13
REMARK SMILES IDX 7 14 4 15 11 16 12 17 13 18 17 19 14 20 16 21 15 22 2 23
REMARK SMILES IDX 3 24 1 25 35 26 36 27 43 28 38 29 42 30 39 32 40 33 41 34
REMARK SMILES IDX 37 35 24 37 25 38 26 39 27 40 28 41 29 42 34 43 30 44 33 45
REMARK SMILES IDX 31 46 32 47
REMARK H PARENT 37 36 32 48
REMARK Flexibility Score: 90.00
ROOT
ATOM      1  C   UNL     1      70.110  84.007  68.867  1.00  0.00     0.264 C 
ENDROOT
BRANCH   1   2
ATOM      2  C   UNL     1      71.098  84.410  67.797  1.00  0.00    -0.033 C 
ATOM      3  C   UNL     1      71.486  85.699  67.710  1.00  0.00    -0.015 C 
BRANCH   3   4
ATOM      4  C   UNL     1      72.397  86.366  66.692  1.00  0.00     0.078 C 
ATOM      5  O   UNL     1      74.689  86.294  67.618  1.00  0.00    -0.319 OA
ATOM      6  C   UNL     1      73.858  85.811  66.517  1.00  0.00     0.095 CG0
ATOM      7  C   UNL     1      74.498  87.678  67.971  1.00  0.00     0.289 C 
ATOM      8  C   UNL     1      74.423  86.373  65.148  1.00  0.00     0.023 C 
ATOM      9  G   UNL     1      73.882  84.261  66.664  1.00  0.00     0.000 G0
ATOM     10  O   UNL     1      73.141  87.941  68.317  1.00  0.00    -0.320 OA
ATOM     11  O   UNL     1      74.799  88.560  66.892  1.00  0.00    -0.313 OA
ATOM     12  C   UNL     1      72.533  87.874  67.017  1.00  0.00     0.170 C 
ATOM     13  C   UNL     1      73.867  87.797  64.840  1.00  0.00     0.049 C 
ATOM     14  C   UNL     1      75.957  86.387  65.022  1.00  0.00     0.011 C 
ATOM     15  C   UNL     1      73.580  88.581  66.121  1.00  0.00     0.122 C 
BRANCH   7  16
ATOM     16  C   UNL     1      75.398  87.995  69.149  1.00  0.00     0.135 C 
BRANCH  16  17
ATOM     17  C   UNL     1      76.015  86.753  69.741  1.00  0.00    -0.040 A 
ATOM     18  C   UNL     1      77.383  86.518  69.601  1.00  0.00     0.004 A 
ATOM     19  C   UNL     1      75.217  85.839  70.429  1.00  0.00     0.004 A 
ATOM     20  C   UNL     1      77.953  85.369  70.149  1.00  0.00     0.000 A 
ATOM     21  C   UNL     1      75.788  84.690  70.977  1.00  0.00     0.000 A 
ATOM     22  C   UNL     1      77.155  84.455  70.837  1.00  0.00     0.000 A 
ENDBRANCH  16  17
ENDBRANCH   7  16
BRANCH  15  23
ATOM     23  C   UNL     1      73.219  90.006  65.853  1.00  0.00    -0.046 C 
ATOM     24  C   UNL     1      74.218  90.806  65.071  1.00  0.00     0.042 C 
ATOM     25  C   UNL     1      72.067  90.540  66.286  1.00  0.00     0.010 C 
ENDBRANCH  15  23
ENDBRANCH   3   4
BRANCH   2  26
ATOM     26  C   UNL     1      71.545  83.247  66.931  1.00  0.00     0.078 C 
BRANCH  26  27
ATOM     27  C   UNL     1      72.724  83.490  65.991  1.00  0.00     0.140 C 
ATOM     28  C   UNL     1      73.867  84.267  66.677  1.00  0.00     0.086 CG0
ATOM     29  C   UNL     1      73.409  82.206  65.575  1.00  0.00     0.190 C 
ATOM     30  C   UNL     1      75.099  83.502  66.279  1.00  0.00    -0.010 C 
ATOM     31  G   UNL     1      73.842  85.815  66.509  1.00  0.00     0.000 G0
ATOM     32  O   UNL     1      72.845  81.207  65.155  1.00  0.00    -0.291 OA
ATOM     33  C   UNL     1      74.875  82.327  65.684  1.00  0.00    -0.008 C 
ATOM     34  C   UNL     1      75.828  81.289  65.239  1.00  0.00     0.048 C 
BRANCH  27  35
ATOM     35  O   UNL     1      72.301  84.060  64.764  1.00  0.00    -0.381 OA
ATOM     36  H   UNL     1      72.232  85.023  64.881  1.00  0.00     0.212 HD
ENDBRANCH  27  35
ENDBRANCH  26  27
ENDBRANCH   2  26
ENDBRANCH   1   2
BRANCH   1  37
ATOM     37  O   UNL     1      68.822  83.908  68.299  1.00  0.00    -0.461 OA
BRANCH  37  38
ATOM     38  C   UNL     1      67.771  84.276  69.107  1.00  0.00     0.310 C 
ATOM     39  O   UNL     1      67.859  85.005  70.085  1.00  0.00    -0.252 OA
BRANCH  38  40
ATOM     40  C   UNL     1      66.498  83.641  68.599  1.00  0.00     0.158 C 
BRANCH  40  41
ATOM     41  C   UNL     1      65.518  83.328  69.700  1.00  0.00    -0.037 A 
ATOM     42  C   UNL     1      65.771  82.278  70.582  1.00  0.00     0.008 A 
ATOM     43  C   UNL     1      64.357  84.088  69.837  1.00  0.00     0.008 A 
ATOM     44  C   UNL     1      64.863  81.987  71.600  1.00  0.00     0.046 A 
ATOM     45  C   UNL     1      63.449  83.799  70.856  1.00  0.00     0.046 A 
ATOM     46  C   UNL     1      63.701  82.748  71.737  1.00  0.00     0.115 A 
BRANCH  46  47
ATOM     47  O   UNL     1      62.816  82.464  72.730  1.00  0.00    -0.508 OA
ATOM     48  H   UNL     1      61.945  82.284  72.334  1.00  0.00     0.293 HD
ENDBRANCH  46  47
ENDBRANCH  40  41
ENDBRANCH  38  40
ENDBRANCH  37  38
ENDBRANCH   1  37
TORSDOF 10
ENDMDL
