MODEL 1
REMARK VINA RESULT:    -6.639      0.000      0.000
REMARK INTER + INTRA:         -12.559
REMARK INTER:                 -11.685
REMARK INTRA:                  -0.875
REMARK UNBOUND:                -0.875
REMARK SMILES C=C(C)[C@]12C[C@@H](C)[C@@]34O[C@](Cc5ccccc5)(O[C@@H]1[C@@H]3C=C(COC(=O)Cc1ccc(O)c(OC)c1)C[C@]1(O)C(=O)C(C)=C[C@@H]41)O2
REMARK SMILES IDX 23 1 22 2 21 3 20 4 9 5 8 6 10 7 6 8 18 9 46 10 19 11 5 12
REMARK SMILES IDX 7 13 4 14 45 15 38 16 44 17 40 18 42 20 41 21 43 22 39 23
REMARK SMILES IDX 11 25 12 26 13 27 17 28 14 29 16 30 15 31 2 32 3 33 1 34
REMARK SMILES IDX 37 35 24 37 25 38 26 39 27 40 28 41 36 42 29 43 33 44 30 45
REMARK SMILES IDX 31 46 34 47 35 48 32 49
REMARK H PARENT 39 24 32 50
REMARK Flexibility Score: 90.00
ROOT
ATOM      1  C   UNL     1      94.400  96.379  74.620  1.00  0.00     0.264 C 
ENDROOT
BRANCH   1   2
ATOM      2  C   UNL     1      94.926  97.158  73.437  1.00  0.00    -0.033 C 
ATOM      3  C   UNL     1      94.103  98.008  72.789  1.00  0.00    -0.015 C 
BRANCH   3   4
ATOM      4  C   UNL     1      94.361  98.838  71.542  1.00  0.00     0.078 C 
ATOM      5  O   UNL     1      95.176 101.046  72.302  1.00  0.00    -0.319 OA
ATOM      6  C   UNL     1      95.565  99.853  71.554  1.00  0.00     0.095 C 
ATOM      7  C   UNL     1      93.847 101.533  72.039  1.00  0.00     0.289 C 
ATOM      8  C   UNL     1      95.870 100.253  70.051  1.00  0.00     0.023 C 
ATOM      9  O   UNL     1      92.868 100.531  72.301  1.00  0.00    -0.320 OA
ATOM     10  O   UNL     1      93.666 101.901  70.674  1.00  0.00    -0.313 OA
ATOM     11  C   UNL     1      93.097  99.657  71.185  1.00  0.00     0.170 C 
ATOM     12  C   UNL     1      94.569 100.275  69.191  1.00  0.00     0.049 C 
ATOM     13  C   UNL     1      96.630 101.576  69.862  1.00  0.00     0.011 C 
ATOM     14  C   UNL     1      93.345 100.654  70.025  1.00  0.00     0.122 C 
BRANCH   6  15
ATOM     15  C   UNL     1      96.770  99.271  72.348  1.00  0.00     0.086 C 
ATOM     16  C   UNL     1      97.089  97.781  72.105  1.00  0.00     0.140 CG0
ATOM     17  C   UNL     1      98.113  99.937  72.243  1.00  0.00    -0.010 C 
ATOM     18  C   UNL     1      98.597  97.746  72.228  1.00  0.00     0.190 C 
ATOM     19  G   UNL     1      96.398  96.870  73.119  1.00  0.00     0.000 G0
ATOM     20  C   UNL     1      99.161  99.109  72.201  1.00  0.00    -0.008 C 
ATOM     21  O   UNL     1      99.280  96.735  72.289  1.00  0.00    -0.291 OA
ATOM     22  C   UNL     1     100.608  99.406  72.181  1.00  0.00     0.048 C 
BRANCH  16  23
ATOM     23  O   UNL     1      96.847  97.352  70.776  1.00  0.00    -0.381 OA
ATOM     24  H   UNL     1      96.010  97.742  70.474  1.00  0.00     0.212 HD
ENDBRANCH  16  23
ENDBRANCH   6  15
BRANCH   7  25
ATOM     25  C   UNL     1      93.598 102.737  72.925  1.00  0.00     0.135 C 
BRANCH  25  26
ATOM     26  C   UNL     1      92.212 102.722  73.521  1.00  0.00    -0.040 A 
ATOM     27  C   UNL     1      92.001 102.162  74.781  1.00  0.00     0.004 A 
ATOM     28  C   UNL     1      91.142 103.271  72.814  1.00  0.00     0.004 A 
ATOM     29  C   UNL     1      90.719 102.148  75.333  1.00  0.00     0.000 A 
ATOM     30  C   UNL     1      89.861 103.257  73.366  1.00  0.00     0.000 A 
ATOM     31  C   UNL     1      89.650 102.696  74.625  1.00  0.00     0.000 A 
ENDBRANCH  25  26
ENDBRANCH   7  25
BRANCH  14  32
ATOM     32  C   UNL     1      92.123 100.859  69.191  1.00  0.00    -0.046 C 
ATOM     33  C   UNL     1      91.410 102.167  69.370  1.00  0.00     0.042 C 
ATOM     34  C   UNL     1      91.687  99.927  68.330  1.00  0.00     0.010 C 
ENDBRANCH  14  32
ENDBRANCH   3   4
BRANCH   2  35
ATOM     35  C   UNL     1      96.383  96.867  73.133  1.00  0.00     0.078 CG0
ATOM     36  G   UNL     1      97.079  97.771  72.116  1.00  0.00     0.000 G0
ENDBRANCH   2  35
ENDBRANCH   1   2
BRANCH   1  37
ATOM     37  O   UNL     1      95.035  95.120  74.669  1.00  0.00    -0.461 OA
BRANCH  37  38
ATOM     38  C   UNL     1      94.965  94.449  75.868  1.00  0.00     0.310 C 
ATOM     39  O   UNL     1      95.852  93.747  76.333  1.00  0.00    -0.252 OA
BRANCH  38  40
ATOM     40  C   UNL     1      93.626  94.713  76.516  1.00  0.00     0.158 C 
BRANCH  40  41
ATOM     41  C   UNL     1      92.636  93.598  76.297  1.00  0.00    -0.033 A 
ATOM     42  C   UNL     1      92.401  93.117  75.008  1.00  0.00     0.054 A 
ATOM     43  C   UNL     1      91.956  93.046  77.382  1.00  0.00     0.008 A 
ATOM     44  C   UNL     1      91.485  92.085  74.805  1.00  0.00     0.160 A 
ATOM     45  C   UNL     1      91.039  92.014  77.179  1.00  0.00     0.050 A 
ATOM     46  C   UNL     1      90.804  91.534  75.892  1.00  0.00     0.157 A 
BRANCH  44  47
ATOM     47  O   UNL     1      91.264  91.625  73.543  1.00  0.00    -0.493 OA
ATOM     48  C   UNL     1      90.356  92.368  72.731  1.00  0.00     0.278 C 
ENDBRANCH  44  47
BRANCH  46  49
ATOM     49  O   UNL     1      89.908  90.525  75.706  1.00  0.00    -0.504 OA
ATOM     50  H   UNL     1      89.306  90.491  76.468  1.00  0.00     0.293 HD
ENDBRANCH  46  49
ENDBRANCH  40  41
ENDBRANCH  38  40
ENDBRANCH  37  38
ENDBRANCH   1  37
TORSDOF 11
ENDMDL
MODEL 2
REMARK VINA RESULT:    -6.598     17.196     22.638
REMARK INTER + INTRA:         -12.487
REMARK INTER:                 -10.582
REMARK INTRA:                  -1.905
REMARK UNBOUND:                -0.875
REMARK SMILES C=C(C)[C@]12C[C@@H](C)[C@@]34O[C@](Cc5ccccc5)(O[C@@H]1[C@@H]3C=C(COC(=O)Cc1ccc(O)c(OC)c1)C[C@]1(O)C(=O)C(C)=C[C@@H]41)O2
REMARK SMILES IDX 23 1 22 2 21 3 20 4 9 5 8 6 10 7 6 8 18 9 46 10 19 11 5 12
REMARK SMILES IDX 7 13 4 14 45 15 38 16 44 17 40 18 42 20 41 21 43 22 39 23
REMARK SMILES IDX 11 25 12 26 13 27 17 28 14 29 16 30 15 31 2 32 3 33 1 34
REMARK SMILES IDX 37 35 24 37 25 38 26 39 27 40 28 41 36 42 29 43 33 44 30 45
REMARK SMILES IDX 31 46 34 47 35 48 32 49
REMARK H PARENT 39 24 32 50
REMARK Flexibility Score: 90.00
ROOT
ATOM      1  C   UNL     1      75.476  92.541  70.739  1.00  0.00     0.264 C 
ENDROOT
BRANCH   1   2
ATOM      2  C   UNL     1      74.832  92.136  69.434  1.00  0.00    -0.033 C 
ATOM      3  C   UNL     1      75.454  91.239  68.642  1.00  0.00    -0.015 C 
BRANCH   3   4
ATOM      4  C   UNL     1      75.059  90.730  67.265  1.00  0.00     0.078 C 
ATOM      5  O   UNL     1      73.712  88.685  67.612  1.00  0.00    -0.319 OA
ATOM      6  C   UNL     1      73.650  90.050  67.094  1.00  0.00     0.095 C 
ATOM      7  C   UNL     1      74.897  87.946  67.262  1.00  0.00     0.289 C 
ATOM      8  C   UNL     1      73.323  90.007  65.544  1.00  0.00     0.023 C 
ATOM      9  O   UNL     1      76.075  88.620  67.700  1.00  0.00    -0.320 OA
ATOM     10  O   UNL     1      75.044  87.793  65.853  1.00  0.00    -0.313 OA
ATOM     11  C   UNL     1      76.107  89.707  66.762  1.00  0.00     0.170 C 
ATOM     12  C   UNL     1      74.617  89.825  64.692  1.00  0.00     0.049 C 
ATOM     13  C   UNL     1      72.279  88.962  65.118  1.00  0.00     0.011 C 
ATOM     14  C   UNL     1      75.679  89.021  65.441  1.00  0.00     0.122 C 
BRANCH   6  15
ATOM     15  C   UNL     1      72.585  90.755  67.983  1.00  0.00     0.086 C 
ATOM     16  C   UNL     1      72.631  92.297  68.006  1.00  0.00     0.140 CG0
ATOM     17  C   UNL     1      71.129  90.452  67.768  1.00  0.00    -0.010 C 
ATOM     18  C   UNL     1      71.169  92.665  68.138  1.00  0.00     0.190 C 
ATOM     19  G   UNL     1      73.477  92.832  69.161  1.00  0.00     0.000 G0
ATOM     20  C   UNL     1      70.304  91.499  67.876  1.00  0.00    -0.008 C 
ATOM     21  O   UNL     1      70.739  93.783  68.379  1.00  0.00    -0.291 OA
ATOM     22  C   UNL     1      68.829  91.560  67.810  1.00  0.00     0.048 C 
BRANCH  16  23
ATOM     23  O   UNL     1      73.016  92.878  66.771  1.00  0.00    -0.381 OA
ATOM     24  H   UNL     1      73.118  93.835  66.900  1.00  0.00     0.212 HD
ENDBRANCH  16  23
ENDBRANCH   6  15
BRANCH   7  25
ATOM     25  C   UNL     1      74.816  86.580  67.914  1.00  0.00     0.135 C 
BRANCH  25  26
ATOM     26  C   UNL     1      75.740  85.585  67.257  1.00  0.00    -0.040 A 
ATOM     27  C   UNL     1      77.119  85.687  67.441  1.00  0.00     0.004 A 
ATOM     28  C   UNL     1      75.216  84.561  66.468  1.00  0.00     0.004 A 
ATOM     29  C   UNL     1      77.974  84.767  66.833  1.00  0.00     0.000 A 
ATOM     30  C   UNL     1      76.071  83.641  65.861  1.00  0.00     0.000 A 
ATOM     31  C   UNL     1      77.450  83.744  66.044  1.00  0.00     0.000 A 
ENDBRANCH  25  26
ENDBRANCH   7  25
BRANCH  14  32
ATOM     32  C   UNL     1      76.852  88.678  64.581  1.00  0.00    -0.046 C 
ATOM     33  C   UNL     1      77.734  89.822  64.178  1.00  0.00     0.042 C 
ATOM     34  C   UNL     1      77.102  87.419  64.192  1.00  0.00     0.010 C 
ENDBRANCH  14  32
ENDBRANCH   3   4
BRANCH   2  35
ATOM     35  C   UNL     1      73.502  92.823  69.188  1.00  0.00     0.078 CG0
ATOM     36  G   UNL     1      72.642  92.292  68.042  1.00  0.00     0.000 G0
ENDBRANCH   2  35
ENDBRANCH   1   2
BRANCH   1  37
ATOM     37  O   UNL     1      75.506  93.950  70.826  1.00  0.00    -0.461 OA
BRANCH  37  38
ATOM     38  C   UNL     1      76.752  94.533  70.831  1.00  0.00     0.310 C 
ATOM     39  O   UNL     1      77.716  94.124  71.463  1.00  0.00    -0.252 OA
BRANCH  38  40
ATOM     40  C   UNL     1      76.743  95.751  69.938  1.00  0.00     0.158 C 
BRANCH  40  41
ATOM     41  C   UNL     1      77.560  95.568  68.685  1.00  0.00    -0.033 A 
ATOM     42  C   UNL     1      76.962  95.060  67.531  1.00  0.00     0.054 A 
ATOM     43  C   UNL     1      78.912  95.906  68.679  1.00  0.00     0.008 A 
ATOM     44  C   UNL     1      77.718  94.891  66.371  1.00  0.00     0.160 A 
ATOM     45  C   UNL     1      79.669  95.737  67.519  1.00  0.00     0.050 A 
ATOM     46  C   UNL     1      79.072  95.229  66.365  1.00  0.00     0.157 A 
BRANCH  44  47
ATOM     47  O   UNL     1      77.123  94.394  65.251  1.00  0.00    -0.493 OA
ATOM     48  C   UNL     1      76.455  93.139  65.373  1.00  0.00     0.278 C 
ENDBRANCH  44  47
BRANCH  46  49
ATOM     49  O   UNL     1      79.820  95.069  65.238  1.00  0.00    -0.504 OA
ATOM     50  H   UNL     1      80.054  95.944  64.887  1.00  0.00     0.293 HD
ENDBRANCH  46  49
ENDBRANCH  40  41
ENDBRANCH  38  40
ENDBRANCH  37  38
ENDBRANCH   1  37
TORSDOF 11
ENDMDL
MODEL 3
REMARK VINA RESULT:    -6.183     18.038     22.192
REMARK INTER + INTRA:         -11.756
REMARK INTER:                  -9.192
REMARK INTRA:                  -2.564
REMARK UNBOUND:                -0.875
REMARK SMILES C=C(C)[C@]12C[C@@H](C)[C@@]34O[C@](Cc5ccccc5)(O[C@@H]1[C@@H]3C=C(COC(=O)Cc1ccc(O)c(OC)c1)C[C@]1(O)C(=O)C(C)=C[C@@H]41)O2
REMARK SMILES IDX 23 1 22 2 21 3 20 4 9 5 8 6 10 7 6 8 18 9 46 10 19 11 5 12
REMARK SMILES IDX 7 13 4 14 45 15 38 16 44 17 40 18 42 20 41 21 43 22 39 23
REMARK SMILES IDX 11 25 12 26 13 27 17 28 14 29 16 30 15 31 2 32 3 33 1 34
REMARK SMILES IDX 37 35 24 37 25 38 26 39 27 40 28 41 36 42 29 43 33 44 30 45
REMARK SMILES IDX 31 46 34 47 35 48 32 49
REMARK H PARENT 39 24 32 50
REMARK Flexibility Score: 90.00
ROOT
ATOM      1  C   UNL     1     102.959  80.607  85.478  1.00  0.00     0.264 C 
ENDROOT
BRANCH   1   2
ATOM      2  C   UNL     1     101.785  79.966  84.776  1.00  0.00    -0.033 C 
ATOM      3  C   UNL     1     101.066  80.692  83.897  1.00  0.00    -0.015 C 
BRANCH   3   4
ATOM      4  C   UNL     1      99.812  80.311  83.128  1.00  0.00     0.078 C 
ATOM      5  O   UNL     1     100.550  79.405  80.948  1.00  0.00    -0.319 OA
ATOM      6  C   UNL     1      99.864  79.049  82.188  1.00  0.00     0.095 C 
ATOM      7  C   UNL     1     100.192  80.683  80.390  1.00  0.00     0.289 C 
ATOM      8  C   UNL     1      98.371  78.633  81.860  1.00  0.00     0.023 C 
ATOM      9  O   UNL     1     100.426  81.737  81.321  1.00  0.00    -0.320 OA
ATOM     10  O   UNL     1      98.808  80.761  80.060  1.00  0.00    -0.313 OA
ATOM     11  C   UNL     1      99.353  81.498  82.246  1.00  0.00     0.170 C 
ATOM     12  C   UNL     1      97.433  79.878  81.789  1.00  0.00     0.049 C 
ATOM     13  C   UNL     1      98.186  77.782  80.593  1.00  0.00     0.011 C 
ATOM     14  C   UNL     1      98.180  81.122  81.308  1.00  0.00     0.122 C 
BRANCH   6  15
ATOM     15  C   UNL     1     100.748  77.931  82.814  1.00  0.00     0.086 C 
ATOM     16  C   UNL     1     100.558  77.680  84.324  1.00  0.00     0.140 CG0
ATOM     17  C   UNL     1     100.715  76.549  82.223  1.00  0.00    -0.010 C 
ATOM     18  C   UNL     1     100.779  76.186  84.437  1.00  0.00     0.190 C 
ATOM     19  G   UNL     1     101.545  78.483  85.171  1.00  0.00     0.000 G0
ATOM     20  C   UNL     1     100.759  75.547  83.107  1.00  0.00    -0.008 C 
ATOM     21  O   UNL     1     100.906  75.566  85.481  1.00  0.00    -0.291 OA
ATOM     22  C   UNL     1     100.827  74.088  82.889  1.00  0.00     0.048 C 
BRANCH  16  23
ATOM     23  O   UNL     1      99.225  77.860  84.773  1.00  0.00    -0.381 OA
ATOM     24  H   UNL     1      99.154  78.739  85.181  1.00  0.00     0.212 HD
ENDBRANCH  16  23
ENDBRANCH   6  15
BRANCH   7  25
ATOM     25  C   UNL     1     101.023  80.908  79.144  1.00  0.00     0.135 C 
BRANCH  25  26
ATOM     26  C   UNL     1     100.165  81.189  77.935  1.00  0.00    -0.040 A 
ATOM     27  C   UNL     1      99.701  82.482  77.695  1.00  0.00     0.004 A 
ATOM     28  C   UNL     1      99.837  80.156  77.057  1.00  0.00     0.004 A 
ATOM     29  C   UNL     1      98.907  82.742  76.577  1.00  0.00     0.000 A 
ATOM     30  C   UNL     1      99.044  80.416  75.939  1.00  0.00     0.000 A 
ATOM     31  C   UNL     1      98.579  81.709  75.700  1.00  0.00     0.000 A 
ENDBRANCH  25  26
ENDBRANCH   7  25
BRANCH  14  32
ATOM     32  C   UNL     1      97.268  82.278  81.058  1.00  0.00    -0.046 C 
ATOM     33  C   UNL     1      97.050  83.211  82.212  1.00  0.00     0.042 C 
ATOM     34  C   UNL     1      96.676  82.472  79.869  1.00  0.00     0.010 C 
ENDBRANCH  14  32
ENDBRANCH   3   4
BRANCH   2  35
ATOM     35  C   UNL     1     101.572  78.518  85.175  1.00  0.00     0.078 CG0
ATOM     36  G   UNL     1     100.577  77.705  84.348  1.00  0.00     0.000 G0
ENDBRANCH   2  35
ENDBRANCH   1   2
BRANCH   1  37
ATOM     37  O   UNL     1     102.595  81.899  85.913  1.00  0.00    -0.461 OA
BRANCH  37  38
ATOM     38  C   UNL     1     103.004  82.254  87.178  1.00  0.00     0.310 C 
ATOM     39  O   UNL     1     104.169  82.384  87.528  1.00  0.00    -0.252 OA
BRANCH  38  40
ATOM     40  C   UNL     1     101.796  82.456  88.062  1.00  0.00     0.158 C 
BRANCH  40  41
ATOM     41  C   UNL     1     100.494  82.212  87.343  1.00  0.00    -0.033 A 
ATOM     42  C   UNL     1      99.804  81.015  87.537  1.00  0.00     0.054 A 
ATOM     43  C   UNL     1      99.979  83.183  86.484  1.00  0.00     0.008 A 
ATOM     44  C   UNL     1      98.599  80.789  86.871  1.00  0.00     0.160 A 
ATOM     45  C   UNL     1      98.774  82.957  85.819  1.00  0.00     0.050 A 
ATOM     46  C   UNL     1      98.084  81.761  86.011  1.00  0.00     0.157 A 
BRANCH  44  47
ATOM     47  O   UNL     1      97.934  79.617  87.068  1.00  0.00    -0.493 OA
ATOM     48  C   UNL     1      98.488  78.709  88.019  1.00  0.00     0.278 C 
ENDBRANCH  44  47
BRANCH  46  49
ATOM     49  O   UNL     1      96.908  81.552  85.357  1.00  0.00    -0.504 OA
ATOM     50  H   UNL     1      96.278  82.249  85.609  1.00  0.00     0.293 HD
ENDBRANCH  46  49
ENDBRANCH  40  41
ENDBRANCH  38  40
ENDBRANCH  37  38
ENDBRANCH   1  37
TORSDOF 11
ENDMDL
MODEL 4
REMARK VINA RESULT:    -6.067      3.064      4.019
REMARK INTER + INTRA:         -11.552
REMARK INTER:                 -10.505
REMARK INTRA:                  -1.047
REMARK UNBOUND:                -0.875
REMARK SMILES C=C(C)[C@]12C[C@@H](C)[C@@]34O[C@](Cc5ccccc5)(O[C@@H]1[C@@H]3C=C(COC(=O)Cc1ccc(O)c(OC)c1)C[C@]1(O)C(=O)C(C)=C[C@@H]41)O2
REMARK SMILES IDX 23 1 22 2 21 3 20 4 9 5 8 6 10 7 6 8 18 9 46 10 19 11 5 12
REMARK SMILES IDX 7 13 4 14 45 15 38 16 44 17 40 18 42 20 41 21 43 22 39 23
REMARK SMILES IDX 11 25 12 26 13 27 17 28 14 29 16 30 15 31 2 32 3 33 1 34
REMARK SMILES IDX 37 35 24 37 25 38 26 39 27 40 28 41 36 42 29 43 33 44 30 45
REMARK SMILES IDX 31 46 34 47 35 48 32 49
REMARK H PARENT 39 24 32 50
REMARK Flexibility Score: 90.00
ROOT
ATOM      1  C   UNL     1      96.569  96.046  75.064  1.00  0.00     0.264 C 
ENDROOT
BRANCH   1   2
ATOM      2  C   UNL     1      96.623  96.805  73.759  1.00  0.00    -0.033 C 
ATOM      3  C   UNL     1      95.530  97.474  73.340  1.00  0.00    -0.015 C 
BRANCH   3   4
ATOM      4  C   UNL     1      95.305  98.239  72.046  1.00  0.00     0.078 C 
ATOM      5  O   UNL     1      95.907 100.597  72.489  1.00  0.00    -0.319 OA
ATOM      6  C   UNL     1      96.279  99.426  71.699  1.00  0.00     0.095 C 
ATOM      7  C   UNL     1      94.493 100.852  72.585  1.00  0.00     0.289 C 
ATOM      8  C   UNL     1      96.103  99.756  70.159  1.00  0.00     0.023 C 
ATOM      9  O   UNL     1      93.802  99.733  73.134  1.00  0.00    -0.320 OA
ATOM     10  O   UNL     1      93.898 101.086  71.312  1.00  0.00    -0.313 OA
ATOM     11  C   UNL     1      93.871  98.825  72.024  1.00  0.00     0.170 C 
ATOM     12  C   UNL     1      94.636  99.513  69.687  1.00  0.00     0.049 C 
ATOM     13  C   UNL     1      96.551 101.163  69.730  1.00  0.00     0.011 C 
ATOM     14  C   UNL     1      93.631  99.759  70.812  1.00  0.00     0.122 C 
BRANCH   6  15
ATOM     15  C   UNL     1      97.732  99.097  72.150  1.00  0.00     0.086 C 
ATOM     16  C   UNL     1      98.228  97.666  71.858  1.00  0.00     0.140 CG0
ATOM     17  C   UNL     1      98.864  99.964  71.675  1.00  0.00    -0.010 C 
ATOM     18  C   UNL     1      99.698  97.883  71.570  1.00  0.00     0.190 C 
ATOM     19  G   UNL     1      97.995  96.722  73.037  1.00  0.00     0.000 G0
ATOM     20  C   UNL     1      99.992  99.314  71.367  1.00  0.00    -0.008 C 
ATOM     21  O   UNL     1     100.537  97.001  71.464  1.00  0.00    -0.291 OA
ATOM     22  C   UNL     1     101.309  99.839  70.954  1.00  0.00     0.048 C 
BRANCH  16  23
ATOM     23  O   UNL     1      97.723  97.120  70.650  1.00  0.00    -0.381 OA
ATOM     24  H   UNL     1      98.427  96.595  70.233  1.00  0.00     0.212 HD
ENDBRANCH  16  23
ENDBRANCH   6  15
BRANCH   7  25
ATOM     25  C   UNL     1      94.288 102.065  73.470  1.00  0.00     0.135 C 
BRANCH  25  26
ATOM     26  C   UNL     1      92.825 102.367  73.685  1.00  0.00    -0.040 A 
ATOM     27  C   UNL     1      92.200 103.358  72.929  1.00  0.00     0.004 A 
ATOM     28  C   UNL     1      92.098 101.654  74.638  1.00  0.00     0.004 A 
ATOM     29  C   UNL     1      90.847 103.637  73.127  1.00  0.00     0.000 A 
ATOM     30  C   UNL     1      90.746 101.934  74.837  1.00  0.00     0.000 A 
ATOM     31  C   UNL     1      90.121 102.925  74.081  1.00  0.00     0.000 A 
ENDBRANCH  25  26
ENDBRANCH   7  25
BRANCH  14  32
ATOM     32  C   UNL     1      92.215  99.710  70.338  1.00  0.00    -0.046 C 
ATOM     33  C   UNL     1      91.408 100.959  70.535  1.00  0.00     0.042 C 
ATOM     34  C   UNL     1      91.695  98.613  69.769  1.00  0.00     0.010 C 
ENDBRANCH  14  32
ENDBRANCH   3   4
BRANCH   2  35
ATOM     35  C   UNL     1      97.971  96.709  73.071  1.00  0.00     0.078 CG0
ATOM     36  G   UNL     1      98.226  97.655  71.898  1.00  0.00     0.000 G0
ENDBRANCH   2  35
ENDBRANCH   1   2
BRANCH   1  37
ATOM     37  O   UNL     1      97.871  95.941  75.598  1.00  0.00    -0.461 OA
BRANCH  37  38
ATOM     38  C   UNL     1      97.970  95.959  76.970  1.00  0.00     0.310 C 
ATOM     39  O   UNL     1      98.933  95.559  77.610  1.00  0.00    -0.252 OA
BRANCH  38  40
ATOM     40  C   UNL     1      96.710  96.547  77.559  1.00  0.00     0.158 C 
BRANCH  40  41
ATOM     41  C   UNL     1      96.307  95.894  78.856  1.00  0.00    -0.033 A 
ATOM     42  C   UNL     1      96.611  96.511  80.071  1.00  0.00     0.054 A 
ATOM     43  C   UNL     1      95.631  94.675  78.843  1.00  0.00     0.008 A 
ATOM     44  C   UNL     1      96.239  95.907  81.272  1.00  0.00     0.160 A 
ATOM     45  C   UNL     1      95.258  94.071  80.045  1.00  0.00     0.050 A 
ATOM     46  C   UNL     1      95.562  94.687  81.258  1.00  0.00     0.157 A 
BRANCH  44  47
ATOM     47  O   UNL     1      96.541  96.518  82.451  1.00  0.00    -0.493 OA
ATOM     48  C   UNL     1      96.321  97.926  82.526  1.00  0.00     0.278 C 
ENDBRANCH  44  47
BRANCH  46  49
ATOM     49  O   UNL     1      95.192  94.088  82.425  1.00  0.00    -0.504 OA
ATOM     50  H   UNL     1      95.985  93.932  82.965  1.00  0.00     0.293 HD
ENDBRANCH  46  49
ENDBRANCH  40  41
ENDBRANCH  38  40
ENDBRANCH  37  38
ENDBRANCH   1  37
TORSDOF 11
ENDMDL
MODEL 5
REMARK VINA RESULT:    -5.994     18.056     21.522
REMARK INTER + INTRA:         -11.424
REMARK INTER:                 -11.078
REMARK INTRA:                  -0.345
REMARK UNBOUND:                -0.875
REMARK SMILES C=C(C)[C@]12C[C@@H](C)[C@@]34O[C@](Cc5ccccc5)(O[C@@H]1[C@@H]3C=C(COC(=O)Cc1ccc(O)c(OC)c1)C[C@]1(O)C(=O)C(C)=C[C@@H]41)O2
REMARK SMILES IDX 23 1 22 2 21 3 20 4 9 5 8 6 10 7 6 8 18 9 46 10 19 11 5 12
REMARK SMILES IDX 7 13 4 14 45 15 38 16 44 17 40 18 42 20 41 21 43 22 39 23
REMARK SMILES IDX 11 25 12 26 13 27 17 28 14 29 16 30 15 31 2 32 3 33 1 34
REMARK SMILES IDX 37 35 24 37 25 38 26 39 27 40 28 41 36 42 29 43 33 44 30 45
REMARK SMILES IDX 31 46 34 47 35 48 32 49
REMARK H PARENT 39 24 32 50
REMARK Flexibility Score: 90.00
ROOT
ATOM      1  C   UNL     1      95.994  84.915  84.595  1.00  0.00     0.264 C 
ENDROOT
BRANCH   1   2
ATOM      2  C   UNL     1      96.816  83.700  84.233  1.00  0.00    -0.033 C 
ATOM      3  C   UNL     1      96.916  82.685  85.115  1.00  0.00    -0.015 C 
BRANCH   3   4
ATOM      4  C   UNL     1      97.731  81.405  85.025  1.00  0.00     0.078 C 
ATOM      5  O   UNL     1      96.257  79.679  84.040  1.00  0.00    -0.319 OA
ATOM      6  C   UNL     1      97.481  80.442  83.805  1.00  0.00     0.095 C 
ATOM      7  C   UNL     1      96.092  79.176  85.379  1.00  0.00     0.289 C 
ATOM      8  C   UNL     1      98.710  79.446  83.720  1.00  0.00     0.023 C 
ATOM      9  O   UNL     1      96.125  80.232  86.336  1.00  0.00    -0.320 OA
ATOM     10  O   UNL     1      97.139  78.284  85.754  1.00  0.00    -0.313 OA
ATOM     11  C   UNL     1      97.523  80.558  86.304  1.00  0.00     0.170 C 
ATOM     12  C   UNL     1      99.279  79.119  85.135  1.00  0.00     0.049 C 
ATOM     13  C   UNL     1      98.447  78.137  82.959  1.00  0.00     0.011 C 
ATOM     14  C   UNL     1      98.190  79.163  86.207  1.00  0.00     0.122 C 
BRANCH   6  15
ATOM     15  C   UNL     1      97.189  81.256  82.511  1.00  0.00     0.086 C 
ATOM     16  C   UNL     1      98.083  82.489  82.266  1.00  0.00     0.140 CG0
ATOM     17  C   UNL     1      97.192  80.553  81.182  1.00  0.00    -0.010 C 
ATOM     18  C   UNL     1      98.204  82.510  80.757  1.00  0.00     0.190 C 
ATOM     19  G   UNL     1      97.464  83.770  82.822  1.00  0.00     0.000 G0
ATOM     20  C   UNL     1      97.730  81.242  80.171  1.00  0.00    -0.008 C 
ATOM     21  O   UNL     1      98.675  83.424  80.097  1.00  0.00    -0.291 OA
ATOM     22  C   UNL     1      97.828  80.906  78.736  1.00  0.00     0.048 C 
BRANCH  16  23
ATOM     23  O   UNL     1      99.420  82.325  82.710  1.00  0.00    -0.381 OA
ATOM     24  H   UNL     1     100.016  82.676  82.027  1.00  0.00     0.212 HD
ENDBRANCH  16  23
ENDBRANCH   6  15
BRANCH   7  25
ATOM     25  C   UNL     1      94.762  78.456  85.456  1.00  0.00     0.135 C 
BRANCH  25  26
ATOM     26  C   UNL     1      93.597  79.413  85.406  1.00  0.00    -0.040 A 
ATOM     27  C   UNL     1      93.814  80.759  85.109  1.00  0.00     0.004 A 
ATOM     28  C   UNL     1      92.304  78.953  85.653  1.00  0.00     0.004 A 
ATOM     29  C   UNL     1      92.737  81.645  85.062  1.00  0.00     0.000 A 
ATOM     30  C   UNL     1      91.227  79.839  85.606  1.00  0.00     0.000 A 
ATOM     31  C   UNL     1      91.444  81.185  85.311  1.00  0.00     0.000 A 
ENDBRANCH  25  26
ENDBRANCH   7  25
BRANCH  14  32
ATOM     32  C   UNL     1      98.671  78.676  87.535  1.00  0.00    -0.046 C 
ATOM     33  C   UNL     1      98.386  77.239  87.857  1.00  0.00     0.042 C 
ATOM     34  C   UNL     1      99.321  79.479  88.391  1.00  0.00     0.010 C 
ENDBRANCH  14  32
ENDBRANCH   3   4
BRANCH   2  35
ATOM     35  C   UNL     1      97.440  83.793  82.854  1.00  0.00     0.078 CG0
ATOM     36  G   UNL     1      98.075  82.524  82.287  1.00  0.00     0.000 G0
ENDBRANCH   2  35
ENDBRANCH   1   2
BRANCH   1  37
ATOM     37  O   UNL     1      95.112  84.586  85.647  1.00  0.00    -0.461 OA
BRANCH  37  38
ATOM     38  C   UNL     1      95.354  85.194  86.857  1.00  0.00     0.310 C 
ATOM     39  O   UNL     1      95.973  84.692  87.784  1.00  0.00    -0.252 OA
BRANCH  38  40
ATOM     40  C   UNL     1      94.736  86.573  86.860  1.00  0.00     0.158 C 
BRANCH  40  41
ATOM     41  C   UNL     1      94.104  86.930  88.180  1.00  0.00    -0.033 A 
ATOM     42  C   UNL     1      94.686  87.906  88.991  1.00  0.00     0.054 A 
ATOM     43  C   UNL     1      92.937  86.288  88.592  1.00  0.00     0.008 A 
ATOM     44  C   UNL     1      94.100  88.237  90.213  1.00  0.00     0.160 A 
ATOM     45  C   UNL     1      92.351  86.619  89.814  1.00  0.00     0.050 A 
ATOM     46  C   UNL     1      92.933  87.593  90.625  1.00  0.00     0.157 A 
BRANCH  44  47
ATOM     47  O   UNL     1      94.678  89.190  90.996  1.00  0.00    -0.493 OA
ATOM     48  C   UNL     1      95.404  90.223  90.331  1.00  0.00     0.278 C 
ENDBRANCH  44  47
BRANCH  46  49
ATOM     49  O   UNL     1      92.352  87.909  91.815  1.00  0.00    -0.504 OA
ATOM     50  H   UNL     1      91.444  87.561  91.827  1.00  0.00     0.293 HD
ENDBRANCH  46  49
ENDBRANCH  40  41
ENDBRANCH  38  40
ENDBRANCH  37  38
ENDBRANCH   1  37
TORSDOF 11
ENDMDL
MODEL 6
REMARK VINA RESULT:    -5.915     16.463     21.585
REMARK INTER + INTRA:         -11.285
REMARK INTER:                 -10.382
REMARK INTRA:                  -0.903
REMARK UNBOUND:                -0.875
REMARK SMILES C=C(C)[C@]12C[C@@H](C)[C@@]34O[C@](Cc5ccccc5)(O[C@@H]1[C@@H]3C=C(COC(=O)Cc1ccc(O)c(OC)c1)C[C@]1(O)C(=O)C(C)=C[C@@H]41)O2
REMARK SMILES IDX 23 1 22 2 21 3 20 4 9 5 8 6 10 7 6 8 18 9 46 10 19 11 5 12
REMARK SMILES IDX 7 13 4 14 45 15 38 16 44 17 40 18 42 20 41 21 43 22 39 23
REMARK SMILES IDX 11 25 12 26 13 27 17 28 14 29 16 30 15 31 2 32 3 33 1 34
REMARK SMILES IDX 37 35 24 37 25 38 26 39 27 40 28 41 36 42 29 43 33 44 30 45
REMARK SMILES IDX 31 46 34 47 35 48 32 49
REMARK H PARENT 39 24 32 50
REMARK Flexibility Score: 90.00
ROOT
ATOM      1  C   UNL     1      77.163  94.436  66.224  1.00  0.00     0.264 C 
ENDROOT
BRANCH   1   2
ATOM      2  C   UNL     1      76.114  93.443  66.666  1.00  0.00    -0.033 C 
ATOM      3  C   UNL     1      76.073  92.226  66.088  1.00  0.00    -0.015 C 
BRANCH   3   4
ATOM      4  C   UNL     1      75.082  91.092  66.296  1.00  0.00     0.078 C 
ATOM      5  O   UNL     1      76.022  89.628  68.055  1.00  0.00    -0.319 OA
ATOM      6  C   UNL     1      74.901  90.513  67.749  1.00  0.00     0.095 C 
ATOM      7  C   UNL     1      76.418  88.744  66.989  1.00  0.00     0.289 C 
ATOM      8  C   UNL     1      73.554  89.678  67.768  1.00  0.00     0.023 C 
ATOM      9  O   UNL     1      76.761  89.472  65.813  1.00  0.00    -0.320 OA
ATOM     10  O   UNL     1      75.369  87.860  66.602  1.00  0.00    -0.313 OA
ATOM     11  C   UNL     1      75.456  89.894  65.388  1.00  0.00     0.170 C 
ATOM     12  C   UNL     1      73.288  88.993  66.392  1.00  0.00     0.049 C 
ATOM     13  C   UNL     1      73.441  88.634  68.890  1.00  0.00     0.011 C 
ATOM     14  C   UNL     1      74.590  88.641  65.673  1.00  0.00     0.122 C 
BRANCH   6  15
ATOM     15  C   UNL     1      75.000  91.647  68.810  1.00  0.00     0.086 C 
ATOM     16  C   UNL     1      74.267  92.962  68.472  1.00  0.00     0.140 CG0
ATOM     17  C   UNL     1      74.581  91.368  70.227  1.00  0.00    -0.010 C 
ATOM     18  C   UNL     1      73.802  93.435  69.832  1.00  0.00     0.190 C 
ATOM     19  G   UNL     1      75.184  93.972  67.782  1.00  0.00     0.000 G0
ATOM     20  C   UNL     1      73.930  92.364  70.837  1.00  0.00    -0.008 C 
ATOM     21  O   UNL     1      73.331  94.536  70.076  1.00  0.00    -0.291 OA
ATOM     22  C   UNL     1      73.449  92.473  72.230  1.00  0.00     0.048 C 
BRANCH  16  23
ATOM     23  O   UNL     1      73.063  92.777  67.747  1.00  0.00    -0.381 OA
ATOM     24  H   UNL     1      73.205  92.077  67.089  1.00  0.00     0.212 HD
ENDBRANCH  16  23
ENDBRANCH   6  15
BRANCH   7  25
ATOM     25  C   UNL     1      77.612  87.937  67.459  1.00  0.00     0.135 C 
BRANCH  25  26
ATOM     26  C   UNL     1      77.583  86.524  66.931  1.00  0.00    -0.040 A 
ATOM     27  C   UNL     1      78.250  86.209  65.747  1.00  0.00     0.004 A 
ATOM     28  C   UNL     1      76.890  85.534  67.627  1.00  0.00     0.004 A 
ATOM     29  C   UNL     1      78.224  84.902  65.259  1.00  0.00     0.000 A 
ATOM     30  C   UNL     1      76.864  84.227  67.138  1.00  0.00     0.000 A 
ATOM     31  C   UNL     1      77.531  83.912  65.954  1.00  0.00     0.000 A 
ENDBRANCH  25  26
ENDBRANCH   7  25
BRANCH  14  32
ATOM     32  C   UNL     1      74.365  87.824  64.444  1.00  0.00    -0.046 C 
ATOM     33  C   UNL     1      74.911  86.427  64.468  1.00  0.00     0.042 C 
ATOM     34  C   UNL     1      73.711  88.310  63.378  1.00  0.00     0.010 C 
ENDBRANCH  14  32
ENDBRANCH   3   4
BRANCH   2  35
ATOM     35  C   UNL     1      75.212  93.979  67.761  1.00  0.00     0.078 CG0
ATOM     36  G   UNL     1      74.290  92.980  68.460  1.00  0.00     0.000 G0
ENDBRANCH   2  35
ENDBRANCH   1   2
BRANCH   1  37
ATOM     37  O   UNL     1      77.384  95.373  67.257  1.00  0.00    -0.461 OA
BRANCH  37  38
ATOM     38  C   UNL     1      78.214  96.428  66.954  1.00  0.00     0.310 C 
ATOM     39  O   UNL     1      78.070  97.184  66.004  1.00  0.00    -0.252 OA
BRANCH  38  40
ATOM     40  C   UNL     1      79.325  96.504  67.974  1.00  0.00     0.158 C 
BRANCH  40  41
ATOM     41  C   UNL     1      78.829  96.399  69.393  1.00  0.00    -0.033 A 
ATOM     42  C   UNL     1      78.090  95.285  69.793  1.00  0.00     0.054 A 
ATOM     43  C   UNL     1      79.109  97.414  70.307  1.00  0.00     0.008 A 
ATOM     44  C   UNL     1      77.631  95.187  71.106  1.00  0.00     0.160 A 
ATOM     45  C   UNL     1      78.650  97.317  71.621  1.00  0.00     0.050 A 
ATOM     46  C   UNL     1      77.911  96.204  72.020  1.00  0.00     0.157 A 
BRANCH  44  47
ATOM     47  O   UNL     1      76.910  94.095  71.485  1.00  0.00    -0.493 OA
ATOM     48  C   UNL     1      77.581  93.119  72.279  1.00  0.00     0.278 C 
ENDBRANCH  44  47
BRANCH  46  49
ATOM     49  O   UNL     1      77.469  96.119  73.306  1.00  0.00    -0.504 OA
ATOM     50  H   UNL     1      77.017  95.268  73.430  1.00  0.00     0.293 HD
ENDBRANCH  46  49
ENDBRANCH  40  41
ENDBRANCH  38  40
ENDBRANCH  37  38
ENDBRANCH   1  37
TORSDOF 11
ENDMDL
MODEL 7
REMARK VINA RESULT:    -5.888     31.222     37.571
REMARK INTER + INTRA:         -11.238
REMARK INTER:                  -8.991
REMARK INTRA:                  -2.246
REMARK UNBOUND:                -0.875
REMARK SMILES C=C(C)[C@]12C[C@@H](C)[C@@]34O[C@](Cc5ccccc5)(O[C@@H]1[C@@H]3C=C(COC(=O)Cc1ccc(O)c(OC)c1)C[C@]1(O)C(=O)C(C)=C[C@@H]41)O2
REMARK SMILES IDX 23 1 22 2 21 3 20 4 9 5 8 6 10 7 6 8 18 9 46 10 19 11 5 12
REMARK SMILES IDX 7 13 4 14 45 15 38 16 44 17 40 18 42 20 41 21 43 22 39 23
REMARK SMILES IDX 11 25 12 26 13 27 17 28 14 29 16 30 15 31 2 32 3 33 1 34
REMARK SMILES IDX 37 35 24 37 25 38 26 39 27 40 28 41 36 42 29 43 33 44 30 45
REMARK SMILES IDX 31 46 34 47 35 48 32 49
REMARK H PARENT 39 24 32 50
REMARK Flexibility Score: 90.00
ROOT
ATOM      1  C   UNL     1      74.936  67.543  85.455  1.00  0.00     0.264 C 
ENDROOT
BRANCH   1   2
ATOM      2  C   UNL     1      73.615  68.113  85.915  1.00  0.00    -0.033 C 
ATOM      3  C   UNL     1      73.546  68.737  87.109  1.00  0.00    -0.015 C 
BRANCH   3   4
ATOM      4  C   UNL     1      72.339  69.320  87.824  1.00  0.00     0.078 C 
ATOM      5  O   UNL     1      72.200  71.704  87.177  1.00  0.00    -0.319 OA
ATOM      6  C   UNL     1      71.495  70.427  87.088  1.00  0.00     0.095 C 
ATOM      7  C   UNL     1      72.781  71.999  88.461  1.00  0.00     0.289 C 
ATOM      8  C   UNL     1      70.103  70.545  87.835  1.00  0.00     0.023 C 
ATOM      9  O   UNL     1      73.695  70.981  88.862  1.00  0.00    -0.320 OA
ATOM     10  O   UNL     1      71.803  72.067  89.495  1.00  0.00    -0.313 OA
ATOM     11  C   UNL     1      72.774  69.927  89.181  1.00  0.00     0.170 C 
ATOM     12  C   UNL     1      70.249  70.269  89.363  1.00  0.00     0.049 C 
ATOM     13  C   UNL     1      69.351  71.869  87.624  1.00  0.00     0.011 C 
ATOM     14  C   UNL     1      71.624  70.690  89.885  1.00  0.00     0.122 C 
BRANCH   6  15
ATOM     15  C   UNL     1      71.413  70.135  85.562  1.00  0.00     0.086 C 
ATOM     16  C   UNL     1      71.154  68.666  85.164  1.00  0.00     0.140 CG0
ATOM     17  C   UNL     1      70.436  70.903  84.716  1.00  0.00    -0.010 C 
ATOM     18  C   UNL     1      70.312  68.810  83.914  1.00  0.00     0.190 C 
ATOM     19  G   UNL     1      72.452  67.901  84.911  1.00  0.00     0.000 G0
ATOM     20  C   UNL     1      69.822  70.193  83.764  1.00  0.00    -0.008 C 
ATOM     21  O   UNL     1      70.023  67.905  83.147  1.00  0.00    -0.291 OA
ATOM     22  C   UNL     1      68.879  70.628  82.713  1.00  0.00     0.048 C 
BRANCH  16  23
ATOM     23  O   UNL     1      70.309  67.968  86.063  1.00  0.00    -0.381 OA
ATOM     24  H   UNL     1      69.405  68.309  85.962  1.00  0.00     0.212 HD
ENDBRANCH  16  23
ENDBRANCH   6  15
BRANCH   7  25
ATOM     25  C   UNL     1      73.505  73.327  88.362  1.00  0.00     0.135 C 
BRANCH  25  26
ATOM     26  C   UNL     1      74.115  73.738  89.679  1.00  0.00    -0.040 A 
ATOM     27  C   UNL     1      75.184  73.014  90.208  1.00  0.00     0.004 A 
ATOM     28  C   UNL     1      73.613  74.842  90.367  1.00  0.00     0.004 A 
ATOM     29  C   UNL     1      75.749  73.394  91.426  1.00  0.00     0.000 A 
ATOM     30  C   UNL     1      74.178  75.222  91.584  1.00  0.00     0.000 A 
ATOM     31  C   UNL     1      75.246  74.497  92.113  1.00  0.00     0.000 A 
ENDBRANCH  25  26
ENDBRANCH   7  25
BRANCH  14  32
ATOM     32  C   UNL     1      71.723  70.606  91.373  1.00  0.00    -0.046 C 
ATOM     33  C   UNL     1      70.970  69.485  92.025  1.00  0.00     0.042 C 
ATOM     34  C   UNL     1      72.446  71.482  92.087  1.00  0.00     0.010 C 
ENDBRANCH  14  32
ENDBRANCH   3   4
BRANCH   2  35
ATOM     35  C   UNL     1      72.495  67.901  84.915  1.00  0.00     0.078 CG0
ATOM     36  G   UNL     1      71.188  68.654  85.159  1.00  0.00     0.000 G0
ENDBRANCH   2  35
ENDBRANCH   1   2
BRANCH   1  37
ATOM     37  O   UNL     1      75.834  68.599  85.190  1.00  0.00    -0.461 OA
BRANCH  37  38
ATOM     38  C   UNL     1      75.707  69.212  83.965  1.00  0.00     0.310 C 
ATOM     39  O   UNL     1      76.064  68.732  82.898  1.00  0.00    -0.252 OA
BRANCH  38  40
ATOM     40  C   UNL     1      75.061  70.566  84.144  1.00  0.00     0.158 C 
BRANCH  40  41
ATOM     41  C   UNL     1      75.943  71.547  84.871  1.00  0.00    -0.033 A 
ATOM     42  C   UNL     1      76.730  72.446  84.150  1.00  0.00     0.054 A 
ATOM     43  C   UNL     1      75.972  71.558  86.266  1.00  0.00     0.008 A 
ATOM     44  C   UNL     1      77.546  73.355  84.823  1.00  0.00     0.160 A 
ATOM     45  C   UNL     1      76.789  72.467  86.939  1.00  0.00     0.050 A 
ATOM     46  C   UNL     1      77.576  73.365  86.218  1.00  0.00     0.157 A 
BRANCH  44  47
ATOM     47  O   UNL     1      78.310  74.226  84.108  1.00  0.00    -0.493 OA
ATOM     48  C   UNL     1      78.648  73.849  82.774  1.00  0.00     0.278 C 
ENDBRANCH  44  47
BRANCH  46  49
ATOM     49  O   UNL     1      78.368  74.248  86.887  1.00  0.00    -0.504 OA
ATOM     50  H   UNL     1      78.529  73.913  87.785  1.00  0.00     0.293 HD
ENDBRANCH  46  49
ENDBRANCH  40  41
ENDBRANCH  38  40
ENDBRANCH  37  38
ENDBRANCH   1  37
TORSDOF 11
ENDMDL
MODEL 8
REMARK VINA RESULT:    -5.817     28.116     33.828
REMARK INTER + INTRA:         -11.113
REMARK INTER:                 -10.315
REMARK INTRA:                  -0.798
REMARK UNBOUND:                -0.875
REMARK SMILES C=C(C)[C@]12C[C@@H](C)[C@@]34O[C@](Cc5ccccc5)(O[C@@H]1[C@@H]3C=C(COC(=O)Cc1ccc(O)c(OC)c1)C[C@]1(O)C(=O)C(C)=C[C@@H]41)O2
REMARK SMILES IDX 23 1 22 2 21 3 20 4 9 5 8 6 10 7 6 8 18 9 46 10 19 11 5 12
REMARK SMILES IDX 7 13 4 14 45 15 38 16 44 17 40 18 42 20 41 21 43 22 39 23
REMARK SMILES IDX 11 25 12 26 13 27 17 28 14 29 16 30 15 31 2 32 3 33 1 34
REMARK SMILES IDX 37 35 24 37 25 38 26 39 27 40 28 41 36 42 29 43 33 44 30 45
REMARK SMILES IDX 31 46 34 47 35 48 32 49
REMARK H PARENT 39 24 32 50
REMARK Flexibility Score: 90.00
ROOT
ATOM      1  C   UNL     1      63.082  86.214  69.257  1.00  0.00     0.264 C 
ENDROOT
BRANCH   1   2
ATOM      2  C   UNL     1      62.450  85.775  70.558  1.00  0.00    -0.033 C 
ATOM      3  C   UNL     1      63.181  85.061  71.438  1.00  0.00    -0.015 C 
BRANCH   3   4
ATOM      4  C   UNL     1      62.763  84.443  72.762  1.00  0.00     0.078 C 
ATOM      5  O   UNL     1      63.256  86.110  74.522  1.00  0.00    -0.319 OA
ATOM      6  C   UNL     1      62.166  85.386  73.873  1.00  0.00     0.095 C 
ATOM      7  C   UNL     1      64.426  85.325  74.820  1.00  0.00     0.289 C 
ATOM      8  C   UNL     1      61.438  84.468  74.940  1.00  0.00     0.023 C 
ATOM      9  O   UNL     1      64.959  84.723  73.642  1.00  0.00    -0.320 OA
ATOM     10  O   UNL     1      64.143  84.247  75.708  1.00  0.00    -0.313 OA
ATOM     11  C   UNL     1      63.967  83.712  73.405  1.00  0.00     0.170 C 
ATOM     12  C   UNL     1      62.155  83.092  75.095  1.00  0.00     0.049 C 
ATOM     13  C   UNL     1      61.239  85.100  76.327  1.00  0.00     0.011 C 
ATOM     14  C   UNL     1      63.658  83.205  74.836  1.00  0.00     0.122 C 
BRANCH   6  15
ATOM     15  C   UNL     1      61.285  86.500  73.236  1.00  0.00     0.086 C 
ATOM     16  C   UNL     1      60.354  86.057  72.088  1.00  0.00     0.140 CG0
ATOM     17  C   UNL     1      60.387  87.322  74.117  1.00  0.00    -0.010 C 
ATOM     18  C   UNL     1      59.149  86.952  72.282  1.00  0.00     0.190 C 
ATOM     19  G   UNL     1      61.003  86.239  70.717  1.00  0.00     0.000 G0
ATOM     20  C   UNL     1      59.190  87.616  73.599  1.00  0.00    -0.008 C 
ATOM     21  O   UNL     1      58.228  87.082  71.490  1.00  0.00    -0.291 OA
ATOM     22  C   UNL     1      58.102  88.459  74.136  1.00  0.00     0.048 C 
BRANCH  16  23
ATOM     23  O   UNL     1      59.833  84.748  72.244  1.00  0.00    -0.381 OA
ATOM     24  H   UNL     1      59.949  84.269  71.407  1.00  0.00     0.212 HD
ENDBRANCH  16  23
ENDBRANCH   6  15
BRANCH   7  25
ATOM     25  C   UNL     1      65.464  86.235  75.444  1.00  0.00     0.135 C 
BRANCH  25  26
ATOM     26  C   UNL     1      65.263  86.386  76.931  1.00  0.00    -0.040 A 
ATOM     27  C   UNL     1      66.290  86.045  77.812  1.00  0.00     0.004 A 
ATOM     28  C   UNL     1      64.051  86.869  77.426  1.00  0.00     0.004 A 
ATOM     29  C   UNL     1      66.103  86.185  79.188  1.00  0.00     0.000 A 
ATOM     30  C   UNL     1      63.865  87.008  78.801  1.00  0.00     0.000 A 
ATOM     31  C   UNL     1      64.892  86.666  79.682  1.00  0.00     0.000 A 
ENDBRANCH  25  26
ENDBRANCH   7  25
BRANCH  14  32
ATOM     32  C   UNL     1      64.392  81.944  75.155  1.00  0.00    -0.046 C 
ATOM     33  C   UNL     1      65.089  81.274  74.008  1.00  0.00     0.042 C 
ATOM     34  C   UNL     1      64.427  81.438  76.397  1.00  0.00     0.010 C 
ENDBRANCH  14  32
ENDBRANCH   3   4
BRANCH   2  35
ATOM     35  C   UNL     1      61.010  86.229  70.702  1.00  0.00     0.078 CG0
ATOM     36  G   UNL     1      60.355  86.050  72.071  1.00  0.00     0.000 G0
ENDBRANCH   2  35
ENDBRANCH   1   2
BRANCH   1  37
ATOM     37  O   UNL     1      64.357  85.620  69.134  1.00  0.00    -0.461 OA
BRANCH  37  38
ATOM     38  C   UNL     1      64.524  84.753  68.079  1.00  0.00     0.310 C 
ATOM     39  O   UNL     1      64.305  83.550  68.118  1.00  0.00    -0.252 OA
BRANCH  38  40
ATOM     40  C   UNL     1      65.018  85.515  66.872  1.00  0.00     0.158 C 
BRANCH  40  41
ATOM     41  C   UNL     1      66.509  85.737  66.887  1.00  0.00    -0.033 A 
ATOM     42  C   UNL     1      67.069  86.653  67.778  1.00  0.00     0.054 A 
ATOM     43  C   UNL     1      67.329  85.026  66.010  1.00  0.00     0.008 A 
ATOM     44  C   UNL     1      68.448  86.858  67.792  1.00  0.00     0.160 A 
ATOM     45  C   UNL     1      68.708  85.232  66.024  1.00  0.00     0.050 A 
ATOM     46  C   UNL     1      69.268  86.148  66.914  1.00  0.00     0.157 A 
BRANCH  44  47
ATOM     47  O   UNL     1      68.983  87.755  68.666  1.00  0.00    -0.493 OA
ATOM     48  C   UNL     1      69.048  87.365  70.037  1.00  0.00     0.278 C 
ENDBRANCH  44  47
BRANCH  46  49
ATOM     49  O   UNL     1      70.617  86.339  66.919  1.00  0.00    -0.504 OA
ATOM     50  H   UNL     1      70.810  87.241  66.613  1.00  0.00     0.293 HD
ENDBRANCH  46  49
ENDBRANCH  40  41
ENDBRANCH  38  40
ENDBRANCH  37  38
ENDBRANCH   1  37
TORSDOF 11
ENDMDL
MODEL 9
REMARK VINA RESULT:    -5.448     20.207     25.016
REMARK INTER + INTRA:         -10.463
REMARK INTER:                  -8.575
REMARK INTRA:                  -1.888
REMARK UNBOUND:                -0.875
REMARK SMILES C=C(C)[C@]12C[C@@H](C)[C@@]34O[C@](Cc5ccccc5)(O[C@@H]1[C@@H]3C=C(COC(=O)Cc1ccc(O)c(OC)c1)C[C@]1(O)C(=O)C(C)=C[C@@H]41)O2
REMARK SMILES IDX 23 1 22 2 21 3 20 4 9 5 8 6 10 7 6 8 18 9 46 10 19 11 5 12
REMARK SMILES IDX 7 13 4 14 45 15 38 16 44 17 40 18 42 20 41 21 43 22 39 23
REMARK SMILES IDX 11 25 12 26 13 27 17 28 14 29 16 30 15 31 2 32 3 33 1 34
REMARK SMILES IDX 37 35 24 37 25 38 26 39 27 40 28 41 36 42 29 43 33 44 30 45
REMARK SMILES IDX 31 46 34 47 35 48 32 49
REMARK H PARENT 39 24 32 50
REMARK Flexibility Score: 90.00
ROOT
ATOM      1  C   UNL     1      71.868  89.429  69.373  1.00  0.00     0.264 C 
ENDROOT
BRANCH   1   2
ATOM      2  C   UNL     1      73.223  89.378  68.706  1.00  0.00    -0.033 C 
ATOM      3  C   UNL     1      73.664  88.210  68.198  1.00  0.00    -0.015 C 
BRANCH   3   4
ATOM      4  C   UNL     1      75.002  87.881  67.556  1.00  0.00     0.078 C 
ATOM      5  O   UNL     1      74.744  88.248  65.123  1.00  0.00    -0.319 OA
ATOM      6  C   UNL     1      75.460  88.721  66.306  1.00  0.00     0.095 C 
ATOM      7  C   UNL     1      74.627  86.818  65.005  1.00  0.00     0.289 C 
ATOM      8  C   UNL     1      77.014  88.481  66.108  1.00  0.00     0.023 C 
ATOM      9  O   UNL     1      73.981  86.256  66.145  1.00  0.00    -0.320 OA
ATOM     10  O   UNL     1      75.897  86.176  64.926  1.00  0.00    -0.313 OA
ATOM     11  C   UNL     1      75.026  86.395  67.120  1.00  0.00     0.170 C 
ATOM     12  C   UNL     1      77.427  87.038  66.532  1.00  0.00     0.049 C 
ATOM     13  C   UNL     1      77.553  88.774  64.699  1.00  0.00     0.011 C 
ATOM     14  C   UNL     1      76.294  86.036  66.306  1.00  0.00     0.122 C 
BRANCH   6  15
ATOM     15  C   UNL     1      75.027  90.209  66.453  1.00  0.00     0.086 C 
ATOM     16  C   UNL     1      75.195  90.831  67.854  1.00  0.00     0.140 CG0
ATOM     17  C   UNL     1      75.621  91.243  65.538  1.00  0.00    -0.010 C 
ATOM     18  C   UNL     1      75.551  92.267  67.533  1.00  0.00     0.190 C 
ATOM     19  G   UNL     1      73.923  90.717  68.693  1.00  0.00     0.000 G0
ATOM     20  C   UNL     1      75.901  92.419  66.108  1.00  0.00    -0.008 C 
ATOM     21  O   UNL     1      75.598  93.183  68.341  1.00  0.00    -0.291 OA
ATOM     22  C   UNL     1      76.407  93.671  65.509  1.00  0.00     0.048 C 
BRANCH  16  23
ATOM     23  O   UNL     1      76.326  90.352  68.563  1.00  0.00    -0.381 OA
ATOM     24  H   UNL     1      76.086  89.518  68.998  1.00  0.00     0.212 HD
ENDBRANCH  16  23
ENDBRANCH   6  15
BRANCH   7  25
ATOM     25  C   UNL     1      73.825  86.508  63.757  1.00  0.00     0.135 C 
BRANCH  25  26
ATOM     26  C   UNL     1      72.728  85.507  64.024  1.00  0.00    -0.040 A 
ATOM     27  C   UNL     1      73.028  84.145  64.090  1.00  0.00     0.004 A 
ATOM     28  C   UNL     1      71.416  85.941  64.208  1.00  0.00     0.004 A 
ATOM     29  C   UNL     1      72.014  83.219  64.337  1.00  0.00     0.000 A 
ATOM     30  C   UNL     1      70.402  85.015  64.455  1.00  0.00     0.000 A 
ATOM     31  C   UNL     1      70.702  83.654  64.519  1.00  0.00     0.000 A 
ENDBRANCH  25  26
ENDBRANCH   7  25
BRANCH  14  32
ATOM     32  C   UNL     1      76.724  84.623  66.531  1.00  0.00    -0.046 C 
ATOM     33  C   UNL     1      75.673  83.571  66.333  1.00  0.00     0.042 C 
ATOM     34  C   UNL     1      77.978  84.312  66.890  1.00  0.00     0.010 C 
ENDBRANCH  14  32
ENDBRANCH   3   4
BRANCH   2  35
ATOM     35  C   UNL     1      73.931  90.720  68.694  1.00  0.00     0.078 CG0
ATOM     36  G   UNL     1      75.208  90.829  67.863  1.00  0.00     0.000 G0
ENDBRANCH   2  35
ENDBRANCH   1   2
BRANCH   1  37
ATOM     37  O   UNL     1      70.863  89.216  68.405  1.00  0.00    -0.461 OA
BRANCH  37  38
ATOM     38  C   UNL     1      69.746  88.535  68.828  1.00  0.00     0.310 C 
ATOM     39  O   UNL     1      69.426  88.366  69.997  1.00  0.00    -0.252 OA
BRANCH  38  40
ATOM     40  C   UNL     1      68.978  88.030  67.629  1.00  0.00     0.158 C 
BRANCH  40  41
ATOM     41  C   UNL     1      68.888  86.526  67.578  1.00  0.00    -0.033 A 
ATOM     42  C   UNL     1      67.786  85.913  66.982  1.00  0.00     0.054 A 
ATOM     43  C   UNL     1      69.907  85.748  68.127  1.00  0.00     0.008 A 
ATOM     44  C   UNL     1      67.703  84.521  66.935  1.00  0.00     0.160 A 
ATOM     45  C   UNL     1      69.824  84.356  68.080  1.00  0.00     0.050 A 
ATOM     46  C   UNL     1      68.723  83.743  67.485  1.00  0.00     0.157 A 
BRANCH  44  47
ATOM     47  O   UNL     1      66.622  83.934  66.351  1.00  0.00    -0.493 OA
ATOM     48  C   UNL     1      65.335  84.347  66.806  1.00  0.00     0.278 C 
ENDBRANCH  44  47
BRANCH  46  49
ATOM     49  O   UNL     1      68.653  82.383  67.444  1.00  0.00    -0.504 OA
ATOM     50  H   UNL     1      69.521  82.015  67.681  1.00  0.00     0.293 HD
ENDBRANCH  46  49
ENDBRANCH  40  41
ENDBRANCH  38  40
ENDBRANCH  37  38
ENDBRANCH   1  37
TORSDOF 11
ENDMDL
MODEL 10
REMARK VINA RESULT:    -5.335     17.542     22.300
REMARK INTER + INTRA:         -10.264
REMARK INTER:                  -9.169
REMARK INTRA:                  -1.096
REMARK UNBOUND:                -0.875
REMARK SMILES C=C(C)[C@]12C[C@@H](C)[C@@]34O[C@](Cc5ccccc5)(O[C@@H]1[C@@H]3C=C(COC(=O)Cc1ccc(O)c(OC)c1)C[C@]1(O)C(=O)C(C)=C[C@@H]41)O2
REMARK SMILES IDX 23 1 22 2 21 3 20 4 9 5 8 6 10 7 6 8 18 9 46 10 19 11 5 12
REMARK SMILES IDX 7 13 4 14 45 15 38 16 44 17 40 18 42 20 41 21 43 22 39 23
REMARK SMILES IDX 11 25 12 26 13 27 17 28 14 29 16 30 15 31 2 32 3 33 1 34
REMARK SMILES IDX 37 35 24 37 25 38 26 39 27 40 28 41 36 42 29 43 33 44 30 45
REMARK SMILES IDX 31 46 34 47 35 48 32 49
REMARK H PARENT 39 24 32 50
REMARK Flexibility Score: 90.00
ROOT
ATOM      1  C   UNL     1      98.281  79.260  82.675  1.00  0.00     0.264 C 
ENDROOT
BRANCH   1   2
ATOM      2  C   UNL     1      97.471  78.957  83.914  1.00  0.00    -0.033 C 
ATOM      3  C   UNL     1      97.299  79.921  84.841  1.00  0.00    -0.015 C 
BRANCH   3   4
ATOM      4  C   UNL     1      96.603  79.848  86.191  1.00  0.00     0.078 C 
ATOM      5  O   UNL     1      94.250  80.516  85.825  1.00  0.00    -0.319 OA
ATOM      6  C   UNL     1      95.096  79.397  86.233  1.00  0.00     0.095 C 
ATOM      7  C   UNL     1      94.616  81.797  86.371  1.00  0.00     0.289 C 
ATOM      8  C   UNL     1      94.755  79.001  87.729  1.00  0.00     0.023 C 
ATOM      9  O   UNL     1      95.959  82.137  86.036  1.00  0.00    -0.320 OA
ATOM     10  O   UNL     1      94.558  81.814  87.795  1.00  0.00    -0.313 OA
ATOM     11  C   UNL     1      96.670  81.228  86.891  1.00  0.00     0.170 C 
ATOM     12  C   UNL     1      95.553  79.874  88.746  1.00  0.00     0.049 C 
ATOM     13  C   UNL     1      93.262  79.025  88.094  1.00  0.00     0.011 C 
ATOM     14  C   UNL     1      95.833  81.272  88.195  1.00  0.00     0.122 C 
BRANCH   6  15
ATOM     15  C   UNL     1      94.821  78.294  85.170  1.00  0.00     0.086 C 
ATOM     16  C   UNL     1      95.897  77.197  85.034  1.00  0.00     0.140 CG0
ATOM     17  C   UNL     1      93.536  77.516  85.231  1.00  0.00    -0.010 C 
ATOM     18  C   UNL     1      95.073  75.972  84.698  1.00  0.00     0.190 C 
ATOM     19  G   UNL     1      96.923  77.527  83.951  1.00  0.00     0.000 G0
ATOM     20  C   UNL     1      93.639  76.215  84.944  1.00  0.00    -0.008 C 
ATOM     21  O   UNL     1      95.521  74.899  84.322  1.00  0.00    -0.291 OA
ATOM     22  C   UNL     1      92.592  75.180  84.826  1.00  0.00     0.048 C 
BRANCH  16  23
ATOM     23  O   UNL     1      96.527  76.856  86.258  1.00  0.00    -0.381 OA
ATOM     24  H   UNL     1      96.823  75.932  86.204  1.00  0.00     0.212 HD
ENDBRANCH  16  23
ENDBRANCH   6  15
BRANCH   7  25
ATOM     25  C   UNL     1      93.670  82.840  85.813  1.00  0.00     0.135 C 
BRANCH  25  26
ATOM     26  C   UNL     1      93.565  84.047  86.712  1.00  0.00    -0.040 A 
ATOM     27  C   UNL     1      94.537  85.046  86.654  1.00  0.00     0.004 A 
ATOM     28  C   UNL     1      92.496  84.165  87.600  1.00  0.00     0.004 A 
ATOM     29  C   UNL     1      94.440  86.162  87.485  1.00  0.00     0.000 A 
ATOM     30  C   UNL     1      92.399  85.281  88.431  1.00  0.00     0.000 A 
ATOM     31  C   UNL     1      93.371  86.280  88.373  1.00  0.00     0.000 A 
ENDBRANCH  25  26
ENDBRANCH   7  25
BRANCH  14  32
ATOM     32  C   UNL     1      96.433  82.183  89.216  1.00  0.00    -0.046 C 
ATOM     33  C   UNL     1      95.533  83.253  89.759  1.00  0.00     0.042 C 
ATOM     34  C   UNL     1      97.704  82.051  89.624  1.00  0.00     0.010 C 
ENDBRANCH  14  32
ENDBRANCH   3   4
BRANCH   2  35
ATOM     35  C   UNL     1      96.932  77.539  83.941  1.00  0.00     0.078 CG0
ATOM     36  G   UNL     1      95.907  77.202  85.023  1.00  0.00     0.000 G0
ENDBRANCH   2  35
ENDBRANCH   1   2
BRANCH   1  37
ATOM     37  O   UNL     1      97.604  80.227  81.900  1.00  0.00    -0.461 OA
BRANCH  37  38
ATOM     38  C   UNL     1      98.223  81.449  81.777  1.00  0.00     0.310 C 
ATOM     39  O   UNL     1      98.022  82.415  82.500  1.00  0.00    -0.252 OA
BRANCH  38  40
ATOM     40  C   UNL     1      99.187  81.411  80.614  1.00  0.00     0.158 C 
BRANCH  40  41
ATOM     41  C   UNL     1      98.524  81.704  79.292  1.00  0.00    -0.033 A 
ATOM     42  C   UNL     1      99.299  81.854  78.141  1.00  0.00     0.054 A 
ATOM     43  C   UNL     1      97.137  81.825  79.219  1.00  0.00     0.008 A 
ATOM     44  C   UNL     1      98.686  82.125  76.918  1.00  0.00     0.160 A 
ATOM     45  C   UNL     1      96.524  82.096  77.995  1.00  0.00     0.050 A 
ATOM     46  C   UNL     1      97.298  82.247  76.845  1.00  0.00     0.157 A 
BRANCH  44  47
ATOM     47  O   UNL     1      99.453  82.270  75.802  1.00  0.00    -0.493 OA
ATOM     48  C   UNL     1     100.781  81.750  75.856  1.00  0.00     0.278 C 
ENDBRANCH  44  47
BRANCH  46  49
ATOM     49  O   UNL     1      96.688  82.510  75.656  1.00  0.00    -0.504 OA
ATOM     50  H   UNL     1      97.309  82.990  75.082  1.00  0.00     0.293 HD
ENDBRANCH  46  49
ENDBRANCH  40  41
ENDBRANCH  38  40
ENDBRANCH  37  38
ENDBRANCH   1  37
TORSDOF 11
ENDMDL
