MODEL 1
REMARK VINA RESULT:    -6.218      0.000      0.000
REMARK INTER + INTRA:         -11.371
REMARK INTER:                 -10.397
REMARK INTRA:                  -0.974
REMARK UNBOUND:                -0.974
REMARK SMILES COc1cc(CNC(=O)CCCCCCCC(C)C)ccc1O
REMARK SMILES IDX 11 1 10 2 8 3 9 4 7 5 6 7 5 8 4 9 20 10 3 11 21 12 22 13
REMARK SMILES IDX 2 14 1 15 23 16 12 18 13 19 14 20 15 21 16 22 17 23 18 24
REMARK SMILES IDX 19 25
REMARK H PARENT 7 6 23 17
REMARK Flexibility Score: inf
ROOT
ATOM      1  C   UNL     1      73.996  89.530  70.121  1.00  0.00     0.010 C 
ENDROOT
BRANCH   1   2
ATOM      2  C   UNL     1      74.592  90.910  70.394  1.00  0.00     0.100 C 
BRANCH   2   3
ATOM      3  C   UNL     1      73.958  91.585  71.599  1.00  0.00     0.220 C 
ATOM      4  O   UNL     1      72.907  91.205  72.109  1.00  0.00    -0.275 OA
ATOM      5  N   UNL     1      74.708  92.669  72.029  1.00  0.00    -0.352 N 
ATOM      6  H   UNL     1      75.562  92.916  71.536  1.00  0.00     0.163 HD
BRANCH   5   7
ATOM      7  C   UNL     1      74.323  93.492  73.153  1.00  0.00     0.151 C 
BRANCH   7   8
ATOM      8  C   UNL     1      75.501  93.862  74.007  1.00  0.00    -0.025 A 
ATOM      9  C   UNL     1      76.638  94.399  73.415  1.00  0.00     0.056 A 
ATOM     10  C   UNL     1      75.443  93.662  75.381  1.00  0.00     0.009 A 
ATOM     11  C   UNL     1      77.732  94.743  74.208  1.00  0.00     0.160 A 
ATOM     12  C   UNL     1      76.538  94.005  76.174  1.00  0.00     0.050 A 
ATOM     13  C   UNL     1      77.683  94.545  75.589  1.00  0.00     0.157 A 
BRANCH  11  14
ATOM     14  O   UNL     1      78.845  95.269  73.624  1.00  0.00    -0.493 OA
ATOM     15  C   UNL     1      78.642  96.149  72.520  1.00  0.00     0.278 C 
ENDBRANCH  11  14
BRANCH  13  16
ATOM     16  O   UNL     1      78.745  94.877  76.374  1.00  0.00    -0.504 OA
ATOM     17  H   UNL     1      79.557  94.845  75.839  1.00  0.00     0.293 HD
ENDBRANCH  13  16
ENDBRANCH   7   8
ENDBRANCH   5   7
ENDBRANCH   2   3
ENDBRANCH   1   2
BRANCH   1  18
ATOM     18  C   UNL     1      74.954  88.587  69.387  1.00  0.00     0.001 C 
BRANCH  18  19
ATOM     19  C   UNL     1      75.885  89.249  68.365  1.00  0.00     0.000 C 
BRANCH  19  20
ATOM     20  C   UNL     1      77.195  88.485  68.157  1.00  0.00     0.000 C 
BRANCH  20  21
ATOM     21  C   UNL     1      76.993  87.057  67.639  1.00  0.00     0.000 C 
BRANCH  21  22
ATOM     22  C   UNL     1      77.462  85.982  68.625  1.00  0.00     0.003 C 
BRANCH  22  23
ATOM     23  C   UNL     1      76.417  84.875  68.869  1.00  0.00    -0.017 C 
ATOM     24  C   UNL     1      75.163  85.154  68.036  1.00  0.00     0.007 C 
ATOM     25  C   UNL     1      76.035  84.745  70.344  1.00  0.00     0.007 C 
ENDBRANCH  22  23
ENDBRANCH  21  22
ENDBRANCH  20  21
ENDBRANCH  19  20
ENDBRANCH  18  19
ENDBRANCH   1  18
TORSDOF 12
ENDMDL
MODEL 2
REMARK VINA RESULT:    -6.104      0.865      2.071
REMARK INTER + INTRA:         -11.181
REMARK INTER:                 -10.230
REMARK INTRA:                  -0.951
REMARK UNBOUND:                -0.974
REMARK SMILES COc1cc(CNC(=O)CCCCCCCC(C)C)ccc1O
REMARK SMILES IDX 11 1 10 2 8 3 9 4 7 5 6 7 5 8 4 9 20 10 3 11 21 12 22 13
REMARK SMILES IDX 2 14 1 15 23 16 12 18 13 19 14 20 15 21 16 22 17 23 18 24
REMARK SMILES IDX 19 25
REMARK H PARENT 7 6 23 17
REMARK Flexibility Score: inf
ROOT
ATOM      1  C   UNL     1      73.950  89.617  70.079  1.00  0.00     0.010 C 
ENDROOT
BRANCH   1   2
ATOM      2  C   UNL     1      74.534  90.987  70.417  1.00  0.00     0.100 C 
BRANCH   2   3
ATOM      3  C   UNL     1      73.880  91.609  71.640  1.00  0.00     0.220 C 
ATOM      4  O   UNL     1      72.770  91.283  72.049  1.00  0.00    -0.275 OA
ATOM      5  N   UNL     1      74.689  92.580  72.211  1.00  0.00    -0.352 N 
ATOM      6  H   UNL     1      75.591  92.791  71.794  1.00  0.00     0.163 HD
BRANCH   5   7
ATOM      7  C   UNL     1      74.301  93.333  73.382  1.00  0.00     0.151 C 
BRANCH   7   8
ATOM      8  C   UNL     1      75.486  93.728  74.214  1.00  0.00    -0.025 A 
ATOM      9  C   UNL     1      75.337  93.899  75.585  1.00  0.00     0.056 A 
ATOM     10  C   UNL     1      76.720  93.918  73.604  1.00  0.00     0.009 A 
ATOM     11  C   UNL     1      76.439  94.266  76.358  1.00  0.00     0.160 A 
ATOM     12  C   UNL     1      77.822  94.286  74.378  1.00  0.00     0.050 A 
ATOM     13  C   UNL     1      77.682  94.460  75.754  1.00  0.00     0.157 A 
BRANCH  11  14
ATOM     14  O   UNL     1      76.289  94.434  77.702  1.00  0.00    -0.493 OA
ATOM     15  C   UNL     1      75.296  93.638  78.347  1.00  0.00     0.278 C 
ENDBRANCH  11  14
BRANCH  13  16
ATOM     16  O   UNL     1      78.765  94.817  76.498  1.00  0.00    -0.504 OA
ATOM     17  H   UNL     1      78.654  94.478  77.403  1.00  0.00     0.293 HD
ENDBRANCH  13  16
ENDBRANCH   7   8
ENDBRANCH   5   7
ENDBRANCH   2   3
ENDBRANCH   1   2
BRANCH   1  18
ATOM     18  C   UNL     1      74.965  88.660  69.449  1.00  0.00     0.001 C 
BRANCH  18  19
ATOM     19  C   UNL     1      75.938  89.289  68.446  1.00  0.00     0.000 C 
BRANCH  19  20
ATOM     20  C   UNL     1      77.235  88.492  68.280  1.00  0.00     0.000 C 
BRANCH  20  21
ATOM     21  C   UNL     1      77.015  87.073  67.745  1.00  0.00     0.000 C 
BRANCH  21  22
ATOM     22  C   UNL     1      77.435  85.980  68.734  1.00  0.00     0.003 C 
BRANCH  22  23
ATOM     23  C   UNL     1      76.398  84.849  68.877  1.00  0.00    -0.017 C 
ATOM     24  C   UNL     1      75.199  85.129  67.967  1.00  0.00     0.007 C 
ATOM     25  C   UNL     1      75.919  84.672  70.318  1.00  0.00     0.007 C 
ENDBRANCH  22  23
ENDBRANCH  21  22
ENDBRANCH  20  21
ENDBRANCH  19  20
ENDBRANCH  18  19
ENDBRANCH   1  18
TORSDOF 12
ENDMDL
MODEL 3
REMARK VINA RESULT:    -6.072     22.338     23.991
REMARK INTER + INTRA:         -11.127
REMARK INTER:                 -10.417
REMARK INTRA:                  -0.710
REMARK UNBOUND:                -0.974
REMARK SMILES COc1cc(CNC(=O)CCCCCCCC(C)C)ccc1O
REMARK SMILES IDX 11 1 10 2 8 3 9 4 7 5 6 7 5 8 4 9 20 10 3 11 21 12 22 13
REMARK SMILES IDX 2 14 1 15 23 16 12 18 13 19 14 20 15 21 16 22 17 23 18 24
REMARK SMILES IDX 19 25
REMARK H PARENT 7 6 23 17
REMARK Flexibility Score: inf
ROOT
ATOM      1  C   UNL     1      97.480  82.780  80.535  1.00  0.00     0.010 C 
ENDROOT
BRANCH   1   2
ATOM      2  C   UNL     1      96.452  83.551  81.360  1.00  0.00     0.100 C 
BRANCH   2   3
ATOM      3  C   UNL     1      96.392  83.074  82.802  1.00  0.00     0.220 C 
ATOM      4  O   UNL     1      97.220  82.314  83.295  1.00  0.00    -0.275 OA
ATOM      5  N   UNL     1      95.293  83.598  83.467  1.00  0.00    -0.352 N 
ATOM      6  H   UNL     1      94.653  84.213  82.972  1.00  0.00     0.163 HD
BRANCH   5   7
ATOM      7  C   UNL     1      94.997  83.297  84.848  1.00  0.00     0.151 C 
BRANCH   7   8
ATOM      8  C   UNL     1      94.036  82.151  84.980  1.00  0.00    -0.025 A 
ATOM      9  C   UNL     1      92.808  82.206  84.332  1.00  0.00     0.056 A 
ATOM     10  C   UNL     1      94.385  81.047  85.748  1.00  0.00     0.009 A 
ATOM     11  C   UNL     1      91.915  81.142  84.454  1.00  0.00     0.160 A 
ATOM     12  C   UNL     1      93.491  79.982  85.870  1.00  0.00     0.050 A 
ATOM     13  C   UNL     1      92.256  80.029  85.224  1.00  0.00     0.157 A 
BRANCH  11  14
ATOM     14  O   UNL     1      90.712  81.199  83.818  1.00  0.00    -0.493 OA
ATOM     15  C   UNL     1      89.668  81.921  84.471  1.00  0.00     0.278 C 
ENDBRANCH  11  14
BRANCH  13  16
ATOM     16  O   UNL     1      91.393  78.983  85.350  1.00  0.00    -0.504 OA
ATOM     17  H   UNL     1      91.486  78.402  84.576  1.00  0.00     0.293 HD
ENDBRANCH  13  16
ENDBRANCH   7   8
ENDBRANCH   5   7
ENDBRANCH   2   3
ENDBRANCH   1   2
BRANCH   1  18
ATOM     18  C   UNL     1      97.624  83.298  79.101  1.00  0.00     0.001 C 
BRANCH  18  19
ATOM     19  C   UNL     1      96.312  83.551  78.351  1.00  0.00     0.000 C 
BRANCH  19  20
ATOM     20  C   UNL     1      96.501  84.332  77.048  1.00  0.00     0.000 C 
BRANCH  20  21
ATOM     21  C   UNL     1      97.646  83.800  76.178  1.00  0.00     0.000 C 
BRANCH  21  22
ATOM     22  C   UNL     1      97.553  84.245  74.715  1.00  0.00     0.003 C 
BRANCH  22  23
ATOM     23  C   UNL     1      98.876  84.807  74.159  1.00  0.00    -0.017 C 
ATOM     24  C   UNL     1      99.073  84.335  72.716  1.00  0.00     0.007 C 
ATOM     25  C   UNL     1     100.086  84.400  75.002  1.00  0.00     0.007 C 
ENDBRANCH  22  23
ENDBRANCH  21  22
ENDBRANCH  20  21
ENDBRANCH  19  20
ENDBRANCH  18  19
ENDBRANCH   1  18
TORSDOF 12
ENDMDL
MODEL 4
REMARK VINA RESULT:    -5.907     23.558     25.176
REMARK INTER + INTRA:         -10.852
REMARK INTER:                  -9.030
REMARK INTRA:                  -1.822
REMARK UNBOUND:                -0.974
REMARK SMILES COc1cc(CNC(=O)CCCCCCCC(C)C)ccc1O
REMARK SMILES IDX 11 1 10 2 8 3 9 4 7 5 6 7 5 8 4 9 20 10 3 11 21 12 22 13
REMARK SMILES IDX 2 14 1 15 23 16 12 18 13 19 14 20 15 21 16 22 17 23 18 24
REMARK SMILES IDX 19 25
REMARK H PARENT 7 6 23 17
REMARK Flexibility Score: inf
ROOT
ATOM      1  C   UNL     1      97.778  83.219  73.971  1.00  0.00     0.010 C 
ENDROOT
BRANCH   1   2
ATOM      2  C   UNL     1      97.785  84.624  74.571  1.00  0.00     0.100 C 
BRANCH   2   3
ATOM      3  C   UNL     1      96.907  84.729  75.808  1.00  0.00     0.220 C 
ATOM      4  O   UNL     1      96.048  85.594  75.952  1.00  0.00    -0.275 OA
ATOM      5  N   UNL     1      97.209  83.741  76.733  1.00  0.00    -0.352 N 
ATOM      6  H   UNL     1      97.948  83.072  76.530  1.00  0.00     0.163 HD
BRANCH   5   7
ATOM      7  C   UNL     1      96.527  83.620  78.001  1.00  0.00     0.151 C 
BRANCH   7   8
ATOM      8  C   UNL     1      97.400  82.996  79.050  1.00  0.00    -0.025 A 
ATOM      9  C   UNL     1      97.039  83.089  80.389  1.00  0.00     0.056 A 
ATOM     10  C   UNL     1      98.560  82.330  78.672  1.00  0.00     0.009 A 
ATOM     11  C   UNL     1      97.851  82.509  81.364  1.00  0.00     0.160 A 
ATOM     12  C   UNL     1      99.371  81.751  79.648  1.00  0.00     0.050 A 
ATOM     13  C   UNL     1      99.017  81.840  80.994  1.00  0.00     0.157 A 
BRANCH  11  14
ATOM     14  O   UNL     1      97.494  82.603  82.676  1.00  0.00    -0.493 OA
ATOM     15  C   UNL     1      96.400  83.464  82.990  1.00  0.00     0.278 C 
ENDBRANCH  11  14
BRANCH  13  16
ATOM     16  O   UNL     1      99.817  81.268  81.937  1.00  0.00    -0.504 OA
ATOM     17  H   UNL     1     100.517  80.760  81.492  1.00  0.00     0.293 HD
ENDBRANCH  13  16
ENDBRANCH   7   8
ENDBRANCH   5   7
ENDBRANCH   2   3
ENDBRANCH   1   2
BRANCH   1  18
ATOM     18  C   UNL     1      98.596  83.102  72.683  1.00  0.00     0.001 C 
BRANCH  18  19
ATOM     19  C   UNL     1      99.889  83.924  72.639  1.00  0.00     0.000 C 
BRANCH  19  20
ATOM     20  C   UNL     1     101.080  83.213  73.287  1.00  0.00     0.000 C 
BRANCH  20  21
ATOM     21  C   UNL     1     101.442  83.765  74.670  1.00  0.00     0.000 C 
BRANCH  21  22
ATOM     22  C   UNL     1     100.893  82.917  75.823  1.00  0.00     0.003 C 
BRANCH  22  23
ATOM     23  C   UNL     1     101.613  81.565  75.988  1.00  0.00    -0.017 C 
ATOM     24  C   UNL     1     100.581  80.445  76.147  1.00  0.00     0.007 C 
ATOM     25  C   UNL     1     102.573  81.552  77.179  1.00  0.00     0.007 C 
ENDBRANCH  22  23
ENDBRANCH  21  22
ENDBRANCH  20  21
ENDBRANCH  19  20
ENDBRANCH  18  19
ENDBRANCH   1  18
TORSDOF 12
ENDMDL
MODEL 5
REMARK VINA RESULT:    -5.695     23.122     25.251
REMARK INTER + INTRA:         -10.497
REMARK INTER:                  -9.826
REMARK INTRA:                  -0.672
REMARK UNBOUND:                -0.974
REMARK SMILES COc1cc(CNC(=O)CCCCCCCC(C)C)ccc1O
REMARK SMILES IDX 11 1 10 2 8 3 9 4 7 5 6 7 5 8 4 9 20 10 3 11 21 12 22 13
REMARK SMILES IDX 2 14 1 15 23 16 12 18 13 19 14 20 15 21 16 22 17 23 18 24
REMARK SMILES IDX 19 25
REMARK H PARENT 7 6 23 17
REMARK Flexibility Score: inf
ROOT
ATOM      1  C   UNL     1      96.663  83.596  78.394  1.00  0.00     0.010 C 
ENDROOT
BRANCH   1   2
ATOM      2  C   UNL     1      97.827  83.591  77.405  1.00  0.00     0.100 C 
BRANCH   2   3
ATOM      3  C   UNL     1      97.455  84.216  76.071  1.00  0.00     0.220 C 
ATOM      4  O   UNL     1      96.304  84.509  75.762  1.00  0.00    -0.275 OA
ATOM      5  N   UNL     1      98.569  84.396  75.265  1.00  0.00    -0.352 N 
ATOM      6  H   UNL     1      99.485  84.111  75.602  1.00  0.00     0.163 HD
BRANCH   5   7
ATOM      7  C   UNL     1      98.493  84.964  73.939  1.00  0.00     0.151 C 
BRANCH   7   8
ATOM      8  C   UNL     1      99.018  84.023  72.893  1.00  0.00    -0.025 A 
ATOM      9  C   UNL     1     100.134  84.378  72.146  1.00  0.00     0.056 A 
ATOM     10  C   UNL     1      98.381  82.806  72.684  1.00  0.00     0.009 A 
ATOM     11  C   UNL     1     100.621  83.503  71.175  1.00  0.00     0.160 A 
ATOM     12  C   UNL     1      98.868  81.931  71.711  1.00  0.00     0.050 A 
ATOM     13  C   UNL     1      99.988  82.280  70.957  1.00  0.00     0.157 A 
BRANCH  11  14
ATOM     14  O   UNL     1     101.716  83.855  70.444  1.00  0.00    -0.493 OA
ATOM     15  C   UNL     1     101.561  84.935  69.524  1.00  0.00     0.278 C 
ENDBRANCH  11  14
BRANCH  13  16
ATOM     16  O   UNL     1     100.454  81.417  70.012  1.00  0.00    -0.504 OA
ATOM     17  H   UNL     1     100.700  81.921  69.217  1.00  0.00     0.293 HD
ENDBRANCH  13  16
ENDBRANCH   7   8
ENDBRANCH   5   7
ENDBRANCH   2   3
ENDBRANCH   1   2
BRANCH   1  18
ATOM     18  C   UNL     1      97.085  83.299  79.836  1.00  0.00     0.001 C 
BRANCH  18  19
ATOM     19  C   UNL     1      97.497  81.851  80.122  1.00  0.00     0.000 C 
BRANCH  19  20
ATOM     20  C   UNL     1      97.072  81.365  81.511  1.00  0.00     0.000 C 
BRANCH  20  21
ATOM     21  C   UNL     1      96.530  82.483  82.409  1.00  0.00     0.000 C 
BRANCH  21  22
ATOM     22  C   UNL     1      95.536  81.985  83.464  1.00  0.00     0.003 C 
BRANCH  22  23
ATOM     23  C   UNL     1      95.205  83.037  84.540  1.00  0.00    -0.017 C 
ATOM     24  C   UNL     1      93.708  83.001  84.855  1.00  0.00     0.007 C 
ATOM     25  C   UNL     1      95.608  84.451  84.121  1.00  0.00     0.007 C 
ENDBRANCH  22  23
ENDBRANCH  21  22
ENDBRANCH  20  21
ENDBRANCH  19  20
ENDBRANCH  18  19
ENDBRANCH   1  18
TORSDOF 12
ENDMDL
MODEL 6
REMARK VINA RESULT:    -5.571     23.069     24.798
REMARK INTER + INTRA:         -10.290
REMARK INTER:                  -9.053
REMARK INTRA:                  -1.237
REMARK UNBOUND:                -0.974
REMARK SMILES COc1cc(CNC(=O)CCCCCCCC(C)C)ccc1O
REMARK SMILES IDX 11 1 10 2 8 3 9 4 7 5 6 7 5 8 4 9 20 10 3 11 21 12 22 13
REMARK SMILES IDX 2 14 1 15 23 16 12 18 13 19 14 20 15 21 16 22 17 23 18 24
REMARK SMILES IDX 19 25
REMARK H PARENT 7 6 23 17
REMARK Flexibility Score: inf
ROOT
ATOM      1  C   UNL     1      99.268  82.310  80.480  1.00  0.00     0.010 C 
ENDROOT
BRANCH   1   2
ATOM      2  C   UNL     1      98.255  81.560  81.342  1.00  0.00     0.100 C 
BRANCH   2   3
ATOM      3  C   UNL     1      97.139  82.463  81.840  1.00  0.00     0.220 C 
ATOM      4  O   UNL     1      96.702  83.413  81.196  1.00  0.00    -0.275 OA
ATOM      5  N   UNL     1      96.696  82.080  83.098  1.00  0.00    -0.352 N 
ATOM      6  H   UNL     1      97.127  81.284  83.561  1.00  0.00     0.163 HD
BRANCH   5   7
ATOM      7  C   UNL     1      95.646  82.777  83.804  1.00  0.00     0.151 C 
BRANCH   7   8
ATOM      8  C   UNL     1      94.523  81.858  84.190  1.00  0.00    -0.025 A 
ATOM      9  C   UNL     1      94.794  80.526  84.478  1.00  0.00     0.056 A 
ATOM     10  C   UNL     1      93.225  82.349  84.255  1.00  0.00     0.009 A 
ATOM     11  C   UNL     1      93.750  79.672  84.836  1.00  0.00     0.160 A 
ATOM     12  C   UNL     1      92.182  81.495  84.613  1.00  0.00     0.050 A 
ATOM     13  C   UNL     1      92.444  80.156  84.903  1.00  0.00     0.157 A 
BRANCH  11  14
ATOM     14  O   UNL     1      94.019  78.366  85.116  1.00  0.00    -0.493 OA
ATOM     15  C   UNL     1      94.291  77.508  84.009  1.00  0.00     0.278 C 
ENDBRANCH  11  14
BRANCH  13  16
ATOM     16  O   UNL     1      91.417  79.332  85.252  1.00  0.00    -0.504 OA
ATOM     17  H   UNL     1      91.780  78.538  85.680  1.00  0.00     0.293 HD
ENDBRANCH  13  16
ENDBRANCH   7   8
ENDBRANCH   5   7
ENDBRANCH   2   3
ENDBRANCH   1   2
BRANCH   1  18
ATOM     18  C   UNL     1      99.258  81.877  79.011  1.00  0.00     0.001 C 
BRANCH  18  19
ATOM     19  C   UNL     1      98.023  81.090  78.559  1.00  0.00     0.000 C 
BRANCH  19  20
ATOM     20  C   UNL     1      97.309  81.723  77.361  1.00  0.00     0.000 C 
BRANCH  20  21
ATOM     21  C   UNL     1      96.854  83.164  77.614  1.00  0.00     0.000 C 
BRANCH  21  22
ATOM     22  C   UNL     1      97.283  84.138  76.512  1.00  0.00     0.003 C 
BRANCH  22  23
ATOM     23  C   UNL     1      98.085  83.468  75.379  1.00  0.00    -0.017 C 
ATOM     24  C   UNL     1      99.543  83.928  75.435  1.00  0.00     0.007 C 
ATOM     25  C   UNL     1      97.505  83.765  73.995  1.00  0.00     0.007 C 
ENDBRANCH  22  23
ENDBRANCH  21  22
ENDBRANCH  20  21
ENDBRANCH  19  20
ENDBRANCH  18  19
ENDBRANCH   1  18
TORSDOF 12
ENDMDL
MODEL 7
REMARK VINA RESULT:    -5.571     22.794     24.765
REMARK INTER + INTRA:         -10.290
REMARK INTER:                  -9.563
REMARK INTRA:                  -0.727
REMARK UNBOUND:                -0.974
REMARK SMILES COc1cc(CNC(=O)CCCCCCCC(C)C)ccc1O
REMARK SMILES IDX 11 1 10 2 8 3 9 4 7 5 6 7 5 8 4 9 20 10 3 11 21 12 22 13
REMARK SMILES IDX 2 14 1 15 23 16 12 18 13 19 14 20 15 21 16 22 17 23 18 24
REMARK SMILES IDX 19 25
REMARK H PARENT 7 6 23 17
REMARK Flexibility Score: inf
ROOT
ATOM      1  C   UNL     1      96.771  80.975  82.041  1.00  0.00     0.010 C 
ENDROOT
BRANCH   1   2
ATOM      2  C   UNL     1      98.056  80.158  81.920  1.00  0.00     0.100 C 
BRANCH   2   3
ATOM      3  C   UNL     1      98.447  79.905  80.473  1.00  0.00     0.220 C 
ATOM      4  O   UNL     1      99.148  78.961  80.120  1.00  0.00    -0.275 OA
ATOM      5  N   UNL     1      97.922  80.870  79.627  1.00  0.00    -0.352 N 
ATOM      6  H   UNL     1      97.359  81.624  80.013  1.00  0.00     0.163 HD
BRANCH   5   7
ATOM      7  C   UNL     1      98.150  80.869  78.201  1.00  0.00     0.151 C 
BRANCH   7   8
ATOM      8  C   UNL     1      97.690  82.146  77.558  1.00  0.00    -0.025 A 
ATOM      9  C   UNL     1      98.213  82.523  76.327  1.00  0.00     0.056 A 
ATOM     10  C   UNL     1      96.746  82.937  78.201  1.00  0.00     0.009 A 
ATOM     11  C   UNL     1      97.786  83.709  75.730  1.00  0.00     0.160 A 
ATOM     12  C   UNL     1      96.320  84.124  77.604  1.00  0.00     0.050 A 
ATOM     13  C   UNL     1      96.839  84.510  76.368  1.00  0.00     0.157 A 
BRANCH  11  14
ATOM     14  O   UNL     1      98.302  84.076  74.523  1.00  0.00    -0.493 OA
ATOM     15  C   UNL     1      97.894  83.316  73.387  1.00  0.00     0.278 C 
ENDBRANCH  11  14
BRANCH  13  16
ATOM     16  O   UNL     1      96.414  85.670  75.795  1.00  0.00    -0.504 OA
ATOM     17  H   UNL     1      97.185  86.237  75.619  1.00  0.00     0.293 HD
ENDBRANCH  13  16
ENDBRANCH   7   8
ENDBRANCH   5   7
ENDBRANCH   2   3
ENDBRANCH   1   2
BRANCH   1  18
ATOM     18  C   UNL     1      97.003  82.409  82.523  1.00  0.00     0.001 C 
BRANCH  18  19
ATOM     19  C   UNL     1      96.492  82.727  83.932  1.00  0.00     0.000 C 
BRANCH  19  20
ATOM     20  C   UNL     1      94.990  83.017  83.980  1.00  0.00     0.000 C 
BRANCH  20  21
ATOM     21  C   UNL     1      94.141  81.784  84.309  1.00  0.00     0.000 C 
BRANCH  21  22
ATOM     22  C   UNL     1      92.635  82.069  84.318  1.00  0.00     0.003 C 
BRANCH  22  23
ATOM     23  C   UNL     1      91.769  80.795  84.302  1.00  0.00    -0.017 C 
ATOM     24  C   UNL     1      90.290  81.173  84.408  1.00  0.00     0.007 C 
ATOM     25  C   UNL     1      92.133  79.824  85.426  1.00  0.00     0.007 C 
ENDBRANCH  22  23
ENDBRANCH  21  22
ENDBRANCH  20  21
ENDBRANCH  19  20
ENDBRANCH  18  19
ENDBRANCH   1  18
TORSDOF 12
ENDMDL
MODEL 8
REMARK VINA RESULT:    -5.503     24.054     26.112
REMARK INTER + INTRA:         -10.177
REMARK INTER:                  -8.990
REMARK INTRA:                  -1.187
REMARK UNBOUND:                -0.974
REMARK SMILES COc1cc(CNC(=O)CCCCCCCC(C)C)ccc1O
REMARK SMILES IDX 11 1 10 2 8 3 9 4 7 5 6 7 5 8 4 9 20 10 3 11 21 12 22 13
REMARK SMILES IDX 2 14 1 15 23 16 12 18 13 19 14 20 15 21 16 22 17 23 18 24
REMARK SMILES IDX 19 25
REMARK H PARENT 7 6 23 17
REMARK Flexibility Score: inf
ROOT
ATOM      1  C   UNL     1      97.093  82.906  78.430  1.00  0.00     0.010 C 
ENDROOT
BRANCH   1   2
ATOM      2  C   UNL     1      96.317  83.968  77.653  1.00  0.00     0.100 C 
BRANCH   2   3
ATOM      3  C   UNL     1      96.936  84.261  76.297  1.00  0.00     0.220 C 
ATOM      4  O   UNL     1      96.284  84.629  75.323  1.00  0.00    -0.275 OA
ATOM      5  N   UNL     1      98.307  84.052  76.307  1.00  0.00    -0.352 N 
ATOM      6  H   UNL     1      98.761  83.735  77.160  1.00  0.00     0.163 HD
BRANCH   5   7
ATOM      7  C   UNL     1      99.139  84.250  75.142  1.00  0.00     0.151 C 
BRANCH   7   8
ATOM      8  C   UNL     1     100.228  83.222  75.048  1.00  0.00    -0.025 A 
ATOM      9  C   UNL     1     100.516  82.423  76.148  1.00  0.00     0.056 A 
ATOM     10  C   UNL     1     100.939  83.081  73.863  1.00  0.00     0.009 A 
ATOM     11  C   UNL     1     101.529  81.468  76.061  1.00  0.00     0.160 A 
ATOM     12  C   UNL     1     101.953  82.126  73.776  1.00  0.00     0.050 A 
ATOM     13  C   UNL     1     102.248  81.319  74.875  1.00  0.00     0.157 A 
BRANCH  11  14
ATOM     14  O   UNL     1     101.808  80.686  77.142  1.00  0.00    -0.493 OA
ATOM     15  C   UNL     1     102.606  81.266  78.172  1.00  0.00     0.278 C 
ENDBRANCH  11  14
BRANCH  13  16
ATOM     16  O   UNL     1     103.239  80.390  74.778  1.00  0.00    -0.504 OA
ATOM     17  H   UNL     1     103.658  80.282  75.649  1.00  0.00     0.293 HD
ENDBRANCH  13  16
ENDBRANCH   7   8
ENDBRANCH   5   7
ENDBRANCH   2   3
ENDBRANCH   1   2
BRANCH   1  18
ATOM     18  C   UNL     1      97.680  83.422  79.747  1.00  0.00     0.001 C 
BRANCH  18  19
ATOM     19  C   UNL     1      98.189  82.346  80.713  1.00  0.00     0.000 C 
BRANCH  19  20
ATOM     20  C   UNL     1      97.216  81.177  80.885  1.00  0.00     0.000 C 
BRANCH  20  21
ATOM     21  C   UNL     1      96.653  81.056  82.305  1.00  0.00     0.000 C 
BRANCH  21  22
ATOM     22  C   UNL     1      96.825  82.332  83.136  1.00  0.00     0.003 C 
BRANCH  22  23
ATOM     23  C   UNL     1      95.574  83.233  83.145  1.00  0.00    -0.017 C 
ATOM     24  C   UNL     1      95.995  84.701  83.251  1.00  0.00     0.007 C 
ATOM     25  C   UNL     1      94.614  82.890  84.284  1.00  0.00     0.007 C 
ENDBRANCH  22  23
ENDBRANCH  21  22
ENDBRANCH  20  21
ENDBRANCH  19  20
ENDBRANCH  18  19
ENDBRANCH   1  18
TORSDOF 12
ENDMDL
MODEL 9
REMARK VINA RESULT:    -5.427     17.353     20.291
REMARK INTER + INTRA:         -10.050
REMARK INTER:                  -8.944
REMARK INTRA:                  -1.106
REMARK UNBOUND:                -0.974
REMARK SMILES COc1cc(CNC(=O)CCCCCCCC(C)C)ccc1O
REMARK SMILES IDX 11 1 10 2 8 3 9 4 7 5 6 7 5 8 4 9 20 10 3 11 21 12 22 13
REMARK SMILES IDX 2 14 1 15 23 16 12 18 13 19 14 20 15 21 16 22 17 23 18 24
REMARK SMILES IDX 19 25
REMARK H PARENT 7 6 23 17
REMARK Flexibility Score: inf
ROOT
ATOM      1  C   UNL     1      95.684  97.104  72.271  1.00  0.00     0.010 C 
ENDROOT
BRANCH   1   2
ATOM      2  C   UNL     1      96.826  97.782  73.025  1.00  0.00     0.100 C 
BRANCH   2   3
ATOM      3  C   UNL     1      96.378  98.355  74.360  1.00  0.00     0.220 C 
ATOM      4  O   UNL     1      97.053  99.143  75.015  1.00  0.00    -0.275 OA
ATOM      5  N   UNL     1      95.133  97.869  74.730  1.00  0.00    -0.352 N 
ATOM      6  H   UNL     1      94.651  97.208  74.127  1.00  0.00     0.163 HD
BRANCH   5   7
ATOM      7  C   UNL     1      94.479  98.249  75.962  1.00  0.00     0.151 C 
BRANCH   7   8
ATOM      8  C   UNL     1      94.438  97.118  76.948  1.00  0.00    -0.025 A 
ATOM      9  C   UNL     1      93.258  96.408  77.131  1.00  0.00     0.056 A 
ATOM     10  C   UNL     1      95.581  96.793  77.667  1.00  0.00     0.009 A 
ATOM     11  C   UNL     1      93.220  95.357  78.048  1.00  0.00     0.160 A 
ATOM     12  C   UNL     1      95.543  95.742  78.585  1.00  0.00     0.050 A 
ATOM     13  C   UNL     1      94.363  95.024  78.775  1.00  0.00     0.157 A 
BRANCH  11  14
ATOM     14  O   UNL     1      92.061  94.663  78.225  1.00  0.00    -0.493 OA
ATOM     15  C   UNL     1      91.245  94.460  77.072  1.00  0.00     0.278 C 
ENDBRANCH  11  14
BRANCH  13  16
ATOM     16  O   UNL     1      94.339  94.000  79.672  1.00  0.00    -0.504 OA
ATOM     17  H   UNL     1      95.252  93.712  79.849  1.00  0.00     0.293 HD
ENDBRANCH  13  16
ENDBRANCH   7   8
ENDBRANCH   5   7
ENDBRANCH   2   3
ENDBRANCH   1   2
BRANCH   1  18
ATOM     18  C   UNL     1      95.143  97.936  71.105  1.00  0.00     0.001 C 
BRANCH  18  19
ATOM     19  C   UNL     1      95.221  99.456  71.282  1.00  0.00     0.000 C 
BRANCH  19  20
ATOM     20  C   UNL     1      94.015 100.042  72.021  1.00  0.00     0.000 C 
BRANCH  20  21
ATOM     21  C   UNL     1      92.687  99.375  71.646  1.00  0.00     0.000 C 
BRANCH  21  22
ATOM     22  C   UNL     1      91.609 100.373  71.211  1.00  0.00     0.003 C 
BRANCH  22  23
ATOM     23  C   UNL     1      90.994 100.051  69.835  1.00  0.00    -0.017 C 
ATOM     24  C   UNL     1      92.026 100.307  68.734  1.00  0.00     0.007 C 
ATOM     25  C   UNL     1      89.730 100.866  69.553  1.00  0.00     0.007 C 
ENDBRANCH  22  23
ENDBRANCH  21  22
ENDBRANCH  20  21
ENDBRANCH  19  20
ENDBRANCH  18  19
ENDBRANCH   1  18
TORSDOF 12
ENDMDL
MODEL 10
REMARK VINA RESULT:    -5.271     24.009     25.605
REMARK INTER + INTRA:          -9.788
REMARK INTER:                  -8.554
REMARK INTRA:                  -1.234
REMARK UNBOUND:                -0.974
REMARK SMILES COc1cc(CNC(=O)CCCCCCCC(C)C)ccc1O
REMARK SMILES IDX 11 1 10 2 8 3 9 4 7 5 6 7 5 8 4 9 20 10 3 11 21 12 22 13
REMARK SMILES IDX 2 14 1 15 23 16 12 18 13 19 14 20 15 21 16 22 17 23 18 24
REMARK SMILES IDX 19 25
REMARK H PARENT 7 6 23 17
REMARK Flexibility Score: inf
ROOT
ATOM      1  C   UNL     1      99.929  81.566  80.515  1.00  0.00     0.010 C 
ENDROOT
BRANCH   1   2
ATOM      2  C   UNL     1      98.930  82.713  80.375  1.00  0.00     0.100 C 
BRANCH   2   3
ATOM      3  C   UNL     1      97.611  82.421  81.070  1.00  0.00     0.220 C 
ATOM      4  O   UNL     1      97.063  81.323  81.040  1.00  0.00    -0.275 OA
ATOM      5  N   UNL     1      97.118  83.542  81.721  1.00  0.00    -0.352 N 
ATOM      6  H   UNL     1      97.638  84.415  81.681  1.00  0.00     0.163 HD
BRANCH   5   7
ATOM      7  C   UNL     1      95.873  83.538  82.454  1.00  0.00     0.151 C 
BRANCH   7   8
ATOM      8  C   UNL     1      96.040  82.993  83.842  1.00  0.00    -0.025 A 
ATOM      9  C   UNL     1      96.945  83.591  84.711  1.00  0.00     0.056 A 
ATOM     10  C   UNL     1      95.289  81.896  84.244  1.00  0.00     0.009 A 
ATOM     11  C   UNL     1      97.101  83.085  86.001  1.00  0.00     0.160 A 
ATOM     12  C   UNL     1      95.445  81.389  85.535  1.00  0.00     0.050 A 
ATOM     13  C   UNL     1      96.351  81.983  86.414  1.00  0.00     0.157 A 
BRANCH  11  14
ATOM     14  O   UNL     1      97.989  83.673  86.850  1.00  0.00    -0.493 OA
ATOM     15  C   UNL     1      99.297  83.106  86.914  1.00  0.00     0.278 C 
ENDBRANCH  11  14
BRANCH  13  16
ATOM     16  O   UNL     1      96.493  81.479  87.671  1.00  0.00    -0.504 OA
ATOM     17  H   UNL     1      95.735  80.903  87.869  1.00  0.00     0.293 HD
ENDBRANCH  13  16
ENDBRANCH   7   8
ENDBRANCH   5   7
ENDBRANCH   2   3
ENDBRANCH   1   2
BRANCH   1  18
ATOM     18  C   UNL     1     100.639  81.211  79.206  1.00  0.00     0.001 C 
BRANCH  18  19
ATOM     19  C   UNL     1      99.759  81.211  77.952  1.00  0.00     0.000 C 
BRANCH  19  20
ATOM     20  C   UNL     1     100.318  82.078  76.820  1.00  0.00     0.000 C 
BRANCH  20  21
ATOM     21  C   UNL     1      99.245  82.574  75.844  1.00  0.00     0.000 C 
BRANCH  21  22
ATOM     22  C   UNL     1      97.831  82.551  76.435  1.00  0.00     0.003 C 
BRANCH  22  23
ATOM     23  C   UNL     1      97.342  83.934  76.909  1.00  0.00    -0.017 C 
ATOM     24  C   UNL     1      96.291  83.761  78.009  1.00  0.00     0.007 C 
ATOM     25  C   UNL     1      96.760  84.772  75.770  1.00  0.00     0.007 C 
ENDBRANCH  22  23
ENDBRANCH  21  22
ENDBRANCH  20  21
ENDBRANCH  19  20
ENDBRANCH  18  19
ENDBRANCH   1  18
TORSDOF 12
ENDMDL
