MODEL 1
REMARK VINA RESULT:    -5.674      0.000      0.000
REMARK INTER + INTRA:         -10.186
REMARK INTER:                  -9.157
REMARK INTRA:                  -1.029
REMARK UNBOUND:                -1.029
REMARK SMILES COc1cc(CNC(=O)CCCCCCC(C)C)ccc1O
REMARK SMILES IDX 11 1 10 2 8 3 7 4 9 6 6 7 5 8 3 9 21 10 4 11 20 12 19 13
REMARK SMILES IDX 2 14 1 15 22 16 12 18 13 19 14 20 15 21 16 22 17 23 18 24
REMARK H PARENT 7 5 22 17
REMARK Flexibility Score: inf
ROOT
ATOM      1  C   UNL     1      97.547  83.390  80.032  1.00  0.00     0.010 C 
ENDROOT
BRANCH   1   2
ATOM      2  C   UNL     1      99.055  83.137  80.306  1.00  0.00     0.100 C 
BRANCH   2   3
ATOM      3  C   UNL     1      99.353  82.861  81.730  1.00  0.00     0.220 C 
ATOM      4  N   UNL     1      98.445  83.178  82.698  1.00  0.00    -0.352 N 
ATOM      5  H   UNL     1      97.613  83.639  82.360  1.00  0.00     0.163 HD
ATOM      6  O   UNL     1     100.442  82.309  82.020  1.00  0.00    -0.275 OA
BRANCH   4   7
ATOM      7  C   UNL     1      98.598  82.906  84.095  1.00  0.00     0.151 C 
BRANCH   7   8
ATOM      8  C   UNL     1      97.572  83.578  84.939  1.00  0.00    -0.025 A 
ATOM      9  C   UNL     1      95.740  83.443  86.574  1.00  0.00     0.160 A 
ATOM     10  C   UNL     1      95.642  84.852  86.584  1.00  0.00     0.157 A 
ATOM     11  C   UNL     1      96.689  82.817  85.739  1.00  0.00     0.056 A 
ATOM     12  C   UNL     1      96.489  85.618  85.763  1.00  0.00     0.050 A 
ATOM     13  C   UNL     1      97.454  84.988  84.954  1.00  0.00     0.009 A 
BRANCH   9  14
ATOM     14  O   UNL     1      94.895  82.687  87.340  1.00  0.00    -0.493 OA
ATOM     15  C   UNL     1      93.789  82.131  86.606  1.00  0.00     0.278 C 
ENDBRANCH   9  14
BRANCH  10  16
ATOM     16  O   UNL     1      94.736  85.482  87.378  1.00  0.00    -0.504 OA
ATOM     17  H   UNL     1      93.941  84.948  87.440  1.00  0.00     0.293 HD
ENDBRANCH  10  16
ENDBRANCH   7   8
ENDBRANCH   4   7
ENDBRANCH   2   3
ENDBRANCH   1   2
BRANCH   1  18
ATOM     18  C   UNL     1      97.175  83.162  78.540  1.00  0.00     0.001 C 
BRANCH  18  19
ATOM     19  C   UNL     1      97.662  84.294  77.592  1.00  0.00     0.000 C 
BRANCH  19  20
ATOM     20  C   UNL     1      98.172  83.726  76.238  1.00  0.00     0.000 C 
BRANCH  20  21
ATOM     21  C   UNL     1      99.686  83.961  75.977  1.00  0.00     0.003 C 
BRANCH  21  22
ATOM     22  C   UNL     1     100.591  82.712  76.230  1.00  0.00    -0.017 C 
ATOM     23  C   UNL     1      99.721  81.433  76.385  1.00  0.00     0.007 C 
ATOM     24  C   UNL     1     101.550  82.869  77.446  1.00  0.00     0.007 C 
ENDBRANCH  21  22
ENDBRANCH  20  21
ENDBRANCH  19  20
ENDBRANCH  18  19
ENDBRANCH   1  18
TORSDOF 11
ENDMDL
MODEL 2
REMARK VINA RESULT:    -5.640     15.434     17.108
REMARK INTER + INTRA:         -10.132
REMARK INTER:                  -9.640
REMARK INTRA:                  -0.492
REMARK UNBOUND:                -1.029
REMARK SMILES COc1cc(CNC(=O)CCCCCCC(C)C)ccc1O
REMARK SMILES IDX 11 1 10 2 8 3 7 4 9 6 6 7 5 8 3 9 21 10 4 11 20 12 19 13
REMARK SMILES IDX 2 14 1 15 22 16 12 18 13 19 14 20 15 21 16 22 17 23 18 24
REMARK H PARENT 7 5 22 17
REMARK Flexibility Score: inf
ROOT
ATOM      1  C   UNL     1      92.924 100.384  73.380  1.00  0.00     0.010 C 
ENDROOT
BRANCH   1   2
ATOM      2  C   UNL     1      92.884  99.667  74.758  1.00  0.00     0.100 C 
BRANCH   2   3
ATOM      3  C   UNL     1      93.810  98.516  74.845  1.00  0.00     0.220 C 
ATOM      4  N   UNL     1      93.529  97.466  75.670  1.00  0.00    -0.352 N 
ATOM      5  H   UNL     1      92.689  97.575  76.219  1.00  0.00     0.163 HD
ATOM      6  O   UNL     1      94.841  98.517  74.129  1.00  0.00    -0.275 OA
BRANCH   4   7
ATOM      7  C   UNL     1      94.317  96.277  75.793  1.00  0.00     0.151 C 
BRANCH   7   8
ATOM      8  C   UNL     1      94.063  95.533  77.057  1.00  0.00    -0.025 A 
ATOM      9  C   UNL     1      92.496  94.457  78.616  1.00  0.00     0.160 A 
ATOM     10  C   UNL     1      93.575  94.076  79.443  1.00  0.00     0.157 A 
ATOM     11  C   UNL     1      92.746  95.197  77.442  1.00  0.00     0.056 A 
ATOM     12  C   UNL     1      94.888  94.438  79.090  1.00  0.00     0.050 A 
ATOM     13  C   UNL     1      95.133  95.152  77.901  1.00  0.00     0.009 A 
BRANCH   9  14
ATOM     14  O   UNL     1      91.211  94.144  78.970  1.00  0.00    -0.493 OA
ATOM     15  C   UNL     1      90.548  93.273  78.036  1.00  0.00     0.278 C 
ENDBRANCH   9  14
BRANCH  10  16
ATOM     16  O   UNL     1      93.364  93.364  80.581  1.00  0.00    -0.504 OA
ATOM     17  H   UNL     1      93.690  93.862  81.334  1.00  0.00     0.293 HD
ENDBRANCH  10  16
ENDBRANCH   7   8
ENDBRANCH   4   7
ENDBRANCH   2   3
ENDBRANCH   1   2
BRANCH   1  18
ATOM     18  C   UNL     1      91.509 100.521  72.748  1.00  0.00     0.001 C 
BRANCH  18  19
ATOM     19  C   UNL     1      91.406  99.937  71.311  1.00  0.00     0.000 C 
BRANCH  19  20
ATOM     20  C   UNL     1      89.930  99.659  70.911  1.00  0.00     0.000 C 
BRANCH  20  21
ATOM     21  C   UNL     1      89.761  98.572  69.813  1.00  0.00     0.003 C 
BRANCH  21  22
ATOM     22  C   UNL     1      89.265  99.115  68.433  1.00  0.00    -0.017 C 
ATOM     23  C   UNL     1      89.145 100.664  68.469  1.00  0.00     0.007 C 
ATOM     24  C   UNL     1      87.929  98.475  67.952  1.00  0.00     0.007 C 
ENDBRANCH  21  22
ENDBRANCH  20  21
ENDBRANCH  19  20
ENDBRANCH  18  19
ENDBRANCH   1  18
TORSDOF 11
ENDMDL
MODEL 3
REMARK VINA RESULT:    -5.635     25.711     27.764
REMARK INTER + INTRA:         -10.124
REMARK INTER:                  -8.915
REMARK INTRA:                  -1.209
REMARK UNBOUND:                -1.029
REMARK SMILES COc1cc(CNC(=O)CCCCCCC(C)C)ccc1O
REMARK SMILES IDX 11 1 10 2 8 3 7 4 9 6 6 7 5 8 3 9 21 10 4 11 20 12 19 13
REMARK SMILES IDX 2 14 1 15 22 16 12 18 13 19 14 20 15 21 16 22 17 23 18 24
REMARK H PARENT 7 5 22 17
REMARK Flexibility Score: inf
ROOT
ATOM      1  C   UNL     1      74.926  81.305  63.197  1.00  0.00     0.010 C 
ENDROOT
BRANCH   1   2
ATOM      2  C   UNL     1      75.655  81.410  64.565  1.00  0.00     0.100 C 
BRANCH   2   3
ATOM      3  C   UNL     1      76.501  82.619  64.685  1.00  0.00     0.220 C 
ATOM      4  N   UNL     1      77.422  82.719  65.687  1.00  0.00    -0.352 N 
ATOM      5  H   UNL     1      77.430  81.941  66.331  1.00  0.00     0.163 HD
ATOM      6  O   UNL     1      76.370  83.532  63.834  1.00  0.00    -0.275 OA
BRANCH   4   7
ATOM      7  C   UNL     1      78.332  83.809  65.867  1.00  0.00     0.151 C 
BRANCH   7   8
ATOM      8  C   UNL     1      77.889  84.777  66.908  1.00  0.00    -0.025 A 
ATOM      9  C   UNL     1      77.520  85.339  69.274  1.00  0.00     0.160 A 
ATOM     10  C   UNL     1      77.089  86.631  68.902  1.00  0.00     0.157 A 
ATOM     11  C   UNL     1      77.898  84.417  68.275  1.00  0.00     0.056 A 
ATOM     12  C   UNL     1      77.039  86.988  67.543  1.00  0.00     0.050 A 
ATOM     13  C   UNL     1      77.446  86.073  66.552  1.00  0.00     0.009 A 
BRANCH   9  14
ATOM     14  O   UNL     1      77.535  84.968  70.591  1.00  0.00    -0.493 OA
ATOM     15  C   UNL     1      76.354  84.258  71.008  1.00  0.00     0.278 C 
ENDBRANCH   9  14
BRANCH  10  16
ATOM     16  O   UNL     1      76.718  87.539  69.843  1.00  0.00    -0.504 OA
ATOM     17  H   UNL     1      76.989  88.416  69.564  1.00  0.00     0.293 HD
ENDBRANCH  10  16
ENDBRANCH   7   8
ENDBRANCH   4   7
ENDBRANCH   2   3
ENDBRANCH   1   2
BRANCH   1  18
ATOM     18  C   UNL     1      73.802  80.230  63.213  1.00  0.00     0.001 C 
BRANCH  18  19
ATOM     19  C   UNL     1      72.367  80.823  63.117  1.00  0.00     0.000 C 
BRANCH  19  20
ATOM     20  C   UNL     1      72.390  82.377  63.114  1.00  0.00     0.000 C 
BRANCH  20  21
ATOM     21  C   UNL     1      71.530  83.029  64.233  1.00  0.00     0.003 C 
BRANCH  21  22
ATOM     22  C   UNL     1      71.688  82.370  65.642  1.00  0.00    -0.017 C 
ATOM     23  C   UNL     1      70.433  82.647  66.516  1.00  0.00     0.007 C 
ATOM     24  C   UNL     1      72.982  82.802  66.393  1.00  0.00     0.007 C 
ENDBRANCH  21  22
ENDBRANCH  20  21
ENDBRANCH  19  20
ENDBRANCH  18  19
ENDBRANCH   1  18
TORSDOF 11
ENDMDL
MODEL 4
REMARK VINA RESULT:    -5.631     17.330     19.992
REMARK INTER + INTRA:         -10.116
REMARK INTER:                  -9.522
REMARK INTRA:                  -0.595
REMARK UNBOUND:                -1.029
REMARK SMILES COc1cc(CNC(=O)CCCCCCC(C)C)ccc1O
REMARK SMILES IDX 11 1 10 2 8 3 7 4 9 6 6 7 5 8 3 9 21 10 4 11 20 12 19 13
REMARK SMILES IDX 2 14 1 15 22 16 12 18 13 19 14 20 15 21 16 22 17 23 18 24
REMARK H PARENT 7 5 22 17
REMARK Flexibility Score: inf
ROOT
ATOM      1  C   UNL     1      94.885  98.954  74.916  1.00  0.00     0.010 C 
ENDROOT
BRANCH   1   2
ATOM      2  C   UNL     1      93.382  99.311  74.744  1.00  0.00     0.100 C 
BRANCH   2   3
ATOM      3  C   UNL     1      93.075  99.936  73.438  1.00  0.00     0.220 C 
ATOM      4  N   UNL     1      91.796  99.950  72.965  1.00  0.00    -0.352 N 
ATOM      5  H   UNL     1      91.125  99.473  73.549  1.00  0.00     0.163 HD
ATOM      6  O   UNL     1      94.010 100.470  72.792  1.00  0.00    -0.275 OA
BRANCH   4   7
ATOM      7  C   UNL     1      91.372 100.574  71.748  1.00  0.00     0.151 C 
BRANCH   7   8
ATOM      8  C   UNL     1      90.453  99.724  70.942  1.00  0.00    -0.025 A 
ATOM      9  C   UNL     1      88.842  99.482  69.099  1.00  0.00     0.160 A 
ATOM     10  C   UNL     1      88.731  98.101  69.374  1.00  0.00     0.157 A 
ATOM     11  C   UNL     1      89.686 100.284  69.895  1.00  0.00     0.056 A 
ATOM     12  C   UNL     1      89.459  97.539  70.438  1.00  0.00     0.050 A 
ATOM     13  C   UNL     1      90.322  98.341  71.211  1.00  0.00     0.009 A 
BRANCH   9  14
ATOM     14  O   UNL     1      88.109 100.046  68.091  1.00  0.00    -0.493 OA
ATOM     15  C   UNL     1      88.523 101.382  67.750  1.00  0.00     0.278 C 
ENDBRANCH   9  14
BRANCH  10  16
ATOM     16  O   UNL     1      87.925  97.304  68.625  1.00  0.00    -0.504 OA
ATOM     17  H   UNL     1      88.162  96.385  68.769  1.00  0.00     0.293 HD
ENDBRANCH  10  16
ENDBRANCH   7   8
ENDBRANCH   4   7
ENDBRANCH   2   3
ENDBRANCH   1   2
BRANCH   1  18
ATOM     18  C   UNL     1      95.095  97.455  75.272  1.00  0.00     0.001 C 
BRANCH  18  19
ATOM     19  C   UNL     1      93.843  96.778  75.899  1.00  0.00     0.000 C 
BRANCH  19  20
ATOM     20  C   UNL     1      94.089  96.384  77.382  1.00  0.00     0.000 C 
BRANCH  20  21
ATOM     21  C   UNL     1      94.372  94.871  77.601  1.00  0.00     0.003 C 
BRANCH  21  22
ATOM     22  C   UNL     1      94.485  94.441  79.100  1.00  0.00    -0.017 C 
ATOM     23  C   UNL     1      94.278  95.666  80.035  1.00  0.00     0.007 C 
ATOM     24  C   UNL     1      95.819  93.714  79.442  1.00  0.00     0.007 C 
ENDBRANCH  21  22
ENDBRANCH  20  21
ENDBRANCH  19  20
ENDBRANCH  18  19
ENDBRANCH   1  18
TORSDOF 11
ENDMDL
MODEL 5
REMARK VINA RESULT:    -5.572     17.662     20.379
REMARK INTER + INTRA:         -10.021
REMARK INTER:                  -9.158
REMARK INTRA:                  -0.863
REMARK UNBOUND:                -1.029
REMARK SMILES COc1cc(CNC(=O)CCCCCCC(C)C)ccc1O
REMARK SMILES IDX 11 1 10 2 8 3 7 4 9 6 6 7 5 8 3 9 21 10 4 11 20 12 19 13
REMARK SMILES IDX 2 14 1 15 22 16 12 18 13 19 14 20 15 21 16 22 17 23 18 24
REMARK H PARENT 7 5 22 17
REMARK Flexibility Score: inf
ROOT
ATOM      1  C   UNL     1      94.403  98.887  75.916  1.00  0.00     0.010 C 
ENDROOT
BRANCH   1   2
ATOM      2  C   UNL     1      93.238  98.561  74.941  1.00  0.00     0.100 C 
BRANCH   2   3
ATOM      3  C   UNL     1      92.701  99.755  74.250  1.00  0.00     0.220 C 
ATOM      4  N   UNL     1      92.161  99.644  73.002  1.00  0.00    -0.352 N 
ATOM      5  H   UNL     1      92.207  98.718  72.604  1.00  0.00     0.163 HD
ATOM      6  O   UNL     1      92.732 100.859  74.846  1.00  0.00    -0.275 OA
BRANCH   4   7
ATOM      7  C   UNL     1      91.562 100.714  72.263  1.00  0.00     0.151 C 
BRANCH   7   8
ATOM      8  C   UNL     1      90.632 100.244  71.200  1.00  0.00    -0.025 A 
ATOM      9  C   UNL     1      89.819 100.353  68.882  1.00  0.00     0.160 A 
ATOM     10  C   UNL     1      88.893  99.323  69.156  1.00  0.00     0.157 A 
ATOM     11  C   UNL     1      90.667 100.818  69.909  1.00  0.00     0.056 A 
ATOM     12  C   UNL     1      88.821  98.771  70.448  1.00  0.00     0.050 A 
ATOM     13  C   UNL     1      89.691  99.220  71.461  1.00  0.00     0.009 A 
BRANCH   9  14
ATOM     14  O   UNL     1      89.869 100.924  67.639  1.00  0.00    -0.493 OA
ATOM     15  C   UNL     1      89.334 102.259  67.592  1.00  0.00     0.278 C 
ENDBRANCH   9  14
BRANCH  10  16
ATOM     16  O   UNL     1      88.062  98.857  68.186  1.00  0.00    -0.504 OA
ATOM     17  H   UNL     1      87.769  99.589  67.638  1.00  0.00     0.293 HD
ENDBRANCH  10  16
ENDBRANCH   7   8
ENDBRANCH   4   7
ENDBRANCH   2   3
ENDBRANCH   1   2
BRANCH   1  18
ATOM     18  C   UNL     1      95.069  97.603  76.485  1.00  0.00     0.001 C 
BRANCH  18  19
ATOM     19  C   UNL     1      94.699  96.308  75.708  1.00  0.00     0.000 C 
BRANCH  19  20
ATOM     20  C   UNL     1      93.934  95.299  76.611  1.00  0.00     0.000 C 
BRANCH  20  21
ATOM     21  C   UNL     1      93.321  95.928  77.893  1.00  0.00     0.003 C 
BRANCH  21  22
ATOM     22  C   UNL     1      91.912  95.371  78.280  1.00  0.00    -0.017 C 
ATOM     23  C   UNL     1      91.844  93.839  78.027  1.00  0.00     0.007 C 
ATOM     24  C   UNL     1      90.735  96.095  77.562  1.00  0.00     0.007 C 
ENDBRANCH  21  22
ENDBRANCH  20  21
ENDBRANCH  19  20
ENDBRANCH  18  19
ENDBRANCH   1  18
TORSDOF 11
ENDMDL
MODEL 6
REMARK VINA RESULT:    -5.436     23.872     25.078
REMARK INTER + INTRA:          -9.801
REMARK INTER:                  -8.930
REMARK INTRA:                  -0.872
REMARK UNBOUND:                -1.029
REMARK SMILES COc1cc(CNC(=O)CCCCCCC(C)C)ccc1O
REMARK SMILES IDX 11 1 10 2 8 3 7 4 9 6 6 7 5 8 3 9 21 10 4 11 20 12 19 13
REMARK SMILES IDX 2 14 1 15 22 16 12 18 13 19 14 20 15 21 16 22 17 23 18 24
REMARK H PARENT 7 5 22 17
REMARK Flexibility Score: inf
ROOT
ATOM      1  C   UNL     1      76.283  87.779  69.299  1.00  0.00     0.010 C 
ENDROOT
BRANCH   1   2
ATOM      2  C   UNL     1      75.401  87.836  70.577  1.00  0.00     0.100 C 
BRANCH   2   3
ATOM      3  C   UNL     1      74.911  89.197  70.889  1.00  0.00     0.220 C 
ATOM      4  N   UNL     1      75.755  90.267  70.819  1.00  0.00    -0.352 N 
ATOM      5  H   UNL     1      76.710  90.035  70.588  1.00  0.00     0.163 HD
ATOM      6  O   UNL     1      73.702  89.346  71.194  1.00  0.00    -0.275 OA
BRANCH   4   7
ATOM      7  C   UNL     1      75.380  91.631  71.041  1.00  0.00     0.151 C 
BRANCH   7   8
ATOM      8  C   UNL     1      76.075  92.248  72.204  1.00  0.00    -0.025 A 
ATOM      9  C   UNL     1      76.006  93.155  74.489  1.00  0.00     0.160 A 
ATOM     10  C   UNL     1      77.399  93.384  74.442  1.00  0.00     0.157 A 
ATOM     11  C   UNL     1      75.353  92.608  73.365  1.00  0.00     0.056 A 
ATOM     12  C   UNL     1      78.122  93.066  73.278  1.00  0.00     0.050 A 
ATOM     13  C   UNL     1      77.468  92.492  72.170  1.00  0.00     0.009 A 
BRANCH   9  14
ATOM     14  O   UNL     1      75.287  93.497  75.601  1.00  0.00    -0.493 OA
ATOM     15  C   UNL     1      75.084  92.407  76.519  1.00  0.00     0.278 C 
ENDBRANCH   9  14
BRANCH  10  16
ATOM     16  O   UNL     1      78.054  93.911  75.509  1.00  0.00    -0.504 OA
ATOM     17  H   UNL     1      78.333  93.203  76.095  1.00  0.00     0.293 HD
ENDBRANCH  10  16
ENDBRANCH   7   8
ENDBRANCH   4   7
ENDBRANCH   2   3
ENDBRANCH   1   2
BRANCH   1  18
ATOM     18  C   UNL     1      77.483  86.802  69.456  1.00  0.00     0.001 C 
BRANCH  18  19
ATOM     19  C   UNL     1      77.175  85.572  70.356  1.00  0.00     0.000 C 
BRANCH  19  20
ATOM     20  C   UNL     1      77.235  84.244  69.550  1.00  0.00     0.000 C 
BRANCH  20  21
ATOM     21  C   UNL     1      76.190  84.147  68.403  1.00  0.00     0.003 C 
BRANCH  21  22
ATOM     22  C   UNL     1      76.800  83.878  66.989  1.00  0.00    -0.017 C 
ATOM     23  C   UNL     1      76.257  82.542  66.408  1.00  0.00     0.007 C 
ATOM     24  C   UNL     1      78.357  83.888  66.967  1.00  0.00     0.007 C 
ENDBRANCH  21  22
ENDBRANCH  20  21
ENDBRANCH  19  20
ENDBRANCH  18  19
ENDBRANCH   1  18
TORSDOF 11
ENDMDL
MODEL 7
REMARK VINA RESULT:    -5.372     26.782     28.925
REMARK INTER + INTRA:          -9.699
REMARK INTER:                  -8.616
REMARK INTRA:                  -1.083
REMARK UNBOUND:                -1.029
REMARK SMILES COc1cc(CNC(=O)CCCCCCC(C)C)ccc1O
REMARK SMILES IDX 11 1 10 2 8 3 7 4 9 6 6 7 5 8 3 9 21 10 4 11 20 12 19 13
REMARK SMILES IDX 2 14 1 15 22 16 12 18 13 19 14 20 15 21 16 22 17 23 18 24
REMARK H PARENT 7 5 22 17
REMARK Flexibility Score: inf
ROOT
ATOM      1  C   UNL     1      71.038  83.511  66.123  1.00  0.00     0.010 C 
ENDROOT
BRANCH   1   2
ATOM      2  C   UNL     1      71.590  82.684  64.929  1.00  0.00     0.100 C 
BRANCH   2   3
ATOM      3  C   UNL     1      72.821  81.931  65.259  1.00  0.00     0.220 C 
ATOM      4  N   UNL     1      73.910  82.578  65.764  1.00  0.00    -0.352 N 
ATOM      5  H   UNL     1      73.807  83.579  65.840  1.00  0.00     0.163 HD
ATOM      6  O   UNL     1      72.829  80.687  65.087  1.00  0.00    -0.275 OA
BRANCH   4   7
ATOM      7  C   UNL     1      75.130  81.949  66.172  1.00  0.00     0.151 C 
BRANCH   7   8
ATOM      8  C   UNL     1      76.079  82.883  66.836  1.00  0.00    -0.025 A 
ATOM      9  C   UNL     1      76.536  84.605  68.532  1.00  0.00     0.160 A 
ATOM     10  C   UNL     1      77.892  84.637  68.137  1.00  0.00     0.157 A 
ATOM     11  C   UNL     1      75.638  83.744  67.867  1.00  0.00     0.056 A 
ATOM     12  C   UNL     1      78.334  83.814  67.086  1.00  0.00     0.050 A 
ATOM     13  C   UNL     1      77.438  82.935  66.446  1.00  0.00     0.009 A 
BRANCH   9  14
ATOM     14  O   UNL     1      76.087  85.430  69.527  1.00  0.00    -0.493 OA
ATOM     15  C   UNL     1      75.828  84.752  70.770  1.00  0.00     0.278 C 
ENDBRANCH   9  14
BRANCH  10  16
ATOM     16  O   UNL     1      78.779  85.457  68.759  1.00  0.00    -0.504 OA
ATOM     17  H   UNL     1      78.416  85.740  69.602  1.00  0.00     0.293 HD
ENDBRANCH  10  16
ENDBRANCH   7   8
ENDBRANCH   4   7
ENDBRANCH   2   3
ENDBRANCH   1   2
BRANCH   1  18
ATOM     18  C   UNL     1      70.190  82.644  67.096  1.00  0.00     0.001 C 
BRANCH  18  19
ATOM     19  C   UNL     1      68.761  83.202  67.350  1.00  0.00     0.000 C 
BRANCH  19  20
ATOM     20  C   UNL     1      68.628  83.806  68.776  1.00  0.00     0.000 C 
BRANCH  20  21
ATOM     21  C   UNL     1      69.573  83.166  69.830  1.00  0.00     0.003 C 
BRANCH  21  22
ATOM     22  C   UNL     1      70.396  84.194  70.675  1.00  0.00    -0.017 C 
ATOM     23  C   UNL     1      69.460  85.287  71.262  1.00  0.00     0.007 C 
ATOM     24  C   UNL     1      71.573  84.847  69.892  1.00  0.00     0.007 C 
ENDBRANCH  21  22
ENDBRANCH  20  21
ENDBRANCH  19  20
ENDBRANCH  18  19
ENDBRANCH   1  18
TORSDOF 11
ENDMDL
MODEL 8
REMARK VINA RESULT:    -5.265      1.723      2.235
REMARK INTER + INTRA:          -9.526
REMARK INTER:                  -8.832
REMARK INTRA:                  -0.694
REMARK UNBOUND:                -1.029
REMARK SMILES COc1cc(CNC(=O)CCCCCCC(C)C)ccc1O
REMARK SMILES IDX 11 1 10 2 8 3 7 4 9 6 6 7 5 8 3 9 21 10 4 11 20 12 19 13
REMARK SMILES IDX 2 14 1 15 22 16 12 18 13 19 14 20 15 21 16 22 17 23 18 24
REMARK H PARENT 7 5 22 17
REMARK Flexibility Score: inf
ROOT
ATOM      1  C   UNL     1      98.339  83.262  80.283  1.00  0.00     0.010 C 
ENDROOT
BRANCH   1   2
ATOM      2  C   UNL     1      99.685  82.737  80.854  1.00  0.00     0.100 C 
BRANCH   2   3
ATOM      3  C   UNL     1      99.557  82.145  82.204  1.00  0.00     0.220 C 
ATOM      4  N   UNL     1      98.347  82.121  82.834  1.00  0.00    -0.352 N 
ATOM      5  H   UNL     1      97.599  82.568  82.325  1.00  0.00     0.163 HD
ATOM      6  O   UNL     1     100.577  81.648  82.742  1.00  0.00    -0.275 OA
BRANCH   4   7
ATOM      7  C   UNL     1      98.092  81.525  84.111  1.00  0.00     0.151 C 
BRANCH   7   8
ATOM      8  C   UNL     1      98.000  82.521  85.214  1.00  0.00    -0.025 A 
ATOM      9  C   UNL     1      97.245  84.706  86.053  1.00  0.00     0.160 A 
ATOM     10  C   UNL     1      97.781  84.405  87.324  1.00  0.00     0.157 A 
ATOM     11  C   UNL     1      97.375  83.771  85.005  1.00  0.00     0.056 A 
ATOM     12  C   UNL     1      98.440  83.180  87.535  1.00  0.00     0.050 A 
ATOM     13  C   UNL     1      98.540  82.239  86.491  1.00  0.00     0.009 A 
BRANCH   9  14
ATOM     14  O   UNL     1      96.637  85.911  85.827  1.00  0.00    -0.493 OA
ATOM     15  C   UNL     1      95.276  85.969  86.289  1.00  0.00     0.278 C 
ENDBRANCH   9  14
BRANCH  10  16
ATOM     16  O   UNL     1      97.672  85.287  88.353  1.00  0.00    -0.504 OA
ATOM     17  H   UNL     1      97.614  84.806  89.181  1.00  0.00     0.293 HD
ENDBRANCH  10  16
ENDBRANCH   7   8
ENDBRANCH   4   7
ENDBRANCH   2   3
ENDBRANCH   1   2
BRANCH   1  18
ATOM     18  C   UNL     1      98.172  82.931  78.773  1.00  0.00     0.001 C 
BRANCH  18  19
ATOM     19  C   UNL     1      97.521  84.076  77.948  1.00  0.00     0.000 C 
BRANCH  19  20
ATOM     20  C   UNL     1      97.796  83.914  76.427  1.00  0.00     0.000 C 
BRANCH  20  21
ATOM     21  C   UNL     1      98.911  82.886  76.087  1.00  0.00     0.003 C 
BRANCH  21  22
ATOM     22  C   UNL     1     100.328  83.512  75.870  1.00  0.00    -0.017 C 
ATOM     23  C   UNL     1     100.205  84.954  75.304  1.00  0.00     0.007 C 
ATOM     24  C   UNL     1     101.261  82.650  74.969  1.00  0.00     0.007 C 
ENDBRANCH  21  22
ENDBRANCH  20  21
ENDBRANCH  19  20
ENDBRANCH  18  19
ENDBRANCH   1  18
TORSDOF 11
ENDMDL
MODEL 9
REMARK VINA RESULT:    -5.256      3.282      8.196
REMARK INTER + INTRA:          -9.512
REMARK INTER:                  -8.305
REMARK INTRA:                  -1.208
REMARK UNBOUND:                -1.029
REMARK SMILES COc1cc(CNC(=O)CCCCCCC(C)C)ccc1O
REMARK SMILES IDX 11 1 10 2 8 3 7 4 9 6 6 7 5 8 3 9 21 10 4 11 20 12 19 13
REMARK SMILES IDX 2 14 1 15 22 16 12 18 13 19 14 20 15 21 16 22 17 23 18 24
REMARK H PARENT 7 5 22 17
REMARK Flexibility Score: inf
ROOT
ATOM      1  C   UNL     1     100.598  81.720  84.876  1.00  0.00     0.010 C 
ENDROOT
BRANCH   1   2
ATOM      2  C   UNL     1     100.531  80.708  83.699  1.00  0.00     0.100 C 
BRANCH   2   3
ATOM      3  C   UNL     1     101.166  81.209  82.459  1.00  0.00     0.220 C 
ATOM      4  N   UNL     1     100.469  81.228  81.286  1.00  0.00    -0.352 N 
ATOM      5  H   UNL     1      99.538  80.840  81.343  1.00  0.00     0.163 HD
ATOM      6  O   UNL     1     102.344  81.638  82.518  1.00  0.00    -0.275 OA
BRANCH   4   7
ATOM      7  C   UNL     1     100.957  81.741  80.043  1.00  0.00     0.151 C 
BRANCH   7   8
ATOM      8  C   UNL     1      99.900  82.392  79.221  1.00  0.00    -0.025 A 
ATOM      9  C   UNL     1      99.226  83.606  77.191  1.00  0.00     0.160 A 
ATOM     10  C   UNL     1      97.883  83.595  77.627  1.00  0.00     0.157 A 
ATOM     11  C   UNL     1     100.225  83.022  77.998  1.00  0.00     0.056 A 
ATOM     12  C   UNL     1      97.553  83.004  78.860  1.00  0.00     0.050 A 
ATOM     13  C   UNL     1      98.551  82.398  79.648  1.00  0.00     0.009 A 
BRANCH   9  14
ATOM     14  O   UNL     1      99.564  84.212  76.012  1.00  0.00    -0.493 OA
ATOM     15  C   UNL     1     100.651  83.570  75.320  1.00  0.00     0.278 C 
ENDBRANCH   9  14
BRANCH  10  16
ATOM     16  O   UNL     1      96.901  84.151  76.871  1.00  0.00    -0.504 OA
ATOM     17  H   UNL     1      96.690  83.565  76.140  1.00  0.00     0.293 HD
ENDBRANCH  10  16
ENDBRANCH   7   8
ENDBRANCH   4   7
ENDBRANCH   2   3
ENDBRANCH   1   2
BRANCH   1  18
ATOM     18  C   UNL     1      99.654  81.322  86.046  1.00  0.00     0.001 C 
BRANCH  18  19
ATOM     19  C   UNL     1      98.473  80.408  85.616  1.00  0.00     0.000 C 
BRANCH  19  20
ATOM     20  C   UNL     1      97.411  81.194  84.795  1.00  0.00     0.000 C 
BRANCH  20  21
ATOM     21  C   UNL     1      96.960  82.529  85.450  1.00  0.00     0.003 C 
BRANCH  21  22
ATOM     22  C   UNL     1      96.947  83.757  84.482  1.00  0.00    -0.017 C 
ATOM     23  C   UNL     1      97.703  83.420  83.166  1.00  0.00     0.007 C 
ATOM     24  C   UNL     1      97.512  85.061  85.117  1.00  0.00     0.007 C 
ENDBRANCH  21  22
ENDBRANCH  20  21
ENDBRANCH  19  20
ENDBRANCH  18  19
ENDBRANCH   1  18
TORSDOF 11
ENDMDL
MODEL 10
REMARK VINA RESULT:    -5.217     13.055     14.816
REMARK INTER + INTRA:          -9.448
REMARK INTER:                  -8.752
REMARK INTRA:                  -0.697
REMARK UNBOUND:                -1.029
REMARK SMILES COc1cc(CNC(=O)CCCCCCC(C)C)ccc1O
REMARK SMILES IDX 11 1 10 2 8 3 7 4 9 6 6 7 5 8 3 9 21 10 4 11 20 12 19 13
REMARK SMILES IDX 2 14 1 15 22 16 12 18 13 19 14 20 15 21 16 22 17 23 18 24
REMARK H PARENT 7 5 22 17
REMARK Flexibility Score: inf
ROOT
ATOM      1  C   UNL     1      95.589  96.230  78.754  1.00  0.00     0.010 C 
ENDROOT
BRANCH   1   2
ATOM      2  C   UNL     1      95.493  94.833  79.429  1.00  0.00     0.100 C 
BRANCH   2   3
ATOM      3  C   UNL     1      95.307  94.904  80.896  1.00  0.00     0.220 C 
ATOM      4  N   UNL     1      95.378  96.103  81.542  1.00  0.00    -0.352 N 
ATOM      5  H   UNL     1      95.605  96.888  80.950  1.00  0.00     0.163 HD
ATOM      6  O   UNL     1      95.060  93.845  81.522  1.00  0.00    -0.275 OA
BRANCH   4   7
ATOM      7  C   UNL     1      95.159  96.301  82.943  1.00  0.00     0.151 C 
BRANCH   7   8
ATOM      8  C   UNL     1      95.600  97.640  83.423  1.00  0.00    -0.025 A 
ATOM      9  C   UNL     1      95.559 100.091  83.228  1.00  0.00     0.160 A 
ATOM     10  C   UNL     1      96.400 100.197  84.358  1.00  0.00     0.157 A 
ATOM     11  C   UNL     1      95.181  98.815  82.759  1.00  0.00     0.056 A 
ATOM     12  C   UNL     1      96.856  99.033  85.003  1.00  0.00     0.050 A 
ATOM     13  C   UNL     1      96.451  97.763  84.546  1.00  0.00     0.009 A 
BRANCH   9  14
ATOM     14  O   UNL     1      95.143 101.216  82.570  1.00  0.00    -0.493 OA
ATOM     15  C   UNL     1      94.008 101.858  83.179  1.00  0.00     0.278 C 
ENDBRANCH   9  14
BRANCH  10  16
ATOM     16  O   UNL     1      96.782 101.412  84.831  1.00  0.00    -0.504 OA
ATOM     17  H   UNL     1      96.573 101.471  85.766  1.00  0.00     0.293 HD
ENDBRANCH  10  16
ENDBRANCH   7   8
ENDBRANCH   4   7
ENDBRANCH   2   3
ENDBRANCH   1   2
BRANCH   1  18
ATOM     18  C   UNL     1      94.566  96.393  77.594  1.00  0.00     0.001 C 
BRANCH  18  19
ATOM     19  C   UNL     1      93.138  95.885  77.942  1.00  0.00     0.000 C 
BRANCH  19  20
ATOM     20  C   UNL     1      92.563  94.980  76.816  1.00  0.00     0.000 C 
BRANCH  20  21
ATOM     21  C   UNL     1      91.684  93.806  77.330  1.00  0.00     0.003 C 
BRANCH  21  22
ATOM     22  C   UNL     1      90.414  94.245  78.129  1.00  0.00    -0.017 C 
ATOM     23  C   UNL     1      89.659  93.002  78.677  1.00  0.00     0.007 C 
ATOM     24  C   UNL     1      89.447  95.154  77.314  1.00  0.00     0.007 C 
ENDBRANCH  21  22
ENDBRANCH  20  21
ENDBRANCH  19  20
ENDBRANCH  18  19
ENDBRANCH   1  18
TORSDOF 11
ENDMDL
