MODEL 1
REMARK VINA RESULT:    -6.120      0.000      0.000
REMARK INTER + INTRA:         -10.500
REMARK INTER:                  -9.518
REMARK INTRA:                  -0.982
REMARK UNBOUND:                -0.982
REMARK SMILES CCCCC/C=C/C(=O)CCc1ccc(O)c(OC)c1
REMARK SMILES IDX 6 1 7 2 8 3 9 4 10 5 11 6 12 7 17 8 20 9 15 10 14 11 13 12
REMARK SMILES IDX 18 13 19 14 16 15 5 17 4 18 3 19 2 20 1 21
REMARK H PARENT 16 16
REMARK Flexibility Score: inf
ROOT
ATOM      1  C   UNL     1      90.989  91.986  73.723  1.00  0.00    -0.023 C 
ATOM      2  C   UNL     1      90.261  92.961  74.281  1.00  0.00     0.043 C 
ENDROOT
BRANCH   2   3
ATOM      3  C   UNL     1      90.478  93.325  75.708  1.00  0.00     0.155 C 
ATOM      4  O   UNL     1      89.932  94.301  76.219  1.00  0.00    -0.295 OA
BRANCH   3   5
ATOM      5  C   UNL     1      91.451  92.461  76.486  1.00  0.00     0.085 C 
BRANCH   5   6
ATOM      6  C   UNL     1      92.170  93.269  77.567  1.00  0.00     0.044 C 
BRANCH   6   7
ATOM      7  C   UNL     1      93.496  93.823  77.102  1.00  0.00    -0.044 A 
ATOM      8  C   UNL     1      95.584  94.897  77.598  1.00  0.00     0.160 A 
ATOM      9  C   UNL     1      94.359  94.385  78.028  1.00  0.00     0.054 A 
ATOM     10  C   UNL     1      95.928  94.840  76.248  1.00  0.00     0.157 A 
ATOM     11  C   UNL     1      95.047  94.271  75.327  1.00  0.00     0.050 A 
ATOM     12  C   UNL     1      93.823  93.759  75.757  1.00  0.00     0.008 A 
BRANCH   8  13
ATOM     13  O   UNL     1      96.435  95.450  78.507  1.00  0.00    -0.493 OA
ATOM     14  C   UNL     1      96.092  95.312  79.884  1.00  0.00     0.278 C 
ENDBRANCH   8  13
BRANCH  10  15
ATOM     15  O   UNL     1      97.121  95.335  75.815  1.00  0.00    -0.504 OA
ATOM     16  H   UNL     1      96.990  96.265  75.559  1.00  0.00     0.293 HD
ENDBRANCH  10  15
ENDBRANCH   6   7
ENDBRANCH   5   6
ENDBRANCH   3   5
ENDBRANCH   2   3
BRANCH   1  17
ATOM     17  C   UNL     1      90.831  91.559  72.293  1.00  0.00     0.027 C 
BRANCH  17  18
ATOM     18  C   UNL     1      89.951  90.315  72.130  1.00  0.00     0.004 C 
BRANCH  18  19
ATOM     19  C   UNL     1      88.710  90.549  71.263  1.00  0.00     0.000 C 
BRANCH  19  20
ATOM     20  C   UNL     1      87.681  91.412  71.994  1.00  0.00    -0.003 C 
ATOM     21  C   UNL     1      86.980  90.631  73.093  1.00  0.00     0.004 C 
ENDBRANCH  19  20
ENDBRANCH  18  19
ENDBRANCH  17  18
ENDBRANCH   1  17
TORSDOF 10
ENDMDL
MODEL 2
REMARK VINA RESULT:    -6.063      1.614      2.303
REMARK INTER + INTRA:         -10.412
REMARK INTER:                  -9.594
REMARK INTRA:                  -0.818
REMARK UNBOUND:                -0.982
REMARK SMILES CCCCC/C=C/C(=O)CCc1ccc(O)c(OC)c1
REMARK SMILES IDX 6 1 7 2 8 3 9 4 10 5 11 6 12 7 17 8 20 9 15 10 14 11 13 12
REMARK SMILES IDX 18 13 19 14 16 15 5 17 4 18 3 19 2 20 1 21
REMARK H PARENT 16 16
REMARK Flexibility Score: inf
ROOT
ATOM      1  C   UNL     1      89.206  90.888  75.325  1.00  0.00    -0.023 C 
ATOM      2  C   UNL     1      89.091  90.896  76.659  1.00  0.00     0.043 C 
ENDROOT
BRANCH   2   3
ATOM      3  C   UNL     1      90.271  91.228  77.503  1.00  0.00     0.155 C 
ATOM      4  O   UNL     1      90.290  90.998  78.711  1.00  0.00    -0.295 OA
BRANCH   3   5
ATOM      5  C   UNL     1      91.430  91.914  76.806  1.00  0.00     0.085 C 
BRANCH   5   6
ATOM      6  C   UNL     1      91.497  93.398  77.170  1.00  0.00     0.044 C 
BRANCH   6   7
ATOM      7  C   UNL     1      92.820  94.031  76.811  1.00  0.00    -0.044 A 
ATOM      8  C   UNL     1      95.061  94.639  77.417  1.00  0.00     0.160 A 
ATOM      9  C   UNL     1      93.839  94.055  77.750  1.00  0.00     0.054 A 
ATOM     10  C   UNL     1      95.248  95.193  76.151  1.00  0.00     0.157 A 
ATOM     11  C   UNL     1      94.213  95.162  75.217  1.00  0.00     0.050 A 
ATOM     12  C   UNL     1      92.990  94.578  75.549  1.00  0.00     0.008 A 
BRANCH   8  13
ATOM     13  O   UNL     1      96.064  94.663  78.339  1.00  0.00    -0.493 OA
ATOM     14  C   UNL     1      95.789  94.083  79.612  1.00  0.00     0.278 C 
ENDBRANCH   8  13
BRANCH  10  15
ATOM     15  O   UNL     1      96.437  95.767  75.815  1.00  0.00    -0.504 OA
ATOM     16  H   UNL     1      96.804  96.195  76.607  1.00  0.00     0.293 HD
ENDBRANCH  10  15
ENDBRANCH   6   7
ENDBRANCH   5   6
ENDBRANCH   3   5
ENDBRANCH   2   3
BRANCH   1  17
ATOM     17  C   UNL     1      88.065  90.563  74.405  1.00  0.00     0.027 C 
BRANCH  17  18
ATOM     18  C   UNL     1      88.524  90.079  73.026  1.00  0.00     0.004 C 
BRANCH  18  19
ATOM     19  C   UNL     1      90.047  90.032  72.867  1.00  0.00     0.000 C 
BRANCH  19  20
ATOM     20  C   UNL     1      90.592  91.375  72.378  1.00  0.00    -0.003 C 
ATOM     21  C   UNL     1      91.793  91.819  73.197  1.00  0.00     0.004 C 
ENDBRANCH  19  20
ENDBRANCH  18  19
ENDBRANCH  17  18
ENDBRANCH   1  17
TORSDOF 10
ENDMDL
MODEL 3
REMARK VINA RESULT:    -5.903      3.001      5.057
REMARK INTER + INTRA:         -10.162
REMARK INTER:                  -8.954
REMARK INTRA:                  -1.208
REMARK UNBOUND:                -0.982
REMARK SMILES CCCCC/C=C/C(=O)CCc1ccc(O)c(OC)c1
REMARK SMILES IDX 6 1 7 2 8 3 9 4 10 5 11 6 12 7 17 8 20 9 15 10 14 11 13 12
REMARK SMILES IDX 18 13 19 14 16 15 5 17 4 18 3 19 2 20 1 21
REMARK H PARENT 16 16
REMARK Flexibility Score: inf
ROOT
ATOM      1  C   UNL     1      94.534  94.046  75.401  1.00  0.00    -0.023 C 
ATOM      2  C   UNL     1      94.553  95.374  75.572  1.00  0.00     0.043 C 
ENDROOT
BRANCH   2   3
ATOM      3  C   UNL     1      95.783  96.146  75.246  1.00  0.00     0.155 C 
ATOM      4  O   UNL     1      96.224  96.211  74.100  1.00  0.00    -0.295 OA
BRANCH   3   5
ATOM      5  C   UNL     1      96.495  96.806  76.411  1.00  0.00     0.085 C 
BRANCH   5   6
ATOM      6  C   UNL     1      97.269  95.781  77.242  1.00  0.00     0.044 C 
BRANCH   6   7
ATOM      7  C   UNL     1      96.634  95.515  78.586  1.00  0.00    -0.044 A 
ATOM      8  C   UNL     1      96.098  96.246  80.808  1.00  0.00     0.160 A 
ATOM      9  C   UNL     1      96.685  96.492  79.567  1.00  0.00     0.054 A 
ATOM     10  C   UNL     1      95.467  95.026  81.052  1.00  0.00     0.157 A 
ATOM     11  C   UNL     1      95.424  94.052  80.054  1.00  0.00     0.050 A 
ATOM     12  C   UNL     1      96.012  94.298  78.813  1.00  0.00     0.008 A 
BRANCH   8  13
ATOM     13  O   UNL     1      96.147  97.205  81.774  1.00  0.00    -0.493 OA
ATOM     14  C   UNL     1      97.364  97.326  82.507  1.00  0.00     0.278 C 
ENDBRANCH   8  13
BRANCH  10  15
ATOM     15  O   UNL     1      94.890  94.774  82.260  1.00  0.00    -0.504 OA
ATOM     16  H   UNL     1      95.502  94.228  82.783  1.00  0.00     0.293 HD
ENDBRANCH  10  15
ENDBRANCH   6   7
ENDBRANCH   5   6
ENDBRANCH   3   5
ENDBRANCH   2   3
BRANCH   1  17
ATOM     17  C   UNL     1      93.335  93.197  75.706  1.00  0.00     0.027 C 
BRANCH  17  18
ATOM     18  C   UNL     1      92.414  93.000  74.498  1.00  0.00     0.004 C 
BRANCH  18  19
ATOM     19  C   UNL     1      90.928  92.924  74.864  1.00  0.00     0.000 C 
BRANCH  19  20
ATOM     20  C   UNL     1      90.684  93.434  76.285  1.00  0.00    -0.003 C 
ATOM     21  C   UNL     1      90.108  94.842  76.280  1.00  0.00     0.004 C 
ENDBRANCH  19  20
ENDBRANCH  18  19
ENDBRANCH  17  18
ENDBRANCH   1  17
TORSDOF 10
ENDMDL
MODEL 4
REMARK VINA RESULT:    -5.577     27.059     30.381
REMARK INTER + INTRA:          -9.656
REMARK INTER:                  -8.971
REMARK INTRA:                  -0.684
REMARK UNBOUND:                -0.982
REMARK SMILES CCCCC/C=C/C(=O)CCc1ccc(O)c(OC)c1
REMARK SMILES IDX 6 1 7 2 8 3 9 4 10 5 11 6 12 7 17 8 20 9 15 10 14 11 13 12
REMARK SMILES IDX 18 13 19 14 16 15 5 17 4 18 3 19 2 20 1 21
REMARK H PARENT 16 16
REMARK Flexibility Score: inf
ROOT
ATOM      1  C   UNL     1      84.675  63.599  78.677  1.00  0.00    -0.023 C 
ATOM      2  C   UNL     1      85.072  63.878  77.429  1.00  0.00     0.043 C 
ENDROOT
BRANCH   2   3
ATOM      3  C   UNL     1      84.059  64.115  76.365  1.00  0.00     0.155 C 
ATOM      4  O   UNL     1      83.919  63.342  75.419  1.00  0.00    -0.295 OA
BRANCH   3   5
ATOM      5  C   UNL     1      83.243  65.388  76.478  1.00  0.00     0.085 C 
BRANCH   5   6
ATOM      6  C   UNL     1      81.751  65.109  76.296  1.00  0.00     0.044 C 
BRANCH   6   7
ATOM      7  C   UNL     1      81.251  65.460  74.915  1.00  0.00    -0.044 A 
ATOM      8  C   UNL     1      81.085  67.028  73.106  1.00  0.00     0.160 A 
ATOM      9  C   UNL     1      81.546  66.705  74.382  1.00  0.00     0.054 A 
ATOM     10  C   UNL     1      80.336  66.104  72.379  1.00  0.00     0.157 A 
ATOM     11  C   UNL     1      80.047  64.854  72.929  1.00  0.00     0.050 A 
ATOM     12  C   UNL     1      80.508  64.531  74.206  1.00  0.00     0.008 A 
BRANCH   8  13
ATOM     13  O   UNL     1      81.374  68.252  72.580  1.00  0.00    -0.493 OA
ATOM     14  C   UNL     1      82.751  68.563  72.380  1.00  0.00     0.278 C 
ENDBRANCH   8  13
BRANCH  10  15
ATOM     15  O   UNL     1      79.881  66.408  71.132  1.00  0.00    -0.504 OA
ATOM     16  H   UNL     1      80.502  66.038  70.481  1.00  0.00     0.293 HD
ENDBRANCH  10  15
ENDBRANCH   6   7
ENDBRANCH   5   6
ENDBRANCH   3   5
ENDBRANCH   2   3
BRANCH   1  17
ATOM     17  C   UNL     1      85.633  63.348  79.805  1.00  0.00     0.027 C 
BRANCH  17  18
ATOM     18  C   UNL     1      85.022  63.620  81.184  1.00  0.00     0.004 C 
BRANCH  18  19
ATOM     19  C   UNL     1      85.812  64.638  82.014  1.00  0.00     0.000 C 
BRANCH  19  20
ATOM     20  C   UNL     1      86.429  65.716  81.123  1.00  0.00    -0.003 C 
ATOM     21  C   UNL     1      86.998  66.861  81.946  1.00  0.00     0.004 C 
ENDBRANCH  19  20
ENDBRANCH  18  19
ENDBRANCH  17  18
ENDBRANCH   1  17
TORSDOF 10
ENDMDL
MODEL 5
REMARK VINA RESULT:    -5.500     26.414     30.917
REMARK INTER + INTRA:          -9.536
REMARK INTER:                  -8.913
REMARK INTRA:                  -0.623
REMARK UNBOUND:                -0.982
REMARK SMILES CCCCC/C=C/C(=O)CCc1ccc(O)c(OC)c1
REMARK SMILES IDX 6 1 7 2 8 3 9 4 10 5 11 6 12 7 17 8 20 9 15 10 14 11 13 12
REMARK SMILES IDX 18 13 19 14 16 15 5 17 4 18 3 19 2 20 1 21
REMARK H PARENT 16 16
REMARK Flexibility Score: inf
ROOT
ATOM      1  C   UNL     1      64.410  83.360  67.463  1.00  0.00    -0.023 C 
ATOM      2  C   UNL     1      63.802  83.843  68.554  1.00  0.00     0.043 C 
ENDROOT
BRANCH   2   3
ATOM      3  C   UNL     1      62.685  83.083  69.178  1.00  0.00     0.155 C 
ATOM      4  O   UNL     1      61.530  83.504  69.171  1.00  0.00    -0.295 OA
BRANCH   3   5
ATOM      5  C   UNL     1      63.054  81.786  69.871  1.00  0.00     0.085 C 
BRANCH   5   6
ATOM      6  C   UNL     1      62.067  81.455  70.992  1.00  0.00     0.044 C 
BRANCH   6   7
ATOM      7  C   UNL     1      62.714  81.437  72.357  1.00  0.00    -0.044 A 
ATOM      8  C   UNL     1      62.593  81.863  74.715  1.00  0.00     0.160 A 
ATOM      9  C   UNL     1      61.995  81.880  73.455  1.00  0.00     0.054 A 
ATOM     10  C   UNL     1      63.901  81.403  74.861  1.00  0.00     0.157 A 
ATOM     11  C   UNL     1      64.613  80.960  73.745  1.00  0.00     0.050 A 
ATOM     12  C   UNL     1      64.015  80.978  72.485  1.00  0.00     0.008 A 
BRANCH   8  13
ATOM     13  O   UNL     1      61.887  82.298  75.797  1.00  0.00    -0.493 OA
ATOM     14  C   UNL     1      61.991  83.683  76.124  1.00  0.00     0.278 C 
ENDBRANCH   8  13
BRANCH  10  15
ATOM     15  O   UNL     1      64.495  81.381  76.086  1.00  0.00    -0.504 OA
ATOM     16  H   UNL     1      63.804  81.251  76.758  1.00  0.00     0.293 HD
ENDBRANCH  10  15
ENDBRANCH   6   7
ENDBRANCH   5   6
ENDBRANCH   3   5
ENDBRANCH   2   3
BRANCH   1  17
ATOM     17  C   UNL     1      65.542  84.065  66.774  1.00  0.00     0.027 C 
BRANCH  17  18
ATOM     18  C   UNL     1      66.439  84.848  67.740  1.00  0.00     0.004 C 
BRANCH  18  19
ATOM     19  C   UNL     1      67.862  85.064  67.216  1.00  0.00     0.000 C 
BRANCH  19  20
ATOM     20  C   UNL     1      68.772  83.894  67.594  1.00  0.00    -0.003 C 
ATOM     21  C   UNL     1      69.776  84.292  68.664  1.00  0.00     0.004 C 
ENDBRANCH  19  20
ENDBRANCH  18  19
ENDBRANCH  17  18
ENDBRANCH   1  17
TORSDOF 10
ENDMDL
MODEL 6
REMARK VINA RESULT:    -5.415     15.004     16.963
REMARK INTER + INTRA:          -9.403
REMARK INTER:                  -7.686
REMARK INTRA:                  -1.718
REMARK UNBOUND:                -0.982
REMARK SMILES CCCCC/C=C/C(=O)CCc1ccc(O)c(OC)c1
REMARK SMILES IDX 6 1 7 2 8 3 9 4 10 5 11 6 12 7 17 8 20 9 15 10 14 11 13 12
REMARK SMILES IDX 18 13 19 14 16 15 5 17 4 18 3 19 2 20 1 21
REMARK H PARENT 16 16
REMARK Flexibility Score: inf
ROOT
ATOM      1  C   UNL     1      81.853  89.804  84.733  1.00  0.00    -0.023 C 
ATOM      2  C   UNL     1      83.143  89.448  84.732  1.00  0.00     0.043 C 
ENDROOT
BRANCH   2   3
ATOM      3  C   UNL     1      84.148  90.298  85.426  1.00  0.00     0.155 C 
ATOM      4  O   UNL     1      84.674  91.262  84.875  1.00  0.00    -0.295 OA
BRANCH   3   5
ATOM      5  C   UNL     1      84.529  89.882  86.834  1.00  0.00     0.085 C 
BRANCH   5   6
ATOM      6  C   UNL     1      83.661  90.589  87.876  1.00  0.00     0.044 C 
BRANCH   6   7
ATOM      7  C   UNL     1      82.867  89.628  88.729  1.00  0.00    -0.044 A 
ATOM      8  C   UNL     1      82.465  88.583  90.851  1.00  0.00     0.160 A 
ATOM      9  C   UNL     1      83.200  89.471  90.064  1.00  0.00     0.054 A 
ATOM     10  C   UNL     1      81.408  87.865  90.293  1.00  0.00     0.157 A 
ATOM     11  C   UNL     1      81.085  88.035  88.946  1.00  0.00     0.050 A 
ATOM     12  C   UNL     1      81.820  88.922  88.159  1.00  0.00     0.008 A 
BRANCH   8  13
ATOM     13  O   UNL     1      82.791  88.427  92.165  1.00  0.00    -0.493 OA
ATOM     14  C   UNL     1      83.918  87.603  92.460  1.00  0.00     0.278 C 
ENDBRANCH   8  13
BRANCH  10  15
ATOM     15  O   UNL     1      80.684  86.996  91.051  1.00  0.00    -0.504 OA
ATOM     16  H   UNL     1      81.287  86.315  91.395  1.00  0.00     0.293 HD
ENDBRANCH  10  15
ENDBRANCH   6   7
ENDBRANCH   5   6
ENDBRANCH   3   5
ENDBRANCH   2   3
BRANCH   1  17
ATOM     17  C   UNL     1      80.780  89.002  84.056  1.00  0.00     0.027 C 
BRANCH  17  18
ATOM     18  C   UNL     1      80.096  88.000  84.993  1.00  0.00     0.004 C 
BRANCH  18  19
ATOM     19  C   UNL     1      80.452  86.540  84.695  1.00  0.00     0.000 C 
BRANCH  19  20
ATOM     20  C   UNL     1      80.877  85.806  85.968  1.00  0.00    -0.003 C 
ATOM     21  C   UNL     1      82.387  85.818  86.140  1.00  0.00     0.004 C 
ENDBRANCH  19  20
ENDBRANCH  18  19
ENDBRANCH  17  18
ENDBRANCH   1  17
TORSDOF 10
ENDMDL
MODEL 7
REMARK VINA RESULT:    -5.396     25.533     28.671
REMARK INTER + INTRA:          -9.374
REMARK INTER:                  -7.721
REMARK INTRA:                  -1.653
REMARK UNBOUND:                -0.982
REMARK SMILES CCCCC/C=C/C(=O)CCc1ccc(O)c(OC)c1
REMARK SMILES IDX 6 1 7 2 8 3 9 4 10 5 11 6 12 7 17 8 20 9 15 10 14 11 13 12
REMARK SMILES IDX 18 13 19 14 16 15 5 17 4 18 3 19 2 20 1 21
REMARK H PARENT 16 16
REMARK Flexibility Score: inf
ROOT
ATOM      1  C   UNL     1      82.994  66.109  71.584  1.00  0.00    -0.023 C 
ATOM      2  C   UNL     1      81.874  66.842  71.626  1.00  0.00     0.043 C 
ENDROOT
BRANCH   2   3
ATOM      3  C   UNL     1      80.547  66.177  71.525  1.00  0.00     0.155 C 
ATOM      4  O   UNL     1      79.781  66.397  70.589  1.00  0.00    -0.295 OA
BRANCH   3   5
ATOM      5  C   UNL     1      80.166  65.252  72.664  1.00  0.00     0.085 C 
BRANCH   5   6
ATOM      6  C   UNL     1      80.114  66.004  73.995  1.00  0.00     0.044 C 
BRANCH   6   7
ATOM      7  C   UNL     1      81.330  65.758  74.857  1.00  0.00    -0.044 A 
ATOM      8  C   UNL     1      82.989  66.578  76.385  1.00  0.00     0.160 A 
ATOM      9  C   UNL     1      81.866  66.805  75.589  1.00  0.00     0.054 A 
ATOM     10  C   UNL     1      83.562  65.308  76.437  1.00  0.00     0.157 A 
ATOM     11  C   UNL     1      83.011  64.263  75.693  1.00  0.00     0.050 A 
ATOM     12  C   UNL     1      81.888  64.491  74.897  1.00  0.00     0.008 A 
BRANCH   8  13
ATOM     13  O   UNL     1      83.518  67.606  77.106  1.00  0.00    -0.493 OA
ATOM     14  C   UNL     1      84.588  68.334  76.508  1.00  0.00     0.278 C 
ENDBRANCH   8  13
BRANCH  10  15
ATOM     15  O   UNL     1      84.658  65.073  77.210  1.00  0.00    -0.504 OA
ATOM     16  H   UNL     1      85.373  65.661  76.912  1.00  0.00     0.293 HD
ENDBRANCH  10  15
ENDBRANCH   6   7
ENDBRANCH   5   6
ENDBRANCH   3   5
ENDBRANCH   2   3
BRANCH   1  17
ATOM     17  C   UNL     1      84.369  66.704  71.679  1.00  0.00     0.027 C 
BRANCH  17  18
ATOM     18  C   UNL     1      84.567  67.563  72.932  1.00  0.00     0.004 C 
BRANCH  18  19
ATOM     19  C   UNL     1      85.272  68.895  72.657  1.00  0.00     0.000 C 
BRANCH  19  20
ATOM     20  C   UNL     1      84.921  69.429  71.268  1.00  0.00    -0.003 C 
ATOM     21  C   UNL     1      83.695  70.327  71.309  1.00  0.00     0.004 C 
ENDBRANCH  19  20
ENDBRANCH  18  19
ENDBRANCH  17  18
ENDBRANCH   1  17
TORSDOF 10
ENDMDL
MODEL 8
REMARK VINA RESULT:    -5.287     25.943     29.512
REMARK INTER + INTRA:          -9.204
REMARK INTER:                  -8.363
REMARK INTRA:                  -0.841
REMARK UNBOUND:                -0.982
REMARK SMILES CCCCC/C=C/C(=O)CCc1ccc(O)c(OC)c1
REMARK SMILES IDX 6 1 7 2 8 3 9 4 10 5 11 6 12 7 17 8 20 9 15 10 14 11 13 12
REMARK SMILES IDX 18 13 19 14 16 15 5 17 4 18 3 19 2 20 1 21
REMARK H PARENT 16 16
REMARK Flexibility Score: inf
ROOT
ATOM      1  C   UNL     1      83.050  64.732  76.428  1.00  0.00    -0.023 C 
ATOM      2  C   UNL     1      82.076  64.730  75.509  1.00  0.00     0.043 C 
ENDROOT
BRANCH   2   3
ATOM      3  C   UNL     1      81.254  65.951  75.296  1.00  0.00     0.155 C 
ATOM      4  O   UNL     1      81.401  66.961  75.982  1.00  0.00    -0.295 OA
BRANCH   3   5
ATOM      5  C   UNL     1      80.186  65.869  74.223  1.00  0.00     0.085 C 
BRANCH   5   6
ATOM      6  C   UNL     1      80.277  67.051  73.257  1.00  0.00     0.044 C 
BRANCH   6   7
ATOM      7  C   UNL     1      81.416  66.920  72.273  1.00  0.00    -0.044 A 
ATOM      8  C   UNL     1      83.499  67.723  71.393  1.00  0.00     0.160 A 
ATOM      9  C   UNL     1      82.448  67.845  72.301  1.00  0.00     0.054 A 
ATOM     10  C   UNL     1      83.505  66.678  70.468  1.00  0.00     0.157 A 
ATOM     11  C   UNL     1      82.459  65.755  70.453  1.00  0.00     0.050 A 
ATOM     12  C   UNL     1      81.407  65.878  71.361  1.00  0.00     0.008 A 
BRANCH   8  13
ATOM     13  O   UNL     1      84.515  68.631  71.418  1.00  0.00    -0.493 OA
ATOM     14  C   UNL     1      84.184  69.983  71.106  1.00  0.00     0.278 C 
ENDBRANCH   8  13
BRANCH  10  15
ATOM     15  O   UNL     1      84.527  66.548  69.577  1.00  0.00    -0.504 OA
ATOM     16  H   UNL     1      85.064  67.358  69.608  1.00  0.00     0.293 HD
ENDBRANCH  10  15
ENDBRANCH   6   7
ENDBRANCH   5   6
ENDBRANCH   3   5
ENDBRANCH   2   3
BRANCH   1  17
ATOM     17  C   UNL     1      83.922  63.542  76.703  1.00  0.00     0.027 C 
BRANCH  17  18
ATOM     18  C   UNL     1      85.314  63.923  77.220  1.00  0.00     0.004 C 
BRANCH  18  19
ATOM     19  C   UNL     1      85.308  64.474  78.650  1.00  0.00     0.000 C 
BRANCH  19  20
ATOM     20  C   UNL     1      84.974  63.378  79.662  1.00  0.00    -0.003 C 
ATOM     21  C   UNL     1      85.238  63.836  81.087  1.00  0.00     0.004 C 
ENDBRANCH  19  20
ENDBRANCH  18  19
ENDBRANCH  17  18
ENDBRANCH   1  17
TORSDOF 10
ENDMDL
MODEL 9
REMARK VINA RESULT:    -5.144     25.305     28.440
REMARK INTER + INTRA:          -8.982
REMARK INTER:                  -7.240
REMARK INTRA:                  -1.743
REMARK UNBOUND:                -0.982
REMARK SMILES CCCCC/C=C/C(=O)CCc1ccc(O)c(OC)c1
REMARK SMILES IDX 6 1 7 2 8 3 9 4 10 5 11 6 12 7 17 8 20 9 15 10 14 11 13 12
REMARK SMILES IDX 18 13 19 14 16 15 5 17 4 18 3 19 2 20 1 21
REMARK H PARENT 16 16
REMARK Flexibility Score: inf
ROOT
ATOM      1  C   UNL     1      80.615  66.424  72.439  1.00  0.00    -0.023 C 
ATOM      2  C   UNL     1      80.169  65.177  72.632  1.00  0.00     0.043 C 
ENDROOT
BRANCH   2   3
ATOM      3  C   UNL     1      80.356  64.518  73.953  1.00  0.00     0.155 C 
ATOM      4  O   UNL     1      80.176  63.312  74.108  1.00  0.00    -0.295 OA
BRANCH   3   5
ATOM      5  C   UNL     1      80.729  65.421  75.112  1.00  0.00     0.085 C 
BRANCH   5   6
ATOM      6  C   UNL     1      82.010  64.944  75.798  1.00  0.00     0.044 C 
BRANCH   6   7
ATOM      7  C   UNL     1      83.254  65.581  75.226  1.00  0.00    -0.044 A 
ATOM      8  C   UNL     1      84.740  67.459  75.072  1.00  0.00     0.160 A 
ATOM      9  C   UNL     1      83.590  66.872  75.601  1.00  0.00     0.054 A 
ATOM     10  C   UNL     1      85.538  66.748  74.177  1.00  0.00     0.157 A 
ATOM     11  C   UNL     1      85.187  65.449  73.809  1.00  0.00     0.050 A 
ATOM     12  C   UNL     1      84.037  64.862  74.338  1.00  0.00     0.008 A 
BRANCH   8  13
ATOM     13  O   UNL     1      85.072  68.729  75.439  1.00  0.00    -0.493 OA
ATOM     14  C   UNL     1      85.339  68.956  76.822  1.00  0.00     0.278 C 
ENDBRANCH   8  13
BRANCH  10  15
ATOM     15  O   UNL     1      86.664  67.311  73.655  1.00  0.00    -0.504 OA
ATOM     16  H   UNL     1      86.469  67.594  72.745  1.00  0.00     0.293 HD
ENDBRANCH  10  15
ENDBRANCH   6   7
ENDBRANCH   5   6
ENDBRANCH   3   5
ENDBRANCH   2   3
BRANCH   1  17
ATOM     17  C   UNL     1      80.466  67.157  71.137  1.00  0.00     0.027 C 
BRANCH  17  18
ATOM     18  C   UNL     1      81.688  68.013  70.785  1.00  0.00     0.004 C 
BRANCH  18  19
ATOM     19  C   UNL     1      82.680  68.171  71.942  1.00  0.00     0.000 C 
BRANCH  19  20
ATOM     20  C   UNL     1      84.087  68.476  71.424  1.00  0.00    -0.003 C 
ATOM     21  C   UNL     1      84.572  69.836  71.897  1.00  0.00     0.004 C 
ENDBRANCH  19  20
ENDBRANCH  18  19
ENDBRANCH  17  18
ENDBRANCH   1  17
TORSDOF 10
ENDMDL
MODEL 10
REMARK VINA RESULT:    -5.055     15.664     17.343
REMARK INTER + INTRA:          -8.844
REMARK INTER:                  -7.011
REMARK INTRA:                  -1.833
REMARK UNBOUND:                -0.982
REMARK SMILES CCCCC/C=C/C(=O)CCc1ccc(O)c(OC)c1
REMARK SMILES IDX 6 1 7 2 8 3 9 4 10 5 11 6 12 7 17 8 20 9 15 10 14 11 13 12
REMARK SMILES IDX 18 13 19 14 16 15 5 17 4 18 3 19 2 20 1 21
REMARK H PARENT 16 16
REMARK Flexibility Score: inf
ROOT
ATOM      1  C   UNL     1      81.624  87.205  87.245  1.00  0.00    -0.023 C 
ATOM      2  C   UNL     1      80.315  87.128  87.511  1.00  0.00     0.043 C 
ENDROOT
BRANCH   2   3
ATOM      3  C   UNL     1      79.844  87.114  88.922  1.00  0.00     0.155 C 
ATOM      4  O   UNL     1      80.004  86.136  89.650  1.00  0.00    -0.295 OA
BRANCH   3   5
ATOM      5  C   UNL     1      79.108  88.349  89.402  1.00  0.00     0.085 C 
BRANCH   5   6
ATOM      6  C   UNL     1      79.923  89.109  90.450  1.00  0.00     0.044 C 
BRANCH   6   7
ATOM      7  C   UNL     1      81.007  89.967  89.842  1.00  0.00    -0.044 A 
ATOM      8  C   UNL     1      83.212  90.909  89.951  1.00  0.00     0.160 A 
ATOM      9  C   UNL     1      82.210  90.117  90.513  1.00  0.00     0.054 A 
ATOM     10  C   UNL     1      82.997  91.541  88.727  1.00  0.00     0.157 A 
ATOM     11  C   UNL     1      81.779  91.381  88.063  1.00  0.00     0.050 A 
ATOM     12  C   UNL     1      80.778  90.589  88.626  1.00  0.00     0.008 A 
BRANCH   8  13
ATOM     13  O   UNL     1      84.396  91.058  90.609  1.00  0.00    -0.493 OA
ATOM     14  C   UNL     1      84.413  91.954  91.718  1.00  0.00     0.278 C 
ENDBRANCH   8  13
BRANCH  10  15
ATOM     15  O   UNL     1      83.967  92.317  88.167  1.00  0.00    -0.504 OA
ATOM     16  H   UNL     1      84.640  92.499  88.845  1.00  0.00     0.293 HD
ENDBRANCH  10  15
ENDBRANCH   6   7
ENDBRANCH   5   6
ENDBRANCH   3   5
ENDBRANCH   2   3
BRANCH   1  17
ATOM     17  C   UNL     1      82.179  87.224  85.850  1.00  0.00     0.027 C 
BRANCH  17  18
ATOM     18  C   UNL     1      83.089  88.427  85.580  1.00  0.00     0.004 C 
BRANCH  18  19
ATOM     19  C   UNL     1      82.345  89.648  85.031  1.00  0.00     0.000 C 
BRANCH  19  20
ATOM     20  C   UNL     1      81.014  89.244  84.397  1.00  0.00    -0.003 C 
ATOM     21  C   UNL     1      79.846  89.977  85.038  1.00  0.00     0.004 C 
ENDBRANCH  19  20
ENDBRANCH  18  19
ENDBRANCH  17  18
ENDBRANCH   1  17
TORSDOF 10
ENDMDL
