MODEL 1
REMARK VINA RESULT:    -6.505      0.000      0.000
REMARK INTER + INTRA:         -10.828
REMARK INTER:                 -10.117
REMARK INTRA:                  -0.711
REMARK UNBOUND:                -0.711
REMARK SMILES COc1cc(CNC(=O)CCCCCC(C)C)ccc1O
REMARK SMILES IDX 10 1 8 2 7 3 9 5 6 6 5 7 3 8 20 9 4 10 19 11 18 12 2 13 1 14
REMARK SMILES IDX 21 15 11 17 12 18 13 19 14 20 15 21 16 22 17 23
REMARK H PARENT 7 4 21 16
REMARK Flexibility Score: inf
ROOT
ATOM      1  C   UNL     1      80.601  65.038  69.639  1.00  0.00     0.100 C 
ENDROOT
BRANCH   1   2
ATOM      2  C   UNL     1      80.313  65.728  70.913  1.00  0.00     0.220 C 
ATOM      3  N   UNL     1      81.220  65.666  71.928  1.00  0.00    -0.352 N 
ATOM      4  H   UNL     1      81.986  65.026  71.775  1.00  0.00     0.163 HD
ATOM      5  O   UNL     1      79.254  66.394  71.019  1.00  0.00    -0.275 OA
BRANCH   3   6
ATOM      6  C   UNL     1      81.152  66.420  73.139  1.00  0.00     0.151 C 
BRANCH   6   7
ATOM      7  C   UNL     1      82.471  66.961  73.565  1.00  0.00    -0.025 A 
ATOM      8  C   UNL     1      84.473  68.310  73.099  1.00  0.00     0.160 A 
ATOM      9  C   UNL     1      84.950  68.048  74.401  1.00  0.00     0.157 A 
ATOM     10  C   UNL     1      83.246  67.751  72.683  1.00  0.00     0.056 A 
ATOM     11  C   UNL     1      84.200  67.242  75.277  1.00  0.00     0.050 A 
ATOM     12  C   UNL     1      82.968  66.707  74.865  1.00  0.00     0.009 A 
BRANCH   8  13
ATOM     13  O   UNL     1      85.198  69.076  72.224  1.00  0.00    -0.493 OA
ATOM     14  C   UNL     1      84.808  70.463  72.203  1.00  0.00     0.278 C 
ENDBRANCH   8  13
BRANCH   9  15
ATOM     15  O   UNL     1      86.130  68.579  74.810  1.00  0.00    -0.504 OA
ATOM     16  H   UNL     1      86.148  69.516  74.601  1.00  0.00     0.293 HD
ENDBRANCH   9  15
ENDBRANCH   6   7
ENDBRANCH   3   6
ENDBRANCH   1   2
BRANCH   1  17
ATOM     17  C   UNL     1      80.189  63.542  69.615  1.00  0.00     0.010 C 
BRANCH  17  18
ATOM     18  C   UNL     1      78.682  63.368  69.281  1.00  0.00     0.001 C 
BRANCH  18  19
ATOM     19  C   UNL     1      78.160  64.392  68.238  1.00  0.00     0.000 C 
BRANCH  19  20
ATOM     20  C   UNL     1      76.867  65.113  68.717  1.00  0.00     0.003 C 
BRANCH  20  21
ATOM     21  C   UNL     1      75.678  65.080  67.703  1.00  0.00    -0.017 C 
ATOM     22  C   UNL     1      75.399  63.625  67.222  1.00  0.00     0.007 C 
ATOM     23  C   UNL     1      75.901  66.014  66.479  1.00  0.00     0.007 C 
ENDBRANCH  20  21
ENDBRANCH  19  20
ENDBRANCH  18  19
ENDBRANCH  17  18
ENDBRANCH   1  17
TORSDOF 10
ENDMDL
MODEL 2
REMARK VINA RESULT:    -6.155     18.517     21.081
REMARK INTER + INTRA:         -10.284
REMARK INTER:                  -9.401
REMARK INTRA:                  -0.883
REMARK UNBOUND:                -0.711
REMARK SMILES COc1cc(CNC(=O)CCCCCC(C)C)ccc1O
REMARK SMILES IDX 10 1 8 2 7 3 9 5 6 6 5 7 3 8 20 9 4 10 19 11 18 12 2 13 1 14
REMARK SMILES IDX 21 15 11 17 12 18 13 19 14 20 15 21 16 22 17 23
REMARK H PARENT 7 4 21 16
REMARK Flexibility Score: inf
ROOT
ATOM      1  C   UNL     1      91.112  76.873  84.115  1.00  0.00     0.100 C 
ENDROOT
BRANCH   1   2
ATOM      2  C   UNL     1      91.231  78.344  84.193  1.00  0.00     0.220 C 
ATOM      3  N   UNL     1      90.111  79.098  84.377  1.00  0.00    -0.352 N 
ATOM      4  H   UNL     1      89.241  78.589  84.313  1.00  0.00     0.163 HD
ATOM      5  O   UNL     1      92.371  78.866  84.132  1.00  0.00    -0.275 OA
BRANCH   3   6
ATOM      6  C   UNL     1      90.099  80.501  84.641  1.00  0.00     0.151 C 
BRANCH   6   7
ATOM      7  C   UNL     1      88.846  81.169  84.197  1.00  0.00    -0.025 A 
ATOM      8  C   UNL     1      87.334  83.108  84.235  1.00  0.00     0.160 A 
ATOM      9  C   UNL     1      86.494  82.468  83.298  1.00  0.00     0.157 A 
ATOM     10  C   UNL     1      88.494  82.447  84.692  1.00  0.00     0.056 A 
ATOM     11  C   UNL     1      86.821  81.186  82.819  1.00  0.00     0.050 A 
ATOM     12  C   UNL     1      87.990  80.544  83.260  1.00  0.00     0.009 A 
BRANCH   8  13
ATOM     13  O   UNL     1      87.023  84.347  84.729  1.00  0.00    -0.493 OA
ATOM     14  C   UNL     1      86.355  84.315  86.004  1.00  0.00     0.278 C 
ENDBRANCH   8  13
BRANCH   9  15
ATOM     15  O   UNL     1      85.376  83.094  82.854  1.00  0.00    -0.504 OA
ATOM     16  H   UNL     1      85.317  83.005  81.900  1.00  0.00     0.293 HD
ENDBRANCH   9  15
ENDBRANCH   6   7
ENDBRANCH   3   6
ENDBRANCH   1   2
BRANCH   1  17
ATOM     17  C   UNL     1      91.679  76.255  82.809  1.00  0.00     0.010 C 
BRANCH  17  18
ATOM     18  C   UNL     1      93.006  75.489  83.068  1.00  0.00     0.001 C 
BRANCH  18  19
ATOM     19  C   UNL     1      93.197  75.070  84.549  1.00  0.00     0.000 C 
BRANCH  19  20
ATOM     20  C   UNL     1      92.769  73.595  84.803  1.00  0.00     0.003 C 
BRANCH  20  21
ATOM     21  C   UNL     1      91.344  73.418  85.421  1.00  0.00    -0.017 C 
ATOM     22  C   UNL     1      91.365  72.374  86.576  1.00  0.00     0.007 C 
ATOM     23  C   UNL     1      90.272  73.023  84.364  1.00  0.00     0.007 C 
ENDBRANCH  20  21
ENDBRANCH  19  20
ENDBRANCH  18  19
ENDBRANCH  17  18
ENDBRANCH   1  17
TORSDOF 10
ENDMDL
MODEL 3
REMARK VINA RESULT:    -5.988     22.326     24.955
REMARK INTER + INTRA:         -10.024
REMARK INTER:                  -9.427
REMARK INTRA:                  -0.597
REMARK UNBOUND:                -0.711
REMARK SMILES COc1cc(CNC(=O)CCCCCC(C)C)ccc1O
REMARK SMILES IDX 10 1 8 2 7 3 9 5 6 6 5 7 3 8 20 9 4 10 19 11 18 12 2 13 1 14
REMARK SMILES IDX 21 15 11 17 12 18 13 19 14 20 15 21 16 22 17 23
REMARK H PARENT 7 4 21 16
REMARK Flexibility Score: inf
ROOT
ATOM      1  C   UNL     1      96.355  83.338  82.652  1.00  0.00     0.100 C 
ENDROOT
BRANCH   1   2
ATOM      2  C   UNL     1      96.920  82.621  81.491  1.00  0.00     0.220 C 
ATOM      3  N   UNL     1      97.578  83.324  80.526  1.00  0.00    -0.352 N 
ATOM      4  H   UNL     1      97.515  84.328  80.614  1.00  0.00     0.163 HD
ATOM      5  O   UNL     1      96.820  81.371  81.438  1.00  0.00    -0.275 OA
BRANCH   3   6
ATOM      6  C   UNL     1      98.317  82.747  79.448  1.00  0.00     0.151 C 
BRANCH   6   7
ATOM      7  C   UNL     1      97.909  83.268  78.115  1.00  0.00    -0.025 A 
ATOM      8  C   UNL     1      98.335  83.533  75.708  1.00  0.00     0.160 A 
ATOM      9  C   UNL     1      97.100  84.200  75.565  1.00  0.00     0.157 A 
ATOM     10  C   UNL     1      98.740  83.088  76.985  1.00  0.00     0.056 A 
ATOM     11  C   UNL     1      96.277  84.408  76.688  1.00  0.00     0.050 A 
ATOM     12  C   UNL     1      96.675  83.940  77.952  1.00  0.00     0.009 A 
BRANCH   8  13
ATOM     13  O   UNL     1      99.160  83.339  74.632  1.00  0.00    -0.493 OA
ATOM     14  C   UNL     1     100.544  83.638  74.897  1.00  0.00     0.278 C 
ENDBRANCH   8  13
BRANCH   9  15
ATOM     15  O   UNL     1      96.702  84.634  74.343  1.00  0.00    -0.504 OA
ATOM     16  H   UNL     1      95.879  84.202  74.102  1.00  0.00     0.293 HD
ENDBRANCH   9  15
ENDBRANCH   6   7
ENDBRANCH   3   6
ENDBRANCH   1   2
BRANCH   1  17
ATOM     17  C   UNL     1      95.735  82.412  83.734  1.00  0.00     0.010 C 
BRANCH  17  18
ATOM     18  C   UNL     1      94.405  82.992  84.290  1.00  0.00     0.001 C 
BRANCH  18  19
ATOM     19  C   UNL     1      93.326  81.910  84.558  1.00  0.00     0.000 C 
BRANCH  19  20
ATOM     20  C   UNL     1      93.924  80.473  84.570  1.00  0.00     0.003 C 
BRANCH  20  21
ATOM     21  C   UNL     1      93.118  79.429  85.410  1.00  0.00    -0.017 C 
ATOM     22  C   UNL     1      91.869  78.930  84.624  1.00  0.00     0.007 C 
ATOM     23  C   UNL     1      92.689  79.976  86.803  1.00  0.00     0.007 C 
ENDBRANCH  20  21
ENDBRANCH  19  20
ENDBRANCH  18  19
ENDBRANCH  17  18
ENDBRANCH   1  17
TORSDOF 10
ENDMDL
MODEL 4
REMARK VINA RESULT:    -5.929      1.517      2.469
REMARK INTER + INTRA:          -9.933
REMARK INTER:                  -9.303
REMARK INTRA:                  -0.630
REMARK UNBOUND:                -0.711
REMARK SMILES COc1cc(CNC(=O)CCCCCC(C)C)ccc1O
REMARK SMILES IDX 10 1 8 2 7 3 9 5 6 6 5 7 3 8 20 9 4 10 19 11 18 12 2 13 1 14
REMARK SMILES IDX 21 15 11 17 12 18 13 19 14 20 15 21 16 22 17 23
REMARK H PARENT 7 4 21 16
REMARK Flexibility Score: inf
ROOT
ATOM      1  C   UNL     1      80.871  65.812  70.051  1.00  0.00     0.100 C 
ENDROOT
BRANCH   1   2
ATOM      2  C   UNL     1      81.807  65.628  71.180  1.00  0.00     0.220 C 
ATOM      3  N   UNL     1      81.980  66.639  72.078  1.00  0.00    -0.352 N 
ATOM      4  H   UNL     1      81.541  67.513  71.824  1.00  0.00     0.163 HD
ATOM      5  O   UNL     1      82.393  64.526  71.312  1.00  0.00    -0.275 OA
BRANCH   3   6
ATOM      6  C   UNL     1      82.713  66.537  73.299  1.00  0.00     0.151 C 
BRANCH   6   7
ATOM      7  C   UNL     1      83.756  67.587  73.444  1.00  0.00    -0.025 A 
ATOM      8  C   UNL     1      85.584  68.614  74.730  1.00  0.00     0.160 A 
ATOM      9  C   UNL     1      85.788  69.546  73.690  1.00  0.00     0.157 A 
ATOM     10  C   UNL     1      84.558  67.653  74.608  1.00  0.00     0.056 A 
ATOM     11  C   UNL     1      84.979  69.507  72.540  1.00  0.00     0.050 A 
ATOM     12  C   UNL     1      83.975  68.532  72.415  1.00  0.00     0.009 A 
BRANCH   8  13
ATOM     13  O   UNL     1      86.348  68.647  75.867  1.00  0.00    -0.493 OA
ATOM     14  C   UNL     1      87.374  67.637  75.909  1.00  0.00     0.278 C 
ENDBRANCH   8  13
BRANCH   9  15
ATOM     15  O   UNL     1      86.771  70.476  73.798  1.00  0.00    -0.504 OA
ATOM     16  H   UNL     1      87.623  70.037  73.838  1.00  0.00     0.293 HD
ENDBRANCH   9  15
ENDBRANCH   6   7
ENDBRANCH   3   6
ENDBRANCH   1   2
BRANCH   1  17
ATOM     17  C   UNL     1      79.460  65.209  70.287  1.00  0.00     0.010 C 
BRANCH  17  18
ATOM     18  C   UNL     1      79.226  63.944  69.415  1.00  0.00     0.001 C 
BRANCH  18  19
ATOM     19  C   UNL     1      77.749  63.765  68.974  1.00  0.00     0.000 C 
BRANCH  19  20
ATOM     20  C   UNL     1      77.121  65.096  68.466  1.00  0.00     0.003 C 
BRANCH  20  21
ATOM     21  C   UNL     1      76.976  65.206  66.913  1.00  0.00    -0.017 C 
ATOM     22  C   UNL     1      75.851  66.213  66.531  1.00  0.00     0.007 C 
ATOM     23  C   UNL     1      76.717  63.832  66.231  1.00  0.00     0.007 C 
ENDBRANCH  20  21
ENDBRANCH  19  20
ENDBRANCH  18  19
ENDBRANCH  17  18
ENDBRANCH   1  17
TORSDOF 10
ENDMDL
MODEL 5
REMARK VINA RESULT:    -5.618     20.591     25.454
REMARK INTER + INTRA:          -9.449
REMARK INTER:                  -8.812
REMARK INTRA:                  -0.637
REMARK UNBOUND:                -0.711
REMARK SMILES COc1cc(CNC(=O)CCCCCC(C)C)ccc1O
REMARK SMILES IDX 10 1 8 2 7 3 9 5 6 6 5 7 3 8 20 9 4 10 19 11 18 12 2 13 1 14
REMARK SMILES IDX 21 15 11 17 12 18 13 19 14 20 15 21 16 22 17 23
REMARK H PARENT 7 4 21 16
REMARK Flexibility Score: inf
ROOT
ATOM      1  C   UNL     1      93.360  80.212  87.600  1.00  0.00     0.100 C 
ENDROOT
BRANCH   1   2
ATOM      2  C   UNL     1      93.115  80.593  86.193  1.00  0.00     0.220 C 
ATOM      3  N   UNL     1      91.834  80.731  85.750  1.00  0.00    -0.352 N 
ATOM      4  H   UNL     1      91.124  80.426  86.401  1.00  0.00     0.163 HD
ATOM      5  O   UNL     1      94.097  80.824  85.446  1.00  0.00    -0.275 OA
BRANCH   3   6
ATOM      6  C   UNL     1      91.456  81.257  84.478  1.00  0.00     0.151 C 
BRANCH   6   7
ATOM      7  C   UNL     1      89.982  81.328  84.288  1.00  0.00    -0.025 A 
ATOM      8  C   UNL     1      87.898  82.631  84.248  1.00  0.00     0.160 A 
ATOM      9  C   UNL     1      87.185  81.476  83.863  1.00  0.00     0.157 A 
ATOM     10  C   UNL     1      89.288  82.546  84.477  1.00  0.00     0.056 A 
ATOM     11  C   UNL     1      87.862  80.253  83.698  1.00  0.00     0.050 A 
ATOM     12  C   UNL     1      89.250  80.180  83.904  1.00  0.00     0.009 A 
BRANCH   8  13
ATOM     13  O   UNL     1      87.255  83.827  84.433  1.00  0.00    -0.493 OA
ATOM     14  C   UNL     1      86.714  83.999  85.757  1.00  0.00     0.278 C 
ENDBRANCH   8  13
BRANCH   9  15
ATOM     15  O   UNL     1      85.849  81.547  83.643  1.00  0.00    -0.504 OA
ATOM     16  H   UNL     1      85.617  80.989  82.896  1.00  0.00     0.293 HD
ENDBRANCH   9  15
ENDBRANCH   6   7
ENDBRANCH   3   6
ENDBRANCH   1   2
BRANCH   1  17
ATOM     17  C   UNL     1      92.184  80.531  88.562  1.00  0.00     0.010 C 
BRANCH  17  18
ATOM     18  C   UNL     1      92.563  81.640  89.582  1.00  0.00     0.001 C 
BRANCH  18  19
ATOM     19  C   UNL     1      93.928  82.314  89.280  1.00  0.00     0.000 C 
BRANCH  19  20
ATOM     20  C   UNL     1      93.803  83.859  89.140  1.00  0.00     0.003 C 
BRANCH  20  21
ATOM     21  C   UNL     1      94.401  84.680  90.328  1.00  0.00    -0.017 C 
ATOM     22  C   UNL     1      95.625  83.945  90.951  1.00  0.00     0.007 C 
ATOM     23  C   UNL     1      93.351  84.998  91.432  1.00  0.00     0.007 C 
ENDBRANCH  20  21
ENDBRANCH  19  20
ENDBRANCH  18  19
ENDBRANCH  17  18
ENDBRANCH   1  17
TORSDOF 10
ENDMDL
MODEL 6
REMARK VINA RESULT:    -5.572     20.290     22.297
REMARK INTER + INTRA:          -9.378
REMARK INTER:                  -8.617
REMARK INTRA:                  -0.760
REMARK UNBOUND:                -0.711
REMARK SMILES COc1cc(CNC(=O)CCCCCC(C)C)ccc1O
REMARK SMILES IDX 10 1 8 2 7 3 9 5 6 6 5 7 3 8 20 9 4 10 19 11 18 12 2 13 1 14
REMARK SMILES IDX 21 15 11 17 12 18 13 19 14 20 15 21 16 22 17 23
REMARK H PARENT 7 4 21 16
REMARK Flexibility Score: inf
ROOT
ATOM      1  C   UNL     1      76.641  84.655  67.561  1.00  0.00     0.100 C 
ENDROOT
BRANCH   1   2
ATOM      2  C   UNL     1      77.126  85.910  68.172  1.00  0.00     0.220 C 
ATOM      3  N   UNL     1      77.340  87.001  67.383  1.00  0.00    -0.352 N 
ATOM      4  H   UNL     1      77.274  86.826  66.390  1.00  0.00     0.163 HD
ATOM      5  O   UNL     1      77.290  85.958  69.416  1.00  0.00    -0.275 OA
BRANCH   3   6
ATOM      6  C   UNL     1      77.638  88.314  67.859  1.00  0.00     0.151 C 
BRANCH   6   7
ATOM      7  C   UNL     1      76.445  89.202  67.908  1.00  0.00    -0.025 A 
ATOM      8  C   UNL     1      74.733  90.402  69.202  1.00  0.00     0.160 A 
ATOM      9  C   UNL     1      74.215  90.946  68.008  1.00  0.00     0.157 A 
ATOM     10  C   UNL     1      75.832  89.519  69.144  1.00  0.00     0.056 A 
ATOM     11  C   UNL     1      74.800  90.616  66.772  1.00  0.00     0.050 A 
ATOM     12  C   UNL     1      75.909  89.755  66.722  1.00  0.00     0.009 A 
BRANCH   8  13
ATOM     13  O   UNL     1      74.166  90.695  70.415  1.00  0.00    -0.493 OA
ATOM     14  C   UNL     1      73.246  89.692  70.885  1.00  0.00     0.278 C 
ENDBRANCH   8  13
BRANCH   9  15
ATOM     15  O   UNL     1      73.157  91.794  68.053  1.00  0.00    -0.504 OA
ATOM     16  H   UNL     1      73.466  92.681  68.255  1.00  0.00     0.293 HD
ENDBRANCH   9  15
ENDBRANCH   6   7
ENDBRANCH   3   6
ENDBRANCH   1   2
BRANCH   1  17
ATOM     17  C   UNL     1      77.556  84.099  66.436  1.00  0.00     0.010 C 
BRANCH  17  18
ATOM     18  C   UNL     1      76.726  83.498  65.268  1.00  0.00     0.001 C 
BRANCH  18  19
ATOM     19  C   UNL     1      75.249  83.211  65.646  1.00  0.00     0.000 C 
BRANCH  19  20
ATOM     20  C   UNL     1      74.326  83.133  64.395  1.00  0.00     0.003 C 
BRANCH  20  21
ATOM     21  C   UNL     1      72.794  83.191  64.700  1.00  0.00    -0.017 C 
ATOM     22  C   UNL     1      72.509  84.082  65.946  1.00  0.00     0.007 C 
ATOM     23  C   UNL     1      72.162  81.782  64.896  1.00  0.00     0.007 C 
ENDBRANCH  20  21
ENDBRANCH  19  20
ENDBRANCH  18  19
ENDBRANCH  17  18
ENDBRANCH   1  17
TORSDOF 10
ENDMDL
MODEL 7
REMARK VINA RESULT:    -5.522     19.403     21.678
REMARK INTER + INTRA:          -9.299
REMARK INTER:                  -8.731
REMARK INTRA:                  -0.568
REMARK UNBOUND:                -0.711
REMARK SMILES COc1cc(CNC(=O)CCCCCC(C)C)ccc1O
REMARK SMILES IDX 10 1 8 2 7 3 9 5 6 6 5 7 3 8 20 9 4 10 19 11 18 12 2 13 1 14
REMARK SMILES IDX 21 15 11 17 12 18 13 19 14 20 15 21 16 22 17 23
REMARK H PARENT 7 4 21 16
REMARK Flexibility Score: inf
ROOT
ATOM      1  C   UNL     1      90.988  76.796  84.198  1.00  0.00     0.100 C 
ENDROOT
BRANCH   1   2
ATOM      2  C   UNL     1      91.136  78.265  84.264  1.00  0.00     0.220 C 
ATOM      3  N   UNL     1      90.025  79.046  84.377  1.00  0.00    -0.352 N 
ATOM      4  H   UNL     1      89.149  78.555  84.273  1.00  0.00     0.163 HD
ATOM      5  O   UNL     1      92.289  78.761  84.258  1.00  0.00    -0.275 OA
BRANCH   3   6
ATOM      6  C   UNL     1      90.031  80.452  84.624  1.00  0.00     0.151 C 
BRANCH   6   7
ATOM      7  C   UNL     1      88.788  81.130  84.168  1.00  0.00    -0.025 A 
ATOM      8  C   UNL     1      87.288  83.079  84.198  1.00  0.00     0.160 A 
ATOM      9  C   UNL     1      86.454  82.449  83.249  1.00  0.00     0.157 A 
ATOM     10  C   UNL     1      88.438  82.408  84.666  1.00  0.00     0.056 A 
ATOM     11  C   UNL     1      86.778  81.168  82.768  1.00  0.00     0.050 A 
ATOM     12  C   UNL     1      87.938  80.515  83.219  1.00  0.00     0.009 A 
BRANCH   8  13
ATOM     13  O   UNL     1      86.980  84.318  84.694  1.00  0.00    -0.493 OA
ATOM     14  C   UNL     1      86.293  84.284  85.961  1.00  0.00     0.278 C 
ENDBRANCH   8  13
BRANCH   9  15
ATOM     15  O   UNL     1      85.345  83.085  82.795  1.00  0.00    -0.504 OA
ATOM     16  H   UNL     1      85.296  83.001  81.840  1.00  0.00     0.293 HD
ENDBRANCH   9  15
ENDBRANCH   6   7
ENDBRANCH   3   6
ENDBRANCH   1   2
BRANCH   1  17
ATOM     17  C   UNL     1      91.534  76.158  82.892  1.00  0.00     0.010 C 
BRANCH  17  18
ATOM     18  C   UNL     1      92.981  75.622  83.079  1.00  0.00     0.001 C 
BRANCH  18  19
ATOM     19  C   UNL     1      93.234  75.006  84.480  1.00  0.00     0.000 C 
BRANCH  19  20
ATOM     20  C   UNL     1      94.742  75.017  84.864  1.00  0.00     0.003 C 
BRANCH  20  21
ATOM     21  C   UNL     1      95.454  73.627  84.782  1.00  0.00    -0.017 C 
ATOM     22  C   UNL     1      96.719  73.597  85.689  1.00  0.00     0.007 C 
ATOM     23  C   UNL     1      95.831  73.227  83.326  1.00  0.00     0.007 C 
ENDBRANCH  20  21
ENDBRANCH  19  20
ENDBRANCH  18  19
ENDBRANCH  17  18
ENDBRANCH   1  17
TORSDOF 10
ENDMDL
MODEL 8
REMARK VINA RESULT:    -5.380     20.906     22.888
REMARK INTER + INTRA:          -9.079
REMARK INTER:                  -7.479
REMARK INTRA:                  -1.600
REMARK UNBOUND:                -0.711
REMARK SMILES COc1cc(CNC(=O)CCCCCC(C)C)ccc1O
REMARK SMILES IDX 10 1 8 2 7 3 9 5 6 6 5 7 3 8 20 9 4 10 19 11 18 12 2 13 1 14
REMARK SMILES IDX 21 15 11 17 12 18 13 19 14 20 15 21 16 22 17 23
REMARK H PARENT 7 4 21 16
REMARK Flexibility Score: inf
ROOT
ATOM      1  C   UNL     1      76.729  84.707  67.657  1.00  0.00     0.100 C 
ENDROOT
BRANCH   1   2
ATOM      2  C   UNL     1      77.176  86.037  68.122  1.00  0.00     0.220 C 
ATOM      3  N   UNL     1      77.247  87.068  67.233  1.00  0.00    -0.352 N 
ATOM      4  H   UNL     1      77.110  86.806  66.268  1.00  0.00     0.163 HD
ATOM      5  O   UNL     1      77.441  86.199  69.338  1.00  0.00    -0.275 OA
BRANCH   3   6
ATOM      6  C   UNL     1      77.494  88.432  67.575  1.00  0.00     0.151 C 
BRANCH   6   7
ATOM      7  C   UNL     1      76.250  89.194  67.871  1.00  0.00    -0.025 A 
ATOM      8  C   UNL     1      74.188  90.289  67.101  1.00  0.00     0.160 A 
ATOM      9  C   UNL     1      73.849  90.586  68.438  1.00  0.00     0.157 A 
ATOM     10  C   UNL     1      75.394  89.612  66.824  1.00  0.00     0.056 A 
ATOM     11  C   UNL     1      74.706  90.198  69.485  1.00  0.00     0.050 A 
ATOM     12  C   UNL     1      75.894  89.503  69.204  1.00  0.00     0.009 A 
BRANCH   8  13
ATOM     13  O   UNL     1      73.377  90.676  66.066  1.00  0.00    -0.493 OA
ATOM     14  C   UNL     1      73.905  91.767  65.289  1.00  0.00     0.278 C 
ENDBRANCH   8  13
BRANCH   9  15
ATOM     15  O   UNL     1      72.692  91.239  68.715  1.00  0.00    -0.504 OA
ATOM     16  H   UNL     1      72.011  90.958  68.100  1.00  0.00     0.293 HD
ENDBRANCH   9  15
ENDBRANCH   6   7
ENDBRANCH   3   6
ENDBRANCH   1   2
BRANCH   1  17
ATOM     17  C   UNL     1      77.603  84.099  66.528  1.00  0.00     0.010 C 
BRANCH  17  18
ATOM     18  C   UNL     1      76.732  83.509  65.384  1.00  0.00     0.001 C 
BRANCH  18  19
ATOM     19  C   UNL     1      75.209  83.717  65.600  1.00  0.00     0.000 C 
BRANCH  19  20
ATOM     20  C   UNL     1      74.544  84.467  64.410  1.00  0.00     0.003 C 
BRANCH  20  21
ATOM     21  C   UNL     1      74.173  85.959  64.694  1.00  0.00    -0.017 C 
ATOM     22  C   UNL     1      75.309  86.914  64.220  1.00  0.00     0.007 C 
ATOM     23  C   UNL     1      73.842  86.225  66.191  1.00  0.00     0.007 C 
ENDBRANCH  20  21
ENDBRANCH  19  20
ENDBRANCH  18  19
ENDBRANCH  17  18
ENDBRANCH   1  17
TORSDOF 10
ENDMDL
MODEL 9
REMARK VINA RESULT:    -5.366     23.989     25.932
REMARK INTER + INTRA:          -9.057
REMARK INTER:                  -7.761
REMARK INTRA:                  -1.297
REMARK UNBOUND:                -0.711
REMARK SMILES COc1cc(CNC(=O)CCCCCC(C)C)ccc1O
REMARK SMILES IDX 10 1 8 2 7 3 9 5 6 6 5 7 3 8 20 9 4 10 19 11 18 12 2 13 1 14
REMARK SMILES IDX 21 15 11 17 12 18 13 19 14 20 15 21 16 22 17 23
REMARK H PARENT 7 4 21 16
REMARK Flexibility Score: inf
ROOT
ATOM      1  C   UNL     1      98.809  79.546  82.614  1.00  0.00     0.100 C 
ENDROOT
BRANCH   1   2
ATOM      2  C   UNL     1      97.384  79.937  82.617  1.00  0.00     0.220 C 
ATOM      3  N   UNL     1      96.803  80.345  83.780  1.00  0.00    -0.352 N 
ATOM      4  H   UNL     1      97.372  80.221  84.605  1.00  0.00     0.163 HD
ATOM      5  O   UNL     1      96.748  79.927  81.534  1.00  0.00    -0.275 OA
BRANCH   3   6
ATOM      6  C   UNL     1      95.497  80.911  83.893  1.00  0.00     0.151 C 
BRANCH   6   7
ATOM      7  C   UNL     1      95.510  82.396  83.981  1.00  0.00    -0.025 A 
ATOM      8  C   UNL     1      95.094  84.461  85.250  1.00  0.00     0.160 A 
ATOM      9  C   UNL     1      95.596  85.222  84.173  1.00  0.00     0.157 A 
ATOM     10  C   UNL     1      95.037  83.055  85.140  1.00  0.00     0.056 A 
ATOM     11  C   UNL     1      96.044  84.578  83.004  1.00  0.00     0.050 A 
ATOM     12  C   UNL     1      96.007  83.176  82.911  1.00  0.00     0.009 A 
BRANCH   8  13
ATOM     13  O   UNL     1      94.635  85.069  86.388  1.00  0.00    -0.493 OA
ATOM     14  C   UNL     1      93.198  85.121  86.481  1.00  0.00     0.278 C 
ENDBRANCH   8  13
BRANCH   9  15
ATOM     15  O   UNL     1      95.654  86.574  84.267  1.00  0.00    -0.504 OA
ATOM     16  H   UNL     1      96.419  86.826  84.788  1.00  0.00     0.293 HD
ENDBRANCH   9  15
ENDBRANCH   6   7
ENDBRANCH   3   6
ENDBRANCH   1   2
BRANCH   1  17
ATOM     17  C   UNL     1      99.793  80.718  82.358  1.00  0.00     0.010 C 
BRANCH  17  18
ATOM     18  C   UNL     1     100.659  80.473  81.092  1.00  0.00     0.001 C 
BRANCH  18  19
ATOM     19  C   UNL     1     100.535  81.599  80.033  1.00  0.00     0.000 C 
BRANCH  19  20
ATOM     20  C   UNL     1      99.280  82.490  80.264  1.00  0.00     0.003 C 
BRANCH  20  21
ATOM     21  C   UNL     1      98.278  82.543  79.066  1.00  0.00    -0.017 C 
ATOM     22  C   UNL     1      96.980  83.307  79.461  1.00  0.00     0.007 C 
ATOM     23  C   UNL     1      97.919  81.132  78.515  1.00  0.00     0.007 C 
ENDBRANCH  20  21
ENDBRANCH  19  20
ENDBRANCH  18  19
ENDBRANCH  17  18
ENDBRANCH   1  17
TORSDOF 10
ENDMDL
MODEL 10
REMARK VINA RESULT:    -5.291     31.647     35.236
REMARK INTER + INTRA:          -8.940
REMARK INTER:                  -8.118
REMARK INTRA:                  -0.822
REMARK UNBOUND:                -0.711
REMARK SMILES COc1cc(CNC(=O)CCCCCC(C)C)ccc1O
REMARK SMILES IDX 10 1 8 2 7 3 9 5 6 6 5 7 3 8 20 9 4 10 19 11 18 12 2 13 1 14
REMARK SMILES IDX 21 15 11 17 12 18 13 19 14 20 15 21 16 22 17 23
REMARK H PARENT 7 4 21 16
REMARK Flexibility Score: inf
ROOT
ATOM      1  C   UNL     1      94.981  98.543  74.977  1.00  0.00     0.100 C 
ENDROOT
BRANCH   1   2
ATOM      2  C   UNL     1      94.578  99.003  73.632  1.00  0.00     0.220 C 
ATOM      3  N   UNL     1      93.973 100.216  73.493  1.00  0.00    -0.352 N 
ATOM      4  H   UNL     1      93.719 100.667  74.360  1.00  0.00     0.163 HD
ATOM      5  O   UNL     1      94.841  98.283  72.638  1.00  0.00    -0.275 OA
BRANCH   3   6
ATOM      6  C   UNL     1      93.691 100.856  72.248  1.00  0.00     0.151 C 
BRANCH   6   7
ATOM      7  C   UNL     1      92.248 100.816  71.884  1.00  0.00    -0.025 A 
ATOM      8  C   UNL     1      89.934 101.561  72.254  1.00  0.00     0.160 A 
ATOM      9  C   UNL     1      89.512 100.791  71.149  1.00  0.00     0.157 A 
ATOM     10  C   UNL     1      91.296 101.554  72.625  1.00  0.00     0.056 A 
ATOM     11  C   UNL     1      90.447 100.033  70.421  1.00  0.00     0.050 A 
ATOM     12  C   UNL     1      91.805 100.049  70.781  1.00  0.00     0.009 A 
BRANCH   8  13
ATOM     13  O   UNL     1      89.037 102.291  72.988  1.00  0.00    -0.493 OA
ATOM     14  C   UNL     1      89.484 102.588  74.325  1.00  0.00     0.278 C 
ENDBRANCH   8  13
BRANCH   9  15
ATOM     15  O   UNL     1      88.205 100.790  70.785  1.00  0.00    -0.504 OA
ATOM     16  H   UNL     1      87.654 100.838  71.569  1.00  0.00     0.293 HD
ENDBRANCH   9  15
ENDBRANCH   6   7
ENDBRANCH   3   6
ENDBRANCH   1   2
BRANCH   1  17
ATOM     17  C   UNL     1      94.705  97.039  75.246  1.00  0.00     0.010 C 
BRANCH  17  18
ATOM     18  C   UNL     1      94.836  96.694  76.755  1.00  0.00     0.001 C 
BRANCH  18  19
ATOM     19  C   UNL     1      93.550  96.993  77.569  1.00  0.00     0.000 C 
BRANCH  19  20
ATOM     20  C   UNL     1      92.264  96.516  76.834  1.00  0.00     0.003 C 
BRANCH  20  21
ATOM     21  C   UNL     1      92.142  94.968  76.653  1.00  0.00    -0.017 C 
ATOM     22  C   UNL     1      91.812  94.606  75.175  1.00  0.00     0.007 C 
ATOM     23  C   UNL     1      91.092  94.329  77.608  1.00  0.00     0.007 C 
ENDBRANCH  20  21
ENDBRANCH  19  20
ENDBRANCH  18  19
ENDBRANCH  17  18
ENDBRANCH   1  17
TORSDOF 10
ENDMDL
