MODEL 1
REMARK VINA RESULT:    -6.710      0.000      0.000
REMARK INTER + INTRA:         -11.581
REMARK INTER:                 -10.829
REMARK INTRA:                  -0.752
REMARK UNBOUND:                -0.752
REMARK SMILES COc1cc(CNC(=O)CCCCCCC(C)C)ccc1O
REMARK SMILES IDX 11 1 10 2 8 3 7 4 9 6 6 7 5 8 3 9 21 10 4 11 20 12 19 13
REMARK SMILES IDX 2 14 1 15 22 16 12 18 13 19 14 20 15 21 16 22 17 23 18 24
REMARK H PARENT 7 5 22 17
REMARK Flexibility Score: inf
ROOT
ATOM      1  C   UNL     1      93.672  82.890  85.839  1.00  0.00     0.010 C 
ENDROOT
BRANCH   1   2
ATOM      2  C   UNL     1      92.993  81.839  86.761  1.00  0.00     0.100 C 
BRANCH   2   3
ATOM      3  C   UNL     1      92.173  80.855  86.020  1.00  0.00     0.220 C 
ATOM      4  N   UNL     1      91.005  81.237  85.428  1.00  0.00    -0.352 N 
ATOM      5  H   UNL     1      90.751  82.202  85.582  1.00  0.00     0.163 HD
ATOM      6  O   UNL     1      92.588  79.673  85.929  1.00  0.00    -0.275 OA
BRANCH   4   7
ATOM      7  C   UNL     1      90.161  80.390  84.640  1.00  0.00     0.151 C 
BRANCH   7   8
ATOM      8  C   UNL     1      88.914  81.064  84.185  1.00  0.00    -0.025 A 
ATOM      9  C   UNL     1      87.414  83.012  84.214  1.00  0.00     0.160 A 
ATOM     10  C   UNL     1      86.562  82.373  83.288  1.00  0.00     0.157 A 
ATOM     11  C   UNL     1      88.571  82.347  84.670  1.00  0.00     0.056 A 
ATOM     12  C   UNL     1      86.872  81.080  82.828  1.00  0.00     0.050 A 
ATOM     13  C   UNL     1      88.045  80.433  83.264  1.00  0.00     0.009 A 
BRANCH   9  14
ATOM     14  O   UNL     1      87.101  84.253  84.698  1.00  0.00    -0.493 OA
ATOM     15  C   UNL     1      86.437  84.227  85.975  1.00  0.00     0.278 C 
ENDBRANCH   9  14
BRANCH  10  16
ATOM     16  O   UNL     1      85.439  82.989  82.833  1.00  0.00    -0.504 OA
ATOM     17  H   UNL     1      85.327  83.826  83.290  1.00  0.00     0.293 HD
ENDBRANCH  10  16
ENDBRANCH   7   8
ENDBRANCH   4   7
ENDBRANCH   2   3
ENDBRANCH   1   2
BRANCH   1  18
ATOM     18  C   UNL     1      94.438  82.228  84.659  1.00  0.00     0.001 C 
BRANCH  18  19
ATOM     19  C   UNL     1      94.933  83.240  83.587  1.00  0.00     0.000 C 
BRANCH  19  20
ATOM     20  C   UNL     1      96.472  83.448  83.665  1.00  0.00     0.000 C 
BRANCH  20  21
ATOM     21  C   UNL     1      97.299  82.390  82.884  1.00  0.00     0.003 C 
BRANCH  21  22
ATOM     22  C   UNL     1      96.756  82.068  81.453  1.00  0.00    -0.017 C 
ATOM     23  C   UNL     1      97.261  80.676  80.980  1.00  0.00     0.007 C 
ATOM     24  C   UNL     1      97.097  83.159  80.395  1.00  0.00     0.007 C 
ENDBRANCH  21  22
ENDBRANCH  20  21
ENDBRANCH  19  20
ENDBRANCH  18  19
ENDBRANCH   1  18
TORSDOF 11
ENDMDL
MODEL 2
REMARK VINA RESULT:    -6.124     14.419     17.024
REMARK INTER + INTRA:         -10.635
REMARK INTER:                  -9.847
REMARK INTRA:                  -0.788
REMARK UNBOUND:                -0.752
REMARK SMILES COc1cc(CNC(=O)CCCCCCC(C)C)ccc1O
REMARK SMILES IDX 11 1 10 2 8 3 7 4 9 6 6 7 5 8 3 9 21 10 4 11 20 12 19 13
REMARK SMILES IDX 2 14 1 15 22 16 12 18 13 19 14 20 15 21 16 22 17 23 18 24
REMARK H PARENT 7 5 22 17
REMARK Flexibility Score: inf
ROOT
ATOM      1  C   UNL     1      91.748  94.626  77.849  1.00  0.00     0.010 C 
ENDROOT
BRANCH   1   2
ATOM      2  C   UNL     1      92.956  94.841  76.896  1.00  0.00     0.100 C 
BRANCH   2   3
ATOM      3  C   UNL     1      93.627  96.146  77.088  1.00  0.00     0.220 C 
ATOM      4  N   UNL     1      94.988  96.218  77.152  1.00  0.00    -0.352 N 
ATOM      5  H   UNL     1      95.460  95.327  77.104  1.00  0.00     0.163 HD
ATOM      6  O   UNL     1      92.921  97.181  77.164  1.00  0.00    -0.275 OA
BRANCH   4   7
ATOM      7  C   UNL     1      95.747  97.425  77.277  1.00  0.00     0.151 C 
BRANCH   7   8
ATOM      8  C   UNL     1      96.408  97.569  78.603  1.00  0.00    -0.025 A 
ATOM      9  C   UNL     1      96.292  98.165  80.986  1.00  0.00     0.160 A 
ATOM     10  C   UNL     1      97.647  97.804  81.145  1.00  0.00     0.157 A 
ATOM     11  C   UNL     1      95.688  98.063  79.715  1.00  0.00     0.056 A 
ATOM     12  C   UNL     1      98.385  97.349  80.037  1.00  0.00     0.050 A 
ATOM     13  C   UNL     1      97.768  97.222  78.777  1.00  0.00     0.009 A 
BRANCH   9  14
ATOM     14  O   UNL     1      95.576  98.647  82.049  1.00  0.00    -0.493 OA
ATOM     15  C   UNL     1      95.359 100.069  82.005  1.00  0.00     0.278 C 
ENDBRANCH   9  14
BRANCH  10  16
ATOM     16  O   UNL     1      98.255  97.894  82.357  1.00  0.00    -0.504 OA
ATOM     17  H   UNL     1      99.013  98.480  82.292  1.00  0.00     0.293 HD
ENDBRANCH  10  16
ENDBRANCH   7   8
ENDBRANCH   4   7
ENDBRANCH   2   3
ENDBRANCH   1   2
BRANCH   1  18
ATOM     18  C   UNL     1      90.534  93.982  77.122  1.00  0.00     0.001 C 
BRANCH  18  19
ATOM     19  C   UNL     1      90.514  94.238  75.589  1.00  0.00     0.000 C 
BRANCH  19  20
ATOM     20  C   UNL     1      90.401  92.910  74.789  1.00  0.00     0.000 C 
BRANCH  20  21
ATOM     21  C   UNL     1      89.885  91.705  75.623  1.00  0.00     0.003 C 
BRANCH  21  22
ATOM     22  C   UNL     1      89.536  90.433  74.783  1.00  0.00    -0.017 C 
ATOM     23  C   UNL     1      90.778  89.958  73.976  1.00  0.00     0.007 C 
ATOM     24  C   UNL     1      88.313  90.624  73.839  1.00  0.00     0.007 C 
ENDBRANCH  21  22
ENDBRANCH  20  21
ENDBRANCH  19  20
ENDBRANCH  18  19
ENDBRANCH   1  18
TORSDOF 11
ENDMDL
MODEL 3
REMARK VINA RESULT:    -6.039     14.357     17.050
REMARK INTER + INTRA:         -10.498
REMARK INTER:                  -9.903
REMARK INTRA:                  -0.595
REMARK UNBOUND:                -0.752
REMARK SMILES COc1cc(CNC(=O)CCCCCCC(C)C)ccc1O
REMARK SMILES IDX 11 1 10 2 8 3 7 4 9 6 6 7 5 8 3 9 21 10 4 11 20 12 19 13
REMARK SMILES IDX 2 14 1 15 22 16 12 18 13 19 14 20 15 21 16 22 17 23 18 24
REMARK H PARENT 7 5 22 17
REMARK Flexibility Score: inf
ROOT
ATOM      1  C   UNL     1      91.987  95.500  76.413  1.00  0.00     0.010 C 
ENDROOT
BRANCH   1   2
ATOM      2  C   UNL     1      93.067  95.774  75.331  1.00  0.00     0.100 C 
BRANCH   2   3
ATOM      3  C   UNL     1      94.084  96.763  75.755  1.00  0.00     0.220 C 
ATOM      4  N   UNL     1      95.004  96.439  76.709  1.00  0.00    -0.352 N 
ATOM      5  H   UNL     1      94.893  95.517  77.105  1.00  0.00     0.163 HD
ATOM      6  O   UNL     1      94.094  97.890  75.204  1.00  0.00    -0.275 OA
BRANCH   4   7
ATOM      7  C   UNL     1      96.065  97.289  77.156  1.00  0.00     0.151 C 
BRANCH   7   8
ATOM      8  C   UNL     1      96.104  97.450  78.635  1.00  0.00    -0.025 A 
ATOM      9  C   UNL     1      96.741  96.601  80.854  1.00  0.00     0.160 A 
ATOM     10  C   UNL     1      96.222  97.770  81.453  1.00  0.00     0.157 A 
ATOM     11  C   UNL     1      96.661  96.442  79.455  1.00  0.00     0.056 A 
ATOM     12  C   UNL     1      95.630  98.764  80.652  1.00  0.00     0.050 A 
ATOM     13  C   UNL     1      95.581  98.611  79.252  1.00  0.00     0.009 A 
BRANCH   9  14
ATOM     14  O   UNL     1      97.283  95.611  81.628  1.00  0.00    -0.493 OA
ATOM     15  C   UNL     1      98.710  95.712  81.782  1.00  0.00     0.278 C 
ENDBRANCH   9  14
BRANCH  10  16
ATOM     16  O   UNL     1      96.284  97.950  82.798  1.00  0.00    -0.504 OA
ATOM     17  H   UNL     1      95.397  98.068  83.146  1.00  0.00     0.293 HD
ENDBRANCH  10  16
ENDBRANCH   7   8
ENDBRANCH   4   7
ENDBRANCH   2   3
ENDBRANCH   1   2
BRANCH   1  18
ATOM     18  C   UNL     1      91.134  94.242  76.086  1.00  0.00     0.001 C 
BRANCH  18  19
ATOM     19  C   UNL     1      90.485  94.275  74.673  1.00  0.00     0.000 C 
BRANCH  19  20
ATOM     20  C   UNL     1      90.046  92.857  74.212  1.00  0.00     0.000 C 
BRANCH  20  21
ATOM     21  C   UNL     1      90.130  91.772  75.321  1.00  0.00     0.003 C 
BRANCH  21  22
ATOM     22  C   UNL     1      89.215  90.526  75.084  1.00  0.00    -0.017 C 
ATOM     23  C   UNL     1      90.057  89.220  75.110  1.00  0.00     0.007 C 
ATOM     24  C   UNL     1      88.376  90.607  73.774  1.00  0.00     0.007 C 
ENDBRANCH  21  22
ENDBRANCH  20  21
ENDBRANCH  19  20
ENDBRANCH  18  19
ENDBRANCH   1  18
TORSDOF 11
ENDMDL
MODEL 4
REMARK VINA RESULT:    -5.918      1.800      2.728
REMARK INTER + INTRA:         -10.303
REMARK INTER:                  -9.568
REMARK INTRA:                  -0.735
REMARK UNBOUND:                -0.752
REMARK SMILES COc1cc(CNC(=O)CCCCCCC(C)C)ccc1O
REMARK SMILES IDX 11 1 10 2 8 3 7 4 9 6 6 7 5 8 3 9 21 10 4 11 20 12 19 13
REMARK SMILES IDX 2 14 1 15 22 16 12 18 13 19 14 20 15 21 16 22 17 23 18 24
REMARK H PARENT 7 5 22 17
REMARK Flexibility Score: inf
ROOT
ATOM      1  C   UNL     1      93.223  82.057  85.732  1.00  0.00     0.010 C 
ENDROOT
BRANCH   1   2
ATOM      2  C   UNL     1      93.017  80.578  86.160  1.00  0.00     0.100 C 
BRANCH   2   3
ATOM      3  C   UNL     1      92.072  79.843  85.289  1.00  0.00     0.220 C 
ATOM      4  N   UNL     1      90.789  80.281  85.140  1.00  0.00    -0.352 N 
ATOM      5  H   UNL     1      90.553  81.091  85.695  1.00  0.00     0.163 HD
ATOM      6  O   UNL     1      92.485  78.829  84.675  1.00  0.00    -0.275 OA
BRANCH   4   7
ATOM      7  C   UNL     1      89.807  79.688  84.283  1.00  0.00     0.151 C 
BRANCH   7   8
ATOM      8  C   UNL     1      88.686  80.609  83.949  1.00  0.00    -0.025 A 
ATOM      9  C   UNL     1      87.571  82.786  84.205  1.00  0.00     0.160 A 
ATOM     10  C   UNL     1      86.576  82.387  83.286  1.00  0.00     0.157 A 
ATOM     11  C   UNL     1      88.606  81.889  84.543  1.00  0.00     0.056 A 
ATOM     12  C   UNL     1      86.623  81.101  82.718  1.00  0.00     0.050 A 
ATOM     13  C   UNL     1      87.676  80.221  83.038  1.00  0.00     0.009 A 
BRANCH   9  14
ATOM     14  O   UNL     1      87.513  84.020  84.793  1.00  0.00    -0.493 OA
ATOM     15  C   UNL     1      86.555  84.108  85.864  1.00  0.00     0.278 C 
ENDBRANCH   9  14
BRANCH  10  16
ATOM     16  O   UNL     1      85.567  83.230  82.942  1.00  0.00    -0.504 OA
ATOM     17  H   UNL     1      84.729  82.858  83.228  1.00  0.00     0.293 HD
ENDBRANCH  10  16
ENDBRANCH   7   8
ENDBRANCH   4   7
ENDBRANCH   2   3
ENDBRANCH   1   2
BRANCH   1  18
ATOM     18  C   UNL     1      93.647  82.183  84.241  1.00  0.00     0.001 C 
BRANCH  18  19
ATOM     19  C   UNL     1      95.075  81.644  83.948  1.00  0.00     0.000 C 
BRANCH  19  20
ATOM     20  C   UNL     1      96.155  82.416  84.757  1.00  0.00     0.000 C 
BRANCH  20  21
ATOM     21  C   UNL     1      96.761  81.612  85.941  1.00  0.00     0.003 C 
BRANCH  21  22
ATOM     22  C   UNL     1      97.366  82.492  87.083  1.00  0.00    -0.017 C 
ATOM     23  C   UNL     1      98.563  83.328  86.549  1.00  0.00     0.007 C 
ATOM     24  C   UNL     1      97.788  81.679  88.342  1.00  0.00     0.007 C 
ENDBRANCH  21  22
ENDBRANCH  20  21
ENDBRANCH  19  20
ENDBRANCH  18  19
ENDBRANCH   1  18
TORSDOF 11
ENDMDL
MODEL 5
REMARK VINA RESULT:    -5.895      4.733      8.122
REMARK INTER + INTRA:         -10.266
REMARK INTER:                  -9.482
REMARK INTRA:                  -0.784
REMARK UNBOUND:                -0.752
REMARK SMILES COc1cc(CNC(=O)CCCCCCC(C)C)ccc1O
REMARK SMILES IDX 11 1 10 2 8 3 7 4 9 6 6 7 5 8 3 9 21 10 4 11 20 12 19 13
REMARK SMILES IDX 2 14 1 15 22 16 12 18 13 19 14 20 15 21 16 22 17 23 18 24
REMARK H PARENT 7 5 22 17
REMARK Flexibility Score: inf
ROOT
ATOM      1  C   UNL     1      93.163  81.561  85.604  1.00  0.00     0.010 C 
ENDROOT
BRANCH   1   2
ATOM      2  C   UNL     1      92.941  82.788  84.678  1.00  0.00     0.100 C 
BRANCH   2   3
ATOM      3  C   UNL     1      93.881  83.900  84.943  1.00  0.00     0.220 C 
ATOM      4  N   UNL     1      93.423  85.181  85.045  1.00  0.00    -0.352 N 
ATOM      5  H   UNL     1      92.433  85.288  84.882  1.00  0.00     0.163 HD
ATOM      6  O   UNL     1      95.099  83.634  85.096  1.00  0.00    -0.275 OA
BRANCH   4   7
ATOM      7  C   UNL     1      94.227  86.324  85.356  1.00  0.00     0.151 C 
BRANCH   7   8
ATOM      8  C   UNL     1      93.960  86.879  86.711  1.00  0.00    -0.025 A 
ATOM      9  C   UNL     1      94.086  88.741  88.313  1.00  0.00     0.160 A 
ATOM     10  C   UNL     1      93.415  87.959  89.278  1.00  0.00     0.157 A 
ATOM     11  C   UNL     1      94.370  88.190  87.045  1.00  0.00     0.056 A 
ATOM     12  C   UNL     1      93.037  86.640  88.970  1.00  0.00     0.050 A 
ATOM     13  C   UNL     1      93.297  86.106  87.693  1.00  0.00     0.009 A 
BRANCH   9  14
ATOM     14  O   UNL     1      94.494  90.012  88.615  1.00  0.00    -0.493 OA
ATOM     15  C   UNL     1      93.619  91.037  88.110  1.00  0.00     0.278 C 
ENDBRANCH   9  14
BRANCH  10  16
ATOM     16  O   UNL     1      93.130  88.464  90.507  1.00  0.00    -0.504 OA
ATOM     17  H   UNL     1      92.612  89.266  90.411  1.00  0.00     0.293 HD
ENDBRANCH  10  16
ENDBRANCH   7   8
ENDBRANCH   4   7
ENDBRANCH   2   3
ENDBRANCH   1   2
BRANCH   1  18
ATOM     18  C   UNL     1      91.871  80.712  85.774  1.00  0.00     0.001 C 
BRANCH  18  19
ATOM     19  C   UNL     1      91.560  79.795  84.558  1.00  0.00     0.000 C 
BRANCH  19  20
ATOM     20  C   UNL     1      90.197  80.156  83.903  1.00  0.00     0.000 C 
BRANCH  20  21
ATOM     21  C   UNL     1      89.576  81.485  84.416  1.00  0.00     0.003 C 
BRANCH  21  22
ATOM     22  C   UNL     1      88.014  81.491  84.478  1.00  0.00    -0.017 C 
ATOM     23  C   UNL     1      87.418  80.732  83.259  1.00  0.00     0.007 C 
ATOM     24  C   UNL     1      87.397  82.917  84.587  1.00  0.00     0.007 C 
ENDBRANCH  21  22
ENDBRANCH  20  21
ENDBRANCH  19  20
ENDBRANCH  18  19
ENDBRANCH   1  18
TORSDOF 11
ENDMDL
MODEL 6
REMARK VINA RESULT:    -5.788      4.422      7.731
REMARK INTER + INTRA:         -10.093
REMARK INTER:                  -9.235
REMARK INTRA:                  -0.858
REMARK UNBOUND:                -0.752
REMARK SMILES COc1cc(CNC(=O)CCCCCCC(C)C)ccc1O
REMARK SMILES IDX 11 1 10 2 8 3 7 4 9 6 6 7 5 8 3 9 21 10 4 11 20 12 19 13
REMARK SMILES IDX 2 14 1 15 22 16 12 18 13 19 14 20 15 21 16 22 17 23 18 24
REMARK H PARENT 7 5 22 17
REMARK Flexibility Score: inf
ROOT
ATOM      1  C   UNL     1      97.719  83.330  78.050  1.00  0.00     0.010 C 
ENDROOT
BRANCH   1   2
ATOM      2  C   UNL     1      96.758  83.563  79.248  1.00  0.00     0.100 C 
BRANCH   2   3
ATOM      3  C   UNL     1      97.096  82.748  80.437  1.00  0.00     0.220 C 
ATOM      4  N   UNL     1      96.962  83.269  81.691  1.00  0.00    -0.352 N 
ATOM      5  H   UNL     1      96.666  84.234  81.716  1.00  0.00     0.163 HD
ATOM      6  O   UNL     1      97.485  81.567  80.266  1.00  0.00    -0.275 OA
BRANCH   4   7
ATOM      7  C   UNL     1      97.203  82.560  82.910  1.00  0.00     0.151 C 
BRANCH   7   8
ATOM      8  C   UNL     1      95.962  82.016  83.528  1.00  0.00    -0.025 A 
ATOM      9  C   UNL     1      93.707  82.370  84.442  1.00  0.00     0.160 A 
ATOM     10  C   UNL     1      93.576  80.982  84.664  1.00  0.00     0.157 A 
ATOM     11  C   UNL     1      94.903  82.878  83.894  1.00  0.00     0.056 A 
ATOM     12  C   UNL     1      94.638  80.118  84.340  1.00  0.00     0.050 A 
ATOM     13  C   UNL     1      95.819  80.629  83.766  1.00  0.00     0.009 A 
BRANCH   9  14
ATOM     14  O   UNL     1      92.695  83.224  84.791  1.00  0.00    -0.493 OA
ATOM     15  C   UNL     1      92.951  83.963  85.998  1.00  0.00     0.278 C 
ENDBRANCH   9  14
BRANCH  10  16
ATOM     16  O   UNL     1      92.435  80.465  85.192  1.00  0.00    -0.504 OA
ATOM     17  H   UNL     1      91.747  80.460  84.523  1.00  0.00     0.293 HD
ENDBRANCH  10  16
ENDBRANCH   7   8
ENDBRANCH   4   7
ENDBRANCH   2   3
ENDBRANCH   1   2
BRANCH   1  18
ATOM     18  C   UNL     1      96.958  83.240  76.696  1.00  0.00     0.001 C 
BRANCH  18  19
ATOM     19  C   UNL     1      96.722  84.619  76.018  1.00  0.00     0.000 C 
BRANCH  19  20
ATOM     20  C   UNL     1      97.172  84.609  74.530  1.00  0.00     0.000 C 
BRANCH  20  21
ATOM     21  C   UNL     1      98.524  83.886  74.278  1.00  0.00     0.003 C 
BRANCH  21  22
ATOM     22  C   UNL     1      99.785  84.684  74.746  1.00  0.00    -0.017 C 
ATOM     23  C   UNL     1     100.108  85.828  73.744  1.00  0.00     0.007 C 
ATOM     24  C   UNL     1     101.040  83.792  74.978  1.00  0.00     0.007 C 
ENDBRANCH  21  22
ENDBRANCH  20  21
ENDBRANCH  19  20
ENDBRANCH  18  19
ENDBRANCH   1  18
TORSDOF 11
ENDMDL
MODEL 7
REMARK VINA RESULT:    -5.759      5.650     10.203
REMARK INTER + INTRA:         -10.046
REMARK INTER:                  -9.255
REMARK INTRA:                  -0.791
REMARK UNBOUND:                -0.752
REMARK SMILES COc1cc(CNC(=O)CCCCCCC(C)C)ccc1O
REMARK SMILES IDX 11 1 10 2 8 3 7 4 9 6 6 7 5 8 3 9 21 10 4 11 20 12 19 13
REMARK SMILES IDX 2 14 1 15 22 16 12 18 13 19 14 20 15 21 16 22 17 23 18 24
REMARK H PARENT 7 5 22 17
REMARK Flexibility Score: inf
ROOT
ATOM      1  C   UNL     1      97.047  80.856  81.891  1.00  0.00     0.010 C 
ENDROOT
BRANCH   1   2
ATOM      2  C   UNL     1      98.576  80.670  82.095  1.00  0.00     0.100 C 
BRANCH   2   3
ATOM      3  C   UNL     1      99.376  81.067  80.915  1.00  0.00     0.220 C 
ATOM      4  N   UNL     1      98.760  81.403  79.745  1.00  0.00    -0.352 N 
ATOM      5  H   UNL     1      97.754  81.311  79.758  1.00  0.00     0.163 HD
ATOM      6  O   UNL     1     100.626  81.111  81.023  1.00  0.00    -0.275 OA
BRANCH   4   7
ATOM      7  C   UNL     1      99.424  81.856  78.561  1.00  0.00     0.151 C 
BRANCH   7   8
ATOM      8  C   UNL     1      98.562  82.703  77.692  1.00  0.00    -0.025 A 
ATOM      9  C   UNL     1      98.197  83.905  75.578  1.00  0.00     0.160 A 
ATOM     10  C   UNL     1      96.907  84.281  76.012  1.00  0.00     0.157 A 
ATOM     11  C   UNL     1      99.020  83.136  76.427  1.00  0.00     0.056 A 
ATOM     12  C   UNL     1      96.454  83.888  77.284  1.00  0.00     0.050 A 
ATOM     13  C   UNL     1      97.270  83.096  78.115  1.00  0.00     0.009 A 
BRANCH   9  14
ATOM     14  O   UNL     1      98.662  84.314  74.358  1.00  0.00    -0.493 OA
ATOM     15  C   UNL     1     100.031  83.950  74.107  1.00  0.00     0.278 C 
ENDBRANCH   9  14
BRANCH  10  16
ATOM     16  O   UNL     1      96.092  85.022  75.215  1.00  0.00    -0.504 OA
ATOM     17  H   UNL     1      95.893  85.855  75.649  1.00  0.00     0.293 HD
ENDBRANCH  10  16
ENDBRANCH   7   8
ENDBRANCH   4   7
ENDBRANCH   2   3
ENDBRANCH   1   2
BRANCH   1  18
ATOM     18  C   UNL     1      96.587  82.310  82.196  1.00  0.00     0.001 C 
BRANCH  18  19
ATOM     19  C   UNL     1      95.696  82.432  83.464  1.00  0.00     0.000 C 
BRANCH  19  20
ATOM     20  C   UNL     1      95.160  81.047  83.922  1.00  0.00     0.000 C 
BRANCH  20  21
ATOM     21  C   UNL     1      93.926  81.120  84.864  1.00  0.00     0.003 C 
BRANCH  21  22
ATOM     22  C   UNL     1      92.903  82.248  84.508  1.00  0.00    -0.017 C 
ATOM     23  C   UNL     1      92.866  83.323  85.631  1.00  0.00     0.007 C 
ATOM     24  C   UNL     1      91.468  81.720  84.212  1.00  0.00     0.007 C 
ENDBRANCH  21  22
ENDBRANCH  20  21
ENDBRANCH  19  20
ENDBRANCH  18  19
ENDBRANCH   1  18
TORSDOF 11
ENDMDL
MODEL 8
REMARK VINA RESULT:    -5.739     15.606     17.414
REMARK INTER + INTRA:         -10.014
REMARK INTER:                  -9.251
REMARK INTRA:                  -0.763
REMARK UNBOUND:                -0.752
REMARK SMILES COc1cc(CNC(=O)CCCCCCC(C)C)ccc1O
REMARK SMILES IDX 11 1 10 2 8 3 7 4 9 6 6 7 5 8 3 9 21 10 4 11 20 12 19 13
REMARK SMILES IDX 2 14 1 15 22 16 12 18 13 19 14 20 15 21 16 22 17 23 18 24
REMARK H PARENT 7 5 22 17
REMARK Flexibility Score: inf
ROOT
ATOM      1  C   UNL     1      94.950  98.328  75.403  1.00  0.00     0.010 C 
ENDROOT
BRANCH   1   2
ATOM      2  C   UNL     1      95.648  97.910  76.726  1.00  0.00     0.100 C 
BRANCH   2   3
ATOM      3  C   UNL     1      95.027  96.730  77.368  1.00  0.00     0.220 C 
ATOM      4  N   UNL     1      93.669  96.596  77.397  1.00  0.00    -0.352 N 
ATOM      5  H   UNL     1      93.161  97.370  76.995  1.00  0.00     0.163 HD
ATOM      6  O   UNL     1      95.774  95.850  77.861  1.00  0.00    -0.275 OA
BRANCH   4   7
ATOM      7  C   UNL     1      92.961  95.475  77.937  1.00  0.00     0.151 C 
BRANCH   7   8
ATOM      8  C   UNL     1      92.076  94.807  76.944  1.00  0.00    -0.025 A 
ATOM      9  C   UNL     1      90.238  93.254  76.434  1.00  0.00     0.160 A 
ATOM     10  C   UNL     1      90.356  93.562  75.061  1.00  0.00     0.157 A 
ATOM     11  C   UNL     1      91.110  93.863  77.361  1.00  0.00     0.056 A 
ATOM     12  C   UNL     1      91.339  94.471  74.629  1.00  0.00     0.050 A 
ATOM     13  C   UNL     1      92.186  95.097  75.563  1.00  0.00     0.009 A 
BRANCH   9  14
ATOM     14  O   UNL     1      89.311  92.342  76.861  1.00  0.00    -0.493 OA
ATOM     15  C   UNL     1      89.642  90.981  76.529  1.00  0.00     0.278 C 
ENDBRANCH   9  14
BRANCH  10  16
ATOM     16  O   UNL     1      89.530  92.989  74.146  1.00  0.00    -0.504 OA
ATOM     17  H   UNL     1      90.055  92.514  73.497  1.00  0.00     0.293 HD
ENDBRANCH  10  16
ENDBRANCH   7   8
ENDBRANCH   4   7
ENDBRANCH   2   3
ENDBRANCH   1   2
BRANCH   1  18
ATOM     18  C   UNL     1      95.064  97.230  74.306  1.00  0.00     0.001 C 
BRANCH  18  19
ATOM     19  C   UNL     1      94.969  97.782  72.856  1.00  0.00     0.000 C 
BRANCH  19  20
ATOM     20  C   UNL     1      94.107  99.074  72.790  1.00  0.00     0.000 C 
BRANCH  20  21
ATOM     21  C   UNL     1      92.913  98.993  71.800  1.00  0.00     0.003 C 
BRANCH  21  22
ATOM     22  C   UNL     1      92.290 100.375  71.417  1.00  0.00    -0.017 C 
ATOM     23  C   UNL     1      92.281 101.326  72.647  1.00  0.00     0.007 C 
ATOM     24  C   UNL     1      90.865 100.270  70.799  1.00  0.00     0.007 C 
ENDBRANCH  21  22
ENDBRANCH  20  21
ENDBRANCH  19  20
ENDBRANCH  18  19
ENDBRANCH   1  18
TORSDOF 11
ENDMDL
MODEL 9
REMARK VINA RESULT:    -5.527     14.534     17.266
REMARK INTER + INTRA:          -9.672
REMARK INTER:                  -8.936
REMARK INTRA:                  -0.737
REMARK UNBOUND:                -0.752
REMARK SMILES COc1cc(CNC(=O)CCCCCCC(C)C)ccc1O
REMARK SMILES IDX 11 1 10 2 8 3 7 4 9 6 6 7 5 8 3 9 21 10 4 11 20 12 19 13
REMARK SMILES IDX 2 14 1 15 22 16 12 18 13 19 14 20 15 21 16 22 17 23 18 24
REMARK H PARENT 7 5 22 17
REMARK Flexibility Score: inf
ROOT
ATOM      1  C   UNL     1      95.165  96.597  76.789  1.00  0.00     0.010 C 
ENDROOT
BRANCH   1   2
ATOM      2  C   UNL     1      94.521  96.859  78.179  1.00  0.00     0.100 C 
BRANCH   2   3
ATOM      3  C   UNL     1      95.016  95.946  79.234  1.00  0.00     0.220 C 
ATOM      4  N   UNL     1      96.114  96.277  79.973  1.00  0.00    -0.352 N 
ATOM      5  H   UNL     1      96.556  97.145  79.705  1.00  0.00     0.163 HD
ATOM      6  O   UNL     1      94.391  94.878  79.447  1.00  0.00    -0.275 OA
BRANCH   4   7
ATOM      7  C   UNL     1      96.647  95.504  81.053  1.00  0.00     0.151 C 
BRANCH   7   8
ATOM      8  C   UNL     1      97.373  96.326  82.060  1.00  0.00    -0.025 A 
ATOM      9  C   UNL     1      97.828  98.508  83.100  1.00  0.00     0.160 A 
ATOM     10  C   UNL     1      98.719  97.892  84.006  1.00  0.00     0.157 A 
ATOM     11  C   UNL     1      97.178  97.724  82.124  1.00  0.00     0.056 A 
ATOM     12  C   UNL     1      98.952  96.507  83.928  1.00  0.00     0.050 A 
ATOM     13  C   UNL     1      98.276  95.727  82.970  1.00  0.00     0.009 A 
BRANCH   9  14
ATOM     14  O   UNL     1      97.625  99.860  83.142  1.00  0.00    -0.493 OA
ATOM     15  C   UNL     1      96.823 100.360  82.057  1.00  0.00     0.278 C 
ENDBRANCH   9  14
BRANCH  10  16
ATOM     16  O   UNL     1      99.361  98.622  84.956  1.00  0.00    -0.504 OA
ATOM     17  H   UNL     1      99.933  98.047  85.469  1.00  0.00     0.293 HD
ENDBRANCH  10  16
ENDBRANCH   7   8
ENDBRANCH   4   7
ENDBRANCH   2   3
ENDBRANCH   1   2
BRANCH   1  18
ATOM     18  C   UNL     1      94.198  96.941  75.620  1.00  0.00     0.001 C 
BRANCH  18  19
ATOM     19  C   UNL     1      93.750  95.703  74.794  1.00  0.00     0.000 C 
BRANCH  19  20
ATOM     20  C   UNL     1      92.286  95.296  75.121  1.00  0.00     0.000 C 
BRANCH  20  21
ATOM     21  C   UNL     1      92.140  94.412  76.391  1.00  0.00     0.003 C 
BRANCH  21  22
ATOM     22  C   UNL     1      90.823  93.571  76.450  1.00  0.00    -0.017 C 
ATOM     23  C   UNL     1      90.649  92.742  75.146  1.00  0.00     0.007 C 
ATOM     24  C   UNL     1      89.549  94.422  76.729  1.00  0.00     0.007 C 
ENDBRANCH  21  22
ENDBRANCH  20  21
ENDBRANCH  19  20
ENDBRANCH  18  19
ENDBRANCH   1  18
TORSDOF 11
ENDMDL
MODEL 10
REMARK VINA RESULT:    -5.362     21.207     24.292
REMARK INTER + INTRA:          -9.405
REMARK INTER:                  -7.784
REMARK INTRA:                  -1.621
REMARK UNBOUND:                -0.752
REMARK SMILES COc1cc(CNC(=O)CCCCCCC(C)C)ccc1O
REMARK SMILES IDX 11 1 10 2 8 3 7 4 9 6 6 7 5 8 3 9 21 10 4 11 20 12 19 13
REMARK SMILES IDX 2 14 1 15 22 16 12 18 13 19 14 20 15 21 16 22 17 23 18 24
REMARK H PARENT 7 5 22 17
REMARK Flexibility Score: inf
ROOT
ATOM      1  C   UNL     1      71.970  90.014  69.861  1.00  0.00     0.010 C 
ENDROOT
BRANCH   1   2
ATOM      2  C   UNL     1      71.174  88.682  69.784  1.00  0.00     0.100 C 
BRANCH   2   3
ATOM      3  C   UNL     1      71.443  87.911  68.549  1.00  0.00     0.220 C 
ATOM      4  N   UNL     1      72.190  86.771  68.597  1.00  0.00    -0.352 N 
ATOM      5  H   UNL     1      72.559  86.548  69.509  1.00  0.00     0.163 HD
ATOM      6  O   UNL     1      70.948  88.316  67.468  1.00  0.00    -0.275 OA
BRANCH   4   7
ATOM      7  C   UNL     1      72.466  85.916  67.482  1.00  0.00     0.151 C 
BRANCH   7   8
ATOM      8  C   UNL     1      73.898  85.524  67.384  1.00  0.00    -0.025 A 
ATOM      9  C   UNL     1      76.070  85.102  68.459  1.00  0.00     0.160 A 
ATOM     10  C   UNL     1      76.619  84.735  67.211  1.00  0.00     0.157 A 
ATOM     11  C   UNL     1      74.721  85.511  68.533  1.00  0.00     0.056 A 
ATOM     12  C   UNL     1      75.821  84.782  66.054  1.00  0.00     0.050 A 
ATOM     13  C   UNL     1      74.467  85.163  66.140  1.00  0.00     0.009 A 
BRANCH   9  14
ATOM     14  O   UNL     1      76.848  85.098  69.584  1.00  0.00    -0.493 OA
ATOM     15  C   UNL     1      76.141  84.712  70.777  1.00  0.00     0.278 C 
ENDBRANCH   9  14
BRANCH  10  16
ATOM     16  O   UNL     1      77.915  84.339  67.110  1.00  0.00    -0.504 OA
ATOM     17  H   UNL     1      78.492  85.070  67.344  1.00  0.00     0.293 HD
ENDBRANCH  10  16
ENDBRANCH   7   8
ENDBRANCH   4   7
ENDBRANCH   2   3
ENDBRANCH   1   2
BRANCH   1  18
ATOM     18  C   UNL     1      73.198  89.910  70.809  1.00  0.00     0.001 C 
BRANCH  18  19
ATOM     19  C   UNL     1      74.561  89.847  70.064  1.00  0.00     0.000 C 
BRANCH  19  20
ATOM     20  C   UNL     1      74.367  89.687  68.530  1.00  0.00     0.000 C 
BRANCH  20  21
ATOM     21  C   UNL     1      75.649  89.955  67.694  1.00  0.00     0.003 C 
BRANCH  21  22
ATOM     22  C   UNL     1      76.465  88.673  67.324  1.00  0.00    -0.017 C 
ATOM     23  C   UNL     1      77.935  88.804  67.813  1.00  0.00     0.007 C 
ATOM     24  C   UNL     1      76.424  88.323  65.807  1.00  0.00     0.007 C 
ENDBRANCH  21  22
ENDBRANCH  20  21
ENDBRANCH  19  20
ENDBRANCH  18  19
ENDBRANCH   1  18
TORSDOF 11
ENDMDL
