MODEL 1
REMARK VINA RESULT:    -7.209      0.000      0.000
REMARK INTER + INTRA:          -8.863
REMARK INTER:                  -8.473
REMARK INTRA:                  -0.390
REMARK UNBOUND:                -0.390
REMARK SMILES O=C(/C=C/C=C/c1ccc2c(c1)OCO2)N1CCCCC1
REMARK SMILES IDX 3 1 4 2 2 3 1 4 16 5 17 6 21 7 18 8 20 9 19 10 5 11 6 12
REMARK SMILES IDX 7 13 12 14 8 15 11 16 9 17 13 18 10 19 14 20 15 21
REMARK H PARENT
REMARK Flexibility Score: inf
ROOT
ATOM      1  C   UNL     1      98.890  82.842  81.039  1.00  0.00     0.071 C 
ATOM      2  C   UNL     1      98.979  82.082  82.129  1.00  0.00     0.006 C 
ENDROOT
BRANCH   1   3
ATOM      3  C   UNL     1      99.749  82.508  79.886  1.00  0.00     0.246 C 
ATOM      4  O   UNL     1     100.730  81.793  80.096  1.00  0.00    -0.270 OA
ATOM      5  N   UNL     1      99.397  83.027  78.641  1.00  0.00    -0.339 N 
ATOM      6  C   UNL     1     100.235  82.717  77.478  1.00  0.00     0.120 C 
ATOM      7  C   UNL     1      98.262  83.918  78.360  1.00  0.00     0.120 C 
ATOM      8  C   UNL     1      99.407  82.147  76.331  1.00  0.00     0.022 C 
ATOM      9  C   UNL     1      97.408  83.382  77.211  1.00  0.00     0.022 C 
ATOM     10  C   UNL     1      98.251  83.077  75.977  1.00  0.00     0.004 C 
ENDBRANCH   1   3
BRANCH   2  11
ATOM     11  C   UNL     1      98.179  82.331  83.308  1.00  0.00     0.001 C 
ATOM     12  C   UNL     1      97.793  83.563  83.678  1.00  0.00     0.008 C 
BRANCH  12  13
ATOM     13  C   UNL     1      96.986  83.873  84.871  1.00  0.00    -0.022 A 
ATOM     14  C   UNL     1      96.897  85.189  85.302  1.00  0.00     0.058 A 
ATOM     15  C   UNL     1      96.332  82.832  85.535  1.00  0.00     0.012 A 
ATOM     16  C   UNL     1      96.130  85.430  86.424  1.00  0.00     0.166 A 
ATOM     17  C   UNL     1      95.562  83.104  86.668  1.00  0.00     0.051 A 
ATOM     18  O   UNL     1      95.920  86.644  87.002  1.00  0.00    -0.454 OA
ATOM     19  C   UNL     1      95.480  84.415  87.089  1.00  0.00     0.165 A 
ATOM     20  C   UNL     1      95.065  86.280  88.104  1.00  0.00     0.468 C 
ATOM     21  O   UNL     1      94.781  84.867  88.166  1.00  0.00    -0.454 OA
ENDBRANCH  12  13
ENDBRANCH   2  11
TORSDOF 3
ENDMDL
MODEL 2
REMARK VINA RESULT:    -7.044     23.928     26.112
REMARK INTER + INTRA:          -8.669
REMARK INTER:                  -8.247
REMARK INTRA:                  -0.422
REMARK UNBOUND:                -0.390
REMARK SMILES O=C(/C=C/C=C/c1ccc2c(c1)OCO2)N1CCCCC1
REMARK SMILES IDX 3 1 4 2 2 3 1 4 16 5 17 6 21 7 18 8 20 9 19 10 5 11 6 12
REMARK SMILES IDX 7 13 12 14 8 15 11 16 9 17 13 18 10 19 14 20 15 21
REMARK H PARENT
REMARK Flexibility Score: inf
ROOT
ATOM      1  C   UNL     1      75.904  91.762  71.217  1.00  0.00     0.071 C 
ATOM      2  C   UNL     1      74.860  90.935  71.253  1.00  0.00     0.006 C 
ENDROOT
BRANCH   1   3
ATOM      3  C   UNL     1      75.707  93.150  71.681  1.00  0.00     0.246 C 
ATOM      4  O   UNL     1      74.795  93.798  71.166  1.00  0.00    -0.270 OA
ATOM      5  N   UNL     1      76.568  93.634  72.664  1.00  0.00    -0.339 N 
ATOM      6  C   UNL     1      76.401  95.011  73.141  1.00  0.00     0.120 C 
ATOM      7  C   UNL     1      77.695  92.907  73.268  1.00  0.00     0.120 C 
ATOM      8  C   UNL     1      76.289  95.064  74.660  1.00  0.00     0.022 C 
ATOM      9  C   UNL     1      77.620  92.941  74.794  1.00  0.00     0.022 C 
ATOM     10  C   UNL     1      77.474  94.366  75.321  1.00  0.00     0.004 C 
ENDBRANCH   1   3
BRANCH   2  11
ATOM     11  C   UNL     1      74.955  89.558  70.819  1.00  0.00     0.001 C 
ATOM     12  C   UNL     1      76.120  88.978  70.488  1.00  0.00     0.008 C 
BRANCH  12  13
ATOM     13  C   UNL     1      76.272  87.586  70.034  1.00  0.00    -0.022 A 
ATOM     14  C   UNL     1      77.409  87.227  69.324  1.00  0.00     0.058 A 
ATOM     15  C   UNL     1      75.265  86.663  70.331  1.00  0.00     0.012 A 
ATOM     16  C   UNL     1      77.506  85.911  68.920  1.00  0.00     0.166 A 
ATOM     17  C   UNL     1      75.389  85.337  69.909  1.00  0.00     0.051 A 
ATOM     18  O   UNL     1      78.536  85.366  68.216  1.00  0.00    -0.454 OA
ATOM     19  C   UNL     1      76.523  84.991  69.205  1.00  0.00     0.165 A 
ATOM     20  C   UNL     1      78.091  84.000  68.091  1.00  0.00     0.468 C 
ATOM     21  O   UNL     1      76.815  83.755  68.716  1.00  0.00    -0.454 OA
ENDBRANCH  12  13
ENDBRANCH   2  11
TORSDOF 3
ENDMDL
MODEL 3
REMARK VINA RESULT:    -7.009      2.758      8.798
REMARK INTER + INTRA:          -8.627
REMARK INTER:                  -8.203
REMARK INTRA:                  -0.424
REMARK UNBOUND:                -0.390
REMARK SMILES O=C(/C=C/C=C/c1ccc2c(c1)OCO2)N1CCCCC1
REMARK SMILES IDX 3 1 4 2 2 3 1 4 16 5 17 6 21 7 18 8 20 9 19 10 5 11 6 12
REMARK SMILES IDX 7 13 12 14 8 15 11 16 9 17 13 18 10 19 14 20 15 21
REMARK H PARENT
REMARK Flexibility Score: inf
ROOT
ATOM      1  C   UNL     1      96.638  82.731  85.124  1.00  0.00     0.071 C 
ATOM      2  C   UNL     1      97.923  82.567  84.814  1.00  0.00     0.006 C 
ENDROOT
BRANCH   1   3
ATOM      3  C   UNL     1      96.262  82.733  86.552  1.00  0.00     0.246 C 
ATOM      4  O   UNL     1      96.498  81.715  87.203  1.00  0.00    -0.270 OA
ATOM      5  N   UNL     1      95.662  83.882  87.064  1.00  0.00    -0.339 N 
ATOM      6  C   UNL     1      95.272  83.911  88.477  1.00  0.00     0.120 C 
ATOM      7  C   UNL     1      95.324  85.097  86.307  1.00  0.00     0.120 C 
ATOM      8  C   UNL     1      95.845  85.133  89.187  1.00  0.00     0.022 C 
ATOM      9  C   UNL     1      95.879  86.346  86.991  1.00  0.00     0.022 C 
ATOM     10  C   UNL     1      95.465  86.418  88.458  1.00  0.00     0.004 C 
ENDBRANCH   1   3
BRANCH   2  11
ATOM     11  C   UNL     1      98.388  82.550  83.444  1.00  0.00     0.001 C 
ATOM     12  C   UNL     1      97.772  83.224  82.459  1.00  0.00     0.008 C 
BRANCH  12  13
ATOM     13  C   UNL     1      98.197  83.235  81.049  1.00  0.00    -0.022 A 
ATOM     14  C   UNL     1      97.265  83.533  80.065  1.00  0.00     0.058 A 
ATOM     15  C   UNL     1      99.529  82.945  80.741  1.00  0.00     0.012 A 
ATOM     16  C   UNL     1      97.711  83.532  78.759  1.00  0.00     0.166 A 
ATOM     17  C   UNL     1      99.953  82.951  79.410  1.00  0.00     0.051 A 
ATOM     18  O   UNL     1      96.956  83.797  77.658  1.00  0.00    -0.454 OA
ATOM     19  C   UNL     1      99.019  83.249  78.440  1.00  0.00     0.165 A 
ATOM     20  C   UNL     1      97.936  83.648  76.610  1.00  0.00     0.468 C 
ATOM     21  O   UNL     1      99.248  83.300  77.100  1.00  0.00    -0.454 OA
ENDBRANCH  12  13
ENDBRANCH   2  11
TORSDOF 3
ENDMDL
MODEL 4
REMARK VINA RESULT:    -6.935     17.102     18.792
REMARK INTER + INTRA:          -8.541
REMARK INTER:                  -8.157
REMARK INTRA:                  -0.384
REMARK UNBOUND:                -0.390
REMARK SMILES O=C(/C=C/C=C/c1ccc2c(c1)OCO2)N1CCCCC1
REMARK SMILES IDX 3 1 4 2 2 3 1 4 16 5 17 6 21 7 18 8 20 9 19 10 5 11 6 12
REMARK SMILES IDX 7 13 12 14 8 15 11 16 9 17 13 18 10 19 14 20 15 21
REMARK H PARENT
REMARK Flexibility Score: inf
ROOT
ATOM      1  C   UNL     1      91.548  99.622  71.787  1.00  0.00     0.071 C 
ATOM      2  C   UNL     1      91.937 100.420  72.780  1.00  0.00     0.006 C 
ENDROOT
BRANCH   1   3
ATOM      3  C   UNL     1      90.617 100.168  70.780  1.00  0.00     0.246 C 
ATOM      4  O   UNL     1      90.681 101.374  70.541  1.00  0.00    -0.270 OA
ATOM      5  N   UNL     1      89.726  99.285  70.173  1.00  0.00    -0.339 N 
ATOM      6  C   UNL     1      88.785  99.799  69.173  1.00  0.00     0.120 C 
ATOM      7  C   UNL     1      89.590  97.850  70.464  1.00  0.00     0.120 C 
ATOM      8  C   UNL     1      88.861  99.003  67.875  1.00  0.00     0.022 C 
ATOM      9  C   UNL     1      89.658  97.016  69.185  1.00  0.00     0.022 C 
ATOM     10  C   UNL     1      88.667  97.512  68.135  1.00  0.00     0.004 C 
ENDBRANCH   1   3
BRANCH   2  11
ATOM     11  C   UNL     1      92.847  99.975  73.814  1.00  0.00     0.001 C 
ATOM     12  C   UNL     1      92.648  98.852  74.522  1.00  0.00     0.008 C 
BRANCH  12  13
ATOM     13  C   UNL     1      93.536  98.358  75.589  1.00  0.00    -0.022 A 
ATOM     14  C   UNL     1      93.297  97.107  76.141  1.00  0.00     0.058 A 
ATOM     15  C   UNL     1      94.595  99.163  76.015  1.00  0.00     0.012 A 
ATOM     16  C   UNL     1      94.156  96.689  77.137  1.00  0.00     0.166 A 
ATOM     17  C   UNL     1      95.449  98.714  77.025  1.00  0.00     0.051 A 
ATOM     18  O   UNL     1      94.090  95.502  77.801  1.00  0.00    -0.454 OA
ATOM     19  C   UNL     1      95.204  97.470  77.567  1.00  0.00     0.165 A 
ATOM     20  C   UNL     1      95.213  95.625  78.697  1.00  0.00     0.468 C 
ATOM     21  O   UNL     1      95.925  96.872  78.554  1.00  0.00    -0.454 OA
ENDBRANCH  12  13
ENDBRANCH   2  11
TORSDOF 3
ENDMDL
MODEL 5
REMARK VINA RESULT:    -6.700     24.195     26.467
REMARK INTER + INTRA:          -8.265
REMARK INTER:                  -7.886
REMARK INTRA:                  -0.378
REMARK UNBOUND:                -0.390
REMARK SMILES O=C(/C=C/C=C/c1ccc2c(c1)OCO2)N1CCCCC1
REMARK SMILES IDX 3 1 4 2 2 3 1 4 16 5 17 6 21 7 18 8 20 9 19 10 5 11 6 12
REMARK SMILES IDX 7 13 12 14 8 15 11 16 9 17 13 18 10 19 14 20 15 21
REMARK H PARENT
REMARK Flexibility Score: inf
ROOT
ATOM      1  C   UNL     1      75.329  90.510  71.072  1.00  0.00     0.071 C 
ATOM      2  C   UNL     1      74.765  89.304  71.110  1.00  0.00     0.006 C 
ENDROOT
BRANCH   1   3
ATOM      3  C   UNL     1      74.821  91.543  71.997  1.00  0.00     0.246 C 
ATOM      4  O   UNL     1      73.643  91.464  72.346  1.00  0.00    -0.270 OA
ATOM      5  N   UNL     1      75.705  92.540  72.406  1.00  0.00    -0.339 N 
ATOM      6  C   UNL     1      75.228  93.583  73.319  1.00  0.00     0.120 C 
ATOM      7  C   UNL     1      77.103  92.693  71.976  1.00  0.00     0.120 C 
ATOM      8  C   UNL     1      76.130  93.708  74.542  1.00  0.00     0.022 C 
ATOM      9  C   UNL     1      78.040  92.825  73.176  1.00  0.00     0.022 C 
ATOM     10  C   UNL     1      77.582  93.925  74.130  1.00  0.00     0.004 C 
ENDBRANCH   1   3
BRANCH   2  11
ATOM     11  C   UNL     1      75.194  88.227  70.243  1.00  0.00     0.001 C 
ATOM     12  C   UNL     1      76.479  88.035  69.904  1.00  0.00     0.008 C 
BRANCH  12  13
ATOM     13  C   UNL     1      76.969  86.963  69.021  1.00  0.00    -0.022 A 
ATOM     14  C   UNL     1      76.554  86.936  67.697  1.00  0.00     0.058 A 
ATOM     15  C   UNL     1      77.838  86.001  69.542  1.00  0.00     0.012 A 
ATOM     16  C   UNL     1      77.040  85.912  66.910  1.00  0.00     0.166 A 
ATOM     17  C   UNL     1      78.315  84.975  68.722  1.00  0.00     0.051 A 
ATOM     18  O   UNL     1      76.752  85.712  65.594  1.00  0.00    -0.454 OA
ATOM     19  C   UNL     1      77.897  84.958  67.408  1.00  0.00     0.165 A 
ATOM     20  C   UNL     1      77.524  84.525  65.321  1.00  0.00     0.468 C 
ATOM     21  O   UNL     1      78.253  84.041  66.468  1.00  0.00    -0.454 OA
ENDBRANCH  12  13
ENDBRANCH   2  11
TORSDOF 3
ENDMDL
MODEL 6
REMARK VINA RESULT:    -6.487     14.924     16.097
REMARK INTER + INTRA:          -8.014
REMARK INTER:                  -7.691
REMARK INTRA:                  -0.323
REMARK UNBOUND:                -0.390
REMARK SMILES O=C(/C=C/C=C/c1ccc2c(c1)OCO2)N1CCCCC1
REMARK SMILES IDX 3 1 4 2 2 3 1 4 16 5 17 6 21 7 18 8 20 9 19 10 5 11 6 12
REMARK SMILES IDX 7 13 12 14 8 15 11 16 9 17 13 18 10 19 14 20 15 21
REMARK H PARENT
REMARK Flexibility Score: inf
ROOT
ATOM      1  C   UNL     1      95.668  97.854  73.828  1.00  0.00     0.071 C 
ATOM      2  C   UNL     1      95.287  97.948  75.100  1.00  0.00     0.006 C 
ENDROOT
BRANCH   1   3
ATOM      3  C   UNL     1      96.784  98.707  73.372  1.00  0.00     0.246 C 
ATOM      4  O   UNL     1      97.727  98.873  74.148  1.00  0.00    -0.270 OA
ATOM      5  N   UNL     1      96.695  99.270  72.101  1.00  0.00    -0.339 N 
ATOM      6  C   UNL     1      97.785 100.126  71.623  1.00  0.00     0.120 C 
ATOM      7  C   UNL     1      95.567  99.131  71.166  1.00  0.00     0.120 C 
ATOM      8  C   UNL     1      98.300  99.666  70.264  1.00  0.00     0.022 C 
ATOM      9  C   UNL     1      96.044  98.674  69.788  1.00  0.00     0.022 C 
ATOM     10  C   UNL     1      97.161  99.566  69.253  1.00  0.00     0.004 C 
ENDBRANCH   1   3
BRANCH   2  11
ATOM     11  C   UNL     1      94.203  97.153  75.639  1.00  0.00     0.001 C 
ATOM     12  C   UNL     1      94.296  96.494  76.805  1.00  0.00     0.008 C 
BRANCH  12  13
ATOM     13  C   UNL     1      93.230  95.667  77.395  1.00  0.00    -0.022 A 
ATOM     14  C   UNL     1      91.961  95.699  76.832  1.00  0.00     0.058 A 
ATOM     15  C   UNL     1      93.525  94.872  78.505  1.00  0.00     0.012 A 
ATOM     16  C   UNL     1      90.996  94.907  77.419  1.00  0.00     0.166 A 
ATOM     17  C   UNL     1      92.528  94.080  79.080  1.00  0.00     0.051 A 
ATOM     18  O   UNL     1      89.699  94.800  77.019  1.00  0.00    -0.454 OA
ATOM     19  C   UNL     1      91.271  94.118  78.513  1.00  0.00     0.165 A 
ATOM     20  C   UNL     1      89.190  93.857  77.983  1.00  0.00     0.468 C 
ATOM     21  O   UNL     1      90.182  93.420  78.934  1.00  0.00    -0.454 OA
ENDBRANCH  12  13
ENDBRANCH   2  11
TORSDOF 3
ENDMDL
MODEL 7
REMARK VINA RESULT:    -6.380     24.213     25.623
REMARK INTER + INTRA:          -7.889
REMARK INTER:                  -7.479
REMARK INTRA:                  -0.410
REMARK UNBOUND:                -0.390
REMARK SMILES O=C(/C=C/C=C/c1ccc2c(c1)OCO2)N1CCCCC1
REMARK SMILES IDX 3 1 4 2 2 3 1 4 16 5 17 6 21 7 18 8 20 9 19 10 5 11 6 12
REMARK SMILES IDX 7 13 12 14 8 15 11 16 9 17 13 18 10 19 14 20 15 21
REMARK H PARENT
REMARK Flexibility Score: inf
ROOT
ATOM      1  C   UNL     1      75.646  87.959  70.401  1.00  0.00     0.071 C 
ATOM      2  C   UNL     1      74.849  88.888  69.877  1.00  0.00     0.006 C 
ENDROOT
BRANCH   1   3
ATOM      3  C   UNL     1      75.331  86.542  70.134  1.00  0.00     0.246 C 
ATOM      4  O   UNL     1      74.162  86.182  70.281  1.00  0.00    -0.270 OA
ATOM      5  N   UNL     1      76.375  85.707  69.740  1.00  0.00    -0.339 N 
ATOM      6  C   UNL     1      76.093  84.293  69.473  1.00  0.00     0.120 C 
ATOM      7  C   UNL     1      77.788  86.090  69.598  1.00  0.00     0.120 C 
ATOM      8  C   UNL     1      76.602  83.874  68.098  1.00  0.00     0.022 C 
ATOM      9  C   UNL     1      78.336  85.682  68.231  1.00  0.00     0.022 C 
ATOM     10  C   UNL     1      78.082  84.206  67.938  1.00  0.00     0.004 C 
ENDBRANCH   1   3
BRANCH   2  11
ATOM     11  C   UNL     1      75.077  90.303  70.083  1.00  0.00     0.001 C 
ATOM     12  C   UNL     1      75.817  90.779  71.097  1.00  0.00     0.008 C 
BRANCH  12  13
ATOM     13  C   UNL     1      76.074  92.206  71.357  1.00  0.00    -0.022 A 
ATOM     14  C   UNL     1      77.100  92.561  72.222  1.00  0.00     0.058 A 
ATOM     15  C   UNL     1      75.276  93.164  70.726  1.00  0.00     0.012 A 
ATOM     16  C   UNL     1      77.302  93.910  72.433  1.00  0.00     0.166 A 
ATOM     17  C   UNL     1      75.502  94.522  70.959  1.00  0.00     0.051 A 
ATOM     18  O   UNL     1      78.251  94.457  73.241  1.00  0.00    -0.454 OA
ATOM     19  C   UNL     1      76.525  94.864  71.819  1.00  0.00     0.165 A 
ATOM     20  C   UNL     1      77.983  95.863  73.066  1.00  0.00     0.468 C 
ATOM     21  O   UNL     1      76.889  96.129  72.165  1.00  0.00    -0.454 OA
ENDBRANCH  12  13
ENDBRANCH   2  11
TORSDOF 3
ENDMDL
MODEL 8
REMARK VINA RESULT:    -6.327     25.726     26.798
REMARK INTER + INTRA:          -7.826
REMARK INTER:                  -7.479
REMARK INTRA:                  -0.348
REMARK UNBOUND:                -0.390
REMARK SMILES O=C(/C=C/C=C/c1ccc2c(c1)OCO2)N1CCCCC1
REMARK SMILES IDX 3 1 4 2 2 3 1 4 16 5 17 6 21 7 18 8 20 9 19 10 5 11 6 12
REMARK SMILES IDX 7 13 12 14 8 15 11 16 9 17 13 18 10 19 14 20 15 21
REMARK H PARENT
REMARK Flexibility Score: inf
ROOT
ATOM      1  C   UNL     1      75.523  85.162  68.434  1.00  0.00     0.071 C 
ATOM      2  C   UNL     1      76.022  85.499  69.621  1.00  0.00     0.006 C 
ENDROOT
BRANCH   1   3
ATOM      3  C   UNL     1      76.175  84.065  67.691  1.00  0.00     0.246 C 
ATOM      4  O   UNL     1      77.328  83.770  68.008  1.00  0.00    -0.270 OA
ATOM      5  N   UNL     1      75.446  83.441  66.680  1.00  0.00    -0.339 N 
ATOM      6  C   UNL     1      76.069  82.352  65.922  1.00  0.00     0.120 C 
ATOM      7  C   UNL     1      74.087  83.795  66.244  1.00  0.00     0.120 C 
ATOM      8  C   UNL     1      75.192  81.105  65.915  1.00  0.00     0.022 C 
ATOM      9  C   UNL     1      73.176  82.568  66.221  1.00  0.00     0.022 C 
ATOM     10  C   UNL     1      73.788  81.426  65.413  1.00  0.00     0.004 C 
ENDBRANCH   1   3
BRANCH   2  11
ATOM     11  C   UNL     1      75.452  86.560  70.423  1.00  0.00     0.001 C 
ATOM     12  C   UNL     1      75.513  87.853  70.066  1.00  0.00     0.008 C 
BRANCH  12  13
ATOM     13  C   UNL     1      74.958  88.972  70.846  1.00  0.00    -0.022 A 
ATOM     14  C   UNL     1      73.802  88.770  71.588  1.00  0.00     0.058 A 
ATOM     15  C   UNL     1      75.611  90.207  70.818  1.00  0.00     0.012 A 
ATOM     16  C   UNL     1      73.321  89.848  72.303  1.00  0.00     0.166 A 
ATOM     17  C   UNL     1      75.102  91.281  71.551  1.00  0.00     0.051 A 
ATOM     18  O   UNL     1      72.207  89.853  73.086  1.00  0.00    -0.454 OA
ATOM     19  C   UNL     1      73.953  91.070  72.285  1.00  0.00     0.165 A 
ATOM     20  C   UNL     1      72.210  91.216  73.559  1.00  0.00     0.468 C 
ATOM     21  O   UNL     1      73.315  91.994  73.055  1.00  0.00    -0.454 OA
ENDBRANCH  12  13
ENDBRANCH   2  11
TORSDOF 3
ENDMDL
MODEL 9
REMARK VINA RESULT:    -6.296      1.719      2.631
REMARK INTER + INTRA:          -7.789
REMARK INTER:                  -7.481
REMARK INTRA:                  -0.309
REMARK UNBOUND:                -0.390
REMARK SMILES O=C(/C=C/C=C/c1ccc2c(c1)OCO2)N1CCCCC1
REMARK SMILES IDX 3 1 4 2 2 3 1 4 16 5 17 6 21 7 18 8 20 9 19 10 5 11 6 12
REMARK SMILES IDX 7 13 12 14 8 15 11 16 9 17 13 18 10 19 14 20 15 21
REMARK H PARENT
REMARK Flexibility Score: inf
ROOT
ATOM      1  C   UNL     1      98.217  82.750  83.151  1.00  0.00     0.071 C 
ATOM      2  C   UNL     1      97.579  82.408  84.269  1.00  0.00     0.006 C 
ENDROOT
BRANCH   1   3
ATOM      3  C   UNL     1      98.752  81.670  82.299  1.00  0.00     0.246 C 
ATOM      4  O   UNL     1      99.008  80.593  82.839  1.00  0.00    -0.270 OA
ATOM      5  N   UNL     1      98.937  81.942  80.944  1.00  0.00    -0.339 N 
ATOM      6  C   UNL     1      99.472  80.891  80.074  1.00  0.00     0.120 C 
ATOM      7  C   UNL     1      98.685  83.227  80.274  1.00  0.00     0.120 C 
ATOM      8  C   UNL     1      98.581  80.668  78.856  1.00  0.00     0.022 C 
ATOM      9  C   UNL     1      97.797  83.044  79.044  1.00  0.00     0.022 C 
ATOM     10  C   UNL     1      98.346  81.975  78.105  1.00  0.00     0.004 C 
ENDBRANCH   1   3
BRANCH   2  11
ATOM     11  C   UNL     1      97.020  83.394  85.169  1.00  0.00     0.001 C 
ATOM     12  C   UNL     1      96.199  83.072  86.181  1.00  0.00     0.008 C 
BRANCH  12  13
ATOM     13  C   UNL     1      95.597  84.034  87.119  1.00  0.00    -0.022 A 
ATOM     14  C   UNL     1      96.396  85.020  87.681  1.00  0.00     0.058 A 
ATOM     15  C   UNL     1      94.236  83.928  87.418  1.00  0.00     0.012 A 
ATOM     16  C   UNL     1      95.787  85.898  88.554  1.00  0.00     0.166 A 
ATOM     17  C   UNL     1      93.645  84.831  88.305  1.00  0.00     0.051 A 
ATOM     18  O   UNL     1      96.395  86.927  89.205  1.00  0.00    -0.454 OA
ATOM     19  C   UNL     1      94.448  85.807  88.857  1.00  0.00     0.165 A 
ATOM     20  C   UNL     1      95.289  87.472  89.953  1.00  0.00     0.468 C 
ATOM     21  O   UNL     1      94.050  86.766  89.737  1.00  0.00    -0.454 OA
ENDBRANCH  12  13
ENDBRANCH   2  11
TORSDOF 3
ENDMDL
MODEL 10
REMARK VINA RESULT:    -6.236     34.811     35.970
REMARK INTER + INTRA:          -7.719
REMARK INTER:                  -7.317
REMARK INTRA:                  -0.402
REMARK UNBOUND:                -0.390
REMARK SMILES O=C(/C=C/C=C/c1ccc2c(c1)OCO2)N1CCCCC1
REMARK SMILES IDX 3 1 4 2 2 3 1 4 16 5 17 6 21 7 18 8 20 9 19 10 5 11 6 12
REMARK SMILES IDX 7 13 12 14 8 15 11 16 9 17 13 18 10 19 14 20 15 21
REMARK H PARENT
REMARK Flexibility Score: inf
ROOT
ATOM      1  C   UNL     1      62.467  84.245  73.567  1.00  0.00     0.071 C 
ATOM      2  C   UNL     1      62.178  83.295  74.454  1.00  0.00     0.006 C 
ENDROOT
BRANCH   1   3
ATOM      3  C   UNL     1      62.072  84.025  72.161  1.00  0.00     0.246 C 
ATOM      4  O   UNL     1      62.634  83.118  71.547  1.00  0.00    -0.270 OA
ATOM      5  N   UNL     1      61.095  84.861  71.623  1.00  0.00    -0.339 N 
ATOM      6  C   UNL     1      60.686  84.671  70.228  1.00  0.00     0.120 C 
ATOM      7  C   UNL     1      60.435  85.982  72.309  1.00  0.00     0.120 C 
ATOM      8  C   UNL     1      59.173  84.527  70.106  1.00  0.00     0.022 C 
ATOM      9  C   UNL     1      58.913  85.875  72.206  1.00  0.00     0.022 C 
ATOM     10  C   UNL     1      58.457  85.704  70.760  1.00  0.00     0.004 C 
ENDBRANCH   1   3
BRANCH   2  11
ATOM     11  C   UNL     1      62.525  83.419  75.854  1.00  0.00     0.001 C 
ATOM     12  C   UNL     1      63.733  83.833  76.269  1.00  0.00     0.008 C 
BRANCH  12  13
ATOM     13  C   UNL     1      64.141  83.969  77.678  1.00  0.00    -0.022 A 
ATOM     14  C   UNL     1      63.164  84.109  78.654  1.00  0.00     0.058 A 
ATOM     15  C   UNL     1      65.502  83.954  77.994  1.00  0.00     0.012 A 
ATOM     16  C   UNL     1      63.595  84.233  79.959  1.00  0.00     0.166 A 
ATOM     17  C   UNL     1      65.911  84.081  79.323  1.00  0.00     0.051 A 
ATOM     18  O   UNL     1      62.798  84.380  81.052  1.00  0.00    -0.454 OA
ATOM     19  C   UNL     1      64.932  84.220  80.285  1.00  0.00     0.165 A 
ATOM     20  C   UNL     1      63.783  84.458  82.102  1.00  0.00     0.468 C 
ATOM     21  O   UNL     1      65.139  84.357  81.623  1.00  0.00    -0.454 OA
ENDBRANCH  12  13
ENDBRANCH   2  11
TORSDOF 3
ENDMDL
