MODEL 1
REMARK VINA RESULT:    -6.995      0.000      0.000
REMARK INTER + INTRA:         -12.345
REMARK INTER:                 -11.902
REMARK INTRA:                  -0.444
REMARK UNBOUND:                -0.444
REMARK SMILES C=C(C)[C@]12C[C@@H](C)[C@@]34O[C@](Cc5ccccc5)(O[C@@H]1[C@@H]3C=C(COC(=O)Cc1ccc(O)cc1)C[C@]1(O)C(=O)C(C)=C[C@@H]41)O2
REMARK SMILES IDX 23 1 22 2 21 3 20 4 9 5 8 6 10 7 6 8 18 10 44 11 19 12 5 13
REMARK SMILES IDX 7 14 4 15 11 16 12 17 13 18 17 19 14 20 16 21 15 22 2 23
REMARK SMILES IDX 3 24 1 25 35 26 36 27 43 28 38 29 42 30 39 32 40 33 41 34
REMARK SMILES IDX 37 35 24 37 25 38 26 39 27 40 28 41 29 42 34 43 30 44 33 45
REMARK SMILES IDX 31 46 32 47
REMARK H PARENT 37 36 32 48
REMARK Flexibility Score: 90.00
ROOT
ATOM      1  C   UNL     1      57.450  86.355  72.993  1.00  0.00     0.264 C 
ENDROOT
BRANCH   1   2
ATOM      2  C   UNL     1      58.695  85.993  73.769  1.00  0.00    -0.033 C 
ATOM      3  C   UNL     1      59.555  85.091  73.252  1.00  0.00    -0.015 C 
BRANCH   3   4
ATOM      4  C   UNL     1      60.821  84.507  73.858  1.00  0.00     0.078 C 
ATOM      5  O   UNL     1      62.700  85.934  73.114  1.00  0.00    -0.319 OA
ATOM      6  C   UNL     1      61.964  85.494  74.298  1.00  0.00     0.095 CG0
ATOM      7  C   UNL     1      62.991  84.901  72.153  1.00  0.00     0.289 C 
ATOM      8  C   UNL     1      62.942  84.698  75.257  1.00  0.00     0.023 C 
ATOM      9  G   UNL     1      61.366  86.803  74.891  1.00  0.00     0.000 G0
ATOM     10  O   UNL     1      61.800  84.264  71.700  1.00  0.00    -0.320 OA
ATOM     11  O   UNL     1      63.799  83.862  72.701  1.00  0.00    -0.313 OA
ATOM     12  C   UNL     1      61.462  83.502  72.870  1.00  0.00     0.170 C 
ATOM     13  C   UNL     1      63.039  83.194  74.855  1.00  0.00     0.049 C 
ATOM     14  C   UNL     1      64.359  85.282  75.389  1.00  0.00     0.011 C 
ATOM     15  C   UNL     1      62.845  82.997  73.351  1.00  0.00     0.122 C 
BRANCH   7  16
ATOM     16  C   UNL     1      63.712  85.535  70.980  1.00  0.00     0.135 C 
BRANCH  16  17
ATOM     17  C   UNL     1      65.198  85.276  71.021  1.00  0.00    -0.040 A 
ATOM     18  C   UNL     1      65.794  84.476  70.048  1.00  0.00     0.004 A 
ATOM     19  C   UNL     1      65.974  85.840  72.034  1.00  0.00     0.004 A 
ATOM     20  C   UNL     1      67.169  84.237  70.087  1.00  0.00     0.000 A 
ATOM     21  C   UNL     1      67.348  85.601  72.072  1.00  0.00     0.000 A 
ATOM     22  C   UNL     1      67.945  84.800  71.099  1.00  0.00     0.000 A 
ENDBRANCH  16  17
ENDBRANCH   7  16
BRANCH  15  23
ATOM     23  C   UNL     1      63.112  81.593  72.917  1.00  0.00    -0.046 C 
ATOM     24  C   UNL     1      63.736  81.425  71.563  1.00  0.00     0.042 C 
ATOM     25  C   UNL     1      62.811  80.541  73.693  1.00  0.00     0.010 C 
ENDBRANCH  15  23
ENDBRANCH   3   4
BRANCH   2  26
ATOM     26  C   UNL     1      58.815  86.739  75.084  1.00  0.00     0.078 C 
BRANCH  26  27
ATOM     27  C   UNL     1      60.140  86.620  75.836  1.00  0.00     0.140 C 
ATOM     28  C   UNL     1      61.357  86.809  74.907  1.00  0.00     0.086 CG0
ATOM     29  C   UNL     1      60.331  87.727  76.851  1.00  0.00     0.190 C 
ATOM     30  C   UNL     1      62.243  87.749  75.677  1.00  0.00    -0.010 C 
ATOM     31  G   UNL     1      61.965  85.511  74.301  1.00  0.00     0.000 G0
ATOM     32  O   UNL     1      59.505  88.078  77.680  1.00  0.00    -0.291 OA
ATOM     33  C   UNL     1      61.686  88.303  76.758  1.00  0.00    -0.008 C 
ATOM     34  C   UNL     1      62.222  89.316  77.690  1.00  0.00     0.048 C 
BRANCH  27  35
ATOM     35  O   UNL     1      60.191  85.435  76.613  1.00  0.00    -0.381 OA
ATOM     36  H   UNL     1      59.446  85.446  77.237  1.00  0.00     0.212 HD
ENDBRANCH  27  35
ENDBRANCH  26  27
ENDBRANCH   2  26
ENDBRANCH   1   2
BRANCH   1  37
ATOM     37  O   UNL     1      57.761  87.362  72.054  1.00  0.00    -0.461 OA
BRANCH  37  38
ATOM     38  C   UNL     1      56.953  88.475  72.066  1.00  0.00     0.310 C 
ATOM     39  O   UNL     1      56.206  88.790  72.981  1.00  0.00    -0.252 OA
BRANCH  38  40
ATOM     40  C   UNL     1      57.134  89.243  70.779  1.00  0.00     0.158 C 
BRANCH  40  41
ATOM     41  C   UNL     1      55.874  89.316  69.956  1.00  0.00    -0.037 A 
ATOM     42  C   UNL     1      55.578  88.304  69.042  1.00  0.00     0.008 A 
ATOM     43  C   UNL     1      55.003  90.394  70.107  1.00  0.00     0.008 A 
ATOM     44  C   UNL     1      54.412  88.371  68.279  1.00  0.00     0.046 A 
ATOM     45  C   UNL     1      53.836  90.462  69.345  1.00  0.00     0.046 A 
ATOM     46  C   UNL     1      53.541  89.451  68.431  1.00  0.00     0.115 A 
BRANCH  46  47
ATOM     47  O   UNL     1      52.404  89.517  67.687  1.00  0.00    -0.508 OA
ATOM     48  H   UNL     1      51.963  88.649  67.706  1.00  0.00     0.293 HD
ENDBRANCH  46  47
ENDBRANCH  40  41
ENDBRANCH  38  40
ENDBRANCH  37  38
ENDBRANCH   1  37
TORSDOF 10
ENDMDL
MODEL 2
REMARK VINA RESULT:    -6.727      3.114      7.800
REMARK INTER + INTRA:         -11.889
REMARK INTER:                  -9.889
REMARK INTRA:                  -2.000
REMARK UNBOUND:                -0.444
REMARK SMILES C=C(C)[C@]12C[C@@H](C)[C@@]34O[C@](Cc5ccccc5)(O[C@@H]1[C@@H]3C=C(COC(=O)Cc1ccc(O)cc1)C[C@]1(O)C(=O)C(C)=C[C@@H]41)O2
REMARK SMILES IDX 23 1 22 2 21 3 20 4 9 5 8 6 10 7 6 8 18 10 44 11 19 12 5 13
REMARK SMILES IDX 7 14 4 15 11 16 12 17 13 18 17 19 14 20 16 21 15 22 2 23
REMARK SMILES IDX 3 24 1 25 35 26 36 27 43 28 38 29 42 30 39 32 40 33 41 34
REMARK SMILES IDX 37 35 24 37 25 38 26 39 27 40 28 41 29 42 34 43 30 44 33 45
REMARK SMILES IDX 31 46 32 47
REMARK H PARENT 37 36 32 48
REMARK Flexibility Score: 90.00
ROOT
ATOM      1  C   UNL     1      61.774  83.516  68.809  1.00  0.00     0.264 C 
ENDROOT
BRANCH   1   2
ATOM      2  C   UNL     1      61.434  84.830  69.474  1.00  0.00    -0.033 C 
ATOM      3  C   UNL     1      60.534  84.846  70.479  1.00  0.00    -0.015 C 
BRANCH   3   4
ATOM      4  C   UNL     1      59.971  86.029  71.250  1.00  0.00     0.078 C 
ATOM      5  O   UNL     1      61.366  86.301  73.274  1.00  0.00    -0.319 OA
ATOM      6  C   UNL     1      60.971  86.959  72.030  1.00  0.00     0.095 CG0
ATOM      7  C   UNL     1      60.299  85.652  73.993  1.00  0.00     0.289 C 
ATOM      8  C   UNL     1      60.208  88.305  72.370  1.00  0.00     0.023 C 
ATOM      9  G   UNL     1      62.301  87.127  71.240  1.00  0.00     0.000 G0
ATOM     10  O   UNL     1      59.649  84.676  73.184  1.00  0.00    -0.320 OA
ATOM     11  O   UNL     1      59.279  86.566  74.390  1.00  0.00    -0.313 OA
ATOM     12  C   UNL     1      58.929  85.534  72.284  1.00  0.00     0.170 C 
ATOM     13  C   UNL     1      58.691  88.054  72.628  1.00  0.00     0.049 C 
ATOM     14  C   UNL     1      60.794  89.122  73.535  1.00  0.00     0.011 C 
ATOM     15  C   UNL     1      58.440  86.666  73.220  1.00  0.00     0.122 C 
BRANCH   7  16
ATOM     16  C   UNL     1      60.889  84.990  75.222  1.00  0.00     0.135 C 
BRANCH  16  17
ATOM     17  C   UNL     1      62.262  85.523  75.548  1.00  0.00    -0.040 A 
ATOM     18  C   UNL     1      63.387  84.724  75.344  1.00  0.00     0.004 A 
ATOM     19  C   UNL     1      62.406  86.814  76.053  1.00  0.00     0.004 A 
ATOM     20  C   UNL     1      64.657  85.217  75.646  1.00  0.00     0.000 A 
ATOM     21  C   UNL     1      63.676  87.307  76.355  1.00  0.00     0.000 A 
ATOM     22  C   UNL     1      64.801  86.509  76.151  1.00  0.00     0.000 A 
ENDBRANCH  16  17
ENDBRANCH   7  16
BRANCH  15  23
ATOM     23  C   UNL     1      57.020  86.471  73.643  1.00  0.00    -0.046 C 
ATOM     24  C   UNL     1      56.545  87.325  74.781  1.00  0.00     0.042 C 
ATOM     25  C   UNL     1      56.216  85.583  73.040  1.00  0.00     0.010 C 
ENDBRANCH  15  23
ENDBRANCH   3   4
BRANCH   2  26
ATOM     26  C   UNL     1      62.197  86.006  68.894  1.00  0.00     0.078 C 
BRANCH  26  27
ATOM     27  C   UNL     1      62.167  87.314  69.682  1.00  0.00     0.140 C 
ATOM     28  C   UNL     1      62.296  87.084  71.202  1.00  0.00     0.086 CG0
ATOM     29  C   UNL     1      63.359  88.198  69.385  1.00  0.00     0.190 C 
ATOM     30  C   UNL     1      63.313  88.107  71.626  1.00  0.00    -0.010 C 
ATOM     31  G   UNL     1      60.961  86.962  71.993  1.00  0.00     0.000 G0
ATOM     32  O   UNL     1      63.766  88.487  68.269  1.00  0.00    -0.291 OA
ATOM     33  C   UNL     1      63.948  88.729  70.628  1.00  0.00    -0.008 C 
ATOM     34  C   UNL     1      65.047  89.716  70.670  1.00  0.00     0.048 C 
BRANCH  27  35
ATOM     35  O   UNL     1      61.054  88.113  69.316  1.00  0.00    -0.381 OA
ATOM     36  H   UNL     1      60.430  88.130  70.062  1.00  0.00     0.212 HD
ENDBRANCH  27  35
ENDBRANCH  26  27
ENDBRANCH   2  26
ENDBRANCH   1   2
BRANCH   1  37
ATOM     37  O   UNL     1      63.161  83.279  68.926  1.00  0.00    -0.461 OA
BRANCH  37  38
ATOM     38  C   UNL     1      63.545  81.963  69.043  1.00  0.00     0.310 C 
ATOM     39  O   UNL     1      63.200  81.062  68.291  1.00  0.00    -0.252 OA
BRANCH  38  40
ATOM     40  C   UNL     1      64.454  81.807  70.238  1.00  0.00     0.158 C 
BRANCH  40  41
ATOM     41  C   UNL     1      65.094  83.103  70.663  1.00  0.00    -0.037 A 
ATOM     42  C   UNL     1      64.506  83.877  71.664  1.00  0.00     0.008 A 
ATOM     43  C   UNL     1      66.274  83.530  70.055  1.00  0.00     0.008 A 
ATOM     44  C   UNL     1      65.098  85.077  72.056  1.00  0.00     0.046 A 
ATOM     45  C   UNL     1      66.867  84.731  70.448  1.00  0.00     0.046 A 
ATOM     46  C   UNL     1      66.279  85.504  71.448  1.00  0.00     0.115 A 
BRANCH  46  47
ATOM     47  O   UNL     1      66.856  86.675  71.830  1.00  0.00    -0.508 OA
ATOM     48  H   UNL     1      66.537  86.909  72.719  1.00  0.00     0.293 HD
ENDBRANCH  46  47
ENDBRANCH  40  41
ENDBRANCH  38  40
ENDBRANCH  37  38
ENDBRANCH   1  37
TORSDOF 10
ENDMDL
MODEL 3
REMARK VINA RESULT:    -6.681     36.713     39.707
REMARK INTER + INTRA:         -11.811
REMARK INTER:                  -9.600
REMARK INTRA:                  -2.211
REMARK UNBOUND:                -0.444
REMARK SMILES C=C(C)[C@]12C[C@@H](C)[C@@]34O[C@](Cc5ccccc5)(O[C@@H]1[C@@H]3C=C(COC(=O)Cc1ccc(O)cc1)C[C@]1(O)C(=O)C(C)=C[C@@H]41)O2
REMARK SMILES IDX 23 1 22 2 21 3 20 4 9 5 8 6 10 7 6 8 18 10 44 11 19 12 5 13
REMARK SMILES IDX 7 14 4 15 11 16 12 17 13 18 17 19 14 20 16 21 15 22 2 23
REMARK SMILES IDX 3 24 1 25 35 26 36 27 43 28 38 29 42 30 39 32 40 33 41 34
REMARK SMILES IDX 37 35 24 37 25 38 26 39 27 40 28 41 29 42 34 43 30 44 33 45
REMARK SMILES IDX 31 46 32 47
REMARK H PARENT 37 36 32 48
REMARK Flexibility Score: 90.00
ROOT
ATOM      1  C   UNL     1      99.129  79.976  79.634  1.00  0.00     0.264 C 
ENDROOT
BRANCH   1   2
ATOM      2  C   UNL     1      99.765  79.166  78.528  1.00  0.00    -0.033 C 
ATOM      3  C   UNL     1      98.975  78.521  77.644  1.00  0.00    -0.015 C 
BRANCH   3   4
ATOM      4  C   UNL     1      99.359  77.593  76.503  1.00  0.00     0.078 C 
ATOM      5  O   UNL     1      99.572  78.993  74.476  1.00  0.00    -0.319 OA
ATOM      6  C   UNL     1     100.327  78.138  75.389  1.00  0.00     0.095 CG0
ATOM      7  C   UNL     1      98.272  78.497  74.101  1.00  0.00     0.289 C 
ATOM      8  C   UNL     1     100.891  76.890  74.592  1.00  0.00     0.023 C 
ATOM      9  G   UNL     1     101.403  79.080  76.003  1.00  0.00     0.000 G0
ATOM     10  O   UNL     1      97.454  78.271  75.245  1.00  0.00    -0.320 OA
ATOM     11  O   UNL     1      98.345  77.243  73.426  1.00  0.00    -0.313 OA
ATOM     12  C   UNL     1      98.085  77.096  75.777  1.00  0.00     0.170 C 
ATOM     13  C   UNL     1      99.840  75.741  74.509  1.00  0.00     0.049 C 
ATOM     14  C   UNL     1     101.427  77.193  73.182  1.00  0.00     0.011 C 
ATOM     15  C   UNL     1      98.409  76.282  74.501  1.00  0.00     0.122 C 
BRANCH   7  16
ATOM     16  C   UNL     1      97.617  79.520  73.194  1.00  0.00     0.135 C 
BRANCH  16  17
ATOM     17  C   UNL     1      98.449  79.807  71.970  1.00  0.00    -0.040 A 
ATOM     18  C   UNL     1      99.293  80.917  71.944  1.00  0.00     0.004 A 
ATOM     19  C   UNL     1      98.374  78.962  70.863  1.00  0.00     0.004 A 
ATOM     20  C   UNL     1     100.063  81.183  70.811  1.00  0.00     0.000 A 
ATOM     21  C   UNL     1      99.144  79.227  69.730  1.00  0.00     0.000 A 
ATOM     22  C   UNL     1      99.988  80.337  69.704  1.00  0.00     0.000 A 
ENDBRANCH  16  17
ENDBRANCH   7  16
BRANCH  15  23
ATOM     23  C   UNL     1      97.394  75.217  74.241  1.00  0.00    -0.046 C 
ATOM     24  C   UNL     1      97.155  74.245  75.357  1.00  0.00     0.042 C 
ATOM     25  C   UNL     1      96.735  75.135  73.076  1.00  0.00     0.010 C 
ENDBRANCH  15  23
ENDBRANCH   3   4
BRANCH   2  26
ATOM     26  C   UNL     1     101.282  79.198  78.562  1.00  0.00     0.078 C 
BRANCH  26  27
ATOM     27  C   UNL     1     102.020  78.607  77.363  1.00  0.00     0.140 C 
ATOM     28  C   UNL     1     101.411  79.063  76.020  1.00  0.00     0.086 CG0
ATOM     29  C   UNL     1     103.446  79.104  77.257  1.00  0.00     0.190 C 
ATOM     30  C   UNL     1     102.613  79.447  75.203  1.00  0.00    -0.010 C 
ATOM     31  G   UNL     1     100.336  78.123  75.401  1.00  0.00     0.000 G0
ATOM     32  O   UNL     1     104.257  79.128  78.172  1.00  0.00    -0.291 OA
ATOM     33  C   UNL     1     103.767  79.507  75.875  1.00  0.00    -0.008 C 
ATOM     34  C   UNL     1     105.111  79.922  75.423  1.00  0.00     0.048 C 
BRANCH  27  35
ATOM     35  O   UNL     1     102.159  77.201  77.480  1.00  0.00    -0.381 OA
ATOM     36  H   UNL     1     101.449  76.870  78.056  1.00  0.00     0.212 HD
ENDBRANCH  27  35
ENDBRANCH  26  27
ENDBRANCH   2  26
ENDBRANCH   1   2
BRANCH   1  37
ATOM     37  O   UNL     1      97.761  80.166  79.344  1.00  0.00    -0.461 OA
BRANCH  37  38
ATOM     38  C   UNL     1      97.413  81.395  78.831  1.00  0.00     0.310 C 
ATOM     39  O   UNL     1      97.719  82.472  79.322  1.00  0.00    -0.252 OA
BRANCH  38  40
ATOM     40  C   UNL     1      96.600  81.203  77.574  1.00  0.00     0.158 C 
BRANCH  40  41
ATOM     41  C   UNL     1      97.177  81.928  76.385  1.00  0.00    -0.037 A 
ATOM     42  C   UNL     1      98.544  81.851  76.118  1.00  0.00     0.008 A 
ATOM     43  C   UNL     1      96.345  82.675  75.552  1.00  0.00     0.008 A 
ATOM     44  C   UNL     1      99.079  82.523  75.018  1.00  0.00     0.046 A 
ATOM     45  C   UNL     1      96.879  83.346  74.451  1.00  0.00     0.046 A 
ATOM     46  C   UNL     1      98.246  83.270  74.184  1.00  0.00     0.115 A 
BRANCH  46  47
ATOM     47  O   UNL     1      98.768  83.925  73.112  1.00  0.00    -0.508 OA
ATOM     48  H   UNL     1      98.040  84.210  72.532  1.00  0.00     0.293 HD
ENDBRANCH  46  47
ENDBRANCH  40  41
ENDBRANCH  38  40
ENDBRANCH  37  38
ENDBRANCH   1  37
TORSDOF 10
ENDMDL
MODEL 4
REMARK VINA RESULT:    -6.454     36.478     40.593
REMARK INTER + INTRA:         -11.424
REMARK INTER:                  -9.734
REMARK INTRA:                  -1.690
REMARK UNBOUND:                -0.444
REMARK SMILES C=C(C)[C@]12C[C@@H](C)[C@@]34O[C@](Cc5ccccc5)(O[C@@H]1[C@@H]3C=C(COC(=O)Cc1ccc(O)cc1)C[C@]1(O)C(=O)C(C)=C[C@@H]41)O2
REMARK SMILES IDX 23 1 22 2 21 3 20 4 9 5 8 6 10 7 6 8 18 10 44 11 19 12 5 13
REMARK SMILES IDX 7 14 4 15 11 16 12 17 13 18 17 19 14 20 16 21 15 22 2 23
REMARK SMILES IDX 3 24 1 25 35 26 36 27 43 28 38 29 42 30 39 32 40 33 41 34
REMARK SMILES IDX 37 35 24 37 25 38 26 39 27 40 28 41 29 42 34 43 30 44 33 45
REMARK SMILES IDX 31 46 32 47
REMARK H PARENT 37 36 32 48
REMARK Flexibility Score: 90.00
ROOT
ATOM      1  C   UNL     1     102.582  83.557  72.329  1.00  0.00     0.264 C 
ENDROOT
BRANCH   1   2
ATOM      2  C   UNL     1     102.136  82.457  73.264  1.00  0.00    -0.033 C 
ATOM      3  C   UNL     1     100.926  82.544  73.854  1.00  0.00    -0.015 C 
BRANCH   3   4
ATOM      4  C   UNL     1     100.283  81.623  74.879  1.00  0.00     0.078 C 
ATOM      5  O   UNL     1      98.914  79.991  73.622  1.00  0.00    -0.319 OA
ATOM      6  C   UNL     1     100.077  80.111  74.500  1.00  0.00     0.095 CG0
ATOM      7  C   UNL     1      97.773  80.785  74.000  1.00  0.00     0.289 C 
ATOM      8  C   UNL     1      99.803  79.314  75.842  1.00  0.00     0.023 C 
ATOM      9  G   UNL     1     101.266  79.588  73.643  1.00  0.00     0.000 G0
ATOM     10  O   UNL     1      98.107  82.168  74.075  1.00  0.00    -0.320 OA
ATOM     11  O   UNL     1      97.275  80.439  75.290  1.00  0.00    -0.313 OA
ATOM     12  C   UNL     1      98.891  82.172  75.279  1.00  0.00     0.170 C 
ATOM     13  C   UNL     1      99.029  80.185  76.877  1.00  0.00     0.049 C 
ATOM     14  C   UNL     1      99.086  77.963  75.675  1.00  0.00     0.011 C 
ATOM     15  C   UNL     1      98.109  81.196  76.191  1.00  0.00     0.122 C 
BRANCH   7  16
ATOM     16  C   UNL     1      96.685  80.576  72.965  1.00  0.00     0.135 C 
BRANCH  16  17
ATOM     17  C   UNL     1      96.900  79.315  72.166  1.00  0.00    -0.040 A 
ATOM     18  C   UNL     1      96.693  78.070  72.758  1.00  0.00     0.004 A 
ATOM     19  C   UNL     1      97.305  79.396  70.834  1.00  0.00     0.004 A 
ATOM     20  C   UNL     1      96.891  76.903  72.017  1.00  0.00     0.000 A 
ATOM     21  C   UNL     1      97.503  78.230  70.094  1.00  0.00     0.000 A 
ATOM     22  C   UNL     1      97.296  76.984  70.686  1.00  0.00     0.000 A 
ENDBRANCH  16  17
ENDBRANCH   7  16
BRANCH  15  23
ATOM     23  C   UNL     1      97.225  81.916  77.157  1.00  0.00    -0.046 C 
ATOM     24  C   UNL     1      97.749  82.056  78.556  1.00  0.00     0.042 C 
ATOM     25  C   UNL     1      96.031  82.408  76.795  1.00  0.00     0.010 C 
ENDBRANCH  15  23
ENDBRANCH   3   4
BRANCH   2  26
ATOM     26  C   UNL     1     103.160  81.348  73.411  1.00  0.00     0.078 C 
BRANCH  26  27
ATOM     27  C   UNL     1     102.704  80.063  74.100  1.00  0.00     0.140 C 
ATOM     28  C   UNL     1     101.299  79.622  73.640  1.00  0.00     0.086 CG0
ATOM     29  C   UNL     1     103.558  78.870  73.726  1.00  0.00     0.190 C 
ATOM     30  C   UNL     1     101.461  78.150  73.382  1.00  0.00    -0.010 C 
ATOM     31  G   UNL     1     100.106  80.118  74.507  1.00  0.00     0.000 G0
ATOM     32  O   UNL     1     104.779  78.842  73.738  1.00  0.00    -0.291 OA
ATOM     33  C   UNL     1     102.720  77.701  73.395  1.00  0.00    -0.008 C 
ATOM     34  C   UNL     1     103.253  76.354  73.107  1.00  0.00     0.048 C 
BRANCH  27  35
ATOM     35  O   UNL     1     102.844  80.151  75.508  1.00  0.00    -0.381 OA
ATOM     36  H   UNL     1     102.382  80.951  75.812  1.00  0.00     0.212 HD
ENDBRANCH  27  35
ENDBRANCH  26  27
ENDBRANCH   2  26
ENDBRANCH   1   2
BRANCH   1  37
ATOM     37  O   UNL     1     103.787  83.174  71.700  1.00  0.00    -0.461 OA
BRANCH  37  38
ATOM     38  C   UNL     1     103.872  83.421  70.349  1.00  0.00     0.310 C 
ATOM     39  O   UNL     1     104.910  83.633  69.738  1.00  0.00    -0.252 OA
BRANCH  38  40
ATOM     40  C   UNL     1     102.489  83.389  69.743  1.00  0.00     0.158 C 
BRANCH  40  41
ATOM     41  C   UNL     1     102.029  81.995  69.403  1.00  0.00    -0.037 A 
ATOM     42  C   UNL     1     102.808  81.185  68.575  1.00  0.00     0.008 A 
ATOM     43  C   UNL     1     100.824  81.514  69.914  1.00  0.00     0.008 A 
ATOM     44  C   UNL     1     102.381  79.895  68.259  1.00  0.00     0.046 A 
ATOM     45  C   UNL     1     100.398  80.223  69.599  1.00  0.00     0.046 A 
ATOM     46  C   UNL     1     101.175  79.414  68.772  1.00  0.00     0.115 A 
BRANCH  46  47
ATOM     47  O   UNL     1     100.759  78.156  68.463  1.00  0.00    -0.508 OA
ATOM     48  H   UNL     1     100.906  77.578  69.232  1.00  0.00     0.293 HD
ENDBRANCH  46  47
ENDBRANCH  40  41
ENDBRANCH  38  40
ENDBRANCH  37  38
ENDBRANCH   1  37
TORSDOF 10
ENDMDL
MODEL 5
REMARK VINA RESULT:    -6.410      2.641      4.482
REMARK INTER + INTRA:         -11.350
REMARK INTER:                 -10.428
REMARK INTRA:                  -0.922
REMARK UNBOUND:                -0.444
REMARK SMILES C=C(C)[C@]12C[C@@H](C)[C@@]34O[C@](Cc5ccccc5)(O[C@@H]1[C@@H]3C=C(COC(=O)Cc1ccc(O)cc1)C[C@]1(O)C(=O)C(C)=C[C@@H]41)O2
REMARK SMILES IDX 23 1 22 2 21 3 20 4 9 5 8 6 10 7 6 8 18 10 44 11 19 12 5 13
REMARK SMILES IDX 7 14 4 15 11 16 12 17 13 18 17 19 14 20 16 21 15 22 2 23
REMARK SMILES IDX 3 24 1 25 35 26 36 27 43 28 38 29 42 30 39 32 40 33 41 34
REMARK SMILES IDX 37 35 24 37 25 38 26 39 27 40 28 41 29 42 34 43 30 44 33 45
REMARK SMILES IDX 31 46 32 47
REMARK H PARENT 37 36 32 48
REMARK Flexibility Score: 90.00
ROOT
ATOM      1  C   UNL     1      58.078  87.826  72.728  1.00  0.00     0.264 C 
ENDROOT
BRANCH   1   2
ATOM      2  C   UNL     1      59.151  87.197  73.588  1.00  0.00    -0.033 C 
ATOM      3  C   UNL     1      59.688  86.018  73.214  1.00  0.00    -0.015 C 
BRANCH   3   4
ATOM      4  C   UNL     1      60.712  85.152  73.931  1.00  0.00     0.078 C 
ATOM      5  O   UNL     1      62.936  85.802  73.068  1.00  0.00    -0.319 OA
ATOM      6  C   UNL     1      62.112  85.780  74.275  1.00  0.00     0.095 CG0
ATOM      7  C   UNL     1      62.876  84.611  72.260  1.00  0.00     0.289 C 
ATOM      8  C   UNL     1      62.799  84.853  75.361  1.00  0.00     0.023 C 
ATOM      9  G   UNL     1      61.965  87.278  74.672  1.00  0.00     0.000 G0
ATOM     10  O   UNL     1      61.540  84.326  71.857  1.00  0.00    -0.320 OA
ATOM     11  O   UNL     1      63.320  83.454  72.966  1.00  0.00    -0.313 OA
ATOM     12  C   UNL     1      60.991  83.873  73.105  1.00  0.00     0.170 C 
ATOM     13  C   UNL     1      62.412  83.356  75.163  1.00  0.00     0.049 C 
ATOM     14  C   UNL     1      64.330  84.974  75.461  1.00  0.00     0.011 C 
ATOM     15  C   UNL     1      62.148  83.029  73.692  1.00  0.00     0.122 C 
BRANCH   7  16
ATOM     16  C   UNL     1      63.747  84.822  71.038  1.00  0.00     0.135 C 
BRANCH  16  17
ATOM     17  C   UNL     1      63.447  83.823  69.949  1.00  0.00    -0.040 A 
ATOM     18  C   UNL     1      62.853  84.244  68.760  1.00  0.00     0.004 A 
ATOM     19  C   UNL     1      63.763  82.477  70.132  1.00  0.00     0.004 A 
ATOM     20  C   UNL     1      62.575  83.320  67.752  1.00  0.00     0.000 A 
ATOM     21  C   UNL     1      63.485  81.552  69.124  1.00  0.00     0.000 A 
ATOM     22  C   UNL     1      62.892  81.974  67.935  1.00  0.00     0.000 A 
ENDBRANCH  16  17
ENDBRANCH   7  16
BRANCH  15  23
ATOM     23  C   UNL     1      61.953  81.567  73.455  1.00  0.00    -0.046 C 
ATOM     24  C   UNL     1      62.935  80.651  74.125  1.00  0.00     0.042 C 
ATOM     25  C   UNL     1      60.958  81.099  72.687  1.00  0.00     0.010 C 
ENDBRANCH  15  23
ENDBRANCH   3   4
BRANCH   2  26
ATOM     26  C   UNL     1      59.497  88.027  74.810  1.00  0.00     0.078 C 
BRANCH  26  27
ATOM     27  C   UNL     1      60.730  87.611  75.609  1.00  0.00     0.140 C 
ATOM     28  C   UNL     1      61.934  87.290  74.699  1.00  0.00     0.086 CG0
ATOM     29  C   UNL     1      61.267  88.733  76.473  1.00  0.00     0.190 C 
ATOM     30  C   UNL     1      63.076  88.008  75.362  1.00  0.00    -0.010 C 
ATOM     31  G   UNL     1      62.105  85.798  74.290  1.00  0.00     0.000 G0
ATOM     32  O   UNL     1      60.599  89.430  77.223  1.00  0.00    -0.291 OA
ATOM     33  C   UNL     1      62.731  88.848  76.343  1.00  0.00    -0.008 C 
ATOM     34  C   UNL     1      63.565  89.765  77.147  1.00  0.00     0.048 C 
BRANCH  27  35
ATOM     35  O   UNL     1      60.425  86.585  76.538  1.00  0.00    -0.381 OA
ATOM     36  H   UNL     1      61.238  86.083  76.719  1.00  0.00     0.212 HD
ENDBRANCH  27  35
ENDBRANCH  26  27
ENDBRANCH   2  26
ENDBRANCH   1   2
BRANCH   1  37
ATOM     37  O   UNL     1      56.822  87.651  73.348  1.00  0.00    -0.461 OA
BRANCH  37  38
ATOM     38  C   UNL     1      56.401  88.674  74.168  1.00  0.00     0.310 C 
ATOM     39  O   UNL     1      56.627  89.861  73.981  1.00  0.00    -0.252 OA
BRANCH  38  40
ATOM     40  C   UNL     1      55.622  88.102  75.327  1.00  0.00     0.158 C 
BRANCH  40  41
ATOM     41  C   UNL     1      56.305  88.310  76.654  1.00  0.00    -0.037 A 
ATOM     42  C   UNL     1      57.181  87.344  77.147  1.00  0.00     0.008 A 
ATOM     43  C   UNL     1      56.060  89.469  77.390  1.00  0.00     0.008 A 
ATOM     44  C   UNL     1      57.813  87.537  78.377  1.00  0.00     0.046 A 
ATOM     45  C   UNL     1      56.692  89.663  78.619  1.00  0.00     0.046 A 
ATOM     46  C   UNL     1      57.568  88.697  79.112  1.00  0.00     0.115 A 
BRANCH  46  47
ATOM     47  O   UNL     1      58.183  88.884  80.311  1.00  0.00    -0.508 OA
ATOM     48  H   UNL     1      59.055  89.289  80.158  1.00  0.00     0.293 HD
ENDBRANCH  46  47
ENDBRANCH  40  41
ENDBRANCH  38  40
ENDBRANCH  37  38
ENDBRANCH   1  37
TORSDOF 10
ENDMDL
MODEL 6
REMARK VINA RESULT:    -6.355     36.569     40.412
REMARK INTER + INTRA:         -11.257
REMARK INTER:                 -10.244
REMARK INTRA:                  -1.013
REMARK UNBOUND:                -0.444
REMARK SMILES C=C(C)[C@]12C[C@@H](C)[C@@]34O[C@](Cc5ccccc5)(O[C@@H]1[C@@H]3C=C(COC(=O)Cc1ccc(O)cc1)C[C@]1(O)C(=O)C(C)=C[C@@H]41)O2
REMARK SMILES IDX 23 1 22 2 21 3 20 4 9 5 8 6 10 7 6 8 18 10 44 11 19 12 5 13
REMARK SMILES IDX 7 14 4 15 11 16 12 17 13 18 17 19 14 20 16 21 15 22 2 23
REMARK SMILES IDX 3 24 1 25 35 26 36 27 43 28 38 29 42 30 39 32 40 33 41 34
REMARK SMILES IDX 37 35 24 37 25 38 26 39 27 40 28 41 29 42 34 43 30 44 33 45
REMARK SMILES IDX 31 46 32 47
REMARK H PARENT 37 36 32 48
REMARK Flexibility Score: 90.00
ROOT
ATOM      1  C   UNL     1      98.385  84.137  73.535  1.00  0.00     0.264 C 
ENDROOT
BRANCH   1   2
ATOM      2  C   UNL     1      99.730  83.540  73.190  1.00  0.00    -0.033 C 
ATOM      3  C   UNL     1     100.239  82.565  73.971  1.00  0.00    -0.015 C 
BRANCH   3   4
ATOM      4  C   UNL     1     101.584  81.863  73.886  1.00  0.00     0.078 C 
ATOM      5  O   UNL     1     101.251  79.833  72.514  1.00  0.00    -0.319 OA
ATOM      6  C   UNL     1     101.954  81.114  72.553  1.00  0.00     0.095 CG0
ATOM      7  C   UNL     1     101.237  79.100  73.754  1.00  0.00     0.289 C 
ATOM      8  C   UNL     1     103.516  80.854  72.566  1.00  0.00     0.023 C 
ATOM      9  G   UNL     1     101.416  81.889  71.315  1.00  0.00     0.000 G0
ATOM     10  O   UNL     1     100.657  79.870  74.803  1.00  0.00    -0.320 OA
ATOM     11  O   UNL     1     102.549  78.766  74.201  1.00  0.00    -0.313 OA
ATOM     12  C   UNL     1     101.709  80.823  75.026  1.00  0.00     0.170 C 
ATOM     13  C   UNL     1     104.043  80.609  74.013  1.00  0.00     0.049 C 
ATOM     14  C   UNL     1     104.006  79.721  71.647  1.00  0.00     0.011 C 
ATOM     15  C   UNL     1     102.983  79.953  74.898  1.00  0.00     0.122 C 
BRANCH   7  16
ATOM     16  C   UNL     1     100.437  77.830  73.546  1.00  0.00     0.135 C 
BRANCH  16  17
ATOM     17  C   UNL     1      99.119  78.097  72.862  1.00  0.00    -0.040 A 
ATOM     18  C   UNL     1      97.970  78.313  73.621  1.00  0.00     0.004 A 
ATOM     19  C   UNL     1      99.052  78.126  71.469  1.00  0.00     0.004 A 
ATOM     20  C   UNL     1      96.751  78.560  72.987  1.00  0.00     0.000 A 
ATOM     21  C   UNL     1      97.833  78.373  70.836  1.00  0.00     0.000 A 
ATOM     22  C   UNL     1      96.684  78.590  71.595  1.00  0.00     0.000 A 
ENDBRANCH  16  17
ENDBRANCH   7  16
BRANCH  15  23
ATOM     23  C   UNL     1     103.520  79.545  76.231  1.00  0.00    -0.046 C 
ATOM     24  C   UNL     1     105.012  79.434  76.338  1.00  0.00     0.042 C 
ATOM     25  C   UNL     1     102.715  79.291  77.273  1.00  0.00     0.010 C 
ENDBRANCH  15  23
ENDBRANCH   3   4
BRANCH   2  26
ATOM     26  C   UNL     1     100.347  84.145  71.943  1.00  0.00     0.078 C 
BRANCH  26  27
ATOM     27  C   UNL     1     101.584  83.454  71.371  1.00  0.00     0.140 C 
ATOM     28  C   UNL     1     101.422  81.921  71.314  1.00  0.00     0.086 CG0
ATOM     29  C   UNL     1     101.828  83.810  69.920  1.00  0.00     0.190 C 
ATOM     30  C   UNL     1     101.916  81.568  69.939  1.00  0.00    -0.010 C 
ATOM     31  G   UNL     1     101.956  81.129  72.543  1.00  0.00     0.000 G0
ATOM     32  O   UNL     1     101.832  84.942  69.459  1.00  0.00    -0.291 OA
ATOM     33  C   UNL     1     102.126  82.605  69.122  1.00  0.00    -0.008 C 
ATOM     34  C   UNL     1     102.525  82.631  67.700  1.00  0.00     0.048 C 
BRANCH  27  35
ATOM     35  O   UNL     1     102.766  83.881  72.027  1.00  0.00    -0.381 OA
ATOM     36  H   UNL     1     102.961  84.792  71.747  1.00  0.00     0.212 HD
ENDBRANCH  27  35
ENDBRANCH  26  27
ENDBRANCH   2  26
ENDBRANCH   1   2
BRANCH   1  37
ATOM     37  O   UNL     1      97.404  83.123  73.512  1.00  0.00    -0.461 OA
BRANCH  37  38
ATOM     38  C   UNL     1      96.703  82.929  74.680  1.00  0.00     0.310 C 
ATOM     39  O   UNL     1      96.009  83.771  75.232  1.00  0.00    -0.252 OA
BRANCH  38  40
ATOM     40  C   UNL     1      96.925  81.518  75.172  1.00  0.00     0.158 C 
BRANCH  40  41
ATOM     41  C   UNL     1      97.370  81.460  76.610  1.00  0.00    -0.037 A 
ATOM     42  C   UNL     1      98.520  80.751  76.957  1.00  0.00     0.008 A 
ATOM     43  C   UNL     1      96.632  82.116  77.596  1.00  0.00     0.008 A 
ATOM     44  C   UNL     1      98.931  80.696  78.290  1.00  0.00     0.046 A 
ATOM     45  C   UNL     1      97.043  82.062  78.928  1.00  0.00     0.046 A 
ATOM     46  C   UNL     1      98.192  81.352  79.275  1.00  0.00     0.115 A 
BRANCH  46  47
ATOM     47  O   UNL     1      98.593  81.299  80.574  1.00  0.00    -0.508 OA
ATOM     48  H   UNL     1      98.554  82.194  80.954  1.00  0.00     0.293 HD
ENDBRANCH  46  47
ENDBRANCH  40  41
ENDBRANCH  38  40
ENDBRANCH  37  38
ENDBRANCH   1  37
TORSDOF 10
ENDMDL
MODEL 7
REMARK VINA RESULT:    -6.217      2.855      7.389
REMARK INTER + INTRA:         -11.021
REMARK INTER:                  -9.040
REMARK INTRA:                  -1.981
REMARK UNBOUND:                -0.444
REMARK SMILES C=C(C)[C@]12C[C@@H](C)[C@@]34O[C@](Cc5ccccc5)(O[C@@H]1[C@@H]3C=C(COC(=O)Cc1ccc(O)cc1)C[C@]1(O)C(=O)C(C)=C[C@@H]41)O2
REMARK SMILES IDX 23 1 22 2 21 3 20 4 9 5 8 6 10 7 6 8 18 10 44 11 19 12 5 13
REMARK SMILES IDX 7 14 4 15 11 16 12 17 13 18 17 19 14 20 16 21 15 22 2 23
REMARK SMILES IDX 3 24 1 25 35 26 36 27 43 28 38 29 42 30 39 32 40 33 41 34
REMARK SMILES IDX 37 35 24 37 25 38 26 39 27 40 28 41 29 42 34 43 30 44 33 45
REMARK SMILES IDX 31 46 32 47
REMARK H PARENT 37 36 32 48
REMARK Flexibility Score: 90.00
ROOT
ATOM      1  C   UNL     1      63.239  88.393  69.895  1.00  0.00     0.264 C 
ENDROOT
BRANCH   1   2
ATOM      2  C   UNL     1      63.298  87.520  71.127  1.00  0.00    -0.033 C 
ATOM      3  C   UNL     1      62.649  87.911  72.244  1.00  0.00    -0.015 C 
BRANCH   3   4
ATOM      4  C   UNL     1      62.614  87.260  73.617  1.00  0.00     0.078 C 
ATOM      5  O   UNL     1      60.655  85.752  73.651  1.00  0.00    -0.319 OA
ATOM      6  C   UNL     1      62.114  85.773  73.729  1.00  0.00     0.095 CG0
ATOM      7  C   UNL     1      59.983  86.780  74.404  1.00  0.00     0.289 C 
ATOM      8  C   UNL     1      62.571  85.218  75.140  1.00  0.00     0.023 C 
ATOM      9  G   UNL     1      62.581  84.939  72.500  1.00  0.00     0.000 G0
ATOM     10  O   UNL     1      60.410  88.078  74.002  1.00  0.00    -0.320 OA
ATOM     11  O   UNL     1      60.260  86.698  75.800  1.00  0.00    -0.313 OA
ATOM     12  C   UNL     1      61.728  88.097  74.573  1.00  0.00     0.170 C 
ATOM     13  C   UNL     1      62.575  86.341  76.223  1.00  0.00     0.049 C 
ATOM     14  C   UNL     1      61.778  84.008  75.664  1.00  0.00     0.011 C 
ATOM     15  C   UNL     1      61.511  87.403  75.940  1.00  0.00     0.122 C 
BRANCH   7  16
ATOM     16  C   UNL     1      58.492  86.637  74.176  1.00  0.00     0.135 C 
BRANCH  16  17
ATOM     17  C   UNL     1      58.169  86.261  72.751  1.00  0.00    -0.040 A 
ATOM     18  C   UNL     1      57.614  85.014  72.467  1.00  0.00     0.004 A 
ATOM     19  C   UNL     1      58.427  87.162  71.719  1.00  0.00     0.004 A 
ATOM     20  C   UNL     1      57.315  84.667  71.149  1.00  0.00     0.000 A 
ATOM     21  C   UNL     1      58.129  86.815  70.400  1.00  0.00     0.000 A 
ATOM     22  C   UNL     1      57.573  85.568  70.116  1.00  0.00     0.000 A 
ENDBRANCH  16  17
ENDBRANCH   7  16
BRANCH  15  23
ATOM     23  C   UNL     1      61.373  88.388  77.054  1.00  0.00    -0.046 C 
ATOM     24  C   UNL     1      62.006  89.730  76.834  1.00  0.00     0.042 C 
ATOM     25  C   UNL     1      60.722  88.090  78.188  1.00  0.00     0.010 C 
ENDBRANCH  15  23
ENDBRANCH   3   4
BRANCH   2  26
ATOM     26  C   UNL     1      64.113  86.257  70.923  1.00  0.00     0.078 C 
BRANCH  26  27
ATOM     27  C   UNL     1      64.034  85.192  72.016  1.00  0.00     0.140 C 
ATOM     28  C   UNL     1      62.588  84.953  72.495  1.00  0.00     0.086 CG0
ATOM     29  C   UNL     1      64.443  83.821  71.520  1.00  0.00     0.190 C 
ATOM     30  C   UNL     1      62.473  83.454  72.528  1.00  0.00    -0.010 C 
ATOM     31  G   UNL     1      62.130  85.781  73.731  1.00  0.00     0.000 G0
ATOM     32  O   UNL     1      65.453  83.572  70.879  1.00  0.00    -0.291 OA
ATOM     33  C   UNL     1      63.485  82.790  71.962  1.00  0.00    -0.008 C 
ATOM     34  C   UNL     1      63.667  81.341  71.743  1.00  0.00     0.048 C 
BRANCH  27  35
ATOM     35  O   UNL     1      64.949  85.458  73.066  1.00  0.00    -0.381 OA
ATOM     36  H   UNL     1      64.443  85.617  73.880  1.00  0.00     0.212 HD
ENDBRANCH  27  35
ENDBRANCH  26  27
ENDBRANCH   2  26
ENDBRANCH   1   2
BRANCH   1  37
ATOM     37  O   UNL     1      63.928  87.758  68.840  1.00  0.00    -0.461 OA
BRANCH  37  38
ATOM     38  C   UNL     1      63.173  87.408  67.744  1.00  0.00     0.310 C 
ATOM     39  O   UNL     1      62.167  87.994  67.369  1.00  0.00    -0.252 OA
BRANCH  38  40
ATOM     40  C   UNL     1      63.779  86.195  67.081  1.00  0.00     0.158 C 
BRANCH  40  41
ATOM     41  C   UNL     1      63.260  84.897  67.643  1.00  0.00    -0.037 A 
ATOM     42  C   UNL     1      64.007  83.727  67.501  1.00  0.00     0.008 A 
ATOM     43  C   UNL     1      62.033  84.864  68.304  1.00  0.00     0.008 A 
ATOM     44  C   UNL     1      63.526  82.525  68.021  1.00  0.00     0.046 A 
ATOM     45  C   UNL     1      61.552  83.662  68.825  1.00  0.00     0.046 A 
ATOM     46  C   UNL     1      62.298  82.493  68.683  1.00  0.00     0.115 A 
BRANCH  46  47
ATOM     47  O   UNL     1      61.829  81.320  69.189  1.00  0.00    -0.508 OA
ATOM     48  H   UNL     1      61.556  80.745  68.453  1.00  0.00     0.293 HD
ENDBRANCH  46  47
ENDBRANCH  40  41
ENDBRANCH  38  40
ENDBRANCH  37  38
ENDBRANCH   1  37
TORSDOF 10
ENDMDL
MODEL 8
REMARK VINA RESULT:    -6.169      2.448      4.238
REMARK INTER + INTRA:         -10.940
REMARK INTER:                  -9.826
REMARK INTRA:                  -1.114
REMARK UNBOUND:                -0.444
REMARK SMILES C=C(C)[C@]12C[C@@H](C)[C@@]34O[C@](Cc5ccccc5)(O[C@@H]1[C@@H]3C=C(COC(=O)Cc1ccc(O)cc1)C[C@]1(O)C(=O)C(C)=C[C@@H]41)O2
REMARK SMILES IDX 23 1 22 2 21 3 20 4 9 5 8 6 10 7 6 8 18 10 44 11 19 12 5 13
REMARK SMILES IDX 7 14 4 15 11 16 12 17 13 18 17 19 14 20 16 21 15 22 2 23
REMARK SMILES IDX 3 24 1 25 35 26 36 27 43 28 38 29 42 30 39 32 40 33 41 34
REMARK SMILES IDX 37 35 24 37 25 38 26 39 27 40 28 41 29 42 34 43 30 44 33 45
REMARK SMILES IDX 31 46 32 47
REMARK H PARENT 37 36 32 48
REMARK Flexibility Score: 90.00
ROOT
ATOM      1  C   UNL     1      58.388  87.955  72.845  1.00  0.00     0.264 C 
ENDROOT
BRANCH   1   2
ATOM      2  C   UNL     1      59.540  87.315  73.584  1.00  0.00    -0.033 C 
ATOM      3  C   UNL     1      60.165  86.252  73.037  1.00  0.00    -0.015 C 
BRANCH   3   4
ATOM      4  C   UNL     1      61.284  85.393  73.605  1.00  0.00     0.078 C 
ATOM      5  O   UNL     1      63.414  86.379  72.826  1.00  0.00    -0.319 OA
ATOM      6  C   UNL     1      62.627  86.096  74.025  1.00  0.00     0.095 CG0
ATOM      7  C   UNL     1      63.447  85.322  71.848  1.00  0.00     0.289 C 
ATOM      8  C   UNL     1      63.426  85.088  74.950  1.00  0.00     0.023 C 
ATOM      9  G   UNL     1      62.348  87.496  74.645  1.00  0.00     0.000 G0
ATOM     10  O   UNL     1      62.134  84.972  71.420  1.00  0.00    -0.320 OA
ATOM     11  O   UNL     1      64.017  84.122  72.365  1.00  0.00    -0.313 OA
ATOM     12  C   UNL     1      61.663  84.286  72.590  1.00  0.00     0.170 C 
ATOM     13  C   UNL     1      63.178  83.607  74.531  1.00  0.00     0.049 C 
ATOM     14  C   UNL     1      64.940  85.342  75.051  1.00  0.00     0.011 C 
ATOM     15  C   UNL     1      62.909  83.480  73.031  1.00  0.00     0.122 C 
BRANCH   7  16
ATOM     16  C   UNL     1      64.263  85.798  70.662  1.00  0.00     0.135 C 
BRANCH  16  17
ATOM     17  C   UNL     1      65.735  85.517  70.838  1.00  0.00    -0.040 A 
ATOM     18  C   UNL     1      66.465  86.203  71.808  1.00  0.00     0.004 A 
ATOM     19  C   UNL     1      66.364  84.570  70.031  1.00  0.00     0.004 A 
ATOM     20  C   UNL     1      67.826  85.942  71.971  1.00  0.00     0.000 A 
ATOM     21  C   UNL     1      67.725  84.309  70.194  1.00  0.00     0.000 A 
ATOM     22  C   UNL     1      68.455  84.995  71.164  1.00  0.00     0.000 A 
ENDBRANCH  16  17
ENDBRANCH   7  16
BRANCH  15  23
ATOM     23  C   UNL     1      62.848  82.058  72.577  1.00  0.00    -0.046 C 
ATOM     24  C   UNL     1      62.733  81.023  73.657  1.00  0.00     0.042 C 
ATOM     25  C   UNL     1      62.893  81.725  71.279  1.00  0.00     0.010 C 
ENDBRANCH  15  23
ENDBRANCH   3   4
BRANCH   2  26
ATOM     26  C   UNL     1      59.853  87.996  74.903  1.00  0.00     0.078 C 
BRANCH  26  27
ATOM     27  C   UNL     1      61.130  87.568  75.624  1.00  0.00     0.140 C 
ATOM     28  C   UNL     1      62.340  87.488  74.670  1.00  0.00     0.086 CG0
ATOM     29  C   UNL     1      61.588  88.586  76.646  1.00  0.00     0.190 C 
ATOM     30  C   UNL     1      63.431  88.190  75.430  1.00  0.00    -0.010 C 
ATOM     31  G   UNL     1      62.624  86.095  74.038  1.00  0.00     0.000 G0
ATOM     32  O   UNL     1      60.879  89.104  77.497  1.00  0.00    -0.291 OA
ATOM     33  C   UNL     1      63.036  88.840  76.529  1.00  0.00    -0.008 C 
ATOM     34  C   UNL     1      63.807  89.690  77.459  1.00  0.00     0.048 C 
BRANCH  27  35
ATOM     35  O   UNL     1      60.924  86.391  76.387  1.00  0.00    -0.381 OA
ATOM     36  H   UNL     1      61.792  86.025  76.627  1.00  0.00     0.212 HD
ENDBRANCH  27  35
ENDBRANCH  26  27
ENDBRANCH   2  26
ENDBRANCH   1   2
BRANCH   1  37
ATOM     37  O   UNL     1      57.200  87.775  73.586  1.00  0.00    -0.461 OA
BRANCH  37  38
ATOM     38  C   UNL     1      56.600  88.919  74.060  1.00  0.00     0.310 C 
ATOM     39  O   UNL     1      56.760  90.040  73.597  1.00  0.00    -0.252 OA
BRANCH  38  40
ATOM     40  C   UNL     1      55.719  88.575  75.237  1.00  0.00     0.158 C 
BRANCH  40  41
ATOM     41  C   UNL     1      56.486  88.438  76.526  1.00  0.00    -0.037 A 
ATOM     42  C   UNL     1      56.623  89.536  77.376  1.00  0.00     0.008 A 
ATOM     43  C   UNL     1      57.061  87.215  76.870  1.00  0.00     0.008 A 
ATOM     44  C   UNL     1      57.334  89.410  78.570  1.00  0.00     0.046 A 
ATOM     45  C   UNL     1      57.773  87.089  78.063  1.00  0.00     0.046 A 
ATOM     46  C   UNL     1      57.909  88.186  78.913  1.00  0.00     0.115 A 
BRANCH  46  47
ATOM     47  O   UNL     1      58.604  88.063  80.077  1.00  0.00    -0.508 OA
ATOM     48  H   UNL     1      58.907  88.944  80.358  1.00  0.00     0.293 HD
ENDBRANCH  46  47
ENDBRANCH  40  41
ENDBRANCH  38  40
ENDBRANCH  37  38
ENDBRANCH   1  37
TORSDOF 10
ENDMDL
MODEL 9
REMARK VINA RESULT:    -6.135      2.666      5.094
REMARK INTER + INTRA:         -10.882
REMARK INTER:                  -8.963
REMARK INTRA:                  -1.919
REMARK UNBOUND:                -0.444
REMARK SMILES C=C(C)[C@]12C[C@@H](C)[C@@]34O[C@](Cc5ccccc5)(O[C@@H]1[C@@H]3C=C(COC(=O)Cc1ccc(O)cc1)C[C@]1(O)C(=O)C(C)=C[C@@H]41)O2
REMARK SMILES IDX 23 1 22 2 21 3 20 4 9 5 8 6 10 7 6 8 18 10 44 11 19 12 5 13
REMARK SMILES IDX 7 14 4 15 11 16 12 17 13 18 17 19 14 20 16 21 15 22 2 23
REMARK SMILES IDX 3 24 1 25 35 26 36 27 43 28 38 29 42 30 39 32 40 33 41 34
REMARK SMILES IDX 37 35 24 37 25 38 26 39 27 40 28 41 29 42 34 43 30 44 33 45
REMARK SMILES IDX 31 46 32 47
REMARK H PARENT 37 36 32 48
REMARK Flexibility Score: 90.00
ROOT
ATOM      1  C   UNL     1      59.809  87.152  75.124  1.00  0.00     0.264 C 
ENDROOT
BRANCH   1   2
ATOM      2  C   UNL     1      60.465  86.537  73.909  1.00  0.00    -0.033 C 
ATOM      3  C   UNL     1      61.155  87.327  73.062  1.00  0.00    -0.015 C 
BRANCH   3   4
ATOM      4  C   UNL     1      61.833  86.973  71.748  1.00  0.00     0.078 C 
ATOM      5  O   UNL     1      64.189  86.435  72.275  1.00  0.00    -0.319 OA
ATOM      6  C   UNL     1      62.948  85.863  71.756  1.00  0.00     0.095 CG0
ATOM      7  C   UNL     1      64.509  87.753  71.788  1.00  0.00     0.289 C 
ATOM      8  C   UNL     1      63.172  85.397  70.259  1.00  0.00     0.023 C 
ATOM      9  G   UNL     1      62.593  84.730  72.763  1.00  0.00     0.000 G0
ATOM     10  O   UNL     1      63.464  88.678  72.073  1.00  0.00    -0.320 OA
ATOM     11  O   UNL     1      64.675  87.783  70.373  1.00  0.00    -0.313 OA
ATOM     12  C   UNL     1      62.475  88.239  71.129  1.00  0.00     0.170 C 
ATOM     13  C   UNL     1      62.958  86.571  69.256  1.00  0.00     0.049 C 
ATOM     14  C   UNL     1      64.524  84.721  69.972  1.00  0.00     0.011 C 
ATOM     15  C   UNL     1      63.327  87.920  69.876  1.00  0.00     0.122 C 
BRANCH   7  16
ATOM     16  C   UNL     1      65.792  88.207  72.456  1.00  0.00     0.135 C 
BRANCH  16  17
ATOM     17  C   UNL     1      67.003  87.935  71.599  1.00  0.00    -0.040 A 
ATOM     18  C   UNL     1      67.666  88.989  70.972  1.00  0.00     0.004 A 
ATOM     19  C   UNL     1      67.460  86.627  71.434  1.00  0.00     0.004 A 
ATOM     20  C   UNL     1      68.787  88.738  70.180  1.00  0.00     0.000 A 
ATOM     21  C   UNL     1      68.580  86.375  70.641  1.00  0.00     0.000 A 
ATOM     22  C   UNL     1      69.243  87.430  70.015  1.00  0.00     0.000 A 
ENDBRANCH  16  17
ENDBRANCH   7  16
BRANCH  15  23
ATOM     23  C   UNL     1      63.303  89.034  68.882  1.00  0.00    -0.046 C 
ATOM     24  C   UNL     1      64.522  89.908  68.838  1.00  0.00     0.042 C 
ATOM     25  C   UNL     1      62.253  89.243  68.075  1.00  0.00     0.010 C 
ENDBRANCH  15  23
ENDBRANCH   3   4
BRANCH   2  26
ATOM     26  C   UNL     1      60.250  85.038  73.812  1.00  0.00     0.078 C 
BRANCH  26  27
ATOM     27  C   UNL     1      61.085  84.279  72.783  1.00  0.00     0.140 C 
ATOM     28  C   UNL     1      62.558  84.739  72.772  1.00  0.00     0.086 CG0
ATOM     29  C   UNL     1      61.208  82.805  73.109  1.00  0.00     0.190 C 
ATOM     30  C   UNL     1      63.328  83.448  72.756  1.00  0.00    -0.010 C 
ATOM     31  G   UNL     1      62.919  85.857  71.751  1.00  0.00     0.000 G0
ATOM     32  O   UNL     1      60.280  82.065  73.400  1.00  0.00    -0.291 OA
ATOM     33  C   UNL     1      62.603  82.346  72.970  1.00  0.00    -0.008 C 
ATOM     34  C   UNL     1      63.029  80.938  73.102  1.00  0.00     0.048 C 
BRANCH  27  35
ATOM     35  O   UNL     1      60.472  84.293  71.505  1.00  0.00    -0.381 OA
ATOM     36  H   UNL     1      60.641  83.438  71.074  1.00  0.00     0.212 HD
ENDBRANCH  27  35
ENDBRANCH  26  27
ENDBRANCH   2  26
ENDBRANCH   1   2
BRANCH   1  37
ATOM     37  O   UNL     1      58.411  87.192  74.930  1.00  0.00    -0.461 OA
BRANCH  37  38
ATOM     38  C   UNL     1      57.865  88.434  74.703  1.00  0.00     0.310 C 
ATOM     39  O   UNL     1      58.233  89.472  75.235  1.00  0.00    -0.252 OA
BRANCH  38  40
ATOM     40  C   UNL     1      56.743  88.316  73.699  1.00  0.00     0.158 C 
BRANCH  40  41
ATOM     41  C   UNL     1      57.018  87.289  72.631  1.00  0.00    -0.037 A 
ATOM     42  C   UNL     1      56.682  85.952  72.845  1.00  0.00     0.008 A 
ATOM     43  C   UNL     1      57.608  87.674  71.427  1.00  0.00     0.008 A 
ATOM     44  C   UNL     1      56.936  85.001  71.857  1.00  0.00     0.046 A 
ATOM     45  C   UNL     1      57.862  86.724  70.438  1.00  0.00     0.046 A 
ATOM     46  C   UNL     1      57.527  85.388  70.653  1.00  0.00     0.115 A 
BRANCH  46  47
ATOM     47  O   UNL     1      57.775  84.460  69.689  1.00  0.00    -0.508 OA
ATOM     48  H   UNL     1      58.438  84.816  69.072  1.00  0.00     0.293 HD
ENDBRANCH  46  47
ENDBRANCH  40  41
ENDBRANCH  38  40
ENDBRANCH  37  38
ENDBRANCH   1  37
TORSDOF 10
ENDMDL
MODEL 10
REMARK VINA RESULT:    -6.080      2.830      9.081
REMARK INTER + INTRA:         -10.789
REMARK INTER:                 -10.055
REMARK INTRA:                  -0.734
REMARK UNBOUND:                -0.444
REMARK SMILES C=C(C)[C@]12C[C@@H](C)[C@@]34O[C@](Cc5ccccc5)(O[C@@H]1[C@@H]3C=C(COC(=O)Cc1ccc(O)cc1)C[C@]1(O)C(=O)C(C)=C[C@@H]41)O2
REMARK SMILES IDX 23 1 22 2 21 3 20 4 9 5 8 6 10 7 6 8 18 10 44 11 19 12 5 13
REMARK SMILES IDX 7 14 4 15 11 16 12 17 13 18 17 19 14 20 16 21 15 22 2 23
REMARK SMILES IDX 3 24 1 25 35 26 36 27 43 28 38 29 42 30 39 32 40 33 41 34
REMARK SMILES IDX 37 35 24 37 25 38 26 39 27 40 28 41 29 42 34 43 30 44 33 45
REMARK SMILES IDX 31 46 32 47
REMARK H PARENT 37 36 32 48
REMARK Flexibility Score: 90.00
ROOT
ATOM      1  C   UNL     1      63.771  87.800  72.933  1.00  0.00     0.264 C 
ENDROOT
BRANCH   1   2
ATOM      2  C   UNL     1      62.544  86.970  72.632  1.00  0.00    -0.033 C 
ATOM      3  C   UNL     1      61.325  87.462  72.933  1.00  0.00    -0.015 C 
BRANCH   3   4
ATOM      4  C   UNL     1      59.960  86.806  72.803  1.00  0.00     0.078 C 
ATOM      5  O   UNL     1      59.075  87.420  70.576  1.00  0.00    -0.319 OA
ATOM      6  C   UNL     1      59.512  86.285  71.388  1.00  0.00     0.095 CG0
ATOM      7  C   UNL     1      58.259  88.388  71.262  1.00  0.00     0.289 C 
ATOM      8  C   UNL     1      58.293  85.296  71.604  1.00  0.00     0.023 C 
ATOM      9  G   UNL     1      60.722  85.694  70.607  1.00  0.00     0.000 G0
ATOM     10  O   UNL     1      58.929  88.916  72.403  1.00  0.00    -0.320 OA
ATOM     11  O   UNL     1      57.046  87.823  71.755  1.00  0.00    -0.313 OA
ATOM     12  C   UNL     1      58.858  87.783  73.283  1.00  0.00     0.170 C 
ATOM     13  C   UNL     1      57.416  85.727  72.819  1.00  0.00     0.049 C 
ATOM     14  C   UNL     1      57.392  85.078  70.376  1.00  0.00     0.011 C 
ATOM     15  C   UNL     1      57.431  87.243  73.019  1.00  0.00     0.122 C 
BRANCH   7  16
ATOM     16  C   UNL     1      57.936  89.508  70.293  1.00  0.00     0.135 C 
BRANCH  16  17
ATOM     17  C   UNL     1      56.475  89.529  69.917  1.00  0.00    -0.040 A 
ATOM     18  C   UNL     1      55.984  88.627  68.974  1.00  0.00     0.004 A 
ATOM     19  C   UNL     1      55.615  90.450  70.515  1.00  0.00     0.004 A 
ATOM     20  C   UNL     1      54.633  88.646  68.627  1.00  0.00     0.000 A 
ATOM     21  C   UNL     1      54.264  90.469  70.168  1.00  0.00     0.000 A 
ATOM     22  C   UNL     1      53.773  89.567  69.225  1.00  0.00     0.000 A 
ENDBRANCH  16  17
ENDBRANCH   7  16
BRANCH  15  23
ATOM     23  C   UNL     1      56.459  87.695  74.059  1.00  0.00    -0.046 C 
ATOM     24  C   UNL     1      56.130  89.159  74.068  1.00  0.00     0.042 C 
ATOM     25  C   UNL     1      55.911  86.841  74.936  1.00  0.00     0.010 C 
ENDBRANCH  15  23
ENDBRANCH   3   4
BRANCH   2  26
ATOM     26  C   UNL     1      62.871  85.634  71.992  1.00  0.00     0.078 C 
BRANCH  26  27
ATOM     27  C   UNL     1      61.703  84.818  71.443  1.00  0.00     0.140 C 
ATOM     28  C   UNL     1      60.725  85.680  70.618  1.00  0.00     0.086 CG0
ATOM     29  C   UNL     1      62.145  83.775  70.439  1.00  0.00     0.190 C 
ATOM     30  C   UNL     1      60.478  84.849  69.389  1.00  0.00    -0.010 C 
ATOM     31  G   UNL     1      59.514  86.276  71.393  1.00  0.00     0.000 G0
ATOM     32  O   UNL     1      63.062  82.983  70.597  1.00  0.00    -0.291 OA
ATOM     33  C   UNL     1      61.278  83.788  69.245  1.00  0.00    -0.008 C 
ATOM     34  C   UNL     1      61.374  82.813  68.140  1.00  0.00     0.048 C 
BRANCH  27  35
ATOM     35  O   UNL     1      61.076  84.060  72.464  1.00  0.00    -0.381 OA
ATOM     36  H   UNL     1      60.422  84.626  72.909  1.00  0.00     0.212 HD
ENDBRANCH  27  35
ENDBRANCH  26  27
ENDBRANCH   2  26
ENDBRANCH   1   2
BRANCH   1  37
ATOM     37  O   UNL     1      63.874  87.990  74.328  1.00  0.00    -0.461 OA
BRANCH  37  38
ATOM     38  C   UNL     1      64.171  86.871  75.073  1.00  0.00     0.310 C 
ATOM     39  O   UNL     1      65.052  86.066  74.809  1.00  0.00    -0.252 OA
BRANCH  38  40
ATOM     40  C   UNL     1      63.243  86.796  76.261  1.00  0.00     0.158 C 
BRANCH  40  41
ATOM     41  C   UNL     1      63.355  87.992  77.171  1.00  0.00    -0.037 A 
ATOM     42  C   UNL     1      62.281  88.873  77.301  1.00  0.00     0.008 A 
ATOM     43  C   UNL     1      64.532  88.220  77.883  1.00  0.00     0.008 A 
ATOM     44  C   UNL     1      62.385  89.981  78.143  1.00  0.00     0.046 A 
ATOM     45  C   UNL     1      64.637  89.328  78.725  1.00  0.00     0.046 A 
ATOM     46  C   UNL     1      63.563  90.208  78.855  1.00  0.00     0.115 A 
BRANCH  46  47
ATOM     47  O   UNL     1      63.664  91.289  79.675  1.00  0.00    -0.508 OA
ATOM     48  H   UNL     1      63.091  91.998  79.335  1.00  0.00     0.293 HD
ENDBRANCH  46  47
ENDBRANCH  40  41
ENDBRANCH  38  40
ENDBRANCH  37  38
ENDBRANCH   1  37
TORSDOF 10
ENDMDL
