MODEL 1
REMARK VINA RESULT:    -5.589      0.000      0.000
REMARK INTER + INTRA:         -10.385
REMARK INTER:                  -8.692
REMARK INTRA:                  -1.693
REMARK UNBOUND:                -1.693
REMARK SMILES CCCCC/C=C/C(=O)CCc1ccc(O)c(OC)c1
REMARK SMILES IDX 6 1 7 2 8 3 9 4 10 5 11 6 12 7 17 8 20 9 15 10 14 11 13 12
REMARK SMILES IDX 18 13 19 14 16 15 5 17 4 18 3 19 2 20 1 21
REMARK H PARENT 16 16
REMARK Flexibility Score: inf
ROOT
ATOM      1  C   UNL     1      80.249  86.971  87.006  1.00  0.00    -0.023 C 
ATOM      2  C   UNL     1      80.537  86.201  85.950  1.00  0.00     0.043 C 
ENDROOT
BRANCH   2   3
ATOM      3  C   UNL     1      80.456  86.766  84.575  1.00  0.00     0.155 C 
ATOM      4  O   UNL     1      80.946  86.189  83.607  1.00  0.00    -0.295 OA
BRANCH   3   5
ATOM      5  C   UNL     1      79.783  88.118  84.439  1.00  0.00     0.085 C 
BRANCH   5   6
ATOM      6  C   UNL     1      80.775  89.188  83.979  1.00  0.00     0.044 C 
BRANCH   6   7
ATOM      7  C   UNL     1      81.732  89.610  85.068  1.00  0.00    -0.044 A 
ATOM      8  C   UNL     1      83.966  89.724  85.937  1.00  0.00     0.160 A 
ATOM      9  C   UNL     1      83.083  89.334  84.930  1.00  0.00     0.054 A 
ATOM     10  C   UNL     1      83.487  90.385  87.068  1.00  0.00     0.157 A 
ATOM     11  C   UNL     1      82.124  90.655  87.193  1.00  0.00     0.050 A 
ATOM     12  C   UNL     1      81.241  90.265  86.186  1.00  0.00     0.008 A 
BRANCH   8  13
ATOM     13  O   UNL     1      85.295  89.455  85.803  1.00  0.00    -0.493 OA
ATOM     14  C   UNL     1      86.066  90.363  85.020  1.00  0.00     0.278 C 
ENDBRANCH   8  13
BRANCH  10  15
ATOM     15  O   UNL     1      84.340  90.771  88.057  1.00  0.00    -0.504 OA
ATOM     16  H   UNL     1      85.250  90.689  87.725  1.00  0.00     0.293 HD
ENDBRANCH  10  15
ENDBRANCH   6   7
ENDBRANCH   5   6
ENDBRANCH   3   5
ENDBRANCH   2   3
BRANCH   1  17
ATOM     17  C   UNL     1      80.306  86.477  88.422  1.00  0.00     0.027 C 
BRANCH  17  18
ATOM     18  C   UNL     1      81.510  87.018  89.200  1.00  0.00     0.004 C 
BRANCH  18  19
ATOM     19  C   UNL     1      81.327  88.458  89.690  1.00  0.00     0.000 C 
BRANCH  19  20
ATOM     20  C   UNL     1      79.916  88.680  90.235  1.00  0.00    -0.003 C 
ATOM     21  C   UNL     1      79.273  89.918  89.629  1.00  0.00     0.004 C 
ENDBRANCH  19  20
ENDBRANCH  18  19
ENDBRANCH  17  18
ENDBRANCH   1  17
TORSDOF 10
ENDMDL
MODEL 2
REMARK VINA RESULT:    -5.304     20.354     23.356
REMARK INTER + INTRA:          -9.943
REMARK INTER:                  -8.264
REMARK INTRA:                  -1.679
REMARK UNBOUND:                -1.693
REMARK SMILES CCCCC/C=C/C(=O)CCc1ccc(O)c(OC)c1
REMARK SMILES IDX 6 1 7 2 8 3 9 4 10 5 11 6 12 7 17 8 20 9 15 10 14 11 13 12
REMARK SMILES IDX 18 13 19 14 16 15 5 17 4 18 3 19 2 20 1 21
REMARK H PARENT 16 16
REMARK Flexibility Score: inf
ROOT
ATOM      1  C   UNL     1      63.546  81.341  72.032  1.00  0.00    -0.023 C 
ATOM      2  C   UNL     1      63.729  80.570  73.110  1.00  0.00     0.043 C 
ENDROOT
BRANCH   2   3
ATOM      3  C   UNL     1      65.090  80.423  73.694  1.00  0.00     0.155 C 
ATOM      4  O   UNL     1      65.938  79.690  73.189  1.00  0.00    -0.295 OA
BRANCH   3   5
ATOM      5  C   UNL     1      65.362  81.186  74.976  1.00  0.00     0.085 C 
BRANCH   5   6
ATOM      6  C   UNL     1      64.092  81.330  75.816  1.00  0.00     0.044 C 
BRANCH   6   7
ATOM      7  C   UNL     1      63.529  82.731  75.794  1.00  0.00    -0.044 A 
ATOM      8  C   UNL     1      63.848  85.090  75.491  1.00  0.00     0.160 A 
ATOM      9  C   UNL     1      64.369  83.796  75.512  1.00  0.00     0.054 A 
ATOM     10  C   UNL     1      62.495  85.302  75.753  1.00  0.00     0.157 A 
ATOM     11  C   UNL     1      61.661  84.219  76.037  1.00  0.00     0.050 A 
ATOM     12  C   UNL     1      62.183  82.925  76.058  1.00  0.00     0.008 A 
BRANCH   8  13
ATOM     13  O   UNL     1      64.672  86.139  75.213  1.00  0.00    -0.493 OA
ATOM     14  C   UNL     1      65.867  86.247  75.984  1.00  0.00     0.278 C 
ENDBRANCH   8  13
BRANCH  10  15
ATOM     15  O   UNL     1      61.974  86.561  75.736  1.00  0.00    -0.504 OA
ATOM     16  H   UNL     1      61.571  86.712  74.864  1.00  0.00     0.293 HD
ENDBRANCH  10  15
ENDBRANCH   6   7
ENDBRANCH   5   6
ENDBRANCH   3   5
ENDBRANCH   2   3
BRANCH   1  17
ATOM     17  C   UNL     1      62.206  81.539  71.384  1.00  0.00     0.027 C 
BRANCH  17  18
ATOM     18  C   UNL     1      61.208  82.280  72.280  1.00  0.00     0.004 C 
BRANCH  18  19
ATOM     19  C   UNL     1      61.461  83.789  72.364  1.00  0.00     0.000 C 
BRANCH  19  20
ATOM     20  C   UNL     1      60.180  84.579  72.088  1.00  0.00    -0.003 C 
ATOM     21  C   UNL     1      60.231  85.960  72.720  1.00  0.00     0.004 C 
ENDBRANCH  19  20
ENDBRANCH  18  19
ENDBRANCH  17  18
ENDBRANCH   1  17
TORSDOF 10
ENDMDL
MODEL 3
REMARK VINA RESULT:    -5.118     23.715     25.481
REMARK INTER + INTRA:          -9.653
REMARK INTER:                  -8.223
REMARK INTRA:                  -1.430
REMARK UNBOUND:                -1.693
REMARK SMILES CCCCC/C=C/C(=O)CCc1ccc(O)c(OC)c1
REMARK SMILES IDX 6 1 7 2 8 3 9 4 10 5 11 6 12 7 17 8 20 9 15 10 14 11 13 12
REMARK SMILES IDX 18 13 19 14 16 15 5 17 4 18 3 19 2 20 1 21
REMARK H PARENT 16 16
REMARK Flexibility Score: inf
ROOT
ATOM      1  C   UNL     1      80.158  65.150  72.696  1.00  0.00    -0.023 C 
ATOM      2  C   UNL     1      80.660  66.378  72.515  1.00  0.00     0.043 C 
ENDROOT
BRANCH   2   3
ATOM      3  C   UNL     1      80.529  67.045  71.191  1.00  0.00     0.155 C 
ATOM      4  O   UNL     1      79.600  66.794  70.427  1.00  0.00    -0.295 OA
BRANCH   3   5
ATOM      5  C   UNL     1      81.632  68.013  70.809  1.00  0.00     0.085 C 
BRANCH   5   6
ATOM      6  C   UNL     1      83.008  67.350  70.897  1.00  0.00     0.044 C 
BRANCH   6   7
ATOM      7  C   UNL     1      83.969  68.107  71.782  1.00  0.00    -0.044 A 
ATOM      8  C   UNL     1      84.956  68.469  73.939  1.00  0.00     0.160 A 
ATOM      9  C   UNL     1      84.068  67.770  73.122  1.00  0.00     0.054 A 
ATOM     10  C   UNL     1      85.734  69.496  73.406  1.00  0.00     0.157 A 
ATOM     11  C   UNL     1      85.624  69.824  72.054  1.00  0.00     0.050 A 
ATOM     12  C   UNL     1      84.735  69.125  71.237  1.00  0.00     0.008 A 
BRANCH   8  13
ATOM     13  O   UNL     1      85.055  68.139  75.257  1.00  0.00    -0.493 OA
ATOM     14  C   UNL     1      85.761  66.941  75.575  1.00  0.00     0.278 C 
ENDBRANCH   8  13
BRANCH  10  15
ATOM     15  O   UNL     1      86.606  70.186  74.193  1.00  0.00    -0.504 OA
ATOM     16  H   UNL     1      86.196  71.035  74.430  1.00  0.00     0.293 HD
ENDBRANCH  10  15
ENDBRANCH   6   7
ENDBRANCH   5   6
ENDBRANCH   3   5
ENDBRANCH   2   3
BRANCH   1  17
ATOM     17  C   UNL     1      80.250  64.411  73.999  1.00  0.00     0.027 C 
BRANCH  17  18
ATOM     18  C   UNL     1      81.623  63.772  74.233  1.00  0.00     0.004 C 
BRANCH  18  19
ATOM     19  C   UNL     1      82.508  64.560  75.204  1.00  0.00     0.000 C 
BRANCH  19  20
ATOM     20  C   UNL     1      81.666  65.278  76.260  1.00  0.00    -0.003 C 
ATOM     21  C   UNL     1      82.004  66.759  76.327  1.00  0.00     0.004 C 
ENDBRANCH  19  20
ENDBRANCH  18  19
ENDBRANCH  17  18
ENDBRANCH   1  17
TORSDOF 10
ENDMDL
MODEL 4
REMARK VINA RESULT:    -5.018      2.982      5.620
REMARK INTER + INTRA:          -9.497
REMARK INTER:                  -8.590
REMARK INTRA:                  -0.907
REMARK UNBOUND:                -1.693
REMARK SMILES CCCCC/C=C/C(=O)CCc1ccc(O)c(OC)c1
REMARK SMILES IDX 6 1 7 2 8 3 9 4 10 5 11 6 12 7 17 8 20 9 15 10 14 11 13 12
REMARK SMILES IDX 18 13 19 14 16 15 5 17 4 18 3 19 2 20 1 21
REMARK H PARENT 16 16
REMARK Flexibility Score: inf
ROOT
ATOM      1  C   UNL     1      83.090  89.585  84.952  1.00  0.00    -0.023 C 
ATOM      2  C   UNL     1      84.235  89.357  85.607  1.00  0.00     0.043 C 
ENDROOT
BRANCH   2   3
ATOM      3  C   UNL     1      85.426  90.209  85.339  1.00  0.00     0.155 C 
ATOM      4  O   UNL     1      86.214  89.954  84.430  1.00  0.00    -0.295 OA
BRANCH   3   5
ATOM      5  C   UNL     1      85.647  91.378  86.279  1.00  0.00     0.085 C 
BRANCH   5   6
ATOM      6  C   UNL     1      84.692  92.531  85.964  1.00  0.00     0.044 C 
BRANCH   6   7
ATOM      7  C   UNL     1      83.784  92.874  87.122  1.00  0.00    -0.044 A 
ATOM      8  C   UNL     1      82.638  94.518  88.442  1.00  0.00     0.160 A 
ATOM      9  C   UNL     1      83.476  94.201  87.373  1.00  0.00     0.054 A 
ATOM     10  C   UNL     1      82.119  93.503  89.246  1.00  0.00     0.157 A 
ATOM     11  C   UNL     1      82.439  92.171  88.980  1.00  0.00     0.050 A 
ATOM     12  C   UNL     1      83.277  91.855  87.912  1.00  0.00     0.008 A 
BRANCH   8  13
ATOM     13  O   UNL     1      82.333  95.822  88.691  1.00  0.00    -0.493 OA
ATOM     14  C   UNL     1      83.305  96.797  88.319  1.00  0.00     0.278 C 
ENDBRANCH   8  13
BRANCH  10  15
ATOM     15  O   UNL     1      81.298  93.799  90.292  1.00  0.00    -0.504 OA
ATOM     16  H   UNL     1      81.282  93.035  90.893  1.00  0.00     0.293 HD
ENDBRANCH  10  15
ENDBRANCH   6   7
ENDBRANCH   5   6
ENDBRANCH   3   5
ENDBRANCH   2   3
BRANCH   1  17
ATOM     17  C   UNL     1      81.847  88.772  85.166  1.00  0.00     0.027 C 
BRANCH  17  18
ATOM     18  C   UNL     1      80.621  89.348  84.449  1.00  0.00     0.004 C 
BRANCH  18  19
ATOM     19  C   UNL     1      79.404  88.419  84.472  1.00  0.00     0.000 C 
BRANCH  19  20
ATOM     20  C   UNL     1      79.794  86.989  84.094  1.00  0.00    -0.003 C 
ATOM     21  C   UNL     1      80.104  86.870  82.611  1.00  0.00     0.004 C 
ENDBRANCH  19  20
ENDBRANCH  18  19
ENDBRANCH  17  18
ENDBRANCH   1  17
TORSDOF 10
ENDMDL
MODEL 5
REMARK VINA RESULT:    -5.017     23.438     25.984
REMARK INTER + INTRA:          -9.496
REMARK INTER:                  -8.189
REMARK INTRA:                  -1.307
REMARK UNBOUND:                -1.693
REMARK SMILES CCCCC/C=C/C(=O)CCc1ccc(O)c(OC)c1
REMARK SMILES IDX 6 1 7 2 8 3 9 4 10 5 11 6 12 7 17 8 20 9 15 10 14 11 13 12
REMARK SMILES IDX 18 13 19 14 16 15 5 17 4 18 3 19 2 20 1 21
REMARK H PARENT 16 16
REMARK Flexibility Score: inf
ROOT
ATOM      1  C   UNL     1      80.378  66.452  73.238  1.00  0.00    -0.023 C 
ATOM      2  C   UNL     1      80.339  65.163  72.876  1.00  0.00     0.043 C 
ENDROOT
BRANCH   2   3
ATOM      3  C   UNL     1      80.506  64.099  73.903  1.00  0.00     0.155 C 
ATOM      4  O   UNL     1      79.621  63.279  74.137  1.00  0.00    -0.295 OA
BRANCH   3   5
ATOM      5  C   UNL     1      81.806  64.110  74.683  1.00  0.00     0.085 C 
BRANCH   5   6
ATOM      6  C   UNL     1      81.628  64.771  76.050  1.00  0.00     0.044 C 
BRANCH   6   7
ATOM      7  C   UNL     1      82.833  65.577  76.475  1.00  0.00    -0.044 A 
ATOM      8  C   UNL     1      85.101  65.662  77.255  1.00  0.00     0.160 A 
ATOM      9  C   UNL     1      83.988  64.917  76.864  1.00  0.00     0.054 A 
ATOM     10  C   UNL     1      85.044  67.055  77.253  1.00  0.00     0.157 A 
ATOM     11  C   UNL     1      83.873  67.705  76.859  1.00  0.00     0.050 A 
ATOM     12  C   UNL     1      82.760  66.960  76.468  1.00  0.00     0.008 A 
BRANCH   8  13
ATOM     13  O   UNL     1      86.237  65.016  77.638  1.00  0.00    -0.493 OA
ATOM     14  C   UNL     1      86.111  64.035  78.666  1.00  0.00     0.278 C 
ENDBRANCH   8  13
BRANCH  10  15
ATOM     15  O   UNL     1      86.124  67.793  77.633  1.00  0.00    -0.504 OA
ATOM     16  H   UNL     1      86.928  67.335  77.334  1.00  0.00     0.293 HD
ENDBRANCH  10  15
ENDBRANCH   6   7
ENDBRANCH   5   6
ENDBRANCH   3   5
ENDBRANCH   2   3
BRANCH   1  17
ATOM     17  C   UNL     1      80.219  67.583  72.264  1.00  0.00     0.027 C 
BRANCH  17  18
ATOM     18  C   UNL     1      80.995  67.368  70.960  1.00  0.00     0.004 C 
BRANCH  18  19
ATOM     19  C   UNL     1      82.326  68.124  70.906  1.00  0.00     0.000 C 
BRANCH  19  20
ATOM     20  C   UNL     1      83.506  67.182  71.155  1.00  0.00    -0.003 C 
ATOM     21  C   UNL     1      83.920  67.183  72.618  1.00  0.00     0.004 C 
ENDBRANCH  19  20
ENDBRANCH  18  19
ENDBRANCH  17  18
ENDBRANCH   1  17
TORSDOF 10
ENDMDL
MODEL 6
REMARK VINA RESULT:    -4.936     23.551     25.794
REMARK INTER + INTRA:          -9.370
REMARK INTER:                  -7.871
REMARK INTRA:                  -1.499
REMARK UNBOUND:                -1.693
REMARK SMILES CCCCC/C=C/C(=O)CCc1ccc(O)c(OC)c1
REMARK SMILES IDX 6 1 7 2 8 3 9 4 10 5 11 6 12 7 17 8 20 9 15 10 14 11 13 12
REMARK SMILES IDX 18 13 19 14 16 15 5 17 4 18 3 19 2 20 1 21
REMARK H PARENT 16 16
REMARK Flexibility Score: inf
ROOT
ATOM      1  C   UNL     1      80.142  65.508  72.153  1.00  0.00    -0.023 C 
ATOM      2  C   UNL     1      81.071  64.853  72.862  1.00  0.00     0.043 C 
ENDROOT
BRANCH   2   3
ATOM      3  C   UNL     1      80.693  64.172  74.129  1.00  0.00     0.155 C 
ATOM      4  O   UNL     1      79.845  63.282  74.160  1.00  0.00    -0.295 OA
BRANCH   3   5
ATOM      5  C   UNL     1      81.371  64.667  75.392  1.00  0.00     0.085 C 
BRANCH   5   6
ATOM      6  C   UNL     1      81.248  66.186  75.529  1.00  0.00     0.044 C 
BRANCH   6   7
ATOM      7  C   UNL     1      82.580  66.893  75.452  1.00  0.00    -0.044 A 
ATOM      8  C   UNL     1      84.540  67.748  76.541  1.00  0.00     0.160 A 
ATOM      9  C   UNL     1      83.309  67.095  76.613  1.00  0.00     0.054 A 
ATOM     10  C   UNL     1      85.026  68.189  75.311  1.00  0.00     0.157 A 
ATOM     11  C   UNL     1      84.279  67.978  74.150  1.00  0.00     0.050 A 
ATOM     12  C   UNL     1      83.048  67.326  74.222  1.00  0.00     0.008 A 
BRANCH   8  13
ATOM     13  O   UNL     1      85.259  67.948  77.681  1.00  0.00    -0.493 OA
ATOM     14  C   UNL     1      85.958  66.824  78.213  1.00  0.00     0.278 C 
ENDBRANCH   8  13
BRANCH  10  15
ATOM     15  O   UNL     1      86.226  68.827  75.228  1.00  0.00    -0.504 OA
ATOM     16  H   UNL     1      86.313  69.416  75.997  1.00  0.00     0.293 HD
ENDBRANCH  10  15
ENDBRANCH   6   7
ENDBRANCH   5   6
ENDBRANCH   3   5
ENDBRANCH   2   3
BRANCH   1  17
ATOM     17  C   UNL     1      80.442  66.220  70.867  1.00  0.00     0.027 C 
BRANCH  17  18
ATOM     18  C   UNL     1      80.826  67.690  71.068  1.00  0.00     0.004 C 
BRANCH  18  19
ATOM     19  C   UNL     1      82.307  67.980  70.804  1.00  0.00     0.000 C 
BRANCH  19  20
ATOM     20  C   UNL     1      83.042  66.720  70.345  1.00  0.00    -0.003 C 
ATOM     21  C   UNL     1      84.538  66.827  70.591  1.00  0.00     0.004 C 
ENDBRANCH  19  20
ENDBRANCH  18  19
ENDBRANCH  17  18
ENDBRANCH   1  17
TORSDOF 10
ENDMDL
MODEL 7
REMARK VINA RESULT:    -4.849     24.008     25.397
REMARK INTER + INTRA:          -9.235
REMARK INTER:                  -7.747
REMARK INTRA:                  -1.487
REMARK UNBOUND:                -1.693
REMARK SMILES CCCCC/C=C/C(=O)CCc1ccc(O)c(OC)c1
REMARK SMILES IDX 6 1 7 2 8 3 9 4 10 5 11 6 12 7 17 8 20 9 15 10 14 11 13 12
REMARK SMILES IDX 18 13 19 14 16 15 5 17 4 18 3 19 2 20 1 21
REMARK H PARENT 16 16
REMARK Flexibility Score: inf
ROOT
ATOM      1  C   UNL     1      81.101  66.611  74.994  1.00  0.00    -0.023 C 
ATOM      2  C   UNL     1      81.042  65.705  74.010  1.00  0.00     0.043 C 
ENDROOT
BRANCH   2   3
ATOM      3  C   UNL     1      80.410  66.061  72.711  1.00  0.00     0.155 C 
ATOM      4  O   UNL     1      79.810  65.231  72.031  1.00  0.00    -0.295 OA
BRANCH   3   5
ATOM      5  C   UNL     1      80.589  67.492  72.241  1.00  0.00     0.085 C 
BRANCH   5   6
ATOM      6  C   UNL     1      81.660  67.589  71.153  1.00  0.00     0.044 C 
BRANCH   6   7
ATOM      7  C   UNL     1      82.932  68.245  71.638  1.00  0.00    -0.044 A 
ATOM      8  C   UNL     1      84.945  68.157  72.940  1.00  0.00     0.160 A 
ATOM      9  C   UNL     1      83.771  67.551  72.494  1.00  0.00     0.054 A 
ATOM     10  C   UNL     1      85.264  69.450  72.526  1.00  0.00     0.157 A 
ATOM     11  C   UNL     1      84.408  70.137  71.664  1.00  0.00     0.050 A 
ATOM     12  C   UNL     1      83.234  69.530  71.217  1.00  0.00     0.008 A 
BRANCH   8  13
ATOM     13  O   UNL     1      85.772  67.476  73.782  1.00  0.00    -0.493 OA
ATOM     14  C   UNL     1      85.817  66.058  73.640  1.00  0.00     0.278 C 
ENDBRANCH   8  13
BRANCH  10  15
ATOM     15  O   UNL     1      86.408  70.053  72.954  1.00  0.00    -0.504 OA
ATOM     16  H   UNL     1      86.278  70.333  73.877  1.00  0.00     0.293 HD
ENDBRANCH  10  15
ENDBRANCH   6   7
ENDBRANCH   5   6
ENDBRANCH   3   5
ENDBRANCH   2   3
BRANCH   1  17
ATOM     17  C   UNL     1      81.721  66.330  76.332  1.00  0.00     0.027 C 
BRANCH  17  18
ATOM     18  C   UNL     1      83.199  66.728  76.406  1.00  0.00     0.004 C 
BRANCH  18  19
ATOM     19  C   UNL     1      84.115  65.597  76.883  1.00  0.00     0.000 C 
BRANCH  19  20
ATOM     20  C   UNL     1      83.409  64.243  76.802  1.00  0.00    -0.003 C 
ATOM     21  C   UNL     1      83.903  63.427  75.618  1.00  0.00     0.004 C 
ENDBRANCH  19  20
ENDBRANCH  18  19
ENDBRANCH  17  18
ENDBRANCH   1  17
TORSDOF 10
ENDMDL
MODEL 8
REMARK VINA RESULT:    -4.784     23.716     25.861
REMARK INTER + INTRA:          -9.134
REMARK INTER:                  -8.447
REMARK INTRA:                  -0.687
REMARK UNBOUND:                -1.693
REMARK SMILES CCCCC/C=C/C(=O)CCc1ccc(O)c(OC)c1
REMARK SMILES IDX 6 1 7 2 8 3 9 4 10 5 11 6 12 7 17 8 20 9 15 10 14 11 13 12
REMARK SMILES IDX 18 13 19 14 16 15 5 17 4 18 3 19 2 20 1 21
REMARK H PARENT 16 16
REMARK Flexibility Score: inf
ROOT
ATOM      1  C   UNL     1      85.167  63.875  79.194  1.00  0.00    -0.023 C 
ATOM      2  C   UNL     1      84.445  63.523  78.124  1.00  0.00     0.043 C 
ENDROOT
BRANCH   2   3
ATOM      3  C   UNL     1      84.203  64.509  77.035  1.00  0.00     0.155 C 
ATOM      4  O   UNL     1      84.753  65.608  77.021  1.00  0.00    -0.295 OA
BRANCH   3   5
ATOM      5  C   UNL     1      83.200  64.108  75.971  1.00  0.00     0.085 C 
BRANCH   5   6
ATOM      6  C   UNL     1      81.887  64.875  76.128  1.00  0.00     0.044 C 
BRANCH   6   7
ATOM      7  C   UNL     1      81.375  65.437  74.822  1.00  0.00    -0.044 A 
ATOM      8  C   UNL     1      81.300  67.221  73.219  1.00  0.00     0.160 A 
ATOM      9  C   UNL     1      81.773  66.703  74.425  1.00  0.00     0.054 A 
ATOM     10  C   UNL     1      80.436  66.466  72.427  1.00  0.00     0.157 A 
ATOM     11  C   UNL     1      80.043  65.193  72.841  1.00  0.00     0.050 A 
ATOM     12  C   UNL     1      80.516  64.675  74.047  1.00  0.00     0.008 A 
BRANCH   8  13
ATOM     13  O   UNL     1      81.691  68.466  72.826  1.00  0.00    -0.493 OA
ATOM     14  C   UNL     1      83.006  68.593  72.288  1.00  0.00     0.278 C 
ENDBRANCH   8  13
BRANCH  10  15
ATOM     15  O   UNL     1      79.968  66.961  71.247  1.00  0.00    -0.504 OA
ATOM     16  H   UNL     1      80.578  67.654  70.942  1.00  0.00     0.293 HD
ENDBRANCH  10  15
ENDBRANCH   6   7
ENDBRANCH   5   6
ENDBRANCH   3   5
ENDBRANCH   2   3
BRANCH   1  17
ATOM     17  C   UNL     1      85.455  62.941  80.333  1.00  0.00     0.027 C 
BRANCH  17  18
ATOM     18  C   UNL     1      86.215  63.610  81.483  1.00  0.00     0.004 C 
BRANCH  18  19
ATOM     19  C   UNL     1      85.845  65.083  81.688  1.00  0.00     0.000 C 
BRANCH  19  20
ATOM     20  C   UNL     1      87.090  65.971  81.672  1.00  0.00    -0.003 C 
ATOM     21  C   UNL     1      87.109  66.881  80.454  1.00  0.00     0.004 C 
ENDBRANCH  19  20
ENDBRANCH  18  19
ENDBRANCH  17  18
ENDBRANCH   1  17
TORSDOF 10
ENDMDL
MODEL 9
REMARK VINA RESULT:    -4.765     23.995     26.216
REMARK INTER + INTRA:          -9.103
REMARK INTER:                  -8.159
REMARK INTRA:                  -0.945
REMARK UNBOUND:                -1.693
REMARK SMILES CCCCC/C=C/C(=O)CCc1ccc(O)c(OC)c1
REMARK SMILES IDX 6 1 7 2 8 3 9 4 10 5 11 6 12 7 17 8 20 9 15 10 14 11 13 12
REMARK SMILES IDX 18 13 19 14 16 15 5 17 4 18 3 19 2 20 1 21
REMARK H PARENT 16 16
REMARK Flexibility Score: inf
ROOT
ATOM      1  C   UNL     1      80.759  65.447  73.294  1.00  0.00    -0.023 C 
ATOM      2  C   UNL     1      80.831  66.445  74.184  1.00  0.00     0.043 C 
ENDROOT
BRANCH   2   3
ATOM      3  C   UNL     1      81.556  66.242  75.468  1.00  0.00     0.155 C 
ATOM      4  O   UNL     1      81.490  67.058  76.386  1.00  0.00    -0.295 OA
BRANCH   3   5
ATOM      5  C   UNL     1      82.423  65.003  75.567  1.00  0.00     0.085 C 
BRANCH   5   6
ATOM      6  C   UNL     1      83.895  65.369  75.764  1.00  0.00     0.044 C 
BRANCH   6   7
ATOM      7  C   UNL     1      84.481  64.786  77.028  1.00  0.00    -0.044 A 
ATOM      8  C   UNL     1      85.843  65.033  78.988  1.00  0.00     0.160 A 
ATOM      9  C   UNL     1      85.302  65.572  77.820  1.00  0.00     0.054 A 
ATOM     10  C   UNL     1      85.557  63.716  79.347  1.00  0.00     0.157 A 
ATOM     11  C   UNL     1      84.729  62.938  78.538  1.00  0.00     0.050 A 
ATOM     12  C   UNL     1      84.188  63.476  77.370  1.00  0.00     0.008 A 
BRANCH   8  13
ATOM     13  O   UNL     1      86.651  65.804  79.769  1.00  0.00    -0.493 OA
ATOM     14  C   UNL     1      87.319  66.893  79.136  1.00  0.00     0.278 C 
ENDBRANCH   8  13
BRANCH  10  15
ATOM     15  O   UNL     1      86.079  63.179  80.485  1.00  0.00    -0.504 OA
ATOM     16  H   UNL     1      86.532  63.886  80.976  1.00  0.00     0.293 HD
ENDBRANCH  10  15
ENDBRANCH   6   7
ENDBRANCH   5   6
ENDBRANCH   3   5
ENDBRANCH   2   3
BRANCH   1  17
ATOM     17  C   UNL     1      80.047  65.571  71.978  1.00  0.00     0.027 C 
BRANCH  17  18
ATOM     18  C   UNL     1      80.771  66.489  70.987  1.00  0.00     0.004 C 
BRANCH  18  19
ATOM     19  C   UNL     1      82.224  66.082  70.723  1.00  0.00     0.000 C 
BRANCH  19  20
ATOM     20  C   UNL     1      83.186  67.224  71.057  1.00  0.00    -0.003 C 
ATOM     21  C   UNL     1      82.470  68.565  71.084  1.00  0.00     0.004 C 
ENDBRANCH  19  20
ENDBRANCH  18  19
ENDBRANCH  17  18
ENDBRANCH   1  17
TORSDOF 10
ENDMDL
MODEL 10
REMARK VINA RESULT:    -4.697     22.889     25.574
REMARK INTER + INTRA:          -8.999
REMARK INTER:                  -7.173
REMARK INTRA:                  -1.826
REMARK UNBOUND:                -1.693
REMARK SMILES CCCCC/C=C/C(=O)CCc1ccc(O)c(OC)c1
REMARK SMILES IDX 6 1 7 2 8 3 9 4 10 5 11 6 12 7 17 8 20 9 15 10 14 11 13 12
REMARK SMILES IDX 18 13 19 14 16 15 5 17 4 18 3 19 2 20 1 21
REMARK H PARENT 16 16
REMARK Flexibility Score: inf
ROOT
ATOM      1  C   UNL     1      81.299  65.703  71.958  1.00  0.00    -0.023 C 
ATOM      2  C   UNL     1      81.534  66.992  71.683  1.00  0.00     0.043 C 
ENDROOT
BRANCH   2   3
ATOM      3  C   UNL     1      82.813  67.390  71.035  1.00  0.00     0.155 C 
ATOM      4  O   UNL     1      83.299  66.746  70.107  1.00  0.00    -0.295 OA
BRANCH   3   5
ATOM      5  C   UNL     1      83.515  68.604  71.612  1.00  0.00     0.085 C 
BRANCH   5   6
ATOM      6  C   UNL     1      84.935  68.260  72.065  1.00  0.00     0.044 C 
BRANCH   6   7
ATOM      7  C   UNL     1      84.978  67.623  73.433  1.00  0.00    -0.044 A 
ATOM      8  C   UNL     1      84.890  67.831  75.822  1.00  0.00     0.160 A 
ATOM      9  C   UNL     1      84.851  68.421  74.559  1.00  0.00     0.054 A 
ATOM     10  C   UNL     1      85.055  66.452  75.944  1.00  0.00     0.157 A 
ATOM     11  C   UNL     1      85.182  65.662  74.801  1.00  0.00     0.050 A 
ATOM     12  C   UNL     1      85.143  66.251  73.538  1.00  0.00     0.008 A 
BRANCH   8  13
ATOM     13  O   UNL     1      84.765  68.614  76.931  1.00  0.00    -0.493 OA
ATOM     14  C   UNL     1      85.786  69.584  77.158  1.00  0.00     0.278 C 
ENDBRANCH   8  13
BRANCH  10  15
ATOM     15  O   UNL     1      85.094  65.865  77.172  1.00  0.00    -0.504 OA
ATOM     16  H   UNL     1      84.678  66.467  77.813  1.00  0.00     0.293 HD
ENDBRANCH  10  15
ENDBRANCH   6   7
ENDBRANCH   5   6
ENDBRANCH   3   5
ENDBRANCH   2   3
BRANCH   1  17
ATOM     17  C   UNL     1      80.036  65.221  72.611  1.00  0.00     0.027 C 
BRANCH  17  18
ATOM     18  C   UNL     1      80.289  64.252  73.770  1.00  0.00     0.004 C 
BRANCH  18  19
ATOM     19  C   UNL     1      81.691  64.374  74.376  1.00  0.00     0.000 C 
BRANCH  19  20
ATOM     20  C   UNL     1      81.632  64.953  75.791  1.00  0.00    -0.003 C 
ATOM     21  C   UNL     1      81.420  66.459  75.768  1.00  0.00     0.004 C 
ENDBRANCH  19  20
ENDBRANCH  18  19
ENDBRANCH  17  18
ENDBRANCH   1  17
TORSDOF 10
ENDMDL
