MODEL 1
REMARK VINA RESULT:    -5.921      0.000      0.000
REMARK INTER + INTRA:         -12.584
REMARK INTER:                 -10.420
REMARK INTRA:                  -2.163
REMARK UNBOUND:                -2.163
REMARK SMILES C=C(C)[C@]12C[C@@H](C)[C@@]34O[C@](Cc5ccccc5)(O[C@@H]1[C@@H]3C=C(COC(=O)Cc1ccc(O)c(OC)c1)C[C@]1(O)C(=O)C(C)=C[C@@H]41)O2
REMARK SMILES IDX 23 1 22 2 21 3 20 4 9 5 8 6 10 7 6 8 18 9 46 10 19 11 5 12
REMARK SMILES IDX 7 13 4 14 45 15 38 16 44 17 40 18 42 20 41 21 43 22 39 23
REMARK SMILES IDX 11 25 12 26 13 27 17 28 14 29 16 30 15 31 2 32 3 33 1 34
REMARK SMILES IDX 37 35 24 37 25 38 26 39 27 40 28 41 36 42 29 43 33 44 30 45
REMARK SMILES IDX 31 46 34 47 35 48 32 49
REMARK H PARENT 39 24 32 50
REMARK Flexibility Score: 90.00
ROOT
ATOM      1  C   UNL     1      62.856  90.972  74.134  1.00  0.00     0.264 C 
ENDROOT
BRANCH   1   2
ATOM      2  C   UNL     1      64.031  90.036  74.295  1.00  0.00    -0.033 C 
ATOM      3  C   UNL     1      64.065  89.194  75.348  1.00  0.00    -0.015 C 
BRANCH   3   4
ATOM      4  C   UNL     1      65.154  88.223  75.773  1.00  0.00     0.078 C 
ATOM      5  O   UNL     1      64.607  86.036  74.754  1.00  0.00    -0.319 OA
ATOM      6  C   UNL     1      65.600  87.107  74.756  1.00  0.00     0.095 C 
ATOM      7  C   UNL     1      64.114  85.650  76.052  1.00  0.00     0.289 C 
ATOM      8  C   UNL     1      66.990  86.531  75.255  1.00  0.00     0.023 C 
ATOM      9  O   UNL     1      63.541  86.760  76.738  1.00  0.00    -0.320 OA
ATOM     10  O   UNL     1      65.150  85.165  76.901  1.00  0.00    -0.313 OA
ATOM     11  C   UNL     1      64.730  87.492  77.071  1.00  0.00     0.170 C 
ATOM     12  C   UNL     1      67.087  86.544  76.812  1.00  0.00     0.049 C 
ATOM     13  C   UNL     1      67.350  85.132  74.732  1.00  0.00     0.011 C 
ATOM     14  C   UNL     1      65.717  86.365  77.466  1.00  0.00     0.122 C 
BRANCH   6  15
ATOM     15  C   UNL     1      65.587  87.652  73.298  1.00  0.00     0.086 C 
ATOM     16  C   UNL     1      66.173  89.065  73.095  1.00  0.00     0.140 CG0
ATOM     17  C   UNL     1      66.231  86.846  72.205  1.00  0.00    -0.010 C 
ATOM     18  C   UNL     1      66.805  88.961  71.723  1.00  0.00     0.190 C 
ATOM     19  G   UNL     1      65.099  90.150  73.164  1.00  0.00     0.000 G0
ATOM     20  C   UNL     1      66.899  87.555  71.289  1.00  0.00    -0.008 C 
ATOM     21  O   UNL     1      67.233  89.900  71.068  1.00  0.00    -0.291 OA
ATOM     22  C   UNL     1      67.575  87.114  70.051  1.00  0.00     0.048 C 
BRANCH  16  23
ATOM     23  O   UNL     1      67.265  89.362  73.949  1.00  0.00    -0.381 OA
ATOM     24  H   UNL     1      67.698  90.169  73.625  1.00  0.00     0.212 HD
ENDBRANCH  16  23
ENDBRANCH   6  15
BRANCH   7  25
ATOM     25  C   UNL     1      63.068  84.570  75.861  1.00  0.00     0.135 C 
BRANCH  25  26
ATOM     26  C   UNL     1      63.624  83.367  75.141  1.00  0.00    -0.040 A 
ATOM     27  C   UNL     1      63.508  83.270  73.754  1.00  0.00     0.004 A 
ATOM     28  C   UNL     1      64.253  82.352  75.860  1.00  0.00     0.004 A 
ATOM     29  C   UNL     1      64.022  82.157  73.087  1.00  0.00     0.000 A 
ATOM     30  C   UNL     1      64.767  81.239  75.194  1.00  0.00     0.000 A 
ATOM     31  C   UNL     1      64.651  81.142  73.807  1.00  0.00     0.000 A 
ENDBRANCH  25  26
ENDBRANCH   7  25
BRANCH  14  32
ATOM     32  C   UNL     1      65.806  86.192  78.947  1.00  0.00    -0.046 C 
ATOM     33  C   UNL     1      64.771  86.909  79.762  1.00  0.00     0.042 C 
ATOM     34  C   UNL     1      66.758  85.438  79.517  1.00  0.00     0.010 C 
ENDBRANCH  14  32
ENDBRANCH   3   4
BRANCH   2  35
ATOM     35  C   UNL     1      65.059  90.175  73.188  1.00  0.00     0.078 CG0
ATOM     36  G   UNL     1      66.137  89.096  73.095  1.00  0.00     0.000 G0
ENDBRANCH   2  35
ENDBRANCH   1   2
BRANCH   1  37
ATOM     37  O   UNL     1      62.539  91.543  75.385  1.00  0.00    -0.461 OA
BRANCH  37  38
ATOM     38  C   UNL     1      61.212  91.828  75.605  1.00  0.00     0.310 C 
ATOM     39  O   UNL     1      60.492  92.454  74.839  1.00  0.00    -0.252 OA
BRANCH  38  40
ATOM     40  C   UNL     1      60.785  91.251  76.934  1.00  0.00     0.158 C 
BRANCH  40  41
ATOM     41  C   UNL     1      60.619  89.754  76.898  1.00  0.00    -0.033 A 
ATOM     42  C   UNL     1      60.302  89.115  75.699  1.00  0.00     0.054 A 
ATOM     43  C   UNL     1      60.783  89.006  78.064  1.00  0.00     0.008 A 
ATOM     44  C   UNL     1      60.149  87.729  75.666  1.00  0.00     0.160 A 
ATOM     45  C   UNL     1      60.630  87.620  78.031  1.00  0.00     0.050 A 
ATOM     46  C   UNL     1      60.313  86.981  76.833  1.00  0.00     0.157 A 
BRANCH  44  47
ATOM     47  O   UNL     1      59.840  87.117  74.489  1.00  0.00    -0.493 OA
ATOM     48  C   UNL     1      60.874  87.034  73.510  1.00  0.00     0.278 C 
ENDBRANCH  44  47
BRANCH  46  49
ATOM     49  O   UNL     1      60.167  85.627  76.813  1.00  0.00    -0.504 OA
ATOM     50  H   UNL     1      60.749  85.256  76.128  1.00  0.00     0.293 HD
ENDBRANCH  46  49
ENDBRANCH  40  41
ENDBRANCH  38  40
ENDBRANCH  37  38
ENDBRANCH   1  37
TORSDOF 11
ENDMDL
MODEL 2
REMARK VINA RESULT:    -5.627     29.453     33.372
REMARK INTER + INTRA:         -12.066
REMARK INTER:                 -11.124
REMARK INTRA:                  -0.942
REMARK UNBOUND:                -2.163
REMARK SMILES C=C(C)[C@]12C[C@@H](C)[C@@]34O[C@](Cc5ccccc5)(O[C@@H]1[C@@H]3C=C(COC(=O)Cc1ccc(O)c(OC)c1)C[C@]1(O)C(=O)C(C)=C[C@@H]41)O2
REMARK SMILES IDX 23 1 22 2 21 3 20 4 9 5 8 6 10 7 6 8 18 9 46 10 19 11 5 12
REMARK SMILES IDX 7 13 4 14 45 15 38 16 44 17 40 18 42 20 41 21 43 22 39 23
REMARK SMILES IDX 11 25 12 26 13 27 17 28 14 29 16 30 15 31 2 32 3 33 1 34
REMARK SMILES IDX 37 35 24 37 25 38 26 39 27 40 28 41 36 42 29 43 33 44 30 45
REMARK SMILES IDX 31 46 34 47 35 48 32 49
REMARK H PARENT 39 24 32 50
REMARK Flexibility Score: 90.00
ROOT
ATOM      1  C   UNL     1      96.683  81.775  83.968  1.00  0.00     0.264 C 
ENDROOT
BRANCH   1   2
ATOM      2  C   UNL     1      95.417  82.263  84.632  1.00  0.00    -0.033 C 
ATOM      3  C   UNL     1      94.429  81.384  84.894  1.00  0.00    -0.015 C 
BRANCH   3   4
ATOM      4  C   UNL     1      93.047  81.631  85.477  1.00  0.00     0.078 C 
ATOM      5  O   UNL     1      93.236  81.345  87.927  1.00  0.00    -0.319 OA
ATOM      6  C   UNL     1      92.942  82.326  86.885  1.00  0.00     0.095 C 
ATOM      7  C   UNL     1      92.642  80.047  87.736  1.00  0.00     0.289 C 
ATOM      8  C   UNL     1      91.452  82.840  87.056  1.00  0.00     0.023 C 
ATOM      9  O   UNL     1      93.036  79.476  86.491  1.00  0.00    -0.320 OA
ATOM     10  O   UNL     1      91.218  80.104  87.700  1.00  0.00    -0.313 OA
ATOM     11  C   UNL     1      92.276  80.293  85.587  1.00  0.00     0.170 C 
ATOM     12  C   UNL     1      90.437  81.895  86.344  1.00  0.00     0.049 C 
ATOM     13  C   UNL     1      90.999  83.079  88.505  1.00  0.00     0.011 C 
ATOM     14  C   UNL     1      90.925  80.446  86.330  1.00  0.00     0.122 C 
BRANCH   6  15
ATOM     15  C   UNL     1      94.046  83.410  87.050  1.00  0.00     0.086 C 
ATOM     16  C   UNL     1      94.308  84.306  85.821  1.00  0.00     0.140 CG0
ATOM     17  C   UNL     1      93.951  84.392  88.184  1.00  0.00    -0.010 C 
ATOM     18  C   UNL     1      94.662  85.634  86.456  1.00  0.00     0.190 C 
ATOM     19  G   UNL     1      95.430  83.761  84.939  1.00  0.00     0.000 G0
ATOM     20  C   UNL     1      94.317  85.644  87.890  1.00  0.00    -0.008 C 
ATOM     21  O   UNL     1      95.124  86.600  85.867  1.00  0.00    -0.291 OA
ATOM     22  C   UNL     1      94.429  86.832  88.761  1.00  0.00     0.048 C 
BRANCH  16  23
ATOM     23  O   UNL     1      93.146  84.593  85.062  1.00  0.00    -0.381 OA
ATOM     24  H   UNL     1      92.732  85.394  85.424  1.00  0.00     0.212 HD
ENDBRANCH  16  23
ENDBRANCH   6  15
BRANCH   7  25
ATOM     25  C   UNL     1      93.084  79.149  88.874  1.00  0.00     0.135 C 
BRANCH  25  26
ATOM     26  C   UNL     1      94.492  78.643  88.680  1.00  0.00    -0.040 A 
ATOM     27  C   UNL     1      95.565  79.534  88.722  1.00  0.00     0.004 A 
ATOM     28  C   UNL     1      94.721  77.285  88.461  1.00  0.00     0.004 A 
ATOM     29  C   UNL     1      96.867  79.066  88.543  1.00  0.00     0.000 A 
ATOM     30  C   UNL     1      96.023  76.818  88.282  1.00  0.00     0.000 A 
ATOM     31  C   UNL     1      97.096  77.709  88.323  1.00  0.00     0.000 A 
ENDBRANCH  25  26
ENDBRANCH   7  25
BRANCH  14  32
ATOM     32  C   UNL     1      89.892  79.497  85.818  1.00  0.00    -0.046 C 
ATOM     33  C   UNL     1      89.831  79.324  84.329  1.00  0.00     0.042 C 
ATOM     34  C   UNL     1      89.065  78.836  86.642  1.00  0.00     0.010 C 
ENDBRANCH  14  32
ENDBRANCH   3   4
BRANCH   2  35
ATOM     35  C   UNL     1      95.439  83.750  84.934  1.00  0.00     0.078 CG0
ATOM     36  G   UNL     1      94.319  84.300  85.817  1.00  0.00     0.000 G0
ENDBRANCH   2  35
ENDBRANCH   1   2
BRANCH   1  37
ATOM     37  O   UNL     1      96.352  80.854  82.951  1.00  0.00    -0.461 OA
BRANCH  37  38
ATOM     38  C   UNL     1      97.405  80.323  82.244  1.00  0.00     0.310 C 
ATOM     39  O   UNL     1      97.668  79.130  82.165  1.00  0.00    -0.252 OA
BRANCH  38  40
ATOM     40  C   UNL     1      98.185  81.436  81.585  1.00  0.00     0.158 C 
BRANCH  40  41
ATOM     41  C   UNL     1      97.808  81.643  80.141  1.00  0.00    -0.033 A 
ATOM     42  C   UNL     1      98.336  80.807  79.156  1.00  0.00     0.054 A 
ATOM     43  C   UNL     1      96.931  82.669  79.789  1.00  0.00     0.008 A 
ATOM     44  C   UNL     1      97.987  80.999  77.819  1.00  0.00     0.160 A 
ATOM     45  C   UNL     1      96.582  82.860  78.452  1.00  0.00     0.050 A 
ATOM     46  C   UNL     1      97.110  82.026  77.467  1.00  0.00     0.157 A 
BRANCH  44  47
ATOM     47  O   UNL     1      98.509  80.177  76.866  1.00  0.00    -0.493 OA
ATOM     48  C   UNL     1      99.930  80.076  76.806  1.00  0.00     0.278 C 
ENDBRANCH  44  47
BRANCH  46  49
ATOM     49  O   UNL     1      96.761  82.221  76.165  1.00  0.00    -0.504 OA
ATOM     50  H   UNL     1      95.844  81.927  76.035  1.00  0.00     0.293 HD
ENDBRANCH  46  49
ENDBRANCH  40  41
ENDBRANCH  38  40
ENDBRANCH  37  38
ENDBRANCH   1  37
TORSDOF 11
ENDMDL
MODEL 3
REMARK VINA RESULT:    -5.572     29.147     32.921
REMARK INTER + INTRA:         -11.970
REMARK INTER:                 -11.013
REMARK INTRA:                  -0.958
REMARK UNBOUND:                -2.163
REMARK SMILES C=C(C)[C@]12C[C@@H](C)[C@@]34O[C@](Cc5ccccc5)(O[C@@H]1[C@@H]3C=C(COC(=O)Cc1ccc(O)c(OC)c1)C[C@]1(O)C(=O)C(C)=C[C@@H]41)O2
REMARK SMILES IDX 23 1 22 2 21 3 20 4 9 5 8 6 10 7 6 8 18 9 46 10 19 11 5 12
REMARK SMILES IDX 7 13 4 14 45 15 38 16 44 17 40 18 42 20 41 21 43 22 39 23
REMARK SMILES IDX 11 25 12 26 13 27 17 28 14 29 16 30 15 31 2 32 3 33 1 34
REMARK SMILES IDX 37 35 24 37 25 38 26 39 27 40 28 41 36 42 29 43 33 44 30 45
REMARK SMILES IDX 31 46 34 47 35 48 32 49
REMARK H PARENT 39 24 32 50
REMARK Flexibility Score: 90.00
ROOT
ATOM      1  C   UNL     1      96.443  81.609  84.113  1.00  0.00     0.264 C 
ENDROOT
BRANCH   1   2
ATOM      2  C   UNL     1      95.175  82.079  84.785  1.00  0.00    -0.033 C 
ATOM      3  C   UNL     1      94.171  81.202  84.987  1.00  0.00    -0.015 C 
BRANCH   3   4
ATOM      4  C   UNL     1      92.784  81.439  85.562  1.00  0.00     0.078 C 
ATOM      5  O   UNL     1      92.932  81.017  87.995  1.00  0.00    -0.319 OA
ATOM      6  C   UNL     1      92.668  82.058  87.005  1.00  0.00     0.095 C 
ATOM      7  C   UNL     1      92.322  79.740  87.726  1.00  0.00     0.289 C 
ATOM      8  C   UNL     1      91.184  82.584  87.183  1.00  0.00     0.023 C 
ATOM      9  O   UNL     1      92.726  79.232  86.457  1.00  0.00    -0.320 OA
ATOM     10  O   UNL     1      90.900  79.821  87.673  1.00  0.00    -0.313 OA
ATOM     11  C   UNL     1      91.992  80.108  85.589  1.00  0.00     0.170 C 
ATOM     12  C   UNL     1      90.165  81.695  86.406  1.00  0.00     0.049 C 
ATOM     13  C   UNL     1      90.713  82.751  88.637  1.00  0.00     0.011 C 
ATOM     14  C   UNL     1      90.633  80.242  86.320  1.00  0.00     0.122 C 
BRANCH   6  15
ATOM     15  C   UNL     1      93.785  83.114  87.244  1.00  0.00     0.086 C 
ATOM     16  C   UNL     1      94.073  84.076  86.073  1.00  0.00     0.140 CG0
ATOM     17  C   UNL     1      93.692  84.029  88.433  1.00  0.00    -0.010 C 
ATOM     18  C   UNL     1      94.439  85.360  86.787  1.00  0.00     0.190 C 
ATOM     19  G   UNL     1      95.198  83.568  85.171  1.00  0.00     0.000 G0
ATOM     20  C   UNL     1      94.078  85.291  88.216  1.00  0.00    -0.008 C 
ATOM     21  O   UNL     1      94.921  86.351  86.261  1.00  0.00    -0.291 OA
ATOM     22  C   UNL     1      94.198  86.424  89.156  1.00  0.00     0.048 C 
BRANCH  16  23
ATOM     23  O   UNL     1      92.923  84.424  85.320  1.00  0.00    -0.381 OA
ATOM     24  H   UNL     1      92.568  83.617  84.911  1.00  0.00     0.212 HD
ENDBRANCH  16  23
ENDBRANCH   6  15
BRANCH   7  25
ATOM     25  C   UNL     1      92.735  78.775  88.819  1.00  0.00     0.135 C 
BRANCH  25  26
ATOM     26  C   UNL     1      92.026  79.060  90.120  1.00  0.00    -0.040 A 
ATOM     27  C   UNL     1      90.783  78.481  90.378  1.00  0.00     0.004 A 
ATOM     28  C   UNL     1      92.614  79.899  91.066  1.00  0.00     0.004 A 
ATOM     29  C   UNL     1      90.128  78.743  91.582  1.00  0.00     0.000 A 
ATOM     30  C   UNL     1      91.959  80.162  92.270  1.00  0.00     0.000 A 
ATOM     31  C   UNL     1      90.715  79.583  92.527  1.00  0.00     0.000 A 
ENDBRANCH  25  26
ENDBRANCH   7  25
BRANCH  14  32
ATOM     32  C   UNL     1      89.593  79.337  85.742  1.00  0.00    -0.046 C 
ATOM     33  C   UNL     1      88.554  78.828  86.696  1.00  0.00     0.042 C 
ATOM     34  C   UNL     1      89.589  78.999  84.444  1.00  0.00     0.010 C 
ENDBRANCH  14  32
ENDBRANCH   3   4
BRANCH   2  35
ATOM     35  C   UNL     1      95.213  83.548  85.166  1.00  0.00     0.078 CG0
ATOM     36  G   UNL     1      94.083  84.069  86.053  1.00  0.00     0.000 G0
ENDBRANCH   2  35
ENDBRANCH   1   2
BRANCH   1  37
ATOM     37  O   UNL     1      96.135  80.569  83.209  1.00  0.00    -0.461 OA
BRANCH  37  38
ATOM     38  C   UNL     1      97.192  80.045  82.501  1.00  0.00     0.310 C 
ATOM     39  O   UNL     1      97.448  78.853  82.401  1.00  0.00    -0.252 OA
BRANCH  38  40
ATOM     40  C   UNL     1      97.982  81.167  81.870  1.00  0.00     0.158 C 
BRANCH  40  41
ATOM     41  C   UNL     1      97.633  81.390  80.421  1.00  0.00    -0.033 A 
ATOM     42  C   UNL     1      98.154  80.544  79.441  1.00  0.00     0.054 A 
ATOM     43  C   UNL     1      96.790  82.440  80.060  1.00  0.00     0.008 A 
ATOM     44  C   UNL     1      97.831  80.749  78.099  1.00  0.00     0.160 A 
ATOM     45  C   UNL     1      96.467  82.645  78.718  1.00  0.00     0.050 A 
ATOM     46  C   UNL     1      96.987  81.801  77.738  1.00  0.00     0.157 A 
BRANCH  44  47
ATOM     47  O   UNL     1      98.346  79.918  77.151  1.00  0.00    -0.493 OA
ATOM     48  C   UNL     1      99.574  80.312  76.541  1.00  0.00     0.278 C 
ENDBRANCH  44  47
BRANCH  46  49
ATOM     49  O   UNL     1      96.664  82.010  76.432  1.00  0.00    -0.504 OA
ATOM     50  H   UNL     1      96.431  81.160  76.023  1.00  0.00     0.293 HD
ENDBRANCH  46  49
ENDBRANCH  40  41
ENDBRANCH  38  40
ENDBRANCH  37  38
ENDBRANCH   1  37
TORSDOF 11
ENDMDL
MODEL 4
REMARK VINA RESULT:    -5.481      2.975      6.387
REMARK INTER + INTRA:         -11.810
REMARK INTER:                  -9.841
REMARK INTRA:                  -1.969
REMARK UNBOUND:                -2.163
REMARK SMILES C=C(C)[C@]12C[C@@H](C)[C@@]34O[C@](Cc5ccccc5)(O[C@@H]1[C@@H]3C=C(COC(=O)Cc1ccc(O)c(OC)c1)C[C@]1(O)C(=O)C(C)=C[C@@H]41)O2
REMARK SMILES IDX 23 1 22 2 21 3 20 4 9 5 8 6 10 7 6 8 18 9 46 10 19 11 5 12
REMARK SMILES IDX 7 13 4 14 45 15 38 16 44 17 40 18 42 20 41 21 43 22 39 23
REMARK SMILES IDX 11 25 12 26 13 27 17 28 14 29 16 30 15 31 2 32 3 33 1 34
REMARK SMILES IDX 37 35 24 37 25 38 26 39 27 40 28 41 36 42 29 43 33 44 30 45
REMARK SMILES IDX 31 46 34 47 35 48 32 49
REMARK H PARENT 39 24 32 50
REMARK Flexibility Score: 90.00
ROOT
ATOM      1  C   UNL     1      64.480  89.622  70.652  1.00  0.00     0.264 C 
ENDROOT
BRANCH   1   2
ATOM      2  C   UNL     1      63.272  88.723  70.533  1.00  0.00    -0.033 C 
ATOM      3  C   UNL     1      63.439  87.386  70.564  1.00  0.00    -0.015 C 
BRANCH   3   4
ATOM      4  C   UNL     1      62.410  86.281  70.389  1.00  0.00     0.078 C 
ATOM      5  O   UNL     1      61.611  85.675  72.651  1.00  0.00    -0.319 OA
ATOM      6  C   UNL     1      61.181  86.239  71.373  1.00  0.00     0.095 C 
ATOM      7  C   UNL     1      62.479  84.529  72.558  1.00  0.00     0.289 C 
ATOM      8  C   UNL     1      60.083  85.296  70.728  1.00  0.00     0.023 C 
ATOM      9  O   UNL     1      63.654  84.830  71.811  1.00  0.00    -0.320 OA
ATOM     10  O   UNL     1      61.862  83.436  71.883  1.00  0.00    -0.313 OA
ATOM     11  C   UNL     1      63.101  84.898  70.487  1.00  0.00     0.170 C 
ATOM     12  C   UNL     1      60.732  84.138  69.910  1.00  0.00     0.049 C 
ATOM     13  C   UNL     1      59.054  84.714  71.711  1.00  0.00     0.011 C 
ATOM     14  C   UNL     1      62.087  83.727  70.488  1.00  0.00     0.122 C 
BRANCH   6  15
ATOM     15  C   UNL     1      60.706  87.678  71.723  1.00  0.00     0.086 C 
ATOM     16  C   UNL     1      60.636  88.676  70.549  1.00  0.00     0.140 CG0
ATOM     17  C   UNL     1      59.388  87.869  72.422  1.00  0.00    -0.010 C 
ATOM     18  C   UNL     1      59.448  89.537  70.922  1.00  0.00     0.190 C 
ATOM     19  G   UNL     1      61.924  89.487  70.405  1.00  0.00     0.000 G0
ATOM     20  C   UNL     1      58.671  88.920  72.014  1.00  0.00    -0.008 C 
ATOM     21  O   UNL     1      59.128  90.579  70.371  1.00  0.00    -0.291 OA
ATOM     22  C   UNL     1      57.390  89.453  72.522  1.00  0.00     0.048 C 
BRANCH  16  23
ATOM     23  O   UNL     1      60.255  88.087  69.317  1.00  0.00    -0.381 OA
ATOM     24  H   UNL     1      60.766  88.506  68.605  1.00  0.00     0.212 HD
ENDBRANCH  16  23
ENDBRANCH   6  15
BRANCH   7  25
ATOM     25  C   UNL     1      62.859  84.107  73.963  1.00  0.00     0.135 C 
BRANCH  25  26
ATOM     26  C   UNL     1      63.469  82.727  73.993  1.00  0.00    -0.040 A 
ATOM     27  C   UNL     1      64.844  82.568  73.820  1.00  0.00     0.004 A 
ATOM     28  C   UNL     1      62.658  81.610  74.194  1.00  0.00     0.004 A 
ATOM     29  C   UNL     1      65.408  81.292  73.847  1.00  0.00     0.000 A 
ATOM     30  C   UNL     1      63.222  80.334  74.222  1.00  0.00     0.000 A 
ATOM     31  C   UNL     1      64.597  80.176  74.048  1.00  0.00     0.000 A 
ENDBRANCH  25  26
ENDBRANCH   7  25
BRANCH  14  32
ATOM     32  C   UNL     1      62.642  82.503  69.836  1.00  0.00    -0.046 C 
ATOM     33  C   UNL     1      62.792  81.296  70.712  1.00  0.00     0.042 C 
ATOM     34  C   UNL     1      62.988  82.485  68.540  1.00  0.00     0.010 C 
ENDBRANCH  14  32
ENDBRANCH   3   4
BRANCH   2  35
ATOM     35  C   UNL     1      61.971  89.492  70.394  1.00  0.00     0.078 CG0
ATOM     36  G   UNL     1      60.672  88.700  70.541  1.00  0.00     0.000 G0
ENDBRANCH   2  35
ENDBRANCH   1   2
BRANCH   1  37
ATOM     37  O   UNL     1      64.625  90.034  71.994  1.00  0.00    -0.461 OA
BRANCH  37  38
ATOM     38  C   UNL     1      65.688  89.499  72.684  1.00  0.00     0.310 C 
ATOM     39  O   UNL     1      66.551  88.780  72.197  1.00  0.00    -0.252 OA
BRANCH  38  40
ATOM     40  C   UNL     1      65.624  89.935  74.128  1.00  0.00     0.158 C 
BRANCH  40  41
ATOM     41  C   UNL     1      65.746  88.786  75.096  1.00  0.00    -0.033 A 
ATOM     42  C   UNL     1      64.606  88.083  75.490  1.00  0.00     0.054 A 
ATOM     43  C   UNL     1      66.996  88.424  75.596  1.00  0.00     0.008 A 
ATOM     44  C   UNL     1      64.719  87.019  76.386  1.00  0.00     0.160 A 
ATOM     45  C   UNL     1      67.109  87.360  76.491  1.00  0.00     0.050 A 
ATOM     46  C   UNL     1      65.970  86.658  76.886  1.00  0.00     0.157 A 
BRANCH  44  47
ATOM     47  O   UNL     1      63.600  86.342  76.764  1.00  0.00    -0.493 OA
ATOM     48  C   UNL     1      62.790  86.940  77.776  1.00  0.00     0.278 C 
ENDBRANCH  44  47
BRANCH  46  49
ATOM     49  O   UNL     1      66.092  85.621  77.760  1.00  0.00    -0.504 OA
ATOM     50  H   UNL     1      66.533  84.879  77.312  1.00  0.00     0.293 HD
ENDBRANCH  46  49
ENDBRANCH  40  41
ENDBRANCH  38  40
ENDBRANCH  37  38
ENDBRANCH   1  37
TORSDOF 11
ENDMDL
MODEL 5
REMARK VINA RESULT:    -5.284     31.081     34.790
REMARK INTER + INTRA:         -11.462
REMARK INTER:                 -10.393
REMARK INTRA:                  -1.069
REMARK UNBOUND:                -2.163
REMARK SMILES C=C(C)[C@]12C[C@@H](C)[C@@]34O[C@](Cc5ccccc5)(O[C@@H]1[C@@H]3C=C(COC(=O)Cc1ccc(O)c(OC)c1)C[C@]1(O)C(=O)C(C)=C[C@@H]41)O2
REMARK SMILES IDX 23 1 22 2 21 3 20 4 9 5 8 6 10 7 6 8 18 9 46 10 19 11 5 12
REMARK SMILES IDX 7 13 4 14 45 15 38 16 44 17 40 18 42 20 41 21 43 22 39 23
REMARK SMILES IDX 11 25 12 26 13 27 17 28 14 29 16 30 15 31 2 32 3 33 1 34
REMARK SMILES IDX 37 35 24 37 25 38 26 39 27 40 28 41 36 42 29 43 33 44 30 45
REMARK SMILES IDX 31 46 34 47 35 48 32 49
REMARK H PARENT 39 24 32 50
REMARK Flexibility Score: 90.00
ROOT
ATOM      1  C   UNL     1      97.097  82.789  81.953  1.00  0.00     0.264 C 
ENDROOT
BRANCH   1   2
ATOM      2  C   UNL     1      96.772  82.814  83.428  1.00  0.00    -0.033 C 
ATOM      3  C   UNL     1      95.567  82.377  83.845  1.00  0.00    -0.015 C 
BRANCH   3   4
ATOM      4  C   UNL     1      94.974  82.371  85.245  1.00  0.00     0.078 C 
ATOM      5  O   UNL     1      95.496  80.166  86.238  1.00  0.00    -0.319 OA
ATOM      6  C   UNL     1      95.744  81.599  86.381  1.00  0.00     0.095 C 
ATOM      7  C   UNL     1      94.134  79.803  85.939  1.00  0.00     0.289 C 
ATOM      8  C   UNL     1      95.170  82.094  87.772  1.00  0.00     0.023 C 
ATOM      9  O   UNL     1      93.683  80.433  84.743  1.00  0.00    -0.320 OA
ATOM     10  O   UNL     1      93.228  80.217  86.957  1.00  0.00    -0.313 OA
ATOM     11  C   UNL     1      93.541  81.784  85.207  1.00  0.00     0.170 C 
ATOM     12  C   UNL     1      93.653  82.446  87.671  1.00  0.00     0.049 C 
ATOM     13  C   UNL     1      95.396  81.140  88.956  1.00  0.00     0.011 C 
ATOM     14  C   UNL     1      92.942  81.590  86.623  1.00  0.00     0.122 C 
BRANCH   6  15
ATOM     15  C   UNL     1      97.283  81.746  86.202  1.00  0.00     0.086 C 
ATOM     16  C   UNL     1      97.794  83.155  85.838  1.00  0.00     0.140 CG0
ATOM     17  C   UNL     1      98.198  81.320  87.316  1.00  0.00    -0.010 C 
ATOM     18  C   UNL     1      99.128  83.213  86.550  1.00  0.00     0.190 C 
ATOM     19  G   UNL     1      97.927  83.348  84.328  1.00  0.00     0.000 G0
ATOM     20  C   UNL     1      99.259  82.108  87.519  1.00  0.00    -0.008 C 
ATOM     21  O   UNL     1      99.976  84.079  86.397  1.00  0.00    -0.291 OA
ATOM     22  C   UNL     1     100.392  81.955  88.454  1.00  0.00     0.048 C 
BRANCH  16  23
ATOM     23  O   UNL     1      97.048  84.206  86.430  1.00  0.00    -0.381 OA
ATOM     24  H   UNL     1      96.259  84.366  85.888  1.00  0.00     0.212 HD
ENDBRANCH  16  23
ENDBRANCH   6  15
BRANCH   7  25
ATOM     25  C   UNL     1      94.067  78.298  85.781  1.00  0.00     0.135 C 
BRANCH  25  26
ATOM     26  C   UNL     1      95.433  77.687  85.592  1.00  0.00    -0.040 A 
ATOM     27  C   UNL     1      96.151  77.229  86.697  1.00  0.00     0.004 A 
ATOM     28  C   UNL     1      95.979  77.580  84.313  1.00  0.00     0.004 A 
ATOM     29  C   UNL     1      97.415  76.664  86.523  1.00  0.00     0.000 A 
ATOM     30  C   UNL     1      97.243  77.015  84.139  1.00  0.00     0.000 A 
ATOM     31  C   UNL     1      97.960  76.558  85.244  1.00  0.00     0.000 A 
ENDBRANCH  25  26
ENDBRANCH   7  25
BRANCH  14  32
ATOM     32  C   UNL     1      91.460  81.780  86.636  1.00  0.00    -0.046 C 
ATOM     33  C   UNL     1      90.841  82.069  87.971  1.00  0.00     0.042 C 
ATOM     34  C   UNL     1      90.725  81.696  85.517  1.00  0.00     0.010 C 
ENDBRANCH  14  32
ENDBRANCH   3   4
BRANCH   2  35
ATOM     35  C   UNL     1      97.909  83.349  84.279  1.00  0.00     0.078 CG0
ATOM     36  G   UNL     1      97.797  83.163  85.791  1.00  0.00     0.000 G0
ENDBRANCH   2  35
ENDBRANCH   1   2
BRANCH   1  37
ATOM     37  O   UNL     1      98.262  82.020  81.745  1.00  0.00    -0.461 OA
BRANCH  37  38
ATOM     38  C   UNL     1      98.912  82.212  80.548  1.00  0.00     0.310 C 
ATOM     39  O   UNL     1     100.089  81.953  80.338  1.00  0.00    -0.252 OA
BRANCH  38  40
ATOM     40  C   UNL     1      97.950  82.791  79.538  1.00  0.00     0.158 C 
BRANCH  40  41
ATOM     41  C   UNL     1      97.941  82.036  78.234  1.00  0.00    -0.033 A 
ATOM     42  C   UNL     1      98.314  82.680  77.053  1.00  0.00     0.054 A 
ATOM     43  C   UNL     1      97.561  80.695  78.207  1.00  0.00     0.008 A 
ATOM     44  C   UNL     1      98.306  81.981  75.846  1.00  0.00     0.160 A 
ATOM     45  C   UNL     1      97.553  79.996  76.999  1.00  0.00     0.050 A 
ATOM     46  C   UNL     1      97.925  80.639  75.819  1.00  0.00     0.157 A 
BRANCH  44  47
ATOM     47  O   UNL     1      98.671  82.620  74.700  1.00  0.00    -0.493 OA
ATOM     48  C   UNL     1      99.683  83.621  74.810  1.00  0.00     0.278 C 
ENDBRANCH  44  47
BRANCH  46  49
ATOM     49  O   UNL     1      97.915  79.947  74.646  1.00  0.00    -0.504 OA
ATOM     50  H   UNL     1      97.043  80.045  74.228  1.00  0.00     0.293 HD
ENDBRANCH  46  49
ENDBRANCH  40  41
ENDBRANCH  38  40
ENDBRANCH  37  38
ENDBRANCH   1  37
TORSDOF 11
ENDMDL
MODEL 6
REMARK VINA RESULT:    -5.131      6.011      7.503
REMARK INTER + INTRA:         -11.195
REMARK INTER:                 -10.073
REMARK INTRA:                  -1.122
REMARK UNBOUND:                -2.163
REMARK SMILES C=C(C)[C@]12C[C@@H](C)[C@@]34O[C@](Cc5ccccc5)(O[C@@H]1[C@@H]3C=C(COC(=O)Cc1ccc(O)c(OC)c1)C[C@]1(O)C(=O)C(C)=C[C@@H]41)O2
REMARK SMILES IDX 23 1 22 2 21 3 20 4 9 5 8 6 10 7 6 8 18 9 46 10 19 11 5 12
REMARK SMILES IDX 7 13 4 14 45 15 38 16 44 17 40 18 42 20 41 21 43 22 39 23
REMARK SMILES IDX 11 25 12 26 13 27 17 28 14 29 16 30 15 31 2 32 3 33 1 34
REMARK SMILES IDX 37 35 24 37 25 38 26 39 27 40 28 41 36 42 29 43 33 44 30 45
REMARK SMILES IDX 31 46 34 47 35 48 32 49
REMARK H PARENT 39 24 32 50
REMARK Flexibility Score: 90.00
ROOT
ATOM      1  C   UNL     1      59.602  90.236  69.315  1.00  0.00     0.264 C 
ENDROOT
BRANCH   1   2
ATOM      2  C   UNL     1      60.740  89.299  68.981  1.00  0.00    -0.033 C 
ATOM      3  C   UNL     1      61.512  88.819  69.977  1.00  0.00    -0.015 C 
BRANCH   3   4
ATOM      4  C   UNL     1      62.747  87.936  69.899  1.00  0.00     0.078 C 
ATOM      5  O   UNL     1      61.970  85.594  70.075  1.00  0.00    -0.319 OA
ATOM      6  C   UNL     1      62.627  86.542  69.178  1.00  0.00     0.095 C 
ATOM      7  C   UNL     1      62.406  85.641  71.447  1.00  0.00     0.289 C 
ATOM      8  C   UNL     1      64.095  86.036  68.864  1.00  0.00     0.023 C 
ATOM      9  O   UNL     1      62.229  86.943  72.001  1.00  0.00    -0.320 OA
ATOM     10  O   UNL     1      63.794  85.351  71.585  1.00  0.00    -0.313 OA
ATOM     11  C   UNL     1      63.279  87.650  71.325  1.00  0.00     0.170 C 
ATOM     12  C   UNL     1      65.104  86.495  69.961  1.00  0.00     0.049 C 
ATOM     13  C   UNL     1      64.237  84.521  68.641  1.00  0.00     0.011 C 
ATOM     14  C   UNL     1      64.435  86.618  71.331  1.00  0.00     0.122 C 
BRANCH   6  15
ATOM     15  C   UNL     1      61.675  86.636  67.950  1.00  0.00     0.086 C 
ATOM     16  C   UNL     1      61.840  87.883  67.056  1.00  0.00     0.140 CG0
ATOM     17  C   UNL     1      61.631  85.503  66.964  1.00  0.00    -0.010 C 
ATOM     18  C   UNL     1      61.532  87.339  65.677  1.00  0.00     0.190 C 
ATOM     19  G   UNL     1      60.897  89.014  67.463  1.00  0.00     0.000 G0
ATOM     20  C   UNL     1      61.523  85.864  65.681  1.00  0.00    -0.008 C 
ATOM     21  O   UNL     1      61.362  88.012  64.672  1.00  0.00    -0.291 OA
ATOM     22  C   UNL     1      61.371  85.034  64.468  1.00  0.00     0.048 C 
BRANCH  16  23
ATOM     23  O   UNL     1      63.179  88.339  66.949  1.00  0.00    -0.381 OA
ATOM     24  H   UNL     1      63.233  89.227  67.339  1.00  0.00     0.212 HD
ENDBRANCH  16  23
ENDBRANCH   6  15
BRANCH   7  25
ATOM     25  C   UNL     1      61.597  84.633  72.238  1.00  0.00     0.135 C 
BRANCH  25  26
ATOM     26  C   UNL     1      62.342  83.336  72.430  1.00  0.00    -0.040 A 
ATOM     27  C   UNL     1      62.748  82.948  73.708  1.00  0.00     0.004 A 
ATOM     28  C   UNL     1      62.625  82.524  71.332  1.00  0.00     0.004 A 
ATOM     29  C   UNL     1      63.438  81.748  73.886  1.00  0.00     0.000 A 
ATOM     30  C   UNL     1      63.314  81.324  71.510  1.00  0.00     0.000 A 
ATOM     31  C   UNL     1      63.720  80.937  72.787  1.00  0.00     0.000 A 
ENDBRANCH  25  26
ENDBRANCH   7  25
BRANCH  14  32
ATOM     32  C   UNL     1      65.414  86.878  72.428  1.00  0.00    -0.046 C 
ATOM     33  C   UNL     1      66.497  87.872  72.127  1.00  0.00     0.042 C 
ATOM     34  C   UNL     1      65.332  86.259  73.615  1.00  0.00     0.010 C 
ENDBRANCH  14  32
ENDBRANCH   3   4
BRANCH   2  35
ATOM     35  C   UNL     1      60.855  89.009  67.497  1.00  0.00     0.078 CG0
ATOM     36  G   UNL     1      61.812  87.895  67.075  1.00  0.00     0.000 G0
ENDBRANCH   2  35
ENDBRANCH   1   2
BRANCH   1  37
ATOM     37  O   UNL     1      58.888  89.728  70.422  1.00  0.00    -0.461 OA
BRANCH  37  38
ATOM     38  C   UNL     1      57.726  89.049  70.137  1.00  0.00     0.310 C 
ATOM     39  O   UNL     1      57.666  87.887  69.760  1.00  0.00    -0.252 OA
BRANCH  38  40
ATOM     40  C   UNL     1      56.542  89.960  70.360  1.00  0.00     0.158 C 
BRANCH  40  41
ATOM     41  C   UNL     1      55.870  90.376  69.077  1.00  0.00    -0.033 A 
ATOM     42  C   UNL     1      56.121  89.672  67.899  1.00  0.00     0.054 A 
ATOM     43  C   UNL     1      54.997  91.463  69.068  1.00  0.00     0.008 A 
ATOM     44  C   UNL     1      55.498  90.057  66.711  1.00  0.00     0.160 A 
ATOM     45  C   UNL     1      54.374  91.848  67.880  1.00  0.00     0.050 A 
ATOM     46  C   UNL     1      54.625  91.145  66.702  1.00  0.00     0.157 A 
BRANCH  44  47
ATOM     47  O   UNL     1      55.751  89.362  65.567  1.00  0.00    -0.493 OA
ATOM     48  C   UNL     1      55.152  88.073  65.445  1.00  0.00     0.278 C 
ENDBRANCH  44  47
BRANCH  46  49
ATOM     49  O   UNL     1      54.011  91.529  65.548  1.00  0.00    -0.504 OA
ATOM     50  H   UNL     1      54.306  90.951  64.825  1.00  0.00     0.293 HD
ENDBRANCH  46  49
ENDBRANCH  40  41
ENDBRANCH  38  40
ENDBRANCH  37  38
ENDBRANCH   1  37
TORSDOF 11
ENDMDL
MODEL 7
REMARK VINA RESULT:    -5.095      3.236      7.134
REMARK INTER + INTRA:         -11.131
REMARK INTER:                  -9.474
REMARK INTRA:                  -1.657
REMARK UNBOUND:                -2.163
REMARK SMILES C=C(C)[C@]12C[C@@H](C)[C@@]34O[C@](Cc5ccccc5)(O[C@@H]1[C@@H]3C=C(COC(=O)Cc1ccc(O)c(OC)c1)C[C@]1(O)C(=O)C(C)=C[C@@H]41)O2
REMARK SMILES IDX 23 1 22 2 21 3 20 4 9 5 8 6 10 7 6 8 18 9 46 10 19 11 5 12
REMARK SMILES IDX 7 13 4 14 45 15 38 16 44 17 40 18 42 20 41 21 43 22 39 23
REMARK SMILES IDX 11 25 12 26 13 27 17 28 14 29 16 30 15 31 2 32 3 33 1 34
REMARK SMILES IDX 37 35 24 37 25 38 26 39 27 40 28 41 36 42 29 43 33 44 30 45
REMARK SMILES IDX 31 46 34 47 35 48 32 49
REMARK H PARENT 39 24 32 50
REMARK Flexibility Score: 90.00
ROOT
ATOM      1  C   UNL     1      64.591  87.906  70.466  1.00  0.00     0.264 C 
ENDROOT
BRANCH   1   2
ATOM      2  C   UNL     1      63.670  87.154  71.399  1.00  0.00    -0.033 C 
ATOM      3  C   UNL     1      64.169  86.158  72.158  1.00  0.00    -0.015 C 
BRANCH   3   4
ATOM      4  C   UNL     1      63.448  85.212  73.104  1.00  0.00     0.078 C 
ATOM      5  O   UNL     1      63.514  86.251  75.349  1.00  0.00    -0.319 OA
ATOM      6  C   UNL     1      62.607  85.830  74.283  1.00  0.00     0.095 C 
ATOM      7  C   UNL     1      64.579  85.330  75.651  1.00  0.00     0.289 C 
ATOM      8  C   UNL     1      61.645  84.697  74.832  1.00  0.00     0.023 C 
ATOM      9  O   UNL     1      65.374  85.062  74.499  1.00  0.00    -0.320 OA
ATOM     10  O   UNL     1      64.091  84.063  76.086  1.00  0.00    -0.313 OA
ATOM     11  C   UNL     1      64.464  84.239  73.751  1.00  0.00     0.170 C 
ATOM     12  C   UNL     1      62.303  83.287  74.722  1.00  0.00     0.049 C 
ATOM     13  C   UNL     1      61.124  84.909  76.263  1.00  0.00     0.011 C 
ATOM     14  C   UNL     1      63.824  83.361  74.855  1.00  0.00     0.122 C 
BRANCH   6  15
ATOM     15  C   UNL     1      61.904  87.143  73.830  1.00  0.00     0.086 C 
ATOM     16  C   UNL     1      61.262  87.122  72.427  1.00  0.00     0.140 CG0
ATOM     17  C   UNL     1      60.830  87.740  74.697  1.00  0.00    -0.010 C 
ATOM     18  C   UNL     1      60.050  88.009  72.610  1.00  0.00     0.190 C 
ATOM     19  G   UNL     1      62.213  87.643  71.351  1.00  0.00     0.000 G0
ATOM     20  C   UNL     1      59.788  88.260  74.040  1.00  0.00    -0.008 C 
ATOM     21  O   UNL     1      59.338  88.430  71.710  1.00  0.00    -0.291 OA
ATOM     22  C   UNL     1      58.609  88.989  74.551  1.00  0.00     0.048 C 
BRANCH  16  23
ATOM     23  O   UNL     1      60.712  85.866  72.067  1.00  0.00    -0.381 OA
ATOM     24  H   UNL     1      59.777  85.995  71.837  1.00  0.00     0.212 HD
ENDBRANCH  16  23
ENDBRANCH   6  15
BRANCH   7  25
ATOM     25  C   UNL     1      65.441  85.940  76.737  1.00  0.00     0.135 C 
BRANCH  25  26
ATOM     26  C   UNL     1      65.836  87.360  76.415  1.00  0.00    -0.040 A 
ATOM     27  C   UNL     1      65.438  88.402  77.254  1.00  0.00     0.004 A 
ATOM     28  C   UNL     1      66.599  87.632  75.280  1.00  0.00     0.004 A 
ATOM     29  C   UNL     1      65.802  89.715  76.956  1.00  0.00     0.000 A 
ATOM     30  C   UNL     1      66.964  88.945  74.982  1.00  0.00     0.000 A 
ATOM     31  C   UNL     1      66.565  89.987  75.821  1.00  0.00     0.000 A 
ENDBRANCH  25  26
ENDBRANCH   7  25
BRANCH  14  32
ATOM     32  C   UNL     1      64.460  82.011  74.936  1.00  0.00    -0.046 C 
ATOM     33  C   UNL     1      65.164  81.535  73.700  1.00  0.00     0.042 C 
ATOM     34  C   UNL     1      64.404  81.266  76.051  1.00  0.00     0.010 C 
ENDBRANCH  14  32
ENDBRANCH   3   4
BRANCH   2  35
ATOM     35  C   UNL     1      62.239  87.657  71.354  1.00  0.00     0.078 CG0
ATOM     36  G   UNL     1      61.285  87.147  72.433  1.00  0.00     0.000 G0
ENDBRANCH   2  35
ENDBRANCH   1   2
BRANCH   1  37
ATOM     37  O   UNL     1      63.883  88.265  69.299  1.00  0.00    -0.461 OA
BRANCH  37  38
ATOM     38  C   UNL     1      63.795  87.302  68.321  1.00  0.00     0.310 C 
ATOM     39  O   UNL     1      62.920  87.245  67.468  1.00  0.00    -0.252 OA
BRANCH  38  40
ATOM     40  C   UNL     1      64.943  86.331  68.463  1.00  0.00     0.158 C 
BRANCH  40  41
ATOM     41  C   UNL     1      64.532  84.898  68.241  1.00  0.00    -0.033 A 
ATOM     42  C   UNL     1      63.533  84.329  69.031  1.00  0.00     0.054 A 
ATOM     43  C   UNL     1      65.150  84.142  67.246  1.00  0.00     0.008 A 
ATOM     44  C   UNL     1      63.153  83.002  68.826  1.00  0.00     0.160 A 
ATOM     45  C   UNL     1      64.770  82.815  67.040  1.00  0.00     0.050 A 
ATOM     46  C   UNL     1      63.772  82.246  67.830  1.00  0.00     0.157 A 
BRANCH  44  47
ATOM     47  O   UNL     1      62.177  82.457  69.604  1.00  0.00    -0.493 OA
ATOM     48  C   UNL     1      62.536  82.097  70.937  1.00  0.00     0.278 C 
ENDBRANCH  44  47
BRANCH  46  49
ATOM     49  O   UNL     1      63.408  80.950  67.619  1.00  0.00    -0.504 OA
ATOM     50  H   UNL     1      64.201  80.390  67.648  1.00  0.00     0.293 HD
ENDBRANCH  46  49
ENDBRANCH  40  41
ENDBRANCH  38  40
ENDBRANCH  37  38
ENDBRANCH   1  37
TORSDOF 11
ENDMDL
MODEL 8
REMARK VINA RESULT:    -4.845     21.500     25.198
REMARK INTER + INTRA:         -10.690
REMARK INTER:                  -9.137
REMARK INTRA:                  -1.554
REMARK UNBOUND:                -2.163
REMARK SMILES C=C(C)[C@]12C[C@@H](C)[C@@]34O[C@](Cc5ccccc5)(O[C@@H]1[C@@H]3C=C(COC(=O)Cc1ccc(O)c(OC)c1)C[C@]1(O)C(=O)C(C)=C[C@@H]41)O2
REMARK SMILES IDX 23 1 22 2 21 3 20 4 9 5 8 6 10 7 6 8 18 9 46 10 19 11 5 12
REMARK SMILES IDX 7 13 4 14 45 15 38 16 44 17 40 18 42 20 41 21 43 22 39 23
REMARK SMILES IDX 11 25 12 26 13 27 17 28 14 29 16 30 15 31 2 32 3 33 1 34
REMARK SMILES IDX 37 35 24 37 25 38 26 39 27 40 28 41 36 42 29 43 33 44 30 45
REMARK SMILES IDX 31 46 34 47 35 48 32 49
REMARK H PARENT 39 24 32 50
REMARK Flexibility Score: 90.00
ROOT
ATOM      1  C   UNL     1      82.119  94.725  93.176  1.00  0.00     0.264 C 
ENDROOT
BRANCH   1   2
ATOM      2  C   UNL     1      82.285  93.223  93.191  1.00  0.00    -0.033 C 
ATOM      3  C   UNL     1      81.738  92.489  92.201  1.00  0.00    -0.015 C 
BRANCH   3   4
ATOM      4  C   UNL     1      81.697  90.980  92.029  1.00  0.00     0.078 C 
ATOM      5  O   UNL     1      83.666  90.355  90.668  1.00  0.00    -0.319 OA
ATOM      6  C   UNL     1      83.060  90.193  91.988  1.00  0.00     0.095 C 
ATOM      7  C   UNL     1      82.757  90.248  89.555  1.00  0.00     0.289 C 
ATOM      8  C   UNL     1      82.737  88.661  92.231  1.00  0.00     0.023 C 
ATOM      9  O   UNL     1      81.701  91.200  89.657  1.00  0.00    -0.320 OA
ATOM     10  O   UNL     1      82.122  88.974  89.496  1.00  0.00    -0.313 OA
ATOM     11  C   UNL     1      80.940  90.619  90.727  1.00  0.00     0.170 C 
ATOM     12  C   UNL     1      81.352  88.267  91.633  1.00  0.00     0.049 C 
ATOM     13  C   UNL     1      83.807  87.674  91.736  1.00  0.00     0.011 C 
ATOM     14  C   UNL     1      81.008  89.106  90.402  1.00  0.00     0.122 C 
BRANCH   6  15
ATOM     15  C   UNL     1      84.091  90.823  92.969  1.00  0.00     0.086 C 
ATOM     16  C   UNL     1      83.547  91.240  94.351  1.00  0.00     0.140 CG0
ATOM     17  C   UNL     1      85.348  90.069  93.300  1.00  0.00    -0.010 C 
ATOM     18  C   UNL     1      84.726  90.967  95.261  1.00  0.00     0.190 C 
ATOM     19  G   UNL     1      83.111  92.705  94.382  1.00  0.00     0.000 G0
ATOM     20  C   UNL     1      85.746  90.153  94.574  1.00  0.00    -0.008 C 
ATOM     21  O   UNL     1      84.817  91.319  96.427  1.00  0.00    -0.291 OA
ATOM     22  C   UNL     1      86.958  89.619  95.229  1.00  0.00     0.048 C 
BRANCH  16  23
ATOM     23  O   UNL     1      82.530  90.387  94.849  1.00  0.00    -0.381 OA
ATOM     24  H   UNL     1      81.927  90.916  95.397  1.00  0.00     0.212 HD
ENDBRANCH  16  23
ENDBRANCH   6  15
BRANCH   7  25
ATOM     25  C   UNL     1      83.539  90.485  88.279  1.00  0.00     0.135 C 
BRANCH  25  26
ATOM     26  C   UNL     1      82.852  89.887  87.077  1.00  0.00    -0.040 A 
ATOM     27  C   UNL     1      81.623  90.394  86.652  1.00  0.00     0.004 A 
ATOM     28  C   UNL     1      83.445  88.830  86.388  1.00  0.00     0.004 A 
ATOM     29  C   UNL     1      80.987  89.842  85.540  1.00  0.00     0.000 A 
ATOM     30  C   UNL     1      82.809  88.277  85.276  1.00  0.00     0.000 A 
ATOM     31  C   UNL     1      81.580  88.784  84.852  1.00  0.00     0.000 A 
ENDBRANCH  25  26
ENDBRANCH   7  25
BRANCH  14  32
ATOM     32  C   UNL     1      79.776  88.626  89.705  1.00  0.00    -0.046 C 
ATOM     33  C   UNL     1      78.471  89.132  90.244  1.00  0.00     0.042 C 
ATOM     34  C   UNL     1      79.833  87.790  88.658  1.00  0.00     0.010 C 
ENDBRANCH  14  32
ENDBRANCH   3   4
BRANCH   2  35
ATOM     35  C   UNL     1      83.091  92.726  94.376  1.00  0.00     0.078 CG0
ATOM     36  G   UNL     1      83.546  91.268  94.350  1.00  0.00     0.000 G0
ENDBRANCH   2  35
ENDBRANCH   1   2
BRANCH   1  37
ATOM     37  O   UNL     1      80.772  95.043  92.899  1.00  0.00    -0.461 OA
BRANCH  37  38
ATOM     38  C   UNL     1      80.560  96.093  92.035  1.00  0.00     0.310 C 
ATOM     39  O   UNL     1      79.470  96.428  91.591  1.00  0.00    -0.252 OA
BRANCH  38  40
ATOM     40  C   UNL     1      81.877  96.763  91.723  1.00  0.00     0.158 C 
BRANCH  40  41
ATOM     41  C   UNL     1      82.325  96.545  90.301  1.00  0.00    -0.033 A 
ATOM     42  C   UNL     1      81.722  97.256  89.263  1.00  0.00     0.054 A 
ATOM     43  C   UNL     1      83.344  95.634  90.022  1.00  0.00     0.008 A 
ATOM     44  C   UNL     1      82.137  97.054  87.946  1.00  0.00     0.160 A 
ATOM     45  C   UNL     1      83.759  95.432  88.706  1.00  0.00     0.050 A 
ATOM     46  C   UNL     1      83.155  96.142  87.668  1.00  0.00     0.157 A 
BRANCH  44  47
ATOM     47  O   UNL     1      81.540  97.754  86.941  1.00  0.00    -0.493 OA
ATOM     48  C   UNL     1      80.145  98.021  87.077  1.00  0.00     0.278 C 
ENDBRANCH  44  47
BRANCH  46  49
ATOM     49  O   UNL     1      83.570  95.937  86.387  1.00  0.00    -0.504 OA
ATOM     50  H   UNL     1      83.797  96.794  85.987  1.00  0.00     0.293 HD
ENDBRANCH  46  49
ENDBRANCH  40  41
ENDBRANCH  38  40
ENDBRANCH  37  38
ENDBRANCH   1  37
TORSDOF 11
ENDMDL
MODEL 9
REMARK VINA RESULT:    -4.811      2.842      5.675
REMARK INTER + INTRA:         -10.630
REMARK INTER:                 -10.254
REMARK INTRA:                  -0.376
REMARK UNBOUND:                -2.163
REMARK SMILES C=C(C)[C@]12C[C@@H](C)[C@@]34O[C@](Cc5ccccc5)(O[C@@H]1[C@@H]3C=C(COC(=O)Cc1ccc(O)c(OC)c1)C[C@]1(O)C(=O)C(C)=C[C@@H]41)O2
REMARK SMILES IDX 23 1 22 2 21 3 20 4 9 5 8 6 10 7 6 8 18 9 46 10 19 11 5 12
REMARK SMILES IDX 7 13 4 14 45 15 38 16 44 17 40 18 42 20 41 21 43 22 39 23
REMARK SMILES IDX 11 25 12 26 13 27 17 28 14 29 16 30 15 31 2 32 3 33 1 34
REMARK SMILES IDX 37 35 24 37 25 38 26 39 27 40 28 41 36 42 29 43 33 44 30 45
REMARK SMILES IDX 31 46 34 47 35 48 32 49
REMARK H PARENT 39 24 32 50
REMARK Flexibility Score: 90.00
ROOT
ATOM      1  C   UNL     1      62.963  88.524  79.323  1.00  0.00     0.264 C 
ENDROOT
BRANCH   1   2
ATOM      2  C   UNL     1      63.736  88.042  78.117  1.00  0.00    -0.033 C 
ATOM      3  C   UNL     1      63.429  86.848  77.572  1.00  0.00    -0.015 C 
BRANCH   3   4
ATOM      4  C   UNL     1      64.097  86.112  76.422  1.00  0.00     0.078 C 
ATOM      5  O   UNL     1      62.933  86.804  74.351  1.00  0.00    -0.319 OA
ATOM      6  C   UNL     1      64.223  86.848  75.035  1.00  0.00     0.095 C 
ATOM      7  C   UNL     1      62.242  85.542  74.418  1.00  0.00     0.289 C 
ATOM      8  C   UNL     1      65.299  86.066  74.174  1.00  0.00     0.023 C 
ATOM      9  O   UNL     1      62.020  85.145  75.769  1.00  0.00    -0.320 OA
ATOM     10  O   UNL     1      62.990  84.484  73.825  1.00  0.00    -0.313 OA
ATOM     11  C   UNL     1      63.356  84.780  76.148  1.00  0.00     0.170 C 
ATOM     12  C   UNL     1      65.276  84.537  74.481  1.00  0.00     0.049 C 
ATOM     13  C   UNL     1      65.213  86.283  72.655  1.00  0.00     0.011 C 
ATOM     14  C   UNL     1      63.878  84.061  74.879  1.00  0.00     0.122 C 
BRANCH   6  15
ATOM     15  C   UNL     1      64.504  88.365  75.239  1.00  0.00     0.086 C 
ATOM     16  C   UNL     1      65.514  88.727  76.348  1.00  0.00     0.140 CG0
ATOM     17  C   UNL     1      64.957  89.193  74.070  1.00  0.00    -0.010 C 
ATOM     18  C   UNL     1      66.197  89.952  75.779  1.00  0.00     0.190 C 
ATOM     19  G   UNL     1      64.828  89.006  77.684  1.00  0.00     0.000 G0
ATOM     20  C   UNL     1      65.887  90.113  74.346  1.00  0.00    -0.008 C 
ATOM     21  O   UNL     1      66.949  90.693  76.394  1.00  0.00    -0.291 OA
ATOM     22  C   UNL     1      66.495  91.142  73.477  1.00  0.00     0.048 C 
BRANCH  16  23
ATOM     23  O   UNL     1      66.567  87.789  76.493  1.00  0.00    -0.381 OA
ATOM     24  H   UNL     1      67.376  88.175  76.118  1.00  0.00     0.212 HD
ENDBRANCH  16  23
ENDBRANCH   6  15
BRANCH   7  25
ATOM     25  C   UNL     1      60.915  85.688  73.702  1.00  0.00     0.135 C 
BRANCH  25  26
ATOM     26  C   UNL     1      61.016  85.316  72.244  1.00  0.00    -0.040 A 
ATOM     27  C   UNL     1      60.287  84.234  71.748  1.00  0.00     0.004 A 
ATOM     28  C   UNL     1      61.835  86.054  71.390  1.00  0.00     0.004 A 
ATOM     29  C   UNL     1      60.380  83.889  70.399  1.00  0.00     0.000 A 
ATOM     30  C   UNL     1      61.928  85.709  70.041  1.00  0.00     0.000 A 
ATOM     31  C   UNL     1      61.200  84.627  69.547  1.00  0.00     0.000 A 
ENDBRANCH  25  26
ENDBRANCH   7  25
BRANCH  14  32
ATOM     32  C   UNL     1      63.791  82.575  75.001  1.00  0.00    -0.046 C 
ATOM     33  C   UNL     1      63.261  81.842  73.804  1.00  0.00     0.042 C 
ATOM     34  C   UNL     1      64.165  81.931  76.117  1.00  0.00     0.010 C 
ENDBRANCH  14  32
ENDBRANCH   3   4
BRANCH   2  35
ATOM     35  C   UNL     1      64.800  89.023  77.662  1.00  0.00     0.078 CG0
ATOM     36  G   UNL     1      65.523  88.711  76.352  1.00  0.00     0.000 G0
ENDBRANCH   2  35
ENDBRANCH   1   2
BRANCH   1  37
ATOM     37  O   UNL     1      63.556  88.009  80.495  1.00  0.00    -0.461 OA
BRANCH  37  38
ATOM     38  C   UNL     1      63.091  88.516  81.686  1.00  0.00     0.310 C 
ATOM     39  O   UNL     1      62.776  89.683  81.877  1.00  0.00    -0.252 OA
BRANCH  38  40
ATOM     40  C   UNL     1      63.032  87.413  82.716  1.00  0.00     0.158 C 
BRANCH  40  41
ATOM     41  C   UNL     1      64.292  86.587  82.766  1.00  0.00    -0.033 A 
ATOM     42  C   UNL     1      64.919  86.200  81.582  1.00  0.00     0.054 A 
ATOM     43  C   UNL     1      64.831  86.211  83.996  1.00  0.00     0.008 A 
ATOM     44  C   UNL     1      66.086  85.436  81.628  1.00  0.00     0.160 A 
ATOM     45  C   UNL     1      65.997  85.447  84.043  1.00  0.00     0.050 A 
ATOM     46  C   UNL     1      66.624  85.059  82.860  1.00  0.00     0.157 A 
BRANCH  44  47
ATOM     47  O   UNL     1      66.689  85.063  80.466  1.00  0.00    -0.493 OA
ATOM     48  C   UNL     1      67.260  86.101  79.670  1.00  0.00     0.278 C 
ENDBRANCH  44  47
BRANCH  46  49
ATOM     49  O   UNL     1      67.763  84.314  82.917  1.00  0.00    -0.504 OA
ATOM     50  H   UNL     1      67.529  83.373  82.850  1.00  0.00     0.293 HD
ENDBRANCH  46  49
ENDBRANCH  40  41
ENDBRANCH  38  40
ENDBRANCH  37  38
ENDBRANCH   1  37
TORSDOF 11
ENDMDL
MODEL 10
REMARK VINA RESULT:    -4.774      2.782      7.309
REMARK INTER + INTRA:         -10.566
REMARK INTER:                  -9.004
REMARK INTRA:                  -1.562
REMARK UNBOUND:                -2.163
REMARK SMILES C=C(C)[C@]12C[C@@H](C)[C@@]34O[C@](Cc5ccccc5)(O[C@@H]1[C@@H]3C=C(COC(=O)Cc1ccc(O)c(OC)c1)C[C@]1(O)C(=O)C(C)=C[C@@H]41)O2
REMARK SMILES IDX 23 1 22 2 21 3 20 4 9 5 8 6 10 7 6 8 18 9 46 10 19 11 5 12
REMARK SMILES IDX 7 13 4 14 45 15 38 16 44 17 40 18 42 20 41 21 43 22 39 23
REMARK SMILES IDX 11 25 12 26 13 27 17 28 14 29 16 30 15 31 2 32 3 33 1 34
REMARK SMILES IDX 37 35 24 37 25 38 26 39 27 40 28 41 36 42 29 43 33 44 30 45
REMARK SMILES IDX 31 46 34 47 35 48 32 49
REMARK H PARENT 39 24 32 50
REMARK Flexibility Score: 90.00
ROOT
ATOM      1  C   UNL     1      60.901  86.889  70.028  1.00  0.00     0.264 C 
ENDROOT
BRANCH   1   2
ATOM      2  C   UNL     1      60.941  86.641  71.518  1.00  0.00    -0.033 C 
ATOM      3  C   UNL     1      61.673  85.616  71.997  1.00  0.00    -0.015 C 
BRANCH   3   4
ATOM      4  C   UNL     1      61.814  85.116  73.426  1.00  0.00     0.078 C 
ATOM      5  O   UNL     1      63.783  86.256  74.397  1.00  0.00    -0.319 OA
ATOM      6  C   UNL     1      62.334  86.119  74.522  1.00  0.00     0.095 C 
ATOM      7  C   UNL     1      64.501  85.029  74.169  1.00  0.00     0.289 C 
ATOM      8  C   UNL     1      61.987  85.501  75.940  1.00  0.00     0.023 C 
ATOM      9  O   UNL     1      64.034  84.367  72.996  1.00  0.00    -0.320 OA
ATOM     10  O   UNL     1      64.328  84.095  75.232  1.00  0.00    -0.313 OA
ATOM     11  C   UNL     1      62.762  83.892  73.463  1.00  0.00     0.170 C 
ATOM     12  C   UNL     1      62.055  83.943  75.917  1.00  0.00     0.049 C 
ATOM     13  C   UNL     1      62.827  86.032  77.114  1.00  0.00     0.011 C 
ATOM     14  C   UNL     1      63.086  83.437  74.908  1.00  0.00     0.122 C 
BRANCH   6  15
ATOM     15  C   UNL     1      61.784  87.552  74.264  1.00  0.00     0.086 C 
ATOM     16  C   UNL     1      60.299  87.647  73.857  1.00  0.00     0.140 CG0
ATOM     17  C   UNL     1      61.921  88.597  75.336  1.00  0.00    -0.010 C 
ATOM     18  C   UNL     1      59.868  88.948  74.501  1.00  0.00     0.190 C 
ATOM     19  G   UNL     1      60.116  87.655  72.341  1.00  0.00     0.000 G0
ATOM     20  C   UNL     1      60.872  89.415  75.475  1.00  0.00    -0.008 C 
ATOM     21  O   UNL     1      58.810  89.524  74.294  1.00  0.00    -0.291 OA
ATOM     22  C   UNL     1      60.691  90.589  76.353  1.00  0.00     0.048 C 
BRANCH  16  23
ATOM     23  O   UNL     1      59.472  86.674  74.473  1.00  0.00    -0.381 OA
ATOM     24  H   UNL     1      58.555  86.828  74.192  1.00  0.00     0.212 HD
ENDBRANCH  16  23
ENDBRANCH   6  15
BRANCH   7  25
ATOM     25  C   UNL     1      65.972  85.359  74.019  1.00  0.00     0.135 C 
BRANCH  25  26
ATOM     26  C   UNL     1      66.346  86.622  74.755  1.00  0.00    -0.040 A 
ATOM     27  C   UNL     1      66.509  86.599  76.140  1.00  0.00     0.004 A 
ATOM     28  C   UNL     1      66.529  87.811  74.051  1.00  0.00     0.004 A 
ATOM     29  C   UNL     1      66.854  87.767  76.821  1.00  0.00     0.000 A 
ATOM     30  C   UNL     1      66.875  88.979  74.732  1.00  0.00     0.000 A 
ATOM     31  C   UNL     1      67.037  88.956  76.117  1.00  0.00     0.000 A 
ENDBRANCH  25  26
ENDBRANCH   7  25
BRANCH  14  32
ATOM     32  C   UNL     1      63.299  81.961  74.997  1.00  0.00    -0.046 C 
ATOM     33  C   UNL     1      62.519  81.120  74.031  1.00  0.00     0.042 C 
ATOM     34  C   UNL     1      64.140  81.418  75.890  1.00  0.00     0.010 C 
ENDBRANCH  14  32
ENDBRANCH   3   4
BRANCH   2  35
ATOM     35  C   UNL     1      60.114  87.638  72.309  1.00  0.00     0.078 CG0
ATOM     36  G   UNL     1      60.288  87.642  73.827  1.00  0.00     0.000 G0
ENDBRANCH   2  35
ENDBRANCH   1   2
BRANCH   1  37
ATOM     37  O   UNL     1      62.205  86.772  69.501  1.00  0.00    -0.461 OA
BRANCH  37  38
ATOM     38  C   UNL     1      62.907  87.946  69.349  1.00  0.00     0.310 C 
ATOM     39  O   UNL     1      62.923  88.864  70.156  1.00  0.00    -0.252 OA
BRANCH  38  40
ATOM     40  C   UNL     1      63.651  87.921  68.035  1.00  0.00     0.158 C 
BRANCH  40  41
ATOM     41  C   UNL     1      65.069  87.428  68.171  1.00  0.00    -0.033 A 
ATOM     42  C   UNL     1      65.366  86.087  67.927  1.00  0.00     0.054 A 
ATOM     43  C   UNL     1      66.083  88.312  68.538  1.00  0.00     0.008 A 
ATOM     44  C   UNL     1      66.679  85.630  68.053  1.00  0.00     0.160 A 
ATOM     45  C   UNL     1      67.395  87.855  68.664  1.00  0.00     0.050 A 
ATOM     46  C   UNL     1      67.693  86.515  68.422  1.00  0.00     0.157 A 
BRANCH  44  47
ATOM     47  O   UNL     1      66.957  84.318  67.814  1.00  0.00    -0.493 OA
ATOM     48  C   UNL     1      67.461  83.988  66.521  1.00  0.00     0.278 C 
ENDBRANCH  44  47
BRANCH  46  49
ATOM     49  O   UNL     1      68.978  86.080  68.547  1.00  0.00    -0.504 OA
ATOM     50  H   UNL     1      69.015  85.397  69.238  1.00  0.00     0.293 HD
ENDBRANCH  46  49
ENDBRANCH  40  41
ENDBRANCH  38  40
ENDBRANCH  37  38
ENDBRANCH   1  37
TORSDOF 11
ENDMDL
