MODEL 1
REMARK VINA RESULT:    -7.109      0.000      0.000
REMARK INTER + INTRA:         -13.562
REMARK INTER:                 -12.096
REMARK INTRA:                  -1.466
REMARK UNBOUND:                -1.466
REMARK SMILES C=C(C)[C@]12C[C@@H](C)[C@@]34O[C@](Cc5ccccc5)(O[C@@H]1[C@@H]3C=C(COC(=O)Cc1ccc(O)cc1)C[C@]1(O)C(=O)C(C)=C[C@@H]41)O2
REMARK SMILES IDX 23 1 22 2 21 3 20 4 9 5 8 6 10 7 6 8 18 10 44 11 19 12 5 13
REMARK SMILES IDX 7 14 4 15 11 16 12 17 13 18 17 19 14 20 16 21 15 22 2 23
REMARK SMILES IDX 3 24 1 25 35 26 36 27 43 28 38 29 42 30 39 32 40 33 41 34
REMARK SMILES IDX 37 35 24 37 25 38 26 39 27 40 28 41 29 42 34 43 30 44 33 45
REMARK SMILES IDX 31 46 32 47
REMARK H PARENT 37 36 32 48
REMARK Flexibility Score: 90.00
ROOT
ATOM      1  C   UNL     1      78.450  92.806  90.798  1.00  0.00     0.264 C 
ENDROOT
BRANCH   1   2
ATOM      2  C   UNL     1      78.677  91.392  90.318  1.00  0.00    -0.033 C 
ATOM      3  C   UNL     1      79.357  91.186  89.171  1.00  0.00    -0.015 C 
BRANCH   3   4
ATOM      4  C   UNL     1      79.650  89.884  88.443  1.00  0.00     0.078 C 
ATOM      5  O   UNL     1      81.855  89.095  89.237  1.00  0.00    -0.319 OA
ATOM      6  C   UNL     1      80.433  88.757  89.211  1.00  0.00     0.095 CG0
ATOM      7  C   UNL     1      82.389  89.608  88.001  1.00  0.00     0.289 C 
ATOM      8  C   UNL     1      80.232  87.404  88.412  1.00  0.00     0.023 C 
ATOM      9  G   UNL     1      80.016  88.717  90.710  1.00  0.00     0.000 G0
ATOM     10  O   UNL     1      81.684  90.771  87.576  1.00  0.00    -0.320 OA
ATOM     11  O   UNL     1      82.271  88.673  86.931  1.00  0.00    -0.313 OA
ATOM     12  C   UNL     1      80.450  90.174  87.148  1.00  0.00     0.170 C 
ATOM     13  C   UNL     1      80.121  87.656  86.877  1.00  0.00     0.049 C 
ATOM     14  C   UNL     1      81.289  86.317  88.674  1.00  0.00     0.011 C 
ATOM     15  C   UNL     1      80.929  88.881  86.445  1.00  0.00     0.122 C 
BRANCH   7  16
ATOM     16  C   UNL     1      83.851  89.944  88.219  1.00  0.00     0.135 C 
BRANCH  16  17
ATOM     17  C   UNL     1      84.511  90.441  86.957  1.00  0.00    -0.040 A 
ATOM     18  C   UNL     1      84.347  91.768  86.560  1.00  0.00     0.004 A 
ATOM     19  C   UNL     1      85.287  89.574  86.189  1.00  0.00     0.004 A 
ATOM     20  C   UNL     1      84.958  92.228  85.393  1.00  0.00     0.000 A 
ATOM     21  C   UNL     1      85.899  90.034  85.022  1.00  0.00     0.000 A 
ATOM     22  C   UNL     1      85.734  91.360  84.624  1.00  0.00     0.000 A 
ENDBRANCH  16  17
ENDBRANCH   7  16
BRANCH  15  23
ATOM     23  C   UNL     1      80.985  89.037  84.960  1.00  0.00    -0.046 C 
ATOM     24  C   UNL     1      79.850  88.431  84.188  1.00  0.00     0.042 C 
ATOM     25  C   UNL     1      81.992  89.681  84.352  1.00  0.00     0.010 C 
ENDBRANCH  15  23
ENDBRANCH   3   4
BRANCH   2  26
ATOM     26  C   UNL     1      78.085  90.346  91.244  1.00  0.00     0.078 C 
BRANCH  26  27
ATOM     27  C   UNL     1      78.460  88.889  90.982  1.00  0.00     0.140 C 
ATOM     28  C   UNL     1      79.971  88.713  90.721  1.00  0.00     0.086 CG0
ATOM     29  C   UNL     1      78.235  88.005  92.191  1.00  0.00     0.190 C 
ATOM     30  C   UNL     1      80.338  87.530  91.571  1.00  0.00    -0.010 C 
ATOM     31  G   UNL     1      80.418  88.751  89.230  1.00  0.00     0.000 G0
ATOM     32  O   UNL     1      77.216  87.974  92.864  1.00  0.00    -0.291 OA
ATOM     33  C   UNL     1      79.395  87.125  92.428  1.00  0.00    -0.008 C 
ATOM     34  C   UNL     1      79.435  86.066  93.456  1.00  0.00     0.048 C 
BRANCH  27  35
ATOM     35  O   UNL     1      77.636  88.312  89.983  1.00  0.00    -0.381 OA
ATOM     36  H   UNL     1      77.805  87.355  89.961  1.00  0.00     0.212 HD
ENDBRANCH  27  35
ENDBRANCH  26  27
ENDBRANCH   2  26
ENDBRANCH   1   2
BRANCH   1  37
ATOM     37  O   UNL     1      79.615  93.570  90.569  1.00  0.00    -0.461 OA
BRANCH  37  38
ATOM     38  C   UNL     1      80.327  93.941  91.686  1.00  0.00     0.310 C 
ATOM     39  O   UNL     1      79.834  94.318  92.740  1.00  0.00    -0.252 OA
BRANCH  38  40
ATOM     40  C   UNL     1      81.805  93.812  91.407  1.00  0.00     0.158 C 
BRANCH  40  41
ATOM     41  C   UNL     1      82.221  94.474  90.119  1.00  0.00    -0.037 A 
ATOM     42  C   UNL     1      82.545  93.696  89.008  1.00  0.00     0.008 A 
ATOM     43  C   UNL     1      82.282  95.865  90.038  1.00  0.00     0.008 A 
ATOM     44  C   UNL     1      82.931  94.309  87.815  1.00  0.00     0.046 A 
ATOM     45  C   UNL     1      82.667  96.478  88.845  1.00  0.00     0.046 A 
ATOM     46  C   UNL     1      82.992  95.700  87.735  1.00  0.00     0.115 A 
BRANCH  46  47
ATOM     47  O   UNL     1      83.368  96.298  86.571  1.00  0.00    -0.508 OA
ATOM     48  H   UNL     1      83.944  97.055  86.777  1.00  0.00     0.293 HD
ENDBRANCH  46  47
ENDBRANCH  40  41
ENDBRANCH  38  40
ENDBRANCH  37  38
ENDBRANCH   1  37
TORSDOF 10
ENDMDL
MODEL 2
REMARK VINA RESULT:    -7.003     16.093     20.517
REMARK INTER + INTRA:         -13.381
REMARK INTER:                 -13.634
REMARK INTRA:                   0.253
REMARK UNBOUND:                -1.466
REMARK SMILES C=C(C)[C@]12C[C@@H](C)[C@@]34O[C@](Cc5ccccc5)(O[C@@H]1[C@@H]3C=C(COC(=O)Cc1ccc(O)cc1)C[C@]1(O)C(=O)C(C)=C[C@@H]41)O2
REMARK SMILES IDX 23 1 22 2 21 3 20 4 9 5 8 6 10 7 6 8 18 10 44 11 19 12 5 13
REMARK SMILES IDX 7 14 4 15 11 16 12 17 13 18 17 19 14 20 16 21 15 22 2 23
REMARK SMILES IDX 3 24 1 25 35 26 36 27 43 28 38 29 42 30 39 32 40 33 41 34
REMARK SMILES IDX 37 35 24 37 25 38 26 39 27 40 28 41 29 42 34 43 30 44 33 45
REMARK SMILES IDX 31 46 32 47
REMARK H PARENT 37 36 32 48
REMARK Flexibility Score: 90.00
ROOT
ATOM      1  C   UNL     1      91.942  94.586  76.072  1.00  0.00     0.264 C 
ENDROOT
BRANCH   1   2
ATOM      2  C   UNL     1      93.439  94.789  76.126  1.00  0.00    -0.033 C 
ATOM      3  C   UNL     1      94.038  95.529  75.170  1.00  0.00    -0.015 C 
BRANCH   3   4
ATOM      4  C   UNL     1      95.516  95.817  74.958  1.00  0.00     0.078 C 
ATOM      5  O   UNL     1      96.009  97.945  76.117  1.00  0.00    -0.319 OA
ATOM      6  C   UNL     1      96.316  96.516  76.117  1.00  0.00     0.095 CG0
ATOM      7  C   UNL     1      95.964  98.565  74.817  1.00  0.00     0.289 C 
ATOM      8  C   UNL     1      97.860  96.313  75.824  1.00  0.00     0.023 C 
ATOM      9  G   UNL     1      95.828  96.015  77.507  1.00  0.00     0.000 G0
ATOM     10  O   UNL     1      95.012  97.926  73.971  1.00  0.00    -0.320 OA
ATOM     11  O   UNL     1      97.211  98.475  74.131  1.00  0.00    -0.313 OA
ATOM     12  C   UNL     1      95.704  96.698  73.697  1.00  0.00     0.170 C 
ATOM     13  C   UNL     1      98.155  96.297  74.293  1.00  0.00     0.049 C 
ATOM     14  C   UNL     1      98.801  97.315  76.514  1.00  0.00     0.011 C 
ATOM     15  C   UNL     1      97.167  97.170  73.518  1.00  0.00     0.122 C 
BRANCH   7  16
ATOM     16  C   UNL     1      95.592 100.023  74.999  1.00  0.00     0.135 C 
BRANCH  16  17
ATOM     17  C   UNL     1      95.696 100.459  76.440  1.00  0.00    -0.040 A 
ATOM     18  C   UNL     1      96.798 100.081  77.205  1.00  0.00     0.004 A 
ATOM     19  C   UNL     1      94.688 101.239  77.005  1.00  0.00     0.004 A 
ATOM     20  C   UNL     1      96.893 100.484  78.538  1.00  0.00     0.000 A 
ATOM     21  C   UNL     1      94.783 101.643  78.337  1.00  0.00     0.000 A 
ATOM     22  C   UNL     1      95.885 101.265  79.103  1.00  0.00     0.000 A 
ENDBRANCH  16  17
ENDBRANCH   7  16
BRANCH  15  23
ATOM     23  C   UNL     1      97.538  97.315  72.077  1.00  0.00    -0.046 C 
ATOM     24  C   UNL     1      98.099  96.093  71.412  1.00  0.00     0.042 C 
ATOM     25  C   UNL     1      97.378  98.471  71.417  1.00  0.00     0.010 C 
ENDBRANCH  15  23
ENDBRANCH   3   4
BRANCH   2  26
ATOM     26  C   UNL     1      94.091  94.104  77.312  1.00  0.00     0.078 C 
BRANCH  26  27
ATOM     27  C   UNL     1      95.541  94.471  77.620  1.00  0.00     0.140 C 
ATOM     28  C   UNL     1      95.799  95.987  77.490  1.00  0.00     0.086 CG0
ATOM     29  C   UNL     1      95.915  94.199  79.061  1.00  0.00     0.190 C 
ATOM     30  C   UNL     1      96.584  96.315  78.730  1.00  0.00    -0.010 C 
ATOM     31  G   UNL     1      96.316  96.479  76.107  1.00  0.00     0.000 G0
ATOM     32  O   UNL     1      95.696  93.160  79.666  1.00  0.00    -0.291 OA
ATOM     33  C   UNL     1      96.644  95.341  79.644  1.00  0.00    -0.008 C 
ATOM     34  C   UNL     1      97.248  95.338  80.992  1.00  0.00     0.048 C 
BRANCH  27  35
ATOM     35  O   UNL     1      96.447  93.671  76.879  1.00  0.00    -0.381 OA
ATOM     36  H   UNL     1      97.346  93.843  77.206  1.00  0.00     0.212 HD
ENDBRANCH  27  35
ENDBRANCH  26  27
ENDBRANCH   2  26
ENDBRANCH   1   2
BRANCH   1  37
ATOM     37  O   UNL     1      91.666  93.238  75.756  1.00  0.00    -0.461 OA
BRANCH  37  38
ATOM     38  C   UNL     1      90.600  92.666  76.412  1.00  0.00     0.310 C 
ATOM     39  O   UNL     1      90.408  92.719  77.618  1.00  0.00    -0.252 OA
BRANCH  38  40
ATOM     40  C   UNL     1      89.710  91.967  75.413  1.00  0.00     0.158 C 
BRANCH  40  41
ATOM     41  C   UNL     1      90.097  90.528  75.186  1.00  0.00    -0.037 A 
ATOM     42  C   UNL     1      89.137  89.522  75.296  1.00  0.00     0.008 A 
ATOM     43  C   UNL     1      91.415  90.202  74.867  1.00  0.00     0.008 A 
ATOM     44  C   UNL     1      89.496  88.190  75.088  1.00  0.00     0.046 A 
ATOM     45  C   UNL     1      91.774  88.871  74.658  1.00  0.00     0.046 A 
ATOM     46  C   UNL     1      90.815  87.865  74.768  1.00  0.00     0.115 A 
BRANCH  46  47
ATOM     47  O   UNL     1      91.164  86.565  74.565  1.00  0.00    -0.508 OA
ATOM     48  H   UNL     1      91.960  86.367  75.089  1.00  0.00     0.293 HD
ENDBRANCH  46  47
ENDBRANCH  40  41
ENDBRANCH  38  40
ENDBRANCH  37  38
ENDBRANCH   1  37
TORSDOF 10
ENDMDL
MODEL 3
REMARK VINA RESULT:    -6.798     17.359     23.017
REMARK INTER + INTRA:         -13.033
REMARK INTER:                 -12.464
REMARK INTRA:                  -0.569
REMARK UNBOUND:                -1.466
REMARK SMILES C=C(C)[C@]12C[C@@H](C)[C@@]34O[C@](Cc5ccccc5)(O[C@@H]1[C@@H]3C=C(COC(=O)Cc1ccc(O)cc1)C[C@]1(O)C(=O)C(C)=C[C@@H]41)O2
REMARK SMILES IDX 23 1 22 2 21 3 20 4 9 5 8 6 10 7 6 8 18 10 44 11 19 12 5 13
REMARK SMILES IDX 7 14 4 15 11 16 12 17 13 18 17 19 14 20 16 21 15 22 2 23
REMARK SMILES IDX 3 24 1 25 35 26 36 27 43 28 38 29 42 30 39 32 40 33 41 34
REMARK SMILES IDX 37 35 24 37 25 38 26 39 27 40 28 41 29 42 34 43 30 44 33 45
REMARK SMILES IDX 31 46 32 47
REMARK H PARENT 37 36 32 48
REMARK Flexibility Score: 90.00
ROOT
ATOM      1  C   UNL     1      95.035  96.078  73.894  1.00  0.00     0.264 C 
ENDROOT
BRANCH   1   2
ATOM      2  C   UNL     1      95.177  97.555  73.606  1.00  0.00    -0.033 C 
ATOM      3  C   UNL     1      94.923  98.011  72.362  1.00  0.00    -0.015 C 
BRANCH   3   4
ATOM      4  C   UNL     1      95.063  99.418  71.803  1.00  0.00     0.078 C 
ATOM      5  O   UNL     1      92.858 100.512  72.043  1.00  0.00    -0.319 OA
ATOM      6  C   UNL     1      94.250 100.579  72.485  1.00  0.00     0.095 CG0
ATOM      7  C   UNL     1      92.671 100.250  70.639  1.00  0.00     0.289 C 
ATOM      8  C   UNL     1      94.885 101.951  72.011  1.00  0.00     0.023 C 
ATOM      9  G   UNL     1      94.178 100.373  74.026  1.00  0.00     0.000 G0
ATOM     10  O   UNL     1      93.298  99.030  70.252  1.00  0.00    -0.320 OA
ATOM     11  O   UNL     1      93.251 101.259  69.816  1.00  0.00    -0.313 OA
ATOM     12  C   UNL     1      94.677  99.429  70.304  1.00  0.00     0.170 C 
ATOM     13  C   UNL     1      95.433 101.855  70.554  1.00  0.00     0.049 C 
ATOM     14  C   UNL     1      93.967 103.180  72.130  1.00  0.00     0.011 C 
ATOM     15  C   UNL     1      94.634 100.859  69.713  1.00  0.00     0.122 C 
BRANCH   7  16
ATOM     16  C   UNL     1      91.182 100.170  70.365  1.00  0.00     0.135 C 
BRANCH  16  17
ATOM     17  C   UNL     1      90.880  99.433  69.085  1.00  0.00    -0.040 A 
ATOM     18  C   UNL     1      91.225  99.997  67.857  1.00  0.00     0.004 A 
ATOM     19  C   UNL     1      90.255  98.187  69.129  1.00  0.00     0.004 A 
ATOM     20  C   UNL     1      90.946  99.315  66.672  1.00  0.00     0.000 A 
ATOM     21  C   UNL     1      89.975  97.505  67.945  1.00  0.00     0.000 A 
ATOM     22  C   UNL     1      90.321  98.069  66.717  1.00  0.00     0.000 A 
ENDBRANCH  16  17
ENDBRANCH   7  16
BRANCH  15  23
ATOM     23  C   UNL     1      95.024 100.884  68.271  1.00  0.00    -0.046 C 
ATOM     24  C   UNL     1      94.168 101.722  67.368  1.00  0.00     0.042 C 
ATOM     25  C   UNL     1      96.078 100.195  67.810  1.00  0.00     0.010 C 
ENDBRANCH  15  23
ENDBRANCH   3   4
BRANCH   2  26
ATOM     26  C   UNL     1      95.599  98.361  74.821  1.00  0.00     0.078 C 
BRANCH  26  27
ATOM     27  C   UNL     1      95.498  99.881  74.718  1.00  0.00     0.140 C 
ATOM     28  C   UNL     1      94.189 100.336  74.040  1.00  0.00     0.086 CG0
ATOM     29  C   UNL     1      95.410 100.549  76.075  1.00  0.00     0.190 C 
ATOM     30  C   UNL     1      93.698 101.442  74.932  1.00  0.00    -0.010 C 
ATOM     31  G   UNL     1      94.259 100.568  72.502  1.00  0.00     0.000 G0
ATOM     32  O   UNL     1      96.146 100.324  77.024  1.00  0.00    -0.291 OA
ATOM     33  C   UNL     1      94.344 101.569  76.094  1.00  0.00    -0.008 C 
ATOM     34  C   UNL     1      94.087 102.476  77.232  1.00  0.00     0.048 C 
BRANCH  27  35
ATOM     35  O   UNL     1      96.666 100.441  74.141  1.00  0.00    -0.381 OA
ATOM     36  H   UNL     1      96.398 101.035  73.420  1.00  0.00     0.212 HD
ENDBRANCH  27  35
ENDBRANCH  26  27
ENDBRANCH   2  26
ENDBRANCH   1   2
BRANCH   1  37
ATOM     37  O   UNL     1      95.471  95.816  75.211  1.00  0.00    -0.461 OA
BRANCH  37  38
ATOM     38  C   UNL     1      95.087  94.609  75.749  1.00  0.00     0.310 C 
ATOM     39  O   UNL     1      95.703  93.559  75.629  1.00  0.00    -0.252 OA
BRANCH  38  40
ATOM     40  C   UNL     1      93.793  94.784  76.507  1.00  0.00     0.158 C 
BRANCH  40  41
ATOM     41  C   UNL     1      92.767  93.734  76.168  1.00  0.00    -0.037 A 
ATOM     42  C   UNL     1      92.400  93.521  74.839  1.00  0.00     0.008 A 
ATOM     43  C   UNL     1      92.183  92.975  77.182  1.00  0.00     0.008 A 
ATOM     44  C   UNL     1      91.448  92.550  74.524  1.00  0.00     0.046 A 
ATOM     45  C   UNL     1      91.232  92.003  76.868  1.00  0.00     0.046 A 
ATOM     46  C   UNL     1      90.865  91.791  75.540  1.00  0.00     0.115 A 
BRANCH  46  47
ATOM     47  O   UNL     1      89.937  90.844  75.233  1.00  0.00    -0.508 OA
ATOM     48  H   UNL     1      90.372  89.974  75.202  1.00  0.00     0.293 HD
ENDBRANCH  46  47
ENDBRANCH  40  41
ENDBRANCH  38  40
ENDBRANCH  37  38
ENDBRANCH   1  37
TORSDOF 10
ENDMDL
MODEL 4
REMARK VINA RESULT:    -6.761     21.414     25.163
REMARK INTER + INTRA:         -12.970
REMARK INTER:                 -11.082
REMARK INTRA:                  -1.888
REMARK UNBOUND:                -1.466
REMARK SMILES C=C(C)[C@]12C[C@@H](C)[C@@]34O[C@](Cc5ccccc5)(O[C@@H]1[C@@H]3C=C(COC(=O)Cc1ccc(O)cc1)C[C@]1(O)C(=O)C(C)=C[C@@H]41)O2
REMARK SMILES IDX 23 1 22 2 21 3 20 4 9 5 8 6 10 7 6 8 18 10 44 11 19 12 5 13
REMARK SMILES IDX 7 14 4 15 11 16 12 17 13 18 17 19 14 20 16 21 15 22 2 23
REMARK SMILES IDX 3 24 1 25 35 26 36 27 43 28 38 29 42 30 39 32 40 33 41 34
REMARK SMILES IDX 37 35 24 37 25 38 26 39 27 40 28 41 29 42 34 43 30 44 33 45
REMARK SMILES IDX 31 46 32 47
REMARK H PARENT 37 36 32 48
REMARK Flexibility Score: 90.00
ROOT
ATOM      1  C   UNL     1      65.859  86.691  73.656  1.00  0.00     0.264 C 
ENDROOT
BRANCH   1   2
ATOM      2  C   UNL     1      64.519  86.598  72.963  1.00  0.00    -0.033 C 
ATOM      3  C   UNL     1      64.260  85.539  72.168  1.00  0.00    -0.015 C 
BRANCH   3   4
ATOM      4  C   UNL     1      63.038  85.251  71.311  1.00  0.00     0.078 C 
ATOM      5  O   UNL     1      61.488  83.908  72.694  1.00  0.00    -0.319 OA
ATOM      6  C   UNL     1      61.630  85.193  72.011  1.00  0.00     0.095 CG0
ATOM      7  C   UNL     1      61.957  82.764  71.955  1.00  0.00     0.289 C 
ATOM      8  C   UNL     1      60.527  85.309  70.880  1.00  0.00     0.023 C 
ATOM      9  G   UNL     1      61.534  86.250  73.150  1.00  0.00     0.000 G0
ATOM     10  O   UNL     1      63.329  82.905  71.597  1.00  0.00    -0.320 OA
ATOM     11  O   UNL     1      61.255  82.586  70.727  1.00  0.00    -0.313 OA
ATOM     12  C   UNL     1      63.220  83.903  70.571  1.00  0.00     0.170 C 
ATOM     13  C   UNL     1      60.996  84.640  69.552  1.00  0.00     0.049 C 
ATOM     14  C   UNL     1      59.135  84.773  71.256  1.00  0.00     0.011 C 
ATOM     15  C   UNL     1      61.942  83.466  69.813  1.00  0.00     0.122 C 
BRANCH   7  16
ATOM     16  C   UNL     1      61.776  81.533  72.821  1.00  0.00     0.135 C 
BRANCH  16  17
ATOM     17  C   UNL     1      62.973  81.281  73.704  1.00  0.00    -0.040 A 
ATOM     18  C   UNL     1      62.998  81.780  75.006  1.00  0.00     0.004 A 
ATOM     19  C   UNL     1      64.055  80.548  73.216  1.00  0.00     0.004 A 
ATOM     20  C   UNL     1      64.105  81.546  75.822  1.00  0.00     0.000 A 
ATOM     21  C   UNL     1      65.163  80.314  74.033  1.00  0.00     0.000 A 
ATOM     22  C   UNL     1      65.187  80.813  75.335  1.00  0.00     0.000 A 
ENDBRANCH  16  17
ENDBRANCH   7  16
BRANCH  15  23
ATOM     23  C   UNL     1      62.261  82.699  68.571  1.00  0.00    -0.046 C 
ATOM     24  C   UNL     1      61.423  83.012  67.367  1.00  0.00     0.042 C 
ATOM     25  C   UNL     1      63.239  81.782  68.535  1.00  0.00     0.010 C 
ENDBRANCH  15  23
ENDBRANCH   3   4
BRANCH   2  26
ATOM     26  C   UNL     1      63.603  87.764  73.280  1.00  0.00     0.078 C 
BRANCH  26  27
ATOM     27  C   UNL     1      62.150  87.655  72.822  1.00  0.00     0.140 C 
ATOM     28  C   UNL     1      61.541  86.272  73.135  1.00  0.00     0.086 CG0
ATOM     29  C   UNL     1      61.231  88.592  73.577  1.00  0.00     0.190 C 
ATOM     30  C   UNL     1      60.201  86.605  73.727  1.00  0.00    -0.010 C 
ATOM     31  G   UNL     1      61.633  85.210  72.000  1.00  0.00     0.000 G0
ATOM     32  O   UNL     1      61.435  89.782  73.767  1.00  0.00    -0.291 OA
ATOM     33  C   UNL     1      60.006  87.896  74.013  1.00  0.00    -0.008 C 
ATOM     34  C   UNL     1      58.862  88.564  74.667  1.00  0.00     0.048 C 
BRANCH  27  35
ATOM     35  O   UNL     1      62.001  88.053  71.469  1.00  0.00    -0.381 OA
ATOM     36  H   UNL     1      61.681  88.970  71.453  1.00  0.00     0.212 HD
ENDBRANCH  27  35
ENDBRANCH  26  27
ENDBRANCH   2  26
ENDBRANCH   1   2
BRANCH   1  37
ATOM     37  O   UNL     1      65.845  85.878  74.810  1.00  0.00    -0.461 OA
BRANCH  37  38
ATOM     38  C   UNL     1      66.531  86.360  75.901  1.00  0.00     0.310 C 
ATOM     39  O   UNL     1      67.655  86.841  75.867  1.00  0.00    -0.252 OA
BRANCH  38  40
ATOM     40  C   UNL     1      65.682  86.202  77.139  1.00  0.00     0.158 C 
BRANCH  40  41
ATOM     41  C   UNL     1      64.440  87.054  77.113  1.00  0.00    -0.037 A 
ATOM     42  C   UNL     1      64.547  88.441  77.011  1.00  0.00     0.008 A 
ATOM     43  C   UNL     1      63.182  86.457  77.191  1.00  0.00     0.008 A 
ATOM     44  C   UNL     1      63.397  89.231  76.988  1.00  0.00     0.046 A 
ATOM     45  C   UNL     1      62.031  87.246  77.167  1.00  0.00     0.046 A 
ATOM     46  C   UNL     1      62.139  88.632  77.066  1.00  0.00     0.115 A 
BRANCH  46  47
ATOM     47  O   UNL     1      61.017  89.403  77.043  1.00  0.00    -0.508 OA
ATOM     48  H   UNL     1      60.284  88.881  76.673  1.00  0.00     0.293 HD
ENDBRANCH  46  47
ENDBRANCH  40  41
ENDBRANCH  38  40
ENDBRANCH  37  38
ENDBRANCH   1  37
TORSDOF 10
ENDMDL
MODEL 5
REMARK VINA RESULT:    -6.709     20.932     24.657
REMARK INTER + INTRA:         -12.882
REMARK INTER:                 -12.574
REMARK INTRA:                  -0.308
REMARK UNBOUND:                -1.466
REMARK SMILES C=C(C)[C@]12C[C@@H](C)[C@@]34O[C@](Cc5ccccc5)(O[C@@H]1[C@@H]3C=C(COC(=O)Cc1ccc(O)cc1)C[C@]1(O)C(=O)C(C)=C[C@@H]41)O2
REMARK SMILES IDX 23 1 22 2 21 3 20 4 9 5 8 6 10 7 6 8 18 10 44 11 19 12 5 13
REMARK SMILES IDX 7 14 4 15 11 16 12 17 13 18 17 19 14 20 16 21 15 22 2 23
REMARK SMILES IDX 3 24 1 25 35 26 36 27 43 28 38 29 42 30 39 32 40 33 41 34
REMARK SMILES IDX 37 35 24 37 25 38 26 39 27 40 28 41 29 42 34 43 30 44 33 45
REMARK SMILES IDX 31 46 32 47
REMARK H PARENT 37 36 32 48
REMARK Flexibility Score: 90.00
ROOT
ATOM      1  C   UNL     1      65.253  87.405  74.247  1.00  0.00     0.264 C 
ENDROOT
BRANCH   1   2
ATOM      2  C   UNL     1      64.028  87.122  73.408  1.00  0.00    -0.033 C 
ATOM      3  C   UNL     1      63.968  85.979  72.694  1.00  0.00    -0.015 C 
BRANCH   3   4
ATOM      4  C   UNL     1      62.897  85.501  71.726  1.00  0.00     0.078 C 
ATOM      5  O   UNL     1      61.314  84.120  73.030  1.00  0.00    -0.319 OA
ATOM      6  C   UNL     1      61.423  85.354  72.255  1.00  0.00     0.095 CG0
ATOM      7  C   UNL     1      61.976  82.974  72.460  1.00  0.00     0.289 C 
ATOM      8  C   UNL     1      60.468  85.266  70.993  1.00  0.00     0.023 C 
ATOM      9  G   UNL     1      61.085  86.482  73.272  1.00  0.00     0.000 G0
ATOM     10  O   UNL     1      63.364  83.227  72.258  1.00  0.00    -0.320 OA
ATOM     11  O   UNL     1      61.457  82.629  71.178  1.00  0.00    -0.313 OA
ATOM     12  C   UNL     1      63.296  84.124  71.139  1.00  0.00     0.170 C 
ATOM     13  C   UNL     1      61.164  84.546  69.798  1.00  0.00     0.049 C 
ATOM     14  C   UNL     1      59.094  84.622  71.247  1.00  0.00     0.011 C 
ATOM     15  C   UNL     1      62.172  83.500  70.277  1.00  0.00     0.122 C 
BRANCH   7  16
ATOM     16  C   UNL     1      61.800  81.804  73.407  1.00  0.00     0.135 C 
BRANCH  16  17
ATOM     17  C   UNL     1      63.111  81.354  74.002  1.00  0.00    -0.040 A 
ATOM     18  C   UNL     1      63.984  80.568  73.251  1.00  0.00     0.004 A 
ATOM     19  C   UNL     1      63.449  81.725  75.303  1.00  0.00     0.004 A 
ATOM     20  C   UNL     1      65.197  80.152  73.801  1.00  0.00     0.000 A 
ATOM     21  C   UNL     1      64.663  81.310  75.853  1.00  0.00     0.000 A 
ATOM     22  C   UNL     1      65.536  80.523  75.102  1.00  0.00     0.000 A 
ENDBRANCH  16  17
ENDBRANCH   7  16
BRANCH  15  23
ATOM     23  C   UNL     1      62.716  82.673  69.158  1.00  0.00    -0.046 C 
ATOM     24  C   UNL     1      63.694  83.354  68.247  1.00  0.00     0.042 C 
ATOM     25  C   UNL     1      62.351  81.396  68.977  1.00  0.00     0.010 C 
ENDBRANCH  15  23
ENDBRANCH   3   4
BRANCH   2  26
ATOM     26  C   UNL     1      62.979  88.214  73.498  1.00  0.00     0.078 C 
BRANCH  26  27
ATOM     27  C   UNL     1      61.614  87.925  72.877  1.00  0.00     0.140 C 
ATOM     28  C   UNL     1      61.083  86.528  73.261  1.00  0.00     0.086 CG0
ATOM     29  C   UNL     1      60.531  88.841  73.405  1.00  0.00     0.190 C 
ATOM     30  C   UNL     1      59.653  86.790  73.641  1.00  0.00    -0.010 C 
ATOM     31  G   UNL     1      61.411  85.374  72.269  1.00  0.00     0.000 G0
ATOM     32  O   UNL     1      60.610  90.057  73.488  1.00  0.00    -0.291 OA
ATOM     33  C   UNL     1      59.318  88.078  73.758  1.00  0.00    -0.008 C 
ATOM     34  C   UNL     1      58.047  88.696  74.187  1.00  0.00     0.048 C 
BRANCH  27  35
ATOM     35  O   UNL     1      61.617  88.172  71.481  1.00  0.00    -0.381 OA
ATOM     36  H   UNL     1      62.538  88.295  71.193  1.00  0.00     0.212 HD
ENDBRANCH  27  35
ENDBRANCH  26  27
ENDBRANCH   2  26
ENDBRANCH   1   2
BRANCH   1  37
ATOM     37  O   UNL     1      64.891  87.421  75.611  1.00  0.00    -0.461 OA
BRANCH  37  38
ATOM     38  C   UNL     1      65.615  88.265  76.422  1.00  0.00     0.310 C 
ATOM     39  O   UNL     1      66.655  88.825  76.103  1.00  0.00    -0.252 OA
BRANCH  38  40
ATOM     40  C   UNL     1      64.927  88.391  77.760  1.00  0.00     0.158 C 
BRANCH  40  41
ATOM     41  C   UNL     1      65.447  87.415  78.782  1.00  0.00    -0.037 A 
ATOM     42  C   UNL     1      64.774  87.248  79.993  1.00  0.00     0.008 A 
ATOM     43  C   UNL     1      66.601  86.678  78.520  1.00  0.00     0.008 A 
ATOM     44  C   UNL     1      65.256  86.344  80.941  1.00  0.00     0.046 A 
ATOM     45  C   UNL     1      67.083  85.774  79.467  1.00  0.00     0.046 A 
ATOM     46  C   UNL     1      66.411  85.607  80.677  1.00  0.00     0.115 A 
BRANCH  46  47
ATOM     47  O   UNL     1      66.881  84.726  81.602  1.00  0.00    -0.508 OA
ATOM     48  H   UNL     1      67.002  83.858  81.178  1.00  0.00     0.293 HD
ENDBRANCH  46  47
ENDBRANCH  40  41
ENDBRANCH  38  40
ENDBRANCH  37  38
ENDBRANCH   1  37
TORSDOF 10
ENDMDL
MODEL 6
REMARK VINA RESULT:    -6.653     14.066     18.680
REMARK INTER + INTRA:         -12.786
REMARK INTER:                 -12.194
REMARK INTRA:                  -0.592
REMARK UNBOUND:                -1.466
REMARK SMILES C=C(C)[C@]12C[C@@H](C)[C@@]34O[C@](Cc5ccccc5)(O[C@@H]1[C@@H]3C=C(COC(=O)Cc1ccc(O)cc1)C[C@]1(O)C(=O)C(C)=C[C@@H]41)O2
REMARK SMILES IDX 23 1 22 2 21 3 20 4 9 5 8 6 10 7 6 8 18 10 44 11 19 12 5 13
REMARK SMILES IDX 7 14 4 15 11 16 12 17 13 18 17 19 14 20 16 21 15 22 2 23
REMARK SMILES IDX 3 24 1 25 35 26 36 27 43 28 38 29 42 30 39 32 40 33 41 34
REMARK SMILES IDX 37 35 24 37 25 38 26 39 27 40 28 41 29 42 34 43 30 44 33 45
REMARK SMILES IDX 31 46 32 47
REMARK H PARENT 37 36 32 48
REMARK Flexibility Score: 90.00
ROOT
ATOM      1  C   UNL     1      97.007  83.085  82.507  1.00  0.00     0.264 C 
ENDROOT
BRANCH   1   2
ATOM      2  C   UNL     1      96.945  83.222  84.011  1.00  0.00    -0.033 C 
ATOM      3  C   UNL     1      95.744  83.340  84.613  1.00  0.00    -0.015 C 
BRANCH   3   4
ATOM      4  C   UNL     1      95.418  83.564  86.081  1.00  0.00     0.078 C 
ATOM      5  O   UNL     1      95.059  81.334  87.088  1.00  0.00    -0.319 OA
ATOM      6  C   UNL     1      95.927  82.509  87.131  1.00  0.00     0.095 CG0
ATOM      7  C   UNL     1      93.649  81.615  86.998  1.00  0.00     0.289 C 
ATOM      8  C   UNL     1      95.836  83.176  88.565  1.00  0.00     0.023 C 
ATOM      9  G   UNL     1      97.332  81.968  86.734  1.00  0.00     0.000 G0
ATOM     10  O   UNL     1      93.351  82.404  85.849  1.00  0.00    -0.320 OA
ATOM     11  O   UNL     1      93.171  82.362  88.114  1.00  0.00    -0.313 OA
ATOM     12  C   UNL     1      93.884  83.669  86.269  1.00  0.00     0.170 C 
ATOM     13  C   UNL     1      94.630  84.161  88.662  1.00  0.00     0.049 C 
ATOM     14  C   UNL     1      95.790  82.196  89.749  1.00  0.00     0.011 C 
ATOM     15  C   UNL     1      93.473  83.728  87.761  1.00  0.00     0.122 C 
BRANCH   7  16
ATOM     16  C   UNL     1      92.906  80.295  86.920  1.00  0.00     0.135 C 
BRANCH  16  17
ATOM     17  C   UNL     1      91.435  80.488  86.649  1.00  0.00    -0.040 A 
ATOM     18  C   UNL     1      90.516  80.397  87.694  1.00  0.00     0.004 A 
ATOM     19  C   UNL     1      90.995  80.757  85.353  1.00  0.00     0.004 A 
ATOM     20  C   UNL     1      89.155  80.576  87.443  1.00  0.00     0.000 A 
ATOM     21  C   UNL     1      89.634  80.936  85.103  1.00  0.00     0.000 A 
ATOM     22  C   UNL     1      88.715  80.845  86.147  1.00  0.00     0.000 A 
ENDBRANCH  16  17
ENDBRANCH   7  16
BRANCH  15  23
ATOM     23  C   UNL     1      92.243  84.551  87.972  1.00  0.00    -0.046 C 
ATOM     24  C   UNL     1      92.456  85.930  88.522  1.00  0.00     0.042 C 
ATOM     25  C   UNL     1      91.019  84.083  87.686  1.00  0.00     0.010 C 
ENDBRANCH  15  23
ENDBRANCH   3   4
BRANCH   2  26
ATOM     26  C   UNL     1      98.313  83.201  84.668  1.00  0.00     0.078 C 
BRANCH  26  27
ATOM     27  C   UNL     1      98.355  83.054  86.188  1.00  0.00     0.140 C 
ATOM     28  C   UNL     1      97.359  81.991  86.699  1.00  0.00     0.086 CG0
ATOM     29  C   UNL     1      99.682  82.520  86.682  1.00  0.00     0.190 C 
ATOM     30  C   UNL     1      98.173  81.192  87.679  1.00  0.00    -0.010 C 
ATOM     31  G   UNL     1      95.955  82.514  87.120  1.00  0.00     0.000 G0
ATOM     32  O   UNL     1     100.781  82.942  86.355  1.00  0.00    -0.291 OA
ATOM     33  C   UNL     1      99.485  81.445  87.674  1.00  0.00    -0.008 C 
ATOM     34  C   UNL     1     100.581  80.804  88.430  1.00  0.00     0.048 C 
BRANCH  27  35
ATOM     35  O   UNL     1      98.233  84.310  86.834  1.00  0.00    -0.381 OA
ATOM     36  H   UNL     1      99.075  84.787  86.737  1.00  0.00     0.212 HD
ENDBRANCH  27  35
ENDBRANCH  26  27
ENDBRANCH   2  26
ENDBRANCH   1   2
BRANCH   1  37
ATOM     37  O   UNL     1      97.375  81.763  82.175  1.00  0.00    -0.461 OA
BRANCH  37  38
ATOM     38  C   UNL     1      98.345  81.627  81.209  1.00  0.00     0.310 C 
ATOM     39  O   UNL     1      99.422  82.208  81.208  1.00  0.00    -0.252 OA
BRANCH  38  40
ATOM     40  C   UNL     1      97.875  80.653  80.155  1.00  0.00     0.158 C 
BRANCH  40  41
ATOM     41  C   UNL     1      97.570  81.315  78.837  1.00  0.00    -0.037 A 
ATOM     42  C   UNL     1      97.868  80.660  77.642  1.00  0.00     0.008 A 
ATOM     43  C   UNL     1      96.990  82.583  78.810  1.00  0.00     0.008 A 
ATOM     44  C   UNL     1      97.587  81.274  76.421  1.00  0.00     0.046 A 
ATOM     45  C   UNL     1      96.707  83.197  77.589  1.00  0.00     0.046 A 
ATOM     46  C   UNL     1      97.006  82.542  76.395  1.00  0.00     0.115 A 
BRANCH  46  47
ATOM     47  O   UNL     1      96.732  83.141  75.204  1.00  0.00    -0.508 OA
ATOM     48  H   UNL     1      96.786  84.106  75.316  1.00  0.00     0.293 HD
ENDBRANCH  46  47
ENDBRANCH  40  41
ENDBRANCH  38  40
ENDBRANCH  37  38
ENDBRANCH   1  37
TORSDOF 10
ENDMDL
MODEL 7
REMARK VINA RESULT:    -6.626     16.379     22.101
REMARK INTER + INTRA:         -12.740
REMARK INTER:                 -11.932
REMARK INTRA:                  -0.807
REMARK UNBOUND:                -1.466
REMARK SMILES C=C(C)[C@]12C[C@@H](C)[C@@]34O[C@](Cc5ccccc5)(O[C@@H]1[C@@H]3C=C(COC(=O)Cc1ccc(O)cc1)C[C@]1(O)C(=O)C(C)=C[C@@H]41)O2
REMARK SMILES IDX 23 1 22 2 21 3 20 4 9 5 8 6 10 7 6 8 18 10 44 11 19 12 5 13
REMARK SMILES IDX 7 14 4 15 11 16 12 17 13 18 17 19 14 20 16 21 15 22 2 23
REMARK SMILES IDX 3 24 1 25 35 26 36 27 43 28 38 29 42 30 39 32 40 33 41 34
REMARK SMILES IDX 37 35 24 37 25 38 26 39 27 40 28 41 29 42 34 43 30 44 33 45
REMARK SMILES IDX 31 46 32 47
REMARK H PARENT 37 36 32 48
REMARK Flexibility Score: 90.00
ROOT
ATOM      1  C   UNL     1      95.928  94.012  75.688  1.00  0.00     0.264 C 
ENDROOT
BRANCH   1   2
ATOM      2  C   UNL     1      96.528  95.387  75.501  1.00  0.00    -0.033 C 
ATOM      3  C   UNL     1      96.304  96.052  74.349  1.00  0.00    -0.015 C 
BRANCH   3   4
ATOM      4  C   UNL     1      96.848  97.395  73.889  1.00  0.00     0.078 C 
ATOM      5  O   UNL     1      95.195  99.109  74.557  1.00  0.00    -0.319 OA
ATOM      6  C   UNL     1      96.568  98.661  74.780  1.00  0.00     0.095 CG0
ATOM      7  C   UNL     1      94.761  99.104  73.184  1.00  0.00     0.289 C 
ATOM      8  C   UNL     1      97.571  99.799  74.324  1.00  0.00     0.023 C 
ATOM      9  G   UNL     1      96.616  98.294  76.292  1.00  0.00     0.000 G0
ATOM     10  O   UNL     1      94.882  97.806  72.607  1.00  0.00    -0.320 OA
ATOM     11  O   UNL     1      95.547  99.965  72.363  1.00  0.00    -0.313 OA
ATOM     12  C   UNL     1      96.310  97.723  72.474  1.00  0.00     0.170 C 
ATOM     13  C   UNL     1      97.874  99.717  72.796  1.00  0.00     0.049 C 
ATOM     14  C   UNL     1      97.149 101.235  74.683  1.00  0.00     0.011 C 
ATOM     15  C   UNL     1      96.687  99.153  72.014  1.00  0.00     0.122 C 
BRANCH   7  16
ATOM     16  C   UNL     1      93.313  99.550  73.141  1.00  0.00     0.135 C 
BRANCH  16  17
ATOM     17  C   UNL     1      92.823  99.752  71.729  1.00  0.00    -0.040 A 
ATOM     18  C   UNL     1      92.688 101.041  71.214  1.00  0.00     0.004 A 
ATOM     19  C   UNL     1      92.506  98.648  70.938  1.00  0.00     0.004 A 
ATOM     20  C   UNL     1      92.236 101.226  69.907  1.00  0.00     0.000 A 
ATOM     21  C   UNL     1      92.054  98.833  69.631  1.00  0.00     0.000 A 
ATOM     22  C   UNL     1      91.918 100.122  69.117  1.00  0.00     0.000 A 
ENDBRANCH  16  17
ENDBRANCH   7  16
BRANCH  15  23
ATOM     23  C   UNL     1      96.885  99.232  70.535  1.00  0.00    -0.046 C 
ATOM     24  C   UNL     1      96.376 100.474  69.865  1.00  0.00     0.042 C 
ATOM     25  C   UNL     1      97.483  98.250  69.845  1.00  0.00     0.010 C 
ENDBRANCH  15  23
ENDBRANCH   3   4
BRANCH   2  26
ATOM     26  C   UNL     1      97.333  95.854  76.699  1.00  0.00     0.078 C 
BRANCH  26  27
ATOM     27  C   UNL     1      97.773  97.316  76.717  1.00  0.00     0.140 C 
ATOM     28  C   UNL     1      96.639  98.272  76.293  1.00  0.00     0.086 CG0
ATOM     29  C   UNL     1      98.106  97.804  78.111  1.00  0.00     0.190 C 
ATOM     30  C   UNL     1      96.698  99.364  77.326  1.00  0.00    -0.010 C 
ATOM     31  G   UNL     1      96.589  98.651  74.784  1.00  0.00     0.000 G0
ATOM     32  O   UNL     1      98.828  97.226  78.910  1.00  0.00    -0.291 OA
ATOM     33  C   UNL     1      97.491  99.119  78.373  1.00  0.00    -0.008 C 
ATOM     34  C   UNL     1      97.726  99.915  79.595  1.00  0.00     0.048 C 
BRANCH  27  35
ATOM     35  O   UNL     1      98.979  97.503  75.995  1.00  0.00    -0.381 OA
ATOM     36  H   UNL     1      99.533  96.713  76.114  1.00  0.00     0.212 HD
ENDBRANCH  27  35
ENDBRANCH  26  27
ENDBRANCH   2  26
ENDBRANCH   1   2
BRANCH   1  37
ATOM     37  O   UNL     1      94.520  94.110  75.662  1.00  0.00    -0.461 OA
BRANCH  37  38
ATOM     38  C   UNL     1      93.899  94.266  76.880  1.00  0.00     0.310 C 
ATOM     39  O   UNL     1      94.427  94.079  77.967  1.00  0.00    -0.252 OA
BRANCH  38  40
ATOM     40  C   UNL     1      92.470  94.702  76.664  1.00  0.00     0.158 C 
BRANCH  40  41
ATOM     41  C   UNL     1      91.534  93.548  76.417  1.00  0.00    -0.037 A 
ATOM     42  C   UNL     1      90.866  92.950  77.486  1.00  0.00     0.008 A 
ATOM     43  C   UNL     1      91.334  93.077  75.120  1.00  0.00     0.008 A 
ATOM     44  C   UNL     1      90.000  91.880  77.257  1.00  0.00     0.046 A 
ATOM     45  C   UNL     1      90.468  92.007  74.890  1.00  0.00     0.046 A 
ATOM     46  C   UNL     1      89.801  91.409  75.959  1.00  0.00     0.115 A 
BRANCH  46  47
ATOM     47  O   UNL     1      88.957  90.366  75.736  1.00  0.00    -0.508 OA
ATOM     48  H   UNL     1      88.177  90.689  75.252  1.00  0.00     0.293 HD
ENDBRANCH  46  47
ENDBRANCH  40  41
ENDBRANCH  38  40
ENDBRANCH  37  38
ENDBRANCH   1  37
TORSDOF 10
ENDMDL
MODEL 8
REMARK VINA RESULT:    -6.511     15.807     20.660
REMARK INTER + INTRA:         -12.545
REMARK INTER:                 -12.265
REMARK INTRA:                  -0.280
REMARK UNBOUND:                -1.466
REMARK SMILES C=C(C)[C@]12C[C@@H](C)[C@@]34O[C@](Cc5ccccc5)(O[C@@H]1[C@@H]3C=C(COC(=O)Cc1ccc(O)cc1)C[C@]1(O)C(=O)C(C)=C[C@@H]41)O2
REMARK SMILES IDX 23 1 22 2 21 3 20 4 9 5 8 6 10 7 6 8 18 10 44 11 19 12 5 13
REMARK SMILES IDX 7 14 4 15 11 16 12 17 13 18 17 19 14 20 16 21 15 22 2 23
REMARK SMILES IDX 3 24 1 25 35 26 36 27 43 28 38 29 42 30 39 32 40 33 41 34
REMARK SMILES IDX 37 35 24 37 25 38 26 39 27 40 28 41 29 42 34 43 30 44 33 45
REMARK SMILES IDX 31 46 32 47
REMARK H PARENT 37 36 32 48
REMARK Flexibility Score: 90.00
ROOT
ATOM      1  C   UNL     1      92.431  94.304  75.840  1.00  0.00     0.264 C 
ENDROOT
BRANCH   1   2
ATOM      2  C   UNL     1      93.882  94.624  76.117  1.00  0.00    -0.033 C 
ATOM      3  C   UNL     1      94.573  95.368  75.229  1.00  0.00    -0.015 C 
BRANCH   3   4
ATOM      4  C   UNL     1      96.042  95.760  75.235  1.00  0.00     0.078 C 
ATOM      5  O   UNL     1      96.203  97.937  76.398  1.00  0.00    -0.319 OA
ATOM      6  C   UNL     1      96.605  96.534  76.483  1.00  0.00     0.095 CG0
ATOM      7  C   UNL     1      96.315  98.530  75.090  1.00  0.00     0.289 C 
ATOM      8  C   UNL     1      98.186  96.440  76.434  1.00  0.00     0.023 C 
ATOM      9  G   UNL     1      95.946  96.021  77.796  1.00  0.00     0.000 G0
ATOM     10  O   UNL     1      95.550  97.810  74.127  1.00  0.00    -0.320 OA
ATOM     11  O   UNL     1      97.655  98.521  74.603  1.00  0.00    -0.313 OA
ATOM     12  C   UNL     1      96.359  96.631  73.995  1.00  0.00     0.170 C 
ATOM     13  C   UNL     1      98.712  96.420  74.966  1.00  0.00     0.049 C 
ATOM     14  C   UNL     1      98.939  97.519  77.231  1.00  0.00     0.011 C 
ATOM     15  C   UNL     1      97.797  97.206  74.026  1.00  0.00     0.122 C 
BRANCH   7  16
ATOM     16  C   UNL     1      95.819  99.960  75.173  1.00  0.00     0.135 C 
BRANCH  16  17
ATOM     17  C   UNL     1      94.877 100.300  74.045  1.00  0.00    -0.040 A 
ATOM     18  C   UNL     1      93.500 100.168  74.222  1.00  0.00     0.004 A 
ATOM     19  C   UNL     1      95.384 100.747  72.826  1.00  0.00     0.004 A 
ATOM     20  C   UNL     1      92.629 100.483  73.179  1.00  0.00     0.000 A 
ATOM     21  C   UNL     1      94.513 101.061  71.782  1.00  0.00     0.000 A 
ATOM     22  C   UNL     1      93.136 100.929  71.959  1.00  0.00     0.000 A 
ENDBRANCH  16  17
ENDBRANCH   7  16
BRANCH  15  23
ATOM     23  C   UNL     1      98.372  97.354  72.655  1.00  0.00    -0.046 C 
ATOM     24  C   UNL     1      97.684  98.333  71.750  1.00  0.00     0.042 C 
ATOM     25  C   UNL     1      99.443  96.652  72.256  1.00  0.00     0.010 C 
ENDBRANCH  15  23
ENDBRANCH   3   4
BRANCH   2  26
ATOM     26  C   UNL     1      94.382  94.039  77.424  1.00  0.00     0.078 C 
BRANCH  26  27
ATOM     27  C   UNL     1      95.762  94.483  77.905  1.00  0.00     0.140 C 
ATOM     28  C   UNL     1      95.955  96.010  77.795  1.00  0.00     0.086 CG0
ATOM     29  C   UNL     1      95.969  94.235  79.384  1.00  0.00     0.190 C 
ATOM     30  C   UNL     1      96.563  96.383  79.119  1.00  0.00    -0.010 C 
ATOM     31  G   UNL     1      96.612  96.526  76.481  1.00  0.00     0.000 G0
ATOM     32  O   UNL     1      95.732  93.187  79.966  1.00  0.00    -0.291 OA
ATOM     33  C   UNL     1      96.560  95.416  80.042  1.00  0.00    -0.008 C 
ATOM     34  C   UNL     1      96.992  95.449  81.454  1.00  0.00     0.048 C 
BRANCH  27  35
ATOM     35  O   UNL     1      96.793  93.730  77.288  1.00  0.00    -0.381 OA
ATOM     36  H   UNL     1      97.636  93.957  77.716  1.00  0.00     0.212 HD
ENDBRANCH  27  35
ENDBRANCH  26  27
ENDBRANCH   2  26
ENDBRANCH   1   2
BRANCH   1  37
ATOM     37  O   UNL     1      91.753  94.120  77.065  1.00  0.00    -0.461 OA
BRANCH  37  38
ATOM     38  C   UNL     1      91.183  92.883  77.264  1.00  0.00     0.310 C 
ATOM     39  O   UNL     1      91.318  92.201  78.270  1.00  0.00    -0.252 OA
BRANCH  38  40
ATOM     40  C   UNL     1      90.368  92.503  76.050  1.00  0.00     0.158 C 
BRANCH  40  41
ATOM     41  C   UNL     1      90.513  91.050  75.677  1.00  0.00    -0.037 A 
ATOM     42  C   UNL     1      89.590  90.115  76.146  1.00  0.00     0.008 A 
ATOM     43  C   UNL     1      91.569  90.640  74.864  1.00  0.00     0.008 A 
ATOM     44  C   UNL     1      89.724  88.769  75.801  1.00  0.00     0.046 A 
ATOM     45  C   UNL     1      91.703  89.295  74.518  1.00  0.00     0.046 A 
ATOM     46  C   UNL     1      90.781  88.360  74.987  1.00  0.00     0.115 A 
BRANCH  46  47
ATOM     47  O   UNL     1      90.912  87.048  74.651  1.00  0.00    -0.508 OA
ATOM     48  H   UNL     1      91.445  86.600  75.331  1.00  0.00     0.293 HD
ENDBRANCH  46  47
ENDBRANCH  40  41
ENDBRANCH  38  40
ENDBRANCH  37  38
ENDBRANCH   1  37
TORSDOF 10
ENDMDL
MODEL 9
REMARK VINA RESULT:    -6.231     16.938     21.155
REMARK INTER + INTRA:         -12.068
REMARK INTER:                 -11.514
REMARK INTRA:                  -0.554
REMARK UNBOUND:                -1.466
REMARK SMILES C=C(C)[C@]12C[C@@H](C)[C@@]34O[C@](Cc5ccccc5)(O[C@@H]1[C@@H]3C=C(COC(=O)Cc1ccc(O)cc1)C[C@]1(O)C(=O)C(C)=C[C@@H]41)O2
REMARK SMILES IDX 23 1 22 2 21 3 20 4 9 5 8 6 10 7 6 8 18 10 44 11 19 12 5 13
REMARK SMILES IDX 7 14 4 15 11 16 12 17 13 18 17 19 14 20 16 21 15 22 2 23
REMARK SMILES IDX 3 24 1 25 35 26 36 27 43 28 38 29 42 30 39 32 40 33 41 34
REMARK SMILES IDX 37 35 24 37 25 38 26 39 27 40 28 41 29 42 34 43 30 44 33 45
REMARK SMILES IDX 31 46 32 47
REMARK H PARENT 37 36 32 48
REMARK Flexibility Score: 90.00
ROOT
ATOM      1  C   UNL     1      93.376  93.686  76.051  1.00  0.00     0.264 C 
ENDROOT
BRANCH   1   2
ATOM      2  C   UNL     1      94.699  94.397  76.215  1.00  0.00    -0.033 C 
ATOM      3  C   UNL     1      95.270  94.982  75.141  1.00  0.00    -0.015 C 
BRANCH   3   4
ATOM      4  C   UNL     1      96.613  95.685  75.026  1.00  0.00     0.078 C 
ATOM      5  O   UNL     1      96.210  98.087  75.454  1.00  0.00    -0.319 OA
ATOM      6  C   UNL     1      96.903  96.908  75.971  1.00  0.00     0.095 CG0
ATOM      7  C   UNL     1      96.284  98.266  74.026  1.00  0.00     0.289 C 
ATOM      8  C   UNL     1      98.465  97.168  75.953  1.00  0.00     0.023 C 
ATOM      9  G   UNL     1      96.279  96.679  77.379  1.00  0.00     0.000 G0
ATOM     10  O   UNL     1      95.766  97.132  73.335  1.00  0.00    -0.320 OA
ATOM     11  O   UNL     1      97.625  98.417  73.566  1.00  0.00    -0.313 OA
ATOM     12  C   UNL     1      96.820  96.188  73.576  1.00  0.00     0.170 C 
ATOM     13  C   UNL     1      99.087  96.827  74.565  1.00  0.00     0.049 C 
ATOM     14  C   UNL     1      98.905  98.581  76.376  1.00  0.00     0.011 C 
ATOM     15  C   UNL     1      98.091  97.060  73.427  1.00  0.00     0.122 C 
BRANCH   7  16
ATOM     16  C   UNL     1      95.482  99.500  73.661  1.00  0.00     0.135 C 
BRANCH  16  17
ATOM     17  C   UNL     1      95.497 100.531  74.762  1.00  0.00    -0.040 A 
ATOM     18  C   UNL     1      94.381 100.693  75.581  1.00  0.00     0.004 A 
ATOM     19  C   UNL     1      96.629 101.322  74.959  1.00  0.00     0.004 A 
ATOM     20  C   UNL     1      94.395 101.646  76.599  1.00  0.00     0.000 A 
ATOM     21  C   UNL     1      96.643 102.275  75.978  1.00  0.00     0.000 A 
ATOM     22  C   UNL     1      95.526 102.437  76.797  1.00  0.00     0.000 A 
ENDBRANCH  16  17
ENDBRANCH   7  16
BRANCH  15  23
ATOM     23  C   UNL     1      98.717  96.914  72.078  1.00  0.00    -0.046 C 
ATOM     24  C   UNL     1      98.035  95.972  71.130  1.00  0.00     0.042 C 
ATOM     25  C   UNL     1      99.826  97.586  71.734  1.00  0.00     0.010 C 
ENDBRANCH  15  23
ENDBRANCH   3   4
BRANCH   2  26
ATOM     26  C   UNL     1      95.225  94.358  77.637  1.00  0.00     0.078 C 
BRANCH  26  27
ATOM     27  C   UNL     1      96.435  95.232  77.959  1.00  0.00     0.140 C 
ATOM     28  C   UNL     1      96.294  96.658  77.384  1.00  0.00     0.086 CG0
ATOM     29  C   UNL     1      96.584  95.493  79.443  1.00  0.00     0.190 C 
ATOM     30  C   UNL     1      96.708  97.539  78.530  1.00  0.00    -0.010 C 
ATOM     31  G   UNL     1      96.914  96.894  75.976  1.00  0.00     0.000 G0
ATOM     32  O   UNL     1      96.543  94.643  80.319  1.00  0.00    -0.291 OA
ATOM     33  C   UNL     1      96.852  96.920  79.705  1.00  0.00    -0.008 C 
ATOM     34  C   UNL     1      97.164  97.473  81.040  1.00  0.00     0.048 C 
BRANCH  27  35
ATOM     35  O   UNL     1      97.648  94.590  77.604  1.00  0.00    -0.381 OA
ATOM     36  H   UNL     1      98.295  94.744  78.313  1.00  0.00     0.212 HD
ENDBRANCH  27  35
ENDBRANCH  26  27
ENDBRANCH   2  26
ENDBRANCH   1   2
BRANCH   1  37
ATOM     37  O   UNL     1      92.325  94.586  76.332  1.00  0.00    -0.461 OA
BRANCH  37  38
ATOM     38  C   UNL     1      91.111  94.303  75.748  1.00  0.00     0.310 C 
ATOM     39  O   UNL     1      90.021  94.501  76.265  1.00  0.00    -0.252 OA
BRANCH  38  40
ATOM     40  C   UNL     1      91.336  93.714  74.377  1.00  0.00     0.158 C 
BRANCH  40  41
ATOM     41  C   UNL     1      90.268  92.730  73.977  1.00  0.00    -0.037 A 
ATOM     42  C   UNL     1      90.060  91.579  74.736  1.00  0.00     0.008 A 
ATOM     43  C   UNL     1      89.485  92.970  72.847  1.00  0.00     0.008 A 
ATOM     44  C   UNL     1      89.071  90.667  74.365  1.00  0.00     0.046 A 
ATOM     45  C   UNL     1      88.496  92.059  72.477  1.00  0.00     0.046 A 
ATOM     46  C   UNL     1      88.289  90.908  73.235  1.00  0.00     0.115 A 
BRANCH  46  47
ATOM     47  O   UNL     1      87.324  90.019  72.874  1.00  0.00    -0.508 OA
ATOM     48  H   UNL     1      86.658  89.971  73.581  1.00  0.00     0.293 HD
ENDBRANCH  46  47
ENDBRANCH  40  41
ENDBRANCH  38  40
ENDBRANCH  37  38
ENDBRANCH   1  37
TORSDOF 10
ENDMDL
MODEL 10
REMARK VINA RESULT:    -6.151     17.002     22.789
REMARK INTER + INTRA:         -11.933
REMARK INTER:                 -10.994
REMARK INTRA:                  -0.939
REMARK UNBOUND:                -1.466
REMARK SMILES C=C(C)[C@]12C[C@@H](C)[C@@]34O[C@](Cc5ccccc5)(O[C@@H]1[C@@H]3C=C(COC(=O)Cc1ccc(O)cc1)C[C@]1(O)C(=O)C(C)=C[C@@H]41)O2
REMARK SMILES IDX 23 1 22 2 21 3 20 4 9 5 8 6 10 7 6 8 18 10 44 11 19 12 5 13
REMARK SMILES IDX 7 14 4 15 11 16 12 17 13 18 17 19 14 20 16 21 15 22 2 23
REMARK SMILES IDX 3 24 1 25 35 26 36 27 43 28 38 29 42 30 39 32 40 33 41 34
REMARK SMILES IDX 37 35 24 37 25 38 26 39 27 40 28 41 29 42 34 43 30 44 33 45
REMARK SMILES IDX 31 46 32 47
REMARK H PARENT 37 36 32 48
REMARK Flexibility Score: 90.00
ROOT
ATOM      1  C   UNL     1      95.683  95.021  75.002  1.00  0.00     0.264 C 
ENDROOT
BRANCH   1   2
ATOM      2  C   UNL     1      96.023  96.201  74.120  1.00  0.00    -0.033 C 
ATOM      3  C   UNL     1      95.035  97.019  73.704  1.00  0.00    -0.015 C 
BRANCH   3   4
ATOM      4  C   UNL     1      95.101  98.212  72.764  1.00  0.00     0.078 C 
ATOM      5  O   UNL     1      95.427 100.220  74.170  1.00  0.00    -0.319 OA
ATOM      6  C   UNL     1      96.058  99.404  73.134  1.00  0.00     0.095 CG0
ATOM      7  C   UNL     1      94.022 100.476  73.981  1.00  0.00     0.289 C 
ATOM      8  C   UNL     1      96.260 100.280  71.829  1.00  0.00     0.023 C 
ATOM      9  G   UNL     1      97.365  98.880  73.796  1.00  0.00     0.000 G0
ATOM     10  O   UNL     1      93.283  99.262  73.889  1.00  0.00    -0.320 OA
ATOM     11  O   UNL     1      93.757 101.181  72.770  1.00  0.00    -0.313 OA
ATOM     12  C   UNL     1      93.688  98.819  72.584  1.00  0.00     0.170 C 
ATOM     13  C   UNL     1      94.980 100.283  70.938  1.00  0.00     0.049 C 
ATOM     14  C   UNL     1      96.717 101.729  72.068  1.00  0.00     0.011 C 
ATOM     15  C   UNL     1      93.708 100.138  71.774  1.00  0.00     0.122 C 
BRANCH   7  16
ATOM     16  C   UNL     1      93.526 101.291  75.159  1.00  0.00     0.135 C 
BRANCH  16  17
ATOM     17  C   UNL     1      92.374 102.189  74.781  1.00  0.00    -0.040 A 
ATOM     18  C   UNL     1      91.061 101.756  74.966  1.00  0.00     0.004 A 
ATOM     19  C   UNL     1      92.622 103.452  74.246  1.00  0.00     0.004 A 
ATOM     20  C   UNL     1      89.996 102.586  74.617  1.00  0.00     0.000 A 
ATOM     21  C   UNL     1      91.557 104.283  73.896  1.00  0.00     0.000 A 
ATOM     22  C   UNL     1      90.245 103.850  74.082  1.00  0.00     0.000 A 
ENDBRANCH  16  17
ENDBRANCH   7  16
BRANCH  15  23
ATOM     23  C   UNL     1      92.465 100.320  70.965  1.00  0.00    -0.046 C 
ATOM     24  C   UNL     1      92.046  99.150  70.125  1.00  0.00     0.042 C 
ATOM     25  C   UNL     1      91.765 101.463  70.987  1.00  0.00     0.010 C 
ENDBRANCH  15  23
ENDBRANCH   3   4
BRANCH   2  26
ATOM     26  C   UNL     1      97.506  96.309  73.816  1.00  0.00     0.078 C 
BRANCH  26  27
ATOM     27  C   UNL     1      97.989  97.596  73.149  1.00  0.00     0.140 C 
ATOM     28  C   UNL     1      97.377  98.855  73.798  1.00  0.00     0.086 CG0
ATOM     29  C   UNL     1      99.474  97.823  73.335  1.00  0.00     0.190 C 
ATOM     30  C   UNL     1      98.557  99.772  73.962  1.00  0.00    -0.010 C 
ATOM     31  G   UNL     1      96.073  99.398  73.145  1.00  0.00     0.000 G0
ATOM     32  O   UNL     1     100.348  96.992  73.135  1.00  0.00    -0.291 OA
ATOM     33  C   UNL     1      99.751  99.215  73.737  1.00  0.00    -0.008 C 
ATOM     34  C   UNL     1     101.108  99.782  73.880  1.00  0.00     0.048 C 
BRANCH  27  35
ATOM     35  O   UNL     1      97.828  97.542  71.741  1.00  0.00    -0.381 OA
ATOM     36  H   UNL     1      98.632  97.152  71.356  1.00  0.00     0.212 HD
ENDBRANCH  27  35
ENDBRANCH  26  27
ENDBRANCH   2  26
ENDBRANCH   1   2
BRANCH   1  37
ATOM     37  O   UNL     1      94.960  95.473  76.126  1.00  0.00    -0.461 OA
BRANCH  37  38
ATOM     38  C   UNL     1      94.139  94.550  76.732  1.00  0.00     0.310 C 
ATOM     39  O   UNL     1      94.512  93.678  77.504  1.00  0.00    -0.252 OA
BRANCH  38  40
ATOM     40  C   UNL     1      92.712  94.782  76.295  1.00  0.00     0.158 C 
BRANCH  40  41
ATOM     41  C   UNL     1      92.047  93.535  75.773  1.00  0.00    -0.037 A 
ATOM     42  C   UNL     1      92.543  92.905  74.631  1.00  0.00     0.008 A 
ATOM     43  C   UNL     1      90.935  93.009  76.430  1.00  0.00     0.008 A 
ATOM     44  C   UNL     1      91.927  91.751  74.146  1.00  0.00     0.046 A 
ATOM     45  C   UNL     1      90.319  91.855  75.947  1.00  0.00     0.046 A 
ATOM     46  C   UNL     1      90.814  91.226  74.805  1.00  0.00     0.115 A 
BRANCH  46  47
ATOM     47  O   UNL     1      90.213  90.100  74.332  1.00  0.00    -0.508 OA
ATOM     48  H   UNL     1      89.423  90.354  73.824  1.00  0.00     0.293 HD
ENDBRANCH  46  47
ENDBRANCH  40  41
ENDBRANCH  38  40
ENDBRANCH  37  38
ENDBRANCH   1  37
TORSDOF 10
ENDMDL
