MODEL 1
REMARK VINA RESULT:    -5.444      0.000      0.000
REMARK INTER + INTRA:          -9.601
REMARK INTER:                  -8.786
REMARK INTRA:                  -0.814
REMARK UNBOUND:                -0.814
REMARK SMILES CCCCCCCCC(=O)NCc1ccc(O)c(OC)c1
REMARK SMILES IDX 7 1 6 2 5 3 4 4 3 5 2 6 1 7 8 8 9 9 10 10 11 11 12 13 13 14
REMARK SMILES IDX 21 15 14 16 18 17 15 18 16 19 19 20 20 21 17 22
REMARK H PARENT 11 12 17 23
REMARK Flexibility Score: inf
ROOT
ATOM      1  C   UNL     1      71.163  83.505  66.640  1.00  0.00     0.010 C 
ENDROOT
BRANCH   1   2
ATOM      2  C   UNL     1      69.803  83.631  67.385  1.00  0.00     0.001 C 
BRANCH   2   3
ATOM      3  C   UNL     1      69.719  82.689  68.622  1.00  0.00     0.000 C 
BRANCH   3   4
ATOM      4  C   UNL     1      69.190  83.387  69.907  1.00  0.00    -0.000 C 
BRANCH   4   5
ATOM      5  C   UNL     1      70.334  83.939  70.804  1.00  0.00    -0.000 C 
BRANCH   5   6
ATOM      6  C   UNL     1      70.704  85.407  70.462  1.00  0.00    -0.003 C 
ATOM      7  C   UNL     1      69.693  86.428  71.031  1.00  0.00     0.004 C 
ENDBRANCH   5   6
ENDBRANCH   4   5
ENDBRANCH   3   4
ENDBRANCH   2   3
ENDBRANCH   1   2
BRANCH   1   8
ATOM      8  C   UNL     1      71.565  82.040  66.308  1.00  0.00     0.100 C 
BRANCH   8   9
ATOM      9  C   UNL     1      72.885  81.982  65.635  1.00  0.00     0.220 C 
ATOM     10  O   UNL     1      72.931  82.188  64.398  1.00  0.00    -0.275 OA
ATOM     11  N   UNL     1      74.020  81.740  66.353  1.00  0.00    -0.352 N 
ATOM     12  H   UNL     1      73.859  81.503  67.321  1.00  0.00     0.163 HD
BRANCH  11  13
ATOM     13  C   UNL     1      75.358  81.798  65.847  1.00  0.00     0.151 C 
BRANCH  13  14
ATOM     14  C   UNL     1      76.244  82.728  66.597  1.00  0.00    -0.025 A 
ATOM     15  C   UNL     1      75.784  83.350  67.783  1.00  0.00     0.056 A 
ATOM     16  C   UNL     1      77.553  83.010  66.143  1.00  0.00     0.009 A 
ATOM     17  C   UNL     1      76.621  84.222  68.516  1.00  0.00     0.160 A 
ATOM     18  C   UNL     1      78.391  83.876  66.868  1.00  0.00     0.050 A 
ATOM     19  C   UNL     1      77.928  84.489  68.048  1.00  0.00     0.157 A 
BRANCH  17  20
ATOM     20  O   UNL     1      76.159  84.857  69.641  1.00  0.00    -0.493 OA
ATOM     21  C   UNL     1      76.407  84.141  70.864  1.00  0.00     0.278 C 
ENDBRANCH  17  20
BRANCH  19  22
ATOM     22  O   UNL     1      78.735  85.344  68.726  1.00  0.00    -0.504 OA
ATOM     23  H   UNL     1      78.497  85.339  69.656  1.00  0.00     0.293 HD
ENDBRANCH  19  22
ENDBRANCH  13  14
ENDBRANCH  11  13
ENDBRANCH   8   9
ENDBRANCH   1   8
TORSDOF 11
ENDMDL
MODEL 2
REMARK VINA RESULT:    -5.396     26.054     28.432
REMARK INTER + INTRA:          -9.523
REMARK INTER:                  -8.765
REMARK INTRA:                  -0.758
REMARK UNBOUND:                -0.814
REMARK SMILES CCCCCCCCC(=O)NCc1ccc(O)c(OC)c1
REMARK SMILES IDX 7 1 6 2 5 3 4 4 3 5 2 6 1 7 8 8 9 9 10 10 11 11 12 13 13 14
REMARK SMILES IDX 21 15 14 16 18 17 15 18 16 19 19 20 20 21 17 22
REMARK H PARENT 11 12 17 23
REMARK Flexibility Score: inf
ROOT
ATOM      1  C   UNL     1      97.839  83.320  84.830  1.00  0.00     0.010 C 
ENDROOT
BRANCH   1   2
ATOM      2  C   UNL     1      98.064  83.425  86.366  1.00  0.00     0.001 C 
BRANCH   2   3
ATOM      3  C   UNL     1      97.367  84.675  86.979  1.00  0.00     0.000 C 
BRANCH   3   4
ATOM      4  C   UNL     1      96.359  85.366  86.017  1.00  0.00    -0.000 C 
BRANCH   4   5
ATOM      5  C   UNL     1      95.106  85.917  86.754  1.00  0.00    -0.000 C 
BRANCH   5   6
ATOM      6  C   UNL     1      95.255  85.869  88.299  1.00  0.00    -0.003 C 
ATOM      7  C   UNL     1      94.254  84.902  88.969  1.00  0.00     0.004 C 
ENDBRANCH   5   6
ENDBRANCH   4   5
ENDBRANCH   3   4
ENDBRANCH   2   3
ENDBRANCH   1   2
BRANCH   1   8
ATOM      8  C   UNL     1      97.764  81.860  84.303  1.00  0.00     0.100 C 
BRANCH   8   9
ATOM      9  C   UNL     1      98.689  81.649  83.163  1.00  0.00     0.220 C 
ATOM     10  O   UNL     1      98.980  80.472  82.842  1.00  0.00    -0.275 OA
ATOM     11  N   UNL     1      99.184  82.714  82.466  1.00  0.00    -0.352 N 
ATOM     12  H   UNL     1      98.957  83.614  82.861  1.00  0.00     0.163 HD
BRANCH  11  13
ATOM     13  C   UNL     1      99.965  82.638  81.269  1.00  0.00     0.151 C 
BRANCH  13  14
ATOM     14  C   UNL     1      99.202  82.956  80.032  1.00  0.00    -0.025 A 
ATOM     15  C   UNL     1      99.818  82.831  78.764  1.00  0.00     0.056 A 
ATOM     16  C   UNL     1      97.858  83.390  80.098  1.00  0.00     0.009 A 
ATOM     17  C   UNL     1      99.100  83.113  77.578  1.00  0.00     0.160 A 
ATOM     18  C   UNL     1      97.139  83.671  78.923  1.00  0.00     0.050 A 
ATOM     19  C   UNL     1      97.756  83.541  77.665  1.00  0.00     0.157 A 
BRANCH  17  20
ATOM     20  O   UNL     1      99.711  83.032  76.353  1.00  0.00    -0.493 OA
ATOM     21  C   UNL     1     100.681  84.066  76.109  1.00  0.00     0.278 C 
ENDBRANCH  17  20
BRANCH  19  22
ATOM     22  O   UNL     1      97.062  83.841  76.537  1.00  0.00    -0.504 OA
ATOM     23  H   UNL     1      96.199  83.422  76.573  1.00  0.00     0.293 HD
ENDBRANCH  19  22
ENDBRANCH  13  14
ENDBRANCH  11  13
ENDBRANCH   8   9
ENDBRANCH   1   8
TORSDOF 11
ENDMDL
MODEL 3
REMARK VINA RESULT:    -5.360     25.267     27.564
REMARK INTER + INTRA:          -9.464
REMARK INTER:                  -8.992
REMARK INTRA:                  -0.472
REMARK UNBOUND:                -0.814
REMARK SMILES CCCCCCCCC(=O)NCc1ccc(O)c(OC)c1
REMARK SMILES IDX 7 1 6 2 5 3 4 4 3 5 2 6 1 7 8 8 9 9 10 10 11 11 12 13 13 14
REMARK SMILES IDX 21 15 14 16 18 17 15 18 16 19 19 20 20 21 17 22
REMARK H PARENT 11 12 17 23
REMARK Flexibility Score: inf
ROOT
ATOM      1  C   UNL     1      96.563  82.730  85.866  1.00  0.00     0.010 C 
ENDROOT
BRANCH   1   2
ATOM      2  C   UNL     1      95.332  83.164  86.713  1.00  0.00     0.001 C 
BRANCH   2   3
ATOM      3  C   UNL     1      94.097  82.248  86.470  1.00  0.00     0.000 C 
BRANCH   3   4
ATOM      4  C   UNL     1      92.941  82.470  87.486  1.00  0.00    -0.000 C 
BRANCH   4   5
ATOM      5  C   UNL     1      91.586  81.891  86.990  1.00  0.00    -0.000 C 
BRANCH   5   6
ATOM      6  C   UNL     1      91.621  80.347  86.828  1.00  0.00    -0.003 C 
ATOM      7  C   UNL     1      91.326  79.889  85.383  1.00  0.00     0.004 C 
ENDBRANCH   5   6
ENDBRANCH   4   5
ENDBRANCH   3   4
ENDBRANCH   2   3
ENDBRANCH   1   2
BRANCH   1   8
ATOM      8  C   UNL     1      96.887  83.691  84.688  1.00  0.00     0.100 C 
BRANCH   8   9
ATOM      9  C   UNL     1      98.026  83.192  83.882  1.00  0.00     0.220 C 
ATOM     10  O   UNL     1      98.934  82.553  84.466  1.00  0.00    -0.275 OA
ATOM     11  N   UNL     1      98.066  83.401  82.533  1.00  0.00    -0.352 N 
ATOM     12  H   UNL     1      97.333  83.999  82.181  1.00  0.00     0.163 HD
BRANCH  11  13
ATOM     13  C   UNL     1      99.031  82.852  81.630  1.00  0.00     0.151 C 
BRANCH  13  14
ATOM     14  C   UNL     1      98.708  83.076  80.196  1.00  0.00    -0.025 A 
ATOM     15  C   UNL     1      99.690  82.852  79.201  1.00  0.00     0.056 A 
ATOM     16  C   UNL     1      97.425  83.517  79.800  1.00  0.00     0.009 A 
ATOM     17  C   UNL     1      99.393  83.044  77.832  1.00  0.00     0.160 A 
ATOM     18  C   UNL     1      97.122  83.709  78.440  1.00  0.00     0.050 A 
ATOM     19  C   UNL     1      98.103  83.482  77.456  1.00  0.00     0.157 A 
BRANCH  17  20
ATOM     20  O   UNL     1     100.358  82.867  76.874  1.00  0.00    -0.493 OA
ATOM     21  C   UNL     1     101.316  83.938  76.798  1.00  0.00     0.278 C 
ENDBRANCH  17  20
BRANCH  19  22
ATOM     22  O   UNL     1      97.810  83.696  76.148  1.00  0.00    -0.504 OA
ATOM     23  H   UNL     1      97.067  84.301  76.081  1.00  0.00     0.293 HD
ENDBRANCH  19  22
ENDBRANCH  13  14
ENDBRANCH  11  13
ENDBRANCH   8   9
ENDBRANCH   1   8
TORSDOF 11
ENDMDL
MODEL 4
REMARK VINA RESULT:    -5.262      2.522      4.521
REMARK INTER + INTRA:          -9.306
REMARK INTER:                  -8.532
REMARK INTRA:                  -0.774
REMARK UNBOUND:                -0.814
REMARK SMILES CCCCCCCCC(=O)NCc1ccc(O)c(OC)c1
REMARK SMILES IDX 7 1 6 2 5 3 4 4 3 5 2 6 1 7 8 8 9 9 10 10 11 11 12 13 13 14
REMARK SMILES IDX 21 15 14 16 18 17 15 18 16 19 19 20 20 21 17 22
REMARK H PARENT 11 12 17 23
REMARK Flexibility Score: inf
ROOT
ATOM      1  C   UNL     1      74.808  81.779  64.076  1.00  0.00     0.010 C 
ENDROOT
BRANCH   1   2
ATOM      2  C   UNL     1      74.275  80.569  63.255  1.00  0.00     0.001 C 
BRANCH   2   3
ATOM      3  C   UNL     1      72.745  80.353  63.450  1.00  0.00     0.000 C 
BRANCH   3   4
ATOM      4  C   UNL     1      72.164  81.076  64.698  1.00  0.00    -0.000 C 
BRANCH   4   5
ATOM      5  C   UNL     1      71.327  82.334  64.328  1.00  0.00    -0.000 C 
BRANCH   5   6
ATOM      6  C   UNL     1      70.350  82.753  65.459  1.00  0.00    -0.003 C 
ATOM      7  C   UNL     1      71.021  82.787  66.850  1.00  0.00     0.004 C 
ENDBRANCH   5   6
ENDBRANCH   4   5
ENDBRANCH   3   4
ENDBRANCH   2   3
ENDBRANCH   1   2
BRANCH   1   8
ATOM      8  C   UNL     1      76.007  81.432  65.001  1.00  0.00     0.100 C 
BRANCH   8   9
ATOM      9  C   UNL     1      76.898  82.602  65.192  1.00  0.00     0.220 C 
ATOM     10  O   UNL     1      77.007  83.426  64.253  1.00  0.00    -0.275 OA
ATOM     11  N   UNL     1      77.557  82.787  66.374  1.00  0.00    -0.352 N 
ATOM     12  H   UNL     1      77.467  82.022  67.026  1.00  0.00     0.163 HD
BRANCH  11  13
ATOM     13  C   UNL     1      78.327  83.939  66.729  1.00  0.00     0.151 C 
BRANCH  13  14
ATOM     14  C   UNL     1      77.656  84.831  67.712  1.00  0.00    -0.025 A 
ATOM     15  C   UNL     1      76.381  84.494  68.225  1.00  0.00     0.056 A 
ATOM     16  C   UNL     1      78.272  86.027  68.147  1.00  0.00     0.009 A 
ATOM     17  C   UNL     1      75.738  85.323  69.173  1.00  0.00     0.160 A 
ATOM     18  C   UNL     1      77.638  86.856  69.090  1.00  0.00     0.050 A 
ATOM     19  C   UNL     1      76.371  86.513  69.598  1.00  0.00     0.157 A 
BRANCH  17  20
ATOM     20  O   UNL     1      74.484  85.016  69.637  1.00  0.00    -0.493 OA
ATOM     21  C   UNL     1      73.418  85.386  68.745  1.00  0.00     0.278 C 
ENDBRANCH  17  20
BRANCH  19  22
ATOM     22  O   UNL     1      75.755  87.333  70.488  1.00  0.00    -0.504 OA
ATOM     23  H   UNL     1      75.363  86.808  71.189  1.00  0.00     0.293 HD
ENDBRANCH  19  22
ENDBRANCH  13  14
ENDBRANCH  11  13
ENDBRANCH   8   9
ENDBRANCH   1   8
TORSDOF 11
ENDMDL
MODEL 5
REMARK VINA RESULT:    -5.151      3.029      6.253
REMARK INTER + INTRA:          -9.128
REMARK INTER:                  -8.098
REMARK INTRA:                  -1.030
REMARK UNBOUND:                -0.814
REMARK SMILES CCCCCCCCC(=O)NCc1ccc(O)c(OC)c1
REMARK SMILES IDX 7 1 6 2 5 3 4 4 3 5 2 6 1 7 8 8 9 9 10 10 11 11 12 13 13 14
REMARK SMILES IDX 21 15 14 16 18 17 15 18 16 19 19 20 20 21 17 22
REMARK H PARENT 11 12 17 23
REMARK Flexibility Score: inf
ROOT
ATOM      1  C   UNL     1      77.420  84.486  66.937  1.00  0.00     0.010 C 
ENDROOT
BRANCH   1   2
ATOM      2  C   UNL     1      77.796  85.961  67.261  1.00  0.00     0.001 C 
BRANCH   2   3
ATOM      3  C   UNL     1      76.611  86.743  67.902  1.00  0.00     0.000 C 
BRANCH   3   4
ATOM      4  C   UNL     1      76.829  87.093  69.401  1.00  0.00    -0.000 C 
BRANCH   4   5
ATOM      5  C   UNL     1      75.629  86.674  70.296  1.00  0.00    -0.000 C 
BRANCH   5   6
ATOM      6  C   UNL     1      75.404  85.138  70.310  1.00  0.00    -0.003 C 
ATOM      7  C   UNL     1      76.631  84.357  70.831  1.00  0.00     0.004 C 
ENDBRANCH   5   6
ENDBRANCH   4   5
ENDBRANCH   3   4
ENDBRANCH   2   3
ENDBRANCH   1   2
BRANCH   1   8
ATOM      8  C   UNL     1      77.895  84.009  65.537  1.00  0.00     0.100 C 
BRANCH   8   9
ATOM      9  C   UNL     1      76.988  82.975  64.982  1.00  0.00     0.220 C 
ATOM     10  O   UNL     1      76.851  82.909  63.737  1.00  0.00    -0.275 OA
ATOM     11  N   UNL     1      76.344  82.101  65.811  1.00  0.00    -0.352 N 
ATOM     12  H   UNL     1      76.457  82.297  66.794  1.00  0.00     0.163 HD
BRANCH  11  13
ATOM     13  C   UNL     1      75.560  80.978  65.394  1.00  0.00     0.151 C 
BRANCH  13  14
ATOM     14  C   UNL     1      74.161  81.325  65.030  1.00  0.00    -0.025 A 
ATOM     15  C   UNL     1      73.328  81.993  65.959  1.00  0.00     0.056 A 
ATOM     16  C   UNL     1      73.637  80.992  63.760  1.00  0.00     0.009 A 
ATOM     17  C   UNL     1      72.000  82.344  65.621  1.00  0.00     0.160 A 
ATOM     18  C   UNL     1      72.318  81.339  63.417  1.00  0.00     0.050 A 
ATOM     19  C   UNL     1      71.495  82.007  64.344  1.00  0.00     0.157 A 
BRANCH  17  20
ATOM     20  O   UNL     1      71.181  82.954  66.537  1.00  0.00    -0.493 OA
ATOM     21  C   UNL     1      71.455  84.353  66.732  1.00  0.00     0.278 C 
ENDBRANCH  17  20
BRANCH  19  22
ATOM     22  O   UNL     1      70.215  82.313  64.014  1.00  0.00    -0.504 OA
ATOM     23  H   UNL     1      69.728  82.553  64.806  1.00  0.00     0.293 HD
ENDBRANCH  19  22
ENDBRANCH  13  14
ENDBRANCH  11  13
ENDBRANCH   8   9
ENDBRANCH   1   8
TORSDOF 11
ENDMDL
MODEL 6
REMARK VINA RESULT:    -5.113     23.182     27.119
REMARK INTER + INTRA:          -9.065
REMARK INTER:                  -7.754
REMARK INTRA:                  -1.311
REMARK UNBOUND:                -0.814
REMARK SMILES CCCCCCCCC(=O)NCc1ccc(O)c(OC)c1
REMARK SMILES IDX 7 1 6 2 5 3 4 4 3 5 2 6 1 7 8 8 9 9 10 10 11 11 12 13 13 14
REMARK SMILES IDX 21 15 14 16 18 17 15 18 16 19 19 20 20 21 17 22
REMARK H PARENT 11 12 17 23
REMARK Flexibility Score: inf
ROOT
ATOM      1  C   UNL     1      94.832  96.789  82.389  1.00  0.00     0.010 C 
ENDROOT
BRANCH   1   2
ATOM      2  C   UNL     1      95.621  98.125  82.266  1.00  0.00     0.001 C 
BRANCH   2   3
ATOM      3  C   UNL     1      97.137  97.891  82.001  1.00  0.00     0.000 C 
BRANCH   3   4
ATOM      4  C   UNL     1      97.678  98.641  80.751  1.00  0.00    -0.000 C 
BRANCH   4   5
ATOM      5  C   UNL     1      97.377  97.889  79.423  1.00  0.00    -0.000 C 
BRANCH   5   6
ATOM      6  C   UNL     1      96.287  98.594  78.573  1.00  0.00    -0.003 C 
ATOM      7  C   UNL     1      96.078 100.072  78.972  1.00  0.00     0.004 C 
ENDBRANCH   5   6
ENDBRANCH   4   5
ENDBRANCH   3   4
ENDBRANCH   2   3
ENDBRANCH   1   2
BRANCH   1   8
ATOM      8  C   UNL     1      95.723  95.520  82.279  1.00  0.00     0.100 C 
BRANCH   8   9
ATOM      9  C   UNL     1      95.326  94.681  81.123  1.00  0.00     0.220 C 
ATOM     10  O   UNL     1      94.856  93.540  81.349  1.00  0.00    -0.275 OA
ATOM     11  N   UNL     1      95.443  95.155  79.848  1.00  0.00    -0.352 N 
ATOM     12  H   UNL     1      95.911  96.047  79.775  1.00  0.00     0.163 HD
BRANCH  11  13
ATOM     13  C   UNL     1      94.967  94.504  78.666  1.00  0.00     0.151 C 
BRANCH  13  14
ATOM     14  C   UNL     1      93.565  94.852  78.311  1.00  0.00    -0.025 A 
ATOM     15  C   UNL     1      92.492  94.063  78.790  1.00  0.00     0.056 A 
ATOM     16  C   UNL     1      93.279  95.967  77.491  1.00  0.00     0.009 A 
ATOM     17  C   UNL     1      91.153  94.391  78.475  1.00  0.00     0.160 A 
ATOM     18  C   UNL     1      91.949  96.300  77.175  1.00  0.00     0.050 A 
ATOM     19  C   UNL     1      90.886  95.513  77.657  1.00  0.00     0.157 A 
BRANCH  17  20
ATOM     20  O   UNL     1      90.117  93.601  78.905  1.00  0.00    -0.493 OA
ATOM     21  C   UNL     1      89.852  92.467  78.061  1.00  0.00     0.278 C 
ENDBRANCH  17  20
BRANCH  19  22
ATOM     22  O   UNL     1      89.608  95.826  77.324  1.00  0.00    -0.504 OA
ATOM     23  H   UNL     1      89.440  95.560  76.417  1.00  0.00     0.293 HD
ENDBRANCH  19  22
ENDBRANCH  13  14
ENDBRANCH  11  13
ENDBRANCH   8   9
ENDBRANCH   1   8
TORSDOF 11
ENDMDL
MODEL 7
REMARK VINA RESULT:    -5.101      6.525      8.790
REMARK INTER + INTRA:          -9.046
REMARK INTER:                  -8.152
REMARK INTRA:                  -0.894
REMARK UNBOUND:                -0.814
REMARK SMILES CCCCCCCCC(=O)NCc1ccc(O)c(OC)c1
REMARK SMILES IDX 7 1 6 2 5 3 4 4 3 5 2 6 1 7 8 8 9 9 10 10 11 11 12 13 13 14
REMARK SMILES IDX 21 15 14 16 18 17 15 18 16 19 19 20 20 21 17 22
REMARK H PARENT 11 12 17 23
REMARK Flexibility Score: inf
ROOT
ATOM      1  C   UNL     1      74.890  92.438  71.055  1.00  0.00     0.010 C 
ENDROOT
BRANCH   1   2
ATOM      2  C   UNL     1      76.091  93.337  71.467  1.00  0.00     0.001 C 
BRANCH   2   3
ATOM      3  C   UNL     1      77.225  92.524  72.159  1.00  0.00     0.000 C 
BRANCH   3   4
ATOM      4  C   UNL     1      77.930  93.290  73.314  1.00  0.00    -0.000 C 
BRANCH   4   5
ATOM      5  C   UNL     1      77.543  92.746  74.719  1.00  0.00    -0.000 C 
BRANCH   5   6
ATOM      6  C   UNL     1      76.111  93.165  75.147  1.00  0.00    -0.003 C 
ATOM      7  C   UNL     1      75.672  92.527  76.483  1.00  0.00     0.004 C 
ENDBRANCH   5   6
ENDBRANCH   4   5
ENDBRANCH   3   4
ENDBRANCH   2   3
ENDBRANCH   1   2
BRANCH   1   8
ATOM      8  C   UNL     1      74.137  91.804  72.257  1.00  0.00     0.100 C 
BRANCH   8   9
ATOM      9  C   UNL     1      73.714  90.415  71.957  1.00  0.00     0.220 C 
ATOM     10  O   UNL     1      72.543  90.073  72.248  1.00  0.00    -0.275 OA
ATOM     11  N   UNL     1      74.574  89.543  71.352  1.00  0.00    -0.352 N 
ATOM     12  H   UNL     1      75.514  89.893  71.241  1.00  0.00     0.163 HD
BRANCH  11  13
ATOM     13  C   UNL     1      74.243  88.231  70.886  1.00  0.00     0.151 C 
BRANCH  13  14
ATOM     14  C   UNL     1      75.411  87.461  70.379  1.00  0.00    -0.025 A 
ATOM     15  C   UNL     1      75.484  86.062  70.583  1.00  0.00     0.056 A 
ATOM     16  C   UNL     1      76.465  88.107  69.693  1.00  0.00     0.009 A 
ATOM     17  C   UNL     1      76.579  85.314  70.092  1.00  0.00     0.160 A 
ATOM     18  C   UNL     1      77.556  87.369  69.202  1.00  0.00     0.050 A 
ATOM     19  C   UNL     1      77.621  85.977  69.405  1.00  0.00     0.157 A 
BRANCH  17  20
ATOM     20  O   UNL     1      76.668  83.965  70.327  1.00  0.00    -0.493 OA
ATOM     21  C   UNL     1      76.055  83.540  71.556  1.00  0.00     0.278 C 
ENDBRANCH  17  20
BRANCH  19  22
ATOM     22  O   UNL     1      78.692  85.277  68.950  1.00  0.00    -0.504 OA
ATOM     23  H   UNL     1      78.628  84.366  69.247  1.00  0.00     0.293 HD
ENDBRANCH  19  22
ENDBRANCH  13  14
ENDBRANCH  11  13
ENDBRANCH   8   9
ENDBRANCH   1   8
TORSDOF 11
ENDMDL
MODEL 8
REMARK VINA RESULT:    -5.031     26.239     28.740
REMARK INTER + INTRA:          -8.933
REMARK INTER:                  -8.213
REMARK INTRA:                  -0.720
REMARK UNBOUND:                -0.814
REMARK SMILES CCCCCCCCC(=O)NCc1ccc(O)c(OC)c1
REMARK SMILES IDX 7 1 6 2 5 3 4 4 3 5 2 6 1 7 8 8 9 9 10 10 11 11 12 13 13 14
REMARK SMILES IDX 21 15 14 16 18 17 15 18 16 19 19 20 20 21 17 22
REMARK H PARENT 11 12 17 23
REMARK Flexibility Score: inf
ROOT
ATOM      1  C   UNL     1      98.190  82.920  82.393  1.00  0.00     0.010 C 
ENDROOT
BRANCH   1   2
ATOM      2  C   UNL     1      98.906  83.181  81.036  1.00  0.00     0.001 C 
BRANCH   2   3
ATOM      3  C   UNL     1      98.836  81.948  80.087  1.00  0.00     0.000 C 
BRANCH   3   4
ATOM      4  C   UNL     1      98.014  82.200  78.792  1.00  0.00    -0.000 C 
BRANCH   4   5
ATOM      5  C   UNL     1      97.419  83.636  78.728  1.00  0.00    -0.000 C 
BRANCH   5   6
ATOM      6  C   UNL     1      97.493  84.249  77.304  1.00  0.00    -0.003 C 
ATOM      7  C   UNL     1      98.446  83.476  76.366  1.00  0.00     0.004 C 
ENDBRANCH   5   6
ENDBRANCH   4   5
ENDBRANCH   3   4
ENDBRANCH   2   3
ENDBRANCH   1   2
BRANCH   1   8
ATOM      8  C   UNL     1      98.543  81.551  83.038  1.00  0.00     0.100 C 
BRANCH   8   9
ATOM      9  C   UNL     1      98.028  81.460  84.426  1.00  0.00     0.220 C 
ATOM     10  O   UNL     1      97.727  80.329  84.876  1.00  0.00    -0.275 OA
ATOM     11  N   UNL     1      97.916  82.580  85.199  1.00  0.00    -0.352 N 
ATOM     12  H   UNL     1      98.102  83.444  84.712  1.00  0.00     0.163 HD
BRANCH  11  13
ATOM     13  C   UNL     1      97.570  82.606  86.587  1.00  0.00     0.151 C 
BRANCH  13  14
ATOM     14  C   UNL     1      96.140  82.925  86.845  1.00  0.00    -0.025 A 
ATOM     15  C   UNL     1      95.781  84.165  87.425  1.00  0.00     0.056 A 
ATOM     16  C   UNL     1      95.120  82.002  86.522  1.00  0.00     0.009 A 
ATOM     17  C   UNL     1      94.425  84.490  87.660  1.00  0.00     0.160 A 
ATOM     18  C   UNL     1      93.769  82.319  86.752  1.00  0.00     0.050 A 
ATOM     19  C   UNL     1      93.418  83.556  87.327  1.00  0.00     0.157 A 
BRANCH  17  20
ATOM     20  O   UNL     1      94.082  85.675  88.261  1.00  0.00    -0.493 OA
ATOM     21  C   UNL     1      95.191  86.383  88.843  1.00  0.00     0.278 C 
ENDBRANCH  17  20
BRANCH  19  22
ATOM     22  O   UNL     1      92.114  83.842  87.570  1.00  0.00    -0.504 OA
ATOM     23  H   UNL     1      91.982  84.792  87.530  1.00  0.00     0.293 HD
ENDBRANCH  19  22
ENDBRANCH  13  14
ENDBRANCH  11  13
ENDBRANCH   8   9
ENDBRANCH   1   8
TORSDOF 11
ENDMDL
MODEL 9
REMARK VINA RESULT:    -5.011      2.287      3.196
REMARK INTER + INTRA:          -8.901
REMARK INTER:                  -7.250
REMARK INTRA:                  -1.651
REMARK UNBOUND:                -0.814
REMARK SMILES CCCCCCCCC(=O)NCc1ccc(O)c(OC)c1
REMARK SMILES IDX 7 1 6 2 5 3 4 4 3 5 2 6 1 7 8 8 9 9 10 10 11 11 12 13 13 14
REMARK SMILES IDX 21 15 14 16 18 17 15 18 16 19 19 20 20 21 17 22
REMARK H PARENT 11 12 17 23
REMARK Flexibility Score: inf
ROOT
ATOM      1  C   UNL     1      71.529  84.104  66.527  1.00  0.00     0.010 C 
ENDROOT
BRANCH   1   2
ATOM      2  C   UNL     1      71.767  84.366  68.042  1.00  0.00     0.001 C 
BRANCH   2   3
ATOM      3  C   UNL     1      72.763  85.538  68.287  1.00  0.00     0.000 C 
BRANCH   3   4
ATOM      4  C   UNL     1      74.177  85.075  68.737  1.00  0.00    -0.000 C 
BRANCH   4   5
ATOM      5  C   UNL     1      74.640  85.754  70.057  1.00  0.00    -0.000 C 
BRANCH   5   6
ATOM      6  C   UNL     1      75.317  87.130  69.813  1.00  0.00    -0.003 C 
ATOM      7  C   UNL     1      74.877  88.204  70.832  1.00  0.00     0.004 C 
ENDBRANCH   5   6
ENDBRANCH   4   5
ENDBRANCH   3   4
ENDBRANCH   2   3
ENDBRANCH   1   2
BRANCH   1   8
ATOM      8  C   UNL     1      71.967  82.688  66.056  1.00  0.00     0.100 C 
BRANCH   8   9
ATOM      9  C   UNL     1      73.435  82.615  65.862  1.00  0.00     0.220 C 
ATOM     10  O   UNL     1      74.032  81.572  66.224  1.00  0.00    -0.275 OA
ATOM     11  N   UNL     1      74.111  83.647  65.277  1.00  0.00    -0.352 N 
ATOM     12  H   UNL     1      73.550  84.468  65.104  1.00  0.00     0.163 HD
BRANCH  11  13
ATOM     13  C   UNL     1      75.493  83.639  64.908  1.00  0.00     0.151 C 
BRANCH  13  14
ATOM     14  C   UNL     1      76.401  84.156  65.967  1.00  0.00    -0.025 A 
ATOM     15  C   UNL     1      76.711  85.535  66.029  1.00  0.00     0.056 A 
ATOM     16  C   UNL     1      76.971  83.285  66.925  1.00  0.00     0.009 A 
ATOM     17  C   UNL     1      77.558  86.044  67.040  1.00  0.00     0.160 A 
ATOM     18  C   UNL     1      77.813  83.784  67.934  1.00  0.00     0.050 A 
ATOM     19  C   UNL     1      78.115  85.159  67.991  1.00  0.00     0.157 A 
BRANCH  17  20
ATOM     20  O   UNL     1      77.891  87.374  67.073  1.00  0.00    -0.493 OA
ATOM     21  C   UNL     1      76.785  88.264  66.838  1.00  0.00     0.278 C 
ENDBRANCH  17  20
BRANCH  19  22
ATOM     22  O   UNL     1      78.951  85.627  68.952  1.00  0.00    -0.504 OA
ATOM     23  H   UNL     1      78.435  85.977  69.682  1.00  0.00     0.293 HD
ENDBRANCH  19  22
ENDBRANCH  13  14
ENDBRANCH  11  13
ENDBRANCH   8   9
ENDBRANCH   1   8
TORSDOF 11
ENDMDL
MODEL 10
REMARK VINA RESULT:    -4.988     27.133     30.173
REMARK INTER + INTRA:          -8.865
REMARK INTER:                  -8.050
REMARK INTRA:                  -0.814
REMARK UNBOUND:                -0.814
REMARK SMILES CCCCCCCCC(=O)NCc1ccc(O)c(OC)c1
REMARK SMILES IDX 7 1 6 2 5 3 4 4 3 5 2 6 1 7 8 8 9 9 10 10 11 11 12 13 13 14
REMARK SMILES IDX 21 15 14 16 18 17 15 18 16 19 19 20 20 21 17 22
REMARK H PARENT 11 12 17 23
REMARK Flexibility Score: inf
ROOT
ATOM      1  C   UNL     1      95.137  90.244  89.658  1.00  0.00     0.010 C 
ENDROOT
BRANCH   1   2
ATOM      2  C   UNL     1      93.837  91.091  89.541  1.00  0.00     0.001 C 
BRANCH   2   3
ATOM      3  C   UNL     1      92.903  90.909  90.774  1.00  0.00     0.000 C 
BRANCH   3   4
ATOM      4  C   UNL     1      92.496  92.247  91.455  1.00  0.00    -0.000 C 
BRANCH   4   5
ATOM      5  C   UNL     1      93.566  93.361  91.275  1.00  0.00    -0.000 C 
BRANCH   5   6
ATOM      6  C   UNL     1      92.968  94.672  90.697  1.00  0.00    -0.003 C 
ATOM      7  C   UNL     1      93.856  95.907  90.967  1.00  0.00     0.004 C 
ENDBRANCH   5   6
ENDBRANCH   4   5
ENDBRANCH   3   4
ENDBRANCH   2   3
ENDBRANCH   1   2
BRANCH   1   8
ATOM      8  C   UNL     1      95.201  89.362  90.936  1.00  0.00     0.100 C 
BRANCH   8   9
ATOM      9  C   UNL     1      95.481  87.945  90.601  1.00  0.00     0.220 C 
ATOM     10  O   UNL     1      96.159  87.265  91.408  1.00  0.00    -0.275 OA
ATOM     11  N   UNL     1      94.986  87.393  89.455  1.00  0.00    -0.352 N 
ATOM     12  H   UNL     1      94.530  88.049  88.838  1.00  0.00     0.163 HD
BRANCH  11  13
ATOM     13  C   UNL     1      95.066  86.011  89.091  1.00  0.00     0.151 C 
BRANCH  13  14
ATOM     14  C   UNL     1      93.749  85.319  89.064  1.00  0.00    -0.025 A 
ATOM     15  C   UNL     1      93.432  84.433  88.007  1.00  0.00     0.056 A 
ATOM     16  C   UNL     1      92.795  85.534  90.085  1.00  0.00     0.009 A 
ATOM     17  C   UNL     1      92.191  83.755  87.977  1.00  0.00     0.160 A 
ATOM     18  C   UNL     1      91.560  84.862  90.061  1.00  0.00     0.050 A 
ATOM     19  C   UNL     1      91.251  83.980  89.008  1.00  0.00     0.157 A 
BRANCH  17  20
ATOM     20  O   UNL     1      91.868  82.930  86.930  1.00  0.00    -0.493 OA
ATOM     21  C   UNL     1      92.875  81.950  86.620  1.00  0.00     0.278 C 
ENDBRANCH  17  20
BRANCH  19  22
ATOM     22  O   UNL     1      90.045  83.357  88.980  1.00  0.00    -0.504 OA
ATOM     23  H   UNL     1      89.357  83.980  89.226  1.00  0.00     0.293 HD
ENDBRANCH  19  22
ENDBRANCH  13  14
ENDBRANCH  11  13
ENDBRANCH   8   9
ENDBRANCH   1   8
TORSDOF 11
ENDMDL
