MODEL 1
REMARK VINA RESULT:    -6.216      0.000      0.000
REMARK INTER + INTRA:         -10.707
REMARK INTER:                 -10.031
REMARK INTRA:                  -0.676
REMARK UNBOUND:                -0.676
REMARK SMILES COc1cc(CNC(=O)CCCCCCC(C)C)ccc1O
REMARK SMILES IDX 11 1 10 2 8 3 7 4 9 6 6 7 5 8 3 9 21 10 4 11 20 12 19 13
REMARK SMILES IDX 2 14 1 15 22 16 12 18 13 19 14 20 15 21 16 22 17 23 18 24
REMARK H PARENT 7 5 22 17
REMARK Flexibility Score: inf
ROOT
ATOM      1  C   UNL     1      79.233  64.792  70.432  1.00  0.00     0.010 C 
ENDROOT
BRANCH   1   2
ATOM      2  C   UNL     1      80.266  65.931  70.652  1.00  0.00     0.100 C 
BRANCH   2   3
ATOM      3  C   UNL     1      81.474  65.493  71.387  1.00  0.00     0.220 C 
ATOM      4  N   UNL     1      81.624  65.796  72.709  1.00  0.00    -0.352 N 
ATOM      5  H   UNL     1      80.884  66.361  73.098  1.00  0.00     0.163 HD
ATOM      6  O   UNL     1      82.338  64.818  70.776  1.00  0.00    -0.275 OA
BRANCH   4   7
ATOM      7  C   UNL     1      82.717  65.377  73.533  1.00  0.00     0.151 C 
BRANCH   7   8
ATOM      8  C   UNL     1      83.603  66.499  73.948  1.00  0.00    -0.025 A 
ATOM      9  C   UNL     1      84.989  68.445  73.364  1.00  0.00     0.160 A 
ATOM     10  C   UNL     1      85.257  68.668  74.733  1.00  0.00     0.157 A 
ATOM     11  C   UNL     1      84.181  67.354  72.982  1.00  0.00     0.056 A 
ATOM     12  C   UNL     1      84.719  67.801  75.701  1.00  0.00     0.050 A 
ATOM     13  C   UNL     1      83.889  66.731  75.314  1.00  0.00     0.009 A 
BRANCH   9  14
ATOM     14  O   UNL     1      85.540  69.258  72.412  1.00  0.00    -0.493 OA
ATOM     15  C   UNL     1      84.735  70.409  72.096  1.00  0.00     0.278 C 
ENDBRANCH   9  14
BRANCH  10  16
ATOM     16  O   UNL     1      86.033  69.710  75.130  1.00  0.00    -0.504 OA
ATOM     17  H   UNL     1      85.474  70.459  75.351  1.00  0.00     0.293 HD
ENDBRANCH  10  16
ENDBRANCH   7   8
ENDBRANCH   4   7
ENDBRANCH   2   3
ENDBRANCH   1   2
BRANCH   1  18
ATOM     18  C   UNL     1      79.172  64.334  68.947  1.00  0.00     0.001 C 
BRANCH  18  19
ATOM     19  C   UNL     1      77.950  63.429  68.620  1.00  0.00     0.000 C 
BRANCH  19  20
ATOM     20  C   UNL     1      77.412  63.691  67.186  1.00  0.00     0.000 C 
BRANCH  20  21
ATOM     21  C   UNL     1      75.872  63.538  67.045  1.00  0.00     0.003 C 
BRANCH  21  22
ATOM     22  C   UNL     1      75.067  64.867  67.220  1.00  0.00    -0.017 C 
ATOM     23  C   UNL     1      75.834  66.056  66.574  1.00  0.00     0.007 C 
ATOM     24  C   UNL     1      74.708  65.191  68.700  1.00  0.00     0.007 C 
ENDBRANCH  21  22
ENDBRANCH  20  21
ENDBRANCH  19  20
ENDBRANCH  18  19
ENDBRANCH   1  18
TORSDOF 11
ENDMDL
MODEL 2
REMARK VINA RESULT:    -6.017     24.179     25.734
REMARK INTER + INTRA:         -10.386
REMARK INTER:                  -9.593
REMARK INTRA:                  -0.793
REMARK UNBOUND:                -0.676
REMARK SMILES COc1cc(CNC(=O)CCCCCCC(C)C)ccc1O
REMARK SMILES IDX 11 1 10 2 8 3 7 4 9 6 6 7 5 8 3 9 21 10 4 11 20 12 19 13
REMARK SMILES IDX 2 14 1 15 22 16 12 18 13 19 14 20 15 21 16 22 17 23 18 24
REMARK H PARENT 7 5 22 17
REMARK Flexibility Score: inf
ROOT
ATOM      1  C   UNL     1      98.404  82.128  78.307  1.00  0.00     0.010 C 
ENDROOT
BRANCH   1   2
ATOM      2  C   UNL     1      98.615  83.051  79.539  1.00  0.00     0.100 C 
BRANCH   2   3
ATOM      3  C   UNL     1      98.120  82.461  80.803  1.00  0.00     0.220 C 
ATOM      4  N   UNL     1      96.936  82.875  81.340  1.00  0.00    -0.352 N 
ATOM      5  H   UNL     1      96.481  83.620  80.833  1.00  0.00     0.163 HD
ATOM      6  O   UNL     1      98.799  81.559  81.352  1.00  0.00    -0.275 OA
BRANCH   4   7
ATOM      7  C   UNL     1      96.331  82.338  82.521  1.00  0.00     0.151 C 
BRANCH   7   8
ATOM      8  C   UNL     1      95.773  83.383  83.422  1.00  0.00    -0.025 A 
ATOM      9  C   UNL     1      94.432  84.007  85.387  1.00  0.00     0.160 A 
ATOM     10  C   UNL     1      94.741  85.367  85.169  1.00  0.00     0.157 A 
ATOM     11  C   UNL     1      94.934  83.029  84.502  1.00  0.00     0.056 A 
ATOM     12  C   UNL     1      95.543  85.736  84.074  1.00  0.00     0.050 A 
ATOM     13  C   UNL     1      96.065  84.752  83.212  1.00  0.00     0.009 A 
BRANCH   9  14
ATOM     14  O   UNL     1      93.620  83.640  86.426  1.00  0.00    -0.493 OA
ATOM     15  C   UNL     1      94.326  83.055  87.535  1.00  0.00     0.278 C 
ENDBRANCH   9  14
BRANCH  10  16
ATOM     16  O   UNL     1      94.270  86.330  86.004  1.00  0.00    -0.504 OA
ATOM     17  H   UNL     1      94.015  85.932  86.840  1.00  0.00     0.293 HD
ENDBRANCH  10  16
ENDBRANCH   7   8
ENDBRANCH   4   7
ENDBRANCH   2   3
ENDBRANCH   1   2
BRANCH   1  18
ATOM     18  C   UNL     1      97.053  82.407  77.589  1.00  0.00     0.001 C 
BRANCH  18  19
ATOM     19  C   UNL     1      96.655  83.910  77.564  1.00  0.00     0.000 C 
BRANCH  19  20
ATOM     20  C   UNL     1      96.663  84.480  76.118  1.00  0.00     0.000 C 
BRANCH  20  21
ATOM     21  C   UNL     1      98.014  84.303  75.371  1.00  0.00     0.003 C 
BRANCH  21  22
ATOM     22  C   UNL     1      97.917  84.425  73.815  1.00  0.00    -0.017 C 
ATOM     23  C   UNL     1      97.847  83.016  73.162  1.00  0.00     0.007 C 
ATOM     24  C   UNL     1      99.066  85.264  73.181  1.00  0.00     0.007 C 
ENDBRANCH  21  22
ENDBRANCH  20  21
ENDBRANCH  19  20
ENDBRANCH  18  19
ENDBRANCH   1  18
TORSDOF 11
ENDMDL
MODEL 3
REMARK VINA RESULT:    -5.699      1.468      2.268
REMARK INTER + INTRA:          -9.873
REMARK INTER:                  -9.127
REMARK INTRA:                  -0.746
REMARK UNBOUND:                -0.676
REMARK SMILES COc1cc(CNC(=O)CCCCCCC(C)C)ccc1O
REMARK SMILES IDX 11 1 10 2 8 3 7 4 9 6 6 7 5 8 3 9 21 10 4 11 20 12 19 13
REMARK SMILES IDX 2 14 1 15 22 16 12 18 13 19 14 20 15 21 16 22 17 23 18 24
REMARK H PARENT 7 5 22 17
REMARK Flexibility Score: inf
ROOT
ATOM      1  C   UNL     1      79.382  64.746  70.605  1.00  0.00     0.010 C 
ENDROOT
BRANCH   1   2
ATOM      2  C   UNL     1      80.186  66.050  70.866  1.00  0.00     0.100 C 
BRANCH   2   3
ATOM      3  C   UNL     1      81.608  65.950  70.465  1.00  0.00     0.220 C 
ATOM      4  N   UNL     1      82.522  65.383  71.304  1.00  0.00    -0.352 N 
ATOM      5  H   UNL     1      82.152  65.096  72.198  1.00  0.00     0.163 HD
ATOM      6  O   UNL     1      81.945  66.375  69.333  1.00  0.00    -0.275 OA
BRANCH   4   7
ATOM      7  C   UNL     1      83.907  65.180  71.002  1.00  0.00     0.151 C 
BRANCH   7   8
ATOM      8  C   UNL     1      84.770  66.322  71.412  1.00  0.00    -0.025 A 
ATOM      9  C   UNL     1      85.325  68.104  73.014  1.00  0.00     0.160 A 
ATOM     10  C   UNL     1      86.436  68.471  72.223  1.00  0.00     0.157 A 
ATOM     11  C   UNL     1      84.491  67.046  72.593  1.00  0.00     0.056 A 
ATOM     12  C   UNL     1      86.701  67.784  71.025  1.00  0.00     0.050 A 
ATOM     13  C   UNL     1      85.881  66.710  70.626  1.00  0.00     0.009 A 
BRANCH   9  14
ATOM     14  O   UNL     1      85.036  68.791  74.161  1.00  0.00    -0.493 OA
ATOM     15  C   UNL     1      85.298  68.048  75.365  1.00  0.00     0.278 C 
ENDBRANCH   9  14
BRANCH  10  16
ATOM     16  O   UNL     1      87.255  69.487  72.602  1.00  0.00    -0.504 OA
ATOM     17  H   UNL     1      88.164  69.261  72.388  1.00  0.00     0.293 HD
ENDBRANCH  10  16
ENDBRANCH   7   8
ENDBRANCH   4   7
ENDBRANCH   2   3
ENDBRANCH   1   2
BRANCH   1  18
ATOM     18  C   UNL     1      79.064  64.545  69.096  1.00  0.00     0.001 C 
BRANCH  18  19
ATOM     19  C   UNL     1      77.850  63.611  68.831  1.00  0.00     0.000 C 
BRANCH  19  20
ATOM     20  C   UNL     1      77.452  63.603  67.328  1.00  0.00     0.000 C 
BRANCH  20  21
ATOM     21  C   UNL     1      75.931  63.410  67.073  1.00  0.00     0.003 C 
BRANCH  21  22
ATOM     22  C   UNL     1      75.102  64.735  67.047  1.00  0.00    -0.017 C 
ATOM     23  C   UNL     1      75.988  65.921  66.572  1.00  0.00     0.007 C 
ATOM     24  C   UNL     1      74.421  65.074  68.405  1.00  0.00     0.007 C 
ENDBRANCH  21  22
ENDBRANCH  20  21
ENDBRANCH  19  20
ENDBRANCH  18  19
ENDBRANCH   1  18
TORSDOF 11
ENDMDL
MODEL 4
REMARK VINA RESULT:    -5.693     23.963     25.364
REMARK INTER + INTRA:          -9.863
REMARK INTER:                  -9.170
REMARK INTRA:                  -0.694
REMARK UNBOUND:                -0.676
REMARK SMILES COc1cc(CNC(=O)CCCCCCC(C)C)ccc1O
REMARK SMILES IDX 11 1 10 2 8 3 7 4 9 6 6 7 5 8 3 9 21 10 4 11 20 12 19 13
REMARK SMILES IDX 2 14 1 15 22 16 12 18 13 19 14 20 15 21 16 22 17 23 18 24
REMARK H PARENT 7 5 22 17
REMARK Flexibility Score: inf
ROOT
ATOM      1  C   UNL     1      97.145  82.201  79.822  1.00  0.00     0.010 C 
ENDROOT
BRANCH   1   2
ATOM      2  C   UNL     1      98.420  82.335  80.700  1.00  0.00     0.100 C 
BRANCH   2   3
ATOM      3  C   UNL     1      98.172  82.079  82.136  1.00  0.00     0.220 C 
ATOM      4  N   UNL     1      97.341  82.894  82.848  1.00  0.00    -0.352 N 
ATOM      5  H   UNL     1      96.971  83.676  82.328  1.00  0.00     0.163 HD
ATOM      6  O   UNL     1      98.721  81.086  82.674  1.00  0.00    -0.275 OA
BRANCH   4   7
ATOM      7  C   UNL     1      96.982  82.712  84.222  1.00  0.00     0.151 C 
BRANCH   7   8
ATOM      8  C   UNL     1      95.514  82.776  84.458  1.00  0.00    -0.025 A 
ATOM      9  C   UNL     1      93.554  83.941  85.381  1.00  0.00     0.160 A 
ATOM     10  C   UNL     1      92.711  82.929  84.874  1.00  0.00     0.157 A 
ATOM     11  C   UNL     1      94.948  83.848  85.186  1.00  0.00     0.056 A 
ATOM     12  C   UNL     1      93.265  81.837  84.181  1.00  0.00     0.050 A 
ATOM     13  C   UNL     1      94.655  81.765  83.965  1.00  0.00     0.009 A 
BRANCH   9  14
ATOM     14  O   UNL     1      93.029  84.987  86.090  1.00  0.00    -0.493 OA
ATOM     15  C   UNL     1      93.509  85.069  87.444  1.00  0.00     0.278 C 
ENDBRANCH   9  14
BRANCH  10  16
ATOM     16  O   UNL     1      91.364  82.992  85.048  1.00  0.00    -0.504 OA
ATOM     17  H   UNL     1      91.163  83.599  85.765  1.00  0.00     0.293 HD
ENDBRANCH  10  16
ENDBRANCH   7   8
ENDBRANCH   4   7
ENDBRANCH   2   3
ENDBRANCH   1   2
BRANCH   1  18
ATOM     18  C   UNL     1      96.777  83.535  79.113  1.00  0.00     0.001 C 
BRANCH  18  19
ATOM     19  C   UNL     1      96.585  83.395  77.577  1.00  0.00     0.000 C 
BRANCH  19  20
ATOM     20  C   UNL     1      97.891  83.731  76.804  1.00  0.00     0.000 C 
BRANCH  20  21
ATOM     21  C   UNL     1      98.213  82.753  75.640  1.00  0.00     0.003 C 
BRANCH  21  22
ATOM     22  C   UNL     1      98.524  83.447  74.274  1.00  0.00    -0.017 C 
ATOM     23  C   UNL     1      98.055  84.929  74.298  1.00  0.00     0.007 C 
ATOM     24  C   UNL     1      97.922  82.705  73.044  1.00  0.00     0.007 C 
ENDBRANCH  21  22
ENDBRANCH  20  21
ENDBRANCH  19  20
ENDBRANCH  18  19
ENDBRANCH   1  18
TORSDOF 11
ENDMDL
MODEL 5
REMARK VINA RESULT:    -5.690     15.293     19.281
REMARK INTER + INTRA:          -9.860
REMARK INTER:                  -9.169
REMARK INTRA:                  -0.691
REMARK UNBOUND:                -0.676
REMARK SMILES COc1cc(CNC(=O)CCCCCCC(C)C)ccc1O
REMARK SMILES IDX 11 1 10 2 8 3 7 4 9 6 6 7 5 8 3 9 21 10 4 11 20 12 19 13
REMARK SMILES IDX 2 14 1 15 22 16 12 18 13 19 14 20 15 21 16 22 17 23 18 24
REMARK H PARENT 7 5 22 17
REMARK Flexibility Score: inf
ROOT
ATOM      1  C   UNL     1      91.699  75.445  83.311  1.00  0.00     0.010 C 
ENDROOT
BRANCH   1   2
ATOM      2  C   UNL     1      92.302  75.717  81.906  1.00  0.00     0.100 C 
BRANCH   2   3
ATOM      3  C   UNL     1      91.377  75.387  80.798  1.00  0.00     0.220 C 
ATOM      4  N   UNL     1      91.644  75.807  79.528  1.00  0.00    -0.352 N 
ATOM      5  H   UNL     1      92.473  76.377  79.439  1.00  0.00     0.163 HD
ATOM      6  O   UNL     1      90.360  74.695  81.050  1.00  0.00    -0.275 OA
BRANCH   4   7
ATOM      7  C   UNL     1      90.856  75.501  78.373  1.00  0.00     0.151 C 
BRANCH   7   8
ATOM      8  C   UNL     1      91.210  76.326  77.186  1.00  0.00    -0.025 A 
ATOM      9  C   UNL     1      91.642  76.508  74.771  1.00  0.00     0.160 A 
ATOM     10  C   UNL     1      91.840  77.900  74.910  1.00  0.00     0.157 A 
ATOM     11  C   UNL     1      91.348  75.731  75.911  1.00  0.00     0.056 A 
ATOM     12  C   UNL     1      91.744  78.498  76.179  1.00  0.00     0.050 A 
ATOM     13  C   UNL     1      91.420  77.720  77.308  1.00  0.00     0.009 A 
BRANCH   9  14
ATOM     14  O   UNL     1      91.773  75.911  73.547  1.00  0.00    -0.493 OA
ATOM     15  C   UNL     1      92.621  74.748  73.557  1.00  0.00     0.278 C 
ENDBRANCH   9  14
BRANCH  10  16
ATOM     16  O   UNL     1      92.126  78.673  73.830  1.00  0.00    -0.504 OA
ATOM     17  H   UNL     1      93.041  78.961  73.877  1.00  0.00     0.293 HD
ENDBRANCH  10  16
ENDBRANCH   7   8
ENDBRANCH   4   7
ENDBRANCH   2   3
ENDBRANCH   1   2
BRANCH   1  18
ATOM     18  C   UNL     1      90.882  76.657  83.844  1.00  0.00     0.001 C 
BRANCH  18  19
ATOM     19  C   UNL     1      91.590  78.026  83.644  1.00  0.00     0.000 C 
BRANCH  19  20
ATOM     20  C   UNL     1      92.522  78.368  84.840  1.00  0.00     0.000 C 
BRANCH  20  21
ATOM     21  C   UNL     1      92.302  79.787  85.434  1.00  0.00     0.003 C 
BRANCH  21  22
ATOM     22  C   UNL     1      91.844  80.863  84.396  1.00  0.00    -0.017 C 
ATOM     23  C   UNL     1      92.832  82.063  84.384  1.00  0.00     0.007 C 
ATOM     24  C   UNL     1      90.385  81.361  84.614  1.00  0.00     0.007 C 
ENDBRANCH  21  22
ENDBRANCH  20  21
ENDBRANCH  19  20
ENDBRANCH  18  19
ENDBRANCH   1  18
TORSDOF 11
ENDMDL
MODEL 6
REMARK VINA RESULT:    -5.621     19.613     23.496
REMARK INTER + INTRA:          -9.748
REMARK INTER:                  -9.070
REMARK INTRA:                  -0.678
REMARK UNBOUND:                -0.676
REMARK SMILES COc1cc(CNC(=O)CCCCCCC(C)C)ccc1O
REMARK SMILES IDX 11 1 10 2 8 3 7 4 9 6 6 7 5 8 3 9 21 10 4 11 20 12 19 13
REMARK SMILES IDX 2 14 1 15 22 16 12 18 13 19 14 20 15 21 16 22 17 23 18 24
REMARK H PARENT 7 5 22 17
REMARK Flexibility Score: inf
ROOT
ATOM      1  C   UNL     1      94.816  78.383  84.605  1.00  0.00     0.010 C 
ENDROOT
BRANCH   1   2
ATOM      2  C   UNL     1      93.266  78.439  84.503  1.00  0.00     0.100 C 
BRANCH   2   3
ATOM      3  C   UNL     1      92.694  79.714  84.990  1.00  0.00     0.220 C 
ATOM      4  N   UNL     1      92.246  80.651  84.104  1.00  0.00    -0.352 N 
ATOM      5  H   UNL     1      92.383  80.412  83.133  1.00  0.00     0.163 HD
ATOM      6  O   UNL     1      92.608  79.901  86.228  1.00  0.00    -0.275 OA
BRANCH   4   7
ATOM      7  C   UNL     1      91.623  81.890  84.457  1.00  0.00     0.151 C 
BRANCH   7   8
ATOM      8  C   UNL     1      90.136  81.823  84.449  1.00  0.00    -0.025 A 
ATOM      9  C   UNL     1      88.064  80.560  84.049  1.00  0.00     0.160 A 
ATOM     10  C   UNL     1      87.303  81.671  84.473  1.00  0.00     0.157 A 
ATOM     11  C   UNL     1      89.472  80.651  84.022  1.00  0.00     0.056 A 
ATOM     12  C   UNL     1      87.951  82.857  84.863  1.00  0.00     0.050 A 
ATOM     13  C   UNL     1      89.358  82.930  84.862  1.00  0.00     0.009 A 
BRANCH   9  14
ATOM     14  O   UNL     1      87.442  79.416  83.630  1.00  0.00    -0.493 OA
ATOM     15  C   UNL     1      88.117  78.209  84.029  1.00  0.00     0.278 C 
ENDBRANCH   9  14
BRANCH  10  16
ATOM     16  O   UNL     1      85.945  81.613  84.507  1.00  0.00    -0.504 OA
ATOM     17  H   UNL     1      85.645  81.693  85.416  1.00  0.00     0.293 HD
ENDBRANCH  10  16
ENDBRANCH   7   8
ENDBRANCH   4   7
ENDBRANCH   2   3
ENDBRANCH   1   2
BRANCH   1  18
ATOM     18  C   UNL     1      95.488  79.660  84.026  1.00  0.00     0.001 C 
BRANCH  18  19
ATOM     19  C   UNL     1      96.740  79.367  83.151  1.00  0.00     0.000 C 
BRANCH  19  20
ATOM     20  C   UNL     1      96.724  80.193  81.834  1.00  0.00     0.000 C 
BRANCH  20  21
ATOM     21  C   UNL     1      97.898  81.202  81.700  1.00  0.00     0.003 C 
BRANCH  21  22
ATOM     22  C   UNL     1      97.459  82.685  81.472  1.00  0.00    -0.017 C 
ATOM     23  C   UNL     1      96.314  83.070  82.451  1.00  0.00     0.007 C 
ATOM     24  C   UNL     1      97.048  82.997  80.003  1.00  0.00     0.007 C 
ENDBRANCH  21  22
ENDBRANCH  20  21
ENDBRANCH  19  20
ENDBRANCH  18  19
ENDBRANCH   1  18
TORSDOF 11
ENDMDL
MODEL 7
REMARK VINA RESULT:    -5.614     24.079     25.940
REMARK INTER + INTRA:          -9.736
REMARK INTER:                  -8.676
REMARK INTRA:                  -1.060
REMARK UNBOUND:                -0.676
REMARK SMILES COc1cc(CNC(=O)CCCCCCC(C)C)ccc1O
REMARK SMILES IDX 11 1 10 2 8 3 7 4 9 6 6 7 5 8 3 9 21 10 4 11 20 12 19 13
REMARK SMILES IDX 2 14 1 15 22 16 12 18 13 19 14 20 15 21 16 22 17 23 18 24
REMARK H PARENT 7 5 22 17
REMARK Flexibility Score: inf
ROOT
ATOM      1  C   UNL     1      96.564  83.520  78.539  1.00  0.00     0.010 C 
ENDROOT
BRANCH   1   2
ATOM      2  C   UNL     1      97.333  83.048  77.274  1.00  0.00     0.100 C 
BRANCH   2   3
ATOM      3  C   UNL     1      97.293  84.028  76.165  1.00  0.00     0.220 C 
ATOM      4  N   UNL     1      98.386  84.212  75.369  1.00  0.00    -0.352 N 
ATOM      5  H   UNL     1      99.196  83.670  75.634  1.00  0.00     0.163 HD
ATOM      6  O   UNL     1      96.230  84.663  75.961  1.00  0.00    -0.275 OA
BRANCH   4   7
ATOM      7  C   UNL     1      98.445  85.086  74.237  1.00  0.00     0.151 C 
BRANCH   7   8
ATOM      8  C   UNL     1      99.164  84.493  73.076  1.00  0.00    -0.025 A 
ATOM      9  C   UNL     1      99.678  82.553  71.654  1.00  0.00     0.160 A 
ATOM     10  C   UNL     1     100.495  83.365  70.838  1.00  0.00     0.157 A 
ATOM     11  C   UNL     1      99.035  83.118  72.776  1.00  0.00     0.056 A 
ATOM     12  C   UNL     1     100.663  84.727  71.149  1.00  0.00     0.050 A 
ATOM     13  C   UNL     1      99.994  85.290  72.253  1.00  0.00     0.009 A 
BRANCH   9  14
ATOM     14  O   UNL     1      99.540  81.219  71.383  1.00  0.00    -0.493 OA
ATOM     15  C   UNL     1      99.968  80.362  72.457  1.00  0.00     0.278 C 
ENDBRANCH   9  14
BRANCH  10  16
ATOM     16  O   UNL     1     101.128  82.848  69.752  1.00  0.00    -0.504 OA
ATOM     17  H   UNL     1     102.012  83.219  69.691  1.00  0.00     0.293 HD
ENDBRANCH  10  16
ENDBRANCH   7   8
ENDBRANCH   4   7
ENDBRANCH   2   3
ENDBRANCH   1   2
BRANCH   1  18
ATOM     18  C   UNL     1      97.440  83.443  79.821  1.00  0.00     0.001 C 
BRANCH  18  19
ATOM     19  C   UNL     1      97.140  82.205  80.712  1.00  0.00     0.000 C 
BRANCH  19  20
ATOM     20  C   UNL     1      98.421  81.361  80.968  1.00  0.00     0.000 C 
BRANCH  20  21
ATOM     21  C   UNL     1      99.730  82.014  80.443  1.00  0.00     0.003 C 
BRANCH  21  22
ATOM     22  C   UNL     1     100.243  81.438  79.083  1.00  0.00    -0.017 C 
ATOM     23  C   UNL     1      99.529  80.097  78.756  1.00  0.00     0.007 C 
ATOM     24  C   UNL     1     101.789  81.261  79.023  1.00  0.00     0.007 C 
ENDBRANCH  21  22
ENDBRANCH  20  21
ENDBRANCH  19  20
ENDBRANCH  18  19
ENDBRANCH   1  18
TORSDOF 11
ENDMDL
MODEL 8
REMARK VINA RESULT:    -5.588     24.779     29.689
REMARK INTER + INTRA:          -9.695
REMARK INTER:                  -9.145
REMARK INTRA:                  -0.549
REMARK UNBOUND:                -0.676
REMARK SMILES COc1cc(CNC(=O)CCCCCCC(C)C)ccc1O
REMARK SMILES IDX 11 1 10 2 8 3 7 4 9 6 6 7 5 8 3 9 21 10 4 11 20 12 19 13
REMARK SMILES IDX 2 14 1 15 22 16 12 18 13 19 14 20 15 21 16 22 17 23 18 24
REMARK H PARENT 7 5 22 17
REMARK Flexibility Score: inf
ROOT
ATOM      1  C   UNL     1      93.723  84.713  88.432  1.00  0.00     0.010 C 
ENDROOT
BRANCH   1   2
ATOM      2  C   UNL     1      92.987  85.681  87.465  1.00  0.00     0.100 C 
BRANCH   2   3
ATOM      3  C   UNL     1      93.762  86.904  87.158  1.00  0.00     0.220 C 
ATOM      4  N   UNL     1      93.745  87.964  88.017  1.00  0.00    -0.352 N 
ATOM      5  H   UNL     1      93.142  87.848  88.818  1.00  0.00     0.163 HD
ATOM      6  O   UNL     1      94.450  86.933  86.109  1.00  0.00    -0.275 OA
BRANCH   4   7
ATOM      7  C   UNL     1      94.497  89.171  87.855  1.00  0.00     0.151 C 
BRANCH   7   8
ATOM      8  C   UNL     1      93.929  90.323  88.608  1.00  0.00    -0.025 A 
ATOM      9  C   UNL     1      94.059  92.672  89.324  1.00  0.00     0.160 A 
ATOM     10  C   UNL     1      92.830  92.535  90.005  1.00  0.00     0.157 A 
ATOM     11  C   UNL     1      94.608  91.562  88.648  1.00  0.00     0.056 A 
ATOM     12  C   UNL     1      92.164  91.296  90.005  1.00  0.00     0.050 A 
ATOM     13  C   UNL     1      92.703  90.200  89.303  1.00  0.00     0.009 A 
BRANCH   9  14
ATOM     14  O   UNL     1      94.735  93.861  89.351  1.00  0.00    -0.493 OA
ATOM     15  C   UNL     1      95.590  94.017  90.498  1.00  0.00     0.278 C 
ENDBRANCH   9  14
BRANCH  10  16
ATOM     16  O   UNL     1      92.279  93.587  90.666  1.00  0.00    -0.504 OA
ATOM     17  H   UNL     1      92.524  94.404  90.226  1.00  0.00     0.293 HD
ENDBRANCH  10  16
ENDBRANCH   7   8
ENDBRANCH   4   7
ENDBRANCH   2   3
ENDBRANCH   1   2
BRANCH   1  18
ATOM     18  C   UNL     1      93.878  83.287  87.830  1.00  0.00     0.001 C 
BRANCH  18  19
ATOM     19  C   UNL     1      93.688  83.234  86.288  1.00  0.00     0.000 C 
BRANCH  19  20
ATOM     20  C   UNL     1      92.469  82.354  85.892  1.00  0.00     0.000 C 
BRANCH  20  21
ATOM     21  C   UNL     1      92.413  81.985  84.383  1.00  0.00     0.003 C 
BRANCH  21  22
ATOM     22  C   UNL     1      91.125  81.212  83.950  1.00  0.00    -0.017 C 
ATOM     23  C   UNL     1      89.861  81.868  84.575  1.00  0.00     0.007 C 
ATOM     24  C   UNL     1      91.168  79.691  84.279  1.00  0.00     0.007 C 
ENDBRANCH  21  22
ENDBRANCH  20  21
ENDBRANCH  19  20
ENDBRANCH  18  19
ENDBRANCH   1  18
TORSDOF 11
ENDMDL
MODEL 9
REMARK VINA RESULT:    -5.548     20.983     23.659
REMARK INTER + INTRA:          -9.629
REMARK INTER:                  -8.526
REMARK INTRA:                  -1.103
REMARK UNBOUND:                -0.676
REMARK SMILES COc1cc(CNC(=O)CCCCCCC(C)C)ccc1O
REMARK SMILES IDX 11 1 10 2 8 3 7 4 9 6 6 7 5 8 3 9 21 10 4 11 20 12 19 13
REMARK SMILES IDX 2 14 1 15 22 16 12 18 13 19 14 20 15 21 16 22 17 23 18 24
REMARK H PARENT 7 5 22 17
REMARK Flexibility Score: inf
ROOT
ATOM      1  C   UNL     1      75.144  89.119  69.472  1.00  0.00     0.010 C 
ENDROOT
BRANCH   1   2
ATOM      2  C   UNL     1      74.125  90.279  69.649  1.00  0.00     0.100 C 
BRANCH   2   3
ATOM      3  C   UNL     1      72.724  89.815  69.757  1.00  0.00     0.220 C 
ATOM      4  N   UNL     1      72.055  89.381  68.649  1.00  0.00    -0.352 N 
ATOM      5  H   UNL     1      72.576  89.451  67.788  1.00  0.00     0.163 HD
ATOM      6  O   UNL     1      72.178  89.806  70.887  1.00  0.00    -0.275 OA
BRANCH   4   7
ATOM      7  C   UNL     1      70.722  88.858  68.642  1.00  0.00     0.151 C 
BRANCH   7   8
ATOM      8  C   UNL     1      70.663  87.400  68.938  1.00  0.00    -0.025 A 
ATOM      9  C   UNL     1      69.700  85.520  70.197  1.00  0.00     0.160 A 
ATOM     10  C   UNL     1      70.513  84.618  69.477  1.00  0.00     0.157 A 
ATOM     11  C   UNL     1      69.794  86.903  69.936  1.00  0.00     0.056 A 
ATOM     12  C   UNL     1      71.410  85.104  68.509  1.00  0.00     0.050 A 
ATOM     13  C   UNL     1      71.478  86.483  68.233  1.00  0.00     0.009 A 
BRANCH   9  14
ATOM     14  O   UNL     1      68.852  85.062  71.169  1.00  0.00    -0.493 OA
ATOM     15  C   UNL     1      67.477  84.990  70.752  1.00  0.00     0.278 C 
ENDBRANCH   9  14
BRANCH  10  16
ATOM     16  O   UNL     1      70.444  83.281  69.710  1.00  0.00    -0.504 OA
ATOM     17  H   UNL     1      69.524  83.008  69.733  1.00  0.00     0.293 HD
ENDBRANCH  10  16
ENDBRANCH   7   8
ENDBRANCH   4   7
ENDBRANCH   2   3
ENDBRANCH   1   2
BRANCH   1  18
ATOM     18  C   UNL     1      76.237  89.454  68.417  1.00  0.00     0.001 C 
BRANCH  18  19
ATOM     19  C   UNL     1      77.198  88.270  68.113  1.00  0.00     0.000 C 
BRANCH  19  20
ATOM     20  C   UNL     1      76.701  86.949  68.763  1.00  0.00     0.000 C 
BRANCH  20  21
ATOM     21  C   UNL     1      77.549  85.700  68.395  1.00  0.00     0.003 C 
BRANCH  21  22
ATOM     22  C   UNL     1      76.748  84.554  67.694  1.00  0.00    -0.017 C 
ATOM     23  C   UNL     1      77.454  84.125  66.377  1.00  0.00     0.007 C 
ATOM     24  C   UNL     1      75.257  84.908  67.423  1.00  0.00     0.007 C 
ENDBRANCH  21  22
ENDBRANCH  20  21
ENDBRANCH  19  20
ENDBRANCH  18  19
ENDBRANCH   1  18
TORSDOF 11
ENDMDL
MODEL 10
REMARK VINA RESULT:    -5.452     20.290     25.884
REMARK INTER + INTRA:          -9.474
REMARK INTER:                  -8.765
REMARK INTRA:                  -0.709
REMARK UNBOUND:                -0.676
REMARK SMILES COc1cc(CNC(=O)CCCCCCC(C)C)ccc1O
REMARK SMILES IDX 11 1 10 2 8 3 7 4 9 6 6 7 5 8 3 9 21 10 4 11 20 12 19 13
REMARK SMILES IDX 2 14 1 15 22 16 12 18 13 19 14 20 15 21 16 22 17 23 18 24
REMARK H PARENT 7 5 22 17
REMARK Flexibility Score: inf
ROOT
ATOM      1  C   UNL     1      93.641  81.840  88.355  1.00  0.00     0.010 C 
ENDROOT
BRANCH   1   2
ATOM      2  C   UNL     1      94.657  82.190  87.233  1.00  0.00     0.100 C 
BRANCH   2   3
ATOM      3  C   UNL     1      94.139  81.930  85.871  1.00  0.00     0.220 C 
ATOM      4  N   UNL     1      92.796  81.961  85.628  1.00  0.00    -0.352 N 
ATOM      5  H   UNL     1      92.224  82.127  86.442  1.00  0.00     0.163 HD
ATOM      6  O   UNL     1      94.959  81.705  84.948  1.00  0.00    -0.275 OA
BRANCH   4   7
ATOM      7  C   UNL     1      92.185  81.783  84.345  1.00  0.00     0.151 C 
BRANCH   7   8
ATOM      8  C   UNL     1      91.216  80.654  84.309  1.00  0.00    -0.025 A 
ATOM      9  C   UNL     1      88.919  79.828  84.009  1.00  0.00     0.160 A 
ATOM     10  C   UNL     1      89.369  78.502  84.195  1.00  0.00     0.157 A 
ATOM     11  C   UNL     1      89.841  80.893  84.086  1.00  0.00     0.056 A 
ATOM     12  C   UNL     1      90.729  78.255  84.456  1.00  0.00     0.050 A 
ATOM     13  C   UNL     1      91.649  79.321  84.502  1.00  0.00     0.009 A 
BRANCH   9  14
ATOM     14  O   UNL     1      87.592  80.083  83.794  1.00  0.00    -0.493 OA
ATOM     15  C   UNL     1      87.211  81.444  84.066  1.00  0.00     0.278 C 
ENDBRANCH   9  14
BRANCH  10  16
ATOM     16  O   UNL     1      88.504  77.457  84.127  1.00  0.00    -0.504 OA
ATOM     17  H   UNL     1      88.081  77.447  83.265  1.00  0.00     0.293 HD
ENDBRANCH  10  16
ENDBRANCH   7   8
ENDBRANCH   4   7
ENDBRANCH   2   3
ENDBRANCH   1   2
BRANCH   1  18
ATOM     18  C   UNL     1      94.002  82.519  89.706  1.00  0.00     0.001 C 
BRANCH  18  19
ATOM     19  C   UNL     1      93.266  83.868  89.945  1.00  0.00     0.000 C 
BRANCH  19  20
ATOM     20  C   UNL     1      94.066  85.067  89.361  1.00  0.00     0.000 C 
BRANCH  20  21
ATOM     21  C   UNL     1      93.190  86.120  88.628  1.00  0.00     0.003 C 
BRANCH  21  22
ATOM     22  C   UNL     1      93.424  87.596  89.089  1.00  0.00    -0.017 C 
ATOM     23  C   UNL     1      92.092  88.232  89.577  1.00  0.00     0.007 C 
ATOM     24  C   UNL     1      94.091  88.492  88.003  1.00  0.00     0.007 C 
ENDBRANCH  21  22
ENDBRANCH  20  21
ENDBRANCH  19  20
ENDBRANCH  18  19
ENDBRANCH   1  18
TORSDOF 11
ENDMDL
