MODEL 1
REMARK VINA RESULT:    -6.558      0.000      0.000
REMARK INTER + INTRA:         -11.027
REMARK INTER:                 -10.201
REMARK INTRA:                  -0.827
REMARK UNBOUND:                -0.827
REMARK SMILES COc1cc(CNC(=O)CCCC/C=C/C(C)C)ccc1O
REMARK SMILES IDX 10 1 8 2 7 3 9 5 6 6 5 7 3 8 21 9 4 10 20 11 19 12 2 13 1 14
REMARK SMILES IDX 22 15 11 17 12 18 13 19 14 20 15 21 16 22 17 23 18 24
REMARK H PARENT 7 4 22 16
REMARK Flexibility Score: inf
ROOT
ATOM      1  C   UNL     1      93.009  99.345  75.136  1.00  0.00     0.100 C 
ENDROOT
BRANCH   1   2
ATOM      2  C   UNL     1      93.030  99.768  73.722  1.00  0.00     0.220 C 
ATOM      3  N   UNL     1      91.868 100.032  73.062  1.00  0.00    -0.352 N 
ATOM      4  H   UNL     1      91.027  99.892  73.606  1.00  0.00     0.163 HD
ATOM      5  O   UNL     1      94.144  99.897  73.160  1.00  0.00    -0.275 OA
BRANCH   3   6
ATOM      6  C   UNL     1      91.782 100.476  71.708  1.00  0.00     0.151 C 
BRANCH   6   7
ATOM      7  C   UNL     1      90.761  99.708  70.944  1.00  0.00    -0.025 A 
ATOM      8  C   UNL     1      89.297  99.484  68.977  1.00  0.00     0.160 A 
ATOM      9  C   UNL     1      88.829  98.246  69.466  1.00  0.00     0.157 A 
ATOM     10  C   UNL     1      90.256 100.203  69.721  1.00  0.00     0.056 A 
ATOM     11  C   UNL     1      89.309  97.749  70.693  1.00  0.00     0.050 A 
ATOM     12  C   UNL     1      90.275  98.469  71.423  1.00  0.00     0.009 A 
BRANCH   8  13
ATOM     13  O   UNL     1      88.784 100.003  67.816  1.00  0.00    -0.493 OA
ATOM     14  C   UNL     1      89.275 101.317  67.494  1.00  0.00     0.278 C 
ENDBRANCH   8  13
BRANCH   9  15
ATOM     15  O   UNL     1      87.916  97.523  68.768  1.00  0.00    -0.504 OA
ATOM     16  H   UNL     1      87.336  98.117  68.286  1.00  0.00     0.293 HD
ENDBRANCH   9  15
ENDBRANCH   6   7
ENDBRANCH   3   6
ENDBRANCH   1   2
BRANCH   1  17
ATOM     17  C   UNL     1      92.898  97.803  75.271  1.00  0.00     0.010 C 
BRANCH  17  18
ATOM     18  C   UNL     1      94.269  97.118  75.533  1.00  0.00     0.005 C 
BRANCH  18  19
ATOM     19  C   UNL     1      94.224  96.152  76.747  1.00  0.00     0.027 C 
BRANCH  19  20
ATOM     20  C   UNL     1      92.984  95.393  76.798  1.00  0.00    -0.031 C 
ATOM     21  C   UNL     1      92.193  95.309  77.883  1.00  0.00    -0.028 C 
BRANCH  21  22
ATOM     22  C   UNL     1      90.939  94.555  77.905  1.00  0.00     0.005 C 
ATOM     23  C   UNL     1      89.730  95.409  77.430  1.00  0.00     0.012 C 
ATOM     24  C   UNL     1      91.074  93.266  77.054  1.00  0.00     0.012 C 
ENDBRANCH  21  22
ENDBRANCH  19  20
ENDBRANCH  18  19
ENDBRANCH  17  18
ENDBRANCH   1  17
TORSDOF 10
ENDMDL
MODEL 2
REMARK VINA RESULT:    -6.072     17.072     20.225
REMARK INTER + INTRA:         -10.270
REMARK INTER:                  -9.434
REMARK INTRA:                  -0.836
REMARK UNBOUND:                -0.827
REMARK SMILES COc1cc(CNC(=O)CCCC/C=C/C(C)C)ccc1O
REMARK SMILES IDX 10 1 8 2 7 3 9 5 6 6 5 7 3 8 21 9 4 10 20 11 19 12 2 13 1 14
REMARK SMILES IDX 22 15 11 17 12 18 13 19 14 20 15 21 16 22 17 23 18 24
REMARK H PARENT 7 4 22 16
REMARK Flexibility Score: inf
ROOT
ATOM      1  C   UNL     1      99.392  83.215  79.883  1.00  0.00     0.100 C 
ENDROOT
BRANCH   1   2
ATOM      2  C   UNL     1      99.637  82.649  81.223  1.00  0.00     0.220 C 
ATOM      3  N   UNL     1      98.721  82.809  82.219  1.00  0.00    -0.352 N 
ATOM      4  H   UNL     1      97.906  83.350  81.967  1.00  0.00     0.163 HD
ATOM      5  O   UNL     1     100.696  82.002  81.408  1.00  0.00    -0.275 OA
BRANCH   3   6
ATOM      6  C   UNL     1      98.848  82.275  83.538  1.00  0.00     0.151 C 
BRANCH   6   7
ATOM      7  C   UNL     1      98.264  83.188  84.556  1.00  0.00    -0.025 A 
ATOM      8  C   UNL     1      98.345  84.213  86.794  1.00  0.00     0.160 A 
ATOM      9  C   UNL     1      97.173  84.941  86.504  1.00  0.00     0.157 A 
ATOM     10  C   UNL     1      98.877  83.342  85.820  1.00  0.00     0.056 A 
ATOM     11  C   UNL     1      96.539  84.784  85.255  1.00  0.00     0.050 A 
ATOM     12  C   UNL     1      97.085  83.921  84.285  1.00  0.00     0.009 A 
BRANCH   8  13
ATOM     13  O   UNL     1      98.928  84.313  88.031  1.00  0.00    -0.493 OA
ATOM     14  C   UNL     1     100.331  83.990  88.047  1.00  0.00     0.278 C 
ENDBRANCH   8  13
BRANCH   9  15
ATOM     15  O   UNL     1      96.642  85.798  87.415  1.00  0.00    -0.504 OA
ATOM     16  H   UNL     1      95.727  85.980  87.188  1.00  0.00     0.293 HD
ENDBRANCH   9  15
ENDBRANCH   6   7
ENDBRANCH   3   6
ENDBRANCH   1   2
BRANCH   1  17
ATOM     17  C   UNL     1      97.880  83.211  79.527  1.00  0.00     0.010 C 
BRANCH  17  18
ATOM     18  C   UNL     1      97.616  82.978  78.013  1.00  0.00     0.005 C 
BRANCH  18  19
ATOM     19  C   UNL     1      97.406  84.307  77.239  1.00  0.00     0.027 C 
BRANCH  19  20
ATOM     20  C   UNL     1      98.607  84.724  76.531  1.00  0.00    -0.031 C 
ATOM     21  C   UNL     1      99.531  83.876  76.045  1.00  0.00    -0.028 C 
BRANCH  21  22
ATOM     22  C   UNL     1     100.722  84.317  75.319  1.00  0.00     0.005 C 
ATOM     23  C   UNL     1     100.512  85.690  74.622  1.00  0.00     0.012 C 
ATOM     24  C   UNL     1     101.944  84.361  76.272  1.00  0.00     0.012 C 
ENDBRANCH  21  22
ENDBRANCH  19  20
ENDBRANCH  18  19
ENDBRANCH  17  18
ENDBRANCH   1  17
TORSDOF 10
ENDMDL
MODEL 3
REMARK VINA RESULT:    -5.853     17.212     20.051
REMARK INTER + INTRA:          -9.930
REMARK INTER:                  -8.652
REMARK INTRA:                  -1.278
REMARK UNBOUND:                -0.827
REMARK SMILES COc1cc(CNC(=O)CCCC/C=C/C(C)C)ccc1O
REMARK SMILES IDX 10 1 8 2 7 3 9 5 6 6 5 7 3 8 21 9 4 10 20 11 19 12 2 13 1 14
REMARK SMILES IDX 22 15 11 17 12 18 13 19 14 20 15 21 16 22 17 23 18 24
REMARK H PARENT 7 4 22 16
REMARK Flexibility Score: inf
ROOT
ATOM      1  C   UNL     1     102.170  79.433  81.748  1.00  0.00     0.100 C 
ENDROOT
BRANCH   1   2
ATOM      2  C   UNL     1     101.753  80.843  81.874  1.00  0.00     0.220 C 
ATOM      3  N   UNL     1     100.646  81.298  81.223  1.00  0.00    -0.352 N 
ATOM      4  H   UNL     1     100.175  80.610  80.651  1.00  0.00     0.163 HD
ATOM      5  O   UNL     1     102.432  81.598  82.613  1.00  0.00    -0.275 OA
BRANCH   3   6
ATOM      6  C   UNL     1     100.142  82.631  81.305  1.00  0.00     0.151 C 
BRANCH   6   7
ATOM      7  C   UNL     1      99.299  82.970  80.125  1.00  0.00    -0.025 A 
ATOM      8  C   UNL     1      99.067  83.285  77.695  1.00  0.00     0.160 A 
ATOM      9  C   UNL     1      97.702  83.594  77.864  1.00  0.00     0.157 A 
ATOM     10  C   UNL     1      99.853  82.979  78.825  1.00  0.00     0.056 A 
ATOM     11  C   UNL     1      97.140  83.609  79.156  1.00  0.00     0.050 A 
ATOM     12  C   UNL     1      97.930  83.290  80.278  1.00  0.00     0.009 A 
BRANCH   8  13
ATOM     13  O   UNL     1      99.634  83.334  76.446  1.00  0.00    -0.493 OA
ATOM     14  C   UNL     1     100.977  83.852  76.431  1.00  0.00     0.278 C 
ENDBRANCH   8  13
BRANCH   9  15
ATOM     15  O   UNL     1      96.915  83.881  76.795  1.00  0.00    -0.504 OA
ATOM     16  H   UNL     1      97.011  84.809  76.566  1.00  0.00     0.293 HD
ENDBRANCH   9  15
ENDBRANCH   6   7
ENDBRANCH   3   6
ENDBRANCH   1   2
BRANCH   1  17
ATOM     17  C   UNL     1     100.967  78.465  81.903  1.00  0.00     0.010 C 
BRANCH  17  18
ATOM     18  C   UNL     1     100.392  78.440  83.347  1.00  0.00     0.005 C 
BRANCH  18  19
ATOM     19  C   UNL     1      98.870  78.743  83.381  1.00  0.00     0.027 C 
BRANCH  19  20
ATOM     20  C   UNL     1      98.558  79.882  84.232  1.00  0.00    -0.031 C 
ATOM     21  C   UNL     1      98.086  81.058  83.779  1.00  0.00    -0.028 C 
BRANCH  21  22
ATOM     22  C   UNL     1      97.760  82.183  84.655  1.00  0.00     0.005 C 
ATOM     23  C   UNL     1      97.419  83.472  83.856  1.00  0.00     0.012 C 
ATOM     24  C   UNL     1      96.599  81.800  85.609  1.00  0.00     0.012 C 
ENDBRANCH  21  22
ENDBRANCH  19  20
ENDBRANCH  18  19
ENDBRANCH  17  18
ENDBRANCH   1  17
TORSDOF 10
ENDMDL
MODEL 4
REMARK VINA RESULT:    -5.837     16.983     19.335
REMARK INTER + INTRA:          -9.906
REMARK INTER:                  -9.235
REMARK INTRA:                  -0.671
REMARK UNBOUND:                -0.827
REMARK SMILES COc1cc(CNC(=O)CCCC/C=C/C(C)C)ccc1O
REMARK SMILES IDX 10 1 8 2 7 3 9 5 6 6 5 7 3 8 21 9 4 10 20 11 19 12 2 13 1 14
REMARK SMILES IDX 22 15 11 17 12 18 13 19 14 20 15 21 16 22 17 23 18 24
REMARK H PARENT 7 4 22 16
REMARK Flexibility Score: inf
ROOT
ATOM      1  C   UNL     1      99.363  81.536  84.358  1.00  0.00     0.100 C 
ENDROOT
BRANCH   1   2
ATOM      2  C   UNL     1     100.200  81.712  83.155  1.00  0.00     0.220 C 
ATOM      3  N   UNL     1      99.628  81.974  81.947  1.00  0.00    -0.352 N 
ATOM      4  H   UNL     1      98.618  82.010  81.952  1.00  0.00     0.163 HD
ATOM      5  O   UNL     1     101.446  81.636  83.285  1.00  0.00    -0.275 OA
BRANCH   3   6
ATOM      6  C   UNL     1     100.349  82.192  80.733  1.00  0.00     0.151 C 
BRANCH   6   7
ATOM      7  C   UNL     1      99.459  82.696  79.652  1.00  0.00    -0.025 A 
ATOM      8  C   UNL     1      99.065  83.174  77.269  1.00  0.00     0.160 A 
ATOM      9  C   UNL     1      97.768  83.636  77.575  1.00  0.00     0.157 A 
ATOM     10  C   UNL     1      99.898  82.712  78.309  1.00  0.00     0.056 A 
ATOM     11  C   UNL     1      97.323  83.644  78.912  1.00  0.00     0.050 A 
ATOM     12  C   UNL     1      98.158  83.169  79.942  1.00  0.00     0.009 A 
BRANCH   8  13
ATOM     13  O   UNL     1      99.527  83.225  75.978  1.00  0.00    -0.493 OA
ATOM     14  C   UNL     1     100.186  84.459  75.639  1.00  0.00     0.278 C 
ENDBRANCH   8  13
BRANCH   9  15
ATOM     15  O   UNL     1      96.936  84.075  76.596  1.00  0.00    -0.504 OA
ATOM     16  H   UNL     1      96.800  85.021  76.692  1.00  0.00     0.293 HD
ENDBRANCH   9  15
ENDBRANCH   6   7
ENDBRANCH   3   6
ENDBRANCH   1   2
BRANCH   1  17
ATOM     17  C   UNL     1      97.855  81.725  84.038  1.00  0.00     0.010 C 
BRANCH  17  18
ATOM     18  C   UNL     1      97.398  83.208  84.131  1.00  0.00     0.005 C 
BRANCH  18  19
ATOM     19  C   UNL     1      96.766  83.546  85.509  1.00  0.00     0.027 C 
BRANCH  19  20
ATOM     20  C   UNL     1      95.973  82.443  86.032  1.00  0.00    -0.031 C 
ATOM     21  C   UNL     1      94.711  82.567  86.481  1.00  0.00    -0.028 C 
BRANCH  21  22
ATOM     22  C   UNL     1      93.925  81.441  86.985  1.00  0.00     0.005 C 
ATOM     23  C   UNL     1      93.894  81.392  88.538  1.00  0.00     0.012 C 
ATOM     24  C   UNL     1      92.488  81.487  86.405  1.00  0.00     0.012 C 
ENDBRANCH  21  22
ENDBRANCH  19  20
ENDBRANCH  18  19
ENDBRANCH  17  18
ENDBRANCH   1  17
TORSDOF 10
ENDMDL
MODEL 5
REMARK VINA RESULT:    -5.717     18.987     21.404
REMARK INTER + INTRA:          -9.718
REMARK INTER:                  -7.688
REMARK INTRA:                  -2.030
REMARK UNBOUND:                -0.827
REMARK SMILES COc1cc(CNC(=O)CCCC/C=C/C(C)C)ccc1O
REMARK SMILES IDX 10 1 8 2 7 3 9 5 6 6 5 7 3 8 21 9 4 10 20 11 19 12 2 13 1 14
REMARK SMILES IDX 22 15 11 17 12 18 13 19 14 20 15 21 16 22 17 23 18 24
REMARK H PARENT 7 4 22 16
REMARK Flexibility Score: inf
ROOT
ATOM      1  C   UNL     1      72.490  88.028  70.828  1.00  0.00     0.100 C 
ENDROOT
BRANCH   1   2
ATOM      2  C   UNL     1      72.265  86.822  70.008  1.00  0.00     0.220 C 
ATOM      3  N   UNL     1      73.287  86.270  69.295  1.00  0.00    -0.352 N 
ATOM      4  H   UNL     1      74.168  86.762  69.362  1.00  0.00     0.163 HD
ATOM      5  O   UNL     1      71.119  86.312  70.006  1.00  0.00    -0.275 OA
BRANCH   3   6
ATOM      6  C   UNL     1      73.181  85.090  68.499  1.00  0.00     0.151 C 
BRANCH   6   7
ATOM      7  C   UNL     1      74.198  85.071  67.412  1.00  0.00    -0.025 A 
ATOM      8  C   UNL     1      75.546  83.814  65.780  1.00  0.00     0.160 A 
ATOM      9  C   UNL     1      76.122  85.019  65.325  1.00  0.00     0.157 A 
ATOM     10  C   UNL     1      74.593  83.851  66.819  1.00  0.00     0.056 A 
ATOM     11  C   UNL     1      75.752  86.241  65.921  1.00  0.00     0.050 A 
ATOM     12  C   UNL     1      74.791  86.269  66.949  1.00  0.00     0.009 A 
BRANCH   8  13
ATOM     13  O   UNL     1      75.951  82.615  65.249  1.00  0.00    -0.493 OA
ATOM     14  C   UNL     1      75.072  81.515  65.546  1.00  0.00     0.278 C 
ENDBRANCH   8  13
BRANCH   9  15
ATOM     15  O   UNL     1      77.032  85.019  64.318  1.00  0.00    -0.504 OA
ATOM     16  H   UNL     1      76.667  84.565  63.555  1.00  0.00     0.293 HD
ENDBRANCH   9  15
ENDBRANCH   6   7
ENDBRANCH   3   6
ENDBRANCH   1   2
BRANCH   1  17
ATOM     17  C   UNL     1      73.988  88.199  71.196  1.00  0.00     0.010 C 
BRANCH  17  18
ATOM     18  C   UNL     1      74.743  89.157  70.232  1.00  0.00     0.005 C 
BRANCH  18  19
ATOM     19  C   UNL     1      76.226  88.745  70.030  1.00  0.00     0.027 C 
BRANCH  19  20
ATOM     20  C   UNL     1      76.404  87.302  70.077  1.00  0.00    -0.031 C 
ATOM     21  C   UNL     1      77.532  86.666  69.711  1.00  0.00    -0.028 C 
BRANCH  21  22
ATOM     22  C   UNL     1      77.696  85.215  69.786  1.00  0.00     0.005 C 
ATOM     23  C   UNL     1      76.439  84.509  70.365  1.00  0.00     0.012 C 
ATOM     24  C   UNL     1      78.057  84.644  68.390  1.00  0.00     0.012 C 
ENDBRANCH  21  22
ENDBRANCH  19  20
ENDBRANCH  18  19
ENDBRANCH  17  18
ENDBRANCH   1  17
TORSDOF 10
ENDMDL
MODEL 6
REMARK VINA RESULT:    -5.521     17.299     20.641
REMARK INTER + INTRA:          -9.413
REMARK INTER:                  -8.351
REMARK INTRA:                  -1.062
REMARK UNBOUND:                -0.827
REMARK SMILES COc1cc(CNC(=O)CCCC/C=C/C(C)C)ccc1O
REMARK SMILES IDX 10 1 8 2 7 3 9 5 6 6 5 7 3 8 21 9 4 10 20 11 19 12 2 13 1 14
REMARK SMILES IDX 22 15 11 17 12 18 13 19 14 20 15 21 16 22 17 23 18 24
REMARK H PARENT 7 4 22 16
REMARK Flexibility Score: inf
ROOT
ATOM      1  C   UNL     1      98.122  82.137  78.886  1.00  0.00     0.100 C 
ENDROOT
BRANCH   1   2
ATOM      2  C   UNL     1      98.757  82.510  80.165  1.00  0.00     0.220 C 
ATOM      3  N   UNL     1      98.680  81.680  81.243  1.00  0.00    -0.352 N 
ATOM      4  H   UNL     1      98.148  80.834  81.093  1.00  0.00     0.163 HD
ATOM      5  O   UNL     1      99.384  83.595  80.221  1.00  0.00    -0.275 OA
BRANCH   3   6
ATOM      6  C   UNL     1      99.284  81.933  82.512  1.00  0.00     0.151 C 
BRANCH   6   7
ATOM      7  C   UNL     1      98.269  82.285  83.541  1.00  0.00    -0.025 A 
ATOM      8  C   UNL     1      96.877  81.639  85.467  1.00  0.00     0.160 A 
ATOM      9  C   UNL     1      96.347  82.944  85.523  1.00  0.00     0.157 A 
ATOM     10  C   UNL     1      97.830  81.321  84.477  1.00  0.00     0.056 A 
ATOM     11  C   UNL     1      96.760  83.910  84.584  1.00  0.00     0.050 A 
ATOM     12  C   UNL     1      97.720  83.587  83.606  1.00  0.00     0.009 A 
BRANCH   8  13
ATOM     13  O   UNL     1      96.430  80.677  86.337  1.00  0.00    -0.493 OA
ATOM     14  C   UNL     1      97.028  79.382  86.138  1.00  0.00     0.278 C 
ENDBRANCH   8  13
BRANCH   9  15
ATOM     15  O   UNL     1      95.437  83.286  86.472  1.00  0.00    -0.504 OA
ATOM     16  H   UNL     1      95.072  84.151  86.269  1.00  0.00     0.293 HD
ENDBRANCH   9  15
ENDBRANCH   6   7
ENDBRANCH   3   6
ENDBRANCH   1   2
BRANCH   1  17
ATOM     17  C   UNL     1      97.646  83.387  78.098  1.00  0.00     0.010 C 
BRANCH  17  18
ATOM     18  C   UNL     1      97.894  83.267  76.567  1.00  0.00     0.005 C 
BRANCH  18  19
ATOM     19  C   UNL     1      98.995  84.242  76.069  1.00  0.00     0.027 C 
BRANCH  19  20
ATOM     20  C   UNL     1     100.328  83.802  76.451  1.00  0.00    -0.031 C 
ATOM     21  C   UNL     1     100.771  82.538  76.331  1.00  0.00    -0.028 C 
BRANCH  21  22
ATOM     22  C   UNL     1     102.124  82.122  76.704  1.00  0.00     0.005 C 
ATOM     23  C   UNL     1     103.211  83.071  76.128  1.00  0.00     0.012 C 
ATOM     24  C   UNL     1     102.245  82.013  78.246  1.00  0.00     0.012 C 
ENDBRANCH  21  22
ENDBRANCH  19  20
ENDBRANCH  18  19
ENDBRANCH  17  18
ENDBRANCH   1  17
TORSDOF 10
ENDMDL
MODEL 7
REMARK VINA RESULT:    -5.466     22.730     25.195
REMARK INTER + INTRA:          -9.328
REMARK INTER:                  -8.646
REMARK INTRA:                  -0.682
REMARK UNBOUND:                -0.827
REMARK SMILES COc1cc(CNC(=O)CCCC/C=C/C(C)C)ccc1O
REMARK SMILES IDX 10 1 8 2 7 3 9 5 6 6 5 7 3 8 21 9 4 10 20 11 19 12 2 13 1 14
REMARK SMILES IDX 22 15 11 17 12 18 13 19 14 20 15 21 16 22 17 23 18 24
REMARK H PARENT 7 4 22 16
REMARK Flexibility Score: inf
ROOT
ATOM      1  C   UNL     1      73.428  83.052  66.260  1.00  0.00     0.100 C 
ENDROOT
BRANCH   1   2
ATOM      2  C   UNL     1      72.077  82.540  66.556  1.00  0.00     0.220 C 
ATOM      3  N   UNL     1      71.224  83.254  67.345  1.00  0.00    -0.352 N 
ATOM      4  H   UNL     1      71.603  84.117  67.709  1.00  0.00     0.163 HD
ATOM      5  O   UNL     1      71.732  81.448  66.044  1.00  0.00    -0.275 OA
BRANCH   3   6
ATOM      6  C   UNL     1      69.889  82.863  67.664  1.00  0.00     0.151 C 
BRANCH   6   7
ATOM      7  C   UNL     1      69.495  83.324  69.023  1.00  0.00    -0.025 A 
ATOM      8  C   UNL     1      67.764  83.634  70.748  1.00  0.00     0.160 A 
ATOM      9  C   UNL     1      68.729  84.181  71.619  1.00  0.00     0.157 A 
ATOM     10  C   UNL     1      68.155  83.213  69.459  1.00  0.00     0.056 A 
ATOM     11  C   UNL     1      70.065  84.316  71.191  1.00  0.00     0.050 A 
ATOM     12  C   UNL     1      70.448  83.882  69.907  1.00  0.00     0.009 A 
BRANCH   8  13
ATOM     13  O   UNL     1      66.451  83.561  71.135  1.00  0.00    -0.493 OA
ATOM     14  C   UNL     1      65.848  82.271  70.927  1.00  0.00     0.278 C 
ENDBRANCH   8  13
BRANCH   9  15
ATOM     15  O   UNL     1      68.389  84.583  72.870  1.00  0.00    -0.504 OA
ATOM     16  H   UNL     1      68.190  83.816  73.411  1.00  0.00     0.293 HD
ENDBRANCH   9  15
ENDBRANCH   6   7
ENDBRANCH   3   6
ENDBRANCH   1   2
BRANCH   1  17
ATOM     17  C   UNL     1      74.404  81.906  65.879  1.00  0.00     0.010 C 
BRANCH  17  18
ATOM     18  C   UNL     1      75.729  81.943  66.691  1.00  0.00     0.005 C 
BRANCH  18  19
ATOM     19  C   UNL     1      76.437  83.322  66.603  1.00  0.00     0.027 C 
BRANCH  19  20
ATOM     20  C   UNL     1      76.538  83.970  67.902  1.00  0.00    -0.031 C 
ATOM     21  C   UNL     1      77.684  84.443  68.424  1.00  0.00    -0.028 C 
BRANCH  21  22
ATOM     22  C   UNL     1      77.759  85.109  69.724  1.00  0.00     0.005 C 
ATOM     23  C   UNL     1      77.489  86.636  69.621  1.00  0.00     0.012 C 
ATOM     24  C   UNL     1      76.781  84.441  70.725  1.00  0.00     0.012 C 
ENDBRANCH  21  22
ENDBRANCH  19  20
ENDBRANCH  18  19
ENDBRANCH  17  18
ENDBRANCH   1  17
TORSDOF 10
ENDMDL
MODEL 8
REMARK VINA RESULT:    -5.460     18.218     20.801
REMARK INTER + INTRA:          -9.319
REMARK INTER:                  -8.805
REMARK INTRA:                  -0.514
REMARK UNBOUND:                -0.827
REMARK SMILES COc1cc(CNC(=O)CCCC/C=C/C(C)C)ccc1O
REMARK SMILES IDX 10 1 8 2 7 3 9 5 6 6 5 7 3 8 21 9 4 10 20 11 19 12 2 13 1 14
REMARK SMILES IDX 22 15 11 17 12 18 13 19 14 20 15 21 16 22 17 23 18 24
REMARK H PARENT 7 4 22 16
REMARK Flexibility Score: inf
ROOT
ATOM      1  C   UNL     1      97.810  83.238  83.173  1.00  0.00     0.100 C 
ENDROOT
BRANCH   1   2
ATOM      2  C   UNL     1      97.651  82.984  84.618  1.00  0.00     0.220 C 
ATOM      3  N   UNL     1      96.415  82.769  85.150  1.00  0.00    -0.352 N 
ATOM      4  H   UNL     1      95.651  82.824  84.490  1.00  0.00     0.163 HD
ATOM      5  O   UNL     1      98.683  82.947  85.330  1.00  0.00    -0.275 OA
BRANCH   3   6
ATOM      6  C   UNL     1      96.158  82.483  86.525  1.00  0.00     0.151 C 
BRANCH   6   7
ATOM      7  C   UNL     1      94.770  82.859  86.910  1.00  0.00    -0.025 A 
ATOM      8  C   UNL     1      92.355  82.379  86.902  1.00  0.00     0.160 A 
ATOM      9  C   UNL     1      92.119  83.549  87.654  1.00  0.00     0.157 A 
ATOM     10  C   UNL     1      93.676  82.047  86.536  1.00  0.00     0.056 A 
ATOM     11  C   UNL     1      93.198  84.379  88.018  1.00  0.00     0.050 A 
ATOM     12  C   UNL     1      94.515  84.032  87.658  1.00  0.00     0.009 A 
BRANCH   8  13
ATOM     13  O   UNL     1      91.302  81.603  86.490  1.00  0.00    -0.493 OA
ATOM     14  C   UNL     1      91.648  80.228  86.241  1.00  0.00     0.278 C 
ENDBRANCH   8  13
BRANCH   9  15
ATOM     15  O   UNL     1      90.861  83.891  88.034  1.00  0.00    -0.504 OA
ATOM     16  H   UNL     1      90.437  84.388  87.331  1.00  0.00     0.293 HD
ENDBRANCH   9  15
ENDBRANCH   6   7
ENDBRANCH   3   6
ENDBRANCH   1   2
BRANCH   1  17
ATOM     17  C   UNL     1      98.779  82.219  82.515  1.00  0.00     0.010 C 
BRANCH  17  18
ATOM     18  C   UNL     1      99.395  82.740  81.186  1.00  0.00     0.005 C 
BRANCH  18  19
ATOM     19  C   UNL     1      98.312  83.203  80.175  1.00  0.00     0.027 C 
BRANCH  19  20
ATOM     20  C   UNL     1      98.742  83.032  78.795  1.00  0.00    -0.031 C 
ATOM     21  C   UNL     1     100.005  83.215  78.369  1.00  0.00    -0.028 C 
BRANCH  21  22
ATOM     22  C   UNL     1     100.420  83.018  76.981  1.00  0.00     0.005 C 
ATOM     23  C   UNL     1      99.606  83.899  75.992  1.00  0.00     0.012 C 
ATOM     24  C   UNL     1     101.941  83.283  76.833  1.00  0.00     0.012 C 
ENDBRANCH  21  22
ENDBRANCH  19  20
ENDBRANCH  18  19
ENDBRANCH  17  18
ENDBRANCH   1  17
TORSDOF 10
ENDMDL
MODEL 9
REMARK VINA RESULT:    -5.258     17.200     20.243
REMARK INTER + INTRA:          -9.004
REMARK INTER:                  -8.119
REMARK INTRA:                  -0.886
REMARK UNBOUND:                -0.827
REMARK SMILES COc1cc(CNC(=O)CCCC/C=C/C(C)C)ccc1O
REMARK SMILES IDX 10 1 8 2 7 3 9 5 6 6 5 7 3 8 21 9 4 10 20 11 19 12 2 13 1 14
REMARK SMILES IDX 22 15 11 17 12 18 13 19 14 20 15 21 16 22 17 23 18 24
REMARK H PARENT 7 4 22 16
REMARK Flexibility Score: inf
ROOT
ATOM      1  C   UNL     1     103.536  81.272  81.681  1.00  0.00     0.100 C 
ENDROOT
BRANCH   1   2
ATOM      2  C   UNL     1     102.164  81.594  82.118  1.00  0.00     0.220 C 
ATOM      3  N   UNL     1     101.276  82.158  81.252  1.00  0.00    -0.352 N 
ATOM      4  H   UNL     1     101.643  82.347  80.329  1.00  0.00     0.163 HD
ATOM      5  O   UNL     1     101.837  81.312  83.297  1.00  0.00    -0.275 OA
BRANCH   3   6
ATOM      6  C   UNL     1      99.921  82.477  81.567  1.00  0.00     0.151 C 
BRANCH   6   7
ATOM      7  C   UNL     1      99.160  82.884  80.354  1.00  0.00    -0.025 A 
ATOM      8  C   UNL     1      99.093  83.337  77.935  1.00  0.00     0.160 A 
ATOM      9  C   UNL     1      97.719  83.639  78.028  1.00  0.00     0.157 A 
ATOM     10  C   UNL     1      99.800  82.965  79.097  1.00  0.00     0.056 A 
ATOM     11  C   UNL     1      97.071  83.582  79.278  1.00  0.00     0.050 A 
ATOM     12  C   UNL     1      97.782  83.198  80.431  1.00  0.00     0.009 A 
BRANCH   8  13
ATOM     13  O   UNL     1      99.743  83.455  76.733  1.00  0.00    -0.493 OA
ATOM     14  C   UNL     1     101.167  83.628  76.850  1.00  0.00     0.278 C 
ENDBRANCH   8  13
BRANCH   9  15
ATOM     15  O   UNL     1      97.006  83.988  76.926  1.00  0.00    -0.504 OA
ATOM     16  H   UNL     1      97.050  84.939  76.804  1.00  0.00     0.293 HD
ENDBRANCH   9  15
ENDBRANCH   6   7
ENDBRANCH   3   6
ENDBRANCH   1   2
BRANCH   1  17
ATOM     17  C   UNL     1     103.553  80.658  80.255  1.00  0.00     0.010 C 
BRANCH  17  18
ATOM     18  C   UNL     1     104.151  81.620  79.189  1.00  0.00     0.005 C 
BRANCH  18  19
ATOM     19  C   UNL     1     104.630  80.868  77.918  1.00  0.00     0.027 C 
BRANCH  19  20
ATOM     20  C   UNL     1     105.210  81.771  76.935  1.00  0.00    -0.031 C 
ATOM     21  C   UNL     1     104.525  82.319  75.915  1.00  0.00    -0.028 C 
BRANCH  21  22
ATOM     22  C   UNL     1     105.124  83.240  74.949  1.00  0.00     0.005 C 
ATOM     23  C   UNL     1     104.440  84.635  74.963  1.00  0.00     0.012 C 
ATOM     24  C   UNL     1     106.648  83.369  75.206  1.00  0.00     0.012 C 
ENDBRANCH  21  22
ENDBRANCH  19  20
ENDBRANCH  18  19
ENDBRANCH  17  18
ENDBRANCH   1  17
TORSDOF 10
ENDMDL
MODEL 10
REMARK VINA RESULT:    -5.224      5.134     10.255
REMARK INTER + INTRA:          -8.952
REMARK INTER:                  -8.107
REMARK INTRA:                  -0.845
REMARK UNBOUND:                -0.827
REMARK SMILES COc1cc(CNC(=O)CCCC/C=C/C(C)C)ccc1O
REMARK SMILES IDX 10 1 8 2 7 3 9 5 6 6 5 7 3 8 21 9 4 10 20 11 19 12 2 13 1 14
REMARK SMILES IDX 22 15 11 17 12 18 13 19 14 20 15 21 16 22 17 23 18 24
REMARK H PARENT 7 4 22 16
REMARK Flexibility Score: inf
ROOT
ATOM      1  C   UNL     1      92.856  97.675  76.051  1.00  0.00     0.100 C 
ENDROOT
BRANCH   1   2
ATOM      2  C   UNL     1      93.873  96.623  76.244  1.00  0.00     0.220 C 
ATOM      3  N   UNL     1      93.864  95.850  77.366  1.00  0.00    -0.352 N 
ATOM      4  H   UNL     1      93.140  96.075  78.033  1.00  0.00     0.163 HD
ATOM      5  O   UNL     1      94.725  96.450  75.339  1.00  0.00    -0.275 OA
BRANCH   3   6
ATOM      6  C   UNL     1      94.782  94.789  77.632  1.00  0.00     0.151 C 
BRANCH   6   7
ATOM      7  C   UNL     1      94.993  94.603  79.094  1.00  0.00    -0.025 A 
ATOM      8  C   UNL     1      95.501  95.549  81.309  1.00  0.00     0.160 A 
ATOM      9  C   UNL     1      95.378  94.268  81.886  1.00  0.00     0.157 A 
ATOM     10  C   UNL     1      95.310  95.704  79.920  1.00  0.00     0.056 A 
ATOM     11  C   UNL     1      95.081  93.157  81.071  1.00  0.00     0.050 A 
ATOM     12  C   UNL     1      94.880  93.324  79.687  1.00  0.00     0.009 A 
BRANCH   8  13
ATOM     13  O   UNL     1      95.855  96.622  82.087  1.00  0.00    -0.493 OA
ATOM     14  C   UNL     1      94.752  97.476  82.446  1.00  0.00     0.278 C 
ENDBRANCH   8  13
BRANCH   9  15
ATOM     15  O   UNL     1      95.543  94.087  83.221  1.00  0.00    -0.504 OA
ATOM     16  H   UNL     1      94.879  93.475  83.547  1.00  0.00     0.293 HD
ENDBRANCH   9  15
ENDBRANCH   6   7
ENDBRANCH   3   6
ENDBRANCH   1   2
BRANCH   1  17
ATOM     17  C   UNL     1      93.141  98.522  74.782  1.00  0.00     0.010 C 
BRANCH  17  18
ATOM     18  C   UNL     1      93.413 100.019  75.102  1.00  0.00     0.005 C 
BRANCH  18  19
ATOM     19  C   UNL     1      94.435 100.656  74.122  1.00  0.00     0.027 C 
BRANCH  19  20
ATOM     20  C   UNL     1      95.235  99.652  73.437  1.00  0.00    -0.031 C 
ATOM     21  C   UNL     1      95.404  99.602  72.103  1.00  0.00    -0.028 C 
BRANCH  21  22
ATOM     22  C   UNL     1      96.229  98.595  71.436  1.00  0.00     0.005 C 
ATOM     23  C   UNL     1      96.369  97.297  72.278  1.00  0.00     0.012 C 
ATOM     24  C   UNL     1      95.659  98.282  70.028  1.00  0.00     0.012 C 
ENDBRANCH  21  22
ENDBRANCH  19  20
ENDBRANCH  18  19
ENDBRANCH  17  18
ENDBRANCH   1  17
TORSDOF 10
ENDMDL
