MODEL 1
REMARK VINA RESULT:    -6.302      0.000      0.000
REMARK INTER + INTRA:         -10.768
REMARK INTER:                 -10.171
REMARK INTRA:                  -0.597
REMARK UNBOUND:                -0.597
REMARK SMILES COc1cc(CNC(=O)CCCCCCC(C)C)ccc1O
REMARK SMILES IDX 11 1 10 2 8 3 7 4 9 6 6 7 5 8 3 9 21 10 4 11 20 12 19 13
REMARK SMILES IDX 2 14 1 15 22 16 12 18 13 19 14 20 15 21 16 22 17 23 18 24
REMARK H PARENT 7 5 22 17
REMARK Flexibility Score: inf
ROOT
ATOM      1  C   UNL     1      93.210  98.200  75.675  1.00  0.00     0.010 C 
ENDROOT
BRANCH   1   2
ATOM      2  C   UNL     1      93.707  98.943  74.404  1.00  0.00     0.100 C 
BRANCH   2   3
ATOM      3  C   UNL     1      92.712  99.890  73.853  1.00  0.00     0.220 C 
ATOM      4  N   UNL     1      92.140  99.657  72.636  1.00  0.00    -0.352 N 
ATOM      5  H   UNL     1      92.486  98.838  72.158  1.00  0.00     0.163 HD
ATOM      6  O   UNL     1      92.391 100.892  74.537  1.00  0.00    -0.275 OA
BRANCH   4   7
ATOM      7  C   UNL     1      91.128 100.468  72.030  1.00  0.00     0.151 C 
BRANCH   7   8
ATOM      8  C   UNL     1      90.307  99.732  71.031  1.00  0.00    -0.025 A 
ATOM      9  C   UNL     1      89.201  99.639  68.836  1.00  0.00     0.160 A 
ATOM     10  C   UNL     1      88.778  98.319  69.102  1.00  0.00     0.157 A 
ATOM     11  C   UNL     1      89.944 100.341  69.808  1.00  0.00     0.056 A 
ATOM     12  C   UNL     1      89.099  97.715  70.332  1.00  0.00     0.050 A 
ATOM     13  C   UNL     1      89.867  98.411  71.285  1.00  0.00     0.009 A 
BRANCH   9  14
ATOM     14  O   UNL     1      88.860 100.250  67.660  1.00  0.00    -0.493 OA
ATOM     15  C   UNL     1      88.520 101.641  67.805  1.00  0.00     0.278 C 
ENDBRANCH   9  14
BRANCH  10  16
ATOM     16  O   UNL     1      88.059  97.619  68.185  1.00  0.00    -0.504 OA
ATOM     17  H   UNL     1      87.667  96.850  68.606  1.00  0.00     0.293 HD
ENDBRANCH  10  16
ENDBRANCH   7   8
ENDBRANCH   4   7
ENDBRANCH   2   3
ENDBRANCH   1   2
BRANCH   1  18
ATOM     18  C   UNL     1      93.862  96.797  75.828  1.00  0.00     0.001 C 
BRANCH  18  19
ATOM     19  C   UNL     1      93.655  96.159  77.230  1.00  0.00     0.000 C 
BRANCH  19  20
ATOM     20  C   UNL     1      92.148  95.935  77.540  1.00  0.00     0.000 C 
BRANCH  20  21
ATOM     21  C   UNL     1      91.858  94.700  78.437  1.00  0.00     0.003 C 
BRANCH  21  22
ATOM     22  C   UNL     1      90.767  93.731  77.876  1.00  0.00    -0.017 C 
ATOM     23  C   UNL     1      91.289  93.000  76.607  1.00  0.00     0.007 C 
ATOM     24  C   UNL     1      89.404  94.425  77.582  1.00  0.00     0.007 C 
ENDBRANCH  21  22
ENDBRANCH  20  21
ENDBRANCH  19  20
ENDBRANCH  18  19
ENDBRANCH   1  18
TORSDOF 11
ENDMDL
MODEL 2
REMARK VINA RESULT:    -5.947     19.560     22.133
REMARK INTER + INTRA:         -10.195
REMARK INTER:                  -9.088
REMARK INTRA:                  -1.107
REMARK UNBOUND:                -0.597
REMARK SMILES COc1cc(CNC(=O)CCCCCCC(C)C)ccc1O
REMARK SMILES IDX 11 1 10 2 8 3 7 4 9 6 6 7 5 8 3 9 21 10 4 11 20 12 19 13
REMARK SMILES IDX 2 14 1 15 22 16 12 18 13 19 14 20 15 21 16 22 17 23 18 24
REMARK H PARENT 7 5 22 17
REMARK Flexibility Score: inf
ROOT
ATOM      1  C   UNL     1      76.500  84.196  65.706  1.00  0.00     0.010 C 
ENDROOT
BRANCH   1   2
ATOM      2  C   UNL     1      77.961  84.148  66.233  1.00  0.00     0.100 C 
BRANCH   2   3
ATOM      3  C   UNL     1      78.140  84.848  67.525  1.00  0.00     0.220 C 
ATOM      4  N   UNL     1      77.822  86.170  67.642  1.00  0.00    -0.352 N 
ATOM      5  H   UNL     1      77.512  86.606  66.786  1.00  0.00     0.163 HD
ATOM      6  O   UNL     1      78.564  84.195  68.510  1.00  0.00    -0.275 OA
BRANCH   4   7
ATOM      7  C   UNL     1      77.898  86.934  68.850  1.00  0.00     0.151 C 
BRANCH   7   8
ATOM      8  C   UNL     1      76.564  87.228  69.444  1.00  0.00    -0.025 A 
ATOM      9  C   UNL     1      74.249  86.549  69.920  1.00  0.00     0.160 A 
ATOM     10  C   UNL     1      74.033  87.762  70.610  1.00  0.00     0.157 A 
ATOM     11  C   UNL     1      75.505  86.300  69.327  1.00  0.00     0.056 A 
ATOM     12  C   UNL     1      75.068  88.710  70.699  1.00  0.00     0.050 A 
ATOM     13  C   UNL     1      76.328  88.442  70.130  1.00  0.00     0.009 A 
BRANCH   9  14
ATOM     14  O   UNL     1      73.237  85.637  69.793  1.00  0.00    -0.493 OA
ATOM     15  C   UNL     1      72.712  85.534  68.457  1.00  0.00     0.278 C 
ENDBRANCH   9  14
BRANCH  10  16
ATOM     16  O   UNL     1      72.833  88.029  71.189  1.00  0.00    -0.504 OA
ATOM     17  H   UNL     1      72.634  88.963  71.094  1.00  0.00     0.293 HD
ENDBRANCH  10  16
ENDBRANCH   7   8
ENDBRANCH   4   7
ENDBRANCH   2   3
ENDBRANCH   1   2
BRANCH   1  18
ATOM     18  C   UNL     1      75.500  83.517  66.684  1.00  0.00     0.001 C 
BRANCH  18  19
ATOM     19  C   UNL     1      75.669  81.974  66.781  1.00  0.00     0.000 C 
BRANCH  19  20
ATOM     20  C   UNL     1      75.427  81.284  65.410  1.00  0.00     0.000 C 
BRANCH  20  21
ATOM     21  C   UNL     1      73.942  80.917  65.135  1.00  0.00     0.003 C 
BRANCH  21  22
ATOM     22  C   UNL     1      73.584  80.746  63.622  1.00  0.00    -0.017 C 
ATOM     23  C   UNL     1      73.435  82.135  62.939  1.00  0.00     0.007 C 
ATOM     24  C   UNL     1      72.315  79.878  63.374  1.00  0.00     0.007 C 
ENDBRANCH  21  22
ENDBRANCH  20  21
ENDBRANCH  19  20
ENDBRANCH  18  19
ENDBRANCH   1  18
TORSDOF 11
ENDMDL
MODEL 3
REMARK VINA RESULT:    -5.926      1.325      2.121
REMARK INTER + INTRA:         -10.162
REMARK INTER:                  -9.528
REMARK INTRA:                  -0.634
REMARK UNBOUND:                -0.597
REMARK SMILES COc1cc(CNC(=O)CCCCCCC(C)C)ccc1O
REMARK SMILES IDX 11 1 10 2 8 3 7 4 9 6 6 7 5 8 3 9 21 10 4 11 20 12 19 13
REMARK SMILES IDX 2 14 1 15 22 16 12 18 13 19 14 20 15 21 16 22 17 23 18 24
REMARK H PARENT 7 5 22 17
REMARK Flexibility Score: inf
ROOT
ATOM      1  C   UNL     1      93.253  98.152  75.618  1.00  0.00     0.010 C 
ENDROOT
BRANCH   1   2
ATOM      2  C   UNL     1      93.867  99.018  74.483  1.00  0.00     0.100 C 
BRANCH   2   3
ATOM      3  C   UNL     1      92.905  99.977  73.894  1.00  0.00     0.220 C 
ATOM      4  N   UNL     1      92.405  99.770  72.641  1.00  0.00    -0.352 N 
ATOM      5  H   UNL     1      92.778  98.960  72.168  1.00  0.00     0.163 HD
ATOM      6  O   UNL     1      92.544 100.965  74.579  1.00  0.00    -0.275 OA
BRANCH   4   7
ATOM      7  C   UNL     1      91.430 100.593  71.994  1.00  0.00     0.151 C 
BRANCH   7   8
ATOM      8  C   UNL     1      90.509  99.828  71.109  1.00  0.00    -0.025 A 
ATOM      9  C   UNL     1      89.288  99.610  68.985  1.00  0.00     0.160 A 
ATOM     10  C   UNL     1      88.790  98.355  69.398  1.00  0.00     0.157 A 
ATOM     11  C   UNL     1      90.127 100.344  69.850  1.00  0.00     0.056 A 
ATOM     12  C   UNL     1      89.132  97.848  70.665  1.00  0.00     0.050 A 
ATOM     13  C   UNL     1      89.994  98.573  71.511  1.00  0.00     0.009 A 
BRANCH   9  14
ATOM     14  O   UNL     1      88.930 100.130  67.771  1.00  0.00    -0.493 OA
ATOM     15  C   UNL     1      88.531 101.512  67.827  1.00  0.00     0.278 C 
ENDBRANCH   9  14
BRANCH  10  16
ATOM     16  O   UNL     1      87.979  97.626  68.586  1.00  0.00    -0.504 OA
ATOM     17  H   UNL     1      87.360  98.212  68.144  1.00  0.00     0.293 HD
ENDBRANCH  10  16
ENDBRANCH   7   8
ENDBRANCH   4   7
ENDBRANCH   2   3
ENDBRANCH   1   2
BRANCH   1  18
ATOM     18  C   UNL     1      93.904  96.742  75.697  1.00  0.00     0.001 C 
BRANCH  18  19
ATOM     19  C   UNL     1      92.968  95.652  76.292  1.00  0.00     0.000 C 
BRANCH  19  20
ATOM     20  C   UNL     1      93.708  94.773  77.339  1.00  0.00     0.000 C 
BRANCH  20  21
ATOM     21  C   UNL     1      93.091  94.823  78.764  1.00  0.00     0.003 C 
BRANCH  21  22
ATOM     22  C   UNL     1      94.125  95.054  79.914  1.00  0.00    -0.017 C 
ATOM     23  C   UNL     1      94.844  96.420  79.733  1.00  0.00     0.007 C 
ATOM     24  C   UNL     1      95.167  93.905  80.057  1.00  0.00     0.007 C 
ENDBRANCH  21  22
ENDBRANCH  20  21
ENDBRANCH  19  20
ENDBRANCH  18  19
ENDBRANCH   1  18
TORSDOF 11
ENDMDL
MODEL 4
REMARK VINA RESULT:    -5.760      1.247      2.257
REMARK INTER + INTRA:          -9.894
REMARK INTER:                  -9.072
REMARK INTRA:                  -0.821
REMARK UNBOUND:                -0.597
REMARK SMILES COc1cc(CNC(=O)CCCCCCC(C)C)ccc1O
REMARK SMILES IDX 11 1 10 2 8 3 7 4 9 6 6 7 5 8 3 9 21 10 4 11 20 12 19 13
REMARK SMILES IDX 2 14 1 15 22 16 12 18 13 19 14 20 15 21 16 22 17 23 18 24
REMARK H PARENT 7 5 22 17
REMARK Flexibility Score: inf
ROOT
ATOM      1  C   UNL     1      94.079  99.710  75.312  1.00  0.00     0.010 C 
ENDROOT
BRANCH   1   2
ATOM      2  C   UNL     1      92.615 100.104  74.973  1.00  0.00     0.100 C 
BRANCH   2   3
ATOM      3  C   UNL     1      92.497 100.903  73.733  1.00  0.00     0.220 C 
ATOM      4  N   UNL     1      92.795 100.347  72.523  1.00  0.00    -0.352 N 
ATOM      5  H   UNL     1      93.130  99.396  72.568  1.00  0.00     0.163 HD
ATOM      6  O   UNL     1      92.096 102.090  73.818  1.00  0.00    -0.275 OA
BRANCH   4   7
ATOM      7  C   UNL     1      92.663 101.003  71.257  1.00  0.00     0.151 C 
BRANCH   7   8
ATOM      8  C   UNL     1      91.462 100.567  70.493  1.00  0.00    -0.025 A 
ATOM      9  C   UNL     1      89.635  98.960  70.131  1.00  0.00     0.160 A 
ATOM     10  C   UNL     1      89.145  99.753  69.070  1.00  0.00     0.157 A 
ATOM     11  C   UNL     1      90.798  99.363  70.821  1.00  0.00     0.056 A 
ATOM     12  C   UNL     1      89.819 100.934  68.709  1.00  0.00     0.050 A 
ATOM     13  C   UNL     1      90.963 101.345  69.421  1.00  0.00     0.009 A 
BRANCH   9  14
ATOM     14  O   UNL     1      89.010  97.790  70.464  1.00  0.00    -0.493 OA
ATOM     15  C   UNL     1      89.652  96.617  69.930  1.00  0.00     0.278 C 
ENDBRANCH   9  14
BRANCH  10  16
ATOM     16  O   UNL     1      88.028  99.389  68.387  1.00  0.00    -0.504 OA
ATOM     17  H   UNL     1      87.404  98.979  68.991  1.00  0.00     0.293 HD
ENDBRANCH  10  16
ENDBRANCH   7   8
ENDBRANCH   4   7
ENDBRANCH   2   3
ENDBRANCH   1   2
BRANCH   1  18
ATOM     18  C   UNL     1      94.186  98.254  75.848  1.00  0.00     0.001 C 
BRANCH  18  19
ATOM     19  C   UNL     1      92.883  97.424  75.671  1.00  0.00     0.000 C 
BRANCH  19  20
ATOM     20  C   UNL     1      92.784  96.284  76.724  1.00  0.00     0.000 C 
BRANCH  20  21
ATOM     21  C   UNL     1      91.482  96.310  77.571  1.00  0.00     0.003 C 
BRANCH  21  22
ATOM     22  C   UNL     1      90.761  94.928  77.699  1.00  0.00    -0.017 C 
ATOM     23  C   UNL     1      91.543  93.833  76.920  1.00  0.00     0.007 C 
ATOM     24  C   UNL     1      89.270  94.957  77.250  1.00  0.00     0.007 C 
ENDBRANCH  21  22
ENDBRANCH  20  21
ENDBRANCH  19  20
ENDBRANCH  18  19
ENDBRANCH   1  18
TORSDOF 11
ENDMDL
MODEL 5
REMARK VINA RESULT:    -5.376      7.406     12.484
REMARK INTER + INTRA:          -9.273
REMARK INTER:                  -8.267
REMARK INTRA:                  -1.006
REMARK UNBOUND:                -0.597
REMARK SMILES COc1cc(CNC(=O)CCCCCCC(C)C)ccc1O
REMARK SMILES IDX 11 1 10 2 8 3 7 4 9 6 6 7 5 8 3 9 21 10 4 11 20 12 19 13
REMARK SMILES IDX 2 14 1 15 22 16 12 18 13 19 14 20 15 21 16 22 17 23 18 24
REMARK H PARENT 7 5 22 17
REMARK Flexibility Score: inf
ROOT
ATOM      1  C   UNL     1      95.647  96.692  78.771  1.00  0.00     0.010 C 
ENDROOT
BRANCH   1   2
ATOM      2  C   UNL     1      94.531  96.264  79.763  1.00  0.00     0.100 C 
BRANCH   2   3
ATOM      3  C   UNL     1      95.039  95.970  81.122  1.00  0.00     0.220 C 
ATOM      4  N   UNL     1      95.729  96.917  81.820  1.00  0.00    -0.352 N 
ATOM      5  H   UNL     1      95.888  97.778  81.317  1.00  0.00     0.163 HD
ATOM      6  O   UNL     1      94.799  94.844  81.624  1.00  0.00    -0.275 OA
BRANCH   4   7
ATOM      7  C   UNL     1      96.216  96.767  83.158  1.00  0.00     0.151 C 
BRANCH   7   8
ATOM      8  C   UNL     1      96.057  97.997  83.981  1.00  0.00    -0.025 A 
ATOM      9  C   UNL     1      96.158  99.127  86.164  1.00  0.00     0.160 A 
ATOM     10  C   UNL     1      95.798 100.347  85.551  1.00  0.00     0.157 A 
ATOM     11  C   UNL     1      96.266  97.960  85.379  1.00  0.00     0.056 A 
ATOM     12  C   UNL     1      95.549 100.389  84.167  1.00  0.00     0.050 A 
ATOM     13  C   UNL     1      95.687  99.226  83.385  1.00  0.00     0.009 A 
BRANCH   9  14
ATOM     14  O   UNL     1      96.364  99.067  87.515  1.00  0.00    -0.493 OA
ATOM     15  C   UNL     1      95.476  98.163  88.197  1.00  0.00     0.278 C 
ENDBRANCH   9  14
BRANCH  10  16
ATOM     16  O   UNL     1      95.685 101.487  86.283  1.00  0.00    -0.504 OA
ATOM     17  H   UNL     1      96.325 102.131  85.971  1.00  0.00     0.293 HD
ENDBRANCH  10  16
ENDBRANCH   7   8
ENDBRANCH   4   7
ENDBRANCH   2   3
ENDBRANCH   1   2
BRANCH   1  18
ATOM     18  C   UNL     1      95.205  96.537  77.288  1.00  0.00     0.001 C 
BRANCH  18  19
ATOM     19  C   UNL     1      94.000  97.439  76.896  1.00  0.00     0.000 C 
BRANCH  19  20
ATOM     20  C   UNL     1      92.961  96.664  76.037  1.00  0.00     0.000 C 
BRANCH  20  21
ATOM     21  C   UNL     1      92.514  95.307  76.648  1.00  0.00     0.003 C 
BRANCH  21  22
ATOM     22  C   UNL     1      91.568  95.432  77.887  1.00  0.00    -0.017 C 
ATOM     23  C   UNL     1      91.604  94.128  78.732  1.00  0.00     0.007 C 
ATOM     24  C   UNL     1      90.101  95.802  77.518  1.00  0.00     0.007 C 
ENDBRANCH  21  22
ENDBRANCH  20  21
ENDBRANCH  19  20
ENDBRANCH  18  19
ENDBRANCH   1  18
TORSDOF 11
ENDMDL
MODEL 6
REMARK VINA RESULT:    -5.308      3.128      8.006
REMARK INTER + INTRA:          -9.163
REMARK INTER:                  -8.620
REMARK INTRA:                  -0.543
REMARK UNBOUND:                -0.597
REMARK SMILES COc1cc(CNC(=O)CCCCCCC(C)C)ccc1O
REMARK SMILES IDX 11 1 10 2 8 3 7 4 9 6 6 7 5 8 3 9 21 10 4 11 20 12 19 13
REMARK SMILES IDX 2 14 1 15 22 16 12 18 13 19 14 20 15 21 16 22 17 23 18 24
REMARK H PARENT 7 5 22 17
REMARK Flexibility Score: inf
ROOT
ATOM      1  C   UNL     1      91.364 102.083  71.649  1.00  0.00     0.010 C 
ENDROOT
BRANCH   1   2
ATOM      2  C   UNL     1      91.231 102.153  73.195  1.00  0.00     0.100 C 
BRANCH   2   3
ATOM      3  C   UNL     1      92.490 101.836  73.906  1.00  0.00     0.220 C 
ATOM      4  N   UNL     1      93.005 100.573  73.866  1.00  0.00    -0.352 N 
ATOM      5  H   UNL     1      92.440  99.904  73.364  1.00  0.00     0.163 HD
ATOM      6  O   UNL     1      93.081 102.757  74.521  1.00  0.00    -0.275 OA
BRANCH   4   7
ATOM      7  C   UNL     1      94.240 100.165  74.463  1.00  0.00     0.151 C 
BRANCH   7   8
ATOM      8  C   UNL     1      94.229  98.750  74.926  1.00  0.00    -0.025 A 
ATOM      9  C   UNL     1      93.053  96.862  75.976  1.00  0.00     0.160 A 
ATOM     10  C   UNL     1      94.184  96.042  75.770  1.00  0.00     0.157 A 
ATOM     11  C   UNL     1      93.091  98.213  75.570  1.00  0.00     0.056 A 
ATOM     12  C   UNL     1      95.336  96.576  75.166  1.00  0.00     0.050 A 
ATOM     13  C   UNL     1      95.357  97.917  74.737  1.00  0.00     0.009 A 
BRANCH   9  14
ATOM     14  O   UNL     1      91.941  96.364  76.598  1.00  0.00    -0.493 OA
ATOM     15  C   UNL     1      92.159  96.006  77.975  1.00  0.00     0.278 C 
ENDBRANCH   9  14
BRANCH  10  16
ATOM     16  O   UNL     1      94.176  94.737  76.153  1.00  0.00    -0.504 OA
ATOM     17  H   UNL     1      93.286  94.387  76.074  1.00  0.00     0.293 HD
ENDBRANCH  10  16
ENDBRANCH   7   8
ENDBRANCH   4   7
ENDBRANCH   2   3
ENDBRANCH   1   2
BRANCH   1  18
ATOM     18  C   UNL     1      90.721 100.795  71.061  1.00  0.00     0.001 C 
BRANCH  18  19
ATOM     19  C   UNL     1      89.298 100.497  71.613  1.00  0.00     0.000 C 
BRANCH  19  20
ATOM     20  C   UNL     1      88.799  99.090  71.180  1.00  0.00     0.000 C 
BRANCH  20  21
ATOM     21  C   UNL     1      89.364  98.606  69.816  1.00  0.00     0.003 C 
BRANCH  21  22
ATOM     22  C   UNL     1      88.409  98.834  68.599  1.00  0.00    -0.017 C 
ATOM     23  C   UNL     1      88.440  97.606  67.646  1.00  0.00     0.007 C 
ATOM     24  C   UNL     1      88.703 100.144  67.810  1.00  0.00     0.007 C 
ENDBRANCH  21  22
ENDBRANCH  20  21
ENDBRANCH  19  20
ENDBRANCH  18  19
ENDBRANCH   1  18
TORSDOF 11
ENDMDL
MODEL 7
REMARK VINA RESULT:    -5.218      5.031      9.687
REMARK INTER + INTRA:          -9.019
REMARK INTER:                  -8.097
REMARK INTRA:                  -0.922
REMARK UNBOUND:                -0.597
REMARK SMILES COc1cc(CNC(=O)CCCCCCC(C)C)ccc1O
REMARK SMILES IDX 11 1 10 2 8 3 7 4 9 6 6 7 5 8 3 9 21 10 4 11 20 12 19 13
REMARK SMILES IDX 2 14 1 15 22 16 12 18 13 19 14 20 15 21 16 22 17 23 18 24
REMARK H PARENT 7 5 22 17
REMARK Flexibility Score: inf
ROOT
ATOM      1  C   UNL     1      97.479  98.736  73.967  1.00  0.00     0.010 C 
ENDROOT
BRANCH   1   2
ATOM      2  C   UNL     1      95.958  98.509  74.188  1.00  0.00     0.100 C 
BRANCH   2   3
ATOM      3  C   UNL     1      95.567  98.514  75.615  1.00  0.00     0.220 C 
ATOM      4  N   UNL     1      95.777  97.412  76.391  1.00  0.00    -0.352 N 
ATOM      5  H   UNL     1      96.164  96.619  75.901  1.00  0.00     0.163 HD
ATOM      6  O   UNL     1      95.065  99.559  76.098  1.00  0.00    -0.275 OA
BRANCH   4   7
ATOM      7  C   UNL     1      95.494  97.321  77.792  1.00  0.00     0.151 C 
BRANCH   7   8
ATOM      8  C   UNL     1      94.450  96.311  78.115  1.00  0.00    -0.025 A 
ATOM      9  C   UNL     1      93.599  94.518  79.568  1.00  0.00     0.160 A 
ATOM     10  C   UNL     1      92.443  94.412  78.764  1.00  0.00     0.157 A 
ATOM     11  C   UNL     1      94.600  95.451  79.227  1.00  0.00     0.056 A 
ATOM     12  C   UNL     1      92.300  95.235  77.632  1.00  0.00     0.050 A 
ATOM     13  C   UNL     1      93.290  96.185  77.315  1.00  0.00     0.009 A 
BRANCH   9  14
ATOM     14  O   UNL     1      93.767  93.695  80.648  1.00  0.00    -0.493 OA
ATOM     15  C   UNL     1      95.103  93.178  80.782  1.00  0.00     0.278 C 
ENDBRANCH   9  14
BRANCH  10  16
ATOM     16  O   UNL     1      91.463  93.520  79.067  1.00  0.00    -0.504 OA
ATOM     17  H   UNL     1      91.539  92.755  78.493  1.00  0.00     0.293 HD
ENDBRANCH  10  16
ENDBRANCH   7   8
ENDBRANCH   4   7
ENDBRANCH   2   3
ENDBRANCH   1   2
BRANCH   1  18
ATOM     18  C   UNL     1      97.810  99.102  72.492  1.00  0.00     0.001 C 
BRANCH  18  19
ATOM     19  C   UNL     1      97.692  97.903  71.508  1.00  0.00     0.000 C 
BRANCH  19  20
ATOM     20  C   UNL     1      96.296  97.860  70.824  1.00  0.00     0.000 C 
BRANCH  20  21
ATOM     21  C   UNL     1      96.173  98.767  69.568  1.00  0.00     0.003 C 
BRANCH  21  22
ATOM     22  C   UNL     1      95.382 100.096  69.800  1.00  0.00    -0.017 C 
ATOM     23  C   UNL     1      96.339 101.319  69.720  1.00  0.00     0.007 C 
ATOM     24  C   UNL     1      94.578 100.120  71.133  1.00  0.00     0.007 C 
ENDBRANCH  21  22
ENDBRANCH  20  21
ENDBRANCH  19  20
ENDBRANCH  18  19
ENDBRANCH   1  18
TORSDOF 11
ENDMDL
MODEL 8
REMARK VINA RESULT:    -5.198     16.861     19.963
REMARK INTER + INTRA:          -8.986
REMARK INTER:                  -8.111
REMARK INTRA:                  -0.876
REMARK UNBOUND:                -0.597
REMARK SMILES COc1cc(CNC(=O)CCCCCCC(C)C)ccc1O
REMARK SMILES IDX 11 1 10 2 8 3 7 4 9 6 6 7 5 8 3 9 21 10 4 11 20 12 19 13
REMARK SMILES IDX 2 14 1 15 22 16 12 18 13 19 14 20 15 21 16 22 17 23 18 24
REMARK H PARENT 7 5 22 17
REMARK Flexibility Score: inf
ROOT
ATOM      1  C   UNL     1     101.457  83.884  76.875  1.00  0.00     0.010 C 
ENDROOT
BRANCH   1   2
ATOM      2  C   UNL     1     100.335  82.921  76.398  1.00  0.00     0.100 C 
BRANCH   2   3
ATOM      3  C   UNL     1      99.309  82.659  77.432  1.00  0.00     0.220 C 
ATOM      4  N   UNL     1      99.194  83.484  78.512  1.00  0.00    -0.352 N 
ATOM      5  H   UNL     1      99.878  84.225  78.551  1.00  0.00     0.163 HD
ATOM      6  O   UNL     1      98.537  81.681  77.279  1.00  0.00    -0.275 OA
BRANCH   4   7
ATOM      7  C   UNL     1      98.206  83.364  79.541  1.00  0.00     0.151 C 
BRANCH   7   8
ATOM      8  C   UNL     1      98.764  82.889  80.838  1.00  0.00    -0.025 A 
ATOM      9  C   UNL     1      98.649  82.777  83.292  1.00  0.00     0.160 A 
ATOM     10  C   UNL     1      99.795  81.952  83.310  1.00  0.00     0.157 A 
ATOM     11  C   UNL     1      98.154  83.254  82.060  1.00  0.00     0.056 A 
ATOM     12  C   UNL     1     100.433  81.615  82.103  1.00  0.00     0.050 A 
ATOM     13  C   UNL     1      99.917  82.070  80.874  1.00  0.00     0.009 A 
BRANCH   9  14
ATOM     14  O   UNL     1      98.043  83.143  84.463  1.00  0.00    -0.493 OA
ATOM     15  C   UNL     1      96.962  84.078  84.289  1.00  0.00     0.278 C 
ENDBRANCH   9  14
BRANCH  10  16
ATOM     16  O   UNL     1     100.294  81.480  84.482  1.00  0.00    -0.504 OA
ATOM     17  H   UNL     1     101.168  81.111  84.331  1.00  0.00     0.293 HD
ENDBRANCH  10  16
ENDBRANCH   7   8
ENDBRANCH   4   7
ENDBRANCH   2   3
ENDBRANCH   1   2
BRANCH   1  18
ATOM     18  C   UNL     1     101.804  84.957  75.805  1.00  0.00     0.001 C 
BRANCH  18  19
ATOM     19  C   UNL     1     100.559  85.559  75.094  1.00  0.00     0.000 C 
BRANCH  19  20
ATOM     20  C   UNL     1     100.885  85.986  73.635  1.00  0.00     0.000 C 
BRANCH  20  21
ATOM     21  C   UNL     1     102.107  85.254  73.014  1.00  0.00     0.003 C 
BRANCH  21  22
ATOM     22  C   UNL     1     103.250  86.201  72.521  1.00  0.00    -0.017 C 
ATOM     23  C   UNL     1     103.835  85.692  71.174  1.00  0.00     0.007 C 
ATOM     24  C   UNL     1     104.387  86.406  73.566  1.00  0.00     0.007 C 
ENDBRANCH  21  22
ENDBRANCH  20  21
ENDBRANCH  19  20
ENDBRANCH  18  19
ENDBRANCH   1  18
TORSDOF 11
ENDMDL
MODEL 9
REMARK VINA RESULT:    -5.127     28.218     30.735
REMARK INTER + INTRA:          -8.872
REMARK INTER:                  -7.824
REMARK INTRA:                  -1.047
REMARK UNBOUND:                -0.597
REMARK SMILES COc1cc(CNC(=O)CCCCCCC(C)C)ccc1O
REMARK SMILES IDX 11 1 10 2 8 3 7 4 9 6 6 7 5 8 3 9 21 10 4 11 20 12 19 13
REMARK SMILES IDX 2 14 1 15 22 16 12 18 13 19 14 20 15 21 16 22 17 23 18 24
REMARK H PARENT 7 5 22 17
REMARK Flexibility Score: inf
ROOT
ATOM      1  C   UNL     1      63.117  82.894  71.279  1.00  0.00     0.010 C 
ENDROOT
BRANCH   1   2
ATOM      2  C   UNL     1      62.890  82.137  69.942  1.00  0.00     0.100 C 
BRANCH   2   3
ATOM      3  C   UNL     1      63.995  82.315  68.974  1.00  0.00     0.220 C 
ATOM      4  N   UNL     1      64.724  83.468  68.965  1.00  0.00    -0.352 N 
ATOM      5  H   UNL     1      64.415  84.167  69.625  1.00  0.00     0.163 HD
ATOM      6  O   UNL     1      64.259  81.377  68.182  1.00  0.00    -0.275 OA
BRANCH   4   7
ATOM      7  C   UNL     1      65.848  83.729  68.117  1.00  0.00     0.151 C 
BRANCH   7   8
ATOM      8  C   UNL     1      67.151  83.666  68.835  1.00  0.00    -0.025 A 
ATOM      9  C   UNL     1      69.610  83.630  68.784  1.00  0.00     0.160 A 
ATOM     10  C   UNL     1      69.640  83.592  70.196  1.00  0.00     0.157 A 
ATOM     11  C   UNL     1      68.368  83.648  68.115  1.00  0.00     0.056 A 
ATOM     12  C   UNL     1      68.435  83.571  70.922  1.00  0.00     0.050 A 
ATOM     13  C   UNL     1      67.199  83.618  70.248  1.00  0.00     0.009 A 
BRANCH   9  14
ATOM     14  O   UNL     1      70.775  83.611  68.068  1.00  0.00    -0.493 OA
ATOM     15  C   UNL     1      70.807  82.605  67.039  1.00  0.00     0.278 C 
ENDBRANCH   9  14
BRANCH  10  16
ATOM     16  O   UNL     1      70.822  83.573  70.867  1.00  0.00    -0.504 OA
ATOM     17  H   UNL     1      71.402  84.251  70.512  1.00  0.00     0.293 HD
ENDBRANCH  10  16
ENDBRANCH   7   8
ENDBRANCH   4   7
ENDBRANCH   2   3
ENDBRANCH   1   2
BRANCH   1  18
ATOM     18  C   UNL     1      61.906  83.793  71.658  1.00  0.00     0.001 C 
BRANCH  18  19
ATOM     19  C   UNL     1      61.594  84.899  70.610  1.00  0.00     0.000 C 
BRANCH  19  20
ATOM     20  C   UNL     1      60.169  84.735  70.012  1.00  0.00     0.000 C 
BRANCH  20  21
ATOM     21  C   UNL     1      59.047  84.575  71.075  1.00  0.00     0.003 C 
BRANCH  21  22
ATOM     22  C   UNL     1      58.495  85.923  71.646  1.00  0.00    -0.017 C 
ATOM     23  C   UNL     1      58.603  87.049  70.581  1.00  0.00     0.007 C 
ATOM     24  C   UNL     1      59.175  86.363  72.976  1.00  0.00     0.007 C 
ENDBRANCH  21  22
ENDBRANCH  20  21
ENDBRANCH  19  20
ENDBRANCH  18  19
ENDBRANCH   1  18
TORSDOF 11
ENDMDL
MODEL 10
REMARK VINA RESULT:    -5.098     16.961     19.529
REMARK INTER + INTRA:          -8.824
REMARK INTER:                  -7.067
REMARK INTRA:                  -1.757
REMARK UNBOUND:                -0.597
REMARK SMILES COc1cc(CNC(=O)CCCCCCC(C)C)ccc1O
REMARK SMILES IDX 11 1 10 2 8 3 7 4 9 6 6 7 5 8 3 9 21 10 4 11 20 12 19 13
REMARK SMILES IDX 2 14 1 15 22 16 12 18 13 19 14 20 15 21 16 22 17 23 18 24
REMARK H PARENT 7 5 22 17
REMARK Flexibility Score: inf
ROOT
ATOM      1  C   UNL     1     102.249  78.884  78.509  1.00  0.00     0.010 C 
ENDROOT
BRANCH   1   2
ATOM      2  C   UNL     1     101.126  77.994  77.908  1.00  0.00     0.100 C 
BRANCH   2   3
ATOM      3  C   UNL     1     100.221  78.729  76.997  1.00  0.00     0.220 C 
ATOM      4  N   UNL     1     100.729  79.451  75.956  1.00  0.00    -0.352 N 
ATOM      5  H   UNL     1     101.737  79.466  75.906  1.00  0.00     0.163 HD
ATOM      6  O   UNL     1      98.983  78.654  77.189  1.00  0.00    -0.275 OA
BRANCH   4   7
ATOM      7  C   UNL     1      99.951  80.152  74.980  1.00  0.00     0.151 C 
BRANCH   7   8
ATOM      8  C   UNL     1      99.578  81.529  75.406  1.00  0.00    -0.025 A 
ATOM      9  C   UNL     1     100.205  83.868  75.837  1.00  0.00     0.160 A 
ATOM     10  C   UNL     1      98.867  84.167  76.174  1.00  0.00     0.157 A 
ATOM     11  C   UNL     1     100.553  82.550  75.475  1.00  0.00     0.056 A 
ATOM     12  C   UNL     1      97.894  83.151  76.148  1.00  0.00     0.050 A 
ATOM     13  C   UNL     1      98.244  81.844  75.756  1.00  0.00     0.009 A 
BRANCH   9  14
ATOM     14  O   UNL     1     101.166  84.840  75.898  1.00  0.00    -0.493 OA
ATOM     15  C   UNL     1     101.504  85.403  74.617  1.00  0.00     0.278 C 
ENDBRANCH   9  14
BRANCH  10  16
ATOM     16  O   UNL     1      98.503  85.427  76.529  1.00  0.00    -0.504 OA
ATOM     17  H   UNL     1      97.553  85.525  76.430  1.00  0.00     0.293 HD
ENDBRANCH  10  16
ENDBRANCH   7   8
ENDBRANCH   4   7
ENDBRANCH   2   3
ENDBRANCH   1   2
BRANCH   1  18
ATOM     18  C   UNL     1     101.710  80.260  78.995  1.00  0.00     0.001 C 
BRANCH  18  19
ATOM     19  C   UNL     1     101.052  80.213  80.404  1.00  0.00     0.000 C 
BRANCH  19  20
ATOM     20  C   UNL     1      99.512  80.411  80.323  1.00  0.00     0.000 C 
BRANCH  20  21
ATOM     21  C   UNL     1      99.064  81.525  79.338  1.00  0.00     0.003 C 
BRANCH  21  22
ATOM     22  C   UNL     1      98.693  82.884  80.018  1.00  0.00    -0.017 C 
ATOM     23  C   UNL     1      98.750  82.750  81.566  1.00  0.00     0.007 C 
ATOM     24  C   UNL     1      97.314  83.452  79.570  1.00  0.00     0.007 C 
ENDBRANCH  21  22
ENDBRANCH  20  21
ENDBRANCH  19  20
ENDBRANCH  18  19
ENDBRANCH   1  18
TORSDOF 11
ENDMDL
