MODEL 1
REMARK VINA RESULT:    -6.164      0.000      0.000
REMARK INTER + INTRA:         -10.267
REMARK INTER:                  -9.587
REMARK INTRA:                  -0.681
REMARK UNBOUND:                -0.681
REMARK SMILES COc1cc(CNC(=O)CCCCCC(C)C)ccc1O
REMARK SMILES IDX 10 1 8 2 7 3 9 5 6 6 5 7 3 8 20 9 4 10 19 11 18 12 2 13 1 14
REMARK SMILES IDX 21 15 11 17 12 18 13 19 14 20 15 21 16 22 17 23
REMARK H PARENT 7 4 21 16
REMARK Flexibility Score: inf
ROOT
ATOM      1  C   UNL     1      96.765  82.339  83.032  1.00  0.00     0.100 C 
ENDROOT
BRANCH   1   2
ATOM      2  C   UNL     1      97.166  81.890  81.682  1.00  0.00     0.220 C 
ATOM      3  N   UNL     1      97.946  82.700  80.912  1.00  0.00    -0.352 N 
ATOM      4  H   UNL     1      98.089  83.629  81.281  1.00  0.00     0.163 HD
ATOM      5  O   UNL     1      96.814  80.751  81.290  1.00  0.00    -0.275 OA
BRANCH   3   6
ATOM      6  C   UNL     1      98.546  82.325  79.672  1.00  0.00     0.151 C 
BRANCH   6   7
ATOM      7  C   UNL     1      97.939  83.009  78.499  1.00  0.00    -0.025 A 
ATOM      8  C   UNL     1      98.040  83.685  76.136  1.00  0.00     0.160 A 
ATOM      9  C   UNL     1      96.754  84.254  76.246  1.00  0.00     0.157 A 
ATOM     10  C   UNL     1      98.632  83.083  77.267  1.00  0.00     0.056 A 
ATOM     11  C   UNL     1      96.067  84.210  77.473  1.00  0.00     0.050 A 
ATOM     12  C   UNL     1      96.651  83.588  78.589  1.00  0.00     0.009 A 
BRANCH   8  13
ATOM     13  O   UNL     1      98.735  83.735  74.956  1.00  0.00    -0.493 OA
ATOM     14  C   UNL     1     100.101  84.169  75.103  1.00  0.00     0.278 C 
ENDBRANCH   8  13
BRANCH   9  15
ATOM     15  O   UNL     1      96.177  84.837  75.166  1.00  0.00    -0.504 OA
ATOM     16  H   UNL     1      95.225  84.721  75.209  1.00  0.00     0.293 HD
ENDBRANCH   9  15
ENDBRANCH   6   7
ENDBRANCH   3   6
ENDBRANCH   1   2
BRANCH   1  17
ATOM     17  C   UNL     1      95.633  81.494  83.675  1.00  0.00     0.010 C 
BRANCH  17  18
ATOM     18  C   UNL     1      94.441  82.382  84.128  1.00  0.00     0.001 C 
BRANCH  18  19
ATOM     19  C   UNL     1      94.806  83.369  85.268  1.00  0.00     0.000 C 
BRANCH  19  20
ATOM     20  C   UNL     1      93.747  84.497  85.431  1.00  0.00     0.003 C 
BRANCH  20  21
ATOM     21  C   UNL     1      94.171  85.888  84.858  1.00  0.00    -0.017 C 
ATOM     22  C   UNL     1      95.534  85.789  84.112  1.00  0.00     0.007 C 
ATOM     23  C   UNL     1      94.239  86.996  85.949  1.00  0.00     0.007 C 
ENDBRANCH  20  21
ENDBRANCH  19  20
ENDBRANCH  18  19
ENDBRANCH  17  18
ENDBRANCH   1  17
TORSDOF 10
ENDMDL
MODEL 2
REMARK VINA RESULT:    -5.944      1.821      2.860
REMARK INTER + INTRA:          -9.926
REMARK INTER:                  -9.406
REMARK INTRA:                  -0.520
REMARK UNBOUND:                -0.681
REMARK SMILES COc1cc(CNC(=O)CCCCCC(C)C)ccc1O
REMARK SMILES IDX 10 1 8 2 7 3 9 5 6 6 5 7 3 8 20 9 4 10 19 11 18 12 2 13 1 14
REMARK SMILES IDX 21 15 11 17 12 18 13 19 14 20 15 21 16 22 17 23
REMARK H PARENT 7 4 21 16
REMARK Flexibility Score: inf
ROOT
ATOM      1  C   UNL     1      96.226  83.502  82.613  1.00  0.00     0.100 C 
ENDROOT
BRANCH   1   2
ATOM      2  C   UNL     1      97.158  82.830  81.683  1.00  0.00     0.220 C 
ATOM      3  N   UNL     1      97.096  83.114  80.352  1.00  0.00    -0.352 N 
ATOM      4  H   UNL     1      96.308  83.682  80.075  1.00  0.00     0.163 HD
ATOM      5  O   UNL     1      98.017  82.041  82.147  1.00  0.00    -0.275 OA
BRANCH   3   6
ATOM      6  C   UNL     1      98.038  82.674  79.373  1.00  0.00     0.151 C 
BRANCH   6   7
ATOM      7  C   UNL     1      97.783  83.242  78.021  1.00  0.00    -0.025 A 
ATOM      8  C   UNL     1      98.477  83.583  75.687  1.00  0.00     0.160 A 
ATOM      9  C   UNL     1      97.269  84.265  75.430  1.00  0.00     0.157 A 
ATOM     10  C   UNL     1      98.735  83.093  76.985  1.00  0.00     0.056 A 
ATOM     11  C   UNL     1      96.327  84.442  76.460  1.00  0.00     0.050 A 
ATOM     12  C   UNL     1      96.579  83.930  77.744  1.00  0.00     0.009 A 
BRANCH   8  13
ATOM     13  O   UNL     1      99.416  83.417  74.703  1.00  0.00    -0.493 OA
ATOM     14  C   UNL     1      99.540  82.058  74.240  1.00  0.00     0.278 C 
ENDBRANCH   8  13
BRANCH   9  15
ATOM     15  O   UNL     1      97.012  84.742  74.186  1.00  0.00    -0.504 OA
ATOM     16  H   UNL     1      96.099  84.557  73.954  1.00  0.00     0.293 HD
ENDBRANCH   9  15
ENDBRANCH   6   7
ENDBRANCH   3   6
ENDBRANCH   1   2
BRANCH   1  17
ATOM     17  C   UNL     1      95.519  82.546  83.611  1.00  0.00     0.010 C 
BRANCH  17  18
ATOM     18  C   UNL     1      94.680  83.329  84.657  1.00  0.00     0.001 C 
BRANCH  18  19
ATOM     19  C   UNL     1      93.573  82.471  85.326  1.00  0.00     0.000 C 
BRANCH  19  20
ATOM     20  C   UNL     1      92.358  82.239  84.382  1.00  0.00     0.003 C 
BRANCH  20  21
ATOM     21  C   UNL     1      91.401  81.079  84.810  1.00  0.00    -0.017 C 
ATOM     22  C   UNL     1      92.194  79.935  85.509  1.00  0.00     0.007 C 
ATOM     23  C   UNL     1      90.575  80.507  83.622  1.00  0.00     0.007 C 
ENDBRANCH  20  21
ENDBRANCH  19  20
ENDBRANCH  18  19
ENDBRANCH  17  18
ENDBRANCH   1  17
TORSDOF 10
ENDMDL
MODEL 3
REMARK VINA RESULT:    -5.737      4.155      8.713
REMARK INTER + INTRA:          -9.604
REMARK INTER:                  -8.406
REMARK INTRA:                  -1.197
REMARK UNBOUND:                -0.681
REMARK SMILES COc1cc(CNC(=O)CCCCCC(C)C)ccc1O
REMARK SMILES IDX 10 1 8 2 7 3 9 5 6 6 5 7 3 8 20 9 4 10 19 11 18 12 2 13 1 14
REMARK SMILES IDX 21 15 11 17 12 18 13 19 14 20 15 21 16 22 17 23
REMARK H PARENT 7 4 21 16
REMARK Flexibility Score: inf
ROOT
ATOM      1  C   UNL     1      99.291  84.885  72.926  1.00  0.00     0.100 C 
ENDROOT
BRANCH   1   2
ATOM      2  C   UNL     1      98.212  84.296  73.748  1.00  0.00     0.220 C 
ATOM      3  N   UNL     1      97.859  84.897  74.919  1.00  0.00    -0.352 N 
ATOM      4  H   UNL     1      98.467  85.649  75.211  1.00  0.00     0.163 HD
ATOM      5  O   UNL     1      97.614  83.276  73.327  1.00  0.00    -0.275 OA
BRANCH   3   6
ATOM      6  C   UNL     1      96.731  84.541  75.718  1.00  0.00     0.151 C 
BRANCH   6   7
ATOM      7  C   UNL     1      97.102  83.803  76.956  1.00  0.00    -0.025 A 
ATOM      8  C   UNL     1      98.617  82.288  78.162  1.00  0.00     0.160 A 
ATOM      9  C   UNL     1      97.845  82.450  79.332  1.00  0.00     0.157 A 
ATOM     10  C   UNL     1      98.231  82.950  76.978  1.00  0.00     0.056 A 
ATOM     11  C   UNL     1      96.705  83.274  79.315  1.00  0.00     0.050 A 
ATOM     12  C   UNL     1      96.339  83.950  78.138  1.00  0.00     0.009 A 
BRANCH   8  13
ATOM     13  O   UNL     1      99.719  81.474  78.153  1.00  0.00    -0.493 OA
ATOM     14  C   UNL     1      99.581  80.317  77.306  1.00  0.00     0.278 C 
ENDBRANCH   8  13
BRANCH   9  15
ATOM     15  O   UNL     1      98.206  81.816  80.476  1.00  0.00    -0.504 OA
ATOM     16  H   UNL     1      99.098  81.473  80.383  1.00  0.00     0.293 HD
ENDBRANCH   9  15
ENDBRANCH   6   7
ENDBRANCH   3   6
ENDBRANCH   1   2
BRANCH   1  17
ATOM     17  C   UNL     1     100.096  86.005  73.638  1.00  0.00     0.010 C 
BRANCH  17  18
ATOM     18  C   UNL     1     101.112  85.421  74.658  1.00  0.00     0.001 C 
BRANCH  18  19
ATOM     19  C   UNL     1     102.466  85.019  74.018  1.00  0.00     0.000 C 
BRANCH  19  20
ATOM     20  C   UNL     1     103.105  83.784  74.717  1.00  0.00     0.003 C 
BRANCH  20  21
ATOM     21  C   UNL     1     102.094  82.851  75.461  1.00  0.00    -0.017 C 
ATOM     22  C   UNL     1     102.822  81.985  76.531  1.00  0.00     0.007 C 
ATOM     23  C   UNL     1     101.290  81.937  74.491  1.00  0.00     0.007 C 
ENDBRANCH  20  21
ENDBRANCH  19  20
ENDBRANCH  18  19
ENDBRANCH  17  18
ENDBRANCH   1  17
TORSDOF 10
ENDMDL
MODEL 4
REMARK VINA RESULT:    -5.694     23.808     26.280
REMARK INTER + INTRA:          -9.536
REMARK INTER:                  -8.762
REMARK INTRA:                  -0.774
REMARK UNBOUND:                -0.681
REMARK SMILES COc1cc(CNC(=O)CCCCCC(C)C)ccc1O
REMARK SMILES IDX 10 1 8 2 7 3 9 5 6 6 5 7 3 8 20 9 4 10 19 11 18 12 2 13 1 14
REMARK SMILES IDX 21 15 11 17 12 18 13 19 14 20 15 21 16 22 17 23
REMARK H PARENT 7 4 21 16
REMARK Flexibility Score: inf
ROOT
ATOM      1  C   UNL     1      77.570  83.879  66.055  1.00  0.00     0.100 C 
ENDROOT
BRANCH   1   2
ATOM      2  C   UNL     1      77.075  84.472  67.315  1.00  0.00     0.220 C 
ATOM      3  N   UNL     1      77.685  85.582  67.819  1.00  0.00    -0.352 N 
ATOM      4  H   UNL     1      78.538  85.848  67.348  1.00  0.00     0.163 HD
ATOM      5  O   UNL     1      76.072  83.964  67.874  1.00  0.00    -0.275 OA
BRANCH   3   6
ATOM      6  C   UNL     1      77.209  86.352  68.922  1.00  0.00     0.151 C 
BRANCH   6   7
ATOM      7  C   UNL     1      76.543  87.617  68.507  1.00  0.00    -0.025 A 
ATOM      8  C   UNL     1      74.836  89.348  68.876  1.00  0.00     0.160 A 
ATOM      9  C   UNL     1      75.319  90.059  67.756  1.00  0.00     0.157 A 
ATOM     10  C   UNL     1      75.439  88.123  69.233  1.00  0.00     0.056 A 
ATOM     11  C   UNL     1      76.399  89.551  67.011  1.00  0.00     0.050 A 
ATOM     12  C   UNL     1      77.010  88.343  67.387  1.00  0.00     0.009 A 
BRANCH   8  13
ATOM     13  O   UNL     1      73.773  89.816  69.602  1.00  0.00    -0.493 OA
ATOM     14  C   UNL     1      74.152  90.553  70.780  1.00  0.00     0.278 C 
ENDBRANCH   8  13
BRANCH   9  15
ATOM     15  O   UNL     1      74.745  91.237  67.403  1.00  0.00    -0.504 OA
ATOM     16  H   UNL     1      74.952  91.903  68.062  1.00  0.00     0.293 HD
ENDBRANCH   9  15
ENDBRANCH   6   7
ENDBRANCH   3   6
ENDBRANCH   1   2
BRANCH   1  17
ATOM     17  C   UNL     1      76.465  83.242  65.171  1.00  0.00     0.010 C 
BRANCH  17  18
ATOM     18  C   UNL     1      75.564  84.324  64.513  1.00  0.00     0.001 C 
BRANCH  18  19
ATOM     19  C   UNL     1      74.108  83.846  64.266  1.00  0.00     0.000 C 
BRANCH  19  20
ATOM     20  C   UNL     1      73.748  82.594  65.117  1.00  0.00     0.003 C 
BRANCH  20  21
ATOM     21  C   UNL     1      72.279  82.084  64.951  1.00  0.00    -0.017 C 
ATOM     22  C   UNL     1      71.966  81.767  63.458  1.00  0.00     0.007 C 
ATOM     23  C   UNL     1      71.226  83.080  65.517  1.00  0.00     0.007 C 
ENDBRANCH  20  21
ENDBRANCH  19  20
ENDBRANCH  18  19
ENDBRANCH  17  18
ENDBRANCH   1  17
TORSDOF 10
ENDMDL
MODEL 5
REMARK VINA RESULT:    -5.654      2.286      8.752
REMARK INTER + INTRA:          -9.475
REMARK INTER:                  -8.680
REMARK INTRA:                  -0.795
REMARK UNBOUND:                -0.681
REMARK SMILES COc1cc(CNC(=O)CCCCCC(C)C)ccc1O
REMARK SMILES IDX 10 1 8 2 7 3 9 5 6 6 5 7 3 8 20 9 4 10 19 11 18 12 2 13 1 14
REMARK SMILES IDX 21 15 11 17 12 18 13 19 14 20 15 21 16 22 17 23
REMARK H PARENT 7 4 21 16
REMARK Flexibility Score: inf
ROOT
ATOM      1  C   UNL     1      97.321  82.445  77.919  1.00  0.00     0.100 C 
ENDROOT
BRANCH   1   2
ATOM      2  C   UNL     1      97.579  82.723  79.348  1.00  0.00     0.220 C 
ATOM      3  N   UNL     1      97.441  81.720  80.260  1.00  0.00    -0.352 N 
ATOM      4  H   UNL     1      97.035  80.869  79.899  1.00  0.00     0.163 HD
ATOM      5  O   UNL     1      97.961  83.870  79.685  1.00  0.00    -0.275 OA
BRANCH   3   6
ATOM      6  C   UNL     1      97.822  81.802  81.634  1.00  0.00     0.151 C 
BRANCH   6   7
ATOM      7  C   UNL     1      96.683  82.114  82.538  1.00  0.00    -0.025 A 
ATOM      8  C   UNL     1      94.898  81.368  84.057  1.00  0.00     0.160 A 
ATOM      9  C   UNL     1      94.556  82.712  84.313  1.00  0.00     0.157 A 
ATOM     10  C   UNL     1      95.946  81.077  83.158  1.00  0.00     0.056 A 
ATOM     11  C   UNL     1      95.264  83.752  83.682  1.00  0.00     0.050 A 
ATOM     12  C   UNL     1      96.323  83.456  82.806  1.00  0.00     0.009 A 
BRANCH   8  13
ATOM     13  O   UNL     1      94.208  80.340  84.645  1.00  0.00    -0.493 OA
ATOM     14  C   UNL     1      94.904  79.728  85.748  1.00  0.00     0.278 C 
ENDBRANCH   8  13
BRANCH   9  15
ATOM     15  O   UNL     1      93.549  83.003  85.174  1.00  0.00    -0.504 OA
ATOM     16  H   UNL     1      93.312  83.929  85.089  1.00  0.00     0.293 HD
ENDBRANCH   9  15
ENDBRANCH   6   7
ENDBRANCH   3   6
ENDBRANCH   1   2
BRANCH   1  17
ATOM     17  C   UNL     1      97.887  83.515  76.948  1.00  0.00     0.010 C 
BRANCH  17  18
ATOM     18  C   UNL     1      96.750  84.303  76.240  1.00  0.00     0.001 C 
BRANCH  18  19
ATOM     19  C   UNL     1      97.141  84.812  74.827  1.00  0.00     0.000 C 
BRANCH  19  20
ATOM     20  C   UNL     1      97.461  83.645  73.849  1.00  0.00     0.003 C 
BRANCH  20  21
ATOM     21  C   UNL     1      98.827  83.768  73.097  1.00  0.00    -0.017 C 
ATOM     22  C   UNL     1      99.952  83.012  73.863  1.00  0.00     0.007 C 
ATOM     23  C   UNL     1      99.249  85.246  72.851  1.00  0.00     0.007 C 
ENDBRANCH  20  21
ENDBRANCH  19  20
ENDBRANCH  18  19
ENDBRANCH  17  18
ENDBRANCH   1  17
TORSDOF 10
ENDMDL
MODEL 6
REMARK VINA RESULT:    -5.604      2.859      8.212
REMARK INTER + INTRA:          -9.396
REMARK INTER:                  -7.845
REMARK INTRA:                  -1.551
REMARK UNBOUND:                -0.681
REMARK SMILES COc1cc(CNC(=O)CCCCCC(C)C)ccc1O
REMARK SMILES IDX 10 1 8 2 7 3 9 5 6 6 5 7 3 8 20 9 4 10 19 11 18 12 2 13 1 14
REMARK SMILES IDX 21 15 11 17 12 18 13 19 14 20 15 21 16 22 17 23
REMARK H PARENT 7 4 21 16
REMARK Flexibility Score: inf
ROOT
ATOM      1  C   UNL     1      99.313  84.952  74.013  1.00  0.00     0.100 C 
ENDROOT
BRANCH   1   2
ATOM      2  C   UNL     1      98.153  84.383  74.730  1.00  0.00     0.220 C 
ATOM      3  N   UNL     1      98.157  84.353  76.092  1.00  0.00    -0.352 N 
ATOM      4  H   UNL     1      99.034  84.611  76.520  1.00  0.00     0.163 HD
ATOM      5  O   UNL     1      97.167  83.976  74.067  1.00  0.00    -0.275 OA
BRANCH   3   6
ATOM      6  C   UNL     1      97.042  83.994  76.910  1.00  0.00     0.151 C 
BRANCH   6   7
ATOM      7  C   UNL     1      97.356  82.915  77.885  1.00  0.00    -0.025 A 
ATOM      8  C   UNL     1      97.743  82.180  80.199  1.00  0.00     0.160 A 
ATOM      9  C   UNL     1      97.888  80.850  79.750  1.00  0.00     0.157 A 
ATOM     10  C   UNL     1      97.497  83.206  79.263  1.00  0.00     0.056 A 
ATOM     11  C   UNL     1      97.776  80.553  78.380  1.00  0.00     0.050 A 
ATOM     12  C   UNL     1      97.507  81.576  77.455  1.00  0.00     0.009 A 
BRANCH   8  13
ATOM     13  O   UNL     1      97.869  82.493  81.528  1.00  0.00    -0.493 OA
ATOM     14  C   UNL     1      96.610  82.618  82.217  1.00  0.00     0.278 C 
ENDBRANCH   8  13
BRANCH   9  15
ATOM     15  O   UNL     1      98.127  79.856  80.642  1.00  0.00    -0.504 OA
ATOM     16  H   UNL     1      98.002  79.006  80.215  1.00  0.00     0.293 HD
ENDBRANCH   9  15
ENDBRANCH   6   7
ENDBRANCH   3   6
ENDBRANCH   1   2
BRANCH   1  17
ATOM     17  C   UNL     1     100.659  84.828  74.776  1.00  0.00     0.010 C 
BRANCH  17  18
ATOM     18  C   UNL     1     101.372  83.484  74.463  1.00  0.00     0.001 C 
BRANCH  18  19
ATOM     19  C   UNL     1     102.064  82.851  75.699  1.00  0.00     0.000 C 
BRANCH  19  20
ATOM     20  C   UNL     1     101.052  82.129  76.635  1.00  0.00     0.003 C 
BRANCH  20  21
ATOM     21  C   UNL     1     101.673  81.030  77.556  1.00  0.00    -0.017 C 
ATOM     22  C   UNL     1     101.175  79.613  77.144  1.00  0.00     0.007 C 
ATOM     23  C   UNL     1     101.389  81.276  79.067  1.00  0.00     0.007 C 
ENDBRANCH  20  21
ENDBRANCH  19  20
ENDBRANCH  18  19
ENDBRANCH  17  18
ENDBRANCH   1  17
TORSDOF 10
ENDMDL
MODEL 7
REMARK VINA RESULT:    -5.341     12.885     14.643
REMARK INTER + INTRA:          -8.988
REMARK INTER:                  -8.372
REMARK INTRA:                  -0.616
REMARK UNBOUND:                -0.681
REMARK SMILES COc1cc(CNC(=O)CCCCCC(C)C)ccc1O
REMARK SMILES IDX 10 1 8 2 7 3 9 5 6 6 5 7 3 8 20 9 4 10 19 11 18 12 2 13 1 14
REMARK SMILES IDX 21 15 11 17 12 18 13 19 14 20 15 21 16 22 17 23
REMARK H PARENT 7 4 21 16
REMARK Flexibility Score: inf
ROOT
ATOM      1  C   UNL     1      96.959  97.861  80.565  1.00  0.00     0.100 C 
ENDROOT
BRANCH   1   2
ATOM      2  C   UNL     1      96.438  96.483  80.440  1.00  0.00     0.220 C 
ATOM      3  N   UNL     1      95.377  96.240  79.621  1.00  0.00    -0.352 N 
ATOM      4  H   UNL     1      94.930  97.066  79.248  1.00  0.00     0.163 HD
ATOM      5  O   UNL     1      97.013  95.557  81.062  1.00  0.00    -0.275 OA
BRANCH   3   6
ATOM      6  C   UNL     1      94.886  94.945  79.275  1.00  0.00     0.151 C 
BRANCH   6   7
ATOM      7  C   UNL     1      93.948  94.965  78.120  1.00  0.00    -0.025 A 
ATOM      8  C   UNL     1      93.547  95.173  75.702  1.00  0.00     0.160 A 
ATOM      9  C   UNL     1      92.172  94.936  75.913  1.00  0.00     0.157 A 
ATOM     10  C   UNL     1      94.423  95.205  76.808  1.00  0.00     0.056 A 
ATOM     11  C   UNL     1      91.685  94.723  77.215  1.00  0.00     0.050 A 
ATOM     12  C   UNL     1      92.566  94.731  78.310  1.00  0.00     0.009 A 
BRANCH   8  13
ATOM     13  O   UNL     1      94.038  95.403  74.444  1.00  0.00    -0.493 OA
ATOM     14  C   UNL     1      94.315  96.790  74.172  1.00  0.00     0.278 C 
ENDBRANCH   8  13
BRANCH   9  15
ATOM     15  O   UNL     1      91.321  94.906  74.857  1.00  0.00    -0.504 OA
ATOM     16  H   UNL     1      90.416  94.880  75.175  1.00  0.00     0.293 HD
ENDBRANCH   9  15
ENDBRANCH   6   7
ENDBRANCH   3   6
ENDBRANCH   1   2
BRANCH   1  17
ATOM     17  C   UNL     1      96.042  98.948  79.943  1.00  0.00     0.010 C 
BRANCH  17  18
ATOM     18  C   UNL     1      96.350 100.357  80.523  1.00  0.00     0.001 C 
BRANCH  18  19
ATOM     19  C   UNL     1      96.131 100.453  82.056  1.00  0.00     0.000 C 
BRANCH  19  20
ATOM     20  C   UNL     1      94.703 100.958  82.416  1.00  0.00     0.003 C 
BRANCH  20  21
ATOM     21  C   UNL     1      94.658 102.328  83.169  1.00  0.00    -0.017 C 
ATOM     22  C   UNL     1      93.494 103.215  82.639  1.00  0.00     0.007 C 
ATOM     23  C   UNL     1      96.003 103.107  83.087  1.00  0.00     0.007 C 
ENDBRANCH  20  21
ENDBRANCH  19  20
ENDBRANCH  18  19
ENDBRANCH  17  18
ENDBRANCH   1  17
TORSDOF 10
ENDMDL
MODEL 8
REMARK VINA RESULT:    -5.326     25.093     27.366
REMARK INTER + INTRA:          -8.964
REMARK INTER:                  -7.912
REMARK INTRA:                  -1.052
REMARK UNBOUND:                -0.681
REMARK SMILES COc1cc(CNC(=O)CCCCCC(C)C)ccc1O
REMARK SMILES IDX 10 1 8 2 7 3 9 5 6 6 5 7 3 8 20 9 4 10 19 11 18 12 2 13 1 14
REMARK SMILES IDX 21 15 11 17 12 18 13 19 14 20 15 21 16 22 17 23
REMARK H PARENT 7 4 21 16
REMARK Flexibility Score: inf
ROOT
ATOM      1  C   UNL     1      74.884  89.861  68.038  1.00  0.00     0.100 C 
ENDROOT
BRANCH   1   2
ATOM      2  C   UNL     1      73.565  89.769  68.698  1.00  0.00     0.220 C 
ATOM      3  N   UNL     1      72.527  89.180  68.041  1.00  0.00    -0.352 N 
ATOM      4  H   UNL     1      72.707  88.960  67.071  1.00  0.00     0.163 HD
ATOM      5  O   UNL     1      73.440  90.199  69.871  1.00  0.00    -0.275 OA
BRANCH   3   6
ATOM      6  C   UNL     1      71.258  88.871  68.618  1.00  0.00     0.151 C 
BRANCH   6   7
ATOM      7  C   UNL     1      71.045  87.411  68.813  1.00  0.00    -0.025 A 
ATOM      8  C   UNL     1      69.627  85.543  69.551  1.00  0.00     0.160 A 
ATOM      9  C   UNL     1      70.612  84.628  69.123  1.00  0.00     0.157 A 
ATOM     10  C   UNL     1      69.857  86.928  69.411  1.00  0.00     0.056 A 
ATOM     11  C   UNL     1      71.809  85.098  68.551  1.00  0.00     0.050 A 
ATOM     12  C   UNL     1      72.022  86.478  68.392  1.00  0.00     0.009 A 
BRANCH   8  13
ATOM     13  O   UNL     1      68.463  85.106  70.128  1.00  0.00    -0.493 OA
ATOM     14  C   UNL     1      68.502  85.079  71.568  1.00  0.00     0.278 C 
ENDBRANCH   8  13
BRANCH   9  15
ATOM     15  O   UNL     1      70.402  83.295  69.255  1.00  0.00    -0.504 OA
ATOM     16  H   UNL     1      70.572  82.859  68.417  1.00  0.00     0.293 HD
ENDBRANCH   9  15
ENDBRANCH   6   7
ENDBRANCH   3   6
ENDBRANCH   1   2
BRANCH   1  17
ATOM     17  C   UNL     1      76.079  89.454  68.940  1.00  0.00     0.010 C 
BRANCH  17  18
ATOM     18  C   UNL     1      77.189  88.731  68.128  1.00  0.00     0.001 C 
BRANCH  18  19
ATOM     19  C   UNL     1      77.031  87.188  68.107  1.00  0.00     0.000 C 
BRANCH  19  20
ATOM     20  C   UNL     1      75.824  86.708  68.964  1.00  0.00     0.003 C 
BRANCH  20  21
ATOM     21  C   UNL     1      75.680  85.157  69.093  1.00  0.00    -0.017 C 
ATOM     22  C   UNL     1      76.064  84.680  70.524  1.00  0.00     0.007 C 
ATOM     23  C   UNL     1      76.513  84.383  68.030  1.00  0.00     0.007 C 
ENDBRANCH  20  21
ENDBRANCH  19  20
ENDBRANCH  18  19
ENDBRANCH  17  18
ENDBRANCH   1  17
TORSDOF 10
ENDMDL
MODEL 9
REMARK VINA RESULT:    -5.140     26.538     28.173
REMARK INTER + INTRA:          -8.676
REMARK INTER:                  -7.907
REMARK INTRA:                  -0.769
REMARK UNBOUND:                -0.681
REMARK SMILES COc1cc(CNC(=O)CCCCCC(C)C)ccc1O
REMARK SMILES IDX 10 1 8 2 7 3 9 5 6 6 5 7 3 8 20 9 4 10 19 11 18 12 2 13 1 14
REMARK SMILES IDX 21 15 11 17 12 18 13 19 14 20 15 21 16 22 17 23
REMARK H PARENT 7 4 21 16
REMARK Flexibility Score: inf
ROOT
ATOM      1  C   UNL     1      69.671  85.460  70.175  1.00  0.00     0.100 C 
ENDROOT
BRANCH   1   2
ATOM      2  C   UNL     1      70.590  84.816  69.214  1.00  0.00     0.220 C 
ATOM      3  N   UNL     1      71.540  85.568  68.590  1.00  0.00    -0.352 N 
ATOM      4  H   UNL     1      71.459  86.564  68.738  1.00  0.00     0.163 HD
ATOM      5  O   UNL     1      70.503  83.579  69.023  1.00  0.00    -0.275 OA
BRANCH   3   6
ATOM      6  C   UNL     1      72.595  85.051  67.778  1.00  0.00     0.151 C 
BRANCH   6   7
ATOM      7  C   UNL     1      73.896  85.737  68.004  1.00  0.00    -0.025 A 
ATOM      8  C   UNL     1      76.348  85.774  67.816  1.00  0.00     0.160 A 
ATOM      9  C   UNL     1      76.369  87.070  68.374  1.00  0.00     0.157 A 
ATOM     10  C   UNL     1      75.114  85.109  67.652  1.00  0.00     0.056 A 
ATOM     11  C   UNL     1      75.165  87.694  68.752  1.00  0.00     0.050 A 
ATOM     12  C   UNL     1      73.938  87.035  68.564  1.00  0.00     0.009 A 
BRANCH   8  13
ATOM     13  O   UNL     1      77.510  85.142  67.459  1.00  0.00    -0.493 OA
ATOM     14  C   UNL     1      77.343  84.165  66.414  1.00  0.00     0.278 C 
ENDBRANCH   8  13
BRANCH   9  15
ATOM     15  O   UNL     1      77.549  87.718  68.538  1.00  0.00    -0.504 OA
ATOM     16  H   UNL     1      77.492  88.301  69.298  1.00  0.00     0.293 HD
ENDBRANCH   9  15
ENDBRANCH   6   7
ENDBRANCH   3   6
ENDBRANCH   1   2
BRANCH   1  17
ATOM     17  C   UNL     1      68.603  84.505  70.774  1.00  0.00     0.010 C 
BRANCH  17  18
ATOM     18  C   UNL     1      67.161  85.010  70.491  1.00  0.00     0.001 C 
BRANCH  18  19
ATOM     19  C   UNL     1      66.769  84.948  68.991  1.00  0.00     0.000 C 
BRANCH  19  20
ATOM     20  C   UNL     1      66.550  83.488  68.501  1.00  0.00     0.003 C 
BRANCH  20  21
ATOM     21  C   UNL     1      65.584  82.632  69.384  1.00  0.00    -0.017 C 
ATOM     22  C   UNL     1      65.781  81.112  69.110  1.00  0.00     0.007 C 
ATOM     23  C   UNL     1      64.089  83.020  69.195  1.00  0.00     0.007 C 
ENDBRANCH  20  21
ENDBRANCH  19  20
ENDBRANCH  18  19
ENDBRANCH  17  18
ENDBRANCH   1  17
TORSDOF 10
ENDMDL
MODEL 10
REMARK VINA RESULT:    -4.986     25.505     27.831
REMARK INTER + INTRA:          -8.435
REMARK INTER:                  -7.589
REMARK INTRA:                  -0.847
REMARK UNBOUND:                -0.681
REMARK SMILES COc1cc(CNC(=O)CCCCCC(C)C)ccc1O
REMARK SMILES IDX 10 1 8 2 7 3 9 5 6 6 5 7 3 8 20 9 4 10 19 11 18 12 2 13 1 14
REMARK SMILES IDX 21 15 11 17 12 18 13 19 14 20 15 21 16 22 17 23
REMARK H PARENT 7 4 21 16
REMARK Flexibility Score: inf
ROOT
ATOM      1  C   UNL     1      73.949  88.978  68.301  1.00  0.00     0.100 C 
ENDROOT
BRANCH   1   2
ATOM      2  C   UNL     1      73.017  88.004  67.695  1.00  0.00     0.220 C 
ATOM      3  N   UNL     1      72.878  86.771  68.258  1.00  0.00    -0.352 N 
ATOM      4  H   UNL     1      73.538  86.562  68.993  1.00  0.00     0.163 HD
ATOM      5  O   UNL     1      72.340  88.349  66.696  1.00  0.00    -0.275 OA
BRANCH   3   6
ATOM      6  C   UNL     1      71.896  85.803  67.885  1.00  0.00     0.151 C 
BRANCH   6   7
ATOM      7  C   UNL     1      70.839  85.616  68.915  1.00  0.00    -0.025 A 
ATOM      8  C   UNL     1      69.140  86.558  70.423  1.00  0.00     0.160 A 
ATOM      9  C   UNL     1      68.780  85.256  70.827  1.00  0.00     0.157 A 
ATOM     10  C   UNL     1      70.180  86.731  69.484  1.00  0.00     0.056 A 
ATOM     11  C   UNL     1      69.447  84.140  70.288  1.00  0.00     0.050 A 
ATOM     12  C   UNL     1      70.465  84.318  69.336  1.00  0.00     0.009 A 
BRANCH   8  13
ATOM     13  O   UNL     1      68.516  87.658  70.950  1.00  0.00    -0.493 OA
ATOM     14  C   UNL     1      67.527  88.240  70.079  1.00  0.00     0.278 C 
ENDBRANCH   8  13
BRANCH   9  15
ATOM     15  O   UNL     1      67.784  85.079  71.731  1.00  0.00    -0.504 OA
ATOM     16  H   UNL     1      67.225  84.349  71.453  1.00  0.00     0.293 HD
ENDBRANCH   9  15
ENDBRANCH   6   7
ENDBRANCH   3   6
ENDBRANCH   1   2
BRANCH   1  17
ATOM     17  C   UNL     1      75.205  88.339  68.952  1.00  0.00     0.010 C 
BRANCH  17  18
ATOM     18  C   UNL     1      76.506  89.074  68.528  1.00  0.00     0.001 C 
BRANCH  18  19
ATOM     19  C   UNL     1      77.444  88.208  67.646  1.00  0.00     0.000 C 
BRANCH  19  20
ATOM     20  C   UNL     1      76.795  86.847  67.258  1.00  0.00     0.003 C 
BRANCH  20  21
ATOM     21  C   UNL     1      77.486  85.587  67.874  1.00  0.00    -0.017 C 
ATOM     22  C   UNL     1      77.524  84.417  66.847  1.00  0.00     0.007 C 
ATOM     23  C   UNL     1      76.813  85.115  69.196  1.00  0.00     0.007 C 
ENDBRANCH  20  21
ENDBRANCH  19  20
ENDBRANCH  18  19
ENDBRANCH  17  18
ENDBRANCH   1  17
TORSDOF 10
ENDMDL
