MODEL 1
REMARK VINA RESULT:    -6.417      0.000      0.000
REMARK INTER + INTRA:         -10.482
REMARK INTER:                  -9.980
REMARK INTRA:                  -0.502
REMARK UNBOUND:                -0.502
REMARK SMILES COc1cc(CNC(=O)CCCCCC(C)C)ccc1O
REMARK SMILES IDX 10 1 8 2 7 3 9 5 6 6 5 7 3 8 20 9 4 10 19 11 18 12 2 13 1 14
REMARK SMILES IDX 21 15 11 17 12 18 13 19 14 20 15 21 16 22 17 23
REMARK H PARENT 7 4 21 16
REMARK Flexibility Score: inf
ROOT
ATOM      1  C   UNL     1      93.412  82.409  85.308  1.00  0.00     0.100 C 
ENDROOT
BRANCH   1   2
ATOM      2  C   UNL     1      92.190  81.617  85.554  1.00  0.00     0.220 C 
ATOM      3  N   UNL     1      91.326  81.382  84.526  1.00  0.00    -0.352 N 
ATOM      4  H   UNL     1      91.526  81.893  83.678  1.00  0.00     0.163 HD
ATOM      5  O   UNL     1      91.993  81.139  86.698  1.00  0.00    -0.275 OA
BRANCH   3   6
ATOM      6  C   UNL     1      90.207  80.497  84.578  1.00  0.00     0.151 C 
BRANCH   6   7
ATOM      7  C   UNL     1      88.933  81.140  84.159  1.00  0.00    -0.025 A 
ATOM      8  C   UNL     1      87.393  83.056  84.213  1.00  0.00     0.160 A 
ATOM      9  C   UNL     1      86.538  82.392  83.308  1.00  0.00     0.157 A 
ATOM     10  C   UNL     1      88.575  82.419  84.647  1.00  0.00     0.056 A 
ATOM     11  C   UNL     1      86.871  81.109  82.837  1.00  0.00     0.050 A 
ATOM     12  C   UNL     1      88.061  80.490  83.254  1.00  0.00     0.009 A 
BRANCH   8  13
ATOM     13  O   UNL     1      87.077  84.298  84.700  1.00  0.00    -0.493 OA
ATOM     14  C   UNL     1      86.338  84.268  85.936  1.00  0.00     0.278 C 
ENDBRANCH   8  13
BRANCH   9  15
ATOM     15  O   UNL     1      85.399  82.995  82.886  1.00  0.00    -0.504 OA
ATOM     16  H   UNL     1      85.360  83.888  83.237  1.00  0.00     0.293 HD
ENDBRANCH   9  15
ENDBRANCH   6   7
ENDBRANCH   3   6
ENDBRANCH   1   2
BRANCH   1  17
ATOM     17  C   UNL     1      94.016  82.230  83.889  1.00  0.00     0.010 C 
BRANCH  17  18
ATOM     18  C   UNL     1      95.538  81.923  83.949  1.00  0.00     0.001 C 
BRANCH  18  19
ATOM     19  C   UNL     1      96.204  81.835  82.550  1.00  0.00     0.000 C 
BRANCH  19  20
ATOM     20  C   UNL     1      97.756  81.904  82.633  1.00  0.00     0.003 C 
BRANCH  20  21
ATOM     21  C   UNL     1      98.477  82.185  81.274  1.00  0.00    -0.017 C 
ATOM     22  C   UNL     1      97.504  82.848  80.255  1.00  0.00     0.007 C 
ATOM     23  C   UNL     1      99.114  80.908  80.652  1.00  0.00     0.007 C 
ENDBRANCH  20  21
ENDBRANCH  19  20
ENDBRANCH  18  19
ENDBRANCH  17  18
ENDBRANCH   1  17
TORSDOF 10
ENDMDL
MODEL 2
REMARK VINA RESULT:    -6.410      1.632      2.550
REMARK INTER + INTRA:         -10.472
REMARK INTER:                  -9.943
REMARK INTRA:                  -0.529
REMARK UNBOUND:                -0.502
REMARK SMILES COc1cc(CNC(=O)CCCCCC(C)C)ccc1O
REMARK SMILES IDX 10 1 8 2 7 3 9 5 6 6 5 7 3 8 20 9 4 10 19 11 18 12 2 13 1 14
REMARK SMILES IDX 21 15 11 17 12 18 13 19 14 20 15 21 16 22 17 23
REMARK H PARENT 7 4 21 16
REMARK Flexibility Score: inf
ROOT
ATOM      1  C   UNL     1      95.059  82.252  83.482  1.00  0.00     0.100 C 
ENDROOT
BRANCH   1   2
ATOM      2  C   UNL     1      94.103  82.314  84.607  1.00  0.00     0.220 C 
ATOM      3  N   UNL     1      92.794  82.600  84.359  1.00  0.00    -0.352 N 
ATOM      4  H   UNL     1      92.594  82.885  83.411  1.00  0.00     0.163 HD
ATOM      5  O   UNL     1      94.511  82.059  85.767  1.00  0.00    -0.275 OA
BRANCH   3   6
ATOM      6  C   UNL     1      91.740  82.522  85.319  1.00  0.00     0.151 C 
BRANCH   6   7
ATOM      7  C   UNL     1      90.555  81.770  84.825  1.00  0.00    -0.025 A 
ATOM      8  C   UNL     1      88.156  81.682  84.290  1.00  0.00     0.160 A 
ATOM      9  C   UNL     1      88.311  80.360  83.822  1.00  0.00     0.157 A 
ATOM     10  C   UNL     1      89.274  82.372  84.805  1.00  0.00     0.056 A 
ATOM     11  C   UNL     1      89.575  79.742  83.862  1.00  0.00     0.050 A 
ATOM     12  C   UNL     1      90.689  80.443  84.354  1.00  0.00     0.009 A 
BRANCH   8  13
ATOM     13  O   UNL     1      86.930  82.294  84.278  1.00  0.00    -0.493 OA
ATOM     14  C   UNL     1      86.964  83.672  84.699  1.00  0.00     0.278 C 
ENDBRANCH   8  13
BRANCH   9  15
ATOM     15  O   UNL     1      87.243  79.687  83.327  1.00  0.00    -0.504 OA
ATOM     16  H   UNL     1      87.486  78.772  83.166  1.00  0.00     0.293 HD
ENDBRANCH   9  15
ENDBRANCH   6   7
ENDBRANCH   3   6
ENDBRANCH   1   2
BRANCH   1  17
ATOM     17  C   UNL     1      96.514  81.906  83.898  1.00  0.00     0.010 C 
BRANCH  17  18
ATOM     18  C   UNL     1      97.525  82.224  82.763  1.00  0.00     0.001 C 
BRANCH  18  19
ATOM     19  C   UNL     1      97.029  81.794  81.357  1.00  0.00     0.000 C 
BRANCH  19  20
ATOM     20  C   UNL     1      97.046  82.972  80.341  1.00  0.00     0.003 C 
BRANCH  20  21
ATOM     21  C   UNL     1      97.316  82.560  78.857  1.00  0.00    -0.017 C 
ATOM     22  C   UNL     1      98.815  82.191  78.647  1.00  0.00     0.007 C 
ATOM     23  C   UNL     1      96.889  83.656  77.838  1.00  0.00     0.007 C 
ENDBRANCH  20  21
ENDBRANCH  19  20
ENDBRANCH  18  19
ENDBRANCH  17  18
ENDBRANCH   1  17
TORSDOF 10
ENDMDL
MODEL 3
REMARK VINA RESULT:    -6.357      6.305     10.208
REMARK INTER + INTRA:         -10.390
REMARK INTER:                  -9.890
REMARK INTRA:                  -0.500
REMARK UNBOUND:                -0.502
REMARK SMILES COc1cc(CNC(=O)CCCCCC(C)C)ccc1O
REMARK SMILES IDX 10 1 8 2 7 3 9 5 6 6 5 7 3 8 20 9 4 10 19 11 18 12 2 13 1 14
REMARK SMILES IDX 21 15 11 17 12 18 13 19 14 20 15 21 16 22 17 23
REMARK H PARENT 7 4 21 16
REMARK Flexibility Score: inf
ROOT
ATOM      1  C   UNL     1      96.980  82.756  82.919  1.00  0.00     0.100 C 
ENDROOT
BRANCH   1   2
ATOM      2  C   UNL     1      97.299  82.221  81.579  1.00  0.00     0.220 C 
ATOM      3  N   UNL     1      98.095  82.943  80.741  1.00  0.00    -0.352 N 
ATOM      4  H   UNL     1      98.308  83.878  81.059  1.00  0.00     0.163 HD
ATOM      5  O   UNL     1      96.862  81.089  81.256  1.00  0.00    -0.275 OA
BRANCH   3   6
ATOM      6  C   UNL     1      98.619  82.475  79.499  1.00  0.00     0.151 C 
BRANCH   6   7
ATOM      7  C   UNL     1      98.003  83.137  78.318  1.00  0.00    -0.025 A 
ATOM      8  C   UNL     1      98.116  83.826  75.960  1.00  0.00     0.160 A 
ATOM      9  C   UNL     1      96.804  84.338  76.049  1.00  0.00     0.157 A 
ATOM     10  C   UNL     1      98.714  83.246  77.099  1.00  0.00     0.056 A 
ATOM     11  C   UNL     1      96.098  84.258  77.263  1.00  0.00     0.050 A 
ATOM     12  C   UNL     1      96.690  83.657  78.387  1.00  0.00     0.009 A 
BRANCH   8  13
ATOM     13  O   UNL     1      98.829  83.912  74.792  1.00  0.00    -0.493 OA
ATOM     14  C   UNL     1     100.256  83.947  74.983  1.00  0.00     0.278 C 
ENDBRANCH   8  13
BRANCH   9  15
ATOM     15  O   UNL     1      96.221  84.899  74.960  1.00  0.00    -0.504 OA
ATOM     16  H   UNL     1      96.068  84.224  74.295  1.00  0.00     0.293 HD
ENDBRANCH   9  15
ENDBRANCH   6   7
ENDBRANCH   3   6
ENDBRANCH   1   2
BRANCH   1  17
ATOM     17  C   UNL     1      95.909  83.879  82.920  1.00  0.00     0.010 C 
BRANCH  17  18
ATOM     18  C   UNL     1      96.037  84.792  84.171  1.00  0.00     0.001 C 
BRANCH  18  19
ATOM     19  C   UNL     1      95.078  84.394  85.325  1.00  0.00     0.000 C 
BRANCH  19  20
ATOM     20  C   UNL     1      94.092  85.540  85.693  1.00  0.00     0.003 C 
BRANCH  20  21
ATOM     21  C   UNL     1      93.278  85.314  87.008  1.00  0.00    -0.017 C 
ATOM     22  C   UNL     1      93.373  86.558  87.940  1.00  0.00     0.007 C 
ATOM     23  C   UNL     1      93.718  84.035  87.778  1.00  0.00     0.007 C 
ENDBRANCH  20  21
ENDBRANCH  19  20
ENDBRANCH  18  19
ENDBRANCH  17  18
ENDBRANCH   1  17
TORSDOF 10
ENDMDL
MODEL 4
REMARK VINA RESULT:    -6.125      5.549      9.952
REMARK INTER + INTRA:         -10.029
REMARK INTER:                  -9.243
REMARK INTRA:                  -0.786
REMARK UNBOUND:                -0.502
REMARK SMILES COc1cc(CNC(=O)CCCCCC(C)C)ccc1O
REMARK SMILES IDX 10 1 8 2 7 3 9 5 6 6 5 7 3 8 20 9 4 10 19 11 18 12 2 13 1 14
REMARK SMILES IDX 21 15 11 17 12 18 13 19 14 20 15 21 16 22 17 23
REMARK H PARENT 7 4 21 16
REMARK Flexibility Score: inf
ROOT
ATOM      1  C   UNL     1      97.255  82.533  82.795  1.00  0.00     0.100 C 
ENDROOT
BRANCH   1   2
ATOM      2  C   UNL     1      97.505  82.034  81.427  1.00  0.00     0.220 C 
ATOM      3  N   UNL     1      98.330  82.734  80.599  1.00  0.00    -0.352 N 
ATOM      4  H   UNL     1      98.616  83.638  80.948  1.00  0.00     0.163 HD
ATOM      5  O   UNL     1      96.983  80.949  81.070  1.00  0.00    -0.275 OA
BRANCH   3   6
ATOM      6  C   UNL     1      98.793  82.282  79.326  1.00  0.00     0.151 C 
BRANCH   6   7
ATOM      7  C   UNL     1      98.127  82.968  78.185  1.00  0.00    -0.025 A 
ATOM      8  C   UNL     1      98.087  83.606  75.811  1.00  0.00     0.160 A 
ATOM      9  C   UNL     1      96.827  84.215  75.998  1.00  0.00     0.157 A 
ATOM     10  C   UNL     1      98.737  83.003  76.909  1.00  0.00     0.056 A 
ATOM     11  C   UNL     1      96.224  84.208  77.269  1.00  0.00     0.050 A 
ATOM     12  C   UNL     1      96.866  83.585  78.353  1.00  0.00     0.009 A 
BRANCH   8  13
ATOM     13  O   UNL     1      98.700  83.619  74.586  1.00  0.00    -0.493 OA
ATOM     14  C   UNL     1      99.674  84.669  74.433  1.00  0.00     0.278 C 
ENDBRANCH   8  13
BRANCH   9  15
ATOM     15  O   UNL     1      96.195  84.799  74.950  1.00  0.00    -0.504 OA
ATOM     16  H   UNL     1      95.943  84.127  74.313  1.00  0.00     0.293 HD
ENDBRANCH   9  15
ENDBRANCH   6   7
ENDBRANCH   3   6
ENDBRANCH   1   2
BRANCH   1  17
ATOM     17  C   UNL     1      95.902  83.274  82.967  1.00  0.00     0.010 C 
BRANCH  17  18
ATOM     18  C   UNL     1      95.709  83.785  84.421  1.00  0.00     0.001 C 
BRANCH  18  19
ATOM     19  C   UNL     1      94.373  83.328  85.063  1.00  0.00     0.000 C 
BRANCH  19  20
ATOM     20  C   UNL     1      93.758  82.101  84.331  1.00  0.00     0.003 C 
BRANCH  20  21
ATOM     21  C   UNL     1      93.871  80.746  85.104  1.00  0.00    -0.017 C 
ATOM     22  C   UNL     1      94.600  79.674  84.242  1.00  0.00     0.007 C 
ATOM     23  C   UNL     1      92.491  80.203  85.577  1.00  0.00     0.007 C 
ENDBRANCH  20  21
ENDBRANCH  19  20
ENDBRANCH  18  19
ENDBRANCH  17  18
ENDBRANCH   1  17
TORSDOF 10
ENDMDL
MODEL 5
REMARK VINA RESULT:    -6.105      3.862      9.245
REMARK INTER + INTRA:          -9.997
REMARK INTER:                  -9.585
REMARK INTRA:                  -0.412
REMARK UNBOUND:                -0.502
REMARK SMILES COc1cc(CNC(=O)CCCCCC(C)C)ccc1O
REMARK SMILES IDX 10 1 8 2 7 3 9 5 6 6 5 7 3 8 20 9 4 10 19 11 18 12 2 13 1 14
REMARK SMILES IDX 21 15 11 17 12 18 13 19 14 20 15 21 16 22 17 23
REMARK H PARENT 7 4 21 16
REMARK Flexibility Score: inf
ROOT
ATOM      1  C   UNL     1      93.733  81.273  84.440  1.00  0.00     0.100 C 
ENDROOT
BRANCH   1   2
ATOM      2  C   UNL     1      94.794  82.221  84.038  1.00  0.00     0.220 C 
ATOM      3  N   UNL     1      95.870  81.763  83.339  1.00  0.00    -0.352 N 
ATOM      4  H   UNL     1      95.928  80.758  83.257  1.00  0.00     0.163 HD
ATOM      5  O   UNL     1      94.659  83.438  84.314  1.00  0.00    -0.275 OA
BRANCH   3   6
ATOM      6  C   UNL     1      96.873  82.586  82.742  1.00  0.00     0.151 C 
BRANCH   6   7
ATOM      7  C   UNL     1      97.152  82.231  81.324  1.00  0.00    -0.025 A 
ATOM      8  C   UNL     1      97.475  82.905  78.981  1.00  0.00     0.160 A 
ATOM      9  C   UNL     1      97.751  81.565  78.637  1.00  0.00     0.157 A 
ATOM     10  C   UNL     1      97.159  83.227  80.319  1.00  0.00     0.056 A 
ATOM     11  C   UNL     1      97.721  80.563  79.624  1.00  0.00     0.050 A 
ATOM     12  C   UNL     1      97.430  80.894  80.958  1.00  0.00     0.009 A 
BRANCH   8  13
ATOM     13  O   UNL     1      97.480  83.892  78.032  1.00  0.00    -0.493 OA
ATOM     14  C   UNL     1      96.214  84.067  77.368  1.00  0.00     0.278 C 
ENDBRANCH   8  13
BRANCH   9  15
ATOM     15  O   UNL     1      98.054  81.244  77.354  1.00  0.00    -0.504 OA
ATOM     16  H   UNL     1      98.449  80.370  77.327  1.00  0.00     0.293 HD
ENDBRANCH   9  15
ENDBRANCH   6   7
ENDBRANCH   3   6
ENDBRANCH   1   2
BRANCH   1  17
ATOM     17  C   UNL     1      92.712  81.852  85.457  1.00  0.00     0.010 C 
BRANCH  17  18
ATOM     18  C   UNL     1      91.428  82.366  84.749  1.00  0.00     0.001 C 
BRANCH  18  19
ATOM     19  C   UNL     1      90.690  81.268  83.938  1.00  0.00     0.000 C 
BRANCH  19  20
ATOM     20  C   UNL     1      89.185  81.166  84.320  1.00  0.00     0.003 C 
BRANCH  20  21
ATOM     21  C   UNL     1      88.364  80.123  83.493  1.00  0.00    -0.017 C 
ATOM     22  C   UNL     1      87.067  80.767  82.919  1.00  0.00     0.007 C 
ATOM     23  C   UNL     1      88.009  78.848  84.312  1.00  0.00     0.007 C 
ENDBRANCH  20  21
ENDBRANCH  19  20
ENDBRANCH  18  19
ENDBRANCH  17  18
ENDBRANCH   1  17
TORSDOF 10
ENDMDL
MODEL 6
REMARK VINA RESULT:    -5.987      3.126      5.476
REMARK INTER + INTRA:          -9.814
REMARK INTER:                  -9.193
REMARK INTRA:                  -0.620
REMARK UNBOUND:                -0.502
REMARK SMILES COc1cc(CNC(=O)CCCCCC(C)C)ccc1O
REMARK SMILES IDX 10 1 8 2 7 3 9 5 6 6 5 7 3 8 20 9 4 10 19 11 18 12 2 13 1 14
REMARK SMILES IDX 21 15 11 17 12 18 13 19 14 20 15 21 16 22 17 23
REMARK H PARENT 7 4 21 16
REMARK Flexibility Score: inf
ROOT
ATOM      1  C   UNL     1      96.932  82.899  81.469  1.00  0.00     0.100 C 
ENDROOT
BRANCH   1   2
ATOM      2  C   UNL     1      96.380  82.755  82.832  1.00  0.00     0.220 C 
ATOM      3  N   UNL     1      95.727  81.608  83.172  1.00  0.00    -0.352 N 
ATOM      4  H   UNL     1      95.550  80.976  82.404  1.00  0.00     0.163 HD
ATOM      5  O   UNL     1      96.562  83.678  83.664  1.00  0.00    -0.275 OA
BRANCH   3   6
ATOM      6  C   UNL     1      95.299  81.266  84.491  1.00  0.00     0.151 C 
BRANCH   6   7
ATOM      7  C   UNL     1      93.820  81.298  84.652  1.00  0.00    -0.025 A 
ATOM      8  C   UNL     1      91.635  80.177  84.512  1.00  0.00     0.160 A 
ATOM      9  C   UNL     1      91.011  81.335  85.023  1.00  0.00     0.157 A 
ATOM     10  C   UNL     1      93.033  80.172  84.313  1.00  0.00     0.056 A 
ATOM     11  C   UNL     1      91.782  82.470  85.339  1.00  0.00     0.050 A 
ATOM     12  C   UNL     1      93.175  82.450  85.160  1.00  0.00     0.009 A 
BRANCH   8  13
ATOM     13  O   UNL     1      90.901  79.069  84.180  1.00  0.00    -0.493 OA
ATOM     14  C   UNL     1      91.589  77.825  84.410  1.00  0.00     0.278 C 
ENDBRANCH   8  13
BRANCH   9  15
ATOM     15  O   UNL     1      89.669  81.352  85.216  1.00  0.00    -0.504 OA
ATOM     16  H   UNL     1      89.257  81.916  84.558  1.00  0.00     0.293 HD
ENDBRANCH   9  15
ENDBRANCH   6   7
ENDBRANCH   3   6
ENDBRANCH   1   2
BRANCH   1  17
ATOM     17  C   UNL     1      97.404  81.567  80.827  1.00  0.00     0.010 C 
BRANCH  17  18
ATOM     18  C   UNL     1      97.725  81.741  79.317  1.00  0.00     0.001 C 
BRANCH  18  19
ATOM     19  C   UNL     1      97.781  83.224  78.866  1.00  0.00     0.000 C 
BRANCH  19  20
ATOM     20  C   UNL     1      96.623  83.587  77.892  1.00  0.00     0.003 C 
BRANCH  20  21
ATOM     21  C   UNL     1      97.051  83.785  76.402  1.00  0.00    -0.017 C 
ATOM     22  C   UNL     1      98.595  83.661  76.247  1.00  0.00     0.007 C 
ATOM     23  C   UNL     1      96.562  85.138  75.807  1.00  0.00     0.007 C 
ENDBRANCH  20  21
ENDBRANCH  19  20
ENDBRANCH  18  19
ENDBRANCH  17  18
ENDBRANCH   1  17
TORSDOF 10
ENDMDL
MODEL 7
REMARK VINA RESULT:    -5.840      3.242      5.617
REMARK INTER + INTRA:          -9.585
REMARK INTER:                  -9.029
REMARK INTRA:                  -0.556
REMARK UNBOUND:                -0.502
REMARK SMILES COc1cc(CNC(=O)CCCCCC(C)C)ccc1O
REMARK SMILES IDX 10 1 8 2 7 3 9 5 6 6 5 7 3 8 20 9 4 10 19 11 18 12 2 13 1 14
REMARK SMILES IDX 21 15 11 17 12 18 13 19 14 20 15 21 16 22 17 23
REMARK H PARENT 7 4 21 16
REMARK Flexibility Score: inf
ROOT
ATOM      1  C   UNL     1      96.203  83.979  82.108  1.00  0.00     0.100 C 
ENDROOT
BRANCH   1   2
ATOM      2  C   UNL     1      95.802  84.554  83.408  1.00  0.00     0.220 C 
ATOM      3  N   UNL     1      94.698  84.070  84.043  1.00  0.00    -0.352 N 
ATOM      4  H   UNL     1      94.145  83.422  83.499  1.00  0.00     0.163 HD
ATOM      5  O   UNL     1      96.513  85.452  83.922  1.00  0.00    -0.275 OA
BRANCH   3   6
ATOM      6  C   UNL     1      94.298  84.409  85.371  1.00  0.00     0.151 C 
BRANCH   6   7
ATOM      7  C   UNL     1      93.650  83.280  86.093  1.00  0.00    -0.025 A 
ATOM      8  C   UNL     1      92.249  81.259  86.071  1.00  0.00     0.160 A 
ATOM      9  C   UNL     1      92.472  81.093  87.455  1.00  0.00     0.157 A 
ATOM     10  C   UNL     1      92.824  82.361  85.403  1.00  0.00     0.056 A 
ATOM     11  C   UNL     1      93.270  82.016  88.156  1.00  0.00     0.050 A 
ATOM     12  C   UNL     1      93.859  83.098  87.480  1.00  0.00     0.009 A 
BRANCH   8  13
ATOM     13  O   UNL     1      91.459  80.383  85.374  1.00  0.00    -0.493 OA
ATOM     14  C   UNL     1      90.519  81.024  84.491  1.00  0.00     0.278 C 
ENDBRANCH   8  13
BRANCH   9  15
ATOM     15  O   UNL     1      91.922  80.038  88.107  1.00  0.00    -0.504 OA
ATOM     16  H   UNL     1      91.954  80.195  89.053  1.00  0.00     0.293 HD
ENDBRANCH   9  15
ENDBRANCH   6   7
ENDBRANCH   3   6
ENDBRANCH   1   2
BRANCH   1  17
ATOM     17  C   UNL     1      96.649  82.493  82.177  1.00  0.00     0.010 C 
BRANCH  17  18
ATOM     18  C   UNL     1      97.247  82.011  80.827  1.00  0.00     0.001 C 
BRANCH  18  19
ATOM     19  C   UNL     1      97.116  83.056  79.687  1.00  0.00     0.000 C 
BRANCH  19  20
ATOM     20  C   UNL     1      97.885  82.626  78.404  1.00  0.00     0.003 C 
BRANCH  20  21
ATOM     21  C   UNL     1      97.762  83.614  77.198  1.00  0.00    -0.017 C 
ATOM     22  C   UNL     1      96.362  84.295  77.179  1.00  0.00     0.007 C 
ATOM     23  C   UNL     1      98.044  82.933  75.828  1.00  0.00     0.007 C 
ENDBRANCH  20  21
ENDBRANCH  19  20
ENDBRANCH  18  19
ENDBRANCH  17  18
ENDBRANCH   1  17
TORSDOF 10
ENDMDL
MODEL 8
REMARK VINA RESULT:    -5.824      3.945      5.500
REMARK INTER + INTRA:          -9.561
REMARK INTER:                  -9.175
REMARK INTRA:                  -0.386
REMARK UNBOUND:                -0.502
REMARK SMILES COc1cc(CNC(=O)CCCCCC(C)C)ccc1O
REMARK SMILES IDX 10 1 8 2 7 3 9 5 6 6 5 7 3 8 20 9 4 10 19 11 18 12 2 13 1 14
REMARK SMILES IDX 21 15 11 17 12 18 13 19 14 20 15 21 16 22 17 23
REMARK H PARENT 7 4 21 16
REMARK Flexibility Score: inf
ROOT
ATOM      1  C   UNL     1      91.978  78.013  84.095  1.00  0.00     0.100 C 
ENDROOT
BRANCH   1   2
ATOM      2  C   UNL     1      91.703  79.431  84.409  1.00  0.00     0.220 C 
ATOM      3  N   UNL     1      90.426  79.821  84.682  1.00  0.00    -0.352 N 
ATOM      4  H   UNL     1      89.722  79.115  84.517  1.00  0.00     0.163 HD
ATOM      5  O   UNL     1      92.662  80.240  84.459  1.00  0.00    -0.275 OA
BRANCH   3   6
ATOM      6  C   UNL     1      90.046  81.109  85.166  1.00  0.00     0.151 C 
BRANCH   6   7
ATOM      7  C   UNL     1      88.782  81.610  84.563  1.00  0.00    -0.025 A 
ATOM      8  C   UNL     1      87.026  83.325  84.408  1.00  0.00     0.160 A 
ATOM      9  C   UNL     1      86.410  82.596  83.368  1.00  0.00     0.157 A 
ATOM     10  C   UNL     1      88.197  82.818  85.011  1.00  0.00     0.056 A 
ATOM     11  C   UNL     1      86.968  81.380  82.933  1.00  0.00     0.050 A 
ATOM     12  C   UNL     1      88.147  80.893  83.521  1.00  0.00     0.009 A 
BRANCH   8  13
ATOM     13  O   UNL     1      86.488  84.501  84.859  1.00  0.00    -0.493 OA
ATOM     14  C   UNL     1      86.031  84.446  86.224  1.00  0.00     0.278 C 
ENDBRANCH   8  13
BRANCH   9  15
ATOM     15  O   UNL     1      85.283  83.074  82.783  1.00  0.00    -0.504 OA
ATOM     16  H   UNL     1      85.518  83.721  82.115  1.00  0.00     0.293 HD
ENDBRANCH   9  15
ENDBRANCH   6   7
ENDBRANCH   3   6
ENDBRANCH   1   2
BRANCH   1  17
ATOM     17  C   UNL     1      93.328  77.486  84.652  1.00  0.00     0.010 C 
BRANCH  17  18
ATOM     18  C   UNL     1      93.901  76.339  83.775  1.00  0.00     0.001 C 
BRANCH  18  19
ATOM     19  C   UNL     1      93.488  74.925  84.263  1.00  0.00     0.000 C 
BRANCH  19  20
ATOM     20  C   UNL     1      91.943  74.742  84.301  1.00  0.00     0.003 C 
BRANCH  20  21
ATOM     21  C   UNL     1      91.361  73.814  83.186  1.00  0.00    -0.017 C 
ATOM     22  C   UNL     1      90.864  72.467  83.789  1.00  0.00     0.007 C 
ATOM     23  C   UNL     1      92.374  73.542  82.036  1.00  0.00     0.007 C 
ENDBRANCH  20  21
ENDBRANCH  19  20
ENDBRANCH  18  19
ENDBRANCH  17  18
ENDBRANCH   1  17
TORSDOF 10
ENDMDL
MODEL 9
REMARK VINA RESULT:    -5.807      3.988      6.960
REMARK INTER + INTRA:          -9.534
REMARK INTER:                  -8.614
REMARK INTRA:                  -0.921
REMARK UNBOUND:                -0.502
REMARK SMILES COc1cc(CNC(=O)CCCCCC(C)C)ccc1O
REMARK SMILES IDX 10 1 8 2 7 3 9 5 6 6 5 7 3 8 20 9 4 10 19 11 18 12 2 13 1 14
REMARK SMILES IDX 21 15 11 17 12 18 13 19 14 20 15 21 16 22 17 23
REMARK H PARENT 7 4 21 16
REMARK Flexibility Score: inf
ROOT
ATOM      1  C   UNL     1      98.835  81.783  80.232  1.00  0.00     0.100 C 
ENDROOT
BRANCH   1   2
ATOM      2  C   UNL     1      97.986  81.194  81.289  1.00  0.00     0.220 C 
ATOM      3  N   UNL     1      98.077  81.669  82.563  1.00  0.00    -0.352 N 
ATOM      4  H   UNL     1      98.833  82.319  82.722  1.00  0.00     0.163 HD
ATOM      5  O   UNL     1      97.167  80.294  80.980  1.00  0.00    -0.275 OA
BRANCH   3   6
ATOM      6  C   UNL     1      97.203  81.315  83.636  1.00  0.00     0.151 C 
BRANCH   6   7
ATOM      7  C   UNL     1      96.205  82.374  83.949  1.00  0.00    -0.025 A 
ATOM      8  C   UNL     1      93.969  83.031  84.734  1.00  0.00     0.160 A 
ATOM      9  C   UNL     1      94.328  84.390  84.610  1.00  0.00     0.157 A 
ATOM     10  C   UNL     1      94.903  82.032  84.385  1.00  0.00     0.056 A 
ATOM     11  C   UNL     1      95.611  84.741  84.153  1.00  0.00     0.050 A 
ATOM     12  C   UNL     1      96.544  83.742  83.830  1.00  0.00     0.009 A 
BRANCH   8  13
ATOM     13  O   UNL     1      92.718  82.668  85.158  1.00  0.00    -0.493 OA
ATOM     14  C   UNL     1      92.074  81.698  84.310  1.00  0.00     0.278 C 
ENDBRANCH   8  13
BRANCH   9  15
ATOM     15  O   UNL     1      93.437  85.358  84.941  1.00  0.00    -0.504 OA
ATOM     16  H   UNL     1      93.878  86.210  84.951  1.00  0.00     0.293 HD
ENDBRANCH   9  15
ENDBRANCH   6   7
ENDBRANCH   3   6
ENDBRANCH   1   2
BRANCH   1  17
ATOM     17  C   UNL     1      98.401  83.205  79.785  1.00  0.00     0.010 C 
BRANCH  17  18
ATOM     18  C   UNL     1      96.858  83.318  79.649  1.00  0.00     0.001 C 
BRANCH  18  19
ATOM     19  C   UNL     1      96.386  83.608  78.200  1.00  0.00     0.000 C 
BRANCH  19  20
ATOM     20  C   UNL     1      97.298  82.929  77.137  1.00  0.00     0.003 C 
BRANCH  20  21
ATOM     21  C   UNL     1      97.440  83.712  75.792  1.00  0.00    -0.017 C 
ATOM     22  C   UNL     1      98.938  83.972  75.455  1.00  0.00     0.007 C 
ATOM     23  C   UNL     1      96.652  85.055  75.788  1.00  0.00     0.007 C 
ENDBRANCH  20  21
ENDBRANCH  19  20
ENDBRANCH  18  19
ENDBRANCH  17  18
ENDBRANCH   1  17
TORSDOF 10
ENDMDL
MODEL 10
REMARK VINA RESULT:    -5.653      5.614      7.959
REMARK INTER + INTRA:          -9.295
REMARK INTER:                  -8.829
REMARK INTRA:                  -0.466
REMARK UNBOUND:                -0.502
REMARK SMILES COc1cc(CNC(=O)CCCCCC(C)C)ccc1O
REMARK SMILES IDX 10 1 8 2 7 3 9 5 6 6 5 7 3 8 20 9 4 10 19 11 18 12 2 13 1 14
REMARK SMILES IDX 21 15 11 17 12 18 13 19 14 20 15 21 16 22 17 23
REMARK H PARENT 7 4 21 16
REMARK Flexibility Score: inf
ROOT
ATOM      1  C   UNL     1      93.155  85.686  88.205  1.00  0.00     0.100 C 
ENDROOT
BRANCH   1   2
ATOM      2  C   UNL     1      93.442  85.273  86.815  1.00  0.00     0.220 C 
ATOM      3  N   UNL     1      93.146  84.003  86.419  1.00  0.00    -0.352 N 
ATOM      4  H   UNL     1      92.864  83.381  87.162  1.00  0.00     0.163 HD
ATOM      5  O   UNL     1      93.916  86.117  86.015  1.00  0.00    -0.275 OA
BRANCH   3   6
ATOM      6  C   UNL     1      93.209  83.526  85.074  1.00  0.00     0.151 C 
BRANCH   6   7
ATOM      7  C   UNL     1      92.643  82.160  84.912  1.00  0.00    -0.025 A 
ATOM      8  C   UNL     1      90.842  80.677  84.135  1.00  0.00     0.160 A 
ATOM      9  C   UNL     1      91.594  79.554  84.542  1.00  0.00     0.157 A 
ATOM     10  C   UNL     1      91.363  81.973  84.339  1.00  0.00     0.056 A 
ATOM     11  C   UNL     1      92.856  79.731  85.138  1.00  0.00     0.050 A 
ATOM     12  C   UNL     1      93.380  81.022  85.316  1.00  0.00     0.009 A 
BRANCH   8  13
ATOM     13  O   UNL     1      89.602  80.528  83.571  1.00  0.00    -0.493 OA
ATOM     14  C   UNL     1      88.526  81.011  84.397  1.00  0.00     0.278 C 
ENDBRANCH   8  13
BRANCH   9  15
ATOM     15  O   UNL     1      91.102  78.305  84.352  1.00  0.00    -0.504 OA
ATOM     16  H   UNL     1      91.770  77.658  84.590  1.00  0.00     0.293 HD
ENDBRANCH   9  15
ENDBRANCH   6   7
ENDBRANCH   3   6
ENDBRANCH   1   2
BRANCH   1  17
ATOM     17  C   UNL     1      93.352  87.202  88.474  1.00  0.00     0.010 C 
BRANCH  17  18
ATOM     18  C   UNL     1      92.371  87.723  89.561  1.00  0.00     0.001 C 
BRANCH  18  19
ATOM     19  C   UNL     1      92.051  89.235  89.428  1.00  0.00     0.000 C 
BRANCH  19  20
ATOM     20  C   UNL     1      93.287  90.060  88.966  1.00  0.00     0.003 C 
BRANCH  20  21
ATOM     21  C   UNL     1      93.521  91.393  89.748  1.00  0.00    -0.017 C 
ATOM     22  C   UNL     1      92.170  91.990  90.244  1.00  0.00     0.007 C 
ATOM     23  C   UNL     1      94.299  92.454  88.916  1.00  0.00     0.007 C 
ENDBRANCH  20  21
ENDBRANCH  19  20
ENDBRANCH  18  19
ENDBRANCH  17  18
ENDBRANCH   1  17
TORSDOF 10
ENDMDL
