MODEL 1
REMARK VINA RESULT:    -7.791      0.000      0.000
REMARK INTER + INTRA:         -14.208
REMARK INTER:                 -13.712
REMARK INTRA:                  -0.496
REMARK UNBOUND:                -0.496
REMARK SMILES C=C(C)[C@]12C[C@@H](C)[C@@]34O[C@](Cc5ccccc5)(O[C@@H]1[C@@H]3C=C(COC(=O)Cc1ccc(O)c(OC)c1)C[C@]1(O)C(=O)C(C)=C[C@@H]41)O2
REMARK SMILES IDX 23 1 22 2 21 3 20 4 9 5 8 6 10 7 6 8 18 9 46 10 19 11 5 12
REMARK SMILES IDX 7 13 4 14 45 15 38 16 44 17 40 18 42 20 41 21 43 22 39 23
REMARK SMILES IDX 11 25 12 26 13 27 17 28 14 29 16 30 15 31 2 32 3 33 1 34
REMARK SMILES IDX 37 35 24 37 25 38 26 39 27 40 28 41 36 42 29 43 33 44 30 45
REMARK SMILES IDX 31 46 34 47 35 48 32 49
REMARK H PARENT 39 24 32 50
REMARK Flexibility Score: 90.00
ROOT
ATOM      1  C   UNL     1      95.619  99.595  73.989  1.00  0.00     0.264 C 
ENDROOT
BRANCH   1   2
ATOM      2  C   UNL     1      94.706 100.740  73.616  1.00  0.00    -0.033 C 
ATOM      3  C   UNL     1      93.998 100.674  72.471  1.00  0.00    -0.015 C 
BRANCH   3   4
ATOM      4  C   UNL     1      93.083 101.711  71.841  1.00  0.00     0.078 C 
ATOM      5  O   UNL     1      90.794 101.241  72.654  1.00  0.00    -0.319 OA
ATOM      6  C   UNL     1      91.861 102.240  72.681  1.00  0.00     0.095 C 
ATOM      7  C   UNL     1      90.556 100.628  71.373  1.00  0.00     0.289 C 
ATOM      8  C   UNL     1      91.347 103.572  71.994  1.00  0.00     0.023 C 
ATOM      9  O   UNL     1      91.734 100.003  70.871  1.00  0.00    -0.320 OA
ATOM     10  O   UNL     1      90.171 101.577  70.382  1.00  0.00    -0.313 OA
ATOM     11  C   UNL     1      92.502 101.163  70.514  1.00  0.00     0.170 C 
ATOM     12  C   UNL     1      91.534 103.526  70.446  1.00  0.00     0.049 C 
ATOM     13  C   UNL     1      89.898 103.967  72.322  1.00  0.00     0.011 C 
ATOM     14  C   UNL     1      91.428 102.100  69.905  1.00  0.00     0.122 C 
BRANCH   6  15
ATOM     15  C   UNL     1      92.238 102.366  74.185  1.00  0.00     0.086 C 
ATOM     16  C   UNL     1      93.630 102.958  74.490  1.00  0.00     0.140 CG0
ATOM     17  C   UNL     1      91.327 103.120  75.113  1.00  0.00    -0.010 C 
ATOM     18  C   UNL     1      93.385 103.722  75.774  1.00  0.00     0.190 C 
ATOM     19  G   UNL     1      94.696 101.874  74.648  1.00  0.00     0.000 G0
ATOM     20  C   UNL     1      91.941 103.869  76.034  1.00  0.00    -0.008 C 
ATOM     21  O   UNL     1      94.252 104.206  76.486  1.00  0.00    -0.291 OA
ATOM     22  C   UNL     1      91.376 104.666  77.143  1.00  0.00     0.048 C 
BRANCH  16  23
ATOM     23  O   UNL     1      94.041 103.958  73.573  1.00  0.00    -0.381 OA
ATOM     24  H   UNL     1      94.967 104.186  73.761  1.00  0.00     0.212 HD
ENDBRANCH  16  23
ENDBRANCH   6  15
BRANCH   7  25
ATOM     25  C   UNL     1      89.459  99.595  71.538  1.00  0.00     0.135 C 
BRANCH  25  26
ATOM     26  C   UNL     1      89.206  98.832  70.261  1.00  0.00    -0.040 A 
ATOM     27  C   UNL     1      89.605  97.499  70.154  1.00  0.00     0.004 A 
ATOM     28  C   UNL     1      88.570  99.457  69.189  1.00  0.00     0.004 A 
ATOM     29  C   UNL     1      89.371  96.793  68.974  1.00  0.00     0.000 A 
ATOM     30  C   UNL     1      88.336  98.751  68.008  1.00  0.00     0.000 A 
ATOM     31  C   UNL     1      88.737  97.419  67.902  1.00  0.00     0.000 A 
ENDBRANCH  25  26
ENDBRANCH   7  25
BRANCH  14  32
ATOM     32  C   UNL     1      91.422 102.050  68.412  1.00  0.00    -0.046 C 
ATOM     33  C   UNL     1      92.760 102.140  67.741  1.00  0.00     0.042 C 
ATOM     34  C   UNL     1      90.284 101.933  67.711  1.00  0.00     0.010 C 
ENDBRANCH  14  32
ENDBRANCH   3   4
BRANCH   2  35
ATOM     35  C   UNL     1      94.708 101.859  74.641  1.00  0.00     0.078 CG0
ATOM     36  G   UNL     1      93.629 102.933  74.505  1.00  0.00     0.000 G0
ENDBRANCH   2  35
ENDBRANCH   1   2
BRANCH   1  37
ATOM     37  O   UNL     1      94.839  98.472  74.339  1.00  0.00    -0.461 OA
BRANCH  37  38
ATOM     38  C   UNL     1      94.307  98.473  75.608  1.00  0.00     0.310 C 
ATOM     39  O   UNL     1      94.822  99.000  76.585  1.00  0.00    -0.252 OA
BRANCH  38  40
ATOM     40  C   UNL     1      92.995  97.724  75.605  1.00  0.00     0.158 C 
BRANCH  40  41
ATOM     41  C   UNL     1      92.907  96.688  76.697  1.00  0.00    -0.033 A 
ATOM     42  C   UNL     1      91.697  96.039  76.946  1.00  0.00     0.054 A 
ATOM     43  C   UNL     1      94.035  96.378  77.457  1.00  0.00     0.008 A 
ATOM     44  C   UNL     1      91.616  95.081  77.956  1.00  0.00     0.160 A 
ATOM     45  C   UNL     1      93.953  95.420  78.467  1.00  0.00     0.050 A 
ATOM     46  C   UNL     1      92.744  94.771  78.717  1.00  0.00     0.157 A 
BRANCH  44  47
ATOM     47  O   UNL     1      90.429  94.454  78.190  1.00  0.00    -0.493 OA
ATOM     48  C   UNL     1      89.433  94.550  77.173  1.00  0.00     0.278 C 
ENDBRANCH  44  47
BRANCH  46  49
ATOM     49  O   UNL     1      92.677  93.836  79.705  1.00  0.00    -0.504 OA
ATOM     50  H   UNL     1      91.752  93.746  79.993  1.00  0.00     0.293 HD
ENDBRANCH  46  49
ENDBRANCH  40  41
ENDBRANCH  38  40
ENDBRANCH  37  38
ENDBRANCH   1  37
TORSDOF 11
ENDMDL
MODEL 2
REMARK VINA RESULT:    -7.570      1.241      2.007
REMARK INTER + INTRA:         -13.818
REMARK INTER:                 -12.877
REMARK INTRA:                  -0.941
REMARK UNBOUND:                -0.496
REMARK SMILES C=C(C)[C@]12C[C@@H](C)[C@@]34O[C@](Cc5ccccc5)(O[C@@H]1[C@@H]3C=C(COC(=O)Cc1ccc(O)c(OC)c1)C[C@]1(O)C(=O)C(C)=C[C@@H]41)O2
REMARK SMILES IDX 23 1 22 2 21 3 20 4 9 5 8 6 10 7 6 8 18 9 46 10 19 11 5 12
REMARK SMILES IDX 7 13 4 14 45 15 38 16 44 17 40 18 42 20 41 21 43 22 39 23
REMARK SMILES IDX 11 25 12 26 13 27 17 28 14 29 16 30 15 31 2 32 3 33 1 34
REMARK SMILES IDX 37 35 24 37 25 38 26 39 27 40 28 41 36 42 29 43 33 44 30 45
REMARK SMILES IDX 31 46 34 47 35 48 32 49
REMARK H PARENT 39 24 32 50
REMARK Flexibility Score: 90.00
ROOT
ATOM      1  C   UNL     1      93.774  99.833  75.620  1.00  0.00     0.264 C 
ENDROOT
BRANCH   1   2
ATOM      2  C   UNL     1      93.152 101.021  74.924  1.00  0.00    -0.033 C 
ATOM      3  C   UNL     1      92.841 100.931  73.615  1.00  0.00    -0.015 C 
BRANCH   3   4
ATOM      4  C   UNL     1      92.287 101.993  72.680  1.00  0.00     0.078 C 
ATOM      5  O   UNL     1      89.823 101.792  72.741  1.00  0.00    -0.319 OA
ATOM      6  C   UNL     1      90.929 102.691  73.060  1.00  0.00     0.095 C 
ATOM      7  C   UNL     1      89.932 101.105  71.480  1.00  0.00     0.289 C 
ATOM      8  C   UNL     1      90.804 104.007  72.186  1.00  0.00     0.023 C 
ATOM      9  O   UNL     1      91.133 100.341  71.409  1.00  0.00    -0.320 OA
ATOM     10  O   UNL     1      89.982 102.005  70.376  1.00  0.00    -0.313 OA
ATOM     11  C   UNL     1      92.095 101.398  71.263  1.00  0.00     0.170 C 
ATOM     12  C   UNL     1      91.460 103.824  70.783  1.00  0.00     0.049 C 
ATOM     13  C   UNL     1      89.377 104.553  72.016  1.00  0.00     0.011 C 
ATOM     14  C   UNL     1      91.374 102.375  70.302  1.00  0.00     0.122 C 
BRANCH   6  15
ATOM     15  C   UNL     1      90.828 102.900  74.599  1.00  0.00     0.086 C 
ATOM     16  C   UNL     1      92.106 103.400  75.303  1.00  0.00     0.140 CG0
ATOM     17  C   UNL     1      89.753 103.792  75.153  1.00  0.00    -0.010 C 
ATOM     18  C   UNL     1      91.550 104.276  76.406  1.00  0.00     0.190 C 
ATOM     19  G   UNL     1      92.956 102.249  75.842  1.00  0.00     0.000 G0
ATOM     20  C   UNL     1      90.119 104.558  76.186  1.00  0.00    -0.008 C 
ATOM     21  O   UNL     1      92.195 104.741  77.334  1.00  0.00    -0.291 OA
ATOM     22  C   UNL     1      89.319 105.478  77.019  1.00  0.00     0.048 C 
BRANCH  16  23
ATOM     23  O   UNL     1      92.881 104.292  74.520  1.00  0.00    -0.381 OA
ATOM     24  H   UNL     1      92.874 103.979  73.600  1.00  0.00     0.212 HD
ENDBRANCH  16  23
ENDBRANCH   6  15
BRANCH   7  25
ATOM     25  C   UNL     1      88.733 100.189  71.332  1.00  0.00     0.135 C 
BRANCH  25  26
ATOM     26  C   UNL     1      89.028  99.014  70.434  1.00  0.00    -0.040 A 
ATOM     27  C   UNL     1      88.724  99.082  69.073  1.00  0.00     0.004 A 
ATOM     28  C   UNL     1      89.605  97.859  70.961  1.00  0.00     0.004 A 
ATOM     29  C   UNL     1      88.996  97.995  68.242  1.00  0.00     0.000 A 
ATOM     30  C   UNL     1      89.877  96.772  70.130  1.00  0.00     0.000 A 
ATOM     31  C   UNL     1      89.572  96.841  68.770  1.00  0.00     0.000 A 
ENDBRANCH  25  26
ENDBRANCH   7  25
BRANCH  14  32
ATOM     32  C   UNL     1      91.830 102.211  68.889  1.00  0.00    -0.046 C 
ATOM     33  C   UNL     1      93.190 102.754  68.564  1.00  0.00     0.042 C 
ATOM     34  C   UNL     1      91.067 101.612  67.962  1.00  0.00     0.010 C 
ENDBRANCH  14  32
ENDBRANCH   3   4
BRANCH   2  35
ATOM     35  C   UNL     1      92.946 102.209  75.845  1.00  0.00     0.078 CG0
ATOM     36  G   UNL     1      92.111 103.372  75.310  1.00  0.00     0.000 G0
ENDBRANCH   2  35
ENDBRANCH   1   2
BRANCH   1  37
ATOM     37  O   UNL     1      93.727  98.713  74.762  1.00  0.00    -0.461 OA
BRANCH  37  38
ATOM     38  C   UNL     1      94.577  97.676  75.068  1.00  0.00     0.310 C 
ATOM     39  O   UNL     1      95.105  96.935  74.250  1.00  0.00    -0.252 OA
BRANCH  38  40
ATOM     40  C   UNL     1      94.757  97.597  76.566  1.00  0.00     0.158 C 
BRANCH  40  41
ATOM     41  C   UNL     1      93.855  96.578  77.213  1.00  0.00    -0.033 A 
ATOM     42  C   UNL     1      94.286  95.884  78.345  1.00  0.00     0.054 A 
ATOM     43  C   UNL     1      92.590  96.330  76.683  1.00  0.00     0.008 A 
ATOM     44  C   UNL     1      93.451  94.941  78.944  1.00  0.00     0.160 A 
ATOM     45  C   UNL     1      91.755  95.387  77.282  1.00  0.00     0.050 A 
ATOM     46  C   UNL     1      92.185  94.692  78.412  1.00  0.00     0.157 A 
BRANCH  44  47
ATOM     47  O   UNL     1      93.883  94.269  80.047  1.00  0.00    -0.493 OA
ATOM     48  C   UNL     1      95.290  94.241  80.280  1.00  0.00     0.278 C 
ENDBRANCH  44  47
BRANCH  46  49
ATOM     49  O   UNL     1      91.361  93.775  78.990  1.00  0.00    -0.504 OA
ATOM     50  H   UNL     1      91.457  92.926  78.525  1.00  0.00     0.293 HD
ENDBRANCH  46  49
ENDBRANCH  40  41
ENDBRANCH  38  40
ENDBRANCH  37  38
ENDBRANCH   1  37
TORSDOF 11
ENDMDL
MODEL 3
REMARK VINA RESULT:    -7.329     28.905     31.753
REMARK INTER + INTRA:         -13.395
REMARK INTER:                 -10.623
REMARK INTRA:                  -2.772
REMARK UNBOUND:                -0.496
REMARK SMILES C=C(C)[C@]12C[C@@H](C)[C@@]34O[C@](Cc5ccccc5)(O[C@@H]1[C@@H]3C=C(COC(=O)Cc1ccc(O)c(OC)c1)C[C@]1(O)C(=O)C(C)=C[C@@H]41)O2
REMARK SMILES IDX 23 1 22 2 21 3 20 4 9 5 8 6 10 7 6 8 18 9 46 10 19 11 5 12
REMARK SMILES IDX 7 13 4 14 45 15 38 16 44 17 40 18 42 20 41 21 43 22 39 23
REMARK SMILES IDX 11 25 12 26 13 27 17 28 14 29 16 30 15 31 2 32 3 33 1 34
REMARK SMILES IDX 37 35 24 37 25 38 26 39 27 40 28 41 36 42 29 43 33 44 30 45
REMARK SMILES IDX 31 46 34 47 35 48 32 49
REMARK H PARENT 39 24 32 50
REMARK Flexibility Score: 90.00
ROOT
ATOM      1  C   UNL     1      66.959  84.648  71.363  1.00  0.00     0.264 C 
ENDROOT
BRANCH   1   2
ATOM      2  C   UNL     1      65.951  85.487  72.113  1.00  0.00    -0.033 C 
ATOM      3  C   UNL     1      65.664  85.184  73.395  1.00  0.00    -0.015 C 
BRANCH   3   4
ATOM      4  C   UNL     1      64.646  85.814  74.331  1.00  0.00     0.078 C 
ATOM      5  O   UNL     1      65.825  87.590  75.587  1.00  0.00    -0.319 OA
ATOM      6  C   UNL     1      64.752  87.358  74.622  1.00  0.00     0.095 C 
ATOM      7  C   UNL     1      65.877  86.661  76.686  1.00  0.00     0.289 C 
ATOM      8  C   UNL     1      63.374  87.824  75.250  1.00  0.00     0.023 C 
ATOM      9  O   UNL     1      66.005  85.319  76.223  1.00  0.00    -0.320 OA
ATOM     10  O   UNL     1      64.688  86.685  77.471  1.00  0.00    -0.313 OA
ATOM     11  C   UNL     1      64.683  85.103  75.706  1.00  0.00     0.170 C 
ATOM     12  C   UNL     1      62.731  86.698  76.117  1.00  0.00     0.049 C 
ATOM     13  C   UNL     1      63.426  89.128  76.062  1.00  0.00     0.011 C 
ATOM     14  C   UNL     1      63.793  85.804  76.761  1.00  0.00     0.122 C 
BRANCH   6  15
ATOM     15  C   UNL     1      65.202  88.130  73.348  1.00  0.00     0.086 C 
ATOM     16  C   UNL     1      64.532  87.706  72.024  1.00  0.00     0.140 CG0
ATOM     17  C   UNL     1      65.106  89.630  73.324  1.00  0.00    -0.010 C 
ATOM     18  C   UNL     1      64.446  89.016  71.269  1.00  0.00     0.190 C 
ATOM     19  G   UNL     1      65.348  86.652  71.277  1.00  0.00     0.000 G0
ATOM     20  C   UNL     1      64.711  90.160  72.162  1.00  0.00    -0.008 C 
ATOM     21  O   UNL     1      64.149  89.135  70.090  1.00  0.00    -0.291 OA
ATOM     22  C   UNL     1      64.585  91.574  71.754  1.00  0.00     0.048 C 
BRANCH  16  23
ATOM     23  O   UNL     1      63.179  87.308  72.167  1.00  0.00    -0.381 OA
ATOM     24  H   UNL     1      62.611  88.033  71.857  1.00  0.00     0.212 HD
ENDBRANCH  16  23
ENDBRANCH   6  15
BRANCH   7  25
ATOM     25  C   UNL     1      67.065  87.018  77.556  1.00  0.00     0.135 C 
BRANCH  25  26
ATOM     26  C   UNL     1      67.001  86.347  78.905  1.00  0.00    -0.040 A 
ATOM     27  C   UNL     1      66.652  87.087  80.035  1.00  0.00     0.004 A 
ATOM     28  C   UNL     1      67.288  84.988  79.023  1.00  0.00     0.004 A 
ATOM     29  C   UNL     1      66.592  86.467  81.284  1.00  0.00     0.000 A 
ATOM     30  C   UNL     1      67.228  84.368  80.271  1.00  0.00     0.000 A 
ATOM     31  C   UNL     1      66.880  85.108  81.401  1.00  0.00     0.000 A 
ENDBRANCH  25  26
ENDBRANCH   7  25
BRANCH  14  32
ATOM     32  C   UNL     1      63.211  84.836  77.738  1.00  0.00    -0.046 C 
ATOM     33  C   UNL     1      62.937  85.366  79.114  1.00  0.00     0.042 C 
ATOM     34  C   UNL     1      62.949  83.563  77.405  1.00  0.00     0.010 C 
ENDBRANCH  14  32
ENDBRANCH   3   4
BRANCH   2  35
ATOM     35  C   UNL     1      65.379  86.617  71.278  1.00  0.00     0.078 CG0
ATOM     36  G   UNL     1      64.560  87.680  72.008  1.00  0.00     0.000 G0
ENDBRANCH   2  35
ENDBRANCH   1   2
BRANCH   1  37
ATOM     37  O   UNL     1      66.574  83.291  71.423  1.00  0.00    -0.461 OA
BRANCH  37  38
ATOM     38  C   UNL     1      65.728  82.854  70.431  1.00  0.00     0.310 C 
ATOM     39  O   UNL     1      65.632  83.354  69.319  1.00  0.00    -0.252 OA
BRANCH  38  40
ATOM     40  C   UNL     1      64.938  81.667  70.929  1.00  0.00     0.158 C 
BRANCH  40  41
ATOM     41  C   UNL     1      63.911  82.037  71.968  1.00  0.00    -0.033 A 
ATOM     42  C   UNL     1      63.009  83.072  71.719  1.00  0.00     0.054 A 
ATOM     43  C   UNL     1      63.861  81.345  73.177  1.00  0.00     0.008 A 
ATOM     44  C   UNL     1      62.058  83.415  72.680  1.00  0.00     0.160 A 
ATOM     45  C   UNL     1      62.910  81.688  74.139  1.00  0.00     0.050 A 
ATOM     46  C   UNL     1      62.009  82.723  73.891  1.00  0.00     0.157 A 
BRANCH  44  47
ATOM     47  O   UNL     1      61.184  84.428  72.426  1.00  0.00    -0.493 OA
ATOM     48  C   UNL     1      60.931  84.738  71.056  1.00  0.00     0.278 C 
ENDBRANCH  44  47
BRANCH  46  49
ATOM     49  O   UNL     1      61.085  83.048  74.836  1.00  0.00    -0.504 OA
ATOM     50  H   UNL     1      60.831  83.979  74.724  1.00  0.00     0.293 HD
ENDBRANCH  46  49
ENDBRANCH  40  41
ENDBRANCH  38  40
ENDBRANCH  37  38
ENDBRANCH   1  37
TORSDOF 11
ENDMDL
MODEL 4
REMARK VINA RESULT:    -7.230      2.514      4.537
REMARK INTER + INTRA:         -13.221
REMARK INTER:                 -10.777
REMARK INTRA:                  -2.444
REMARK UNBOUND:                -0.496
REMARK SMILES C=C(C)[C@]12C[C@@H](C)[C@@]34O[C@](Cc5ccccc5)(O[C@@H]1[C@@H]3C=C(COC(=O)Cc1ccc(O)c(OC)c1)C[C@]1(O)C(=O)C(C)=C[C@@H]41)O2
REMARK SMILES IDX 23 1 22 2 21 3 20 4 9 5 8 6 10 7 6 8 18 9 46 10 19 11 5 12
REMARK SMILES IDX 7 13 4 14 45 15 38 16 44 17 40 18 42 20 41 21 43 22 39 23
REMARK SMILES IDX 11 25 12 26 13 27 17 28 14 29 16 30 15 31 2 32 3 33 1 34
REMARK SMILES IDX 37 35 24 37 25 38 26 39 27 40 28 41 36 42 29 43 33 44 30 45
REMARK SMILES IDX 31 46 34 47 35 48 32 49
REMARK H PARENT 39 24 32 50
REMARK Flexibility Score: 90.00
ROOT
ATOM      1  C   UNL     1      94.068  99.712  75.448  1.00  0.00     0.264 C 
ENDROOT
BRANCH   1   2
ATOM      2  C   UNL     1      93.459 100.898  74.738  1.00  0.00    -0.033 C 
ATOM      3  C   UNL     1      93.080 100.772  73.450  1.00  0.00    -0.015 C 
BRANCH   3   4
ATOM      4  C   UNL     1      92.521 101.820  72.501  1.00  0.00     0.078 C 
ATOM      5  O   UNL     1      90.056 101.716  72.683  1.00  0.00    -0.319 OA
ATOM      6  C   UNL     1      91.208 102.583  72.918  1.00  0.00     0.095 C 
ATOM      7  C   UNL     1      90.080 100.980  71.445  1.00  0.00     0.289 C 
ATOM      8  C   UNL     1      91.090 103.870  72.001  1.00  0.00     0.023 C 
ATOM      9  O   UNL     1      91.248 100.169  71.348  1.00  0.00    -0.320 OA
ATOM     10  O   UNL     1      90.111 101.837  70.307  1.00  0.00    -0.313 OA
ATOM     11  C   UNL     1      92.240 101.182  71.119  1.00  0.00     0.170 C 
ATOM     12  C   UNL     1      91.672 103.612  70.577  1.00  0.00     0.049 C 
ATOM     13  C   UNL     1      89.678 104.464  71.876  1.00  0.00     0.011 C 
ATOM     14  C   UNL     1      91.511 102.152  70.155  1.00  0.00     0.122 C 
BRANCH   6  15
ATOM     15  C   UNL     1      91.188 102.850  74.451  1.00  0.00     0.086 C 
ATOM     16  C   UNL     1      92.514 103.332  75.075  1.00  0.00     0.140 CG0
ATOM     17  C   UNL     1      90.170 103.798  75.020  1.00  0.00    -0.010 C 
ATOM     18  C   UNL     1      92.040 104.266  76.168  1.00  0.00     0.190 C 
ATOM     19  G   UNL     1      93.351 102.174  75.616  1.00  0.00     0.000 G0
ATOM     20  C   UNL     1      90.610 104.587  76.005  1.00  0.00    -0.008 C 
ATOM     21  O   UNL     1      92.743 104.742  77.047  1.00  0.00    -0.291 OA
ATOM     22  C   UNL     1      89.880 105.564  76.839  1.00  0.00     0.048 C 
BRANCH  16  23
ATOM     23  O   UNL     1      93.279 104.169  74.223  1.00  0.00    -0.381 OA
ATOM     24  H   UNL     1      92.749 104.953  74.007  1.00  0.00     0.212 HD
ENDBRANCH  16  23
ENDBRANCH   6  15
BRANCH   7  25
ATOM     25  C   UNL     1      88.844 100.106  71.387  1.00  0.00     0.135 C 
BRANCH  25  26
ATOM     26  C   UNL     1      88.897  99.126  70.242  1.00  0.00    -0.040 A 
ATOM     27  C   UNL     1      88.440  99.504  68.979  1.00  0.00     0.004 A 
ATOM     28  C   UNL     1      89.405  97.843  70.444  1.00  0.00     0.004 A 
ATOM     29  C   UNL     1      88.490  98.598  67.919  1.00  0.00     0.000 A 
ATOM     30  C   UNL     1      89.455  96.937  69.384  1.00  0.00     0.000 A 
ATOM     31  C   UNL     1      88.997  97.315  68.122  1.00  0.00     0.000 A 
ENDBRANCH  25  26
ENDBRANCH   7  25
BRANCH  14  32
ATOM     32  C   UNL     1      91.893 101.920  68.730  1.00  0.00    -0.046 C 
ATOM     33  C   UNL     1      93.349 102.071  68.401  1.00  0.00     0.042 C 
ATOM     34  C   UNL     1      90.987 101.594  67.796  1.00  0.00     0.010 C 
ENDBRANCH  14  32
ENDBRANCH   3   4
BRANCH   2  35
ATOM     35  C   UNL     1      93.346 102.127  75.620  1.00  0.00     0.078 CG0
ATOM     36  G   UNL     1      92.518 103.296  75.089  1.00  0.00     0.000 G0
ENDBRANCH   2  35
ENDBRANCH   1   2
BRANCH   1  37
ATOM     37  O   UNL     1      94.043  98.591  74.591  1.00  0.00    -0.461 OA
BRANCH  37  38
ATOM     38  C   UNL     1      95.191  97.834  74.546  1.00  0.00     0.310 C 
ATOM     39  O   UNL     1      95.268  96.655  74.863  1.00  0.00    -0.252 OA
BRANCH  38  40
ATOM     40  C   UNL     1      96.336  98.683  74.046  1.00  0.00     0.158 C 
BRANCH  40  41
ATOM     41  C   UNL     1      96.253  98.972  72.569  1.00  0.00    -0.033 A 
ATOM     42  C   UNL     1      96.244 100.292  72.116  1.00  0.00     0.054 A 
ATOM     43  C   UNL     1      96.186  97.920  71.656  1.00  0.00     0.008 A 
ATOM     44  C   UNL     1      96.167 100.559  70.749  1.00  0.00     0.160 A 
ATOM     45  C   UNL     1      96.109  98.188  70.289  1.00  0.00     0.050 A 
ATOM     46  C   UNL     1      96.099  99.506  69.835  1.00  0.00     0.157 A 
BRANCH  44  47
ATOM     47  O   UNL     1      96.159 101.851  70.319  1.00  0.00    -0.493 OA
ATOM     48  C   UNL     1      96.003 102.864  71.311  1.00  0.00     0.278 C 
ENDBRANCH  44  47
BRANCH  46  49
ATOM     49  O   UNL     1      96.025  99.755  68.498  1.00  0.00    -0.504 OA
ATOM     50  H   UNL     1      95.314  99.214  68.115  1.00  0.00     0.293 HD
ENDBRANCH  46  49
ENDBRANCH  40  41
ENDBRANCH  38  40
ENDBRANCH  37  38
ENDBRANCH   1  37
TORSDOF 11
ENDMDL
MODEL 5
REMARK VINA RESULT:    -6.628     39.343     43.520
REMARK INTER + INTRA:         -12.160
REMARK INTER:                 -11.500
REMARK INTRA:                  -0.660
REMARK UNBOUND:                -0.496
REMARK SMILES C=C(C)[C@]12C[C@@H](C)[C@@]34O[C@](Cc5ccccc5)(O[C@@H]1[C@@H]3C=C(COC(=O)Cc1ccc(O)c(OC)c1)C[C@]1(O)C(=O)C(C)=C[C@@H]41)O2
REMARK SMILES IDX 23 1 22 2 21 3 20 4 9 5 8 6 10 7 6 8 18 9 46 10 19 11 5 12
REMARK SMILES IDX 7 13 4 14 45 15 38 16 44 17 40 18 42 20 41 21 43 22 39 23
REMARK SMILES IDX 11 25 12 26 13 27 17 28 14 29 16 30 15 31 2 32 3 33 1 34
REMARK SMILES IDX 37 35 24 37 25 38 26 39 27 40 28 41 36 42 29 43 33 44 30 45
REMARK SMILES IDX 31 46 34 47 35 48 32 49
REMARK H PARENT 39 24 32 50
REMARK Flexibility Score: 90.00
ROOT
ATOM      1  C   UNL     1      64.648  66.538  83.759  1.00  0.00     0.264 C 
ENDROOT
BRANCH   1   2
ATOM      2  C   UNL     1      65.834  66.454  82.827  1.00  0.00    -0.033 C 
ATOM      3  C   UNL     1      67.077  66.614  83.325  1.00  0.00    -0.015 C 
BRANCH   3   4
ATOM      4  C   UNL     1      68.410  66.652  82.596  1.00  0.00     0.078 C 
ATOM      5  O   UNL     1      69.282  64.337  82.570  1.00  0.00    -0.319 OA
ATOM      6  C   UNL     1      68.812  65.417  81.706  1.00  0.00     0.095 C 
ATOM      7  C   UNL     1      70.150  64.742  83.646  1.00  0.00     0.289 C 
ATOM      8  C   UNL     1      69.992  65.877  80.753  1.00  0.00     0.023 C 
ATOM      9  O   UNL     1      69.522  65.710  84.481  1.00  0.00    -0.320 OA
ATOM     10  O   UNL     1      71.346  65.358  83.174  1.00  0.00    -0.313 OA
ATOM     11  C   UNL     1      69.560  66.854  83.614  1.00  0.00     0.170 C 
ATOM     12  C   UNL     1      70.907  66.934  81.445  1.00  0.00     0.049 C 
ATOM     13  C   UNL     1      70.861  64.743  80.184  1.00  0.00     0.011 C 
ATOM     14  C   UNL     1      70.959  66.731  82.960  1.00  0.00     0.122 C 
BRANCH   6  15
ATOM     15  C   UNL     1      67.565  64.826  80.988  1.00  0.00     0.086 C 
ATOM     16  C   UNL     1      66.574  65.848  80.393  1.00  0.00     0.140 CG0
ATOM     17  C   UNL     1      67.757  63.836  79.873  1.00  0.00    -0.010 C 
ATOM     18  C   UNL     1      66.074  65.134  79.154  1.00  0.00     0.190 C 
ATOM     19  G   UNL     1      65.447  66.192  81.365  1.00  0.00     0.000 G0
ATOM     20  C   UNL     1      66.917  63.965  78.841  1.00  0.00    -0.008 C 
ATOM     21  O   UNL     1      65.132  65.491  78.463  1.00  0.00    -0.291 OA
ATOM     22  C   UNL     1      66.762  63.133  77.630  1.00  0.00     0.048 C 
BRANCH  16  23
ATOM     23  O   UNL     1      67.193  67.017  79.882  1.00  0.00    -0.381 OA
ATOM     24  H   UNL     1      67.362  66.887  78.935  1.00  0.00     0.212 HD
ENDBRANCH  16  23
ENDBRANCH   6  15
BRANCH   7  25
ATOM     25  C   UNL     1      70.502  63.514  84.460  1.00  0.00     0.135 C 
BRANCH  25  26
ATOM     26  C   UNL     1      70.949  63.870  85.857  1.00  0.00    -0.040 A 
ATOM     27  C   UNL     1      72.268  63.638  86.248  1.00  0.00     0.004 A 
ATOM     28  C   UNL     1      70.044  64.433  86.756  1.00  0.00     0.004 A 
ATOM     29  C   UNL     1      72.681  63.968  87.539  1.00  0.00     0.000 A 
ATOM     30  C   UNL     1      70.457  64.763  88.047  1.00  0.00     0.000 A 
ATOM     31  C   UNL     1      71.776  64.530  88.438  1.00  0.00     0.000 A 
ENDBRANCH  25  26
ENDBRANCH   7  25
BRANCH  14  32
ATOM     32  C   UNL     1      71.967  67.613  83.623  1.00  0.00    -0.046 C 
ATOM     33  C   UNL     1      72.979  66.925  84.490  1.00  0.00     0.042 C 
ATOM     34  C   UNL     1      71.968  68.943  83.452  1.00  0.00     0.010 C 
ENDBRANCH  14  32
ENDBRANCH   3   4
BRANCH   2  35
ATOM     35  C   UNL     1      65.441  66.180  81.388  1.00  0.00     0.078 CG0
ATOM     36  G   UNL     1      66.562  65.829  80.411  1.00  0.00     0.000 G0
ENDBRANCH   2  35
ENDBRANCH   1   2
BRANCH   1  37
ATOM     37  O   UNL     1      63.524  65.951  83.139  1.00  0.00    -0.461 OA
BRANCH  37  38
ATOM     38  C   UNL     1      62.353  66.670  83.198  1.00  0.00     0.310 C 
ATOM     39  O   UNL     1      61.564  66.652  84.132  1.00  0.00    -0.252 OA
BRANCH  38  40
ATOM     40  C   UNL     1      62.194  67.479  81.932  1.00  0.00     0.158 C 
BRANCH  40  41
ATOM     41  C   UNL     1      62.203  68.966  82.181  1.00  0.00    -0.033 A 
ATOM     42  C   UNL     1      63.232  69.753  81.660  1.00  0.00     0.054 A 
ATOM     43  C   UNL     1      61.185  69.555  82.929  1.00  0.00     0.008 A 
ATOM     44  C   UNL     1      63.240  71.129  81.890  1.00  0.00     0.160 A 
ATOM     45  C   UNL     1      61.194  70.931  83.159  1.00  0.00     0.050 A 
ATOM     46  C   UNL     1      62.221  71.718  82.640  1.00  0.00     0.157 A 
BRANCH  44  47
ATOM     47  O   UNL     1      64.249  71.887  81.378  1.00  0.00    -0.493 OA
ATOM     48  C   UNL     1      64.649  71.614  80.036  1.00  0.00     0.278 C 
ENDBRANCH  44  47
BRANCH  46  49
ATOM     49  O   UNL     1      62.219  73.060  82.870  1.00  0.00    -0.504 OA
ATOM     50  H   UNL     1      62.911  73.272  83.519  1.00  0.00     0.293 HD
ENDBRANCH  46  49
ENDBRANCH  40  41
ENDBRANCH  38  40
ENDBRANCH  37  38
ENDBRANCH   1  37
TORSDOF 11
ENDMDL
MODEL 6
REMARK VINA RESULT:    -6.557     18.994     22.686
REMARK INTER + INTRA:         -12.036
REMARK INTER:                 -10.813
REMARK INTRA:                  -1.223
REMARK UNBOUND:                -0.496
REMARK SMILES C=C(C)[C@]12C[C@@H](C)[C@@]34O[C@](Cc5ccccc5)(O[C@@H]1[C@@H]3C=C(COC(=O)Cc1ccc(O)c(OC)c1)C[C@]1(O)C(=O)C(C)=C[C@@H]41)O2
REMARK SMILES IDX 23 1 22 2 21 3 20 4 9 5 8 6 10 7 6 8 18 9 46 10 19 11 5 12
REMARK SMILES IDX 7 13 4 14 45 15 38 16 44 17 40 18 42 20 41 21 43 22 39 23
REMARK SMILES IDX 11 25 12 26 13 27 17 28 14 29 16 30 15 31 2 32 3 33 1 34
REMARK SMILES IDX 37 35 24 37 25 38 26 39 27 40 28 41 36 42 29 43 33 44 30 45
REMARK SMILES IDX 31 46 34 47 35 48 32 49
REMARK H PARENT 39 24 32 50
REMARK Flexibility Score: 90.00
ROOT
ATOM      1  C   UNL     1     101.322  80.986  83.976  1.00  0.00     0.264 C 
ENDROOT
BRANCH   1   2
ATOM      2  C   UNL     1     100.750  80.376  82.718  1.00  0.00    -0.033 C 
ATOM      3  C   UNL     1     100.405  81.181  81.693  1.00  0.00    -0.015 C 
BRANCH   3   4
ATOM      4  C   UNL     1      99.746  80.828  80.369  1.00  0.00     0.078 C 
ATOM      5  O   UNL     1     101.567  80.452  78.737  1.00  0.00    -0.319 OA
ATOM      6  C   UNL     1     100.464  79.789  79.430  1.00  0.00     0.095 C 
ATOM      7  C   UNL     1     101.276  81.771  78.236  1.00  0.00     0.289 C 
ATOM      8  C   UNL     1      99.401  79.291  78.365  1.00  0.00     0.023 C 
ATOM      9  O   UNL     1     100.849  82.639  79.283  1.00  0.00    -0.320 OA
ATOM     10  O   UNL     1     100.216  81.766  77.283  1.00  0.00    -0.313 OA
ATOM     11  C   UNL     1      99.536  82.111  79.528  1.00  0.00     0.170 C 
ATOM     12  C   UNL     1      98.389  80.420  77.997  1.00  0.00     0.049 C 
ATOM     13  C   UNL     1      99.988  78.691  77.077  1.00  0.00     0.011 C 
ATOM     14  C   UNL     1      99.026  81.806  78.098  1.00  0.00     0.122 C 
BRANCH   6  15
ATOM     15  C   UNL     1     101.148  78.669  80.266  1.00  0.00     0.086 C 
ATOM     16  C   UNL     1     100.332  78.111  81.451  1.00  0.00     0.140 CG0
ATOM     17  C   UNL     1     101.647  77.433  79.573  1.00  0.00    -0.010 C 
ATOM     18  C   UNL     1     100.747  76.655  81.476  1.00  0.00     0.190 C 
ATOM     19  G   UNL     1     100.649  78.832  82.760  1.00  0.00     0.000 G0
ATOM     20  C   UNL     1     101.462  76.288  80.239  1.00  0.00    -0.008 C 
ATOM     21  O   UNL     1     100.489  75.861  82.367  1.00  0.00    -0.291 OA
ATOM     22  C   UNL     1     101.891  74.914  79.907  1.00  0.00     0.048 C 
BRANCH  16  23
ATOM     23  O   UNL     1      98.935  78.061  81.213  1.00  0.00    -0.381 OA
ATOM     24  H   UNL     1      98.528  78.853  81.601  1.00  0.00     0.212 HD
ENDBRANCH  16  23
ENDBRANCH   6  15
BRANCH   7  25
ATOM     25  C   UNL     1     102.533  82.322  77.593  1.00  0.00     0.135 C 
BRANCH  25  26
ATOM     26  C   UNL     1     102.224  83.162  76.379  1.00  0.00    -0.040 A 
ATOM     27  C   UNL     1     102.535  82.685  75.105  1.00  0.00     0.004 A 
ATOM     28  C   UNL     1     101.627  84.413  76.528  1.00  0.00     0.004 A 
ATOM     29  C   UNL     1     102.249  83.461  73.981  1.00  0.00     0.000 A 
ATOM     30  C   UNL     1     101.342  85.189  75.404  1.00  0.00     0.000 A 
ATOM     31  C   UNL     1     101.653  84.712  74.131  1.00  0.00     0.000 A 
ENDBRANCH  25  26
ENDBRANCH   7  25
BRANCH  14  32
ATOM     32  C   UNL     1      98.136  82.886  77.577  1.00  0.00    -0.046 C 
ATOM     33  C   UNL     1      97.344  83.644  78.601  1.00  0.00     0.042 C 
ATOM     34  C   UNL     1      98.049  83.164  76.267  1.00  0.00     0.010 C 
ENDBRANCH  14  32
ENDBRANCH   3   4
BRANCH   2  35
ATOM     35  C   UNL     1     100.646  78.864  82.785  1.00  0.00     0.078 CG0
ATOM     36  G   UNL     1     100.333  78.127  81.483  1.00  0.00     0.000 G0
ENDBRANCH   2  35
ENDBRANCH   1   2
BRANCH   1  37
ATOM     37  O   UNL     1     100.384  80.863  85.024  1.00  0.00    -0.461 OA
BRANCH  37  38
ATOM     38  C   UNL     1     100.105  82.011  85.729  1.00  0.00     0.310 C 
ATOM     39  O   UNL     1     100.701  82.382  86.731  1.00  0.00    -0.252 OA
BRANCH  38  40
ATOM     40  C   UNL     1      98.953  82.737  85.076  1.00  0.00     0.158 C 
BRANCH  40  41
ATOM     41  C   UNL     1      97.732  82.814  85.956  1.00  0.00    -0.033 A 
ATOM     42  C   UNL     1      97.621  83.830  86.906  1.00  0.00     0.054 A 
ATOM     43  C   UNL     1      96.714  81.872  85.820  1.00  0.00     0.008 A 
ATOM     44  C   UNL     1      96.491  83.902  87.721  1.00  0.00     0.160 A 
ATOM     45  C   UNL     1      95.583  81.944  86.635  1.00  0.00     0.050 A 
ATOM     46  C   UNL     1      95.472  82.958  87.585  1.00  0.00     0.157 A 
BRANCH  44  47
ATOM     47  O   UNL     1      96.394  84.898  88.645  1.00  0.00    -0.493 OA
ATOM     48  C   UNL     1      96.310  86.234  88.152  1.00  0.00     0.278 C 
ENDBRANCH  44  47
BRANCH  46  49
ATOM     49  O   UNL     1      94.364  83.019  88.374  1.00  0.00    -0.504 OA
ATOM     50  H   UNL     1      93.576  82.858  87.827  1.00  0.00     0.293 HD
ENDBRANCH  46  49
ENDBRANCH  40  41
ENDBRANCH  38  40
ENDBRANCH  37  38
ENDBRANCH   1  37
TORSDOF 11
ENDMDL
MODEL 7
REMARK VINA RESULT:    -6.468     15.383     18.591
REMARK INTER + INTRA:         -11.879
REMARK INTER:                 -11.516
REMARK INTRA:                  -0.363
REMARK UNBOUND:                -0.496
REMARK SMILES C=C(C)[C@]12C[C@@H](C)[C@@]34O[C@](Cc5ccccc5)(O[C@@H]1[C@@H]3C=C(COC(=O)Cc1ccc(O)c(OC)c1)C[C@]1(O)C(=O)C(C)=C[C@@H]41)O2
REMARK SMILES IDX 23 1 22 2 21 3 20 4 9 5 8 6 10 7 6 8 18 9 46 10 19 11 5 12
REMARK SMILES IDX 7 13 4 14 45 15 38 16 44 17 40 18 42 20 41 21 43 22 39 23
REMARK SMILES IDX 11 25 12 26 13 27 17 28 14 29 16 30 15 31 2 32 3 33 1 34
REMARK SMILES IDX 37 35 24 37 25 38 26 39 27 40 28 41 36 42 29 43 33 44 30 45
REMARK SMILES IDX 31 46 34 47 35 48 32 49
REMARK H PARENT 39 24 32 50
REMARK Flexibility Score: 90.00
ROOT
ATOM      1  C   UNL     1      92.876  93.760  90.988  1.00  0.00     0.264 C 
ENDROOT
BRANCH   1   2
ATOM      2  C   UNL     1      92.867  95.227  91.347  1.00  0.00    -0.033 C 
ATOM      3  C   UNL     1      93.964  95.972  91.103  1.00  0.00    -0.015 C 
BRANCH   3   4
ATOM      4  C   UNL     1      94.234  97.430  91.437  1.00  0.00     0.078 C 
ATOM      5  O   UNL     1      93.571  98.757  89.457  1.00  0.00    -0.319 OA
ATOM      6  C   UNL     1      93.256  98.523  90.865  1.00  0.00     0.095 C 
ATOM      7  C   UNL     1      94.975  98.836  89.145  1.00  0.00     0.289 C 
ATOM      8  C   UNL     1      93.495  99.858  91.684  1.00  0.00     0.023 C 
ATOM      9  O   UNL     1      95.660  97.651  89.542  1.00  0.00    -0.320 OA
ATOM     10  O   UNL     1      95.623  99.904  89.832  1.00  0.00    -0.313 OA
ATOM     11  C   UNL     1      95.657  97.823  90.967  1.00  0.00     0.170 C 
ATOM     12  C   UNL     1      94.986 100.000  92.122  1.00  0.00     0.049 C 
ATOM     13  C   UNL     1      93.042 101.151  90.986  1.00  0.00     0.011 C 
ATOM     14  C   UNL     1      95.935  99.339  91.122  1.00  0.00     0.122 C 
BRANCH   6  15
ATOM     15  C   UNL     1      91.791  97.999  90.852  1.00  0.00     0.086 C 
ATOM     16  C   UNL     1      91.334  97.226  92.107  1.00  0.00     0.140 CG0
ATOM     17  C   UNL     1      90.665  98.966  90.609  1.00  0.00    -0.010 C 
ATOM     18  C   UNL     1      89.875  97.613  92.216  1.00  0.00     0.190 C 
ATOM     19  G   UNL     1      91.530  95.718  91.958  1.00  0.00     0.000 G0
ATOM     20  C   UNL     1      89.565  98.759  91.340  1.00  0.00    -0.008 C 
ATOM     21  O   UNL     1      89.058  97.094  92.961  1.00  0.00    -0.291 OA
ATOM     22  C   UNL     1      88.258  99.447  91.308  1.00  0.00     0.048 C 
BRANCH  16  23
ATOM     23  O   UNL     1      91.903  97.705  93.315  1.00  0.00    -0.381 OA
ATOM     24  H   UNL     1      92.431  98.495  93.113  1.00  0.00     0.212 HD
ENDBRANCH  16  23
ENDBRANCH   6  15
BRANCH   7  25
ATOM     25  C   UNL     1      95.119  99.035  87.650  1.00  0.00     0.135 C 
BRANCH  25  26
ATOM     26  C   UNL     1      96.539  98.824  87.186  1.00  0.00    -0.040 A 
ATOM     27  C   UNL     1      96.842  97.765  86.329  1.00  0.00     0.004 A 
ATOM     28  C   UNL     1      97.548  99.687  87.612  1.00  0.00     0.004 A 
ATOM     29  C   UNL     1      98.155  97.570  85.899  1.00  0.00     0.000 A 
ATOM     30  C   UNL     1      98.861  99.491  87.182  1.00  0.00     0.000 A 
ATOM     31  C   UNL     1      99.164  98.432  86.326  1.00  0.00     0.000 A 
ENDBRANCH  25  26
ENDBRANCH   7  25
BRANCH  14  32
ATOM     32  C   UNL     1      97.371  99.618  91.423  1.00  0.00    -0.046 C 
ATOM     33  C   UNL     1      97.783 101.060  91.410  1.00  0.00     0.042 C 
ATOM     34  C   UNL     1      98.244  98.635  91.690  1.00  0.00     0.010 C 
ENDBRANCH  14  32
ENDBRANCH   3   4
BRANCH   2  35
ATOM     35  C   UNL     1      91.555  95.683  91.956  1.00  0.00     0.078 CG0
ATOM     36  G   UNL     1      91.336  97.189  92.099  1.00  0.00     0.000 G0
ENDBRANCH   2  35
ENDBRANCH   1   2
BRANCH   1  37
ATOM     37  O   UNL     1      93.410  93.019  92.063  1.00  0.00    -0.461 OA
BRANCH  37  38
ATOM     38  C   UNL     1      92.602  92.035  92.585  1.00  0.00     0.310 C 
ATOM     39  O   UNL     1      91.438  92.189  92.925  1.00  0.00    -0.252 OA
BRANCH  38  40
ATOM     40  C   UNL     1      93.376  90.740  92.671  1.00  0.00     0.158 C 
BRANCH  40  41
ATOM     41  C   UNL     1      94.208  90.470  91.444  1.00  0.00    -0.033 A 
ATOM     42  C   UNL     1      95.475  89.900  91.572  1.00  0.00     0.054 A 
ATOM     43  C   UNL     1      93.712  90.788  90.180  1.00  0.00     0.008 A 
ATOM     44  C   UNL     1      96.246  89.650  90.437  1.00  0.00     0.160 A 
ATOM     45  C   UNL     1      94.482  90.538  89.044  1.00  0.00     0.050 A 
ATOM     46  C   UNL     1      95.749  89.969  89.172  1.00  0.00     0.157 A 
BRANCH  44  47
ATOM     47  O   UNL     1      97.481  89.094  90.575  1.00  0.00    -0.493 OA
ATOM     48  C   UNL     1      98.521  89.938  91.065  1.00  0.00     0.278 C 
ENDBRANCH  44  47
BRANCH  46  49
ATOM     49  O   UNL     1      96.491  89.728  88.056  1.00  0.00    -0.504 OA
ATOM     50  H   UNL     1      97.347  89.351  88.321  1.00  0.00     0.293 HD
ENDBRANCH  46  49
ENDBRANCH  40  41
ENDBRANCH  38  40
ENDBRANCH  37  38
ENDBRANCH   1  37
TORSDOF 11
ENDMDL
MODEL 8
REMARK VINA RESULT:    -6.259     20.427     24.377
REMARK INTER + INTRA:         -11.512
REMARK INTER:                 -11.023
REMARK INTRA:                  -0.488
REMARK UNBOUND:                -0.496
REMARK SMILES C=C(C)[C@]12C[C@@H](C)[C@@]34O[C@](Cc5ccccc5)(O[C@@H]1[C@@H]3C=C(COC(=O)Cc1ccc(O)c(OC)c1)C[C@]1(O)C(=O)C(C)=C[C@@H]41)O2
REMARK SMILES IDX 23 1 22 2 21 3 20 4 9 5 8 6 10 7 6 8 18 9 46 10 19 11 5 12
REMARK SMILES IDX 7 13 4 14 45 15 38 16 44 17 40 18 42 20 41 21 43 22 39 23
REMARK SMILES IDX 11 25 12 26 13 27 17 28 14 29 16 30 15 31 2 32 3 33 1 34
REMARK SMILES IDX 37 35 24 37 25 38 26 39 27 40 28 41 36 42 29 43 33 44 30 45
REMARK SMILES IDX 31 46 34 47 35 48 32 49
REMARK H PARENT 39 24 32 50
REMARK Flexibility Score: 90.00
ROOT
ATOM      1  C   UNL     1      70.909  88.390  70.843  1.00  0.00     0.264 C 
ENDROOT
BRANCH   1   2
ATOM      2  C   UNL     1      72.306  88.532  70.286  1.00  0.00    -0.033 C 
ATOM      3  C   UNL     1      73.068  87.431  70.128  1.00  0.00    -0.015 C 
BRANCH   3   4
ATOM      4  C   UNL     1      74.512  87.314  69.668  1.00  0.00     0.078 C 
ATOM      5  O   UNL     1      74.462  86.990  67.216  1.00  0.00    -0.319 OA
ATOM      6  C   UNL     1      74.900  87.910  68.263  1.00  0.00     0.095 C 
ATOM      7  C   UNL     1      74.703  85.595  67.480  1.00  0.00     0.289 C 
ATOM      8  C   UNL     1      76.478  88.041  68.217  1.00  0.00     0.023 C 
ATOM      9  O   UNL     1      74.080  85.183  68.694  1.00  0.00    -0.320 OA
ATOM     10  O   UNL     1      76.089  85.307  67.641  1.00  0.00    -0.313 OA
ATOM     11  C   UNL     1      74.939  85.826  69.648  1.00  0.00     0.170 C 
ATOM     12  C   UNL     1      77.170  86.906  69.033  1.00  0.00     0.049 C 
ATOM     13  C   UNL     1      77.095  88.109  66.811  1.00  0.00     0.011 C 
ATOM     14  C   UNL     1      76.343  85.620  69.026  1.00  0.00     0.122 C 
BRANCH   6  15
ATOM     15  C   UNL     1      74.111  89.222  67.983  1.00  0.00     0.086 C 
ATOM     16  C   UNL     1      73.978  90.201  69.168  1.00  0.00     0.140 CG0
ATOM     17  C   UNL     1      74.534  90.107  66.844  1.00  0.00    -0.010 C 
ATOM     18  C   UNL     1      74.012  91.550  68.481  1.00  0.00     0.190 C 
ATOM     19  G   UNL     1      72.689  89.979  69.958  1.00  0.00     0.000 G0
ATOM     20  C   UNL     1      74.464  91.420  67.083  1.00  0.00    -0.008 C 
ATOM     21  O   UNL     1      73.755  92.621  69.010  1.00  0.00    -0.291 OA
ATOM     22  C   UNL     1      74.716  92.566  66.184  1.00  0.00     0.048 C 
BRANCH  16  23
ATOM     23  O   UNL     1      75.110  90.227  70.021  1.00  0.00    -0.381 OA
ATOM     24  H   UNL     1      75.889  90.466  69.491  1.00  0.00     0.212 HD
ENDBRANCH  16  23
ENDBRANCH   6  15
BRANCH   7  25
ATOM     25  C   UNL     1      74.150  84.789  66.321  1.00  0.00     0.135 C 
BRANCH  25  26
ATOM     26  C   UNL     1      75.090  83.687  65.901  1.00  0.00    -0.040 A 
ATOM     27  C   UNL     1      74.876  82.382  66.346  1.00  0.00     0.004 A 
ATOM     28  C   UNL     1      76.170  83.971  65.067  1.00  0.00     0.004 A 
ATOM     29  C   UNL     1      75.745  81.361  65.957  1.00  0.00     0.000 A 
ATOM     30  C   UNL     1      77.039  82.950  64.678  1.00  0.00     0.000 A 
ATOM     31  C   UNL     1      76.826  81.646  65.123  1.00  0.00     0.000 A 
ENDBRANCH  25  26
ENDBRANCH   7  25
BRANCH  14  32
ATOM     32  C   UNL     1      77.067  84.468  69.644  1.00  0.00    -0.046 C 
ATOM     33  C   UNL     1      78.118  83.815  68.797  1.00  0.00     0.042 C 
ATOM     34  C   UNL     1      76.792  84.042  70.886  1.00  0.00     0.010 C 
ENDBRANCH  14  32
ENDBRANCH   3   4
BRANCH   2  35
ATOM     35  C   UNL     1      72.673  89.967  69.957  1.00  0.00     0.078 CG0
ATOM     36  G   UNL     1      73.952  90.195  69.152  1.00  0.00     0.000 G0
ENDBRANCH   2  35
ENDBRANCH   1   2
BRANCH   1  37
ATOM     37  O   UNL     1      70.732  87.078  71.331  1.00  0.00    -0.461 OA
BRANCH  37  38
ATOM     38  C   UNL     1      69.442  86.599  71.334  1.00  0.00     0.310 C 
ATOM     39  O   UNL     1      68.436  87.290  71.416  1.00  0.00    -0.252 OA
BRANCH  38  40
ATOM     40  C   UNL     1      69.463  85.093  71.221  1.00  0.00     0.158 C 
BRANCH  40  41
ATOM     41  C   UNL     1      69.133  84.603  69.834  1.00  0.00    -0.033 A 
ATOM     42  C   UNL     1      70.090  84.678  68.822  1.00  0.00     0.054 A 
ATOM     43  C   UNL     1      67.871  84.074  69.564  1.00  0.00     0.008 A 
ATOM     44  C   UNL     1      69.784  84.224  67.538  1.00  0.00     0.160 A 
ATOM     45  C   UNL     1      67.566  83.620  68.280  1.00  0.00     0.050 A 
ATOM     46  C   UNL     1      68.521  83.695  67.268  1.00  0.00     0.157 A 
BRANCH  44  47
ATOM     47  O   UNL     1      70.727  84.303  66.558  1.00  0.00    -0.493 OA
ATOM     48  C   UNL     1      70.471  83.582  65.354  1.00  0.00     0.278 C 
ENDBRANCH  44  47
BRANCH  46  49
ATOM     49  O   UNL     1      68.212  83.248  66.019  1.00  0.00    -0.504 OA
ATOM     50  H   UNL     1      68.215  84.001  65.404  1.00  0.00     0.293 HD
ENDBRANCH  46  49
ENDBRANCH  40  41
ENDBRANCH  38  40
ENDBRANCH  37  38
ENDBRANCH   1  37
TORSDOF 11
ENDMDL
MODEL 9
REMARK VINA RESULT:    -6.193      4.896      7.816
REMARK INTER + INTRA:         -11.395
REMARK INTER:                  -9.521
REMARK INTRA:                  -1.875
REMARK UNBOUND:                -0.496
REMARK SMILES C=C(C)[C@]12C[C@@H](C)[C@@]34O[C@](Cc5ccccc5)(O[C@@H]1[C@@H]3C=C(COC(=O)Cc1ccc(O)c(OC)c1)C[C@]1(O)C(=O)C(C)=C[C@@H]41)O2
REMARK SMILES IDX 23 1 22 2 21 3 20 4 9 5 8 6 10 7 6 8 18 9 46 10 19 11 5 12
REMARK SMILES IDX 7 13 4 14 45 15 38 16 44 17 40 18 42 20 41 21 43 22 39 23
REMARK SMILES IDX 11 25 12 26 13 27 17 28 14 29 16 30 15 31 2 32 3 33 1 34
REMARK SMILES IDX 37 35 24 37 25 38 26 39 27 40 28 41 36 42 29 43 33 44 30 45
REMARK SMILES IDX 31 46 34 47 35 48 32 49
REMARK H PARENT 39 24 32 50
REMARK Flexibility Score: 90.00
ROOT
ATOM      1  C   UNL     1      90.252 107.534  71.532  1.00  0.00     0.264 C 
ENDROOT
BRANCH   1   2
ATOM      2  C   UNL     1      90.577 106.598  70.391  1.00  0.00    -0.033 C 
ATOM      3  C   UNL     1      91.127 105.397  70.660  1.00  0.00    -0.015 C 
BRANCH   3   4
ATOM      4  C   UNL     1      91.612 104.322  69.701  1.00  0.00     0.078 C 
ATOM      5  O   UNL     1      89.718 102.773  69.337  1.00  0.00    -0.319 OA
ATOM      6  C   UNL     1      90.590 103.730  68.660  1.00  0.00     0.095 C 
ATOM      7  C   UNL     1      90.376 101.885  70.260  1.00  0.00     0.289 C 
ATOM      8  C   UNL     1      91.425 102.978  67.543  1.00  0.00     0.023 C 
ATOM      9  O   UNL     1      91.072 102.611  71.269  1.00  0.00    -0.320 OA
ATOM     10  O   UNL     1      91.358 101.073  69.623  1.00  0.00    -0.313 OA
ATOM     11  C   UNL     1      92.173 103.119  70.500  1.00  0.00     0.170 C 
ATOM     12  C   UNL     1      92.717 102.334  68.131  1.00  0.00     0.049 C 
ATOM     13  C   UNL     1      90.649 101.923  66.737  1.00  0.00     0.011 C 
ATOM     14  C   UNL     1      92.528 101.917  69.590  1.00  0.00     0.122 C 
BRANCH   6  15
ATOM     15  C   UNL     1      89.626 104.837  68.143  1.00  0.00     0.086 C 
ATOM     16  C   UNL     1      90.268 106.202  67.822  1.00  0.00     0.140 CG0
ATOM     17  C   UNL     1      88.767 104.563  66.941  1.00  0.00    -0.010 C 
ATOM     18  C   UNL     1      89.442 106.683  66.647  1.00  0.00     0.190 C 
ATOM     19  G   UNL     1      90.210 107.161  69.010  1.00  0.00     0.000 G0
ATOM     20  C   UNL     1      88.621 105.588  66.095  1.00  0.00    -0.008 C 
ATOM     21  O   UNL     1      89.474 107.808  66.172  1.00  0.00    -0.291 OA
ATOM     22  C   UNL     1      87.797 105.706  64.875  1.00  0.00     0.048 C 
BRANCH  16  23
ATOM     23  O   UNL     1      91.582 106.109  67.296  1.00  0.00    -0.381 OA
ATOM     24  H   UNL     1      92.073 106.906  67.554  1.00  0.00     0.212 HD
ENDBRANCH  16  23
ENDBRANCH   6  15
BRANCH   7  25
ATOM     25  C   UNL     1      89.325 101.000  70.899  1.00  0.00     0.135 C 
BRANCH  25  26
ATOM     26  C   UNL     1      89.151  99.700  70.154  1.00  0.00    -0.040 A 
ATOM     27  C   UNL     1      88.583  99.698  68.879  1.00  0.00     0.004 A 
ATOM     28  C   UNL     1      89.560  98.501  70.736  1.00  0.00     0.004 A 
ATOM     29  C   UNL     1      88.422  98.496  68.189  1.00  0.00     0.000 A 
ATOM     30  C   UNL     1      89.399  97.299  70.046  1.00  0.00     0.000 A 
ATOM     31  C   UNL     1      88.830  97.297  68.773  1.00  0.00     0.000 A 
ENDBRANCH  25  26
ENDBRANCH   7  25
BRANCH  14  32
ATOM     32  C   UNL     1      93.686 101.135  70.119  1.00  0.00    -0.046 C 
ATOM     33  C   UNL     1      93.355 100.011  71.054  1.00  0.00     0.042 C 
ATOM     34  C   UNL     1      94.951 101.423  69.777  1.00  0.00     0.010 C 
ENDBRANCH  14  32
ENDBRANCH   3   4
BRANCH   2  35
ATOM     35  C   UNL     1      90.215 107.168  69.032  1.00  0.00     0.078 CG0
ATOM     36  G   UNL     1      90.254 106.212  67.841  1.00  0.00     0.000 G0
ENDBRANCH   2  35
ENDBRANCH   1   2
BRANCH   1  37
ATOM     37  O   UNL     1      89.379 106.886  72.432  1.00  0.00    -0.461 OA
BRANCH  37  38
ATOM     38  C   UNL     1      88.082 106.716  72.006  1.00  0.00     0.310 C 
ATOM     39  O   UNL     1      87.348 107.613  71.614  1.00  0.00    -0.252 OA
BRANCH  38  40
ATOM     40  C   UNL     1      87.708 105.256  72.097  1.00  0.00     0.158 C 
BRANCH  40  41
ATOM     41  C   UNL     1      87.720 104.732  73.510  1.00  0.00    -0.033 A 
ATOM     42  C   UNL     1      86.837 105.256  74.455  1.00  0.00     0.054 A 
ATOM     43  C   UNL     1      88.614 103.725  73.873  1.00  0.00     0.008 A 
ATOM     44  C   UNL     1      86.849 104.772  75.764  1.00  0.00     0.160 A 
ATOM     45  C   UNL     1      88.626 103.241  75.181  1.00  0.00     0.050 A 
ATOM     46  C   UNL     1      87.744 103.764  76.127  1.00  0.00     0.157 A 
BRANCH  44  47
ATOM     47  O   UNL     1      85.983 105.290  76.678  1.00  0.00    -0.493 OA
ATOM     48  C   UNL     1      86.268 106.598  77.172  1.00  0.00     0.278 C 
ENDBRANCH  44  47
BRANCH  46  49
ATOM     49  O   UNL     1      87.764 103.283  77.400  1.00  0.00    -0.504 OA
ATOM     50  H   UNL     1      87.442 102.365  77.397  1.00  0.00     0.293 HD
ENDBRANCH  46  49
ENDBRANCH  40  41
ENDBRANCH  38  40
ENDBRANCH  37  38
ENDBRANCH   1  37
TORSDOF 11
ENDMDL
MODEL 10
REMARK VINA RESULT:    -5.488     17.520     20.892
REMARK INTER + INTRA:         -10.155
REMARK INTER:                  -9.096
REMARK INTRA:                  -1.059
REMARK UNBOUND:                -0.496
REMARK SMILES C=C(C)[C@]12C[C@@H](C)[C@@]34O[C@](Cc5ccccc5)(O[C@@H]1[C@@H]3C=C(COC(=O)Cc1ccc(O)c(OC)c1)C[C@]1(O)C(=O)C(C)=C[C@@H]41)O2
REMARK SMILES IDX 23 1 22 2 21 3 20 4 9 5 8 6 10 7 6 8 18 9 46 10 19 11 5 12
REMARK SMILES IDX 7 13 4 14 45 15 38 16 44 17 40 18 42 20 41 21 43 22 39 23
REMARK SMILES IDX 11 25 12 26 13 27 17 28 14 29 16 30 15 31 2 32 3 33 1 34
REMARK SMILES IDX 37 35 24 37 25 38 26 39 27 40 28 41 36 42 29 43 33 44 30 45
REMARK SMILES IDX 31 46 34 47 35 48 32 49
REMARK H PARENT 39 24 32 50
REMARK Flexibility Score: 90.00
ROOT
ATOM      1  C   UNL     1      93.087  93.943  90.922  1.00  0.00     0.264 C 
ENDROOT
BRANCH   1   2
ATOM      2  C   UNL     1      92.503  95.299  91.241  1.00  0.00    -0.033 C 
ATOM      3  C   UNL     1      91.542  95.398  92.182  1.00  0.00    -0.015 C 
BRANCH   3   4
ATOM      4  C   UNL     1      90.749  96.617  92.627  1.00  0.00     0.078 C 
ATOM      5  O   UNL     1      91.966  97.610  94.538  1.00  0.00    -0.319 OA
ATOM      6  C   UNL     1      91.538  97.868  93.165  1.00  0.00     0.095 C 
ATOM      7  C   UNL     1      90.983  96.981  95.382  1.00  0.00     0.289 C 
ATOM      8  C   UNL     1      90.546  99.104  93.149  1.00  0.00     0.023 C 
ATOM      9  O   UNL     1      90.548  95.740  94.833  1.00  0.00    -0.320 OA
ATOM     10  O   UNL     1      89.807  97.773  95.525  1.00  0.00    -0.313 OA
ATOM     11  C   UNL     1      89.748  96.216  93.739  1.00  0.00     0.170 C 
ATOM     12  C   UNL     1      89.079  98.662  93.441  1.00  0.00     0.049 C 
ATOM     13  C   UNL     1      90.926 100.266  94.081  1.00  0.00     0.011 C 
ATOM     14  C   UNL     1      89.028  97.439  94.358  1.00  0.00     0.122 C 
BRANCH   6  15
ATOM     15  C   UNL     1      92.864  98.065  92.375  1.00  0.00     0.086 C 
ATOM     16  C   UNL     1      92.781  97.870  90.847  1.00  0.00     0.140 CG0
ATOM     17  C   UNL     1      93.625  99.353  92.522  1.00  0.00    -0.010 C 
ATOM     18  C   UNL     1      93.784  98.881  90.333  1.00  0.00     0.190 C 
ATOM     19  G   UNL     1      93.124  96.441  90.428  1.00  0.00     0.000 G0
ATOM     20  C   UNL     1      94.177  99.824  91.398  1.00  0.00    -0.008 C 
ATOM     21  O   UNL     1      94.189  98.956  89.183  1.00  0.00    -0.291 OA
ATOM     22  C   UNL     1      95.048 100.998  91.185  1.00  0.00     0.048 C 
BRANCH  16  23
ATOM     23  O   UNL     1      91.552  98.294  90.280  1.00  0.00    -0.381 OA
ATOM     24  H   UNL     1      91.096  97.517  89.919  1.00  0.00     0.212 HD
ENDBRANCH  16  23
ENDBRANCH   6  15
BRANCH   7  25
ATOM     25  C   UNL     1      91.605  96.749  96.744  1.00  0.00     0.135 C 
BRANCH  25  26
ATOM     26  C   UNL     1      93.095  96.988  96.734  1.00  0.00    -0.040 A 
ATOM     27  C   UNL     1      93.960  95.976  96.316  1.00  0.00     0.004 A 
ATOM     28  C   UNL     1      93.607  98.219  97.140  1.00  0.00     0.004 A 
ATOM     29  C   UNL     1      95.338  96.196  96.306  1.00  0.00     0.000 A 
ATOM     30  C   UNL     1      94.985  98.440  97.130  1.00  0.00     0.000 A 
ATOM     31  C   UNL     1      95.849  97.428  96.713  1.00  0.00     0.000 A 
ENDBRANCH  25  26
ENDBRANCH   7  25
BRANCH  14  32
ATOM     32  C   UNL     1      87.639  97.110  94.798  1.00  0.00    -0.046 C 
ATOM     33  C   UNL     1      87.182  97.743  96.078  1.00  0.00     0.042 C 
ATOM     34  C   UNL     1      86.845  96.293  94.089  1.00  0.00     0.010 C 
ENDBRANCH  14  32
ENDBRANCH   3   4
BRANCH   2  35
ATOM     35  C   UNL     1      93.116  96.419  90.422  1.00  0.00     0.078 CG0
ATOM     36  G   UNL     1      92.808  97.852  90.856  1.00  0.00     0.000 G0
ENDBRANCH   2  35
ENDBRANCH   1   2
BRANCH   1  37
ATOM     37  O   UNL     1      93.644  93.387  92.094  1.00  0.00    -0.461 OA
BRANCH  37  38
ATOM     38  C   UNL     1      93.426  92.044  92.293  1.00  0.00     0.310 C 
ATOM     39  O   UNL     1      93.555  91.462  93.361  1.00  0.00    -0.252 OA
BRANCH  38  40
ATOM     40  C   UNL     1      93.006  91.403  90.991  1.00  0.00     0.158 C 
BRANCH  40  41
ATOM     41  C   UNL     1      93.977  90.354  90.513  1.00  0.00    -0.033 A 
ATOM     42  C   UNL     1      93.777  89.014  90.848  1.00  0.00     0.054 A 
ATOM     43  C   UNL     1      95.074  90.721  89.734  1.00  0.00     0.008 A 
ATOM     44  C   UNL     1      94.675  88.043  90.405  1.00  0.00     0.160 A 
ATOM     45  C   UNL     1      95.972  89.750  89.291  1.00  0.00     0.050 A 
ATOM     46  C   UNL     1      95.773  88.411  89.626  1.00  0.00     0.157 A 
BRANCH  44  47
ATOM     47  O   UNL     1      94.469  86.738  90.738  1.00  0.00    -0.493 OA
ATOM     48  C   UNL     1      93.739  85.939  89.810  1.00  0.00     0.278 C 
ENDBRANCH  44  47
BRANCH  46  49
ATOM     49  O   UNL     1      96.656  87.472  89.187  1.00  0.00    -0.504 OA
ATOM     50  H   UNL     1      96.540  87.352  88.229  1.00  0.00     0.293 HD
ENDBRANCH  46  49
ENDBRANCH  40  41
ENDBRANCH  38  40
ENDBRANCH  37  38
ENDBRANCH   1  37
TORSDOF 11
ENDMDL
