MODEL 1
REMARK VINA RESULT:    -7.217      0.000      0.000
REMARK INTER + INTRA:         -12.339
REMARK INTER:                 -11.225
REMARK INTRA:                  -1.114
REMARK UNBOUND:                -1.114
REMARK SMILES COc1cc(CNC(=O)CCCC/C=C/C(C)C)ccc1O
REMARK SMILES IDX 10 1 8 2 7 3 9 5 6 6 5 7 3 8 21 9 4 10 20 11 19 12 2 13 1 14
REMARK SMILES IDX 22 15 11 17 12 18 13 19 14 20 15 21 16 22 17 23 18 24
REMARK H PARENT 7 4 22 16
REMARK Flexibility Score: inf
ROOT
ATOM      1  C   UNL     1      92.594  95.460  75.467  1.00  0.00     0.100 C 
ENDROOT
BRANCH   1   2
ATOM      2  C   UNL     1      93.985  95.080  75.782  1.00  0.00     0.220 C 
ATOM      3  N   UNL     1      94.578  95.515  76.929  1.00  0.00    -0.352 N 
ATOM      4  H   UNL     1      94.005  96.117  77.503  1.00  0.00     0.163 HD
ATOM      5  O   UNL     1      94.590  94.330  74.978  1.00  0.00    -0.275 OA
BRANCH   3   6
ATOM      6  C   UNL     1      95.904  95.178  77.339  1.00  0.00     0.151 C 
BRANCH   6   7
ATOM      7  C   UNL     1      95.905  94.447  78.636  1.00  0.00    -0.025 A 
ATOM      8  C   UNL     1      96.882  94.066  80.863  1.00  0.00     0.160 A 
ATOM      9  C   UNL     1      95.910  93.077  81.121  1.00  0.00     0.157 A 
ATOM     10  C   UNL     1      96.872  94.739  79.624  1.00  0.00     0.056 A 
ATOM     11  C   UNL     1      94.952  92.761  80.138  1.00  0.00     0.050 A 
ATOM     12  C   UNL     1      94.942  93.448  78.908  1.00  0.00     0.009 A 
BRANCH   8  13
ATOM     13  O   UNL     1      97.857  94.330  81.791  1.00  0.00    -0.493 OA
ATOM     14  C   UNL     1      99.198  94.248  81.273  1.00  0.00     0.278 C 
ENDBRANCH   8  13
BRANCH   9  15
ATOM     15  O   UNL     1      95.884  92.419  82.309  1.00  0.00    -0.504 OA
ATOM     16  H   UNL     1      94.974  92.255  82.565  1.00  0.00     0.293 HD
ENDBRANCH   9  15
ENDBRANCH   6   7
ENDBRANCH   3   6
ENDBRANCH   1   2
BRANCH   1  17
ATOM     17  C   UNL     1      91.783  95.777  76.752  1.00  0.00     0.010 C 
BRANCH  17  18
ATOM     18  C   UNL     1      90.798  94.638  77.142  1.00  0.00     0.005 C 
BRANCH  18  19
ATOM     19  C   UNL     1      91.529  93.300  77.433  1.00  0.00     0.027 C 
BRANCH  19  20
ATOM     20  C   UNL     1      90.904  92.176  76.751  1.00  0.00    -0.031 C 
ATOM     21  C   UNL     1      90.322  92.255  75.541  1.00  0.00    -0.028 C 
BRANCH  21  22
ATOM     22  C   UNL     1      89.717  91.107  74.865  1.00  0.00     0.005 C 
ATOM     23  C   UNL     1      89.153  91.478  73.466  1.00  0.00     0.012 C 
ATOM     24  C   UNL     1      90.741  89.947  74.759  1.00  0.00     0.012 C 
ENDBRANCH  21  22
ENDBRANCH  19  20
ENDBRANCH  18  19
ENDBRANCH  17  18
ENDBRANCH   1  17
TORSDOF 10
ENDMDL
MODEL 2
REMARK VINA RESULT:    -6.477      1.469      2.181
REMARK INTER + INTRA:         -11.188
REMARK INTER:                 -10.240
REMARK INTRA:                  -0.948
REMARK UNBOUND:                -1.114
REMARK SMILES COc1cc(CNC(=O)CCCC/C=C/C(C)C)ccc1O
REMARK SMILES IDX 10 1 8 2 7 3 9 5 6 6 5 7 3 8 21 9 4 10 20 11 19 12 2 13 1 14
REMARK SMILES IDX 22 15 11 17 12 18 13 19 14 20 15 21 16 22 17 23 18 24
REMARK H PARENT 7 4 22 16
REMARK Flexibility Score: inf
ROOT
ATOM      1  C   UNL     1      93.208  94.587  76.296  1.00  0.00     0.100 C 
ENDROOT
BRANCH   1   2
ATOM      2  C   UNL     1      94.266  93.961  77.112  1.00  0.00     0.220 C 
ATOM      3  N   UNL     1      94.202  93.998  78.473  1.00  0.00    -0.352 N 
ATOM      4  H   UNL     1      93.407  94.496  78.849  1.00  0.00     0.163 HD
ATOM      5  O   UNL     1      95.205  93.378  76.519  1.00  0.00    -0.275 OA
BRANCH   3   6
ATOM      6  C   UNL     1      95.155  93.397  79.351  1.00  0.00     0.151 C 
BRANCH   6   7
ATOM      7  C   UNL     1      96.022  94.418  79.999  1.00  0.00    -0.025 A 
ATOM      8  C   UNL     1      98.149  95.030  81.077  1.00  0.00     0.160 A 
ATOM      9  C   UNL     1      97.695  96.358  81.219  1.00  0.00     0.157 A 
ATOM     10  C   UNL     1      97.308  94.074  80.471  1.00  0.00     0.056 A 
ATOM     11  C   UNL     1      96.408  96.712  80.770  1.00  0.00     0.050 A 
ATOM     12  C   UNL     1      95.580  95.753  80.156  1.00  0.00     0.009 A 
BRANCH   8  13
ATOM     13  O   UNL     1      99.375  94.666  81.572  1.00  0.00    -0.493 OA
ATOM     14  C   UNL     1      99.330  94.097  82.893  1.00  0.00     0.278 C 
ENDBRANCH   8  13
BRANCH   9  15
ATOM     15  O   UNL     1      98.485  97.307  81.786  1.00  0.00    -0.504 OA
ATOM     16  H   UNL     1      98.034  97.689  82.542  1.00  0.00     0.293 HD
ENDBRANCH   9  15
ENDBRANCH   6   7
ENDBRANCH   3   6
ENDBRANCH   1   2
BRANCH   1  17
ATOM     17  C   UNL     1      92.090  95.202  77.180  1.00  0.00     0.010 C 
BRANCH  17  18
ATOM     18  C   UNL     1      90.727  94.471  77.027  1.00  0.00     0.005 C 
BRANCH  18  19
ATOM     19  C   UNL     1      90.712  93.092  77.741  1.00  0.00     0.027 C 
BRANCH  19  20
ATOM     20  C   UNL     1      90.156  92.045  76.898  1.00  0.00    -0.031 C 
ATOM     21  C   UNL     1      90.296  91.997  75.560  1.00  0.00    -0.028 C 
BRANCH  21  22
ATOM     22  C   UNL     1      89.745  90.924  74.734  1.00  0.00     0.005 C 
ATOM     23  C   UNL     1      89.213  91.444  73.369  1.00  0.00     0.012 C 
ATOM     24  C   UNL     1      90.803  89.809  74.526  1.00  0.00     0.012 C 
ENDBRANCH  21  22
ENDBRANCH  19  20
ENDBRANCH  18  19
ENDBRANCH  17  18
ENDBRANCH   1  17
TORSDOF 10
ENDMDL
MODEL 3
REMARK VINA RESULT:    -6.268      2.028      3.095
REMARK INTER + INTRA:         -10.864
REMARK INTER:                  -9.959
REMARK INTRA:                  -0.904
REMARK UNBOUND:                -1.114
REMARK SMILES COc1cc(CNC(=O)CCCC/C=C/C(C)C)ccc1O
REMARK SMILES IDX 10 1 8 2 7 3 9 5 6 6 5 7 3 8 21 9 4 10 20 11 19 12 2 13 1 14
REMARK SMILES IDX 22 15 11 17 12 18 13 19 14 20 15 21 16 22 17 23 18 24
REMARK H PARENT 7 4 22 16
REMARK Flexibility Score: inf
ROOT
ATOM      1  C   UNL     1      94.133  93.715  77.061  1.00  0.00     0.100 C 
ENDROOT
BRANCH   1   2
ATOM      2  C   UNL     1      95.036  93.282  78.144  1.00  0.00     0.220 C 
ATOM      3  N   UNL     1      94.669  93.422  79.449  1.00  0.00    -0.352 N 
ATOM      4  H   UNL     1      93.768  93.856  79.594  1.00  0.00     0.163 HD
ATOM      5  O   UNL     1      96.134  92.762  77.828  1.00  0.00    -0.275 OA
BRANCH   3   6
ATOM      6  C   UNL     1      95.455  93.007  80.566  1.00  0.00     0.151 C 
BRANCH   6   7
ATOM      7  C   UNL     1      96.487  94.021  80.916  1.00  0.00    -0.025 A 
ATOM      8  C   UNL     1      97.170  96.377  81.127  1.00  0.00     0.160 A 
ATOM      9  C   UNL     1      98.436  95.968  81.598  1.00  0.00     0.157 A 
ATOM     10  C   UNL     1      96.210  95.400  80.789  1.00  0.00     0.056 A 
ATOM     11  C   UNL     1      98.733  94.595  81.711  1.00  0.00     0.050 A 
ATOM     12  C   UNL     1      97.763  93.628  81.382  1.00  0.00     0.009 A 
BRANCH   8  13
ATOM     13  O   UNL     1      96.899  97.710  80.953  1.00  0.00    -0.493 OA
ATOM     14  C   UNL     1      96.290  98.339  82.095  1.00  0.00     0.278 C 
ENDBRANCH   8  13
BRANCH   9  15
ATOM     15  O   UNL     1      99.378  96.882  81.944  1.00  0.00    -0.504 OA
ATOM     16  H   UNL     1     100.120  96.823  81.338  1.00  0.00     0.293 HD
ENDBRANCH   9  15
ENDBRANCH   6   7
ENDBRANCH   3   6
ENDBRANCH   1   2
BRANCH   1  17
ATOM     17  C   UNL     1      93.236  94.902  77.504  1.00  0.00     0.010 C 
BRANCH  17  18
ATOM     18  C   UNL     1      91.732  94.679  77.179  1.00  0.00     0.005 C 
BRANCH  18  19
ATOM     19  C   UNL     1      91.255  93.247  77.545  1.00  0.00     0.027 C 
BRANCH  19  20
ATOM     20  C   UNL     1      90.665  92.560  76.406  1.00  0.00    -0.031 C 
ATOM     21  C   UNL     1      91.319  91.670  75.638  1.00  0.00    -0.028 C 
BRANCH  21  22
ATOM     22  C   UNL     1      90.699  90.975  74.510  1.00  0.00     0.005 C 
ATOM     23  C   UNL     1      90.991  89.449  74.525  1.00  0.00     0.012 C 
ATOM     24  C   UNL     1      89.172  91.246  74.487  1.00  0.00     0.012 C 
ENDBRANCH  21  22
ENDBRANCH  19  20
ENDBRANCH  18  19
ENDBRANCH  17  18
ENDBRANCH   1  17
TORSDOF 10
ENDMDL
MODEL 4
REMARK VINA RESULT:    -5.886     12.147     14.235
REMARK INTER + INTRA:         -10.269
REMARK INTER:                  -9.602
REMARK INTRA:                  -0.667
REMARK UNBOUND:                -1.114
REMARK SMILES COc1cc(CNC(=O)CCCC/C=C/C(C)C)ccc1O
REMARK SMILES IDX 10 1 8 2 7 3 9 5 6 6 5 7 3 8 21 9 4 10 20 11 19 12 2 13 1 14
REMARK SMILES IDX 22 15 11 17 12 18 13 19 14 20 15 21 16 22 17 23 18 24
REMARK H PARENT 7 4 22 16
REMARK Flexibility Score: inf
ROOT
ATOM      1  C   UNL     1      96.343  80.046  82.452  1.00  0.00     0.100 C 
ENDROOT
BRANCH   1   2
ATOM      2  C   UNL     1      97.243  79.993  81.284  1.00  0.00     0.220 C 
ATOM      3  N   UNL     1      97.270  81.017  80.385  1.00  0.00    -0.352 N 
ATOM      4  H   UNL     1      96.623  81.769  80.576  1.00  0.00     0.163 HD
ATOM      5  O   UNL     1      97.993  78.995  81.159  1.00  0.00    -0.275 OA
BRANCH   3   6
ATOM      6  C   UNL     1      98.125  81.077  79.243  1.00  0.00     0.151 C 
BRANCH   6   7
ATOM      7  C   UNL     1      97.468  81.775  78.104  1.00  0.00    -0.025 A 
ATOM      8  C   UNL     1      97.507  82.528  75.760  1.00  0.00     0.160 A 
ATOM      9  C   UNL     1      96.221  83.086  75.917  1.00  0.00     0.157 A 
ATOM     10  C   UNL     1      98.118  81.880  76.854  1.00  0.00     0.056 A 
ATOM     11  C   UNL     1      95.569  83.006  77.163  1.00  0.00     0.050 A 
ATOM     12  C   UNL     1      96.182  82.347  78.247  1.00  0.00     0.009 A 
BRANCH   8  13
ATOM     13  O   UNL     1      98.173  82.660  74.569  1.00  0.00    -0.493 OA
ATOM     14  C   UNL     1      99.302  81.779  74.427  1.00  0.00     0.278 C 
ENDBRANCH   8  13
BRANCH   9  15
ATOM     15  O   UNL     1      95.599  83.705  74.880  1.00  0.00    -0.504 OA
ATOM     16  H   UNL     1      95.039  83.075  74.421  1.00  0.00     0.293 HD
ENDBRANCH   9  15
ENDBRANCH   6   7
ENDBRANCH   3   6
ENDBRANCH   1   2
BRANCH   1  17
ATOM     17  C   UNL     1      96.495  81.379  83.232  1.00  0.00     0.010 C 
BRANCH  17  18
ATOM     18  C   UNL     1      95.137  81.940  83.742  1.00  0.00     0.005 C 
BRANCH  18  19
ATOM     19  C   UNL     1      94.682  81.272  85.067  1.00  0.00     0.027 C 
BRANCH  19  20
ATOM     20  C   UNL     1      93.385  80.625  84.937  1.00  0.00    -0.031 C 
ATOM     21  C   UNL     1      92.232  81.282  84.712  1.00  0.00    -0.028 C 
BRANCH  21  22
ATOM     22  C   UNL     1      90.942  80.609  84.565  1.00  0.00     0.005 C 
ATOM     23  C   UNL     1      90.763  79.448  85.582  1.00  0.00     0.012 C 
ATOM     24  C   UNL     1      89.786  81.635  84.687  1.00  0.00     0.012 C 
ENDBRANCH  21  22
ENDBRANCH  19  20
ENDBRANCH  18  19
ENDBRANCH  17  18
ENDBRANCH   1  17
TORSDOF 10
ENDMDL
MODEL 5
REMARK VINA RESULT:    -5.825     13.179     15.536
REMARK INTER + INTRA:         -10.173
REMARK INTER:                  -9.432
REMARK INTRA:                  -0.741
REMARK UNBOUND:                -1.114
REMARK SMILES COc1cc(CNC(=O)CCCC/C=C/C(C)C)ccc1O
REMARK SMILES IDX 10 1 8 2 7 3 9 5 6 6 5 7 3 8 21 9 4 10 20 11 19 12 2 13 1 14
REMARK SMILES IDX 22 15 11 17 12 18 13 19 14 20 15 21 16 22 17 23 18 24
REMARK H PARENT 7 4 22 16
REMARK Flexibility Score: inf
ROOT
ATOM      1  C   UNL     1      96.258  81.115  83.937  1.00  0.00     0.100 C 
ENDROOT
BRANCH   1   2
ATOM      2  C   UNL     1      94.983  81.660  84.440  1.00  0.00     0.220 C 
ATOM      3  N   UNL     1      93.861  80.886  84.462  1.00  0.00    -0.352 N 
ATOM      4  H   UNL     1      93.980  79.953  84.094  1.00  0.00     0.163 HD
ATOM      5  O   UNL     1      94.969  82.841  84.866  1.00  0.00    -0.275 OA
BRANCH   3   6
ATOM      6  C   UNL     1      92.590  81.307  84.958  1.00  0.00     0.151 C 
BRANCH   6   7
ATOM      7  C   UNL     1      91.554  80.254  84.770  1.00  0.00    -0.025 A 
ATOM      8  C   UNL     1      89.248  79.616  84.189  1.00  0.00     0.160 A 
ATOM      9  C   UNL     1      89.573  78.258  84.388  1.00  0.00     0.157 A 
ATOM     10  C   UNL     1      90.240  80.601  84.384  1.00  0.00     0.056 A 
ATOM     11  C   UNL     1      90.874  77.900  84.792  1.00  0.00     0.050 A 
ATOM     12  C   UNL     1      91.861  78.889  84.972  1.00  0.00     0.009 A 
BRANCH   8  13
ATOM     13  O   UNL     1      87.966  79.976  83.860  1.00  0.00    -0.493 OA
ATOM     14  C   UNL     1      87.563  81.256  84.381  1.00  0.00     0.278 C 
ENDBRANCH   8  13
BRANCH   9  15
ATOM     15  O   UNL     1      88.646  77.285  84.196  1.00  0.00    -0.504 OA
ATOM     16  H   UNL     1      87.820  77.681  83.908  1.00  0.00     0.293 HD
ENDBRANCH   9  15
ENDBRANCH   6   7
ENDBRANCH   3   6
ENDBRANCH   1   2
BRANCH   1  17
ATOM     17  C   UNL     1      96.031  79.913  82.983  1.00  0.00     0.010 C 
BRANCH  17  18
ATOM     18  C   UNL     1      96.665  80.126  81.579  1.00  0.00     0.005 C 
BRANCH  18  19
ATOM     19  C   UNL     1      97.284  81.541  81.420  1.00  0.00     0.027 C 
BRANCH  19  20
ATOM     20  C   UNL     1      97.049  82.094  80.095  1.00  0.00    -0.031 C 
ATOM     21  C   UNL     1      97.326  81.450  78.946  1.00  0.00    -0.028 C 
BRANCH  21  22
ATOM     22  C   UNL     1      97.063  82.019  77.624  1.00  0.00     0.005 C 
ATOM     23  C   UNL     1      97.230  80.972  76.489  1.00  0.00     0.012 C 
ATOM     24  C   UNL     1      95.649  82.655  77.586  1.00  0.00     0.012 C 
ENDBRANCH  21  22
ENDBRANCH  19  20
ENDBRANCH  18  19
ENDBRANCH  17  18
ENDBRANCH   1  17
TORSDOF 10
ENDMDL
MODEL 6
REMARK VINA RESULT:    -5.805      6.890     11.006
REMARK INTER + INTRA:         -10.142
REMARK INTER:                  -9.442
REMARK INTRA:                  -0.700
REMARK UNBOUND:                -1.114
REMARK SMILES COc1cc(CNC(=O)CCCC/C=C/C(C)C)ccc1O
REMARK SMILES IDX 10 1 8 2 7 3 9 5 6 6 5 7 3 8 21 9 4 10 20 11 19 12 2 13 1 14
REMARK SMILES IDX 22 15 11 17 12 18 13 19 14 20 15 21 16 22 17 23 18 24
REMARK H PARENT 7 4 22 16
REMARK Flexibility Score: inf
ROOT
ATOM      1  C   UNL     1      93.672 100.518  73.373  1.00  0.00     0.100 C 
ENDROOT
BRANCH   1   2
ATOM      2  C   UNL     1      92.572 101.151  72.619  1.00  0.00     0.220 C 
ATOM      3  N   UNL     1      91.994 100.507  71.567  1.00  0.00    -0.352 N 
ATOM      4  H   UNL     1      92.392  99.604  71.349  1.00  0.00     0.163 HD
ATOM      5  O   UNL     1      92.175 102.282  72.990  1.00  0.00    -0.275 OA
BRANCH   3   6
ATOM      6  C   UNL     1      90.906 101.018  70.796  1.00  0.00     0.151 C 
BRANCH   6   7
ATOM      7  C   UNL     1      90.336  99.977  69.898  1.00  0.00    -0.025 A 
ATOM      8  C   UNL     1      89.217  99.362  67.793  1.00  0.00     0.160 A 
ATOM      9  C   UNL     1      89.262  98.002  68.165  1.00  0.00     0.157 A 
ATOM     10  C   UNL     1      89.752 100.335  68.663  1.00  0.00     0.056 A 
ATOM     11  C   UNL     1      89.824  97.631  69.403  1.00  0.00     0.050 A 
ATOM     12  C   UNL     1      90.366  98.609  70.259  1.00  0.00     0.009 A 
BRANCH   8  13
ATOM     13  O   UNL     1      88.612  99.734  66.619  1.00  0.00    -0.493 OA
ATOM     14  C   UNL     1      87.731 100.865  66.746  1.00  0.00     0.278 C 
ENDBRANCH   8  13
BRANCH   9  15
ATOM     15  O   UNL     1      88.768  97.039  67.345  1.00  0.00    -0.504 OA
ATOM     16  H   UNL     1      89.482  96.463  67.061  1.00  0.00     0.293 HD
ENDBRANCH   9  15
ENDBRANCH   6   7
ENDBRANCH   3   6
ENDBRANCH   1   2
BRANCH   1  17
ATOM     17  C   UNL     1      93.700  98.980  73.160  1.00  0.00     0.010 C 
BRANCH  17  18
ATOM     18  C   UNL     1      93.686  98.185  74.495  1.00  0.00     0.005 C 
BRANCH  18  19
ATOM     19  C   UNL     1      93.914  96.664  74.279  1.00  0.00     0.027 C 
BRANCH  19  20
ATOM     20  C   UNL     1      93.007  95.856  75.081  1.00  0.00    -0.031 C 
ATOM     21  C   UNL     1      92.927  95.915  76.423  1.00  0.00    -0.028 C 
BRANCH  21  22
ATOM     22  C   UNL     1      91.994  95.107  77.207  1.00  0.00     0.005 C 
ATOM     23  C   UNL     1      90.854  94.510  76.336  1.00  0.00     0.012 C 
ATOM     24  C   UNL     1      92.758  93.988  77.961  1.00  0.00     0.012 C 
ENDBRANCH  21  22
ENDBRANCH  19  20
ENDBRANCH  18  19
ENDBRANCH  17  18
ENDBRANCH   1  17
TORSDOF 10
ENDMDL
MODEL 7
REMARK VINA RESULT:    -5.641     12.018     13.999
REMARK INTER + INTRA:          -9.888
REMARK INTER:                  -8.946
REMARK INTRA:                  -0.942
REMARK UNBOUND:                -1.114
REMARK SMILES COc1cc(CNC(=O)CCCC/C=C/C(C)C)ccc1O
REMARK SMILES IDX 10 1 8 2 7 3 9 5 6 6 5 7 3 8 21 9 4 10 20 11 19 12 2 13 1 14
REMARK SMILES IDX 22 15 11 17 12 18 13 19 14 20 15 21 16 22 17 23 18 24
REMARK H PARENT 7 4 22 16
REMARK Flexibility Score: inf
ROOT
ATOM      1  C   UNL     1      96.298  82.034  77.637  1.00  0.00     0.100 C 
ENDROOT
BRANCH   1   2
ATOM      2  C   UNL     1      96.365  82.837  76.402  1.00  0.00     0.220 C 
ATOM      3  N   UNL     1      97.298  82.561  75.447  1.00  0.00    -0.352 N 
ATOM      4  H   UNL     1      97.926  81.802  75.671  1.00  0.00     0.163 HD
ATOM      5  O   UNL     1      95.528  83.760  76.249  1.00  0.00    -0.275 OA
BRANCH   3   6
ATOM      6  C   UNL     1      97.425  83.256  74.206  1.00  0.00     0.151 C 
BRANCH   6   7
ATOM      7  C   UNL     1      98.837  83.283  73.737  1.00  0.00    -0.025 A 
ATOM      8  C   UNL     1     101.110  82.337  73.772  1.00  0.00     0.160 A 
ATOM      9  C   UNL     1     101.529  83.307  72.838  1.00  0.00     0.157 A 
ATOM     10  C   UNL     1      99.770  82.335  74.214  1.00  0.00     0.056 A 
ATOM     11  C   UNL     1     100.614  84.270  72.368  1.00  0.00     0.050 A 
ATOM     12  C   UNL     1      99.276  84.254  72.806  1.00  0.00     0.009 A 
BRANCH   8  13
ATOM     13  O   UNL     1     102.012  81.438  74.281  1.00  0.00    -0.493 OA
ATOM     14  C   UNL     1     101.789  80.080  73.860  1.00  0.00     0.278 C 
ENDBRANCH   8  13
BRANCH   9  15
ATOM     15  O   UNL     1     102.808  83.328  72.382  1.00  0.00    -0.504 OA
ATOM     16  H   UNL     1     102.822  83.080  71.454  1.00  0.00     0.293 HD
ENDBRANCH   9  15
ENDBRANCH   6   7
ENDBRANCH   3   6
ENDBRANCH   1   2
BRANCH   1  17
ATOM     17  C   UNL     1      97.655  82.030  78.392  1.00  0.00     0.010 C 
BRANCH  17  18
ATOM     18  C   UNL     1      98.241  80.602  78.575  1.00  0.00     0.005 C 
BRANCH  18  19
ATOM     19  C   UNL     1      98.654  80.317  80.044  1.00  0.00     0.027 C 
BRANCH  19  20
ATOM     20  C   UNL     1      97.863  81.085  80.994  1.00  0.00    -0.031 C 
ATOM     21  C   UNL     1      96.819  80.589  81.684  1.00  0.00    -0.028 C 
BRANCH  21  22
ATOM     22  C   UNL     1      96.050  81.374  82.649  1.00  0.00     0.005 C 
ATOM     23  C   UNL     1      96.321  80.936  84.115  1.00  0.00     0.012 C 
ATOM     24  C   UNL     1      96.339  82.886  82.461  1.00  0.00     0.012 C 
ENDBRANCH  21  22
ENDBRANCH  19  20
ENDBRANCH  18  19
ENDBRANCH  17  18
ENDBRANCH   1  17
TORSDOF 10
ENDMDL
MODEL 8
REMARK VINA RESULT:    -5.417     21.507     24.533
REMARK INTER + INTRA:          -9.540
REMARK INTER:                  -7.922
REMARK INTRA:                  -1.618
REMARK UNBOUND:                -1.114
REMARK SMILES COc1cc(CNC(=O)CCCC/C=C/C(C)C)ccc1O
REMARK SMILES IDX 10 1 8 2 7 3 9 5 6 6 5 7 3 8 21 9 4 10 20 11 19 12 2 13 1 14
REMARK SMILES IDX 22 15 11 17 12 18 13 19 14 20 15 21 16 22 17 23 18 24
REMARK H PARENT 7 4 22 16
REMARK Flexibility Score: inf
ROOT
ATOM      1  C   UNL     1      74.433  89.603  66.126  1.00  0.00     0.100 C 
ENDROOT
BRANCH   1   2
ATOM      2  C   UNL     1      73.709  88.387  66.543  1.00  0.00     0.220 C 
ATOM      3  N   UNL     1      73.926  87.201  65.909  1.00  0.00    -0.352 N 
ATOM      4  H   UNL     1      74.584  87.241  65.142  1.00  0.00     0.163 HD
ATOM      5  O   UNL     1      72.912  88.474  67.509  1.00  0.00    -0.275 OA
BRANCH   3   6
ATOM      6  C   UNL     1      73.302  85.964  66.256  1.00  0.00     0.151 C 
BRANCH   6   7
ATOM      7  C   UNL     1      73.832  84.837  65.440  1.00  0.00    -0.025 A 
ATOM      8  C   UNL     1      73.839  82.442  64.869  1.00  0.00     0.160 A 
ATOM      9  C   UNL     1      74.816  82.680  63.881  1.00  0.00     0.157 A 
ATOM     10  C   UNL     1      73.358  83.521  65.640  1.00  0.00     0.056 A 
ATOM     11  C   UNL     1      75.312  83.984  63.683  1.00  0.00     0.050 A 
ATOM     12  C   UNL     1      74.817  85.057  64.450  1.00  0.00     0.009 A 
BRANCH   8  13
ATOM     13  O   UNL     1      73.401  81.165  65.110  1.00  0.00    -0.493 OA
ATOM     14  C   UNL     1      72.080  80.892  64.607  1.00  0.00     0.278 C 
ENDBRANCH   8  13
BRANCH   9  15
ATOM     15  O   UNL     1      75.290  81.666  63.112  1.00  0.00    -0.504 OA
ATOM     16  H   UNL     1      75.900  81.132  63.626  1.00  0.00     0.293 HD
ENDBRANCH   9  15
ENDBRANCH   6   7
ENDBRANCH   3   6
ENDBRANCH   1   2
BRANCH   1  17
ATOM     17  C   UNL     1      74.893  90.443  67.347  1.00  0.00     0.010 C 
BRANCH  17  18
ATOM     18  C   UNL     1      76.056  89.777  68.135  1.00  0.00     0.005 C 
BRANCH  18  19
ATOM     19  C   UNL     1      76.970  88.915  67.224  1.00  0.00     0.027 C 
BRANCH  19  20
ATOM     20  C   UNL     1      77.214  87.595  67.785  1.00  0.00    -0.031 C 
ATOM     21  C   UNL     1      77.034  86.443  67.113  1.00  0.00    -0.028 C 
BRANCH  21  22
ATOM     22  C   UNL     1      77.304  85.127  67.690  1.00  0.00     0.005 C 
ATOM     23  C   UNL     1      76.156  84.644  68.620  1.00  0.00     0.012 C 
ATOM     24  C   UNL     1      77.577  84.093  66.566  1.00  0.00     0.012 C 
ENDBRANCH  21  22
ENDBRANCH  19  20
ENDBRANCH  18  19
ENDBRANCH  17  18
ENDBRANCH   1  17
TORSDOF 10
ENDMDL
MODEL 9
REMARK VINA RESULT:    -5.380      3.846      5.729
REMARK INTER + INTRA:          -9.482
REMARK INTER:                  -8.757
REMARK INTRA:                  -0.725
REMARK UNBOUND:                -1.114
REMARK SMILES COc1cc(CNC(=O)CCCC/C=C/C(C)C)ccc1O
REMARK SMILES IDX 10 1 8 2 7 3 9 5 6 6 5 7 3 8 21 9 4 10 20 11 19 12 2 13 1 14
REMARK SMILES IDX 22 15 11 17 12 18 13 19 14 20 15 21 16 22 17 23 18 24
REMARK H PARENT 7 4 22 16
REMARK Flexibility Score: inf
ROOT
ATOM      1  C   UNL     1      96.711  94.865  79.851  1.00  0.00     0.100 C 
ENDROOT
BRANCH   1   2
ATOM      2  C   UNL     1      96.376  95.760  80.975  1.00  0.00     0.220 C 
ATOM      3  N   UNL     1      96.929  97.002  81.059  1.00  0.00    -0.352 N 
ATOM      4  H   UNL     1      97.581  97.230  80.321  1.00  0.00     0.163 HD
ATOM      5  O   UNL     1      95.554  95.352  81.832  1.00  0.00    -0.275 OA
BRANCH   3   6
ATOM      6  C   UNL     1      96.647  97.953  82.087  1.00  0.00     0.151 C 
BRANCH   6   7
ATOM      7  C   UNL     1      97.468  97.703  83.303  1.00  0.00    -0.025 A 
ATOM      8  C   UNL     1      97.613  97.104  85.687  1.00  0.00     0.160 A 
ATOM      9  C   UNL     1      99.019  97.205  85.627  1.00  0.00     0.157 A 
ATOM     10  C   UNL     1      96.852  97.356  84.526  1.00  0.00     0.056 A 
ATOM     11  C   UNL     1      99.646  97.570  84.419  1.00  0.00     0.050 A 
ATOM     12  C   UNL     1      98.878  97.808  83.263  1.00  0.00     0.009 A 
BRANCH   8  13
ATOM     13  O   UNL     1      96.995  96.814  86.876  1.00  0.00    -0.493 OA
ATOM     14  C   UNL     1      96.375  97.950  87.508  1.00  0.00     0.278 C 
ENDBRANCH   8  13
BRANCH   9  15
ATOM     15  O   UNL     1      99.782  96.956  86.722  1.00  0.00    -0.504 OA
ATOM     16  H   UNL     1     100.394  97.683  86.859  1.00  0.00     0.293 HD
ENDBRANCH   9  15
ENDBRANCH   6   7
ENDBRANCH   3   6
ENDBRANCH   1   2
BRANCH   1  17
ATOM     17  C   UNL     1      96.195  93.422  80.094  1.00  0.00     0.010 C 
BRANCH  17  18
ATOM     18  C   UNL     1      94.825  93.147  79.413  1.00  0.00     0.005 C 
BRANCH  18  19
ATOM     19  C   UNL     1      94.809  93.578  77.922  1.00  0.00     0.027 C 
BRANCH  19  20
ATOM     20  C   UNL     1      93.491  93.430  77.323  1.00  0.00    -0.031 C 
ATOM     21  C   UNL     1      92.335  93.553  78.001  1.00  0.00    -0.028 C 
BRANCH  21  22
ATOM     22  C   UNL     1      91.020  93.419  77.374  1.00  0.00     0.005 C 
ATOM     23  C   UNL     1      90.496  94.770  76.811  1.00  0.00     0.012 C 
ATOM     24  C   UNL     1      91.062  92.337  76.265  1.00  0.00     0.012 C 
ENDBRANCH  21  22
ENDBRANCH  19  20
ENDBRANCH  18  19
ENDBRANCH  17  18
ENDBRANCH   1  17
TORSDOF 10
ENDMDL
MODEL 10
REMARK VINA RESULT:    -5.309     12.881     14.874
REMARK INTER + INTRA:          -9.372
REMARK INTER:                  -7.601
REMARK INTRA:                  -1.771
REMARK UNBOUND:                -1.114
REMARK SMILES COc1cc(CNC(=O)CCCC/C=C/C(C)C)ccc1O
REMARK SMILES IDX 10 1 8 2 7 3 9 5 6 6 5 7 3 8 21 9 4 10 20 11 19 12 2 13 1 14
REMARK SMILES IDX 22 15 11 17 12 18 13 19 14 20 15 21 16 22 17 23 18 24
REMARK H PARENT 7 4 22 16
REMARK Flexibility Score: inf
ROOT
ATOM      1  C   UNL     1      98.912  80.488  71.461  1.00  0.00     0.100 C 
ENDROOT
BRANCH   1   2
ATOM      2  C   UNL     1      97.961  80.077  72.512  1.00  0.00     0.220 C 
ATOM      3  N   UNL     1      98.398  79.414  73.619  1.00  0.00    -0.352 N 
ATOM      4  H   UNL     1      99.389  79.218  73.636  1.00  0.00     0.163 HD
ATOM      5  O   UNL     1      96.751  80.376  72.366  1.00  0.00    -0.275 OA
BRANCH   3   6
ATOM      6  C   UNL     1      97.566  79.002  74.705  1.00  0.00     0.151 C 
BRANCH   6   7
ATOM      7  C   UNL     1      97.708  79.909  75.876  1.00  0.00    -0.025 A 
ATOM      8  C   UNL     1      97.217  82.055  76.979  1.00  0.00     0.160 A 
ATOM      9  C   UNL     1      97.951  81.642  78.110  1.00  0.00     0.157 A 
ATOM     10  C   UNL     1      97.104  81.186  75.873  1.00  0.00     0.056 A 
ATOM     11  C   UNL     1      98.575  80.379  78.120  1.00  0.00     0.050 A 
ATOM     12  C   UNL     1      98.447  79.514  77.016  1.00  0.00     0.009 A 
BRANCH   8  13
ATOM     13  O   UNL     1      96.664  83.309  76.938  1.00  0.00    -0.493 OA
ATOM     14  C   UNL     1      95.948  83.596  75.722  1.00  0.00     0.278 C 
ENDBRANCH   8  13
BRANCH   9  15
ATOM     15  O   UNL     1      98.068  82.449  79.196  1.00  0.00    -0.504 OA
ATOM     16  H   UNL     1      98.693  82.064  79.816  1.00  0.00     0.293 HD
ENDBRANCH   9  15
ENDBRANCH   6   7
ENDBRANCH   3   6
ENDBRANCH   1   2
BRANCH   1  17
ATOM     17  C   UNL     1     100.113  81.275  72.052  1.00  0.00     0.010 C 
BRANCH  17  18
ATOM     18  C   UNL     1      99.712  82.680  72.584  1.00  0.00     0.005 C 
BRANCH  18  19
ATOM     19  C   UNL     1     100.433  83.036  73.912  1.00  0.00     0.027 C 
BRANCH  19  20
ATOM     20  C   UNL     1     100.594  81.876  74.776  1.00  0.00    -0.031 C 
ATOM     21  C   UNL     1     101.649  81.042  74.734  1.00  0.00    -0.028 C 
BRANCH  21  22
ATOM     22  C   UNL     1     101.799  79.892  75.626  1.00  0.00     0.005 C 
ATOM     23  C   UNL     1     101.530  78.545  74.900  1.00  0.00     0.012 C 
ATOM     24  C   UNL     1     103.206  79.899  76.277  1.00  0.00     0.012 C 
ENDBRANCH  21  22
ENDBRANCH  19  20
ENDBRANCH  18  19
ENDBRANCH  17  18
ENDBRANCH   1  17
TORSDOF 10
ENDMDL
