MODEL 1
REMARK VINA RESULT:    -5.787      0.000      0.000
REMARK INTER + INTRA:         -10.742
REMARK INTER:                  -9.677
REMARK INTRA:                  -1.065
REMARK UNBOUND:                -1.065
REMARK SMILES COc1cc(CNC(=O)CCCCCCCC(C)C)ccc1O
REMARK SMILES IDX 11 1 10 2 8 3 9 4 7 5 6 7 5 8 4 9 20 10 3 11 21 12 22 13
REMARK SMILES IDX 2 14 1 15 23 16 12 18 13 19 14 20 15 21 16 22 17 23 18 24
REMARK SMILES IDX 19 25
REMARK H PARENT 7 6 23 17
REMARK Flexibility Score: inf
ROOT
ATOM      1  C   UNL     1      97.198  81.830  77.782  1.00  0.00     0.010 C 
ENDROOT
BRANCH   1   2
ATOM      2  C   UNL     1      95.930  82.487  77.241  1.00  0.00     0.100 C 
BRANCH   2   3
ATOM      3  C   UNL     1      96.187  83.280  75.970  1.00  0.00     0.220 C 
ATOM      4  O   UNL     1      95.586  84.313  75.688  1.00  0.00    -0.275 OA
ATOM      5  N   UNL     1      97.166  82.686  75.187  1.00  0.00    -0.352 N 
ATOM      6  H   UNL     1      97.602  81.822  75.498  1.00  0.00     0.163 HD
BRANCH   5   7
ATOM      7  C   UNL     1      97.595  83.234  73.921  1.00  0.00     0.151 C 
BRANCH   7   8
ATOM      8  C   UNL     1      99.064  83.032  73.691  1.00  0.00    -0.025 A 
ATOM      9  C   UNL     1      99.750  82.074  74.428  1.00  0.00     0.056 A 
ATOM     10  C   UNL     1      99.724  83.806  72.744  1.00  0.00     0.009 A 
ATOM     11  C   UNL     1     101.116  81.887  74.214  1.00  0.00     0.160 A 
ATOM     12  C   UNL     1     101.090  83.619  72.531  1.00  0.00     0.050 A 
ATOM     13  C   UNL     1     101.786  82.659  73.266  1.00  0.00     0.157 A 
BRANCH  11  14
ATOM     14  O   UNL     1     101.785  80.947  74.939  1.00  0.00    -0.493 OA
ATOM     15  C   UNL     1     101.323  79.600  74.837  1.00  0.00     0.278 C 
ENDBRANCH  11  14
BRANCH  13  16
ATOM     16  O   UNL     1     103.120  82.485  73.048  1.00  0.00    -0.504 OA
ATOM     17  H   UNL     1     103.461  83.249  72.552  1.00  0.00     0.293 HD
ENDBRANCH  13  16
ENDBRANCH   7   8
ENDBRANCH   5   7
ENDBRANCH   2   3
ENDBRANCH   1   2
BRANCH   1  18
ATOM     18  C   UNL     1      97.396  82.033  79.287  1.00  0.00     0.001 C 
BRANCH  18  19
ATOM     19  C   UNL     1      98.183  80.933  80.008  1.00  0.00     0.000 C 
BRANCH  19  20
ATOM     20  C   UNL     1      97.364  79.662  80.248  1.00  0.00     0.000 C 
BRANCH  20  21
ATOM     21  C   UNL     1      96.946  79.473  81.711  1.00  0.00     0.000 C 
BRANCH  21  22
ATOM     22  C   UNL     1      97.170  80.720  82.571  1.00  0.00     0.003 C 
BRANCH  22  23
ATOM     23  C   UNL     1      95.888  81.546  82.800  1.00  0.00    -0.017 C 
ATOM     24  C   UNL     1      96.214  83.040  82.718  1.00  0.00     0.007 C 
ATOM     25  C   UNL     1      95.224  81.238  84.142  1.00  0.00     0.007 C 
ENDBRANCH  22  23
ENDBRANCH  21  22
ENDBRANCH  20  21
ENDBRANCH  19  20
ENDBRANCH  18  19
ENDBRANCH   1  18
TORSDOF 12
ENDMDL
MODEL 2
REMARK VINA RESULT:    -5.784     19.561     22.710
REMARK INTER + INTRA:         -10.736
REMARK INTER:                  -8.383
REMARK INTRA:                  -2.354
REMARK UNBOUND:                -1.065
REMARK SMILES COc1cc(CNC(=O)CCCCCCCC(C)C)ccc1O
REMARK SMILES IDX 11 1 10 2 8 3 9 4 7 5 6 7 5 8 4 9 20 10 3 11 21 12 22 13
REMARK SMILES IDX 2 14 1 15 23 16 12 18 13 19 14 20 15 21 16 22 17 23 18 24
REMARK SMILES IDX 19 25
REMARK H PARENT 7 6 23 17
REMARK Flexibility Score: inf
ROOT
ATOM      1  C   UNL     1      87.098 100.867  66.908  1.00  0.00     0.010 C 
ENDROOT
BRANCH   1   2
ATOM      2  C   UNL     1      87.593  99.602  66.209  1.00  0.00     0.100 C 
BRANCH   2   3
ATOM      3  C   UNL     1      88.843  99.033  66.860  1.00  0.00     0.220 C 
ATOM      4  O   UNL     1      89.915  98.917  66.273  1.00  0.00    -0.275 OA
ATOM      5  N   UNL     1      88.608  98.662  68.176  1.00  0.00    -0.352 N 
ATOM      6  H   UNL     1      87.682  98.786  68.574  1.00  0.00     0.163 HD
BRANCH   5   7
ATOM      7  C   UNL     1      89.628  98.085  69.020  1.00  0.00     0.151 C 
BRANCH   7   8
ATOM      8  C   UNL     1      90.309  99.121  69.867  1.00  0.00    -0.025 A 
ATOM      9  C   UNL     1      91.696  99.127  69.963  1.00  0.00     0.056 A 
ATOM     10  C   UNL     1      89.546 100.063  70.546  1.00  0.00     0.009 A 
ATOM     11  C   UNL     1      92.328 100.090  70.749  1.00  0.00     0.160 A 
ATOM     12  C   UNL     1      90.180 101.025  71.333  1.00  0.00     0.050 A 
ATOM     13  C   UNL     1      91.570 101.039  71.435  1.00  0.00     0.157 A 
BRANCH  11  14
ATOM     14  O   UNL     1      93.688 100.093  70.841  1.00  0.00    -0.493 OA
ATOM     15  C   UNL     1      94.375  98.960  70.312  1.00  0.00     0.278 C 
ENDBRANCH  11  14
BRANCH  13  16
ATOM     16  O   UNL     1      92.177 101.984  72.205  1.00  0.00    -0.504 OA
ATOM     17  H   UNL     1      92.209 101.670  73.125  1.00  0.00     0.293 HD
ENDBRANCH  13  16
ENDBRANCH   7   8
ENDBRANCH   5   7
ENDBRANCH   2   3
ENDBRANCH   1   2
BRANCH   1  18
ATOM     18  C   UNL     1      87.451 102.155  66.159  1.00  0.00     0.001 C 
BRANCH  18  19
ATOM     19  C   UNL     1      88.526 103.030  66.814  1.00  0.00     0.000 C 
BRANCH  19  20
ATOM     20  C   UNL     1      89.953 102.565  66.511  1.00  0.00     0.000 C 
BRANCH  20  21
ATOM     21  C   UNL     1      90.756 102.205  67.766  1.00  0.00     0.000 C 
BRANCH  21  22
ATOM     22  C   UNL     1      92.103 101.546  67.456  1.00  0.00     0.003 C 
BRANCH  22  23
ATOM     23  C   UNL     1      93.308 102.488  67.653  1.00  0.00    -0.017 C 
ATOM     24  C   UNL     1      94.610 101.688  67.565  1.00  0.00     0.007 C 
ATOM     25  C   UNL     1      93.254 103.237  68.984  1.00  0.00     0.007 C 
ENDBRANCH  22  23
ENDBRANCH  21  22
ENDBRANCH  20  21
ENDBRANCH  19  20
ENDBRANCH  18  19
ENDBRANCH   1  18
TORSDOF 12
ENDMDL
MODEL 3
REMARK VINA RESULT:    -5.564     20.606     22.451
REMARK INTER + INTRA:         -10.369
REMARK INTER:                  -8.834
REMARK INTRA:                  -1.535
REMARK UNBOUND:                -1.065
REMARK SMILES COc1cc(CNC(=O)CCCCCCCC(C)C)ccc1O
REMARK SMILES IDX 11 1 10 2 8 3 9 4 7 5 6 7 5 8 4 9 20 10 3 11 21 12 22 13
REMARK SMILES IDX 2 14 1 15 23 16 12 18 13 19 14 20 15 21 16 22 17 23 18 24
REMARK SMILES IDX 19 25
REMARK H PARENT 7 6 23 17
REMARK Flexibility Score: inf
ROOT
ATOM      1  C   UNL     1      81.282  64.132  75.595  1.00  0.00     0.010 C 
ENDROOT
BRANCH   1   2
ATOM      2  C   UNL     1      82.280  65.099  76.227  1.00  0.00     0.100 C 
BRANCH   2   3
ATOM      3  C   UNL     1      83.579  65.185  75.444  1.00  0.00     0.220 C 
ATOM      4  O   UNL     1      84.258  64.203  75.155  1.00  0.00    -0.275 OA
ATOM      5  N   UNL     1      83.890  66.496  75.114  1.00  0.00    -0.352 N 
ATOM      6  H   UNL     1      83.272  67.247  75.407  1.00  0.00     0.163 HD
BRANCH   5   7
ATOM      7  C   UNL     1      85.079  66.857  74.376  1.00  0.00     0.151 C 
BRANCH   7   8
ATOM      8  C   UNL     1      84.824  67.987  73.421  1.00  0.00    -0.025 A 
ATOM      9  C   UNL     1      85.194  69.280  73.772  1.00  0.00     0.056 A 
ATOM     10  C   UNL     1      84.221  67.729  72.196  1.00  0.00     0.009 A 
ATOM     11  C   UNL     1      84.957  70.330  72.884  1.00  0.00     0.160 A 
ATOM     12  C   UNL     1      83.984  68.779  71.309  1.00  0.00     0.050 A 
ATOM     13  C   UNL     1      84.352  70.080  71.653  1.00  0.00     0.157 A 
BRANCH  11  14
ATOM     14  O   UNL     1      85.320  71.596  73.232  1.00  0.00    -0.493 OA
ATOM     15  C   UNL     1      86.598  71.759  73.846  1.00  0.00     0.278 C 
ENDBRANCH  11  14
BRANCH  13  16
ATOM     16  O   UNL     1      84.116  71.096  70.778  1.00  0.00    -0.504 OA
ATOM     17  H   UNL     1      83.471  70.799  70.113  1.00  0.00     0.293 HD
ENDBRANCH  13  16
ENDBRANCH   7   8
ENDBRANCH   5   7
ENDBRANCH   2   3
ENDBRANCH   1   2
BRANCH   1  18
ATOM     18  C   UNL     1      80.138  64.831  74.856  1.00  0.00     0.001 C 
BRANCH  18  19
ATOM     19  C   UNL     1      80.553  65.957  73.903  1.00  0.00     0.000 C 
BRANCH  19  20
ATOM     20  C   UNL     1      81.221  65.450  72.622  1.00  0.00     0.000 C 
BRANCH  20  21
ATOM     21  C   UNL     1      80.818  66.239  71.371  1.00  0.00     0.000 C 
BRANCH  21  22
ATOM     22  C   UNL     1      81.100  65.489  70.065  1.00  0.00     0.003 C 
BRANCH  22  23
ATOM     23  C   UNL     1      82.190  66.152  69.199  1.00  0.00    -0.017 C 
ATOM     24  C   UNL     1      81.625  67.405  68.526  1.00  0.00     0.007 C 
ATOM     25  C   UNL     1      82.750  65.205  68.137  1.00  0.00     0.007 C 
ENDBRANCH  22  23
ENDBRANCH  21  22
ENDBRANCH  20  21
ENDBRANCH  19  20
ENDBRANCH  18  19
ENDBRANCH   1  18
TORSDOF 12
ENDMDL
MODEL 4
REMARK VINA RESULT:    -5.447      4.687     10.582
REMARK INTER + INTRA:         -10.174
REMARK INTER:                  -8.767
REMARK INTRA:                  -1.407
REMARK UNBOUND:                -1.065
REMARK SMILES COc1cc(CNC(=O)CCCCCCCC(C)C)ccc1O
REMARK SMILES IDX 11 1 10 2 8 3 9 4 7 5 6 7 5 8 4 9 20 10 3 11 21 12 22 13
REMARK SMILES IDX 2 14 1 15 23 16 12 18 13 19 14 20 15 21 16 22 17 23 18 24
REMARK SMILES IDX 19 25
REMARK H PARENT 7 6 23 17
REMARK Flexibility Score: inf
ROOT
ATOM      1  C   UNL     1      97.100  80.812  80.952  1.00  0.00     0.010 C 
ENDROOT
BRANCH   1   2
ATOM      2  C   UNL     1      96.684  82.279  81.041  1.00  0.00     0.100 C 
BRANCH   2   3
ATOM      3  C   UNL     1      96.522  82.748  82.477  1.00  0.00     0.220 C 
ATOM      4  O   UNL     1      96.680  83.914  82.827  1.00  0.00    -0.275 OA
ATOM      5  N   UNL     1      96.187  81.700  83.321  1.00  0.00    -0.352 N 
ATOM      6  H   UNL     1      96.088  80.762  82.942  1.00  0.00     0.163 HD
BRANCH   5   7
ATOM      7  C   UNL     1      95.982  81.872  84.741  1.00  0.00     0.151 C 
BRANCH   7   8
ATOM      8  C   UNL     1      94.529  82.037  85.082  1.00  0.00    -0.025 A 
ATOM      9  C   UNL     1      94.130  83.087  85.900  1.00  0.00     0.056 A 
ATOM     10  C   UNL     1      93.599  81.136  84.578  1.00  0.00     0.009 A 
ATOM     11  C   UNL     1      92.780  83.240  86.217  1.00  0.00     0.160 A 
ATOM     12  C   UNL     1      92.249  81.289  84.896  1.00  0.00     0.050 A 
ATOM     13  C   UNL     1      91.839  82.340  85.716  1.00  0.00     0.157 A 
BRANCH  11  14
ATOM     14  O   UNL     1      92.393  84.271  87.019  1.00  0.00    -0.493 OA
ATOM     15  C   UNL     1      92.845  84.244  88.372  1.00  0.00     0.278 C 
ENDBRANCH  11  14
BRANCH  13  16
ATOM     16  O   UNL     1      90.518  82.480  86.018  1.00  0.00    -0.504 OA
ATOM     17  H   UNL     1      90.406  82.413  86.982  1.00  0.00     0.293 HD
ENDBRANCH  13  16
ENDBRANCH   7   8
ENDBRANCH   5   7
ENDBRANCH   2   3
ENDBRANCH   1   2
BRANCH   1  18
ATOM     18  C   UNL     1      98.470  80.605  80.299  1.00  0.00     0.001 C 
BRANCH  18  19
ATOM     19  C   UNL     1      98.548  79.477  79.265  1.00  0.00     0.000 C 
BRANCH  19  20
ATOM     20  C   UNL     1      99.066  79.941  77.901  1.00  0.00     0.000 C 
BRANCH  20  21
ATOM     21  C   UNL     1      98.021  79.838  76.784  1.00  0.00     0.000 C 
BRANCH  21  22
ATOM     22  C   UNL     1      96.734  80.612  77.085  1.00  0.00     0.003 C 
BRANCH  22  23
ATOM     23  C   UNL     1      96.930  82.140  77.119  1.00  0.00    -0.017 C 
ATOM     24  C   UNL     1      95.614  82.823  77.498  1.00  0.00     0.007 C 
ATOM     25  C   UNL     1      97.433  82.697  75.786  1.00  0.00     0.007 C 
ENDBRANCH  22  23
ENDBRANCH  21  22
ENDBRANCH  20  21
ENDBRANCH  19  20
ENDBRANCH  18  19
ENDBRANCH   1  18
TORSDOF 12
ENDMDL
MODEL 5
REMARK VINA RESULT:    -5.337     18.485     19.753
REMARK INTER + INTRA:          -9.990
REMARK INTER:                  -8.527
REMARK INTRA:                  -1.463
REMARK UNBOUND:                -1.065
REMARK SMILES COc1cc(CNC(=O)CCCCCCCC(C)C)ccc1O
REMARK SMILES IDX 11 1 10 2 8 3 9 4 7 5 6 7 5 8 4 9 20 10 3 11 21 12 22 13
REMARK SMILES IDX 2 14 1 15 23 16 12 18 13 19 14 20 15 21 16 22 17 23 18 24
REMARK SMILES IDX 19 25
REMARK H PARENT 7 6 23 17
REMARK Flexibility Score: inf
ROOT
ATOM      1  C   UNL     1      83.873  66.894  74.943  1.00  0.00     0.010 C 
ENDROOT
BRANCH   1   2
ATOM      2  C   UNL     1      84.470  68.287  74.749  1.00  0.00     0.100 C 
BRANCH   2   3
ATOM      3  C   UNL     1      84.527  68.694  73.286  1.00  0.00     0.220 C 
ATOM      4  O   UNL     1      84.407  67.897  72.360  1.00  0.00    -0.275 OA
ATOM      5  N   UNL     1      84.736  70.057  73.144  1.00  0.00    -0.352 N 
ATOM      6  H   UNL     1      84.835  70.639  73.972  1.00  0.00     0.163 HD
BRANCH   5   7
ATOM      7  C   UNL     1      84.839  70.704  71.856  1.00  0.00     0.151 C 
BRANCH   7   8
ATOM      8  C   UNL     1      86.250  71.105  71.541  1.00  0.00    -0.025 A 
ATOM      9  C   UNL     1      87.121  71.429  72.574  1.00  0.00     0.056 A 
ATOM     10  C   UNL     1      86.672  71.150  70.217  1.00  0.00     0.009 A 
ATOM     11  C   UNL     1      88.433  71.802  72.281  1.00  0.00     0.160 A 
ATOM     12  C   UNL     1      87.984  71.524  69.924  1.00  0.00     0.050 A 
ATOM     13  C   UNL     1      88.865  71.850  70.955  1.00  0.00     0.157 A 
BRANCH  11  14
ATOM     14  O   UNL     1      89.283  72.119  73.297  1.00  0.00    -0.493 OA
ATOM     15  C   UNL     1      88.756  72.070  74.622  1.00  0.00     0.278 C 
ENDBRANCH  11  14
BRANCH  13  16
ATOM     16  O   UNL     1      90.143  72.212  70.656  1.00  0.00    -0.504 OA
ATOM     17  H   UNL     1      90.409  71.776  69.828  1.00  0.00     0.293 HD
ENDBRANCH  13  16
ENDBRANCH   7   8
ENDBRANCH   5   7
ENDBRANCH   2   3
ENDBRANCH   1   2
BRANCH   1  18
ATOM     18  C   UNL     1      83.118  66.733  76.265  1.00  0.00     0.001 C 
BRANCH  18  19
ATOM     19  C   UNL     1      82.243  65.481  76.382  1.00  0.00     0.000 C 
BRANCH  19  20
ATOM     20  C   UNL     1      80.792  65.790  76.760  1.00  0.00     0.000 C 
BRANCH  20  21
ATOM     21  C   UNL     1      79.830  65.757  75.567  1.00  0.00     0.000 C 
BRANCH  21  22
ATOM     22  C   UNL     1      80.333  64.891  74.407  1.00  0.00     0.003 C 
BRANCH  22  23
ATOM     23  C   UNL     1      80.576  65.685  73.108  1.00  0.00    -0.017 C 
ATOM     24  C   UNL     1      81.888  65.233  72.463  1.00  0.00     0.007 C 
ATOM     25  C   UNL     1      80.612  67.196  73.343  1.00  0.00     0.007 C 
ENDBRANCH  22  23
ENDBRANCH  21  22
ENDBRANCH  20  21
ENDBRANCH  19  20
ENDBRANCH  18  19
ENDBRANCH   1  18
TORSDOF 12
ENDMDL
MODEL 6
REMARK VINA RESULT:    -5.324     38.001     40.726
REMARK INTER + INTRA:          -9.968
REMARK INTER:                  -9.001
REMARK INTRA:                  -0.966
REMARK UNBOUND:                -1.065
REMARK SMILES COc1cc(CNC(=O)CCCCCCCC(C)C)ccc1O
REMARK SMILES IDX 11 1 10 2 8 3 9 4 7 5 6 7 5 8 4 9 20 10 3 11 21 12 22 13
REMARK SMILES IDX 2 14 1 15 23 16 12 18 13 19 14 20 15 21 16 22 17 23 18 24
REMARK SMILES IDX 19 25
REMARK H PARENT 7 6 23 17
REMARK Flexibility Score: inf
ROOT
ATOM      1  C   UNL     1      56.940  86.739  71.052  1.00  0.00     0.010 C 
ENDROOT
BRANCH   1   2
ATOM      2  C   UNL     1      58.385  86.463  71.461  1.00  0.00     0.100 C 
BRANCH   2   3
ATOM      3  C   UNL     1      58.553  85.098  72.109  1.00  0.00     0.220 C 
ATOM      4  O   UNL     1      57.617  84.332  72.317  1.00  0.00    -0.275 OA
ATOM      5  N   UNL     1      59.878  84.847  72.432  1.00  0.00    -0.352 N 
ATOM      6  H   UNL     1      60.585  85.549  72.231  1.00  0.00     0.163 HD
BRANCH   5   7
ATOM      7  C   UNL     1      60.311  83.624  73.067  1.00  0.00     0.151 C 
BRANCH   7   8
ATOM      8  C   UNL     1      61.528  83.047  72.404  1.00  0.00    -0.025 A 
ATOM      9  C   UNL     1      61.934  83.536  71.168  1.00  0.00     0.056 A 
ATOM     10  C   UNL     1      62.235  82.030  73.033  1.00  0.00     0.009 A 
ATOM     11  C   UNL     1      63.064  83.000  70.552  1.00  0.00     0.160 A 
ATOM     12  C   UNL     1      63.366  81.494  72.416  1.00  0.00     0.050 A 
ATOM     13  C   UNL     1      63.781  81.978  71.175  1.00  0.00     0.157 A 
BRANCH  11  14
ATOM     14  O   UNL     1      63.459  83.481  69.340  1.00  0.00    -0.493 OA
ATOM     15  C   UNL     1      62.698  84.556  68.791  1.00  0.00     0.278 C 
ENDBRANCH  11  14
BRANCH  13  16
ATOM     16  O   UNL     1      64.887  81.447  70.584  1.00  0.00    -0.504 OA
ATOM     17  H   UNL     1      64.607  80.846  69.872  1.00  0.00     0.293 HD
ENDBRANCH  13  16
ENDBRANCH   7   8
ENDBRANCH   5   7
ENDBRANCH   2   3
ENDBRANCH   1   2
BRANCH   1  18
ATOM     18  C   UNL     1      56.802  87.856  70.014  1.00  0.00     0.001 C 
BRANCH  18  19
ATOM     19  C   UNL     1      55.945  89.054  70.438  1.00  0.00     0.000 C 
BRANCH  19  20
ATOM     20  C   UNL     1      55.981  90.208  69.432  1.00  0.00     0.000 C 
BRANCH  20  21
ATOM     21  C   UNL     1      54.595  90.609  68.915  1.00  0.00     0.000 C 
BRANCH  21  22
ATOM     22  C   UNL     1      53.528  89.533  69.141  1.00  0.00     0.003 C 
BRANCH  22  23
ATOM     23  C   UNL     1      53.092  88.820  67.846  1.00  0.00    -0.017 C 
ATOM     24  C   UNL     1      54.016  87.630  67.574  1.00  0.00     0.007 C 
ATOM     25  C   UNL     1      53.087  89.754  66.636  1.00  0.00     0.007 C 
ENDBRANCH  22  23
ENDBRANCH  21  22
ENDBRANCH  20  21
ENDBRANCH  19  20
ENDBRANCH  18  19
ENDBRANCH   1  18
TORSDOF 12
ENDMDL
MODEL 7
REMARK VINA RESULT:    -5.299     13.179     16.693
REMARK INTER + INTRA:          -9.926
REMARK INTER:                  -8.603
REMARK INTRA:                  -1.323
REMARK UNBOUND:                -1.065
REMARK SMILES COc1cc(CNC(=O)CCCCCCCC(C)C)ccc1O
REMARK SMILES IDX 11 1 10 2 8 3 9 4 7 5 6 7 5 8 4 9 20 10 3 11 21 12 22 13
REMARK SMILES IDX 2 14 1 15 23 16 12 18 13 19 14 20 15 21 16 22 17 23 18 24
REMARK SMILES IDX 19 25
REMARK H PARENT 7 6 23 17
REMARK Flexibility Score: inf
ROOT
ATOM      1  C   UNL     1      96.668  97.604  74.864  1.00  0.00     0.010 C 
ENDROOT
BRANCH   1   2
ATOM      2  C   UNL     1      95.569  98.155  73.958  1.00  0.00     0.100 C 
BRANCH   2   3
ATOM      3  C   UNL     1      94.193  97.631  74.333  1.00  0.00     0.220 C 
ATOM      4  O   UNL     1      93.154  98.243  74.105  1.00  0.00    -0.275 OA
ATOM      5  N   UNL     1      94.272  96.397  74.962  1.00  0.00    -0.352 N 
ATOM      6  H   UNL     1      95.181  95.971  75.119  1.00  0.00     0.163 HD
BRANCH   5   7
ATOM      7  C   UNL     1      93.107  95.681  75.430  1.00  0.00     0.151 C 
BRANCH   7   8
ATOM      8  C   UNL     1      93.403  94.870  76.658  1.00  0.00    -0.025 A 
ATOM      9  C   UNL     1      94.625  95.019  77.303  1.00  0.00     0.056 A 
ATOM     10  C   UNL     1      92.452  93.977  77.136  1.00  0.00     0.009 A 
ATOM     11  C   UNL     1      94.899  94.265  78.444  1.00  0.00     0.160 A 
ATOM     12  C   UNL     1      92.727  93.222  78.277  1.00  0.00     0.050 A 
ATOM     13  C   UNL     1      93.950  93.366  78.931  1.00  0.00     0.157 A 
BRANCH  11  14
ATOM     14  O   UNL     1      96.098  94.414  79.073  1.00  0.00    -0.493 OA
ATOM     15  C   UNL     1      96.218  95.500  79.991  1.00  0.00     0.278 C 
ENDBRANCH  11  14
BRANCH  13  16
ATOM     16  O   UNL     1      94.206  92.624  80.044  1.00  0.00    -0.504 OA
ATOM     17  H   UNL     1      93.397  92.150  80.302  1.00  0.00     0.293 HD
ENDBRANCH  13  16
ENDBRANCH   7   8
ENDBRANCH   5   7
ENDBRANCH   2   3
ENDBRANCH   1   2
BRANCH   1  18
ATOM     18  C   UNL     1      97.963  97.268  74.118  1.00  0.00     0.001 C 
BRANCH  18  19
ATOM     19  C   UNL     1      98.321  98.201  72.956  1.00  0.00     0.000 C 
BRANCH  19  20
ATOM     20  C   UNL     1      99.215  97.540  71.903  1.00  0.00     0.000 C 
BRANCH  20  21
ATOM     21  C   UNL     1      98.496  97.267  70.578  1.00  0.00     0.000 C 
BRANCH  21  22
ATOM     22  C   UNL     1      97.069  96.739  70.759  1.00  0.00     0.003 C 
BRANCH  22  23
ATOM     23  C   UNL     1      96.058  97.352  69.771  1.00  0.00    -0.017 C 
ATOM     24  C   UNL     1      96.786  97.820  68.509  1.00  0.00     0.007 C 
ATOM     25  C   UNL     1      95.279  98.520  70.378  1.00  0.00     0.007 C 
ENDBRANCH  22  23
ENDBRANCH  21  22
ENDBRANCH  20  21
ENDBRANCH  19  20
ENDBRANCH  18  19
ENDBRANCH   1  18
TORSDOF 12
ENDMDL
MODEL 8
REMARK VINA RESULT:    -5.212      3.027      7.899
REMARK INTER + INTRA:          -9.781
REMARK INTER:                  -8.576
REMARK INTRA:                  -1.205
REMARK UNBOUND:                -1.065
REMARK SMILES COc1cc(CNC(=O)CCCCCCCC(C)C)ccc1O
REMARK SMILES IDX 11 1 10 2 8 3 9 4 7 5 6 7 5 8 4 9 20 10 3 11 21 12 22 13
REMARK SMILES IDX 2 14 1 15 23 16 12 18 13 19 14 20 15 21 16 22 17 23 18 24
REMARK SMILES IDX 19 25
REMARK H PARENT 7 6 23 17
REMARK Flexibility Score: inf
ROOT
ATOM      1  C   UNL     1     101.842  79.863  76.636  1.00  0.00     0.010 C 
ENDROOT
BRANCH   1   2
ATOM      2  C   UNL     1     102.016  79.457  78.098  1.00  0.00     0.100 C 
BRANCH   2   3
ATOM      3  C   UNL     1     100.845  79.893  78.963  1.00  0.00     0.220 C 
ATOM      4  O   UNL     1     100.871  79.876  80.191  1.00  0.00    -0.275 OA
ATOM      5  N   UNL     1      99.765  80.295  78.193  1.00  0.00    -0.352 N 
ATOM      6  H   UNL     1      99.832  80.264  77.179  1.00  0.00     0.163 HD
BRANCH   5   7
ATOM      7  C   UNL     1      98.519  80.750  78.767  1.00  0.00     0.151 C 
BRANCH   7   8
ATOM      8  C   UNL     1      97.707  81.546  77.787  1.00  0.00    -0.025 A 
ATOM      9  C   UNL     1      98.142  81.670  76.473  1.00  0.00     0.056 A 
ATOM     10  C   UNL     1      96.528  82.153  78.204  1.00  0.00     0.009 A 
ATOM     11  C   UNL     1      97.387  82.410  75.563  1.00  0.00     0.160 A 
ATOM     12  C   UNL     1      95.774  82.893  77.294  1.00  0.00     0.050 A 
ATOM     13  C   UNL     1      96.203  83.022  75.973  1.00  0.00     0.157 A 
BRANCH  11  14
ATOM     14  O   UNL     1      97.817  82.528  74.275  1.00  0.00    -0.493 OA
ATOM     15  C   UNL     1      98.517  81.416  73.721  1.00  0.00     0.278 C 
ENDBRANCH  11  14
BRANCH  13  16
ATOM     16  O   UNL     1      95.457  83.747  75.094  1.00  0.00    -0.504 OA
ATOM     17  H   UNL     1      94.829  84.298  75.591  1.00  0.00     0.293 HD
ENDBRANCH  13  16
ENDBRANCH   7   8
ENDBRANCH   5   7
ENDBRANCH   2   3
ENDBRANCH   1   2
BRANCH   1  18
ATOM     18  C   UNL     1     103.159  79.914  75.856  1.00  0.00     0.001 C 
BRANCH  18  19
ATOM     19  C   UNL     1     103.027  80.099  74.341  1.00  0.00     0.000 C 
BRANCH  19  20
ATOM     20  C   UNL     1     103.933  81.201  73.785  1.00  0.00     0.000 C 
BRANCH  20  21
ATOM     21  C   UNL     1     103.653  81.538  72.316  1.00  0.00     0.000 C 
BRANCH  21  22
ATOM     22  C   UNL     1     103.069  82.940  72.116  1.00  0.00     0.003 C 
BRANCH  22  23
ATOM     23  C   UNL     1     101.585  83.051  72.518  1.00  0.00    -0.017 C 
ATOM     24  C   UNL     1     100.745  83.430  71.296  1.00  0.00     0.007 C 
ATOM     25  C   UNL     1     101.355  84.068  73.636  1.00  0.00     0.007 C 
ENDBRANCH  22  23
ENDBRANCH  21  22
ENDBRANCH  20  21
ENDBRANCH  19  20
ENDBRANCH  18  19
ENDBRANCH   1  18
TORSDOF 12
ENDMDL
MODEL 9
REMARK VINA RESULT:    -5.176     24.189     26.791
REMARK INTER + INTRA:          -9.720
REMARK INTER:                  -7.507
REMARK INTRA:                  -2.213
REMARK UNBOUND:                -1.065
REMARK SMILES COc1cc(CNC(=O)CCCCCCCC(C)C)ccc1O
REMARK SMILES IDX 11 1 10 2 8 3 9 4 7 5 6 7 5 8 4 9 20 10 3 11 21 12 22 13
REMARK SMILES IDX 2 14 1 15 23 16 12 18 13 19 14 20 15 21 16 22 17 23 18 24
REMARK SMILES IDX 19 25
REMARK H PARENT 7 6 23 17
REMARK Flexibility Score: inf
ROOT
ATOM      1  C   UNL     1      71.571  89.727  67.363  1.00  0.00     0.010 C 
ENDROOT
BRANCH   1   2
ATOM      2  C   UNL     1      71.878  88.915  68.619  1.00  0.00     0.100 C 
BRANCH   2   3
ATOM      3  C   UNL     1      71.707  87.421  68.399  1.00  0.00     0.220 C 
ATOM      4  O   UNL     1      70.812  86.762  68.920  1.00  0.00    -0.275 OA
ATOM      5  N   UNL     1      72.685  86.915  67.556  1.00  0.00    -0.352 N 
ATOM      6  H   UNL     1      73.396  87.537  67.181  1.00  0.00     0.163 HD
BRANCH   5   7
ATOM      7  C   UNL     1      72.757  85.519  67.189  1.00  0.00     0.151 C 
BRANCH   7   8
ATOM      8  C   UNL     1      74.175  85.048  67.049  1.00  0.00    -0.025 A 
ATOM      9  C   UNL     1      74.612  84.533  65.834  1.00  0.00     0.056 A 
ATOM     10  C   UNL     1      75.038  85.132  68.135  1.00  0.00     0.009 A 
ATOM     11  C   UNL     1      75.930  84.095  65.704  1.00  0.00     0.160 A 
ATOM     12  C   UNL     1      76.356  84.693  68.005  1.00  0.00     0.050 A 
ATOM     13  C   UNL     1      76.802  84.175  66.789  1.00  0.00     0.157 A 
BRANCH  11  14
ATOM     14  O   UNL     1      76.353  83.590  64.512  1.00  0.00    -0.493 OA
ATOM     15  C   UNL     1      75.641  83.999  63.345  1.00  0.00     0.278 C 
ENDBRANCH  11  14
BRANCH  13  16
ATOM     16  O   UNL     1      78.091  83.751  66.674  1.00  0.00    -0.504 OA
ATOM     17  H   UNL     1      78.365  83.340  67.512  1.00  0.00     0.293 HD
ENDBRANCH  13  16
ENDBRANCH   7   8
ENDBRANCH   5   7
ENDBRANCH   2   3
ENDBRANCH   1   2
BRANCH   1  18
ATOM     18  C   UNL     1      72.459  90.964  67.203  1.00  0.00     0.001 C 
BRANCH  18  19
ATOM     19  C   UNL     1      73.159  91.449  68.477  1.00  0.00     0.000 C 
BRANCH  19  20
ATOM     20  C   UNL     1      74.686  91.419  68.377  1.00  0.00     0.000 C 
BRANCH  20  21
ATOM     21  C   UNL     1      75.336  90.360  69.275  1.00  0.00     0.000 C 
BRANCH  21  22
ATOM     22  C   UNL     1      75.476  88.993  68.598  1.00  0.00     0.003 C 
BRANCH  22  23
ATOM     23  C   UNL     1      76.324  89.029  67.312  1.00  0.00    -0.017 C 
ATOM     24  C   UNL     1      75.491  88.534  66.128  1.00  0.00     0.007 C 
ATOM     25  C   UNL     1      77.599  88.192  67.428  1.00  0.00     0.007 C 
ENDBRANCH  22  23
ENDBRANCH  21  22
ENDBRANCH  20  21
ENDBRANCH  19  20
ENDBRANCH  18  19
ENDBRANCH   1  18
TORSDOF 12
ENDMDL
MODEL 10
REMARK VINA RESULT:    -5.152      2.653      5.133
REMARK INTER + INTRA:          -9.680
REMARK INTER:                  -8.345
REMARK INTRA:                  -1.335
REMARK UNBOUND:                -1.065
REMARK SMILES COc1cc(CNC(=O)CCCCCCCC(C)C)ccc1O
REMARK SMILES IDX 11 1 10 2 8 3 9 4 7 5 6 7 5 8 4 9 20 10 3 11 21 12 22 13
REMARK SMILES IDX 2 14 1 15 23 16 12 18 13 19 14 20 15 21 16 22 17 23 18 24
REMARK SMILES IDX 19 25
REMARK H PARENT 7 6 23 17
REMARK Flexibility Score: inf
ROOT
ATOM      1  C   UNL     1      99.934  76.208  79.205  1.00  0.00     0.010 C 
ENDROOT
BRANCH   1   2
ATOM      2  C   UNL     1      99.367  77.110  78.111  1.00  0.00     0.100 C 
BRANCH   2   3
ATOM      3  C   UNL     1      99.760  78.565  78.298  1.00  0.00     0.220 C 
ATOM      4  O   UNL     1     100.925  78.954  78.296  1.00  0.00    -0.275 OA
ATOM      5  N   UNL     1      98.648  79.375  78.477  1.00  0.00    -0.352 N 
ATOM      6  H   UNL     1      97.720  78.960  78.475  1.00  0.00     0.163 HD
BRANCH   5   7
ATOM      7  C   UNL     1      98.743  80.801  78.685  1.00  0.00     0.151 C 
BRANCH   7   8
ATOM      8  C   UNL     1      97.871  81.567  77.733  1.00  0.00    -0.025 A 
ATOM      9  C   UNL     1      98.286  81.754  76.420  1.00  0.00     0.056 A 
ATOM     10  C   UNL     1      96.658  82.081  78.174  1.00  0.00     0.009 A 
ATOM     11  C   UNL     1      97.476  82.466  75.535  1.00  0.00     0.160 A 
ATOM     12  C   UNL     1      95.848  82.793  77.289  1.00  0.00     0.050 A 
ATOM     13  C   UNL     1      96.256  82.986  75.969  1.00  0.00     0.157 A 
BRANCH  11  14
ATOM     14  O   UNL     1      97.886  82.648  74.248  1.00  0.00    -0.493 OA
ATOM     15  C   UNL     1      97.826  81.515  73.383  1.00  0.00     0.278 C 
ENDBRANCH  11  14
BRANCH  13  16
ATOM     16  O   UNL     1      95.456  83.682  75.115  1.00  0.00    -0.504 OA
ATOM     17  H   UNL     1      94.549  83.336  75.178  1.00  0.00     0.293 HD
ENDBRANCH  13  16
ENDBRANCH   7   8
ENDBRANCH   5   7
ENDBRANCH   2   3
ENDBRANCH   1   2
BRANCH   1  18
ATOM     18  C   UNL     1      98.858  75.575  80.092  1.00  0.00     0.001 C 
BRANCH  18  19
ATOM     19  C   UNL     1      97.678  76.482  80.455  1.00  0.00     0.000 C 
BRANCH  19  20
ATOM     20  C   UNL     1      98.018  77.516  81.531  1.00  0.00     0.000 C 
BRANCH  20  21
ATOM     21  C   UNL     1      96.793  78.265  82.067  1.00  0.00     0.000 C 
BRANCH  21  22
ATOM     22  C   UNL     1      96.640  79.673  81.484  1.00  0.00     0.003 C 
BRANCH  22  23
ATOM     23  C   UNL     1      96.807  80.793  82.530  1.00  0.00    -0.017 C 
ATOM     24  C   UNL     1      95.623  80.776  83.500  1.00  0.00     0.007 C 
ATOM     25  C   UNL     1      96.930  82.178  81.892  1.00  0.00     0.007 C 
ENDBRANCH  22  23
ENDBRANCH  21  22
ENDBRANCH  20  21
ENDBRANCH  19  20
ENDBRANCH  18  19
ENDBRANCH   1  18
TORSDOF 12
ENDMDL
