MODEL 1
REMARK VINA RESULT:    -5.838      0.000      0.000
REMARK INTER + INTRA:         -10.663
REMARK INTER:                  -9.080
REMARK INTRA:                  -1.583
REMARK UNBOUND:                -1.583
REMARK SMILES CCCCC/C=C/C(=O)CCc1ccc(O)c(OC)c1
REMARK SMILES IDX 6 1 7 2 8 3 9 4 10 5 11 6 12 7 17 8 20 9 15 10 14 11 13 12
REMARK SMILES IDX 18 13 19 14 16 15 5 17 4 18 3 19 2 20 1 21
REMARK H PARENT 16 16
REMARK Flexibility Score: inf
ROOT
ATOM      1  C   UNL     1      93.848  92.942  78.667  1.00  0.00    -0.023 C 
ATOM      2  C   UNL     1      93.202  94.043  78.262  1.00  0.00     0.043 C 
ENDROOT
BRANCH   2   3
ATOM      3  C   UNL     1      91.877  93.923  77.595  1.00  0.00     0.155 C 
ATOM      4  O   UNL     1      91.027  93.124  77.980  1.00  0.00    -0.295 OA
BRANCH   3   5
ATOM      5  C   UNL     1      91.650  94.802  76.381  1.00  0.00     0.085 C 
BRANCH   5   6
ATOM      6  C   UNL     1      92.447  96.104  76.480  1.00  0.00     0.044 C 
BRANCH   6   7
ATOM      7  C   UNL     1      93.442  96.270  75.355  1.00  0.00    -0.044 A 
ATOM      8  C   UNL     1      94.417  97.627  73.633  1.00  0.00     0.160 A 
ATOM      9  C   UNL     1      93.498  97.474  74.671  1.00  0.00     0.054 A 
ATOM     10  C   UNL     1      95.267  96.576  73.292  1.00  0.00     0.157 A 
ATOM     11  C   UNL     1      95.198  95.369  73.991  1.00  0.00     0.050 A 
ATOM     12  C   UNL     1      94.279  95.216  75.029  1.00  0.00     0.008 A 
BRANCH   8  13
ATOM     13  O   UNL     1      94.474  98.810  72.958  1.00  0.00    -0.493 OA
ATOM     14  C   UNL     1      93.237  99.361  72.510  1.00  0.00     0.278 C 
ENDBRANCH   8  13
BRANCH  10  15
ATOM     15  O   UNL     1      96.169  96.714  72.281  1.00  0.00    -0.504 OA
ATOM     16  H   UNL     1      95.703  97.064  71.502  1.00  0.00     0.293 HD
ENDBRANCH  10  15
ENDBRANCH   6   7
ENDBRANCH   5   6
ENDBRANCH   3   5
ENDBRANCH   2   3
BRANCH   1  17
ATOM     17  C   UNL     1      95.186  92.978  79.346  1.00  0.00     0.027 C 
BRANCH  17  18
ATOM     18  C   UNL     1      96.321  93.420  78.416  1.00  0.00     0.004 C 
BRANCH  18  19
ATOM     19  C   UNL     1      96.995  94.726  78.847  1.00  0.00     0.000 C 
BRANCH  19  20
ATOM     20  C   UNL     1      96.235  95.941  78.313  1.00  0.00    -0.003 C 
ATOM     21  C   UNL     1      96.964  96.586  77.146  1.00  0.00     0.004 C 
ENDBRANCH  19  20
ENDBRANCH  18  19
ENDBRANCH  17  18
ENDBRANCH   1  17
TORSDOF 10
ENDMDL
MODEL 2
REMARK VINA RESULT:    -5.459      2.557      5.704
REMARK INTER + INTRA:         -10.073
REMARK INTER:                  -8.851
REMARK INTRA:                  -1.222
REMARK UNBOUND:                -1.583
REMARK SMILES CCCCC/C=C/C(=O)CCc1ccc(O)c(OC)c1
REMARK SMILES IDX 6 1 7 2 8 3 9 4 10 5 11 6 12 7 17 8 20 9 15 10 14 11 13 12
REMARK SMILES IDX 18 13 19 14 16 15 5 17 4 18 3 19 2 20 1 21
REMARK H PARENT 16 16
REMARK Flexibility Score: inf
ROOT
ATOM      1  C   UNL     1      97.184  96.694  79.174  1.00  0.00    -0.023 C 
ATOM      2  C   UNL     1      97.546  95.405  79.183  1.00  0.00     0.043 C 
ENDROOT
BRANCH   2   3
ATOM      3  C   UNL     1      97.175  94.539  80.335  1.00  0.00     0.155 C 
ATOM      4  O   UNL     1      98.009  94.156  81.153  1.00  0.00    -0.295 OA
BRANCH   3   5
ATOM      5  C   UNL     1      95.724  94.110  80.419  1.00  0.00     0.085 C 
BRANCH   5   6
ATOM      6  C   UNL     1      95.313  93.297  79.189  1.00  0.00     0.044 C 
BRANCH   6   7
ATOM      7  C   UNL     1      94.059  93.822  78.531  1.00  0.00    -0.044 A 
ATOM      8  C   UNL     1      91.761  93.520  77.909  1.00  0.00     0.160 A 
ATOM      9  C   UNL     1      92.919  93.034  78.517  1.00  0.00     0.054 A 
ATOM     10  C   UNL     1      91.758  94.785  77.322  1.00  0.00     0.157 A 
ATOM     11  C   UNL     1      92.915  95.566  77.344  1.00  0.00     0.050 A 
ATOM     12  C   UNL     1      94.073  95.081  77.952  1.00  0.00     0.008 A 
BRANCH   8  13
ATOM     13  O   UNL     1      90.639  92.747  77.894  1.00  0.00    -0.493 OA
ATOM     14  C   UNL     1      90.346  92.053  76.683  1.00  0.00     0.278 C 
ENDBRANCH   8  13
BRANCH  10  15
ATOM     15  O   UNL     1      90.634  95.270  76.726  1.00  0.00    -0.504 OA
ATOM     16  H   UNL     1      89.883  94.711  76.990  1.00  0.00     0.293 HD
ENDBRANCH  10  15
ENDBRANCH   6   7
ENDBRANCH   5   6
ENDBRANCH   3   5
ENDBRANCH   2   3
BRANCH   1  17
ATOM     17  C   UNL     1      97.519  97.633  78.051  1.00  0.00     0.027 C 
BRANCH  17  18
ATOM     18  C   UNL     1      97.523  96.951  76.679  1.00  0.00     0.004 C 
BRANCH  18  19
ATOM     19  C   UNL     1      96.815  97.763  75.589  1.00  0.00     0.000 C 
BRANCH  19  20
ATOM     20  C   UNL     1      96.337  96.859  74.451  1.00  0.00    -0.003 C 
ATOM     21  C   UNL     1      94.823  96.718  74.451  1.00  0.00     0.004 C 
ENDBRANCH  19  20
ENDBRANCH  18  19
ENDBRANCH  17  18
ENDBRANCH   1  17
TORSDOF 10
ENDMDL
MODEL 3
REMARK VINA RESULT:    -5.249     12.881     14.296
REMARK INTER + INTRA:          -9.747
REMARK INTER:                  -8.983
REMARK INTRA:                  -0.764
REMARK UNBOUND:                -1.583
REMARK SMILES CCCCC/C=C/C(=O)CCc1ccc(O)c(OC)c1
REMARK SMILES IDX 6 1 7 2 8 3 9 4 10 5 11 6 12 7 17 8 20 9 15 10 14 11 13 12
REMARK SMILES IDX 18 13 19 14 16 15 5 17 4 18 3 19 2 20 1 21
REMARK H PARENT 16 16
REMARK Flexibility Score: inf
ROOT
ATOM      1  C   UNL     1      97.029  81.844  78.352  1.00  0.00    -0.023 C 
ATOM      2  C   UNL     1      97.272  82.295  77.115  1.00  0.00     0.043 C 
ENDROOT
BRANCH   2   3
ATOM      3  C   UNL     1      96.222  83.053  76.382  1.00  0.00     0.155 C 
ATOM      4  O   UNL     1      95.235  83.513  76.953  1.00  0.00    -0.295 OA
BRANCH   3   5
ATOM      5  C   UNL     1      96.405  83.185  74.883  1.00  0.00     0.085 C 
BRANCH   5   6
ATOM      6  C   UNL     1      97.269  82.051  74.327  1.00  0.00     0.044 C 
BRANCH   6   7
ATOM      7  C   UNL     1      98.369  82.544  73.417  1.00  0.00    -0.044 A 
ATOM      8  C   UNL     1     100.051  82.094  71.766  1.00  0.00     0.160 A 
ATOM      9  C   UNL     1      99.036  81.639  72.606  1.00  0.00     0.054 A 
ATOM     10  C   UNL     1     100.387  83.447  71.746  1.00  0.00     0.157 A 
ATOM     11  C   UNL     1      99.707  84.346  72.569  1.00  0.00     0.050 A 
ATOM     12  C   UNL     1      98.691  83.891  73.410  1.00  0.00     0.008 A 
BRANCH   8  13
ATOM     13  O   UNL     1     100.708  81.206  70.968  1.00  0.00    -0.493 OA
ATOM     14  C   UNL     1     100.091  80.870  69.727  1.00  0.00     0.278 C 
ENDBRANCH   8  13
BRANCH  10  15
ATOM     15  O   UNL     1     101.377  83.904  70.929  1.00  0.00    -0.504 OA
ATOM     16  H   UNL     1     101.328  84.875  70.904  1.00  0.00     0.293 HD
ENDBRANCH  10  15
ENDBRANCH   6   7
ENDBRANCH   5   6
ENDBRANCH   3   5
ENDBRANCH   2   3
BRANCH   1  17
ATOM     17  C   UNL     1      98.034  81.072  79.156  1.00  0.00     0.027 C 
BRANCH  17  18
ATOM     18  C   UNL     1      97.423  80.385  80.382  1.00  0.00     0.004 C 
BRANCH  18  19
ATOM     19  C   UNL     1      97.643  81.154  81.689  1.00  0.00     0.000 C 
BRANCH  19  20
ATOM     20  C   UNL     1      96.318  81.667  82.257  1.00  0.00    -0.003 C 
ATOM     21  C   UNL     1      96.391  83.148  82.590  1.00  0.00     0.004 C 
ENDBRANCH  19  20
ENDBRANCH  18  19
ENDBRANCH  17  18
ENDBRANCH   1  17
TORSDOF 10
ENDMDL
MODEL 4
REMARK VINA RESULT:    -5.244      6.939     10.877
REMARK INTER + INTRA:          -9.739
REMARK INTER:                  -8.669
REMARK INTRA:                  -1.070
REMARK UNBOUND:                -1.583
REMARK SMILES CCCCC/C=C/C(=O)CCc1ccc(O)c(OC)c1
REMARK SMILES IDX 6 1 7 2 8 3 9 4 10 5 11 6 12 7 17 8 20 9 15 10 14 11 13 12
REMARK SMILES IDX 18 13 19 14 16 15 5 17 4 18 3 19 2 20 1 21
REMARK H PARENT 16 16
REMARK Flexibility Score: inf
ROOT
ATOM      1  C   UNL     1      90.162  99.703  69.724  1.00  0.00    -0.023 C 
ATOM      2  C   UNL     1      89.273  98.855  69.192  1.00  0.00     0.043 C 
ENDROOT
BRANCH   2   3
ATOM      3  C   UNL     1      89.635  98.061  67.986  1.00  0.00     0.155 C 
ATOM      4  O   UNL     1      90.083  96.919  68.072  1.00  0.00    -0.295 OA
BRANCH   3   5
ATOM      5  C   UNL     1      89.472  98.752  66.647  1.00  0.00     0.085 C 
BRANCH   5   6
ATOM      6  C   UNL     1      88.079  99.367  66.505  1.00  0.00     0.044 C 
BRANCH   6   7
ATOM      7  C   UNL     1      88.109 100.875  66.422  1.00  0.00    -0.044 A 
ATOM      8  C   UNL     1      89.354 102.926  66.376  1.00  0.00     0.160 A 
ATOM      9  C   UNL     1      89.328 101.533  66.454  1.00  0.00     0.054 A 
ATOM     10  C   UNL     1      88.163 103.642  66.268  1.00  0.00     0.157 A 
ATOM     11  C   UNL     1      86.943 102.965  66.237  1.00  0.00     0.050 A 
ATOM     12  C   UNL     1      86.916 101.572  66.315  1.00  0.00     0.008 A 
BRANCH   8  13
ATOM     13  O   UNL     1      90.552 103.575  66.407  1.00  0.00    -0.493 OA
ATOM     14  C   UNL     1      91.193 103.692  67.675  1.00  0.00     0.278 C 
ENDBRANCH   8  13
BRANCH  10  15
ATOM     15  O   UNL     1      88.176 105.001  66.191  1.00  0.00    -0.504 OA
ATOM     16  H   UNL     1      88.735 105.259  65.438  1.00  0.00     0.293 HD
ENDBRANCH  10  15
ENDBRANCH   6   7
ENDBRANCH   5   6
ENDBRANCH   3   5
ENDBRANCH   2   3
BRANCH   1  17
ATOM     17  C   UNL     1      89.874 100.539  70.936  1.00  0.00     0.027 C 
BRANCH  17  18
ATOM     18  C   UNL     1      91.140 101.092  71.600  1.00  0.00     0.004 C 
BRANCH  18  19
ATOM     19  C   UNL     1      92.411 100.318  71.237  1.00  0.00     0.000 C 
BRANCH  19  20
ATOM     20  C   UNL     1      92.789  99.330  72.341  1.00  0.00    -0.003 C 
ATOM     21  C   UNL     1      93.876  99.891  73.244  1.00  0.00     0.004 C 
ENDBRANCH  19  20
ENDBRANCH  18  19
ENDBRANCH  17  18
ENDBRANCH   1  17
TORSDOF 10
ENDMDL
MODEL 5
REMARK VINA RESULT:    -5.160     20.478     22.414
REMARK INTER + INTRA:          -9.608
REMARK INTER:                  -8.047
REMARK INTRA:                  -1.561
REMARK UNBOUND:                -1.583
REMARK SMILES CCCCC/C=C/C(=O)CCc1ccc(O)c(OC)c1
REMARK SMILES IDX 6 1 7 2 8 3 9 4 10 5 11 6 12 7 17 8 20 9 15 10 14 11 13 12
REMARK SMILES IDX 18 13 19 14 16 15 5 17 4 18 3 19 2 20 1 21
REMARK H PARENT 16 16
REMARK Flexibility Score: inf
ROOT
ATOM      1  C   UNL     1      75.449  86.589  65.450  1.00  0.00    -0.023 C 
ATOM      2  C   UNL     1      76.427  87.498  65.547  1.00  0.00     0.043 C 
ENDROOT
BRANCH   2   3
ATOM      3  C   UNL     1      76.106  88.947  65.432  1.00  0.00     0.155 C 
ATOM      4  O   UNL     1      75.449  89.393  64.494  1.00  0.00    -0.295 OA
BRANCH   3   5
ATOM      5  C   UNL     1      76.678  89.853  66.504  1.00  0.00     0.085 C 
BRANCH   5   6
ATOM      6  C   UNL     1      76.661  89.173  67.874  1.00  0.00     0.044 C 
BRANCH   6   7
ATOM      7  C   UNL     1      75.398  89.452  68.653  1.00  0.00    -0.044 A 
ATOM      8  C   UNL     1      74.110  90.905  70.065  1.00  0.00     0.160 A 
ATOM      9  C   UNL     1      75.277  90.647  69.346  1.00  0.00     0.054 A 
ATOM     10  C   UNL     1      73.079  89.966  70.083  1.00  0.00     0.157 A 
ATOM     11  C   UNL     1      73.216  88.767  69.381  1.00  0.00     0.050 A 
ATOM     12  C   UNL     1      74.383  88.509  68.662  1.00  0.00     0.008 A 
BRANCH   8  13
ATOM     13  O   UNL     1      73.989  92.078  70.747  1.00  0.00    -0.493 OA
ATOM     14  C   UNL     1      75.166  92.874  70.881  1.00  0.00     0.278 C 
ENDBRANCH   8  13
BRANCH  10  15
ATOM     15  O   UNL     1      71.935  90.206  70.781  1.00  0.00    -0.504 OA
ATOM     16  H   UNL     1      72.075  90.992  71.336  1.00  0.00     0.293 HD
ENDBRANCH  10  15
ENDBRANCH   6   7
ENDBRANCH   5   6
ENDBRANCH   3   5
ENDBRANCH   2   3
BRANCH   1  17
ATOM     17  C   UNL     1      75.690  85.111  65.555  1.00  0.00     0.027 C 
BRANCH  17  18
ATOM     18  C   UNL     1      77.115  84.763  66.000  1.00  0.00     0.004 C 
BRANCH  18  19
ATOM     19  C   UNL     1      77.194  84.206  67.424  1.00  0.00     0.000 C 
BRANCH  19  20
ATOM     20  C   UNL     1      76.995  85.312  68.461  1.00  0.00    -0.003 C 
ATOM     21  C   UNL     1      75.757  85.066  69.308  1.00  0.00     0.004 C 
ENDBRANCH  19  20
ENDBRANCH  18  19
ENDBRANCH  17  18
ENDBRANCH   1  17
TORSDOF 10
ENDMDL
MODEL 6
REMARK VINA RESULT:    -5.154      7.463     11.214
REMARK INTER + INTRA:          -9.599
REMARK INTER:                  -8.529
REMARK INTRA:                  -1.070
REMARK UNBOUND:                -1.583
REMARK SMILES CCCCC/C=C/C(=O)CCc1ccc(O)c(OC)c1
REMARK SMILES IDX 6 1 7 2 8 3 9 4 10 5 11 6 12 7 17 8 20 9 15 10 14 11 13 12
REMARK SMILES IDX 18 13 19 14 16 15 5 17 4 18 3 19 2 20 1 21
REMARK H PARENT 16 16
REMARK Flexibility Score: inf
ROOT
ATOM      1  C   UNL     1      90.174  99.613  69.690  1.00  0.00    -0.023 C 
ATOM      2  C   UNL     1      89.173  98.935  69.116  1.00  0.00     0.043 C 
ENDROOT
BRANCH   2   3
ATOM      3  C   UNL     1      89.419  98.163  67.868  1.00  0.00     0.155 C 
ATOM      4  O   UNL     1      89.927  97.044  67.887  1.00  0.00    -0.295 OA
BRANCH   3   5
ATOM      5  C   UNL     1      89.060  98.851  66.566  1.00  0.00     0.085 C 
BRANCH   5   6
ATOM      6  C   UNL     1      87.794  99.697  66.715  1.00  0.00     0.044 C 
BRANCH   6   7
ATOM      7  C   UNL     1      88.045 101.172  66.508  1.00  0.00    -0.044 A 
ATOM      8  C   UNL     1      87.203 103.384  66.112  1.00  0.00     0.160 A 
ATOM      9  C   UNL     1      86.970 102.022  66.303  1.00  0.00     0.054 A 
ATOM     10  C   UNL     1      88.507 103.878  66.128  1.00  0.00     0.157 A 
ATOM     11  C   UNL     1      89.579 103.010  66.336  1.00  0.00     0.050 A 
ATOM     12  C   UNL     1      89.346 101.648  66.527  1.00  0.00     0.008 A 
BRANCH   8  13
ATOM     13  O   UNL     1      86.148 104.222  65.910  1.00  0.00    -0.493 OA
ATOM     14  C   UNL     1      85.512 104.755  67.070  1.00  0.00     0.278 C 
ENDBRANCH   8  13
BRANCH  10  15
ATOM     15  O   UNL     1      88.747 105.206  65.944  1.00  0.00    -0.504 OA
ATOM     16  H   UNL     1      89.475 105.470  66.532  1.00  0.00     0.293 HD
ENDBRANCH  10  15
ENDBRANCH   6   7
ENDBRANCH   5   6
ENDBRANCH   3   5
ENDBRANCH   2   3
BRANCH   1  17
ATOM     17  C   UNL     1      90.007 100.415  70.948  1.00  0.00     0.027 C 
BRANCH  17  18
ATOM     18  C   UNL     1      91.329 100.971  71.487  1.00  0.00     0.004 C 
BRANCH  18  19
ATOM     19  C   UNL     1      92.554 100.149  71.075  1.00  0.00     0.000 C 
BRANCH  19  20
ATOM     20  C   UNL     1      93.053  99.283  72.233  1.00  0.00    -0.003 C 
ATOM     21  C   UNL     1      93.477 100.133  73.421  1.00  0.00     0.004 C 
ENDBRANCH  19  20
ENDBRANCH  18  19
ENDBRANCH  17  18
ENDBRANCH   1  17
TORSDOF 10
ENDMDL
MODEL 7
REMARK VINA RESULT:    -5.142     13.097     15.627
REMARK INTER + INTRA:          -9.581
REMARK INTER:                  -8.718
REMARK INTRA:                  -0.863
REMARK UNBOUND:                -1.583
REMARK SMILES CCCCC/C=C/C(=O)CCc1ccc(O)c(OC)c1
REMARK SMILES IDX 6 1 7 2 8 3 9 4 10 5 11 6 12 7 17 8 20 9 15 10 14 11 13 12
REMARK SMILES IDX 18 13 19 14 16 15 5 17 4 18 3 19 2 20 1 21
REMARK H PARENT 16 16
REMARK Flexibility Score: inf
ROOT
ATOM      1  C   UNL     1      96.884  82.061  73.848  1.00  0.00    -0.023 C 
ATOM      2  C   UNL     1      96.596  81.790  75.127  1.00  0.00     0.043 C 
ENDROOT
BRANCH   2   3
ATOM      3  C   UNL     1      96.063  82.863  76.010  1.00  0.00     0.155 C 
ATOM      4  O   UNL     1      95.570  83.893  75.555  1.00  0.00    -0.295 OA
BRANCH   3   5
ATOM      5  C   UNL     1      96.209  82.644  77.503  1.00  0.00     0.085 C 
BRANCH   5   6
ATOM      6  C   UNL     1      97.542  81.975  77.839  1.00  0.00     0.044 C 
BRANCH   6   7
ATOM      7  C   UNL     1      97.639  81.551  79.286  1.00  0.00    -0.044 A 
ATOM      8  C   UNL     1      96.872  81.723  81.553  1.00  0.00     0.160 A 
ATOM      9  C   UNL     1      96.782  82.115  80.217  1.00  0.00     0.054 A 
ATOM     10  C   UNL     1      97.816  80.772  81.939  1.00  0.00     0.157 A 
ATOM     11  C   UNL     1      98.673  80.214  80.989  1.00  0.00     0.050 A 
ATOM     12  C   UNL     1      98.583  80.607  79.654  1.00  0.00     0.008 A 
BRANCH   8  13
ATOM     13  O   UNL     1      96.031  82.276  82.471  1.00  0.00    -0.493 OA
ATOM     14  C   UNL     1      96.374  83.567  82.970  1.00  0.00     0.278 C 
ENDBRANCH   8  13
BRANCH  10  15
ATOM     15  O   UNL     1      97.913  80.381  83.240  1.00  0.00    -0.504 OA
ATOM     16  H   UNL     1      97.101  79.900  83.476  1.00  0.00     0.293 HD
ENDBRANCH  10  15
ENDBRANCH   6   7
ENDBRANCH   5   6
ENDBRANCH   3   5
ENDBRANCH   2   3
BRANCH   1  17
ATOM     17  C   UNL     1      97.425  81.035  72.894  1.00  0.00     0.027 C 
BRANCH  17  18
ATOM     18  C   UNL     1      98.938  80.832  73.023  1.00  0.00     0.004 C 
BRANCH  18  19
ATOM     19  C   UNL     1      99.727  82.141  73.124  1.00  0.00     0.000 C 
BRANCH  19  20
ATOM     20  C   UNL     1     100.330  82.316  74.518  1.00  0.00    -0.003 C 
ATOM     21  C   UNL     1     101.143  81.099  74.930  1.00  0.00     0.004 C 
ENDBRANCH  19  20
ENDBRANCH  18  19
ENDBRANCH  17  18
ENDBRANCH   1  17
TORSDOF 10
ENDMDL
MODEL 8
REMARK VINA RESULT:    -4.970     21.671     24.232
REMARK INTER + INTRA:          -9.312
REMARK INTER:                  -7.956
REMARK INTRA:                  -1.357
REMARK UNBOUND:                -1.583
REMARK SMILES CCCCC/C=C/C(=O)CCc1ccc(O)c(OC)c1
REMARK SMILES IDX 6 1 7 2 8 3 9 4 10 5 11 6 12 7 17 8 20 9 15 10 14 11 13 12
REMARK SMILES IDX 18 13 19 14 16 15 5 17 4 18 3 19 2 20 1 21
REMARK H PARENT 16 16
REMARK Flexibility Score: inf
ROOT
ATOM      1  C   UNL     1      74.511  83.980  66.148  1.00  0.00    -0.023 C 
ATOM      2  C   UNL     1      75.652  83.292  66.289  1.00  0.00     0.043 C 
ENDROOT
BRANCH   2   3
ATOM      3  C   UNL     1      76.797  83.898  67.022  1.00  0.00     0.155 C 
ATOM      4  O   UNL     1      77.918  83.976  66.523  1.00  0.00    -0.295 OA
BRANCH   3   5
ATOM      5  C   UNL     1      76.522  84.365  68.438  1.00  0.00     0.085 C 
BRANCH   5   6
ATOM      6  C   UNL     1      77.208  85.702  68.724  1.00  0.00     0.044 C 
BRANCH   6   7
ATOM      7  C   UNL     1      76.512  86.871  68.067  1.00  0.00    -0.044 A 
ATOM      8  C   UNL     1      74.496  88.078  67.579  1.00  0.00     0.160 A 
ATOM      9  C   UNL     1      75.138  86.998  68.186  1.00  0.00     0.054 A 
ATOM     10  C   UNL     1      75.237  89.016  66.861  1.00  0.00     0.157 A 
ATOM     11  C   UNL     1      76.621  88.874  66.750  1.00  0.00     0.050 A 
ATOM     12  C   UNL     1      77.262  87.794  67.357  1.00  0.00     0.008 A 
BRANCH   8  13
ATOM     13  O   UNL     1      73.145  88.205  67.695  1.00  0.00    -0.493 OA
ATOM     14  C   UNL     1      72.345  87.166  67.133  1.00  0.00     0.278 C 
ENDBRANCH   8  13
BRANCH  10  15
ATOM     15  O   UNL     1      74.622  90.075  66.264  1.00  0.00    -0.504 OA
ATOM     16  H   UNL     1      74.475  89.855  65.329  1.00  0.00     0.293 HD
ENDBRANCH  10  15
ENDBRANCH   6   7
ENDBRANCH   5   6
ENDBRANCH   3   5
ENDBRANCH   2   3
BRANCH   1  17
ATOM     17  C   UNL     1      73.313  83.440  65.424  1.00  0.00     0.027 C 
BRANCH  17  18
ATOM     18  C   UNL     1      73.227  81.911  65.458  1.00  0.00     0.004 C 
BRANCH  18  19
ATOM     19  C   UNL     1      73.021  81.277  64.079  1.00  0.00     0.000 C 
BRANCH  19  20
ATOM     20  C   UNL     1      73.785  82.045  62.999  1.00  0.00    -0.003 C 
ATOM     21  C   UNL     1      75.243  81.619  62.938  1.00  0.00     0.004 C 
ENDBRANCH  19  20
ENDBRANCH  18  19
ENDBRANCH  17  18
ENDBRANCH   1  17
TORSDOF 10
ENDMDL
MODEL 9
REMARK VINA RESULT:    -4.952      8.671     11.771
REMARK INTER + INTRA:          -9.286
REMARK INTER:                  -7.769
REMARK INTRA:                  -1.517
REMARK UNBOUND:                -1.583
REMARK SMILES CCCCC/C=C/C(=O)CCc1ccc(O)c(OC)c1
REMARK SMILES IDX 6 1 7 2 8 3 9 4 10 5 11 6 12 7 17 8 20 9 15 10 14 11 13 12
REMARK SMILES IDX 18 13 19 14 16 15 5 17 4 18 3 19 2 20 1 21
REMARK H PARENT 16 16
REMARK Flexibility Score: inf
ROOT
ATOM      1  C   UNL     1      90.846  99.365  69.375  1.00  0.00    -0.023 C 
ATOM      2  C   UNL     1      89.740  98.642  69.158  1.00  0.00     0.043 C 
ENDROOT
BRANCH   2   3
ATOM      3  C   UNL     1      89.558  97.936  67.860  1.00  0.00     0.155 C 
ATOM      4  O   UNL     1      89.536  96.710  67.786  1.00  0.00    -0.295 OA
BRANCH   3   5
ATOM      5  C   UNL     1      89.452  98.809  66.625  1.00  0.00     0.085 C 
BRANCH   5   6
ATOM      6  C   UNL     1      88.097  99.515  66.558  1.00  0.00     0.044 C 
BRANCH   6   7
ATOM      7  C   UNL     1      88.221 101.019  66.493  1.00  0.00    -0.044 A 
ATOM      8  C   UNL     1      87.191 103.187  66.486  1.00  0.00     0.160 A 
ATOM      9  C   UNL     1      87.076 101.798  66.546  1.00  0.00     0.054 A 
ATOM     10  C   UNL     1      88.449 103.779  66.373  1.00  0.00     0.157 A 
ATOM     11  C   UNL     1      89.593 102.981  66.320  1.00  0.00     0.050 A 
ATOM     12  C   UNL     1      89.477 101.592  66.380  1.00  0.00     0.008 A 
BRANCH   8  13
ATOM     13  O   UNL     1      86.067 103.955  66.539  1.00  0.00    -0.493 OA
ATOM     14  C   UNL     1      85.057 103.692  65.567  1.00  0.00     0.278 C 
ENDBRANCH   8  13
BRANCH  10  15
ATOM     15  O   UNL     1      88.574 105.134  66.315  1.00  0.00    -0.504 OA
ATOM     16  H   UNL     1      87.971 105.467  65.628  1.00  0.00     0.293 HD
ENDBRANCH  10  15
ENDBRANCH   6   7
ENDBRANCH   5   6
ENDBRANCH   3   5
ENDBRANCH   2   3
BRANCH   1  17
ATOM     17  C   UNL     1      91.104 100.106  70.655  1.00  0.00     0.027 C 
BRANCH  17  18
ATOM     18  C   UNL     1      89.920 100.973  71.098  1.00  0.00     0.004 C 
BRANCH  18  19
ATOM     19  C   UNL     1      90.281 102.448  71.299  1.00  0.00     0.000 C 
BRANCH  19  20
ATOM     20  C   UNL     1      90.502 103.149  69.958  1.00  0.00    -0.003 C 
ATOM     21  C   UNL     1      89.532 104.304  69.767  1.00  0.00     0.004 C 
ENDBRANCH  19  20
ENDBRANCH  18  19
ENDBRANCH  17  18
ENDBRANCH   1  17
TORSDOF 10
ENDMDL
MODEL 10
REMARK VINA RESULT:    -4.899     13.160     14.989
REMARK INTER + INTRA:          -9.202
REMARK INTER:                  -7.420
REMARK INTRA:                  -1.782
REMARK UNBOUND:                -1.583
REMARK SMILES CCCCC/C=C/C(=O)CCc1ccc(O)c(OC)c1
REMARK SMILES IDX 6 1 7 2 8 3 9 4 10 5 11 6 12 7 17 8 20 9 15 10 14 11 13 12
REMARK SMILES IDX 18 13 19 14 16 15 5 17 4 18 3 19 2 20 1 21
REMARK H PARENT 16 16
REMARK Flexibility Score: inf
ROOT
ATOM      1  C   UNL     1      96.767  80.932  77.319  1.00  0.00    -0.023 C 
ATOM      2  C   UNL     1      97.132  82.185  77.024  1.00  0.00     0.043 C 
ENDROOT
BRANCH   2   3
ATOM      3  C   UNL     1      96.135  83.134  76.458  1.00  0.00     0.155 C 
ATOM      4  O   UNL     1      95.197  83.564  77.127  1.00  0.00    -0.295 OA
BRANCH   3   5
ATOM      5  C   UNL     1      96.305  83.503  74.998  1.00  0.00     0.085 C 
BRANCH   5   6
ATOM      6  C   UNL     1      96.640  82.274  74.150  1.00  0.00     0.044 C 
BRANCH   6   7
ATOM      7  C   UNL     1      97.957  82.404  73.423  1.00  0.00    -0.044 A 
ATOM      8  C   UNL     1      99.641  81.461  71.997  1.00  0.00     0.160 A 
ATOM      9  C   UNL     1      98.425  81.340  72.669  1.00  0.00     0.054 A 
ATOM     10  C   UNL     1     100.374  82.644  72.087  1.00  0.00     0.157 A 
ATOM     11  C   UNL     1      99.890  83.707  72.851  1.00  0.00     0.050 A 
ATOM     12  C   UNL     1      98.674  83.586  73.523  1.00  0.00     0.008 A 
BRANCH   8  13
ATOM     13  O   UNL     1     100.103  80.416  71.255  1.00  0.00    -0.493 OA
ATOM     14  C   UNL     1     100.646  79.305  71.967  1.00  0.00     0.278 C 
ENDBRANCH   8  13
BRANCH  10  15
ATOM     15  O   UNL     1     101.563  82.774  71.435  1.00  0.00    -0.504 OA
ATOM     16  H   UNL     1     102.202  83.184  72.044  1.00  0.00     0.293 HD
ENDBRANCH  10  15
ENDBRANCH   6   7
ENDBRANCH   5   6
ENDBRANCH   3   5
ENDBRANCH   2   3
BRANCH   1  17
ATOM     17  C   UNL     1      97.712  79.915  77.892  1.00  0.00     0.027 C 
BRANCH  17  18
ATOM     18  C   UNL     1      98.149  78.858  76.872  1.00  0.00     0.004 C 
BRANCH  18  19
ATOM     19  C   UNL     1      99.077  79.403  75.782  1.00  0.00     0.000 C 
BRANCH  19  20
ATOM     20  C   UNL     1     100.259  80.159  76.391  1.00  0.00    -0.003 C 
ATOM     21  C   UNL     1     101.077  80.867  75.323  1.00  0.00     0.004 C 
ENDBRANCH  19  20
ENDBRANCH  18  19
ENDBRANCH  17  18
ENDBRANCH   1  17
TORSDOF 10
ENDMDL
