MODEL 1
REMARK VINA RESULT:    -6.947      0.000      0.000
REMARK INTER + INTRA:         -11.861
REMARK INTER:                 -11.212
REMARK INTRA:                  -0.649
REMARK UNBOUND:                -0.649
REMARK SMILES COc1cc(CNC(=O)CCCCC/C=C/C(C)C)ccc1O
REMARK SMILES IDX 11 1 10 2 8 3 7 4 9 6 6 7 5 8 3 9 22 10 4 11 21 12 20 13
REMARK SMILES IDX 2 14 1 15 23 16 12 18 13 19 14 20 15 21 16 22 17 23 18 24
REMARK SMILES IDX 19 25
REMARK H PARENT 7 5 23 17
REMARK Flexibility Score: inf
ROOT
ATOM      1  C   UNL     1      94.791  82.443  83.683  1.00  0.00     0.010 C 
ENDROOT
BRANCH   1   2
ATOM      2  C   UNL     1      96.168  83.038  83.292  1.00  0.00     0.100 C 
BRANCH   2   3
ATOM      3  C   UNL     1      96.816  82.357  82.157  1.00  0.00     0.220 C 
ATOM      4  N   UNL     1      97.376  83.090  81.155  1.00  0.00    -0.352 N 
ATOM      5  H   UNL     1      97.235  84.088  81.235  1.00  0.00     0.163 HD
ATOM      6  O   UNL     1      96.870  81.104  82.166  1.00  0.00    -0.275 OA
BRANCH   4   7
ATOM      7  C   UNL     1      98.115  82.564  80.054  1.00  0.00     0.151 C 
BRANCH   7   8
ATOM      8  C   UNL     1      97.644  83.090  78.746  1.00  0.00    -0.025 A 
ATOM      9  C   UNL     1      98.018  83.501  76.350  1.00  0.00     0.160 A 
ATOM     10  C   UNL     1      96.763  84.143  76.266  1.00  0.00     0.157 A 
ATOM     11  C   UNL     1      98.452  82.988  77.589  1.00  0.00     0.056 A 
ATOM     12  C   UNL     1      95.944  84.236  77.406  1.00  0.00     0.050 A 
ATOM     13  C   UNL     1      96.377  83.703  78.635  1.00  0.00     0.009 A 
BRANCH   9  14
ATOM     14  O   UNL     1      98.784  83.328  75.228  1.00  0.00    -0.493 OA
ATOM     15  C   UNL     1     100.158  83.721  75.389  1.00  0.00     0.278 C 
ENDBRANCH   9  14
BRANCH  10  16
ATOM     16  O   UNL     1      96.321  84.676  75.099  1.00  0.00    -0.504 OA
ATOM     17  H   UNL     1      96.949  84.478  74.400  1.00  0.00     0.293 HD
ENDBRANCH  10  16
ENDBRANCH   7   8
ENDBRANCH   4   7
ENDBRANCH   2   3
ENDBRANCH   1   2
BRANCH   1  18
ATOM     18  C   UNL     1      94.110  83.286  84.791  1.00  0.00     0.001 C 
BRANCH  18  19
ATOM     19  C   UNL     1      92.788  82.674  85.317  1.00  0.00     0.004 C 
BRANCH  19  20
ATOM     20  C   UNL     1      92.189  81.661  84.302  1.00  0.00     0.027 C 
BRANCH  20  21
ATOM     21  C   UNL     1      90.736  81.622  84.303  1.00  0.00    -0.031 C 
ATOM     22  C   UNL     1      90.044  80.593  83.782  1.00  0.00    -0.028 C 
BRANCH  22  23
ATOM     23  C   UNL     1      88.585  80.521  83.772  1.00  0.00     0.005 C 
ATOM     24  C   UNL     1      88.112  79.125  84.258  1.00  0.00     0.012 C 
ATOM     25  C   UNL     1      87.986  81.675  84.621  1.00  0.00     0.012 C 
ENDBRANCH  22  23
ENDBRANCH  20  21
ENDBRANCH  19  20
ENDBRANCH  18  19
ENDBRANCH   1  18
TORSDOF 11
ENDMDL
MODEL 2
REMARK VINA RESULT:    -6.440      4.287      9.510
REMARK INTER + INTRA:         -11.042
REMARK INTER:                 -10.299
REMARK INTRA:                  -0.744
REMARK UNBOUND:                -0.649
REMARK SMILES COc1cc(CNC(=O)CCCCC/C=C/C(C)C)ccc1O
REMARK SMILES IDX 11 1 10 2 8 3 7 4 9 6 6 7 5 8 3 9 22 10 4 11 21 12 20 13
REMARK SMILES IDX 2 14 1 15 23 16 12 18 13 19 14 20 15 21 16 22 17 23 18 24
REMARK SMILES IDX 19 25
REMARK H PARENT 7 5 23 17
REMARK Flexibility Score: inf
ROOT
ATOM      1  C   UNL     1      94.845  81.344  84.517  1.00  0.00     0.010 C 
ENDROOT
BRANCH   1   2
ATOM      2  C   UNL     1      94.022  82.648  84.355  1.00  0.00     0.100 C 
BRANCH   2   3
ATOM      3  C   UNL     1      92.640  82.552  84.862  1.00  0.00     0.220 C 
ATOM      4  N   UNL     1      91.617  82.301  83.999  1.00  0.00    -0.352 N 
ATOM      5  H   UNL     1      91.886  82.268  83.025  1.00  0.00     0.163 HD
ATOM      6  O   UNL     1      92.449  82.667  86.096  1.00  0.00    -0.275 OA
BRANCH   4   7
ATOM      7  C   UNL     1      90.255  82.089  84.366  1.00  0.00     0.151 C 
BRANCH   7   8
ATOM      8  C   UNL     1      89.868  80.655  84.325  1.00  0.00    -0.025 A 
ATOM      9  C   UNL     1      90.488  78.277  84.216  1.00  0.00     0.160 A 
ATOM     10  C   UNL     1      89.121  77.923  84.192  1.00  0.00     0.157 A 
ATOM     11  C   UNL     1      90.851  79.638  84.273  1.00  0.00     0.056 A 
ATOM     12  C   UNL     1      88.136  78.924  84.261  1.00  0.00     0.050 A 
ATOM     13  C   UNL     1      88.506  80.280  84.337  1.00  0.00     0.009 A 
BRANCH   9  14
ATOM     14  O   UNL     1      91.455  77.307  84.239  1.00  0.00    -0.493 OA
ATOM     15  C   UNL     1      92.796  77.816  84.325  1.00  0.00     0.278 C 
ENDBRANCH   9  14
BRANCH  10  16
ATOM     16  O   UNL     1      88.731  76.626  84.109  1.00  0.00    -0.504 OA
ATOM     17  H   UNL     1      87.865  76.579  83.695  1.00  0.00     0.293 HD
ENDBRANCH  10  16
ENDBRANCH   7   8
ENDBRANCH   4   7
ENDBRANCH   2   3
ENDBRANCH   1   2
BRANCH   1  18
ATOM     18  C   UNL     1      96.169  81.415  83.714  1.00  0.00     0.001 C 
BRANCH  18  19
ATOM     19  C   UNL     1      96.328  80.279  82.672  1.00  0.00     0.004 C 
BRANCH  19  20
ATOM     20  C   UNL     1      97.546  80.531  81.740  1.00  0.00     0.027 C 
BRANCH  20  21
ATOM     21  C   UNL     1      97.213  81.255  80.526  1.00  0.00    -0.031 C 
ATOM     22  C   UNL     1      98.149  81.847  79.762  1.00  0.00    -0.028 C 
BRANCH  22  23
ATOM     23  C   UNL     1      97.847  82.577  78.533  1.00  0.00     0.005 C 
ATOM     24  C   UNL     1      97.633  81.587  77.358  1.00  0.00     0.012 C 
ATOM     25  C   UNL     1      96.624  83.509  78.749  1.00  0.00     0.012 C 
ENDBRANCH  22  23
ENDBRANCH  20  21
ENDBRANCH  19  20
ENDBRANCH  18  19
ENDBRANCH   1  18
TORSDOF 11
ENDMDL
MODEL 3
REMARK VINA RESULT:    -6.246      3.122      9.293
REMARK INTER + INTRA:         -10.729
REMARK INTER:                  -9.697
REMARK INTRA:                  -1.032
REMARK UNBOUND:                -0.649
REMARK SMILES COc1cc(CNC(=O)CCCCC/C=C/C(C)C)ccc1O
REMARK SMILES IDX 11 1 10 2 8 3 7 4 9 6 6 7 5 8 3 9 22 10 4 11 21 12 20 13
REMARK SMILES IDX 2 14 1 15 23 16 12 18 13 19 14 20 15 21 16 22 17 23 18 24
REMARK SMILES IDX 19 25
REMARK H PARENT 7 5 23 17
REMARK Flexibility Score: inf
ROOT
ATOM      1  C   UNL     1      97.340  81.150  83.288  1.00  0.00     0.010 C 
ENDROOT
BRANCH   1   2
ATOM      2  C   UNL     1      96.552  82.349  82.699  1.00  0.00     0.100 C 
BRANCH   2   3
ATOM      3  C   UNL     1      95.500  82.872  83.590  1.00  0.00     0.220 C 
ATOM      4  N   UNL     1      94.446  82.080  83.932  1.00  0.00    -0.352 N 
ATOM      5  H   UNL     1      94.428  81.180  83.472  1.00  0.00     0.163 HD
ATOM      6  O   UNL     1      95.628  84.033  84.045  1.00  0.00    -0.275 OA
BRANCH   4   7
ATOM      7  C   UNL     1      93.415  82.424  84.856  1.00  0.00     0.151 C 
BRANCH   7   8
ATOM      8  C   UNL     1      92.142  81.707  84.587  1.00  0.00    -0.025 A 
ATOM      9  C   UNL     1      89.707  81.733  84.244  1.00  0.00     0.160 A 
ATOM     10  C   UNL     1      89.709  80.326  84.126  1.00  0.00     0.157 A 
ATOM     11  C   UNL     1      90.920  82.411  84.482  1.00  0.00     0.056 A 
ATOM     12  C   UNL     1      90.921  79.617  84.212  1.00  0.00     0.050 A 
ATOM     13  C   UNL     1      92.131  80.303  84.430  1.00  0.00     0.009 A 
BRANCH   9  14
ATOM     14  O   UNL     1      88.546  82.440  84.075  1.00  0.00    -0.493 OA
ATOM     15  C   UNL     1      87.937  82.872  85.304  1.00  0.00     0.278 C 
ENDBRANCH   9  14
BRANCH  10  16
ATOM     16  O   UNL     1      88.560  79.634  83.925  1.00  0.00    -0.504 OA
ATOM     17  H   UNL     1      88.021  80.091  83.276  1.00  0.00     0.293 HD
ENDBRANCH  10  16
ENDBRANCH   7   8
ENDBRANCH   4   7
ENDBRANCH   2   3
ENDBRANCH   1   2
BRANCH   1  18
ATOM     18  C   UNL     1      97.175  79.885  82.409  1.00  0.00     0.001 C 
BRANCH  18  19
ATOM     19  C   UNL     1      97.004  80.193  80.900  1.00  0.00     0.004 C 
BRANCH  19  20
ATOM     20  C   UNL     1      98.379  80.290  80.182  1.00  0.00     0.027 C 
BRANCH  20  21
ATOM     21  C   UNL     1      98.430  81.317  79.155  1.00  0.00    -0.031 C 
ATOM     22  C   UNL     1      97.635  82.401  79.182  1.00  0.00    -0.028 C 
BRANCH  22  23
ATOM     23  C   UNL     1      97.667  83.453  78.169  1.00  0.00     0.005 C 
ATOM     24  C   UNL     1      98.504  82.997  76.946  1.00  0.00     0.012 C 
ATOM     25  C   UNL     1      96.221  83.862  77.775  1.00  0.00     0.012 C 
ENDBRANCH  22  23
ENDBRANCH  20  21
ENDBRANCH  19  20
ENDBRANCH  18  19
ENDBRANCH   1  18
TORSDOF 11
ENDMDL
MODEL 4
REMARK VINA RESULT:    -6.199      1.939      3.063
REMARK INTER + INTRA:         -10.653
REMARK INTER:                 -10.031
REMARK INTRA:                  -0.622
REMARK UNBOUND:                -0.649
REMARK SMILES COc1cc(CNC(=O)CCCCC/C=C/C(C)C)ccc1O
REMARK SMILES IDX 11 1 10 2 8 3 7 4 9 6 6 7 5 8 3 9 22 10 4 11 21 12 20 13
REMARK SMILES IDX 2 14 1 15 23 16 12 18 13 19 14 20 15 21 16 22 17 23 18 24
REMARK SMILES IDX 19 25
REMARK H PARENT 7 5 23 17
REMARK Flexibility Score: inf
ROOT
ATOM      1  C   UNL     1      94.295  80.644  85.255  1.00  0.00     0.010 C 
ENDROOT
BRANCH   1   2
ATOM      2  C   UNL     1      95.516  81.532  85.608  1.00  0.00     0.100 C 
BRANCH   2   3
ATOM      3  C   UNL     1      95.738  82.648  84.669  1.00  0.00     0.220 C 
ATOM      4  N   UNL     1      96.208  82.397  83.416  1.00  0.00    -0.352 N 
ATOM      5  H   UNL     1      96.447  81.431  83.241  1.00  0.00     0.163 HD
ATOM      6  O   UNL     1      95.445  83.808  85.044  1.00  0.00    -0.275 OA
BRANCH   4   7
ATOM      7  C   UNL     1      96.375  83.367  82.383  1.00  0.00     0.151 C 
BRANCH   7   8
ATOM      8  C   UNL     1      96.899  82.777  81.124  1.00  0.00    -0.025 A 
ATOM      9  C   UNL     1      97.554  83.013  78.765  1.00  0.00     0.160 A 
ATOM     10  C   UNL     1      97.849  81.633  78.710  1.00  0.00     0.157 A 
ATOM     11  C   UNL     1      97.074  83.572  79.967  1.00  0.00     0.056 A 
ATOM     12  C   UNL     1      97.696  80.836  79.860  1.00  0.00     0.050 A 
ATOM     13  C   UNL     1      97.234  81.406  81.061  1.00  0.00     0.009 A 
BRANCH   9  14
ATOM     14  O   UNL     1      97.784  83.814  77.678  1.00  0.00    -0.493 OA
ATOM     15  C   UNL     1      96.595  84.183  76.959  1.00  0.00     0.278 C 
ENDBRANCH   9  14
BRANCH  10  16
ATOM     16  O   UNL     1      98.287  81.051  77.566  1.00  0.00    -0.504 OA
ATOM     17  H   UNL     1      98.669  80.194  77.769  1.00  0.00     0.293 HD
ENDBRANCH  10  16
ENDBRANCH   7   8
ENDBRANCH   4   7
ENDBRANCH   2   3
ENDBRANCH   1   2
BRANCH   1  18
ATOM     18  C   UNL     1      92.988  81.228  85.849  1.00  0.00     0.001 C 
BRANCH  18  19
ATOM     19  C   UNL     1      91.703  80.714  85.153  1.00  0.00     0.004 C 
BRANCH  19  20
ATOM     20  C   UNL     1      90.741  81.883  84.802  1.00  0.00     0.027 C 
BRANCH  20  21
ATOM     21  C   UNL     1      89.493  81.452  84.196  1.00  0.00    -0.031 C 
ATOM     22  C   UNL     1      88.331  82.096  84.407  1.00  0.00    -0.028 C 
BRANCH  22  23
ATOM     23  C   UNL     1      87.061  81.691  83.809  1.00  0.00     0.005 C 
ATOM     24  C   UNL     1      86.419  82.883  83.051  1.00  0.00     0.012 C 
ATOM     25  C   UNL     1      87.269  80.453  82.894  1.00  0.00     0.012 C 
ENDBRANCH  22  23
ENDBRANCH  20  21
ENDBRANCH  19  20
ENDBRANCH  18  19
ENDBRANCH   1  18
TORSDOF 11
ENDMDL
MODEL 5
REMARK VINA RESULT:    -5.851      5.430      9.928
REMARK INTER + INTRA:         -10.092
REMARK INTER:                  -8.733
REMARK INTRA:                  -1.359
REMARK UNBOUND:                -0.649
REMARK SMILES COc1cc(CNC(=O)CCCCC/C=C/C(C)C)ccc1O
REMARK SMILES IDX 11 1 10 2 8 3 7 4 9 6 6 7 5 8 3 9 22 10 4 11 21 12 20 13
REMARK SMILES IDX 2 14 1 15 23 16 12 18 13 19 14 20 15 21 16 22 17 23 18 24
REMARK SMILES IDX 19 25
REMARK H PARENT 7 5 23 17
REMARK Flexibility Score: inf
ROOT
ATOM      1  C   UNL     1     100.547  84.620  73.999  1.00  0.00     0.010 C 
ENDROOT
BRANCH   1   2
ATOM      2  C   UNL     1      99.162  85.170  73.569  1.00  0.00     0.100 C 
BRANCH   2   3
ATOM      3  C   UNL     1      98.025  84.540  74.265  1.00  0.00     0.220 C 
ATOM      4  N   UNL     1      97.757  84.867  75.559  1.00  0.00    -0.352 N 
ATOM      5  H   UNL     1      98.430  85.488  75.985  1.00  0.00     0.163 HD
ATOM      6  O   UNL     1      97.302  83.742  73.623  1.00  0.00    -0.275 OA
BRANCH   4   7
ATOM      7  C   UNL     1      96.637  84.408  76.316  1.00  0.00     0.151 C 
BRANCH   7   8
ATOM      8  C   UNL     1      97.023  83.454  77.388  1.00  0.00    -0.025 A 
ATOM      9  C   UNL     1      98.012  81.314  78.088  1.00  0.00     0.160 A 
ATOM     10  C   UNL     1      97.707  81.615  79.434  1.00  0.00     0.157 A 
ATOM     11  C   UNL     1      97.661  82.231  77.076  1.00  0.00     0.056 A 
ATOM     12  C   UNL     1      97.088  82.836  79.757  1.00  0.00     0.050 A 
ATOM     13  C   UNL     1      96.758  83.754  78.743  1.00  0.00     0.009 A 
BRANCH   9  14
ATOM     14  O   UNL     1      98.693  80.169  77.771  1.00  0.00    -0.493 OA
ATOM     15  C   UNL     1      97.851  79.022  77.569  1.00  0.00     0.278 C 
ENDBRANCH   9  14
BRANCH  10  16
ATOM     16  O   UNL     1      98.003  80.747  80.434  1.00  0.00    -0.504 OA
ATOM     17  H   UNL     1      98.060  81.226  81.265  1.00  0.00     0.293 HD
ENDBRANCH  10  16
ENDBRANCH   7   8
ENDBRANCH   4   7
ENDBRANCH   2   3
ENDBRANCH   1   2
BRANCH   1  18
ATOM     18  C   UNL     1     100.554  83.071  74.014  1.00  0.00     0.001 C 
BRANCH  18  19
ATOM     19  C   UNL     1     101.971  82.455  74.135  1.00  0.00     0.004 C 
BRANCH  19  20
ATOM     20  C   UNL     1     102.805  83.164  75.239  1.00  0.00     0.027 C 
BRANCH  20  21
ATOM     21  C   UNL     1     103.120  82.311  76.372  1.00  0.00    -0.031 C 
ATOM     22  C   UNL     1     102.166  81.715  77.111  1.00  0.00    -0.028 C 
BRANCH  22  23
ATOM     23  C   UNL     1     102.450  80.849  78.252  1.00  0.00     0.005 C 
ATOM     24  C   UNL     1     103.943  80.969  78.660  1.00  0.00     0.012 C 
ATOM     25  C   UNL     1     101.489  81.176  79.427  1.00  0.00     0.012 C 
ENDBRANCH  22  23
ENDBRANCH  20  21
ENDBRANCH  19  20
ENDBRANCH  18  19
ENDBRANCH   1  18
TORSDOF 11
ENDMDL
MODEL 6
REMARK VINA RESULT:    -5.808     14.236     18.703
REMARK INTER + INTRA:         -10.021
REMARK INTER:                  -9.130
REMARK INTRA:                  -0.891
REMARK UNBOUND:                -0.649
REMARK SMILES COc1cc(CNC(=O)CCCCC/C=C/C(C)C)ccc1O
REMARK SMILES IDX 11 1 10 2 8 3 7 4 9 6 6 7 5 8 3 9 22 10 4 11 21 12 20 13
REMARK SMILES IDX 2 14 1 15 23 16 12 18 13 19 14 20 15 21 16 22 17 23 18 24
REMARK SMILES IDX 19 25
REMARK H PARENT 7 5 23 17
REMARK Flexibility Score: inf
ROOT
ATOM      1  C   UNL     1      94.895  97.691  72.076  1.00  0.00     0.010 C 
ENDROOT
BRANCH   1   2
ATOM      2  C   UNL     1      94.938  98.534  73.377  1.00  0.00     0.100 C 
BRANCH   2   3
ATOM      3  C   UNL     1      94.882  97.732  74.614  1.00  0.00     0.220 C 
ATOM      4  N   UNL     1      94.365  96.473  74.583  1.00  0.00    -0.352 N 
ATOM      5  H   UNL     1      93.977  96.199  73.691  1.00  0.00     0.163 HD
ATOM      6  O   UNL     1      95.356  98.225  75.665  1.00  0.00    -0.275 OA
BRANCH   4   7
ATOM      7  C   UNL     1      94.341  95.559  75.678  1.00  0.00     0.151 C 
BRANCH   7   8
ATOM      8  C   UNL     1      92.966  95.107  76.015  1.00  0.00    -0.025 A 
ATOM      9  C   UNL     1      90.757  94.281  75.316  1.00  0.00     0.160 A 
ATOM     10  C   UNL     1      90.327  94.297  76.660  1.00  0.00     0.157 A 
ATOM     11  C   UNL     1      92.068  94.694  75.003  1.00  0.00     0.056 A 
ATOM     12  C   UNL     1      91.216  94.689  77.677  1.00  0.00     0.050 A 
ATOM     13  C   UNL     1      92.529  95.082  77.358  1.00  0.00     0.009 A 
BRANCH   9  14
ATOM     14  O   UNL     1      89.929  93.818  74.328  1.00  0.00    -0.493 OA
ATOM     15  C   UNL     1      90.208  92.471  73.910  1.00  0.00     0.278 C 
ENDBRANCH   9  14
BRANCH  10  16
ATOM     16  O   UNL     1      89.064  93.934  77.000  1.00  0.00    -0.504 OA
ATOM     17  H   UNL     1      88.657  94.637  77.512  1.00  0.00     0.293 HD
ENDBRANCH  10  16
ENDBRANCH   7   8
ENDBRANCH   4   7
ENDBRANCH   2   3
ENDBRANCH   1   2
BRANCH   1  18
ATOM     18  C   UNL     1      96.325  97.342  71.589  1.00  0.00     0.001 C 
BRANCH  18  19
ATOM     19  C   UNL     1      96.662  97.912  70.188  1.00  0.00     0.004 C 
BRANCH  19  20
ATOM     20  C   UNL     1      95.665  97.399  69.112  1.00  0.00     0.027 C 
BRANCH  20  21
ATOM     21  C   UNL     1      95.220  98.428  68.188  1.00  0.00    -0.031 C 
ATOM     22  C   UNL     1      95.643  99.702  68.274  1.00  0.00    -0.028 C 
BRANCH  22  23
ATOM     23  C   UNL     1      95.219 100.759  67.358  1.00  0.00     0.005 C 
ATOM     24  C   UNL     1      95.574 100.378  65.896  1.00  0.00     0.012 C 
ATOM     25  C   UNL     1      93.705 101.052  67.541  1.00  0.00     0.012 C 
ENDBRANCH  22  23
ENDBRANCH  20  21
ENDBRANCH  19  20
ENDBRANCH  18  19
ENDBRANCH   1  18
TORSDOF 11
ENDMDL
MODEL 7
REMARK VINA RESULT:    -5.792      2.373      4.666
REMARK INTER + INTRA:          -9.997
REMARK INTER:                  -9.244
REMARK INTRA:                  -0.753
REMARK UNBOUND:                -0.649
REMARK SMILES COc1cc(CNC(=O)CCCCC/C=C/C(C)C)ccc1O
REMARK SMILES IDX 11 1 10 2 8 3 7 4 9 6 6 7 5 8 3 9 22 10 4 11 21 12 20 13
REMARK SMILES IDX 2 14 1 15 23 16 12 18 13 19 14 20 15 21 16 22 17 23 18 24
REMARK SMILES IDX 19 25
REMARK H PARENT 7 5 23 17
REMARK Flexibility Score: inf
ROOT
ATOM      1  C   UNL     1      97.593  81.574  79.818  1.00  0.00     0.010 C 
ENDROOT
BRANCH   1   2
ATOM      2  C   UNL     1      97.780  83.089  79.542  1.00  0.00     0.100 C 
BRANCH   2   3
ATOM      3  C   UNL     1      97.120  83.560  78.310  1.00  0.00     0.220 C 
ATOM      4  N   UNL     1      97.798  83.545  77.129  1.00  0.00    -0.352 N 
ATOM      5  H   UNL     1      98.767  83.268  77.203  1.00  0.00     0.163 HD
ATOM      6  O   UNL     1      95.923  83.928  78.379  1.00  0.00    -0.275 OA
BRANCH   4   7
ATOM      7  C   UNL     1      97.252  83.880  75.854  1.00  0.00     0.151 C 
BRANCH   7   8
ATOM      8  C   UNL     1      98.273  83.876  74.775  1.00  0.00    -0.025 A 
ATOM      9  C   UNL     1     100.248  82.873  73.707  1.00  0.00     0.160 A 
ATOM     10  C   UNL     1     100.251  83.906  72.744  1.00  0.00     0.157 A 
ATOM     11  C   UNL     1      99.267  82.871  74.719  1.00  0.00     0.056 A 
ATOM     12  C   UNL     1      99.258  84.901  72.781  1.00  0.00     0.050 A 
ATOM     13  C   UNL     1      98.269  84.881  73.782  1.00  0.00     0.009 A 
BRANCH   9  14
ATOM     14  O   UNL     1     101.157  81.851  73.629  1.00  0.00    -0.493 OA
ATOM     15  C   UNL     1     100.628  80.635  73.076  1.00  0.00     0.278 C 
ENDBRANCH   9  14
BRANCH  10  16
ATOM     16  O   UNL     1     101.195  83.960  71.772  1.00  0.00    -0.504 OA
ATOM     17  H   UNL     1     101.929  83.387  72.007  1.00  0.00     0.293 HD
ENDBRANCH  10  16
ENDBRANCH   7   8
ENDBRANCH   4   7
ENDBRANCH   2   3
ENDBRANCH   1   2
BRANCH   1  18
ATOM     18  C   UNL     1      97.067  81.329  81.255  1.00  0.00     0.001 C 
BRANCH  18  19
ATOM     19  C   UNL     1      97.449  82.446  82.258  1.00  0.00     0.004 C 
BRANCH  19  20
ATOM     20  C   UNL     1      96.187  83.092  82.896  1.00  0.00     0.027 C 
BRANCH  20  21
ATOM     21  C   UNL     1      95.325  82.140  83.576  1.00  0.00    -0.031 C 
ATOM     22  C   UNL     1      94.159  82.503  84.140  1.00  0.00    -0.028 C 
BRANCH  22  23
ATOM     23  C   UNL     1      93.267  81.570  84.825  1.00  0.00     0.005 C 
ATOM     24  C   UNL     1      91.816  81.727  84.298  1.00  0.00     0.012 C 
ATOM     25  C   UNL     1      93.794  80.117  84.678  1.00  0.00     0.012 C 
ENDBRANCH  22  23
ENDBRANCH  20  21
ENDBRANCH  19  20
ENDBRANCH  18  19
ENDBRANCH   1  18
TORSDOF 11
ENDMDL
MODEL 8
REMARK VINA RESULT:    -5.762      4.360      8.765
REMARK INTER + INTRA:          -9.947
REMARK INTER:                  -9.159
REMARK INTRA:                  -0.788
REMARK UNBOUND:                -0.649
REMARK SMILES COc1cc(CNC(=O)CCCCC/C=C/C(C)C)ccc1O
REMARK SMILES IDX 11 1 10 2 8 3 7 4 9 6 6 7 5 8 3 9 22 10 4 11 21 12 20 13
REMARK SMILES IDX 2 14 1 15 23 16 12 18 13 19 14 20 15 21 16 22 17 23 18 24
REMARK SMILES IDX 19 25
REMARK H PARENT 7 5 23 17
REMARK Flexibility Score: inf
ROOT
ATOM      1  C   UNL     1      99.799  81.698  80.655  1.00  0.00     0.010 C 
ENDROOT
BRANCH   1   2
ATOM      2  C   UNL     1      99.623  80.328  81.359  1.00  0.00     0.100 C 
BRANCH   2   3
ATOM      3  C   UNL     1      98.667  80.348  82.481  1.00  0.00     0.220 C 
ATOM      4  N   UNL     1      97.585  81.174  82.436  1.00  0.00    -0.352 N 
ATOM      5  H   UNL     1      97.557  81.788  81.634  1.00  0.00     0.163 HD
ATOM      6  O   UNL     1      98.858  79.564  83.441  1.00  0.00    -0.275 OA
BRANCH   4   7
ATOM      7  C   UNL     1      96.537  81.222  83.403  1.00  0.00     0.151 C 
BRANCH   7   8
ATOM      8  C   UNL     1      96.167  82.612  83.776  1.00  0.00    -0.025 A 
ATOM      9  C   UNL     1      95.305  84.225  85.421  1.00  0.00     0.160 A 
ATOM     10  C   UNL     1      95.412  85.257  84.464  1.00  0.00     0.157 A 
ATOM     11  C   UNL     1      95.673  82.911  85.068  1.00  0.00     0.056 A 
ATOM     12  C   UNL     1      95.918  84.975  83.182  1.00  0.00     0.050 A 
ATOM     13  C   UNL     1      96.302  83.664  82.843  1.00  0.00     0.009 A 
BRANCH   9  14
ATOM     14  O   UNL     1      94.897  84.504  86.698  1.00  0.00    -0.493 OA
ATOM     15  C   UNL     1      93.519  84.189  86.957  1.00  0.00     0.278 C 
ENDBRANCH   9  14
BRANCH  10  16
ATOM     16  O   UNL     1      95.041  86.529  84.754  1.00  0.00    -0.504 OA
ATOM     17  H   UNL     1      95.825  87.078  84.844  1.00  0.00     0.293 HD
ENDBRANCH  10  16
ENDBRANCH   7   8
ENDBRANCH   4   7
ENDBRANCH   2   3
ENDBRANCH   1   2
BRANCH   1  18
ATOM     18  C   UNL     1      98.696  81.925  79.589  1.00  0.00     0.001 C 
BRANCH  18  19
ATOM     19  C   UNL     1      98.083  83.348  79.620  1.00  0.00     0.004 C 
BRANCH  19  20
ATOM     20  C   UNL     1      96.672  83.371  78.968  1.00  0.00     0.027 C 
BRANCH  20  21
ATOM     21  C   UNL     1      96.682  83.755  77.567  1.00  0.00    -0.031 C 
ATOM     22  C   UNL     1      97.662  83.380  76.725  1.00  0.00    -0.028 C 
BRANCH  22  23
ATOM     23  C   UNL     1      97.698  83.745  75.311  1.00  0.00     0.005 C 
ATOM     24  C   UNL     1      96.664  84.865  75.018  1.00  0.00     0.012 C 
ATOM     25  C   UNL     1      99.139  84.149  74.898  1.00  0.00     0.012 C 
ENDBRANCH  22  23
ENDBRANCH  20  21
ENDBRANCH  19  20
ENDBRANCH  18  19
ENDBRANCH   1  18
TORSDOF 11
ENDMDL
MODEL 9
REMARK VINA RESULT:    -5.557      3.117      4.314
REMARK INTER + INTRA:          -9.616
REMARK INTER:                  -8.970
REMARK INTRA:                  -0.646
REMARK UNBOUND:                -0.649
REMARK SMILES COc1cc(CNC(=O)CCCCC/C=C/C(C)C)ccc1O
REMARK SMILES IDX 11 1 10 2 8 3 7 4 9 6 6 7 5 8 3 9 22 10 4 11 21 12 20 13
REMARK SMILES IDX 2 14 1 15 23 16 12 18 13 19 14 20 15 21 16 22 17 23 18 24
REMARK SMILES IDX 19 25
REMARK H PARENT 7 5 23 17
REMARK Flexibility Score: inf
ROOT
ATOM      1  C   UNL     1      94.551  80.459  85.291  1.00  0.00     0.010 C 
ENDROOT
BRANCH   1   2
ATOM      2  C   UNL     1      94.748  81.851  85.946  1.00  0.00     0.100 C 
BRANCH   2   3
ATOM      3  C   UNL     1      95.104  82.918  84.992  1.00  0.00     0.220 C 
ATOM      4  N   UNL     1      95.806  82.613  83.865  1.00  0.00    -0.352 N 
ATOM      5  H   UNL     1      96.103  81.649  83.801  1.00  0.00     0.163 HD
ATOM      6  O   UNL     1      94.711  84.085  85.228  1.00  0.00    -0.275 OA
BRANCH   4   7
ATOM      7  C   UNL     1      96.131  83.526  82.817  1.00  0.00     0.151 C 
BRANCH   7   8
ATOM      8  C   UNL     1      96.683  82.846  81.617  1.00  0.00    -0.025 A 
ATOM      9  C   UNL     1      97.444  82.923  79.280  1.00  0.00     0.160 A 
ATOM     10  C   UNL     1      97.688  81.532  79.314  1.00  0.00     0.157 A 
ATOM     11  C   UNL     1      96.936  83.566  80.426  1.00  0.00     0.056 A 
ATOM     12  C   UNL     1      97.456  80.809  80.499  1.00  0.00     0.050 A 
ATOM     13  C   UNL     1      96.968  81.463  81.645  1.00  0.00     0.009 A 
BRANCH   9  14
ATOM     14  O   UNL     1      97.748  83.651  78.160  1.00  0.00    -0.493 OA
ATOM     15  C   UNL     1      96.622  83.915  77.307  1.00  0.00     0.278 C 
ENDBRANCH   9  14
BRANCH  10  16
ATOM     16  O   UNL     1      98.149  80.870  78.224  1.00  0.00    -0.504 OA
ATOM     17  H   UNL     1      98.652  80.102  78.506  1.00  0.00     0.293 HD
ENDBRANCH  10  16
ENDBRANCH   7   8
ENDBRANCH   4   7
ENDBRANCH   2   3
ENDBRANCH   1   2
BRANCH   1  18
ATOM     18  C   UNL     1      93.125  80.316  84.700  1.00  0.00     0.001 C 
BRANCH  18  19
ATOM     19  C   UNL     1      92.371  79.054  85.191  1.00  0.00     0.004 C 
BRANCH  19  20
ATOM     20  C   UNL     1      91.620  78.353  84.025  1.00  0.00     0.027 C 
BRANCH  20  21
ATOM     21  C   UNL     1      91.754  76.906  84.029  1.00  0.00    -0.031 C 
ATOM     22  C   UNL     1      90.719  76.088  83.768  1.00  0.00    -0.028 C 
BRANCH  22  23
ATOM     23  C   UNL     1      90.822  74.631  83.760  1.00  0.00     0.005 C 
ATOM     24  C   UNL     1      90.167  74.038  85.036  1.00  0.00     0.012 C 
ATOM     25  C   UNL     1      90.202  74.056  82.457  1.00  0.00     0.012 C 
ENDBRANCH  22  23
ENDBRANCH  20  21
ENDBRANCH  19  20
ENDBRANCH  18  19
ENDBRANCH   1  18
TORSDOF 11
ENDMDL
MODEL 10
REMARK VINA RESULT:    -5.542      5.487     11.391
REMARK INTER + INTRA:          -9.592
REMARK INTER:                  -8.321
REMARK INTRA:                  -1.271
REMARK UNBOUND:                -0.649
REMARK SMILES COc1cc(CNC(=O)CCCCC/C=C/C(C)C)ccc1O
REMARK SMILES IDX 11 1 10 2 8 3 7 4 9 6 6 7 5 8 3 9 22 10 4 11 21 12 20 13
REMARK SMILES IDX 2 14 1 15 23 16 12 18 13 19 14 20 15 21 16 22 17 23 18 24
REMARK SMILES IDX 19 25
REMARK H PARENT 7 5 23 17
REMARK Flexibility Score: inf
ROOT
ATOM      1  C   UNL     1     100.337  85.193  73.885  1.00  0.00     0.010 C 
ENDROOT
BRANCH   1   2
ATOM      2  C   UNL     1      98.907  85.147  73.287  1.00  0.00     0.100 C 
BRANCH   2   3
ATOM      3  C   UNL     1      97.923  84.454  74.140  1.00  0.00     0.220 C 
ATOM      4  N   UNL     1      97.682  84.906  75.402  1.00  0.00    -0.352 N 
ATOM      5  H   UNL     1      98.273  85.671  75.696  1.00  0.00     0.163 HD
ATOM      6  O   UNL     1      97.298  83.480  73.658  1.00  0.00    -0.275 OA
BRANCH   4   7
ATOM      7  C   UNL     1      96.692  84.393  76.292  1.00  0.00     0.151 C 
BRANCH   7   8
ATOM      8  C   UNL     1      97.281  83.617  77.415  1.00  0.00    -0.025 A 
ATOM      9  C   UNL     1      99.030  82.132  78.300  1.00  0.00     0.160 A 
ATOM     10  C   UNL     1      98.368  82.097  79.547  1.00  0.00     0.157 A 
ATOM     11  C   UNL     1      98.478  82.883  77.243  1.00  0.00     0.056 A 
ATOM     12  C   UNL     1      97.186  82.837  79.735  1.00  0.00     0.050 A 
ATOM     13  C   UNL     1      96.652  83.600  78.680  1.00  0.00     0.009 A 
BRANCH   9  14
ATOM     14  O   UNL     1     100.226  81.487  78.133  1.00  0.00    -0.493 OA
ATOM     15  C   UNL     1     100.120  80.211  77.480  1.00  0.00     0.278 C 
ENDBRANCH   9  14
BRANCH  10  16
ATOM     16  O   UNL     1      98.851  81.364  80.581  1.00  0.00    -0.504 OA
ATOM     17  H   UNL     1      98.481  81.691  81.405  1.00  0.00     0.293 HD
ENDBRANCH  10  16
ENDBRANCH   7   8
ENDBRANCH   4   7
ENDBRANCH   2   3
ENDBRANCH   1   2
BRANCH   1  18
ATOM     18  C   UNL     1     100.891  83.765  74.121  1.00  0.00     0.001 C 
BRANCH  18  19
ATOM     19  C   UNL     1     101.828  83.656  75.350  1.00  0.00     0.004 C 
BRANCH  19  20
ATOM     20  C   UNL     1     103.257  83.205  74.936  1.00  0.00     0.027 C 
BRANCH  20  21
ATOM     21  C   UNL     1     104.125  84.302  74.543  1.00  0.00    -0.031 C 
ATOM     22  C   UNL     1     103.827  85.586  74.812  1.00  0.00    -0.028 C 
BRANCH  22  23
ATOM     23  C   UNL     1     104.681  86.710  74.436  1.00  0.00     0.005 C 
ATOM     24  C   UNL     1     106.176  86.307  74.534  1.00  0.00     0.012 C 
ATOM     25  C   UNL     1     104.300  87.223  73.020  1.00  0.00     0.012 C 
ENDBRANCH  22  23
ENDBRANCH  20  21
ENDBRANCH  19  20
ENDBRANCH  18  19
ENDBRANCH   1  18
TORSDOF 11
ENDMDL
