MODEL 1
REMARK VINA RESULT:    -6.224      0.000      0.000
REMARK INTER + INTRA:         -11.035
REMARK INTER:                 -10.044
REMARK INTRA:                  -0.991
REMARK UNBOUND:                -0.991
REMARK SMILES COc1cc(CNC(=O)CCCCC/C=C/C(C)C)ccc1O
REMARK SMILES IDX 11 1 10 2 8 3 7 4 9 6 6 7 5 8 3 9 22 10 4 11 21 12 20 13
REMARK SMILES IDX 2 14 1 15 23 16 12 18 13 19 14 20 15 21 16 22 17 23 18 24
REMARK SMILES IDX 19 25
REMARK H PARENT 7 5 23 17
REMARK Flexibility Score: inf
ROOT
ATOM      1  C   UNL     1      96.216  81.861  77.322  1.00  0.00     0.010 C 
ENDROOT
BRANCH   1   2
ATOM      2  C   UNL     1      97.670  82.092  77.809  1.00  0.00     0.100 C 
BRANCH   2   3
ATOM      3  C   UNL     1      97.965  81.495  79.125  1.00  0.00     0.220 C 
ATOM      4  N   UNL     1      97.158  81.765  80.188  1.00  0.00    -0.352 N 
ATOM      5  H   UNL     1      96.429  82.440  80.003  1.00  0.00     0.163 HD
ATOM      6  O   UNL     1      98.940  80.713  79.219  1.00  0.00    -0.275 OA
BRANCH   4   7
ATOM      7  C   UNL     1      97.271  81.182  81.485  1.00  0.00     0.151 C 
BRANCH   7   8
ATOM      8  C   UNL     1      96.518  81.937  82.520  1.00  0.00    -0.025 A 
ATOM      9  C   UNL     1      94.896  81.991  84.367  1.00  0.00     0.160 A 
ATOM     10  C   UNL     1      95.044  83.392  84.456  1.00  0.00     0.157 A 
ATOM     11  C   UNL     1      95.626  81.276  83.396  1.00  0.00     0.056 A 
ATOM     12  C   UNL     1      95.942  84.058  83.601  1.00  0.00     0.050 A 
ATOM     13  C   UNL     1      96.681  83.335  82.647  1.00  0.00     0.009 A 
BRANCH   9  14
ATOM     14  O   UNL     1      94.091  81.323  85.252  1.00  0.00    -0.493 OA
ATOM     15  C   UNL     1      92.755  81.095  84.775  1.00  0.00     0.278 C 
ENDBRANCH   9  14
BRANCH  10  16
ATOM     16  O   UNL     1      94.339  84.120  85.358  1.00  0.00    -0.504 OA
ATOM     17  H   UNL     1      94.441  85.055  85.163  1.00  0.00     0.293 HD
ENDBRANCH  10  16
ENDBRANCH   7   8
ENDBRANCH   4   7
ENDBRANCH   2   3
ENDBRANCH   1   2
BRANCH   1  18
ATOM     18  C   UNL     1      95.625  83.148  76.694  1.00  0.00     0.001 C 
BRANCH  18  19
ATOM     19  C   UNL     1      96.395  83.640  75.442  1.00  0.00     0.004 C 
BRANCH  19  20
ATOM     20  C   UNL     1      96.468  82.535  74.351  1.00  0.00     0.027 C 
BRANCH  20  21
ATOM     21  C   UNL     1      97.797  82.354  73.792  1.00  0.00    -0.031 C 
ATOM     22  C   UNL     1      98.878  82.980  74.289  1.00  0.00    -0.028 C 
BRANCH  22  23
ATOM     23  C   UNL     1     100.227  82.815  73.753  1.00  0.00     0.005 C 
ATOM     24  C   UNL     1     100.992  84.164  73.798  1.00  0.00     0.012 C 
ATOM     25  C   UNL     1     100.974  81.688  74.517  1.00  0.00     0.012 C 
ENDBRANCH  22  23
ENDBRANCH  20  21
ENDBRANCH  19  20
ENDBRANCH  18  19
ENDBRANCH   1  18
TORSDOF 11
ENDMDL
MODEL 2
REMARK VINA RESULT:    -6.009     16.674     19.638
REMARK INTER + INTRA:         -10.689
REMARK INTER:                 -10.037
REMARK INTRA:                  -0.652
REMARK UNBOUND:                -0.991
REMARK SMILES COc1cc(CNC(=O)CCCCC/C=C/C(C)C)ccc1O
REMARK SMILES IDX 11 1 10 2 8 3 7 4 9 6 6 7 5 8 3 9 22 10 4 11 21 12 20 13
REMARK SMILES IDX 2 14 1 15 23 16 12 18 13 19 14 20 15 21 16 22 17 23 18 24
REMARK SMILES IDX 19 25
REMARK H PARENT 7 5 23 17
REMARK Flexibility Score: inf
ROOT
ATOM      1  C   UNL     1      94.490  97.335  73.450  1.00  0.00     0.010 C 
ENDROOT
BRANCH   1   2
ATOM      2  C   UNL     1      94.806  98.752  72.904  1.00  0.00     0.100 C 
BRANCH   2   3
ATOM      3  C   UNL     1      93.616  99.603  72.718  1.00  0.00     0.220 C 
ATOM      4  N   UNL     1      92.747  99.340  71.703  1.00  0.00    -0.352 N 
ATOM      5  H   UNL     1      93.034  98.594  71.085  1.00  0.00     0.163 HD
ATOM      6  O   UNL     1      93.414 100.532  73.536  1.00  0.00    -0.275 OA
BRANCH   4   7
ATOM      7  C   UNL     1      91.514 100.020  71.470  1.00  0.00     0.151 C 
BRANCH   7   8
ATOM      8  C   UNL     1      90.813  99.532  70.254  1.00  0.00    -0.025 A 
ATOM      9  C   UNL     1      90.125  99.848  67.914  1.00  0.00     0.160 A 
ATOM     10  C   UNL     1      89.429  98.620  67.954  1.00  0.00     0.157 A 
ATOM     11  C   UNL     1      90.803 100.299  69.065  1.00  0.00     0.056 A 
ATOM     12  C   UNL     1      89.447  97.842  69.126  1.00  0.00     0.050 A 
ATOM     13  C   UNL     1      90.143  98.289  70.264  1.00  0.00     0.009 A 
BRANCH   9  14
ATOM     14  O   UNL     1      90.187 100.572  66.753  1.00  0.00    -0.493 OA
ATOM     15  C   UNL     1      91.491 101.103  66.460  1.00  0.00     0.278 C 
ENDBRANCH   9  14
BRANCH  10  16
ATOM     16  O   UNL     1      88.740  98.165  66.877  1.00  0.00    -0.504 OA
ATOM     17  H   UNL     1      87.814  98.402  66.967  1.00  0.00     0.293 HD
ENDBRANCH  10  16
ENDBRANCH   7   8
ENDBRANCH   4   7
ENDBRANCH   2   3
ENDBRANCH   1   2
BRANCH   1  18
ATOM     18  C   UNL     1      93.383  97.387  74.533  1.00  0.00     0.001 C 
BRANCH  18  19
ATOM     19  C   UNL     1      93.533  96.304  75.631  1.00  0.00     0.004 C 
BRANCH  19  20
ATOM     20  C   UNL     1      94.131  94.990  75.053  1.00  0.00     0.027 C 
BRANCH  20  21
ATOM     21  C   UNL     1      93.471  93.788  75.530  1.00  0.00    -0.031 C 
ATOM     22  C   UNL     1      92.271  93.819  76.137  1.00  0.00    -0.028 C 
BRANCH  22  23
ATOM     23  C   UNL     1      91.578  92.628  76.623  1.00  0.00     0.005 C 
ATOM     24  C   UNL     1      90.393  93.032  77.540  1.00  0.00     0.012 C 
ATOM     25  C   UNL     1      91.126  91.745  75.429  1.00  0.00     0.012 C 
ENDBRANCH  22  23
ENDBRANCH  20  21
ENDBRANCH  19  20
ENDBRANCH  18  19
ENDBRANCH   1  18
TORSDOF 11
ENDMDL
MODEL 3
REMARK VINA RESULT:    -6.001     19.610     22.437
REMARK INTER + INTRA:         -10.675
REMARK INTER:                  -9.791
REMARK INTRA:                  -0.884
REMARK UNBOUND:                -0.991
REMARK SMILES COc1cc(CNC(=O)CCCCC/C=C/C(C)C)ccc1O
REMARK SMILES IDX 11 1 10 2 8 3 7 4 9 6 6 7 5 8 3 9 22 10 4 11 21 12 20 13
REMARK SMILES IDX 2 14 1 15 23 16 12 18 13 19 14 20 15 21 16 22 17 23 18 24
REMARK SMILES IDX 19 25
REMARK H PARENT 7 5 23 17
REMARK Flexibility Score: inf
ROOT
ATOM      1  C   UNL     1      92.179  99.910  69.946  1.00  0.00     0.010 C 
ENDROOT
BRANCH   1   2
ATOM      2  C   UNL     1      91.222  98.703  70.125  1.00  0.00     0.100 C 
BRANCH   2   3
ATOM      3  C   UNL     1      90.086  98.694  69.183  1.00  0.00     0.220 C 
ATOM      4  N   UNL     1      90.318  98.702  67.842  1.00  0.00    -0.352 N 
ATOM      5  H   UNL     1      91.291  98.790  67.582  1.00  0.00     0.163 HD
ATOM      6  O   UNL     1      88.925  98.637  69.652  1.00  0.00    -0.275 OA
BRANCH   4   7
ATOM      7  C   UNL     1      89.320  98.597  66.827  1.00  0.00     0.151 C 
BRANCH   7   8
ATOM      8  C   UNL     1      88.613  99.882  66.585  1.00  0.00    -0.025 A 
ATOM      9  C   UNL     1      88.651 102.329  66.349  1.00  0.00     0.160 A 
ATOM     10  C   UNL     1      87.249 102.333  66.177  1.00  0.00     0.157 A 
ATOM     11  C   UNL     1      89.320 101.107  66.560  1.00  0.00     0.056 A 
ATOM     12  C   UNL     1      86.538 101.119  66.184  1.00  0.00     0.050 A 
ATOM     13  C   UNL     1      87.216  99.901  66.376  1.00  0.00     0.009 A 
BRANCH   9  14
ATOM     14  O   UNL     1      89.363 103.496  66.257  1.00  0.00    -0.493 OA
ATOM     15  C   UNL     1      89.768 104.038  67.525  1.00  0.00     0.278 C 
ENDBRANCH   9  14
BRANCH  10  16
ATOM     16  O   UNL     1      86.564 103.491  66.000  1.00  0.00    -0.504 OA
ATOM     17  H   UNL     1      86.373 103.883  66.856  1.00  0.00     0.293 HD
ENDBRANCH  10  16
ENDBRANCH   7   8
ENDBRANCH   4   7
ENDBRANCH   2   3
ENDBRANCH   1   2
BRANCH   1  18
ATOM     18  C   UNL     1      93.487  99.711  70.753  1.00  0.00     0.001 C 
BRANCH  18  19
ATOM     19  C   UNL     1      93.545 100.541  72.061  1.00  0.00     0.004 C 
BRANCH  19  20
ATOM     20  C   UNL     1      93.247  99.659  73.306  1.00  0.00     0.027 C 
BRANCH  20  21
ATOM     21  C   UNL     1      94.217  98.598  73.516  1.00  0.00    -0.031 C 
ATOM     22  C   UNL     1      93.897  97.443  74.126  1.00  0.00    -0.028 C 
BRANCH  22  23
ATOM     23  C   UNL     1      94.846  96.355  74.347  1.00  0.00     0.005 C 
ATOM     24  C   UNL     1      94.107  95.094  74.869  1.00  0.00     0.012 C 
ATOM     25  C   UNL     1      95.650  96.071  73.049  1.00  0.00     0.012 C 
ENDBRANCH  22  23
ENDBRANCH  20  21
ENDBRANCH  19  20
ENDBRANCH  18  19
ENDBRANCH   1  18
TORSDOF 11
ENDMDL
MODEL 4
REMARK VINA RESULT:    -5.772      3.314      9.924
REMARK INTER + INTRA:         -10.306
REMARK INTER:                  -9.412
REMARK INTRA:                  -0.894
REMARK UNBOUND:                -0.991
REMARK SMILES COc1cc(CNC(=O)CCCCC/C=C/C(C)C)ccc1O
REMARK SMILES IDX 11 1 10 2 8 3 7 4 9 6 6 7 5 8 3 9 22 10 4 11 21 12 20 13
REMARK SMILES IDX 2 14 1 15 23 16 12 18 13 19 14 20 15 21 16 22 17 23 18 24
REMARK SMILES IDX 19 25
REMARK H PARENT 7 5 23 17
REMARK Flexibility Score: inf
ROOT
ATOM      1  C   UNL     1      98.044  81.412  77.961  1.00  0.00     0.010 C 
ENDROOT
BRANCH   1   2
ATOM      2  C   UNL     1      96.779  82.305  77.880  1.00  0.00     0.100 C 
BRANCH   2   3
ATOM      3  C   UNL     1      96.522  82.861  76.539  1.00  0.00     0.220 C 
ATOM      4  N   UNL     1      97.507  82.846  75.599  1.00  0.00    -0.352 N 
ATOM      5  H   UNL     1      98.400  82.505  75.929  1.00  0.00     0.163 HD
ATOM      6  O   UNL     1      95.376  83.302  76.286  1.00  0.00    -0.275 OA
BRANCH   4   7
ATOM      7  C   UNL     1      97.365  83.261  74.241  1.00  0.00     0.151 C 
BRANCH   7   8
ATOM      8  C   UNL     1      98.638  83.174  73.480  1.00  0.00    -0.025 A 
ATOM      9  C   UNL     1     100.379  81.835  72.374  1.00  0.00     0.160 A 
ATOM     10  C   UNL     1     101.095  83.014  72.074  1.00  0.00     0.157 A 
ATOM     11  C   UNL     1      99.163  81.923  73.081  1.00  0.00     0.056 A 
ATOM     12  C   UNL     1     100.574  84.266  72.451  1.00  0.00     0.050 A 
ATOM     13  C   UNL     1      99.350  84.346  73.139  1.00  0.00     0.009 A 
BRANCH   9  14
ATOM     14  O   UNL     1     100.833  80.619  71.935  1.00  0.00    -0.493 OA
ATOM     15  C   UNL     1      99.973  79.983  70.975  1.00  0.00     0.278 C 
ENDBRANCH   9  14
BRANCH  10  16
ATOM     16  O   UNL     1     102.283  82.971  71.421  1.00  0.00    -0.504 OA
ATOM     17  H   UNL     1     102.997  82.908  72.060  1.00  0.00     0.293 HD
ENDBRANCH  10  16
ENDBRANCH   7   8
ENDBRANCH   4   7
ENDBRANCH   2   3
ENDBRANCH   1   2
BRANCH   1  18
ATOM     18  C   UNL     1      98.268  80.889  79.403  1.00  0.00     0.001 C 
BRANCH  18  19
ATOM     19  C   UNL     1      97.851  79.410  79.601  1.00  0.00     0.004 C 
BRANCH  19  20
ATOM     20  C   UNL     1      97.337  79.154  81.045  1.00  0.00     0.027 C 
BRANCH  20  21
ATOM     21  C   UNL     1      96.681  80.304  81.645  1.00  0.00    -0.031 C 
ATOM     22  C   UNL     1      96.962  80.722  82.891  1.00  0.00    -0.028 C 
BRANCH  22  23
ATOM     23  C   UNL     1      96.325  81.877  83.520  1.00  0.00     0.005 C 
ATOM     24  C   UNL     1      96.339  83.091  82.554  1.00  0.00     0.012 C 
ATOM     25  C   UNL     1      94.890  81.511  83.986  1.00  0.00     0.012 C 
ENDBRANCH  22  23
ENDBRANCH  20  21
ENDBRANCH  19  20
ENDBRANCH  18  19
ENDBRANCH   1  18
TORSDOF 11
ENDMDL
MODEL 5
REMARK VINA RESULT:    -5.601      2.315      3.952
REMARK INTER + INTRA:         -10.029
REMARK INTER:                  -8.621
REMARK INTRA:                  -1.409
REMARK UNBOUND:                -0.991
REMARK SMILES COc1cc(CNC(=O)CCCCC/C=C/C(C)C)ccc1O
REMARK SMILES IDX 11 1 10 2 8 3 7 4 9 6 6 7 5 8 3 9 22 10 4 11 21 12 20 13
REMARK SMILES IDX 2 14 1 15 23 16 12 18 13 19 14 20 15 21 16 22 17 23 18 24
REMARK SMILES IDX 19 25
REMARK H PARENT 7 5 23 17
REMARK Flexibility Score: inf
ROOT
ATOM      1  C   UNL     1     101.943  78.963  77.769  1.00  0.00     0.010 C 
ENDROOT
BRANCH   1   2
ATOM      2  C   UNL     1     101.361  79.859  78.892  1.00  0.00     0.100 C 
BRANCH   2   3
ATOM      3  C   UNL     1      99.919  79.665  79.129  1.00  0.00     0.220 C 
ATOM      4  N   UNL     1      99.243  80.523  79.942  1.00  0.00    -0.352 N 
ATOM      5  H   UNL     1      99.821  81.215  80.398  1.00  0.00     0.163 HD
ATOM      6  O   UNL     1      99.339  78.725  78.535  1.00  0.00    -0.275 OA
BRANCH   4   7
ATOM      7  C   UNL     1      97.836  80.507  80.179  1.00  0.00     0.151 C 
BRANCH   7   8
ATOM      8  C   UNL     1      97.461  81.198  81.440  1.00  0.00    -0.025 A 
ATOM      9  C   UNL     1      97.598  81.400  83.887  1.00  0.00     0.160 A 
ATOM     10  C   UNL     1      96.697  82.487  83.847  1.00  0.00     0.157 A 
ATOM     11  C   UNL     1      97.965  80.759  82.687  1.00  0.00     0.056 A 
ATOM     12  C   UNL     1      96.203  82.943  82.612  1.00  0.00     0.050 A 
ATOM     13  C   UNL     1      96.590  82.310  81.416  1.00  0.00     0.009 A 
BRANCH   9  14
ATOM     14  O   UNL     1      98.153  81.004  85.075  1.00  0.00    -0.493 OA
ATOM     15  C   UNL     1      97.813  79.663  85.465  1.00  0.00     0.278 C 
ENDBRANCH   9  14
BRANCH  10  16
ATOM     16  O   UNL     1      96.296  83.113  84.982  1.00  0.00    -0.504 OA
ATOM     17  H   UNL     1      96.094  84.031  84.786  1.00  0.00     0.293 HD
ENDBRANCH  10  16
ENDBRANCH   7   8
ENDBRANCH   4   7
ENDBRANCH   2   3
ENDBRANCH   1   2
BRANCH   1  18
ATOM     18  C   UNL     1     102.318  79.802  76.521  1.00  0.00     0.001 C 
BRANCH  18  19
ATOM     19  C   UNL     1     101.263  79.737  75.387  1.00  0.00     0.004 C 
BRANCH  19  20
ATOM     20  C   UNL     1     100.462  81.065  75.283  1.00  0.00     0.027 C 
BRANCH  20  21
ATOM     21  C   UNL     1      99.102  80.968  75.784  1.00  0.00    -0.031 C 
ATOM     22  C   UNL     1      98.464  82.013  76.339  1.00  0.00    -0.028 C 
BRANCH  22  23
ATOM     23  C   UNL     1      97.096  81.949  76.848  1.00  0.00     0.005 C 
ATOM     24  C   UNL     1      96.196  82.969  76.101  1.00  0.00     0.012 C 
ATOM     25  C   UNL     1      96.553  80.498  76.746  1.00  0.00     0.012 C 
ENDBRANCH  22  23
ENDBRANCH  20  21
ENDBRANCH  19  20
ENDBRANCH  18  19
ENDBRANCH   1  18
TORSDOF 11
ENDMDL
MODEL 6
REMARK VINA RESULT:    -5.456      2.790      4.520
REMARK INTER + INTRA:          -9.796
REMARK INTER:                  -8.441
REMARK INTRA:                  -1.355
REMARK UNBOUND:                -0.991
REMARK SMILES COc1cc(CNC(=O)CCCCC/C=C/C(C)C)ccc1O
REMARK SMILES IDX 11 1 10 2 8 3 7 4 9 6 6 7 5 8 3 9 22 10 4 11 21 12 20 13
REMARK SMILES IDX 2 14 1 15 23 16 12 18 13 19 14 20 15 21 16 22 17 23 18 24
REMARK SMILES IDX 19 25
REMARK H PARENT 7 5 23 17
REMARK Flexibility Score: inf
ROOT
ATOM      1  C   UNL     1      97.641  77.482  74.542  1.00  0.00     0.010 C 
ENDROOT
BRANCH   1   2
ATOM      2  C   UNL     1      96.952  78.233  75.710  1.00  0.00     0.100 C 
BRANCH   2   3
ATOM      3  C   UNL     1      97.709  79.398  76.203  1.00  0.00     0.220 C 
ATOM      4  N   UNL     1      97.138  80.246  77.104  1.00  0.00    -0.352 N 
ATOM      5  H   UNL     1      96.172  80.042  77.320  1.00  0.00     0.163 HD
ATOM      6  O   UNL     1      98.887  79.556  75.805  1.00  0.00    -0.275 OA
BRANCH   4   7
ATOM      7  C   UNL     1      97.788  81.350  77.732  1.00  0.00     0.151 C 
BRANCH   7   8
ATOM      8  C   UNL     1      97.763  81.260  79.215  1.00  0.00    -0.025 A 
ATOM      9  C   UNL     1      98.567  80.249  81.308  1.00  0.00     0.160 A 
ATOM     10  C   UNL     1      97.671  81.057  82.041  1.00  0.00     0.157 A 
ATOM     11  C   UNL     1      98.600  80.350  79.902  1.00  0.00     0.056 A 
ATOM     12  C   UNL     1      96.846  81.978  81.370  1.00  0.00     0.050 A 
ATOM     13  C   UNL     1      96.900  82.086  79.968  1.00  0.00     0.009 A 
BRANCH   9  14
ATOM     14  O   UNL     1      99.436  79.412  81.957  1.00  0.00    -0.493 OA
ATOM     15  C   UNL     1      99.044  78.029  81.939  1.00  0.00     0.278 C 
ENDBRANCH   9  14
BRANCH  10  16
ATOM     16  O   UNL     1      97.588  80.970  83.392  1.00  0.00    -0.504 OA
ATOM     17  H   UNL     1      98.092  81.684  83.790  1.00  0.00     0.293 HD
ENDBRANCH  10  16
ENDBRANCH   7   8
ENDBRANCH   4   7
ENDBRANCH   2   3
ENDBRANCH   1   2
BRANCH   1  18
ATOM     18  C   UNL     1      96.807  77.588  73.240  1.00  0.00     0.001 C 
BRANCH  18  19
ATOM     19  C   UNL     1      97.392  78.581  72.204  1.00  0.00     0.004 C 
BRANCH  19  20
ATOM     20  C   UNL     1      96.616  79.927  72.208  1.00  0.00     0.027 C 
BRANCH  20  21
ATOM     21  C   UNL     1      97.286  80.986  72.944  1.00  0.00    -0.031 C 
ATOM     22  C   UNL     1      96.631  81.793  73.798  1.00  0.00    -0.028 C 
BRANCH  22  23
ATOM     23  C   UNL     1      97.276  82.862  74.556  1.00  0.00     0.005 C 
ATOM     24  C   UNL     1      98.350  83.567  73.686  1.00  0.00     0.012 C 
ATOM     25  C   UNL     1      96.211  83.854  75.098  1.00  0.00     0.012 C 
ENDBRANCH  22  23
ENDBRANCH  20  21
ENDBRANCH  19  20
ENDBRANCH  18  19
ENDBRANCH   1  18
TORSDOF 11
ENDMDL
MODEL 7
REMARK VINA RESULT:    -5.197      4.484      7.142
REMARK INTER + INTRA:          -9.378
REMARK INTER:                  -7.122
REMARK INTRA:                  -2.255
REMARK UNBOUND:                -0.991
REMARK SMILES COc1cc(CNC(=O)CCCCC/C=C/C(C)C)ccc1O
REMARK SMILES IDX 11 1 10 2 8 3 7 4 9 6 6 7 5 8 3 9 22 10 4 11 21 12 20 13
REMARK SMILES IDX 2 14 1 15 23 16 12 18 13 19 14 20 15 21 16 22 17 23 18 24
REMARK SMILES IDX 19 25
REMARK H PARENT 7 5 23 17
REMARK Flexibility Score: inf
ROOT
ATOM      1  C   UNL     1     101.515  76.496  76.266  1.00  0.00     0.010 C 
ENDROOT
BRANCH   1   2
ATOM      2  C   UNL     1     100.669  76.554  74.968  1.00  0.00     0.100 C 
BRANCH   2   3
ATOM      3  C   UNL     1      99.272  76.978  75.181  1.00  0.00     0.220 C 
ATOM      4  N   UNL     1      98.782  78.058  74.511  1.00  0.00    -0.352 N 
ATOM      5  H   UNL     1      99.463  78.550  73.949  1.00  0.00     0.163 HD
ATOM      6  O   UNL     1      98.554  76.299  75.953  1.00  0.00    -0.275 OA
BRANCH   4   7
ATOM      7  C   UNL     1      97.431  78.515  74.550  1.00  0.00     0.151 C 
BRANCH   7   8
ATOM      8  C   UNL     1      97.330  79.981  74.769  1.00  0.00    -0.025 A 
ATOM      9  C   UNL     1      97.447  81.931  76.264  1.00  0.00     0.160 A 
ATOM     10  C   UNL     1      97.081  82.774  75.192  1.00  0.00     0.157 A 
ATOM     11  C   UNL     1      97.560  80.542  76.047  1.00  0.00     0.056 A 
ATOM     12  C   UNL     1      96.867  82.229  73.913  1.00  0.00     0.050 A 
ATOM     13  C   UNL     1      97.000  80.844  73.700  1.00  0.00     0.009 A 
BRANCH   9  14
ATOM     14  O   UNL     1      97.744  82.461  77.492  1.00  0.00    -0.493 OA
ATOM     15  C   UNL     1      97.115  81.782  78.592  1.00  0.00     0.278 C 
ENDBRANCH   9  14
BRANCH  10  16
ATOM     16  O   UNL     1      96.935  84.111  75.365  1.00  0.00    -0.504 OA
ATOM     17  H   UNL     1      97.694  84.567  74.994  1.00  0.00     0.293 HD
ENDBRANCH  10  16
ENDBRANCH   7   8
ENDBRANCH   4   7
ENDBRANCH   2   3
ENDBRANCH   1   2
BRANCH   1  18
ATOM     18  C   UNL     1     101.552  77.875  76.972  1.00  0.00     0.001 C 
BRANCH  18  19
ATOM     19  C   UNL     1     102.191  78.997  76.115  1.00  0.00     0.004 C 
BRANCH  19  20
ATOM     20  C   UNL     1     101.260  80.239  76.022  1.00  0.00     0.027 C 
BRANCH  20  21
ATOM     21  C   UNL     1     101.433  81.009  74.802  1.00  0.00    -0.031 C 
ATOM     22  C   UNL     1     100.597  82.003  74.455  1.00  0.00    -0.028 C 
BRANCH  22  23
ATOM     23  C   UNL     1     100.746  82.799  73.239  1.00  0.00     0.005 C 
ATOM     24  C   UNL     1     100.137  82.047  72.026  1.00  0.00     0.012 C 
ATOM     25  C   UNL     1     100.118  84.205  73.438  1.00  0.00     0.012 C 
ENDBRANCH  22  23
ENDBRANCH  20  21
ENDBRANCH  19  20
ENDBRANCH  18  19
ENDBRANCH   1  18
TORSDOF 11
ENDMDL
MODEL 8
REMARK VINA RESULT:    -5.165      2.486      3.624
REMARK INTER + INTRA:          -9.326
REMARK INTER:                  -8.491
REMARK INTRA:                  -0.834
REMARK UNBOUND:                -0.991
REMARK SMILES COc1cc(CNC(=O)CCCCC/C=C/C(C)C)ccc1O
REMARK SMILES IDX 11 1 10 2 8 3 7 4 9 6 6 7 5 8 3 9 22 10 4 11 21 12 20 13
REMARK SMILES IDX 2 14 1 15 23 16 12 18 13 19 14 20 15 21 16 22 17 23 18 24
REMARK SMILES IDX 19 25
REMARK H PARENT 7 5 23 17
REMARK Flexibility Score: inf
ROOT
ATOM      1  C   UNL     1     102.010  79.056  77.471  1.00  0.00     0.010 C 
ENDROOT
BRANCH   1   2
ATOM      2  C   UNL     1     101.503  79.806  78.730  1.00  0.00     0.100 C 
BRANCH   2   3
ATOM      3  C   UNL     1     100.081  79.567  79.038  1.00  0.00     0.220 C 
ATOM      4  N   UNL     1      99.366  80.509  79.714  1.00  0.00    -0.352 N 
ATOM      5  H   UNL     1      99.907  81.303  80.028  1.00  0.00     0.163 HD
ATOM      6  O   UNL     1      99.553  78.506  78.629  1.00  0.00    -0.275 OA
BRANCH   4   7
ATOM      7  C   UNL     1      97.968  80.449  79.991  1.00  0.00     0.151 C 
BRANCH   7   8
ATOM      8  C   UNL     1      97.603  81.151  81.249  1.00  0.00    -0.025 A 
ATOM      9  C   UNL     1      97.814  81.419  83.685  1.00  0.00     0.160 A 
ATOM     10  C   UNL     1      96.862  82.461  83.652  1.00  0.00     0.157 A 
ATOM     11  C   UNL     1      98.170  80.767  82.486  1.00  0.00     0.056 A 
ATOM     12  C   UNL     1      96.305  82.864  82.424  1.00  0.00     0.050 A 
ATOM     13  C   UNL     1      96.680  82.221  81.230  1.00  0.00     0.009 A 
BRANCH   9  14
ATOM     14  O   UNL     1      98.427  81.078  84.861  1.00  0.00    -0.493 OA
ATOM     15  C   UNL     1      98.436  79.666  85.132  1.00  0.00     0.278 C 
ENDBRANCH   9  14
BRANCH  10  16
ATOM     16  O   UNL     1      96.471  83.095  84.785  1.00  0.00    -0.504 OA
ATOM     17  H   UNL     1      96.918  82.704  85.540  1.00  0.00     0.293 HD
ENDBRANCH  10  16
ENDBRANCH   7   8
ENDBRANCH   4   7
ENDBRANCH   2   3
ENDBRANCH   1   2
BRANCH   1  18
ATOM     18  C   UNL     1     101.908  79.949  76.208  1.00  0.00     0.001 C 
BRANCH  18  19
ATOM     19  C   UNL     1     100.623  79.708  75.377  1.00  0.00     0.004 C 
BRANCH  19  20
ATOM     20  C   UNL     1      99.787  81.011  75.237  1.00  0.00     0.027 C 
BRANCH  20  21
ATOM     21  C   UNL     1     100.436  82.039  74.442  1.00  0.00    -0.031 C 
ATOM     22  C   UNL     1      99.896  83.258  74.263  1.00  0.00    -0.028 C 
BRANCH  22  23
ATOM     23  C   UNL     1     100.525  84.314  73.475  1.00  0.00     0.005 C 
ATOM     24  C   UNL     1     101.988  83.929  73.130  1.00  0.00     0.012 C 
ATOM     25  C   UNL     1      99.680  84.614  72.207  1.00  0.00     0.012 C 
ENDBRANCH  22  23
ENDBRANCH  20  21
ENDBRANCH  19  20
ENDBRANCH  18  19
ENDBRANCH   1  18
TORSDOF 11
ENDMDL
MODEL 9
REMARK VINA RESULT:    -5.084     38.525     40.596
REMARK INTER + INTRA:          -9.196
REMARK INTER:                  -8.447
REMARK INTRA:                  -0.749
REMARK UNBOUND:                -0.991
REMARK SMILES COc1cc(CNC(=O)CCCCC/C=C/C(C)C)ccc1O
REMARK SMILES IDX 11 1 10 2 8 3 7 4 9 6 6 7 5 8 3 9 22 10 4 11 21 12 20 13
REMARK SMILES IDX 2 14 1 15 23 16 12 18 13 19 14 20 15 21 16 22 17 23 18 24
REMARK SMILES IDX 19 25
REMARK H PARENT 7 5 23 17
REMARK Flexibility Score: inf
ROOT
ATOM      1  C   UNL     1      56.238  88.351  70.327  1.00  0.00     0.010 C 
ENDROOT
BRANCH   1   2
ATOM      2  C   UNL     1      56.792  86.907  70.435  1.00  0.00     0.100 C 
BRANCH   2   3
ATOM      3  C   UNL     1      58.251  86.837  70.639  1.00  0.00     0.220 C 
ATOM      4  N   UNL     1      58.931  85.710  70.292  1.00  0.00    -0.352 N 
ATOM      5  H   UNL     1      58.349  84.947  69.974  1.00  0.00     0.163 HD
ATOM      6  O   UNL     1      58.838  87.848  71.094  1.00  0.00    -0.275 OA
BRANCH   4   7
ATOM      7  C   UNL     1      60.348  85.545  70.345  1.00  0.00     0.151 C 
BRANCH   7   8
ATOM      8  C   UNL     1      60.761  84.426  71.230  1.00  0.00    -0.025 A 
ATOM      9  C   UNL     1      62.167  82.456  71.668  1.00  0.00     0.160 A 
ATOM     10  C   UNL     1      61.507  82.260  72.901  1.00  0.00     0.157 A 
ATOM     11  C   UNL     1      61.784  83.530  70.840  1.00  0.00     0.056 A 
ATOM     12  C   UNL     1      60.500  83.155  73.308  1.00  0.00     0.050 A 
ATOM     13  C   UNL     1      60.137  84.236  72.483  1.00  0.00     0.009 A 
BRANCH   9  14
ATOM     14  O   UNL     1      63.207  81.644  71.303  1.00  0.00    -0.493 OA
ATOM     15  C   UNL     1      64.442  82.341  71.065  1.00  0.00     0.278 C 
ENDBRANCH   9  14
BRANCH  10  16
ATOM     16  O   UNL     1      61.826  81.223  73.715  1.00  0.00    -0.504 OA
ATOM     17  H   UNL     1      61.326  81.292  74.532  1.00  0.00     0.293 HD
ENDBRANCH  10  16
ENDBRANCH   7   8
ENDBRANCH   4   7
ENDBRANCH   2   3
ENDBRANCH   1   2
BRANCH   1  18
ATOM     18  C   UNL     1      55.327  88.510  69.083  1.00  0.00     0.001 C 
BRANCH  18  19
ATOM     19  C   UNL     1      54.109  89.437  69.318  1.00  0.00     0.004 C 
BRANCH  19  20
ATOM     20  C   UNL     1      52.997  89.192  68.259  1.00  0.00     0.027 C 
BRANCH  20  21
ATOM     21  C   UNL     1      53.498  89.087  66.899  1.00  0.00    -0.031 C 
ATOM     22  C   UNL     1      53.835  90.167  66.172  1.00  0.00    -0.028 C 
BRANCH  22  23
ATOM     23  C   UNL     1      54.346  90.095  64.806  1.00  0.00     0.005 C 
ATOM     24  C   UNL     1      55.443  89.002  64.699  1.00  0.00     0.012 C 
ATOM     25  C   UNL     1      53.180  89.860  63.808  1.00  0.00     0.012 C 
ENDBRANCH  22  23
ENDBRANCH  20  21
ENDBRANCH  19  20
ENDBRANCH  18  19
ENDBRANCH   1  18
TORSDOF 11
ENDMDL
MODEL 10
REMARK VINA RESULT:    -5.001     30.616     32.489
REMARK INTER + INTRA:          -9.062
REMARK INTER:                  -8.065
REMARK INTRA:                  -0.997
REMARK UNBOUND:                -0.991
REMARK SMILES COc1cc(CNC(=O)CCCCC/C=C/C(C)C)ccc1O
REMARK SMILES IDX 11 1 10 2 8 3 7 4 9 6 6 7 5 8 3 9 22 10 4 11 21 12 20 13
REMARK SMILES IDX 2 14 1 15 23 16 12 18 13 19 14 20 15 21 16 22 17 23 18 24
REMARK SMILES IDX 19 25
REMARK H PARENT 7 5 23 17
REMARK Flexibility Score: inf
ROOT
ATOM      1  C   UNL     1      67.142  84.865  70.844  1.00  0.00     0.010 C 
ENDROOT
BRANCH   1   2
ATOM      2  C   UNL     1      66.683  84.129  69.559  1.00  0.00     0.100 C 
BRANCH   2   3
ATOM      3  C   UNL     1      65.370  83.468  69.681  1.00  0.00     0.220 C 
ATOM      4  N   UNL     1      65.221  82.407  70.520  1.00  0.00    -0.352 N 
ATOM      5  H   UNL     1      66.075  82.094  70.961  1.00  0.00     0.163 HD
ATOM      6  O   UNL     1      64.406  83.935  69.030  1.00  0.00    -0.275 OA
BRANCH   4   7
ATOM      7  C   UNL     1      63.992  81.741  70.805  1.00  0.00     0.151 C 
BRANCH   7   8
ATOM      8  C   UNL     1      63.411  82.145  72.112  1.00  0.00    -0.025 A 
ATOM      9  C   UNL     1      63.088  83.826  73.877  1.00  0.00     0.160 A 
ATOM     10  C   UNL     1      62.345  82.891  74.630  1.00  0.00     0.157 A 
ATOM     11  C   UNL     1      63.622  83.444  72.630  1.00  0.00     0.056 A 
ATOM     12  C   UNL     1      62.115  81.602  74.118  1.00  0.00     0.050 A 
ATOM     13  C   UNL     1      62.635  81.234  72.863  1.00  0.00     0.009 A 
BRANCH   9  14
ATOM     14  O   UNL     1      63.244  85.111  74.327  1.00  0.00    -0.493 OA
ATOM     15  C   UNL     1      64.154  85.901  73.544  1.00  0.00     0.278 C 
ENDBRANCH   9  14
BRANCH  10  16
ATOM     16  O   UNL     1      61.838  83.210  75.848  1.00  0.00    -0.504 OA
ATOM     17  H   UNL     1      60.882  83.128  75.827  1.00  0.00     0.293 HD
ENDBRANCH  10  16
ENDBRANCH   7   8
ENDBRANCH   4   7
ENDBRANCH   2   3
ENDBRANCH   1   2
BRANCH   1  18
ATOM     18  C   UNL     1      68.586  85.405  70.694  1.00  0.00     0.001 C 
BRANCH  18  19
ATOM     19  C   UNL     1      69.471  84.563  69.741  1.00  0.00     0.004 C 
BRANCH  19  20
ATOM     20  C   UNL     1      70.126  85.449  68.645  1.00  0.00     0.027 C 
BRANCH  20  21
ATOM     21  C   UNL     1      70.307  84.767  67.374  1.00  0.00    -0.031 C 
ATOM     22  C   UNL     1      69.298  84.141  66.745  1.00  0.00    -0.028 C 
BRANCH  22  23
ATOM     23  C   UNL     1      69.445  83.452  65.465  1.00  0.00     0.005 C 
ATOM     24  C   UNL     1      70.298  82.168  65.641  1.00  0.00     0.012 C 
ATOM     25  C   UNL     1      68.050  83.154  64.852  1.00  0.00     0.012 C 
ENDBRANCH  22  23
ENDBRANCH  20  21
ENDBRANCH  19  20
ENDBRANCH  18  19
ENDBRANCH   1  18
TORSDOF 11
ENDMDL
