MODEL 1
REMARK VINA RESULT:    -5.511      0.000      0.000
REMARK INTER + INTRA:         -10.288
REMARK INTER:                  -8.571
REMARK INTRA:                  -1.717
REMARK UNBOUND:                -1.717
REMARK SMILES CCCCC/C=C/C(=O)CCc1ccc(O)c(OC)c1
REMARK SMILES IDX 6 1 7 2 8 3 9 4 10 5 11 6 12 7 17 8 20 9 15 10 14 11 13 12
REMARK SMILES IDX 18 13 19 14 16 15 5 17 4 18 3 19 2 20 1 21
REMARK H PARENT 16 16
REMARK Flexibility Score: inf
ROOT
ATOM      1  C   UNL     1      81.050  86.698  87.194  1.00  0.00    -0.023 C 
ATOM      2  C   UNL     1      80.261  86.155  86.259  1.00  0.00     0.043 C 
ENDROOT
BRANCH   2   3
ATOM      3  C   UNL     1      80.514  86.438  84.820  1.00  0.00     0.155 C 
ATOM      4  O   UNL     1      81.283  85.753  84.149  1.00  0.00    -0.295 OA
BRANCH   3   5
ATOM      5  C   UNL     1      79.812  87.648  84.235  1.00  0.00     0.085 C 
BRANCH   5   6
ATOM      6  C   UNL     1      80.817  88.718  83.805  1.00  0.00     0.044 C 
BRANCH   6   7
ATOM      7  C   UNL     1      81.577  89.312  84.968  1.00  0.00    -0.044 A 
ATOM      8  C   UNL     1      83.653  89.702  86.106  1.00  0.00     0.160 A 
ATOM      9  C   UNL     1      82.952  89.153  85.033  1.00  0.00     0.054 A 
ATOM     10  C   UNL     1      82.971  90.402  87.101  1.00  0.00     0.157 A 
ATOM     11  C   UNL     1      81.586  90.553  87.022  1.00  0.00     0.050 A 
ATOM     12  C   UNL     1      80.884  90.004  85.948  1.00  0.00     0.008 A 
BRANCH   8  13
ATOM     13  O   UNL     1      85.005  89.547  86.172  1.00  0.00    -0.493 OA
ATOM     14  C   UNL     1      85.790  90.301  85.250  1.00  0.00     0.278 C 
ENDBRANCH   8  13
BRANCH  10  15
ATOM     15  O   UNL     1      83.644  90.943  88.154  1.00  0.00    -0.504 OA
ATOM     16  H   UNL     1      83.239  91.801  88.367  1.00  0.00     0.293 HD
ENDBRANCH  10  15
ENDBRANCH   6   7
ENDBRANCH   5   6
ENDBRANCH   3   5
ENDBRANCH   2   3
BRANCH   1  17
ATOM     17  C   UNL     1      80.861  86.463  88.665  1.00  0.00     0.027 C 
BRANCH  17  18
ATOM     18  C   UNL     1      81.659  87.438  89.537  1.00  0.00     0.004 C 
BRANCH  18  19
ATOM     19  C   UNL     1      80.842  88.051  90.678  1.00  0.00     0.000 C 
BRANCH  19  20
ATOM     20  C   UNL     1      80.480  89.506  90.378  1.00  0.00    -0.003 C 
ATOM     21  C   UNL     1      79.124  89.615  89.699  1.00  0.00     0.004 C 
ENDBRANCH  19  20
ENDBRANCH  18  19
ENDBRANCH  17  18
ENDBRANCH   1  17
TORSDOF 10
ENDMDL
MODEL 2
REMARK VINA RESULT:    -5.200     23.213     25.883
REMARK INTER + INTRA:          -9.804
REMARK INTER:                  -8.407
REMARK INTRA:                  -1.398
REMARK UNBOUND:                -1.717
REMARK SMILES CCCCC/C=C/C(=O)CCc1ccc(O)c(OC)c1
REMARK SMILES IDX 6 1 7 2 8 3 9 4 10 5 11 6 12 7 17 8 20 9 15 10 14 11 13 12
REMARK SMILES IDX 18 13 19 14 16 15 5 17 4 18 3 19 2 20 1 21
REMARK H PARENT 16 16
REMARK Flexibility Score: inf
ROOT
ATOM      1  C   UNL     1      80.516  65.554  71.952  1.00  0.00    -0.023 C 
ATOM      2  C   UNL     1      80.036  65.356  73.187  1.00  0.00     0.043 C 
ENDROOT
BRANCH   2   3
ATOM      3  C   UNL     1      80.366  64.102  73.918  1.00  0.00     0.155 C 
ATOM      4  O   UNL     1      79.614  63.130  73.911  1.00  0.00    -0.295 OA
BRANCH   3   5
ATOM      5  C   UNL     1      81.655  64.105  74.718  1.00  0.00     0.085 C 
BRANCH   5   6
ATOM      6  C   UNL     1      81.576  65.080  75.894  1.00  0.00     0.044 C 
BRANCH   6   7
ATOM      7  C   UNL     1      82.930  65.402  76.481  1.00  0.00    -0.044 A 
ATOM      8  C   UNL     1      84.639  67.006  76.995  1.00  0.00     0.160 A 
ATOM      9  C   UNL     1      83.389  66.709  76.452  1.00  0.00     0.054 A 
ATOM     10  C   UNL     1      85.414  65.993  77.558  1.00  0.00     0.157 A 
ATOM     11  C   UNL     1      84.939  64.681  77.578  1.00  0.00     0.050 A 
ATOM     12  C   UNL     1      83.688  64.384  77.036  1.00  0.00     0.008 A 
BRANCH   8  13
ATOM     13  O   UNL     1      85.092  68.291  76.969  1.00  0.00    -0.493 OA
ATOM     14  C   UNL     1      85.574  68.783  75.720  1.00  0.00     0.278 C 
ENDBRANCH   8  13
BRANCH  10  15
ATOM     15  O   UNL     1      86.637  66.271  78.091  1.00  0.00    -0.504 OA
ATOM     16  H   UNL     1      86.821  67.216  77.957  1.00  0.00     0.293 HD
ENDBRANCH  10  15
ENDBRANCH   6   7
ENDBRANCH   5   6
ENDBRANCH   3   5
ENDBRANCH   2   3
BRANCH   1  17
ATOM     17  C   UNL     1      80.229  66.789  71.149  1.00  0.00     0.027 C 
BRANCH  17  18
ATOM     18  C   UNL     1      81.411  67.763  71.100  1.00  0.00     0.004 C 
BRANCH  18  19
ATOM     19  C   UNL     1      81.935  68.162  72.484  1.00  0.00     0.000 C 
BRANCH  19  20
ATOM     20  C   UNL     1      83.461  68.083  72.540  1.00  0.00    -0.003 C 
ATOM     21  C   UNL     1      83.935  66.664  72.812  1.00  0.00     0.004 C 
ENDBRANCH  19  20
ENDBRANCH  18  19
ENDBRANCH  17  18
ENDBRANCH   1  17
TORSDOF 10
ENDMDL
MODEL 3
REMARK VINA RESULT:    -5.184      2.980      5.459
REMARK INTER + INTRA:          -9.780
REMARK INTER:                  -8.666
REMARK INTRA:                  -1.114
REMARK UNBOUND:                -1.717
REMARK SMILES CCCCC/C=C/C(=O)CCc1ccc(O)c(OC)c1
REMARK SMILES IDX 6 1 7 2 8 3 9 4 10 5 11 6 12 7 17 8 20 9 15 10 14 11 13 12
REMARK SMILES IDX 18 13 19 14 16 15 5 17 4 18 3 19 2 20 1 21
REMARK H PARENT 16 16
REMARK Flexibility Score: inf
ROOT
ATOM      1  C   UNL     1      81.920  89.958  84.686  1.00  0.00    -0.023 C 
ATOM      2  C   UNL     1      83.055  89.259  84.810  1.00  0.00     0.043 C 
ENDROOT
BRANCH   2   3
ATOM      3  C   UNL     1      84.347  89.972  85.008  1.00  0.00     0.155 C 
ATOM      4  O   UNL     1      85.207  90.012  84.130  1.00  0.00    -0.295 OA
BRANCH   3   5
ATOM      5  C   UNL     1      84.570  90.603  86.368  1.00  0.00     0.085 C 
BRANCH   5   6
ATOM      6  C   UNL     1      84.600  92.129  86.275  1.00  0.00     0.044 C 
BRANCH   6   7
ATOM      7  C   UNL     1      83.680  92.797  87.269  1.00  0.00    -0.044 A 
ATOM      8  C   UNL     1      82.761  94.796  88.227  1.00  0.00     0.160 A 
ATOM      9  C   UNL     1      83.611  94.180  87.308  1.00  0.00     0.054 A 
ATOM     10  C   UNL     1      81.991  94.021  89.094  1.00  0.00     0.157 A 
ATOM     11  C   UNL     1      82.072  92.629  89.043  1.00  0.00     0.050 A 
ATOM     12  C   UNL     1      82.922  92.013  88.124  1.00  0.00     0.008 A 
BRANCH   8  13
ATOM     13  O   UNL     1      82.691  96.156  88.267  1.00  0.00    -0.493 OA
ATOM     14  C   UNL     1      81.892  96.794  87.273  1.00  0.00     0.278 C 
ENDBRANCH   8  13
BRANCH  10  15
ATOM     15  O   UNL     1      81.157  94.611  89.995  1.00  0.00    -0.504 OA
ATOM     16  H   UNL     1      81.452  94.367  90.889  1.00  0.00     0.293 HD
ENDBRANCH  10  15
ENDBRANCH   6   7
ENDBRANCH   5   6
ENDBRANCH   3   5
ENDBRANCH   2   3
BRANCH   1  17
ATOM     17  C   UNL     1      80.579  89.314  84.485  1.00  0.00     0.027 C 
BRANCH  17  18
ATOM     18  C   UNL     1      80.632  88.085  83.571  1.00  0.00     0.004 C 
BRANCH  18  19
ATOM     19  C   UNL     1      79.982  86.839  84.181  1.00  0.00     0.000 C 
BRANCH  19  20
ATOM     20  C   UNL     1      80.922  86.157  85.176  1.00  0.00    -0.003 C 
ATOM     21  C   UNL     1      80.358  86.189  86.587  1.00  0.00     0.004 C 
ENDBRANCH  19  20
ENDBRANCH  18  19
ENDBRANCH  17  18
ENDBRANCH   1  17
TORSDOF 10
ENDMDL
MODEL 4
REMARK VINA RESULT:    -5.070     13.815     16.868
REMARK INTER + INTRA:          -9.602
REMARK INTER:                  -8.880
REMARK INTRA:                  -0.722
REMARK UNBOUND:                -1.717
REMARK SMILES CCCCC/C=C/C(=O)CCc1ccc(O)c(OC)c1
REMARK SMILES IDX 6 1 7 2 8 3 9 4 10 5 11 6 12 7 17 8 20 9 15 10 14 11 13 12
REMARK SMILES IDX 18 13 19 14 16 15 5 17 4 18 3 19 2 20 1 21
REMARK H PARENT 16 16
REMARK Flexibility Score: inf
ROOT
ATOM      1  C   UNL     1      93.094  93.284  74.815  1.00  0.00    -0.023 C 
ATOM      2  C   UNL     1      93.105  93.801  76.049  1.00  0.00     0.043 C 
ENDROOT
BRANCH   2   3
ATOM      3  C   UNL     1      94.292  94.562  76.524  1.00  0.00     0.155 C 
ATOM      4  O   UNL     1      94.923  95.310  75.780  1.00  0.00    -0.295 OA
BRANCH   3   5
ATOM      5  C   UNL     1      94.716  94.327  77.961  1.00  0.00     0.085 C 
BRANCH   5   6
ATOM      6  C   UNL     1      95.954  95.153  78.316  1.00  0.00     0.044 C 
BRANCH   6   7
ATOM      7  C   UNL     1      95.995  95.552  79.773  1.00  0.00    -0.044 A 
ATOM      8  C   UNL     1      96.563  97.150  81.470  1.00  0.00     0.160 A 
ATOM      9  C   UNL     1      96.526  96.782  80.125  1.00  0.00     0.054 A 
ATOM     10  C   UNL     1      96.070  96.283  82.445  1.00  0.00     0.157 A 
ATOM     11  C   UNL     1      95.539  95.047  82.074  1.00  0.00     0.050 A 
ATOM     12  C   UNL     1      95.502  94.679  80.729  1.00  0.00     0.008 A 
BRANCH   8  13
ATOM     13  O   UNL     1      97.084  98.359  81.819  1.00  0.00    -0.493 OA
ATOM     14  C   UNL     1      96.401  99.520  81.350  1.00  0.00     0.278 C 
ENDBRANCH   8  13
BRANCH  10  15
ATOM     15  O   UNL     1      96.101  96.631  83.761  1.00  0.00    -0.504 OA
ATOM     16  H   UNL     1      96.072  97.601  83.821  1.00  0.00     0.293 HD
ENDBRANCH  10  15
ENDBRANCH   6   7
ENDBRANCH   5   6
ENDBRANCH   3   5
ENDBRANCH   2   3
BRANCH   1  17
ATOM     17  C   UNL     1      91.936  92.503  74.262  1.00  0.00     0.027 C 
BRANCH  17  18
ATOM     18  C   UNL     1      90.612  92.809  74.970  1.00  0.00     0.004 C 
BRANCH  18  19
ATOM     19  C   UNL     1      89.716  91.581  75.153  1.00  0.00     0.000 C 
BRANCH  19  20
ATOM     20  C   UNL     1      89.365  91.368  76.627  1.00  0.00    -0.003 C 
ATOM     21  C   UNL     1      90.011  92.423  77.510  1.00  0.00     0.004 C 
ENDBRANCH  19  20
ENDBRANCH  18  19
ENDBRANCH  17  18
ENDBRANCH   1  17
TORSDOF 10
ENDMDL
MODEL 5
REMARK VINA RESULT:    -5.061     24.354     26.343
REMARK INTER + INTRA:          -9.589
REMARK INTER:                  -7.726
REMARK INTRA:                  -1.863
REMARK UNBOUND:                -1.717
REMARK SMILES CCCCC/C=C/C(=O)CCc1ccc(O)c(OC)c1
REMARK SMILES IDX 6 1 7 2 8 3 9 4 10 5 11 6 12 7 17 8 20 9 15 10 14 11 13 12
REMARK SMILES IDX 18 13 19 14 16 15 5 17 4 18 3 19 2 20 1 21
REMARK H PARENT 16 16
REMARK Flexibility Score: inf
ROOT
ATOM      1  C   UNL     1      81.495  64.339  74.835  1.00  0.00    -0.023 C 
ATOM      2  C   UNL     1      81.661  65.087  75.932  1.00  0.00     0.043 C 
ENDROOT
BRANCH   2   3
ATOM      3  C   UNL     1      82.970  65.085  76.640  1.00  0.00     0.155 C 
ATOM      4  O   UNL     1      83.346  64.123  77.307  1.00  0.00    -0.295 OA
BRANCH   3   5
ATOM      5  C   UNL     1      83.795  66.353  76.540  1.00  0.00     0.085 C 
BRANCH   5   6
ATOM      6  C   UNL     1      84.960  66.183  75.563  1.00  0.00     0.044 C 
BRANCH   6   7
ATOM      7  C   UNL     1      84.555  66.397  74.124  1.00  0.00    -0.044 A 
ATOM      8  C   UNL     1      83.782  67.856  72.382  1.00  0.00     0.160 A 
ATOM      9  C   UNL     1      84.155  67.658  73.712  1.00  0.00     0.054 A 
ATOM     10  C   UNL     1      83.813  66.791  71.483  1.00  0.00     0.157 A 
ATOM     11  C   UNL     1      84.217  65.526  71.913  1.00  0.00     0.050 A 
ATOM     12  C   UNL     1      84.591  65.329  73.243  1.00  0.00     0.008 A 
BRANCH   8  13
ATOM     13  O   UNL     1      83.389  69.095  71.974  1.00  0.00    -0.493 OA
ATOM     14  C   UNL     1      84.416  70.012  71.604  1.00  0.00     0.278 C 
ENDBRANCH   8  13
BRANCH  10  15
ATOM     15  O   UNL     1      83.451  66.971  70.182  1.00  0.00    -0.504 OA
ATOM     16  H   UNL     1      83.404  66.099  69.754  1.00  0.00     0.293 HD
ENDBRANCH  10  15
ENDBRANCH   6   7
ENDBRANCH   5   6
ENDBRANCH   3   5
ENDBRANCH   2   3
BRANCH   1  17
ATOM     17  C   UNL     1      80.207  64.286  74.065  1.00  0.00     0.027 C 
BRANCH  17  18
ATOM     18  C   UNL     1      80.265  65.056  72.741  1.00  0.00     0.004 C 
BRANCH  18  19
ATOM     19  C   UNL     1      80.363  66.574  72.917  1.00  0.00     0.000 C 
BRANCH  19  20
ATOM     20  C   UNL     1      80.239  67.295  71.574  1.00  0.00    -0.003 C 
ATOM     21  C   UNL     1      79.909  66.325  70.450  1.00  0.00     0.004 C 
ENDBRANCH  19  20
ENDBRANCH  18  19
ENDBRANCH  17  18
ENDBRANCH   1  17
TORSDOF 10
ENDMDL
MODEL 6
REMARK VINA RESULT:    -5.027     24.236     25.570
REMARK INTER + INTRA:          -9.535
REMARK INTER:                  -8.172
REMARK INTRA:                  -1.364
REMARK UNBOUND:                -1.717
REMARK SMILES CCCCC/C=C/C(=O)CCc1ccc(O)c(OC)c1
REMARK SMILES IDX 6 1 7 2 8 3 9 4 10 5 11 6 12 7 17 8 20 9 15 10 14 11 13 12
REMARK SMILES IDX 18 13 19 14 16 15 5 17 4 18 3 19 2 20 1 21
REMARK H PARENT 16 16
REMARK Flexibility Score: inf
ROOT
ATOM      1  C   UNL     1      80.281  64.813  72.690  1.00  0.00    -0.023 C 
ATOM      2  C   UNL     1      80.175  66.135  72.507  1.00  0.00     0.043 C 
ENDROOT
BRANCH   2   3
ATOM      3  C   UNL     1      80.326  66.709  71.143  1.00  0.00     0.155 C 
ATOM      4  O   UNL     1      79.663  66.304  70.190  1.00  0.00    -0.295 OA
BRANCH   3   5
ATOM      5  C   UNL     1      81.380  67.786  70.976  1.00  0.00     0.085 C 
BRANCH   5   6
ATOM      6  C   UNL     1      81.781  68.385  72.325  1.00  0.00     0.044 C 
BRANCH   6   7
ATOM      7  C   UNL     1      83.243  68.759  72.390  1.00  0.00    -0.044 A 
ATOM      8  C   UNL     1      85.408  68.497  73.392  1.00  0.00     0.160 A 
ATOM      9  C   UNL     1      84.058  68.151  73.332  1.00  0.00     0.054 A 
ATOM     10  C   UNL     1      85.925  69.446  72.510  1.00  0.00     0.157 A 
ATOM     11  C   UNL     1      85.092  70.050  71.568  1.00  0.00     0.050 A 
ATOM     12  C   UNL     1      83.741  69.704  71.508  1.00  0.00     0.008 A 
BRANCH   8  13
ATOM     13  O   UNL     1      86.212  67.901  74.316  1.00  0.00    -0.493 OA
ATOM     14  C   UNL     1      85.619  66.900  75.141  1.00  0.00     0.278 C 
ENDBRANCH   8  13
BRANCH  10  15
ATOM     15  O   UNL     1      87.242  69.792  72.559  1.00  0.00    -0.504 OA
ATOM     16  H   UNL     1      87.356  70.465  73.251  1.00  0.00     0.293 HD
ENDBRANCH  10  15
ENDBRANCH   6   7
ENDBRANCH   5   6
ENDBRANCH   3   5
ENDBRANCH   2   3
BRANCH   1  17
ATOM     17  C   UNL     1      80.141  64.156  74.033  1.00  0.00     0.027 C 
BRANCH  17  18
ATOM     18  C   UNL     1      81.441  63.510  74.524  1.00  0.00     0.004 C 
BRANCH  18  19
ATOM     19  C   UNL     1      82.493  64.523  74.987  1.00  0.00     0.000 C 
BRANCH  19  20
ATOM     20  C   UNL     1      82.080  65.185  76.302  1.00  0.00    -0.003 C 
ATOM     21  C   UNL     1      81.712  66.646  76.098  1.00  0.00     0.004 C 
ENDBRANCH  19  20
ENDBRANCH  18  19
ENDBRANCH  17  18
ENDBRANCH   1  17
TORSDOF 10
ENDMDL
MODEL 7
REMARK VINA RESULT:    -4.961     23.338     25.745
REMARK INTER + INTRA:          -9.432
REMARK INTER:                  -8.792
REMARK INTRA:                  -0.640
REMARK UNBOUND:                -1.717
REMARK SMILES CCCCC/C=C/C(=O)CCc1ccc(O)c(OC)c1
REMARK SMILES IDX 6 1 7 2 8 3 9 4 10 5 11 6 12 7 17 8 20 9 15 10 14 11 13 12
REMARK SMILES IDX 18 13 19 14 16 15 5 17 4 18 3 19 2 20 1 21
REMARK H PARENT 16 16
REMARK Flexibility Score: inf
ROOT
ATOM      1  C   UNL     1      85.088  63.592  78.583  1.00  0.00    -0.023 C 
ATOM      2  C   UNL     1      85.045  64.773  77.955  1.00  0.00     0.043 C 
ENDROOT
BRANCH   2   3
ATOM      3  C   UNL     1      84.326  64.898  76.658  1.00  0.00     0.155 C 
ATOM      4  O   UNL     1      84.761  65.589  75.739  1.00  0.00    -0.295 OA
BRANCH   3   5
ATOM      5  C   UNL     1      83.001  64.170  76.547  1.00  0.00     0.085 C 
BRANCH   5   6
ATOM      6  C   UNL     1      81.827  65.149  76.550  1.00  0.00     0.044 C 
BRANCH   6   7
ATOM      7  C   UNL     1      81.309  65.451  75.164  1.00  0.00    -0.044 A 
ATOM      8  C   UNL     1      81.035  66.988  73.341  1.00  0.00     0.160 A 
ATOM      9  C   UNL     1      81.513  66.711  74.622  1.00  0.00     0.054 A 
ATOM     10  C   UNL     1      80.360  66.005  72.619  1.00  0.00     0.157 A 
ATOM     11  C   UNL     1      80.163  64.742  73.178  1.00  0.00     0.050 A 
ATOM     12  C   UNL     1      80.640  64.464  74.459  1.00  0.00     0.008 A 
BRANCH   8  13
ATOM     13  O   UNL     1      81.234  68.226  72.807  1.00  0.00    -0.493 OA
ATOM     14  C   UNL     1      82.517  68.489  72.241  1.00  0.00     0.278 C 
ENDBRANCH   8  13
BRANCH  10  15
ATOM     15  O   UNL     1      79.890  66.264  71.368  1.00  0.00    -0.504 OA
ATOM     16  H   UNL     1      78.999  65.881  71.291  1.00  0.00     0.293 HD
ENDBRANCH  10  15
ENDBRANCH   6   7
ENDBRANCH   5   6
ENDBRANCH   3   5
ENDBRANCH   2   3
BRANCH   1  17
ATOM     17  C   UNL     1      85.792  63.384  79.893  1.00  0.00     0.027 C 
BRANCH  17  18
ATOM     18  C   UNL     1      86.009  64.686  80.672  1.00  0.00     0.004 C 
BRANCH  18  19
ATOM     19  C   UNL     1      85.434  64.654  82.092  1.00  0.00     0.000 C 
BRANCH  19  20
ATOM     20  C   UNL     1      86.431  65.221  83.104  1.00  0.00    -0.003 C 
ATOM     21  C   UNL     1      85.808  66.329  83.938  1.00  0.00     0.004 C 
ENDBRANCH  19  20
ENDBRANCH  18  19
ENDBRANCH  17  18
ENDBRANCH   1  17
TORSDOF 10
ENDMDL
MODEL 8
REMARK VINA RESULT:    -4.946     23.228     25.854
REMARK INTER + INTRA:          -9.410
REMARK INTER:                  -8.289
REMARK INTRA:                  -1.121
REMARK UNBOUND:                -1.717
REMARK SMILES CCCCC/C=C/C(=O)CCc1ccc(O)c(OC)c1
REMARK SMILES IDX 6 1 7 2 8 3 9 4 10 5 11 6 12 7 17 8 20 9 15 10 14 11 13 12
REMARK SMILES IDX 18 13 19 14 16 15 5 17 4 18 3 19 2 20 1 21
REMARK H PARENT 16 16
REMARK Flexibility Score: inf
ROOT
ATOM      1  C   UNL     1      82.171  67.734  71.093  1.00  0.00    -0.023 C 
ATOM      2  C   UNL     1      80.978  67.542  71.671  1.00  0.00     0.043 C 
ENDROOT
BRANCH   2   3
ATOM      3  C   UNL     1      80.266  66.248  71.490  1.00  0.00     0.155 C 
ATOM      4  O   UNL     1      79.786  65.916  70.408  1.00  0.00    -0.295 OA
BRANCH   3   5
ATOM      5  C   UNL     1      80.117  65.380  72.725  1.00  0.00     0.085 C 
BRANCH   5   6
ATOM      6  C   UNL     1      80.214  66.214  74.004  1.00  0.00     0.044 C 
BRANCH   6   7
ATOM      7  C   UNL     1      81.409  65.850  74.853  1.00  0.00    -0.044 A 
ATOM      8  C   UNL     1      83.147  66.501  76.374  1.00  0.00     0.160 A 
ATOM      9  C   UNL     1      82.044  66.837  75.590  1.00  0.00     0.054 A 
ATOM     10  C   UNL     1      83.601  65.183  76.411  1.00  0.00     0.157 A 
ATOM     11  C   UNL     1      82.951  64.200  75.663  1.00  0.00     0.050 A 
ATOM     12  C   UNL     1      81.848  64.537  74.879  1.00  0.00     0.008 A 
BRANCH   8  13
ATOM     13  O   UNL     1      83.774  67.470  77.099  1.00  0.00    -0.493 OA
ATOM     14  C   UNL     1      84.634  68.358  76.388  1.00  0.00     0.278 C 
ENDBRANCH   8  13
BRANCH  10  15
ATOM     15  O   UNL     1      84.678  64.842  77.174  1.00  0.00    -0.504 OA
ATOM     16  H   UNL     1      85.304  64.350  76.615  1.00  0.00     0.293 HD
ENDBRANCH  10  15
ENDBRANCH   6   7
ENDBRANCH   5   6
ENDBRANCH   3   5
ENDBRANCH   2   3
BRANCH   1  17
ATOM     17  C   UNL     1      82.951  69.009  71.226  1.00  0.00     0.027 C 
BRANCH  17  18
ATOM     18  C   UNL     1      84.136  68.891  72.191  1.00  0.00     0.004 C 
BRANCH  18  19
ATOM     19  C   UNL     1      85.188  69.990  72.008  1.00  0.00     0.000 C 
BRANCH  19  20
ATOM     20  C   UNL     1      85.856  69.892  70.636  1.00  0.00    -0.003 C 
ATOM     21  C   UNL     1      86.587  68.570  70.466  1.00  0.00     0.004 C 
ENDBRANCH  19  20
ENDBRANCH  18  19
ENDBRANCH  17  18
ENDBRANCH   1  17
TORSDOF 10
ENDMDL
MODEL 9
REMARK VINA RESULT:    -4.804     23.193     25.959
REMARK INTER + INTRA:          -9.189
REMARK INTER:                  -8.295
REMARK INTRA:                  -0.894
REMARK UNBOUND:                -1.717
REMARK SMILES CCCCC/C=C/C(=O)CCc1ccc(O)c(OC)c1
REMARK SMILES IDX 6 1 7 2 8 3 9 4 10 5 11 6 12 7 17 8 20 9 15 10 14 11 13 12
REMARK SMILES IDX 18 13 19 14 16 15 5 17 4 18 3 19 2 20 1 21
REMARK H PARENT 16 16
REMARK Flexibility Score: inf
ROOT
ATOM      1  C   UNL     1      80.412  65.835  73.770  1.00  0.00    -0.023 C 
ATOM      2  C   UNL     1      81.536  65.532  74.431  1.00  0.00     0.043 C 
ENDROOT
BRANCH   2   3
ATOM      3  C   UNL     1      81.681  65.912  75.862  1.00  0.00     0.155 C 
ATOM      4  O   UNL     1      81.547  67.073  76.242  1.00  0.00    -0.295 OA
BRANCH   3   5
ATOM      5  C   UNL     1      82.054  64.799  76.823  1.00  0.00     0.085 C 
BRANCH   5   6
ATOM      6  C   UNL     1      83.369  64.132  76.417  1.00  0.00     0.044 C 
BRANCH   6   7
ATOM      7  C   UNL     1      84.444  64.264  77.470  1.00  0.00    -0.044 A 
ATOM      8  C   UNL     1      86.278  65.485  78.420  1.00  0.00     0.160 A 
ATOM      9  C   UNL     1      85.285  65.365  77.447  1.00  0.00     0.054 A 
ATOM     10  C   UNL     1      86.416  64.505  79.402  1.00  0.00     0.157 A 
ATOM     11  C   UNL     1      85.561  63.401  79.410  1.00  0.00     0.050 A 
ATOM     12  C   UNL     1      84.569  63.281  78.437  1.00  0.00     0.008 A 
BRANCH   8  13
ATOM     13  O   UNL     1      87.106  66.567  78.401  1.00  0.00    -0.493 OA
ATOM     14  C   UNL     1      86.526  67.833  78.709  1.00  0.00     0.278 C 
ENDBRANCH   8  13
BRANCH  10  15
ATOM     15  O   UNL     1      87.381  64.612  80.357  1.00  0.00    -0.504 OA
ATOM     16  H   UNL     1      87.529  65.556  80.537  1.00  0.00     0.293 HD
ENDBRANCH  10  15
ENDBRANCH   6   7
ENDBRANCH   5   6
ENDBRANCH   3   5
ENDBRANCH   2   3
BRANCH   1  17
ATOM     17  C   UNL     1      80.189  65.487  72.327  1.00  0.00     0.027 C 
BRANCH  17  18
ATOM     18  C   UNL     1      80.354  66.686  71.387  1.00  0.00     0.004 C 
BRANCH  18  19
ATOM     19  C   UNL     1      81.752  66.794  70.769  1.00  0.00     0.000 C 
BRANCH  19  20
ATOM     20  C   UNL     1      82.304  68.215  70.898  1.00  0.00    -0.003 C 
ATOM     21  C   UNL     1      82.700  68.531  72.331  1.00  0.00     0.004 C 
ENDBRANCH  19  20
ENDBRANCH  18  19
ENDBRANCH  17  18
ENDBRANCH   1  17
TORSDOF 10
ENDMDL
MODEL 10
REMARK VINA RESULT:    -4.697     23.878     26.390
REMARK INTER + INTRA:          -9.023
REMARK INTER:                  -7.722
REMARK INTRA:                  -1.301
REMARK UNBOUND:                -1.717
REMARK SMILES CCCCC/C=C/C(=O)CCc1ccc(O)c(OC)c1
REMARK SMILES IDX 6 1 7 2 8 3 9 4 10 5 11 6 12 7 17 8 20 9 15 10 14 11 13 12
REMARK SMILES IDX 18 13 19 14 16 15 5 17 4 18 3 19 2 20 1 21
REMARK H PARENT 16 16
REMARK Flexibility Score: inf
ROOT
ATOM      1  C   UNL     1      82.833  63.673  74.923  1.00  0.00    -0.023 C 
ATOM      2  C   UNL     1      81.918  64.643  75.040  1.00  0.00     0.043 C 
ENDROOT
BRANCH   2   3
ATOM      3  C   UNL     1      80.700  64.620  74.184  1.00  0.00     0.155 C 
ATOM      4  O   UNL     1      80.189  63.567  73.811  1.00  0.00    -0.295 OA
BRANCH   3   5
ATOM      5  C   UNL     1      80.152  65.967  73.753  1.00  0.00     0.085 C 
BRANCH   5   6
ATOM      6  C   UNL     1      80.127  66.093  72.229  1.00  0.00     0.044 C 
BRANCH   6   7
ATOM      7  C   UNL     1      81.484  66.399  71.642  1.00  0.00    -0.044 A 
ATOM      8  C   UNL     1      83.439  67.789  71.550  1.00  0.00     0.160 A 
ATOM      9  C   UNL     1      82.185  67.507  72.092  1.00  0.00     0.054 A 
ATOM     10  C   UNL     1      83.976  66.960  70.565  1.00  0.00     0.157 A 
ATOM     11  C   UNL     1      83.257  65.849  70.121  1.00  0.00     0.050 A 
ATOM     12  C   UNL     1      82.003  65.567  70.664  1.00  0.00     0.008 A 
BRANCH   8  13
ATOM     13  O   UNL     1      84.130  68.877  71.991  1.00  0.00    -0.493 OA
ATOM     14  C   UNL     1      83.774  70.141  71.435  1.00  0.00     0.278 C 
ENDBRANCH   8  13
BRANCH  10  15
ATOM     15  O   UNL     1      85.199  67.225  70.028  1.00  0.00    -0.504 OA
ATOM     16  H   UNL     1      85.299  68.190  69.957  1.00  0.00     0.293 HD
ENDBRANCH  10  15
ENDBRANCH   6   7
ENDBRANCH   5   6
ENDBRANCH   3   5
ENDBRANCH   2   3
BRANCH   1  17
ATOM     17  C   UNL     1      84.087  63.624  75.747  1.00  0.00     0.027 C 
BRANCH  17  18
ATOM     18  C   UNL     1      83.911  64.226  77.145  1.00  0.00     0.004 C 
BRANCH  18  19
ATOM     19  C   UNL     1      84.959  65.289  77.492  1.00  0.00     0.000 C 
BRANCH  19  20
ATOM     20  C   UNL     1      84.888  66.470  76.523  1.00  0.00    -0.003 C 
ATOM     21  C   UNL     1      83.726  67.393  76.854  1.00  0.00     0.004 C 
ENDBRANCH  19  20
ENDBRANCH  18  19
ENDBRANCH  17  18
ENDBRANCH   1  17
TORSDOF 10
ENDMDL
