MODEL 1
REMARK VINA RESULT:    -6.644      0.000      0.000
REMARK INTER + INTRA:         -11.214
REMARK INTER:                 -10.334
REMARK INTRA:                  -0.880
REMARK UNBOUND:                -0.880
REMARK SMILES COc1cc(CNC(=O)CCCC/C=C/C(C)C)ccc1O
REMARK SMILES IDX 10 1 8 2 7 3 9 5 6 6 5 7 3 8 21 9 4 10 20 11 19 12 2 13 1 14
REMARK SMILES IDX 22 15 11 17 12 18 13 19 14 20 15 21 16 22 17 23 18 24
REMARK H PARENT 7 4 22 16
REMARK Flexibility Score: inf
ROOT
ATOM      1  C   UNL     1      90.725  92.563  77.572  1.00  0.00     0.100 C 
ENDROOT
BRANCH   1   2
ATOM      2  C   UNL     1      91.870  93.073  76.793  1.00  0.00     0.220 C 
ATOM      3  N   UNL     1      93.052  93.359  77.408  1.00  0.00    -0.352 N 
ATOM      4  H   UNL     1      93.057  93.217  78.409  1.00  0.00     0.163 HD
ATOM      5  O   UNL     1      91.729  93.210  75.554  1.00  0.00    -0.275 OA
BRANCH   3   6
ATOM      6  C   UNL     1      94.226  93.825  76.742  1.00  0.00     0.151 C 
BRANCH   6   7
ATOM      7  C   UNL     1      95.096  94.614  77.656  1.00  0.00    -0.025 A 
ATOM      8  C   UNL     1      95.790  95.218  79.940  1.00  0.00     0.160 A 
ATOM      9  C   UNL     1      96.760  96.096  79.414  1.00  0.00     0.157 A 
ATOM     10  C   UNL     1      94.966  94.488  79.058  1.00  0.00     0.056 A 
ATOM     11  C   UNL     1      96.888  96.246  78.019  1.00  0.00     0.050 A 
ATOM     12  C   UNL     1      96.069  95.504  77.145  1.00  0.00     0.009 A 
BRANCH   8  13
ATOM     13  O   UNL     1      95.618  95.117  81.297  1.00  0.00    -0.493 OA
ATOM     14  C   UNL     1      95.831  93.793  81.819  1.00  0.00     0.278 C 
ENDBRANCH   8  13
BRANCH   9  15
ATOM     15  O   UNL     1      97.578  96.803  80.236  1.00  0.00    -0.504 OA
ATOM     16  H   UNL     1      97.173  97.649  80.440  1.00  0.00     0.293 HD
ENDBRANCH   9  15
ENDBRANCH   6   7
ENDBRANCH   3   6
ENDBRANCH   1   2
BRANCH   1  17
ATOM     17  C   UNL     1      89.672  91.878  76.660  1.00  0.00     0.010 C 
BRANCH  17  18
ATOM     18  C   UNL     1      89.624  90.335  76.845  1.00  0.00     0.005 C 
BRANCH  18  19
ATOM     19  C   UNL     1      90.668  89.601  75.960  1.00  0.00     0.027 C 
BRANCH  19  20
ATOM     20  C   UNL     1      90.622  90.046  74.576  1.00  0.00    -0.031 C 
ATOM     21  C   UNL     1      89.625  89.754  73.720  1.00  0.00    -0.028 C 
BRANCH  21  22
ATOM     22  C   UNL     1      89.589  90.229  72.337  1.00  0.00     0.005 C 
ATOM     23  C   UNL     1      88.164  90.669  71.902  1.00  0.00     0.012 C 
ATOM     24  C   UNL     1      90.608  91.382  72.140  1.00  0.00     0.012 C 
ENDBRANCH  21  22
ENDBRANCH  19  20
ENDBRANCH  18  19
ENDBRANCH  17  18
ENDBRANCH   1  17
TORSDOF 10
ENDMDL
MODEL 2
REMARK VINA RESULT:    -6.562      2.075      3.689
REMARK INTER + INTRA:         -11.086
REMARK INTER:                 -10.250
REMARK INTRA:                  -0.836
REMARK UNBOUND:                -0.880
REMARK SMILES COc1cc(CNC(=O)CCCC/C=C/C(C)C)ccc1O
REMARK SMILES IDX 10 1 8 2 7 3 9 5 6 6 5 7 3 8 21 9 4 10 20 11 19 12 2 13 1 14
REMARK SMILES IDX 22 15 11 17 12 18 13 19 14 20 15 21 16 22 17 23 18 24
REMARK H PARENT 7 4 22 16
REMARK Flexibility Score: inf
ROOT
ATOM      1  C   UNL     1      94.011  93.661  75.201  1.00  0.00     0.100 C 
ENDROOT
BRANCH   1   2
ATOM      2  C   UNL     1      95.257  94.082  75.871  1.00  0.00     0.220 C 
ATOM      3  N   UNL     1      95.311  95.260  76.553  1.00  0.00    -0.352 N 
ATOM      4  H   UNL     1      94.459  95.803  76.535  1.00  0.00     0.163 HD
ATOM      5  O   UNL     1      96.249  93.316  75.812  1.00  0.00    -0.275 OA
BRANCH   3   6
ATOM      6  C   UNL     1      96.455  95.741  77.260  1.00  0.00     0.151 C 
BRANCH   6   7
ATOM      7  C   UNL     1      96.254  95.677  78.733  1.00  0.00    -0.025 A 
ATOM      8  C   UNL     1      96.482  96.704  80.959  1.00  0.00     0.160 A 
ATOM      9  C   UNL     1      95.862  95.580  81.542  1.00  0.00     0.157 A 
ATOM     10  C   UNL     1      96.674  96.741  79.562  1.00  0.00     0.056 A 
ATOM     11  C   UNL     1      95.455  94.502  80.731  1.00  0.00     0.050 A 
ATOM     12  C   UNL     1      95.641  94.554  79.335  1.00  0.00     0.009 A 
BRANCH   8  13
ATOM     13  O   UNL     1      96.939  97.726  81.752  1.00  0.00    -0.493 OA
ATOM     14  C   UNL     1      98.289  98.134  81.464  1.00  0.00     0.278 C 
ENDBRANCH   8  13
BRANCH   9  15
ATOM     15  O   UNL     1      95.650  95.518  82.882  1.00  0.00    -0.504 OA
ATOM     16  H   UNL     1      95.016  96.193  83.138  1.00  0.00     0.293 HD
ENDBRANCH   9  15
ENDBRANCH   6   7
ENDBRANCH   3   6
ENDBRANCH   1   2
BRANCH   1  17
ATOM     17  C   UNL     1      92.925  94.769  75.263  1.00  0.00     0.010 C 
BRANCH  17  18
ATOM     18  C   UNL     1      91.903  94.551  76.414  1.00  0.00     0.005 C 
BRANCH  18  19
ATOM     19  C   UNL     1      92.245  93.308  77.280  1.00  0.00     0.027 C 
BRANCH  19  20
ATOM     20  C   UNL     1      91.126  92.383  77.376  1.00  0.00    -0.031 C 
ATOM     21  C   UNL     1      90.803  91.487  76.427  1.00  0.00    -0.028 C 
BRANCH  21  22
ATOM     22  C   UNL     1      89.684  90.552  76.553  1.00  0.00     0.005 C 
ATOM     23  C   UNL     1      88.713  90.628  75.342  1.00  0.00     0.012 C 
ATOM     24  C   UNL     1      90.212  89.107  76.749  1.00  0.00     0.012 C 
ENDBRANCH  21  22
ENDBRANCH  19  20
ENDBRANCH  18  19
ENDBRANCH  17  18
ENDBRANCH   1  17
TORSDOF 10
ENDMDL
MODEL 3
REMARK VINA RESULT:    -6.348      1.960      3.235
REMARK INTER + INTRA:         -10.754
REMARK INTER:                  -9.792
REMARK INTRA:                  -0.962
REMARK UNBOUND:                -0.880
REMARK SMILES COc1cc(CNC(=O)CCCC/C=C/C(C)C)ccc1O
REMARK SMILES IDX 10 1 8 2 7 3 9 5 6 6 5 7 3 8 21 9 4 10 20 11 19 12 2 13 1 14
REMARK SMILES IDX 22 15 11 17 12 18 13 19 14 20 15 21 16 22 17 23 18 24
REMARK H PARENT 7 4 22 16
REMARK Flexibility Score: inf
ROOT
ATOM      1  C   UNL     1      93.954  93.741  75.598  1.00  0.00     0.100 C 
ENDROOT
BRANCH   1   2
ATOM      2  C   UNL     1      94.857  94.840  75.992  1.00  0.00     0.220 C 
ATOM      3  N   UNL     1      95.523  94.796  77.180  1.00  0.00    -0.352 N 
ATOM      4  H   UNL     1      95.326  93.985  77.749  1.00  0.00     0.163 HD
ATOM      5  O   UNL     1      95.009  95.797  75.194  1.00  0.00    -0.275 OA
BRANCH   3   6
ATOM      6  C   UNL     1      96.441  95.790  77.637  1.00  0.00     0.151 C 
BRANCH   6   7
ATOM      7  C   UNL     1      96.341  95.989  79.109  1.00  0.00    -0.025 A 
ATOM      8  C   UNL     1      95.566  95.216  81.314  1.00  0.00     0.160 A 
ATOM      9  C   UNL     1      96.159  96.343  81.919  1.00  0.00     0.157 A 
ATOM     10  C   UNL     1      95.660  95.051  79.916  1.00  0.00     0.056 A 
ATOM     11  C   UNL     1      96.825  97.297  81.125  1.00  0.00     0.050 A 
ATOM     12  C   UNL     1      96.924  97.118  79.731  1.00  0.00     0.009 A 
BRANCH   8  13
ATOM     13  O   UNL     1      94.860  94.318  82.075  1.00  0.00    -0.493 OA
ATOM     14  C   UNL     1      95.581  93.110  82.376  1.00  0.00     0.278 C 
ENDBRANCH   8  13
BRANCH   9  15
ATOM     15  O   UNL     1      96.098  96.525  83.264  1.00  0.00    -0.504 OA
ATOM     16  H   UNL     1      96.977  96.436  83.640  1.00  0.00     0.293 HD
ENDBRANCH   9  15
ENDBRANCH   6   7
ENDBRANCH   3   6
ENDBRANCH   1   2
BRANCH   1  17
ATOM     17  C   UNL     1      92.566  94.273  75.153  1.00  0.00     0.010 C 
BRANCH  17  18
ATOM     18  C   UNL     1      91.741  94.869  76.328  1.00  0.00     0.005 C 
BRANCH  18  19
ATOM     19  C   UNL     1      90.295  94.306  76.380  1.00  0.00     0.027 C 
BRANCH  19  20
ATOM     20  C   UNL     1      90.189  93.009  75.729  1.00  0.00    -0.031 C 
ATOM     21  C   UNL     1      90.151  91.835  76.385  1.00  0.00    -0.028 C 
BRANCH  21  22
ATOM     22  C   UNL     1      90.024  90.543  75.710  1.00  0.00     0.005 C 
ATOM     23  C   UNL     1      88.705  90.430  74.898  1.00  0.00     0.012 C 
ATOM     24  C   UNL     1      91.256  90.289  74.803  1.00  0.00     0.012 C 
ENDBRANCH  21  22
ENDBRANCH  19  20
ENDBRANCH  18  19
ENDBRANCH  17  18
ENDBRANCH   1  17
TORSDOF 10
ENDMDL
MODEL 4
REMARK VINA RESULT:    -6.240      2.420      9.088
REMARK INTER + INTRA:         -10.586
REMARK INTER:                  -9.799
REMARK INTRA:                  -0.786
REMARK UNBOUND:                -0.880
REMARK SMILES COc1cc(CNC(=O)CCCC/C=C/C(C)C)ccc1O
REMARK SMILES IDX 10 1 8 2 7 3 9 5 6 6 5 7 3 8 21 9 4 10 20 11 19 12 2 13 1 14
REMARK SMILES IDX 22 15 11 17 12 18 13 19 14 20 15 21 16 22 17 23 18 24
REMARK H PARENT 7 4 22 16
REMARK Flexibility Score: inf
ROOT
ATOM      1  C   UNL     1      95.944  93.922  77.650  1.00  0.00     0.100 C 
ENDROOT
BRANCH   1   2
ATOM      2  C   UNL     1      95.075  93.972  76.458  1.00  0.00     0.220 C 
ATOM      3  N   UNL     1      93.772  94.354  76.568  1.00  0.00    -0.352 N 
ATOM      4  H   UNL     1      93.467  94.566  77.508  1.00  0.00     0.163 HD
ATOM      5  O   UNL     1      95.578  93.677  75.347  1.00  0.00    -0.275 OA
BRANCH   3   6
ATOM      6  C   UNL     1      92.860  94.466  75.475  1.00  0.00     0.151 C 
BRANCH   6   7
ATOM      7  C   UNL     1      91.704  93.542  75.631  1.00  0.00    -0.025 A 
ATOM      8  C   UNL     1      89.987  92.091  74.626  1.00  0.00     0.160 A 
ATOM      9  C   UNL     1      89.509  91.765  75.912  1.00  0.00     0.157 A 
ATOM     10  C   UNL     1      91.077  92.977  74.498  1.00  0.00     0.056 A 
ATOM     11  C   UNL     1      90.111  92.336  77.051  1.00  0.00     0.050 A 
ATOM     12  C   UNL     1      91.206  93.211  76.913  1.00  0.00     0.009 A 
BRANCH   8  13
ATOM     13  O   UNL     1      89.363  91.589  73.513  1.00  0.00    -0.493 OA
ATOM     14  C   UNL     1      90.071  90.508  72.880  1.00  0.00     0.278 C 
ENDBRANCH   8  13
BRANCH   9  15
ATOM     15  O   UNL     1      88.470  90.904  76.072  1.00  0.00    -0.504 OA
ATOM     16  H   UNL     1      87.757  91.150  75.478  1.00  0.00     0.293 HD
ENDBRANCH   9  15
ENDBRANCH   6   7
ENDBRANCH   3   6
ENDBRANCH   1   2
BRANCH   1  17
ATOM     17  C   UNL     1      95.390  94.806  78.800  1.00  0.00     0.010 C 
BRANCH  17  18
ATOM     18  C   UNL     1      95.657  94.204  80.208  1.00  0.00     0.005 C 
BRANCH  18  19
ATOM     19  C   UNL     1      95.526  95.262  81.337  1.00  0.00     0.027 C 
BRANCH  19  20
ATOM     20  C   UNL     1      95.992  96.574  80.914  1.00  0.00    -0.031 C 
ATOM     21  C   UNL     1      96.279  97.582  81.758  1.00  0.00    -0.028 C 
BRANCH  21  22
ATOM     22  C   UNL     1      96.766  98.887  81.312  1.00  0.00     0.005 C 
ATOM     23  C   UNL     1      97.101  98.904  79.794  1.00  0.00     0.012 C 
ATOM     24  C   UNL     1      95.735  99.992  81.662  1.00  0.00     0.012 C 
ENDBRANCH  21  22
ENDBRANCH  19  20
ENDBRANCH  18  19
ENDBRANCH  17  18
ENDBRANCH   1  17
TORSDOF 10
ENDMDL
MODEL 5
REMARK VINA RESULT:    -6.204      3.202      7.899
REMARK INTER + INTRA:         -10.529
REMARK INTER:                  -9.745
REMARK INTRA:                  -0.785
REMARK UNBOUND:                -0.880
REMARK SMILES COc1cc(CNC(=O)CCCC/C=C/C(C)C)ccc1O
REMARK SMILES IDX 10 1 8 2 7 3 9 5 6 6 5 7 3 8 21 9 4 10 20 11 19 12 2 13 1 14
REMARK SMILES IDX 22 15 11 17 12 18 13 19 14 20 15 21 16 22 17 23 18 24
REMARK H PARENT 7 4 22 16
REMARK Flexibility Score: inf
ROOT
ATOM      1  C   UNL     1      94.410  94.432  76.920  1.00  0.00     0.100 C 
ENDROOT
BRANCH   1   2
ATOM      2  C   UNL     1      93.170  93.920  76.305  1.00  0.00     0.220 C 
ATOM      3  N   UNL     1      91.962  94.148  76.892  1.00  0.00    -0.352 N 
ATOM      4  H   UNL     1      92.000  94.659  77.763  1.00  0.00     0.163 HD
ATOM      5  O   UNL     1      93.262  93.293  75.222  1.00  0.00    -0.275 OA
BRANCH   3   6
ATOM      6  C   UNL     1      90.705  93.724  76.363  1.00  0.00     0.151 C 
BRANCH   6   7
ATOM      7  C   UNL     1      90.427  92.299  76.691  1.00  0.00    -0.025 A 
ATOM      8  C   UNL     1      89.950  89.999  75.954  1.00  0.00     0.160 A 
ATOM      9  C   UNL     1      89.914  89.574  77.298  1.00  0.00     0.157 A 
ATOM     10  C   UNL     1      90.204  91.355  75.663  1.00  0.00     0.056 A 
ATOM     11  C   UNL     1      90.115  90.508  78.334  1.00  0.00     0.050 A 
ATOM     12  C   UNL     1      90.379  91.858  78.034  1.00  0.00     0.009 A 
BRANCH   8  13
ATOM     13  O   UNL     1      89.690  89.107  74.944  1.00  0.00    -0.493 OA
ATOM     14  C   UNL     1      88.727  89.575  73.982  1.00  0.00     0.278 C 
ENDBRANCH   8  13
BRANCH   9  15
ATOM     15  O   UNL     1      89.686  88.273  77.612  1.00  0.00    -0.504 OA
ATOM     16  H   UNL     1      89.014  87.915  77.027  1.00  0.00     0.293 HD
ENDBRANCH   9  15
ENDBRANCH   6   7
ENDBRANCH   3   6
ENDBRANCH   1   2
BRANCH   1  17
ATOM     17  C   UNL     1      95.673  93.829  76.249  1.00  0.00     0.010 C 
BRANCH  17  18
ATOM     18  C   UNL     1      96.314  94.781  75.201  1.00  0.00     0.005 C 
BRANCH  18  19
ATOM     19  C   UNL     1      95.791  96.238  75.327  1.00  0.00     0.027 C 
BRANCH  19  20
ATOM     20  C   UNL     1      95.188  96.712  74.091  1.00  0.00    -0.031 C 
ATOM     21  C   UNL     1      94.359  97.768  74.010  1.00  0.00    -0.028 C 
BRANCH  21  22
ATOM     22  C   UNL     1      93.780  98.240  72.752  1.00  0.00     0.005 C 
ATOM     23  C   UNL     1      93.213  99.682  72.869  1.00  0.00     0.012 C 
ATOM     24  C   UNL     1      94.828  98.148  71.613  1.00  0.00     0.012 C 
ENDBRANCH  21  22
ENDBRANCH  19  20
ENDBRANCH  18  19
ENDBRANCH  17  18
ENDBRANCH   1  17
TORSDOF 10
ENDMDL
MODEL 6
REMARK VINA RESULT:    -6.075     13.952     16.661
REMARK INTER + INTRA:         -10.329
REMARK INTER:                  -9.535
REMARK INTRA:                  -0.794
REMARK UNBOUND:                -0.880
REMARK SMILES COc1cc(CNC(=O)CCCC/C=C/C(C)C)ccc1O
REMARK SMILES IDX 10 1 8 2 7 3 9 5 6 6 5 7 3 8 21 9 4 10 20 11 19 12 2 13 1 14
REMARK SMILES IDX 22 15 11 17 12 18 13 19 14 20 15 21 16 22 17 23 18 24
REMARK H PARENT 7 4 22 16
REMARK Flexibility Score: inf
ROOT
ATOM      1  C   UNL     1      83.020  91.685  88.898  1.00  0.00     0.100 C 
ENDROOT
BRANCH   1   2
ATOM      2  C   UNL     1      83.440  90.872  87.740  1.00  0.00     0.220 C 
ATOM      3  N   UNL     1      82.877  91.070  86.515  1.00  0.00    -0.352 N 
ATOM      4  H   UNL     1      82.159  91.781  86.486  1.00  0.00     0.163 HD
ATOM      5  O   UNL     1      84.340  90.015  87.914  1.00  0.00    -0.275 OA
BRANCH   3   6
ATOM      6  C   UNL     1      83.235  90.360  85.329  1.00  0.00     0.151 C 
BRANCH   6   7
ATOM      7  C   UNL     1      82.265  89.272  85.030  1.00  0.00    -0.025 A 
ATOM      8  C   UNL     1      81.671  86.883  85.058  1.00  0.00     0.160 A 
ATOM      9  C   UNL     1      80.419  87.186  84.484  1.00  0.00     0.157 A 
ATOM     10  C   UNL     1      82.582  87.926  85.323  1.00  0.00     0.056 A 
ATOM     11  C   UNL     1      80.096  88.521  84.169  1.00  0.00     0.050 A 
ATOM     12  C   UNL     1      81.008  89.558  84.448  1.00  0.00     0.009 A 
BRANCH   8  13
ATOM     13  O   UNL     1      82.015  85.578  85.306  1.00  0.00    -0.493 OA
ATOM     14  C   UNL     1      82.504  85.344  86.640  1.00  0.00     0.278 C 
ENDBRANCH   8  13
BRANCH   9  15
ATOM     15  O   UNL     1      79.514  86.207  84.229  1.00  0.00    -0.504 OA
ATOM     16  H   UNL     1      78.759  86.307  84.813  1.00  0.00     0.293 HD
ENDBRANCH   9  15
ENDBRANCH   6   7
ENDBRANCH   3   6
ENDBRANCH   1   2
BRANCH   1  17
ATOM     17  C   UNL     1      82.417  93.045  88.453  1.00  0.00     0.010 C 
BRANCH  17  18
ATOM     18  C   UNL     1      83.369  94.245  88.721  1.00  0.00     0.005 C 
BRANCH  18  19
ATOM     19  C   UNL     1      83.731  95.013  87.422  1.00  0.00     0.027 C 
BRANCH  19  20
ATOM     20  C   UNL     1      82.776  96.071  87.127  1.00  0.00    -0.031 C 
ATOM     21  C   UNL     1      81.895  96.564  88.017  1.00  0.00    -0.028 C 
BRANCH  21  22
ATOM     22  C   UNL     1      80.957  97.641  87.704  1.00  0.00     0.005 C 
ATOM     23  C   UNL     1      81.503  99.036  88.117  1.00  0.00     0.012 C 
ATOM     24  C   UNL     1      80.592  97.614  86.197  1.00  0.00     0.012 C 
ENDBRANCH  21  22
ENDBRANCH  19  20
ENDBRANCH  18  19
ENDBRANCH  17  18
ENDBRANCH   1  17
TORSDOF 10
ENDMDL
MODEL 7
REMARK VINA RESULT:    -5.868     13.675     16.754
REMARK INTER + INTRA:         -10.008
REMARK INTER:                  -8.074
REMARK INTRA:                  -1.934
REMARK UNBOUND:                -0.880
REMARK SMILES COc1cc(CNC(=O)CCCC/C=C/C(C)C)ccc1O
REMARK SMILES IDX 10 1 8 2 7 3 9 5 6 6 5 7 3 8 21 9 4 10 20 11 19 12 2 13 1 14
REMARK SMILES IDX 22 15 11 17 12 18 13 19 14 20 15 21 16 22 17 23 18 24
REMARK H PARENT 7 4 22 16
REMARK Flexibility Score: inf
ROOT
ATOM      1  C   UNL     1      83.163  90.155  90.597  1.00  0.00     0.100 C 
ENDROOT
BRANCH   1   2
ATOM      2  C   UNL     1      82.159  89.215  90.060  1.00  0.00     0.220 C 
ATOM      3  N   UNL     1      81.141  89.665  89.275  1.00  0.00    -0.352 N 
ATOM      4  H   UNL     1      81.128  90.665  89.125  1.00  0.00     0.163 HD
ATOM      5  O   UNL     1      82.287  87.996  90.327  1.00  0.00    -0.275 OA
BRANCH   3   6
ATOM      6  C   UNL     1      80.141  88.837  88.682  1.00  0.00     0.151 C 
BRANCH   6   7
ATOM      7  C   UNL     1      80.465  88.519  87.264  1.00  0.00    -0.025 A 
ATOM      8  C   UNL     1      81.368  86.961  85.585  1.00  0.00     0.160 A 
ATOM      9  C   UNL     1      81.071  87.888  84.564  1.00  0.00     0.157 A 
ATOM     10  C   UNL     1      81.064  87.285  86.924  1.00  0.00     0.056 A 
ATOM     11  C   UNL     1      80.491  89.130  84.891  1.00  0.00     0.050 A 
ATOM     12  C   UNL     1      80.181  89.440  86.229  1.00  0.00     0.009 A 
BRANCH   8  13
ATOM     13  O   UNL     1      81.992  85.778  85.280  1.00  0.00    -0.493 OA
ATOM     14  C   UNL     1      82.780  85.236  86.355  1.00  0.00     0.278 C 
ENDBRANCH   8  13
BRANCH   9  15
ATOM     15  O   UNL     1      81.338  87.601  83.264  1.00  0.00    -0.504 OA
ATOM     16  H   UNL     1      81.457  86.654  83.162  1.00  0.00     0.293 HD
ENDBRANCH   9  15
ENDBRANCH   6   7
ENDBRANCH   3   6
ENDBRANCH   1   2
BRANCH   1  17
ATOM     17  C   UNL     1      82.632  91.613  90.609  1.00  0.00     0.010 C 
BRANCH  17  18
ATOM     18  C   UNL     1      83.411  92.549  89.643  1.00  0.00     0.005 C 
BRANCH  18  19
ATOM     19  C   UNL     1      82.713  92.688  88.263  1.00  0.00     0.027 C 
BRANCH  19  20
ATOM     20  C   UNL     1      83.468  92.042  87.200  1.00  0.00    -0.031 C 
ATOM     21  C   UNL     1      83.412  90.726  86.924  1.00  0.00    -0.028 C 
BRANCH  21  22
ATOM     22  C   UNL     1      84.165  90.102  85.837  1.00  0.00     0.005 C 
ATOM     23  C   UNL     1      83.831  90.725  84.454  1.00  0.00     0.012 C 
ATOM     24  C   UNL     1      85.687  90.181  86.126  1.00  0.00     0.012 C 
ENDBRANCH  21  22
ENDBRANCH  19  20
ENDBRANCH  18  19
ENDBRANCH  17  18
ENDBRANCH   1  17
TORSDOF 10
ENDMDL
MODEL 8
REMARK VINA RESULT:    -5.827     27.648     30.534
REMARK INTER + INTRA:          -9.944
REMARK INTER:                  -9.361
REMARK INTRA:                  -0.583
REMARK UNBOUND:                -0.880
REMARK SMILES COc1cc(CNC(=O)CCCC/C=C/C(C)C)ccc1O
REMARK SMILES IDX 10 1 8 2 7 3 9 5 6 6 5 7 3 8 21 9 4 10 20 11 19 12 2 13 1 14
REMARK SMILES IDX 22 15 11 17 12 18 13 19 14 20 15 21 16 22 17 23 18 24
REMARK H PARENT 7 4 22 16
REMARK Flexibility Score: inf
ROOT
ATOM      1  C   UNL     1      84.662  63.450  76.505  1.00  0.00     0.100 C 
ENDROOT
BRANCH   1   2
ATOM      2  C   UNL     1      83.863  64.646  76.179  1.00  0.00     0.220 C 
ATOM      3  N   UNL     1      82.566  64.744  76.586  1.00  0.00    -0.352 N 
ATOM      4  H   UNL     1      82.216  63.940  77.089  1.00  0.00     0.163 HD
ATOM      5  O   UNL     1      84.418  65.573  75.540  1.00  0.00    -0.275 OA
BRANCH   3   6
ATOM      6  C   UNL     1      81.720  65.869  76.350  1.00  0.00     0.151 C 
BRANCH   6   7
ATOM      7  C   UNL     1      81.235  65.903  74.943  1.00  0.00    -0.025 A 
ATOM      8  C   UNL     1      81.039  67.075  72.787  1.00  0.00     0.160 A 
ATOM      9  C   UNL     1      80.335  65.976  72.252  1.00  0.00     0.157 A 
ATOM     10  C   UNL     1      81.480  67.030  74.126  1.00  0.00     0.056 A 
ATOM     11  C   UNL     1      80.067  64.854  73.061  1.00  0.00     0.050 A 
ATOM     12  C   UNL     1      80.521  64.813  74.393  1.00  0.00     0.009 A 
BRANCH   8  13
ATOM     13  O   UNL     1      81.245  68.197  72.024  1.00  0.00    -0.493 OA
ATOM     14  C   UNL     1      82.557  68.275  71.438  1.00  0.00     0.278 C 
ENDBRANCH   8  13
BRANCH   9  15
ATOM     15  O   UNL     1      79.908  65.983  70.963  1.00  0.00    -0.504 OA
ATOM     16  H   UNL     1      78.949  66.014  70.943  1.00  0.00     0.293 HD
ENDBRANCH   9  15
ENDBRANCH   6   7
ENDBRANCH   3   6
ENDBRANCH   1   2
BRANCH   1  17
ATOM     17  C   UNL     1      84.389  62.956  77.951  1.00  0.00     0.010 C 
BRANCH  17  18
ATOM     18  C   UNL     1      85.550  63.284  78.932  1.00  0.00     0.005 C 
BRANCH  18  19
ATOM     19  C   UNL     1      85.072  63.368  80.406  1.00  0.00     0.027 C 
BRANCH  19  20
ATOM     20  C   UNL     1      85.863  64.309  81.185  1.00  0.00    -0.031 C 
ATOM     21  C   UNL     1      85.496  64.793  82.385  1.00  0.00    -0.028 C 
BRANCH  21  22
ATOM     22  C   UNL     1      86.317  65.723  83.160  1.00  0.00     0.005 C 
ATOM     23  C   UNL     1      86.898  66.868  82.284  1.00  0.00     0.012 C 
ATOM     24  C   UNL     1      85.502  66.296  84.349  1.00  0.00     0.012 C 
ENDBRANCH  21  22
ENDBRANCH  19  20
ENDBRANCH  18  19
ENDBRANCH  17  18
ENDBRANCH   1  17
TORSDOF 10
ENDMDL
MODEL 9
REMARK VINA RESULT:    -5.670      2.711      8.910
REMARK INTER + INTRA:          -9.699
REMARK INTER:                  -8.895
REMARK INTRA:                  -0.803
REMARK UNBOUND:                -0.880
REMARK SMILES COc1cc(CNC(=O)CCCC/C=C/C(C)C)ccc1O
REMARK SMILES IDX 10 1 8 2 7 3 9 5 6 6 5 7 3 8 21 9 4 10 20 11 19 12 2 13 1 14
REMARK SMILES IDX 22 15 11 17 12 18 13 19 14 20 15 21 16 22 17 23 18 24
REMARK H PARENT 7 4 22 16
REMARK Flexibility Score: inf
ROOT
ATOM      1  C   UNL     1      95.048  95.555  76.638  1.00  0.00     0.100 C 
ENDROOT
BRANCH   1   2
ATOM      2  C   UNL     1      94.512  94.437  75.837  1.00  0.00     0.220 C 
ATOM      3  N   UNL     1      93.167  94.270  75.698  1.00  0.00    -0.352 N 
ATOM      4  H   UNL     1      92.600  94.942  76.197  1.00  0.00     0.163 HD
ATOM      5  O   UNL     1      95.327  93.668  75.274  1.00  0.00    -0.275 OA
BRANCH   3   6
ATOM      6  C   UNL     1      92.549  93.243  74.921  1.00  0.00     0.151 C 
BRANCH   6   7
ATOM      7  C   UNL     1      91.766  92.309  75.774  1.00  0.00    -0.025 A 
ATOM      8  C   UNL     1      90.630  90.145  76.075  1.00  0.00     0.160 A 
ATOM      9  C   UNL     1      90.288  90.507  77.394  1.00  0.00     0.157 A 
ATOM     10  C   UNL     1      91.362  91.049  75.277  1.00  0.00     0.056 A 
ATOM     11  C   UNL     1      90.666  91.767  77.897  1.00  0.00     0.050 A 
ATOM     12  C   UNL     1      91.408  92.658  77.097  1.00  0.00     0.009 A 
BRANCH   8  13
ATOM     13  O   UNL     1      90.207  88.946  75.559  1.00  0.00    -0.493 OA
ATOM     14  C   UNL     1      90.926  88.527  74.384  1.00  0.00     0.278 C 
ENDBRANCH   8  13
BRANCH   9  15
ATOM     15  O   UNL     1      89.594  89.654  78.192  1.00  0.00    -0.504 OA
ATOM     16  H   UNL     1      89.854  88.751  77.998  1.00  0.00     0.293 HD
ENDBRANCH   9  15
ENDBRANCH   6   7
ENDBRANCH   3   6
ENDBRANCH   1   2
BRANCH   1  17
ATOM     17  C   UNL     1      96.553  95.798  76.346  1.00  0.00     0.010 C 
BRANCH  17  18
ATOM     18  C   UNL     1      97.450  95.626  77.604  1.00  0.00     0.005 C 
BRANCH  18  19
ATOM     19  C   UNL     1      96.680  95.000  78.797  1.00  0.00     0.027 C 
BRANCH  19  20
ATOM     20  C   UNL     1      96.971  95.676  80.052  1.00  0.00    -0.031 C 
ATOM     21  C   UNL     1      96.467  96.874  80.400  1.00  0.00    -0.028 C 
BRANCH  21  22
ATOM     22  C   UNL     1      96.757  97.526  81.677  1.00  0.00     0.005 C 
ATOM     23  C   UNL     1      96.151  98.955  81.760  1.00  0.00     0.012 C 
ATOM     24  C   UNL     1      96.263  96.646  82.854  1.00  0.00     0.012 C 
ENDBRANCH  21  22
ENDBRANCH  19  20
ENDBRANCH  18  19
ENDBRANCH  17  18
ENDBRANCH   1  17
TORSDOF 10
ENDMDL
MODEL 10
REMARK VINA RESULT:    -5.652      3.655      6.068
REMARK INTER + INTRA:          -9.671
REMARK INTER:                  -8.274
REMARK INTRA:                  -1.397
REMARK UNBOUND:                -0.880
REMARK SMILES COc1cc(CNC(=O)CCCC/C=C/C(C)C)ccc1O
REMARK SMILES IDX 10 1 8 2 7 3 9 5 6 6 5 7 3 8 21 9 4 10 20 11 19 12 2 13 1 14
REMARK SMILES IDX 22 15 11 17 12 18 13 19 14 20 15 21 16 22 17 23 18 24
REMARK H PARENT 7 4 22 16
REMARK Flexibility Score: inf
ROOT
ATOM      1  C   UNL     1      96.113  98.804  75.620  1.00  0.00     0.100 C 
ENDROOT
BRANCH   1   2
ATOM      2  C   UNL     1      97.043  98.256  76.626  1.00  0.00     0.220 C 
ATOM      3  N   UNL     1      96.968  96.947  76.996  1.00  0.00    -0.352 N 
ATOM      4  H   UNL     1      96.230  96.420  76.551  1.00  0.00     0.163 HD
ATOM      5  O   UNL     1      97.912  99.022  77.109  1.00  0.00    -0.275 OA
BRANCH   3   6
ATOM      6  C   UNL     1      97.838  96.314  77.935  1.00  0.00     0.151 C 
BRANCH   6   7
ATOM      7  C   UNL     1      97.088  95.791  79.109  1.00  0.00    -0.025 A 
ATOM      8  C   UNL     1      96.716  95.729  81.542  1.00  0.00     0.160 A 
ATOM      9  C   UNL     1      95.655  94.818  81.358  1.00  0.00     0.157 A 
ATOM     10  C   UNL     1      97.423  96.204  80.418  1.00  0.00     0.056 A 
ATOM     11  C   UNL     1      95.322  94.382  80.060  1.00  0.00     0.050 A 
ATOM     12  C   UNL     1      96.026  94.871  78.943  1.00  0.00     0.009 A 
BRANCH   8  13
ATOM     13  O   UNL     1      97.086  96.106  82.808  1.00  0.00    -0.493 OA
ATOM     14  C   UNL     1      98.392  96.707  82.883  1.00  0.00     0.278 C 
ENDBRANCH   8  13
BRANCH   9  15
ATOM     15  O   UNL     1      94.945  94.351  82.417  1.00  0.00    -0.504 OA
ATOM     16  H   UNL     1      94.898  93.393  82.375  1.00  0.00     0.293 HD
ENDBRANCH   9  15
ENDBRANCH   6   7
ENDBRANCH   3   6
ENDBRANCH   1   2
BRANCH   1  17
ATOM     17  C   UNL     1      96.501  98.363  74.182  1.00  0.00     0.010 C 
BRANCH  17  18
ATOM     18  C   UNL     1      95.637  97.182  73.659  1.00  0.00     0.005 C 
BRANCH  18  19
ATOM     19  C   UNL     1      94.189  97.216  74.216  1.00  0.00     0.027 C 
BRANCH  19  20
ATOM     20  C   UNL     1      93.716  95.893  74.595  1.00  0.00    -0.031 C 
ATOM     21  C   UNL     1      94.277  95.137  75.556  1.00  0.00    -0.028 C 
BRANCH  21  22
ATOM     22  C   UNL     1      93.773  93.817  75.935  1.00  0.00     0.005 C 
ATOM     23  C   UNL     1      92.914  93.864  77.229  1.00  0.00     0.012 C 
ATOM     24  C   UNL     1      92.973  93.192  74.762  1.00  0.00     0.012 C 
ENDBRANCH  21  22
ENDBRANCH  19  20
ENDBRANCH  18  19
ENDBRANCH  17  18
ENDBRANCH   1  17
TORSDOF 10
ENDMDL
