MODEL 1
REMARK VINA RESULT:    -6.180      0.000      0.000
REMARK INTER + INTRA:         -12.613
REMARK INTER:                 -10.877
REMARK INTRA:                  -1.735
REMARK UNBOUND:                -1.735
REMARK SMILES C=C(C)[C@]12C[C@@H](C)[C@@]34O[C@](Cc5ccccc5)(O[C@@H]1[C@@H]3C=C(COC(=O)Cc1ccc(O)c(OC)c1)C[C@]1(O)C(=O)C(C)=C[C@@H]41)O2
REMARK SMILES IDX 23 1 22 2 21 3 20 4 9 5 8 6 10 7 6 8 18 9 46 10 19 11 5 12
REMARK SMILES IDX 7 13 4 14 45 15 38 16 44 17 40 18 42 20 41 21 43 22 39 23
REMARK SMILES IDX 11 25 12 26 13 27 17 28 14 29 16 30 15 31 2 32 3 33 1 34
REMARK SMILES IDX 37 35 24 37 25 38 26 39 27 40 28 41 36 42 29 43 33 44 30 45
REMARK SMILES IDX 31 46 34 47 35 48 32 49
REMARK H PARENT 39 24 32 50
REMARK Flexibility Score: 90.00
ROOT
ATOM      1  C   UNL     1      90.765  82.926  88.218  1.00  0.00     0.264 C 
ENDROOT
BRANCH   1   2
ATOM      2  C   UNL     1      91.577  82.241  87.144  1.00  0.00    -0.033 C 
ATOM      3  C   UNL     1      92.766  82.764  86.782  1.00  0.00    -0.015 C 
BRANCH   3   4
ATOM      4  C   UNL     1      93.725  82.316  85.691  1.00  0.00     0.078 C 
ATOM      5  O   UNL     1      95.339  80.764  86.742  1.00  0.00    -0.319 OA
ATOM      6  C   UNL     1      94.280  80.844  85.740  1.00  0.00     0.095 C 
ATOM      7  C   UNL     1      96.266  81.867  86.748  1.00  0.00     0.289 C 
ATOM      8  C   UNL     1      94.883  80.511  84.313  1.00  0.00     0.023 C 
ATOM      9  O   UNL     1      95.593  83.108  86.939  1.00  0.00    -0.320 OA
ATOM     10  O   UNL     1      96.963  81.994  85.511  1.00  0.00    -0.313 OA
ATOM     11  C   UNL     1      94.959  83.251  85.659  1.00  0.00     0.170 C 
ATOM     12  C   UNL     1      95.503  81.777  83.645  1.00  0.00     0.049 C 
ATOM     13  C   UNL     1      95.906  79.364  84.280  1.00  0.00     0.011 C 
ATOM     14  C   UNL     1      96.056  82.752  84.685  1.00  0.00     0.122 C 
BRANCH   6  15
ATOM     15  C   UNL     1      93.188  79.859  86.250  1.00  0.00     0.086 C 
ATOM     16  C   UNL     1      91.764  80.077  85.697  1.00  0.00     0.140 CG0
ATOM     17  C   UNL     1      93.400  78.379  86.095  1.00  0.00    -0.010 C 
ATOM     18  C   UNL     1      91.227  78.664  85.613  1.00  0.00     0.190 C 
ATOM     19  G   UNL     1      90.922  80.970  86.607  1.00  0.00     0.000 G0
ATOM     20  C   UNL     1      92.312  77.676  85.765  1.00  0.00    -0.008 C 
ATOM     21  O   UNL     1      90.063  78.360  85.398  1.00  0.00    -0.291 OA
ATOM     22  C   UNL     1      92.131  76.218  85.612  1.00  0.00     0.048 C 
BRANCH  16  23
ATOM     23  O   UNL     1      91.733  80.531  84.354  1.00  0.00    -0.381 OA
ATOM     24  H   UNL     1      92.035  81.454  84.335  1.00  0.00     0.212 HD
ENDBRANCH  16  23
ENDBRANCH   6  15
BRANCH   7  25
ATOM     25  C   UNL     1      97.262  81.645  87.869  1.00  0.00     0.135 C 
BRANCH  25  26
ATOM     26  C   UNL     1      98.664  81.450  87.349  1.00  0.00    -0.040 A 
ATOM     27  C   UNL     1      99.043  80.220  86.810  1.00  0.00     0.004 A 
ATOM     28  C   UNL     1      99.582  82.498  87.406  1.00  0.00     0.004 A 
ATOM     29  C   UNL     1     100.340  80.039  86.329  1.00  0.00     0.000 A 
ATOM     30  C   UNL     1     100.879  82.317  86.925  1.00  0.00     0.000 A 
ATOM     31  C   UNL     1     101.257  81.087  86.387  1.00  0.00     0.000 A 
ENDBRANCH  25  26
ENDBRANCH   7  25
BRANCH  14  32
ATOM     32  C   UNL     1      96.814  83.882  84.068  1.00  0.00    -0.046 C 
ATOM     33  C   UNL     1      98.129  83.531  83.438  1.00  0.00     0.042 C 
ATOM     34  C   UNL     1      96.345  85.139  84.076  1.00  0.00     0.010 C 
ENDBRANCH  14  32
ENDBRANCH   3   4
BRANCH   2  35
ATOM     35  C   UNL     1      90.910  80.992  86.600  1.00  0.00     0.078 CG0
ATOM     36  G   UNL     1      91.747  80.091  85.694  1.00  0.00     0.000 G0
ENDBRANCH   2  35
ENDBRANCH   1   2
BRANCH   1  37
ATOM     37  O   UNL     1      91.612  83.752  88.989  1.00  0.00    -0.461 OA
BRANCH  37  38
ATOM     38  C   UNL     1      91.293  85.089  89.020  1.00  0.00     0.310 C 
ATOM     39  O   UNL     1      90.313  85.591  88.488  1.00  0.00    -0.252 OA
BRANCH  38  40
ATOM     40  C   UNL     1      92.339  85.839  89.812  1.00  0.00     0.158 C 
BRANCH  40  41
ATOM     41  C   UNL     1      93.312  86.589  88.938  1.00  0.00    -0.033 A 
ATOM     42  C   UNL     1      93.413  87.977  89.040  1.00  0.00     0.054 A 
ATOM     43  C   UNL     1      94.111  85.896  88.029  1.00  0.00     0.008 A 
ATOM     44  C   UNL     1      94.313  88.672  88.231  1.00  0.00     0.160 A 
ATOM     45  C   UNL     1      95.011  86.591  87.220  1.00  0.00     0.050 A 
ATOM     46  C   UNL     1      95.112  87.978  87.321  1.00  0.00     0.157 A 
BRANCH  44  47
ATOM     47  O   UNL     1      94.402  90.026  88.339  1.00  0.00    -0.493 OA
ATOM     48  C   UNL     1      95.217  90.541  89.390  1.00  0.00     0.278 C 
ENDBRANCH  44  47
BRANCH  46  49
ATOM     49  O   UNL     1      95.994  88.645  86.527  1.00  0.00    -0.504 OA
ATOM     50  H   UNL     1      95.501  89.151  85.860  1.00  0.00     0.293 HD
ENDBRANCH  46  49
ENDBRANCH  40  41
ENDBRANCH  38  40
ENDBRANCH  37  38
ENDBRANCH   1  37
TORSDOF 11
ENDMDL
MODEL 2
REMARK VINA RESULT:    -6.077      3.110      6.191
REMARK INTER + INTRA:         -12.431
REMARK INTER:                 -11.848
REMARK INTRA:                  -0.583
REMARK UNBOUND:                -1.735
REMARK SMILES C=C(C)[C@]12C[C@@H](C)[C@@]34O[C@](Cc5ccccc5)(O[C@@H]1[C@@H]3C=C(COC(=O)Cc1ccc(O)c(OC)c1)C[C@]1(O)C(=O)C(C)=C[C@@H]41)O2
REMARK SMILES IDX 23 1 22 2 21 3 20 4 9 5 8 6 10 7 6 8 18 9 46 10 19 11 5 12
REMARK SMILES IDX 7 13 4 14 45 15 38 16 44 17 40 18 42 20 41 21 43 22 39 23
REMARK SMILES IDX 11 25 12 26 13 27 17 28 14 29 16 30 15 31 2 32 3 33 1 34
REMARK SMILES IDX 37 35 24 37 25 38 26 39 27 40 28 41 36 42 29 43 33 44 30 45
REMARK SMILES IDX 31 46 34 47 35 48 32 49
REMARK H PARENT 39 24 32 50
REMARK Flexibility Score: 90.00
ROOT
ATOM      1  C   UNL     1      94.706  82.257  86.648  1.00  0.00     0.264 C 
ENDROOT
BRANCH   1   2
ATOM      2  C   UNL     1      96.038  81.635  86.299  1.00  0.00    -0.033 C 
ATOM      3  C   UNL     1      96.241  81.168  85.051  1.00  0.00    -0.015 C 
BRANCH   3   4
ATOM      4  C   UNL     1      97.445  80.439  84.477  1.00  0.00     0.078 C 
ATOM      5  O   UNL     1      98.935  82.161  83.511  1.00  0.00    -0.319 OA
ATOM      6  C   UNL     1      98.852  81.142  84.554  1.00  0.00     0.095 C 
ATOM      7  C   UNL     1      98.412  81.773  82.227  1.00  0.00     0.289 C 
ATOM      8  C   UNL     1      99.956  80.035  84.294  1.00  0.00     0.023 C 
ATOM      9  O   UNL     1      97.047  81.376  82.323  1.00  0.00    -0.320 OA
ATOM     10  O   UNL     1      99.101  80.653  81.678  1.00  0.00    -0.313 OA
ATOM     11  C   UNL     1      97.198  80.110  82.984  1.00  0.00     0.170 C 
ATOM     12  C   UNL     1      99.450  78.946  83.299  1.00  0.00     0.049 C 
ATOM     13  C   UNL     1     101.321  80.562  83.825  1.00  0.00     0.011 C 
ATOM     14  C   UNL     1      98.452  79.520  82.292  1.00  0.00     0.122 C 
BRANCH   6  15
ATOM     15  C   UNL     1      99.000  81.935  85.885  1.00  0.00     0.086 C 
ATOM     16  C   UNL     1      98.475  81.235  87.156  1.00  0.00     0.140 CG0
ATOM     17  C   UNL     1     100.356  82.435  86.297  1.00  0.00    -0.010 C 
ATOM     18  C   UNL     1      99.443  81.715  88.216  1.00  0.00     0.190 C 
ATOM     19  G   UNL     1      97.028  81.617  87.468  1.00  0.00     0.000 G0
ATOM     20  C   UNL     1     100.625  82.351  87.604  1.00  0.00    -0.008 C 
ATOM     21  O   UNL     1      99.308  81.560  89.420  1.00  0.00    -0.291 OA
ATOM     22  C   UNL     1     101.803  82.814  88.365  1.00  0.00     0.048 C 
BRANCH  16  23
ATOM     23  O   UNL     1      98.649  79.828  87.150  1.00  0.00    -0.381 OA
ATOM     24  H   UNL     1      99.526  79.629  86.782  1.00  0.00     0.212 HD
ENDBRANCH  16  23
ENDBRANCH   6  15
BRANCH   7  25
ATOM     25  C   UNL     1      98.537  82.955  81.286  1.00  0.00     0.135 C 
BRANCH  25  26
ATOM     26  C   UNL     1      98.098  82.609  79.884  1.00  0.00    -0.040 A 
ATOM     27  C   UNL     1      96.743  82.444  79.599  1.00  0.00     0.004 A 
ATOM     28  C   UNL     1      99.047  82.458  78.874  1.00  0.00     0.004 A 
ATOM     29  C   UNL     1      96.337  82.125  78.302  1.00  0.00     0.000 A 
ATOM     30  C   UNL     1      98.641  82.139  77.577  1.00  0.00     0.000 A 
ATOM     31  C   UNL     1      97.286  81.972  77.293  1.00  0.00     0.000 A 
ENDBRANCH  25  26
ENDBRANCH   7  25
BRANCH  14  32
ATOM     32  C   UNL     1      98.094  78.544  81.219  1.00  0.00    -0.046 C 
ATOM     33  C   UNL     1      98.233  79.032  79.807  1.00  0.00     0.042 C 
ATOM     34  C   UNL     1      97.672  77.303  81.501  1.00  0.00     0.010 C 
ENDBRANCH  14  32
ENDBRANCH   3   4
BRANCH   2  35
ATOM     35  C   UNL     1      97.014  81.629  87.460  1.00  0.00     0.078 CG0
ATOM     36  G   UNL     1      98.458  81.232  87.157  1.00  0.00     0.000 G0
ENDBRANCH   2  35
ENDBRANCH   1   2
BRANCH   1  37
ATOM     37  O   UNL     1      94.667  82.531  88.032  1.00  0.00    -0.461 OA
BRANCH  37  38
ATOM     38  C   UNL     1      94.975  83.818  88.407  1.00  0.00     0.310 C 
ATOM     39  O   UNL     1      95.977  84.149  89.025  1.00  0.00    -0.252 OA
BRANCH  38  40
ATOM     40  C   UNL     1      93.886  84.754  87.938  1.00  0.00     0.158 C 
BRANCH  40  41
ATOM     41  C   UNL     1      94.331  86.193  87.886  1.00  0.00    -0.033 A 
ATOM     42  C   UNL     1      93.935  87.081  88.887  1.00  0.00     0.054 A 
ATOM     43  C   UNL     1      95.137  86.637  86.838  1.00  0.00     0.008 A 
ATOM     44  C   UNL     1      94.346  88.414  88.839  1.00  0.00     0.160 A 
ATOM     45  C   UNL     1      95.548  87.969  86.790  1.00  0.00     0.050 A 
ATOM     46  C   UNL     1      95.153  88.858  87.790  1.00  0.00     0.157 A 
BRANCH  44  47
ATOM     47  O   UNL     1      93.954  89.272  89.821  1.00  0.00    -0.493 OA
ATOM     48  C   UNL     1      92.562  89.575  89.899  1.00  0.00     0.278 C 
ENDBRANCH  44  47
BRANCH  46  49
ATOM     49  O   UNL     1      95.562  90.155  87.733  1.00  0.00    -0.504 OA
ATOM     50  H   UNL     1      94.781  90.734  87.756  1.00  0.00     0.293 HD
ENDBRANCH  46  49
ENDBRANCH  40  41
ENDBRANCH  38  40
ENDBRANCH  37  38
ENDBRANCH   1  37
TORSDOF 11
ENDMDL
MODEL 3
REMARK VINA RESULT:    -6.052      3.605      8.627
REMARK INTER + INTRA:         -12.387
REMARK INTER:                 -11.688
REMARK INTRA:                  -0.699
REMARK UNBOUND:                -1.735
REMARK SMILES C=C(C)[C@]12C[C@@H](C)[C@@]34O[C@](Cc5ccccc5)(O[C@@H]1[C@@H]3C=C(COC(=O)Cc1ccc(O)c(OC)c1)C[C@]1(O)C(=O)C(C)=C[C@@H]41)O2
REMARK SMILES IDX 23 1 22 2 21 3 20 4 9 5 8 6 10 7 6 8 18 9 46 10 19 11 5 12
REMARK SMILES IDX 7 13 4 14 45 15 38 16 44 17 40 18 42 20 41 21 43 22 39 23
REMARK SMILES IDX 11 25 12 26 13 27 17 28 14 29 16 30 15 31 2 32 3 33 1 34
REMARK SMILES IDX 37 35 24 37 25 38 26 39 27 40 28 41 36 42 29 43 33 44 30 45
REMARK SMILES IDX 31 46 34 47 35 48 32 49
REMARK H PARENT 39 24 32 50
REMARK Flexibility Score: 90.00
ROOT
ATOM      1  C   UNL     1      96.231  80.747  84.017  1.00  0.00     0.264 C 
ENDROOT
BRANCH   1   2
ATOM      2  C   UNL     1      95.038  81.401  84.674  1.00  0.00    -0.033 C 
ATOM      3  C   UNL     1      93.859  80.747  84.700  1.00  0.00    -0.015 C 
BRANCH   3   4
ATOM      4  C   UNL     1      92.510  81.212  85.223  1.00  0.00     0.078 C 
ATOM      5  O   UNL     1      92.355  80.469  87.578  1.00  0.00    -0.319 OA
ATOM      6  C   UNL     1      92.404  81.658  86.729  1.00  0.00     0.095 C 
ATOM      7  C   UNL     1      91.513  79.403  87.098  1.00  0.00     0.289 C 
ATOM      8  C   UNL     1      91.055  82.474  86.894  1.00  0.00     0.023 C 
ATOM      9  O   UNL     1      91.908  78.979  85.796  1.00  0.00    -0.320 OA
ATOM     10  O   UNL     1      90.151  79.803  86.976  1.00  0.00    -0.313 OA
ATOM     11  C   UNL     1      91.454  80.098  85.018  1.00  0.00     0.170 C 
ATOM     12  C   UNL     1      89.942  81.936  85.944  1.00  0.00     0.049 C 
ATOM     13  C   UNL     1      90.507  82.559  88.328  1.00  0.00     0.011 C 
ATOM     14  C   UNL     1      90.096  80.437  85.682  1.00  0.00     0.122 C 
BRANCH   6  15
ATOM     15  C   UNL     1      93.695  82.402  87.177  1.00  0.00     0.086 C 
ATOM     16  C   UNL     1      94.274  83.422  86.175  1.00  0.00     0.140 CG0
ATOM     17  C   UNL     1      93.699  83.151  88.480  1.00  0.00    -0.010 C 
ATOM     18  C   UNL     1      94.841  84.489  87.087  1.00  0.00     0.190 C 
ATOM     19  G   UNL     1      95.335  82.802  85.268  1.00  0.00     0.000 G0
ATOM     20  C   UNL     1      94.359  84.314  88.470  1.00  0.00    -0.008 C 
ATOM     21  O   UNL     1      95.562  85.411  86.736  1.00  0.00    -0.291 OA
ATOM     22  C   UNL     1      94.636  85.260  89.570  1.00  0.00     0.048 C 
BRANCH  16  23
ATOM     23  O   UNL     1      93.288  84.110  85.422  1.00  0.00    -0.381 OA
ATOM     24  H   UNL     1      93.732  84.609  84.718  1.00  0.00     0.212 HD
ENDBRANCH  16  23
ENDBRANCH   6  15
BRANCH   7  25
ATOM     25  C   UNL     1      91.616  78.243  88.067  1.00  0.00     0.135 C 
BRANCH  25  26
ATOM     26  C   UNL     1      91.044  78.585  89.421  1.00  0.00    -0.040 A 
ATOM     27  C   UNL     1      91.851  79.186  90.387  1.00  0.00     0.004 A 
ATOM     28  C   UNL     1      89.708  78.302  89.705  1.00  0.00     0.004 A 
ATOM     29  C   UNL     1      91.322  79.502  91.639  1.00  0.00     0.000 A 
ATOM     30  C   UNL     1      89.179  78.619  90.957  1.00  0.00     0.000 A 
ATOM     31  C   UNL     1      89.987  79.219  91.923  1.00  0.00     0.000 A 
ENDBRANCH  25  26
ENDBRANCH   7  25
BRANCH  14  32
ATOM     32  C   UNL     1      88.942  79.865  84.926  1.00  0.00    -0.046 C 
ATOM     33  C   UNL     1      89.174  78.536  84.271  1.00  0.00     0.042 C 
ATOM     34  C   UNL     1      87.766  80.503  84.836  1.00  0.00     0.010 C 
ENDBRANCH  14  32
ENDBRANCH   3   4
BRANCH   2  35
ATOM     35  C   UNL     1      95.351  82.770  85.248  1.00  0.00     0.078 CG0
ATOM     36  G   UNL     1      94.302  83.401  86.162  1.00  0.00     0.000 G0
ENDBRANCH   2  35
ENDBRANCH   1   2
BRANCH   1  37
ATOM     37  O   UNL     1      97.310  81.656  83.997  1.00  0.00    -0.461 OA
BRANCH  37  38
ATOM     38  C   UNL     1      97.794  81.999  82.756  1.00  0.00     0.310 C 
ATOM     39  O   UNL     1      98.645  82.852  82.545  1.00  0.00    -0.252 OA
BRANCH  38  40
ATOM     40  C   UNL     1      97.112  81.161  81.700  1.00  0.00     0.158 C 
BRANCH  40  41
ATOM     41  C   UNL     1      97.409  81.627  80.298  1.00  0.00    -0.033 A 
ATOM     42  C   UNL     1      98.598  81.247  79.673  1.00  0.00     0.054 A 
ATOM     43  C   UNL     1      96.496  82.438  79.624  1.00  0.00     0.008 A 
ATOM     44  C   UNL     1      98.872  81.678  78.375  1.00  0.00     0.160 A 
ATOM     45  C   UNL     1      96.770  82.869  78.326  1.00  0.00     0.050 A 
ATOM     46  C   UNL     1      97.958  82.490  77.702  1.00  0.00     0.157 A 
BRANCH  44  47
ATOM     47  O   UNL     1     100.036  81.301  77.776  1.00  0.00    -0.493 OA
ATOM     48  C   UNL     1     101.178  81.146  78.618  1.00  0.00     0.278 C 
ENDBRANCH  44  47
BRANCH  46  49
ATOM     49  O   UNL     1      98.215  82.916  76.434  1.00  0.00    -0.504 OA
ATOM     50  H   UNL     1      97.386  82.917  75.927  1.00  0.00     0.293 HD
ENDBRANCH  46  49
ENDBRANCH  40  41
ENDBRANCH  38  40
ENDBRANCH  37  38
ENDBRANCH   1  37
TORSDOF 11
ENDMDL
MODEL 4
REMARK VINA RESULT:    -5.866      1.342      2.176
REMARK INTER + INTRA:         -12.059
REMARK INTER:                 -10.075
REMARK INTRA:                  -1.984
REMARK UNBOUND:                -1.735
REMARK SMILES C=C(C)[C@]12C[C@@H](C)[C@@]34O[C@](Cc5ccccc5)(O[C@@H]1[C@@H]3C=C(COC(=O)Cc1ccc(O)c(OC)c1)C[C@]1(O)C(=O)C(C)=C[C@@H]41)O2
REMARK SMILES IDX 23 1 22 2 21 3 20 4 9 5 8 6 10 7 6 8 18 9 46 10 19 11 5 12
REMARK SMILES IDX 7 13 4 14 45 15 38 16 44 17 40 18 42 20 41 21 43 22 39 23
REMARK SMILES IDX 11 25 12 26 13 27 17 28 14 29 16 30 15 31 2 32 3 33 1 34
REMARK SMILES IDX 37 35 24 37 25 38 26 39 27 40 28 41 36 42 29 43 33 44 30 45
REMARK SMILES IDX 31 46 34 47 35 48 32 49
REMARK H PARENT 39 24 32 50
REMARK Flexibility Score: 90.00
ROOT
ATOM      1  C   UNL     1      90.699  83.132  88.363  1.00  0.00     0.264 C 
ENDROOT
BRANCH   1   2
ATOM      2  C   UNL     1      91.513  82.305  87.394  1.00  0.00    -0.033 C 
ATOM      3  C   UNL     1      92.629  82.833  86.852  1.00  0.00    -0.015 C 
BRANCH   3   4
ATOM      4  C   UNL     1      93.565  82.246  85.809  1.00  0.00     0.078 C 
ATOM      5  O   UNL     1      95.372  81.084  87.036  1.00  0.00    -0.319 OA
ATOM      6  C   UNL     1      94.258  80.866  86.116  1.00  0.00     0.095 C 
ATOM      7  C   UNL     1      96.191  82.234  86.750  1.00  0.00     0.289 C 
ATOM      8  C   UNL     1      94.813  80.292  84.748  1.00  0.00     0.023 C 
ATOM      9  O   UNL     1      95.415  83.430  86.733  1.00  0.00    -0.320 OA
ATOM     10  O   UNL     1      96.805  82.156  85.467  1.00  0.00    -0.313 OA
ATOM     11  C   UNL     1      94.703  83.250  85.499  1.00  0.00     0.170 C 
ATOM     12  C   UNL     1      95.274  81.437  83.794  1.00  0.00     0.049 C 
ATOM     13  C   UNL     1      95.935  79.250  84.876  1.00  0.00     0.011 C 
ATOM     14  C   UNL     1      95.788  82.649  84.571  1.00  0.00     0.122 C 
BRANCH   6  15
ATOM     15  C   UNL     1      93.292  79.925  86.893  1.00  0.00     0.086 C 
ATOM     16  C   UNL     1      91.831  79.890  86.397  1.00  0.00     0.140 CG0
ATOM     17  C   UNL     1      93.644  78.472  87.046  1.00  0.00    -0.010 C 
ATOM     18  C   UNL     1      91.435  78.451  86.652  1.00  0.00     0.190 C 
ATOM     19  G   UNL     1      90.944  80.884  87.145  1.00  0.00     0.000 G0
ATOM     20  C   UNL     1      92.618  77.620  86.943  1.00  0.00    -0.008 C 
ATOM     21  O   UNL     1      90.299  78.007  86.580  1.00  0.00    -0.291 OA
ATOM     22  C   UNL     1      92.577  76.154  87.118  1.00  0.00     0.048 C 
BRANCH  16  23
ATOM     23  O   UNL     1      91.699  80.034  84.992  1.00  0.00    -0.381 OA
ATOM     24  H   UNL     1      91.806  79.159  84.583  1.00  0.00     0.212 HD
ENDBRANCH  16  23
ENDBRANCH   6  15
BRANCH   7  25
ATOM     25  C   UNL     1      97.261  82.334  87.819  1.00  0.00     0.135 C 
BRANCH  25  26
ATOM     26  C   UNL     1      96.686  82.204  89.208  1.00  0.00    -0.040 A 
ATOM     27  C   UNL     1      95.816  83.180  89.696  1.00  0.00     0.004 A 
ATOM     28  C   UNL     1      97.023  81.110  90.003  1.00  0.00     0.004 A 
ATOM     29  C   UNL     1      95.284  83.060  90.980  1.00  0.00     0.000 A 
ATOM     30  C   UNL     1      96.491  80.990  91.288  1.00  0.00     0.000 A 
ATOM     31  C   UNL     1      95.622  81.966  91.776  1.00  0.00     0.000 A 
ENDBRANCH  25  26
ENDBRANCH   7  25
BRANCH  14  32
ATOM     32  C   UNL     1      96.403  83.682  83.684  1.00  0.00    -0.046 C 
ATOM     33  C   UNL     1      97.013  83.181  82.409  1.00  0.00     0.042 C 
ATOM     34  C   UNL     1      96.409  84.983  84.009  1.00  0.00     0.010 C 
ENDBRANCH  14  32
ENDBRANCH   3   4
BRANCH   2  35
ATOM     35  C   UNL     1      90.935  80.922  87.162  1.00  0.00     0.078 CG0
ATOM     36  G   UNL     1      91.814  79.912  86.425  1.00  0.00     0.000 G0
ENDBRANCH   2  35
ENDBRANCH   1   2
BRANCH   1  37
ATOM     37  O   UNL     1      91.569  83.809  89.244  1.00  0.00    -0.461 OA
BRANCH  37  38
ATOM     38  C   UNL     1      91.475  85.181  89.257  1.00  0.00     0.310 C 
ATOM     39  O   UNL     1      90.571  85.828  88.746  1.00  0.00    -0.252 OA
BRANCH  38  40
ATOM     40  C   UNL     1      92.658  85.761  89.997  1.00  0.00     0.158 C 
BRANCH  40  41
ATOM     41  C   UNL     1      93.471  86.710  89.154  1.00  0.00    -0.033 A 
ATOM     42  C   UNL     1      93.333  88.088  89.325  1.00  0.00     0.054 A 
ATOM     43  C   UNL     1      94.361  86.211  88.204  1.00  0.00     0.008 A 
ATOM     44  C   UNL     1      94.085  88.966  88.545  1.00  0.00     0.160 A 
ATOM     45  C   UNL     1      95.114  87.089  87.424  1.00  0.00     0.050 A 
ATOM     46  C   UNL     1      94.976  88.466  87.594  1.00  0.00     0.157 A 
BRANCH  44  47
ATOM     47  O   UNL     1      93.942  90.309  88.721  1.00  0.00    -0.493 OA
ATOM     48  C   UNL     1      94.912  90.963  89.537  1.00  0.00     0.278 C 
ENDBRANCH  44  47
BRANCH  46  49
ATOM     49  O   UNL     1      95.717  89.314  86.827  1.00  0.00    -0.504 OA
ATOM     50  H   UNL     1      95.132  89.758  86.191  1.00  0.00     0.293 HD
ENDBRANCH  46  49
ENDBRANCH  40  41
ENDBRANCH  38  40
ENDBRANCH  37  38
ENDBRANCH   1  37
TORSDOF 11
ENDMDL
MODEL 5
REMARK VINA RESULT:    -5.790      3.547      8.781
REMARK INTER + INTRA:         -11.927
REMARK INTER:                 -10.916
REMARK INTRA:                  -1.011
REMARK UNBOUND:                -1.735
REMARK SMILES C=C(C)[C@]12C[C@@H](C)[C@@]34O[C@](Cc5ccccc5)(O[C@@H]1[C@@H]3C=C(COC(=O)Cc1ccc(O)c(OC)c1)C[C@]1(O)C(=O)C(C)=C[C@@H]41)O2
REMARK SMILES IDX 23 1 22 2 21 3 20 4 9 5 8 6 10 7 6 8 18 9 46 10 19 11 5 12
REMARK SMILES IDX 7 13 4 14 45 15 38 16 44 17 40 18 42 20 41 21 43 22 39 23
REMARK SMILES IDX 11 25 12 26 13 27 17 28 14 29 16 30 15 31 2 32 3 33 1 34
REMARK SMILES IDX 37 35 24 37 25 38 26 39 27 40 28 41 36 42 29 43 33 44 30 45
REMARK SMILES IDX 31 46 34 47 35 48 32 49
REMARK H PARENT 39 24 32 50
REMARK Flexibility Score: 90.00
ROOT
ATOM      1  C   UNL     1      97.356  82.237  85.195  1.00  0.00     0.264 C 
ENDROOT
BRANCH   1   2
ATOM      2  C   UNL     1      95.990  82.780  85.545  1.00  0.00    -0.033 C 
ATOM      3  C   UNL     1      94.970  81.920  85.744  1.00  0.00    -0.015 C 
BRANCH   3   4
ATOM      4  C   UNL     1      93.505  82.210  86.026  1.00  0.00     0.078 C 
ATOM      5  O   UNL     1      93.239  82.252  88.485  1.00  0.00    -0.319 OA
ATOM      6  C   UNL     1      93.143  83.081  87.286  1.00  0.00     0.095 C 
ATOM      7  C   UNL     1      92.688  80.927  88.364  1.00  0.00     0.289 C 
ATOM      8  C   UNL     1      91.649  83.579  87.112  1.00  0.00     0.023 C 
ATOM      9  O   UNL     1      93.304  80.206  87.299  1.00  0.00    -0.320 OA
ATOM     10  O   UNL     1      91.296  80.946  88.061  1.00  0.00    -0.313 OA
ATOM     11  C   UNL     1      92.725  80.880  86.171  1.00  0.00     0.170 C 
ATOM     12  C   UNL     1      90.780  82.525  86.358  1.00  0.00     0.049 C 
ATOM     13  C   UNL     1      90.937  83.995  88.409  1.00  0.00     0.011 C 
ATOM     14  C   UNL     1      91.260  81.099  86.627  1.00  0.00     0.122 C 
BRANCH   6  15
ATOM     15  C   UNL     1      94.200  84.203  87.503  1.00  0.00     0.086 C 
ATOM     16  C   UNL     1      94.682  84.938  86.235  1.00  0.00     0.140 CG0
ATOM     17  C   UNL     1      93.902  85.320  88.463  1.00  0.00    -0.010 C 
ATOM     18  C   UNL     1      94.916  86.345  86.743  1.00  0.00     0.190 C 
ATOM     19  G   UNL     1      95.945  84.310  85.649  1.00  0.00     0.000 G0
ATOM     20  C   UNL     1      94.316  86.532  88.078  1.00  0.00    -0.008 C 
ATOM     21  O   UNL     1      95.478  87.237  86.126  1.00  0.00    -0.291 OA
ATOM     22  C   UNL     1      94.269  87.824  88.792  1.00  0.00     0.048 C 
BRANCH  16  23
ATOM     23  O   UNL     1      93.677  85.098  85.248  1.00  0.00    -0.381 OA
ATOM     24  H   UNL     1      93.949  84.613  84.451  1.00  0.00     0.212 HD
ENDBRANCH  16  23
ENDBRANCH   6  15
BRANCH   7  25
ATOM     25  C   UNL     1      92.912  80.197  89.673  1.00  0.00     0.135 C 
BRANCH  25  26
ATOM     26  C   UNL     1      91.680  80.207  90.543  1.00  0.00    -0.040 A 
ATOM     27  C   UNL     1      90.737  79.186  90.428  1.00  0.00     0.004 A 
ATOM     28  C   UNL     1      91.485  81.236  91.464  1.00  0.00     0.004 A 
ATOM     29  C   UNL     1      89.597  79.195  91.233  1.00  0.00     0.000 A 
ATOM     30  C   UNL     1      90.346  81.245  92.270  1.00  0.00     0.000 A 
ATOM     31  C   UNL     1      89.402  80.224  92.153  1.00  0.00     0.000 A 
ENDBRANCH  25  26
ENDBRANCH   7  25
BRANCH  14  32
ATOM     32  C   UNL     1      90.338  80.066  86.066  1.00  0.00    -0.046 C 
ATOM     33  C   UNL     1      89.805  80.332  84.690  1.00  0.00     0.042 C 
ATOM     34  C   UNL     1      90.004  78.964  86.755  1.00  0.00     0.010 C 
ENDBRANCH  14  32
ENDBRANCH   3   4
BRANCH   2  35
ATOM     35  C   UNL     1      95.956  84.294  85.635  1.00  0.00     0.078 CG0
ATOM     36  G   UNL     1      94.702  84.930  86.232  1.00  0.00     0.000 G0
ENDBRANCH   2  35
ENDBRANCH   1   2
BRANCH   1  37
ATOM     37  O   UNL     1      97.774  82.784  83.963  1.00  0.00    -0.461 OA
BRANCH  37  38
ATOM     38  C   UNL     1      98.339  81.905  83.068  1.00  0.00     0.310 C 
ATOM     39  O   UNL     1      99.539  81.784  82.865  1.00  0.00    -0.252 OA
BRANCH  38  40
ATOM     40  C   UNL     1      97.250  81.116  82.380  1.00  0.00     0.158 C 
BRANCH  40  41
ATOM     41  C   UNL     1      97.642  80.653  81.000  1.00  0.00    -0.033 A 
ATOM     42  C   UNL     1      97.462  81.498  79.904  1.00  0.00     0.054 A 
ATOM     43  C   UNL     1      98.185  79.382  80.818  1.00  0.00     0.008 A 
ATOM     44  C   UNL     1      97.825  81.070  78.627  1.00  0.00     0.160 A 
ATOM     45  C   UNL     1      98.548  78.954  79.541  1.00  0.00     0.050 A 
ATOM     46  C   UNL     1      98.368  79.797  78.445  1.00  0.00     0.157 A 
BRANCH  44  47
ATOM     47  O   UNL     1      97.644  81.904  77.565  1.00  0.00    -0.493 OA
ATOM     48  C   UNL     1      97.058  83.177  77.832  1.00  0.00     0.278 C 
ENDBRANCH  44  47
BRANCH  46  49
ATOM     49  O   UNL     1      98.727  79.369  77.203  1.00  0.00    -0.504 OA
ATOM     50  H   UNL     1      99.662  79.105  77.217  1.00  0.00     0.293 HD
ENDBRANCH  46  49
ENDBRANCH  40  41
ENDBRANCH  38  40
ENDBRANCH  37  38
ENDBRANCH   1  37
TORSDOF 11
ENDMDL
MODEL 6
REMARK VINA RESULT:    -5.591     10.514     15.667
REMARK INTER + INTRA:         -11.576
REMARK INTER:                 -10.812
REMARK INTRA:                  -0.764
REMARK UNBOUND:                -1.735
REMARK SMILES C=C(C)[C@]12C[C@@H](C)[C@@]34O[C@](Cc5ccccc5)(O[C@@H]1[C@@H]3C=C(COC(=O)Cc1ccc(O)c(OC)c1)C[C@]1(O)C(=O)C(C)=C[C@@H]41)O2
REMARK SMILES IDX 23 1 22 2 21 3 20 4 9 5 8 6 10 7 6 8 18 9 46 10 19 11 5 12
REMARK SMILES IDX 7 13 4 14 45 15 38 16 44 17 40 18 42 20 41 21 43 22 39 23
REMARK SMILES IDX 11 25 12 26 13 27 17 28 14 29 16 30 15 31 2 32 3 33 1 34
REMARK SMILES IDX 37 35 24 37 25 38 26 39 27 40 28 41 36 42 29 43 33 44 30 45
REMARK SMILES IDX 31 46 34 47 35 48 32 49
REMARK H PARENT 39 24 32 50
REMARK Flexibility Score: 90.00
ROOT
ATOM      1  C   UNL     1      83.272  87.943  92.656  1.00  0.00     0.264 C 
ENDROOT
BRANCH   1   2
ATOM      2  C   UNL     1      83.426  89.204  91.837  1.00  0.00    -0.033 C 
ATOM      3  C   UNL     1      83.429  89.121  90.492  1.00  0.00    -0.015 C 
BRANCH   3   4
ATOM      4  C   UNL     1      83.642  90.214  89.458  1.00  0.00     0.078 C 
ATOM      5  O   UNL     1      81.405  91.076  88.848  1.00  0.00    -0.319 OA
ATOM      6  C   UNL     1      82.672  91.454  89.468  1.00  0.00     0.095 C 
ATOM      7  C   UNL     1      81.516  90.280  87.653  1.00  0.00     0.289 C 
ATOM      8  C   UNL     1      83.352  92.602  88.613  1.00  0.00     0.023 C 
ATOM      9  O   UNL     1      82.244  89.079  87.898  1.00  0.00    -0.320 OA
ATOM     10  O   UNL     1      82.225  90.955  86.618  1.00  0.00    -0.313 OA
ATOM     11  C   UNL     1      83.571  89.612  88.033  1.00  0.00     0.170 C 
ATOM     12  C   UNL     1      84.192  92.016  87.436  1.00  0.00     0.049 C 
ATOM     13  C   UNL     1      82.395  93.677  88.072  1.00  0.00     0.011 C 
ATOM     14  C   UNL     1      83.610  90.696  86.928  1.00  0.00     0.122 C 
BRANCH   6  15
ATOM     15  C   UNL     1      82.291  91.844  90.926  1.00  0.00     0.086 C 
ATOM     16  C   UNL     1      83.439  91.831  91.956  1.00  0.00     0.140 CG0
ATOM     17  C   UNL     1      81.606  93.157  91.182  1.00  0.00    -0.010 C 
ATOM     18  C   UNL     1      83.061  92.969  92.881  1.00  0.00     0.190 C 
ATOM     19  G   UNL     1      83.545  90.494  92.687  1.00  0.00     0.000 G0
ATOM     20  C   UNL     1      81.996  93.800  92.287  1.00  0.00    -0.008 C 
ATOM     21  O   UNL     1      83.588  93.214  93.955  1.00  0.00    -0.291 OA
ATOM     22  C   UNL     1      81.492  95.052  92.888  1.00  0.00     0.048 C 
BRANCH  16  23
ATOM     23  O   UNL     1      84.692  92.230  91.424  1.00  0.00    -0.381 OA
ATOM     24  H   UNL     1      84.548  92.577  90.528  1.00  0.00     0.212 HD
ENDBRANCH  16  23
ENDBRANCH   6  15
BRANCH   7  25
ATOM     25  C   UNL     1      80.119  89.943  87.174  1.00  0.00     0.135 C 
BRANCH  25  26
ATOM     26  C   UNL     1      80.118  88.793  86.197  1.00  0.00    -0.040 A 
ATOM     27  C   UNL     1      80.145  89.044  84.825  1.00  0.00     0.004 A 
ATOM     28  C   UNL     1      80.092  87.480  86.666  1.00  0.00     0.004 A 
ATOM     29  C   UNL     1      80.145  87.980  83.922  1.00  0.00     0.000 A 
ATOM     30  C   UNL     1      80.092  86.417  85.763  1.00  0.00     0.000 A 
ATOM     31  C   UNL     1      80.118  86.667  84.391  1.00  0.00     0.000 A 
ENDBRANCH  25  26
ENDBRANCH   7  25
BRANCH  14  32
ATOM     32  C   UNL     1      84.287  90.210  85.688  1.00  0.00    -0.046 C 
ATOM     33  C   UNL     1      85.779  90.072  85.758  1.00  0.00     0.042 C 
ATOM     34  C   UNL     1      83.600  89.915  84.574  1.00  0.00     0.010 C 
ENDBRANCH  14  32
ENDBRANCH   3   4
BRANCH   2  35
ATOM     35  C   UNL     1      83.555  90.453  92.688  1.00  0.00     0.078 CG0
ATOM     36  G   UNL     1      83.435  91.800  91.976  1.00  0.00     0.000 G0
ENDBRANCH   2  35
ENDBRANCH   1   2
BRANCH   1  37
ATOM     37  O   UNL     1      84.186  87.970  93.731  1.00  0.00    -0.461 OA
BRANCH  37  38
ATOM     38  C   UNL     1      84.406  86.773  94.372  1.00  0.00     0.310 C 
ATOM     39  O   UNL     1      83.536  86.076  94.875  1.00  0.00    -0.252 OA
BRANCH  38  40
ATOM     40  C   UNL     1      85.883  86.457  94.359  1.00  0.00     0.158 C 
BRANCH  40  41
ATOM     41  C   UNL     1      86.169  84.981  94.470  1.00  0.00    -0.033 A 
ATOM     42  C   UNL     1      85.920  84.139  93.385  1.00  0.00     0.054 A 
ATOM     43  C   UNL     1      86.683  84.457  95.655  1.00  0.00     0.008 A 
ATOM     44  C   UNL     1      86.185  82.773  93.487  1.00  0.00     0.160 A 
ATOM     45  C   UNL     1      86.948  83.092  95.758  1.00  0.00     0.050 A 
ATOM     46  C   UNL     1      86.699  82.250  94.675  1.00  0.00     0.157 A 
BRANCH  44  47
ATOM     47  O   UNL     1      85.938  81.961  92.422  1.00  0.00    -0.493 OA
ATOM     48  C   UNL     1      86.945  81.890  91.414  1.00  0.00     0.278 C 
ENDBRANCH  44  47
BRANCH  46  49
ATOM     49  O   UNL     1      86.963  80.918  94.786  1.00  0.00    -0.504 OA
ATOM     50  H   UNL     1      86.609  80.595  95.632  1.00  0.00     0.293 HD
ENDBRANCH  46  49
ENDBRANCH  40  41
ENDBRANCH  38  40
ENDBRANCH  37  38
ENDBRANCH   1  37
TORSDOF 11
ENDMDL
MODEL 7
REMARK VINA RESULT:    -5.498     13.989     19.419
REMARK INTER + INTRA:         -11.411
REMARK INTER:                 -10.243
REMARK INTRA:                  -1.168
REMARK UNBOUND:                -1.735
REMARK SMILES C=C(C)[C@]12C[C@@H](C)[C@@]34O[C@](Cc5ccccc5)(O[C@@H]1[C@@H]3C=C(COC(=O)Cc1ccc(O)c(OC)c1)C[C@]1(O)C(=O)C(C)=C[C@@H]41)O2
REMARK SMILES IDX 23 1 22 2 21 3 20 4 9 5 8 6 10 7 6 8 18 9 46 10 19 11 5 12
REMARK SMILES IDX 7 13 4 14 45 15 38 16 44 17 40 18 42 20 41 21 43 22 39 23
REMARK SMILES IDX 11 25 12 26 13 27 17 28 14 29 16 30 15 31 2 32 3 33 1 34
REMARK SMILES IDX 37 35 24 37 25 38 26 39 27 40 28 41 36 42 29 43 33 44 30 45
REMARK SMILES IDX 31 46 34 47 35 48 32 49
REMARK H PARENT 39 24 32 50
REMARK Flexibility Score: 90.00
ROOT
ATOM      1  C   UNL     1      80.765  90.914  88.666  1.00  0.00     0.264 C 
ENDROOT
BRANCH   1   2
ATOM      2  C   UNL     1      80.567  92.063  89.627  1.00  0.00    -0.033 C 
ATOM      3  C   UNL     1      81.559  92.961  89.794  1.00  0.00    -0.015 C 
BRANCH   3   4
ATOM      4  C   UNL     1      81.638  94.145  90.744  1.00  0.00     0.078 C 
ATOM      5  O   UNL     1      80.814  96.120  89.502  1.00  0.00    -0.319 OA
ATOM      6  C   UNL     1      80.529  95.258  90.647  1.00  0.00     0.095 C 
ATOM      7  C   UNL     1      82.197  96.488  89.338  1.00  0.00     0.289 C 
ATOM      8  C   UNL     1      80.592  96.116  91.977  1.00  0.00     0.023 C 
ATOM      9  O   UNL     1      83.028  95.337  89.220  1.00  0.00    -0.320 OA
ATOM     10  O   UNL     1      82.700  97.213  90.457  1.00  0.00    -0.313 OA
ATOM     11  C   UNL     1      82.999  94.864  90.576  1.00  0.00     0.170 C 
ATOM     12  C   UNL     1      82.051  96.221  92.520  1.00  0.00     0.049 C 
ATOM     13  C   UNL     1      79.978  97.522  91.886  1.00  0.00     0.011 C 
ATOM     14  C   UNL     1      83.079  96.180  91.390  1.00  0.00     0.122 C 
BRANCH   6  15
ATOM     15  C   UNL     1      79.143  94.628  90.323  1.00  0.00     0.086 C 
ATOM     16  C   UNL     1      78.789  93.334  91.084  1.00  0.00     0.140 CG0
ATOM     17  C   UNL     1      77.903  95.466  90.462  1.00  0.00    -0.010 C 
ATOM     18  C   UNL     1      77.291  93.463  91.267  1.00  0.00     0.190 C 
ATOM     19  G   UNL     1      79.178  92.080  90.303  1.00  0.00     0.000 G0
ATOM     20  C   UNL     1      76.837  94.833  90.963  1.00  0.00    -0.008 C 
ATOM     21  O   UNL     1      76.548  92.578  91.662  1.00  0.00    -0.291 OA
ATOM     22  C   UNL     1      75.453  95.309  91.160  1.00  0.00     0.048 C 
BRANCH  16  23
ATOM     23  O   UNL     1      79.289  93.294  92.410  1.00  0.00    -0.381 OA
ATOM     24  H   UNL     1      80.221  93.567  92.395  1.00  0.00     0.212 HD
ENDBRANCH  16  23
ENDBRANCH   6  15
BRANCH   7  25
ATOM     25  C   UNL     1      82.318  97.338  88.089  1.00  0.00     0.135 C 
BRANCH  25  26
ATOM     26  C   UNL     1      82.055  98.796  88.370  1.00  0.00    -0.040 A 
ATOM     27  C   UNL     1      83.124  99.678  88.533  1.00  0.00     0.004 A 
ATOM     28  C   UNL     1      80.745  99.264  88.464  1.00  0.00     0.004 A 
ATOM     29  C   UNL     1      82.881 101.028  88.792  1.00  0.00     0.000 A 
ATOM     30  C   UNL     1      80.502 100.613  88.724  1.00  0.00     0.000 A 
ATOM     31  C   UNL     1      81.571 101.494  88.888  1.00  0.00     0.000 A 
ENDBRANCH  25  26
ENDBRANCH   7  25
BRANCH  14  32
ATOM     32  C   UNL     1      84.467  96.462  91.865  1.00  0.00    -0.046 C 
ATOM     33  C   UNL     1      84.723  97.848  92.377  1.00  0.00     0.042 C 
ATOM     34  C   UNL     1      85.430  95.528  91.837  1.00  0.00     0.010 C 
ENDBRANCH  14  32
ENDBRANCH   3   4
BRANCH   2  35
ATOM     35  C   UNL     1      79.207  92.050  90.298  1.00  0.00     0.078 CG0
ATOM     36  G   UNL     1      78.789  93.308  91.056  1.00  0.00     0.000 G0
ENDBRANCH   2  35
ENDBRANCH   1   2
BRANCH   1  37
ATOM     37  O   UNL     1      81.644  91.313  87.635  1.00  0.00    -0.461 OA
BRANCH  37  38
ATOM     38  C   UNL     1      82.712  90.482  87.390  1.00  0.00     0.310 C 
ATOM     39  O   UNL     1      83.436  89.996  88.249  1.00  0.00    -0.252 OA
BRANCH  38  40
ATOM     40  C   UNL     1      82.851  90.264  85.902  1.00  0.00     0.158 C 
BRANCH  40  41
ATOM     41  C   UNL     1      81.944  89.179  85.380  1.00  0.00    -0.033 A 
ATOM     42  C   UNL     1      82.295  87.839  85.540  1.00  0.00     0.054 A 
ATOM     43  C   UNL     1      80.753  89.516  84.737  1.00  0.00     0.008 A 
ATOM     44  C   UNL     1      81.456  86.835  85.057  1.00  0.00     0.160 A 
ATOM     45  C   UNL     1      79.913  88.512  84.253  1.00  0.00     0.050 A 
ATOM     46  C   UNL     1      80.265  87.172  84.413  1.00  0.00     0.157 A 
BRANCH  44  47
ATOM     47  O   UNL     1      81.810  85.530  85.219  1.00  0.00    -0.493 OA
ATOM     48  C   UNL     1      82.469  85.183  86.436  1.00  0.00     0.278 C 
ENDBRANCH  44  47
BRANCH  46  49
ATOM     49  O   UNL     1      79.437  86.200  83.938  1.00  0.00    -0.504 OA
ATOM     50  H   UNL     1      78.549  86.575  83.810  1.00  0.00     0.293 HD
ENDBRANCH  46  49
ENDBRANCH  40  41
ENDBRANCH  38  40
ENDBRANCH  37  38
ENDBRANCH   1  37
TORSDOF 11
ENDMDL
MODEL 8
REMARK VINA RESULT:    -5.311      6.900     10.649
REMARK INTER + INTRA:         -11.083
REMARK INTER:                  -9.631
REMARK INTRA:                  -1.451
REMARK UNBOUND:                -1.735
REMARK SMILES C=C(C)[C@]12C[C@@H](C)[C@@]34O[C@](Cc5ccccc5)(O[C@@H]1[C@@H]3C=C(COC(=O)Cc1ccc(O)c(OC)c1)C[C@]1(O)C(=O)C(C)=C[C@@H]41)O2
REMARK SMILES IDX 23 1 22 2 21 3 20 4 9 5 8 6 10 7 6 8 18 9 46 10 19 11 5 12
REMARK SMILES IDX 7 13 4 14 45 15 38 16 44 17 40 18 42 20 41 21 43 22 39 23
REMARK SMILES IDX 11 25 12 26 13 27 17 28 14 29 16 30 15 31 2 32 3 33 1 34
REMARK SMILES IDX 37 35 24 37 25 38 26 39 27 40 28 41 36 42 29 43 33 44 30 45
REMARK SMILES IDX 31 46 34 47 35 48 32 49
REMARK H PARENT 39 24 32 50
REMARK Flexibility Score: 90.00
ROOT
ATOM      1  C   UNL     1      98.571  77.745  81.410  1.00  0.00     0.264 C 
ENDROOT
BRANCH   1   2
ATOM      2  C   UNL     1      99.850  77.910  80.623  1.00  0.00    -0.033 C 
ATOM      3  C   UNL     1      99.785  78.278  79.327  1.00  0.00    -0.015 C 
BRANCH   3   4
ATOM      4  C   UNL     1     100.904  78.435  78.311  1.00  0.00     0.078 C 
ATOM      5  O   UNL     1     101.615  80.803  78.383  1.00  0.00    -0.319 OA
ATOM      6  C   UNL     1     102.073  79.438  78.634  1.00  0.00     0.095 C 
ATOM      7  C   UNL     1     100.845  80.984  77.180  1.00  0.00     0.289 C 
ATOM      8  C   UNL     1     103.276  79.102  77.659  1.00  0.00     0.023 C 
ATOM      9  O   UNL     1      99.695  80.142  77.171  1.00  0.00    -0.320 OA
ATOM     10  O   UNL     1     101.582  80.641  76.009  1.00  0.00    -0.313 OA
ATOM     11  C   UNL     1     100.317  78.868  76.945  1.00  0.00     0.170 C 
ATOM     12  C   UNL     1     102.766  78.594  76.276  1.00  0.00     0.049 C 
ATOM     13  C   UNL     1     104.289  80.239  77.445  1.00  0.00     0.011 C 
ATOM     14  C   UNL     1     101.416  79.211  75.909  1.00  0.00     0.122 C 
BRANCH   6  15
ATOM     15  C   UNL     1     102.416  79.416  80.152  1.00  0.00     0.086 C 
ATOM     16  C   UNL     1     102.453  78.026  80.820  1.00  0.00     0.140 CG0
ATOM     17  C   UNL     1     103.683  80.068  80.630  1.00  0.00    -0.010 C 
ATOM     18  C   UNL     1     103.551  78.188  81.850  1.00  0.00     0.190 C 
ATOM     19  G   UNL     1     101.111  77.653  81.450  1.00  0.00     0.000 G0
ATOM     20  C   UNL     1     104.329  79.417  81.603  1.00  0.00    -0.008 C 
ATOM     21  O   UNL     1     103.808  77.394  82.742  1.00  0.00    -0.291 OA
ATOM     22  C   UNL     1     105.540  79.796  82.360  1.00  0.00     0.048 C 
BRANCH  16  23
ATOM     23  O   UNL     1     102.932  76.995  79.974  1.00  0.00    -0.381 OA
ATOM     24  H   UNL     1     103.387  77.403  79.219  1.00  0.00     0.212 HD
ENDBRANCH  16  23
ENDBRANCH   6  15
BRANCH   7  25
ATOM     25  C   UNL     1     100.418  82.435  77.102  1.00  0.00     0.135 C 
BRANCH  25  26
ATOM     26  C   UNL     1      99.016  82.641  77.619  1.00  0.00    -0.040 A 
ATOM     27  C   UNL     1      97.989  82.975  76.736  1.00  0.00     0.004 A 
ATOM     28  C   UNL     1      98.746  82.496  78.979  1.00  0.00     0.004 A 
ATOM     29  C   UNL     1      96.692  83.165  77.214  1.00  0.00     0.000 A 
ATOM     30  C   UNL     1      97.449  82.685  79.457  1.00  0.00     0.000 A 
ATOM     31  C   UNL     1      96.422  83.020  78.574  1.00  0.00     0.000 A 
ENDBRANCH  25  26
ENDBRANCH   7  25
BRANCH  14  32
ATOM     32  C   UNL     1     100.995  78.883  74.514  1.00  0.00    -0.046 C 
ATOM     33  C   UNL     1     102.074  78.398  73.593  1.00  0.00     0.042 C 
ATOM     34  C   UNL     1      99.723  79.015  74.107  1.00  0.00     0.010 C 
ENDBRANCH  14  32
ENDBRANCH   3   4
BRANCH   2  35
ATOM     35  C   UNL     1     101.095  77.631  81.444  1.00  0.00     0.078 CG0
ATOM     36  G   UNL     1     102.440  78.010  80.826  1.00  0.00     0.000 G0
ENDBRANCH   2  35
ENDBRANCH   1   2
BRANCH   1  37
ATOM     37  O   UNL     1      98.841  77.929  82.783  1.00  0.00    -0.461 OA
BRANCH  37  38
ATOM     38  C   UNL     1      98.134  78.926  83.413  1.00  0.00     0.310 C 
ATOM     39  O   UNL     1      97.933  78.991  84.618  1.00  0.00    -0.252 OA
BRANCH  38  40
ATOM     40  C   UNL     1      97.645  79.923  82.389  1.00  0.00     0.158 C 
BRANCH  40  41
ATOM     41  C   UNL     1      97.367  81.282  82.978  1.00  0.00    -0.033 A 
ATOM     42  C   UNL     1      96.213  81.492  83.734  1.00  0.00     0.054 A 
ATOM     43  C   UNL     1      98.262  82.330  82.768  1.00  0.00     0.008 A 
ATOM     44  C   UNL     1      95.955  82.750  84.279  1.00  0.00     0.160 A 
ATOM     45  C   UNL     1      98.005  83.588  83.312  1.00  0.00     0.050 A 
ATOM     46  C   UNL     1      96.851  83.798  84.068  1.00  0.00     0.157 A 
BRANCH  44  47
ATOM     47  O   UNL     1      94.825  82.942  85.015  1.00  0.00    -0.493 OA
ATOM     48  C   UNL     1      94.791  82.358  86.316  1.00  0.00     0.278 C 
ENDBRANCH  44  47
BRANCH  46  49
ATOM     49  O   UNL     1      96.611  85.030  84.596  1.00  0.00    -0.504 OA
ATOM     50  H   UNL     1      96.031  84.935  85.370  1.00  0.00     0.293 HD
ENDBRANCH  46  49
ENDBRANCH  40  41
ENDBRANCH  38  40
ENDBRANCH  37  38
ENDBRANCH   1  37
TORSDOF 11
ENDMDL
MODEL 9
REMARK VINA RESULT:    -5.226      3.621      7.029
REMARK INTER + INTRA:         -10.934
REMARK INTER:                 -10.111
REMARK INTRA:                  -0.822
REMARK UNBOUND:                -1.735
REMARK SMILES C=C(C)[C@]12C[C@@H](C)[C@@]34O[C@](Cc5ccccc5)(O[C@@H]1[C@@H]3C=C(COC(=O)Cc1ccc(O)c(OC)c1)C[C@]1(O)C(=O)C(C)=C[C@@H]41)O2
REMARK SMILES IDX 23 1 22 2 21 3 20 4 9 5 8 6 10 7 6 8 18 9 46 10 19 11 5 12
REMARK SMILES IDX 7 13 4 14 45 15 38 16 44 17 40 18 42 20 41 21 43 22 39 23
REMARK SMILES IDX 11 25 12 26 13 27 17 28 14 29 16 30 15 31 2 32 3 33 1 34
REMARK SMILES IDX 37 35 24 37 25 38 26 39 27 40 28 41 36 42 29 43 33 44 30 45
REMARK SMILES IDX 31 46 34 47 35 48 32 49
REMARK H PARENT 39 24 32 50
REMARK Flexibility Score: 90.00
ROOT
ATOM      1  C   UNL     1      95.611  80.499  86.479  1.00  0.00     0.264 C 
ENDROOT
BRANCH   1   2
ATOM      2  C   UNL     1      96.983  80.191  85.927  1.00  0.00    -0.033 C 
ATOM      3  C   UNL     1      97.129  79.980  84.604  1.00  0.00    -0.015 C 
BRANCH   3   4
ATOM      4  C   UNL     1      98.371  79.584  83.822  1.00  0.00     0.078 C 
ATOM      5  O   UNL     1      99.450  81.680  83.073  1.00  0.00    -0.319 OA
ATOM      6  C   UNL     1      99.644  80.505  83.920  1.00  0.00     0.095 C 
ATOM      7  C   UNL     1      98.868  81.420  81.782  1.00  0.00     0.289 C 
ATOM      8  C   UNL     1     100.881  79.672  83.385  1.00  0.00     0.023 C 
ATOM      9  O   UNL     1      97.603  80.774  81.906  1.00  0.00    -0.320 OA
ATOM     10  O   UNL     1      99.670  80.546  80.992  1.00  0.00    -0.313 OA
ATOM     11  C   UNL     1      98.028  79.465  82.316  1.00  0.00     0.170 C 
ATOM     12  C   UNL     1     100.460  78.688  82.250  1.00  0.00     0.049 C 
ATOM     13  C   UNL     1     102.086  80.506  82.919  1.00  0.00     0.011 C 
ATOM     14  C   UNL     1      99.283  79.231  81.439  1.00  0.00     0.122 C 
BRANCH   6  15
ATOM     15  C   UNL     1      99.797  81.083  85.356  1.00  0.00     0.086 C 
ATOM     16  C   UNL     1      99.533  80.101  86.516  1.00  0.00     0.140 CG0
ATOM     17  C   UNL     1     101.086  81.749  85.749  1.00  0.00    -0.010 C 
ATOM     18  C   UNL     1     100.514  80.569  87.570  1.00  0.00     0.190 C 
ATOM     19  G   UNL     1      98.085  80.155  87.000  1.00  0.00     0.000 G0
ATOM     20  C   UNL     1     101.502  81.502  86.996  1.00  0.00    -0.008 C 
ATOM     21  O   UNL     1     100.535  80.197  88.734  1.00  0.00    -0.291 OA
ATOM     22  C   UNL     1     102.660  82.042  87.737  1.00  0.00     0.048 C 
BRANCH  16  23
ATOM     23  O   UNL     1      99.938  78.769  86.244  1.00  0.00    -0.381 OA
ATOM     24  H   UNL     1     100.909  78.732  86.271  1.00  0.00     0.212 HD
ENDBRANCH  16  23
ENDBRANCH   6  15
BRANCH   7  25
ATOM     25  C   UNL     1      98.699  82.742  81.061  1.00  0.00     0.135 C 
BRANCH  25  26
ATOM     26  C   UNL     1      98.135  82.562  79.673  1.00  0.00    -0.040 A 
ATOM     27  C   UNL     1      98.938  82.804  78.558  1.00  0.00     0.004 A 
ATOM     28  C   UNL     1      96.814  82.151  79.504  1.00  0.00     0.004 A 
ATOM     29  C   UNL     1      98.418  82.637  77.274  1.00  0.00     0.000 A 
ATOM     30  C   UNL     1      96.293  81.984  78.221  1.00  0.00     0.000 A 
ATOM     31  C   UNL     1      97.096  82.227  77.106  1.00  0.00     0.000 A 
ENDBRANCH  25  26
ENDBRANCH   7  25
BRANCH  14  32
ATOM     32  C   UNL     1      98.981  78.396  80.238  1.00  0.00    -0.046 C 
ATOM     33  C   UNL     1      98.201  77.139  80.484  1.00  0.00     0.042 C 
ATOM     34  C   UNL     1      99.384  78.749  79.008  1.00  0.00     0.010 C 
ENDBRANCH  14  32
ENDBRANCH   3   4
BRANCH   2  35
ATOM     35  C   UNL     1      98.062  80.169  86.994  1.00  0.00     0.078 CG0
ATOM     36  G   UNL     1      99.512  80.097  86.519  1.00  0.00     0.000 G0
ENDBRANCH   2  35
ENDBRANCH   1   2
BRANCH   1  37
ATOM     37  O   UNL     1      94.730  80.778  85.412  1.00  0.00    -0.461 OA
BRANCH  37  38
ATOM     38  C   UNL     1      94.615  82.100  85.048  1.00  0.00     0.310 C 
ATOM     39  O   UNL     1      95.343  82.675  84.251  1.00  0.00    -0.252 OA
BRANCH  38  40
ATOM     40  C   UNL     1      93.454  82.726  85.783  1.00  0.00     0.158 C 
BRANCH  40  41
ATOM     41  C   UNL     1      93.873  83.849  86.697  1.00  0.00    -0.033 A 
ATOM     42  C   UNL     1      93.958  83.633  88.073  1.00  0.00     0.054 A 
ATOM     43  C   UNL     1      94.177  85.103  86.168  1.00  0.00     0.008 A 
ATOM     44  C   UNL     1      94.346  84.673  88.919  1.00  0.00     0.160 A 
ATOM     45  C   UNL     1      94.565  86.142  87.013  1.00  0.00     0.050 A 
ATOM     46  C   UNL     1      94.650  85.927  88.389  1.00  0.00     0.157 A 
BRANCH  44  47
ATOM     47  O   UNL     1      94.425  84.450  90.260  1.00  0.00    -0.493 OA
ATOM     48  C   UNL     1      93.362  84.957  91.065  1.00  0.00     0.278 C 
ENDBRANCH  44  47
BRANCH  46  49
ATOM     49  O   UNL     1      95.031  86.949  89.205  1.00  0.00    -0.504 OA
ATOM     50  H   UNL     1      95.861  86.706  89.649  1.00  0.00     0.293 HD
ENDBRANCH  46  49
ENDBRANCH  40  41
ENDBRANCH  38  40
ENDBRANCH  37  38
ENDBRANCH   1  37
TORSDOF 11
ENDMDL
MODEL 10
REMARK VINA RESULT:    -5.179      1.679      2.119
REMARK INTER + INTRA:         -10.850
REMARK INTER:                  -8.880
REMARK INTRA:                  -1.969
REMARK UNBOUND:                -1.735
REMARK SMILES C=C(C)[C@]12C[C@@H](C)[C@@]34O[C@](Cc5ccccc5)(O[C@@H]1[C@@H]3C=C(COC(=O)Cc1ccc(O)c(OC)c1)C[C@]1(O)C(=O)C(C)=C[C@@H]41)O2
REMARK SMILES IDX 23 1 22 2 21 3 20 4 9 5 8 6 10 7 6 8 18 9 46 10 19 11 5 12
REMARK SMILES IDX 7 13 4 14 45 15 38 16 44 17 40 18 42 20 41 21 43 22 39 23
REMARK SMILES IDX 11 25 12 26 13 27 17 28 14 29 16 30 15 31 2 32 3 33 1 34
REMARK SMILES IDX 37 35 24 37 25 38 26 39 27 40 28 41 36 42 29 43 33 44 30 45
REMARK SMILES IDX 31 46 34 47 35 48 32 49
REMARK H PARENT 39 24 32 50
REMARK Flexibility Score: 90.00
ROOT
ATOM      1  C   UNL     1      92.290  81.774  90.198  1.00  0.00     0.264 C 
ENDROOT
BRANCH   1   2
ATOM      2  C   UNL     1      92.707  81.339  88.813  1.00  0.00    -0.033 C 
ATOM      3  C   UNL     1      93.922  81.695  88.348  1.00  0.00    -0.015 C 
BRANCH   3   4
ATOM      4  C   UNL     1      94.540  81.453  86.981  1.00  0.00     0.078 C 
ATOM      5  O   UNL     1      95.803  79.331  87.126  1.00  0.00    -0.319 OA
ATOM      6  C   UNL     1      94.666  79.970  86.468  1.00  0.00     0.095 C 
ATOM      7  C   UNL     1      96.989  80.141  87.235  1.00  0.00     0.289 C 
ATOM      8  C   UNL     1      94.929  80.023  84.906  1.00  0.00     0.023 C 
ATOM      9  O   UNL     1      96.723  81.356  87.931  1.00  0.00    -0.320 OA
ATOM     10  O   UNL     1      97.496  80.531  85.961  1.00  0.00    -0.313 OA
ATOM     11  C   UNL     1      95.965  82.058  86.934  1.00  0.00     0.170 C 
ATOM     12  C   UNL     1      95.765  81.279  84.510  1.00  0.00     0.049 C 
ATOM     13  C   UNL     1      95.576  78.766  84.302  1.00  0.00     0.011 C 
ATOM     14  C   UNL     1      96.719  81.700  85.628  1.00  0.00     0.122 C 
BRANCH   6  15
ATOM     15  C   UNL     1      93.436  79.126  86.910  1.00  0.00     0.086 C 
ATOM     16  C   UNL     1      92.061  79.819  86.799  1.00  0.00     0.140 CG0
ATOM     17  C   UNL     1      93.201  77.781  86.283  1.00  0.00    -0.010 C 
ATOM     18  C   UNL     1      91.146  78.669  86.435  1.00  0.00     0.190 C 
ATOM     19  G   UNL     1      91.652  80.502  88.103  1.00  0.00     0.000 G0
ATOM     20  C   UNL     1      91.923  77.482  86.029  1.00  0.00    -0.008 C 
ATOM     21  O   UNL     1      89.925  78.713  86.422  1.00  0.00    -0.291 OA
ATOM     22  C   UNL     1      91.322  76.239  85.504  1.00  0.00     0.048 C 
BRANCH  16  23
ATOM     23  O   UNL     1      91.951  80.702  85.695  1.00  0.00    -0.381 OA
ATOM     24  H   UNL     1      92.503  80.360  84.972  1.00  0.00     0.212 HD
ENDBRANCH  16  23
ENDBRANCH   6  15
BRANCH   7  25
ATOM     25  C   UNL     1      98.043  79.345  87.977  1.00  0.00     0.135 C 
BRANCH  25  26
ATOM     26  C   UNL     1      99.357  80.081  88.054  1.00  0.00    -0.040 A 
ATOM     27  C   UNL     1     100.545  79.422  87.737  1.00  0.00     0.004 A 
ATOM     28  C   UNL     1      99.385  81.421  88.440  1.00  0.00     0.004 A 
ATOM     29  C   UNL     1     101.761  80.102  87.808  1.00  0.00     0.000 A 
ATOM     30  C   UNL     1     100.601  82.102  88.511  1.00  0.00     0.000 A 
ATOM     31  C   UNL     1     101.789  81.442  88.195  1.00  0.00     0.000 A 
ENDBRANCH  25  26
ENDBRANCH   7  25
BRANCH  14  32
ATOM     32  C   UNL     1      97.657  82.783  85.206  1.00  0.00    -0.046 C 
ATOM     33  C   UNL     1      97.556  84.076  85.960  1.00  0.00     0.042 C 
ATOM     34  C   UNL     1      98.538  82.610  84.210  1.00  0.00     0.010 C 
ENDBRANCH  14  32
ENDBRANCH   3   4
BRANCH   2  35
ATOM     35  C   UNL     1      91.650  80.512  88.105  1.00  0.00     0.078 CG0
ATOM     36  G   UNL     1      92.054  79.834  86.796  1.00  0.00     0.000 G0
ENDBRANCH   2  35
ENDBRANCH   1   2
BRANCH   1  37
ATOM     37  O   UNL     1      92.518  83.159  90.341  1.00  0.00    -0.461 OA
BRANCH  37  38
ATOM     38  C   UNL     1      91.399  83.954  90.433  1.00  0.00     0.310 C 
ATOM     39  O   UNL     1      90.333  83.612  90.925  1.00  0.00    -0.252 OA
BRANCH  38  40
ATOM     40  C   UNL     1      91.693  85.310  89.834  1.00  0.00     0.158 C 
BRANCH  40  41
ATOM     41  C   UNL     1      92.458  85.227  88.538  1.00  0.00    -0.033 A 
ATOM     42  C   UNL     1      93.674  85.898  88.402  1.00  0.00     0.054 A 
ATOM     43  C   UNL     1      91.950  84.480  87.476  1.00  0.00     0.008 A 
ATOM     44  C   UNL     1      94.382  85.821  87.203  1.00  0.00     0.160 A 
ATOM     45  C   UNL     1      92.658  84.404  86.276  1.00  0.00     0.050 A 
ATOM     46  C   UNL     1      93.873  85.074  86.139  1.00  0.00     0.157 A 
BRANCH  44  47
ATOM     47  O   UNL     1      95.567  86.481  87.081  1.00  0.00    -0.493 OA
ATOM     48  C   UNL     1      95.512  87.905  87.006  1.00  0.00     0.278 C 
ENDBRANCH  44  47
BRANCH  46  49
ATOM     49  O   UNL     1      94.556  84.991  84.964  1.00  0.00    -0.504 OA
ATOM     50  H   UNL     1      95.229  85.693  84.938  1.00  0.00     0.293 HD
ENDBRANCH  46  49
ENDBRANCH  40  41
ENDBRANCH  38  40
ENDBRANCH  37  38
ENDBRANCH   1  37
TORSDOF 11
ENDMDL
