MODEL 1
REMARK VINA RESULT:    -6.390      0.000      0.000
REMARK INTER + INTRA:         -11.516
REMARK INTER:                 -10.312
REMARK INTRA:                  -1.203
REMARK UNBOUND:                -1.203
REMARK SMILES COc1cc(CNC(=O)CCCCCCC(C)C)ccc1O
REMARK SMILES IDX 11 1 10 2 8 3 7 4 9 6 6 7 5 8 3 9 21 10 4 11 20 12 19 13
REMARK SMILES IDX 2 14 1 15 22 16 12 18 13 19 14 20 15 21 16 22 17 23 18 24
REMARK H PARENT 7 5 22 17
REMARK Flexibility Score: inf
ROOT
ATOM      1  C   UNL     1      91.291  94.152  76.055  1.00  0.00     0.010 C 
ENDROOT
BRANCH   1   2
ATOM      2  C   UNL     1      92.341  93.886  74.941  1.00  0.00     0.100 C 
BRANCH   2   3
ATOM      3  C   UNL     1      93.672  94.461  75.241  1.00  0.00     0.220 C 
ATOM      4  N   UNL     1      94.640  93.693  75.819  1.00  0.00    -0.352 N 
ATOM      5  H   UNL     1      94.351  92.753  76.049  1.00  0.00     0.163 HD
ATOM      6  O   UNL     1      93.894  95.657  74.932  1.00  0.00    -0.275 OA
BRANCH   4   7
ATOM      7  C   UNL     1      95.976  94.122  76.101  1.00  0.00     0.151 C 
BRANCH   7   8
ATOM      8  C   UNL     1      96.091  94.882  77.376  1.00  0.00    -0.025 A 
ATOM      9  C   UNL     1      95.601  95.101  79.776  1.00  0.00     0.160 A 
ATOM     10  C   UNL     1      96.342  96.302  79.820  1.00  0.00     0.157 A 
ATOM     11  C   UNL     1      95.466  94.411  78.553  1.00  0.00     0.056 A 
ATOM     12  C   UNL     1      96.937  96.801  78.647  1.00  0.00     0.050 A 
ATOM     13  C   UNL     1      96.822  96.092  77.435  1.00  0.00     0.009 A 
BRANCH   9  14
ATOM     14  O   UNL     1      94.986  94.628  80.903  1.00  0.00    -0.493 OA
ATOM     15  C   UNL     1      95.787  93.698  81.654  1.00  0.00     0.278 C 
ENDBRANCH   9  14
BRANCH  10  16
ATOM     16  O   UNL     1      96.488  96.989  80.984  1.00  0.00    -0.504 OA
ATOM     17  H   UNL     1      96.288  97.916  80.835  1.00  0.00     0.293 HD
ENDBRANCH  10  16
ENDBRANCH   7   8
ENDBRANCH   4   7
ENDBRANCH   2   3
ENDBRANCH   1   2
BRANCH   1  18
ATOM     18  C   UNL     1      91.423  93.150  77.237  1.00  0.00     0.001 C 
BRANCH  18  19
ATOM     19  C   UNL     1      90.091  92.439  77.608  1.00  0.00     0.000 C 
BRANCH  19  20
ATOM     20  C   UNL     1      90.006  91.021  76.977  1.00  0.00     0.000 C 
BRANCH  20  21
ATOM     21  C   UNL     1      88.878  90.860  75.920  1.00  0.00     0.003 C 
BRANCH  21  22
ATOM     22  C   UNL     1      89.366  90.911  74.436  1.00  0.00    -0.017 C 
ATOM     23  C   UNL     1      88.431  90.065  73.526  1.00  0.00     0.007 C 
ATOM     24  C   UNL     1      90.849  90.473  74.250  1.00  0.00     0.007 C 
ENDBRANCH  21  22
ENDBRANCH  20  21
ENDBRANCH  19  20
ENDBRANCH  18  19
ENDBRANCH   1  18
TORSDOF 11
ENDMDL
MODEL 2
REMARK VINA RESULT:    -6.345      1.229      2.159
REMARK INTER + INTRA:         -11.443
REMARK INTER:                 -10.513
REMARK INTRA:                  -0.931
REMARK UNBOUND:                -1.203
REMARK SMILES COc1cc(CNC(=O)CCCCCCC(C)C)ccc1O
REMARK SMILES IDX 11 1 10 2 8 3 7 4 9 6 6 7 5 8 3 9 21 10 4 11 20 12 19 13
REMARK SMILES IDX 2 14 1 15 22 16 12 18 13 19 14 20 15 21 16 22 17 23 18 24
REMARK H PARENT 7 5 22 17
REMARK Flexibility Score: inf
ROOT
ATOM      1  C   UNL     1      91.541  94.182  76.805  1.00  0.00     0.010 C 
ENDROOT
BRANCH   1   2
ATOM      2  C   UNL     1      92.520  93.769  75.671  1.00  0.00     0.100 C 
BRANCH   2   3
ATOM      3  C   UNL     1      93.944  93.880  76.059  1.00  0.00     0.220 C 
ATOM      4  N   UNL     1      94.315  93.751  77.365  1.00  0.00    -0.352 N 
ATOM      5  H   UNL     1      93.548  93.624  78.010  1.00  0.00     0.163 HD
ATOM      6  O   UNL     1      94.799  94.071  75.159  1.00  0.00    -0.275 OA
BRANCH   4   7
ATOM      7  C   UNL     1      95.662  93.782  77.849  1.00  0.00     0.151 C 
BRANCH   7   8
ATOM      8  C   UNL     1      95.787  94.400  79.197  1.00  0.00    -0.025 A 
ATOM      9  C   UNL     1      96.214  96.371  80.605  1.00  0.00     0.160 A 
ATOM     10  C   UNL     1      95.984  95.597  81.763  1.00  0.00     0.157 A 
ATOM     11  C   UNL     1      96.133  95.764  79.334  1.00  0.00     0.056 A 
ATOM     12  C   UNL     1      95.678  94.229  81.641  1.00  0.00     0.050 A 
ATOM     13  C   UNL     1      95.569  93.636  80.368  1.00  0.00     0.009 A 
BRANCH   9  14
ATOM     14  O   UNL     1      96.552  97.693  80.713  1.00  0.00    -0.493 OA
ATOM     15  C   UNL     1      97.955  97.950  80.525  1.00  0.00     0.278 C 
ENDBRANCH   9  14
BRANCH  10  16
ATOM     16  O   UNL     1      96.058  96.155  83.000  1.00  0.00    -0.504 OA
ATOM     17  H   UNL     1      96.800  95.777  83.477  1.00  0.00     0.293 HD
ENDBRANCH  10  16
ENDBRANCH   7   8
ENDBRANCH   4   7
ENDBRANCH   2   3
ENDBRANCH   1   2
BRANCH   1  18
ATOM     18  C   UNL     1      90.294  93.255  76.870  1.00  0.00     0.001 C 
BRANCH  18  19
ATOM     19  C   UNL     1      90.419  92.108  77.912  1.00  0.00     0.000 C 
BRANCH  19  20
ATOM     20  C   UNL     1      90.190  90.715  77.261  1.00  0.00     0.000 C 
BRANCH  20  21
ATOM     21  C   UNL     1      89.108  90.704  76.146  1.00  0.00     0.003 C 
BRANCH  21  22
ATOM     22  C   UNL     1      89.668  90.516  74.698  1.00  0.00    -0.017 C 
ATOM     23  C   UNL     1      88.693  89.659  73.844  1.00  0.00     0.007 C 
ATOM     24  C   UNL     1      91.104  89.914  74.656  1.00  0.00     0.007 C 
ENDBRANCH  21  22
ENDBRANCH  20  21
ENDBRANCH  19  20
ENDBRANCH  18  19
ENDBRANCH   1  18
TORSDOF 11
ENDMDL
MODEL 3
REMARK VINA RESULT:    -6.249      1.404      2.103
REMARK INTER + INTRA:         -11.289
REMARK INTER:                 -10.556
REMARK INTRA:                  -0.733
REMARK UNBOUND:                -1.203
REMARK SMILES COc1cc(CNC(=O)CCCCCCC(C)C)ccc1O
REMARK SMILES IDX 11 1 10 2 8 3 7 4 9 6 6 7 5 8 3 9 21 10 4 11 20 12 19 13
REMARK SMILES IDX 2 14 1 15 22 16 12 18 13 19 14 20 15 21 16 22 17 23 18 24
REMARK H PARENT 7 5 22 17
REMARK Flexibility Score: inf
ROOT
ATOM      1  C   UNL     1      90.354  92.079  77.744  1.00  0.00     0.010 C 
ENDROOT
BRANCH   1   2
ATOM      2  C   UNL     1      90.275  93.310  76.799  1.00  0.00     0.100 C 
BRANCH   2   3
ATOM      3  C   UNL     1      91.582  93.680  76.212  1.00  0.00     0.220 C 
ATOM      4  N   UNL     1      92.738  93.442  76.896  1.00  0.00    -0.352 N 
ATOM      5  H   UNL     1      92.609  93.049  77.817  1.00  0.00     0.163 HD
ATOM      6  O   UNL     1      91.603  94.193  75.066  1.00  0.00    -0.275 OA
BRANCH   4   7
ATOM      7  C   UNL     1      94.057  93.703  76.406  1.00  0.00     0.151 C 
BRANCH   7   8
ATOM      8  C   UNL     1      94.923  94.403  77.395  1.00  0.00    -0.025 A 
ATOM      9  C   UNL     1      95.462  94.972  79.726  1.00  0.00     0.160 A 
ATOM     10  C   UNL     1      96.592  95.697  79.290  1.00  0.00     0.157 A 
ATOM     11  C   UNL     1      94.626  94.348  78.776  1.00  0.00     0.056 A 
ATOM     12  C   UNL     1      96.875  95.792  77.915  1.00  0.00     0.050 A 
ATOM     13  C   UNL     1      96.054  95.141  76.974  1.00  0.00     0.009 A 
BRANCH   9  14
ATOM     14  O   UNL     1      95.155  94.907  81.058  1.00  0.00    -0.493 OA
ATOM     15  C   UNL     1      95.785  93.810  81.745  1.00  0.00     0.278 C 
ENDBRANCH   9  14
BRANCH  10  16
ATOM     16  O   UNL     1      97.413  96.310  80.183  1.00  0.00    -0.504 OA
ATOM     17  H   UNL     1      98.260  96.489  79.767  1.00  0.00     0.293 HD
ENDBRANCH  10  16
ENDBRANCH   7   8
ENDBRANCH   4   7
ENDBRANCH   2   3
ENDBRANCH   1   2
BRANCH   1  18
ATOM     18  C   UNL     1      89.850  90.778  77.057  1.00  0.00     0.001 C 
BRANCH  18  19
ATOM     19  C   UNL     1      89.047  91.030  75.750  1.00  0.00     0.000 C 
BRANCH  19  20
ATOM     20  C   UNL     1      89.200  89.851  74.748  1.00  0.00     0.000 C 
BRANCH  20  21
ATOM     21  C   UNL     1      90.168  90.139  73.567  1.00  0.00     0.003 C 
BRANCH  21  22
ATOM     22  C   UNL     1      89.586  91.081  72.463  1.00  0.00    -0.017 C 
ATOM     23  C   UNL     1      90.169  90.712  71.071  1.00  0.00     0.007 C 
ATOM     24  C   UNL     1      89.797  92.595  72.759  1.00  0.00     0.007 C 
ENDBRANCH  21  22
ENDBRANCH  20  21
ENDBRANCH  19  20
ENDBRANCH  18  19
ENDBRANCH   1  18
TORSDOF 11
ENDMDL
MODEL 4
REMARK VINA RESULT:    -5.918      2.843      8.168
REMARK INTER + INTRA:         -10.754
REMARK INTER:                 -10.020
REMARK INTRA:                  -0.734
REMARK UNBOUND:                -1.203
REMARK SMILES COc1cc(CNC(=O)CCCCCCC(C)C)ccc1O
REMARK SMILES IDX 11 1 10 2 8 3 7 4 9 6 6 7 5 8 3 9 21 10 4 11 20 12 19 13
REMARK SMILES IDX 2 14 1 15 22 16 12 18 13 19 14 20 15 21 16 22 17 23 18 24
REMARK H PARENT 7 5 22 17
REMARK Flexibility Score: inf
ROOT
ATOM      1  C   UNL     1      94.848  94.017  76.488  1.00  0.00     0.010 C 
ENDROOT
BRANCH   1   2
ATOM      2  C   UNL     1      93.926  94.907  75.609  1.00  0.00     0.100 C 
BRANCH   2   3
ATOM      3  C   UNL     1      92.567  94.345  75.433  1.00  0.00     0.220 C 
ATOM      4  N   UNL     1      91.595  94.589  76.358  1.00  0.00    -0.352 N 
ATOM      5  H   UNL     1      91.899  95.127  77.157  1.00  0.00     0.163 HD
ATOM      6  O   UNL     1      92.327  93.665  74.405  1.00  0.00    -0.275 OA
BRANCH   4   7
ATOM      7  C   UNL     1      90.236  94.149  76.264  1.00  0.00     0.151 C 
BRANCH   7   8
ATOM      8  C   UNL     1      90.060  92.712  76.609  1.00  0.00    -0.025 A 
ATOM      9  C   UNL     1      89.406  90.431  75.960  1.00  0.00     0.160 A 
ATOM     10  C   UNL     1      89.762  89.962  77.244  1.00  0.00     0.157 A 
ATOM     11  C   UNL     1      89.540  91.803  75.659  1.00  0.00     0.056 A 
ATOM     12  C   UNL     1      90.244  90.864  78.210  1.00  0.00     0.050 A 
ATOM     13  C   UNL     1      90.402  92.227  77.893  1.00  0.00     0.009 A 
BRANCH   9  14
ATOM     14  O   UNL     1      88.899  89.570  75.026  1.00  0.00    -0.493 OA
ATOM     15  C   UNL     1      89.864  89.141  74.048  1.00  0.00     0.278 C 
ENDBRANCH   9  14
BRANCH  10  16
ATOM     16  O   UNL     1      89.642  88.646  77.562  1.00  0.00    -0.504 OA
ATOM     17  H   UNL     1      90.515  88.272  77.706  1.00  0.00     0.293 HD
ENDBRANCH  10  16
ENDBRANCH   7   8
ENDBRANCH   4   7
ENDBRANCH   2   3
ENDBRANCH   1   2
BRANCH   1  18
ATOM     18  C   UNL     1      96.353  94.356  76.289  1.00  0.00     0.001 C 
BRANCH  18  19
ATOM     19  C   UNL     1      96.880  95.458  77.250  1.00  0.00     0.000 C 
BRANCH  19  20
ATOM     20  C   UNL     1      96.174  95.394  78.634  1.00  0.00     0.000 C 
BRANCH  20  21
ATOM     21  C   UNL     1      96.667  96.461  79.651  1.00  0.00     0.003 C 
BRANCH  21  22
ATOM     22  C   UNL     1      96.801  95.946  81.121  1.00  0.00    -0.017 C 
ATOM     23  C   UNL     1      98.271  96.075  81.610  1.00  0.00     0.007 C 
ATOM     24  C   UNL     1      96.286  94.491  81.323  1.00  0.00     0.007 C 
ENDBRANCH  21  22
ENDBRANCH  20  21
ENDBRANCH  19  20
ENDBRANCH  18  19
ENDBRANCH   1  18
TORSDOF 11
ENDMDL
MODEL 5
REMARK VINA RESULT:    -5.791      3.484      7.902
REMARK INTER + INTRA:         -10.549
REMARK INTER:                  -9.551
REMARK INTRA:                  -0.998
REMARK UNBOUND:                -1.203
REMARK SMILES COc1cc(CNC(=O)CCCCCCC(C)C)ccc1O
REMARK SMILES IDX 11 1 10 2 8 3 7 4 9 6 6 7 5 8 3 9 21 10 4 11 20 12 19 13
REMARK SMILES IDX 2 14 1 15 22 16 12 18 13 19 14 20 15 21 16 22 17 23 18 24
REMARK H PARENT 7 5 22 17
REMARK Flexibility Score: inf
ROOT
ATOM      1  C   UNL     1      94.394  93.768  75.902  1.00  0.00     0.010 C 
ENDROOT
BRANCH   1   2
ATOM      2  C   UNL     1      93.327  94.567  75.104  1.00  0.00     0.100 C 
BRANCH   2   3
ATOM      3  C   UNL     1      91.953  94.045  75.280  1.00  0.00     0.220 C 
ATOM      4  N   UNL     1      91.412  93.936  76.528  1.00  0.00    -0.352 N 
ATOM      5  H   UNL     1      92.034  94.192  77.281  1.00  0.00     0.163 HD
ATOM      6  O   UNL     1      91.293  93.731  74.259  1.00  0.00    -0.275 OA
BRANCH   4   7
ATOM      7  C   UNL     1      90.078  93.501  76.815  1.00  0.00     0.151 C 
BRANCH   7   8
ATOM      8  C   UNL     1      89.977  92.035  77.053  1.00  0.00    -0.025 A 
ATOM      9  C   UNL     1      89.551  89.765  76.208  1.00  0.00     0.160 A 
ATOM     10  C   UNL     1      89.826  89.235  77.488  1.00  0.00     0.157 A 
ATOM     11  C   UNL     1      89.610  91.160  76.006  1.00  0.00     0.056 A 
ATOM     12  C   UNL     1      90.154  90.099  78.548  1.00  0.00     0.050 A 
ATOM     13  C   UNL     1      90.240  91.488  78.331  1.00  0.00     0.009 A 
BRANCH   9  14
ATOM     14  O   UNL     1      89.192  88.937  75.180  1.00  0.00    -0.493 OA
ATOM     15  C   UNL     1      90.213  88.780  74.178  1.00  0.00     0.278 C 
ENDBRANCH   9  14
BRANCH  10  16
ATOM     16  O   UNL     1      89.775  87.896  77.712  1.00  0.00    -0.504 OA
ATOM     17  H   UNL     1      88.945  87.675  78.142  1.00  0.00     0.293 HD
ENDBRANCH  10  16
ENDBRANCH   7   8
ENDBRANCH   4   7
ENDBRANCH   2   3
ENDBRANCH   1   2
BRANCH   1  18
ATOM     18  C   UNL     1      95.825  94.346  75.711  1.00  0.00     0.001 C 
BRANCH  18  19
ATOM     19  C   UNL     1      95.985  95.804  76.225  1.00  0.00     0.000 C 
BRANCH  19  20
ATOM     20  C   UNL     1      96.805  96.674  75.231  1.00  0.00     0.000 C 
BRANCH  20  21
ATOM     21  C   UNL     1      96.183  98.068  74.940  1.00  0.00     0.003 C 
BRANCH  21  22
ATOM     22  C   UNL     1      95.556  98.216  73.515  1.00  0.00    -0.017 C 
ATOM     23  C   UNL     1      94.071  97.755  73.523  1.00  0.00     0.007 C 
ATOM     24  C   UNL     1      96.351  97.471  72.402  1.00  0.00     0.007 C 
ENDBRANCH  21  22
ENDBRANCH  20  21
ENDBRANCH  19  20
ENDBRANCH  18  19
ENDBRANCH   1  18
TORSDOF 11
ENDMDL
MODEL 6
REMARK VINA RESULT:    -5.734      1.593      2.648
REMARK INTER + INTRA:         -10.457
REMARK INTER:                  -9.449
REMARK INTRA:                  -1.009
REMARK UNBOUND:                -1.203
REMARK SMILES COc1cc(CNC(=O)CCCCCCC(C)C)ccc1O
REMARK SMILES IDX 11 1 10 2 8 3 7 4 9 6 6 7 5 8 3 9 21 10 4 11 20 12 19 13
REMARK SMILES IDX 2 14 1 15 22 16 12 18 13 19 14 20 15 21 16 22 17 23 18 24
REMARK H PARENT 7 5 22 17
REMARK Flexibility Score: inf
ROOT
ATOM      1  C   UNL     1      93.545  94.320  76.337  1.00  0.00     0.010 C 
ENDROOT
BRANCH   1   2
ATOM      2  C   UNL     1      94.563  94.859  75.294  1.00  0.00     0.100 C 
BRANCH   2   3
ATOM      3  C   UNL     1      95.753  95.488  75.910  1.00  0.00     0.220 C 
ATOM      4  N   UNL     1      95.766  95.780  77.243  1.00  0.00    -0.352 N 
ATOM      5  H   UNL     1      94.905  95.574  77.728  1.00  0.00     0.163 HD
ATOM      6  O   UNL     1      96.752  95.721  75.187  1.00  0.00    -0.275 OA
BRANCH   4   7
ATOM      7  C   UNL     1      96.878  96.332  77.957  1.00  0.00     0.151 C 
BRANCH   7   8
ATOM      8  C   UNL     1      96.638  96.441  79.422  1.00  0.00    -0.025 A 
ATOM      9  C   UNL     1      95.691  95.526  81.499  1.00  0.00     0.160 A 
ATOM     10  C   UNL     1      96.214  96.620  82.222  1.00  0.00     0.157 A 
ATOM     11  C   UNL     1      95.891  95.454  80.104  1.00  0.00     0.056 A 
ATOM     12  C   UNL     1      96.926  97.629  81.548  1.00  0.00     0.050 A 
ATOM     13  C   UNL     1      97.146  97.536  80.160  1.00  0.00     0.009 A 
BRANCH   9  14
ATOM     14  O   UNL     1      94.964  94.559  82.139  1.00  0.00    -0.493 OA
ATOM     15  C   UNL     1      95.644  93.295  82.243  1.00  0.00     0.278 C 
ENDBRANCH   9  14
BRANCH  10  16
ATOM     16  O   UNL     1      96.036  96.715  83.566  1.00  0.00    -0.504 OA
ATOM     17  H   UNL     1      95.104  96.845  83.756  1.00  0.00     0.293 HD
ENDBRANCH  10  16
ENDBRANCH   7   8
ENDBRANCH   4   7
ENDBRANCH   2   3
ENDBRANCH   1   2
BRANCH   1  18
ATOM     18  C   UNL     1      92.084  94.355  75.803  1.00  0.00     0.001 C 
BRANCH  18  19
ATOM     19  C   UNL     1      91.899  93.637  74.436  1.00  0.00     0.000 C 
BRANCH  19  20
ATOM     20  C   UNL     1      90.984  92.388  74.566  1.00  0.00     0.000 C 
BRANCH  20  21
ATOM     21  C   UNL     1      91.487  91.333  75.591  1.00  0.00     0.003 C 
BRANCH  21  22
ATOM     22  C   UNL     1      90.444  90.945  76.690  1.00  0.00    -0.017 C 
ATOM     23  C   UNL     1      88.997  91.099  76.145  1.00  0.00     0.007 C 
ATOM     24  C   UNL     1      90.614  91.738  78.019  1.00  0.00     0.007 C 
ENDBRANCH  21  22
ENDBRANCH  20  21
ENDBRANCH  19  20
ENDBRANCH  18  19
ENDBRANCH   1  18
TORSDOF 11
ENDMDL
MODEL 7
REMARK VINA RESULT:    -5.622     20.063     21.692
REMARK INTER + INTRA:         -10.276
REMARK INTER:                  -8.470
REMARK INTRA:                  -1.806
REMARK UNBOUND:                -1.203
REMARK SMILES COc1cc(CNC(=O)CCCCCCC(C)C)ccc1O
REMARK SMILES IDX 11 1 10 2 8 3 7 4 9 6 6 7 5 8 3 9 21 10 4 11 20 12 19 13
REMARK SMILES IDX 2 14 1 15 22 16 12 18 13 19 14 20 15 21 16 22 17 23 18 24
REMARK H PARENT 7 5 22 17
REMARK Flexibility Score: inf
ROOT
ATOM      1  C   UNL     1      76.431  84.680  66.550  1.00  0.00     0.010 C 
ENDROOT
BRANCH   1   2
ATOM      2  C   UNL     1      75.983  84.071  67.907  1.00  0.00     0.100 C 
BRANCH   2   3
ATOM      3  C   UNL     1      74.996  84.907  68.626  1.00  0.00     0.220 C 
ATOM      4  N   UNL     1      74.553  86.076  68.079  1.00  0.00    -0.352 N 
ATOM      5  H   UNL     1      74.984  86.318  67.198  1.00  0.00     0.163 HD
ATOM      6  O   UNL     1      74.560  84.506  69.733  1.00  0.00    -0.275 OA
BRANCH   4   7
ATOM      7  C   UNL     1      73.562  86.934  68.652  1.00  0.00     0.151 C 
BRANCH   7   8
ATOM      8  C   UNL     1      74.034  88.334  68.840  1.00  0.00    -0.025 A 
ATOM      9  C   UNL     1      73.810  90.530  69.924  1.00  0.00     0.160 A 
ATOM     10  C   UNL     1      74.954  90.989  69.236  1.00  0.00     0.157 A 
ATOM     11  C   UNL     1      73.348  89.214  69.707  1.00  0.00     0.056 A 
ATOM     12  C   UNL     1      75.622  90.134  68.341  1.00  0.00     0.050 A 
ATOM     13  C   UNL     1      75.173  88.813  68.151  1.00  0.00     0.009 A 
BRANCH   9  14
ATOM     14  O   UNL     1      73.129  91.365  70.768  1.00  0.00    -0.493 OA
ATOM     15  C   UNL     1      72.498  90.688  71.870  1.00  0.00     0.278 C 
ENDBRANCH   9  14
BRANCH  10  16
ATOM     16  O   UNL     1      75.420  92.251  69.425  1.00  0.00    -0.504 OA
ATOM     17  H   UNL     1      75.536  92.412  70.364  1.00  0.00     0.293 HD
ENDBRANCH  10  16
ENDBRANCH   7   8
ENDBRANCH   4   7
ENDBRANCH   2   3
ENDBRANCH   1   2
BRANCH   1  18
ATOM     18  C   UNL     1      77.897  85.198  66.594  1.00  0.00     0.001 C 
BRANCH  18  19
ATOM     19  C   UNL     1      78.073  86.513  67.404  1.00  0.00     0.000 C 
BRANCH  19  20
ATOM     20  C   UNL     1      78.256  87.741  66.469  1.00  0.00     0.000 C 
BRANCH  20  21
ATOM     21  C   UNL     1      77.932  87.459  64.976  1.00  0.00     0.003 C 
BRANCH  21  22
ATOM     22  C   UNL     1      76.844  88.396  64.357  1.00  0.00    -0.017 C 
ATOM     23  C   UNL     1      77.095  89.872  64.777  1.00  0.00     0.007 C 
ATOM     24  C   UNL     1      75.386  87.973  64.700  1.00  0.00     0.007 C 
ENDBRANCH  21  22
ENDBRANCH  20  21
ENDBRANCH  19  20
ENDBRANCH  18  19
ENDBRANCH   1  18
TORSDOF 11
ENDMDL
MODEL 8
REMARK VINA RESULT:    -5.526      2.053      2.816
REMARK INTER + INTRA:         -10.122
REMARK INTER:                  -9.265
REMARK INTRA:                  -0.857
REMARK UNBOUND:                -1.203
REMARK SMILES COc1cc(CNC(=O)CCCCCCC(C)C)ccc1O
REMARK SMILES IDX 11 1 10 2 8 3 7 4 9 6 6 7 5 8 3 9 21 10 4 11 20 12 19 13
REMARK SMILES IDX 2 14 1 15 22 16 12 18 13 19 14 20 15 21 16 22 17 23 18 24
REMARK H PARENT 7 5 22 17
REMARK Flexibility Score: inf
ROOT
ATOM      1  C   UNL     1      90.557  93.634  76.883  1.00  0.00     0.010 C 
ENDROOT
BRANCH   1   2
ATOM      2  C   UNL     1      91.533  93.618  75.674  1.00  0.00     0.100 C 
BRANCH   2   3
ATOM      3  C   UNL     1      92.958  93.660  76.073  1.00  0.00     0.220 C 
ATOM      4  N   UNL     1      93.935  93.788  75.129  1.00  0.00    -0.352 N 
ATOM      5  H   UNL     1      93.600  93.804  74.176  1.00  0.00     0.163 HD
ATOM      6  O   UNL     1      93.243  93.600  77.294  1.00  0.00    -0.275 OA
BRANCH   4   7
ATOM      7  C   UNL     1      95.336  93.897  75.399  1.00  0.00     0.151 C 
BRANCH   7   8
ATOM      8  C   UNL     1      95.770  95.291  75.694  1.00  0.00    -0.025 A 
ATOM      9  C   UNL     1      96.963  96.890  77.131  1.00  0.00     0.160 A 
ATOM     10  C   UNL     1      96.638  97.937  76.240  1.00  0.00     0.157 A 
ATOM     11  C   UNL     1      96.512  95.581  76.861  1.00  0.00     0.056 A 
ATOM     12  C   UNL     1      95.867  97.667  75.095  1.00  0.00     0.050 A 
ATOM     13  C   UNL     1      95.444  96.352  74.817  1.00  0.00     0.009 A 
BRANCH   9  14
ATOM     14  O   UNL     1      97.679  97.149  78.268  1.00  0.00    -0.493 OA
ATOM     15  C   UNL     1      96.909  97.028  79.478  1.00  0.00     0.278 C 
ENDBRANCH   9  14
BRANCH  10  16
ATOM     16  O   UNL     1      97.058  99.207  76.475  1.00  0.00    -0.504 OA
ATOM     17  H   UNL     1      96.321  99.734  76.792  1.00  0.00     0.293 HD
ENDBRANCH  10  16
ENDBRANCH   7   8
ENDBRANCH   4   7
ENDBRANCH   2   3
ENDBRANCH   1   2
BRANCH   1  18
ATOM     18  C   UNL     1      89.485  92.511  76.786  1.00  0.00     0.001 C 
BRANCH  18  19
ATOM     19  C   UNL     1      89.984  91.229  76.062  1.00  0.00     0.000 C 
BRANCH  19  20
ATOM     20  C   UNL     1      88.882  90.621  75.149  1.00  0.00     0.000 C 
BRANCH  20  21
ATOM     21  C   UNL     1      89.378  90.216  73.734  1.00  0.00     0.003 C 
BRANCH  21  22
ATOM     22  C   UNL     1      89.185  91.314  72.637  1.00  0.00    -0.017 C 
ATOM     23  C   UNL     1      87.695  91.392  72.203  1.00  0.00     0.007 C 
ATOM     24  C   UNL     1      90.105  91.126  71.395  1.00  0.00     0.007 C 
ENDBRANCH  21  22
ENDBRANCH  20  21
ENDBRANCH  19  20
ENDBRANCH  18  19
ENDBRANCH   1  18
TORSDOF 11
ENDMDL
MODEL 9
REMARK VINA RESULT:    -5.470     28.304     30.543
REMARK INTER + INTRA:         -10.031
REMARK INTER:                  -8.929
REMARK INTRA:                  -1.102
REMARK UNBOUND:                -1.203
REMARK SMILES COc1cc(CNC(=O)CCCCCCC(C)C)ccc1O
REMARK SMILES IDX 11 1 10 2 8 3 7 4 9 6 6 7 5 8 3 9 21 10 4 11 20 12 19 13
REMARK SMILES IDX 2 14 1 15 22 16 12 18 13 19 14 20 15 21 16 22 17 23 18 24
REMARK H PARENT 7 5 22 17
REMARK Flexibility Score: inf
ROOT
ATOM      1  C   UNL     1      64.733  83.577  74.723  1.00  0.00     0.010 C 
ENDROOT
BRANCH   1   2
ATOM      2  C   UNL     1      63.647  84.447  75.414  1.00  0.00     0.100 C 
BRANCH   2   3
ATOM      3  C   UNL     1      64.208  85.575  76.191  1.00  0.00     0.220 C 
ATOM      4  N   UNL     1      65.179  85.355  77.123  1.00  0.00    -0.352 N 
ATOM      5  H   UNL     1      65.427  84.385  77.251  1.00  0.00     0.163 HD
ATOM      6  O   UNL     1      63.788  86.735  75.955  1.00  0.00    -0.275 OA
BRANCH   4   7
ATOM      7  C   UNL     1      65.834  86.371  77.890  1.00  0.00     0.151 C 
BRANCH   7   8
ATOM      8  C   UNL     1      65.452  86.357  79.329  1.00  0.00    -0.025 A 
ATOM      9  C   UNL     1      65.855  85.593  81.632  1.00  0.00     0.160 A 
ATOM     10  C   UNL     1      64.759  86.360  82.081  1.00  0.00     0.157 A 
ATOM     11  C   UNL     1      66.182  85.582  80.259  1.00  0.00     0.056 A 
ATOM     12  C   UNL     1      64.001  87.105  81.159  1.00  0.00     0.050 A 
ATOM     13  C   UNL     1      64.350  87.113  79.794  1.00  0.00     0.009 A 
BRANCH   9  14
ATOM     14  O   UNL     1      66.575  84.834  82.514  1.00  0.00    -0.493 OA
ATOM     15  C   UNL     1      67.773  84.269  81.951  1.00  0.00     0.278 C 
ENDBRANCH   9  14
BRANCH  10  16
ATOM     16  O   UNL     1      64.420  86.388  83.397  1.00  0.00    -0.504 OA
ATOM     17  H   UNL     1      64.784  87.178  83.803  1.00  0.00     0.293 HD
ENDBRANCH  10  16
ENDBRANCH   7   8
ENDBRANCH   4   7
ENDBRANCH   2   3
ENDBRANCH   1   2
BRANCH   1  18
ATOM     18  C   UNL     1      64.619  82.076  75.114  1.00  0.00     0.001 C 
BRANCH  18  19
ATOM     19  C   UNL     1      65.305  81.112  74.105  1.00  0.00     0.000 C 
BRANCH  19  20
ATOM     20  C   UNL     1      64.307  80.612  73.023  1.00  0.00     0.000 C 
BRANCH  20  21
ATOM     21  C   UNL     1      62.815  80.893  73.354  1.00  0.00     0.003 C 
BRANCH  21  22
ATOM     22  C   UNL     1      62.017  81.601  72.211  1.00  0.00    -0.017 C 
ATOM     23  C   UNL     1      62.870  81.665  70.912  1.00  0.00     0.007 C 
ATOM     24  C   UNL     1      61.501  83.019  72.594  1.00  0.00     0.007 C 
ENDBRANCH  21  22
ENDBRANCH  20  21
ENDBRANCH  19  20
ENDBRANCH  18  19
ENDBRANCH   1  18
TORSDOF 11
ENDMDL
MODEL 10
REMARK VINA RESULT:    -5.222     26.589     29.412
REMARK INTER + INTRA:          -9.631
REMARK INTER:                  -8.292
REMARK INTRA:                  -1.339
REMARK UNBOUND:                -1.203
REMARK SMILES COc1cc(CNC(=O)CCCCCCC(C)C)ccc1O
REMARK SMILES IDX 11 1 10 2 8 3 7 4 9 6 6 7 5 8 3 9 21 10 4 11 20 12 19 13
REMARK SMILES IDX 2 14 1 15 22 16 12 18 13 19 14 20 15 21 16 22 17 23 18 24
REMARK H PARENT 7 5 22 17
REMARK Flexibility Score: inf
ROOT
ATOM      1  C   UNL     1      80.221  66.430  73.451  1.00  0.00     0.010 C 
ENDROOT
BRANCH   1   2
ATOM      2  C   UNL     1      80.169  64.896  73.690  1.00  0.00     0.100 C 
BRANCH   2   3
ATOM      3  C   UNL     1      81.300  64.392  74.502  1.00  0.00     0.220 C 
ATOM      4  N   UNL     1      81.732  65.091  75.591  1.00  0.00    -0.352 N 
ATOM      5  H   UNL     1      81.253  65.965  75.748  1.00  0.00     0.163 HD
ATOM      6  O   UNL     1      81.832  63.301  74.180  1.00  0.00    -0.275 OA
BRANCH   4   7
ATOM      7  C   UNL     1      82.774  64.674  76.480  1.00  0.00     0.151 C 
BRANCH   7   8
ATOM      8  C   UNL     1      83.712  65.773  76.840  1.00  0.00    -0.025 A 
ATOM      9  C   UNL     1      85.816  66.525  77.868  1.00  0.00     0.160 A 
ATOM     10  C   UNL     1      85.528  67.854  77.490  1.00  0.00     0.157 A 
ATOM     11  C   UNL     1      84.899  65.499  77.557  1.00  0.00     0.056 A 
ATOM     12  C   UNL     1      84.331  68.145  76.811  1.00  0.00     0.050 A 
ATOM     13  C   UNL     1      83.434  67.112  76.478  1.00  0.00     0.009 A 
BRANCH   9  14
ATOM     14  O   UNL     1      86.958  66.236  78.564  1.00  0.00    -0.493 OA
ATOM     15  C   UNL     1      86.744  66.039  79.973  1.00  0.00     0.278 C 
ENDBRANCH   9  14
BRANCH  10  16
ATOM     16  O   UNL     1      86.392  68.863  77.778  1.00  0.00    -0.504 OA
ATOM     17  H   UNL     1      85.928  69.553  78.259  1.00  0.00     0.293 HD
ENDBRANCH  10  16
ENDBRANCH   7   8
ENDBRANCH   4   7
ENDBRANCH   2   3
ENDBRANCH   1   2
BRANCH   1  18
ATOM     18  C   UNL     1      80.184  66.790  71.939  1.00  0.00     0.001 C 
BRANCH  18  19
ATOM     19  C   UNL     1      81.165  65.952  71.071  1.00  0.00     0.000 C 
BRANCH  19  20
ATOM     20  C   UNL     1      82.611  66.519  71.133  1.00  0.00     0.000 C 
BRANCH  20  21
ATOM     21  C   UNL     1      82.719  68.027  70.774  1.00  0.00     0.003 C 
BRANCH  21  22
ATOM     22  C   UNL     1      83.171  68.946  71.956  1.00  0.00    -0.017 C 
ATOM     23  C   UNL     1      83.899  70.209  71.416  1.00  0.00     0.007 C 
ATOM     24  C   UNL     1      84.054  68.218  73.012  1.00  0.00     0.007 C 
ENDBRANCH  21  22
ENDBRANCH  20  21
ENDBRANCH  19  20
ENDBRANCH  18  19
ENDBRANCH   1  18
TORSDOF 11
ENDMDL
