MODEL 1
REMARK VINA RESULT:    -5.925      0.000      0.000
REMARK INTER + INTRA:         -10.440
REMARK INTER:                  -9.735
REMARK INTRA:                  -0.705
REMARK UNBOUND:                -0.705
REMARK SMILES CCCCC[C@H](O)CC(=O)CCc1ccc(O)c(OC)c1
REMARK SMILES IDX 8 1 6 2 7 3 5 5 4 6 3 7 2 8 1 9 9 10 10 11 11 12 12 13 13 14
REMARK SMILES IDX 21 15 14 16 18 17 15 18 16 19 19 20 20 21 17 22
REMARK H PARENT 7 4 17 23
REMARK Flexibility Score: inf
ROOT
ATOM      1  C   UNL     1      96.689  82.018  81.831  1.00  0.00     0.107 C 
ENDROOT
BRANCH   1   2
ATOM      2  C   UNL     1      96.391  82.981  82.983  1.00  0.00     0.121 C 
BRANCH   2   3
ATOM      3  O   UNL     1      96.375  84.322  82.500  1.00  0.00    -0.393 OA
ATOM      4  H   UNL     1      97.297  84.633  82.455  1.00  0.00     0.210 HD
ENDBRANCH   2   3
BRANCH   2   5
ATOM      5  C   UNL     1      95.061  82.683  83.685  1.00  0.00     0.032 C 
BRANCH   5   6
ATOM      6  C   UNL     1      95.006  81.251  84.232  1.00  0.00     0.003 C 
BRANCH   6   7
ATOM      7  C   UNL     1      93.601  80.821  84.667  1.00  0.00    -0.000 C 
BRANCH   7   8
ATOM      8  C   UNL     1      92.614  81.981  84.782  1.00  0.00    -0.003 C 
ATOM      9  C   UNL     1      91.310  81.672  84.064  1.00  0.00     0.004 C 
ENDBRANCH   7   8
ENDBRANCH   6   7
ENDBRANCH   5   6
ENDBRANCH   2   5
ENDBRANCH   1   2
BRANCH   1  10
ATOM     10  C   UNL     1      98.127  82.099  81.344  1.00  0.00     0.135 C 
ATOM     11  O   UNL     1      99.041  81.578  81.983  1.00  0.00    -0.300 OA
BRANCH  10  12
ATOM     12  C   UNL     1      98.360  82.809  80.020  1.00  0.00     0.080 C 
BRANCH  12  13
ATOM     13  C   UNL     1      97.070  83.169  79.280  1.00  0.00     0.043 C 
BRANCH  13  14
ATOM     14  C   UNL     1      97.305  83.585  77.847  1.00  0.00    -0.044 A 
ATOM     15  C   UNL     1      98.480  83.208  77.195  1.00  0.00     0.054 A 
ATOM     16  C   UNL     1      96.348  84.346  77.176  1.00  0.00     0.008 A 
ATOM     17  C   UNL     1      98.696  83.592  75.872  1.00  0.00     0.160 A 
ATOM     18  C   UNL     1      96.564  84.730  75.852  1.00  0.00     0.050 A 
ATOM     19  C   UNL     1      97.738  84.353  75.201  1.00  0.00     0.157 A 
BRANCH  17  20
ATOM     20  O   UNL     1      99.847  83.219  75.246  1.00  0.00    -0.493 OA
ATOM     21  C   UNL     1     100.039  81.823  75.021  1.00  0.00     0.278 C 
ENDBRANCH  17  20
BRANCH  19  22
ATOM     22  O   UNL     1      97.938  84.734  73.908  1.00  0.00    -0.504 OA
ATOM     23  H   UNL     1      97.898  83.948  73.337  1.00  0.00     0.293 HD
ENDBRANCH  19  22
ENDBRANCH  13  14
ENDBRANCH  12  13
ENDBRANCH  10  12
ENDBRANCH   1  10
TORSDOF 12
ENDMDL
MODEL 2
REMARK VINA RESULT:    -5.796      3.581      9.336
REMARK INTER + INTRA:         -10.228
REMARK INTER:                  -9.358
REMARK INTRA:                  -0.870
REMARK UNBOUND:                -0.705
REMARK SMILES CCCCC[C@H](O)CC(=O)CCc1ccc(O)c(OC)c1
REMARK SMILES IDX 8 1 6 2 7 3 5 5 4 6 3 7 2 8 1 9 9 10 10 11 11 12 12 13 13 14
REMARK SMILES IDX 21 15 14 16 18 17 15 18 16 19 19 20 20 21 17 22
REMARK H PARENT 7 4 17 23
REMARK Flexibility Score: inf
ROOT
ATOM      1  C   UNL     1      96.347  82.066  83.237  1.00  0.00     0.107 C 
ENDROOT
BRANCH   1   2
ATOM      2  C   UNL     1      96.929  80.862  82.493  1.00  0.00     0.121 C 
BRANCH   2   3
ATOM      3  O   UNL     1      96.093  79.723  82.686  1.00  0.00    -0.393 OA
ATOM      4  H   UNL     1      96.667  78.965  82.894  1.00  0.00     0.210 HD
ENDBRANCH   2   3
BRANCH   2   5
ATOM      5  C   UNL     1      97.103  81.111  80.990  1.00  0.00     0.032 C 
BRANCH   5   6
ATOM      6  C   UNL     1      97.755  82.469  80.702  1.00  0.00     0.003 C 
BRANCH   6   7
ATOM      7  C   UNL     1      96.960  83.327  79.713  1.00  0.00    -0.000 C 
BRANCH   7   8
ATOM      8  C   UNL     1      97.098  82.874  78.260  1.00  0.00    -0.003 C 
ATOM      9  C   UNL     1      96.526  83.905  77.301  1.00  0.00     0.004 C 
ENDBRANCH   7   8
ENDBRANCH   6   7
ENDBRANCH   5   6
ENDBRANCH   2   5
ENDBRANCH   1   2
BRANCH   1  10
ATOM     10  C   UNL     1      95.208  81.694  84.173  1.00  0.00     0.135 C 
ATOM     11  O   UNL     1      95.371  80.867  85.070  1.00  0.00    -0.300 OA
BRANCH  10  12
ATOM     12  C   UNL     1      93.891  82.426  83.968  1.00  0.00     0.080 C 
BRANCH  12  13
ATOM     13  C   UNL     1      92.921  82.287  85.143  1.00  0.00     0.043 C 
BRANCH  13  14
ATOM     14  C   UNL     1      91.653  81.552  84.780  1.00  0.00    -0.044 A 
ATOM     15  C   UNL     1      90.412  82.148  85.005  1.00  0.00     0.054 A 
ATOM     16  C   UNL     1      91.724  80.276  84.220  1.00  0.00     0.008 A 
ATOM     17  C   UNL     1      89.242  81.467  84.669  1.00  0.00     0.160 A 
ATOM     18  C   UNL     1      90.553  79.596  83.884  1.00  0.00     0.050 A 
ATOM     19  C   UNL     1      89.312  80.192  84.108  1.00  0.00     0.157 A 
BRANCH  17  20
ATOM     20  O   UNL     1      88.035  82.059  84.893  1.00  0.00    -0.493 OA
ATOM     21  C   UNL     1      87.725  83.214  84.116  1.00  0.00     0.278 C 
ENDBRANCH  17  20
BRANCH  19  22
ATOM     22  O   UNL     1      88.176  79.518  83.776  1.00  0.00    -0.504 OA
ATOM     23  H   UNL     1      88.388  78.575  83.664  1.00  0.00     0.293 HD
ENDBRANCH  19  22
ENDBRANCH  13  14
ENDBRANCH  12  13
ENDBRANCH  10  12
ENDBRANCH   1  10
TORSDOF 12
ENDMDL
MODEL 3
REMARK VINA RESULT:    -5.756      2.540      8.774
REMARK INTER + INTRA:         -10.163
REMARK INTER:                  -9.198
REMARK INTRA:                  -0.965
REMARK UNBOUND:                -0.705
REMARK SMILES CCCCC[C@H](O)CC(=O)CCc1ccc(O)c(OC)c1
REMARK SMILES IDX 8 1 6 2 7 3 5 5 4 6 3 7 2 8 1 9 9 10 10 11 11 12 12 13 13 14
REMARK SMILES IDX 21 15 14 16 18 17 15 18 16 19 19 20 20 21 17 22
REMARK H PARENT 7 4 17 23
REMARK Flexibility Score: inf
ROOT
ATOM      1  C   UNL     1      98.292  83.945  75.754  1.00  0.00     0.107 C 
ENDROOT
BRANCH   1   2
ATOM      2  C   UNL     1      98.140  83.196  74.428  1.00  0.00     0.121 C 
BRANCH   2   3
ATOM      3  O   UNL     1      96.987  83.669  73.735  1.00  0.00    -0.393 OA
ATOM      4  H   UNL     1      97.107  84.622  73.574  1.00  0.00     0.210 HD
ENDBRANCH   2   3
BRANCH   2   5
ATOM      5  C   UNL     1      99.367  83.332  73.518  1.00  0.00     0.032 C 
BRANCH   5   6
ATOM      6  C   UNL     1      99.267  84.552  72.594  1.00  0.00     0.003 C 
BRANCH   6   7
ATOM      7  C   UNL     1     100.482  85.482  72.685  1.00  0.00    -0.000 C 
BRANCH   7   8
ATOM      8  C   UNL     1     101.570  84.977  73.630  1.00  0.00    -0.003 C 
ATOM      9  C   UNL     1     101.687  85.860  74.862  1.00  0.00     0.004 C 
ENDBRANCH   7   8
ENDBRANCH   6   7
ENDBRANCH   5   6
ENDBRANCH   2   5
ENDBRANCH   1   2
BRANCH   1  10
ATOM     10  C   UNL     1      96.960  84.349  76.366  1.00  0.00     0.135 C 
ATOM     11  O   UNL     1      96.244  85.191  75.826  1.00  0.00    -0.300 OA
BRANCH  10  12
ATOM     12  C   UNL     1      96.550  83.628  77.641  1.00  0.00     0.080 C 
BRANCH  12  13
ATOM     13  C   UNL     1      97.688  82.844  78.298  1.00  0.00     0.043 C 
BRANCH  13  14
ATOM     14  C   UNL     1      97.342  82.346  79.682  1.00  0.00    -0.044 A 
ATOM     15  C   UNL     1      97.420  80.984  79.973  1.00  0.00     0.054 A 
ATOM     16  C   UNL     1      96.944  83.249  80.668  1.00  0.00     0.008 A 
ATOM     17  C   UNL     1      97.101  80.526  81.251  1.00  0.00     0.160 A 
ATOM     18  C   UNL     1      96.625  82.790  81.946  1.00  0.00     0.050 A 
ATOM     19  C   UNL     1      96.703  81.429  82.237  1.00  0.00     0.157 A 
BRANCH  17  20
ATOM     20  O   UNL     1      97.181  79.193  81.524  1.00  0.00    -0.493 OA
ATOM     21  C   UNL     1      98.382  78.524  81.142  1.00  0.00     0.278 C 
ENDBRANCH  17  20
BRANCH  19  22
ATOM     22  O   UNL     1      96.389  80.993  83.489  1.00  0.00    -0.504 OA
ATOM     23  H   UNL     1      97.039  81.347  84.120  1.00  0.00     0.293 HD
ENDBRANCH  19  22
ENDBRANCH  13  14
ENDBRANCH  12  13
ENDBRANCH  10  12
ENDBRANCH   1  10
TORSDOF 12
ENDMDL
MODEL 4
REMARK VINA RESULT:    -5.702      2.049      4.045
REMARK INTER + INTRA:         -10.074
REMARK INTER:                  -9.096
REMARK INTRA:                  -0.978
REMARK UNBOUND:                -0.705
REMARK SMILES CCCCC[C@H](O)CC(=O)CCc1ccc(O)c(OC)c1
REMARK SMILES IDX 8 1 6 2 7 3 5 5 4 6 3 7 2 8 1 9 9 10 10 11 11 12 12 13 13 14
REMARK SMILES IDX 21 15 14 16 18 17 15 18 16 19 19 20 20 21 17 22
REMARK H PARENT 7 4 17 23
REMARK Flexibility Score: inf
ROOT
ATOM      1  C   UNL     1      95.217  83.599  85.748  1.00  0.00     0.107 C 
ENDROOT
BRANCH   1   2
ATOM      2  C   UNL     1      93.702  83.659  85.956  1.00  0.00     0.121 C 
BRANCH   2   3
ATOM      3  O   UNL     1      93.129  84.614  85.066  1.00  0.00    -0.393 OA
ATOM      4  H   UNL     1      92.457  84.157  84.531  1.00  0.00     0.210 HD
ENDBRANCH   2   3
BRANCH   2   5
ATOM      5  C   UNL     1      93.015  82.303  85.752  1.00  0.00     0.032 C 
BRANCH   5   6
ATOM      6  C   UNL     1      92.129  82.289  84.500  1.00  0.00     0.003 C 
BRANCH   6   7
ATOM      7  C   UNL     1      91.625  80.890  84.130  1.00  0.00    -0.000 C 
BRANCH   7   8
ATOM      8  C   UNL     1      90.102  80.785  84.069  1.00  0.00    -0.003 C 
ATOM      9  C   UNL     1      89.437  82.023  84.651  1.00  0.00     0.004 C 
ENDBRANCH   7   8
ENDBRANCH   6   7
ENDBRANCH   5   6
ENDBRANCH   2   5
ENDBRANCH   1   2
BRANCH   1  10
ATOM     10  C   UNL     1      95.658  84.172  84.410  1.00  0.00     0.135 C 
ATOM     11  O   UNL     1      95.865  85.378  84.276  1.00  0.00    -0.300 OA
BRANCH  10  12
ATOM     12  C   UNL     1      95.869  83.178  83.279  1.00  0.00     0.080 C 
BRANCH  12  13
ATOM     13  C   UNL     1      96.300  83.827  81.962  1.00  0.00     0.043 C 
BRANCH  13  14
ATOM     14  C   UNL     1      96.912  82.846  80.991  1.00  0.00    -0.044 A 
ATOM     15  C   UNL     1      97.446  83.299  79.785  1.00  0.00     0.054 A 
ATOM     16  C   UNL     1      96.943  81.486  81.301  1.00  0.00     0.008 A 
ATOM     17  C   UNL     1      98.012  82.392  78.889  1.00  0.00     0.160 A 
ATOM     18  C   UNL     1      97.509  80.579  80.405  1.00  0.00     0.050 A 
ATOM     19  C   UNL     1      98.043  81.032  79.199  1.00  0.00     0.157 A 
BRANCH  17  20
ATOM     20  O   UNL     1      98.529  82.846  77.713  1.00  0.00    -0.493 OA
ATOM     21  C   UNL     1      97.601  83.196  76.688  1.00  0.00     0.278 C 
ENDBRANCH  17  20
BRANCH  19  22
ATOM     22  O   UNL     1      98.593  80.136  78.332  1.00  0.00    -0.504 OA
ATOM     23  H   UNL     1      98.336  80.375  77.425  1.00  0.00     0.293 HD
ENDBRANCH  19  22
ENDBRANCH  13  14
ENDBRANCH  12  13
ENDBRANCH  10  12
ENDBRANCH   1  10
TORSDOF 12
ENDMDL
MODEL 5
REMARK VINA RESULT:    -5.651     12.974     16.694
REMARK INTER + INTRA:          -9.990
REMARK INTER:                  -9.012
REMARK INTRA:                  -0.978
REMARK UNBOUND:                -0.705
REMARK SMILES CCCCC[C@H](O)CC(=O)CCc1ccc(O)c(OC)c1
REMARK SMILES IDX 8 1 6 2 7 3 5 5 4 6 3 7 2 8 1 9 9 10 10 11 11 12 12 13 13 14
REMARK SMILES IDX 21 15 14 16 18 17 15 18 16 19 19 20 20 21 17 22
REMARK H PARENT 7 4 17 23
REMARK Flexibility Score: inf
ROOT
ATOM      1  C   UNL     1      95.819  98.614  74.026  1.00  0.00     0.107 C 
ENDROOT
BRANCH   1   2
ATOM      2  C   UNL     1      94.567  99.067  73.271  1.00  0.00     0.121 C 
BRANCH   2   3
ATOM      3  O   UNL     1      94.630 100.471  73.029  1.00  0.00    -0.393 OA
ATOM      4  H   UNL     1      95.000 100.603  72.139  1.00  0.00     0.210 HD
ENDBRANCH   2   3
BRANCH   2   5
ATOM      5  C   UNL     1      94.372  98.334  71.938  1.00  0.00     0.032 C 
BRANCH   5   6
ATOM      6  C   UNL     1      95.448  97.267  71.704  1.00  0.00     0.003 C 
BRANCH   6   7
ATOM      7  C   UNL     1      96.168  97.417  70.360  1.00  0.00    -0.000 C 
BRANCH   7   8
ATOM      8  C   UNL     1      95.803  98.695  69.609  1.00  0.00    -0.003 C 
ATOM      9  C   UNL     1      95.103  98.385  68.295  1.00  0.00     0.004 C 
ENDBRANCH   7   8
ENDBRANCH   6   7
ENDBRANCH   5   6
ENDBRANCH   2   5
ENDBRANCH   1   2
BRANCH   1  10
ATOM     10  C   UNL     1      95.503  97.903  75.332  1.00  0.00     0.135 C 
ATOM     11  O   UNL     1      96.346  97.812  76.223  1.00  0.00    -0.300 OA
BRANCH  10  12
ATOM     12  C   UNL     1      94.091  97.359  75.487  1.00  0.00     0.080 C 
BRANCH  12  13
ATOM     13  C   UNL     1      93.919  95.933  74.961  1.00  0.00     0.043 C 
BRANCH  13  14
ATOM     14  C   UNL     1      92.844  95.159  75.687  1.00  0.00    -0.044 A 
ATOM     15  C   UNL     1      91.888  94.447  74.964  1.00  0.00     0.054 A 
ATOM     16  C   UNL     1      92.809  95.157  77.082  1.00  0.00     0.008 A 
ATOM     17  C   UNL     1      90.896  93.732  75.636  1.00  0.00     0.160 A 
ATOM     18  C   UNL     1      91.818  94.442  77.754  1.00  0.00     0.050 A 
ATOM     19  C   UNL     1      90.861  93.730  77.030  1.00  0.00     0.157 A 
BRANCH  17  20
ATOM     20  O   UNL     1      89.966  93.041  74.919  1.00  0.00    -0.493 OA
ATOM     21  C   UNL     1      90.360  91.771  74.402  1.00  0.00     0.278 C 
ENDBRANCH  17  20
BRANCH  19  22
ATOM     22  O   UNL     1      89.897  93.036  77.697  1.00  0.00    -0.504 OA
ATOM     23  H   UNL     1      89.948  92.099  77.442  1.00  0.00     0.293 HD
ENDBRANCH  19  22
ENDBRANCH  13  14
ENDBRANCH  12  13
ENDBRANCH  10  12
ENDBRANCH   1  10
TORSDOF 12
ENDMDL
MODEL 6
REMARK VINA RESULT:    -5.633      8.060     10.483
REMARK INTER + INTRA:          -9.959
REMARK INTER:                  -9.094
REMARK INTRA:                  -0.866
REMARK UNBOUND:                -0.705
REMARK SMILES CCCCC[C@H](O)CC(=O)CCc1ccc(O)c(OC)c1
REMARK SMILES IDX 8 1 6 2 7 3 5 5 4 6 3 7 2 8 1 9 9 10 10 11 11 12 12 13 13 14
REMARK SMILES IDX 21 15 14 16 18 17 15 18 16 19 19 20 20 21 17 22
REMARK H PARENT 7 4 17 23
REMARK Flexibility Score: inf
ROOT
ATOM      1  C   UNL     1      92.478  82.533  84.725  1.00  0.00     0.107 C 
ENDROOT
BRANCH   1   2
ATOM      2  C   UNL     1      91.608  81.274  84.759  1.00  0.00     0.121 C 
BRANCH   2   3
ATOM      3  O   UNL     1      91.088  81.081  86.073  1.00  0.00    -0.393 OA
ATOM      4  H   UNL     1      91.822  80.793  86.644  1.00  0.00     0.210 HD
ENDBRANCH   2   3
BRANCH   2   5
ATOM      5  C   UNL     1      90.446  81.320  83.759  1.00  0.00     0.032 C 
BRANCH   5   6
ATOM      6  C   UNL     1      89.388  80.251  84.055  1.00  0.00     0.003 C 
BRANCH   6   7
ATOM      7  C   UNL     1      88.040  80.835  84.489  1.00  0.00    -0.000 C 
BRANCH   7   8
ATOM      8  C   UNL     1      87.981  82.360  84.413  1.00  0.00    -0.003 C 
ATOM      9  C   UNL     1      86.786  82.829  83.598  1.00  0.00     0.004 C 
ENDBRANCH   7   8
ENDBRANCH   6   7
ENDBRANCH   5   6
ENDBRANCH   2   5
ENDBRANCH   1   2
BRANCH   1  10
ATOM     10  C   UNL     1      93.508  82.576  85.842  1.00  0.00     0.135 C 
ATOM     11  O   UNL     1      93.883  81.543  86.397  1.00  0.00    -0.300 OA
BRANCH  10  12
ATOM     12  C   UNL     1      94.072  83.943  86.197  1.00  0.00     0.080 C 
BRANCH  12  13
ATOM     13  C   UNL     1      93.000  84.991  86.501  1.00  0.00     0.043 C 
BRANCH  13  14
ATOM     14  C   UNL     1      93.345  85.866  87.682  1.00  0.00    -0.044 A 
ATOM     15  C   UNL     1      93.719  87.195  87.482  1.00  0.00     0.054 A 
ATOM     16  C   UNL     1      93.289  85.344  88.975  1.00  0.00     0.008 A 
ATOM     17  C   UNL     1      94.036  88.002  88.574  1.00  0.00     0.160 A 
ATOM     18  C   UNL     1      93.607  86.151  90.068  1.00  0.00     0.050 A 
ATOM     19  C   UNL     1      93.981  87.480  89.867  1.00  0.00     0.157 A 
BRANCH  17  20
ATOM     20  O   UNL     1      94.401  89.298  88.366  1.00  0.00    -0.493 OA
ATOM     21  C   UNL     1      94.898  89.631  87.071  1.00  0.00     0.278 C 
ENDBRANCH  17  20
BRANCH  19  22
ATOM     22  O   UNL     1      94.289  88.258  90.941  1.00  0.00    -0.504 OA
ATOM     23  H   UNL     1      94.919  88.945  90.665  1.00  0.00     0.293 HD
ENDBRANCH  19  22
ENDBRANCH  13  14
ENDBRANCH  12  13
ENDBRANCH  10  12
ENDBRANCH   1  10
TORSDOF 12
ENDMDL
MODEL 7
REMARK VINA RESULT:    -5.546      8.493     11.463
REMARK INTER + INTRA:          -9.818
REMARK INTER:                  -9.326
REMARK INTRA:                  -0.492
REMARK UNBOUND:                -0.705
REMARK SMILES CCCCC[C@H](O)CC(=O)CCc1ccc(O)c(OC)c1
REMARK SMILES IDX 8 1 6 2 7 3 5 5 4 6 3 7 2 8 1 9 9 10 10 11 11 12 12 13 13 14
REMARK SMILES IDX 21 15 14 16 18 17 15 18 16 19 19 20 20 21 17 22
REMARK H PARENT 7 4 17 23
REMARK Flexibility Score: inf
ROOT
ATOM      1  C   UNL     1      91.862  75.302  81.218  1.00  0.00     0.107 C 
ENDROOT
BRANCH   1   2
ATOM      2  C   UNL     1      91.148  75.237  79.865  1.00  0.00     0.121 C 
BRANCH   2   3
ATOM      3  O   UNL     1      91.478  76.387  79.089  1.00  0.00    -0.393 OA
ATOM      4  H   UNL     1      92.426  76.339  78.875  1.00  0.00     0.210 HD
ENDBRANCH   2   3
BRANCH   2   5
ATOM      5  C   UNL     1      91.491  73.974  79.066  1.00  0.00     0.032 C 
BRANCH   5   6
ATOM      6  C   UNL     1      92.066  74.304  77.683  1.00  0.00     0.003 C 
BRANCH   6   7
ATOM      7  C   UNL     1      91.041  74.169  76.552  1.00  0.00    -0.000 C 
BRANCH   7   8
ATOM      8  C   UNL     1      90.999  75.376  75.616  1.00  0.00    -0.003 C 
ATOM      9  C   UNL     1      89.832  76.294  75.946  1.00  0.00     0.004 C 
ENDBRANCH   7   8
ENDBRANCH   6   7
ENDBRANCH   5   6
ENDBRANCH   2   5
ENDBRANCH   1   2
BRANCH   1  10
ATOM     10  C   UNL     1      90.902  75.326  82.396  1.00  0.00     0.135 C 
ATOM     11  O   UNL     1      89.925  74.577  82.432  1.00  0.00    -0.300 OA
BRANCH  10  12
ATOM     12  C   UNL     1      91.239  76.281  83.531  1.00  0.00     0.080 C 
BRANCH  12  13
ATOM     13  C   UNL     1      90.010  76.847  84.244  1.00  0.00     0.043 C 
BRANCH  13  14
ATOM     14  C   UNL     1      89.918  78.352  84.161  1.00  0.00    -0.044 A 
ATOM     15  C   UNL     1      88.677  78.981  84.252  1.00  0.00     0.054 A 
ATOM     16  C   UNL     1      91.075  79.112  83.992  1.00  0.00     0.008 A 
ATOM     17  C   UNL     1      88.593  80.372  84.176  1.00  0.00     0.160 A 
ATOM     18  C   UNL     1      90.992  80.503  83.916  1.00  0.00     0.050 A 
ATOM     19  C   UNL     1      89.750  81.132  84.007  1.00  0.00     0.157 A 
BRANCH  17  20
ATOM     20  O   UNL     1      87.375  80.975  84.266  1.00  0.00    -0.493 OA
ATOM     21  C   UNL     1      86.818  81.494  83.059  1.00  0.00     0.278 C 
ENDBRANCH  17  20
BRANCH  19  22
ATOM     22  O   UNL     1      89.681  82.490  83.931  1.00  0.00    -0.504 OA
ATOM     23  H   UNL     1      88.751  82.765  84.005  1.00  0.00     0.293 HD
ENDBRANCH  19  22
ENDBRANCH  13  14
ENDBRANCH  12  13
ENDBRANCH  10  12
ENDBRANCH   1  10
TORSDOF 12
ENDMDL
MODEL 8
REMARK VINA RESULT:    -5.451      4.030      8.937
REMARK INTER + INTRA:          -9.661
REMARK INTER:                  -8.627
REMARK INTRA:                  -1.034
REMARK UNBOUND:                -0.705
REMARK SMILES CCCCC[C@H](O)CC(=O)CCc1ccc(O)c(OC)c1
REMARK SMILES IDX 8 1 6 2 7 3 5 5 4 6 3 7 2 8 1 9 9 10 10 11 11 12 12 13 13 14
REMARK SMILES IDX 21 15 14 16 18 17 15 18 16 19 19 20 20 21 17 22
REMARK H PARENT 7 4 17 23
REMARK Flexibility Score: inf
ROOT
ATOM      1  C   UNL     1      96.689  82.639  83.773  1.00  0.00     0.107 C 
ENDROOT
BRANCH   1   2
ATOM      2  C   UNL     1      96.217  83.368  82.513  1.00  0.00     0.121 C 
BRANCH   2   3
ATOM      3  O   UNL     1      96.256  84.777  82.727  1.00  0.00    -0.393 OA
ATOM      4  H   UNL     1      96.995  84.966  83.332  1.00  0.00     0.210 HD
ENDBRANCH   2   3
BRANCH   2   5
ATOM      5  C   UNL     1      97.048  83.022  81.272  1.00  0.00     0.032 C 
BRANCH   5   6
ATOM      6  C   UNL     1      97.129  81.509  81.035  1.00  0.00     0.003 C 
BRANCH   6   7
ATOM      7  C   UNL     1      98.307  81.096  80.147  1.00  0.00    -0.000 C 
BRANCH   7   8
ATOM      8  C   UNL     1      99.618  81.792  80.507  1.00  0.00    -0.003 C 
ATOM      9  C   UNL     1     100.704  81.492  79.484  1.00  0.00     0.004 C 
ENDBRANCH   7   8
ENDBRANCH   6   7
ENDBRANCH   5   6
ENDBRANCH   2   5
ENDBRANCH   1   2
BRANCH   1  10
ATOM     10  C   UNL     1      96.371  83.394  85.053  1.00  0.00     0.135 C 
ATOM     11  O   UNL     1      97.079  84.328  85.429  1.00  0.00    -0.300 OA
BRANCH  10  12
ATOM     12  C   UNL     1      95.120  82.965  85.805  1.00  0.00     0.080 C 
BRANCH  12  13
ATOM     13  C   UNL     1      93.822  83.222  85.038  1.00  0.00     0.043 C 
BRANCH  13  14
ATOM     14  C   UNL     1      92.957  81.991  84.909  1.00  0.00    -0.044 A 
ATOM     15  C   UNL     1      91.573  82.119  84.798  1.00  0.00     0.054 A 
ATOM     16  C   UNL     1      93.544  80.725  84.901  1.00  0.00     0.008 A 
ATOM     17  C   UNL     1      90.775  80.981  84.678  1.00  0.00     0.160 A 
ATOM     18  C   UNL     1      92.746  79.587  84.781  1.00  0.00     0.050 A 
ATOM     19  C   UNL     1      91.361  79.715  84.670  1.00  0.00     0.157 A 
BRANCH  17  20
ATOM     20  O   UNL     1      89.424  81.119  84.571  1.00  0.00    -0.493 OA
ATOM     21  C   UNL     1      88.905  82.448  84.578  1.00  0.00     0.278 C 
ENDBRANCH  17  20
BRANCH  19  22
ATOM     22  O   UNL     1      90.592  78.597  84.553  1.00  0.00    -0.504 OA
ATOM     23  H   UNL     1      90.868  78.104  83.762  1.00  0.00     0.293 HD
ENDBRANCH  19  22
ENDBRANCH  13  14
ENDBRANCH  12  13
ENDBRANCH  10  12
ENDBRANCH   1  10
TORSDOF 12
ENDMDL
MODEL 9
REMARK VINA RESULT:    -5.433     13.460     17.010
REMARK INTER + INTRA:          -9.632
REMARK INTER:                  -8.853
REMARK INTRA:                  -0.779
REMARK UNBOUND:                -0.705
REMARK SMILES CCCCC[C@H](O)CC(=O)CCc1ccc(O)c(OC)c1
REMARK SMILES IDX 8 1 6 2 7 3 5 5 4 6 3 7 2 8 1 9 9 10 10 11 11 12 12 13 13 14
REMARK SMILES IDX 21 15 14 16 18 17 15 18 16 19 19 20 20 21 17 22
REMARK H PARENT 7 4 17 23
REMARK Flexibility Score: inf
ROOT
ATOM      1  C   UNL     1      95.442  99.091  74.202  1.00  0.00     0.107 C 
ENDROOT
BRANCH   1   2
ATOM      2  C   UNL     1      94.056  99.500  73.696  1.00  0.00     0.121 C 
BRANCH   2   3
ATOM      3  O   UNL     1      93.980 100.919  73.588  1.00  0.00    -0.393 OA
ATOM      4  H   UNL     1      93.854 101.139  72.648  1.00  0.00     0.210 HD
ENDBRANCH   2   3
BRANCH   2   5
ATOM      5  C   UNL     1      93.701  98.870  72.344  1.00  0.00     0.032 C 
BRANCH   5   6
ATOM      6  C   UNL     1      94.005  99.812  71.172  1.00  0.00     0.003 C 
BRANCH   6   7
ATOM      7  C   UNL     1      92.772 100.149  70.328  1.00  0.00    -0.000 C 
BRANCH   7   8
ATOM      8  C   UNL     1      91.500 100.342  71.153  1.00  0.00    -0.003 C 
ATOM      9  C   UNL     1      90.285  99.769  70.440  1.00  0.00     0.004 C 
ENDBRANCH   7   8
ENDBRANCH   6   7
ENDBRANCH   5   6
ENDBRANCH   2   5
ENDBRANCH   1   2
BRANCH   1  10
ATOM     10  C   UNL     1      95.387  98.099  75.352  1.00  0.00     0.135 C 
ATOM     11  O   UNL     1      96.389  97.854  76.024  1.00  0.00    -0.300 OA
BRANCH  10  12
ATOM     12  C   UNL     1      94.034  97.472  75.649  1.00  0.00     0.080 C 
BRANCH  12  13
ATOM     13  C   UNL     1      93.868  96.066  75.070  1.00  0.00     0.043 C 
BRANCH  13  14
ATOM     14  C   UNL     1      92.815  95.252  75.784  1.00  0.00    -0.044 A 
ATOM     15  C   UNL     1      91.916  94.477  75.052  1.00  0.00     0.054 A 
ATOM     16  C   UNL     1      92.742  95.276  77.177  1.00  0.00     0.008 A 
ATOM     17  C   UNL     1      90.945  93.725  75.713  1.00  0.00     0.160 A 
ATOM     18  C   UNL     1      91.770  94.525  77.838  1.00  0.00     0.050 A 
ATOM     19  C   UNL     1      90.872  93.749  77.106  1.00  0.00     0.157 A 
BRANCH  17  20
ATOM     20  O   UNL     1      90.072  92.972  74.987  1.00  0.00    -0.493 OA
ATOM     21  C   UNL     1      90.531  91.697  74.542  1.00  0.00     0.278 C 
ENDBRANCH  17  20
BRANCH  19  22
ATOM     22  O   UNL     1      89.927  93.019  77.762  1.00  0.00    -0.504 OA
ATOM     23  H   UNL     1      89.118  93.552  77.848  1.00  0.00     0.293 HD
ENDBRANCH  19  22
ENDBRANCH  13  14
ENDBRANCH  12  13
ENDBRANCH  10  12
ENDBRANCH   1  10
TORSDOF 12
ENDMDL
MODEL 10
REMARK VINA RESULT:    -5.401     23.273     25.655
REMARK INTER + INTRA:          -9.580
REMARK INTER:                  -7.603
REMARK INTRA:                  -1.977
REMARK UNBOUND:                -0.705
REMARK SMILES CCCCC[C@H](O)CC(=O)CCc1ccc(O)c(OC)c1
REMARK SMILES IDX 8 1 6 2 7 3 5 5 4 6 3 7 2 8 1 9 9 10 10 11 11 12 12 13 13 14
REMARK SMILES IDX 21 15 14 16 18 17 15 18 16 19 19 20 20 21 17 22
REMARK H PARENT 7 4 17 23
REMARK Flexibility Score: inf
ROOT
ATOM      1  C   UNL     1      75.692  84.054  66.345  1.00  0.00     0.107 C 
ENDROOT
BRANCH   1   2
ATOM      2  C   UNL     1      75.754  85.002  65.144  1.00  0.00     0.121 C 
BRANCH   2   3
ATOM      3  O   UNL     1      75.554  84.268  63.939  1.00  0.00    -0.393 OA
ATOM      4  H   UNL     1      76.427  83.992  63.610  1.00  0.00     0.210 HD
ENDBRANCH   2   3
BRANCH   2   5
ATOM      5  C   UNL     1      74.724  86.136  65.221  1.00  0.00     0.032 C 
BRANCH   5   6
ATOM      6  C   UNL     1      73.373  85.653  65.763  1.00  0.00     0.003 C 
BRANCH   6   7
ATOM      7  C   UNL     1      72.868  86.474  66.953  1.00  0.00    -0.000 C 
BRANCH   7   8
ATOM      8  C   UNL     1      72.937  85.729  68.284  1.00  0.00    -0.003 C 
ATOM      9  C   UNL     1      71.621  85.033  68.599  1.00  0.00     0.004 C 
ENDBRANCH   7   8
ENDBRANCH   6   7
ENDBRANCH   5   6
ENDBRANCH   2   5
ENDBRANCH   1   2
BRANCH   1  10
ATOM     10  C   UNL     1      76.808  84.292  67.349  1.00  0.00     0.135 C 
ATOM     11  O   UNL     1      77.982  84.068  67.055  1.00  0.00    -0.300 OA
BRANCH  10  12
ATOM     12  C   UNL     1      76.401  84.857  68.701  1.00  0.00     0.080 C 
BRANCH  12  13
ATOM     13  C   UNL     1      77.209  86.085  69.123  1.00  0.00     0.043 C 
BRANCH  13  14
ATOM     14  C   UNL     1      76.714  87.365  68.492  1.00  0.00    -0.044 A 
ATOM     15  C   UNL     1      75.684  88.087  69.095  1.00  0.00     0.054 A 
ATOM     16  C   UNL     1      77.288  87.826  67.307  1.00  0.00     0.008 A 
ATOM     17  C   UNL     1      75.228  89.270  68.512  1.00  0.00     0.160 A 
ATOM     18  C   UNL     1      76.832  89.008  66.724  1.00  0.00     0.050 A 
ATOM     19  C   UNL     1      75.801  89.730  67.327  1.00  0.00     0.157 A 
BRANCH  17  20
ATOM     20  O   UNL     1      74.220  89.966  69.110  1.00  0.00    -0.493 OA
ATOM     21  C   UNL     1      72.890  89.502  68.884  1.00  0.00     0.278 C 
ENDBRANCH  17  20
BRANCH  19  22
ATOM     22  O   UNL     1      75.365  90.883  66.748  1.00  0.00    -0.504 OA
ATOM     23  H   UNL     1      76.130  91.453  66.560  1.00  0.00     0.293 HD
ENDBRANCH  19  22
ENDBRANCH  13  14
ENDBRANCH  12  13
ENDBRANCH  10  12
ENDBRANCH   1  10
TORSDOF 12
ENDMDL
