MODEL 1
REMARK VINA RESULT:    -6.529      0.000      0.000
REMARK INTER + INTRA:         -11.292
REMARK INTER:                 -10.155
REMARK INTRA:                  -1.137
REMARK UNBOUND:                -1.137
REMARK SMILES COc1cc(CNC(=O)CCCC/C=C/C(C)C)ccc1O
REMARK SMILES IDX 10 1 8 2 7 3 9 5 6 6 5 7 3 8 21 9 4 10 20 11 19 12 2 13 1 14
REMARK SMILES IDX 22 15 11 17 12 18 13 19 14 20 15 21 16 22 17 23 18 24
REMARK H PARENT 7 4 22 16
REMARK Flexibility Score: inf
ROOT
ATOM      1  C   UNL     1      95.803  97.575  74.688  1.00  0.00     0.100 C 
ENDROOT
BRANCH   1   2
ATOM      2  C   UNL     1      96.946  97.308  75.582  1.00  0.00     0.220 C 
ATOM      3  N   UNL     1      96.761  96.658  76.766  1.00  0.00    -0.352 N 
ATOM      4  H   UNL     1      95.803  96.412  76.971  1.00  0.00     0.163 HD
ATOM      5  O   UNL     1      98.087  97.674  75.210  1.00  0.00    -0.275 OA
BRANCH   3   6
ATOM      6  C   UNL     1      97.802  96.324  77.684  1.00  0.00     0.151 C 
BRANCH   6   7
ATOM      7  C   UNL     1      97.298  95.473  78.796  1.00  0.00    -0.025 A 
ATOM      8  C   UNL     1      97.725  94.161  80.835  1.00  0.00     0.160 A 
ATOM      9  C   UNL     1      96.350  93.865  80.934  1.00  0.00     0.157 A 
ATOM     10  C   UNL     1      98.186  94.959  79.767  1.00  0.00     0.056 A 
ATOM     11  C   UNL     1      95.455  94.354  79.962  1.00  0.00     0.050 A 
ATOM     12  C   UNL     1      95.923  95.160  78.906  1.00  0.00     0.009 A 
BRANCH   8  13
ATOM     13  O   UNL     1      98.610  93.633  81.741  1.00  0.00    -0.493 OA
ATOM     14  C   UNL     1      99.205  94.608  82.617  1.00  0.00     0.278 C 
ENDBRANCH   8  13
BRANCH   9  15
ATOM     15  O   UNL     1      95.872  93.110  81.957  1.00  0.00    -0.504 OA
ATOM     16  H   UNL     1      95.632  93.680  82.691  1.00  0.00     0.293 HD
ENDBRANCH   9  15
ENDBRANCH   6   7
ENDBRANCH   3   6
ENDBRANCH   1   2
BRANCH   1  17
ATOM     17  C   UNL     1      95.449  96.335  73.825  1.00  0.00     0.010 C 
BRANCH  17  18
ATOM     18  C   UNL     1      94.439  95.381  74.522  1.00  0.00     0.005 C 
BRANCH  18  19
ATOM     19  C   UNL     1      93.407  96.147  75.392  1.00  0.00     0.027 C 
BRANCH  19  20
ATOM     20  C   UNL     1      92.906  95.335  76.490  1.00  0.00    -0.031 C 
ATOM     21  C   UNL     1      91.785  94.592  76.432  1.00  0.00    -0.028 C 
BRANCH  21  22
ATOM     22  C   UNL     1      91.311  93.767  77.542  1.00  0.00     0.005 C 
ATOM     23  C   UNL     1      90.415  92.592  77.062  1.00  0.00     0.012 C 
ATOM     24  C   UNL     1      92.512  93.244  78.373  1.00  0.00     0.012 C 
ENDBRANCH  21  22
ENDBRANCH  19  20
ENDBRANCH  18  19
ENDBRANCH  17  18
ENDBRANCH   1  17
TORSDOF 10
ENDMDL
MODEL 2
REMARK VINA RESULT:    -5.848     12.936     14.474
REMARK INTER + INTRA:         -10.232
REMARK INTER:                  -9.402
REMARK INTRA:                  -0.830
REMARK UNBOUND:                -1.137
REMARK SMILES COc1cc(CNC(=O)CCCC/C=C/C(C)C)ccc1O
REMARK SMILES IDX 10 1 8 2 7 3 9 5 6 6 5 7 3 8 21 9 4 10 20 11 19 12 2 13 1 14
REMARK SMILES IDX 22 15 11 17 12 18 13 19 14 20 15 21 16 22 17 23 18 24
REMARK H PARENT 7 4 22 16
REMARK Flexibility Score: inf
ROOT
ATOM      1  C   UNL     1      97.637  80.571  77.344  1.00  0.00     0.100 C 
ENDROOT
BRANCH   1   2
ATOM      2  C   UNL     1      97.694  79.926  78.670  1.00  0.00     0.220 C 
ATOM      3  N   UNL     1      97.421  80.639  79.798  1.00  0.00    -0.352 N 
ATOM      4  H   UNL     1      97.211  81.616  79.644  1.00  0.00     0.163 HD
ATOM      5  O   UNL     1      97.975  78.704  78.722  1.00  0.00    -0.275 OA
BRANCH   3   6
ATOM      6  C   UNL     1      97.417  80.103  81.121  1.00  0.00     0.151 C 
BRANCH   6   7
ATOM      7  C   UNL     1      96.673  80.981  82.065  1.00  0.00    -0.025 A 
ATOM      8  C   UNL     1      95.207  81.238  84.026  1.00  0.00     0.160 A 
ATOM      9  C   UNL     1      95.262  82.640  83.885  1.00  0.00     0.157 A 
ATOM     10  C   UNL     1      95.909  80.422  83.115  1.00  0.00     0.056 A 
ATOM     11  C   UNL     1      96.003  83.211  82.831  1.00  0.00     0.050 A 
ATOM     12  C   UNL     1      96.712  82.388  81.933  1.00  0.00     0.009 A 
BRANCH   8  13
ATOM     13  O   UNL     1      94.434  80.676  85.010  1.00  0.00    -0.493 OA
ATOM     14  C   UNL     1      95.172  80.272  86.178  1.00  0.00     0.278 C 
ENDBRANCH   8  13
BRANCH   9  15
ATOM     15  O   UNL     1      94.608  83.454  84.753  1.00  0.00    -0.504 OA
ATOM     16  H   UNL     1      94.085  84.092  84.262  1.00  0.00     0.293 HD
ENDBRANCH   9  15
ENDBRANCH   6   7
ENDBRANCH   3   6
ENDBRANCH   1   2
BRANCH   1  17
ATOM     17  C   UNL     1      97.295  82.081  77.456  1.00  0.00     0.010 C 
BRANCH  17  18
ATOM     18  C   UNL     1      95.868  82.417  76.937  1.00  0.00     0.005 C 
BRANCH  18  19
ATOM     19  C   UNL     1      95.861  83.636  75.976  1.00  0.00     0.027 C 
BRANCH  19  20
ATOM     20  C   UNL     1      96.882  83.525  74.945  1.00  0.00    -0.031 C 
ATOM     21  C   UNL     1      97.041  82.451  74.150  1.00  0.00    -0.028 C 
BRANCH  21  22
ATOM     22  C   UNL     1      98.062  82.370  73.106  1.00  0.00     0.005 C 
ATOM     23  C   UNL     1      98.993  83.614  73.093  1.00  0.00     0.012 C 
ATOM     24  C   UNL     1      98.886  81.065  73.263  1.00  0.00     0.012 C 
ENDBRANCH  21  22
ENDBRANCH  19  20
ENDBRANCH  18  19
ENDBRANCH  17  18
ENDBRANCH   1  17
TORSDOF 10
ENDMDL
MODEL 3
REMARK VINA RESULT:    -5.755      7.145     11.005
REMARK INTER + INTRA:         -10.088
REMARK INTER:                  -9.416
REMARK INTRA:                  -0.672
REMARK UNBOUND:                -1.137
REMARK SMILES COc1cc(CNC(=O)CCCC/C=C/C(C)C)ccc1O
REMARK SMILES IDX 10 1 8 2 7 3 9 5 6 6 5 7 3 8 21 9 4 10 20 11 19 12 2 13 1 14
REMARK SMILES IDX 22 15 11 17 12 18 13 19 14 20 15 21 16 22 17 23 18 24
REMARK H PARENT 7 4 22 16
REMARK Flexibility Score: inf
ROOT
ATOM      1  C   UNL     1      93.735 101.864  72.509  1.00  0.00     0.100 C 
ENDROOT
BRANCH   1   2
ATOM      2  C   UNL     1      92.323 102.049  72.123  1.00  0.00     0.220 C 
ATOM      3  N   UNL     1      91.623 101.029  71.553  1.00  0.00    -0.352 N 
ATOM      4  H   UNL     1      92.150 100.180  71.405  1.00  0.00     0.163 HD
ATOM      5  O   UNL     1      91.786 103.159  72.357  1.00  0.00    -0.275 OA
BRANCH   3   6
ATOM      6  C   UNL     1      90.247 101.096  71.174  1.00  0.00     0.151 C 
BRANCH   6   7
ATOM      7  C   UNL     1      89.900 100.037  70.188  1.00  0.00    -0.025 A 
ATOM      8  C   UNL     1      89.125  99.391  67.942  1.00  0.00     0.160 A 
ATOM      9  C   UNL     1      89.252  98.030  68.288  1.00  0.00     0.157 A 
ATOM     10  C   UNL     1      89.447 100.381  68.894  1.00  0.00     0.056 A 
ATOM     11  C   UNL     1      89.684  97.672  69.581  1.00  0.00     0.050 A 
ATOM     12  C   UNL     1      90.015  98.667  70.521  1.00  0.00     0.009 A 
BRANCH   8  13
ATOM     13  O   UNL     1      88.642  99.745  66.707  1.00  0.00    -0.493 OA
ATOM     14  C   UNL     1      87.247 100.100  66.702  1.00  0.00     0.278 C 
ENDBRANCH   8  13
BRANCH   9  15
ATOM     15  O   UNL     1      88.962  97.053  67.390  1.00  0.00    -0.504 OA
ATOM     16  H   UNL     1      88.688  97.451  66.561  1.00  0.00     0.293 HD
ENDBRANCH   9  15
ENDBRANCH   6   7
ENDBRANCH   3   6
ENDBRANCH   1   2
BRANCH   1  17
ATOM     17  C   UNL     1      93.877 100.907  73.723  1.00  0.00     0.010 C 
BRANCH  17  18
ATOM     18  C   UNL     1      94.694  99.626  73.393  1.00  0.00     0.005 C 
BRANCH  18  19
ATOM     19  C   UNL     1      93.801  98.358  73.322  1.00  0.00     0.027 C 
BRANCH  19  20
ATOM     20  C   UNL     1      93.820  97.606  74.568  1.00  0.00    -0.031 C 
ATOM     21  C   UNL     1      93.520  96.298  74.666  1.00  0.00    -0.028 C 
BRANCH  21  22
ATOM     22  C   UNL     1      93.564  95.557  75.926  1.00  0.00     0.005 C 
ATOM     23  C   UNL     1      92.291  95.782  76.787  1.00  0.00     0.012 C 
ATOM     24  C   UNL     1      93.787  94.047  75.652  1.00  0.00     0.012 C 
ENDBRANCH  21  22
ENDBRANCH  19  20
ENDBRANCH  18  19
ENDBRANCH  17  18
ENDBRANCH   1  17
TORSDOF 10
ENDMDL
MODEL 4
REMARK VINA RESULT:    -5.734      7.184      9.999
REMARK INTER + INTRA:         -10.054
REMARK INTER:                  -9.082
REMARK INTRA:                  -0.973
REMARK UNBOUND:                -1.137
REMARK SMILES COc1cc(CNC(=O)CCCC/C=C/C(C)C)ccc1O
REMARK SMILES IDX 10 1 8 2 7 3 9 5 6 6 5 7 3 8 21 9 4 10 20 11 19 12 2 13 1 14
REMARK SMILES IDX 22 15 11 17 12 18 13 19 14 20 15 21 16 22 17 23 18 24
REMARK H PARENT 7 4 22 16
REMARK Flexibility Score: inf
ROOT
ATOM      1  C   UNL     1      89.937 100.275  70.868  1.00  0.00     0.100 C 
ENDROOT
BRANCH   1   2
ATOM      2  C   UNL     1      91.336 100.666  71.127  1.00  0.00     0.220 C 
ATOM      3  N   UNL     1      92.124  99.915  71.947  1.00  0.00    -0.352 N 
ATOM      4  H   UNL     1      91.667  99.114  72.361  1.00  0.00     0.163 HD
ATOM      5  O   UNL     1      91.781 101.690  70.554  1.00  0.00    -0.275 OA
BRANCH   3   6
ATOM      6  C   UNL     1      93.495 100.189  72.236  1.00  0.00     0.151 C 
BRANCH   6   7
ATOM      7  C   UNL     1      94.378  99.070  71.808  1.00  0.00    -0.025 A 
ATOM      8  C   UNL     1      95.580  96.986  72.333  1.00  0.00     0.160 A 
ATOM      9  C   UNL     1      96.045  96.918  71.003  1.00  0.00     0.157 A 
ATOM     10  C   UNL     1      94.754  98.061  72.723  1.00  0.00     0.056 A 
ATOM     11  C   UNL     1      95.694  97.927  70.084  1.00  0.00     0.050 A 
ATOM     12  C   UNL     1      94.860  98.991  70.480  1.00  0.00     0.009 A 
BRANCH   8  13
ATOM     13  O   UNL     1      95.972  96.042  73.247  1.00  0.00    -0.493 OA
ATOM     14  C   UNL     1      94.988  95.763  74.261  1.00  0.00     0.278 C 
ENDBRANCH   8  13
BRANCH   9  15
ATOM     15  O   UNL     1      96.831  95.890  70.592  1.00  0.00    -0.504 OA
ATOM     16  H   UNL     1      96.950  95.269  71.314  1.00  0.00     0.293 HD
ENDBRANCH   9  15
ENDBRANCH   6   7
ENDBRANCH   3   6
ENDBRANCH   1   2
BRANCH   1  17
ATOM     17  C   UNL     1      89.831  98.795  70.411  1.00  0.00     0.010 C 
BRANCH  17  18
ATOM     18  C   UNL     1      90.580  98.520  69.077  1.00  0.00     0.005 C 
BRANCH  18  19
ATOM     19  C   UNL     1      89.635  97.982  67.969  1.00  0.00     0.027 C 
BRANCH  19  20
ATOM     20  C   UNL     1      88.512  98.875  67.726  1.00  0.00    -0.031 C 
ATOM     21  C   UNL     1      88.630 100.119  67.226  1.00  0.00    -0.028 C 
BRANCH  21  22
ATOM     22  C   UNL     1      87.486 100.993  66.971  1.00  0.00     0.005 C 
ATOM     23  C   UNL     1      87.891 102.290  66.218  1.00  0.00     0.012 C 
ATOM     24  C   UNL     1      86.386 100.224  66.195  1.00  0.00     0.012 C 
ENDBRANCH  21  22
ENDBRANCH  19  20
ENDBRANCH  18  19
ENDBRANCH  17  18
ENDBRANCH   1  17
TORSDOF 10
ENDMDL
MODEL 5
REMARK VINA RESULT:    -5.651     13.348     14.897
REMARK INTER + INTRA:          -9.926
REMARK INTER:                  -9.093
REMARK INTRA:                  -0.833
REMARK UNBOUND:                -1.137
REMARK SMILES COc1cc(CNC(=O)CCCC/C=C/C(C)C)ccc1O
REMARK SMILES IDX 10 1 8 2 7 3 9 5 6 6 5 7 3 8 21 9 4 10 20 11 19 12 2 13 1 14
REMARK SMILES IDX 22 15 11 17 12 18 13 19 14 20 15 21 16 22 17 23 18 24
REMARK H PARENT 7 4 22 16
REMARK Flexibility Score: inf
ROOT
ATOM      1  C   UNL     1      96.303  82.515  77.552  1.00  0.00     0.100 C 
ENDROOT
BRANCH   1   2
ATOM      2  C   UNL     1      96.474  83.077  76.198  1.00  0.00     0.220 C 
ATOM      3  N   UNL     1      97.596  82.804  75.473  1.00  0.00    -0.352 N 
ATOM      4  H   UNL     1      98.278  82.226  75.945  1.00  0.00     0.163 HD
ATOM      5  O   UNL     1      95.552  83.787  75.730  1.00  0.00    -0.275 OA
BRANCH   3   6
ATOM      6  C   UNL     1      97.843  83.271  74.147  1.00  0.00     0.151 C 
BRANCH   6   7
ATOM      7  C   UNL     1      99.239  82.985  73.718  1.00  0.00    -0.025 A 
ATOM      8  C   UNL     1     101.067  83.267  72.092  1.00  0.00     0.160 A 
ATOM      9  C   UNL     1     101.905  82.465  72.894  1.00  0.00     0.157 A 
ATOM     10  C   UNL     1      99.743  83.517  72.510  1.00  0.00     0.056 A 
ATOM     11  C   UNL     1     101.410  81.911  74.092  1.00  0.00     0.050 A 
ATOM     12  C   UNL     1     100.091  82.176  74.506  1.00  0.00     0.009 A 
BRANCH   8  13
ATOM     13  O   UNL     1     101.523  83.754  70.894  1.00  0.00    -0.493 OA
ATOM     14  C   UNL     1     101.287  82.878  69.776  1.00  0.00     0.278 C 
ENDBRANCH   8  13
BRANCH   9  15
ATOM     15  O   UNL     1     103.189  82.215  72.528  1.00  0.00    -0.504 OA
ATOM     16  H   UNL     1     103.563  81.545  73.105  1.00  0.00     0.293 HD
ENDBRANCH   9  15
ENDBRANCH   6   7
ENDBRANCH   3   6
ENDBRANCH   1   2
BRANCH   1  17
ATOM     17  C   UNL     1      97.605  81.843  78.062  1.00  0.00     0.010 C 
BRANCH  17  18
ATOM     18  C   UNL     1      97.468  80.303  78.225  1.00  0.00     0.005 C 
BRANCH  18  19
ATOM     19  C   UNL     1      97.864  79.821  79.646  1.00  0.00     0.027 C 
BRANCH  19  20
ATOM     20  C   UNL     1      97.496  80.784  80.673  1.00  0.00    -0.031 C 
ATOM     21  C   UNL     1      96.873  80.463  81.822  1.00  0.00    -0.028 C 
BRANCH  21  22
ATOM     22  C   UNL     1      96.529  81.446  82.850  1.00  0.00     0.005 C 
ATOM     23  C   UNL     1      96.263  82.855  82.252  1.00  0.00     0.012 C 
ATOM     24  C   UNL     1      95.311  80.955  83.674  1.00  0.00     0.012 C 
ENDBRANCH  21  22
ENDBRANCH  19  20
ENDBRANCH  18  19
ENDBRANCH  17  18
ENDBRANCH   1  17
TORSDOF 10
ENDMDL
MODEL 6
REMARK VINA RESULT:    -5.633     13.102     14.907
REMARK INTER + INTRA:          -9.898
REMARK INTER:                  -9.158
REMARK INTRA:                  -0.741
REMARK UNBOUND:                -1.137
REMARK SMILES COc1cc(CNC(=O)CCCC/C=C/C(C)C)ccc1O
REMARK SMILES IDX 10 1 8 2 7 3 9 5 6 6 5 7 3 8 21 9 4 10 20 11 19 12 2 13 1 14
REMARK SMILES IDX 22 15 11 17 12 18 13 19 14 20 15 21 16 22 17 23 18 24
REMARK H PARENT 7 4 22 16
REMARK Flexibility Score: inf
ROOT
ATOM      1  C   UNL     1      97.179  82.050  78.599  1.00  0.00     0.100 C 
ENDROOT
BRANCH   1   2
ATOM      2  C   UNL     1      96.638  82.012  77.226  1.00  0.00     0.220 C 
ATOM      3  N   UNL     1      96.692  83.116  76.431  1.00  0.00    -0.352 N 
ATOM      4  H   UNL     1      97.097  83.935  76.864  1.00  0.00     0.163 HD
ATOM      5  O   UNL     1      96.154  80.931  76.811  1.00  0.00    -0.275 OA
BRANCH   3   6
ATOM      6  C   UNL     1      96.227  83.173  75.082  1.00  0.00     0.151 C 
BRANCH   6   7
ATOM      7  C   UNL     1      97.274  82.726  74.123  1.00  0.00    -0.025 A 
ATOM      8  C   UNL     1      99.327  83.190  72.844  1.00  0.00     0.160 A 
ATOM      9  C   UNL     1      99.291  81.884  72.313  1.00  0.00     0.157 A 
ATOM     10  C   UNL     1      98.318  83.599  73.742  1.00  0.00     0.056 A 
ATOM     11  C   UNL     1      98.246  81.009  72.669  1.00  0.00     0.050 A 
ATOM     12  C   UNL     1      97.250  81.423  73.575  1.00  0.00     0.009 A 
BRANCH   8  13
ATOM     13  O   UNL     1     100.305  84.067  72.450  1.00  0.00    -0.493 OA
ATOM     14  C   UNL     1     101.449  84.102  73.323  1.00  0.00     0.278 C 
ENDBRANCH   8  13
BRANCH   9  15
ATOM     15  O   UNL     1     100.254  81.455  71.456  1.00  0.00    -0.504 OA
ATOM     16  H   UNL     1     100.360  80.505  71.544  1.00  0.00     0.293 HD
ENDBRANCH   9  15
ENDBRANCH   6   7
ENDBRANCH   3   6
ENDBRANCH   1   2
BRANCH   1  17
ATOM     17  C   UNL     1      97.865  80.711  78.982  1.00  0.00     0.010 C 
BRANCH  17  18
ATOM     18  C   UNL     1      98.121  80.579  80.510  1.00  0.00     0.005 C 
BRANCH  18  19
ATOM     19  C   UNL     1      97.029  79.735  81.221  1.00  0.00     0.027 C 
BRANCH  19  20
ATOM     20  C   UNL     1      96.571  80.360  82.452  1.00  0.00    -0.031 C 
ATOM     21  C   UNL     1      96.283  81.669  82.574  1.00  0.00    -0.028 C 
BRANCH  21  22
ATOM     22  C   UNL     1      95.804  82.272  83.818  1.00  0.00     0.005 C 
ATOM     23  C   UNL     1      95.711  83.821  83.723  1.00  0.00     0.012 C 
ATOM     24  C   UNL     1      94.437  81.659  84.220  1.00  0.00     0.012 C 
ENDBRANCH  21  22
ENDBRANCH  19  20
ENDBRANCH  18  19
ENDBRANCH  17  18
ENDBRANCH   1  17
TORSDOF 10
ENDMDL
MODEL 7
REMARK VINA RESULT:    -5.610      2.376      4.785
REMARK INTER + INTRA:          -9.863
REMARK INTER:                  -8.927
REMARK INTRA:                  -0.936
REMARK UNBOUND:                -1.137
REMARK SMILES COc1cc(CNC(=O)CCCC/C=C/C(C)C)ccc1O
REMARK SMILES IDX 10 1 8 2 7 3 9 5 6 6 5 7 3 8 21 9 4 10 20 11 19 12 2 13 1 14
REMARK SMILES IDX 22 15 11 17 12 18 13 19 14 20 15 21 16 22 17 23 18 24
REMARK H PARENT 7 4 22 16
REMARK Flexibility Score: inf
ROOT
ATOM      1  C   UNL     1      92.466  93.567  76.064  1.00  0.00     0.100 C 
ENDROOT
BRANCH   1   2
ATOM      2  C   UNL     1      92.820  93.397  77.486  1.00  0.00     0.220 C 
ATOM      3  N   UNL     1      94.125  93.389  77.878  1.00  0.00    -0.352 N 
ATOM      4  H   UNL     1      94.796  93.483  77.129  1.00  0.00     0.163 HD
ATOM      5  O   UNL     1      91.888  93.284  78.319  1.00  0.00    -0.275 OA
BRANCH   3   6
ATOM      6  C   UNL     1      94.570  93.263  79.229  1.00  0.00     0.151 C 
BRANCH   6   7
ATOM      7  C   UNL     1      95.570  94.309  79.575  1.00  0.00    -0.025 A 
ATOM      8  C   UNL     1      97.333  95.157  81.071  1.00  0.00     0.160 A 
ATOM      9  C   UNL     1      97.498  96.284  80.239  1.00  0.00     0.157 A 
ATOM     10  C   UNL     1      96.371  94.182  80.733  1.00  0.00     0.056 A 
ATOM     11  C   UNL     1      96.693  96.433  79.092  1.00  0.00     0.050 A 
ATOM     12  C   UNL     1      95.743  95.449  78.756  1.00  0.00     0.009 A 
BRANCH   8  13
ATOM     13  O   UNL     1      98.067  95.039  82.224  1.00  0.00    -0.493 OA
ATOM     14  C   UNL     1      98.988  93.933  82.223  1.00  0.00     0.278 C 
ENDBRANCH   8  13
BRANCH   9  15
ATOM     15  O   UNL     1      98.424  97.233  80.529  1.00  0.00    -0.504 OA
ATOM     16  H   UNL     1      99.303  96.855  80.460  1.00  0.00     0.293 HD
ENDBRANCH   9  15
ENDBRANCH   6   7
ENDBRANCH   3   6
ENDBRANCH   1   2
BRANCH   1  17
ATOM     17  C   UNL     1      92.918  94.951  75.524  1.00  0.00     0.010 C 
BRANCH  17  18
ATOM     18  C   UNL     1      94.304  94.904  74.822  1.00  0.00     0.005 C 
BRANCH  18  19
ATOM     19  C   UNL     1      95.063  96.254  74.922  1.00  0.00     0.027 C 
BRANCH  19  20
ATOM     20  C   UNL     1      94.753  97.141  73.811  1.00  0.00    -0.031 C 
ATOM     21  C   UNL     1      93.858  98.144  73.871  1.00  0.00    -0.028 C 
BRANCH  21  22
ATOM     22  C   UNL     1      93.576  99.036  72.747  1.00  0.00     0.005 C 
ATOM     23  C   UNL     1      93.404 100.514  73.196  1.00  0.00     0.012 C 
ATOM     24  C   UNL     1      94.686  98.910  71.671  1.00  0.00     0.012 C 
ENDBRANCH  21  22
ENDBRANCH  19  20
ENDBRANCH  18  19
ENDBRANCH  17  18
ENDBRANCH   1  17
TORSDOF 10
ENDMDL
MODEL 8
REMARK VINA RESULT:    -5.538     13.243     14.886
REMARK INTER + INTRA:          -9.750
REMARK INTER:                  -9.218
REMARK INTRA:                  -0.533
REMARK UNBOUND:                -1.137
REMARK SMILES COc1cc(CNC(=O)CCCC/C=C/C(C)C)ccc1O
REMARK SMILES IDX 10 1 8 2 7 3 9 5 6 6 5 7 3 8 21 9 4 10 20 11 19 12 2 13 1 14
REMARK SMILES IDX 22 15 11 17 12 18 13 19 14 20 15 21 16 22 17 23 18 24
REMARK H PARENT 7 4 22 16
REMARK Flexibility Score: inf
ROOT
ATOM      1  C   UNL     1      96.533  81.547  77.345  1.00  0.00     0.100 C 
ENDROOT
BRANCH   1   2
ATOM      2  C   UNL     1      96.512  82.593  76.304  1.00  0.00     0.220 C 
ATOM      3  N   UNL     1      97.485  82.639  75.351  1.00  0.00    -0.352 N 
ATOM      4  H   UNL     1      98.203  81.933  75.440  1.00  0.00     0.163 HD
ATOM      5  O   UNL     1      95.565  83.416  76.310  1.00  0.00    -0.275 OA
BRANCH   3   6
ATOM      6  C   UNL     1      97.538  83.587  74.285  1.00  0.00     0.151 C 
BRANCH   6   7
ATOM      7  C   UNL     1      98.638  83.277  73.331  1.00  0.00    -0.025 A 
ATOM      8  C   UNL     1      99.945  81.627  72.054  1.00  0.00     0.160 A 
ATOM      9  C   UNL     1     100.718  82.669  71.499  1.00  0.00     0.157 A 
ATOM     10  C   UNL     1      98.915  81.941  72.965  1.00  0.00     0.056 A 
ATOM     11  C   UNL     1     100.466  84.004  71.870  1.00  0.00     0.050 A 
ATOM     12  C   UNL     1      99.428  84.308  72.772  1.00  0.00     0.009 A 
BRANCH   8  13
ATOM     13  O   UNL     1     100.230  80.321  71.747  1.00  0.00    -0.493 OA
ATOM     14  C   UNL     1     101.228  79.723  72.595  1.00  0.00     0.278 C 
ENDBRANCH   8  13
BRANCH   9  15
ATOM     15  O   UNL     1     101.709  82.402  70.609  1.00  0.00    -0.504 OA
ATOM     16  H   UNL     1     101.513  82.832  69.773  1.00  0.00     0.293 HD
ENDBRANCH   9  15
ENDBRANCH   6   7
ENDBRANCH   3   6
ENDBRANCH   1   2
BRANCH   1  17
ATOM     17  C   UNL     1      97.600  81.844  78.433  1.00  0.00     0.010 C 
BRANCH  17  18
ATOM     18  C   UNL     1      96.975  82.195  79.813  1.00  0.00     0.005 C 
BRANCH  18  19
ATOM     19  C   UNL     1      97.324  81.146  80.903  1.00  0.00     0.027 C 
BRANCH  19  20
ATOM     20  C   UNL     1      96.531  81.326  82.110  1.00  0.00    -0.031 C 
ATOM     21  C   UNL     1      96.703  82.335  82.984  1.00  0.00    -0.028 C 
BRANCH  21  22
ATOM     22  C   UNL     1      95.881  82.508  84.181  1.00  0.00     0.005 C 
ATOM     23  C   UNL     1      95.461  83.989  84.398  1.00  0.00     0.012 C 
ATOM     24  C   UNL     1      94.638  81.584  84.116  1.00  0.00     0.012 C 
ENDBRANCH  21  22
ENDBRANCH  19  20
ENDBRANCH  18  19
ENDBRANCH  17  18
ENDBRANCH   1  17
TORSDOF 10
ENDMDL
MODEL 9
REMARK VINA RESULT:    -5.535      2.962      5.266
REMARK INTER + INTRA:          -9.746
REMARK INTER:                  -8.792
REMARK INTRA:                  -0.954
REMARK UNBOUND:                -1.137
REMARK SMILES COc1cc(CNC(=O)CCCC/C=C/C(C)C)ccc1O
REMARK SMILES IDX 10 1 8 2 7 3 9 5 6 6 5 7 3 8 21 9 4 10 20 11 19 12 2 13 1 14
REMARK SMILES IDX 22 15 11 17 12 18 13 19 14 20 15 21 16 22 17 23 18 24
REMARK H PARENT 7 4 22 16
REMARK Flexibility Score: inf
ROOT
ATOM      1  C   UNL     1      94.904  93.059  79.077  1.00  0.00     0.100 C 
ENDROOT
BRANCH   1   2
ATOM      2  C   UNL     1      95.363  93.656  80.346  1.00  0.00     0.220 C 
ATOM      3  N   UNL     1      95.523  95.004  80.458  1.00  0.00    -0.352 N 
ATOM      4  H   UNL     1      95.328  95.528  79.616  1.00  0.00     0.163 HD
ATOM      5  O   UNL     1      95.577  92.890  81.317  1.00  0.00    -0.275 OA
BRANCH   3   6
ATOM      6  C   UNL     1      95.930  95.681  81.648  1.00  0.00     0.151 C 
BRANCH   6   7
ATOM      7  C   UNL     1      96.387  97.068  81.358  1.00  0.00    -0.025 A 
ATOM      8  C   UNL     1      97.627  98.646  79.932  1.00  0.00     0.160 A 
ATOM      9  C   UNL     1      97.252  99.709  80.780  1.00  0.00     0.157 A 
ATOM     10  C   UNL     1      97.194  97.337  80.230  1.00  0.00     0.056 A 
ATOM     11  C   UNL     1      96.464  99.452  81.920  1.00  0.00     0.050 A 
ATOM     12  C   UNL     1      96.026  98.144  82.202  1.00  0.00     0.009 A 
BRANCH   8  13
ATOM     13  O   UNL     1      98.449  98.880  78.859  1.00  0.00    -0.493 OA
ATOM     14  C   UNL     1      97.873  98.521  77.590  1.00  0.00     0.278 C 
ENDBRANCH   8  13
BRANCH   9  15
ATOM     15  O   UNL     1      97.641 100.982  80.515  1.00  0.00    -0.504 OA
ATOM     16  H   UNL     1      98.059 101.358  81.292  1.00  0.00     0.293 HD
ENDBRANCH   9  15
ENDBRANCH   6   7
ENDBRANCH   3   6
ENDBRANCH   1   2
BRANCH   1  17
ATOM     17  C   UNL     1      93.920  93.996  78.327  1.00  0.00     0.010 C 
BRANCH  17  18
ATOM     18  C   UNL     1      92.631  93.265  77.854  1.00  0.00     0.005 C 
BRANCH  18  19
ATOM     19  C   UNL     1      92.467  93.297  76.311  1.00  0.00     0.027 C 
BRANCH  19  20
ATOM     20  C   UNL     1      93.475  94.128  75.670  1.00  0.00    -0.031 C 
ATOM     21  C   UNL     1      93.237  95.353  75.168  1.00  0.00    -0.028 C 
BRANCH  21  22
ATOM     22  C   UNL     1      94.271  96.179  74.545  1.00  0.00     0.005 C 
ATOM     23  C   UNL     1      93.727  97.565  74.097  1.00  0.00     0.012 C 
ATOM     24  C   UNL     1      95.477  96.343  75.505  1.00  0.00     0.012 C 
ENDBRANCH  21  22
ENDBRANCH  19  20
ENDBRANCH  18  19
ENDBRANCH  17  18
ENDBRANCH   1  17
TORSDOF 10
ENDMDL
MODEL 10
REMARK VINA RESULT:    -5.534     12.957     15.136
REMARK INTER + INTRA:          -9.745
REMARK INTER:                  -9.119
REMARK INTRA:                  -0.625
REMARK UNBOUND:                -1.137
REMARK SMILES COc1cc(CNC(=O)CCCC/C=C/C(C)C)ccc1O
REMARK SMILES IDX 10 1 8 2 7 3 9 5 6 6 5 7 3 8 21 9 4 10 20 11 19 12 2 13 1 14
REMARK SMILES IDX 22 15 11 17 12 18 13 19 14 20 15 21 16 22 17 23 18 24
REMARK H PARENT 7 4 22 16
REMARK Flexibility Score: inf
ROOT
ATOM      1  C   UNL     1      97.067  82.090  81.776  1.00  0.00     0.100 C 
ENDROOT
BRANCH   1   2
ATOM      2  C   UNL     1      96.251  81.141  82.557  1.00  0.00     0.220 C 
ATOM      3  N   UNL     1      95.580  81.558  83.668  1.00  0.00    -0.352 N 
ATOM      4  H   UNL     1      95.711  82.531  83.905  1.00  0.00     0.163 HD
ATOM      5  O   UNL     1      96.177  79.954  82.157  1.00  0.00    -0.275 OA
BRANCH   3   6
ATOM      6  C   UNL     1      94.741  80.728  84.472  1.00  0.00     0.151 C 
BRANCH   6   7
ATOM      7  C   UNL     1      93.685  81.521  85.159  1.00  0.00    -0.025 A 
ATOM      8  C   UNL     1      91.307  81.918  85.659  1.00  0.00     0.160 A 
ATOM      9  C   UNL     1      91.661  83.011  86.477  1.00  0.00     0.157 A 
ATOM     10  C   UNL     1      92.321  81.185  85.007  1.00  0.00     0.056 A 
ATOM     11  C   UNL     1      93.015  83.370  86.622  1.00  0.00     0.050 A 
ATOM     12  C   UNL     1      94.022  82.626  85.976  1.00  0.00     0.009 A 
BRANCH   8  13
ATOM     13  O   UNL     1      89.986  81.605  85.462  1.00  0.00    -0.493 OA
ATOM     14  C   UNL     1      89.742  80.797  84.295  1.00  0.00     0.278 C 
ENDBRANCH   8  13
BRANCH   9  15
ATOM     15  O   UNL     1      90.710  83.729  87.129  1.00  0.00    -0.504 OA
ATOM     16  H   UNL     1      90.872  84.666  87.002  1.00  0.00     0.293 HD
ENDBRANCH   9  15
ENDBRANCH   6   7
ENDBRANCH   3   6
ENDBRANCH   1   2
BRANCH   1  17
ATOM     17  C   UNL     1      96.687  82.067  80.270  1.00  0.00     0.010 C 
BRANCH  17  18
ATOM     18  C   UNL     1      97.854  81.592  79.359  1.00  0.00     0.005 C 
BRANCH  18  19
ATOM     19  C   UNL     1      97.401  80.520  78.331  1.00  0.00     0.027 C 
BRANCH  19  20
ATOM     20  C   UNL     1      97.204  81.084  77.004  1.00  0.00    -0.031 C 
ATOM     21  C   UNL     1      97.359  82.387  76.706  1.00  0.00    -0.028 C 
BRANCH  21  22
ATOM     22  C   UNL     1      97.175  82.929  75.360  1.00  0.00     0.005 C 
ATOM     23  C   UNL     1      96.930  81.815  74.304  1.00  0.00     0.012 C 
ATOM     24  C   UNL     1      96.019  83.963  75.352  1.00  0.00     0.012 C 
ENDBRANCH  21  22
ENDBRANCH  19  20
ENDBRANCH  18  19
ENDBRANCH  17  18
ENDBRANCH   1  17
TORSDOF 10
ENDMDL
