MODEL 1
REMARK VINA RESULT:    -6.712      0.000      0.000
REMARK INTER + INTRA:         -11.458
REMARK INTER:                 -10.440
REMARK INTRA:                  -1.018
REMARK UNBOUND:                -1.018
REMARK SMILES CCCCC/C=C/C(=O)CCc1ccc(O)c(OC)c1
REMARK SMILES IDX 6 1 7 2 8 3 9 4 10 5 11 6 12 7 17 8 20 9 15 10 14 11 13 12
REMARK SMILES IDX 18 13 19 14 16 15 5 17 4 18 3 19 2 20 1 21
REMARK H PARENT 16 16
REMARK Flexibility Score: inf
ROOT
ATOM      1  C   UNL     1      92.405  94.802  75.615  1.00  0.00    -0.023 C 
ATOM      2  C   UNL     1      91.752  94.407  76.714  1.00  0.00     0.043 C 
ENDROOT
BRANCH   2   3
ATOM      3  C   UNL     1      90.302  94.080  76.639  1.00  0.00     0.155 C 
ATOM      4  O   UNL     1      89.491  94.843  76.117  1.00  0.00    -0.295 OA
BRANCH   3   5
ATOM      5  C   UNL     1      89.867  92.780  77.286  1.00  0.00     0.085 C 
BRANCH   5   6
ATOM      6  C   UNL     1      90.632  91.589  76.708  1.00  0.00     0.044 C 
BRANCH   6   7
ATOM      7  C   UNL     1      90.605  91.550  75.198  1.00  0.00    -0.044 A 
ATOM      8  C   UNL     1      89.363  91.560  73.145  1.00  0.00     0.160 A 
ATOM      9  C   UNL     1      89.387  91.595  74.539  1.00  0.00     0.054 A 
ATOM     10  C   UNL     1      90.556  91.480  72.428  1.00  0.00     0.157 A 
ATOM     11  C   UNL     1      91.775  91.435  73.106  1.00  0.00     0.050 A 
ATOM     12  C   UNL     1      91.799  91.470  74.500  1.00  0.00     0.008 A 
BRANCH   8  13
ATOM     13  O   UNL     1      88.166  91.604  72.495  1.00  0.00    -0.493 OA
ATOM     14  C   UNL     1      87.148  90.715  72.950  1.00  0.00     0.278 C 
ENDBRANCH   8  13
BRANCH  10  15
ATOM     15  O   UNL     1      90.545  91.446  71.066  1.00  0.00    -0.504 OA
ATOM     16  H   UNL     1      90.204  90.580  70.786  1.00  0.00     0.293 HD
ENDBRANCH  10  15
ENDBRANCH   6   7
ENDBRANCH   5   6
ENDBRANCH   3   5
ENDBRANCH   2   3
BRANCH   1  17
ATOM     17  C   UNL     1      93.866  95.150  75.608  1.00  0.00     0.027 C 
BRANCH  17  18
ATOM     18  C   UNL     1      94.768  93.951  75.296  1.00  0.00     0.004 C 
BRANCH  18  19
ATOM     19  C   UNL     1      96.261  94.247  75.468  1.00  0.00     0.000 C 
BRANCH  19  20
ATOM     20  C   UNL     1      96.603  94.531  76.931  1.00  0.00    -0.003 C 
ATOM     21  C   UNL     1      97.700  95.576  77.054  1.00  0.00     0.004 C 
ENDBRANCH  19  20
ENDBRANCH  18  19
ENDBRANCH  17  18
ENDBRANCH   1  17
TORSDOF 10
ENDMDL
MODEL 2
REMARK VINA RESULT:    -6.532      2.622      3.605
REMARK INTER + INTRA:         -11.178
REMARK INTER:                  -9.672
REMARK INTRA:                  -1.506
REMARK UNBOUND:                -1.018
REMARK SMILES CCCCC/C=C/C(=O)CCc1ccc(O)c(OC)c1
REMARK SMILES IDX 6 1 7 2 8 3 9 4 10 5 11 6 12 7 17 8 20 9 15 10 14 11 13 12
REMARK SMILES IDX 18 13 19 14 16 15 5 17 4 18 3 19 2 20 1 21
REMARK H PARENT 16 16
REMARK Flexibility Score: inf
ROOT
ATOM      1  C   UNL     1      91.068  93.288  77.102  1.00  0.00    -0.023 C 
ATOM      2  C   UNL     1      91.386  92.152  77.734  1.00  0.00     0.043 C 
ENDROOT
BRANCH   2   3
ATOM      3  C   UNL     1      90.313  91.212  78.155  1.00  0.00     0.155 C 
ATOM      4  O   UNL     1      90.314  90.680  79.264  1.00  0.00    -0.295 OA
BRANCH   3   5
ATOM      5  C   UNL     1      89.243  90.901  77.126  1.00  0.00     0.085 C 
BRANCH   5   6
ATOM      6  C   UNL     1      89.561  89.612  76.366  1.00  0.00     0.044 C 
BRANCH   6   7
ATOM      7  C   UNL     1      89.693  89.826  74.877  1.00  0.00    -0.044 A 
ATOM      8  C   UNL     1      88.695  90.362  72.762  1.00  0.00     0.160 A 
ATOM      9  C   UNL     1      88.572  90.165  74.137  1.00  0.00     0.054 A 
ATOM     10  C   UNL     1      89.937  90.218  72.144  1.00  0.00     0.157 A 
ATOM     11  C   UNL     1      91.057  89.876  72.903  1.00  0.00     0.050 A 
ATOM     12  C   UNL     1      90.934  89.679  74.278  1.00  0.00     0.008 A 
BRANCH   8  13
ATOM     13  O   UNL     1      87.593  90.696  72.032  1.00  0.00    -0.493 OA
ATOM     14  C   UNL     1      86.352  90.771  72.730  1.00  0.00     0.278 C 
ENDBRANCH   8  13
BRANCH  10  15
ATOM     15  O   UNL     1      90.069  90.409  70.802  1.00  0.00    -0.504 OA
ATOM     16  H   UNL     1      89.590  89.698  70.344  1.00  0.00     0.293 HD
ENDBRANCH  10  15
ENDBRANCH   6   7
ENDBRANCH   5   6
ENDBRANCH   3   5
ENDBRANCH   2   3
BRANCH   1  17
ATOM     17  C   UNL     1      92.091  94.288  76.645  1.00  0.00     0.027 C 
BRANCH  17  18
ATOM     18  C   UNL     1      92.071  94.520  75.131  1.00  0.00     0.004 C 
BRANCH  18  19
ATOM     19  C   UNL     1      91.473  93.352  74.339  1.00  0.00     0.000 C 
BRANCH  19  20
ATOM     20  C   UNL     1      89.971  93.543  74.125  1.00  0.00    -0.003 C 
ATOM     21  C   UNL     1      89.632  93.685  72.650  1.00  0.00     0.004 C 
ENDBRANCH  19  20
ENDBRANCH  18  19
ENDBRANCH  17  18
ENDBRANCH   1  17
TORSDOF 10
ENDMDL
MODEL 3
REMARK VINA RESULT:    -6.312      3.096      5.680
REMARK INTER + INTRA:         -10.836
REMARK INTER:                  -9.833
REMARK INTRA:                  -1.003
REMARK UNBOUND:                -1.018
REMARK SMILES CCCCC/C=C/C(=O)CCc1ccc(O)c(OC)c1
REMARK SMILES IDX 6 1 7 2 8 3 9 4 10 5 11 6 12 7 17 8 20 9 15 10 14 11 13 12
REMARK SMILES IDX 18 13 19 14 16 15 5 17 4 18 3 19 2 20 1 21
REMARK H PARENT 16 16
REMARK Flexibility Score: inf
ROOT
ATOM      1  C   UNL     1      90.377  93.314  73.102  1.00  0.00    -0.023 C 
ATOM      2  C   UNL     1      89.612  93.555  74.174  1.00  0.00     0.043 C 
ENDROOT
BRANCH   2   3
ATOM      3  C   UNL     1      90.235  94.038  75.436  1.00  0.00     0.155 C 
ATOM      4  O   UNL     1      89.576  94.588  76.316  1.00  0.00    -0.295 OA
BRANCH   3   5
ATOM      5  C   UNL     1      91.736  93.864  75.559  1.00  0.00     0.085 C 
BRANCH   5   6
ATOM      6  C   UNL     1      92.138  92.395  75.419  1.00  0.00     0.044 C 
BRANCH   6   7
ATOM      7  C   UNL     1      91.362  91.483  76.340  1.00  0.00    -0.044 A 
ATOM      8  C   UNL     1      90.245  89.397  76.734  1.00  0.00     0.160 A 
ATOM      9  C   UNL     1      90.961  90.238  75.883  1.00  0.00     0.054 A 
ATOM     10  C   UNL     1      89.939  89.811  78.030  1.00  0.00     0.157 A 
ATOM     11  C   UNL     1      90.350  91.068  78.476  1.00  0.00     0.050 A 
ATOM     12  C   UNL     1      91.066  91.910  77.624  1.00  0.00     0.008 A 
BRANCH   8  13
ATOM     13  O   UNL     1      89.849  88.172  76.287  1.00  0.00    -0.493 OA
ATOM     14  C   UNL     1      90.351  87.751  75.021  1.00  0.00     0.278 C 
ENDBRANCH   8  13
BRANCH  10  15
ATOM     15  O   UNL     1      89.241  88.998  78.871  1.00  0.00    -0.504 OA
ATOM     16  H   UNL     1      89.716  88.955  79.718  1.00  0.00     0.293 HD
ENDBRANCH  10  15
ENDBRANCH   6   7
ENDBRANCH   5   6
ENDBRANCH   3   5
ENDBRANCH   2   3
BRANCH   1  17
ATOM     17  C   UNL     1      89.826  92.826  71.794  1.00  0.00     0.027 C 
BRANCH  17  18
ATOM     18  C   UNL     1      90.320  91.425  71.418  1.00  0.00     0.004 C 
BRANCH  18  19
ATOM     19  C   UNL     1      89.854  90.330  72.383  1.00  0.00     0.000 C 
BRANCH  19  20
ATOM     20  C   UNL     1      88.328  90.297  72.484  1.00  0.00    -0.003 C 
ATOM     21  C   UNL     1      87.865  90.321  73.932  1.00  0.00     0.004 C 
ENDBRANCH  19  20
ENDBRANCH  18  19
ENDBRANCH  17  18
ENDBRANCH   1  17
TORSDOF 10
ENDMDL
MODEL 4
REMARK VINA RESULT:    -6.149      3.736      8.463
REMARK INTER + INTRA:         -10.582
REMARK INTER:                  -9.448
REMARK INTRA:                  -1.134
REMARK UNBOUND:                -1.018
REMARK SMILES CCCCC/C=C/C(=O)CCc1ccc(O)c(OC)c1
REMARK SMILES IDX 6 1 7 2 8 3 9 4 10 5 11 6 12 7 17 8 20 9 15 10 14 11 13 12
REMARK SMILES IDX 18 13 19 14 16 15 5 17 4 18 3 19 2 20 1 21
REMARK H PARENT 16 16
REMARK Flexibility Score: inf
ROOT
ATOM      1  C   UNL     1      92.623  93.194  76.932  1.00  0.00    -0.023 C 
ATOM      2  C   UNL     1      92.817  94.476  76.598  1.00  0.00     0.043 C 
ENDROOT
BRANCH   2   3
ATOM      3  C   UNL     1      94.064  94.877  75.892  1.00  0.00     0.155 C 
ATOM      4  O   UNL     1      94.074  95.778  75.055  1.00  0.00    -0.295 OA
BRANCH   3   5
ATOM      5  C   UNL     1      95.313  94.082  76.219  1.00  0.00     0.085 C 
BRANCH   5   6
ATOM      6  C   UNL     1      96.326  94.931  76.989  1.00  0.00     0.044 C 
BRANCH   6   7
ATOM      7  C   UNL     1      96.061  94.956  78.476  1.00  0.00    -0.044 A 
ATOM      8  C   UNL     1      96.048  96.146  80.560  1.00  0.00     0.160 A 
ATOM      9  C   UNL     1      96.293  96.123  79.187  1.00  0.00     0.054 A 
ATOM     10  C   UNL     1      95.575  95.003  81.204  1.00  0.00     0.157 A 
ATOM     11  C   UNL     1      95.347  93.835  80.474  1.00  0.00     0.050 A 
ATOM     12  C   UNL     1      95.592  93.813  79.101  1.00  0.00     0.008 A 
BRANCH   8  13
ATOM     13  O   UNL     1      96.276  97.291  81.262  1.00  0.00    -0.493 OA
ATOM     14  C   UNL     1      96.937  98.352  80.575  1.00  0.00     0.278 C 
ENDBRANCH   8  13
BRANCH  10  15
ATOM     15  O   UNL     1      95.332  95.013  82.544  1.00  0.00    -0.504 OA
ATOM     16  H   UNL     1      95.414  94.102  82.876  1.00  0.00     0.293 HD
ENDBRANCH  10  15
ENDBRANCH   6   7
ENDBRANCH   5   6
ENDBRANCH   3   5
ENDBRANCH   2   3
BRANCH   1  17
ATOM     17  C   UNL     1      91.394  92.709  77.645  1.00  0.00     0.027 C 
BRANCH  17  18
ATOM     18  C   UNL     1      90.092  93.169  76.981  1.00  0.00     0.004 C 
BRANCH  18  19
ATOM     19  C   UNL     1      89.595  92.223  75.883  1.00  0.00     0.000 C 
BRANCH  19  20
ATOM     20  C   UNL     1      89.305  90.831  76.444  1.00  0.00    -0.003 C 
ATOM     21  C   UNL     1      89.153  89.803  75.334  1.00  0.00     0.004 C 
ENDBRANCH  19  20
ENDBRANCH  18  19
ENDBRANCH  17  18
ENDBRANCH   1  17
TORSDOF 10
ENDMDL
MODEL 5
REMARK VINA RESULT:    -5.803      4.548      8.912
REMARK INTER + INTRA:         -10.045
REMARK INTER:                  -9.103
REMARK INTRA:                  -0.942
REMARK UNBOUND:                -1.018
REMARK SMILES CCCCC/C=C/C(=O)CCc1ccc(O)c(OC)c1
REMARK SMILES IDX 6 1 7 2 8 3 9 4 10 5 11 6 12 7 17 8 20 9 15 10 14 11 13 12
REMARK SMILES IDX 18 13 19 14 16 15 5 17 4 18 3 19 2 20 1 21
REMARK H PARENT 16 16
REMARK Flexibility Score: inf
ROOT
ATOM      1  C   UNL     1      94.855  95.178  75.729  1.00  0.00    -0.023 C 
ATOM      2  C   UNL     1      95.677  95.810  74.881  1.00  0.00     0.043 C 
ENDROOT
BRANCH   2   3
ATOM      3  C   UNL     1      96.857  96.551  75.406  1.00  0.00     0.155 C 
ATOM      4  O   UNL     1      97.880  96.697  74.740  1.00  0.00    -0.295 OA
BRANCH   3   5
ATOM      5  C   UNL     1      96.752  97.072  76.826  1.00  0.00     0.085 C 
BRANCH   5   6
ATOM      6  C   UNL     1      97.621  96.256  77.783  1.00  0.00     0.044 C 
BRANCH   6   7
ATOM      7  C   UNL     1      96.874  95.803  79.015  1.00  0.00    -0.044 A 
ATOM      8  C   UNL     1      96.317  96.102  81.330  1.00  0.00     0.160 A 
ATOM      9  C   UNL     1      97.009  96.520  80.193  1.00  0.00     0.054 A 
ATOM     10  C   UNL     1      95.501  94.973  81.275  1.00  0.00     0.157 A 
ATOM     11  C   UNL     1      95.376  94.261  80.081  1.00  0.00     0.050 A 
ATOM     12  C   UNL     1      96.067  94.679  78.944  1.00  0.00     0.008 A 
BRANCH   8  13
ATOM     13  O   UNL     1      96.449  96.805  82.489  1.00  0.00    -0.493 OA
ATOM     14  C   UNL     1      97.653  96.616  83.230  1.00  0.00     0.278 C 
ENDBRANCH   8  13
BRANCH  10  15
ATOM     15  O   UNL     1      94.821  94.555  82.378  1.00  0.00    -0.504 OA
ATOM     16  H   UNL     1      95.011  95.171  83.106  1.00  0.00     0.293 HD
ENDBRANCH  10  15
ENDBRANCH   6   7
ENDBRANCH   5   6
ENDBRANCH   3   5
ENDBRANCH   2   3
BRANCH   1  17
ATOM     17  C   UNL     1      93.646  94.411  75.280  1.00  0.00     0.027 C 
BRANCH  17  18
ATOM     18  C   UNL     1      92.693  94.064  76.429  1.00  0.00     0.004 C 
BRANCH  18  19
ATOM     19  C   UNL     1      91.411  94.904  76.438  1.00  0.00     0.000 C 
BRANCH  19  20
ATOM     20  C   UNL     1      90.186  94.043  76.126  1.00  0.00    -0.003 C 
ATOM     21  C   UNL     1      89.944  93.006  77.211  1.00  0.00     0.004 C 
ENDBRANCH  19  20
ENDBRANCH  18  19
ENDBRANCH  17  18
ENDBRANCH   1  17
TORSDOF 10
ENDMDL
MODEL 6
REMARK VINA RESULT:    -5.718      3.274      7.950
REMARK INTER + INTRA:          -9.912
REMARK INTER:                  -9.064
REMARK INTRA:                  -0.848
REMARK UNBOUND:                -1.018
REMARK SMILES CCCCC/C=C/C(=O)CCc1ccc(O)c(OC)c1
REMARK SMILES IDX 6 1 7 2 8 3 9 4 10 5 11 6 12 7 17 8 20 9 15 10 14 11 13 12
REMARK SMILES IDX 18 13 19 14 16 15 5 17 4 18 3 19 2 20 1 21
REMARK H PARENT 16 16
REMARK Flexibility Score: inf
ROOT
ATOM      1  C   UNL     1      90.747  93.181  74.319  1.00  0.00    -0.023 C 
ATOM      2  C   UNL     1      90.396  93.185  75.611  1.00  0.00     0.043 C 
ENDROOT
BRANCH   2   3
ATOM      3  C   UNL     1      91.438  93.338  76.663  1.00  0.00     0.155 C 
ATOM      4  O   UNL     1      91.428  92.662  77.689  1.00  0.00    -0.295 OA
BRANCH   3   5
ATOM      5  C   UNL     1      92.484  94.410  76.427  1.00  0.00     0.085 C 
BRANCH   5   6
ATOM      6  C   UNL     1      93.894  93.817  76.417  1.00  0.00     0.044 C 
BRANCH   6   7
ATOM      7  C   UNL     1      94.812  94.469  77.423  1.00  0.00    -0.044 A 
ATOM      8  C   UNL     1      96.710  95.857  77.906  1.00  0.00     0.160 A 
ATOM      9  C   UNL     1      95.862  95.255  76.976  1.00  0.00     0.054 A 
ATOM     10  C   UNL     1      96.497  95.664  79.270  1.00  0.00     0.157 A 
ATOM     11  C   UNL     1      95.436  94.869  79.706  1.00  0.00     0.050 A 
ATOM     12  C   UNL     1      94.589  94.268  78.776  1.00  0.00     0.008 A 
BRANCH   8  13
ATOM     13  O   UNL     1      97.742  96.630  77.468  1.00  0.00    -0.493 OA
ATOM     14  C   UNL     1      98.935  95.956  77.072  1.00  0.00     0.278 C 
ENDBRANCH   8  13
BRANCH  10  15
ATOM     15  O   UNL     1      97.318  96.247  80.188  1.00  0.00    -0.504 OA
ATOM     16  H   UNL     1      97.023  95.979  81.075  1.00  0.00     0.293 HD
ENDBRANCH  10  15
ENDBRANCH   6   7
ENDBRANCH   5   6
ENDBRANCH   3   5
ENDBRANCH   2   3
BRANCH   1  17
ATOM     17  C   UNL     1      89.758  93.032  73.200  1.00  0.00     0.027 C 
BRANCH  17  18
ATOM     18  C   UNL     1      90.274  92.154  72.055  1.00  0.00     0.004 C 
BRANCH  18  19
ATOM     19  C   UNL     1      89.773  90.708  72.116  1.00  0.00     0.000 C 
BRANCH  19  20
ATOM     20  C   UNL     1      88.519  90.595  72.985  1.00  0.00    -0.003 C 
ATOM     21  C   UNL     1      88.749  89.679  74.177  1.00  0.00     0.004 C 
ENDBRANCH  19  20
ENDBRANCH  18  19
ENDBRANCH  17  18
ENDBRANCH   1  17
TORSDOF 10
ENDMDL
MODEL 7
REMARK VINA RESULT:    -5.711     12.681     16.427
REMARK INTER + INTRA:          -9.901
REMARK INTER:                  -8.742
REMARK INTRA:                  -1.158
REMARK UNBOUND:                -1.018
REMARK SMILES CCCCC/C=C/C(=O)CCc1ccc(O)c(OC)c1
REMARK SMILES IDX 6 1 7 2 8 3 9 4 10 5 11 6 12 7 17 8 20 9 15 10 14 11 13 12
REMARK SMILES IDX 18 13 19 14 16 15 5 17 4 18 3 19 2 20 1 21
REMARK H PARENT 16 16
REMARK Flexibility Score: inf
ROOT
ATOM      1  C   UNL     1      82.614  89.917  84.845  1.00  0.00    -0.023 C 
ATOM      2  C   UNL     1      83.620  90.641  84.338  1.00  0.00     0.043 C 
ENDROOT
BRANCH   2   3
ATOM      3  C   UNL     1      84.977  90.550  84.942  1.00  0.00     0.155 C 
ATOM      4  O   UNL     1      85.892  89.939  84.393  1.00  0.00    -0.295 OA
BRANCH   3   5
ATOM      5  C   UNL     1      85.160  91.206  86.296  1.00  0.00     0.085 C 
BRANCH   5   6
ATOM      6  C   UNL     1      84.678  92.658  86.280  1.00  0.00     0.044 C 
BRANCH   6   7
ATOM      7  C   UNL     1      83.646  92.946  87.345  1.00  0.00    -0.044 A 
ATOM      8  C   UNL     1      82.473  94.521  88.724  1.00  0.00     0.160 A 
ATOM      9  C   UNL     1      83.427  94.256  87.741  1.00  0.00     0.054 A 
ATOM     10  C   UNL     1      81.753  93.474  89.299  1.00  0.00     0.157 A 
ATOM     11  C   UNL     1      81.986  92.161  88.889  1.00  0.00     0.050 A 
ATOM     12  C   UNL     1      82.939  91.895  87.906  1.00  0.00     0.008 A 
BRANCH   8  13
ATOM     13  O   UNL     1      82.255  95.808  89.115  1.00  0.00    -0.493 OA
ATOM     14  C   UNL     1      83.131  96.341  90.107  1.00  0.00     0.278 C 
ENDBRANCH   8  13
BRANCH  10  15
ATOM     15  O   UNL     1      80.819  93.721  90.259  1.00  0.00    -0.504 OA
ATOM     16  H   UNL     1      80.959  94.622  90.597  1.00  0.00     0.293 HD
ENDBRANCH  10  15
ENDBRANCH   6   7
ENDBRANCH   5   6
ENDBRANCH   3   5
ENDBRANCH   2   3
BRANCH   1  17
ATOM     17  C   UNL     1      81.218  89.953  84.294  1.00  0.00     0.027 C 
BRANCH  17  18
ATOM     18  C   UNL     1      80.230  89.108  85.105  1.00  0.00     0.004 C 
BRANCH  18  19
ATOM     19  C   UNL     1      79.343  88.205  84.242  1.00  0.00     0.000 C 
BRANCH  19  20
ATOM     20  C   UNL     1      80.187  87.246  83.400  1.00  0.00    -0.003 C 
ATOM     21  C   UNL     1      80.857  86.189  84.264  1.00  0.00     0.004 C 
ENDBRANCH  19  20
ENDBRANCH  18  19
ENDBRANCH  17  18
ENDBRANCH   1  17
TORSDOF 10
ENDMDL
MODEL 8
REMARK VINA RESULT:    -5.661     27.037     29.357
REMARK INTER + INTRA:          -9.823
REMARK INTER:                  -7.767
REMARK INTRA:                  -2.056
REMARK UNBOUND:                -1.018
REMARK SMILES CCCCC/C=C/C(=O)CCc1ccc(O)c(OC)c1
REMARK SMILES IDX 6 1 7 2 8 3 9 4 10 5 11 6 12 7 17 8 20 9 15 10 14 11 13 12
REMARK SMILES IDX 18 13 19 14 16 15 5 17 4 18 3 19 2 20 1 21
REMARK H PARENT 16 16
REMARK Flexibility Score: inf
ROOT
ATOM      1  C   UNL     1      81.780  66.671  70.799  1.00  0.00    -0.023 C 
ATOM      2  C   UNL     1      82.336  65.538  70.354  1.00  0.00     0.043 C 
ENDROOT
BRANCH   2   3
ATOM      3  C   UNL     1      83.764  65.526  69.937  1.00  0.00     0.155 C 
ATOM      4  O   UNL     1      84.096  65.374  68.763  1.00  0.00    -0.295 OA
BRANCH   3   5
ATOM      5  C   UNL     1      84.793  65.659  71.043  1.00  0.00     0.085 C 
BRANCH   5   6
ATOM      6  C   UNL     1      84.497  64.698  72.195  1.00  0.00     0.044 C 
BRANCH   6   7
ATOM      7  C   UNL     1      84.058  65.409  73.454  1.00  0.00    -0.044 A 
ATOM      8  C   UNL     1      83.254  65.318  75.713  1.00  0.00     0.160 A 
ATOM      9  C   UNL     1      83.658  64.662  74.551  1.00  0.00     0.054 A 
ATOM     10  C   UNL     1      83.255  66.712  75.764  1.00  0.00     0.157 A 
ATOM     11  C   UNL     1      83.660  67.450  74.651  1.00  0.00     0.050 A 
ATOM     12  C   UNL     1      84.064  66.793  73.489  1.00  0.00     0.008 A 
BRANCH   8  13
ATOM     13  O   UNL     1      82.860  64.586  76.793  1.00  0.00    -0.493 OA
ATOM     14  C   UNL     1      83.862  63.818  77.456  1.00  0.00     0.278 C 
ENDBRANCH   8  13
BRANCH  10  15
ATOM     15  O   UNL     1      82.863  67.364  76.894  1.00  0.00    -0.504 OA
ATOM     16  H   UNL     1      82.911  68.321  76.726  1.00  0.00     0.293 HD
ENDBRANCH  10  15
ENDBRANCH   6   7
ENDBRANCH   5   6
ENDBRANCH   3   5
ENDBRANCH   2   3
BRANCH   1  17
ATOM     17  C   UNL     1      80.347  66.765  71.238  1.00  0.00     0.027 C 
BRANCH  17  18
ATOM     18  C   UNL     1      80.190  67.275  72.674  1.00  0.00     0.004 C 
BRANCH  18  19
ATOM     19  C   UNL     1      80.246  66.165  73.729  1.00  0.00     0.000 C 
BRANCH  19  20
ATOM     20  C   UNL     1      79.957  64.798  73.107  1.00  0.00    -0.003 C 
ATOM     21  C   UNL     1      80.211  63.671  74.095  1.00  0.00     0.004 C 
ENDBRANCH  19  20
ENDBRANCH  18  19
ENDBRANCH  17  18
ENDBRANCH   1  17
TORSDOF 10
ENDMDL
MODEL 9
REMARK VINA RESULT:    -5.650     26.369     29.109
REMARK INTER + INTRA:          -9.807
REMARK INTER:                  -9.192
REMARK INTRA:                  -0.615
REMARK UNBOUND:                -1.018
REMARK SMILES CCCCC/C=C/C(=O)CCc1ccc(O)c(OC)c1
REMARK SMILES IDX 6 1 7 2 8 3 9 4 10 5 11 6 12 7 17 8 20 9 15 10 14 11 13 12
REMARK SMILES IDX 18 13 19 14 16 15 5 17 4 18 3 19 2 20 1 21
REMARK H PARENT 16 16
REMARK Flexibility Score: inf
ROOT
ATOM      1  C   UNL     1      84.359  63.424  78.017  1.00  0.00    -0.023 C 
ATOM      2  C   UNL     1      84.287  64.429  77.136  1.00  0.00     0.043 C 
ENDROOT
BRANCH   2   3
ATOM      3  C   UNL     1      83.218  64.432  76.101  1.00  0.00     0.155 C 
ATOM      4  O   UNL     1      83.423  64.037  74.955  1.00  0.00    -0.295 OA
BRANCH   3   5
ATOM      5  C   UNL     1      81.875  64.998  76.518  1.00  0.00     0.085 C 
BRANCH   5   6
ATOM      6  C   UNL     1      81.647  66.387  75.920  1.00  0.00     0.044 C 
BRANCH   6   7
ATOM      7  C   UNL     1      81.190  66.339  74.481  1.00  0.00    -0.044 A 
ATOM      8  C   UNL     1      81.220  67.256  72.263  1.00  0.00     0.160 A 
ATOM      9  C   UNL     1      81.642  67.301  73.592  1.00  0.00     0.054 A 
ATOM     10  C   UNL     1      80.351  66.251  71.841  1.00  0.00     0.157 A 
ATOM     11  C   UNL     1      79.904  65.289  72.748  1.00  0.00     0.050 A 
ATOM     12  C   UNL     1      80.326  65.334  74.077  1.00  0.00     0.008 A 
BRANCH   8  13
ATOM     13  O   UNL     1      81.664  68.201  71.388  1.00  0.00    -0.493 OA
ATOM     14  C   UNL     1      83.002  68.664  71.557  1.00  0.00     0.278 C 
ENDBRANCH   8  13
BRANCH  10  15
ATOM     15  O   UNL     1      79.933  66.196  70.546  1.00  0.00    -0.504 OA
ATOM     16  H   UNL     1      80.618  65.748  70.022  1.00  0.00     0.293 HD
ENDBRANCH  10  15
ENDBRANCH   6   7
ENDBRANCH   5   6
ENDBRANCH   3   5
ENDBRANCH   2   3
BRANCH   1  17
ATOM     17  C   UNL     1      85.407  63.346  79.089  1.00  0.00     0.027 C 
BRANCH  17  18
ATOM     18  C   UNL     1      84.817  63.216  80.498  1.00  0.00     0.004 C 
BRANCH  18  19
ATOM     19  C   UNL     1      85.496  64.118  81.533  1.00  0.00     0.000 C 
BRANCH  19  20
ATOM     20  C   UNL     1      86.138  65.336  80.868  1.00  0.00    -0.003 C 
ATOM     21  C   UNL     1      86.778  66.258  81.893  1.00  0.00     0.004 C 
ENDBRANCH  19  20
ENDBRANCH  18  19
ENDBRANCH  17  18
ENDBRANCH   1  17
TORSDOF 10
ENDMDL
MODEL 10
REMARK VINA RESULT:    -5.394     13.536     16.846
REMARK INTER + INTRA:          -9.408
REMARK INTER:                  -7.998
REMARK INTRA:                  -1.410
REMARK UNBOUND:                -1.018
REMARK SMILES CCCCC/C=C/C(=O)CCc1ccc(O)c(OC)c1
REMARK SMILES IDX 6 1 7 2 8 3 9 4 10 5 11 6 12 7 17 8 20 9 15 10 14 11 13 12
REMARK SMILES IDX 18 13 19 14 16 15 5 17 4 18 3 19 2 20 1 21
REMARK H PARENT 16 16
REMARK Flexibility Score: inf
ROOT
ATOM      1  C   UNL     1      82.016  89.957  84.483  1.00  0.00    -0.023 C 
ATOM      2  C   UNL     1      83.134  89.369  84.926  1.00  0.00     0.043 C 
ENDROOT
BRANCH   2   3
ATOM      3  C   UNL     1      84.391  90.158  85.044  1.00  0.00     0.155 C 
ATOM      4  O   UNL     1      85.273  90.104  84.189  1.00  0.00    -0.295 OA
BRANCH   3   5
ATOM      5  C   UNL     1      84.550  90.992  86.299  1.00  0.00     0.085 C 
BRANCH   5   6
ATOM      6  C   UNL     1      84.365  90.143  87.558  1.00  0.00     0.044 C 
BRANCH   6   7
ATOM      7  C   UNL     1      82.986  90.279  88.160  1.00  0.00    -0.044 A 
ATOM      8  C   UNL     1      81.032  89.266  89.116  1.00  0.00     0.160 A 
ATOM      9  C   UNL     1      82.305  89.140  88.560  1.00  0.00     0.054 A 
ATOM     10  C   UNL     1      80.457  90.528  89.265  1.00  0.00     0.157 A 
ATOM     11  C   UNL     1      81.156  91.665  88.857  1.00  0.00     0.050 A 
ATOM     12  C   UNL     1      82.429  91.539  88.301  1.00  0.00     0.008 A 
BRANCH   8  13
ATOM     13  O   UNL     1      80.360  88.149  89.511  1.00  0.00    -0.493 OA
ATOM     14  C   UNL     1      79.564  87.490  88.528  1.00  0.00     0.278 C 
ENDBRANCH   8  13
BRANCH  10  15
ATOM     15  O   UNL     1      79.215  90.664  89.808  1.00  0.00    -0.504 OA
ATOM     16  H   UNL     1      79.000  89.845  90.287  1.00  0.00     0.293 HD
ENDBRANCH  10  15
ENDBRANCH   6   7
ENDBRANCH   5   6
ENDBRANCH   3   5
ENDBRANCH   2   3
BRANCH   1  17
ATOM     17  C   UNL     1      80.711  89.231  84.335  1.00  0.00     0.027 C 
BRANCH  17  18
ATOM     18  C   UNL     1      80.881  87.760  83.940  1.00  0.00     0.004 C 
BRANCH  18  19
ATOM     19  C   UNL     1      79.964  86.807  84.712  1.00  0.00     0.000 C 
BRANCH  19  20
ATOM     20  C   UNL     1      80.760  85.658  85.334  1.00  0.00    -0.003 C 
ATOM     21  C   UNL     1      82.023  86.160  86.013  1.00  0.00     0.004 C 
ENDBRANCH  19  20
ENDBRANCH  18  19
ENDBRANCH  17  18
ENDBRANCH   1  17
TORSDOF 10
ENDMDL
