MODEL 1
REMARK VINA RESULT:    -6.254      0.000      0.000
REMARK INTER + INTRA:         -10.937
REMARK INTER:                 -10.094
REMARK INTRA:                  -0.843
REMARK UNBOUND:                -0.843
REMARK SMILES COc1cc(CNC(=O)CCCCCCC(C)C)ccc1O
REMARK SMILES IDX 11 1 10 2 8 3 7 4 9 6 6 7 5 8 3 9 21 10 4 11 20 12 19 13
REMARK SMILES IDX 2 14 1 15 22 16 12 18 13 19 14 20 15 21 16 22 17 23 18 24
REMARK H PARENT 7 5 22 17
REMARK Flexibility Score: inf
ROOT
ATOM      1  C   UNL     1      94.972  95.123  75.061  1.00  0.00     0.010 C 
ENDROOT
BRANCH   1   2
ATOM      2  C   UNL     1      93.684  95.024  75.924  1.00  0.00     0.100 C 
BRANCH   2   3
ATOM      3  C   UNL     1      92.772  93.942  75.491  1.00  0.00     0.220 C 
ATOM      4  N   UNL     1      91.430  94.038  75.721  1.00  0.00    -0.352 N 
ATOM      5  H   UNL     1      91.148  94.861  76.232  1.00  0.00     0.163 HD
ATOM      6  O   UNL     1      93.256  92.952  74.889  1.00  0.00    -0.275 OA
BRANCH   4   7
ATOM      7  C   UNL     1      90.449  93.085  75.298  1.00  0.00     0.151 C 
BRANCH   7   8
ATOM      8  C   UNL     1      90.301  91.939  76.237  1.00  0.00    -0.025 A 
ATOM      9  C   UNL     1      89.948  89.536  76.626  1.00  0.00     0.160 A 
ATOM     10  C   UNL     1      90.061  89.743  78.018  1.00  0.00     0.157 A 
ATOM     11  C   UNL     1      90.050  90.637  75.749  1.00  0.00     0.056 A 
ATOM     12  C   UNL     1      90.272  91.041  78.519  1.00  0.00     0.050 A 
ATOM     13  C   UNL     1      90.402  92.130  77.635  1.00  0.00     0.009 A 
BRANCH   9  14
ATOM     14  O   UNL     1      89.704  88.284  76.131  1.00  0.00    -0.493 OA
ATOM     15  C   UNL     1      90.866  87.644  75.573  1.00  0.00     0.278 C 
ENDBRANCH   9  14
BRANCH  10  16
ATOM     16  O   UNL     1      89.966  88.702  78.887  1.00  0.00    -0.504 OA
ATOM     17  H   UNL     1      90.602  88.819  79.596  1.00  0.00     0.293 HD
ENDBRANCH  10  16
ENDBRANCH   7   8
ENDBRANCH   4   7
ENDBRANCH   2   3
ENDBRANCH   1   2
BRANCH   1  18
ATOM     18  C   UNL     1      96.165  95.728  75.855  1.00  0.00     0.001 C 
BRANCH  18  19
ATOM     19  C   UNL     1      96.736  94.780  76.948  1.00  0.00     0.000 C 
BRANCH  19  20
ATOM     20  C   UNL     1      96.654  95.422  78.361  1.00  0.00     0.000 C 
BRANCH  20  21
ATOM     21  C   UNL     1      95.603  94.766  79.299  1.00  0.00     0.003 C 
BRANCH  21  22
ATOM     22  C   UNL     1      95.861  94.992  80.824  1.00  0.00    -0.017 C 
ATOM     23  C   UNL     1      97.254  95.645  81.049  1.00  0.00     0.007 C 
ATOM     24  C   UNL     1      95.720  93.699  81.681  1.00  0.00     0.007 C 
ENDBRANCH  21  22
ENDBRANCH  20  21
ENDBRANCH  19  20
ENDBRANCH  18  19
ENDBRANCH   1  18
TORSDOF 11
ENDMDL
MODEL 2
REMARK VINA RESULT:    -6.236      2.354      3.250
REMARK INTER + INTRA:         -10.906
REMARK INTER:                 -10.175
REMARK INTRA:                  -0.731
REMARK UNBOUND:                -0.843
REMARK SMILES COc1cc(CNC(=O)CCCCCCC(C)C)ccc1O
REMARK SMILES IDX 11 1 10 2 8 3 7 4 9 6 6 7 5 8 3 9 21 10 4 11 20 12 19 13
REMARK SMILES IDX 2 14 1 15 22 16 12 18 13 19 14 20 15 21 16 22 17 23 18 24
REMARK H PARENT 7 5 22 17
REMARK Flexibility Score: inf
ROOT
ATOM      1  C   UNL     1      93.555  94.387  77.304  1.00  0.00     0.010 C 
ENDROOT
BRANCH   1   2
ATOM      2  C   UNL     1      92.449  93.353  76.954  1.00  0.00     0.100 C 
BRANCH   2   3
ATOM      3  C   UNL     1      92.217  93.214  75.499  1.00  0.00     0.220 C 
ATOM      4  N   UNL     1      92.342  91.997  74.895  1.00  0.00    -0.352 N 
ATOM      5  H   UNL     1      92.638  91.251  75.507  1.00  0.00     0.163 HD
ATOM      6  O   UNL     1      91.882  94.230  74.843  1.00  0.00    -0.275 OA
BRANCH   4   7
ATOM      7  C   UNL     1      92.087  91.731  73.511  1.00  0.00     0.151 C 
BRANCH   7   8
ATOM      8  C   UNL     1      90.694  91.276  73.248  1.00  0.00    -0.025 A 
ATOM      9  C   UNL     1      88.862  89.685  73.651  1.00  0.00     0.160 A 
ATOM     10  C   UNL     1      88.027  90.425  72.786  1.00  0.00     0.157 A 
ATOM     11  C   UNL     1      90.193  90.105  73.861  1.00  0.00     0.056 A 
ATOM     12  C   UNL     1      88.527  91.571  72.141  1.00  0.00     0.050 A 
ATOM     13  C   UNL     1      89.847  92.000  72.377  1.00  0.00     0.009 A 
BRANCH   9  14
ATOM     14  O   UNL     1      88.398  88.547  74.253  1.00  0.00    -0.493 OA
ATOM     15  C   UNL     1      89.417  87.800  74.943  1.00  0.00     0.278 C 
ENDBRANCH   9  14
BRANCH  10  16
ATOM     16  O   UNL     1      86.741  90.044  72.565  1.00  0.00    -0.504 OA
ATOM     17  H   UNL     1      86.553  89.248  73.067  1.00  0.00     0.293 HD
ENDBRANCH  10  16
ENDBRANCH   7   8
ENDBRANCH   4   7
ENDBRANCH   2   3
ENDBRANCH   1   2
BRANCH   1  18
ATOM     18  C   UNL     1      94.874  94.122  76.522  1.00  0.00     0.001 C 
BRANCH  18  19
ATOM     19  C   UNL     1      96.151  94.196  77.406  1.00  0.00     0.000 C 
BRANCH  19  20
ATOM     20  C   UNL     1      95.797  94.329  78.914  1.00  0.00     0.000 C 
BRANCH  20  21
ATOM     21  C   UNL     1      96.121  95.721  79.524  1.00  0.00     0.003 C 
BRANCH  21  22
ATOM     22  C   UNL     1      95.552  95.949  80.962  1.00  0.00    -0.017 C 
ATOM     23  C   UNL     1      96.373  97.040  81.706  1.00  0.00     0.007 C 
ATOM     24  C   UNL     1      95.473  94.649  81.817  1.00  0.00     0.007 C 
ENDBRANCH  21  22
ENDBRANCH  20  21
ENDBRANCH  19  20
ENDBRANCH  18  19
ENDBRANCH   1  18
TORSDOF 11
ENDMDL
MODEL 3
REMARK VINA RESULT:    -5.911      1.603      2.234
REMARK INTER + INTRA:         -10.383
REMARK INTER:                  -9.833
REMARK INTRA:                  -0.550
REMARK UNBOUND:                -0.843
REMARK SMILES COc1cc(CNC(=O)CCCCCCC(C)C)ccc1O
REMARK SMILES IDX 11 1 10 2 8 3 7 4 9 6 6 7 5 8 3 9 21 10 4 11 20 12 19 13
REMARK SMILES IDX 2 14 1 15 22 16 12 18 13 19 14 20 15 21 16 22 17 23 18 24
REMARK H PARENT 7 5 22 17
REMARK Flexibility Score: inf
ROOT
ATOM      1  C   UNL     1      94.286  95.041  75.773  1.00  0.00     0.010 C 
ENDROOT
BRANCH   1   2
ATOM      2  C   UNL     1      93.902  93.678  75.134  1.00  0.00     0.100 C 
BRANCH   2   3
ATOM      3  C   UNL     1      92.451  93.391  75.197  1.00  0.00     0.220 C 
ATOM      4  N   UNL     1      91.888  92.938  76.355  1.00  0.00    -0.352 N 
ATOM      5  H   UNL     1      92.542  92.785  77.109  1.00  0.00     0.163 HD
ATOM      6  O   UNL     1      91.752  93.596  74.175  1.00  0.00    -0.275 OA
BRANCH   4   7
ATOM      7  C   UNL     1      90.493  92.683  76.551  1.00  0.00     0.151 C 
BRANCH   7   8
ATOM      8  C   UNL     1      90.078  91.324  76.108  1.00  0.00    -0.025 A 
ATOM      9  C   UNL     1      89.050  89.854  74.426  1.00  0.00     0.160 A 
ATOM     10  C   UNL     1      89.322  88.731  75.238  1.00  0.00     0.157 A 
ATOM     11  C   UNL     1      89.412  91.141  74.875  1.00  0.00     0.056 A 
ATOM     12  C   UNL     1      89.948  88.904  76.485  1.00  0.00     0.050 A 
ATOM     13  C   UNL     1      90.334  90.189  76.914  1.00  0.00     0.009 A 
BRANCH   9  14
ATOM     14  O   UNL     1      88.405  89.701  73.229  1.00  0.00    -0.493 OA
ATOM     15  C   UNL     1      87.370  90.674  72.999  1.00  0.00     0.278 C 
ENDBRANCH   9  14
BRANCH  10  16
ATOM     16  O   UNL     1      88.982  87.479  74.831  1.00  0.00    -0.504 OA
ATOM     17  H   UNL     1      89.675  86.863  75.083  1.00  0.00     0.293 HD
ENDBRANCH  10  16
ENDBRANCH   7   8
ENDBRANCH   4   7
ENDBRANCH   2   3
ENDBRANCH   1   2
BRANCH   1  18
ATOM     18  C   UNL     1      95.827  95.223  75.883  1.00  0.00     0.001 C 
BRANCH  18  19
ATOM     19  C   UNL     1      96.415  94.781  77.253  1.00  0.00     0.000 C 
BRANCH  19  20
ATOM     20  C   UNL     1      96.421  95.951  78.277  1.00  0.00     0.000 C 
BRANCH  20  21
ATOM     21  C   UNL     1      96.715  95.516  79.739  1.00  0.00     0.003 C 
BRANCH  21  22
ATOM     22  C   UNL     1      95.697  96.056  80.796  1.00  0.00    -0.017 C 
ATOM     23  C   UNL     1      96.252  97.337  81.480  1.00  0.00     0.007 C 
ATOM     24  C   UNL     1      95.286  95.002  81.865  1.00  0.00     0.007 C 
ENDBRANCH  21  22
ENDBRANCH  20  21
ENDBRANCH  19  20
ENDBRANCH  18  19
ENDBRANCH   1  18
TORSDOF 11
ENDMDL
MODEL 4
REMARK VINA RESULT:    -5.876      1.452      2.081
REMARK INTER + INTRA:         -10.325
REMARK INTER:                  -9.546
REMARK INTRA:                  -0.779
REMARK UNBOUND:                -0.843
REMARK SMILES COc1cc(CNC(=O)CCCCCCC(C)C)ccc1O
REMARK SMILES IDX 11 1 10 2 8 3 7 4 9 6 6 7 5 8 3 9 21 10 4 11 20 12 19 13
REMARK SMILES IDX 2 14 1 15 22 16 12 18 13 19 14 20 15 21 16 22 17 23 18 24
REMARK H PARENT 7 5 22 17
REMARK Flexibility Score: inf
ROOT
ATOM      1  C   UNL     1      95.746  94.719  77.150  1.00  0.00     0.010 C 
ENDROOT
BRANCH   1   2
ATOM      2  C   UNL     1      95.425  94.241  75.707  1.00  0.00     0.100 C 
BRANCH   2   3
ATOM      3  C   UNL     1      93.974  94.158  75.427  1.00  0.00     0.220 C 
ATOM      4  N   UNL     1      93.459  93.079  74.769  1.00  0.00    -0.352 N 
ATOM      5  H   UNL     1      94.145  92.402  74.470  1.00  0.00     0.163 HD
ATOM      6  O   UNL     1      93.230  95.087  75.828  1.00  0.00    -0.275 OA
BRANCH   4   7
ATOM      7  C   UNL     1      92.070  92.864  74.496  1.00  0.00     0.151 C 
BRANCH   7   8
ATOM      8  C   UNL     1      91.406  91.981  75.493  1.00  0.00    -0.025 A 
ATOM      9  C   UNL     1      90.595  89.758  76.163  1.00  0.00     0.160 A 
ATOM     10  C   UNL     1      90.180  90.282  77.407  1.00  0.00     0.157 A 
ATOM     11  C   UNL     1      91.187  90.614  75.210  1.00  0.00     0.056 A 
ATOM     12  C   UNL     1      90.357  91.649  77.685  1.00  0.00     0.050 A 
ATOM     13  C   UNL     1      90.975  92.492  76.740  1.00  0.00     0.009 A 
BRANCH   9  14
ATOM     14  O   UNL     1      90.391  88.438  75.867  1.00  0.00    -0.493 OA
ATOM     15  C   UNL     1      91.199  87.956  74.778  1.00  0.00     0.278 C 
ENDBRANCH   9  14
BRANCH  10  16
ATOM     16  O   UNL     1      89.605  89.481  78.343  1.00  0.00    -0.504 OA
ATOM     17  H   UNL     1      89.549  88.585  78.005  1.00  0.00     0.293 HD
ENDBRANCH  10  16
ENDBRANCH   7   8
ENDBRANCH   4   7
ENDBRANCH   2   3
ENDBRANCH   1   2
BRANCH   1  18
ATOM     18  C   UNL     1      95.548  93.589  78.200  1.00  0.00     0.001 C 
BRANCH  18  19
ATOM     19  C   UNL     1      95.450  94.104  79.664  1.00  0.00     0.000 C 
BRANCH  19  20
ATOM     20  C   UNL     1      95.822  95.610  79.766  1.00  0.00     0.000 C 
BRANCH  20  21
ATOM     21  C   UNL     1      97.245  95.878  80.331  1.00  0.00     0.003 C 
BRANCH  21  22
ATOM     22  C   UNL     1      97.500  97.355  80.777  1.00  0.00    -0.017 C 
ATOM     23  C   UNL     1      98.779  97.444  81.656  1.00  0.00     0.007 C 
ATOM     24  C   UNL     1      96.289  98.005  81.508  1.00  0.00     0.007 C 
ENDBRANCH  21  22
ENDBRANCH  20  21
ENDBRANCH  19  20
ENDBRANCH  18  19
ENDBRANCH   1  18
TORSDOF 11
ENDMDL
MODEL 5
REMARK VINA RESULT:    -5.852      2.412      4.533
REMARK INTER + INTRA:         -10.288
REMARK INTER:                  -9.346
REMARK INTRA:                  -0.941
REMARK UNBOUND:                -0.843
REMARK SMILES COc1cc(CNC(=O)CCCCCCC(C)C)ccc1O
REMARK SMILES IDX 11 1 10 2 8 3 7 4 9 6 6 7 5 8 3 9 21 10 4 11 20 12 19 13
REMARK SMILES IDX 2 14 1 15 22 16 12 18 13 19 14 20 15 21 16 22 17 23 18 24
REMARK H PARENT 7 5 22 17
REMARK Flexibility Score: inf
ROOT
ATOM      1  C   UNL     1      95.208  95.015  76.618  1.00  0.00     0.010 C 
ENDROOT
BRANCH   1   2
ATOM      2  C   UNL     1      95.047  94.016  75.439  1.00  0.00     0.100 C 
BRANCH   2   3
ATOM      3  C   UNL     1      93.731  94.108  74.770  1.00  0.00     0.220 C 
ATOM      4  N   UNL     1      93.081  92.978  74.368  1.00  0.00    -0.352 N 
ATOM      5  H   UNL     1      93.590  92.121  74.526  1.00  0.00     0.163 HD
ATOM      6  O   UNL     1      93.218  95.243  74.604  1.00  0.00    -0.275 OA
BRANCH   4   7
ATOM      7  C   UNL     1      91.783  92.941  73.765  1.00  0.00     0.151 C 
BRANCH   7   8
ATOM      8  C   UNL     1      91.085  91.640  73.955  1.00  0.00    -0.025 A 
ATOM      9  C   UNL     1      89.045  90.275  73.799  1.00  0.00     0.160 A 
ATOM     10  C   UNL     1      89.758  89.152  74.271  1.00  0.00     0.157 A 
ATOM     11  C   UNL     1      89.708  91.513  73.662  1.00  0.00     0.056 A 
ATOM     12  C   UNL     1      91.119  89.275  74.603  1.00  0.00     0.050 A 
ATOM     13  C   UNL     1      91.782  90.507  74.436  1.00  0.00     0.009 A 
BRANCH   9  14
ATOM     14  O   UNL     1      87.711  90.176  73.511  1.00  0.00    -0.493 OA
ATOM     15  C   UNL     1      87.310  90.927  72.351  1.00  0.00     0.278 C 
ENDBRANCH   9  14
BRANCH  10  16
ATOM     16  O   UNL     1      89.144  87.947  74.414  1.00  0.00    -0.504 OA
ATOM     17  H   UNL     1      88.223  88.025  74.155  1.00  0.00     0.293 HD
ENDBRANCH  10  16
ENDBRANCH   7   8
ENDBRANCH   4   7
ENDBRANCH   2   3
ENDBRANCH   1   2
BRANCH   1  18
ATOM     18  C   UNL     1      94.117  94.817  77.708  1.00  0.00     0.001 C 
BRANCH  18  19
ATOM     19  C   UNL     1      93.606  93.353  77.825  1.00  0.00     0.000 C 
BRANCH  19  20
ATOM     20  C   UNL     1      92.093  93.246  77.482  1.00  0.00     0.000 C 
BRANCH  20  21
ATOM     21  C   UNL     1      91.353  92.095  78.217  1.00  0.00     0.003 C 
BRANCH  21  22
ATOM     22  C   UNL     1      89.820  92.012  77.918  1.00  0.00    -0.017 C 
ATOM     23  C   UNL     1      89.441  90.590  77.416  1.00  0.00     0.007 C 
ATOM     24  C   UNL     1      89.319  93.095  76.918  1.00  0.00     0.007 C 
ENDBRANCH  21  22
ENDBRANCH  20  21
ENDBRANCH  19  20
ENDBRANCH  18  19
ENDBRANCH   1  18
TORSDOF 11
ENDMDL
MODEL 6
REMARK VINA RESULT:    -5.638     30.226     32.776
REMARK INTER + INTRA:          -9.942
REMARK INTER:                  -8.885
REMARK INTRA:                  -1.057
REMARK UNBOUND:                -0.843
REMARK SMILES COc1cc(CNC(=O)CCCCCCC(C)C)ccc1O
REMARK SMILES IDX 11 1 10 2 8 3 7 4 9 6 6 7 5 8 3 9 21 10 4 11 20 12 19 13
REMARK SMILES IDX 2 14 1 15 22 16 12 18 13 19 14 20 15 21 16 22 17 23 18 24
REMARK H PARENT 7 5 22 17
REMARK Flexibility Score: inf
ROOT
ATOM      1  C   UNL     1      62.460  85.213  74.728  1.00  0.00     0.010 C 
ENDROOT
BRANCH   1   2
ATOM      2  C   UNL     1      61.054  85.859  74.584  1.00  0.00     0.100 C 
BRANCH   2   3
ATOM      3  C   UNL     1      60.551  85.860  73.192  1.00  0.00     0.220 C 
ATOM      4  N   UNL     1      60.869  84.840  72.343  1.00  0.00    -0.352 N 
ATOM      5  H   UNL     1      61.489  84.146  72.732  1.00  0.00     0.163 HD
ATOM      6  O   UNL     1      59.810  86.803  72.821  1.00  0.00    -0.275 OA
BRANCH   4   7
ATOM      7  C   UNL     1      60.395  84.706  70.999  1.00  0.00     0.151 C 
BRANCH   7   8
ATOM      8  C   UNL     1      61.177  83.727  70.196  1.00  0.00    -0.025 A 
ATOM      9  C   UNL     1      61.928  82.880  68.012  1.00  0.00     0.160 A 
ATOM     10  C   UNL     1      62.702  81.892  68.659  1.00  0.00     0.157 A 
ATOM     11  C   UNL     1      61.158  83.776  68.783  1.00  0.00     0.056 A 
ATOM     12  C   UNL     1      62.698  81.807  70.063  1.00  0.00     0.050 A 
ATOM     13  C   UNL     1      61.950  82.724  70.828  1.00  0.00     0.009 A 
BRANCH   9  14
ATOM     14  O   UNL     1      61.893  82.945  66.646  1.00  0.00    -0.493 OA
ATOM     15  C   UNL     1      61.494  84.231  66.137  1.00  0.00     0.278 C 
ENDBRANCH   9  14
BRANCH  10  16
ATOM     16  O   UNL     1      63.451  81.014  67.941  1.00  0.00    -0.504 OA
ATOM     17  H   UNL     1      62.930  80.671  67.212  1.00  0.00     0.293 HD
ENDBRANCH  10  16
ENDBRANCH   7   8
ENDBRANCH   4   7
ENDBRANCH   2   3
ENDBRANCH   1   2
BRANCH   1  18
ATOM     18  C   UNL     1      62.625  84.460  76.078  1.00  0.00     0.001 C 
BRANCH  18  19
ATOM     19  C   UNL     1      62.088  83.001  76.051  1.00  0.00     0.000 C 
BRANCH  19  20
ATOM     20  C   UNL     1      62.765  82.163  74.931  1.00  0.00     0.000 C 
BRANCH  20  21
ATOM     21  C   UNL     1      64.124  81.532  75.340  1.00  0.00     0.003 C 
BRANCH  21  22
ATOM     22  C   UNL     1      65.098  81.254  74.148  1.00  0.00    -0.017 C 
ATOM     23  C   UNL     1      64.347  80.543  72.987  1.00  0.00     0.007 C 
ATOM     24  C   UNL     1      66.367  80.446  74.552  1.00  0.00     0.007 C 
ENDBRANCH  21  22
ENDBRANCH  20  21
ENDBRANCH  19  20
ENDBRANCH  18  19
ENDBRANCH   1  18
TORSDOF 11
ENDMDL
MODEL 7
REMARK VINA RESULT:    -5.635      2.278      3.204
REMARK INTER + INTRA:          -9.937
REMARK INTER:                  -9.282
REMARK INTRA:                  -0.655
REMARK UNBOUND:                -0.843
REMARK SMILES COc1cc(CNC(=O)CCCCCCC(C)C)ccc1O
REMARK SMILES IDX 11 1 10 2 8 3 7 4 9 6 6 7 5 8 3 9 21 10 4 11 20 12 19 13
REMARK SMILES IDX 2 14 1 15 22 16 12 18 13 19 14 20 15 21 16 22 17 23 18 24
REMARK H PARENT 7 5 22 17
REMARK Flexibility Score: inf
ROOT
ATOM      1  C   UNL     1      95.808  94.771  77.048  1.00  0.00     0.010 C 
ENDROOT
BRANCH   1   2
ATOM      2  C   UNL     1      95.469  94.071  75.702  1.00  0.00     0.100 C 
BRANCH   2   3
ATOM      3  C   UNL     1      94.093  94.346  75.231  1.00  0.00     0.220 C 
ATOM      4  N   UNL     1      93.288  93.324  74.819  1.00  0.00    -0.352 N 
ATOM      5  H   UNL     1      93.726  92.415  74.827  1.00  0.00     0.163 HD
ATOM      6  O   UNL     1      93.679  95.531  75.241  1.00  0.00    -0.275 OA
BRANCH   4   7
ATOM      7  C   UNL     1      91.927  93.463  74.399  1.00  0.00     0.151 C 
BRANCH   7   8
ATOM      8  C   UNL     1      91.180  92.175  74.397  1.00  0.00    -0.025 A 
ATOM      9  C   UNL     1      89.114  90.912  73.965  1.00  0.00     0.160 A 
ATOM     10  C   UNL     1      89.762  89.717  74.348  1.00  0.00     0.157 A 
ATOM     11  C   UNL     1      89.821  92.132  74.010  1.00  0.00     0.056 A 
ATOM     12  C   UNL     1      91.102  89.753  74.773  1.00  0.00     0.050 A 
ATOM     13  C   UNL     1      91.811  90.970  74.787  1.00  0.00     0.009 A 
BRANCH   9  14
ATOM     14  O   UNL     1      87.799  90.895  73.588  1.00  0.00    -0.493 OA
ATOM     15  C   UNL     1      87.591  91.190  72.195  1.00  0.00     0.278 C 
ENDBRANCH   9  14
BRANCH  10  16
ATOM     16  O   UNL     1      89.105  88.528  74.316  1.00  0.00    -0.504 OA
ATOM     17  H   UNL     1      88.205  88.668  74.013  1.00  0.00     0.293 HD
ENDBRANCH  10  16
ENDBRANCH   7   8
ENDBRANCH   4   7
ENDBRANCH   2   3
ENDBRANCH   1   2
BRANCH   1  18
ATOM     18  C   UNL     1      95.326  93.947  78.276  1.00  0.00     0.001 C 
BRANCH  18  19
ATOM     19  C   UNL     1      95.126  94.798  79.561  1.00  0.00     0.000 C 
BRANCH  19  20
ATOM     20  C   UNL     1      96.294  95.803  79.770  1.00  0.00     0.000 C 
BRANCH  20  21
ATOM     21  C   UNL     1      97.503  95.220  80.552  1.00  0.00     0.003 C 
BRANCH  21  22
ATOM     22  C   UNL     1      98.658  96.240  80.818  1.00  0.00    -0.017 C 
ATOM     23  C   UNL     1      98.491  97.497  79.919  1.00  0.00     0.007 C 
ATOM     24  C   UNL     1     100.082  95.632  80.645  1.00  0.00     0.007 C 
ENDBRANCH  21  22
ENDBRANCH  20  21
ENDBRANCH  19  20
ENDBRANCH  18  19
ENDBRANCH   1  18
TORSDOF 11
ENDMDL
MODEL 8
REMARK VINA RESULT:    -5.579     17.445     20.222
REMARK INTER + INTRA:          -9.847
REMARK INTER:                  -8.788
REMARK INTRA:                  -1.059
REMARK UNBOUND:                -0.843
REMARK SMILES COc1cc(CNC(=O)CCCCCCC(C)C)ccc1O
REMARK SMILES IDX 11 1 10 2 8 3 7 4 9 6 6 7 5 8 3 9 21 10 4 11 20 12 19 13
REMARK SMILES IDX 2 14 1 15 22 16 12 18 13 19 14 20 15 21 16 22 17 23 18 24
REMARK H PARENT 7 5 22 17
REMARK Flexibility Score: inf
ROOT
ATOM      1  C   UNL     1      77.626  88.665  64.826  1.00  0.00     0.010 C 
ENDROOT
BRANCH   1   2
ATOM      2  C   UNL     1      76.599  89.814  65.023  1.00  0.00     0.100 C 
BRANCH   2   3
ATOM      3  C   UNL     1      77.046  91.103  64.447  1.00  0.00     0.220 C 
ATOM      4  N   UNL     1      76.554  92.281  64.930  1.00  0.00    -0.352 N 
ATOM      5  H   UNL     1      75.856  92.181  65.652  1.00  0.00     0.163 HD
ATOM      6  O   UNL     1      77.900  91.087  63.528  1.00  0.00    -0.275 OA
BRANCH   4   7
ATOM      7  C   UNL     1      76.955  93.584  64.493  1.00  0.00     0.151 C 
BRANCH   7   8
ATOM      8  C   UNL     1      77.809  94.298  65.482  1.00  0.00    -0.025 A 
ATOM      9  C   UNL     1      78.174  95.143  67.762  1.00  0.00     0.160 A 
ATOM     10  C   UNL     1      79.448  95.618  67.384  1.00  0.00     0.157 A 
ATOM     11  C   UNL     1      77.357  94.504  66.805  1.00  0.00     0.056 A 
ATOM     12  C   UNL     1      79.893  95.453  66.060  1.00  0.00     0.050 A 
ATOM     13  C   UNL     1      79.084  94.789  65.117  1.00  0.00     0.009 A 
BRANCH   9  14
ATOM     14  O   UNL     1      77.716  95.333  69.038  1.00  0.00    -0.493 OA
ATOM     15  C   UNL     1      76.298  95.566  69.116  1.00  0.00     0.278 C 
ENDBRANCH   9  14
BRANCH  10  16
ATOM     16  O   UNL     1      80.256  96.239  68.285  1.00  0.00    -0.504 OA
ATOM     17  H   UNL     1      79.791  96.986  68.668  1.00  0.00     0.293 HD
ENDBRANCH  10  16
ENDBRANCH   7   8
ENDBRANCH   4   7
ENDBRANCH   2   3
ENDBRANCH   1   2
BRANCH   1  18
ATOM     18  C   UNL     1      78.303  88.248  66.162  1.00  0.00     0.001 C 
BRANCH  18  19
ATOM     19  C   UNL     1      78.289  86.715  66.420  1.00  0.00     0.000 C 
BRANCH  19  20
ATOM     20  C   UNL     1      77.250  86.328  67.510  1.00  0.00     0.000 C 
BRANCH  20  21
ATOM     21  C   UNL     1      75.838  85.994  66.954  1.00  0.00     0.003 C 
BRANCH  21  22
ATOM     22  C   UNL     1      74.682  86.861  67.552  1.00  0.00    -0.017 C 
ATOM     23  C   UNL     1      75.233  88.220  68.069  1.00  0.00     0.007 C 
ATOM     24  C   UNL     1      73.874  86.140  68.671  1.00  0.00     0.007 C 
ENDBRANCH  21  22
ENDBRANCH  20  21
ENDBRANCH  19  20
ENDBRANCH  18  19
ENDBRANCH   1  18
TORSDOF 11
ENDMDL
MODEL 9
REMARK VINA RESULT:    -5.542      4.755      9.402
REMARK INTER + INTRA:          -9.787
REMARK INTER:                  -8.924
REMARK INTRA:                  -0.863
REMARK UNBOUND:                -0.843
REMARK SMILES COc1cc(CNC(=O)CCCCCCC(C)C)ccc1O
REMARK SMILES IDX 11 1 10 2 8 3 7 4 9 6 6 7 5 8 3 9 21 10 4 11 20 12 19 13
REMARK SMILES IDX 2 14 1 15 22 16 12 18 13 19 14 20 15 21 16 22 17 23 18 24
REMARK H PARENT 7 5 22 17
REMARK Flexibility Score: inf
ROOT
ATOM      1  C   UNL     1      95.857  94.551  77.581  1.00  0.00     0.010 C 
ENDROOT
BRANCH   1   2
ATOM      2  C   UNL     1      94.875  94.070  78.685  1.00  0.00     0.100 C 
BRANCH   2   3
ATOM      3  C   UNL     1      95.436  94.168  80.051  1.00  0.00     0.220 C 
ATOM      4  N   UNL     1      96.232  95.221  80.395  1.00  0.00    -0.352 N 
ATOM      5  H   UNL     1      96.425  95.867  79.643  1.00  0.00     0.163 HD
ATOM      6  O   UNL     1      95.144  93.278  80.887  1.00  0.00    -0.275 OA
BRANCH   4   7
ATOM      7  C   UNL     1      96.782  95.451  81.696  1.00  0.00     0.151 C 
BRANCH   7   8
ATOM      8  C   UNL     1      96.600  96.850  82.171  1.00  0.00    -0.025 A 
ATOM      9  C   UNL     1      96.419  98.466  84.016  1.00  0.00     0.160 A 
ATOM     10  C   UNL     1      96.299  99.520  83.084  1.00  0.00     0.157 A 
ATOM     11  C   UNL     1      96.550  97.140  83.554  1.00  0.00     0.056 A 
ATOM     12  C   UNL     1      96.308  99.240  81.706  1.00  0.00     0.050 A 
ATOM     13  C   UNL     1      96.468  97.917  81.251  1.00  0.00     0.009 A 
BRANCH   9  14
ATOM     14  O   UNL     1      96.372  98.723  85.359  1.00  0.00    -0.493 OA
ATOM     15  C   UNL     1      96.754  97.603  86.178  1.00  0.00     0.278 C 
ENDBRANCH   9  14
BRANCH  10  16
ATOM     16  O   UNL     1      96.170 100.807  83.501  1.00  0.00    -0.504 OA
ATOM     17  H   UNL     1      95.771 101.331  82.802  1.00  0.00     0.293 HD
ENDBRANCH  10  16
ENDBRANCH   7   8
ENDBRANCH   4   7
ENDBRANCH   2   3
ENDBRANCH   1   2
BRANCH   1  18
ATOM     18  C   UNL     1      95.401  94.116  76.159  1.00  0.00     0.001 C 
BRANCH  18  19
ATOM     19  C   UNL     1      94.902  95.294  75.274  1.00  0.00     0.000 C 
BRANCH  19  20
ATOM     20  C   UNL     1      93.398  95.141  74.914  1.00  0.00     0.000 C 
BRANCH  20  21
ATOM     21  C   UNL     1      92.897  93.670  74.880  1.00  0.00     0.003 C 
BRANCH  21  22
ATOM     22  C   UNL     1      91.480  93.451  75.503  1.00  0.00    -0.017 C 
ATOM     23  C   UNL     1      90.424  93.221  74.385  1.00  0.00     0.007 C 
ATOM     24  C   UNL     1      91.028  94.602  76.450  1.00  0.00     0.007 C 
ENDBRANCH  21  22
ENDBRANCH  20  21
ENDBRANCH  19  20
ENDBRANCH  18  19
ENDBRANCH   1  18
TORSDOF 11
ENDMDL
MODEL 10
REMARK VINA RESULT:    -5.426     28.191     31.348
REMARK INTER + INTRA:          -9.599
REMARK INTER:                  -8.017
REMARK INTRA:                  -1.582
REMARK UNBOUND:                -0.843
REMARK SMILES COc1cc(CNC(=O)CCCCCCC(C)C)ccc1O
REMARK SMILES IDX 11 1 10 2 8 3 7 4 9 6 6 7 5 8 3 9 21 10 4 11 20 12 19 13
REMARK SMILES IDX 2 14 1 15 22 16 12 18 13 19 14 20 15 21 16 22 17 23 18 24
REMARK H PARENT 7 5 22 17
REMARK Flexibility Score: inf
ROOT
ATOM      1  C   UNL     1      61.729  84.221  70.469  1.00  0.00     0.010 C 
ENDROOT
BRANCH   1   2
ATOM      2  C   UNL     1      60.540  84.071  71.458  1.00  0.00     0.100 C 
BRANCH   2   3
ATOM      3  C   UNL     1      60.779  84.727  72.763  1.00  0.00     0.220 C 
ATOM      4  N   UNL     1      61.460  84.074  73.749  1.00  0.00    -0.352 N 
ATOM      5  H   UNL     1      61.729  83.129  73.519  1.00  0.00     0.163 HD
ATOM      6  O   UNL     1      60.363  85.900  72.932  1.00  0.00    -0.275 OA
BRANCH   4   7
ATOM      7  C   UNL     1      61.799  84.628  75.025  1.00  0.00     0.151 C 
BRANCH   7   8
ATOM      8  C   UNL     1      63.228  85.033  75.127  1.00  0.00    -0.025 A 
ATOM      9  C   UNL     1      65.063  86.062  76.401  1.00  0.00     0.160 A 
ATOM     10  C   UNL     1      65.960  85.769  75.349  1.00  0.00     0.157 A 
ATOM     11  C   UNL     1      63.703  85.709  76.274  1.00  0.00     0.056 A 
ATOM     12  C   UNL     1      65.490  85.132  74.186  1.00  0.00     0.050 A 
ATOM     13  C   UNL     1      64.137  84.756  74.079  1.00  0.00     0.009 A 
BRANCH   9  14
ATOM     14  O   UNL     1      65.501  86.717  77.519  1.00  0.00    -0.493 OA
ATOM     15  C   UNL     1      64.936  88.030  77.681  1.00  0.00     0.278 C 
ENDBRANCH   9  14
BRANCH  10  16
ATOM     16  O   UNL     1      67.275  86.099  75.443  1.00  0.00    -0.504 OA
ATOM     17  H   UNL     1      67.359  86.963  75.855  1.00  0.00     0.293 HD
ENDBRANCH  10  16
ENDBRANCH   7   8
ENDBRANCH   4   7
ENDBRANCH   2   3
ENDBRANCH   1   2
BRANCH   1  18
ATOM     18  C   UNL     1      62.793  83.102  70.656  1.00  0.00     0.001 C 
BRANCH  18  19
ATOM     19  C   UNL     1      62.186  81.706  70.971  1.00  0.00     0.000 C 
BRANCH  19  20
ATOM     20  C   UNL     1      62.573  81.223  72.397  1.00  0.00     0.000 C 
BRANCH  20  21
ATOM     21  C   UNL     1      64.104  81.164  72.657  1.00  0.00     0.003 C 
BRANCH  21  22
ATOM     22  C   UNL     1      64.508  80.522  74.024  1.00  0.00    -0.017 C 
ATOM     23  C   UNL     1      63.821  81.272  75.200  1.00  0.00     0.007 C 
ATOM     24  C   UNL     1      66.046  80.447  74.250  1.00  0.00     0.007 C 
ENDBRANCH  21  22
ENDBRANCH  20  21
ENDBRANCH  19  20
ENDBRANCH  18  19
ENDBRANCH   1  18
TORSDOF 11
ENDMDL
