MODEL 1
REMARK VINA RESULT:    -6.230      0.000      0.000
REMARK INTER + INTRA:         -10.775
REMARK INTER:                 -10.055
REMARK INTRA:                  -0.720
REMARK UNBOUND:                -0.720
REMARK SMILES COc1cc(CNC(=O)CCCCCCC(C)C)ccc1O
REMARK SMILES IDX 11 1 10 2 8 3 7 4 9 6 6 7 5 8 3 9 21 10 4 11 20 12 19 13
REMARK SMILES IDX 2 14 1 15 22 16 12 18 13 19 14 20 15 21 16 22 17 23 18 24
REMARK H PARENT 7 5 22 17
REMARK Flexibility Score: inf
ROOT
ATOM      1  C   UNL     1      94.442  98.763  74.975  1.00  0.00     0.010 C 
ENDROOT
BRANCH   1   2
ATOM      2  C   UNL     1      92.927  99.101  75.051  1.00  0.00     0.100 C 
BRANCH   2   3
ATOM      3  C   UNL     1      92.482 100.038  73.995  1.00  0.00     0.220 C 
ATOM      4  N   UNL     1      91.897  99.566  72.857  1.00  0.00    -0.352 N 
ATOM      5  H   UNL     1      91.845  98.560  72.796  1.00  0.00     0.163 HD
ATOM      6  O   UNL     1      92.634 101.270  74.182  1.00  0.00    -0.275 OA
BRANCH   4   7
ATOM      7  C   UNL     1      91.378 100.377  71.798  1.00  0.00     0.151 C 
BRANCH   7   8
ATOM      8  C   UNL     1      90.407  99.656  70.929  1.00  0.00    -0.025 A 
ATOM      9  C   UNL     1      88.916  99.622  68.973  1.00  0.00     0.160 A 
ATOM     10  C   UNL     1      88.591  98.275  69.241  1.00  0.00     0.157 A 
ATOM     11  C   UNL     1      89.805 100.307  69.828  1.00  0.00     0.056 A 
ATOM     12  C   UNL     1      89.153  97.627  70.357  1.00  0.00     0.050 A 
ATOM     13  C   UNL     1      90.063  98.308  71.189  1.00  0.00     0.009 A 
BRANCH   9  14
ATOM     14  O   UNL     1      88.344 100.273  67.914  1.00  0.00    -0.493 OA
ATOM     15  C   UNL     1      88.569 101.695  67.917  1.00  0.00     0.278 C 
ENDBRANCH   9  14
BRANCH  10  16
ATOM     16  O   UNL     1      87.736  97.591  68.436  1.00  0.00    -0.504 OA
ATOM     17  H   UNL     1      86.893  98.050  68.402  1.00  0.00     0.293 HD
ENDBRANCH  10  16
ENDBRANCH   7   8
ENDBRANCH   4   7
ENDBRANCH   2   3
ENDBRANCH   1   2
BRANCH   1  18
ATOM     18  C   UNL     1      94.723  97.259  75.254  1.00  0.00     0.001 C 
BRANCH  18  19
ATOM     19  C   UNL     1      95.031  96.946  76.745  1.00  0.00     0.000 C 
BRANCH  19  20
ATOM     20  C   UNL     1      94.384  95.605  77.193  1.00  0.00     0.000 C 
BRANCH  20  21
ATOM     21  C   UNL     1      93.219  95.768  78.209  1.00  0.00     0.003 C 
BRANCH  21  22
ATOM     22  C   UNL     1      91.853  95.174  77.732  1.00  0.00    -0.017 C 
ATOM     23  C   UNL     1      90.796  96.302  77.574  1.00  0.00     0.007 C 
ATOM     24  C   UNL     1      91.309  94.042  78.652  1.00  0.00     0.007 C 
ENDBRANCH  21  22
ENDBRANCH  20  21
ENDBRANCH  19  20
ENDBRANCH  18  19
ENDBRANCH   1  18
TORSDOF 11
ENDMDL
MODEL 2
REMARK VINA RESULT:    -5.450     15.494     18.370
REMARK INTER + INTRA:          -9.515
REMARK INTER:                  -8.597
REMARK INTRA:                  -0.919
REMARK UNBOUND:                -0.720
REMARK SMILES COc1cc(CNC(=O)CCCCCCC(C)C)ccc1O
REMARK SMILES IDX 11 1 10 2 8 3 7 4 9 6 6 7 5 8 3 9 21 10 4 11 20 12 19 13
REMARK SMILES IDX 2 14 1 15 22 16 12 18 13 19 14 20 15 21 16 22 17 23 18 24
REMARK H PARENT 7 5 22 17
REMARK Flexibility Score: inf
ROOT
ATOM      1  C   UNL     1      74.002  88.281  70.518  1.00  0.00     0.010 C 
ENDROOT
BRANCH   1   2
ATOM      2  C   UNL     1      73.836  89.319  71.661  1.00  0.00     0.100 C 
BRANCH   2   3
ATOM      3  C   UNL     1      74.108  90.710  71.233  1.00  0.00     0.220 C 
ATOM      4  N   UNL     1      75.352  91.248  71.390  1.00  0.00    -0.352 N 
ATOM      5  H   UNL     1      76.018  90.644  71.848  1.00  0.00     0.163 HD
ATOM      6  O   UNL     1      73.180  91.368  70.703  1.00  0.00    -0.275 OA
BRANCH   4   7
ATOM      7  C   UNL     1      75.745  92.557  70.963  1.00  0.00     0.151 C 
BRANCH   7   8
ATOM      8  C   UNL     1      76.545  93.291  71.981  1.00  0.00    -0.025 A 
ATOM      9  C   UNL     1      77.429  93.472  74.269  1.00  0.00     0.160 A 
ATOM     10  C   UNL     1      78.104  94.661  73.916  1.00  0.00     0.157 A 
ATOM     11  C   UNL     1      76.641  92.807  73.306  1.00  0.00     0.056 A 
ATOM     12  C   UNL     1      77.985  95.173  72.612  1.00  0.00     0.050 A 
ATOM     13  C   UNL     1      77.220  94.489  71.647  1.00  0.00     0.009 A 
BRANCH   9  14
ATOM     14  O   UNL     1      77.506  92.986  75.546  1.00  0.00    -0.493 OA
ATOM     15  C   UNL     1      76.225  92.803  76.175  1.00  0.00     0.278 C 
ENDBRANCH   9  14
BRANCH  10  16
ATOM     16  O   UNL     1      78.869  95.323  74.824  1.00  0.00    -0.504 OA
ATOM     17  H   UNL     1      78.413  95.348  75.669  1.00  0.00     0.293 HD
ENDBRANCH  10  16
ENDBRANCH   7   8
ENDBRANCH   4   7
ENDBRANCH   2   3
ENDBRANCH   1   2
BRANCH   1  18
ATOM     18  C   UNL     1      75.441  87.694  70.462  1.00  0.00     0.001 C 
BRANCH  18  19
ATOM     19  C   UNL     1      76.146  87.890  69.090  1.00  0.00     0.000 C 
BRANCH  19  20
ATOM     20  C   UNL     1      77.140  86.734  68.787  1.00  0.00     0.000 C 
BRANCH  20  21
ATOM     21  C   UNL     1      77.593  85.938  70.042  1.00  0.00     0.003 C 
BRANCH  21  22
ATOM     22  C   UNL     1      77.090  84.458  70.090  1.00  0.00    -0.017 C 
ATOM     23  C   UNL     1      76.470  84.050  68.724  1.00  0.00     0.007 C 
ATOM     24  C   UNL     1      76.089  84.176  71.249  1.00  0.00     0.007 C 
ENDBRANCH  21  22
ENDBRANCH  20  21
ENDBRANCH  19  20
ENDBRANCH  18  19
ENDBRANCH   1  18
TORSDOF 11
ENDMDL
MODEL 3
REMARK VINA RESULT:    -5.441     19.385     21.083
REMARK INTER + INTRA:          -9.501
REMARK INTER:                  -8.575
REMARK INTRA:                  -0.926
REMARK UNBOUND:                -0.720
REMARK SMILES COc1cc(CNC(=O)CCCCCCC(C)C)ccc1O
REMARK SMILES IDX 11 1 10 2 8 3 7 4 9 6 6 7 5 8 3 9 21 10 4 11 20 12 19 13
REMARK SMILES IDX 2 14 1 15 22 16 12 18 13 19 14 20 15 21 16 22 17 23 18 24
REMARK H PARENT 7 5 22 17
REMARK Flexibility Score: inf
ROOT
ATOM      1  C   UNL     1      94.530  87.151  89.787  1.00  0.00     0.010 C 
ENDROOT
BRANCH   1   2
ATOM      2  C   UNL     1      94.390  85.803  89.027  1.00  0.00     0.100 C 
BRANCH   2   3
ATOM      3  C   UNL     1      93.276  84.965  89.523  1.00  0.00     0.220 C 
ATOM      4  N   UNL     1      92.438  84.342  88.644  1.00  0.00    -0.352 N 
ATOM      5  H   UNL     1      92.623  84.542  87.672  1.00  0.00     0.163 HD
ATOM      6  O   UNL     1      93.135  84.822  90.762  1.00  0.00    -0.275 OA
BRANCH   4   7
ATOM      7  C   UNL     1      91.366  83.464  89.005  1.00  0.00     0.151 C 
BRANCH   7   8
ATOM      8  C   UNL     1      91.023  82.488  87.935  1.00  0.00    -0.025 A 
ATOM      9  C   UNL     1      89.355  81.450  86.454  1.00  0.00     0.160 A 
ATOM     10  C   UNL     1      90.366  80.660  85.865  1.00  0.00     0.157 A 
ATOM     11  C   UNL     1      89.687  82.343  87.495  1.00  0.00     0.056 A 
ATOM     12  C   UNL     1      91.693  80.767  86.321  1.00  0.00     0.050 A 
ATOM     13  C   UNL     1      92.022  81.682  87.341  1.00  0.00     0.009 A 
BRANCH   9  14
ATOM     14  O   UNL     1      88.055  81.325  86.046  1.00  0.00    -0.493 OA
ATOM     15  C   UNL     1      87.595  82.420  85.233  1.00  0.00     0.278 C 
ENDBRANCH   9  14
BRANCH  10  16
ATOM     16  O   UNL     1      90.075  79.791  84.862  1.00  0.00    -0.504 OA
ATOM     17  H   UNL     1      90.866  79.626  84.343  1.00  0.00     0.293 HD
ENDBRANCH  10  16
ENDBRANCH   7   8
ENDBRANCH   4   7
ENDBRANCH   2   3
ENDBRANCH   1   2
BRANCH   1  18
ATOM     18  C   UNL     1      95.937  87.786  89.603  1.00  0.00     0.001 C 
BRANCH  18  19
ATOM     19  C   UNL     1      95.987  88.897  88.516  1.00  0.00     0.000 C 
BRANCH  19  20
ATOM     20  C   UNL     1      95.271  90.193  88.990  1.00  0.00     0.000 C 
BRANCH  20  21
ATOM     21  C   UNL     1      95.552  90.571  90.471  1.00  0.00     0.003 C 
BRANCH  21  22
ATOM     22  C   UNL     1      94.273  90.863  91.322  1.00  0.00    -0.017 C 
ATOM     23  C   UNL     1      94.100  89.788  92.431  1.00  0.00     0.007 C 
ATOM     24  C   UNL     1      92.973  90.984  90.474  1.00  0.00     0.007 C 
ENDBRANCH  21  22
ENDBRANCH  20  21
ENDBRANCH  19  20
ENDBRANCH  18  19
ENDBRANCH   1  18
TORSDOF 11
ENDMDL
MODEL 4
REMARK VINA RESULT:    -5.353     17.515     20.593
REMARK INTER + INTRA:          -9.358
REMARK INTER:                  -8.751
REMARK INTRA:                  -0.607
REMARK UNBOUND:                -0.720
REMARK SMILES COc1cc(CNC(=O)CCCCCCC(C)C)ccc1O
REMARK SMILES IDX 11 1 10 2 8 3 7 4 9 6 6 7 5 8 3 9 21 10 4 11 20 12 19 13
REMARK SMILES IDX 2 14 1 15 22 16 12 18 13 19 14 20 15 21 16 22 17 23 18 24
REMARK H PARENT 7 5 22 17
REMARK Flexibility Score: inf
ROOT
ATOM      1  C   UNL     1      99.520  81.371  82.024  1.00  0.00     0.010 C 
ENDROOT
BRANCH   1   2
ATOM      2  C   UNL     1      98.464  81.321  83.163  1.00  0.00     0.100 C 
BRANCH   2   3
ATOM      3  C   UNL     1      98.465  82.532  84.014  1.00  0.00     0.220 C 
ATOM      4  N   UNL     1      97.466  83.455  83.900  1.00  0.00    -0.352 N 
ATOM      5  H   UNL     1      96.789  83.255  83.179  1.00  0.00     0.163 HD
ATOM      6  O   UNL     1      99.386  82.676  84.855  1.00  0.00    -0.275 OA
BRANCH   4   7
ATOM      7  C   UNL     1      97.331  84.630  84.706  1.00  0.00     0.151 C 
BRANCH   7   8
ATOM      8  C   UNL     1      96.243  84.526  85.717  1.00  0.00    -0.025 A 
ATOM      9  C   UNL     1      94.681  83.154  87.032  1.00  0.00     0.160 A 
ATOM     10  C   UNL     1      94.199  84.315  87.674  1.00  0.00     0.157 A 
ATOM     11  C   UNL     1      95.684  83.270  86.046  1.00  0.00     0.056 A 
ATOM     12  C   UNL     1      94.719  85.575  87.327  1.00  0.00     0.050 A 
ATOM     13  C   UNL     1      95.741  85.681  86.363  1.00  0.00     0.009 A 
BRANCH   9  14
ATOM     14  O   UNL     1      94.154  81.928  87.334  1.00  0.00    -0.493 OA
ATOM     15  C   UNL     1      92.996  81.586  86.551  1.00  0.00     0.278 C 
ENDBRANCH   9  14
BRANCH  10  16
ATOM     16  O   UNL     1      93.232  84.234  88.626  1.00  0.00    -0.504 OA
ATOM     17  H   UNL     1      92.802  83.377  88.571  1.00  0.00     0.293 HD
ENDBRANCH  10  16
ENDBRANCH   7   8
ENDBRANCH   4   7
ENDBRANCH   2   3
ENDBRANCH   1   2
BRANCH   1  18
ATOM     18  C   UNL     1      99.679  82.801  81.434  1.00  0.00     0.001 C 
BRANCH  18  19
ATOM     19  C   UNL     1      98.639  83.143  80.330  1.00  0.00     0.000 C 
BRANCH  19  20
ATOM     20  C   UNL     1      98.962  82.415  78.995  1.00  0.00     0.000 C 
BRANCH  20  21
ATOM     21  C   UNL     1      99.641  83.315  77.926  1.00  0.00     0.003 C 
BRANCH  21  22
ATOM     22  C   UNL     1      98.762  83.606  76.666  1.00  0.00    -0.017 C 
ATOM     23  C   UNL     1      97.598  84.572  77.026  1.00  0.00     0.007 C 
ATOM     24  C   UNL     1      98.211  82.322  75.979  1.00  0.00     0.007 C 
ENDBRANCH  21  22
ENDBRANCH  20  21
ENDBRANCH  19  20
ENDBRANCH  18  19
ENDBRANCH   1  18
TORSDOF 11
ENDMDL
MODEL 5
REMARK VINA RESULT:    -5.251     17.873     20.590
REMARK INTER + INTRA:          -9.195
REMARK INTER:                  -8.482
REMARK INTRA:                  -0.713
REMARK UNBOUND:                -0.720
REMARK SMILES COc1cc(CNC(=O)CCCCCCC(C)C)ccc1O
REMARK SMILES IDX 11 1 10 2 8 3 7 4 9 6 6 7 5 8 3 9 21 10 4 11 20 12 19 13
REMARK SMILES IDX 2 14 1 15 22 16 12 18 13 19 14 20 15 21 16 22 17 23 18 24
REMARK H PARENT 7 5 22 17
REMARK Flexibility Score: inf
ROOT
ATOM      1  C   UNL     1      99.784  81.343  81.171  1.00  0.00     0.010 C 
ENDROOT
BRANCH   1   2
ATOM      2  C   UNL     1      98.767  81.129  82.326  1.00  0.00     0.100 C 
BRANCH   2   3
ATOM      3  C   UNL     1      98.888  82.134  83.406  1.00  0.00     0.220 C 
ATOM      4  N   UNL     1      97.870  83.008  83.652  1.00  0.00    -0.352 N 
ATOM      5  H   UNL     1      97.086  82.930  83.021  1.00  0.00     0.163 HD
ATOM      6  O   UNL     1      99.934  82.146  84.101  1.00  0.00    -0.275 OA
BRANCH   4   7
ATOM      7  C   UNL     1      97.852  83.981  84.703  1.00  0.00     0.151 C 
BRANCH   7   8
ATOM      8  C   UNL     1      96.695  83.824  85.627  1.00  0.00    -0.025 A 
ATOM      9  C   UNL     1      95.066  84.807  87.185  1.00  0.00     0.160 A 
ATOM     10  C   UNL     1      94.463  83.542  87.356  1.00  0.00     0.157 A 
ATOM     11  C   UNL     1      96.187  84.935  86.338  1.00  0.00     0.056 A 
ATOM     12  C   UNL     1      94.984  82.421  86.684  1.00  0.00     0.050 A 
ATOM     13  C   UNL     1      96.086  82.561  85.817  1.00  0.00     0.009 A 
BRANCH   9  14
ATOM     14  O   UNL     1      94.592  85.896  87.864  1.00  0.00    -0.493 OA
ATOM     15  C   UNL     1      95.501  86.401  88.859  1.00  0.00     0.278 C 
ENDBRANCH   9  14
BRANCH  10  16
ATOM     16  O   UNL     1      93.383  83.389  88.167  1.00  0.00    -0.504 OA
ATOM     17  H   UNL     1      92.660  83.930  87.842  1.00  0.00     0.293 HD
ENDBRANCH  10  16
ENDBRANCH   7   8
ENDBRANCH   4   7
ENDBRANCH   2   3
ENDBRANCH   1   2
BRANCH   1  18
ATOM     18  C   UNL     1      99.697  82.773  80.568  1.00  0.00     0.001 C 
BRANCH  18  19
ATOM     19  C   UNL     1      98.266  83.175  80.113  1.00  0.00     0.000 C 
BRANCH  19  20
ATOM     20  C   UNL     1      97.943  82.630  78.693  1.00  0.00     0.000 C 
BRANCH  20  21
ATOM     21  C   UNL     1      97.559  83.726  77.662  1.00  0.00     0.003 C 
BRANCH  21  22
ATOM     22  C   UNL     1      98.162  83.516  76.234  1.00  0.00    -0.017 C 
ATOM     23  C   UNL     1      98.275  81.999  75.910  1.00  0.00     0.007 C 
ATOM     24  C   UNL     1      99.533  84.222  76.024  1.00  0.00     0.007 C 
ENDBRANCH  21  22
ENDBRANCH  20  21
ENDBRANCH  19  20
ENDBRANCH  18  19
ENDBRANCH   1  18
TORSDOF 11
ENDMDL
MODEL 6
REMARK VINA RESULT:    -5.199     17.481     19.621
REMARK INTER + INTRA:          -9.110
REMARK INTER:                  -8.470
REMARK INTRA:                  -0.640
REMARK UNBOUND:                -0.720
REMARK SMILES COc1cc(CNC(=O)CCCCCCC(C)C)ccc1O
REMARK SMILES IDX 11 1 10 2 8 3 7 4 9 6 6 7 5 8 3 9 21 10 4 11 20 12 19 13
REMARK SMILES IDX 2 14 1 15 22 16 12 18 13 19 14 20 15 21 16 22 17 23 18 24
REMARK H PARENT 7 5 22 17
REMARK Flexibility Score: inf
ROOT
ATOM      1  C   UNL     1      97.459  81.740  85.976  1.00  0.00     0.010 C 
ENDROOT
BRANCH   1   2
ATOM      2  C   UNL     1      98.544  82.794  85.621  1.00  0.00     0.100 C 
BRANCH   2   3
ATOM      3  C   UNL     1      99.365  82.416  84.449  1.00  0.00     0.220 C 
ATOM      4  N   UNL     1      99.041  82.872  83.204  1.00  0.00    -0.352 N 
ATOM      5  H   UNL     1      98.200  83.428  83.165  1.00  0.00     0.163 HD
ATOM      6  O   UNL     1     100.373  81.690  84.630  1.00  0.00    -0.275 OA
BRANCH   4   7
ATOM      7  C   UNL     1      99.791  82.621  82.011  1.00  0.00     0.151 C 
BRANCH   7   8
ATOM      8  C   UNL     1      99.054  82.980  80.768  1.00  0.00    -0.025 A 
ATOM      9  C   UNL     1      99.018  83.294  78.330  1.00  0.00     0.160 A 
ATOM     10  C   UNL     1      97.646  83.619  78.389  1.00  0.00     0.157 A 
ATOM     11  C   UNL     1      99.715  82.996  79.519  1.00  0.00     0.056 A 
ATOM     12  C   UNL     1      96.986  83.644  79.631  1.00  0.00     0.050 A 
ATOM     13  C   UNL     1      97.681  83.317  80.812  1.00  0.00     0.009 A 
BRANCH   9  14
ATOM     14  O   UNL     1      99.679  83.305  77.131  1.00  0.00    -0.493 OA
ATOM     15  C   UNL     1     100.945  82.620  77.161  1.00  0.00     0.278 C 
ENDBRANCH   9  14
BRANCH  10  16
ATOM     16  O   UNL     1      96.949  83.912  77.260  1.00  0.00    -0.504 OA
ATOM     17  H   UNL     1      97.503  84.427  76.668  1.00  0.00     0.293 HD
ENDBRANCH  10  16
ENDBRANCH   7   8
ENDBRANCH   4   7
ENDBRANCH   2   3
ENDBRANCH   1   2
BRANCH   1  18
ATOM     18  C   UNL     1      96.480  82.251  87.072  1.00  0.00     0.001 C 
BRANCH  18  19
ATOM     19  C   UNL     1      95.127  82.770  86.510  1.00  0.00     0.000 C 
BRANCH  19  20
ATOM     20  C   UNL     1      95.042  84.321  86.561  1.00  0.00     0.000 C 
BRANCH  20  21
ATOM     21  C   UNL     1      94.133  84.873  87.694  1.00  0.00     0.003 C 
BRANCH  21  22
ATOM     22  C   UNL     1      94.898  85.607  88.843  1.00  0.00    -0.017 C 
ATOM     23  C   UNL     1      93.894  86.281  89.820  1.00  0.00     0.007 C 
ATOM     24  C   UNL     1      95.944  86.642  88.336  1.00  0.00     0.007 C 
ENDBRANCH  21  22
ENDBRANCH  20  21
ENDBRANCH  19  20
ENDBRANCH  18  19
ENDBRANCH   1  18
TORSDOF 11
ENDMDL
MODEL 7
REMARK VINA RESULT:    -5.192     19.683     22.318
REMARK INTER + INTRA:          -9.100
REMARK INTER:                  -7.389
REMARK INTRA:                  -1.710
REMARK UNBOUND:                -0.720
REMARK SMILES COc1cc(CNC(=O)CCCCCCC(C)C)ccc1O
REMARK SMILES IDX 11 1 10 2 8 3 7 4 9 6 6 7 5 8 3 9 21 10 4 11 20 12 19 13
REMARK SMILES IDX 2 14 1 15 22 16 12 18 13 19 14 20 15 21 16 22 17 23 18 24
REMARK H PARENT 7 5 22 17
REMARK Flexibility Score: inf
ROOT
ATOM      1  C   UNL     1      71.935  85.715  64.649  1.00  0.00     0.010 C 
ENDROOT
BRANCH   1   2
ATOM      2  C   UNL     1      72.781  85.171  63.465  1.00  0.00     0.100 C 
BRANCH   2   3
ATOM      3  C   UNL     1      73.771  84.149  63.874  1.00  0.00     0.220 C 
ATOM      4  N   UNL     1      75.101  84.451  63.904  1.00  0.00    -0.352 N 
ATOM      5  H   UNL     1      75.328  85.383  63.589  1.00  0.00     0.163 HD
ATOM      6  O   UNL     1      73.357  83.013  64.214  1.00  0.00    -0.275 OA
BRANCH   4   7
ATOM      7  C   UNL     1      76.140  83.566  64.336  1.00  0.00     0.151 C 
BRANCH   7   8
ATOM      8  C   UNL     1      76.877  84.066  65.529  1.00  0.00    -0.025 A 
ATOM      9  C   UNL     1      77.551  85.924  66.992  1.00  0.00     0.160 A 
ATOM     10  C   UNL     1      78.245  85.020  67.825  1.00  0.00     0.157 A 
ATOM     11  C   UNL     1      76.889  85.444  65.842  1.00  0.00     0.056 A 
ATOM     12  C   UNL     1      78.273  83.651  67.503  1.00  0.00     0.050 A 
ATOM     13  C   UNL     1      77.586  83.174  66.369  1.00  0.00     0.009 A 
BRANCH   9  14
ATOM     14  O   UNL     1      77.550  87.263  67.275  1.00  0.00    -0.493 OA
ATOM     15  C   UNL     1      76.638  88.027  66.465  1.00  0.00     0.278 C 
ENDBRANCH   9  14
BRANCH  10  16
ATOM     16  O   UNL     1      78.892  85.455  68.938  1.00  0.00    -0.504 OA
ATOM     17  H   UNL     1      79.660  85.970  68.680  1.00  0.00     0.293 HD
ENDBRANCH  10  16
ENDBRANCH   7   8
ENDBRANCH   4   7
ENDBRANCH   2   3
ENDBRANCH   1   2
BRANCH   1  18
ATOM     18  C   UNL     1      72.818  86.385  65.741  1.00  0.00     0.001 C 
BRANCH  18  19
ATOM     19  C   UNL     1      72.851  85.604  67.085  1.00  0.00     0.000 C 
BRANCH  19  20
ATOM     20  C   UNL     1      73.904  86.196  68.065  1.00  0.00     0.000 C 
BRANCH  20  21
ATOM     21  C   UNL     1      74.604  85.139  68.963  1.00  0.00     0.003 C 
BRANCH  21  22
ATOM     22  C   UNL     1      75.528  85.738  70.073  1.00  0.00    -0.017 C 
ATOM     23  C   UNL     1      75.853  84.663  71.148  1.00  0.00     0.007 C 
ATOM     24  C   UNL     1      74.952  87.021  70.741  1.00  0.00     0.007 C 
ENDBRANCH  21  22
ENDBRANCH  20  21
ENDBRANCH  19  20
ENDBRANCH  18  19
ENDBRANCH   1  18
TORSDOF 11
ENDMDL
MODEL 8
REMARK VINA RESULT:    -5.126     30.045     33.045
REMARK INTER + INTRA:          -8.993
REMARK INTER:                  -8.098
REMARK INTRA:                  -0.894
REMARK UNBOUND:                -0.720
REMARK SMILES COc1cc(CNC(=O)CCCCCCC(C)C)ccc1O
REMARK SMILES IDX 11 1 10 2 8 3 7 4 9 6 6 7 5 8 3 9 21 10 4 11 20 12 19 13
REMARK SMILES IDX 2 14 1 15 22 16 12 18 13 19 14 20 15 21 16 22 17 23 18 24
REMARK H PARENT 7 5 22 17
REMARK Flexibility Score: inf
ROOT
ATOM      1  C   UNL     1      65.479  85.095  78.313  1.00  0.00     0.010 C 
ENDROOT
BRANCH   1   2
ATOM      2  C   UNL     1      66.546  84.305  79.120  1.00  0.00     0.100 C 
BRANCH   2   3
ATOM      3  C   UNL     1      66.075  83.887  80.460  1.00  0.00     0.220 C 
ATOM      4  N   UNL     1      66.656  82.828  81.095  1.00  0.00    -0.352 N 
ATOM      5  H   UNL     1      67.372  82.358  80.562  1.00  0.00     0.163 HD
ATOM      6  O   UNL     1      65.151  84.540  81.004  1.00  0.00    -0.275 OA
BRANCH   4   7
ATOM      7  C   UNL     1      66.324  82.371  82.411  1.00  0.00     0.151 C 
BRANCH   7   8
ATOM      8  C   UNL     1      65.705  81.017  82.423  1.00  0.00    -0.025 A 
ATOM      9  C   UNL     1      63.730  79.582  82.714  1.00  0.00     0.160 A 
ATOM     10  C   UNL     1      64.508  78.445  82.405  1.00  0.00     0.157 A 
ATOM     11  C   UNL     1      64.337  80.855  82.739  1.00  0.00     0.056 A 
ATOM     12  C   UNL     1      65.880  78.589  82.127  1.00  0.00     0.050 A 
ATOM     13  C   UNL     1      66.473  79.867  82.125  1.00  0.00     0.009 A 
BRANCH   9  14
ATOM     14  O   UNL     1      62.404  79.448  83.025  1.00  0.00    -0.493 OA
ATOM     15  C   UNL     1      61.809  80.646  83.554  1.00  0.00     0.278 C 
ENDBRANCH   9  14
BRANCH  10  16
ATOM     16  O   UNL     1      63.950  77.206  82.375  1.00  0.00    -0.504 OA
ATOM     17  H   UNL     1      63.060  77.265  82.020  1.00  0.00     0.293 HD
ENDBRANCH  10  16
ENDBRANCH   7   8
ENDBRANCH   4   7
ENDBRANCH   2   3
ENDBRANCH   1   2
BRANCH   1  18
ATOM     18  C   UNL     1      64.424  84.157  77.659  1.00  0.00     0.001 C 
BRANCH  18  19
ATOM     19  C   UNL     1      65.015  83.204  76.583  1.00  0.00     0.000 C 
BRANCH  19  20
ATOM     20  C   UNL     1      63.984  82.901  75.459  1.00  0.00     0.000 C 
BRANCH  20  21
ATOM     21  C   UNL     1      62.572  83.496  75.713  1.00  0.00     0.003 C 
BRANCH  21  22
ATOM     22  C   UNL     1      62.092  84.519  74.633  1.00  0.00    -0.017 C 
ATOM     23  C   UNL     1      63.158  85.632  74.427  1.00  0.00     0.007 C 
ATOM     24  C   UNL     1      60.701  85.147  74.940  1.00  0.00     0.007 C 
ENDBRANCH  21  22
ENDBRANCH  20  21
ENDBRANCH  19  20
ENDBRANCH  18  19
ENDBRANCH   1  18
TORSDOF 11
ENDMDL
MODEL 9
REMARK VINA RESULT:    -5.119     28.432     30.722
REMARK INTER + INTRA:          -8.981
REMARK INTER:                  -7.421
REMARK INTRA:                  -1.559
REMARK UNBOUND:                -0.720
REMARK SMILES COc1cc(CNC(=O)CCCCCCC(C)C)ccc1O
REMARK SMILES IDX 11 1 10 2 8 3 7 4 9 6 6 7 5 8 3 9 21 10 4 11 20 12 19 13
REMARK SMILES IDX 2 14 1 15 22 16 12 18 13 19 14 20 15 21 16 22 17 23 18 24
REMARK H PARENT 7 5 22 17
REMARK Flexibility Score: inf
ROOT
ATOM      1  C   UNL     1      67.773  85.643  71.238  1.00  0.00     0.010 C 
ENDROOT
BRANCH   1   2
ATOM      2  C   UNL     1      67.883  84.211  70.647  1.00  0.00     0.100 C 
BRANCH   2   3
ATOM      3  C   UNL     1      66.568  83.574  70.409  1.00  0.00     0.220 C 
ATOM      4  N   UNL     1      66.222  82.436  71.078  1.00  0.00    -0.352 N 
ATOM      5  H   UNL     1      66.940  82.070  71.685  1.00  0.00     0.163 HD
ATOM      6  O   UNL     1      65.774  84.115  69.601  1.00  0.00    -0.275 OA
BRANCH   4   7
ATOM      7  C   UNL     1      64.961  81.766  70.972  1.00  0.00     0.151 C 
BRANCH   7   8
ATOM      8  C   UNL     1      64.034  82.083  72.093  1.00  0.00    -0.025 A 
ATOM      9  C   UNL     1      62.438  83.614  73.169  1.00  0.00     0.160 A 
ATOM     10  C   UNL     1      62.231  82.675  74.203  1.00  0.00     0.157 A 
ATOM     11  C   UNL     1      63.350  83.319  72.134  1.00  0.00     0.056 A 
ATOM     12  C   UNL     1      62.935  81.458  74.195  1.00  0.00     0.050 A 
ATOM     13  C   UNL     1      63.822  81.158  73.143  1.00  0.00     0.009 A 
BRANCH   9  14
ATOM     14  O   UNL     1      61.788  84.818  73.188  1.00  0.00    -0.493 OA
ATOM     15  C   UNL     1      60.480  84.781  72.588  1.00  0.00     0.278 C 
ENDBRANCH   9  14
BRANCH  10  16
ATOM     16  O   UNL     1      61.360  82.933  75.214  1.00  0.00    -0.504 OA
ATOM     17  H   UNL     1      61.601  82.413  75.984  1.00  0.00     0.293 HD
ENDBRANCH  10  16
ENDBRANCH   7   8
ENDBRANCH   4   7
ENDBRANCH   2   3
ENDBRANCH   1   2
BRANCH   1  18
ATOM     18  C   UNL     1      66.797  85.705  72.448  1.00  0.00     0.001 C 
BRANCH  18  19
ATOM     19  C   UNL     1      67.359  86.488  73.667  1.00  0.00     0.000 C 
BRANCH  19  20
ATOM     20  C   UNL     1      66.413  86.390  74.896  1.00  0.00     0.000 C 
BRANCH  20  21
ATOM     21  C   UNL     1      65.608  85.063  74.976  1.00  0.00     0.003 C 
BRANCH  21  22
ATOM     22  C   UNL     1      64.935  84.793  76.362  1.00  0.00    -0.017 C 
ATOM     23  C   UNL     1      64.926  83.270  76.674  1.00  0.00     0.007 C 
ATOM     24  C   UNL     1      63.499  85.383  76.485  1.00  0.00     0.007 C 
ENDBRANCH  21  22
ENDBRANCH  20  21
ENDBRANCH  19  20
ENDBRANCH  18  19
ENDBRANCH   1  18
TORSDOF 11
ENDMDL
MODEL 10
REMARK VINA RESULT:    -4.996     38.854     42.554
REMARK INTER + INTRA:          -8.784
REMARK INTER:                  -6.613
REMARK INTRA:                  -2.171
REMARK UNBOUND:                -0.720
REMARK SMILES COc1cc(CNC(=O)CCCCCCC(C)C)ccc1O
REMARK SMILES IDX 11 1 10 2 8 3 7 4 9 6 6 7 5 8 3 9 21 10 4 11 20 12 19 13
REMARK SMILES IDX 2 14 1 15 22 16 12 18 13 19 14 20 15 21 16 22 17 23 18 24
REMARK H PARENT 7 5 22 17
REMARK Flexibility Score: inf
ROOT
ATOM      1  C   UNL     1      62.001  66.386  80.180  1.00  0.00     0.010 C 
ENDROOT
BRANCH   1   2
ATOM      2  C   UNL     1      62.326  67.420  81.293  1.00  0.00     0.100 C 
BRANCH   2   3
ATOM      3  C   UNL     1      63.709  67.942  81.220  1.00  0.00     0.220 C 
ATOM      4  N   UNL     1      64.727  67.288  81.850  1.00  0.00    -0.352 N 
ATOM      5  H   UNL     1      64.442  66.479  82.382  1.00  0.00     0.163 HD
ATOM      6  O   UNL     1      63.925  68.981  80.548  1.00  0.00    -0.275 OA
BRANCH   4   7
ATOM      7  C   UNL     1      66.107  67.666  81.802  1.00  0.00     0.151 C 
BRANCH   7   8
ATOM      8  C   UNL     1      67.030  66.502  81.693  1.00  0.00    -0.025 A 
ATOM      9  C   UNL     1      69.232  65.579  81.104  1.00  0.00     0.160 A 
ATOM     10  C   UNL     1      68.810  64.299  81.524  1.00  0.00     0.157 A 
ATOM     11  C   UNL     1      68.334  66.665  81.173  1.00  0.00     0.056 A 
ATOM     12  C   UNL     1      67.501  64.116  82.007  1.00  0.00     0.050 A 
ATOM     13  C   UNL     1      66.620  65.211  82.101  1.00  0.00     0.009 A 
BRANCH   9  14
ATOM     14  O   UNL     1      70.489  65.759  80.596  1.00  0.00    -0.493 OA
ATOM     15  C   UNL     1      71.113  66.987  81.014  1.00  0.00     0.278 C 
ENDBRANCH   9  14
BRANCH  10  16
ATOM     16  O   UNL     1      69.652  63.234  81.467  1.00  0.00    -0.504 OA
ATOM     17  H   UNL     1      69.485  62.654  82.213  1.00  0.00     0.293 HD
ENDBRANCH  10  16
ENDBRANCH   7   8
ENDBRANCH   4   7
ENDBRANCH   2   3
ENDBRANCH   1   2
BRANCH   1  18
ATOM     18  C   UNL     1      61.897  64.937  80.737  1.00  0.00     0.001 C 
BRANCH  18  19
ATOM     19  C   UNL     1      63.240  64.155  80.703  1.00  0.00     0.000 C 
BRANCH  19  20
ATOM     20  C   UNL     1      63.326  63.220  79.465  1.00  0.00     0.000 C 
BRANCH  20  21
ATOM     21  C   UNL     1      64.224  63.761  78.318  1.00  0.00     0.003 C 
BRANCH  21  22
ATOM     22  C   UNL     1      65.536  64.464  78.796  1.00  0.00    -0.017 C 
ATOM     23  C   UNL     1      65.557  65.949  78.336  1.00  0.00     0.007 C 
ATOM     24  C   UNL     1      66.836  63.735  78.345  1.00  0.00     0.007 C 
ENDBRANCH  21  22
ENDBRANCH  20  21
ENDBRANCH  19  20
ENDBRANCH  18  19
ENDBRANCH   1  18
TORSDOF 11
ENDMDL
