MODEL 1
REMARK VINA RESULT:    -6.187      0.000      0.000
REMARK INTER + INTRA:         -10.245
REMARK INTER:                  -9.623
REMARK INTRA:                  -0.622
REMARK UNBOUND:                -0.622
REMARK SMILES COc1cc(CNC(=O)CCCCCC(C)C)ccc1O
REMARK SMILES IDX 10 1 8 2 7 3 9 5 6 6 5 7 3 8 20 9 4 10 19 11 18 12 2 13 1 14
REMARK SMILES IDX 21 15 11 17 12 18 13 19 14 20 15 21 16 22 17 23
REMARK H PARENT 7 4 21 16
REMARK Flexibility Score: inf
ROOT
ATOM      1  C   UNL     1      94.143  99.282  74.342  1.00  0.00     0.100 C 
ENDROOT
BRANCH   1   2
ATOM      2  C   UNL     1      93.514  99.952  73.185  1.00  0.00     0.220 C 
ATOM      3  N   UNL     1      92.155  99.974  73.081  1.00  0.00    -0.352 N 
ATOM      4  H   UNL     1      91.668  99.401  73.755  1.00  0.00     0.163 HD
ATOM      5  O   UNL     1      94.245 100.525  72.341  1.00  0.00    -0.275 OA
BRANCH   3   6
ATOM      6  C   UNL     1      91.416 100.726  72.118  1.00  0.00     0.151 C 
BRANCH   6   7
ATOM      7  C   UNL     1      90.507  99.886  71.293  1.00  0.00    -0.025 A 
ATOM      8  C   UNL     1      88.965  99.645  69.392  1.00  0.00     0.160 A 
ATOM      9  C   UNL     1      88.827  98.271  69.681  1.00  0.00     0.157 A 
ATOM     10  C   UNL     1      89.789 100.448  70.211  1.00  0.00     0.056 A 
ATOM     11  C   UNL     1      89.516  97.708  70.771  1.00  0.00     0.050 A 
ATOM     12  C   UNL     1      90.353  98.507  71.568  1.00  0.00     0.009 A 
BRANCH   8  13
ATOM     13  O   UNL     1      88.288 100.218  68.347  1.00  0.00    -0.493 OA
ATOM     14  C   UNL     1      89.085 101.129  67.566  1.00  0.00     0.278 C 
ENDBRANCH   8  13
BRANCH   9  15
ATOM     15  O   UNL     1      88.036  97.492  68.902  1.00  0.00    -0.504 OA
ATOM     16  H   UNL     1      87.328  98.023  68.532  1.00  0.00     0.293 HD
ENDBRANCH   9  15
ENDBRANCH   6   7
ENDBRANCH   3   6
ENDBRANCH   1   2
BRANCH   1  17
ATOM     17  C   UNL     1      93.140  98.580  75.296  1.00  0.00     0.010 C 
BRANCH  17  18
ATOM     18  C   UNL     1      93.531  97.098  75.549  1.00  0.00     0.001 C 
BRANCH  18  19
ATOM     19  C   UNL     1      93.101  96.577  76.946  1.00  0.00     0.000 C 
BRANCH  19  20
ATOM     20  C   UNL     1      91.575  96.281  77.019  1.00  0.00     0.003 C 
BRANCH  20  21
ATOM     21  C   UNL     1      91.206  94.815  77.418  1.00  0.00    -0.017 C 
ATOM     22  C   UNL     1      89.671  94.670  77.640  1.00  0.00     0.007 C 
ATOM     23  C   UNL     1      91.976  94.318  78.675  1.00  0.00     0.007 C 
ENDBRANCH  20  21
ENDBRANCH  19  20
ENDBRANCH  18  19
ENDBRANCH  17  18
ENDBRANCH   1  17
TORSDOF 10
ENDMDL
MODEL 2
REMARK VINA RESULT:    -6.012     31.430     33.301
REMARK INTER + INTRA:          -9.973
REMARK INTER:                  -8.803
REMARK INTRA:                  -1.169
REMARK UNBOUND:                -0.622
REMARK SMILES COc1cc(CNC(=O)CCCCCC(C)C)ccc1O
REMARK SMILES IDX 10 1 8 2 7 3 9 5 6 6 5 7 3 8 20 9 4 10 19 11 18 12 2 13 1 14
REMARK SMILES IDX 21 15 11 17 12 18 13 19 14 20 15 21 16 22 17 23
REMARK H PARENT 7 4 21 16
REMARK Flexibility Score: inf
ROOT
ATOM      1  C   UNL     1      62.246  81.333  73.657  1.00  0.00     0.100 C 
ENDROOT
BRANCH   1   2
ATOM      2  C   UNL     1      61.822  82.617  74.253  1.00  0.00     0.220 C 
ATOM      3  N   UNL     1      61.319  83.594  73.447  1.00  0.00    -0.352 N 
ATOM      4  H   UNL     1      61.397  83.411  72.457  1.00  0.00     0.163 HD
ATOM      5  O   UNL     1      61.894  82.764  75.497  1.00  0.00    -0.275 OA
BRANCH   3   6
ATOM      6  C   UNL     1      60.715  84.805  73.903  1.00  0.00     0.151 C 
BRANCH   6   7
ATOM      7  C   UNL     1      59.949  85.512  72.842  1.00  0.00    -0.025 A 
ATOM      8  C   UNL     1      59.300  87.596  71.710  1.00  0.00     0.160 A 
ATOM      9  C   UNL     1      58.543  86.853  70.780  1.00  0.00     0.157 A 
ATOM     10  C   UNL     1      59.982  86.924  72.745  1.00  0.00     0.056 A 
ATOM     11  C   UNL     1      58.481  85.451  70.882  1.00  0.00     0.050 A 
ATOM     12  C   UNL     1      59.183  84.785  71.902  1.00  0.00     0.009 A 
BRANCH   8  13
ATOM     13  O   UNL     1      59.357  88.964  71.639  1.00  0.00    -0.493 OA
ATOM     14  C   UNL     1      60.370  89.548  72.481  1.00  0.00     0.278 C 
ENDBRANCH   8  13
BRANCH   9  15
ATOM     15  O   UNL     1      57.881  87.490  69.781  1.00  0.00    -0.504 OA
ATOM     16  H   UNL     1      56.973  87.647  70.049  1.00  0.00     0.293 HD
ENDBRANCH   9  15
ENDBRANCH   6   7
ENDBRANCH   3   6
ENDBRANCH   1   2
BRANCH   1  17
ATOM     17  C   UNL     1      63.784  81.174  73.512  1.00  0.00     0.010 C 
BRANCH  17  18
ATOM     18  C   UNL     1      64.244  81.375  72.042  1.00  0.00     0.001 C 
BRANCH  18  19
ATOM     19  C   UNL     1      64.650  82.837  71.718  1.00  0.00     0.000 C 
BRANCH  19  20
ATOM     20  C   UNL     1      64.350  83.218  70.239  1.00  0.00     0.003 C 
BRANCH  20  21
ATOM     21  C   UNL     1      62.887  82.930  69.768  1.00  0.00    -0.017 C 
ATOM     22  C   UNL     1      62.881  82.059  68.477  1.00  0.00     0.007 C 
ATOM     23  C   UNL     1      62.059  84.228  69.540  1.00  0.00     0.007 C 
ENDBRANCH  20  21
ENDBRANCH  19  20
ENDBRANCH  18  19
ENDBRANCH  17  18
ENDBRANCH   1  17
TORSDOF 10
ENDMDL
MODEL 3
REMARK VINA RESULT:    -5.945     20.364     22.858
REMARK INTER + INTRA:          -9.868
REMARK INTER:                  -8.447
REMARK INTRA:                  -1.420
REMARK UNBOUND:                -0.622
REMARK SMILES COc1cc(CNC(=O)CCCCCC(C)C)ccc1O
REMARK SMILES IDX 10 1 8 2 7 3 9 5 6 6 5 7 3 8 20 9 4 10 19 11 18 12 2 13 1 14
REMARK SMILES IDX 21 15 11 17 12 18 13 19 14 20 15 21 16 22 17 23
REMARK H PARENT 7 4 21 16
REMARK Flexibility Score: inf
ROOT
ATOM      1  C   UNL     1      75.291  86.469  70.260  1.00  0.00     0.100 C 
ENDROOT
BRANCH   1   2
ATOM      2  C   UNL     1      74.364  86.541  69.111  1.00  0.00     0.220 C 
ATOM      3  N   UNL     1      73.814  85.394  68.622  1.00  0.00    -0.352 N 
ATOM      4  H   UNL     1      74.193  84.542  69.010  1.00  0.00     0.163 HD
ATOM      5  O   UNL     1      74.070  87.664  68.635  1.00  0.00    -0.275 OA
BRANCH   3   6
ATOM      6  C   UNL     1      72.781  85.332  67.639  1.00  0.00     0.151 C 
BRANCH   6   7
ATOM      7  C   UNL     1      72.660  83.993  67.002  1.00  0.00    -0.025 A 
ATOM      8  C   UNL     1      73.707  82.000  66.012  1.00  0.00     0.160 A 
ATOM      9  C   UNL     1      72.433  81.414  65.849  1.00  0.00     0.157 A 
ATOM     10  C   UNL     1      73.811  83.292  66.570  1.00  0.00     0.056 A 
ATOM     11  C   UNL     1      71.280  82.114  66.251  1.00  0.00     0.050 A 
ATOM     12  C   UNL     1      71.392  83.390  66.828  1.00  0.00     0.009 A 
BRANCH   8  13
ATOM     13  O   UNL     1      74.841  81.344  65.610  1.00  0.00    -0.493 OA
ATOM     14  C   UNL     1      75.344  81.782  64.333  1.00  0.00     0.278 C 
ENDBRANCH   8  13
BRANCH   9  15
ATOM     15  O   UNL     1      72.322  80.174  65.313  1.00  0.00    -0.504 OA
ATOM     16  H   UNL     1      73.194  79.843  65.086  1.00  0.00     0.293 HD
ENDBRANCH   9  15
ENDBRANCH   6   7
ENDBRANCH   3   6
ENDBRANCH   1   2
BRANCH   1  17
ATOM     17  C   UNL     1      75.505  85.037  70.819  1.00  0.00     0.010 C 
BRANCH  17  18
ATOM     18  C   UNL     1      76.933  84.509  70.508  1.00  0.00     0.001 C 
BRANCH  18  19
ATOM     19  C   UNL     1      77.138  84.128  69.017  1.00  0.00     0.000 C 
BRANCH  19  20
ATOM     20  C   UNL     1      78.329  84.894  68.373  1.00  0.00     0.003 C 
BRANCH  20  21
ATOM     21  C   UNL     1      77.952  85.795  67.152  1.00  0.00    -0.017 C 
ATOM     22  C   UNL     1      77.710  87.266  67.602  1.00  0.00     0.007 C 
ATOM     23  C   UNL     1      76.715  85.266  66.370  1.00  0.00     0.007 C 
ENDBRANCH  20  21
ENDBRANCH  19  20
ENDBRANCH  18  19
ENDBRANCH  17  18
ENDBRANCH   1  17
TORSDOF 10
ENDMDL
MODEL 4
REMARK VINA RESULT:    -5.846     19.883     22.304
REMARK INTER + INTRA:          -9.714
REMARK INTER:                  -8.574
REMARK INTRA:                  -1.140
REMARK UNBOUND:                -0.622
REMARK SMILES COc1cc(CNC(=O)CCCCCC(C)C)ccc1O
REMARK SMILES IDX 10 1 8 2 7 3 9 5 6 6 5 7 3 8 20 9 4 10 19 11 18 12 2 13 1 14
REMARK SMILES IDX 21 15 11 17 12 18 13 19 14 20 15 21 16 22 17 23
REMARK H PARENT 7 4 21 16
REMARK Flexibility Score: inf
ROOT
ATOM      1  C   UNL     1      76.494  87.286  66.449  1.00  0.00     0.100 C 
ENDROOT
BRANCH   1   2
ATOM      2  C   UNL     1      76.497  86.406  65.262  1.00  0.00     0.220 C 
ATOM      3  N   UNL     1      76.755  85.076  65.416  1.00  0.00    -0.352 N 
ATOM      4  H   UNL     1      77.061  84.807  66.340  1.00  0.00     0.163 HD
ATOM      5  O   UNL     1      76.221  86.896  64.140  1.00  0.00    -0.275 OA
BRANCH   3   6
ATOM      6  C   UNL     1      76.621  84.090  64.392  1.00  0.00     0.151 C 
BRANCH   6   7
ATOM      7  C   UNL     1      75.572  83.078  64.689  1.00  0.00    -0.025 A 
ATOM      8  C   UNL     1      73.494  82.434  65.836  1.00  0.00     0.160 A 
ATOM      9  C   UNL     1      73.538  81.174  65.203  1.00  0.00     0.157 A 
ATOM     10  C   UNL     1      74.521  83.370  65.590  1.00  0.00     0.056 A 
ATOM     11  C   UNL     1      74.592  80.863  64.325  1.00  0.00     0.050 A 
ATOM     12  C   UNL     1      75.599  81.808  64.066  1.00  0.00     0.009 A 
BRANCH   8  13
ATOM     13  O   UNL     1      72.487  82.750  66.710  1.00  0.00    -0.493 OA
ATOM     14  C   UNL     1      71.724  83.909  66.324  1.00  0.00     0.278 C 
ENDBRANCH   8  13
BRANCH   9  15
ATOM     15  O   UNL     1      72.557  80.266  65.434  1.00  0.00    -0.504 OA
ATOM     16  H   UNL     1      72.889  79.576  66.013  1.00  0.00     0.293 HD
ENDBRANCH   9  15
ENDBRANCH   6   7
ENDBRANCH   3   6
ENDBRANCH   1   2
BRANCH   1  17
ATOM     17  C   UNL     1      77.906  87.626  66.997  1.00  0.00     0.010 C 
BRANCH  17  18
ATOM     18  C   UNL     1      78.048  87.238  68.495  1.00  0.00     0.001 C 
BRANCH  18  19
ATOM     19  C   UNL     1      78.224  85.713  68.723  1.00  0.00     0.000 C 
BRANCH  19  20
ATOM     20  C   UNL     1      77.742  85.270  70.134  1.00  0.00     0.003 C 
BRANCH  20  21
ATOM     21  C   UNL     1      76.602  84.200  70.137  1.00  0.00    -0.017 C 
ATOM     22  C   UNL     1      75.580  84.474  68.994  1.00  0.00     0.007 C 
ATOM     23  C   UNL     1      75.862  84.107  71.503  1.00  0.00     0.007 C 
ENDBRANCH  20  21
ENDBRANCH  19  20
ENDBRANCH  18  19
ENDBRANCH  17  18
ENDBRANCH   1  17
TORSDOF 10
ENDMDL
MODEL 5
REMARK VINA RESULT:    -5.783      3.430      8.715
REMARK INTER + INTRA:          -9.616
REMARK INTER:                  -9.103
REMARK INTRA:                  -0.513
REMARK UNBOUND:                -0.622
REMARK SMILES COc1cc(CNC(=O)CCCCCC(C)C)ccc1O
REMARK SMILES IDX 10 1 8 2 7 3 9 5 6 6 5 7 3 8 20 9 4 10 19 11 18 12 2 13 1 14
REMARK SMILES IDX 21 15 11 17 12 18 13 19 14 20 15 21 16 22 17 23
REMARK H PARENT 7 4 21 16
REMARK Flexibility Score: inf
ROOT
ATOM      1  C   UNL     1      92.978  99.507  73.270  1.00  0.00     0.100 C 
ENDROOT
BRANCH   1   2
ATOM      2  C   UNL     1      93.331  99.327  74.694  1.00  0.00     0.220 C 
ATOM      3  N   UNL     1      93.703  98.094  75.140  1.00  0.00    -0.352 N 
ATOM      4  H   UNL     1      93.581  97.346  74.473  1.00  0.00     0.163 HD
ATOM      5  O   UNL     1      93.320 100.325  75.454  1.00  0.00    -0.275 OA
BRANCH   3   6
ATOM      6  C   UNL     1      94.231  97.815  76.437  1.00  0.00     0.151 C 
BRANCH   6   7
ATOM      7  C   UNL     1      93.521  96.707  77.131  1.00  0.00    -0.025 A 
ATOM      8  C   UNL     1      93.335  95.148  79.024  1.00  0.00     0.160 A 
ATOM      9  C   UNL     1      92.133  94.642  78.487  1.00  0.00     0.157 A 
ATOM     10  C   UNL     1      94.031  96.164  78.334  1.00  0.00     0.056 A 
ATOM     11  C   UNL     1      91.630  95.157  77.277  1.00  0.00     0.050 A 
ATOM     12  C   UNL     1      92.315  96.184  76.607  1.00  0.00     0.009 A 
BRANCH   8  13
ATOM     13  O   UNL     1      93.852  94.647  80.190  1.00  0.00    -0.493 OA
ATOM     14  C   UNL     1      94.929  93.710  79.994  1.00  0.00     0.278 C 
ENDBRANCH   8  13
BRANCH   9  15
ATOM     15  O   UNL     1      91.457  93.665  79.141  1.00  0.00    -0.504 OA
ATOM     16  H   UNL     1      91.620  93.739  80.084  1.00  0.00     0.293 HD
ENDBRANCH   9  15
ENDBRANCH   6   7
ENDBRANCH   3   6
ENDBRANCH   1   2
BRANCH   1  17
ATOM     17  C   UNL     1      91.822 100.512  73.021  1.00  0.00     0.010 C 
BRANCH  17  18
ATOM     18  C   UNL     1      91.329 100.465  71.548  1.00  0.00     0.001 C 
BRANCH  18  19
ATOM     19  C   UNL     1      90.058  99.596  71.351  1.00  0.00     0.000 C 
BRANCH  19  20
ATOM     20  C   UNL     1      90.134  98.725  70.064  1.00  0.00     0.003 C 
BRANCH  20  21
ATOM     21  C   UNL     1      88.818  98.674  69.223  1.00  0.00    -0.017 C 
ATOM     22  C   UNL     1      88.684  97.310  68.483  1.00  0.00     0.007 C 
ATOM     23  C   UNL     1      88.705  99.846  68.205  1.00  0.00     0.007 C 
ENDBRANCH  20  21
ENDBRANCH  19  20
ENDBRANCH  18  19
ENDBRANCH  17  18
ENDBRANCH   1  17
TORSDOF 10
ENDMDL
MODEL 6
REMARK VINA RESULT:    -5.675     17.258     20.536
REMARK INTER + INTRA:          -9.448
REMARK INTER:                  -8.911
REMARK INTRA:                  -0.537
REMARK UNBOUND:                -0.622
REMARK SMILES COc1cc(CNC(=O)CCCCCC(C)C)ccc1O
REMARK SMILES IDX 10 1 8 2 7 3 9 5 6 6 5 7 3 8 20 9 4 10 19 11 18 12 2 13 1 14
REMARK SMILES IDX 21 15 11 17 12 18 13 19 14 20 15 21 16 22 17 23
REMARK H PARENT 7 4 21 16
REMARK Flexibility Score: inf
ROOT
ATOM      1  C   UNL     1      98.187  82.424  79.454  1.00  0.00     0.100 C 
ENDROOT
BRANCH   1   2
ATOM      2  C   UNL     1      98.858  82.684  80.745  1.00  0.00     0.220 C 
ATOM      3  N   UNL     1      98.505  81.956  81.842  1.00  0.00    -0.352 N 
ATOM      4  H   UNL     1      97.695  81.365  81.717  1.00  0.00     0.163 HD
ATOM      5  O   UNL     1      99.771  83.544  80.795  1.00  0.00    -0.275 OA
BRANCH   3   6
ATOM      6  C   UNL     1      99.183  81.981  83.098  1.00  0.00     0.151 C 
BRANCH   6   7
ATOM      7  C   UNL     1      98.549  82.894  84.086  1.00  0.00    -0.025 A 
ATOM      8  C   UNL     1      98.516  83.932  86.316  1.00  0.00     0.160 A 
ATOM      9  C   UNL     1      97.381  84.684  85.946  1.00  0.00     0.157 A 
ATOM     10  C   UNL     1      99.082  83.028  85.391  1.00  0.00     0.056 A 
ATOM     11  C   UNL     1      96.828  84.539  84.661  1.00  0.00     0.050 A 
ATOM     12  C   UNL     1      97.410  83.656  83.736  1.00  0.00     0.009 A 
BRANCH   8  13
ATOM     13  O   UNL     1      99.059  84.044  87.569  1.00  0.00    -0.493 OA
ATOM     14  C   UNL     1      98.821  82.899  88.410  1.00  0.00     0.278 C 
ENDBRANCH   8  13
BRANCH   9  15
ATOM     15  O   UNL     1      96.829  85.554  86.829  1.00  0.00    -0.504 OA
ATOM     16  H   UNL     1      95.925  85.745  86.567  1.00  0.00     0.293 HD
ENDBRANCH   9  15
ENDBRANCH   6   7
ENDBRANCH   3   6
ENDBRANCH   1   2
BRANCH   1  17
ATOM     17  C   UNL     1      97.605  83.691  78.771  1.00  0.00     0.010 C 
BRANCH  17  18
ATOM     18  C   UNL     1      97.453  83.495  77.237  1.00  0.00     0.001 C 
BRANCH  18  19
ATOM     19  C   UNL     1      98.487  84.300  76.407  1.00  0.00     0.000 C 
BRANCH  19  20
ATOM     20  C   UNL     1      99.809  83.508  76.186  1.00  0.00     0.003 C 
BRANCH  20  21
ATOM     21  C   UNL     1     100.869  84.229  75.292  1.00  0.00    -0.017 C 
ATOM     22  C   UNL     1     102.261  84.251  75.990  1.00  0.00     0.007 C 
ATOM     23  C   UNL     1     100.446  85.675  74.899  1.00  0.00     0.007 C 
ENDBRANCH  20  21
ENDBRANCH  19  20
ENDBRANCH  18  19
ENDBRANCH  17  18
ENDBRANCH   1  17
TORSDOF 10
ENDMDL
MODEL 7
REMARK VINA RESULT:    -5.625      2.457      8.355
REMARK INTER + INTRA:          -9.371
REMARK INTER:                  -8.739
REMARK INTRA:                  -0.632
REMARK UNBOUND:                -0.622
REMARK SMILES COc1cc(CNC(=O)CCCCCC(C)C)ccc1O
REMARK SMILES IDX 10 1 8 2 7 3 9 5 6 6 5 7 3 8 20 9 4 10 19 11 18 12 2 13 1 14
REMARK SMILES IDX 21 15 11 17 12 18 13 19 14 20 15 21 16 22 17 23
REMARK H PARENT 7 4 21 16
REMARK Flexibility Score: inf
ROOT
ATOM      1  C   UNL     1      91.022  99.631  71.128  1.00  0.00     0.100 C 
ENDROOT
BRANCH   1   2
ATOM      2  C   UNL     1      91.500 100.299  72.357  1.00  0.00     0.220 C 
ATOM      3  N   UNL     1      92.241  99.593  73.258  1.00  0.00    -0.352 N 
ATOM      4  H   UNL     1      92.300  98.601  73.075  1.00  0.00     0.163 HD
ATOM      5  O   UNL     1      91.248 101.517  72.526  1.00  0.00    -0.275 OA
BRANCH   3   6
ATOM      6  C   UNL     1      92.907 100.151  74.391  1.00  0.00     0.151 C 
BRANCH   6   7
ATOM      7  C   UNL     1      93.461  99.120  75.309  1.00  0.00    -0.025 A 
ATOM      8  C   UNL     1      93.317  96.901  76.359  1.00  0.00     0.160 A 
ATOM      9  C   UNL     1      94.550  97.129  77.006  1.00  0.00     0.157 A 
ATOM     10  C   UNL     1      92.771  97.904  75.530  1.00  0.00     0.056 A 
ATOM     11  C   UNL     1      95.231  98.345  76.814  1.00  0.00     0.050 A 
ATOM     12  C   UNL     1      94.694  99.330  75.968  1.00  0.00     0.009 A 
BRANCH   8  13
ATOM     13  O   UNL     1      92.627  95.732  76.548  1.00  0.00    -0.493 OA
ATOM     14  C   UNL     1      91.526  95.848  77.470  1.00  0.00     0.278 C 
ENDBRANCH   8  13
BRANCH   9  15
ATOM     15  O   UNL     1      95.082  96.172  77.806  1.00  0.00    -0.504 OA
ATOM     16  H   UNL     1      95.306  95.402  77.279  1.00  0.00     0.293 HD
ENDBRANCH   9  15
ENDBRANCH   6   7
ENDBRANCH   3   6
ENDBRANCH   1   2
BRANCH   1  17
ATOM     17  C   UNL     1      89.526  99.221  71.165  1.00  0.00     0.010 C 
BRANCH  17  18
ATOM     18  C   UNL     1      89.249  97.981  70.270  1.00  0.00     0.001 C 
BRANCH  18  19
ATOM     19  C   UNL     1      89.178  98.317  68.757  1.00  0.00     0.000 C 
BRANCH  19  20
ATOM     20  C   UNL     1      88.360  99.612  68.480  1.00  0.00     0.003 C 
BRANCH  20  21
ATOM     21  C   UNL     1      89.218 100.891  68.212  1.00  0.00    -0.017 C 
ATOM     22  C   UNL     1      88.307 102.130  67.969  1.00  0.00     0.007 C 
ATOM     23  C   UNL     1      90.209 100.716  67.025  1.00  0.00     0.007 C 
ENDBRANCH  20  21
ENDBRANCH  19  20
ENDBRANCH  18  19
ENDBRANCH  17  18
ENDBRANCH   1  17
TORSDOF 10
ENDMDL
MODEL 8
REMARK VINA RESULT:    -5.605     17.501     19.792
REMARK INTER + INTRA:          -9.340
REMARK INTER:                  -8.759
REMARK INTRA:                  -0.581
REMARK UNBOUND:                -0.622
REMARK SMILES COc1cc(CNC(=O)CCCCCC(C)C)ccc1O
REMARK SMILES IDX 10 1 8 2 7 3 9 5 6 6 5 7 3 8 20 9 4 10 19 11 18 12 2 13 1 14
REMARK SMILES IDX 21 15 11 17 12 18 13 19 14 20 15 21 16 22 17 23
REMARK H PARENT 7 4 21 16
REMARK Flexibility Score: inf
ROOT
ATOM      1  C   UNL     1      97.432  82.420  84.521  1.00  0.00     0.100 C 
ENDROOT
BRANCH   1   2
ATOM      2  C   UNL     1      98.623  82.395  83.646  1.00  0.00     0.220 C 
ATOM      3  N   UNL     1      98.469  82.565  82.302  1.00  0.00    -0.352 N 
ATOM      4  H   UNL     1      97.512  82.566  81.981  1.00  0.00     0.163 HD
ATOM      5  O   UNL     1      99.757  82.260  84.165  1.00  0.00    -0.275 OA
BRANCH   3   6
ATOM      6  C   UNL     1      99.536  82.736  81.369  1.00  0.00     0.151 C 
BRANCH   6   7
ATOM      7  C   UNL     1      99.063  83.011  79.985  1.00  0.00    -0.025 A 
ATOM      8  C   UNL     1      99.492  83.113  77.566  1.00  0.00     0.160 A 
ATOM      9  C   UNL     1      98.145  83.471  77.345  1.00  0.00     0.157 A 
ATOM     10  C   UNL     1      99.947  82.904  78.885  1.00  0.00     0.056 A 
ATOM     11  C   UNL     1      97.264  83.607  78.433  1.00  0.00     0.050 A 
ATOM     12  C   UNL     1      97.718  83.373  79.743  1.00  0.00     0.009 A 
BRANCH   8  13
ATOM     13  O   UNL     1     100.371  82.995  76.521  1.00  0.00    -0.493 OA
ATOM     14  C   UNL     1     101.402  84.002  76.512  1.00  0.00     0.278 C 
ENDBRANCH   8  13
BRANCH   9  15
ATOM     15  O   UNL     1      97.698  83.677  76.080  1.00  0.00    -0.504 OA
ATOM     16  H   UNL     1      97.704  82.846  75.600  1.00  0.00     0.293 HD
ENDBRANCH   9  15
ENDBRANCH   6   7
ENDBRANCH   3   6
ENDBRANCH   1   2
BRANCH   1  17
ATOM     17  C   UNL     1      97.264  81.155  85.406  1.00  0.00     0.010 C 
BRANCH  17  18
ATOM     18  C   UNL     1      96.209  81.376  86.525  1.00  0.00     0.001 C 
BRANCH  18  19
ATOM     19  C   UNL     1      95.250  82.562  86.243  1.00  0.00     0.000 C 
BRANCH  19  20
ATOM     20  C   UNL     1      93.934  82.464  87.068  1.00  0.00     0.003 C 
BRANCH  20  21
ATOM     21  C   UNL     1      93.142  81.127  86.891  1.00  0.00    -0.017 C 
ATOM     22  C   UNL     1      91.781  81.379  86.176  1.00  0.00     0.007 C 
ATOM     23  C   UNL     1      92.908  80.380  88.236  1.00  0.00     0.007 C 
ENDBRANCH  20  21
ENDBRANCH  19  20
ENDBRANCH  18  19
ENDBRANCH  17  18
ENDBRANCH   1  17
TORSDOF 10
ENDMDL
MODEL 9
REMARK VINA RESULT:    -5.504      7.528     12.036
REMARK INTER + INTRA:          -9.182
REMARK INTER:                  -8.261
REMARK INTRA:                  -0.921
REMARK UNBOUND:                -0.622
REMARK SMILES COc1cc(CNC(=O)CCCCCC(C)C)ccc1O
REMARK SMILES IDX 10 1 8 2 7 3 9 5 6 6 5 7 3 8 20 9 4 10 19 11 18 12 2 13 1 14
REMARK SMILES IDX 21 15 11 17 12 18 13 19 14 20 15 21 16 22 17 23
REMARK H PARENT 7 4 21 16
REMARK Flexibility Score: inf
ROOT
ATOM      1  C   UNL     1      94.717  93.568  79.712  1.00  0.00     0.100 C 
ENDROOT
BRANCH   1   2
ATOM      2  C   UNL     1      95.143  93.744  81.116  1.00  0.00     0.220 C 
ATOM      3  N   UNL     1      96.018  94.740  81.430  1.00  0.00    -0.352 N 
ATOM      4  H   UNL     1      96.423  95.216  80.637  1.00  0.00     0.163 HD
ATOM      5  O   UNL     1      94.655  92.996  81.999  1.00  0.00    -0.275 OA
BRANCH   3   6
ATOM      6  C   UNL     1      96.377  95.131  82.756  1.00  0.00     0.151 C 
BRANCH   6   7
ATOM      7  C   UNL     1      96.275  96.598  82.980  1.00  0.00    -0.025 A 
ATOM      8  C   UNL     1      97.170  98.675  83.948  1.00  0.00     0.160 A 
ATOM      9  C   UNL     1      96.119  99.403  83.352  1.00  0.00     0.157 A 
ATOM     10  C   UNL     1      97.231  97.275  83.774  1.00  0.00     0.056 A 
ATOM     11  C   UNL     1      95.148  98.736  82.582  1.00  0.00     0.050 A 
ATOM     12  C   UNL     1      95.228  97.346  82.393  1.00  0.00     0.009 A 
BRANCH   8  13
ATOM     13  O   UNL     1      98.115  99.302  84.717  1.00  0.00    -0.493 OA
ATOM     14  C   UNL     1      99.343  99.582  84.017  1.00  0.00     0.278 C 
ENDBRANCH   8  13
BRANCH   9  15
ATOM     15  O   UNL     1      96.050 100.748  83.514  1.00  0.00    -0.504 OA
ATOM     16  H   UNL     1      96.636 101.015  84.226  1.00  0.00     0.293 HD
ENDBRANCH   9  15
ENDBRANCH   6   7
ENDBRANCH   3   6
ENDBRANCH   1   2
BRANCH   1  17
ATOM     17  C   UNL     1      93.361  94.240  79.367  1.00  0.00     0.010 C 
BRANCH  17  18
ATOM     18  C   UNL     1      93.534  95.752  79.056  1.00  0.00     0.001 C 
BRANCH  18  19
ATOM     19  C   UNL     1      94.647  96.043  78.015  1.00  0.00     0.000 C 
BRANCH  19  20
ATOM     20  C   UNL     1      94.301  95.476  76.608  1.00  0.00     0.003 C 
BRANCH  20  21
ATOM     21  C   UNL     1      94.264  96.535  75.459  1.00  0.00    -0.017 C 
ATOM     22  C   UNL     1      95.656  97.212  75.283  1.00  0.00     0.007 C 
ATOM     23  C   UNL     1      93.167  97.619  75.671  1.00  0.00     0.007 C 
ENDBRANCH  20  21
ENDBRANCH  19  20
ENDBRANCH  18  19
ENDBRANCH  17  18
ENDBRANCH   1  17
TORSDOF 10
ENDMDL
MODEL 10
REMARK VINA RESULT:    -5.503     17.223     21.253
REMARK INTER + INTRA:          -9.181
REMARK INTER:                  -8.014
REMARK INTRA:                  -1.167
REMARK UNBOUND:                -0.622
REMARK SMILES COc1cc(CNC(=O)CCCCCC(C)C)ccc1O
REMARK SMILES IDX 10 1 8 2 7 3 9 5 6 6 5 7 3 8 20 9 4 10 19 11 18 12 2 13 1 14
REMARK SMILES IDX 21 15 11 17 12 18 13 19 14 20 15 21 16 22 17 23
REMARK H PARENT 7 4 21 16
REMARK Flexibility Score: inf
ROOT
ATOM      1  C   UNL     1      97.968  82.535  78.773  1.00  0.00     0.100 C 
ENDROOT
BRANCH   1   2
ATOM      2  C   UNL     1      98.966  82.560  79.863  1.00  0.00     0.220 C 
ATOM      3  N   UNL     1      99.817  81.506  80.015  1.00  0.00    -0.352 N 
ATOM      4  H   UNL     1      99.611  80.706  79.435  1.00  0.00     0.163 HD
ATOM      5  O   UNL     1      99.036  83.572  80.602  1.00  0.00    -0.275 OA
BRANCH   3   6
ATOM      6  C   UNL     1     100.933  81.473  80.906  1.00  0.00     0.151 C 
BRANCH   6   7
ATOM      7  C   UNL     1     102.243  81.468  80.202  1.00  0.00    -0.025 A 
ATOM      8  C   UNL     1     104.686  81.188  80.244  1.00  0.00     0.160 A 
ATOM      9  C   UNL     1     104.732  81.394  78.849  1.00  0.00     0.157 A 
ATOM     10  C   UNL     1     103.445  81.246  80.914  1.00  0.00     0.056 A 
ATOM     11  C   UNL     1     103.545  81.643  78.135  1.00  0.00     0.050 A 
ATOM     12  C   UNL     1     102.310  81.674  78.804  1.00  0.00     0.009 A 
BRANCH   8  13
ATOM     13  O   UNL     1     105.832  80.964  80.962  1.00  0.00    -0.493 OA
ATOM     14  C   UNL     1     105.642  81.008  82.389  1.00  0.00     0.278 C 
ENDBRANCH   8  13
BRANCH   9  15
ATOM     15  O   UNL     1     105.919  81.343  78.196  1.00  0.00    -0.504 OA
ATOM     16  H   UNL     1     105.768  81.131  77.272  1.00  0.00     0.293 HD
ENDBRANCH   9  15
ENDBRANCH   6   7
ENDBRANCH   3   6
ENDBRANCH   1   2
BRANCH   1  17
ATOM     17  C   UNL     1      97.448  83.936  78.353  1.00  0.00     0.010 C 
BRANCH  17  18
ATOM     18  C   UNL     1      97.853  84.283  76.894  1.00  0.00     0.001 C 
BRANCH  18  19
ATOM     19  C   UNL     1      98.314  83.050  76.072  1.00  0.00     0.000 C 
BRANCH  19  20
ATOM     20  C   UNL     1      99.796  83.170  75.612  1.00  0.00     0.003 C 
BRANCH  20  21
ATOM     21  C   UNL     1     100.456  84.564  75.870  1.00  0.00    -0.017 C 
ATOM     22  C   UNL     1     100.460  85.425  74.572  1.00  0.00     0.007 C 
ATOM     23  C   UNL     1     101.899  84.452  76.441  1.00  0.00     0.007 C 
ENDBRANCH  20  21
ENDBRANCH  19  20
ENDBRANCH  18  19
ENDBRANCH  17  18
ENDBRANCH   1  17
TORSDOF 10
ENDMDL
