MODEL 1
REMARK VINA RESULT:    -7.300      0.000      0.000
REMARK INTER + INTRA:         -12.857
REMARK INTER:                 -12.421
REMARK INTRA:                  -0.436
REMARK UNBOUND:                -0.436
REMARK SMILES C=C(C)[C@]12C[C@@H](C)[C@@]34O[C@](Cc5ccccc5)(O[C@@H]1[C@@H]3C=C(COC(=O)Cc1ccc(O)cc1)C[C@]1(O)C(=O)C(C)=C[C@@H]41)O2
REMARK SMILES IDX 23 1 22 2 21 3 20 4 9 5 8 6 10 7 6 8 18 10 44 11 19 12 5 13
REMARK SMILES IDX 7 14 4 15 11 16 12 17 13 18 17 19 14 20 16 21 15 22 2 23
REMARK SMILES IDX 3 24 1 25 35 26 36 27 43 28 38 29 42 30 39 32 40 33 41 34
REMARK SMILES IDX 37 35 24 37 25 38 26 39 27 40 28 41 29 42 34 43 30 44 33 45
REMARK SMILES IDX 31 46 32 47
REMARK H PARENT 37 36 32 48
REMARK Flexibility Score: 90.00
ROOT
ATOM      1  C   UNL     1      57.446  86.709  72.524  1.00  0.00     0.264 C 
ENDROOT
BRANCH   1   2
ATOM      2  C   UNL     1      58.591  86.301  73.422  1.00  0.00    -0.033 C 
ATOM      3  C   UNL     1      59.475  85.380  72.985  1.00  0.00    -0.015 C 
BRANCH   3   4
ATOM      4  C   UNL     1      60.654  84.753  73.713  1.00  0.00     0.078 C 
ATOM      5  O   UNL     1      62.639  86.133  73.193  1.00  0.00    -0.319 OA
ATOM      6  C   UNL     1      61.770  85.700  74.286  1.00  0.00     0.095 CG0
ATOM      7  C   UNL     1      63.002  85.104  72.253  1.00  0.00     0.289 C 
ATOM      8  C   UNL     1      62.619  84.864  75.331  1.00  0.00     0.023 C 
ATOM      9  G   UNL     1      61.149  87.019  74.833  1.00  0.00     0.000 G0
ATOM     10  O   UNL     1      61.849  84.508  71.667  1.00  0.00    -0.320 OA
ATOM     11  O   UNL     1      63.718  84.035  72.867  1.00  0.00    -0.313 OA
ATOM     12  C   UNL     1      61.368  83.741  72.782  1.00  0.00     0.170 C 
ATOM     13  C   UNL     1      62.716  83.364  74.918  1.00  0.00     0.049 C 
ATOM     14  C   UNL     1      64.029  85.405  75.621  1.00  0.00     0.011 C 
ATOM     15  C   UNL     1      62.676  83.190  73.399  1.00  0.00     0.122 C 
BRANCH   7  16
ATOM     16  C   UNL     1      63.861  85.730  71.172  1.00  0.00     0.135 C 
BRANCH  16  17
ATOM     17  C   UNL     1      65.330  85.473  71.396  1.00  0.00    -0.040 A 
ATOM     18  C   UNL     1      65.979  86.042  72.491  1.00  0.00     0.004 A 
ATOM     19  C   UNL     1      66.039  84.665  70.507  1.00  0.00     0.004 A 
ATOM     20  C   UNL     1      67.339  85.803  72.698  1.00  0.00     0.000 A 
ATOM     21  C   UNL     1      67.398  84.426  70.714  1.00  0.00     0.000 A 
ATOM     22  C   UNL     1      68.047  84.995  71.809  1.00  0.00     0.000 A 
ENDBRANCH  16  17
ENDBRANCH   7  16
BRANCH  15  23
ATOM     23  C   UNL     1      62.949  81.784  72.975  1.00  0.00    -0.046 C 
ATOM     24  C   UNL     1      63.677  81.615  71.674  1.00  0.00     0.042 C 
ATOM     25  C   UNL     1      62.565  80.733  73.714  1.00  0.00     0.010 C 
ENDBRANCH  15  23
ENDBRANCH   3   4
BRANCH   2  26
ATOM     26  C   UNL     1      58.591  87.027  74.754  1.00  0.00     0.078 C 
BRANCH  26  27
ATOM     27  C   UNL     1      59.826  86.862  75.638  1.00  0.00     0.140 C 
ATOM     28  C   UNL     1      61.139  87.020  74.843  1.00  0.00     0.086 CG0
ATOM     29  C   UNL     1      59.943  87.955  76.680  1.00  0.00     0.190 C 
ATOM     30  C   UNL     1      61.966  87.927  75.711  1.00  0.00    -0.010 C 
ATOM     31  G   UNL     1      61.768  85.708  74.291  1.00  0.00     0.000 G0
ATOM     32  O   UNL     1      59.045  88.326  77.421  1.00  0.00    -0.291 OA
ATOM     33  C   UNL     1      61.317  88.490  76.734  1.00  0.00    -0.008 C 
ATOM     34  C   UNL     1      61.782  89.480  77.727  1.00  0.00     0.048 C 
BRANCH  27  35
ATOM     35  O   UNL     1      59.760  85.671  76.404  1.00  0.00    -0.381 OA
ATOM     36  H   UNL     1      60.665  85.414  76.650  1.00  0.00     0.212 HD
ENDBRANCH  27  35
ENDBRANCH  26  27
ENDBRANCH   2  26
ENDBRANCH   1   2
BRANCH   1  37
ATOM     37  O   UNL     1      57.755  87.937  71.901  1.00  0.00    -0.461 OA
BRANCH  37  38
ATOM     38  C   UNL     1      56.887  88.977  72.143  1.00  0.00     0.310 C 
ATOM     39  O   UNL     1      56.283  89.158  73.191  1.00  0.00    -0.252 OA
BRANCH  38  40
ATOM     40  C   UNL     1      56.797  89.853  70.917  1.00  0.00     0.158 C 
BRANCH  40  41
ATOM     41  C   UNL     1      55.712  89.423  69.964  1.00  0.00    -0.037 A 
ATOM     42  C   UNL     1      55.899  88.303  69.154  1.00  0.00     0.008 A 
ATOM     43  C   UNL     1      54.521  90.144  69.892  1.00  0.00     0.008 A 
ATOM     44  C   UNL     1      54.895  87.905  68.271  1.00  0.00     0.046 A 
ATOM     45  C   UNL     1      53.516  89.746  69.010  1.00  0.00     0.046 A 
ATOM     46  C   UNL     1      53.703  88.627  68.199  1.00  0.00     0.115 A 
BRANCH  46  47
ATOM     47  O   UNL     1      52.724  88.239  67.338  1.00  0.00    -0.508 OA
ATOM     48  H   UNL     1      52.068  88.954  67.262  1.00  0.00     0.293 HD
ENDBRANCH  46  47
ENDBRANCH  40  41
ENDBRANCH  38  40
ENDBRANCH  37  38
ENDBRANCH   1  37
TORSDOF 10
ENDMDL
MODEL 2
REMARK VINA RESULT:    -7.232     32.204     37.616
REMARK INTER + INTRA:         -12.741
REMARK INTER:                 -11.877
REMARK INTRA:                  -0.864
REMARK UNBOUND:                -0.436
REMARK SMILES C=C(C)[C@]12C[C@@H](C)[C@@]34O[C@](Cc5ccccc5)(O[C@@H]1[C@@H]3C=C(COC(=O)Cc1ccc(O)cc1)C[C@]1(O)C(=O)C(C)=C[C@@H]41)O2
REMARK SMILES IDX 23 1 22 2 21 3 20 4 9 5 8 6 10 7 6 8 18 10 44 11 19 12 5 13
REMARK SMILES IDX 7 14 4 15 11 16 12 17 13 18 17 19 14 20 16 21 15 22 2 23
REMARK SMILES IDX 3 24 1 25 35 26 36 27 43 28 38 29 42 30 39 32 40 33 41 34
REMARK SMILES IDX 37 35 24 37 25 38 26 39 27 40 28 41 29 42 34 43 30 44 33 45
REMARK SMILES IDX 31 46 32 47
REMARK H PARENT 37 36 32 48
REMARK Flexibility Score: 90.00
ROOT
ATOM      1  C   UNL     1      97.678  96.182  78.053  1.00  0.00     0.264 C 
ENDROOT
BRANCH   1   2
ATOM      2  C   UNL     1      97.843  97.283  77.032  1.00  0.00    -0.033 C 
ATOM      3  C   UNL     1      97.412  97.082  75.770  1.00  0.00    -0.015 C 
BRANCH   3   4
ATOM      4  C   UNL     1      97.528  97.987  74.554  1.00  0.00     0.078 C 
ATOM      5  O   UNL     1      95.456  99.334  74.457  1.00  0.00    -0.319 OA
ATOM      6  C   UNL     1      96.904  99.429  74.632  1.00  0.00     0.095 CG0
ATOM      7  C   UNL     1      95.019  98.431  73.423  1.00  0.00     0.289 C 
ATOM      8  C   UNL     1      97.519 100.283  73.447  1.00  0.00     0.023 C 
ATOM      9  G   UNL     1      97.084 100.033  76.055  1.00  0.00     0.000 G0
ATOM     10  O   UNL     1      95.507  97.111  73.648  1.00  0.00    -0.320 OA
ATOM     11  O   UNL     1      95.502  98.806  72.136  1.00  0.00    -0.313 OA
ATOM     12  C   UNL     1      96.893  97.297  73.321  1.00  0.00     0.170 C 
ATOM     13  C   UNL     1      97.806  99.399  72.195  1.00  0.00     0.049 C 
ATOM     14  C   UNL     1      96.699 101.514  73.025  1.00  0.00     0.011 C 
ATOM     15  C   UNL     1      96.825  98.231  72.089  1.00  0.00     0.122 C 
BRANCH   7  16
ATOM     16  C   UNL     1      93.503  98.422  73.410  1.00  0.00     0.135 C 
BRANCH  16  17
ATOM     17  C   UNL     1      92.936  99.615  72.681  1.00  0.00    -0.040 A 
ATOM     18  C   UNL     1      93.035 100.887  73.243  1.00  0.00     0.004 A 
ATOM     19  C   UNL     1      92.314  99.444  71.445  1.00  0.00     0.004 A 
ATOM     20  C   UNL     1      92.511 101.991  72.568  1.00  0.00     0.000 A 
ATOM     21  C   UNL     1      91.790 100.547  70.770  1.00  0.00     0.000 A 
ATOM     22  C   UNL     1      91.888 101.820  71.332  1.00  0.00     0.000 A 
ENDBRANCH  16  17
ENDBRANCH   7  16
BRANCH  15  23
ATOM     23  C   UNL     1      96.965  97.479  70.805  1.00  0.00    -0.046 C 
ATOM     24  C   UNL     1      98.367  97.216  70.342  1.00  0.00     0.042 C 
ATOM     25  C   UNL     1      95.898  97.062  70.107  1.00  0.00     0.010 C 
ENDBRANCH  15  23
ENDBRANCH   3   4
BRANCH   2  26
ATOM     26  C   UNL     1      98.499  98.528  77.599  1.00  0.00     0.078 C 
BRANCH  26  27
ATOM     27  C   UNL     1      98.484  99.783  76.728  1.00  0.00     0.140 C 
ATOM     28  C   UNL     1      97.110 100.019  76.068  1.00  0.00     0.086 CG0
ATOM     29  C   UNL     1      98.679 101.050  77.534  1.00  0.00     0.190 C 
ATOM     30  C   UNL     1      96.858 101.483  76.298  1.00  0.00    -0.010 C 
ATOM     31  G   UNL     1      96.926  99.428  74.640  1.00  0.00     0.000 G0
ATOM     32  O   UNL     1      99.553 101.231  78.369  1.00  0.00    -0.291 OA
ATOM     33  C   UNL     1      97.705 102.085  77.139  1.00  0.00    -0.008 C 
ATOM     34  C   UNL     1      97.711 103.470  77.654  1.00  0.00     0.048 C 
BRANCH  27  35
ATOM     35  O   UNL     1      99.568  99.793  75.815  1.00  0.00    -0.381 OA
ATOM     36  H   UNL     1     100.312  99.312  76.216  1.00  0.00     0.212 HD
ENDBRANCH  27  35
ENDBRANCH  26  27
ENDBRANCH   2  26
ENDBRANCH   1   2
BRANCH   1  37
ATOM     37  O   UNL     1      96.536  95.417  77.733  1.00  0.00    -0.461 OA
BRANCH  37  38
ATOM     38  C   UNL     1      95.692  95.117  78.778  1.00  0.00     0.310 C 
ATOM     39  O   UNL     1      95.621  95.745  79.825  1.00  0.00    -0.252 OA
BRANCH  38  40
ATOM     40  C   UNL     1      94.872  93.898  78.430  1.00  0.00     0.158 C 
BRANCH  40  41
ATOM     41  C   UNL     1      93.490  94.241  77.938  1.00  0.00    -0.037 A 
ATOM     42  C   UNL     1      92.448  93.325  78.088  1.00  0.00     0.008 A 
ATOM     43  C   UNL     1      93.250  95.474  77.332  1.00  0.00     0.008 A 
ATOM     44  C   UNL     1      91.169  93.642  77.631  1.00  0.00     0.046 A 
ATOM     45  C   UNL     1      91.971  95.792  76.875  1.00  0.00     0.046 A 
ATOM     46  C   UNL     1      90.930  94.876  77.025  1.00  0.00     0.115 A 
BRANCH  46  47
ATOM     47  O   UNL     1      89.682  95.184  76.579  1.00  0.00    -0.508 OA
ATOM     48  H   UNL     1      89.213  94.361  76.359  1.00  0.00     0.293 HD
ENDBRANCH  46  47
ENDBRANCH  40  41
ENDBRANCH  38  40
ENDBRANCH  37  38
ENDBRANCH   1  37
TORSDOF 10
ENDMDL
MODEL 3
REMARK VINA RESULT:    -7.166     28.226     31.806
REMARK INTER + INTRA:         -12.628
REMARK INTER:                 -11.168
REMARK INTRA:                  -1.460
REMARK UNBOUND:                -0.436
REMARK SMILES C=C(C)[C@]12C[C@@H](C)[C@@]34O[C@](Cc5ccccc5)(O[C@@H]1[C@@H]3C=C(COC(=O)Cc1ccc(O)cc1)C[C@]1(O)C(=O)C(C)=C[C@@H]41)O2
REMARK SMILES IDX 23 1 22 2 21 3 20 4 9 5 8 6 10 7 6 8 18 10 44 11 19 12 5 13
REMARK SMILES IDX 7 14 4 15 11 16 12 17 13 18 17 19 14 20 16 21 15 22 2 23
REMARK SMILES IDX 3 24 1 25 35 26 36 27 43 28 38 29 42 30 39 32 40 33 41 34
REMARK SMILES IDX 37 35 24 37 25 38 26 39 27 40 28 41 29 42 34 43 30 44 33 45
REMARK SMILES IDX 31 46 32 47
REMARK H PARENT 37 36 32 48
REMARK Flexibility Score: 90.00
ROOT
ATOM      1  C   UNL     1      87.416  69.825  75.653  1.00  0.00     0.264 C 
ENDROOT
BRANCH   1   2
ATOM      2  C   UNL     1      86.636  68.619  76.123  1.00  0.00    -0.033 C 
ATOM      3  C   UNL     1      85.455  68.329  75.539  1.00  0.00    -0.015 C 
BRANCH   3   4
ATOM      4  C   UNL     1      84.456  67.233  75.874  1.00  0.00     0.078 C 
ATOM      5  O   UNL     1      85.020  65.286  74.458  1.00  0.00    -0.319 OA
ATOM      6  C   UNL     1      84.946  65.739  75.845  1.00  0.00     0.095 CG0
ATOM      7  C   UNL     1      83.915  65.682  73.622  1.00  0.00     0.289 C 
ATOM      8  C   UNL     1      83.876  64.868  76.624  1.00  0.00     0.023 C 
ATOM      9  G   UNL     1      86.408  65.626  76.368  1.00  0.00     0.000 G0
ATOM     10  O   UNL     1      83.766  67.099  73.598  1.00  0.00    -0.320 OA
ATOM     11  O   UNL     1      82.670  65.172  74.091  1.00  0.00    -0.313 OA
ATOM     12  C   UNL     1      83.242  67.319  74.917  1.00  0.00     0.170 C 
ATOM     13  C   UNL     1      82.435  65.437  76.444  1.00  0.00     0.049 C 
ATOM     14  C   UNL     1      83.877  63.366  76.291  1.00  0.00     0.011 C 
ATOM     15  C   UNL     1      82.265  66.130  75.091  1.00  0.00     0.122 C 
BRANCH   7  16
ATOM     16  C   UNL     1      84.174  65.170  72.219  1.00  0.00     0.135 C 
BRANCH  16  17
ATOM     17  C   UNL     1      83.074  65.557  71.262  1.00  0.00    -0.040 A 
ATOM     18  C   UNL     1      81.904  64.801  71.203  1.00  0.00     0.004 A 
ATOM     19  C   UNL     1      83.227  66.671  70.438  1.00  0.00     0.004 A 
ATOM     20  C   UNL     1      80.885  65.159  70.319  1.00  0.00     0.000 A 
ATOM     21  C   UNL     1      82.209  67.029  69.554  1.00  0.00     0.000 A 
ATOM     22  C   UNL     1      81.039  66.273  69.494  1.00  0.00     0.000 A 
ENDBRANCH  16  17
ENDBRANCH   7  16
BRANCH  15  23
ATOM     23  C   UNL     1      80.849  66.522  74.821  1.00  0.00    -0.046 C 
ATOM     24  C   UNL     1      79.814  65.934  75.734  1.00  0.00     0.042 C 
ATOM     25  C   UNL     1      80.521  67.351  73.819  1.00  0.00     0.010 C 
ENDBRANCH  15  23
ENDBRANCH   3   4
BRANCH   2  26
ATOM     26  C   UNL     1      87.329  67.860  77.238  1.00  0.00     0.078 C 
BRANCH  26  27
ATOM     27  C   UNL     1      86.751  66.498  77.620  1.00  0.00     0.140 C 
ATOM     28  C   UNL     1      86.414  65.640  76.383  1.00  0.00     0.086 CG0
ATOM     29  C   UNL     1      87.750  65.629  78.355  1.00  0.00     0.190 C 
ATOM     30  C   UNL     1      86.981  64.291  76.727  1.00  0.00    -0.010 C 
ATOM     31  G   UNL     1      84.953  65.743  75.855  1.00  0.00     0.000 G0
ATOM     32  O   UNL     1      88.432  65.983  79.305  1.00  0.00    -0.291 OA
ATOM     33  C   UNL     1      87.759  64.257  77.813  1.00  0.00    -0.008 C 
ATOM     34  C   UNL     1      88.536  63.142  78.392  1.00  0.00     0.048 C 
BRANCH  27  35
ATOM     35  O   UNL     1      85.678  66.629  78.536  1.00  0.00    -0.381 OA
ATOM     36  H   UNL     1      85.588  65.793  79.025  1.00  0.00     0.212 HD
ENDBRANCH  27  35
ENDBRANCH  26  27
ENDBRANCH   2  26
ENDBRANCH   1   2
BRANCH   1  37
ATOM     37  O   UNL     1      88.745  69.440  75.370  1.00  0.00    -0.461 OA
BRANCH  37  38
ATOM     38  C   UNL     1      89.302  69.972  74.230  1.00  0.00     0.310 C 
ATOM     39  O   UNL     1      90.056  70.935  74.201  1.00  0.00    -0.252 OA
BRANCH  38  40
ATOM     40  C   UNL     1      88.839  69.185  73.028  1.00  0.00     0.158 C 
BRANCH  40  41
ATOM     41  C   UNL     1      87.554  69.708  72.442  1.00  0.00    -0.037 A 
ATOM     42  C   UNL     1      87.363  71.082  72.293  1.00  0.00     0.008 A 
ATOM     43  C   UNL     1      86.553  68.820  72.050  1.00  0.00     0.008 A 
ATOM     44  C   UNL     1      86.173  71.567  71.751  1.00  0.00     0.046 A 
ATOM     45  C   UNL     1      85.362  69.304  71.508  1.00  0.00     0.046 A 
ATOM     46  C   UNL     1      85.172  70.677  71.359  1.00  0.00     0.115 A 
BRANCH  46  47
ATOM     47  O   UNL     1      84.010  71.151  70.831  1.00  0.00    -0.508 OA
ATOM     48  H   UNL     1      83.449  71.485  71.552  1.00  0.00     0.293 HD
ENDBRANCH  46  47
ENDBRANCH  40  41
ENDBRANCH  38  40
ENDBRANCH  37  38
ENDBRANCH   1  37
TORSDOF 10
ENDMDL
MODEL 4
REMARK VINA RESULT:    -7.139      2.459      3.634
REMARK INTER + INTRA:         -12.583
REMARK INTER:                 -10.849
REMARK INTRA:                  -1.734
REMARK UNBOUND:                -0.436
REMARK SMILES C=C(C)[C@]12C[C@@H](C)[C@@]34O[C@](Cc5ccccc5)(O[C@@H]1[C@@H]3C=C(COC(=O)Cc1ccc(O)cc1)C[C@]1(O)C(=O)C(C)=C[C@@H]41)O2
REMARK SMILES IDX 23 1 22 2 21 3 20 4 9 5 8 6 10 7 6 8 18 10 44 11 19 12 5 13
REMARK SMILES IDX 7 14 4 15 11 16 12 17 13 18 17 19 14 20 16 21 15 22 2 23
REMARK SMILES IDX 3 24 1 25 35 26 36 27 43 28 38 29 42 30 39 32 40 33 41 34
REMARK SMILES IDX 37 35 24 37 25 38 26 39 27 40 28 41 29 42 34 43 30 44 33 45
REMARK SMILES IDX 31 46 32 47
REMARK H PARENT 37 36 32 48
REMARK Flexibility Score: 90.00
ROOT
ATOM      1  C   UNL     1      58.342  86.942  76.209  1.00  0.00     0.264 C 
ENDROOT
BRANCH   1   2
ATOM      2  C   UNL     1      59.751  86.799  75.683  1.00  0.00    -0.033 C 
ATOM      3  C   UNL     1      60.082  85.700  74.973  1.00  0.00    -0.015 C 
BRANCH   3   4
ATOM      4  C   UNL     1      61.431  85.287  74.406  1.00  0.00     0.078 C 
ATOM      5  O   UNL     1      61.539  86.162  72.095  1.00  0.00    -0.319 OA
ATOM      6  C   UNL     1      62.158  86.269  73.415  1.00  0.00     0.095 CG0
ATOM      7  C   UNL     1      61.236  84.821  71.664  1.00  0.00     0.289 C 
ATOM      8  C   UNL     1      63.674  85.818  73.320  1.00  0.00     0.023 C 
ATOM      9  G   UNL     1      61.927  87.750  73.834  1.00  0.00     0.000 G0
ATOM     10  O   UNL     1      60.377  84.162  72.590  1.00  0.00    -0.320 OA
ATOM     11  O   UNL     1      62.401  84.005  71.571  1.00  0.00    -0.313 OA
ATOM     12  C   UNL     1      61.298  83.932  73.668  1.00  0.00     0.170 C 
ATOM     13  C   UNL     1      63.821  84.272  73.462  1.00  0.00     0.049 C 
ATOM     14  C   UNL     1      64.427  86.288  72.064  1.00  0.00     0.011 C 
ATOM     15  C   UNL     1      62.595  83.535  72.921  1.00  0.00     0.122 C 
BRANCH   7  16
ATOM     16  C   UNL     1      60.565  84.899  70.307  1.00  0.00     0.135 C 
BRANCH  16  17
ATOM     17  C   UNL     1      61.530  84.624  69.181  1.00  0.00    -0.040 A 
ATOM     18  C   UNL     1      61.643  83.336  68.658  1.00  0.00     0.004 A 
ATOM     19  C   UNL     1      62.310  85.658  68.664  1.00  0.00     0.004 A 
ATOM     20  C   UNL     1      62.535  83.081  67.617  1.00  0.00     0.000 A 
ATOM     21  C   UNL     1      63.203  85.403  67.622  1.00  0.00     0.000 A 
ATOM     22  C   UNL     1      63.315  84.115  67.099  1.00  0.00     0.000 A 
ENDBRANCH  16  17
ENDBRANCH   7  16
BRANCH  15  23
ATOM     23  C   UNL     1      62.787  82.054  72.880  1.00  0.00    -0.046 C 
ATOM     24  C   UNL     1      63.332  81.493  71.599  1.00  0.00     0.042 C 
ATOM     25  C   UNL     1      62.491  81.270  73.927  1.00  0.00     0.010 C 
ENDBRANCH  15  23
ENDBRANCH   3   4
BRANCH   2  26
ATOM     26  C   UNL     1      60.641  87.975  76.037  1.00  0.00     0.078 C 
BRANCH  26  27
ATOM     27  C   UNL     1      62.010  88.043  75.363  1.00  0.00     0.140 C 
ATOM     28  C   UNL     1      61.931  87.752  73.850  1.00  0.00     0.086 CG0
ATOM     29  C   UNL     1      62.605  89.435  75.395  1.00  0.00     0.190 C 
ATOM     30  C   UNL     1      62.775  88.835  73.240  1.00  0.00    -0.010 C 
ATOM     31  G   UNL     1      62.162  86.272  73.423  1.00  0.00     0.000 G0
ATOM     32  O   UNL     1      62.681  90.150  76.383  1.00  0.00    -0.291 OA
ATOM     33  C   UNL     1      63.146  89.811  74.075  1.00  0.00    -0.008 C 
ATOM     34  C   UNL     1      63.897  91.055  73.811  1.00  0.00     0.048 C 
BRANCH  27  35
ATOM     35  O   UNL     1      62.966  87.251  76.049  1.00  0.00    -0.381 OA
ATOM     36  H   UNL     1      62.704  87.196  76.983  1.00  0.00     0.212 HD
ENDBRANCH  27  35
ENDBRANCH  26  27
ENDBRANCH   2  26
ENDBRANCH   1   2
BRANCH   1  37
ATOM     37  O   UNL     1      57.911  88.275  76.035  1.00  0.00    -0.461 OA
BRANCH  37  38
ATOM     38  C   UNL     1      56.879  88.468  75.146  1.00  0.00     0.310 C 
ATOM     39  O   UNL     1      55.691  88.367  75.417  1.00  0.00    -0.252 OA
BRANCH  38  40
ATOM     40  C   UNL     1      57.441  88.825  73.791  1.00  0.00     0.158 C 
BRANCH  40  41
ATOM     41  C   UNL     1      57.346  87.695  72.799  1.00  0.00    -0.037 A 
ATOM     42  C   UNL     1      57.693  87.906  71.465  1.00  0.00     0.008 A 
ATOM     43  C   UNL     1      56.909  86.437  73.214  1.00  0.00     0.008 A 
ATOM     44  C   UNL     1      57.604  86.860  70.546  1.00  0.00     0.046 A 
ATOM     45  C   UNL     1      56.820  85.390  72.296  1.00  0.00     0.046 A 
ATOM     46  C   UNL     1      57.167  85.602  70.962  1.00  0.00     0.115 A 
BRANCH  46  47
ATOM     47  O   UNL     1      57.079  84.582  70.066  1.00  0.00    -0.508 OA
ATOM     48  H   UNL     1      57.971  84.371  69.739  1.00  0.00     0.293 HD
ENDBRANCH  46  47
ENDBRANCH  40  41
ENDBRANCH  38  40
ENDBRANCH  37  38
ENDBRANCH   1  37
TORSDOF 10
ENDMDL
MODEL 5
REMARK VINA RESULT:    -7.062     33.253     38.616
REMARK INTER + INTRA:         -12.452
REMARK INTER:                 -11.758
REMARK INTRA:                  -0.694
REMARK UNBOUND:                -0.436
REMARK SMILES C=C(C)[C@]12C[C@@H](C)[C@@]34O[C@](Cc5ccccc5)(O[C@@H]1[C@@H]3C=C(COC(=O)Cc1ccc(O)cc1)C[C@]1(O)C(=O)C(C)=C[C@@H]41)O2
REMARK SMILES IDX 23 1 22 2 21 3 20 4 9 5 8 6 10 7 6 8 18 10 44 11 19 12 5 13
REMARK SMILES IDX 7 14 4 15 11 16 12 17 13 18 17 19 14 20 16 21 15 22 2 23
REMARK SMILES IDX 3 24 1 25 35 26 36 27 43 28 38 29 42 30 39 32 40 33 41 34
REMARK SMILES IDX 37 35 24 37 25 38 26 39 27 40 28 41 29 42 34 43 30 44 33 45
REMARK SMILES IDX 31 46 32 47
REMARK H PARENT 37 36 32 48
REMARK Flexibility Score: 90.00
ROOT
ATOM      1  C   UNL     1      96.005  94.995  80.995  1.00  0.00     0.264 C 
ENDROOT
BRANCH   1   2
ATOM      2  C   UNL     1      97.033  96.059  80.690  1.00  0.00    -0.033 C 
ATOM      3  C   UNL     1      97.550  96.140  79.446  1.00  0.00    -0.015 C 
BRANCH   3   4
ATOM      4  C   UNL     1      98.638  97.057  78.910  1.00  0.00     0.078 C 
ATOM      5  O   UNL     1      97.506  99.041  77.964  1.00  0.00    -0.319 OA
ATOM      6  C   UNL     1      98.425  98.612  79.016  1.00  0.00     0.095 CG0
ATOM      7  C   UNL     1      97.729  98.446  76.671  1.00  0.00     0.289 C 
ATOM      8  C   UNL     1      99.833  99.304  78.796  1.00  0.00     0.023 C 
ATOM      9  G   UNL     1      97.698  98.982  80.342  1.00  0.00     0.000 G0
ATOM     10  O   UNL     1      97.663  97.024  76.738  1.00  0.00    -0.320 OA
ATOM     11  O   UNL     1      99.022  98.748  76.151  1.00  0.00    -0.313 OA
ATOM     12  C   UNL     1      98.898  96.747  77.416  1.00  0.00     0.170 C 
ATOM     13  C   UNL     1     100.719  98.496  77.800  1.00  0.00     0.049 C 
ATOM     14  C   UNL     1      99.784 100.777  78.355  1.00  0.00     0.011 C 
ATOM     15  C   UNL     1      99.873  97.756  76.762  1.00  0.00     0.122 C 
BRANCH   7  16
ATOM     16  C   UNL     1      96.669  98.965  75.721  1.00  0.00     0.135 C 
BRANCH  16  17
ATOM     17  C   UNL     1      96.289  97.940  74.681  1.00  0.00    -0.040 A 
ATOM     18  C   UNL     1      95.240  97.055  74.926  1.00  0.00     0.004 A 
ATOM     19  C   UNL     1      96.987  97.879  73.476  1.00  0.00     0.004 A 
ATOM     20  C   UNL     1      94.888  96.107  73.964  1.00  0.00     0.000 A 
ATOM     21  C   UNL     1      96.636  96.931  72.514  1.00  0.00     0.000 A 
ATOM     22  C   UNL     1      95.587  96.046  72.758  1.00  0.00     0.000 A 
ENDBRANCH  16  17
ENDBRANCH   7  16
BRANCH  15  23
ATOM     23  C   UNL     1     100.702  97.124  75.691  1.00  0.00    -0.046 C 
ATOM     24  C   UNL     1     101.839  96.263  76.156  1.00  0.00     0.042 C 
ATOM     25  C   UNL     1     100.444  97.316  74.389  1.00  0.00     0.010 C 
ENDBRANCH  15  23
ENDBRANCH   3   4
BRANCH   2  26
ATOM     26  C   UNL     1      97.352  96.939  81.884  1.00  0.00     0.078 C 
BRANCH  26  27
ATOM     27  C   UNL     1      98.172  98.201  81.622  1.00  0.00     0.140 C 
ATOM     28  C   UNL     1      97.697  98.954  80.362  1.00  0.00     0.086 CG0
ATOM     29  C   UNL     1      97.996  99.242  82.708  1.00  0.00     0.190 C 
ATOM     30  C   UNL     1      97.636 100.387  80.813  1.00  0.00    -0.010 C 
ATOM     31  G   UNL     1      98.432  98.601  79.036  1.00  0.00     0.000 G0
ATOM     32  O   UNL     1      98.076  99.033  83.909  1.00  0.00    -0.291 OA
ATOM     33  C   UNL     1      97.772 100.580  82.128  1.00  0.00    -0.008 C 
ATOM     34  C   UNL     1      97.685 101.823  82.921  1.00  0.00     0.048 C 
BRANCH  27  35
ATOM     35  O   UNL     1      99.563  97.928  81.637  1.00  0.00    -0.381 OA
ATOM     36  H   UNL     1      99.975  98.397  80.891  1.00  0.00     0.212 HD
ENDBRANCH  27  35
ENDBRANCH  26  27
ENDBRANCH   2  26
ENDBRANCH   1   2
BRANCH   1  37
ATOM     37  O   UNL     1      96.428  93.766  80.443  1.00  0.00    -0.461 OA
BRANCH  37  38
ATOM     38  C   UNL     1      95.438  92.952  79.943  1.00  0.00     0.310 C 
ATOM     39  O   UNL     1      94.628  92.334  80.620  1.00  0.00    -0.252 OA
BRANCH  38  40
ATOM     40  C   UNL     1      95.508  92.942  78.435  1.00  0.00     0.158 C 
BRANCH  40  41
ATOM     41  C   UNL     1      94.206  93.332  77.783  1.00  0.00    -0.037 A 
ATOM     42  C   UNL     1      94.180  93.689  76.435  1.00  0.00     0.008 A 
ATOM     43  C   UNL     1      93.027  93.336  78.528  1.00  0.00     0.008 A 
ATOM     44  C   UNL     1      92.975  94.051  75.832  1.00  0.00     0.046 A 
ATOM     45  C   UNL     1      91.822  93.697  77.925  1.00  0.00     0.046 A 
ATOM     46  C   UNL     1      91.796  94.055  76.578  1.00  0.00     0.115 A 
BRANCH  46  47
ATOM     47  O   UNL     1      90.621  94.408  75.989  1.00  0.00    -0.508 OA
ATOM     48  H   UNL     1      90.376  95.302  76.285  1.00  0.00     0.293 HD
ENDBRANCH  46  47
ENDBRANCH  40  41
ENDBRANCH  38  40
ENDBRANCH  37  38
ENDBRANCH   1  37
TORSDOF 10
ENDMDL
MODEL 6
REMARK VINA RESULT:    -7.051     31.149     36.013
REMARK INTER + INTRA:         -12.433
REMARK INTER:                 -11.800
REMARK INTRA:                  -0.633
REMARK UNBOUND:                -0.436
REMARK SMILES C=C(C)[C@]12C[C@@H](C)[C@@]34O[C@](Cc5ccccc5)(O[C@@H]1[C@@H]3C=C(COC(=O)Cc1ccc(O)cc1)C[C@]1(O)C(=O)C(C)=C[C@@H]41)O2
REMARK SMILES IDX 23 1 22 2 21 3 20 4 9 5 8 6 10 7 6 8 18 10 44 11 19 12 5 13
REMARK SMILES IDX 7 14 4 15 11 16 12 17 13 18 17 19 14 20 16 21 15 22 2 23
REMARK SMILES IDX 3 24 1 25 35 26 36 27 43 28 38 29 42 30 39 32 40 33 41 34
REMARK SMILES IDX 37 35 24 37 25 38 26 39 27 40 28 41 29 42 34 43 30 44 33 45
REMARK SMILES IDX 31 46 32 47
REMARK H PARENT 37 36 32 48
REMARK Flexibility Score: 90.00
ROOT
ATOM      1  C   UNL     1      95.597  82.788  84.304  1.00  0.00     0.264 C 
ENDROOT
BRANCH   1   2
ATOM      2  C   UNL     1      94.373  82.760  85.190  1.00  0.00    -0.033 C 
ATOM      3  C   UNL     1      93.370  81.906  84.901  1.00  0.00    -0.015 C 
BRANCH   3   4
ATOM      4  C   UNL     1      92.020  81.738  85.580  1.00  0.00     0.078 C 
ATOM      5  O   UNL     1      92.284  79.962  87.280  1.00  0.00    -0.319 OA
ATOM      6  C   UNL     1      91.991  81.384  87.112  1.00  0.00     0.095 CG0
ATOM      7  C   UNL     1      91.633  79.084  86.341  1.00  0.00     0.289 C 
ATOM      8  C   UNL     1      90.530  81.684  87.647  1.00  0.00     0.023 C 
ATOM      9  G   UNL     1      93.142  82.109  87.869  1.00  0.00     0.000 G0
ATOM     10  O   UNL     1      91.960  79.429  84.998  1.00  0.00    -0.320 OA
ATOM     11  O   UNL     1      90.211  79.161  86.423  1.00  0.00    -0.313 OA
ATOM     12  C   UNL     1      91.201  80.640  84.857  1.00  0.00     0.170 C 
ATOM     13  C   UNL     1      89.453  81.413  86.552  1.00  0.00     0.049 C 
ATOM     14  C   UNL     1      90.136  80.953  88.941  1.00  0.00     0.011 C 
ATOM     15  C   UNL     1      89.885  80.298  85.598  1.00  0.00     0.122 C 
BRANCH   7  16
ATOM     16  C   UNL     1      92.079  77.665  86.630  1.00  0.00     0.135 C 
BRANCH  16  17
ATOM     17  C   UNL     1      92.188  76.838  85.373  1.00  0.00    -0.040 A 
ATOM     18  C   UNL     1      93.416  76.713  84.725  1.00  0.00     0.004 A 
ATOM     19  C   UNL     1      91.060  76.200  84.859  1.00  0.00     0.004 A 
ATOM     20  C   UNL     1      93.517  75.948  83.563  1.00  0.00     0.000 A 
ATOM     21  C   UNL     1      91.161  75.435  83.696  1.00  0.00     0.000 A 
ATOM     22  C   UNL     1      92.389  75.310  83.049  1.00  0.00     0.000 A 
ENDBRANCH  16  17
ENDBRANCH   7  16
BRANCH  15  23
ATOM     23  C   UNL     1      88.797  79.898  84.655  1.00  0.00    -0.046 C 
ATOM     24  C   UNL     1      87.624  80.828  84.564  1.00  0.00     0.042 C 
ATOM     25  C   UNL     1      88.866  78.771  83.931  1.00  0.00     0.010 C 
ENDBRANCH  15  23
ENDBRANCH   3   4
BRANCH   2  26
ATOM     26  C   UNL     1      94.451  83.741  86.345  1.00  0.00     0.078 C 
BRANCH  26  27
ATOM     27  C   UNL     1      93.413  83.595  87.456  1.00  0.00     0.140 C 
ATOM     28  C   UNL     1      93.172  82.120  87.839  1.00  0.00     0.086 CG0
ATOM     29  C   UNL     1      93.875  84.200  88.764  1.00  0.00     0.190 C 
ATOM     30  C   UNL     1      93.197  82.141  89.342  1.00  0.00    -0.010 C 
ATOM     31  G   UNL     1      92.001  81.404  87.105  1.00  0.00     0.000 G0
ATOM     32  O   UNL     1      94.356  85.315  88.898  1.00  0.00    -0.291 OA
ATOM     33  C   UNL     1      93.615  83.285  89.892  1.00  0.00    -0.008 C 
ATOM     34  C   UNL     1      93.841  83.633  91.310  1.00  0.00     0.048 C 
BRANCH  27  35
ATOM     35  O   UNL     1      92.227  84.310  87.153  1.00  0.00    -0.381 OA
ATOM     36  H   UNL     1      92.329  85.223  87.472  1.00  0.00     0.212 HD
ENDBRANCH  27  35
ENDBRANCH  26  27
ENDBRANCH   2  26
ENDBRANCH   1   2
BRANCH   1  37
ATOM     37  O   UNL     1      96.598  81.965  84.864  1.00  0.00    -0.461 OA
BRANCH  37  38
ATOM     38  C   UNL     1      96.986  80.882  84.109  1.00  0.00     0.310 C 
ATOM     39  O   UNL     1      97.953  80.171  84.346  1.00  0.00    -0.252 OA
BRANCH  38  40
ATOM     40  C   UNL     1      96.036  80.709  82.949  1.00  0.00     0.158 C 
BRANCH  40  41
ATOM     41  C   UNL     1      96.729  80.740  81.612  1.00  0.00    -0.037 A 
ATOM     42  C   UNL     1      97.327  79.584  81.109  1.00  0.00     0.008 A 
ATOM     43  C   UNL     1      96.774  81.923  80.875  1.00  0.00     0.008 A 
ATOM     44  C   UNL     1      97.970  79.612  79.872  1.00  0.00     0.046 A 
ATOM     45  C   UNL     1      97.417  81.952  79.637  1.00  0.00     0.046 A 
ATOM     46  C   UNL     1      98.015  80.796  79.136  1.00  0.00     0.115 A 
BRANCH  46  47
ATOM     47  O   UNL     1      98.642  80.824  77.928  1.00  0.00    -0.508 OA
ATOM     48  H   UNL     1      97.999  81.077  77.244  1.00  0.00     0.293 HD
ENDBRANCH  46  47
ENDBRANCH  40  41
ENDBRANCH  38  40
ENDBRANCH  37  38
ENDBRANCH   1  37
TORSDOF 10
ENDMDL
MODEL 7
REMARK VINA RESULT:    -7.027     28.622     32.132
REMARK INTER + INTRA:         -12.392
REMARK INTER:                 -10.952
REMARK INTRA:                  -1.440
REMARK UNBOUND:                -0.436
REMARK SMILES C=C(C)[C@]12C[C@@H](C)[C@@]34O[C@](Cc5ccccc5)(O[C@@H]1[C@@H]3C=C(COC(=O)Cc1ccc(O)cc1)C[C@]1(O)C(=O)C(C)=C[C@@H]41)O2
REMARK SMILES IDX 23 1 22 2 21 3 20 4 9 5 8 6 10 7 6 8 18 10 44 11 19 12 5 13
REMARK SMILES IDX 7 14 4 15 11 16 12 17 13 18 17 19 14 20 16 21 15 22 2 23
REMARK SMILES IDX 3 24 1 25 35 26 36 27 43 28 38 29 42 30 39 32 40 33 41 34
REMARK SMILES IDX 37 35 24 37 25 38 26 39 27 40 28 41 29 42 34 43 30 44 33 45
REMARK SMILES IDX 31 46 32 47
REMARK H PARENT 37 36 32 48
REMARK Flexibility Score: 90.00
ROOT
ATOM      1  C   UNL     1      85.796  63.011  75.892  1.00  0.00     0.264 C 
ENDROOT
BRANCH   1   2
ATOM      2  C   UNL     1      85.738  64.234  75.007  1.00  0.00    -0.033 C 
ATOM      3  C   UNL     1      84.716  64.371  74.137  1.00  0.00    -0.015 C 
BRANCH   3   4
ATOM      4  C   UNL     1      84.471  65.454  73.099  1.00  0.00     0.078 C 
ATOM      5  O   UNL     1      83.048  67.170  74.170  1.00  0.00    -0.319 OA
ATOM      6  C   UNL     1      84.369  66.946  73.584  1.00  0.00     0.095 CG0
ATOM      7  C   UNL     1      81.948  66.586  73.447  1.00  0.00     0.289 C 
ATOM      8  C   UNL     1      84.542  67.877  72.313  1.00  0.00     0.023 C 
ATOM      9  G   UNL     1      85.362  67.218  74.751  1.00  0.00     0.000 G0
ATOM     10  O   UNL     1      82.113  65.179  73.299  1.00  0.00    -0.320 OA
ATOM     11  O   UNL     1      81.834  67.102  72.122  1.00  0.00    -0.313 OA
ATOM     12  C   UNL     1      83.166  65.151  72.322  1.00  0.00     0.170 C 
ATOM     13  C   UNL     1      83.947  67.213  71.033  1.00  0.00     0.049 C 
ATOM     14  C   UNL     1      83.981  69.302  72.456  1.00  0.00     0.011 C 
ATOM     15  C   UNL     1      82.765  66.301  71.365  1.00  0.00     0.122 C 
BRANCH   7  16
ATOM     16  C   UNL     1      80.671  66.875  74.211  1.00  0.00     0.135 C 
BRANCH  16  17
ATOM     17  C   UNL     1      80.262  65.718  75.089  1.00  0.00    -0.040 A 
ATOM     18  C   UNL     1      79.533  64.658  74.552  1.00  0.00     0.004 A 
ATOM     19  C   UNL     1      80.615  65.710  76.438  1.00  0.00     0.004 A 
ATOM     20  C   UNL     1      79.156  63.588  75.365  1.00  0.00     0.000 A 
ATOM     21  C   UNL     1      80.238  64.640  77.251  1.00  0.00     0.000 A 
ATOM     22  C   UNL     1      79.509  63.580  76.714  1.00  0.00     0.000 A 
ENDBRANCH  16  17
ENDBRANCH   7  16
BRANCH  15  23
ATOM     23  C   UNL     1      82.068  65.798  70.144  1.00  0.00    -0.046 C 
ATOM     24  C   UNL     1      82.201  64.330  69.862  1.00  0.00     0.042 C 
ATOM     25  C   UNL     1      81.362  66.611  69.344  1.00  0.00     0.010 C 
ENDBRANCH  15  23
ENDBRANCH   3   4
BRANCH   2  26
ATOM     26  C   UNL     1      86.893  65.192  75.238  1.00  0.00     0.078 C 
BRANCH  26  27
ATOM     27  C   UNL     1      86.794  66.572  74.593  1.00  0.00     0.140 C 
ATOM     28  C   UNL     1      85.388  67.190  74.748  1.00  0.00     0.086 CG0
ATOM     29  C   UNL     1      87.675  67.596  75.276  1.00  0.00     0.190 C 
ATOM     30  C   UNL     1      85.672  68.601  75.182  1.00  0.00    -0.010 C 
ATOM     31  G   UNL     1      84.395  66.936  73.576  1.00  0.00     0.000 G0
ATOM     32  O   UNL     1      88.854  67.440  75.557  1.00  0.00    -0.291 OA
ATOM     33  C   UNL     1      86.941  68.854  75.513  1.00  0.00    -0.008 C 
ATOM     34  C   UNL     1      87.557  70.084  76.052  1.00  0.00     0.048 C 
BRANCH  27  35
ATOM     35  O   UNL     1      87.268  66.556  73.257  1.00  0.00    -0.381 OA
ATOM     36  H   UNL     1      87.022  67.396  72.834  1.00  0.00     0.212 HD
ENDBRANCH  27  35
ENDBRANCH  26  27
ENDBRANCH   2  26
ENDBRANCH   1   2
BRANCH   1  37
ATOM     37  O   UNL     1      86.198  63.392  77.191  1.00  0.00    -0.461 OA
BRANCH  37  38
ATOM     38  C   UNL     1      85.198  63.495  78.130  1.00  0.00     0.310 C 
ATOM     39  O   UNL     1      84.010  63.303  77.915  1.00  0.00    -0.252 OA
BRANCH  38  40
ATOM     40  C   UNL     1      85.797  63.878  79.462  1.00  0.00     0.158 C 
BRANCH  40  41
ATOM     41  C   UNL     1      86.033  65.360  79.596  1.00  0.00    -0.037 A 
ATOM     42  C   UNL     1      85.616  66.227  78.585  1.00  0.00     0.008 A 
ATOM     43  C   UNL     1      86.670  65.866  80.728  1.00  0.00     0.008 A 
ATOM     44  C   UNL     1      85.836  67.599  78.708  1.00  0.00     0.046 A 
ATOM     45  C   UNL     1      86.890  67.238  80.852  1.00  0.00     0.046 A 
ATOM     46  C   UNL     1      86.473  68.105  79.842  1.00  0.00     0.115 A 
BRANCH  46  47
ATOM     47  O   UNL     1      86.688  69.443  79.961  1.00  0.00    -0.508 OA
ATOM     48  H   UNL     1      87.493  69.679  79.469  1.00  0.00     0.293 HD
ENDBRANCH  46  47
ENDBRANCH  40  41
ENDBRANCH  38  40
ENDBRANCH  37  38
ENDBRANCH   1  37
TORSDOF 10
ENDMDL
MODEL 8
REMARK VINA RESULT:    -6.952     36.322     39.778
REMARK INTER + INTRA:         -12.265
REMARK INTER:                  -9.852
REMARK INTRA:                  -2.412
REMARK UNBOUND:                -0.436
REMARK SMILES C=C(C)[C@]12C[C@@H](C)[C@@]34O[C@](Cc5ccccc5)(O[C@@H]1[C@@H]3C=C(COC(=O)Cc1ccc(O)cc1)C[C@]1(O)C(=O)C(C)=C[C@@H]41)O2
REMARK SMILES IDX 23 1 22 2 21 3 20 4 9 5 8 6 10 7 6 8 18 10 44 11 19 12 5 13
REMARK SMILES IDX 7 14 4 15 11 16 12 17 13 18 17 19 14 20 16 21 15 22 2 23
REMARK SMILES IDX 3 24 1 25 35 26 36 27 43 28 38 29 42 30 39 32 40 33 41 34
REMARK SMILES IDX 37 35 24 37 25 38 26 39 27 40 28 41 29 42 34 43 30 44 33 45
REMARK SMILES IDX 31 46 32 47
REMARK H PARENT 37 36 32 48
REMARK Flexibility Score: 90.00
ROOT
ATOM      1  C   UNL     1      96.788  75.917  73.931  1.00  0.00     0.264 C 
ENDROOT
BRANCH   1   2
ATOM      2  C   UNL     1      97.319  77.299  73.626  1.00  0.00    -0.033 C 
ATOM      3  C   UNL     1      97.046  78.312  74.474  1.00  0.00    -0.015 C 
BRANCH   3   4
ATOM      4  C   UNL     1      97.393  79.788  74.358  1.00  0.00     0.078 C 
ATOM      5  O   UNL     1      99.553  80.113  75.518  1.00  0.00    -0.319 OA
ATOM      6  C   UNL     1      98.906  80.191  74.209  1.00  0.00     0.095 CG0
ATOM      7  C   UNL     1      98.786  80.643  76.616  1.00  0.00     0.289 C 
ATOM      8  C   UNL     1      98.954  81.687  73.690  1.00  0.00     0.023 C 
ATOM      9  G   UNL     1      99.671  79.155  73.335  1.00  0.00     0.000 G0
ATOM     10  O   UNL     1      97.524  79.993  76.728  1.00  0.00    -0.320 OA
ATOM     11  O   UNL     1      98.493  82.029  76.453  1.00  0.00    -0.313 OA
ATOM     12  C   UNL     1      96.850  80.554  75.590  1.00  0.00     0.170 C 
ATOM     13  C   UNL     1      97.761  82.524  74.244  1.00  0.00     0.049 C 
ATOM     14  C   UNL     1     100.270  82.438  73.957  1.00  0.00     0.011 C 
ATOM     15  C   UNL     1      97.314  82.031  75.621  1.00  0.00     0.122 C 
BRANCH   7  16
ATOM     16  C   UNL     1      99.582  80.442  77.891  1.00  0.00     0.135 C 
BRANCH  16  17
ATOM     17  C   UNL     1      98.689  80.235  79.089  1.00  0.00    -0.040 A 
ATOM     18  C   UNL     1      98.155  81.334  79.760  1.00  0.00     0.004 A 
ATOM     19  C   UNL     1      98.399  78.942  79.524  1.00  0.00     0.004 A 
ATOM     20  C   UNL     1      97.329  81.141  80.868  1.00  0.00     0.000 A 
ATOM     21  C   UNL     1      97.572  78.750  80.632  1.00  0.00     0.000 A 
ATOM     22  C   UNL     1      97.038  79.849  81.303  1.00  0.00     0.000 A 
ENDBRANCH  16  17
ENDBRANCH   7  16
BRANCH  15  23
ATOM     23  C   UNL     1      96.297  82.926  76.249  1.00  0.00    -0.046 C 
ATOM     24  C   UNL     1      95.940  84.164  75.481  1.00  0.00     0.042 C 
ATOM     25  C   UNL     1      95.734  82.640  77.433  1.00  0.00     0.010 C 
ENDBRANCH  15  23
ENDBRANCH   3   4
BRANCH   2  26
ATOM     26  C   UNL     1      98.134  77.355  72.348  1.00  0.00     0.078 C 
BRANCH  26  27
ATOM     27  C   UNL     1      98.908  78.642  72.070  1.00  0.00     0.140 C 
ATOM     28  C   UNL     1      99.657  79.155  73.318  1.00  0.00     0.086 CG0
ATOM     29  C   UNL     1     100.033  78.439  71.077  1.00  0.00     0.190 C 
ATOM     30  C   UNL     1     101.023  79.494  72.791  1.00  0.00    -0.010 C 
ATOM     31  G   UNL     1      98.897  80.193  74.194  1.00  0.00     0.000 G0
ATOM     32  O   UNL     1      99.933  77.868  70.001  1.00  0.00    -0.291 OA
ATOM     33  C   UNL     1     101.276  79.080  71.546  1.00  0.00    -0.008 C 
ATOM     34  C   UNL     1     102.517  79.164  70.749  1.00  0.00     0.048 C 
BRANCH  27  35
ATOM     35  O   UNL     1      98.085  79.619  71.454  1.00  0.00    -0.381 OA
ATOM     36  H   UNL     1      97.724  80.197  72.148  1.00  0.00     0.212 HD
ENDBRANCH  27  35
ENDBRANCH  26  27
ENDBRANCH   2  26
ENDBRANCH   1   2
BRANCH   1  37
ATOM     37  O   UNL     1      96.826  75.700  75.325  1.00  0.00    -0.461 OA
BRANCH  37  38
ATOM     38  C   UNL     1      97.896  74.975  75.798  1.00  0.00     0.310 C 
ATOM     39  O   UNL     1      98.463  74.080  75.186  1.00  0.00    -0.252 OA
BRANCH  38  40
ATOM     40  C   UNL     1      98.258  75.455  77.183  1.00  0.00     0.158 C 
BRANCH  40  41
ATOM     41  C   UNL     1      99.647  76.032  77.261  1.00  0.00    -0.037 A 
ATOM     42  C   UNL     1     100.469  75.728  78.346  1.00  0.00     0.008 A 
ATOM     43  C   UNL     1     100.113  76.870  76.248  1.00  0.00     0.008 A 
ATOM     44  C   UNL     1     101.756  76.263  78.419  1.00  0.00     0.046 A 
ATOM     45  C   UNL     1     101.399  77.405  76.320  1.00  0.00     0.046 A 
ATOM     46  C   UNL     1     102.220  77.101  77.406  1.00  0.00     0.115 A 
BRANCH  46  47
ATOM     47  O   UNL     1     103.475  77.623  77.477  1.00  0.00    -0.508 OA
ATOM     48  H   UNL     1     104.087  76.933  77.786  1.00  0.00     0.293 HD
ENDBRANCH  46  47
ENDBRANCH  40  41
ENDBRANCH  38  40
ENDBRANCH  37  38
ENDBRANCH   1  37
TORSDOF 10
ENDMDL
MODEL 9
REMARK VINA RESULT:    -6.929     28.884     31.384
REMARK INTER + INTRA:         -12.226
REMARK INTER:                 -10.855
REMARK INTRA:                  -1.371
REMARK UNBOUND:                -0.436
REMARK SMILES C=C(C)[C@]12C[C@@H](C)[C@@]34O[C@](Cc5ccccc5)(O[C@@H]1[C@@H]3C=C(COC(=O)Cc1ccc(O)cc1)C[C@]1(O)C(=O)C(C)=C[C@@H]41)O2
REMARK SMILES IDX 23 1 22 2 21 3 20 4 9 5 8 6 10 7 6 8 18 10 44 11 19 12 5 13
REMARK SMILES IDX 7 14 4 15 11 16 12 17 13 18 17 19 14 20 16 21 15 22 2 23
REMARK SMILES IDX 3 24 1 25 35 26 36 27 43 28 38 29 42 30 39 32 40 33 41 34
REMARK SMILES IDX 37 35 24 37 25 38 26 39 27 40 28 41 29 42 34 43 30 44 33 45
REMARK SMILES IDX 31 46 32 47
REMARK H PARENT 37 36 32 48
REMARK Flexibility Score: 90.00
ROOT
ATOM      1  C   UNL     1      82.060  67.824  74.037  1.00  0.00     0.264 C 
ENDROOT
BRANCH   1   2
ATOM      2  C   UNL     1      83.549  67.703  74.265  1.00  0.00    -0.033 C 
ATOM      3  C   UNL     1      84.389  67.822  73.215  1.00  0.00    -0.015 C 
BRANCH   3   4
ATOM      4  C   UNL     1      85.901  67.668  73.167  1.00  0.00     0.078 C 
ATOM      5  O   UNL     1      86.866  69.917  73.522  1.00  0.00    -0.319 OA
ATOM      6  C   UNL     1      86.777  68.579  74.103  1.00  0.00     0.095 CG0
ATOM      7  C   UNL     1      87.082  69.956  72.098  1.00  0.00     0.289 C 
ATOM      8  C   UNL     1      88.225  67.941  74.174  1.00  0.00     0.023 C 
ATOM      9  G   UNL     1      86.075  68.798  75.475  1.00  0.00     0.000 G0
ATOM     10  O   UNL     1      86.054  69.258  71.400  1.00  0.00    -0.320 OA
ATOM     11  O   UNL     1      88.303  69.326  71.717  1.00  0.00    -0.313 OA
ATOM     12  C   UNL     1      86.407  67.904  71.722  1.00  0.00     0.170 C 
ATOM     13  C   UNL     1      88.611  67.247  72.832  1.00  0.00     0.049 C 
ATOM     14  C   UNL     1      89.351  68.901  74.594  1.00  0.00     0.011 C 
ATOM     15  C   UNL     1      87.952  67.929  71.632  1.00  0.00     0.122 C 
BRANCH   7  16
ATOM     16  C   UNL     1      87.105  71.407  71.661  1.00  0.00     0.135 C 
BRANCH  16  17
ATOM     17  C   UNL     1      87.780  71.586  70.324  1.00  0.00    -0.040 A 
ATOM     18  C   UNL     1      87.056  71.400  69.147  1.00  0.00     0.004 A 
ATOM     19  C   UNL     1      89.128  71.936  70.266  1.00  0.00     0.004 A 
ATOM     20  C   UNL     1      87.680  71.565  67.910  1.00  0.00     0.000 A 
ATOM     21  C   UNL     1      89.753  72.102  69.029  1.00  0.00     0.000 A 
ATOM     22  C   UNL     1      89.029  71.916  67.852  1.00  0.00     0.000 A 
ENDBRANCH  16  17
ENDBRANCH   7  16
BRANCH  15  23
ATOM     23  C   UNL     1      88.448  67.398  70.327  1.00  0.00    -0.046 C 
ATOM     24  C   UNL     1      88.360  65.913  70.140  1.00  0.00     0.042 C 
ATOM     25  C   UNL     1      88.944  68.204  69.376  1.00  0.00     0.010 C 
ENDBRANCH  15  23
ENDBRANCH   3   4
BRANCH   2  26
ATOM     26  C   UNL     1      83.912  67.461  75.718  1.00  0.00     0.078 C 
BRANCH  26  27
ATOM     27  C   UNL     1      85.392  67.526  76.089  1.00  0.00     0.140 C 
ATOM     28  C   UNL     1      86.087  68.771  75.498  1.00  0.00     0.086 CG0
ATOM     29  C   UNL     1      85.610  67.708  77.576  1.00  0.00     0.190 C 
ATOM     30  C   UNL     1      86.881  69.310  76.655  1.00  0.00    -0.010 C 
ATOM     31  G   UNL     1      86.781  68.578  74.119  1.00  0.00     0.000 G0
ATOM     32  O   UNL     1      85.072  67.051  78.456  1.00  0.00    -0.291 OA
ATOM     33  C   UNL     1      86.616  68.753  77.841  1.00  0.00    -0.008 C 
ATOM     34  C   UNL     1      87.136  69.082  79.184  1.00  0.00     0.048 C 
BRANCH  27  35
ATOM     35  O   UNL     1      86.054  66.308  75.796  1.00  0.00    -0.381 OA
ATOM     36  H   UNL     1      86.168  66.245  74.832  1.00  0.00     0.212 HD
ENDBRANCH  27  35
ENDBRANCH  26  27
ENDBRANCH   2  26
ENDBRANCH   1   2
BRANCH   1  37
ATOM     37  O   UNL     1      81.411  66.698  74.587  1.00  0.00    -0.461 OA
BRANCH  37  38
ATOM     38  C   UNL     1      80.979  65.747  73.691  1.00  0.00     0.310 C 
ATOM     39  O   UNL     1      80.673  64.598  73.978  1.00  0.00    -0.252 OA
BRANCH  38  40
ATOM     40  C   UNL     1      80.943  66.342  72.304  1.00  0.00     0.158 C 
BRANCH  40  41
ATOM     41  C   UNL     1      81.676  65.508  71.287  1.00  0.00    -0.037 A 
ATOM     42  C   UNL     1      83.020  65.190  71.483  1.00  0.00     0.008 A 
ATOM     43  C   UNL     1      81.013  65.053  70.148  1.00  0.00     0.008 A 
ATOM     44  C   UNL     1      83.700  64.418  70.541  1.00  0.00     0.046 A 
ATOM     45  C   UNL     1      81.692  64.280  69.205  1.00  0.00     0.046 A 
ATOM     46  C   UNL     1      83.035  63.963  69.401  1.00  0.00     0.115 A 
BRANCH  46  47
ATOM     47  O   UNL     1      83.699  63.210  68.482  1.00  0.00    -0.508 OA
ATOM     48  H   UNL     1      84.655  63.353  68.589  1.00  0.00     0.293 HD
ENDBRANCH  46  47
ENDBRANCH  40  41
ENDBRANCH  38  40
ENDBRANCH  37  38
ENDBRANCH   1  37
TORSDOF 10
ENDMDL
MODEL 10
REMARK VINA RESULT:    -6.911     33.038     36.930
REMARK INTER + INTRA:         -12.195
REMARK INTER:                 -11.791
REMARK INTRA:                  -0.404
REMARK UNBOUND:                -0.436
REMARK SMILES C=C(C)[C@]12C[C@@H](C)[C@@]34O[C@](Cc5ccccc5)(O[C@@H]1[C@@H]3C=C(COC(=O)Cc1ccc(O)cc1)C[C@]1(O)C(=O)C(C)=C[C@@H]41)O2
REMARK SMILES IDX 23 1 22 2 21 3 20 4 9 5 8 6 10 7 6 8 18 10 44 11 19 12 5 13
REMARK SMILES IDX 7 14 4 15 11 16 12 17 13 18 17 19 14 20 16 21 15 22 2 23
REMARK SMILES IDX 3 24 1 25 35 26 36 27 43 28 38 29 42 30 39 32 40 33 41 34
REMARK SMILES IDX 37 35 24 37 25 38 26 39 27 40 28 41 29 42 34 43 30 44 33 45
REMARK SMILES IDX 31 46 32 47
REMARK H PARENT 37 36 32 48
REMARK Flexibility Score: 90.00
ROOT
ATOM      1  C   UNL     1      96.802  81.523  81.570  1.00  0.00     0.264 C 
ENDROOT
BRANCH   1   2
ATOM      2  C   UNL     1      96.436  80.985  82.934  1.00  0.00    -0.033 C 
ATOM      3  C   UNL     1      95.778  81.781  83.802  1.00  0.00    -0.015 C 
BRANCH   3   4
ATOM      4  C   UNL     1      95.367  81.510  85.241  1.00  0.00     0.078 C 
ATOM      5  O   UNL     1      93.088  80.552  85.171  1.00  0.00    -0.319 OA
ATOM      6  C   UNL     1      94.471  80.252  85.538  1.00  0.00     0.095 CG0
ATOM      7  C   UNL     1      92.619  81.859  85.554  1.00  0.00     0.289 C 
ATOM      8  C   UNL     1      94.548  79.965  87.094  1.00  0.00     0.023 C 
ATOM      9  G   UNL     1      94.866  79.060  84.618  1.00  0.00     0.000 G0
ATOM     10  O   UNL     1      93.438  82.886  85.001  1.00  0.00    -0.320 OA
ATOM     11  O   UNL     1      92.657  82.056  86.966  1.00  0.00    -0.313 OA
ATOM     12  C   UNL     1      94.613  82.735  85.813  1.00  0.00     0.170 C 
ATOM     13  C   UNL     1      94.699  81.284  87.912  1.00  0.00     0.049 C 
ATOM     14  C   UNL     1      93.388  79.137  87.673  1.00  0.00     0.011 C 
ATOM     15  C   UNL     1      94.018  82.463  87.216  1.00  0.00     0.122 C 
BRANCH   7  16
ATOM     16  C   UNL     1      91.195  82.016  85.061  1.00  0.00     0.135 C 
BRANCH  16  17
ATOM     17  C   UNL     1      90.371  80.776  85.304  1.00  0.00    -0.040 A 
ATOM     18  C   UNL     1      89.805  80.550  86.558  1.00  0.00     0.004 A 
ATOM     19  C   UNL     1      90.176  79.857  84.274  1.00  0.00     0.004 A 
ATOM     20  C   UNL     1      89.043  79.403  86.783  1.00  0.00     0.000 A 
ATOM     21  C   UNL     1      89.413  78.710  84.499  1.00  0.00     0.000 A 
ATOM     22  C   UNL     1      88.848  78.484  85.753  1.00  0.00     0.000 A 
ENDBRANCH  16  17
ENDBRANCH   7  16
BRANCH  15  23
ATOM     23  C   UNL     1      93.993  83.694  88.063  1.00  0.00    -0.046 C 
ATOM     24  C   UNL     1      94.971  84.770  87.696  1.00  0.00     0.042 C 
ATOM     25  C   UNL     1      93.145  83.828  89.093  1.00  0.00     0.010 C 
ENDBRANCH  15  23
ENDBRANCH   3   4
BRANCH   2  26
ATOM     26  C   UNL     1      96.875  79.548  83.145  1.00  0.00     0.078 C 
BRANCH  26  27
ATOM     27  C   UNL     1      96.374  78.843  84.405  1.00  0.00     0.140 C 
ATOM     28  C   UNL     1      94.865  79.063  84.636  1.00  0.00     0.086 CG0
ATOM     29  C   UNL     1      96.471  77.336  84.303  1.00  0.00     0.190 C 
ATOM     30  C   UNL     1      94.357  77.687  84.967  1.00  0.00    -0.010 C 
ATOM     31  G   UNL     1      94.479  80.260  85.553  1.00  0.00     0.000 G0
ATOM     32  O   UNL     1      97.457  76.713  83.938  1.00  0.00    -0.291 OA
ATOM     33  C   UNL     1      95.226  76.692  84.763  1.00  0.00    -0.008 C 
ATOM     34  C   UNL     1      95.049  75.232  84.899  1.00  0.00     0.048 C 
BRANCH  27  35
ATOM     35  O   UNL     1      97.177  79.159  85.529  1.00  0.00    -0.381 OA
ATOM     36  H   UNL     1      97.600  78.341  85.843  1.00  0.00     0.212 HD
ENDBRANCH  27  35
ENDBRANCH  26  27
ENDBRANCH   2  26
ENDBRANCH   1   2
BRANCH   1  37
ATOM     37  O   UNL     1      98.001  80.918  81.137  1.00  0.00    -0.461 OA
BRANCH  37  38
ATOM     38  C   UNL     1      97.995  80.401  79.862  1.00  0.00     0.310 C 
ATOM     39  O   UNL     1      97.468  79.347  79.534  1.00  0.00    -0.252 OA
BRANCH  38  40
ATOM     40  C   UNL     1      98.737  81.335  78.936  1.00  0.00     0.158 C 
BRANCH  40  41
ATOM     41  C   UNL     1      97.882  81.840  77.803  1.00  0.00    -0.037 A 
ATOM     42  C   UNL     1      98.357  81.785  76.492  1.00  0.00     0.008 A 
ATOM     43  C   UNL     1      96.617  82.365  78.063  1.00  0.00     0.008 A 
ATOM     44  C   UNL     1      97.566  82.254  75.443  1.00  0.00     0.046 A 
ATOM     45  C   UNL     1      95.825  82.833  77.014  1.00  0.00     0.046 A 
ATOM     46  C   UNL     1      96.300  82.778  75.704  1.00  0.00     0.115 A 
BRANCH  46  47
ATOM     47  O   UNL     1      95.529  83.236  74.681  1.00  0.00    -0.508 OA
ATOM     48  H   UNL     1      96.010  83.112  73.844  1.00  0.00     0.293 HD
ENDBRANCH  46  47
ENDBRANCH  40  41
ENDBRANCH  38  40
ENDBRANCH  37  38
ENDBRANCH   1  37
TORSDOF 10
ENDMDL
