MODEL 1
REMARK VINA RESULT:    -6.519      0.000      0.000
REMARK INTER + INTRA:         -11.081
REMARK INTER:                 -10.139
REMARK INTRA:                  -0.942
REMARK UNBOUND:                -0.942
REMARK SMILES COc1cc(CNC(=O)CCCCCC(C)C)ccc1O
REMARK SMILES IDX 10 1 8 2 7 3 9 5 6 6 5 7 3 8 20 9 4 10 19 11 18 12 2 13 1 14
REMARK SMILES IDX 21 15 11 17 12 18 13 19 14 20 15 21 16 22 17 23
REMARK H PARENT 7 4 21 16
REMARK Flexibility Score: inf
ROOT
ATOM      1  C   UNL     1      92.781  94.550  76.832  1.00  0.00     0.100 C 
ENDROOT
BRANCH   1   2
ATOM      2  C   UNL     1      91.533  93.761  76.892  1.00  0.00     0.220 C 
ATOM      3  N   UNL     1      91.553  92.516  77.448  1.00  0.00    -0.352 N 
ATOM      4  H   UNL     1      92.474  92.164  77.666  1.00  0.00     0.163 HD
ATOM      5  O   UNL     1      90.468  94.272  76.468  1.00  0.00    -0.275 OA
BRANCH   3   6
ATOM      6  C   UNL     1      90.400  91.722  77.726  1.00  0.00     0.151 C 
BRANCH   6   7
ATOM      7  C   UNL     1      90.373  90.444  76.964  1.00  0.00    -0.025 A 
ATOM      8  C   UNL     1      90.619  89.219  74.846  1.00  0.00     0.160 A 
ATOM      9  C   UNL     1      90.388  88.004  75.525  1.00  0.00     0.157 A 
ATOM     10  C   UNL     1      90.591  90.432  75.566  1.00  0.00     0.056 A 
ATOM     11  C   UNL     1      90.144  88.006  76.911  1.00  0.00     0.050 A 
ATOM     12  C   UNL     1      90.142  89.215  77.626  1.00  0.00     0.009 A 
BRANCH   8  13
ATOM     13  O   UNL     1      90.839  89.240  73.494  1.00  0.00    -0.493 OA
ATOM     14  C   UNL     1      89.894  90.046  72.763  1.00  0.00     0.278 C 
ENDBRANCH   8  13
BRANCH   9  15
ATOM     15  O   UNL     1      90.410  86.832  74.842  1.00  0.00    -0.504 OA
ATOM     16  H   UNL     1      89.604  86.342  75.020  1.00  0.00     0.293 HD
ENDBRANCH   9  15
ENDBRANCH   6   7
ENDBRANCH   3   6
ENDBRANCH   1   2
BRANCH   1  17
ATOM     17  C   UNL     1      93.873  94.094  77.837  1.00  0.00     0.010 C 
BRANCH  17  18
ATOM     18  C   UNL     1      95.281  94.604  77.422  1.00  0.00     0.001 C 
BRANCH  18  19
ATOM     19  C   UNL     1      95.931  93.766  76.290  1.00  0.00     0.000 C 
BRANCH  19  20
ATOM     20  C   UNL     1      95.932  94.519  74.928  1.00  0.00     0.003 C 
BRANCH  20  21
ATOM     21  C   UNL     1      96.002  96.077  75.035  1.00  0.00    -0.017 C 
ATOM     22  C   UNL     1      94.710  96.732  74.462  1.00  0.00     0.007 C 
ATOM     23  C   UNL     1      97.258  96.675  74.336  1.00  0.00     0.007 C 
ENDBRANCH  20  21
ENDBRANCH  19  20
ENDBRANCH  18  19
ENDBRANCH  17  18
ENDBRANCH   1  17
TORSDOF 10
ENDMDL
MODEL 2
REMARK VINA RESULT:    -6.244      1.655      2.697
REMARK INTER + INTRA:         -10.654
REMARK INTER:                  -9.821
REMARK INTRA:                  -0.833
REMARK UNBOUND:                -0.942
REMARK SMILES COc1cc(CNC(=O)CCCCCC(C)C)ccc1O
REMARK SMILES IDX 10 1 8 2 7 3 9 5 6 6 5 7 3 8 20 9 4 10 19 11 18 12 2 13 1 14
REMARK SMILES IDX 21 15 11 17 12 18 13 19 14 20 15 21 16 22 17 23
REMARK H PARENT 7 4 21 16
REMARK Flexibility Score: inf
ROOT
ATOM      1  C   UNL     1      93.078  94.128  77.161  1.00  0.00     0.100 C 
ENDROOT
BRANCH   1   2
ATOM      2  C   UNL     1      91.800  93.548  76.699  1.00  0.00     0.220 C 
ATOM      3  N   UNL     1      90.992  92.910  77.593  1.00  0.00    -0.352 N 
ATOM      4  H   UNL     1      91.401  92.764  78.505  1.00  0.00     0.163 HD
ATOM      5  O   UNL     1      91.464  93.693  75.498  1.00  0.00    -0.275 OA
BRANCH   3   6
ATOM      6  C   UNL     1      89.664  92.460  77.325  1.00  0.00     0.151 C 
BRANCH   6   7
ATOM      7  C   UNL     1      89.619  91.099  76.725  1.00  0.00    -0.025 A 
ATOM      8  C   UNL     1      89.211  89.632  74.794  1.00  0.00     0.160 A 
ATOM      9  C   UNL     1      89.597  88.515  75.564  1.00  0.00     0.157 A 
ATOM     10  C   UNL     1      89.206  90.914  75.384  1.00  0.00     0.056 A 
ATOM     11  C   UNL     1      89.985  88.684  76.906  1.00  0.00     0.050 A 
ATOM     12  C   UNL     1      90.001  89.966  77.481  1.00  0.00     0.009 A 
BRANCH   8  13
ATOM     13  O   UNL     1      88.812  89.487  73.491  1.00  0.00    -0.493 OA
ATOM     14  C   UNL     1      89.539  90.315  72.563  1.00  0.00     0.278 C 
ENDBRANCH   8  13
BRANCH   9  15
ATOM     15  O   UNL     1      89.603  87.278  75.006  1.00  0.00    -0.504 OA
ATOM     16  H   UNL     1      89.064  86.686  75.535  1.00  0.00     0.293 HD
ENDBRANCH   9  15
ENDBRANCH   6   7
ENDBRANCH   3   6
ENDBRANCH   1   2
BRANCH   1  17
ATOM     17  C   UNL     1      94.258  93.944  76.169  1.00  0.00     0.010 C 
BRANCH  17  18
ATOM     18  C   UNL     1      95.302  95.087  76.303  1.00  0.00     0.001 C 
BRANCH  18  19
ATOM     19  C   UNL     1      96.447  94.762  77.298  1.00  0.00     0.000 C 
BRANCH  19  20
ATOM     20  C   UNL     1      96.552  95.816  78.438  1.00  0.00     0.003 C 
BRANCH  20  21
ATOM     21  C   UNL     1      96.157  95.294  79.858  1.00  0.00    -0.017 C 
ATOM     22  C   UNL     1      97.351  95.425  80.850  1.00  0.00     0.007 C 
ATOM     23  C   UNL     1      95.637  93.828  79.840  1.00  0.00     0.007 C 
ENDBRANCH  20  21
ENDBRANCH  19  20
ENDBRANCH  18  19
ENDBRANCH  17  18
ENDBRANCH   1  17
TORSDOF 10
ENDMDL
MODEL 3
REMARK VINA RESULT:    -6.128      3.681      8.362
REMARK INTER + INTRA:         -10.474
REMARK INTER:                  -9.562
REMARK INTRA:                  -0.912
REMARK UNBOUND:                -0.942
REMARK SMILES COc1cc(CNC(=O)CCCCCC(C)C)ccc1O
REMARK SMILES IDX 10 1 8 2 7 3 9 5 6 6 5 7 3 8 20 9 4 10 19 11 18 12 2 13 1 14
REMARK SMILES IDX 21 15 11 17 12 18 13 19 14 20 15 21 16 22 17 23
REMARK H PARENT 7 4 21 16
REMARK Flexibility Score: inf
ROOT
ATOM      1  C   UNL     1      91.968  92.577  76.636  1.00  0.00     0.100 C 
ENDROOT
BRANCH   1   2
ATOM      2  C   UNL     1      92.864  93.744  76.770  1.00  0.00     0.220 C 
ATOM      3  N   UNL     1      94.037  93.613  77.451  1.00  0.00    -0.352 N 
ATOM      4  H   UNL     1      94.149  92.736  77.940  1.00  0.00     0.163 HD
ATOM      5  O   UNL     1      92.544  94.824  76.215  1.00  0.00    -0.275 OA
BRANCH   3   6
ATOM      6  C   UNL     1      95.068  94.599  77.510  1.00  0.00     0.151 C 
BRANCH   6   7
ATOM      7  C   UNL     1      95.635  94.771  78.875  1.00  0.00    -0.025 A 
ATOM      8  C   UNL     1      96.909  96.103  80.503  1.00  0.00     0.160 A 
ATOM      9  C   UNL     1      96.659  95.128  81.492  1.00  0.00     0.157 A 
ATOM     10  C   UNL     1      96.412  95.909  79.196  1.00  0.00     0.056 A 
ATOM     11  C   UNL     1      95.910  93.980  81.177  1.00  0.00     0.050 A 
ATOM     12  C   UNL     1      95.398  93.804  79.880  1.00  0.00     0.009 A 
BRANCH   8  13
ATOM     13  O   UNL     1      97.653  97.219  80.784  1.00  0.00    -0.493 OA
ATOM     14  C   UNL     1      96.867  98.414  80.954  1.00  0.00     0.278 C 
ENDBRANCH   8  13
BRANCH   9  15
ATOM     15  O   UNL     1      97.135  95.304  82.751  1.00  0.00    -0.504 OA
ATOM     16  H   UNL     1      97.597  96.143  82.804  1.00  0.00     0.293 HD
ENDBRANCH   9  15
ENDBRANCH   6   7
ENDBRANCH   3   6
ENDBRANCH   1   2
BRANCH   1  17
ATOM     17  C   UNL     1      90.980  92.391  77.819  1.00  0.00     0.010 C 
BRANCH  17  18
ATOM     18  C   UNL     1      89.572  91.957  77.327  1.00  0.00     0.001 C 
BRANCH  18  19
ATOM     19  C   UNL     1      89.573  90.599  76.576  1.00  0.00     0.000 C 
BRANCH  19  20
ATOM     20  C   UNL     1      88.730  90.649  75.269  1.00  0.00     0.003 C 
BRANCH  20  21
ATOM     21  C   UNL     1      89.563  90.660  73.946  1.00  0.00    -0.017 C 
ATOM     22  C   UNL     1      90.901  89.884  74.126  1.00  0.00     0.007 C 
ATOM     23  C   UNL     1      89.846  92.098  73.422  1.00  0.00     0.007 C 
ENDBRANCH  20  21
ENDBRANCH  19  20
ENDBRANCH  18  19
ENDBRANCH  17  18
ENDBRANCH   1  17
TORSDOF 10
ENDMDL
MODEL 4
REMARK VINA RESULT:    -5.945      2.345      3.876
REMARK INTER + INTRA:         -10.190
REMARK INTER:                  -9.371
REMARK INTRA:                  -0.819
REMARK UNBOUND:                -0.942
REMARK SMILES COc1cc(CNC(=O)CCCCCC(C)C)ccc1O
REMARK SMILES IDX 10 1 8 2 7 3 9 5 6 6 5 7 3 8 20 9 4 10 19 11 18 12 2 13 1 14
REMARK SMILES IDX 21 15 11 17 12 18 13 19 14 20 15 21 16 22 17 23
REMARK H PARENT 7 4 21 16
REMARK Flexibility Score: inf
ROOT
ATOM      1  C   UNL     1      95.674  95.323  75.900  1.00  0.00     0.100 C 
ENDROOT
BRANCH   1   2
ATOM      2  C   UNL     1      94.319  95.212  75.322  1.00  0.00     0.220 C 
ATOM      3  N   UNL     1      93.557  94.118  75.605  1.00  0.00    -0.352 N 
ATOM      4  H   UNL     1      94.039  93.381  76.099  1.00  0.00     0.163 HD
ATOM      5  O   UNL     1      93.881  96.152  74.613  1.00  0.00    -0.275 OA
BRANCH   3   6
ATOM      6  C   UNL     1      92.181  93.964  75.259  1.00  0.00     0.151 C 
BRANCH   6   7
ATOM      7  C   UNL     1      91.525  92.828  75.963  1.00  0.00    -0.025 A 
ATOM      8  C   UNL     1      90.620  90.542  75.940  1.00  0.00     0.160 A 
ATOM      9  C   UNL     1      90.338  90.642  77.319  1.00  0.00     0.157 A 
ATOM     10  C   UNL     1      91.194  91.641  75.267  1.00  0.00     0.056 A 
ATOM     11  C   UNL     1      90.638  91.828  78.015  1.00  0.00     0.050 A 
ATOM     12  C   UNL     1      91.232  92.910  77.344  1.00  0.00     0.009 A 
BRANCH   8  13
ATOM     13  O   UNL     1      90.318  89.404  75.239  1.00  0.00    -0.493 OA
ATOM     14  C   UNL     1      89.131  89.516  74.431  1.00  0.00     0.278 C 
ENDBRANCH   8  13
BRANCH   9  15
ATOM     15  O   UNL     1      89.784  89.592  77.975  1.00  0.00    -0.504 OA
ATOM     16  H   UNL     1      90.350  89.338  78.708  1.00  0.00     0.293 HD
ENDBRANCH   9  15
ENDBRANCH   6   7
ENDBRANCH   3   6
ENDBRANCH   1   2
BRANCH   1  17
ATOM     17  C   UNL     1      96.271  96.755  75.859  1.00  0.00     0.010 C 
BRANCH  17  18
ATOM     18  C   UNL     1      97.032  97.096  77.169  1.00  0.00     0.001 C 
BRANCH  18  19
ATOM     19  C   UNL     1      97.305  95.859  78.064  1.00  0.00     0.000 C 
BRANCH  19  20
ATOM     20  C   UNL     1      96.799  96.064  79.522  1.00  0.00     0.003 C 
BRANCH  20  21
ATOM     21  C   UNL     1      95.998  94.861  80.118  1.00  0.00    -0.017 C 
ATOM     22  C   UNL     1      94.891  94.387  79.131  1.00  0.00     0.007 C 
ATOM     23  C   UNL     1      95.373  95.179  81.508  1.00  0.00     0.007 C 
ENDBRANCH  20  21
ENDBRANCH  19  20
ENDBRANCH  18  19
ENDBRANCH  17  18
ENDBRANCH   1  17
TORSDOF 10
ENDMDL
MODEL 5
REMARK VINA RESULT:    -5.751      2.623      4.170
REMARK INTER + INTRA:          -9.888
REMARK INTER:                  -9.137
REMARK INTRA:                  -0.751
REMARK UNBOUND:                -0.942
REMARK SMILES COc1cc(CNC(=O)CCCCCC(C)C)ccc1O
REMARK SMILES IDX 10 1 8 2 7 3 9 5 6 6 5 7 3 8 20 9 4 10 19 11 18 12 2 13 1 14
REMARK SMILES IDX 21 15 11 17 12 18 13 19 14 20 15 21 16 22 17 23
REMARK H PARENT 7 4 21 16
REMARK Flexibility Score: inf
ROOT
ATOM      1  C   UNL     1      94.568  94.023  76.150  1.00  0.00     0.100 C 
ENDROOT
BRANCH   1   2
ATOM      2  C   UNL     1      93.134  93.906  76.488  1.00  0.00     0.220 C 
ATOM      3  N   UNL     1      92.205  94.476  75.670  1.00  0.00    -0.352 N 
ATOM      4  H   UNL     1      92.584  95.065  74.942  1.00  0.00     0.163 HD
ATOM      5  O   UNL     1      92.799  93.245  77.501  1.00  0.00    -0.275 OA
BRANCH   3   6
ATOM      6  C   UNL     1      90.793  94.296  75.779  1.00  0.00     0.151 C 
BRANCH   6   7
ATOM      7  C   UNL     1      90.276  93.200  74.916  1.00  0.00    -0.025 A 
ATOM      8  C   UNL     1      89.384  90.922  74.667  1.00  0.00     0.160 A 
ATOM      9  C   UNL     1      89.228  91.137  73.281  1.00  0.00     0.157 A 
ATOM     10  C   UNL     1      89.924  91.947  75.472  1.00  0.00     0.056 A 
ATOM     11  C   UNL     1      89.599  92.369  72.713  1.00  0.00     0.050 A 
ATOM     12  C   UNL     1      90.114  93.395  73.524  1.00  0.00     0.009 A 
BRANCH   8  13
ATOM     13  O   UNL     1      89.047  89.722  75.237  1.00  0.00    -0.493 OA
ATOM     14  C   UNL     1      90.144  89.064  75.899  1.00  0.00     0.278 C 
ENDBRANCH   8  13
BRANCH   9  15
ATOM     15  O   UNL     1      88.712  90.157  72.498  1.00  0.00    -0.504 OA
ATOM     16  H   UNL     1      87.979  90.508  71.987  1.00  0.00     0.293 HD
ENDBRANCH   9  15
ENDBRANCH   6   7
ENDBRANCH   3   6
ENDBRANCH   1   2
BRANCH   1  17
ATOM     17  C   UNL     1      95.327  95.110  76.958  1.00  0.00     0.010 C 
BRANCH  17  18
ATOM     18  C   UNL     1      96.044  94.507  78.197  1.00  0.00     0.001 C 
BRANCH  18  19
ATOM     19  C   UNL     1      95.230  94.646  79.509  1.00  0.00     0.000 C 
BRANCH  19  20
ATOM     20  C   UNL     1      96.045  94.203  80.758  1.00  0.00     0.003 C 
BRANCH  20  21
ATOM     21  C   UNL     1      96.811  95.353  81.490  1.00  0.00    -0.017 C 
ATOM     22  C   UNL     1      96.060  96.708  81.331  1.00  0.00     0.007 C 
ATOM     23  C   UNL     1      98.284  95.499  81.009  1.00  0.00     0.007 C 
ENDBRANCH  20  21
ENDBRANCH  19  20
ENDBRANCH  18  19
ENDBRANCH  17  18
ENDBRANCH   1  17
TORSDOF 10
ENDMDL
MODEL 6
REMARK VINA RESULT:    -5.741      2.440      3.759
REMARK INTER + INTRA:          -9.872
REMARK INTER:                  -9.151
REMARK INTRA:                  -0.721
REMARK UNBOUND:                -0.942
REMARK SMILES COc1cc(CNC(=O)CCCCCC(C)C)ccc1O
REMARK SMILES IDX 10 1 8 2 7 3 9 5 6 6 5 7 3 8 20 9 4 10 19 11 18 12 2 13 1 14
REMARK SMILES IDX 21 15 11 17 12 18 13 19 14 20 15 21 16 22 17 23
REMARK H PARENT 7 4 21 16
REMARK Flexibility Score: inf
ROOT
ATOM      1  C   UNL     1      95.942  94.422  75.032  1.00  0.00     0.100 C 
ENDROOT
BRANCH   1   2
ATOM      2  C   UNL     1      95.145  94.115  76.239  1.00  0.00     0.220 C 
ATOM      3  N   UNL     1      93.784  94.121  76.162  1.00  0.00    -0.352 N 
ATOM      4  H   UNL     1      93.409  94.473  75.292  1.00  0.00     0.163 HD
ATOM      5  O   UNL     1      95.741  93.813  77.301  1.00  0.00    -0.275 OA
BRANCH   3   6
ATOM      6  C   UNL     1      92.901  93.679  77.193  1.00  0.00     0.151 C 
BRANCH   6   7
ATOM      7  C   UNL     1      91.723  92.934  76.673  1.00  0.00    -0.025 A 
ATOM      8  C   UNL     1      90.397  92.092  74.780  1.00  0.00     0.160 A 
ATOM      9  C   UNL     1      89.516  91.459  75.681  1.00  0.00     0.157 A 
ATOM     10  C   UNL     1      91.484  92.841  75.281  1.00  0.00     0.056 A 
ATOM     11  C   UNL     1      89.729  91.567  77.068  1.00  0.00     0.050 A 
ATOM     12  C   UNL     1      90.826  92.293  77.560  1.00  0.00     0.009 A 
BRANCH   8  13
ATOM     13  O   UNL     1      90.197  92.016  73.426  1.00  0.00    -0.493 OA
ATOM     14  C   UNL     1      89.611  93.203  72.857  1.00  0.00     0.278 C 
ENDBRANCH   8  13
BRANCH   9  15
ATOM     15  O   UNL     1      88.468  90.738  75.210  1.00  0.00    -0.504 OA
ATOM     16  H   UNL     1      88.793  89.948  74.772  1.00  0.00     0.293 HD
ENDBRANCH   9  15
ENDBRANCH   6   7
ENDBRANCH   3   6
ENDBRANCH   1   2
BRANCH   1  17
ATOM     17  C   UNL     1      96.708  95.770  75.099  1.00  0.00     0.010 C 
BRANCH  17  18
ATOM     18  C   UNL     1      95.737  96.974  75.246  1.00  0.00     0.001 C 
BRANCH  18  19
ATOM     19  C   UNL     1      95.736  97.919  74.015  1.00  0.00     0.000 C 
BRANCH  19  20
ATOM     20  C   UNL     1      94.418  97.814  73.194  1.00  0.00     0.003 C 
BRANCH  20  21
ATOM     21  C   UNL     1      93.463  99.045  73.320  1.00  0.00    -0.017 C 
ATOM     22  C   UNL     1      93.021  99.551  71.915  1.00  0.00     0.007 C 
ATOM     23  C   UNL     1      94.087 100.214  74.136  1.00  0.00     0.007 C 
ENDBRANCH  20  21
ENDBRANCH  19  20
ENDBRANCH  18  19
ENDBRANCH  17  18
ENDBRANCH   1  17
TORSDOF 10
ENDMDL
MODEL 7
REMARK VINA RESULT:    -5.677      3.836      8.555
REMARK INTER + INTRA:          -9.772
REMARK INTER:                  -8.896
REMARK INTRA:                  -0.875
REMARK UNBOUND:                -0.942
REMARK SMILES COc1cc(CNC(=O)CCCCCC(C)C)ccc1O
REMARK SMILES IDX 10 1 8 2 7 3 9 5 6 6 5 7 3 8 20 9 4 10 19 11 18 12 2 13 1 14
REMARK SMILES IDX 21 15 11 17 12 18 13 19 14 20 15 21 16 22 17 23
REMARK H PARENT 7 4 21 16
REMARK Flexibility Score: inf
ROOT
ATOM      1  C   UNL     1      93.928  93.658  76.111  1.00  0.00     0.100 C 
ENDROOT
BRANCH   1   2
ATOM      2  C   UNL     1      94.906  94.509  75.401  1.00  0.00     0.220 C 
ATOM      3  N   UNL     1      94.721  95.859  75.370  1.00  0.00    -0.352 N 
ATOM      4  H   UNL     1      93.833  96.175  75.734  1.00  0.00     0.163 HD
ATOM      5  O   UNL     1      95.912  93.972  74.877  1.00  0.00    -0.275 OA
BRANCH   3   6
ATOM      6  C   UNL     1      95.667  96.806  74.875  1.00  0.00     0.151 C 
BRANCH   6   7
ATOM      7  C   UNL     1      95.255  97.426  73.587  1.00  0.00    -0.025 A 
ATOM      8  C   UNL     1      95.711  97.944  71.226  1.00  0.00     0.160 A 
ATOM      9  C   UNL     1      94.441  98.547  71.115  1.00  0.00     0.157 A 
ATOM     10  C   UNL     1      96.118  97.404  72.465  1.00  0.00     0.056 A 
ATOM     11  C   UNL     1      93.585  98.598  72.231  1.00  0.00     0.050 A 
ATOM     12  C   UNL     1      93.986  98.037  73.455  1.00  0.00     0.009 A 
BRANCH   8  13
ATOM     13  O   UNL     1      96.568  97.902  70.158  1.00  0.00    -0.493 OA
ATOM     14  C   UNL     1      96.608  96.623  69.495  1.00  0.00     0.278 C 
ENDBRANCH   8  13
BRANCH   9  15
ATOM     15  O   UNL     1      94.041  99.071  69.929  1.00  0.00    -0.504 OA
ATOM     16  H   UNL     1      93.638  98.384  69.395  1.00  0.00     0.293 HD
ENDBRANCH   9  15
ENDBRANCH   6   7
ENDBRANCH   3   6
ENDBRANCH   1   2
BRANCH   1  17
ATOM     17  C   UNL     1      92.785  94.445  76.808  1.00  0.00     0.010 C 
BRANCH  17  18
ATOM     18  C   UNL     1      91.434  94.276  76.060  1.00  0.00     0.001 C 
BRANCH  18  19
ATOM     19  C   UNL     1      90.342  93.575  76.911  1.00  0.00     0.000 C 
BRANCH  19  20
ATOM     20  C   UNL     1      90.840  92.230  77.515  1.00  0.00     0.003 C 
BRANCH  20  21
ATOM     21  C   UNL     1      90.384  90.950  76.740  1.00  0.00    -0.017 C 
ATOM     22  C   UNL     1      91.283  90.706  75.492  1.00  0.00     0.007 C 
ATOM     23  C   UNL     1      88.887  91.001  76.317  1.00  0.00     0.007 C 
ENDBRANCH  20  21
ENDBRANCH  19  20
ENDBRANCH  18  19
ENDBRANCH  17  18
ENDBRANCH   1  17
TORSDOF 10
ENDMDL
MODEL 8
REMARK VINA RESULT:    -5.595      2.110      3.446
REMARK INTER + INTRA:          -9.645
REMARK INTER:                  -8.686
REMARK INTRA:                  -0.959
REMARK UNBOUND:                -0.942
REMARK SMILES COc1cc(CNC(=O)CCCCCC(C)C)ccc1O
REMARK SMILES IDX 10 1 8 2 7 3 9 5 6 6 5 7 3 8 20 9 4 10 19 11 18 12 2 13 1 14
REMARK SMILES IDX 21 15 11 17 12 18 13 19 14 20 15 21 16 22 17 23
REMARK H PARENT 7 4 21 16
REMARK Flexibility Score: inf
ROOT
ATOM      1  C   UNL     1      95.881  94.389  75.040  1.00  0.00     0.100 C 
ENDROOT
BRANCH   1   2
ATOM      2  C   UNL     1      95.126  94.041  76.262  1.00  0.00     0.220 C 
ATOM      3  N   UNL     1      93.765  94.113  76.252  1.00  0.00    -0.352 N 
ATOM      4  H   UNL     1      93.368  94.536  75.426  1.00  0.00     0.163 HD
ATOM      5  O   UNL     1      95.755  93.644  77.274  1.00  0.00    -0.275 OA
BRANCH   3   6
ATOM      6  C   UNL     1      92.910  93.644  77.295  1.00  0.00     0.151 C 
BRANCH   6   7
ATOM      7  C   UNL     1      91.845  92.725  76.809  1.00  0.00    -0.025 A 
ATOM      8  C   UNL     1      90.973  91.188  75.099  1.00  0.00     0.160 A 
ATOM      9  C   UNL     1      89.851  90.923  75.913  1.00  0.00     0.157 A 
ATOM     10  C   UNL     1      91.953  92.101  75.543  1.00  0.00     0.056 A 
ATOM     11  C   UNL     1      89.721  91.558  77.161  1.00  0.00     0.050 A 
ATOM     12  C   UNL     1      90.712  92.447  77.609  1.00  0.00     0.009 A 
BRANCH   8  13
ATOM     13  O   UNL     1      91.109  90.595  73.871  1.00  0.00    -0.493 OA
ATOM     14  C   UNL     1      90.776  91.459  72.767  1.00  0.00     0.278 C 
ENDBRANCH   8  13
BRANCH   9  15
ATOM     15  O   UNL     1      88.902  90.048  75.494  1.00  0.00    -0.504 OA
ATOM     16  H   UNL     1      88.862  89.305  76.100  1.00  0.00     0.293 HD
ENDBRANCH   9  15
ENDBRANCH   6   7
ENDBRANCH   3   6
ENDBRANCH   1   2
BRANCH   1  17
ATOM     17  C   UNL     1      96.647  95.737  75.126  1.00  0.00     0.010 C 
BRANCH  17  18
ATOM     18  C   UNL     1      95.698  96.949  74.920  1.00  0.00     0.001 C 
BRANCH  18  19
ATOM     19  C   UNL     1      96.253  98.005  73.927  1.00  0.00     0.000 C 
BRANCH  19  20
ATOM     20  C   UNL     1      96.274  97.481  72.462  1.00  0.00     0.003 C 
BRANCH  20  21
ATOM     21  C   UNL     1      97.700  97.246  71.865  1.00  0.00    -0.017 C 
ATOM     22  C   UNL     1      97.872  95.769  71.402  1.00  0.00     0.007 C 
ATOM     23  C   UNL     1      98.840  97.631  72.853  1.00  0.00     0.007 C 
ENDBRANCH  20  21
ENDBRANCH  19  20
ENDBRANCH  18  19
ENDBRANCH  17  18
ENDBRANCH   1  17
TORSDOF 10
ENDMDL
MODEL 9
REMARK VINA RESULT:    -5.561     13.883     16.992
REMARK INTER + INTRA:          -9.592
REMARK INTER:                  -8.207
REMARK INTRA:                  -1.386
REMARK UNBOUND:                -0.942
REMARK SMILES COc1cc(CNC(=O)CCCCCC(C)C)ccc1O
REMARK SMILES IDX 10 1 8 2 7 3 9 5 6 6 5 7 3 8 20 9 4 10 19 11 18 12 2 13 1 14
REMARK SMILES IDX 21 15 11 17 12 18 13 19 14 20 15 21 16 22 17 23
REMARK H PARENT 7 4 21 16
REMARK Flexibility Score: inf
ROOT
ATOM      1  C   UNL     1      84.596  91.570  86.053  1.00  0.00     0.100 C 
ENDROOT
BRANCH   1   2
ATOM      2  C   UNL     1      83.860  91.375  87.319  1.00  0.00     0.220 C 
ATOM      3  N   UNL     1      83.967  90.187  87.979  1.00  0.00    -0.352 N 
ATOM      4  H   UNL     1      84.452  89.461  87.472  1.00  0.00     0.163 HD
ATOM      5  O   UNL     1      83.185  92.325  87.784  1.00  0.00    -0.275 OA
BRANCH   3   6
ATOM      6  C   UNL     1      83.456  89.924  89.287  1.00  0.00     0.151 C 
BRANCH   6   7
ATOM      7  C   UNL     1      82.113  89.284  89.271  1.00  0.00    -0.025 A 
ATOM      8  C   UNL     1      79.881  88.987  90.261  1.00  0.00     0.160 A 
ATOM      9  C   UNL     1      79.532  88.118  89.206  1.00  0.00     0.157 A 
ATOM     10  C   UNL     1      81.175  89.550  90.298  1.00  0.00     0.056 A 
ATOM     11  C   UNL     1      80.466  87.826  88.195  1.00  0.00     0.050 A 
ATOM     12  C   UNL     1      81.744  88.409  88.224  1.00  0.00     0.009 A 
BRANCH   8  13
ATOM     13  O   UNL     1      78.994  89.268  91.266  1.00  0.00    -0.493 OA
ATOM     14  C   UNL     1      79.297  88.610  92.512  1.00  0.00     0.278 C 
ENDBRANCH   8  13
BRANCH   9  15
ATOM     15  O   UNL     1      78.292  87.570  89.163  1.00  0.00    -0.504 OA
ATOM     16  H   UNL     1      77.721  88.112  88.614  1.00  0.00     0.293 HD
ENDBRANCH   9  15
ENDBRANCH   6   7
ENDBRANCH   3   6
ENDBRANCH   1   2
BRANCH   1  17
ATOM     17  C   UNL     1      84.419  90.417  85.028  1.00  0.00     0.010 C 
BRANCH  17  18
ATOM     18  C   UNL     1      82.943  90.288  84.560  1.00  0.00     0.001 C 
BRANCH  18  19
ATOM     19  C   UNL     1      82.372  88.854  84.713  1.00  0.00     0.000 C 
BRANCH  19  20
ATOM     20  C   UNL     1      80.840  88.798  84.440  1.00  0.00     0.003 C 
BRANCH  20  21
ATOM     21  C   UNL     1      80.250  87.360  84.279  1.00  0.00    -0.017 C 
ATOM     22  C   UNL     1      81.155  86.306  84.983  1.00  0.00     0.007 C 
ATOM     23  C   UNL     1      80.025  86.961  82.792  1.00  0.00     0.007 C 
ENDBRANCH  20  21
ENDBRANCH  19  20
ENDBRANCH  18  19
ENDBRANCH  17  18
ENDBRANCH   1  17
TORSDOF 10
ENDMDL
MODEL 10
REMARK VINA RESULT:    -5.461      3.846      5.675
REMARK INTER + INTRA:          -9.437
REMARK INTER:                  -8.935
REMARK INTRA:                  -0.502
REMARK UNBOUND:                -0.942
REMARK SMILES COc1cc(CNC(=O)CCCCCC(C)C)ccc1O
REMARK SMILES IDX 10 1 8 2 7 3 9 5 6 6 5 7 3 8 20 9 4 10 19 11 18 12 2 13 1 14
REMARK SMILES IDX 21 15 11 17 12 18 13 19 14 20 15 21 16 22 17 23
REMARK H PARENT 7 4 21 16
REMARK Flexibility Score: inf
ROOT
ATOM      1  C   UNL     1      94.889  97.662  74.144  1.00  0.00     0.100 C 
ENDROOT
BRANCH   1   2
ATOM      2  C   UNL     1      95.092  96.314  74.712  1.00  0.00     0.220 C 
ATOM      3  N   UNL     1      94.011  95.522  74.962  1.00  0.00    -0.352 N 
ATOM      4  H   UNL     1      93.117  95.980  74.859  1.00  0.00     0.163 HD
ATOM      5  O   UNL     1      96.263  95.908  74.913  1.00  0.00    -0.275 OA
BRANCH   3   6
ATOM      6  C   UNL     1      94.070  94.148  75.343  1.00  0.00     0.151 C 
BRANCH   6   7
ATOM      7  C   UNL     1      92.733  93.567  75.642  1.00  0.00    -0.025 A 
ATOM      8  C   UNL     1      91.002  91.871  75.223  1.00  0.00     0.160 A 
ATOM      9  C   UNL     1      90.216  92.420  76.257  1.00  0.00     0.157 A 
ATOM     10  C   UNL     1      92.247  92.458  74.909  1.00  0.00     0.056 A 
ATOM     11  C   UNL     1      90.678  93.539  76.975  1.00  0.00     0.050 A 
ATOM     12  C   UNL     1      91.928  94.105  76.674  1.00  0.00     0.009 A 
BRANCH   8  13
ATOM     13  O   UNL     1      90.562  90.794  74.499  1.00  0.00    -0.493 OA
ATOM     14  C   UNL     1      91.390  89.622  74.637  1.00  0.00     0.278 C 
ENDBRANCH   8  13
BRANCH   9  15
ATOM     15  O   UNL     1      89.018  91.864  76.565  1.00  0.00    -0.504 OA
ATOM     16  H   UNL     1      89.154  91.108  77.141  1.00  0.00     0.293 HD
ENDBRANCH   9  15
ENDBRANCH   6   7
ENDBRANCH   3   6
ENDBRANCH   1   2
BRANCH   1  17
ATOM     17  C   UNL     1      93.654  97.782  73.210  1.00  0.00     0.010 C 
BRANCH  17  18
ATOM     18  C   UNL     1      94.050  98.303  71.801  1.00  0.00     0.001 C 
BRANCH  18  19
ATOM     19  C   UNL     1      93.011  99.280  71.190  1.00  0.00     0.000 C 
BRANCH  19  20
ATOM     20  C   UNL     1      91.857  98.532  70.462  1.00  0.00     0.003 C 
BRANCH  20  21
ATOM     21  C   UNL     1      91.220  99.308  69.263  1.00  0.00    -0.017 C 
ATOM     22  C   UNL     1      90.677  98.320  68.189  1.00  0.00     0.007 C 
ATOM     23  C   UNL     1      92.203 100.321  68.609  1.00  0.00     0.007 C 
ENDBRANCH  20  21
ENDBRANCH  19  20
ENDBRANCH  18  19
ENDBRANCH  17  18
ENDBRANCH   1  17
TORSDOF 10
ENDMDL
