MODEL 1
REMARK VINA RESULT:    -7.324      0.000      0.000
REMARK INTER + INTRA:         -13.042
REMARK INTER:                 -12.462
REMARK INTRA:                  -0.580
REMARK UNBOUND:                -0.580
REMARK SMILES C=C(C)[C@]12C[C@@H](C)[C@@]34O[C@](Cc5ccccc5)(O[C@@H]1[C@@H]3C=C(COC(=O)Cc1ccc(O)cc1)C[C@]1(O)C(=O)C(C)=C[C@@H]41)O2
REMARK SMILES IDX 23 1 22 2 21 3 20 4 9 5 8 6 10 7 6 8 18 10 44 11 19 12 5 13
REMARK SMILES IDX 7 14 4 15 11 16 12 17 13 18 17 19 14 20 16 21 15 22 2 23
REMARK SMILES IDX 3 24 1 25 35 26 36 27 43 28 38 29 42 30 39 32 40 33 41 34
REMARK SMILES IDX 37 35 24 37 25 38 26 39 27 40 28 41 29 42 34 43 30 44 33 45
REMARK SMILES IDX 31 46 32 47
REMARK H PARENT 37 36 32 48
REMARK Flexibility Score: 90.00
ROOT
ATOM      1  C   UNL     1      93.291  77.822  84.998  1.00  0.00     0.264 C 
ENDROOT
BRANCH   1   2
ATOM      2  C   UNL     1      94.208  78.942  85.433  1.00  0.00    -0.033 C 
ATOM      3  C   UNL     1      95.391  79.107  84.806  1.00  0.00    -0.015 C 
BRANCH   3   4
ATOM      4  C   UNL     1      96.509  80.094  85.098  1.00  0.00     0.078 C 
ATOM      5  O   UNL     1      96.108  82.079  83.678  1.00  0.00    -0.319 OA
ATOM      6  C   UNL     1      96.177  81.632  85.067  1.00  0.00     0.095 CG0
ATOM      7  C   UNL     1      97.138  81.562  82.813  1.00  0.00     0.289 C 
ATOM      8  C   UNL     1      97.356  82.392  85.804  1.00  0.00     0.023 C 
ATOM      9  G   UNL     1      94.752  81.901  85.633  1.00  0.00     0.000 G0
ATOM     10  O   UNL     1      97.138  80.137  82.801  1.00  0.00    -0.320 OA
ATOM     11  O   UNL     1      98.445  81.943  83.239  1.00  0.00    -0.313 OA
ATOM     12  C   UNL     1      97.678  79.875  84.106  1.00  0.00     0.170 C 
ATOM     13  C   UNL     1      98.723  81.674  85.587  1.00  0.00     0.049 C 
ATOM     14  C   UNL     1      97.502  83.883  85.454  1.00  0.00     0.011 C 
ATOM     15  C   UNL     1      98.778  80.956  84.237  1.00  0.00     0.122 C 
BRANCH   7  16
ATOM     16  C   UNL     1      96.891  82.087  81.413  1.00  0.00     0.135 C 
BRANCH  16  17
ATOM     17  C   UNL     1      97.929  81.599  80.433  1.00  0.00    -0.040 A 
ATOM     18  C   UNL     1      99.006  82.416  80.092  1.00  0.00     0.004 A 
ATOM     19  C   UNL     1      97.810  80.329  79.869  1.00  0.00     0.004 A 
ATOM     20  C   UNL     1      99.966  81.963  79.186  1.00  0.00     0.000 A 
ATOM     21  C   UNL     1      98.769  79.876  78.963  1.00  0.00     0.000 A 
ATOM     22  C   UNL     1      99.847  80.693  78.622  1.00  0.00     0.000 A 
ENDBRANCH  16  17
ENDBRANCH   7  16
BRANCH  15  23
ATOM     23  C   UNL     1     100.136  80.416  83.929  1.00  0.00    -0.046 C 
ATOM     24  C   UNL     1     101.175  80.588  84.998  1.00  0.00     0.042 C 
ATOM     25  C   UNL     1     100.412  79.812  82.764  1.00  0.00     0.010 C 
ENDBRANCH  15  23
ENDBRANCH   3   4
BRANCH   2  26
ATOM     26  C   UNL     1      93.637  79.773  86.566  1.00  0.00     0.078 C 
BRANCH  26  27
ATOM     27  C   UNL     1      94.360  81.073  86.912  1.00  0.00     0.140 C 
ATOM     28  C   UNL     1      94.752  81.876  85.654  1.00  0.00     0.086 CG0
ATOM     29  C   UNL     1      93.475  82.049  87.658  1.00  0.00     0.190 C 
ATOM     30  C   UNL     1      94.336  83.280  85.992  1.00  0.00    -0.010 C 
ATOM     31  G   UNL     1      96.181  81.617  85.094  1.00  0.00     0.000 G0
ATOM     32  O   UNL     1      92.786  81.779  88.630  1.00  0.00    -0.291 OA
ATOM     33  C   UNL     1      93.593  83.407  87.095  1.00  0.00    -0.008 C 
ATOM     34  C   UNL     1      92.949  84.604  87.676  1.00  0.00     0.048 C 
BRANCH  27  35
ATOM     35  O   UNL     1      95.438  80.844  87.805  1.00  0.00    -0.381 OA
ATOM     36  H   UNL     1      95.485  79.891  87.991  1.00  0.00     0.212 HD
ENDBRANCH  27  35
ENDBRANCH  26  27
ENDBRANCH   2  26
ENDBRANCH   1   2
BRANCH   1  37
ATOM     37  O   UNL     1      92.461  78.278  83.951  1.00  0.00    -0.461 OA
BRANCH  37  38
ATOM     38  C   UNL     1      91.213  78.727  84.317  1.00  0.00     0.310 C 
ATOM     39  O   UNL     1      90.351  78.046  84.854  1.00  0.00    -0.252 OA
BRANCH  38  40
ATOM     40  C   UNL     1      91.077  80.186  83.952  1.00  0.00     0.158 C 
BRANCH  40  41
ATOM     41  C   UNL     1      89.675  80.708  84.134  1.00  0.00    -0.037 A 
ATOM     42  C   UNL     1      88.614  80.110  83.455  1.00  0.00     0.008 A 
ATOM     43  C   UNL     1      89.438  81.791  84.981  1.00  0.00     0.008 A 
ATOM     44  C   UNL     1      87.316  80.594  83.623  1.00  0.00     0.046 A 
ATOM     45  C   UNL     1      88.141  82.275  85.149  1.00  0.00     0.046 A 
ATOM     46  C   UNL     1      87.080  81.677  84.470  1.00  0.00     0.115 A 
BRANCH  46  47
ATOM     47  O   UNL     1      85.814  82.149  84.633  1.00  0.00    -0.508 OA
ATOM     48  H   UNL     1      85.603  82.748  83.896  1.00  0.00     0.293 HD
ENDBRANCH  46  47
ENDBRANCH  40  41
ENDBRANCH  38  40
ENDBRANCH  37  38
ENDBRANCH   1  37
TORSDOF 10
ENDMDL
MODEL 2
REMARK VINA RESULT:    -7.138      2.083      3.869
REMARK INTER + INTRA:         -12.725
REMARK INTER:                 -12.438
REMARK INTRA:                  -0.287
REMARK UNBOUND:                -0.580
REMARK SMILES C=C(C)[C@]12C[C@@H](C)[C@@]34O[C@](Cc5ccccc5)(O[C@@H]1[C@@H]3C=C(COC(=O)Cc1ccc(O)cc1)C[C@]1(O)C(=O)C(C)=C[C@@H]41)O2
REMARK SMILES IDX 23 1 22 2 21 3 20 4 9 5 8 6 10 7 6 8 18 10 44 11 19 12 5 13
REMARK SMILES IDX 7 14 4 15 11 16 12 17 13 18 17 19 14 20 16 21 15 22 2 23
REMARK SMILES IDX 3 24 1 25 35 26 36 27 43 28 38 29 42 30 39 32 40 33 41 34
REMARK SMILES IDX 37 35 24 37 25 38 26 39 27 40 28 41 29 42 34 43 30 44 33 45
REMARK SMILES IDX 31 46 32 47
REMARK H PARENT 37 36 32 48
REMARK Flexibility Score: 90.00
ROOT
ATOM      1  C   UNL     1      94.208  81.383  84.317  1.00  0.00     0.264 C 
ENDROOT
BRANCH   1   2
ATOM      2  C   UNL     1      95.587  80.764  84.294  1.00  0.00    -0.033 C 
ATOM      3  C   UNL     1      96.130  80.408  83.111  1.00  0.00    -0.015 C 
BRANCH   3   4
ATOM      4  C   UNL     1      97.450  79.708  82.827  1.00  0.00     0.078 C 
ATOM      5  O   UNL     1      99.137  81.477  82.449  1.00  0.00    -0.319 OA
ATOM      6  C   UNL     1      98.777  80.376  83.342  1.00  0.00     0.095 CG0
ATOM      7  C   UNL     1      98.983  81.203  81.043  1.00  0.00     0.289 C 
ATOM      8  C   UNL     1      99.916  79.275  83.300  1.00  0.00     0.023 C 
ATOM      9  G   UNL     1      98.555  81.056  84.724  1.00  0.00     0.000 G0
ATOM     10  O   UNL     1      97.646  80.824  80.732  1.00  0.00    -0.320 OA
ATOM     11  O   UNL     1      99.802  80.119  80.609  1.00  0.00    -0.313 OA
ATOM     12  C   UNL     1      97.619  79.506  81.301  1.00  0.00     0.170 C 
ATOM     13  C   UNL     1      99.707  78.281  82.117  1.00  0.00     0.049 C 
ATOM     14  C   UNL     1     101.356  79.814  83.264  1.00  0.00     0.011 C 
ATOM     15  C   UNL     1      99.016  78.952  80.928  1.00  0.00     0.122 C 
BRANCH   7  16
ATOM     16  C   UNL     1      99.355  82.455  80.273  1.00  0.00     0.135 C 
BRANCH  16  17
ATOM     17  C   UNL     1      98.480  82.654  79.060  1.00  0.00    -0.040 A 
ATOM     18  C   UNL     1      98.826  82.061  77.846  1.00  0.00     0.004 A 
ATOM     19  C   UNL     1      97.326  83.431  79.153  1.00  0.00     0.004 A 
ATOM     20  C   UNL     1      98.016  82.244  76.724  1.00  0.00     0.000 A 
ATOM     21  C   UNL     1      96.517  83.615  78.032  1.00  0.00     0.000 A 
ATOM     22  C   UNL     1      96.862  83.022  76.818  1.00  0.00     0.000 A 
ENDBRANCH  16  17
ENDBRANCH   7  16
BRANCH  15  23
ATOM     23  C   UNL     1      98.968  78.073  79.721  1.00  0.00    -0.046 C 
ATOM     24  C   UNL     1     100.291  77.712  79.113  1.00  0.00     0.042 C 
ATOM     25  C   UNL     1      97.809  77.632  79.211  1.00  0.00     0.010 C 
ENDBRANCH  15  23
ENDBRANCH   3   4
BRANCH   2  26
ATOM     26  C   UNL     1      96.202  80.629  85.674  1.00  0.00     0.078 C 
BRANCH  26  27
ATOM     27  C   UNL     1      97.684  80.266  85.745  1.00  0.00     0.140 C 
ATOM     28  C   UNL     1      98.529  81.058  84.726  1.00  0.00     0.086 CG0
ATOM     29  C   UNL     1      98.315  80.658  87.065  1.00  0.00     0.190 C 
ATOM     30  C   UNL     1      99.710  81.519  85.533  1.00  0.00    -0.010 C 
ATOM     31  G   UNL     1      98.766  80.370  83.350  1.00  0.00     0.000 G0
ATOM     32  O   UNL     1      97.855  80.412  88.170  1.00  0.00    -0.291 OA
ATOM     33  C   UNL     1      99.608  81.334  86.853  1.00  0.00    -0.008 C 
ATOM     34  C   UNL     1     100.524  81.731  87.943  1.00  0.00     0.048 C 
BRANCH  27  35
ATOM     35  O   UNL     1      97.877  78.862  85.681  1.00  0.00    -0.381 OA
ATOM     36  H   UNL     1      97.116  78.469  85.222  1.00  0.00     0.212 HD
ENDBRANCH  27  35
ENDBRANCH  26  27
ENDBRANCH   2  26
ENDBRANCH   1   2
BRANCH   1  37
ATOM     37  O   UNL     1      93.757  81.467  85.651  1.00  0.00    -0.461 OA
BRANCH  37  38
ATOM     38  C   UNL     1      92.493  80.982  85.897  1.00  0.00     0.310 C 
ATOM     39  O   UNL     1      91.937  80.990  86.986  1.00  0.00    -0.252 OA
BRANCH  38  40
ATOM     40  C   UNL     1      91.903  80.442  84.617  1.00  0.00     0.158 C 
BRANCH  40  41
ATOM     41  C   UNL     1      90.442  80.775  84.456  1.00  0.00    -0.037 A 
ATOM     42  C   UNL     1      89.985  82.062  84.741  1.00  0.00     0.008 A 
ATOM     43  C   UNL     1      89.547  79.798  84.021  1.00  0.00     0.008 A 
ATOM     44  C   UNL     1      88.632  82.370  84.593  1.00  0.00     0.046 A 
ATOM     45  C   UNL     1      88.195  80.106  83.872  1.00  0.00     0.046 A 
ATOM     46  C   UNL     1      87.737  81.392  84.158  1.00  0.00     0.115 A 
BRANCH  46  47
ATOM     47  O   UNL     1      86.418  81.693  84.014  1.00  0.00    -0.508 OA
ATOM     48  H   UNL     1      85.942  80.896  83.724  1.00  0.00     0.293 HD
ENDBRANCH  46  47
ENDBRANCH  40  41
ENDBRANCH  38  40
ENDBRANCH  37  38
ENDBRANCH   1  37
TORSDOF 10
ENDMDL
MODEL 3
REMARK VINA RESULT:    -7.083      2.376      3.977
REMARK INTER + INTRA:         -12.632
REMARK INTER:                 -12.304
REMARK INTRA:                  -0.328
REMARK UNBOUND:                -0.580
REMARK SMILES C=C(C)[C@]12C[C@@H](C)[C@@]34O[C@](Cc5ccccc5)(O[C@@H]1[C@@H]3C=C(COC(=O)Cc1ccc(O)cc1)C[C@]1(O)C(=O)C(C)=C[C@@H]41)O2
REMARK SMILES IDX 23 1 22 2 21 3 20 4 9 5 8 6 10 7 6 8 18 10 44 11 19 12 5 13
REMARK SMILES IDX 7 14 4 15 11 16 12 17 13 18 17 19 14 20 16 21 15 22 2 23
REMARK SMILES IDX 3 24 1 25 35 26 36 27 43 28 38 29 42 30 39 32 40 33 41 34
REMARK SMILES IDX 37 35 24 37 25 38 26 39 27 40 28 41 29 42 34 43 30 44 33 45
REMARK SMILES IDX 31 46 32 47
REMARK H PARENT 37 36 32 48
REMARK Flexibility Score: 90.00
ROOT
ATOM      1  C   UNL     1      95.033  77.264  83.057  1.00  0.00     0.264 C 
ENDROOT
BRANCH   1   2
ATOM      2  C   UNL     1      96.107  78.317  82.912  1.00  0.00    -0.033 C 
ATOM      3  C   UNL     1      97.088  78.137  82.003  1.00  0.00    -0.015 C 
BRANCH   3   4
ATOM      4  C   UNL     1      98.309  78.997  81.718  1.00  0.00     0.078 C 
ATOM      5  O   UNL     1      97.672  80.582  79.930  1.00  0.00    -0.319 OA
ATOM      6  C   UNL     1      98.088  80.505  81.330  1.00  0.00     0.095 CG0
ATOM      7  C   UNL     1      98.388  79.719  79.027  1.00  0.00     0.289 C 
ATOM      8  C   UNL     1      99.473  81.253  81.506  1.00  0.00     0.023 C 
ATOM      9  G   UNL     1      96.894  81.112  82.123  1.00  0.00     0.000 G0
ATOM     10  O   UNL     1      98.286  78.354  79.425  1.00  0.00    -0.320 OA
ATOM     11  O   UNL     1      99.784  80.007  78.993  1.00  0.00    -0.313 OA
ATOM     12  C   UNL     1      99.143  78.364  80.577  1.00  0.00     0.170 C 
ATOM     13  C   UNL     1     100.676  80.317  81.178  1.00  0.00     0.049 C 
ATOM     14  C   UNL     1      99.620  82.567  80.719  1.00  0.00     0.011 C 
ATOM     15  C   UNL     1     100.309  79.274  80.120  1.00  0.00     0.122 C 
BRANCH   7  16
ATOM     16  C   UNL     1      97.803  79.894  77.639  1.00  0.00     0.135 C 
BRANCH  16  17
ATOM     17  C   UNL     1      97.937  81.312  77.143  1.00  0.00    -0.040 A 
ATOM     18  C   UNL     1      97.062  82.297  77.600  1.00  0.00     0.004 A 
ATOM     19  C   UNL     1      98.937  81.637  76.227  1.00  0.00     0.004 A 
ATOM     20  C   UNL     1      97.187  83.609  77.141  1.00  0.00     0.000 A 
ATOM     21  C   UNL     1      99.062  82.949  75.768  1.00  0.00     0.000 A 
ATOM     22  C   UNL     1      98.187  83.934  76.225  1.00  0.00     0.000 A 
ENDBRANCH  16  17
ENDBRANCH   7  16
BRANCH  15  23
ATOM     23  C   UNL     1     101.490  78.485  79.658  1.00  0.00    -0.046 C 
ATOM     24  C   UNL     1     101.963  78.757  78.261  1.00  0.00     0.042 C 
ATOM     25  C   UNL     1     102.094  77.584  80.448  1.00  0.00     0.010 C 
ENDBRANCH  15  23
ENDBRANCH   3   4
BRANCH   2  26
ATOM     26  C   UNL     1      95.919  79.493  83.852  1.00  0.00     0.078 C 
BRANCH  26  27
ATOM     27  C   UNL     1      96.807  80.715  83.626  1.00  0.00     0.140 C 
ATOM     28  C   UNL     1      96.893  81.107  82.136  1.00  0.00     0.086 CG0
ATOM     29  C   UNL     1      96.240  81.969  84.259  1.00  0.00     0.190 C 
ATOM     30  C   UNL     1      96.694  82.597  82.154  1.00  0.00    -0.010 C 
ATOM     31  G   UNL     1      98.086  80.506  81.338  1.00  0.00     0.000 G0
ATOM     32  O   UNL     1      95.829  82.058  85.407  1.00  0.00    -0.291 OA
ATOM     33  C   UNL     1      96.299  83.108  83.324  1.00  0.00    -0.008 C 
ATOM     34  C   UNL     1      95.934  84.494  83.683  1.00  0.00     0.048 C 
BRANCH  27  35
ATOM     35  O   UNL     1      98.069  80.562  84.252  1.00  0.00    -0.381 OA
ATOM     36  H   UNL     1      98.286  81.390  84.713  1.00  0.00     0.212 HD
ENDBRANCH  27  35
ENDBRANCH  26  27
ENDBRANCH   2  26
ENDBRANCH   1   2
BRANCH   1  37
ATOM     37  O   UNL     1      94.244  77.555  84.191  1.00  0.00    -0.461 OA
BRANCH  37  38
ATOM     38  C   UNL     1      92.881  77.538  84.004  1.00  0.00     0.310 C 
ATOM     39  O   UNL     1      92.301  76.920  83.122  1.00  0.00    -0.252 OA
BRANCH  38  40
ATOM     40  C   UNL     1      92.217  78.397  85.053  1.00  0.00     0.158 C 
BRANCH  40  41
ATOM     41  C   UNL     1      90.854  78.885  84.637  1.00  0.00    -0.037 A 
ATOM     42  C   UNL     1      89.760  78.021  84.681  1.00  0.00     0.008 A 
ATOM     43  C   UNL     1      90.686  80.201  84.207  1.00  0.00     0.008 A 
ATOM     44  C   UNL     1      88.498  78.473  84.294  1.00  0.00     0.046 A 
ATOM     45  C   UNL     1      89.424  80.654  83.820  1.00  0.00     0.046 A 
ATOM     46  C   UNL     1      88.330  79.790  83.864  1.00  0.00     0.115 A 
BRANCH  46  47
ATOM     47  O   UNL     1      87.099  80.230  83.487  1.00  0.00    -0.508 OA
ATOM     48  H   UNL     1      87.108  80.410  82.530  1.00  0.00     0.293 HD
ENDBRANCH  46  47
ENDBRANCH  40  41
ENDBRANCH  38  40
ENDBRANCH  37  38
ENDBRANCH   1  37
TORSDOF 10
ENDMDL
MODEL 4
REMARK VINA RESULT:    -7.054      3.565      7.247
REMARK INTER + INTRA:         -12.581
REMARK INTER:                 -12.788
REMARK INTRA:                   0.206
REMARK UNBOUND:                -0.580
REMARK SMILES C=C(C)[C@]12C[C@@H](C)[C@@]34O[C@](Cc5ccccc5)(O[C@@H]1[C@@H]3C=C(COC(=O)Cc1ccc(O)cc1)C[C@]1(O)C(=O)C(C)=C[C@@H]41)O2
REMARK SMILES IDX 23 1 22 2 21 3 20 4 9 5 8 6 10 7 6 8 18 10 44 11 19 12 5 13
REMARK SMILES IDX 7 14 4 15 11 16 12 17 13 18 17 19 14 20 16 21 15 22 2 23
REMARK SMILES IDX 3 24 1 25 35 26 36 27 43 28 38 29 42 30 39 32 40 33 41 34
REMARK SMILES IDX 37 35 24 37 25 38 26 39 27 40 28 41 29 42 34 43 30 44 33 45
REMARK SMILES IDX 31 46 32 47
REMARK H PARENT 37 36 32 48
REMARK Flexibility Score: 90.00
ROOT
ATOM      1  C   UNL     1      94.241  85.279  89.716  1.00  0.00     0.264 C 
ENDROOT
BRANCH   1   2
ATOM      2  C   UNL     1      94.206  83.850  89.225  1.00  0.00    -0.033 C 
ATOM      3  C   UNL     1      93.583  83.567  88.062  1.00  0.00    -0.015 C 
BRANCH   3   4
ATOM      4  C   UNL     1      93.345  82.220  87.398  1.00  0.00     0.078 C 
ATOM      5  O   UNL     1      95.243  81.830  85.861  1.00  0.00    -0.319 OA
ATOM      6  C   UNL     1      94.591  81.319  87.065  1.00  0.00     0.095 CG0
ATOM      7  C   UNL     1      94.352  82.223  84.799  1.00  0.00     0.289 C 
ATOM      8  C   UNL     1      94.061  79.851  86.791  1.00  0.00     0.023 C 
ATOM      9  G   UNL     1      95.675  81.443  88.175  1.00  0.00     0.000 G0
ATOM     10  O   UNL     1      93.431  83.218  85.236  1.00  0.00    -0.320 OA
ATOM     11  O   UNL     1      93.554  81.138  84.331  1.00  0.00    -0.313 OA
ATOM     12  C   UNL     1      92.576  82.419  86.069  1.00  0.00     0.170 C 
ATOM     13  C   UNL     1      92.650  79.867  86.128  1.00  0.00     0.049 C 
ATOM     14  C   UNL     1      95.001  78.952  85.970  1.00  0.00     0.011 C 
ATOM     15  C   UNL     1      92.448  81.107  85.256  1.00  0.00     0.122 C 
BRANCH   7  16
ATOM     16  C   UNL     1      95.187  82.764  83.655  1.00  0.00     0.135 C 
BRANCH  16  17
ATOM     17  C   UNL     1      96.296  81.818  83.266  1.00  0.00    -0.040 A 
ATOM     18  C   UNL     1      97.627  82.186  83.458  1.00  0.00     0.004 A 
ATOM     19  C   UNL     1      95.989  80.575  82.714  1.00  0.00     0.004 A 
ATOM     20  C   UNL     1      98.652  81.311  83.098  1.00  0.00     0.000 A 
ATOM     21  C   UNL     1      97.014  79.699  82.355  1.00  0.00     0.000 A 
ATOM     22  C   UNL     1      98.345  80.068  82.547  1.00  0.00     0.000 A 
ENDBRANCH  16  17
ENDBRANCH   7  16
BRANCH  15  23
ATOM     23  C   UNL     1      91.179  81.055  84.470  1.00  0.00    -0.046 C 
ATOM     24  C   UNL     1      90.813  79.720  83.891  1.00  0.00     0.042 C 
ATOM     25  C   UNL     1      90.410  82.139  84.290  1.00  0.00     0.010 C 
ENDBRANCH  15  23
ENDBRANCH   3   4
BRANCH   2  26
ATOM     26  C   UNL     1      94.919  82.884  90.153  1.00  0.00     0.078 C 
BRANCH  26  27
ATOM     27  C   UNL     1      95.151  81.465  89.639  1.00  0.00     0.140 C 
ATOM     28  C   UNL     1      95.665  81.447  88.184  1.00  0.00     0.086 CG0
ATOM     29  C   UNL     1      96.260  80.752  90.384  1.00  0.00     0.190 C 
ATOM     30  C   UNL     1      96.799  80.462  88.226  1.00  0.00    -0.010 C 
ATOM     31  G   UNL     1      94.580  81.317  87.076  1.00  0.00     0.000 G0
ATOM     32  O   UNL     1      96.371  80.692  91.599  1.00  0.00    -0.291 OA
ATOM     33  C   UNL     1      97.176  80.074  89.448  1.00  0.00    -0.008 C 
ATOM     34  C   UNL     1      98.287  79.195  89.866  1.00  0.00     0.048 C 
BRANCH  27  35
ATOM     35  O   UNL     1      94.016  80.643  89.855  1.00  0.00    -0.381 OA
ATOM     36  H   UNL     1      94.260  79.724  89.653  1.00  0.00     0.212 HD
ENDBRANCH  27  35
ENDBRANCH  26  27
ENDBRANCH   2  26
ENDBRANCH   1   2
BRANCH   1  37
ATOM     37  O   UNL     1      92.925  85.710  89.989  1.00  0.00    -0.461 OA
BRANCH  37  38
ATOM     38  C   UNL     1      92.562  86.928  89.461  1.00  0.00     0.310 C 
ATOM     39  O   UNL     1      91.593  87.586  89.813  1.00  0.00    -0.252 OA
BRANCH  38  40
ATOM     40  C   UNL     1      93.544  87.322  88.383  1.00  0.00     0.158 C 
BRANCH  40  41
ATOM     41  C   UNL     1      93.879  88.791  88.402  1.00  0.00    -0.037 A 
ATOM     42  C   UNL     1      94.970  89.267  87.675  1.00  0.00     0.008 A 
ATOM     43  C   UNL     1      93.098  89.675  89.146  1.00  0.00     0.008 A 
ATOM     44  C   UNL     1      95.281  90.627  87.693  1.00  0.00     0.046 A 
ATOM     45  C   UNL     1      93.408  91.035  89.163  1.00  0.00     0.046 A 
ATOM     46  C   UNL     1      94.499  91.511  88.437  1.00  0.00     0.115 A 
BRANCH  46  47
ATOM     47  O   UNL     1      94.802  92.838  88.455  1.00  0.00    -0.508 OA
ATOM     48  H   UNL     1      94.326  93.261  89.190  1.00  0.00     0.293 HD
ENDBRANCH  46  47
ENDBRANCH  40  41
ENDBRANCH  38  40
ENDBRANCH  37  38
ENDBRANCH   1  37
TORSDOF 10
ENDMDL
MODEL 5
REMARK VINA RESULT:    -6.672     24.492     28.051
REMARK INTER + INTRA:         -11.933
REMARK INTER:                 -11.700
REMARK INTRA:                  -0.233
REMARK UNBOUND:                -0.580
REMARK SMILES C=C(C)[C@]12C[C@@H](C)[C@@]34O[C@](Cc5ccccc5)(O[C@@H]1[C@@H]3C=C(COC(=O)Cc1ccc(O)cc1)C[C@]1(O)C(=O)C(C)=C[C@@H]41)O2
REMARK SMILES IDX 23 1 22 2 21 3 20 4 9 5 8 6 10 7 6 8 18 10 44 11 19 12 5 13
REMARK SMILES IDX 7 14 4 15 11 16 12 17 13 18 17 19 14 20 16 21 15 22 2 23
REMARK SMILES IDX 3 24 1 25 35 26 36 27 43 28 38 29 42 30 39 32 40 33 41 34
REMARK SMILES IDX 37 35 24 37 25 38 26 39 27 40 28 41 29 42 34 43 30 44 33 45
REMARK SMILES IDX 31 46 32 47
REMARK H PARENT 37 36 32 48
REMARK Flexibility Score: 90.00
ROOT
ATOM      1  C   UNL     1      73.397  90.173  71.187  1.00  0.00     0.264 C 
ENDROOT
BRANCH   1   2
ATOM      2  C   UNL     1      74.013  89.852  69.845  1.00  0.00    -0.033 C 
ATOM      3  C   UNL     1      74.336  88.574  69.557  1.00  0.00    -0.015 C 
BRANCH   3   4
ATOM      4  C   UNL     1      75.026  88.007  68.327  1.00  0.00     0.078 C 
ATOM      5  O   UNL     1      73.245  87.300  66.763  1.00  0.00    -0.319 OA
ATOM      6  C   UNL     1      74.357  88.235  66.922  1.00  0.00     0.095 CG0
ATOM      7  C   UNL     1      73.503  85.956  67.212  1.00  0.00     0.289 C 
ATOM      8  C   UNL     1      75.452  87.939  65.815  1.00  0.00     0.023 C 
ATOM      9  G   UNL     1      73.695  89.642  66.846  1.00  0.00     0.000 G0
ATOM     10  O   UNL     1      73.885  85.932  68.584  1.00  0.00    -0.320 OA
ATOM     11  O   UNL     1      74.578  85.344  66.502  1.00  0.00    -0.313 OA
ATOM     12  C   UNL     1      75.210  86.478  68.485  1.00  0.00     0.170 C 
ATOM     13  C   UNL     1      76.434  86.815  66.269  1.00  0.00     0.049 C 
ATOM     14  C   UNL     1      74.905  87.603  64.417  1.00  0.00     0.011 C 
ATOM     15  C   UNL     1      75.752  85.809  67.198  1.00  0.00     0.122 C 
BRANCH   7  16
ATOM     16  C   UNL     1      72.241  85.140  67.016  1.00  0.00     0.135 C 
BRANCH  16  17
ATOM     17  C   UNL     1      71.263  85.329  68.149  1.00  0.00    -0.040 A 
ATOM     18  C   UNL     1      70.812  84.226  68.874  1.00  0.00     0.004 A 
ATOM     19  C   UNL     1      70.810  86.608  68.471  1.00  0.00     0.004 A 
ATOM     20  C   UNL     1      69.908  84.402  69.922  1.00  0.00     0.000 A 
ATOM     21  C   UNL     1      69.906  86.784  69.519  1.00  0.00     0.000 A 
ATOM     22  C   UNL     1      69.455  85.681  70.244  1.00  0.00     0.000 A 
ENDBRANCH  16  17
ENDBRANCH   7  16
BRANCH  15  23
ATOM     23  C   UNL     1      76.618  84.629  67.500  1.00  0.00    -0.046 C 
ATOM     24  C   UNL     1      76.785  84.285  68.950  1.00  0.00     0.042 C 
ATOM     25  C   UNL     1      77.211  83.919  66.530  1.00  0.00     0.010 C 
ENDBRANCH  15  23
ENDBRANCH   3   4
BRANCH   2  26
ATOM     26  C   UNL     1      74.183  91.073  68.960  1.00  0.00     0.078 C 
BRANCH  26  27
ATOM     27  C   UNL     1      74.510  90.828  67.489  1.00  0.00     0.140 C 
ATOM     28  C   UNL     1      73.683  89.670  66.892  1.00  0.00     0.086 CG0
ATOM     29  C   UNL     1      74.120  91.995  66.606  1.00  0.00     0.190 C 
ATOM     30  C   UNL     1      73.204  90.224  65.579  1.00  0.00    -0.010 C 
ATOM     31  G   UNL     1      74.346  88.263  66.931  1.00  0.00     0.000 G0
ATOM     32  O   UNL     1      74.393  93.166  66.820  1.00  0.00    -0.291 OA
ATOM     33  C   UNL     1      73.409  91.532  65.400  1.00  0.00    -0.008 C 
ATOM     34  C   UNL     1      73.004  92.415  64.287  1.00  0.00     0.048 C 
BRANCH  27  35
ATOM     35  O   UNL     1      75.907  90.699  67.282  1.00  0.00    -0.381 OA
ATOM     36  H   UNL     1      76.055  90.031  66.591  1.00  0.00     0.212 HD
ENDBRANCH  27  35
ENDBRANCH  26  27
ENDBRANCH   2  26
ENDBRANCH   1   2
BRANCH   1  37
ATOM     37  O   UNL     1      72.135  90.775  70.990  1.00  0.00    -0.461 OA
BRANCH  37  38
ATOM     38  C   UNL     1      71.792  91.771  71.875  1.00  0.00     0.310 C 
ATOM     39  O   UNL     1      70.663  91.974  72.300  1.00  0.00    -0.252 OA
BRANCH  38  40
ATOM     40  C   UNL     1      73.021  92.569  72.237  1.00  0.00     0.158 C 
BRANCH  40  41
ATOM     41  C   UNL     1      73.378  92.468  73.698  1.00  0.00    -0.037 A 
ATOM     42  C   UNL     1      74.342  93.318  74.241  1.00  0.00     0.008 A 
ATOM     43  C   UNL     1      72.746  91.525  74.507  1.00  0.00     0.008 A 
ATOM     44  C   UNL     1      74.673  93.225  75.593  1.00  0.00     0.046 A 
ATOM     45  C   UNL     1      73.076  91.431  75.860  1.00  0.00     0.046 A 
ATOM     46  C   UNL     1      74.039  92.281  76.402  1.00  0.00     0.115 A 
BRANCH  46  47
ATOM     47  O   UNL     1      74.363  92.189  77.721  1.00  0.00    -0.508 OA
ATOM     48  H   UNL     1      74.849  92.990  77.983  1.00  0.00     0.293 HD
ENDBRANCH  46  47
ENDBRANCH  40  41
ENDBRANCH  38  40
ENDBRANCH  37  38
ENDBRANCH   1  37
TORSDOF 10
ENDMDL
MODEL 6
REMARK VINA RESULT:    -6.296      7.834     12.034
REMARK INTER + INTRA:         -11.293
REMARK INTER:                  -9.447
REMARK INTRA:                  -1.846
REMARK UNBOUND:                -0.580
REMARK SMILES C=C(C)[C@]12C[C@@H](C)[C@@]34O[C@](Cc5ccccc5)(O[C@@H]1[C@@H]3C=C(COC(=O)Cc1ccc(O)cc1)C[C@]1(O)C(=O)C(C)=C[C@@H]41)O2
REMARK SMILES IDX 23 1 22 2 21 3 20 4 9 5 8 6 10 7 6 8 18 10 44 11 19 12 5 13
REMARK SMILES IDX 7 14 4 15 11 16 12 17 13 18 17 19 14 20 16 21 15 22 2 23
REMARK SMILES IDX 3 24 1 25 35 26 36 27 43 28 38 29 42 30 39 32 40 33 41 34
REMARK SMILES IDX 37 35 24 37 25 38 26 39 27 40 28 41 29 42 34 43 30 44 33 45
REMARK SMILES IDX 31 46 32 47
REMARK H PARENT 37 36 32 48
REMARK Flexibility Score: 90.00
ROOT
ATOM      1  C   UNL     1     100.002  79.447  78.411  1.00  0.00     0.264 C 
ENDROOT
BRANCH   1   2
ATOM      2  C   UNL     1     100.972  79.558  77.257  1.00  0.00    -0.033 C 
ATOM      3  C   UNL     1     100.495  79.784  76.015  1.00  0.00    -0.015 C 
BRANCH   3   4
ATOM      4  C   UNL     1     101.243  79.860  74.693  1.00  0.00     0.078 C 
ATOM      5  O   UNL     1     101.791  82.241  74.312  1.00  0.00    -0.319 OA
ATOM      6  C   UNL     1     102.388  80.927  74.542  1.00  0.00     0.095 CG0
ATOM      7  C   UNL     1     100.683  82.260  73.391  1.00  0.00     0.289 C 
ATOM      8  C   UNL     1     103.260  80.520  73.283  1.00  0.00     0.023 C 
ATOM      9  G   UNL     1     103.175  81.087  75.875  1.00  0.00     0.000 G0
ATOM     10  O   UNL     1      99.640  81.389  73.819  1.00  0.00    -0.320 OA
ATOM     11  O   UNL     1     101.051  81.810  72.090  1.00  0.00    -0.313 OA
ATOM     12  C   UNL     1     100.244  80.116  73.538  1.00  0.00     0.170 C 
ATOM     13  C   UNL     1     102.389  79.844  72.179  1.00  0.00     0.049 C 
ATOM     14  C   UNL     1     104.087  81.655  72.656  1.00  0.00     0.011 C 
ATOM     15  C   UNL     1     100.954  80.374  72.187  1.00  0.00     0.122 C 
BRANCH   7  16
ATOM     16  C   UNL     1     100.162  83.681  73.305  1.00  0.00     0.135 C 
BRANCH  16  17
ATOM     17  C   UNL     1     101.257  84.699  73.505  1.00  0.00    -0.040 A 
ATOM     18  C   UNL     1     101.451  85.279  74.757  1.00  0.00     0.004 A 
ATOM     19  C   UNL     1     102.077  85.058  72.435  1.00  0.00     0.004 A 
ATOM     20  C   UNL     1     102.464  86.220  74.942  1.00  0.00     0.000 A 
ATOM     21  C   UNL     1     103.090  85.999  72.619  1.00  0.00     0.000 A 
ATOM     22  C   UNL     1     103.284  86.580  73.872  1.00  0.00     0.000 A 
ENDBRANCH  16  17
ENDBRANCH   7  16
BRANCH  15  23
ATOM     23  C   UNL     1     100.153  79.877  71.028  1.00  0.00    -0.046 C 
ATOM     24  C   UNL     1     100.287  80.652  69.750  1.00  0.00     0.042 C 
ATOM     25  C   UNL     1      99.359  78.800  71.123  1.00  0.00     0.010 C 
ENDBRANCH  15  23
ENDBRANCH   3   4
BRANCH   2  26
ATOM     26  C   UNL     1     102.420  79.399  77.679  1.00  0.00     0.078 C 
BRANCH  26  27
ATOM     27  C   UNL     1     103.490  79.753  76.648  1.00  0.00     0.140 C 
ATOM     28  C   UNL     1     103.167  81.062  75.897  1.00  0.00     0.086 CG0
ATOM     29  C   UNL     1     104.828  80.065  77.284  1.00  0.00     0.190 C 
ATOM     30  C   UNL     1     104.473  81.807  75.916  1.00  0.00    -0.010 C 
ATOM     31  G   UNL     1     102.395  80.910  74.554  1.00  0.00     0.000 G0
ATOM     32  O   UNL     1     105.388  79.380  78.127  1.00  0.00    -0.291 OA
ATOM     33  C   UNL     1     105.416  81.289  76.708  1.00  0.00    -0.008 C 
ATOM     34  C   UNL     1     106.768  81.790  77.031  1.00  0.00     0.048 C 
BRANCH  27  35
ATOM     35  O   UNL     1     103.769  78.657  75.793  1.00  0.00    -0.381 OA
ATOM     36  H   UNL     1     102.967  78.111  75.723  1.00  0.00     0.212 HD
ENDBRANCH  27  35
ENDBRANCH  26  27
ENDBRANCH   2  26
ENDBRANCH   1   2
BRANCH   1  37
ATOM     37  O   UNL     1     100.376  80.356  79.424  1.00  0.00    -0.461 OA
BRANCH  37  38
ATOM     38  C   UNL     1      99.493  81.380  79.678  1.00  0.00     0.310 C 
ATOM     39  O   UNL     1      99.742  82.372  80.348  1.00  0.00    -0.252 OA
BRANCH  38  40
ATOM     40  C   UNL     1      98.175  81.087  79.002  1.00  0.00     0.158 C 
BRANCH  40  41
ATOM     41  C   UNL     1      97.696  82.219  78.131  1.00  0.00    -0.037 A 
ATOM     42  C   UNL     1      98.262  82.418  76.872  1.00  0.00     0.008 A 
ATOM     43  C   UNL     1      96.688  83.070  78.584  1.00  0.00     0.008 A 
ATOM     44  C   UNL     1      97.820  83.467  76.065  1.00  0.00     0.046 A 
ATOM     45  C   UNL     1      96.245  84.119  77.778  1.00  0.00     0.046 A 
ATOM     46  C   UNL     1      96.811  84.318  76.519  1.00  0.00     0.115 A 
BRANCH  46  47
ATOM     47  O   UNL     1      96.380  85.341  75.732  1.00  0.00    -0.508 OA
ATOM     48  H   UNL     1      96.680  86.183  76.117  1.00  0.00     0.293 HD
ENDBRANCH  46  47
ENDBRANCH  40  41
ENDBRANCH  38  40
ENDBRANCH  37  38
ENDBRANCH   1  37
TORSDOF 10
ENDMDL
MODEL 7
REMARK VINA RESULT:    -6.233     27.886     33.617
REMARK INTER + INTRA:         -11.185
REMARK INTER:                  -9.585
REMARK INTRA:                  -1.600
REMARK UNBOUND:                -0.580
REMARK SMILES C=C(C)[C@]12C[C@@H](C)[C@@]34O[C@](Cc5ccccc5)(O[C@@H]1[C@@H]3C=C(COC(=O)Cc1ccc(O)cc1)C[C@]1(O)C(=O)C(C)=C[C@@H]41)O2
REMARK SMILES IDX 23 1 22 2 21 3 20 4 9 5 8 6 10 7 6 8 18 10 44 11 19 12 5 13
REMARK SMILES IDX 7 14 4 15 11 16 12 17 13 18 17 19 14 20 16 21 15 22 2 23
REMARK SMILES IDX 3 24 1 25 35 26 36 27 43 28 38 29 42 30 39 32 40 33 41 34
REMARK SMILES IDX 37 35 24 37 25 38 26 39 27 40 28 41 29 42 34 43 30 44 33 45
REMARK SMILES IDX 31 46 32 47
REMARK H PARENT 37 36 32 48
REMARK Flexibility Score: 90.00
ROOT
ATOM      1  C   UNL     1      68.725  67.163  81.544  1.00  0.00     0.264 C 
ENDROOT
BRANCH   1   2
ATOM      2  C   UNL     1      67.302  66.658  81.485  1.00  0.00    -0.033 C 
ATOM      3  C   UNL     1      66.383  67.173  82.328  1.00  0.00    -0.015 C 
BRANCH   3   4
ATOM      4  C   UNL     1      64.925  66.788  82.518  1.00  0.00     0.078 C 
ATOM      5  O   UNL     1      63.593  68.257  81.040  1.00  0.00    -0.319 OA
ATOM      6  C   UNL     1      63.963  66.862  81.276  1.00  0.00     0.095 CG0
ATOM      7  C   UNL     1      63.280  69.019  82.222  1.00  0.00     0.289 C 
ATOM      8  C   UNL     1      62.662  66.028  81.627  1.00  0.00     0.023 C 
ATOM      9  G   UNL     1      64.703  66.432  79.977  1.00  0.00     0.000 G0
ATOM     10  O   UNL     1      64.368  69.019  83.141  1.00  0.00    -0.320 OA
ATOM     11  O   UNL     1      62.170  68.479  82.937  1.00  0.00    -0.313 OA
ATOM     12  C   UNL     1      64.289  67.668  83.623  1.00  0.00     0.170 C 
ATOM     13  C   UNL     1      62.320  66.113  83.146  1.00  0.00     0.049 C 
ATOM     14  C   UNL     1      61.411  66.376  80.802  1.00  0.00     0.011 C 
ATOM     15  C   UNL     1      62.762  67.446  83.752  1.00  0.00     0.122 C 
BRANCH   7  16
ATOM     16  C   UNL     1      62.964  70.440  81.800  1.00  0.00     0.135 C 
BRANCH  16  17
ATOM     17  C   UNL     1      62.104  71.154  82.812  1.00  0.00    -0.040 A 
ATOM     18  C   UNL     1      62.687  71.734  83.939  1.00  0.00     0.004 A 
ATOM     19  C   UNL     1      60.724  71.233  82.621  1.00  0.00     0.004 A 
ATOM     20  C   UNL     1      61.890  72.394  84.875  1.00  0.00     0.000 A 
ATOM     21  C   UNL     1      59.928  71.894  83.558  1.00  0.00     0.000 A 
ATOM     22  C   UNL     1      60.511  72.474  84.684  1.00  0.00     0.000 A 
ENDBRANCH  16  17
ENDBRANCH   7  16
BRANCH  15  23
ATOM     23  C   UNL     1      62.285  67.625  85.156  1.00  0.00    -0.046 C 
ATOM     24  C   UNL     1      62.695  66.563  86.134  1.00  0.00     0.042 C 
ATOM     25  C   UNL     1      61.533  68.673  85.522  1.00  0.00     0.010 C 
ENDBRANCH  15  23
ENDBRANCH   3   4
BRANCH   2  26
ATOM     26  C   UNL     1      67.093  65.591  80.427  1.00  0.00     0.078 C 
BRANCH  26  27
ATOM     27  C   UNL     1      65.651  65.211  80.094  1.00  0.00     0.140 C 
ATOM     28  C   UNL     1      64.731  66.445  79.992  1.00  0.00     0.086 CG0
ATOM     29  C   UNL     1      65.518  64.591  78.719  1.00  0.00     0.190 C 
ATOM     30  C   UNL     1      63.950  66.195  78.732  1.00  0.00    -0.010 C 
ATOM     31  G   UNL     1      63.976  66.846  81.292  1.00  0.00     0.000 G0
ATOM     32  O   UNL     1      66.213  63.688  78.279  1.00  0.00    -0.291 OA
ATOM     33  C   UNL     1      64.384  65.179  77.981  1.00  0.00    -0.008 C 
ATOM     34  C   UNL     1      63.919  64.704  76.662  1.00  0.00     0.048 C 
BRANCH  27  35
ATOM     35  O   UNL     1      65.166  64.205  80.968  1.00  0.00    -0.381 OA
ATOM     36  H   UNL     1      64.754  64.638  81.735  1.00  0.00     0.212 HD
ENDBRANCH  27  35
ENDBRANCH  26  27
ENDBRANCH   2  26
ENDBRANCH   1   2
BRANCH   1  37
ATOM     37  O   UNL     1      69.262  66.898  82.823  1.00  0.00    -0.461 OA
BRANCH  37  38
ATOM     38  C   UNL     1      70.010  67.904  83.389  1.00  0.00     0.310 C 
ATOM     39  O   UNL     1      70.957  68.461  82.852  1.00  0.00    -0.252 OA
BRANCH  38  40
ATOM     40  C   UNL     1      69.481  68.210  84.769  1.00  0.00     0.158 C 
BRANCH  40  41
ATOM     41  C   UNL     1      68.951  69.614  84.898  1.00  0.00    -0.037 A 
ATOM     42  C   UNL     1      69.790  70.639  85.339  1.00  0.00     0.008 A 
ATOM     43  C   UNL     1      67.623  69.891  84.576  1.00  0.00     0.008 A 
ATOM     44  C   UNL     1      69.299  71.939  85.459  1.00  0.00     0.046 A 
ATOM     45  C   UNL     1      67.132  71.192  84.695  1.00  0.00     0.046 A 
ATOM     46  C   UNL     1      67.970  72.215  85.137  1.00  0.00     0.115 A 
BRANCH  46  47
ATOM     47  O   UNL     1      67.491  73.484  85.254  1.00  0.00    -0.508 OA
ATOM     48  H   UNL     1      66.549  73.445  85.496  1.00  0.00     0.293 HD
ENDBRANCH  46  47
ENDBRANCH  40  41
ENDBRANCH  38  40
ENDBRANCH  37  38
ENDBRANCH   1  37
TORSDOF 10
ENDMDL
MODEL 8
REMARK VINA RESULT:    -6.217     13.997     17.351
REMARK INTER + INTRA:         -11.157
REMARK INTER:                 -10.832
REMARK INTRA:                  -0.325
REMARK UNBOUND:                -0.580
REMARK SMILES C=C(C)[C@]12C[C@@H](C)[C@@]34O[C@](Cc5ccccc5)(O[C@@H]1[C@@H]3C=C(COC(=O)Cc1ccc(O)cc1)C[C@]1(O)C(=O)C(C)=C[C@@H]41)O2
REMARK SMILES IDX 23 1 22 2 21 3 20 4 9 5 8 6 10 7 6 8 18 10 44 11 19 12 5 13
REMARK SMILES IDX 7 14 4 15 11 16 12 17 13 18 17 19 14 20 16 21 15 22 2 23
REMARK SMILES IDX 3 24 1 25 35 26 36 27 43 28 38 29 42 30 39 32 40 33 41 34
REMARK SMILES IDX 37 35 24 37 25 38 26 39 27 40 28 41 29 42 34 43 30 44 33 45
REMARK SMILES IDX 31 46 32 47
REMARK H PARENT 37 36 32 48
REMARK Flexibility Score: 90.00
ROOT
ATOM      1  C   UNL     1      90.385  71.792  75.990  1.00  0.00     0.264 C 
ENDROOT
BRANCH   1   2
ATOM      2  C   UNL     1      89.485  70.587  75.848  1.00  0.00    -0.033 C 
ATOM      3  C   UNL     1      88.553  70.572  74.872  1.00  0.00    -0.015 C 
BRANCH   3   4
ATOM      4  C   UNL     1      87.490  69.529  74.569  1.00  0.00     0.078 C 
ATOM      5  O   UNL     1      88.459  67.972  72.910  1.00  0.00    -0.319 OA
ATOM      6  C   UNL     1      87.950  68.053  74.278  1.00  0.00     0.095 CG0
ATOM      7  C   UNL     1      87.683  68.677  71.922  1.00  0.00     0.289 C 
ATOM      8  C   UNL     1      86.680  67.117  74.420  1.00  0.00     0.023 C 
ATOM      9  G   UNL     1      89.167  67.667  75.168  1.00  0.00     0.000 G0
ATOM     10  O   UNL     1      87.562  70.058  72.248  1.00  0.00    -0.320 OA
ATOM     11  O   UNL     1      86.349  68.185  71.828  1.00  0.00    -0.313 OA
ATOM     12  C   UNL     1      86.645  69.977  73.350  1.00  0.00     0.170 C 
ATOM     13  C   UNL     1      85.377  67.850  73.974  1.00  0.00     0.049 C 
ATOM     14  C   UNL     1      86.773  65.761  73.700  1.00  0.00     0.011 C 
ATOM     15  C   UNL     1      85.654  68.884  72.882  1.00  0.00     0.122 C 
BRANCH   7  16
ATOM     16  C   UNL     1      88.373  68.525  70.580  1.00  0.00     0.135 C 
BRANCH  16  17
ATOM     17  C   UNL     1      88.790  69.855  70.004  1.00  0.00    -0.040 A 
ATOM     18  C   UNL     1      87.943  70.534  69.130  1.00  0.00     0.004 A 
ATOM     19  C   UNL     1      90.025  70.405  70.347  1.00  0.00     0.004 A 
ATOM     20  C   UNL     1      88.329  71.764  68.597  1.00  0.00     0.000 A 
ATOM     21  C   UNL     1      90.412  71.635  69.814  1.00  0.00     0.000 A 
ATOM     22  C   UNL     1      89.564  72.314  68.940  1.00  0.00     0.000 A 
ENDBRANCH  16  17
ENDBRANCH   7  16
BRANCH  15  23
ATOM     23  C   UNL     1      84.402  69.467  72.313  1.00  0.00    -0.046 C 
ATOM     24  C   UNL     1      83.159  68.641  72.463  1.00  0.00     0.042 C 
ATOM     25  C   UNL     1      84.390  70.662  71.703  1.00  0.00     0.010 C 
ENDBRANCH  15  23
ENDBRANCH   3   4
BRANCH   2  26
ATOM     26  C   UNL     1      89.774  69.503  76.869  1.00  0.00     0.078 C 
BRANCH  26  27
ATOM     27  C   UNL     1      89.090  68.152  76.666  1.00  0.00     0.140 C 
ATOM     28  C   UNL     1      89.163  67.675  75.201  1.00  0.00     0.086 CG0
ATOM     29  C   UNL     1      89.788  67.032  77.408  1.00  0.00     0.190 C 
ATOM     30  C   UNL     1      89.574  66.234  75.322  1.00  0.00    -0.010 C 
ATOM     31  G   UNL     1      87.953  68.051  74.296  1.00  0.00     0.000 G0
ATOM     32  O   UNL     1      90.127  67.063  78.581  1.00  0.00    -0.291 OA
ATOM     33  C   UNL     1      89.958  65.849  76.543  1.00  0.00    -0.008 C 
ATOM     34  C   UNL     1      90.494  64.553  77.007  1.00  0.00     0.048 C 
BRANCH  27  35
ATOM     35  O   UNL     1      87.778  68.149  77.204  1.00  0.00    -0.381 OA
ATOM     36  H   UNL     1      87.513  67.227  77.360  1.00  0.00     0.212 HD
ENDBRANCH  27  35
ENDBRANCH  26  27
ENDBRANCH   2  26
ENDBRANCH   1   2
BRANCH   1  37
ATOM     37  O   UNL     1      90.270  72.308  77.299  1.00  0.00    -0.461 OA
BRANCH  37  38
ATOM     38  C   UNL     1      91.206  73.248  77.666  1.00  0.00     0.310 C 
ATOM     39  O   UNL     1      92.412  73.055  77.717  1.00  0.00    -0.252 OA
BRANCH  38  40
ATOM     40  C   UNL     1      90.512  74.548  77.995  1.00  0.00     0.158 C 
BRANCH  40  41
ATOM     41  C   UNL     1      90.836  75.650  77.020  1.00  0.00    -0.037 A 
ATOM     42  C   UNL     1      91.330  76.869  77.485  1.00  0.00     0.008 A 
ATOM     43  C   UNL     1      90.641  75.453  75.653  1.00  0.00     0.008 A 
ATOM     44  C   UNL     1      91.630  77.890  76.582  1.00  0.00     0.046 A 
ATOM     45  C   UNL     1      90.941  76.473  74.751  1.00  0.00     0.046 A 
ATOM     46  C   UNL     1      91.435  77.692  75.215  1.00  0.00     0.115 A 
BRANCH  46  47
ATOM     47  O   UNL     1      91.727  78.688  74.335  1.00  0.00    -0.508 OA
ATOM     48  H   UNL     1      90.933  78.886  73.808  1.00  0.00     0.293 HD
ENDBRANCH  46  47
ENDBRANCH  40  41
ENDBRANCH  38  40
ENDBRANCH  37  38
ENDBRANCH   1  37
TORSDOF 10
ENDMDL
MODEL 9
REMARK VINA RESULT:    -6.152     17.763     21.353
REMARK INTER + INTRA:         -11.047
REMARK INTER:                  -9.439
REMARK INTRA:                  -1.608
REMARK UNBOUND:                -0.580
REMARK SMILES C=C(C)[C@]12C[C@@H](C)[C@@]34O[C@](Cc5ccccc5)(O[C@@H]1[C@@H]3C=C(COC(=O)Cc1ccc(O)cc1)C[C@]1(O)C(=O)C(C)=C[C@@H]41)O2
REMARK SMILES IDX 23 1 22 2 21 3 20 4 9 5 8 6 10 7 6 8 18 10 44 11 19 12 5 13
REMARK SMILES IDX 7 14 4 15 11 16 12 17 13 18 17 19 14 20 16 21 15 22 2 23
REMARK SMILES IDX 3 24 1 25 35 26 36 27 43 28 38 29 42 30 39 32 40 33 41 34
REMARK SMILES IDX 37 35 24 37 25 38 26 39 27 40 28 41 29 42 34 43 30 44 33 45
REMARK SMILES IDX 31 46 32 47
REMARK H PARENT 37 36 32 48
REMARK Flexibility Score: 90.00
ROOT
ATOM      1  C   UNL     1      86.559  66.353  68.322  1.00  0.00     0.264 C 
ENDROOT
BRANCH   1   2
ATOM      2  C   UNL     1      85.946  65.928  69.636  1.00  0.00    -0.033 C 
ATOM      3  C   UNL     1      86.607  66.183  70.784  1.00  0.00    -0.015 C 
BRANCH   3   4
ATOM      4  C   UNL     1      86.248  65.796  72.210  1.00  0.00     0.078 C 
ATOM      5  O   UNL     1      84.974  67.686  73.170  1.00  0.00    -0.319 OA
ATOM      6  C   UNL     1      84.869  66.278  72.792  1.00  0.00     0.095 CG0
ATOM      7  C   UNL     1      86.191  68.052  73.848  1.00  0.00     0.289 C 
ATOM      8  C   UNL     1      84.563  65.411  74.082  1.00  0.00     0.023 C 
ATOM      9  G   UNL     1      83.766  66.253  71.693  1.00  0.00     0.000 G0
ATOM     10  O   UNL     1      87.336  67.737  73.061  1.00  0.00    -0.320 OA
ATOM     11  O   UNL     1      86.361  67.346  75.075  1.00  0.00    -0.313 OA
ATOM     12  C   UNL     1      87.340  66.306  73.184  1.00  0.00     0.170 C 
ATOM     13  C   UNL     1      85.872  65.029  74.838  1.00  0.00     0.049 C 
ATOM     14  C   UNL     1      83.563  66.031  75.074  1.00  0.00     0.011 C 
ATOM     15  C   UNL     1      86.955  66.096  74.668  1.00  0.00     0.122 C 
BRANCH   7  16
ATOM     16  C   UNL     1      86.151  69.542  74.124  1.00  0.00     0.135 C 
BRANCH  16  17
ATOM     17  C   UNL     1      87.339  69.999  74.934  1.00  0.00    -0.040 A 
ATOM     18  C   UNL     1      88.465  70.513  74.293  1.00  0.00     0.004 A 
ATOM     19  C   UNL     1      87.309  69.908  76.325  1.00  0.00     0.004 A 
ATOM     20  C   UNL     1      89.563  70.937  75.042  1.00  0.00     0.000 A 
ATOM     21  C   UNL     1      88.407  70.332  77.075  1.00  0.00     0.000 A 
ATOM     22  C   UNL     1      89.533  70.846  76.434  1.00  0.00     0.000 A 
ENDBRANCH  16  17
ENDBRANCH   7  16
BRANCH  15  23
ATOM     23  C   UNL     1      88.151  65.842  75.528  1.00  0.00    -0.046 C 
ATOM     24  C   UNL     1      88.997  64.662  75.152  1.00  0.00     0.042 C 
ATOM     25  C   UNL     1      88.450  66.624  76.576  1.00  0.00     0.010 C 
ENDBRANCH  15  23
ENDBRANCH   3   4
BRANCH   2  26
ATOM     26  C   UNL     1      84.600  65.247  69.473  1.00  0.00     0.078 C 
BRANCH  26  27
ATOM     27  C   UNL     1      83.782  65.005  70.741  1.00  0.00     0.140 C 
ATOM     28  C   UNL     1      83.768  66.237  71.670  1.00  0.00     0.086 CG0
ATOM     29  C   UNL     1      82.310  64.801  70.451  1.00  0.00     0.190 C 
ATOM     30  C   UNL     1      82.321  66.368  72.055  1.00  0.00    -0.010 C 
ATOM     31  G   UNL     1      84.860  66.271  72.779  1.00  0.00     0.000 G0
ATOM     32  O   UNL     1      81.854  64.044  69.607  1.00  0.00    -0.291 OA
ATOM     33  C   UNL     1      81.474  65.596  71.369  1.00  0.00    -0.008 C 
ATOM     34  C   UNL     1      79.999  65.522  71.421  1.00  0.00     0.048 C 
BRANCH  27  35
ATOM     35  O   UNL     1      84.170  63.805  71.387  1.00  0.00    -0.381 OA
ATOM     36  H   UNL     1      85.008  63.503  70.996  1.00  0.00     0.212 HD
ENDBRANCH  27  35
ENDBRANCH  26  27
ENDBRANCH   2  26
ENDBRANCH   1   2
BRANCH   1  37
ATOM     37  O   UNL     1      87.862  65.820  68.221  1.00  0.00    -0.461 OA
BRANCH  37  38
ATOM     38  C   UNL     1      88.813  66.642  67.660  1.00  0.00     0.310 C 
ATOM     39  O   UNL     1      89.908  66.277  67.258  1.00  0.00    -0.252 OA
BRANCH  38  40
ATOM     40  C   UNL     1      88.293  68.059  67.620  1.00  0.00     0.158 C 
BRANCH  40  41
ATOM     41  C   UNL     1      88.895  68.937  68.686  1.00  0.00    -0.037 A 
ATOM     42  C   UNL     1      88.092  69.447  69.706  1.00  0.00     0.008 A 
ATOM     43  C   UNL     1      90.256  69.240  68.654  1.00  0.00     0.008 A 
ATOM     44  C   UNL     1      88.650  70.261  70.693  1.00  0.00     0.046 A 
ATOM     45  C   UNL     1      90.815  70.052  69.641  1.00  0.00     0.046 A 
ATOM     46  C   UNL     1      90.011  70.563  70.660  1.00  0.00     0.115 A 
BRANCH  46  47
ATOM     47  O   UNL     1      90.555  71.357  71.623  1.00  0.00    -0.508 OA
ATOM     48  H   UNL     1      91.500  71.485  71.429  1.00  0.00     0.293 HD
ENDBRANCH  46  47
ENDBRANCH  40  41
ENDBRANCH  38  40
ENDBRANCH  37  38
ENDBRANCH   1  37
TORSDOF 10
ENDMDL
MODEL 10
REMARK VINA RESULT:    -6.052     41.629     44.941
REMARK INTER + INTRA:         -10.878
REMARK INTER:                 -10.431
REMARK INTRA:                  -0.447
REMARK UNBOUND:                -0.580
REMARK SMILES C=C(C)[C@]12C[C@@H](C)[C@@]34O[C@](Cc5ccccc5)(O[C@@H]1[C@@H]3C=C(COC(=O)Cc1ccc(O)cc1)C[C@]1(O)C(=O)C(C)=C[C@@H]41)O2
REMARK SMILES IDX 23 1 22 2 21 3 20 4 9 5 8 6 10 7 6 8 18 10 44 11 19 12 5 13
REMARK SMILES IDX 7 14 4 15 11 16 12 17 13 18 17 19 14 20 16 21 15 22 2 23
REMARK SMILES IDX 3 24 1 25 35 26 36 27 43 28 38 29 42 30 39 32 40 33 41 34
REMARK SMILES IDX 37 35 24 37 25 38 26 39 27 40 28 41 29 42 34 43 30 44 33 45
REMARK SMILES IDX 31 46 32 47
REMARK H PARENT 37 36 32 48
REMARK Flexibility Score: 90.00
ROOT
ATOM      1  C   UNL     1      54.704  93.946  70.692  1.00  0.00     0.264 C 
ENDROOT
BRANCH   1   2
ATOM      2  C   UNL     1      53.802  94.239  71.868  1.00  0.00    -0.033 C 
ATOM      3  C   UNL     1      53.731  93.352  72.882  1.00  0.00    -0.015 C 
BRANCH   3   4
ATOM      4  C   UNL     1      52.856  93.375  74.125  1.00  0.00     0.078 C 
ATOM      5  O   UNL     1      54.162  94.491  75.905  1.00  0.00    -0.319 OA
ATOM      6  C   UNL     1      52.956  94.615  75.088  1.00  0.00     0.095 CG0
ATOM      7  C   UNL     1      54.420  93.172  76.424  1.00  0.00     0.289 C 
ATOM      8  C   UNL     1      51.681  94.595  76.029  1.00  0.00     0.023 C 
ATOM      9  G   UNL     1      53.169  95.928  74.279  1.00  0.00     0.000 G0
ATOM     10  O   UNL     1      54.518  92.213  75.375  1.00  0.00    -0.320 OA
ATOM     11  O   UNL     1      53.373  92.709  77.273  1.00  0.00    -0.313 OA
ATOM     12  C   UNL     1      53.137  92.121  74.989  1.00  0.00     0.170 C 
ATOM     13  C   UNL     1      51.225  93.137  76.343  1.00  0.00     0.049 C 
ATOM     14  C   UNL     1      51.818  95.380  77.345  1.00  0.00     0.011 C 
ATOM     15  C   UNL     1      52.405  92.164  76.352  1.00  0.00     0.122 C 
BRANCH   7  16
ATOM     16  C   UNL     1      55.719  93.215  77.203  1.00  0.00     0.135 C 
BRANCH  16  17
ATOM     17  C   UNL     1      55.508  92.948  78.673  1.00  0.00    -0.040 A 
ATOM     18  C   UNL     1      55.749  91.677  79.193  1.00  0.00     0.004 A 
ATOM     19  C   UNL     1      55.071  93.973  79.510  1.00  0.00     0.004 A 
ATOM     20  C   UNL     1      55.554  91.430  80.552  1.00  0.00     0.000 A 
ATOM     21  C   UNL     1      54.875  93.727  80.870  1.00  0.00     0.000 A 
ATOM     22  C   UNL     1      55.117  92.456  81.390  1.00  0.00     0.000 A 
ENDBRANCH  16  17
ENDBRANCH   7  16
BRANCH  15  23
ATOM     23  C   UNL     1      52.020  90.800  76.827  1.00  0.00    -0.046 C 
ATOM     24  C   UNL     1      51.048  90.050  75.965  1.00  0.00     0.042 C 
ATOM     25  C   UNL     1      52.515  90.277  77.958  1.00  0.00     0.010 C 
ENDBRANCH  15  23
ENDBRANCH   3   4
BRANCH   2  26
ATOM     26  C   UNL     1      53.070  95.562  71.742  1.00  0.00     0.078 C 
BRANCH  26  27
ATOM     27  C   UNL     1      52.333  96.073  72.978  1.00  0.00     0.140 C 
ATOM     28  C   UNL     1      53.170  95.914  74.264  1.00  0.00     0.086 CG0
ATOM     29  C   UNL     1      52.089  97.566  72.932  1.00  0.00     0.190 C 
ATOM     30  C   UNL     1      53.016  97.243  74.949  1.00  0.00    -0.010 C 
ATOM     31  G   UNL     1      52.940  94.605  75.075  1.00  0.00     0.000 G0
ATOM     32  O   UNL     1      51.619  98.178  71.984  1.00  0.00    -0.291 OA
ATOM     33  C   UNL     1      52.438  98.200  74.217  1.00  0.00    -0.008 C 
ATOM     34  C   UNL     1      52.200  99.624  74.531  1.00  0.00     0.048 C 
BRANCH  27  35
ATOM     35  O   UNL     1      51.030  95.520  73.071  1.00  0.00    -0.381 OA
ATOM     36  H   UNL     1      50.397  96.246  73.200  1.00  0.00     0.212 HD
ENDBRANCH  27  35
ENDBRANCH  26  27
ENDBRANCH   2  26
ENDBRANCH   1   2
BRANCH   1  37
ATOM     37  O   UNL     1      54.160  92.881  69.941  1.00  0.00    -0.461 OA
BRANCH  37  38
ATOM     38  C   UNL     1      54.546  92.808  68.622  1.00  0.00     0.310 C 
ATOM     39  O   UNL     1      55.468  93.439  68.124  1.00  0.00    -0.252 OA
BRANCH  38  40
ATOM     40  C   UNL     1      53.657  91.831  67.891  1.00  0.00     0.158 C 
BRANCH  40  41
ATOM     41  C   UNL     1      54.431  90.775  67.147  1.00  0.00    -0.037 A 
ATOM     42  C   UNL     1      55.317  89.945  67.835  1.00  0.00     0.008 A 
ATOM     43  C   UNL     1      54.263  90.625  65.771  1.00  0.00     0.008 A 
ATOM     44  C   UNL     1      56.035  88.967  67.146  1.00  0.00     0.046 A 
ATOM     45  C   UNL     1      54.980  89.647  65.081  1.00  0.00     0.046 A 
ATOM     46  C   UNL     1      55.866  88.819  65.768  1.00  0.00     0.115 A 
BRANCH  46  47
ATOM     47  O   UNL     1      56.567  87.865  65.097  1.00  0.00    -0.508 OA
ATOM     48  H   UNL     1      57.011  87.287  65.741  1.00  0.00     0.293 HD
ENDBRANCH  46  47
ENDBRANCH  40  41
ENDBRANCH  38  40
ENDBRANCH  37  38
ENDBRANCH   1  37
TORSDOF 10
ENDMDL
