MODEL 1
REMARK VINA RESULT:    -6.559      0.000      0.000
REMARK INTER + INTRA:         -12.390
REMARK INTER:                 -10.968
REMARK INTRA:                  -1.422
REMARK UNBOUND:                -1.422
REMARK SMILES COc1cc(CNC(=O)CCCCCCCC(C)C)ccc1O
REMARK SMILES IDX 11 1 10 2 8 3 9 4 7 5 6 7 5 8 4 9 20 10 3 11 21 12 22 13
REMARK SMILES IDX 2 14 1 15 23 16 12 18 13 19 14 20 15 21 16 22 17 23 18 24
REMARK SMILES IDX 19 25
REMARK H PARENT 7 6 23 17
REMARK Flexibility Score: inf
ROOT
ATOM      1  C   UNL     1      90.760  93.774  76.675  1.00  0.00     0.010 C 
ENDROOT
BRANCH   1   2
ATOM      2  C   UNL     1      92.109  93.077  76.504  1.00  0.00     0.100 C 
BRANCH   2   3
ATOM      3  C   UNL     1      93.255  94.064  76.354  1.00  0.00     0.220 C 
ATOM      4  O   UNL     1      93.181  95.083  75.673  1.00  0.00    -0.275 OA
ATOM      5  N   UNL     1      94.373  93.659  77.068  1.00  0.00    -0.352 N 
ATOM      6  H   UNL     1      94.344  92.791  77.596  1.00  0.00     0.163 HD
BRANCH   5   7
ATOM      7  C   UNL     1      95.605  94.414  77.089  1.00  0.00     0.151 C 
BRANCH   7   8
ATOM      8  C   UNL     1      95.845  95.059  78.423  1.00  0.00    -0.025 A 
ATOM      9  C   UNL     1      95.283  94.504  79.566  1.00  0.00     0.056 A 
ATOM     10  C   UNL     1      96.628  96.204  78.501  1.00  0.00     0.009 A 
ATOM     11  C   UNL     1      95.507  95.103  80.806  1.00  0.00     0.160 A 
ATOM     12  C   UNL     1      96.852  96.804  79.741  1.00  0.00     0.050 A 
ATOM     13  C   UNL     1      96.291  96.254  80.894  1.00  0.00     0.157 A 
BRANCH  11  14
ATOM     14  O   UNL     1      94.953  94.557  81.924  1.00  0.00    -0.493 OA
ATOM     15  C   UNL     1      95.550  93.361  82.425  1.00  0.00     0.278 C 
ENDBRANCH  11  14
BRANCH  13  16
ATOM     16  O   UNL     1      96.517  96.848  82.098  1.00  0.00    -0.504 OA
ATOM     17  H   UNL     1      97.275  97.453  82.015  1.00  0.00     0.293 HD
ENDBRANCH  13  16
ENDBRANCH   7   8
ENDBRANCH   5   7
ENDBRANCH   2   3
ENDBRANCH   1   2
BRANCH   1  18
ATOM     18  C   UNL     1      89.605  92.807  76.951  1.00  0.00     0.001 C 
BRANCH  18  19
ATOM     19  C   UNL     1      89.862  91.342  76.581  1.00  0.00     0.000 C 
BRANCH  19  20
ATOM     20  C   UNL     1      88.737  90.723  75.747  1.00  0.00     0.000 C 
BRANCH  20  21
ATOM     21  C   UNL     1      89.127  90.478  74.285  1.00  0.00     0.000 C 
BRANCH  21  22
ATOM     22  C   UNL     1      90.580  90.850  73.974  1.00  0.00     0.003 C 
BRANCH  22  23
ATOM     23  C   UNL     1      90.726  91.808  72.775  1.00  0.00    -0.017 C 
ATOM     24  C   UNL     1      89.991  93.118  73.069  1.00  0.00     0.007 C 
ATOM     25  C   UNL     1      90.198  91.203  71.474  1.00  0.00     0.007 C 
ENDBRANCH  22  23
ENDBRANCH  21  22
ENDBRANCH  20  21
ENDBRANCH  19  20
ENDBRANCH  18  19
ENDBRANCH   1  18
TORSDOF 12
ENDMDL
MODEL 2
REMARK VINA RESULT:    -6.464      1.231      2.249
REMARK INTER + INTRA:         -12.232
REMARK INTER:                 -10.753
REMARK INTRA:                  -1.479
REMARK UNBOUND:                -1.422
REMARK SMILES COc1cc(CNC(=O)CCCCCCCC(C)C)ccc1O
REMARK SMILES IDX 11 1 10 2 8 3 9 4 7 5 6 7 5 8 4 9 20 10 3 11 21 12 22 13
REMARK SMILES IDX 2 14 1 15 23 16 12 18 13 19 14 20 15 21 16 22 17 23 18 24
REMARK SMILES IDX 19 25
REMARK H PARENT 7 6 23 17
REMARK Flexibility Score: inf
ROOT
ATOM      1  C   UNL     1      90.857  93.790  76.716  1.00  0.00     0.010 C 
ENDROOT
BRANCH   1   2
ATOM      2  C   UNL     1      92.166  93.119  77.127  1.00  0.00     0.100 C 
BRANCH   2   3
ATOM      3  C   UNL     1      93.373  94.011  76.893  1.00  0.00     0.220 C 
ATOM      4  O   UNL     1      93.472  94.773  75.935  1.00  0.00    -0.275 OA
ATOM      5  N   UNL     1      94.331  93.844  77.882  1.00  0.00    -0.352 N 
ATOM      6  H   UNL     1      94.166  93.179  78.633  1.00  0.00     0.163 HD
BRANCH   5   7
ATOM      7  C   UNL     1      95.581  94.567  77.892  1.00  0.00     0.151 C 
BRANCH   7   8
ATOM      8  C   UNL     1      96.052  94.853  79.289  1.00  0.00    -0.025 A 
ATOM      9  C   UNL     1      97.169  95.656  79.486  1.00  0.00     0.056 A 
ATOM     10  C   UNL     1      95.367  94.311  80.369  1.00  0.00     0.009 A 
ATOM     11  C   UNL     1      97.607  95.922  80.784  1.00  0.00     0.160 A 
ATOM     12  C   UNL     1      95.806  94.576  81.667  1.00  0.00     0.050 A 
ATOM     13  C   UNL     1      96.926  95.381  81.875  1.00  0.00     0.157 A 
BRANCH  11  14
ATOM     14  O   UNL     1      98.702  96.709  80.974  1.00  0.00    -0.493 OA
ATOM     15  C   UNL     1      98.576  98.088  80.631  1.00  0.00     0.278 C 
ENDBRANCH  11  14
BRANCH  13  16
ATOM     16  O   UNL     1      97.344  95.633  83.146  1.00  0.00    -0.504 OA
ATOM     17  H   UNL     1      97.843  94.865  83.473  1.00  0.00     0.293 HD
ENDBRANCH  13  16
ENDBRANCH   7   8
ENDBRANCH   5   7
ENDBRANCH   2   3
ENDBRANCH   1   2
BRANCH   1  18
ATOM     18  C   UNL     1      89.610  93.022  77.162  1.00  0.00     0.001 C 
BRANCH  18  19
ATOM     19  C   UNL     1      89.851  91.589  77.647  1.00  0.00     0.000 C 
BRANCH  19  20
ATOM     20  C   UNL     1      89.464  90.528  76.613  1.00  0.00     0.000 C 
BRANCH  20  21
ATOM     21  C   UNL     1      90.670  89.840  75.964  1.00  0.00     0.000 C 
BRANCH  21  22
ATOM     22  C   UNL     1      91.113  90.501  74.655  1.00  0.00     0.003 C 
BRANCH  22  23
ATOM     23  C   UNL     1      89.958  91.165  73.881  1.00  0.00    -0.017 C 
ATOM     24  C   UNL     1      89.480  90.234  72.765  1.00  0.00     0.007 C 
ATOM     25  C   UNL     1      90.351  92.519  73.288  1.00  0.00     0.007 C 
ENDBRANCH  22  23
ENDBRANCH  21  22
ENDBRANCH  20  21
ENDBRANCH  19  20
ENDBRANCH  18  19
ENDBRANCH   1  18
TORSDOF 12
ENDMDL
MODEL 3
REMARK VINA RESULT:    -5.975     14.267     17.187
REMARK INTER + INTRA:         -11.414
REMARK INTER:                  -9.203
REMARK INTRA:                  -2.212
REMARK UNBOUND:                -1.422
REMARK SMILES COc1cc(CNC(=O)CCCCCCCC(C)C)ccc1O
REMARK SMILES IDX 11 1 10 2 8 3 9 4 7 5 6 7 5 8 4 9 20 10 3 11 21 12 22 13
REMARK SMILES IDX 2 14 1 15 23 16 12 18 13 19 14 20 15 21 16 22 17 23 18 24
REMARK SMILES IDX 19 25
REMARK H PARENT 7 6 23 17
REMARK Flexibility Score: inf
ROOT
ATOM      1  C   UNL     1      80.578  91.151  88.973  1.00  0.00     0.010 C 
ENDROOT
BRANCH   1   2
ATOM      2  C   UNL     1      80.682  90.463  90.332  1.00  0.00     0.100 C 
BRANCH   2   3
ATOM      3  C   UNL     1      80.432  88.966  90.244  1.00  0.00     0.220 C 
ATOM      4  O   UNL     1      80.844  88.164  91.077  1.00  0.00    -0.275 OA
ATOM      5  N   UNL     1      79.697  88.638  89.115  1.00  0.00    -0.352 N 
ATOM      6  H   UNL     1      79.408  89.371  88.473  1.00  0.00     0.163 HD
BRANCH   5   7
ATOM      7  C   UNL     1      79.328  87.280  88.787  1.00  0.00     0.151 C 
BRANCH   7   8
ATOM      8  C   UNL     1      80.288  86.656  87.816  1.00  0.00    -0.025 A 
ATOM      9  C   UNL     1      80.024  86.719  86.453  1.00  0.00     0.056 A 
ATOM     10  C   UNL     1      81.430  86.022  88.290  1.00  0.00     0.009 A 
ATOM     11  C   UNL     1      80.916  86.139  85.550  1.00  0.00     0.160 A 
ATOM     12  C   UNL     1      82.321  85.442  87.386  1.00  0.00     0.050 A 
ATOM     13  C   UNL     1      82.065  85.500  86.017  1.00  0.00     0.157 A 
BRANCH  11  14
ATOM     14  O   UNL     1      80.653  86.202  84.215  1.00  0.00    -0.493 OA
ATOM     15  C   UNL     1      80.728  87.487  83.600  1.00  0.00     0.278 C 
ENDBRANCH  11  14
BRANCH  13  16
ATOM     16  O   UNL     1      82.943  84.931  85.145  1.00  0.00    -0.504 OA
ATOM     17  H   UNL     1      82.452  84.362  84.527  1.00  0.00     0.293 HD
ENDBRANCH  13  16
ENDBRANCH   7   8
ENDBRANCH   5   7
ENDBRANCH   2   3
ENDBRANCH   1   2
BRANCH   1  18
ATOM     18  C   UNL     1      81.911  91.226  88.223  1.00  0.00     0.001 C 
BRANCH  18  19
ATOM     19  C   UNL     1      82.010  90.370  86.956  1.00  0.00     0.000 C 
BRANCH  19  20
ATOM     20  C   UNL     1      82.859  89.110  87.142  1.00  0.00     0.000 C 
BRANCH  20  21
ATOM     21  C   UNL     1      83.804  88.833  85.968  1.00  0.00     0.000 C 
BRANCH  21  22
ATOM     22  C   UNL     1      85.134  89.586  86.069  1.00  0.00     0.003 C 
BRANCH  22  23
ATOM     23  C   UNL     1      85.216  90.814  85.141  1.00  0.00    -0.017 C 
ATOM     24  C   UNL     1      85.135  92.097  85.972  1.00  0.00     0.007 C 
ATOM     25  C   UNL     1      84.117  90.820  84.078  1.00  0.00     0.007 C 
ENDBRANCH  22  23
ENDBRANCH  21  22
ENDBRANCH  20  21
ENDBRANCH  19  20
ENDBRANCH  18  19
ENDBRANCH   1  18
TORSDOF 12
ENDMDL
MODEL 4
REMARK VINA RESULT:    -5.949      1.465      2.278
REMARK INTER + INTRA:         -11.370
REMARK INTER:                  -9.978
REMARK INTRA:                  -1.392
REMARK UNBOUND:                -1.422
REMARK SMILES COc1cc(CNC(=O)CCCCCCCC(C)C)ccc1O
REMARK SMILES IDX 11 1 10 2 8 3 9 4 7 5 6 7 5 8 4 9 20 10 3 11 21 12 22 13
REMARK SMILES IDX 2 14 1 15 23 16 12 18 13 19 14 20 15 21 16 22 17 23 18 24
REMARK SMILES IDX 19 25
REMARK H PARENT 7 6 23 17
REMARK Flexibility Score: inf
ROOT
ATOM      1  C   UNL     1      93.027  94.180  76.833  1.00  0.00     0.010 C 
ENDROOT
BRANCH   1   2
ATOM      2  C   UNL     1      93.930  93.897  75.634  1.00  0.00     0.100 C 
BRANCH   2   3
ATOM      3  C   UNL     1      95.384  94.245  75.911  1.00  0.00     0.220 C 
ATOM      4  O   UNL     1      96.311  93.461  75.727  1.00  0.00    -0.275 OA
ATOM      5  N   UNL     1      95.515  95.538  76.395  1.00  0.00    -0.352 N 
ATOM      6  H   UNL     1      94.686  96.112  76.525  1.00  0.00     0.163 HD
BRANCH   5   7
ATOM      7  C   UNL     1      96.792  96.117  76.746  1.00  0.00     0.151 C 
BRANCH   7   8
ATOM      8  C   UNL     1      96.903  96.377  78.220  1.00  0.00    -0.025 A 
ATOM      9  C   UNL     1      96.933  95.308  79.107  1.00  0.00     0.056 A 
ATOM     10  C   UNL     1      96.975  97.686  78.683  1.00  0.00     0.009 A 
ATOM     11  C   UNL     1      97.037  95.551  80.477  1.00  0.00     0.160 A 
ATOM     12  C   UNL     1      97.078  97.928  80.053  1.00  0.00     0.050 A 
ATOM     13  C   UNL     1      97.109  96.861  80.951  1.00  0.00     0.157 A 
BRANCH  11  14
ATOM     14  O   UNL     1      97.065  94.500  81.344  1.00  0.00    -0.493 OA
ATOM     15  C   UNL     1      95.820  93.867  81.636  1.00  0.00     0.278 C 
ENDBRANCH  11  14
BRANCH  13  16
ATOM     16  O   UNL     1      97.211  97.111  82.285  1.00  0.00    -0.504 OA
ATOM     17  H   UNL     1      96.434  96.737  82.737  1.00  0.00     0.293 HD
ENDBRANCH  13  16
ENDBRANCH   7   8
ENDBRANCH   5   7
ENDBRANCH   2   3
ENDBRANCH   1   2
BRANCH   1  18
ATOM     18  C   UNL     1      91.679  94.797  76.449  1.00  0.00     0.001 C 
BRANCH  18  19
ATOM     19  C   UNL     1      90.483  93.839  76.462  1.00  0.00     0.000 C 
BRANCH  19  20
ATOM     20  C   UNL     1      90.574  92.770  77.554  1.00  0.00     0.000 C 
BRANCH  20  21
ATOM     21  C   UNL     1      90.596  91.339  77.007  1.00  0.00     0.000 C 
BRANCH  21  22
ATOM     22  C   UNL     1      91.154  91.243  75.583  1.00  0.00     0.003 C 
BRANCH  22  23
ATOM     23  C   UNL     1      90.118  90.760  74.549  1.00  0.00    -0.017 C 
ATOM     24  C   UNL     1      89.975  91.800  73.435  1.00  0.00     0.007 C 
ATOM     25  C   UNL     1      88.749  90.486  75.174  1.00  0.00     0.007 C 
ENDBRANCH  22  23
ENDBRANCH  21  22
ENDBRANCH  20  21
ENDBRANCH  19  20
ENDBRANCH  18  19
ENDBRANCH   1  18
TORSDOF 12
ENDMDL
MODEL 5
REMARK VINA RESULT:    -5.726      2.413      8.888
REMARK INTER + INTRA:         -10.996
REMARK INTER:                  -9.919
REMARK INTRA:                  -1.078
REMARK UNBOUND:                -1.422
REMARK SMILES COc1cc(CNC(=O)CCCCCCCC(C)C)ccc1O
REMARK SMILES IDX 11 1 10 2 8 3 9 4 7 5 6 7 5 8 4 9 20 10 3 11 21 12 22 13
REMARK SMILES IDX 2 14 1 15 23 16 12 18 13 19 14 20 15 21 16 22 17 23 18 24
REMARK SMILES IDX 19 25
REMARK H PARENT 7 6 23 17
REMARK Flexibility Score: inf
ROOT
ATOM      1  C   UNL     1      96.160  94.842  78.000  1.00  0.00     0.010 C 
ENDROOT
BRANCH   1   2
ATOM      2  C   UNL     1      95.647  93.957  76.866  1.00  0.00     0.100 C 
BRANCH   2   3
ATOM      3  C   UNL     1      94.397  94.522  76.211  1.00  0.00     0.220 C 
ATOM      4  O   UNL     1      94.407  95.101  75.128  1.00  0.00    -0.275 OA
ATOM      5  N   UNL     1      93.271  94.307  76.991  1.00  0.00    -0.352 N 
ATOM      6  H   UNL     1      93.362  93.827  77.882  1.00  0.00     0.163 HD
BRANCH   5   7
ATOM      7  C   UNL     1      91.952  94.753  76.603  1.00  0.00     0.151 C 
BRANCH   7   8
ATOM      8  C   UNL     1      91.044  93.602  76.279  1.00  0.00    -0.025 A 
ATOM      9  C   UNL     1      90.754  93.309  74.952  1.00  0.00     0.056 A 
ATOM     10  C   UNL     1      90.503  92.843  77.309  1.00  0.00     0.009 A 
ATOM     11  C   UNL     1      89.909  92.240  74.651  1.00  0.00     0.160 A 
ATOM     12  C   UNL     1      89.658  91.774  77.007  1.00  0.00     0.050 A 
ATOM     13  C   UNL     1      89.361  91.472  75.678  1.00  0.00     0.157 A 
BRANCH  11  14
ATOM     14  O   UNL     1      89.626  91.956  73.349  1.00  0.00    -0.493 OA
ATOM     15  C   UNL     1      90.680  91.400  72.563  1.00  0.00     0.278 C 
ENDBRANCH  11  14
BRANCH  13  16
ATOM     16  O   UNL     1      88.536  90.426  75.397  1.00  0.00    -0.504 OA
ATOM     17  H   UNL     1      88.950  89.604  75.711  1.00  0.00     0.293 HD
ENDBRANCH  13  16
ENDBRANCH   7   8
ENDBRANCH   5   7
ENDBRANCH   2   3
ENDBRANCH   1   2
BRANCH   1  18
ATOM     18  C   UNL     1      95.860  94.283  79.393  1.00  0.00     0.001 C 
BRANCH  18  19
ATOM     19  C   UNL     1      94.978  95.161  80.286  1.00  0.00     0.000 C 
BRANCH  19  20
ATOM     20  C   UNL     1      95.496  95.277  81.722  1.00  0.00     0.000 C 
BRANCH  20  21
ATOM     21  C   UNL     1      96.915  95.848  81.815  1.00  0.00     0.000 C 
BRANCH  21  22
ATOM     22  C   UNL     1      96.952  97.313  82.262  1.00  0.00     0.003 C 
BRANCH  22  23
ATOM     23  C   UNL     1      96.321  98.282  81.243  1.00  0.00    -0.017 C 
ATOM     24  C   UNL     1      97.159  98.304  79.962  1.00  0.00     0.007 C 
ATOM     25  C   UNL     1      96.184  99.702  81.792  1.00  0.00     0.007 C 
ENDBRANCH  22  23
ENDBRANCH  21  22
ENDBRANCH  20  21
ENDBRANCH  19  20
ENDBRANCH  18  19
ENDBRANCH   1  18
TORSDOF 12
ENDMDL
MODEL 6
REMARK VINA RESULT:    -5.561     27.610     29.857
REMARK INTER + INTRA:         -10.721
REMARK INTER:                  -8.259
REMARK INTRA:                  -2.462
REMARK UNBOUND:                -1.422
REMARK SMILES COc1cc(CNC(=O)CCCCCCCC(C)C)ccc1O
REMARK SMILES IDX 11 1 10 2 8 3 9 4 7 5 6 7 5 8 4 9 20 10 3 11 21 12 22 13
REMARK SMILES IDX 2 14 1 15 23 16 12 18 13 19 14 20 15 21 16 22 17 23 18 24
REMARK SMILES IDX 19 25
REMARK H PARENT 7 6 23 17
REMARK Flexibility Score: inf
ROOT
ATOM      1  C   UNL     1      80.339  65.280  73.441  1.00  0.00     0.010 C 
ENDROOT
BRANCH   1   2
ATOM      2  C   UNL     1      80.463  66.510  74.337  1.00  0.00     0.100 C 
BRANCH   2   3
ATOM      3  C   UNL     1      81.260  66.228  75.600  1.00  0.00     0.220 C 
ATOM      4  O   UNL     1      81.499  67.080  76.451  1.00  0.00    -0.275 OA
ATOM      5  N   UNL     1      81.679  64.907  75.653  1.00  0.00    -0.352 N 
ATOM      6  H   UNL     1      81.443  64.274  74.893  1.00  0.00     0.163 HD
BRANCH   5   7
ATOM      7  C   UNL     1      82.462  64.376  76.746  1.00  0.00     0.151 C 
BRANCH   7   8
ATOM      8  C   UNL     1      83.936  64.479  76.481  1.00  0.00    -0.025 A 
ATOM      9  C   UNL     1      84.621  65.633  76.842  1.00  0.00     0.056 A 
ATOM     10  C   UNL     1      84.601  63.419  75.877  1.00  0.00     0.009 A 
ATOM     11  C   UNL     1      85.991  65.728  76.596  1.00  0.00     0.160 A 
ATOM     12  C   UNL     1      85.971  63.515  75.630  1.00  0.00     0.050 A 
ATOM     13  C   UNL     1      86.666  64.669  75.990  1.00  0.00     0.157 A 
BRANCH  11  14
ATOM     14  O   UNL     1      86.659  66.862  76.951  1.00  0.00    -0.493 OA
ATOM     15  C   UNL     1      86.038  67.702  77.923  1.00  0.00     0.278 C 
ENDBRANCH  11  14
BRANCH  13  16
ATOM     16  O   UNL     1      88.003  64.750  75.745  1.00  0.00    -0.504 OA
ATOM     17  H   UNL     1      88.338  63.865  75.518  1.00  0.00     0.293 HD
ENDBRANCH  13  16
ENDBRANCH   7   8
ENDBRANCH   5   7
ENDBRANCH   2   3
ENDBRANCH   1   2
BRANCH   1  18
ATOM     18  C   UNL     1      80.374  65.609  71.946  1.00  0.00     0.001 C 
BRANCH  18  19
ATOM     19  C   UNL     1      80.206  67.089  71.587  1.00  0.00     0.000 C 
BRANCH  19  20
ATOM     20  C   UNL     1      81.464  67.709  70.972  1.00  0.00     0.000 C 
BRANCH  20  21
ATOM     21  C   UNL     1      82.622  66.716  70.820  1.00  0.00     0.000 C 
BRANCH  21  22
ATOM     22  C   UNL     1      83.977  67.296  71.238  1.00  0.00     0.003 C 
BRANCH  22  23
ATOM     23  C   UNL     1      84.472  66.779  72.603  1.00  0.00    -0.017 C 
ATOM     24  C   UNL     1      83.987  65.344  72.820  1.00  0.00     0.007 C 
ATOM     25  C   UNL     1      84.008  67.659  73.765  1.00  0.00     0.007 C 
ENDBRANCH  22  23
ENDBRANCH  21  22
ENDBRANCH  20  21
ENDBRANCH  19  20
ENDBRANCH  18  19
ENDBRANCH   1  18
TORSDOF 12
ENDMDL
MODEL 7
REMARK VINA RESULT:    -5.547      2.713      9.194
REMARK INTER + INTRA:         -10.698
REMARK INTER:                  -9.751
REMARK INTRA:                  -0.946
REMARK UNBOUND:                -1.422
REMARK SMILES COc1cc(CNC(=O)CCCCCCCC(C)C)ccc1O
REMARK SMILES IDX 11 1 10 2 8 3 9 4 7 5 6 7 5 8 4 9 20 10 3 11 21 12 22 13
REMARK SMILES IDX 2 14 1 15 23 16 12 18 13 19 14 20 15 21 16 22 17 23 18 24
REMARK SMILES IDX 19 25
REMARK H PARENT 7 6 23 17
REMARK Flexibility Score: inf
ROOT
ATOM      1  C   UNL     1      96.319  95.345  79.443  1.00  0.00     0.010 C 
ENDROOT
BRANCH   1   2
ATOM      2  C   UNL     1      95.670  94.070  78.909  1.00  0.00     0.100 C 
BRANCH   2   3
ATOM      3  C   UNL     1      94.787  94.333  77.699  1.00  0.00     0.220 C 
ATOM      4  O   UNL     1      95.156  94.982  76.725  1.00  0.00    -0.275 OA
ATOM      5  N   UNL     1      93.534  93.759  77.849  1.00  0.00    -0.352 N 
ATOM      6  H   UNL     1      93.314  93.247  78.699  1.00  0.00     0.163 HD
BRANCH   5   7
ATOM      7  C   UNL     1      92.499  93.866  76.846  1.00  0.00     0.151 C 
BRANCH   7   8
ATOM      8  C   UNL     1      91.711  92.595  76.715  1.00  0.00    -0.025 A 
ATOM      9  C   UNL     1      91.760  91.875  75.527  1.00  0.00     0.056 A 
ATOM     10  C   UNL     1      90.940  92.151  77.783  1.00  0.00     0.009 A 
ATOM     11  C   UNL     1      91.028  90.694  75.406  1.00  0.00     0.160 A 
ATOM     12  C   UNL     1      90.207  90.970  77.661  1.00  0.00     0.050 A 
ATOM     13  C   UNL     1      90.251  90.241  76.472  1.00  0.00     0.157 A 
BRANCH  11  14
ATOM     14  O   UNL     1      91.078  89.991  74.239  1.00  0.00    -0.493 OA
ATOM     15  C   UNL     1      90.225  90.429  73.183  1.00  0.00     0.278 C 
ENDBRANCH  11  14
BRANCH  13  16
ATOM     16  O   UNL     1      89.532  89.090  76.366  1.00  0.00    -0.504 OA
ATOM     17  H   UNL     1      90.039  88.362  76.765  1.00  0.00     0.293 HD
ENDBRANCH  13  16
ENDBRANCH   7   8
ENDBRANCH   5   7
ENDBRANCH   2   3
ENDBRANCH   1   2
BRANCH   1  18
ATOM     18  C   UNL     1      95.760  95.794  80.796  1.00  0.00     0.001 C 
BRANCH  18  19
ATOM     19  C   UNL     1      96.804  96.148  81.861  1.00  0.00     0.000 C 
BRANCH  19  20
ATOM     20  C   UNL     1      96.357  97.277  82.793  1.00  0.00     0.000 C 
BRANCH  20  21
ATOM     21  C   UNL     1      96.974  98.636  82.446  1.00  0.00     0.000 C 
BRANCH  21  22
ATOM     22  C   UNL     1      96.007  99.573  81.714  1.00  0.00     0.003 C 
BRANCH  22  23
ATOM     23  C   UNL     1      96.605 100.198  80.438  1.00  0.00    -0.017 C 
ATOM     24  C   UNL     1      95.595 101.163  79.813  1.00  0.00     0.007 C 
ATOM     25  C   UNL     1      97.017  99.146  79.407  1.00  0.00     0.007 C 
ENDBRANCH  22  23
ENDBRANCH  21  22
ENDBRANCH  20  21
ENDBRANCH  19  20
ENDBRANCH  18  19
ENDBRANCH   1  18
TORSDOF 12
ENDMDL
MODEL 8
REMARK VINA RESULT:    -5.442     20.775     24.295
REMARK INTER + INTRA:         -10.523
REMARK INTER:                  -8.969
REMARK INTRA:                  -1.554
REMARK UNBOUND:                -1.422
REMARK SMILES COc1cc(CNC(=O)CCCCCCCC(C)C)ccc1O
REMARK SMILES IDX 11 1 10 2 8 3 9 4 7 5 6 7 5 8 4 9 20 10 3 11 21 12 22 13
REMARK SMILES IDX 2 14 1 15 23 16 12 18 13 19 14 20 15 21 16 22 17 23 18 24
REMARK SMILES IDX 19 25
REMARK H PARENT 7 6 23 17
REMARK Flexibility Score: inf
ROOT
ATOM      1  C   UNL     1      77.956  87.898  65.514  1.00  0.00     0.010 C 
ENDROOT
BRANCH   1   2
ATOM      2  C   UNL     1      77.541  86.880  64.454  1.00  0.00     0.100 C 
BRANCH   2   3
ATOM      3  C   UNL     1      77.865  85.453  64.864  1.00  0.00     0.220 C 
ATOM      4  O   UNL     1      79.006  85.058  65.086  1.00  0.00    -0.275 OA
ATOM      5  N   UNL     1      76.721  84.673  64.943  1.00  0.00    -0.352 N 
ATOM      6  H   UNL     1      75.817  85.085  64.729  1.00  0.00     0.163 HD
BRANCH   5   7
ATOM      7  C   UNL     1      76.750  83.274  65.304  1.00  0.00     0.151 C 
BRANCH   7   8
ATOM      8  C   UNL     1      75.450  82.589  64.999  1.00  0.00    -0.025 A 
ATOM      9  C   UNL     1      74.319  83.349  64.726  1.00  0.00     0.056 A 
ATOM     10  C   UNL     1      75.390  81.201  64.992  1.00  0.00     0.009 A 
ATOM     11  C   UNL     1      73.111  82.712  64.442  1.00  0.00     0.160 A 
ATOM     12  C   UNL     1      74.182  80.563  64.709  1.00  0.00     0.050 A 
ATOM     13  C   UNL     1      73.042  81.318  64.434  1.00  0.00     0.157 A 
BRANCH  11  14
ATOM     14  O   UNL     1      72.004  83.461  64.176  1.00  0.00    -0.493 OA
ATOM     15  C   UNL     1      71.346  84.063  65.290  1.00  0.00     0.278 C 
ENDBRANCH  11  14
BRANCH  13  16
ATOM     16  O   UNL     1      71.868  80.685  64.158  1.00  0.00    -0.504 OA
ATOM     17  H   UNL     1      71.714  79.998  64.830  1.00  0.00     0.293 HD
ENDBRANCH  13  16
ENDBRANCH   7   8
ENDBRANCH   5   7
ENDBRANCH   2   3
ENDBRANCH   1   2
BRANCH   1  18
ATOM     18  C   UNL     1      77.145  89.196  65.464  1.00  0.00     0.001 C 
BRANCH  18  19
ATOM     19  C   UNL     1      75.784  89.157  66.168  1.00  0.00     0.000 C 
BRANCH  19  20
ATOM     20  C   UNL     1      75.892  88.960  67.682  1.00  0.00     0.000 C 
BRANCH  20  21
ATOM     21  C   UNL     1      75.005  87.829  68.215  1.00  0.00     0.000 C 
BRANCH  21  22
ATOM     22  C   UNL     1      75.406  86.446  67.690  1.00  0.00     0.003 C 
BRANCH  22  23
ATOM     23  C   UNL     1      74.364  85.350  67.990  1.00  0.00    -0.017 C 
ATOM     24  C   UNL     1      72.966  85.969  68.053  1.00  0.00     0.007 C 
ATOM     25  C   UNL     1      74.656  84.605  69.293  1.00  0.00     0.007 C 
ENDBRANCH  22  23
ENDBRANCH  21  22
ENDBRANCH  20  21
ENDBRANCH  19  20
ENDBRANCH  18  19
ENDBRANCH   1  18
TORSDOF 12
ENDMDL
MODEL 9
REMARK VINA RESULT:    -5.376     27.262     29.802
REMARK INTER + INTRA:         -10.412
REMARK INTER:                  -8.925
REMARK INTRA:                  -1.487
REMARK UNBOUND:                -1.422
REMARK SMILES COc1cc(CNC(=O)CCCCCCCC(C)C)ccc1O
REMARK SMILES IDX 11 1 10 2 8 3 9 4 7 5 6 7 5 8 4 9 20 10 3 11 21 12 22 13
REMARK SMILES IDX 2 14 1 15 23 16 12 18 13 19 14 20 15 21 16 22 17 23 18 24
REMARK SMILES IDX 19 25
REMARK H PARENT 7 6 23 17
REMARK Flexibility Score: inf
ROOT
ATOM      1  C   UNL     1      83.903  65.989  74.016  1.00  0.00     0.010 C 
ENDROOT
BRANCH   1   2
ATOM      2  C   UNL     1      83.804  66.420  75.478  1.00  0.00     0.100 C 
BRANCH   2   3
ATOM      3  C   UNL     1      83.655  65.237  76.421  1.00  0.00     0.220 C 
ATOM      4  O   UNL     1      82.574  64.719  76.687  1.00  0.00    -0.275 OA
ATOM      5  N   UNL     1      84.880  64.837  76.934  1.00  0.00    -0.352 N 
ATOM      6  H   UNL     1      85.724  65.335  76.665  1.00  0.00     0.163 HD
BRANCH   5   7
ATOM      7  C   UNL     1      85.019  63.739  77.863  1.00  0.00     0.151 C 
BRANCH   7   8
ATOM      8  C   UNL     1      85.395  64.211  79.237  1.00  0.00    -0.025 A 
ATOM      9  C   UNL     1      86.126  65.384  79.386  1.00  0.00     0.056 A 
ATOM     10  C   UNL     1      85.010  63.469  80.347  1.00  0.00     0.009 A 
ATOM     11  C   UNL     1      86.476  65.821  80.663  1.00  0.00     0.160 A 
ATOM     12  C   UNL     1      85.361  63.907  81.625  1.00  0.00     0.050 A 
ATOM     13  C   UNL     1      86.094  65.083  81.783  1.00  0.00     0.157 A 
BRANCH  11  14
ATOM     14  O   UNL     1      87.192  66.972  80.805  1.00  0.00    -0.493 OA
ATOM     15  C   UNL     1      87.189  67.877  79.702  1.00  0.00     0.278 C 
ENDBRANCH  11  14
BRANCH  13  16
ATOM     16  O   UNL     1      86.429  65.500  83.036  1.00  0.00    -0.504 OA
ATOM     17  H   UNL     1      87.104  66.197  82.967  1.00  0.00     0.293 HD
ENDBRANCH  13  16
ENDBRANCH   7   8
ENDBRANCH   5   7
ENDBRANCH   2   3
ENDBRANCH   1   2
BRANCH   1  18
ATOM     18  C   UNL     1      83.838  67.158  73.030  1.00  0.00     0.001 C 
BRANCH  18  19
ATOM     19  C   UNL     1      83.042  66.901  71.746  1.00  0.00     0.000 C 
BRANCH  19  20
ATOM     20  C   UNL     1      81.819  67.811  71.601  1.00  0.00     0.000 C 
BRANCH  20  21
ATOM     21  C   UNL     1      80.486  67.059  71.680  1.00  0.00     0.000 C 
BRANCH  21  22
ATOM     22  C   UNL     1      80.646  65.579  72.044  1.00  0.00     0.003 C 
BRANCH  22  23
ATOM     23  C   UNL     1      80.010  65.208  73.398  1.00  0.00    -0.017 C 
ATOM     24  C   UNL     1      80.245  66.335  74.406  1.00  0.00     0.007 C 
ATOM     25  C   UNL     1      80.555  63.894  73.961  1.00  0.00     0.007 C 
ENDBRANCH  22  23
ENDBRANCH  21  22
ENDBRANCH  20  21
ENDBRANCH  19  20
ENDBRANCH  18  19
ENDBRANCH   1  18
TORSDOF 12
ENDMDL
MODEL 10
REMARK VINA RESULT:    -5.265     27.339     29.736
REMARK INTER + INTRA:         -10.226
REMARK INTER:                  -7.658
REMARK INTRA:                  -2.569
REMARK UNBOUND:                -1.422
REMARK SMILES COc1cc(CNC(=O)CCCCCCCC(C)C)ccc1O
REMARK SMILES IDX 11 1 10 2 8 3 9 4 7 5 6 7 5 8 4 9 20 10 3 11 21 12 22 13
REMARK SMILES IDX 2 14 1 15 23 16 12 18 13 19 14 20 15 21 16 22 17 23 18 24
REMARK SMILES IDX 19 25
REMARK H PARENT 7 6 23 17
REMARK Flexibility Score: inf
ROOT
ATOM      1  C   UNL     1      80.496  67.314  72.078  1.00  0.00     0.010 C 
ENDROOT
BRANCH   1   2
ATOM      2  C   UNL     1      80.611  65.811  72.327  1.00  0.00     0.100 C 
BRANCH   2   3
ATOM      3  C   UNL     1      80.594  65.468  73.808  1.00  0.00     0.220 C 
ATOM      4  O   UNL     1      80.049  64.465  74.260  1.00  0.00    -0.275 OA
ATOM      5  N   UNL     1      81.256  66.426  74.561  1.00  0.00    -0.352 N 
ATOM      6  H   UNL     1      81.668  67.232  74.098  1.00  0.00     0.163 HD
BRANCH   5   7
ATOM      7  C   UNL     1      81.379  66.344  75.998  1.00  0.00     0.151 C 
BRANCH   7   8
ATOM      8  C   UNL     1      82.714  65.800  76.417  1.00  0.00    -0.025 A 
ATOM      9  C   UNL     1      83.785  66.668  76.596  1.00  0.00     0.056 A 
ATOM     10  C   UNL     1      82.865  64.434  76.622  1.00  0.00     0.009 A 
ATOM     11  C   UNL     1      85.025  66.162  76.986  1.00  0.00     0.160 A 
ATOM     12  C   UNL     1      84.106  63.928  77.010  1.00  0.00     0.050 A 
ATOM     13  C   UNL     1      85.186  64.791  77.192  1.00  0.00     0.157 A 
BRANCH  11  14
ATOM     14  O   UNL     1      86.072  67.015  77.160  1.00  0.00    -0.493 OA
ATOM     15  C   UNL     1      86.087  67.787  78.360  1.00  0.00     0.278 C 
ENDBRANCH  11  14
BRANCH  13  16
ATOM     16  O   UNL     1      86.392  64.286  77.573  1.00  0.00    -0.504 OA
ATOM     17  H   UNL     1      86.479  63.380  77.227  1.00  0.00     0.293 HD
ENDBRANCH  13  16
ENDBRANCH   7   8
ENDBRANCH   5   7
ENDBRANCH   2   3
ENDBRANCH   1   2
BRANCH   1  18
ATOM     18  C   UNL     1      81.253  67.785  70.833  1.00  0.00     0.001 C 
BRANCH  18  19
ATOM     19  C   UNL     1      82.777  67.861  70.971  1.00  0.00     0.000 C 
BRANCH  19  20
ATOM     20  C   UNL     1      83.236  68.738  72.140  1.00  0.00     0.000 C 
BRANCH  20  21
ATOM     21  C   UNL     1      84.116  67.995  73.151  1.00  0.00     0.000 C 
BRANCH  21  22
ATOM     22  C   UNL     1      84.889  66.823  72.536  1.00  0.00     0.003 C 
BRANCH  22  23
ATOM     23  C   UNL     1      84.924  65.571  73.434  1.00  0.00    -0.017 C 
ATOM     24  C   UNL     1      86.364  65.074  73.573  1.00  0.00     0.007 C 
ATOM     25  C   UNL     1      84.040  64.443  72.901  1.00  0.00     0.007 C 
ENDBRANCH  22  23
ENDBRANCH  21  22
ENDBRANCH  20  21
ENDBRANCH  19  20
ENDBRANCH  18  19
ENDBRANCH   1  18
TORSDOF 12
ENDMDL
