MODEL 1
REMARK VINA RESULT:    -6.363      0.000      0.000
REMARK INTER + INTRA:         -10.523
REMARK INTER:                  -9.897
REMARK INTRA:                  -0.626
REMARK UNBOUND:                -0.626
REMARK SMILES COc1cc(CNC(=O)CCCCCC(C)C)ccc1O
REMARK SMILES IDX 10 1 8 2 7 3 9 5 6 6 5 7 3 8 20 9 4 10 19 11 18 12 2 13 1 14
REMARK SMILES IDX 21 15 11 17 12 18 13 19 14 20 15 21 16 22 17 23
REMARK H PARENT 7 4 21 16
REMARK Flexibility Score: inf
ROOT
ATOM      1  C   UNL     1      92.565  93.304  78.362  1.00  0.00     0.100 C 
ENDROOT
BRANCH   1   2
ATOM      2  C   UNL     1      94.021  93.323  78.615  1.00  0.00     0.220 C 
ATOM      3  N   UNL     1      94.487  93.046  79.865  1.00  0.00    -0.352 N 
ATOM      4  H   UNL     1      93.775  92.975  80.578  1.00  0.00     0.163 HD
ATOM      5  O   UNL     1      94.801  93.552  77.659  1.00  0.00    -0.275 OA
BRANCH   3   6
ATOM      6  C   UNL     1      95.861  92.860  80.207  1.00  0.00     0.151 C 
BRANCH   6   7
ATOM      7  C   UNL     1      96.526  94.113  80.656  1.00  0.00    -0.025 A 
ATOM      8  C   UNL     1      98.569  95.437  81.000  1.00  0.00     0.160 A 
ATOM      9  C   UNL     1      97.788  96.523  81.447  1.00  0.00     0.157 A 
ATOM     10  C   UNL     1      97.935  94.233  80.625  1.00  0.00     0.056 A 
ATOM     11  C   UNL     1      96.387  96.406  81.506  1.00  0.00     0.050 A 
ATOM     12  C   UNL     1      95.760  95.213  81.109  1.00  0.00     0.009 A 
BRANCH   8  13
ATOM     13  O   UNL     1      99.936  95.524  80.954  1.00  0.00    -0.493 OA
ATOM     14  C   UNL     1     100.463  95.698  79.624  1.00  0.00     0.278 C 
ENDBRANCH   8  13
BRANCH   9  15
ATOM     15  O   UNL     1      98.387  97.684  81.811  1.00  0.00    -0.504 OA
ATOM     16  H   UNL     1      98.701  97.613  82.716  1.00  0.00     0.293 HD
ENDBRANCH   9  15
ENDBRANCH   6   7
ENDBRANCH   3   6
ENDBRANCH   1   2
BRANCH   1  17
ATOM     17  C   UNL     1      92.046  94.506  77.527  1.00  0.00     0.010 C 
BRANCH  17  18
ATOM     18  C   UNL     1      91.312  94.035  76.241  1.00  0.00     0.001 C 
BRANCH  18  19
ATOM     19  C   UNL     1      91.879  92.715  75.656  1.00  0.00     0.000 C 
BRANCH  19  20
ATOM     20  C   UNL     1      90.833  91.563  75.679  1.00  0.00     0.003 C 
BRANCH  20  21
ATOM     21  C   UNL     1      90.686  90.778  74.336  1.00  0.00    -0.017 C 
ATOM     22  C   UNL     1      89.309  91.069  73.670  1.00  0.00     0.007 C 
ATOM     23  C   UNL     1      90.882  89.243  74.508  1.00  0.00     0.007 C 
ENDBRANCH  20  21
ENDBRANCH  19  20
ENDBRANCH  18  19
ENDBRANCH  17  18
ENDBRANCH   1  17
TORSDOF 10
ENDMDL
MODEL 2
REMARK VINA RESULT:    -6.231      3.884      4.912
REMARK INTER + INTRA:         -10.318
REMARK INTER:                  -9.504
REMARK INTRA:                  -0.814
REMARK UNBOUND:                -0.626
REMARK SMILES COc1cc(CNC(=O)CCCCCC(C)C)ccc1O
REMARK SMILES IDX 10 1 8 2 7 3 9 5 6 6 5 7 3 8 20 9 4 10 19 11 18 12 2 13 1 14
REMARK SMILES IDX 21 15 11 17 12 18 13 19 14 20 15 21 16 22 17 23
REMARK H PARENT 7 4 21 16
REMARK Flexibility Score: inf
ROOT
ATOM      1  C   UNL     1      92.701  93.312  78.328  1.00  0.00     0.100 C 
ENDROOT
BRANCH   1   2
ATOM      2  C   UNL     1      94.038  93.825  77.964  1.00  0.00     0.220 C 
ATOM      3  N   UNL     1      94.199  95.154  77.710  1.00  0.00    -0.352 N 
ATOM      4  H   UNL     1      93.341  95.685  77.662  1.00  0.00     0.163 HD
ATOM      5  O   UNL     1      95.008  93.029  77.937  1.00  0.00    -0.275 OA
BRANCH   3   6
ATOM      6  C   UNL     1      95.454  95.808  77.519  1.00  0.00     0.151 C 
BRANCH   6   7
ATOM      7  C   UNL     1      95.713  96.172  76.099  1.00  0.00    -0.025 A 
ATOM      8  C   UNL     1      97.074  97.327  74.408  1.00  0.00     0.160 A 
ATOM      9  C   UNL     1      96.244  96.811  73.391  1.00  0.00     0.157 A 
ATOM     10  C   UNL     1      96.792  97.020  75.757  1.00  0.00     0.056 A 
ATOM     11  C   UNL     1      95.152  95.988  73.722  1.00  0.00     0.050 A 
ATOM     12  C   UNL     1      94.891  95.666  75.065  1.00  0.00     0.009 A 
BRANCH   8  13
ATOM     13  O   UNL     1      98.131  98.146  74.109  1.00  0.00    -0.493 OA
ATOM     14  C   UNL     1      99.411  97.488  74.160  1.00  0.00     0.278 C 
ENDBRANCH   8  13
BRANCH   9  15
ATOM     15  O   UNL     1      96.505  97.101  72.092  1.00  0.00    -0.504 OA
ATOM     16  H   UNL     1      96.660  98.044  71.999  1.00  0.00     0.293 HD
ENDBRANCH   9  15
ENDBRANCH   6   7
ENDBRANCH   3   6
ENDBRANCH   1   2
BRANCH   1  17
ATOM     17  C   UNL     1      91.524  94.041  77.624  1.00  0.00     0.010 C 
BRANCH  17  18
ATOM     18  C   UNL     1      91.544  93.808  76.088  1.00  0.00     0.001 C 
BRANCH  18  19
ATOM     19  C   UNL     1      91.550  92.308  75.692  1.00  0.00     0.000 C 
BRANCH  19  20
ATOM     20  C   UNL     1      90.167  91.633  75.925  1.00  0.00     0.003 C 
BRANCH  20  21
ATOM     21  C   UNL     1      89.699  90.675  74.781  1.00  0.00    -0.017 C 
ATOM     22  C   UNL     1      90.810  89.641  74.434  1.00  0.00     0.007 C 
ATOM     23  C   UNL     1      89.257  91.436  73.498  1.00  0.00     0.007 C 
ENDBRANCH  20  21
ENDBRANCH  19  20
ENDBRANCH  18  19
ENDBRANCH  17  18
ENDBRANCH   1  17
TORSDOF 10
ENDMDL
MODEL 3
REMARK VINA RESULT:    -5.828      7.926     11.479
REMARK INTER + INTRA:          -9.691
REMARK INTER:                  -9.192
REMARK INTRA:                  -0.499
REMARK UNBOUND:                -0.626
REMARK SMILES COc1cc(CNC(=O)CCCCCC(C)C)ccc1O
REMARK SMILES IDX 10 1 8 2 7 3 9 5 6 6 5 7 3 8 20 9 4 10 19 11 18 12 2 13 1 14
REMARK SMILES IDX 21 15 11 17 12 18 13 19 14 20 15 21 16 22 17 23
REMARK H PARENT 7 4 21 16
REMARK Flexibility Score: inf
ROOT
ATOM      1  C   UNL     1      93.858  98.202  74.111  1.00  0.00     0.100 C 
ENDROOT
BRANCH   1   2
ATOM      2  C   UNL     1      93.911  98.725  72.730  1.00  0.00     0.220 C 
ATOM      3  N   UNL     1      92.830  99.381  72.221  1.00  0.00    -0.352 N 
ATOM      4  H   UNL     1      92.001  99.345  72.796  1.00  0.00     0.163 HD
ATOM      5  O   UNL     1      94.969  98.592  72.068  1.00  0.00    -0.275 OA
BRANCH   3   6
ATOM      6  C   UNL     1      92.805 100.082  70.977  1.00  0.00     0.151 C 
BRANCH   6   7
ATOM      7  C   UNL     1      91.594  99.788  70.164  1.00  0.00    -0.025 A 
ATOM      8  C   UNL     1      90.238 100.160  68.147  1.00  0.00     0.160 A 
ATOM      9  C   UNL     1      89.323  99.179  68.584  1.00  0.00     0.157 A 
ATOM     10  C   UNL     1      91.357 100.472  68.948  1.00  0.00     0.056 A 
ATOM     11  C   UNL     1      89.535  98.512  69.805  1.00  0.00     0.050 A 
ATOM     12  C   UNL     1      90.664  98.810  70.586  1.00  0.00     0.009 A 
BRANCH   8  13
ATOM     13  O   UNL     1      90.040 100.835  66.971  1.00  0.00    -0.493 OA
ATOM     14  C   UNL     1      90.797 100.310  65.864  1.00  0.00     0.278 C 
ENDBRANCH   8  13
BRANCH   9  15
ATOM     15  O   UNL     1      88.243  98.874  67.822  1.00  0.00    -0.504 OA
ATOM     16  H   UNL     1      88.229  99.438  67.045  1.00  0.00     0.293 HD
ENDBRANCH   9  15
ENDBRANCH   6   7
ENDBRANCH   3   6
ENDBRANCH   1   2
BRANCH   1  17
ATOM     17  C   UNL     1      94.235  96.701  74.239  1.00  0.00     0.010 C 
BRANCH  17  18
ATOM     18  C   UNL     1      93.386  95.989  75.327  1.00  0.00     0.001 C 
BRANCH  18  19
ATOM     19  C   UNL     1      94.138  94.833  76.038  1.00  0.00     0.000 C 
BRANCH  19  20
ATOM     20  C   UNL     1      94.438  95.156  77.531  1.00  0.00     0.003 C 
BRANCH  20  21
ATOM     21  C   UNL     1      94.085  94.013  78.537  1.00  0.00    -0.017 C 
ATOM     22  C   UNL     1      95.229  92.959  78.605  1.00  0.00     0.007 C 
ATOM     23  C   UNL     1      92.734  93.314  78.208  1.00  0.00     0.007 C 
ENDBRANCH  20  21
ENDBRANCH  19  20
ENDBRANCH  18  19
ENDBRANCH  17  18
ENDBRANCH   1  17
TORSDOF 10
ENDMDL
MODEL 4
REMARK VINA RESULT:    -5.803     22.210     26.508
REMARK INTER + INTRA:          -9.652
REMARK INTER:                  -8.601
REMARK INTRA:                  -1.051
REMARK UNBOUND:                -0.626
REMARK SMILES COc1cc(CNC(=O)CCCCCC(C)C)ccc1O
REMARK SMILES IDX 10 1 8 2 7 3 9 5 6 6 5 7 3 8 20 9 4 10 19 11 18 12 2 13 1 14
REMARK SMILES IDX 21 15 11 17 12 18 13 19 14 20 15 21 16 22 17 23
REMARK H PARENT 7 4 21 16
REMARK Flexibility Score: inf
ROOT
ATOM      1  C   UNL     1      77.223  85.809  67.502  1.00  0.00     0.100 C 
ENDROOT
BRANCH   1   2
ATOM      2  C   UNL     1      77.103  84.576  66.696  1.00  0.00     0.220 C 
ATOM      3  N   UNL     1      75.919  83.902  66.675  1.00  0.00    -0.352 N 
ATOM      4  H   UNL     1      75.229  84.234  67.334  1.00  0.00     0.163 HD
ATOM      5  O   UNL     1      78.086  84.197  66.013  1.00  0.00    -0.275 OA
BRANCH   3   6
ATOM      6  C   UNL     1      75.613  82.805  65.813  1.00  0.00     0.151 C 
BRANCH   6   7
ATOM      7  C   UNL     1      74.152  82.617  65.603  1.00  0.00    -0.025 A 
ATOM      8  C   UNL     1      71.873  83.538  65.527  1.00  0.00     0.160 A 
ATOM      9  C   UNL     1      71.378  82.275  65.138  1.00  0.00     0.157 A 
ATOM     10  C   UNL     1      73.253  83.696  65.776  1.00  0.00     0.056 A 
ATOM     11  C   UNL     1      72.260  81.188  64.989  1.00  0.00     0.050 A 
ATOM     12  C   UNL     1      73.636  81.359  65.214  1.00  0.00     0.009 A 
BRANCH   8  13
ATOM     13  O   UNL     1      71.029  84.604  65.697  1.00  0.00    -0.493 OA
ATOM     14  C   UNL     1      70.729  84.895  67.075  1.00  0.00     0.278 C 
ENDBRANCH   8  13
BRANCH   9  15
ATOM     15  O   UNL     1      70.053  82.111  64.899  1.00  0.00    -0.504 OA
ATOM     16  H   UNL     1      69.897  82.106  63.952  1.00  0.00     0.293 HD
ENDBRANCH   9  15
ENDBRANCH   6   7
ENDBRANCH   3   6
ENDBRANCH   1   2
BRANCH   1  17
ATOM     17  C   UNL     1      77.054  87.121  66.690  1.00  0.00     0.010 C 
BRANCH  17  18
ATOM     18  C   UNL     1      77.534  88.359  67.496  1.00  0.00     0.001 C 
BRANCH  18  19
ATOM     19  C   UNL     1      76.417  89.407  67.740  1.00  0.00     0.000 C 
BRANCH  19  20
ATOM     20  C   UNL     1      74.994  88.806  67.548  1.00  0.00     0.003 C 
BRANCH  20  21
ATOM     21  C   UNL     1      74.324  88.266  68.853  1.00  0.00    -0.017 C 
ATOM     22  C   UNL     1      73.842  86.797  68.662  1.00  0.00     0.007 C 
ATOM     23  C   UNL     1      73.143  89.156  69.339  1.00  0.00     0.007 C 
ENDBRANCH  20  21
ENDBRANCH  19  20
ENDBRANCH  18  19
ENDBRANCH  17  18
ENDBRANCH   1  17
TORSDOF 10
ENDMDL
MODEL 5
REMARK VINA RESULT:    -5.715      5.714      7.550
REMARK INTER + INTRA:          -9.515
REMARK INTER:                  -8.951
REMARK INTRA:                  -0.564
REMARK UNBOUND:                -0.626
REMARK SMILES COc1cc(CNC(=O)CCCCCC(C)C)ccc1O
REMARK SMILES IDX 10 1 8 2 7 3 9 5 6 6 5 7 3 8 20 9 4 10 19 11 18 12 2 13 1 14
REMARK SMILES IDX 21 15 11 17 12 18 13 19 14 20 15 21 16 22 17 23
REMARK H PARENT 7 4 21 16
REMARK Flexibility Score: inf
ROOT
ATOM      1  C   UNL     1      93.412  94.159  76.107  1.00  0.00     0.100 C 
ENDROOT
BRANCH   1   2
ATOM      2  C   UNL     1      94.323  95.273  75.772  1.00  0.00     0.220 C 
ATOM      3  N   UNL     1      94.042  96.069  74.702  1.00  0.00    -0.352 N 
ATOM      4  H   UNL     1      93.279  95.750  74.123  1.00  0.00     0.163 HD
ATOM      5  O   UNL     1      95.317  95.489  76.507  1.00  0.00    -0.275 OA
BRANCH   3   6
ATOM      6  C   UNL     1      94.734  97.274  74.370  1.00  0.00     0.151 C 
BRANCH   6   7
ATOM      7  C   UNL     1      95.138  97.340  72.940  1.00  0.00    -0.025 A 
ATOM      8  C   UNL     1      95.249  98.564  70.810  1.00  0.00     0.160 A 
ATOM      9  C   UNL     1      95.967  97.494  70.235  1.00  0.00     0.157 A 
ATOM     10  C   UNL     1      94.823  98.472  72.152  1.00  0.00     0.056 A 
ATOM     11  C   UNL     1      96.263  96.351  71.001  1.00  0.00     0.050 A 
ATOM     12  C   UNL     1      95.857  96.277  72.344  1.00  0.00     0.009 A 
BRANCH   8  13
ATOM     13  O   UNL     1      94.933  99.676  70.075  1.00  0.00    -0.493 OA
ATOM     14  C   UNL     1      95.741 100.828  70.387  1.00  0.00     0.278 C 
ENDBRANCH   8  13
BRANCH   9  15
ATOM     15  O   UNL     1      96.379  97.571  68.945  1.00  0.00    -0.504 OA
ATOM     16  H   UNL     1      95.949  98.313  68.515  1.00  0.00     0.293 HD
ENDBRANCH   9  15
ENDBRANCH   6   7
ENDBRANCH   3   6
ENDBRANCH   1   2
BRANCH   1  17
ATOM     17  C   UNL     1      92.502  94.426  77.337  1.00  0.00     0.010 C 
BRANCH  17  18
ATOM     18  C   UNL     1      91.370  93.369  77.452  1.00  0.00     0.001 C 
BRANCH  18  19
ATOM     19  C   UNL     1      90.796  92.928  76.079  1.00  0.00     0.000 C 
BRANCH  19  20
ATOM     20  C   UNL     1      90.607  91.386  75.989  1.00  0.00     0.003 C 
BRANCH  20  21
ATOM     21  C   UNL     1      90.733  90.789  74.549  1.00  0.00    -0.017 C 
ATOM     22  C   UNL     1      89.510  91.190  73.673  1.00  0.00     0.007 C 
ATOM     23  C   UNL     1      90.906  89.242  74.550  1.00  0.00     0.007 C 
ENDBRANCH  20  21
ENDBRANCH  19  20
ENDBRANCH  18  19
ENDBRANCH  17  18
ENDBRANCH   1  17
TORSDOF 10
ENDMDL
MODEL 6
REMARK VINA RESULT:    -5.700     11.764     14.527
REMARK INTER + INTRA:          -9.491
REMARK INTER:                  -8.581
REMARK INTRA:                  -0.910
REMARK UNBOUND:                -0.626
REMARK SMILES COc1cc(CNC(=O)CCCCCC(C)C)ccc1O
REMARK SMILES IDX 10 1 8 2 7 3 9 5 6 6 5 7 3 8 20 9 4 10 19 11 18 12 2 13 1 14
REMARK SMILES IDX 21 15 11 17 12 18 13 19 14 20 15 21 16 22 17 23
REMARK H PARENT 7 4 21 16
REMARK Flexibility Score: inf
ROOT
ATOM      1  C   UNL     1      97.420  78.018  81.101  1.00  0.00     0.100 C 
ENDROOT
BRANCH   1   2
ATOM      2  C   UNL     1      98.248  79.060  80.460  1.00  0.00     0.220 C 
ATOM      3  N   UNL     1      97.641  80.061  79.761  1.00  0.00    -0.352 N 
ATOM      4  H   UNL     1      96.648  79.939  79.620  1.00  0.00     0.163 HD
ATOM      5  O   UNL     1      99.493  79.025  80.608  1.00  0.00    -0.275 OA
BRANCH   3   6
ATOM      6  C   UNL     1      98.299  81.217  79.242  1.00  0.00     0.151 C 
BRANCH   6   7
ATOM      7  C   UNL     1      97.568  81.847  78.110  1.00  0.00    -0.025 A 
ATOM      8  C   UNL     1      97.451  82.484  75.737  1.00  0.00     0.160 A 
ATOM      9  C   UNL     1      96.148  82.986  75.939  1.00  0.00     0.157 A 
ATOM     10  C   UNL     1      98.160  81.934  76.827  1.00  0.00     0.056 A 
ATOM     11  C   UNL     1      95.560  82.928  77.216  1.00  0.00     0.050 A 
ATOM     12  C   UNL     1      96.262  82.358  78.292  1.00  0.00     0.009 A 
BRANCH   8  13
ATOM     13  O   UNL     1      98.049  82.548  74.506  1.00  0.00    -0.493 OA
ATOM     14  C   UNL     1      98.088  81.287  73.811  1.00  0.00     0.278 C 
ENDBRANCH   8  13
BRANCH   9  15
ATOM     15  O   UNL     1      95.459  83.518  74.898  1.00  0.00    -0.504 OA
ATOM     16  H   UNL     1      94.756  82.918  74.640  1.00  0.00     0.293 HD
ENDBRANCH   9  15
ENDBRANCH   6   7
ENDBRANCH   3   6
ENDBRANCH   1   2
BRANCH   1  17
ATOM     17  C   UNL     1      96.381  78.563  82.117  1.00  0.00     0.010 C 
BRANCH  17  18
ATOM     18  C   UNL     1      97.065  79.350  83.269  1.00  0.00     0.001 C 
BRANCH  18  19
ATOM     19  C   UNL     1      96.065  80.143  84.152  1.00  0.00     0.000 C 
BRANCH  19  20
ATOM     20  C   UNL     1      96.495  81.628  84.338  1.00  0.00     0.003 C 
BRANCH  20  21
ATOM     21  C   UNL     1      95.777  82.646  83.393  1.00  0.00    -0.017 C 
ATOM     22  C   UNL     1      96.493  82.723  82.012  1.00  0.00     0.007 C 
ATOM     23  C   UNL     1      95.660  84.068  84.014  1.00  0.00     0.007 C 
ENDBRANCH  20  21
ENDBRANCH  19  20
ENDBRANCH  18  19
ENDBRANCH  17  18
ENDBRANCH   1  17
TORSDOF 10
ENDMDL
MODEL 7
REMARK VINA RESULT:    -5.655      6.049      7.432
REMARK INTER + INTRA:          -9.422
REMARK INTER:                  -8.925
REMARK INTRA:                  -0.496
REMARK UNBOUND:                -0.626
REMARK SMILES COc1cc(CNC(=O)CCCCCC(C)C)ccc1O
REMARK SMILES IDX 10 1 8 2 7 3 9 5 6 6 5 7 3 8 20 9 4 10 19 11 18 12 2 13 1 14
REMARK SMILES IDX 21 15 11 17 12 18 13 19 14 20 15 21 16 22 17 23
REMARK H PARENT 7 4 21 16
REMARK Flexibility Score: inf
ROOT
ATOM      1  C   UNL     1      95.780  96.711  73.814  1.00  0.00     0.100 C 
ENDROOT
BRANCH   1   2
ATOM      2  C   UNL     1      94.782  95.932  74.576  1.00  0.00     0.220 C 
ATOM      3  N   UNL     1      94.088  96.535  75.582  1.00  0.00    -0.352 N 
ATOM      4  H   UNL     1      94.410  97.462  75.824  1.00  0.00     0.163 HD
ATOM      5  O   UNL     1      94.564  94.739  74.252  1.00  0.00    -0.275 OA
BRANCH   3   6
ATOM      6  C   UNL     1      92.983  95.959  76.278  1.00  0.00     0.151 C 
BRANCH   6   7
ATOM      7  C   UNL     1      93.396  94.996  77.335  1.00  0.00    -0.025 A 
ATOM      8  C   UNL     1      94.964  94.313  79.102  1.00  0.00     0.160 A 
ATOM      9  C   UNL     1      94.148  93.198  79.391  1.00  0.00     0.157 A 
ATOM     10  C   UNL     1      94.593  95.194  78.064  1.00  0.00     0.056 A 
ATOM     11  C   UNL     1      92.970  92.977  78.654  1.00  0.00     0.050 A 
ATOM     12  C   UNL     1      92.594  93.872  77.638  1.00  0.00     0.009 A 
BRANCH   8  13
ATOM     13  O   UNL     1      96.125  94.535  79.794  1.00  0.00    -0.493 OA
ATOM     14  C   UNL     1      96.003  95.526  80.833  1.00  0.00     0.278 C 
ENDBRANCH   8  13
BRANCH   9  15
ATOM     15  O   UNL     1      94.497  92.344  80.386  1.00  0.00    -0.504 OA
ATOM     16  H   UNL     1      93.722  92.129  80.910  1.00  0.00     0.293 HD
ENDBRANCH   9  15
ENDBRANCH   6   7
ENDBRANCH   3   6
ENDBRANCH   1   2
BRANCH   1  17
ATOM     17  C   UNL     1      95.918  96.290  72.326  1.00  0.00     0.010 C 
BRANCH  17  18
ATOM     18  C   UNL     1      96.403  97.470  71.440  1.00  0.00     0.001 C 
BRANCH  18  19
ATOM     19  C   UNL     1      97.180  97.013  70.177  1.00  0.00     0.000 C 
BRANCH  19  20
ATOM     20  C   UNL     1      96.434  97.381  68.862  1.00  0.00     0.003 C 
BRANCH  20  21
ATOM     21  C   UNL     1      97.052  98.576  68.065  1.00  0.00    -0.017 C 
ATOM     22  C   UNL     1      98.607  98.493  68.055  1.00  0.00     0.007 C 
ATOM     23  C   UNL     1      96.594  99.963  68.604  1.00  0.00     0.007 C 
ENDBRANCH  20  21
ENDBRANCH  19  20
ENDBRANCH  18  19
ENDBRANCH  17  18
ENDBRANCH   1  17
TORSDOF 10
ENDMDL
MODEL 8
REMARK VINA RESULT:    -5.636     11.794     13.690
REMARK INTER + INTRA:          -9.392
REMARK INTER:                  -8.625
REMARK INTRA:                  -0.767
REMARK UNBOUND:                -0.626
REMARK SMILES COc1cc(CNC(=O)CCCCCC(C)C)ccc1O
REMARK SMILES IDX 10 1 8 2 7 3 9 5 6 6 5 7 3 8 20 9 4 10 19 11 18 12 2 13 1 14
REMARK SMILES IDX 21 15 11 17 12 18 13 19 14 20 15 21 16 22 17 23
REMARK H PARENT 7 4 21 16
REMARK Flexibility Score: inf
ROOT
ATOM      1  C   UNL     1      97.978  78.819  78.474  1.00  0.00     0.100 C 
ENDROOT
BRANCH   1   2
ATOM      2  C   UNL     1      97.414  78.581  79.819  1.00  0.00     0.220 C 
ATOM      3  N   UNL     1      97.297  79.622  80.690  1.00  0.00    -0.352 N 
ATOM      4  H   UNL     1      97.738  80.480  80.389  1.00  0.00     0.163 HD
ATOM      5  O   UNL     1      97.014  77.429  80.116  1.00  0.00    -0.275 OA
BRANCH   3   6
ATOM      6  C   UNL     1      96.618  79.572  81.945  1.00  0.00     0.151 C 
BRANCH   6   7
ATOM      7  C   UNL     1      96.303  80.918  82.494  1.00  0.00    -0.025 A 
ATOM      8  C   UNL     1      95.200  82.330  84.178  1.00  0.00     0.160 A 
ATOM      9  C   UNL     1      95.758  83.479  83.578  1.00  0.00     0.157 A 
ATOM     10  C   UNL     1      95.460  81.060  83.622  1.00  0.00     0.056 A 
ATOM     11  C   UNL     1      96.575  83.352  82.440  1.00  0.00     0.050 A 
ATOM     12  C   UNL     1      96.850  82.082  81.905  1.00  0.00     0.009 A 
BRANCH   8  13
ATOM     13  O   UNL     1      94.385  82.433  85.275  1.00  0.00    -0.493 OA
ATOM     14  C   UNL     1      95.030  82.079  86.514  1.00  0.00     0.278 C 
ENDBRANCH   8  13
BRANCH   9  15
ATOM     15  O   UNL     1      95.512  84.705  84.103  1.00  0.00    -0.504 OA
ATOM     16  H   UNL     1      94.827  85.141  83.591  1.00  0.00     0.293 HD
ENDBRANCH   9  15
ENDBRANCH   6   7
ENDBRANCH   3   6
ENDBRANCH   1   2
BRANCH   1  17
ATOM     17  C   UNL     1      97.352  80.025  77.724  1.00  0.00     0.010 C 
BRANCH  17  18
ATOM     18  C   UNL     1      98.412  81.118  77.412  1.00  0.00     0.001 C 
BRANCH  18  19
ATOM     19  C   UNL     1      98.603  81.376  75.894  1.00  0.00     0.000 C 
BRANCH  19  20
ATOM     20  C   UNL     1      97.252  81.367  75.121  1.00  0.00     0.003 C 
BRANCH  20  21
ATOM     21  C   UNL     1      96.907  82.700  74.380  1.00  0.00    -0.017 C 
ATOM     22  C   UNL     1      98.191  83.357  73.793  1.00  0.00     0.007 C 
ATOM     23  C   UNL     1      96.152  83.717  75.284  1.00  0.00     0.007 C 
ENDBRANCH  20  21
ENDBRANCH  19  20
ENDBRANCH  18  19
ENDBRANCH  17  18
ENDBRANCH   1  17
TORSDOF 10
ENDMDL
MODEL 9
REMARK VINA RESULT:    -5.581     21.809     23.427
REMARK INTER + INTRA:          -9.307
REMARK INTER:                  -8.023
REMARK INTRA:                  -1.284
REMARK UNBOUND:                -0.626
REMARK SMILES COc1cc(CNC(=O)CCCCCC(C)C)ccc1O
REMARK SMILES IDX 10 1 8 2 7 3 9 5 6 6 5 7 3 8 20 9 4 10 19 11 18 12 2 13 1 14
REMARK SMILES IDX 21 15 11 17 12 18 13 19 14 20 15 21 16 22 17 23
REMARK H PARENT 7 4 21 16
REMARK Flexibility Score: inf
ROOT
ATOM      1  C   UNL     1      74.674  85.095  69.494  1.00  0.00     0.100 C 
ENDROOT
BRANCH   1   2
ATOM      2  C   UNL     1      73.744  86.181  69.119  1.00  0.00     0.220 C 
ATOM      3  N   UNL     1      74.180  87.472  69.138  1.00  0.00    -0.352 N 
ATOM      4  H   UNL     1      75.095  87.605  69.544  1.00  0.00     0.163 HD
ATOM      5  O   UNL     1      72.581  85.886  68.750  1.00  0.00    -0.275 OA
BRANCH   3   6
ATOM      6  C   UNL     1      73.450  88.593  68.639  1.00  0.00     0.151 C 
BRANCH   6   7
ATOM      7  C   UNL     1      73.774  89.862  69.345  1.00  0.00    -0.025 A 
ATOM      8  C   UNL     1      73.151  91.646  70.919  1.00  0.00     0.160 A 
ATOM      9  C   UNL     1      74.417  92.243  70.739  1.00  0.00     0.157 A 
ATOM     10  C   UNL     1      72.831  90.470  70.207  1.00  0.00     0.056 A 
ATOM     11  C   UNL     1      75.353  91.661  69.864  1.00  0.00     0.050 A 
ATOM     12  C   UNL     1      75.036  90.477  69.177  1.00  0.00     0.009 A 
BRANCH   8  13
ATOM     13  O   UNL     1      72.219  92.207  71.751  1.00  0.00    -0.493 OA
ATOM     14  C   UNL     1      72.376  91.838  73.135  1.00  0.00     0.278 C 
ENDBRANCH   8  13
BRANCH   9  15
ATOM     15  O   UNL     1      74.735  93.374  71.418  1.00  0.00    -0.504 OA
ATOM     16  H   UNL     1      75.445  93.188  72.035  1.00  0.00     0.293 HD
ENDBRANCH   9  15
ENDBRANCH   6   7
ENDBRANCH   3   6
ENDBRANCH   1   2
BRANCH   1  17
ATOM     17  C   UNL     1      76.161  85.383  69.154  1.00  0.00     0.010 C 
BRANCH  17  18
ATOM     18  C   UNL     1      76.626  84.591  67.901  1.00  0.00     0.001 C 
BRANCH  18  19
ATOM     19  C   UNL     1      77.218  85.493  66.787  1.00  0.00     0.000 C 
BRANCH  19  20
ATOM     20  C   UNL     1      76.203  86.565  66.295  1.00  0.00     0.003 C 
BRANCH  20  21
ATOM     21  C   UNL     1      76.777  88.015  66.181  1.00  0.00    -0.017 C 
ATOM     22  C   UNL     1      77.416  88.467  67.527  1.00  0.00     0.007 C 
ATOM     23  C   UNL     1      75.712  89.052  65.721  1.00  0.00     0.007 C 
ENDBRANCH  20  21
ENDBRANCH  19  20
ENDBRANCH  18  19
ENDBRANCH  17  18
ENDBRANCH   1  17
TORSDOF 10
ENDMDL
MODEL 10
REMARK VINA RESULT:    -5.325     23.083     26.442
REMARK INTER + INTRA:          -8.908
REMARK INTER:                  -7.847
REMARK INTRA:                  -1.061
REMARK UNBOUND:                -0.626
REMARK SMILES COc1cc(CNC(=O)CCCCCC(C)C)ccc1O
REMARK SMILES IDX 10 1 8 2 7 3 9 5 6 6 5 7 3 8 20 9 4 10 19 11 18 12 2 13 1 14
REMARK SMILES IDX 21 15 11 17 12 18 13 19 14 20 15 21 16 22 17 23
REMARK H PARENT 7 4 21 16
REMARK Flexibility Score: inf
ROOT
ATOM      1  C   UNL     1      75.253  88.232  65.094  1.00  0.00     0.100 C 
ENDROOT
BRANCH   1   2
ATOM      2  C   UNL     1      75.575  87.017  64.317  1.00  0.00     0.220 C 
ATOM      3  N   UNL     1      75.682  85.820  64.960  1.00  0.00    -0.352 N 
ATOM      4  H   UNL     1      75.661  85.876  65.968  1.00  0.00     0.163 HD
ATOM      5  O   UNL     1      75.702  87.107  63.071  1.00  0.00    -0.275 OA
BRANCH   3   6
ATOM      6  C   UNL     1      75.816  84.552  64.318  1.00  0.00     0.151 C 
BRANCH   6   7
ATOM      7  C   UNL     1      74.713  83.610  64.648  1.00  0.00    -0.025 A 
ATOM      8  C   UNL     1      72.375  83.208  65.297  1.00  0.00     0.160 A 
ATOM      9  C   UNL     1      72.593  81.817  65.212  1.00  0.00     0.157 A 
ATOM     10  C   UNL     1      73.440  84.096  65.033  1.00  0.00     0.056 A 
ATOM     11  C   UNL     1      73.862  81.323  64.857  1.00  0.00     0.050 A 
ATOM     12  C   UNL     1      74.912  82.212  64.571  1.00  0.00     0.009 A 
BRANCH   8  13
ATOM     13  O   UNL     1      71.153  83.710  65.661  1.00  0.00    -0.493 OA
ATOM     14  C   UNL     1      71.222  84.741  66.664  1.00  0.00     0.278 C 
ENDBRANCH   8  13
BRANCH   9  15
ATOM     15  O   UNL     1      71.576  80.956  65.466  1.00  0.00    -0.504 OA
ATOM     16  H   UNL     1      71.516  80.801  66.412  1.00  0.00     0.293 HD
ENDBRANCH   9  15
ENDBRANCH   6   7
ENDBRANCH   3   6
ENDBRANCH   1   2
BRANCH   1  17
ATOM     17  C   UNL     1      76.489  88.949  65.701  1.00  0.00     0.010 C 
BRANCH  17  18
ATOM     18  C   UNL     1      76.126  89.709  67.006  1.00  0.00     0.001 C 
BRANCH  18  19
ATOM     19  C   UNL     1      75.792  88.770  68.195  1.00  0.00     0.000 C 
BRANCH  19  20
ATOM     20  C   UNL     1      76.690  87.499  68.210  1.00  0.00     0.003 C 
BRANCH  20  21
ATOM     21  C   UNL     1      75.915  86.145  68.318  1.00  0.00    -0.017 C 
ATOM     22  C   UNL     1      74.438  86.382  68.751  1.00  0.00     0.007 C 
ATOM     23  C   UNL     1      76.598  85.133  69.284  1.00  0.00     0.007 C 
ENDBRANCH  20  21
ENDBRANCH  19  20
ENDBRANCH  18  19
ENDBRANCH  17  18
ENDBRANCH   1  17
TORSDOF 10
ENDMDL
