MODEL 1
REMARK VINA RESULT:    -5.612      0.000      0.000
REMARK INTER + INTRA:         -10.090
REMARK INTER:                  -9.057
REMARK INTRA:                  -1.033
REMARK UNBOUND:                -1.033
REMARK SMILES CCCCCCCCC(=O)NCc1ccc(O)c(OC)c1
REMARK SMILES IDX 7 1 6 2 5 3 4 4 3 5 2 6 1 7 8 8 9 9 10 10 11 11 12 13 13 14
REMARK SMILES IDX 21 15 14 16 18 17 15 18 16 19 19 20 20 21 17 22
REMARK H PARENT 11 12 17 23
REMARK Flexibility Score: inf
ROOT
ATOM      1  C   UNL     1      93.047  95.366  79.067  1.00  0.00     0.010 C 
ENDROOT
BRANCH   1   2
ATOM      2  C   UNL     1      93.346  95.950  77.656  1.00  0.00     0.001 C 
BRANCH   2   3
ATOM      3  C   UNL     1      92.044  96.259  76.860  1.00  0.00     0.000 C 
BRANCH   3   4
ATOM      4  C   UNL     1      90.744  95.805  77.582  1.00  0.00    -0.000 C 
BRANCH   4   5
ATOM      5  C   UNL     1      89.889  94.830  76.723  1.00  0.00    -0.000 C 
BRANCH   5   6
ATOM      6  C   UNL     1      90.068  93.348  77.148  1.00  0.00    -0.003 C 
ATOM      7  C   UNL     1      89.972  93.145  78.676  1.00  0.00     0.004 C 
ENDBRANCH   5   6
ENDBRANCH   4   5
ENDBRANCH   3   4
ENDBRANCH   2   3
ENDBRANCH   1   2
BRANCH   1   8
ATOM      8  C   UNL     1      93.785  94.030  79.365  1.00  0.00     0.100 C 
BRANCH   8   9
ATOM      9  C   UNL     1      94.437  94.059  80.696  1.00  0.00     0.220 C 
ATOM     10  O   UNL     1      94.609  92.972  81.297  1.00  0.00    -0.275 OA
ATOM     11  N   UNL     1      94.864  95.239  81.234  1.00  0.00    -0.352 N 
ATOM     12  H   UNL     1      94.599  96.058  80.708  1.00  0.00     0.163 HD
BRANCH  11  13
ATOM     13  C   UNL     1      95.628  95.381  82.436  1.00  0.00     0.151 C 
BRANCH  13  14
ATOM     14  C   UNL     1      95.737  96.784  82.917  1.00  0.00    -0.025 A 
ATOM     15  C   UNL     1      96.562  97.096  84.023  1.00  0.00     0.056 A 
ATOM     16  C   UNL     1      95.020  97.826  82.285  1.00  0.00     0.009 A 
ATOM     17  C   UNL     1      96.689  98.428  84.481  1.00  0.00     0.160 A 
ATOM     18  C   UNL     1      95.143  99.153  82.734  1.00  0.00     0.050 A 
ATOM     19  C   UNL     1      95.968  99.457  83.834  1.00  0.00     0.157 A 
BRANCH  17  20
ATOM     20  O   UNL     1      97.457  98.722  85.579  1.00  0.00    -0.493 OA
ATOM     21  C   UNL     1      96.931  98.215  86.818  1.00  0.00     0.278 C 
ENDBRANCH  17  20
BRANCH  19  22
ATOM     22  O   UNL     1      96.059 100.737  84.277  1.00  0.00    -0.504 OA
ATOM     23  H   UNL     1      96.376 100.740  85.184  1.00  0.00     0.293 HD
ENDBRANCH  19  22
ENDBRANCH  13  14
ENDBRANCH  11  13
ENDBRANCH   8   9
ENDBRANCH   1   8
TORSDOF 11
ENDMDL
MODEL 2
REMARK VINA RESULT:    -5.429     23.111     27.294
REMARK INTER + INTRA:          -9.795
REMARK INTER:                  -9.086
REMARK INTRA:                  -0.709
REMARK UNBOUND:                -1.033
REMARK SMILES CCCCCCCCC(=O)NCc1ccc(O)c(OC)c1
REMARK SMILES IDX 7 1 6 2 5 3 4 4 3 5 2 6 1 7 8 8 9 9 10 10 11 11 12 13 13 14
REMARK SMILES IDX 21 15 14 16 18 17 15 18 16 19 19 20 20 21 17 22
REMARK H PARENT 11 12 17 23
REMARK Flexibility Score: inf
ROOT
ATOM      1  C   UNL     1      77.602  85.001  69.595  1.00  0.00     0.010 C 
ENDROOT
BRANCH   1   2
ATOM      2  C   UNL     1      76.271  85.610  70.123  1.00  0.00     0.001 C 
BRANCH   2   3
ATOM      3  C   UNL     1      75.707  86.707  69.172  1.00  0.00     0.000 C 
BRANCH   3   4
ATOM      4  C   UNL     1      75.582  88.108  69.835  1.00  0.00    -0.000 C 
BRANCH   4   5
ATOM      5  C   UNL     1      74.453  88.168  70.902  1.00  0.00    -0.000 C 
BRANCH   5   6
ATOM      6  C   UNL     1      74.230  89.602  71.454  1.00  0.00    -0.003 C 
ATOM      7  C   UNL     1      75.348  90.584  71.041  1.00  0.00     0.004 C 
ENDBRANCH   5   6
ENDBRANCH   4   5
ENDBRANCH   3   4
ENDBRANCH   2   3
ENDBRANCH   1   2
BRANCH   1   8
ATOM      8  C   UNL     1      78.108  85.646  68.274  1.00  0.00     0.100 C 
BRANCH   8   9
ATOM      9  C   UNL     1      78.194  84.645  67.183  1.00  0.00     0.220 C 
ATOM     10  O   UNL     1      78.880  83.612  67.375  1.00  0.00    -0.275 OA
ATOM     11  N   UNL     1      77.517  84.835  66.013  1.00  0.00    -0.352 N 
ATOM     12  H   UNL     1      77.069  85.736  65.931  1.00  0.00     0.163 HD
BRANCH  11  13
ATOM     13  C   UNL     1      77.406  83.885  64.948  1.00  0.00     0.151 C 
BRANCH  13  14
ATOM     14  C   UNL     1      76.216  82.999  65.055  1.00  0.00    -0.025 A 
ATOM     15  C   UNL     1      75.134  83.148  64.154  1.00  0.00     0.056 A 
ATOM     16  C   UNL     1      76.141  82.001  66.053  1.00  0.00     0.009 A 
ATOM     17  C   UNL     1      74.004  82.301  64.232  1.00  0.00     0.160 A 
ATOM     18  C   UNL     1      75.020  81.155  66.136  1.00  0.00     0.050 A 
ATOM     19  C   UNL     1      73.949  81.306  65.234  1.00  0.00     0.157 A 
BRANCH  17  20
ATOM     20  O   UNL     1      72.939  82.474  63.385  1.00  0.00    -0.493 OA
ATOM     21  C   UNL     1      72.437  83.821  63.338  1.00  0.00     0.278 C 
ENDBRANCH  17  20
BRANCH  19  22
ATOM     22  O   UNL     1      72.859  80.503  65.339  1.00  0.00    -0.504 OA
ATOM     23  H   UNL     1      72.751  80.003  64.527  1.00  0.00     0.293 HD
ENDBRANCH  19  22
ENDBRANCH  13  14
ENDBRANCH  11  13
ENDBRANCH   8   9
ENDBRANCH   1   8
TORSDOF 11
ENDMDL
MODEL 3
REMARK VINA RESULT:    -5.214      6.887     10.413
REMARK INTER + INTRA:          -9.448
REMARK INTER:                  -8.828
REMARK INTRA:                  -0.620
REMARK UNBOUND:                -1.033
REMARK SMILES CCCCCCCCC(=O)NCc1ccc(O)c(OC)c1
REMARK SMILES IDX 7 1 6 2 5 3 4 4 3 5 2 6 1 7 8 8 9 9 10 10 11 11 12 13 13 14
REMARK SMILES IDX 21 15 14 16 18 17 15 18 16 19 19 20 20 21 17 22
REMARK H PARENT 11 12 17 23
REMARK Flexibility Score: inf
ROOT
ATOM      1  C   UNL     1      94.309  96.204  76.009  1.00  0.00     0.010 C 
ENDROOT
BRANCH   1   2
ATOM      2  C   UNL     1      94.093  95.158  77.140  1.00  0.00     0.001 C 
BRANCH   2   3
ATOM      3  C   UNL     1      93.085  95.655  78.217  1.00  0.00     0.000 C 
BRANCH   3   4
ATOM      4  C   UNL     1      91.770  94.826  78.275  1.00  0.00    -0.000 C 
BRANCH   4   5
ATOM      5  C   UNL     1      90.554  95.588  77.676  1.00  0.00    -0.000 C 
BRANCH   5   6
ATOM      6  C   UNL     1      89.314  94.673  77.485  1.00  0.00    -0.003 C 
ATOM      7  C   UNL     1      89.407  93.359  78.292  1.00  0.00     0.004 C 
ENDBRANCH   5   6
ENDBRANCH   4   5
ENDBRANCH   3   4
ENDBRANCH   2   3
ENDBRANCH   1   2
BRANCH   1   8
ATOM      8  C   UNL     1      93.081  97.124  75.759  1.00  0.00     0.100 C 
BRANCH   8   9
ATOM      9  C   UNL     1      93.499  98.471  75.302  1.00  0.00     0.220 C 
ATOM     10  O   UNL     1      94.511  98.991  75.830  1.00  0.00    -0.275 OA
ATOM     11  N   UNL     1      92.814  99.110  74.309  1.00  0.00    -0.352 N 
ATOM     12  H   UNL     1      91.969  98.642  74.016  1.00  0.00     0.163 HD
BRANCH  11  13
ATOM     13  C   UNL     1      93.198 100.341  73.687  1.00  0.00     0.151 C 
BRANCH  13  14
ATOM     14  C   UNL     1      92.556 100.572  72.365  1.00  0.00    -0.025 A 
ATOM     15  C   UNL     1      91.243 100.104  72.119  1.00  0.00     0.056 A 
ATOM     16  C   UNL     1      93.241 101.255  71.334  1.00  0.00     0.009 A 
ATOM     17  C   UNL     1      90.614 100.331  70.873  1.00  0.00     0.160 A 
ATOM     18  C   UNL     1      92.621 101.486  70.094  1.00  0.00     0.050 A 
ATOM     19  C   UNL     1      91.313 101.020  69.857  1.00  0.00     0.157 A 
BRANCH  17  20
ATOM     20  O   UNL     1      89.358  99.840  70.622  1.00  0.00    -0.493 OA
ATOM     21  C   UNL     1      89.179  98.462  70.993  1.00  0.00     0.278 C 
ENDBRANCH  17  20
BRANCH  19  22
ATOM     22  O   UNL     1      90.733 101.223  68.646  1.00  0.00    -0.504 OA
ATOM     23  H   UNL     1      90.516 102.153  68.548  1.00  0.00     0.293 HD
ENDBRANCH  19  22
ENDBRANCH  13  14
ENDBRANCH  11  13
ENDBRANCH   8   9
ENDBRANCH   1   8
TORSDOF 11
ENDMDL
MODEL 4
REMARK VINA RESULT:    -4.996      9.928     12.248
REMARK INTER + INTRA:          -9.097
REMARK INTER:                  -7.996
REMARK INTRA:                  -1.101
REMARK UNBOUND:                -1.033
REMARK SMILES CCCCCCCCC(=O)NCc1ccc(O)c(OC)c1
REMARK SMILES IDX 7 1 6 2 5 3 4 4 3 5 2 6 1 7 8 8 9 9 10 10 11 11 12 13 13 14
REMARK SMILES IDX 21 15 14 16 18 17 15 18 16 19 19 20 20 21 17 22
REMARK H PARENT 11 12 17 23
REMARK Flexibility Score: inf
ROOT
ATOM      1  C   UNL     1      90.065 100.905  68.694  1.00  0.00     0.010 C 
ENDROOT
BRANCH   1   2
ATOM      2  C   UNL     1      88.648 100.861  68.053  1.00  0.00     0.001 C 
BRANCH   2   3
ATOM      3  C   UNL     1      88.075  99.414  67.990  1.00  0.00     0.000 C 
BRANCH   3   4
ATOM      4  C   UNL     1      89.161  98.317  67.805  1.00  0.00    -0.000 C 
BRANCH   4   5
ATOM      5  C   UNL     1      88.823  97.003  68.565  1.00  0.00    -0.000 C 
BRANCH   5   6
ATOM      6  C   UNL     1      89.792  96.732  69.747  1.00  0.00    -0.003 C 
ATOM      7  C   UNL     1      89.571  97.693  70.937  1.00  0.00     0.004 C 
ENDBRANCH   5   6
ENDBRANCH   4   5
ENDBRANCH   3   4
ENDBRANCH   2   3
ENDBRANCH   1   2
BRANCH   1   8
ATOM      8  C   UNL     1      90.058 101.221  70.216  1.00  0.00     0.100 C 
BRANCH   8   9
ATOM      9  C   UNL     1      91.423 101.526  70.710  1.00  0.00     0.220 C 
ATOM     10  O   UNL     1      92.034 102.498  70.205  1.00  0.00    -0.275 OA
ATOM     11  N   UNL     1      91.982 100.783  71.709  1.00  0.00    -0.352 N 
ATOM     12  H   UNL     1      91.441  99.975  71.981  1.00  0.00     0.163 HD
BRANCH  11  13
ATOM     13  C   UNL     1      93.223 101.062  72.365  1.00  0.00     0.151 C 
BRANCH  13  14
ATOM     14  C   UNL     1      94.277 100.042  72.116  1.00  0.00    -0.025 A 
ATOM     15  C   UNL     1      94.674  99.737  70.792  1.00  0.00     0.056 A 
ATOM     16  C   UNL     1      94.895  99.360  73.189  1.00  0.00     0.009 A 
ATOM     17  C   UNL     1      95.687  98.783  70.541  1.00  0.00     0.160 A 
ATOM     18  C   UNL     1      95.904  98.411  72.946  1.00  0.00     0.050 A 
ATOM     19  C   UNL     1      96.297  98.114  71.626  1.00  0.00     0.157 A 
BRANCH  17  20
ATOM     20  O   UNL     1      96.041  98.458  69.256  1.00  0.00    -0.493 OA
ATOM     21  C   UNL     1      96.301  99.594  68.412  1.00  0.00     0.278 C 
ENDBRANCH  17  20
BRANCH  19  22
ATOM     22  O   UNL     1      97.252  97.176  71.401  1.00  0.00    -0.504 OA
ATOM     23  H   UNL     1      98.035  97.598  71.039  1.00  0.00     0.293 HD
ENDBRANCH  19  22
ENDBRANCH  13  14
ENDBRANCH  11  13
ENDBRANCH   8   9
ENDBRANCH   1   8
TORSDOF 11
ENDMDL
MODEL 5
REMARK VINA RESULT:    -4.982      3.717      5.633
REMARK INTER + INTRA:          -9.074
REMARK INTER:                  -7.638
REMARK INTRA:                  -1.436
REMARK UNBOUND:                -1.033
REMARK SMILES CCCCCCCCC(=O)NCc1ccc(O)c(OC)c1
REMARK SMILES IDX 7 1 6 2 5 3 4 4 3 5 2 6 1 7 8 8 9 9 10 10 11 11 12 13 13 14
REMARK SMILES IDX 21 15 14 16 18 17 15 18 16 19 19 20 20 21 17 22
REMARK H PARENT 11 12 17 23
REMARK Flexibility Score: inf
ROOT
ATOM      1  C   UNL     1      95.187  93.582  81.223  1.00  0.00     0.010 C 
ENDROOT
BRANCH   1   2
ATOM      2  C   UNL     1      95.623  93.606  79.730  1.00  0.00     0.001 C 
BRANCH   2   3
ATOM      3  C   UNL     1      94.440  93.948  78.777  1.00  0.00     0.000 C 
BRANCH   3   4
ATOM      4  C   UNL     1      93.076  94.114  79.504  1.00  0.00    -0.000 C 
BRANCH   4   5
ATOM      5  C   UNL     1      91.877  94.207  78.518  1.00  0.00    -0.000 C 
BRANCH   5   6
ATOM      6  C   UNL     1      92.247  94.935  77.198  1.00  0.00    -0.003 C 
ATOM      7  C   UNL     1      91.657  96.360  77.113  1.00  0.00     0.004 C 
ENDBRANCH   5   6
ENDBRANCH   4   5
ENDBRANCH   3   4
ENDBRANCH   2   3
ENDBRANCH   1   2
BRANCH   1   8
ATOM      8  C   UNL     1      95.879  94.664  82.098  1.00  0.00     0.100 C 
BRANCH   8   9
ATOM      9  C   UNL     1      95.585  96.030  81.602  1.00  0.00     0.220 C 
ATOM     10  O   UNL     1      94.488  96.553  81.912  1.00  0.00    -0.275 OA
ATOM     11  N   UNL     1      96.502  96.707  80.850  1.00  0.00    -0.352 N 
ATOM     12  H   UNL     1      97.310  96.163  80.587  1.00  0.00     0.163 HD
BRANCH  11  13
ATOM     13  C   UNL     1      96.396  98.072  80.433  1.00  0.00     0.151 C 
BRANCH  13  14
ATOM     14  C   UNL     1      95.999  98.237  79.009  1.00  0.00    -0.025 A 
ATOM     15  C   UNL     1      95.999  99.521  78.413  1.00  0.00     0.056 A 
ATOM     16  C   UNL     1      95.613  97.123  78.228  1.00  0.00     0.009 A 
ATOM     17  C   UNL     1      95.641  99.691  77.056  1.00  0.00     0.160 A 
ATOM     18  C   UNL     1      95.257  97.285  76.878  1.00  0.00     0.050 A 
ATOM     19  C   UNL     1      95.262  98.565  76.291  1.00  0.00     0.157 A 
BRANCH  17  20
ATOM     20  O   UNL     1      95.601 100.941  76.492  1.00  0.00    -0.493 OA
ATOM     21  C   UNL     1      96.892 101.474  76.149  1.00  0.00     0.278 C 
ENDBRANCH  17  20
BRANCH  19  22
ATOM     22  O   UNL     1      94.890  98.714  74.994  1.00  0.00    -0.504 OA
ATOM     23  H   UNL     1      93.962  98.957  74.953  1.00  0.00     0.293 HD
ENDBRANCH  19  22
ENDBRANCH  13  14
ENDBRANCH  11  13
ENDBRANCH   8   9
ENDBRANCH   1   8
TORSDOF 11
ENDMDL
MODEL 6
REMARK VINA RESULT:    -4.944     24.425     27.988
REMARK INTER + INTRA:          -9.012
REMARK INTER:                  -8.186
REMARK INTRA:                  -0.826
REMARK UNBOUND:                -1.033
REMARK SMILES CCCCCCCCC(=O)NCc1ccc(O)c(OC)c1
REMARK SMILES IDX 7 1 6 2 5 3 4 4 3 5 2 6 1 7 8 8 9 9 10 10 11 11 12 13 13 14
REMARK SMILES IDX 21 15 14 16 18 17 15 18 16 19 19 20 20 21 17 22
REMARK H PARENT 11 12 17 23
REMARK Flexibility Score: inf
ROOT
ATOM      1  C   UNL     1      71.426  83.126  66.854  1.00  0.00     0.010 C 
ENDROOT
BRANCH   1   2
ATOM      2  C   UNL     1      69.998  83.362  67.425  1.00  0.00     0.001 C 
BRANCH   2   3
ATOM      3  C   UNL     1      69.728  82.513  68.703  1.00  0.00     0.000 C 
BRANCH   3   4
ATOM      4  C   UNL     1      69.084  83.320  69.866  1.00  0.00    -0.000 C 
BRANCH   4   5
ATOM      5  C   UNL     1      70.138  83.877  70.865  1.00  0.00    -0.000 C 
BRANCH   5   6
ATOM      6  C   UNL     1      69.911  85.377  71.194  1.00  0.00    -0.003 C 
ATOM      7  C   UNL     1      68.832  86.031  70.303  1.00  0.00     0.004 C 
ENDBRANCH   5   6
ENDBRANCH   4   5
ENDBRANCH   3   4
ENDBRANCH   2   3
ENDBRANCH   1   2
BRANCH   1   8
ATOM      8  C   UNL     1      71.492  82.027  65.757  1.00  0.00     0.100 C 
BRANCH   8   9
ATOM      9  C   UNL     1      72.880  81.546  65.557  1.00  0.00     0.220 C 
ATOM     10  O   UNL     1      73.093  80.701  64.655  1.00  0.00    -0.275 OA
ATOM     11  N   UNL     1      73.901  82.037  66.319  1.00  0.00    -0.352 N 
ATOM     12  H   UNL     1      73.607  82.644  67.070  1.00  0.00     0.163 HD
BRANCH  11  13
ATOM     13  C   UNL     1      75.292  81.761  66.130  1.00  0.00     0.151 C 
BRANCH  13  14
ATOM     14  C   UNL     1      76.195  82.723  66.817  1.00  0.00    -0.025 A 
ATOM     15  C   UNL     1      75.672  83.647  67.753  1.00  0.00     0.056 A 
ATOM     16  C   UNL     1      77.583  82.738  66.546  1.00  0.00     0.009 A 
ATOM     17  C   UNL     1      76.520  84.556  68.426  1.00  0.00     0.160 A 
ATOM     18  C   UNL     1      78.432  83.639  67.213  1.00  0.00     0.050 A 
ATOM     19  C   UNL     1      77.905  84.553  68.145  1.00  0.00     0.157 A 
BRANCH  17  20
ATOM     20  O   UNL     1      76.005  85.479  69.302  1.00  0.00    -0.493 OA
ATOM     21  C   UNL     1      74.590  85.352  69.526  1.00  0.00     0.278 C 
ENDBRANCH  17  20
BRANCH  19  22
ATOM     22  O   UNL     1      78.729  85.438  68.763  1.00  0.00    -0.504 OA
ATOM     23  H   UNL     1      78.993  85.087  69.617  1.00  0.00     0.293 HD
ENDBRANCH  19  22
ENDBRANCH  13  14
ENDBRANCH  11  13
ENDBRANCH   8   9
ENDBRANCH   1   8
TORSDOF 11
ENDMDL
MODEL 7
REMARK VINA RESULT:    -4.919     12.573     14.140
REMARK INTER + INTRA:          -8.972
REMARK INTER:                  -8.286
REMARK INTRA:                  -0.686
REMARK UNBOUND:                -1.033
REMARK SMILES CCCCCCCCC(=O)NCc1ccc(O)c(OC)c1
REMARK SMILES IDX 7 1 6 2 5 3 4 4 3 5 2 6 1 7 8 8 9 9 10 10 11 11 12 13 13 14
REMARK SMILES IDX 21 15 14 16 18 17 15 18 16 19 19 20 20 21 17 22
REMARK H PARENT 11 12 17 23
REMARK Flexibility Score: inf
ROOT
ATOM      1  C   UNL     1     100.498  81.501  79.389  1.00  0.00     0.010 C 
ENDROOT
BRANCH   1   2
ATOM      2  C   UNL     1     101.037  82.401  78.241  1.00  0.00     0.001 C 
BRANCH   2   3
ATOM      3  C   UNL     1     100.880  81.732  76.844  1.00  0.00     0.000 C 
BRANCH   3   4
ATOM      4  C   UNL     1     100.102  82.601  75.816  1.00  0.00    -0.000 C 
BRANCH   4   5
ATOM      5  C   UNL     1      98.576  82.658  76.112  1.00  0.00    -0.000 C 
BRANCH   5   6
ATOM      6  C   UNL     1      98.073  84.103  76.375  1.00  0.00    -0.003 C 
ATOM      7  C   UNL     1      97.529  84.297  77.807  1.00  0.00     0.004 C 
ENDBRANCH   5   6
ENDBRANCH   4   5
ENDBRANCH   3   4
ENDBRANCH   2   3
ENDBRANCH   1   2
BRANCH   1   8
ATOM      8  C   UNL     1     100.501  82.188  80.783  1.00  0.00     0.100 C 
BRANCH   8   9
ATOM      9  C   UNL     1      99.133  82.584  81.194  1.00  0.00     0.220 C 
ATOM     10  O   UNL     1      98.190  82.388  80.390  1.00  0.00    -0.275 OA
ATOM     11  N   UNL     1      98.907  83.121  82.429  1.00  0.00    -0.352 N 
ATOM     12  H   UNL     1      99.743  83.315  82.959  1.00  0.00     0.163 HD
BRANCH  11  13
ATOM     13  C   UNL     1      97.624  83.410  82.992  1.00  0.00     0.151 C 
BRANCH  13  14
ATOM     14  C   UNL     1      97.669  83.784  84.431  1.00  0.00    -0.025 A 
ATOM     15  C   UNL     1      96.734  84.707  84.957  1.00  0.00     0.056 A 
ATOM     16  C   UNL     1      98.643  83.232  85.295  1.00  0.00     0.009 A 
ATOM     17  C   UNL     1      96.754  85.058  86.327  1.00  0.00     0.160 A 
ATOM     18  C   UNL     1      98.668  83.577  86.658  1.00  0.00     0.050 A 
ATOM     19  C   UNL     1      97.732  84.493  87.176  1.00  0.00     0.157 A 
BRANCH  17  20
ATOM     20  O   UNL     1      95.873  85.985  86.826  1.00  0.00    -0.493 OA
ATOM     21  C   UNL     1      94.607  85.435  87.230  1.00  0.00     0.278 C 
ENDBRANCH  17  20
BRANCH  19  22
ATOM     22  O   UNL     1      97.781  84.841  88.487  1.00  0.00    -0.504 OA
ATOM     23  H   UNL     1      98.195  84.135  88.990  1.00  0.00     0.293 HD
ENDBRANCH  19  22
ENDBRANCH  13  14
ENDBRANCH  11  13
ENDBRANCH   8   9
ENDBRANCH   1   8
TORSDOF 11
ENDMDL
MODEL 8
REMARK VINA RESULT:    -4.905     20.138     25.148
REMARK INTER + INTRA:          -8.950
REMARK INTER:                  -8.383
REMARK INTRA:                  -0.566
REMARK UNBOUND:                -1.033
REMARK SMILES CCCCCCCCC(=O)NCc1ccc(O)c(OC)c1
REMARK SMILES IDX 7 1 6 2 5 3 4 4 3 5 2 6 1 7 8 8 9 9 10 10 11 11 12 13 13 14
REMARK SMILES IDX 21 15 14 16 18 17 15 18 16 19 19 20 20 21 17 22
REMARK H PARENT 11 12 17 23
REMARK Flexibility Score: inf
ROOT
ATOM      1  C   UNL     1      75.462  88.611  69.770  1.00  0.00     0.010 C 
ENDROOT
BRANCH   1   2
ATOM      2  C   UNL     1      75.574  89.763  70.810  1.00  0.00     0.001 C 
BRANCH   2   3
ATOM      3  C   UNL     1      75.333  91.161  70.167  1.00  0.00     0.000 C 
BRANCH   3   4
ATOM      4  C   UNL     1      75.210  92.314  71.203  1.00  0.00    -0.000 C 
BRANCH   4   5
ATOM      5  C   UNL     1      76.522  92.540  72.008  1.00  0.00    -0.000 C 
BRANCH   5   6
ATOM      6  C   UNL     1      76.254  92.914  73.491  1.00  0.00    -0.003 C 
ATOM      7  C   UNL     1      77.547  93.236  74.272  1.00  0.00     0.004 C 
ENDBRANCH   5   6
ENDBRANCH   4   5
ENDBRANCH   3   4
ENDBRANCH   2   3
ENDBRANCH   1   2
BRANCH   1   8
ATOM      8  C   UNL     1      74.755  87.338  70.315  1.00  0.00     0.100 C 
BRANCH   8   9
ATOM      9  C   UNL     1      75.657  86.162  70.277  1.00  0.00     0.220 C 
ATOM     10  O   UNL     1      75.334  85.143  70.933  1.00  0.00    -0.275 OA
ATOM     11  N   UNL     1      76.795  86.184  69.522  1.00  0.00    -0.352 N 
ATOM     12  H   UNL     1      77.003  87.080  69.106  1.00  0.00     0.163 HD
BRANCH  11  13
ATOM     13  C   UNL     1      77.667  85.072  69.292  1.00  0.00     0.151 C 
BRANCH  13  14
ATOM     14  C   UNL     1      77.392  84.345  68.025  1.00  0.00    -0.025 A 
ATOM     15  C   UNL     1      76.217  83.567  67.890  1.00  0.00     0.056 A 
ATOM     16  C   UNL     1      78.294  84.411  66.938  1.00  0.00     0.009 A 
ATOM     17  C   UNL     1      75.933  82.883  66.686  1.00  0.00     0.160 A 
ATOM     18  C   UNL     1      78.017  83.735  65.737  1.00  0.00     0.050 A 
ATOM     19  C   UNL     1      76.845  82.965  65.609  1.00  0.00     0.157 A 
BRANCH  17  20
ATOM     20  O   UNL     1      74.815  82.096  66.572  1.00  0.00    -0.493 OA
ATOM     21  C   UNL     1      73.617  82.820  66.242  1.00  0.00     0.278 C 
ENDBRANCH  17  20
BRANCH  19  22
ATOM     22  O   UNL     1      76.601  82.293  64.455  1.00  0.00    -0.504 OA
ATOM     23  H   UNL     1      76.223  81.434  64.658  1.00  0.00     0.293 HD
ENDBRANCH  19  22
ENDBRANCH  13  14
ENDBRANCH  11  13
ENDBRANCH   8   9
ENDBRANCH   1   8
TORSDOF 11
ENDMDL
MODEL 9
REMARK VINA RESULT:    -4.901     32.843     35.782
REMARK INTER + INTRA:          -8.943
REMARK INTER:                  -7.395
REMARK INTRA:                  -1.548
REMARK UNBOUND:                -1.033
REMARK SMILES CCCCCCCCC(=O)NCc1ccc(O)c(OC)c1
REMARK SMILES IDX 7 1 6 2 5 3 4 4 3 5 2 6 1 7 8 8 9 9 10 10 11 11 12 13 13 14
REMARK SMILES IDX 21 15 14 16 18 17 15 18 16 19 19 20 20 21 17 22
REMARK H PARENT 11 12 17 23
REMARK Flexibility Score: inf
ROOT
ATOM      1  C   UNL     1      61.664  86.082  74.686  1.00  0.00     0.010 C 
ENDROOT
BRANCH   1   2
ATOM      2  C   UNL     1      62.758  85.240  75.404  1.00  0.00     0.001 C 
BRANCH   2   3
ATOM      3  C   UNL     1      62.321  83.760  75.611  1.00  0.00     0.000 C 
BRANCH   3   4
ATOM      4  C   UNL     1      63.245  82.728  74.903  1.00  0.00    -0.000 C 
BRANCH   4   5
ATOM      5  C   UNL     1      62.448  81.651  74.113  1.00  0.00    -0.000 C 
BRANCH   5   6
ATOM      6  C   UNL     1      62.762  81.673  72.593  1.00  0.00    -0.003 C 
ATOM      7  C   UNL     1      64.248  81.387  72.283  1.00  0.00     0.004 C 
ENDBRANCH   5   6
ENDBRANCH   4   5
ENDBRANCH   3   4
ENDBRANCH   2   3
ENDBRANCH   1   2
BRANCH   1   8
ATOM      8  C   UNL     1      60.332  85.316  74.453  1.00  0.00     0.100 C 
BRANCH   8   9
ATOM      9  C   UNL     1      59.995  85.246  73.011  1.00  0.00     0.220 C 
ATOM     10  O   UNL     1      58.906  85.739  72.630  1.00  0.00    -0.275 OA
ATOM     11  N   UNL     1      60.865  84.685  72.121  1.00  0.00    -0.352 N 
ATOM     12  H   UNL     1      61.668  84.244  72.544  1.00  0.00     0.163 HD
BRANCH  11  13
ATOM     13  C   UNL     1      60.720  84.684  70.697  1.00  0.00     0.151 C 
BRANCH  13  14
ATOM     14  C   UNL     1      61.903  84.150  69.973  1.00  0.00    -0.025 A 
ATOM     15  C   UNL     1      63.208  84.564  70.335  1.00  0.00     0.056 A 
ATOM     16  C   UNL     1      61.751  83.227  68.912  1.00  0.00     0.009 A 
ATOM     17  C   UNL     1      64.343  84.051  69.666  1.00  0.00     0.160 A 
ATOM     18  C   UNL     1      62.876  82.712  68.244  1.00  0.00     0.050 A 
ATOM     19  C   UNL     1      64.171  83.126  68.612  1.00  0.00     0.157 A 
BRANCH  17  20
ATOM     20  O   UNL     1      65.603  84.486  69.991  1.00  0.00    -0.493 OA
ATOM     21  C   UNL     1      65.827  84.641  71.403  1.00  0.00     0.278 C 
ENDBRANCH  17  20
BRANCH  19  22
ATOM     22  O   UNL     1      65.249  82.645  67.943  1.00  0.00    -0.504 OA
ATOM     23  H   UNL     1      65.472  81.774  68.280  1.00  0.00     0.293 HD
ENDBRANCH  19  22
ENDBRANCH  13  14
ENDBRANCH  11  13
ENDBRANCH   8   9
ENDBRANCH   1   8
TORSDOF 11
ENDMDL
MODEL 10
REMARK VINA RESULT:    -4.833     23.397     25.889
REMARK INTER + INTRA:          -8.833
REMARK INTER:                  -7.676
REMARK INTRA:                  -1.157
REMARK UNBOUND:                -1.033
REMARK SMILES CCCCCCCCC(=O)NCc1ccc(O)c(OC)c1
REMARK SMILES IDX 7 1 6 2 5 3 4 4 3 5 2 6 1 7 8 8 9 9 10 10 11 11 12 13 13 14
REMARK SMILES IDX 21 15 14 16 18 17 15 18 16 19 19 20 20 21 17 22
REMARK H PARENT 11 12 17 23
REMARK Flexibility Score: inf
ROOT
ATOM      1  C   UNL     1      74.477  89.339  70.648  1.00  0.00     0.010 C 
ENDROOT
BRANCH   1   2
ATOM      2  C   UNL     1      73.574  88.796  71.793  1.00  0.00     0.001 C 
BRANCH   2   3
ATOM      3  C   UNL     1      72.110  88.553  71.322  1.00  0.00     0.000 C 
BRANCH   3   4
ATOM      4  C   UNL     1      72.004  87.815  69.957  1.00  0.00    -0.000 C 
BRANCH   4   5
ATOM      5  C   UNL     1      71.418  86.382  70.092  1.00  0.00    -0.000 C 
BRANCH   5   6
ATOM      6  C   UNL     1      72.283  85.313  69.370  1.00  0.00    -0.003 C 
ATOM      7  C   UNL     1      73.794  85.485  69.636  1.00  0.00     0.004 C 
ENDBRANCH   5   6
ENDBRANCH   4   5
ENDBRANCH   3   4
ENDBRANCH   2   3
ENDBRANCH   1   2
BRANCH   1   8
ATOM      8  C   UNL     1      75.801  88.545  70.461  1.00  0.00     0.100 C 
BRANCH   8   9
ATOM      9  C   UNL     1      76.023  88.195  69.037  1.00  0.00     0.220 C 
ATOM     10  O   UNL     1      75.131  88.489  68.206  1.00  0.00    -0.275 OA
ATOM     11  N   UNL     1      77.184  87.594  68.644  1.00  0.00    -0.352 N 
ATOM     12  H   UNL     1      77.793  87.324  69.403  1.00  0.00     0.163 HD
BRANCH  11  13
ATOM     13  C   UNL     1      77.575  87.336  67.292  1.00  0.00     0.151 C 
BRANCH  13  14
ATOM     14  C   UNL     1      77.551  85.895  66.923  1.00  0.00    -0.025 A 
ATOM     15  C   UNL     1      76.831  85.464  65.783  1.00  0.00     0.056 A 
ATOM     16  C   UNL     1      78.238  84.934  67.700  1.00  0.00     0.009 A 
ATOM     17  C   UNL     1      76.812  84.100  65.410  1.00  0.00     0.160 A 
ATOM     18  C   UNL     1      78.224  83.576  67.334  1.00  0.00     0.050 A 
ATOM     19  C   UNL     1      77.508  83.154  66.197  1.00  0.00     0.157 A 
BRANCH  17  20
ATOM     20  O   UNL     1      76.080  83.678  64.330  1.00  0.00    -0.493 OA
ATOM     21  C   UNL     1      76.161  84.548  63.187  1.00  0.00     0.278 C 
ENDBRANCH  17  20
BRANCH  19  22
ATOM     22  O   UNL     1      77.479  81.838  65.868  1.00  0.00    -0.504 OA
ATOM     23  H   UNL     1      77.101  81.335  66.594  1.00  0.00     0.293 HD
ENDBRANCH  19  22
ENDBRANCH  13  14
ENDBRANCH  11  13
ENDBRANCH   8   9
ENDBRANCH   1   8
TORSDOF 11
ENDMDL
