MODEL 1
REMARK VINA RESULT:    -6.681      0.000      0.000
REMARK INTER + INTRA:         -12.509
REMARK INTER:                 -11.173
REMARK INTRA:                  -1.335
REMARK UNBOUND:                -1.335
REMARK SMILES COc1cc(CNC(=O)CCCCCCCC(C)C)ccc1O
REMARK SMILES IDX 11 1 10 2 8 3 9 4 7 5 6 7 5 8 4 9 20 10 3 11 21 12 22 13
REMARK SMILES IDX 2 14 1 15 23 16 12 18 13 19 14 20 15 21 16 22 17 23 18 24
REMARK SMILES IDX 19 25
REMARK H PARENT 7 6 23 17
REMARK Flexibility Score: inf
ROOT
ATOM      1  C   UNL     1      89.189  91.332  76.670  1.00  0.00     0.010 C 
ENDROOT
BRANCH   1   2
ATOM      2  C   UNL     1      89.670  92.585  77.399  1.00  0.00     0.100 C 
BRANCH   2   3
ATOM      3  C   UNL     1      90.451  93.520  76.490  1.00  0.00     0.220 C 
ATOM      4  O   UNL     1      90.033  94.619  76.136  1.00  0.00    -0.275 OA
ATOM      5  N   UNL     1      91.668  92.969  76.118  1.00  0.00    -0.352 N 
ATOM      6  H   UNL     1      91.924  92.045  76.453  1.00  0.00     0.163 HD
BRANCH   5   7
ATOM      7  C   UNL     1      92.602  93.648  75.249  1.00  0.00     0.151 C 
BRANCH   7   8
ATOM      8  C   UNL     1      93.834  94.089  75.984  1.00  0.00    -0.025 A 
ATOM      9  C   UNL     1      93.798  94.227  77.367  1.00  0.00     0.056 A 
ATOM     10  C   UNL     1      94.999  94.354  75.275  1.00  0.00     0.009 A 
ATOM     11  C   UNL     1      94.943  94.637  78.049  1.00  0.00     0.160 A 
ATOM     12  C   UNL     1      96.144  94.764  75.958  1.00  0.00     0.050 A 
ATOM     13  C   UNL     1      96.117  94.906  77.345  1.00  0.00     0.157 A 
BRANCH  11  14
ATOM     14  O   UNL     1      94.903  94.772  79.405  1.00  0.00    -0.493 OA
ATOM     15  C   UNL     1      95.576  93.777  80.175  1.00  0.00     0.278 C 
ENDBRANCH  11  14
BRANCH  13  16
ATOM     16  O   UNL     1      97.242  95.305  78.001  1.00  0.00    -0.504 OA
ATOM     17  H   UNL     1      97.828  95.762  77.373  1.00  0.00     0.293 HD
ENDBRANCH  13  16
ENDBRANCH   7   8
ENDBRANCH   5   7
ENDBRANCH   2   3
ENDBRANCH   1   2
BRANCH   1  18
ATOM     18  C   UNL     1      89.913  90.056  77.108  1.00  0.00     0.001 C 
BRANCH  18  19
ATOM     19  C   UNL     1      90.112  88.998  76.017  1.00  0.00     0.000 C 
BRANCH  19  20
ATOM     20  C   UNL     1      89.217  89.215  74.793  1.00  0.00     0.000 C 
BRANCH  20  21
ATOM     21  C   UNL     1      90.002  89.422  73.493  1.00  0.00     0.000 C 
BRANCH  21  22
ATOM     22  C   UNL     1      90.984  90.597  73.558  1.00  0.00     0.003 C 
BRANCH  22  23
ATOM     23  C   UNL     1      90.668  91.718  72.548  1.00  0.00    -0.017 C 
ATOM     24  C   UNL     1      89.531  92.591  73.084  1.00  0.00     0.007 C 
ATOM     25  C   UNL     1      90.293  91.175  71.169  1.00  0.00     0.007 C 
ENDBRANCH  22  23
ENDBRANCH  21  22
ENDBRANCH  20  21
ENDBRANCH  19  20
ENDBRANCH  18  19
ENDBRANCH   1  18
TORSDOF 12
ENDMDL
MODEL 2
REMARK VINA RESULT:    -6.476      2.442      3.964
REMARK INTER + INTRA:         -12.165
REMARK INTER:                 -10.735
REMARK INTRA:                  -1.430
REMARK UNBOUND:                -1.335
REMARK SMILES COc1cc(CNC(=O)CCCCCCCC(C)C)ccc1O
REMARK SMILES IDX 11 1 10 2 8 3 9 4 7 5 6 7 5 8 4 9 20 10 3 11 21 12 22 13
REMARK SMILES IDX 2 14 1 15 23 16 12 18 13 19 14 20 15 21 16 22 17 23 18 24
REMARK SMILES IDX 19 25
REMARK H PARENT 7 6 23 17
REMARK Flexibility Score: inf
ROOT
ATOM      1  C   UNL     1      92.347  94.094  76.684  1.00  0.00     0.010 C 
ENDROOT
BRANCH   1   2
ATOM      2  C   UNL     1      93.282  93.660  75.557  1.00  0.00     0.100 C 
BRANCH   2   3
ATOM      3  C   UNL     1      94.727  94.047  75.824  1.00  0.00     0.220 C 
ATOM      4  O   UNL     1      95.635  93.859  75.018  1.00  0.00    -0.275 OA
ATOM      5  N   UNL     1      94.878  94.622  77.077  1.00  0.00    -0.352 N 
ATOM      6  H   UNL     1      94.068  94.727  77.682  1.00  0.00     0.163 HD
BRANCH   5   7
ATOM      7  C   UNL     1      96.154  95.073  77.583  1.00  0.00     0.151 C 
BRANCH   7   8
ATOM      8  C   UNL     1      96.112  95.329  79.062  1.00  0.00    -0.025 A 
ATOM      9  C   UNL     1      96.609  96.525  79.566  1.00  0.00     0.056 A 
ATOM     10  C   UNL     1      95.577  94.368  79.911  1.00  0.00     0.009 A 
ATOM     11  C   UNL     1      96.571  96.763  80.940  1.00  0.00     0.160 A 
ATOM     12  C   UNL     1      95.539  94.607  81.285  1.00  0.00     0.050 A 
ATOM     13  C   UNL     1      96.036  95.804  81.800  1.00  0.00     0.157 A 
BRANCH  11  14
ATOM     14  O   UNL     1      97.059  97.936  81.431  1.00  0.00    -0.493 OA
ATOM     15  C   UNL     1      96.183  99.062  81.411  1.00  0.00     0.278 C 
ENDBRANCH  11  14
BRANCH  13  16
ATOM     16  O   UNL     1      95.992  96.025  83.143  1.00  0.00    -0.504 OA
ATOM     17  H   UNL     1      95.083  96.266  83.395  1.00  0.00     0.293 HD
ENDBRANCH  13  16
ENDBRANCH   7   8
ENDBRANCH   5   7
ENDBRANCH   2   3
ENDBRANCH   1   2
BRANCH   1  18
ATOM     18  C   UNL     1      91.821  92.928  77.525  1.00  0.00     0.001 C 
BRANCH  18  19
ATOM     19  C   UNL     1      90.386  92.484  77.222  1.00  0.00     0.000 C 
BRANCH  19  20
ATOM     20  C   UNL     1      90.294  91.046  76.705  1.00  0.00     0.000 C 
BRANCH  20  21
ATOM     21  C   UNL     1      89.920  90.955  75.221  1.00  0.00     0.000 C 
BRANCH  21  22
ATOM     22  C   UNL     1      91.135  90.847  74.295  1.00  0.00     0.003 C 
BRANCH  22  23
ATOM     23  C   UNL     1      91.064  91.788  73.076  1.00  0.00    -0.017 C 
ATOM     24  C   UNL     1      90.309  93.065  73.452  1.00  0.00     0.007 C 
ATOM     25  C   UNL     1      90.394  91.132  71.868  1.00  0.00     0.007 C 
ENDBRANCH  22  23
ENDBRANCH  21  22
ENDBRANCH  20  21
ENDBRANCH  19  20
ENDBRANCH  18  19
ENDBRANCH   1  18
TORSDOF 12
ENDMDL
MODEL 3
REMARK VINA RESULT:    -6.440      2.143      3.628
REMARK INTER + INTRA:         -12.105
REMARK INTER:                 -10.682
REMARK INTRA:                  -1.423
REMARK UNBOUND:                -1.335
REMARK SMILES COc1cc(CNC(=O)CCCCCCCC(C)C)ccc1O
REMARK SMILES IDX 11 1 10 2 8 3 9 4 7 5 6 7 5 8 4 9 20 10 3 11 21 12 22 13
REMARK SMILES IDX 2 14 1 15 23 16 12 18 13 19 14 20 15 21 16 22 17 23 18 24
REMARK SMILES IDX 19 25
REMARK H PARENT 7 6 23 17
REMARK Flexibility Score: inf
ROOT
ATOM      1  C   UNL     1      91.814  94.301  76.601  1.00  0.00     0.010 C 
ENDROOT
BRANCH   1   2
ATOM      2  C   UNL     1      92.541  94.518  75.276  1.00  0.00     0.100 C 
BRANCH   2   3
ATOM      3  C   UNL     1      93.898  95.178  75.461  1.00  0.00     0.220 C 
ATOM      4  O   UNL     1      94.284  96.126  74.784  1.00  0.00    -0.275 OA
ATOM      5  N   UNL     1      94.626  94.569  76.472  1.00  0.00    -0.352 N 
ATOM      6  H   UNL     1      94.228  93.780  76.973  1.00  0.00     0.163 HD
BRANCH   5   7
ATOM      7  C   UNL     1      95.954  94.997  76.847  1.00  0.00     0.151 C 
BRANCH   7   8
ATOM      8  C   UNL     1      96.176  94.905  78.329  1.00  0.00    -0.025 A 
ATOM      9  C   UNL     1      97.159  95.685  78.927  1.00  0.00     0.056 A 
ATOM     10  C   UNL     1      95.397  94.039  79.087  1.00  0.00     0.009 A 
ATOM     11  C   UNL     1      97.365  95.598  80.304  1.00  0.00     0.160 A 
ATOM     12  C   UNL     1      95.604  93.953  80.465  1.00  0.00     0.050 A 
ATOM     13  C   UNL     1      96.588  94.732  81.073  1.00  0.00     0.157 A 
BRANCH  11  14
ATOM     14  O   UNL     1      98.329  96.364  80.887  1.00  0.00    -0.493 OA
ATOM     15  C   UNL     1      99.676  95.907  80.773  1.00  0.00     0.278 C 
ENDBRANCH  11  14
BRANCH  13  16
ATOM     16  O   UNL     1      96.780  94.639  82.418  1.00  0.00    -0.504 OA
ATOM     17  H   UNL     1      97.376  95.353  82.703  1.00  0.00     0.293 HD
ENDBRANCH  13  16
ENDBRANCH   7   8
ENDBRANCH   5   7
ENDBRANCH   2   3
ENDBRANCH   1   2
BRANCH   1  18
ATOM     18  C   UNL     1      90.301  94.128  76.446  1.00  0.00     0.001 C 
BRANCH  18  19
ATOM     19  C   UNL     1      89.696  92.906  77.146  1.00  0.00     0.000 C 
BRANCH  19  20
ATOM     20  C   UNL     1      90.474  91.613  76.884  1.00  0.00     0.000 C 
BRANCH  20  21
ATOM     21  C   UNL     1      90.127  90.953  75.545  1.00  0.00     0.000 C 
BRANCH  21  22
ATOM     22  C   UNL     1      91.153  91.240  74.443  1.00  0.00     0.003 C 
BRANCH  22  23
ATOM     23  C   UNL     1      90.517  91.497  73.063  1.00  0.00    -0.017 C 
ATOM     24  C   UNL     1      89.974  92.927  73.001  1.00  0.00     0.007 C 
ATOM     25  C   UNL     1      89.395  90.508  72.742  1.00  0.00     0.007 C 
ENDBRANCH  22  23
ENDBRANCH  21  22
ENDBRANCH  20  21
ENDBRANCH  19  20
ENDBRANCH  18  19
ENDBRANCH   1  18
TORSDOF 12
ENDMDL
MODEL 4
REMARK VINA RESULT:    -6.431      2.746      8.256
REMARK INTER + INTRA:         -12.089
REMARK INTER:                 -11.094
REMARK INTRA:                  -0.995
REMARK UNBOUND:                -1.335
REMARK SMILES COc1cc(CNC(=O)CCCCCCCC(C)C)ccc1O
REMARK SMILES IDX 11 1 10 2 8 3 9 4 7 5 6 7 5 8 4 9 20 10 3 11 21 12 22 13
REMARK SMILES IDX 2 14 1 15 23 16 12 18 13 19 14 20 15 21 16 22 17 23 18 24
REMARK SMILES IDX 19 25
REMARK H PARENT 7 6 23 17
REMARK Flexibility Score: inf
ROOT
ATOM      1  C   UNL     1      93.664  93.523  76.830  1.00  0.00     0.010 C 
ENDROOT
BRANCH   1   2
ATOM      2  C   UNL     1      92.474  94.473  76.717  1.00  0.00     0.100 C 
BRANCH   2   3
ATOM      3  C   UNL     1      91.144  93.758  76.891  1.00  0.00     0.220 C 
ATOM      4  O   UNL     1      90.075  94.223  76.507  1.00  0.00    -0.275 OA
ATOM      5  N   UNL     1      91.301  92.540  77.536  1.00  0.00    -0.352 N 
ATOM      6  H   UNL     1      92.228  92.243  77.828  1.00  0.00     0.163 HD
BRANCH   5   7
ATOM      7  C   UNL     1      90.192  91.663  77.833  1.00  0.00     0.151 C 
BRANCH   7   8
ATOM      8  C   UNL     1      90.265  90.382  77.055  1.00  0.00    -0.025 A 
ATOM      9  C   UNL     1      90.430  90.424  75.676  1.00  0.00     0.056 A 
ATOM     10  C   UNL     1      90.166  89.167  77.722  1.00  0.00     0.009 A 
ATOM     11  C   UNL     1      90.498  89.233  74.953  1.00  0.00     0.160 A 
ATOM     12  C   UNL     1      90.233  87.976  76.998  1.00  0.00     0.050 A 
ATOM     13  C   UNL     1      90.399  88.008  75.614  1.00  0.00     0.157 A 
BRANCH  11  14
ATOM     14  O   UNL     1      90.659  89.277  73.601  1.00  0.00    -0.493 OA
ATOM     15  C   UNL     1      90.000  90.334  72.904  1.00  0.00     0.278 C 
ENDBRANCH  11  14
BRANCH  13  16
ATOM     16  O   UNL     1      90.464  86.839  74.919  1.00  0.00    -0.504 OA
ATOM     17  H   UNL     1      90.243  87.011  73.988  1.00  0.00     0.293 HD
ENDBRANCH  13  16
ENDBRANCH   7   8
ENDBRANCH   5   7
ENDBRANCH   2   3
ENDBRANCH   1   2
BRANCH   1  18
ATOM     18  C   UNL     1      94.928  94.190  77.380  1.00  0.00     0.001 C 
BRANCH  18  19
ATOM     19  C   UNL     1      94.844  94.678  78.830  1.00  0.00     0.000 C 
BRANCH  19  20
ATOM     20  C   UNL     1      95.649  93.816  79.806  1.00  0.00     0.000 C 
BRANCH  20  21
ATOM     21  C   UNL     1      96.151  94.589  81.030  1.00  0.00     0.000 C 
BRANCH  21  22
ATOM     22  C   UNL     1      95.596  96.015  81.117  1.00  0.00     0.003 C 
BRANCH  22  23
ATOM     23  C   UNL     1      96.688  97.103  81.073  1.00  0.00    -0.017 C 
ATOM     24  C   UNL     1      96.170  98.382  81.734  1.00  0.00     0.007 C 
ATOM     25  C   UNL     1      97.151  97.411  79.649  1.00  0.00     0.007 C 
ENDBRANCH  22  23
ENDBRANCH  21  22
ENDBRANCH  20  21
ENDBRANCH  19  20
ENDBRANCH  18  19
ENDBRANCH   1  18
TORSDOF 12
ENDMDL
MODEL 5
REMARK VINA RESULT:    -6.418      1.939      3.292
REMARK INTER + INTRA:         -12.068
REMARK INTER:                 -10.494
REMARK INTRA:                  -1.575
REMARK UNBOUND:                -1.335
REMARK SMILES COc1cc(CNC(=O)CCCCCCCC(C)C)ccc1O
REMARK SMILES IDX 11 1 10 2 8 3 9 4 7 5 6 7 5 8 4 9 20 10 3 11 21 12 22 13
REMARK SMILES IDX 2 14 1 15 23 16 12 18 13 19 14 20 15 21 16 22 17 23 18 24
REMARK SMILES IDX 19 25
REMARK H PARENT 7 6 23 17
REMARK Flexibility Score: inf
ROOT
ATOM      1  C   UNL     1      92.149  93.106  76.769  1.00  0.00     0.010 C 
ENDROOT
BRANCH   1   2
ATOM      2  C   UNL     1      92.899  93.285  75.450  1.00  0.00     0.100 C 
BRANCH   2   3
ATOM      3  C   UNL     1      93.911  94.417  75.510  1.00  0.00     0.220 C 
ATOM      4  O   UNL     1      93.711  95.525  75.021  1.00  0.00    -0.275 OA
ATOM      5  N   UNL     1      95.069  94.031  76.169  1.00  0.00    -0.352 N 
ATOM      6  H   UNL     1      95.148  93.085  76.532  1.00  0.00     0.163 HD
BRANCH   5   7
ATOM      7  C   UNL     1      96.195  94.917  76.357  1.00  0.00     0.151 C 
BRANCH   7   8
ATOM      8  C   UNL     1      96.249  95.467  77.752  1.00  0.00    -0.025 A 
ATOM      9  C   UNL     1      95.578  94.811  78.777  1.00  0.00     0.056 A 
ATOM     10  C   UNL     1      96.969  96.628  78.005  1.00  0.00     0.009 A 
ATOM     11  C   UNL     1      95.628  95.323  80.074  1.00  0.00     0.160 A 
ATOM     12  C   UNL     1      97.019  97.141  79.302  1.00  0.00     0.050 A 
ATOM     13  C   UNL     1      96.348  96.489  80.336  1.00  0.00     0.157 A 
BRANCH  11  14
ATOM     14  O   UNL     1      94.968  94.677  81.076  1.00  0.00    -0.493 OA
ATOM     15  C   UNL     1      95.699  93.688  81.800  1.00  0.00     0.278 C 
ENDBRANCH  11  14
BRANCH  13  16
ATOM     16  O   UNL     1      96.405  96.998  81.598  1.00  0.00    -0.504 OA
ATOM     17  H   UNL     1      95.549  96.853  82.037  1.00  0.00     0.293 HD
ENDBRANCH  13  16
ENDBRANCH   7   8
ENDBRANCH   5   7
ENDBRANCH   2   3
ENDBRANCH   1   2
BRANCH   1  18
ATOM     18  C   UNL     1      90.856  93.922  76.851  1.00  0.00     0.001 C 
BRANCH  18  19
ATOM     19  C   UNL     1      89.556  93.109  76.855  1.00  0.00     0.000 C 
BRANCH  19  20
ATOM     20  C   UNL     1      89.749  91.663  77.320  1.00  0.00     0.000 C 
BRANCH  20  21
ATOM     21  C   UNL     1      89.223  90.626  76.321  1.00  0.00     0.000 C 
BRANCH  21  22
ATOM     22  C   UNL     1      90.205  90.326  75.184  1.00  0.00     0.003 C 
BRANCH  22  23
ATOM     23  C   UNL     1      89.646  90.654  73.786  1.00  0.00    -0.017 C 
ATOM     24  C   UNL     1      90.116  92.044  73.353  1.00  0.00     0.007 C 
ATOM     25  C   UNL     1      88.118  90.590  73.737  1.00  0.00     0.007 C 
ENDBRANCH  22  23
ENDBRANCH  21  22
ENDBRANCH  20  21
ENDBRANCH  19  20
ENDBRANCH  18  19
ENDBRANCH   1  18
TORSDOF 12
ENDMDL
MODEL 6
REMARK VINA RESULT:    -6.382      2.493      4.295
REMARK INTER + INTRA:         -12.008
REMARK INTER:                 -10.964
REMARK INTRA:                  -1.044
REMARK UNBOUND:                -1.335
REMARK SMILES COc1cc(CNC(=O)CCCCCCCC(C)C)ccc1O
REMARK SMILES IDX 11 1 10 2 8 3 9 4 7 5 6 7 5 8 4 9 20 10 3 11 21 12 22 13
REMARK SMILES IDX 2 14 1 15 23 16 12 18 13 19 14 20 15 21 16 22 17 23 18 24
REMARK SMILES IDX 19 25
REMARK H PARENT 7 6 23 17
REMARK Flexibility Score: inf
ROOT
ATOM      1  C   UNL     1      92.162  93.050  76.711  1.00  0.00     0.010 C 
ENDROOT
BRANCH   1   2
ATOM      2  C   UNL     1      92.995  93.345  75.465  1.00  0.00     0.100 C 
BRANCH   2   3
ATOM      3  C   UNL     1      93.980  94.482  75.684  1.00  0.00     0.220 C 
ATOM      4  O   UNL     1      93.894  95.566  75.115  1.00  0.00    -0.275 OA
ATOM      5  N   UNL     1      94.971  94.130  76.588  1.00  0.00    -0.352 N 
ATOM      6  H   UNL     1      94.968  93.201  77.001  1.00  0.00     0.163 HD
BRANCH   5   7
ATOM      7  C   UNL     1      96.039  95.027  76.968  1.00  0.00     0.151 C 
BRANCH   7   8
ATOM      8  C   UNL     1      96.131  95.190  78.457  1.00  0.00    -0.025 A 
ATOM      9  C   UNL     1      97.232  95.833  79.011  1.00  0.00     0.056 A 
ATOM     10  C   UNL     1      95.116  94.697  79.266  1.00  0.00     0.009 A 
ATOM     11  C   UNL     1      97.318  95.985  80.395  1.00  0.00     0.160 A 
ATOM     12  C   UNL     1      95.202  94.848  80.651  1.00  0.00     0.050 A 
ATOM     13  C   UNL     1      96.303  95.492  81.216  1.00  0.00     0.157 A 
BRANCH  11  14
ATOM     14  O   UNL     1      98.398  96.616  80.935  1.00  0.00    -0.493 OA
ATOM     15  C   UNL     1      99.685  96.106  80.588  1.00  0.00     0.278 C 
ENDBRANCH  11  14
BRANCH  13  16
ATOM     16  O   UNL     1      96.375  95.634  82.568  1.00  0.00    -0.504 OA
ATOM     17  H   UNL     1      97.307  95.586  82.842  1.00  0.00     0.293 HD
ENDBRANCH  13  16
ENDBRANCH   7   8
ENDBRANCH   5   7
ENDBRANCH   2   3
ENDBRANCH   1   2
BRANCH   1  18
ATOM     18  C   UNL     1      90.838  93.818  76.755  1.00  0.00     0.001 C 
BRANCH  18  19
ATOM     19  C   UNL     1      89.609  93.002  77.169  1.00  0.00     0.000 C 
BRANCH  19  20
ATOM     20  C   UNL     1      89.961  91.615  77.715  1.00  0.00     0.000 C 
BRANCH  20  21
ATOM     21  C   UNL     1      89.496  90.468  76.811  1.00  0.00     0.000 C 
BRANCH  21  22
ATOM     22  C   UNL     1      90.652  89.709  76.151  1.00  0.00     0.003 C 
BRANCH  22  23
ATOM     23  C   UNL     1      90.557  88.180  76.316  1.00  0.00    -0.017 C 
ATOM     24  C   UNL     1      89.680  87.593  75.208  1.00  0.00     0.007 C 
ATOM     25  C   UNL     1      90.002  87.772  77.681  1.00  0.00     0.007 C 
ENDBRANCH  22  23
ENDBRANCH  21  22
ENDBRANCH  20  21
ENDBRANCH  19  20
ENDBRANCH  18  19
ENDBRANCH   1  18
TORSDOF 12
ENDMDL
MODEL 7
REMARK VINA RESULT:    -6.198      2.229      4.088
REMARK INTER + INTRA:         -11.700
REMARK INTER:                 -10.602
REMARK INTRA:                  -1.098
REMARK UNBOUND:                -1.335
REMARK SMILES COc1cc(CNC(=O)CCCCCCCC(C)C)ccc1O
REMARK SMILES IDX 11 1 10 2 8 3 9 4 7 5 6 7 5 8 4 9 20 10 3 11 21 12 22 13
REMARK SMILES IDX 2 14 1 15 23 16 12 18 13 19 14 20 15 21 16 22 17 23 18 24
REMARK SMILES IDX 19 25
REMARK H PARENT 7 6 23 17
REMARK Flexibility Score: inf
ROOT
ATOM      1  C   UNL     1      91.893  93.040  74.865  1.00  0.00     0.010 C 
ENDROOT
BRANCH   1   2
ATOM      2  C   UNL     1      92.224  93.570  76.258  1.00  0.00     0.100 C 
BRANCH   2   3
ATOM      3  C   UNL     1      93.648  94.092  76.356  1.00  0.00     0.220 C 
ATOM      4  O   UNL     1      94.165  94.802  75.498  1.00  0.00    -0.275 OA
ATOM      5  N   UNL     1      94.271  93.659  77.517  1.00  0.00    -0.352 N 
ATOM      6  H   UNL     1      93.765  93.061  78.165  1.00  0.00     0.163 HD
BRANCH   5   7
ATOM      7  C   UNL     1      95.633  94.005  77.851  1.00  0.00     0.151 C 
BRANCH   7   8
ATOM      8  C   UNL     1      95.751  94.534  79.251  1.00  0.00    -0.025 A 
ATOM      9  C   UNL     1      96.020  95.881  79.457  1.00  0.00     0.056 A 
ATOM     10  C   UNL     1      95.589  93.669  80.327  1.00  0.00     0.009 A 
ATOM     11  C   UNL     1      96.130  96.371  80.759  1.00  0.00     0.160 A 
ATOM     12  C   UNL     1      95.699  94.160  81.628  1.00  0.00     0.050 A 
ATOM     13  C   UNL     1      95.970  95.511  81.845  1.00  0.00     0.157 A 
BRANCH  11  14
ATOM     14  O   UNL     1      96.395  97.693  80.957  1.00  0.00    -0.493 OA
ATOM     15  C   UNL     1      97.318  98.310  80.061  1.00  0.00     0.278 C 
ENDBRANCH  11  14
BRANCH  13  16
ATOM     16  O   UNL     1      96.073  95.978  83.120  1.00  0.00    -0.504 OA
ATOM     17  H   UNL     1      95.574  96.809  83.194  1.00  0.00     0.293 HD
ENDBRANCH  13  16
ENDBRANCH   7   8
ENDBRANCH   5   7
ENDBRANCH   2   3
ENDBRANCH   1   2
BRANCH   1  18
ATOM     18  C   UNL     1      90.442  93.290  74.445  1.00  0.00     0.001 C 
BRANCH  18  19
ATOM     19  C   UNL     1      90.118  93.013  72.974  1.00  0.00     0.000 C 
BRANCH  19  20
ATOM     20  C   UNL     1      89.112  91.874  72.780  1.00  0.00     0.000 C 
BRANCH  20  21
ATOM     21  C   UNL     1      89.767  90.492  72.681  1.00  0.00     0.000 C 
BRANCH  21  22
ATOM     22  C   UNL     1      89.485  89.599  73.893  1.00  0.00     0.003 C 
BRANCH  22  23
ATOM     23  C   UNL     1      90.749  89.232  74.694  1.00  0.00    -0.017 C 
ATOM     24  C   UNL     1      91.002  87.726  74.602  1.00  0.00     0.007 C 
ATOM     25  C   UNL     1      90.654  89.648  76.163  1.00  0.00     0.007 C 
ENDBRANCH  22  23
ENDBRANCH  21  22
ENDBRANCH  20  21
ENDBRANCH  19  20
ENDBRANCH  18  19
ENDBRANCH   1  18
TORSDOF 12
ENDMDL
MODEL 8
REMARK VINA RESULT:    -6.197     13.402     15.913
REMARK INTER + INTRA:         -11.698
REMARK INTER:                  -9.620
REMARK INTRA:                  -2.079
REMARK UNBOUND:                -1.335
REMARK SMILES COc1cc(CNC(=O)CCCCCCCC(C)C)ccc1O
REMARK SMILES IDX 11 1 10 2 8 3 9 4 7 5 6 7 5 8 4 9 20 10 3 11 21 12 22 13
REMARK SMILES IDX 2 14 1 15 23 16 12 18 13 19 14 20 15 21 16 22 17 23 18 24
REMARK SMILES IDX 19 25
REMARK H PARENT 7 6 23 17
REMARK Flexibility Score: inf
ROOT
ATOM      1  C   UNL     1      80.896  86.014  84.755  1.00  0.00     0.010 C 
ENDROOT
BRANCH   1   2
ATOM      2  C   UNL     1      80.194  86.237  86.093  1.00  0.00     0.100 C 
BRANCH   2   3
ATOM      3  C   UNL     1      81.171  86.311  87.254  1.00  0.00     0.220 C 
ATOM      4  O   UNL     1      82.073  85.496  87.429  1.00  0.00    -0.275 OA
ATOM      5  N   UNL     1      80.906  87.397  88.075  1.00  0.00    -0.352 N 
ATOM      6  H   UNL     1      80.128  88.014  87.855  1.00  0.00     0.163 HD
BRANCH   5   7
ATOM      7  C   UNL     1      81.683  87.695  89.256  1.00  0.00     0.151 C 
BRANCH   7   8
ATOM      8  C   UNL     1      82.201  89.103  89.247  1.00  0.00    -0.025 A 
ATOM      9  C   UNL     1      83.159  89.489  90.177  1.00  0.00     0.056 A 
ATOM     10  C   UNL     1      81.717  90.007  88.310  1.00  0.00     0.009 A 
ATOM     11  C   UNL     1      83.641  90.798  90.169  1.00  0.00     0.160 A 
ATOM     12  C   UNL     1      82.199  91.317  88.302  1.00  0.00     0.050 A 
ATOM     13  C   UNL     1      83.161  91.713  89.231  1.00  0.00     0.157 A 
BRANCH  11  14
ATOM     14  O   UNL     1      84.580  91.173  91.082  1.00  0.00    -0.493 OA
ATOM     15  C   UNL     1      84.563  90.502  92.341  1.00  0.00     0.278 C 
ENDBRANCH  11  14
BRANCH  13  16
ATOM     16  O   UNL     1      83.624  92.993  89.213  1.00  0.00    -0.504 OA
ATOM     17  H   UNL     1      84.181  93.117  88.425  1.00  0.00     0.293 HD
ENDBRANCH  13  16
ENDBRANCH   7   8
ENDBRANCH   5   7
ENDBRANCH   2   3
ENDBRANCH   1   2
BRANCH   1  18
ATOM     18  C   UNL     1      81.155  87.308  83.979  1.00  0.00     0.001 C 
BRANCH  18  19
ATOM     19  C   UNL     1      80.288  88.507  84.377  1.00  0.00     0.000 C 
BRANCH  19  20
ATOM     20  C   UNL     1      81.100  89.774  84.657  1.00  0.00     0.000 C 
BRANCH  20  21
ATOM     21  C   UNL     1      82.558  89.494  85.034  1.00  0.00     0.000 C 
BRANCH  21  22
ATOM     22  C   UNL     1      83.552  90.447  84.362  1.00  0.00     0.003 C 
BRANCH  22  23
ATOM     23  C   UNL     1      84.829  90.687  85.192  1.00  0.00    -0.017 C 
ATOM     24  C   UNL     1      84.958  89.607  86.268  1.00  0.00     0.007 C 
ATOM     25  C   UNL     1      84.851  92.069  85.846  1.00  0.00     0.007 C 
ENDBRANCH  22  23
ENDBRANCH  21  22
ENDBRANCH  20  21
ENDBRANCH  19  20
ENDBRANCH  18  19
ENDBRANCH   1  18
TORSDOF 12
ENDMDL
MODEL 9
REMARK VINA RESULT:    -5.950      2.750      5.451
REMARK INTER + INTRA:         -11.286
REMARK INTER:                 -10.301
REMARK INTRA:                  -0.984
REMARK UNBOUND:                -1.335
REMARK SMILES COc1cc(CNC(=O)CCCCCCCC(C)C)ccc1O
REMARK SMILES IDX 11 1 10 2 8 3 9 4 7 5 6 7 5 8 4 9 20 10 3 11 21 12 22 13
REMARK SMILES IDX 2 14 1 15 23 16 12 18 13 19 14 20 15 21 16 22 17 23 18 24
REMARK SMILES IDX 19 25
REMARK H PARENT 7 6 23 17
REMARK Flexibility Score: inf
ROOT
ATOM      1  C   UNL     1      94.664  93.724  75.863  1.00  0.00     0.010 C 
ENDROOT
BRANCH   1   2
ATOM      2  C   UNL     1      96.126  94.095  75.619  1.00  0.00     0.100 C 
BRANCH   2   3
ATOM      3  C   UNL     1      96.438  95.522  76.038  1.00  0.00     0.220 C 
ATOM      4  O   UNL     1      96.544  96.450  75.241  1.00  0.00    -0.275 OA
ATOM      5  N   UNL     1      96.593  95.628  77.412  1.00  0.00    -0.352 N 
ATOM      6  H   UNL     1      96.498  94.799  77.993  1.00  0.00     0.163 HD
BRANCH   5   7
ATOM      7  C   UNL     1      96.903  96.875  78.071  1.00  0.00     0.151 C 
BRANCH   7   8
ATOM      8  C   UNL     1      96.668  96.801  79.552  1.00  0.00    -0.025 A 
ATOM      9  C   UNL     1      95.925  95.751  80.078  1.00  0.00     0.056 A 
ATOM     10  C   UNL     1      97.195  97.783  80.381  1.00  0.00     0.009 A 
ATOM     11  C   UNL     1      95.706  95.683  81.454  1.00  0.00     0.160 A 
ATOM     12  C   UNL     1      96.976  97.715  81.758  1.00  0.00     0.050 A 
ATOM     13  C   UNL     1      96.231  96.665  82.294  1.00  0.00     0.157 A 
BRANCH  11  14
ATOM     14  O   UNL     1      94.976  94.652  81.967  1.00  0.00    -0.493 OA
ATOM     15  C   UNL     1      95.636  93.394  82.099  1.00  0.00     0.278 C 
ENDBRANCH  11  14
BRANCH  13  16
ATOM     16  O   UNL     1      96.025  96.609  83.639  1.00  0.00    -0.504 OA
ATOM     17  H   UNL     1      96.815  96.947  84.095  1.00  0.00     0.293 HD
ENDBRANCH  13  16
ENDBRANCH   7   8
ENDBRANCH   5   7
ENDBRANCH   2   3
ENDBRANCH   1   2
BRANCH   1  18
ATOM     18  C   UNL     1      93.685  94.855  75.537  1.00  0.00     0.001 C 
BRANCH  18  19
ATOM     19  C   UNL     1      92.236  94.427  75.282  1.00  0.00     0.000 C 
BRANCH  19  20
ATOM     20  C   UNL     1      91.302  94.724  76.459  1.00  0.00     0.000 C 
BRANCH  20  21
ATOM     21  C   UNL     1      90.294  93.602  76.735  1.00  0.00     0.000 C 
BRANCH  21  22
ATOM     22  C   UNL     1      90.876  92.456  77.569  1.00  0.00     0.003 C 
BRANCH  22  23
ATOM     23  C   UNL     1      90.760  91.079  76.887  1.00  0.00    -0.017 C 
ATOM     24  C   UNL     1      90.344  91.260  75.425  1.00  0.00     0.007 C 
ATOM     25  C   UNL     1      89.767  90.156  77.594  1.00  0.00     0.007 C 
ENDBRANCH  22  23
ENDBRANCH  21  22
ENDBRANCH  20  21
ENDBRANCH  19  20
ENDBRANCH  18  19
ENDBRANCH   1  18
TORSDOF 12
ENDMDL
MODEL 10
REMARK VINA RESULT:    -5.870      2.830      8.436
REMARK INTER + INTRA:         -11.152
REMARK INTER:                  -9.654
REMARK INTRA:                  -1.498
REMARK UNBOUND:                -1.335
REMARK SMILES COc1cc(CNC(=O)CCCCCCCC(C)C)ccc1O
REMARK SMILES IDX 11 1 10 2 8 3 9 4 7 5 6 7 5 8 4 9 20 10 3 11 21 12 22 13
REMARK SMILES IDX 2 14 1 15 23 16 12 18 13 19 14 20 15 21 16 22 17 23 18 24
REMARK SMILES IDX 19 25
REMARK H PARENT 7 6 23 17
REMARK Flexibility Score: inf
ROOT
ATOM      1  C   UNL     1      95.212  94.516  78.778  1.00  0.00     0.010 C 
ENDROOT
BRANCH   1   2
ATOM      2  C   UNL     1      96.067  94.764  77.537  1.00  0.00     0.100 C 
BRANCH   2   3
ATOM      3  C   UNL     1      95.390  94.285  76.263  1.00  0.00     0.220 C 
ATOM      4  O   UNL     1      95.974  94.181  75.189  1.00  0.00    -0.275 OA
ATOM      5  N   UNL     1      94.051  93.995  76.476  1.00  0.00    -0.352 N 
ATOM      6  H   UNL     1      93.650  94.123  77.401  1.00  0.00     0.163 HD
BRANCH   5   7
ATOM      7  C   UNL     1      93.174  93.528  75.426  1.00  0.00     0.151 C 
BRANCH   7   8
ATOM      8  C   UNL     1      92.147  92.562  75.942  1.00  0.00    -0.025 A 
ATOM      9  C   UNL     1      91.710  91.523  75.128  1.00  0.00     0.056 A 
ATOM     10  C   UNL     1      91.642  92.717  77.227  1.00  0.00     0.009 A 
ATOM     11  C   UNL     1      90.755  90.627  75.607  1.00  0.00     0.160 A 
ATOM     12  C   UNL     1      90.686  91.821  77.705  1.00  0.00     0.050 A 
ATOM     13  C   UNL     1      90.243  90.775  76.896  1.00  0.00     0.157 A 
BRANCH  11  14
ATOM     14  O   UNL     1      90.330  89.610  74.806  1.00  0.00    -0.493 OA
ATOM     15  C   UNL     1      91.198  88.486  74.669  1.00  0.00     0.278 C 
ENDBRANCH  11  14
BRANCH  13  16
ATOM     16  O   UNL     1      89.310  89.906  77.375  1.00  0.00    -0.504 OA
ATOM     17  H   UNL     1      88.428  90.197  77.087  1.00  0.00     0.293 HD
ENDBRANCH  13  16
ENDBRANCH   7   8
ENDBRANCH   5   7
ENDBRANCH   2   3
ENDBRANCH   1   2
BRANCH   1  18
ATOM     18  C   UNL     1      95.993  94.630  80.090  1.00  0.00     0.001 C 
BRANCH  18  19
ATOM     19  C   UNL     1      95.273  95.355  81.232  1.00  0.00     0.000 C 
BRANCH  19  20
ATOM     20  C   UNL     1      96.190  96.284  82.032  1.00  0.00     0.000 C 
BRANCH  20  21
ATOM     21  C   UNL     1      96.656  97.511  81.241  1.00  0.00     0.000 C 
BRANCH  21  22
ATOM     22  C   UNL     1      98.143  97.469  80.876  1.00  0.00     0.003 C 
BRANCH  22  23
ATOM     23  C   UNL     1      98.421  97.779  79.392  1.00  0.00    -0.017 C 
ATOM     24  C   UNL     1      97.111  98.131  78.684  1.00  0.00     0.007 C 
ATOM     25  C   UNL     1      99.101  96.617  78.668  1.00  0.00     0.007 C 
ENDBRANCH  22  23
ENDBRANCH  21  22
ENDBRANCH  20  21
ENDBRANCH  19  20
ENDBRANCH  18  19
ENDBRANCH   1  18
TORSDOF 12
ENDMDL
