MODEL 1
REMARK VINA RESULT:    -6.231      0.000      0.000
REMARK INTER + INTRA:         -10.573
REMARK INTER:                  -9.692
REMARK INTRA:                  -0.882
REMARK UNBOUND:                -0.882
REMARK SMILES COc1cc(CNC(=O)CCCCCC(C)C)ccc1O
REMARK SMILES IDX 10 1 8 2 7 3 9 5 6 6 5 7 3 8 20 9 4 10 19 11 18 12 2 13 1 14
REMARK SMILES IDX 21 15 11 17 12 18 13 19 14 20 15 21 16 22 17 23
REMARK H PARENT 7 4 21 16
REMARK Flexibility Score: inf
ROOT
ATOM      1  C   UNL     1      77.227  84.806  68.783  1.00  0.00     0.100 C 
ENDROOT
BRANCH   1   2
ATOM      2  C   UNL     1      77.599  83.863  67.709  1.00  0.00     0.220 C 
ATOM      3  N   UNL     1      76.627  83.132  67.093  1.00  0.00    -0.352 N 
ATOM      4  H   UNL     1      75.713  83.197  67.518  1.00  0.00     0.163 HD
ATOM      5  O   UNL     1      78.801  83.785  67.356  1.00  0.00    -0.275 OA
BRANCH   3   6
ATOM      6  C   UNL     1      76.819  82.320  65.934  1.00  0.00     0.151 C 
BRANCH   6   7
ATOM      7  C   UNL     1      75.547  81.782  65.380  1.00  0.00    -0.025 A 
ATOM      8  C   UNL     1      73.115  81.461  65.549  1.00  0.00     0.160 A 
ATOM      9  C   UNL     1      73.115  80.816  64.294  1.00  0.00     0.157 A 
ATOM     10  C   UNL     1      74.333  81.922  66.093  1.00  0.00     0.056 A 
ATOM     11  C   UNL     1      74.321  80.648  63.589  1.00  0.00     0.050 A 
ATOM     12  C   UNL     1      75.527  81.131  64.125  1.00  0.00     0.009 A 
BRANCH   8  13
ATOM     13  O   UNL     1      71.955  81.617  66.261  1.00  0.00    -0.493 OA
ATOM     14  C   UNL     1      71.572  82.993  66.455  1.00  0.00     0.278 C 
ENDBRANCH   8  13
BRANCH   9  15
ATOM     15  O   UNL     1      71.951  80.367  63.764  1.00  0.00    -0.504 OA
ATOM     16  H   UNL     1      71.263  80.390  64.433  1.00  0.00     0.293 HD
ENDBRANCH   9  15
ENDBRANCH   6   7
ENDBRANCH   3   6
ENDBRANCH   1   2
BRANCH   1  17
ATOM     17  C   UNL     1      76.964  84.136  70.159  1.00  0.00     0.010 C 
BRANCH  17  18
ATOM     18  C   UNL     1      75.776  84.805  70.904  1.00  0.00     0.001 C 
BRANCH  18  19
ATOM     19  C   UNL     1      74.963  85.782  70.014  1.00  0.00     0.000 C 
BRANCH  19  20
ATOM     20  C   UNL     1      74.849  87.198  70.649  1.00  0.00     0.003 C 
BRANCH  20  21
ATOM     21  C   UNL     1      75.849  88.258  70.082  1.00  0.00    -0.017 C 
ATOM     22  C   UNL     1      75.548  89.672  70.662  1.00  0.00     0.007 C 
ATOM     23  C   UNL     1      75.858  88.309  68.527  1.00  0.00     0.007 C 
ENDBRANCH  20  21
ENDBRANCH  19  20
ENDBRANCH  18  19
ENDBRANCH  17  18
ENDBRANCH   1  17
TORSDOF 10
ENDMDL
MODEL 2
REMARK VINA RESULT:    -6.175     22.206     26.399
REMARK INTER + INTRA:         -10.486
REMARK INTER:                  -9.599
REMARK INTRA:                  -0.887
REMARK UNBOUND:                -0.882
REMARK SMILES COc1cc(CNC(=O)CCCCCC(C)C)ccc1O
REMARK SMILES IDX 10 1 8 2 7 3 9 5 6 6 5 7 3 8 20 9 4 10 19 11 18 12 2 13 1 14
REMARK SMILES IDX 21 15 11 17 12 18 13 19 14 20 15 21 16 22 17 23
REMARK H PARENT 7 4 21 16
REMARK Flexibility Score: inf
ROOT
ATOM      1  C   UNL     1      93.646  97.055  76.097  1.00  0.00     0.100 C 
ENDROOT
BRANCH   1   2
ATOM      2  C   UNL     1      94.742  97.743  76.812  1.00  0.00     0.220 C 
ATOM      3  N   UNL     1      95.217  97.215  77.975  1.00  0.00    -0.352 N 
ATOM      4  H   UNL     1      94.681  96.441  78.341  1.00  0.00     0.163 HD
ATOM      5  O   UNL     1      95.242  98.778  76.308  1.00  0.00    -0.275 OA
BRANCH   3   6
ATOM      6  C   UNL     1      96.376  97.674  78.672  1.00  0.00     0.151 C 
BRANCH   6   7
ATOM      7  C   UNL     1      96.623  96.938  79.942  1.00  0.00    -0.025 A 
ATOM      8  C   UNL     1      95.977  95.204  81.562  1.00  0.00     0.160 A 
ATOM      9  C   UNL     1      97.130  95.490  82.324  1.00  0.00     0.157 A 
ATOM     10  C   UNL     1      95.721  95.942  80.387  1.00  0.00     0.056 A 
ATOM     11  C   UNL     1      98.020  96.496  81.904  1.00  0.00     0.050 A 
ATOM     12  C   UNL     1      97.772  97.210  80.720  1.00  0.00     0.009 A 
BRANCH   8  13
ATOM     13  O   UNL     1      95.088  94.242  81.963  1.00  0.00    -0.493 OA
ATOM     14  C   UNL     1      94.945  93.156  81.029  1.00  0.00     0.278 C 
ENDBRANCH   8  13
BRANCH   9  15
ATOM     15  O   UNL     1      97.385  94.788  83.456  1.00  0.00    -0.504 OA
ATOM     16  H   UNL     1      96.557  94.568  83.890  1.00  0.00     0.293 HD
ENDBRANCH   9  15
ENDBRANCH   6   7
ENDBRANCH   3   6
ENDBRANCH   1   2
BRANCH   1  17
ATOM     17  C   UNL     1      93.759  95.507  76.094  1.00  0.00     0.010 C 
BRANCH  17  18
ATOM     18  C   UNL     1      92.915  94.869  77.232  1.00  0.00     0.001 C 
BRANCH  18  19
ATOM     19  C   UNL     1      91.822  95.817  77.794  1.00  0.00     0.000 C 
BRANCH  19  20
ATOM     20  C   UNL     1      90.386  95.277  77.535  1.00  0.00     0.003 C 
BRANCH  20  21
ATOM     21  C   UNL     1      90.276  93.722  77.415  1.00  0.00    -0.017 C 
ATOM     22  C   UNL     1      89.719  93.310  76.020  1.00  0.00     0.007 C 
ATOM     23  C   UNL     1      89.412  93.088  78.543  1.00  0.00     0.007 C 
ENDBRANCH  20  21
ENDBRANCH  19  20
ENDBRANCH  18  19
ENDBRANCH  17  18
ENDBRANCH   1  17
TORSDOF 10
ENDMDL
MODEL 3
REMARK VINA RESULT:    -6.127     20.356     22.719
REMARK INTER + INTRA:         -10.411
REMARK INTER:                  -9.858
REMARK INTRA:                  -0.553
REMARK UNBOUND:                -0.882
REMARK SMILES COc1cc(CNC(=O)CCCCCC(C)C)ccc1O
REMARK SMILES IDX 10 1 8 2 7 3 9 5 6 6 5 7 3 8 20 9 4 10 19 11 18 12 2 13 1 14
REMARK SMILES IDX 21 15 11 17 12 18 13 19 14 20 15 21 16 22 17 23
REMARK H PARENT 7 4 21 16
REMARK Flexibility Score: inf
ROOT
ATOM      1  C   UNL     1      92.936  99.057  75.069  1.00  0.00     0.100 C 
ENDROOT
BRANCH   1   2
ATOM      2  C   UNL     1      92.924  99.675  73.726  1.00  0.00     0.220 C 
ATOM      3  N   UNL     1      91.799  99.595  72.962  1.00  0.00    -0.352 N 
ATOM      4  H   UNL     1      91.078  98.990  73.329  1.00  0.00     0.163 HD
ATOM      5  O   UNL     1      93.941 100.299  73.334  1.00  0.00    -0.275 OA
BRANCH   3   6
ATOM      6  C   UNL     1      91.590 100.288  71.731  1.00  0.00     0.151 C 
BRANCH   6   7
ATOM      7  C   UNL     1      90.567  99.643  70.864  1.00  0.00    -0.025 A 
ATOM      8  C   UNL     1      89.183  99.652  68.832  1.00  0.00     0.160 A 
ATOM      9  C   UNL     1      88.669  98.384  69.179  1.00  0.00     0.157 A 
ATOM     10  C   UNL     1      90.114 100.281  69.685  1.00  0.00     0.056 A 
ATOM     11  C   UNL     1      89.093  97.752  70.363  1.00  0.00     0.050 A 
ATOM     12  C   UNL     1      90.038  98.374  71.196  1.00  0.00     0.009 A 
BRANCH   8  13
ATOM     13  O   UNL     1      88.769 100.292  67.693  1.00  0.00    -0.493 OA
ATOM     14  C   UNL     1      88.858 101.728  67.769  1.00  0.00     0.278 C 
ENDBRANCH   8  13
BRANCH   9  15
ATOM     15  O   UNL     1      87.772  97.771  68.366  1.00  0.00    -0.504 OA
ATOM     16  H   UNL     1      87.930  98.037  67.458  1.00  0.00     0.293 HD
ENDBRANCH   9  15
ENDBRANCH   6   7
ENDBRANCH   3   6
ENDBRANCH   1   2
BRANCH   1  17
ATOM     17  C   UNL     1      94.101  98.058  75.302  1.00  0.00     0.010 C 
BRANCH  17  18
ATOM     18  C   UNL     1      93.879  97.208  76.583  1.00  0.00     0.001 C 
BRANCH  18  19
ATOM     19  C   UNL     1      92.761  96.143  76.429  1.00  0.00     0.000 C 
BRANCH  19  20
ATOM     20  C   UNL     1      91.837  96.075  77.680  1.00  0.00     0.003 C 
BRANCH  20  21
ATOM     21  C   UNL     1      90.938  94.799  77.768  1.00  0.00    -0.017 C 
ATOM     22  C   UNL     1      91.547  93.632  76.935  1.00  0.00     0.007 C 
ATOM     23  C   UNL     1      89.470  95.062  77.324  1.00  0.00     0.007 C 
ENDBRANCH  20  21
ENDBRANCH  19  20
ENDBRANCH  18  19
ENDBRANCH  17  18
ENDBRANCH   1  17
TORSDOF 10
ENDMDL
MODEL 4
REMARK VINA RESULT:    -5.709     21.545     24.367
REMARK INTER + INTRA:          -9.761
REMARK INTER:                  -9.128
REMARK INTRA:                  -0.633
REMARK UNBOUND:                -0.882
REMARK SMILES COc1cc(CNC(=O)CCCCCC(C)C)ccc1O
REMARK SMILES IDX 10 1 8 2 7 3 9 5 6 6 5 7 3 8 20 9 4 10 19 11 18 12 2 13 1 14
REMARK SMILES IDX 21 15 11 17 12 18 13 19 14 20 15 21 16 22 17 23
REMARK H PARENT 7 4 21 16
REMARK Flexibility Score: inf
ROOT
ATOM      1  C   UNL     1      93.618  99.915  74.726  1.00  0.00     0.100 C 
ENDROOT
BRANCH   1   2
ATOM      2  C   UNL     1      94.426  98.761  75.173  1.00  0.00     0.220 C 
ATOM      3  N   UNL     1      94.356  98.358  76.473  1.00  0.00    -0.352 N 
ATOM      4  H   UNL     1      93.841  98.977  77.082  1.00  0.00     0.163 HD
ATOM      5  O   UNL     1      95.129  98.148  74.332  1.00  0.00    -0.275 OA
BRANCH   3   6
ATOM      6  C   UNL     1      94.942  97.166  76.996  1.00  0.00     0.151 C 
BRANCH   6   7
ATOM      7  C   UNL     1      93.939  96.218  77.554  1.00  0.00    -0.025 A 
ATOM      8  C   UNL     1      93.293  94.541  79.232  1.00  0.00     0.160 A 
ATOM      9  C   UNL     1      92.007  94.464  78.657  1.00  0.00     0.157 A 
ATOM     10  C   UNL     1      94.257  95.403  78.666  1.00  0.00     0.056 A 
ATOM     11  C   UNL     1      91.689  95.251  77.535  1.00  0.00     0.050 A 
ATOM     12  C   UNL     1      92.645  96.125  76.991  1.00  0.00     0.009 A 
BRANCH   8  13
ATOM     13  O   UNL     1      93.630  93.768  80.313  1.00  0.00    -0.493 OA
ATOM     14  C   UNL     1      95.048  93.689  80.553  1.00  0.00     0.278 C 
ENDBRANCH   8  13
BRANCH   9  15
ATOM     15  O   UNL     1      91.075  93.637  79.192  1.00  0.00    -0.504 OA
ATOM     16  H   UNL     1      90.218  93.826  78.804  1.00  0.00     0.293 HD
ENDBRANCH   9  15
ENDBRANCH   6   7
ENDBRANCH   3   6
ENDBRANCH   1   2
BRANCH   1  17
ATOM     17  C   UNL     1      92.385  99.535  73.863  1.00  0.00     0.010 C 
BRANCH  17  18
ATOM     18  C   UNL     1      92.118 100.587  72.751  1.00  0.00     0.001 C 
BRANCH  18  19
ATOM     19  C   UNL     1      91.535  99.975  71.450  1.00  0.00     0.000 C 
BRANCH  19  20
ATOM     20  C   UNL     1      90.101 100.498  71.145  1.00  0.00     0.003 C 
BRANCH  20  21
ATOM     21  C   UNL     1      89.065  99.394  70.752  1.00  0.00    -0.017 C 
ATOM     22  C   UNL     1      89.626  97.973  71.056  1.00  0.00     0.007 C 
ATOM     23  C   UNL     1      88.620  99.486  69.264  1.00  0.00     0.007 C 
ENDBRANCH  20  21
ENDBRANCH  19  20
ENDBRANCH  18  19
ENDBRANCH  17  18
ENDBRANCH   1  17
TORSDOF 10
ENDMDL
MODEL 5
REMARK VINA RESULT:    -5.487      1.603      2.447
REMARK INTER + INTRA:          -9.417
REMARK INTER:                  -8.586
REMARK INTRA:                  -0.831
REMARK UNBOUND:                -0.882
REMARK SMILES COc1cc(CNC(=O)CCCCCC(C)C)ccc1O
REMARK SMILES IDX 10 1 8 2 7 3 9 5 6 6 5 7 3 8 20 9 4 10 19 11 18 12 2 13 1 14
REMARK SMILES IDX 21 15 11 17 12 18 13 19 14 20 15 21 16 22 17 23
REMARK H PARENT 7 4 21 16
REMARK Flexibility Score: inf
ROOT
ATOM      1  C   UNL     1      77.718  83.608  66.808  1.00  0.00     0.100 C 
ENDROOT
BRANCH   1   2
ATOM      2  C   UNL     1      77.438  83.042  65.472  1.00  0.00     0.220 C 
ATOM      3  N   UNL     1      76.783  81.851  65.373  1.00  0.00    -0.352 N 
ATOM      4  H   UNL     1      76.648  81.366  66.249  1.00  0.00     0.163 HD
ATOM      5  O   UNL     1      77.773  83.693  64.452  1.00  0.00    -0.275 OA
BRANCH   3   6
ATOM      6  C   UNL     1      76.298  81.278  64.158  1.00  0.00     0.151 C 
BRANCH   6   7
ATOM      7  C   UNL     1      74.819  81.361  64.022  1.00  0.00    -0.025 A 
ATOM      8  C   UNL     1      72.675  82.393  64.644  1.00  0.00     0.160 A 
ATOM      9  C   UNL     1      72.010  81.566  63.714  1.00  0.00     0.157 A 
ATOM     10  C   UNL     1      74.072  82.273  64.805  1.00  0.00     0.056 A 
ATOM     11  C   UNL     1      72.739  80.638  62.949  1.00  0.00     0.050 A 
ATOM     12  C   UNL     1      74.133  80.539  63.098  1.00  0.00     0.009 A 
BRANCH   8  13
ATOM     13  O   UNL     1      71.981  83.290  65.413  1.00  0.00    -0.493 OA
ATOM     14  C   UNL     1      71.737  82.838  66.758  1.00  0.00     0.278 C 
ENDBRANCH   8  13
BRANCH   9  15
ATOM     15  O   UNL     1      70.667  81.673  63.553  1.00  0.00    -0.504 OA
ATOM     16  H   UNL     1      70.319  80.844  63.216  1.00  0.00     0.293 HD
ENDBRANCH   9  15
ENDBRANCH   6   7
ENDBRANCH   3   6
ENDBRANCH   1   2
BRANCH   1  17
ATOM     17  C   UNL     1      77.554  85.149  66.895  1.00  0.00     0.010 C 
BRANCH  17  18
ATOM     18  C   UNL     1      78.315  85.738  68.115  1.00  0.00     0.001 C 
BRANCH  18  19
ATOM     19  C   UNL     1      77.752  87.102  68.593  1.00  0.00     0.000 C 
BRANCH  19  20
ATOM     20  C   UNL     1      77.075  87.002  69.991  1.00  0.00     0.003 C 
BRANCH  20  21
ATOM     21  C   UNL     1      75.763  86.152  70.030  1.00  0.00    -0.017 C 
ATOM     22  C   UNL     1      74.559  87.009  70.520  1.00  0.00     0.007 C 
ATOM     23  C   UNL     1      75.898  84.872  70.905  1.00  0.00     0.007 C 
ENDBRANCH  20  21
ENDBRANCH  19  20
ENDBRANCH  18  19
ENDBRANCH  17  18
ENDBRANCH   1  17
TORSDOF 10
ENDMDL
MODEL 6
REMARK VINA RESULT:    -5.474     25.260     27.574
REMARK INTER + INTRA:          -9.395
REMARK INTER:                  -8.740
REMARK INTRA:                  -0.655
REMARK UNBOUND:                -0.882
REMARK SMILES COc1cc(CNC(=O)CCCCCC(C)C)ccc1O
REMARK SMILES IDX 10 1 8 2 7 3 9 5 6 6 5 7 3 8 20 9 4 10 19 11 18 12 2 13 1 14
REMARK SMILES IDX 21 15 11 17 12 18 13 19 14 20 15 21 16 22 17 23
REMARK H PARENT 7 4 21 16
REMARK Flexibility Score: inf
ROOT
ATOM      1  C   UNL     1      98.124  81.030  84.196  1.00  0.00     0.100 C 
ENDROOT
BRANCH   1   2
ATOM      2  C   UNL     1      99.228  81.476  83.320  1.00  0.00     0.220 C 
ATOM      3  N   UNL     1      99.008  81.614  81.982  1.00  0.00    -0.352 N 
ATOM      4  H   UNL     1      98.116  81.265  81.660  1.00  0.00     0.163 HD
ATOM      5  O   UNL     1     100.336  81.761  83.836  1.00  0.00    -0.275 OA
BRANCH   3   6
ATOM      6  C   UNL     1      99.923  82.196  81.055  1.00  0.00     0.151 C 
BRANCH   6   7
ATOM      7  C   UNL     1      99.253  82.794  79.869  1.00  0.00    -0.025 A 
ATOM      8  C   UNL     1      99.294  83.442  77.497  1.00  0.00     0.160 A 
ATOM      9  C   UNL     1      97.953  83.870  77.593  1.00  0.00     0.157 A 
ATOM     10  C   UNL     1      99.941  82.925  78.639  1.00  0.00     0.056 A 
ATOM     11  C   UNL     1      97.267  83.769  78.817  1.00  0.00     0.050 A 
ATOM     12  C   UNL     1      97.909  83.230  79.945  1.00  0.00     0.009 A 
BRANCH   8  13
ATOM     13  O   UNL     1      99.986  83.550  76.319  1.00  0.00    -0.493 OA
ATOM     14  C   UNL     1     100.196  82.292  75.650  1.00  0.00     0.278 C 
ENDBRANCH   8  13
BRANCH   9  15
ATOM     15  O   UNL     1      97.322  84.371  76.501  1.00  0.00    -0.504 OA
ATOM     16  H   UNL     1      97.769  84.070  75.707  1.00  0.00     0.293 HD
ENDBRANCH   9  15
ENDBRANCH   6   7
ENDBRANCH   3   6
ENDBRANCH   1   2
BRANCH   1  17
ATOM     17  C   UNL     1      97.565  82.135  85.132  1.00  0.00     0.010 C 
BRANCH  17  18
ATOM     18  C   UNL     1      97.547  83.522  84.434  1.00  0.00     0.001 C 
BRANCH  18  19
ATOM     19  C   UNL     1      96.323  84.393  84.824  1.00  0.00     0.000 C 
BRANCH  19  20
ATOM     20  C   UNL     1      96.699  85.520  85.829  1.00  0.00     0.003 C 
BRANCH  20  21
ATOM     21  C   UNL     1      96.044  85.389  87.242  1.00  0.00    -0.017 C 
ATOM     22  C   UNL     1      95.900  86.784  87.919  1.00  0.00     0.007 C 
ATOM     23  C   UNL     1      96.820  84.419  88.180  1.00  0.00     0.007 C 
ENDBRANCH  20  21
ENDBRANCH  19  20
ENDBRANCH  18  19
ENDBRANCH  17  18
ENDBRANCH   1  17
TORSDOF 10
ENDMDL
MODEL 7
REMARK VINA RESULT:    -5.329     25.793     28.499
REMARK INTER + INTRA:          -9.170
REMARK INTER:                  -7.901
REMARK INTRA:                  -1.269
REMARK UNBOUND:                -0.882
REMARK SMILES COc1cc(CNC(=O)CCCCCC(C)C)ccc1O
REMARK SMILES IDX 10 1 8 2 7 3 9 5 6 6 5 7 3 8 20 9 4 10 19 11 18 12 2 13 1 14
REMARK SMILES IDX 21 15 11 17 12 18 13 19 14 20 15 21 16 22 17 23
REMARK H PARENT 7 4 21 16
REMARK Flexibility Score: inf
ROOT
ATOM      1  C   UNL     1      99.717  82.998  75.729  1.00  0.00     0.100 C 
ENDROOT
BRANCH   1   2
ATOM      2  C   UNL     1      98.949  82.699  76.955  1.00  0.00     0.220 C 
ATOM      3  N   UNL     1      98.735  83.687  77.870  1.00  0.00    -0.352 N 
ATOM      4  H   UNL     1      99.244  84.542  77.697  1.00  0.00     0.163 HD
ATOM      5  O   UNL     1      98.471  81.548  77.109  1.00  0.00    -0.275 OA
BRANCH   3   6
ATOM      6  C   UNL     1      97.873  83.586  79.003  1.00  0.00     0.151 C 
BRANCH   6   7
ATOM      7  C   UNL     1      98.577  83.134  80.234  1.00  0.00    -0.025 A 
ATOM      8  C   UNL     1      98.585  82.733  82.660  1.00  0.00     0.160 A 
ATOM      9  C   UNL     1      99.892  82.211  82.567  1.00  0.00     0.157 A 
ATOM     10  C   UNL     1      97.943  83.209  81.497  1.00  0.00     0.056 A 
ATOM     11  C   UNL     1     100.542  82.157  81.321  1.00  0.00     0.050 A 
ATOM     12  C   UNL     1      99.888  82.609  80.162  1.00  0.00     0.009 A 
BRANCH   8  13
ATOM     13  O   UNL     1      97.942  82.814  83.867  1.00  0.00    -0.493 OA
ATOM     14  C   UNL     1      97.157  84.011  84.031  1.00  0.00     0.278 C 
ENDBRANCH   8  13
BRANCH   9  15
ATOM     15  O   UNL     1     100.519  81.754  83.680  1.00  0.00    -0.504 OA
ATOM     16  H   UNL     1     100.736  80.826  83.567  1.00  0.00     0.293 HD
ENDBRANCH   9  15
ENDBRANCH   6   7
ENDBRANCH   3   6
ENDBRANCH   1   2
BRANCH   1  17
ATOM     17  C   UNL     1     100.620  84.257  75.832  1.00  0.00     0.010 C 
BRANCH  17  18
ATOM     18  C   UNL     1     101.915  83.967  76.639  1.00  0.00     0.001 C 
BRANCH  18  19
ATOM     19  C   UNL     1     102.797  82.855  76.011  1.00  0.00     0.000 C 
BRANCH  19  20
ATOM     20  C   UNL     1     103.738  82.190  77.057  1.00  0.00     0.003 C 
BRANCH  20  21
ATOM     21  C   UNL     1     103.034  81.710  78.368  1.00  0.00    -0.017 C 
ATOM     22  C   UNL     1     104.083  81.344  79.459  1.00  0.00     0.007 C 
ATOM     23  C   UNL     1     102.069  80.512  78.132  1.00  0.00     0.007 C 
ENDBRANCH  20  21
ENDBRANCH  19  20
ENDBRANCH  18  19
ENDBRANCH  17  18
ENDBRANCH   1  17
TORSDOF 10
ENDMDL
MODEL 8
REMARK VINA RESULT:    -5.219     10.751     12.868
REMARK INTER + INTRA:          -8.999
REMARK INTER:                  -7.073
REMARK INTRA:                  -1.926
REMARK UNBOUND:                -0.882
REMARK SMILES COc1cc(CNC(=O)CCCCCC(C)C)ccc1O
REMARK SMILES IDX 10 1 8 2 7 3 9 5 6 6 5 7 3 8 20 9 4 10 19 11 18 12 2 13 1 14
REMARK SMILES IDX 21 15 11 17 12 18 13 19 14 20 15 21 16 22 17 23
REMARK H PARENT 7 4 21 16
REMARK Flexibility Score: inf
ROOT
ATOM      1  C   UNL     1      63.561  83.603  76.667  1.00  0.00     0.100 C 
ENDROOT
BRANCH   1   2
ATOM      2  C   UNL     1      62.992  82.911  75.492  1.00  0.00     0.220 C 
ATOM      3  N   UNL     1      63.821  82.240  74.644  1.00  0.00    -0.352 N 
ATOM      4  H   UNL     1      64.807  82.379  74.814  1.00  0.00     0.163 HD
ATOM      5  O   UNL     1      61.748  82.920  75.323  1.00  0.00    -0.275 OA
BRANCH   3   6
ATOM      6  C   UNL     1      63.394  81.391  73.578  1.00  0.00     0.151 C 
BRANCH   6   7
ATOM      7  C   UNL     1      63.674  81.959  72.231  1.00  0.00    -0.025 A 
ATOM      8  C   UNL     1      63.196  83.609  70.472  1.00  0.00     0.160 A 
ATOM      9  C   UNL     1      64.250  83.083  69.695  1.00  0.00     0.157 A 
ATOM     10  C   UNL     1      62.902  83.032  71.726  1.00  0.00     0.056 A 
ATOM     11  C   UNL     1      65.006  81.999  70.176  1.00  0.00     0.050 A 
ATOM     12  C   UNL     1      64.724  81.444  71.436  1.00  0.00     0.009 A 
BRANCH   8  13
ATOM     13  O   UNL     1      62.434  84.652  70.013  1.00  0.00    -0.493 OA
ATOM     14  C   UNL     1      61.068  84.295  69.729  1.00  0.00     0.278 C 
ENDBRANCH   8  13
BRANCH   9  15
ATOM     15  O   UNL     1      64.538  83.629  68.487  1.00  0.00    -0.504 OA
ATOM     16  H   UNL     1      65.238  83.124  68.067  1.00  0.00     0.293 HD
ENDBRANCH   9  15
ENDBRANCH   6   7
ENDBRANCH   3   6
ENDBRANCH   1   2
BRANCH   1  17
ATOM     17  C   UNL     1      65.101  83.470  76.802  1.00  0.00     0.010 C 
BRANCH  17  18
ATOM     18  C   UNL     1      65.771  84.842  77.092  1.00  0.00     0.001 C 
BRANCH  18  19
ATOM     19  C   UNL     1      65.832  85.772  75.852  1.00  0.00     0.000 C 
BRANCH  19  20
ATOM     20  C   UNL     1      66.580  85.112  74.658  1.00  0.00     0.003 C 
BRANCH  20  21
ATOM     21  C   UNL     1      65.702  84.855  73.390  1.00  0.00    -0.017 C 
ATOM     22  C   UNL     1      66.579  84.828  72.103  1.00  0.00     0.007 C 
ATOM     23  C   UNL     1      64.552  85.892  73.231  1.00  0.00     0.007 C 
ENDBRANCH  20  21
ENDBRANCH  19  20
ENDBRANCH  18  19
ENDBRANCH  17  18
ENDBRANCH   1  17
TORSDOF 10
ENDMDL
MODEL 9
REMARK VINA RESULT:    -5.130     14.440     17.161
REMARK INTER + INTRA:          -8.861
REMARK INTER:                  -8.138
REMARK INTRA:                  -0.724
REMARK UNBOUND:                -0.882
REMARK SMILES COc1cc(CNC(=O)CCCCCC(C)C)ccc1O
REMARK SMILES IDX 10 1 8 2 7 3 9 5 6 6 5 7 3 8 20 9 4 10 19 11 18 12 2 13 1 14
REMARK SMILES IDX 21 15 11 17 12 18 13 19 14 20 15 21 16 22 17 23
REMARK H PARENT 7 4 21 16
REMARK Flexibility Score: inf
ROOT
ATOM      1  C   UNL     1      66.586  85.031  77.444  1.00  0.00     0.100 C 
ENDROOT
BRANCH   1   2
ATOM      2  C   UNL     1      66.536  85.102  78.919  1.00  0.00     0.220 C 
ATOM      3  N   UNL     1      66.892  84.011  79.654  1.00  0.00    -0.352 N 
ATOM      4  H   UNL     1      67.043  83.169  79.118  1.00  0.00     0.163 HD
ATOM      5  O   UNL     1      66.206  86.183  79.466  1.00  0.00    -0.275 OA
BRANCH   3   6
ATOM      6  C   UNL     1      67.055  83.994  81.072  1.00  0.00     0.151 C 
BRANCH   6   7
ATOM      7  C   UNL     1      66.155  83.023  81.752  1.00  0.00    -0.025 A 
ATOM      8  C   UNL     1      65.812  80.874  82.897  1.00  0.00     0.160 A 
ATOM      9  C   UNL     1      64.457  81.205  83.107  1.00  0.00     0.157 A 
ATOM     10  C   UNL     1      66.648  81.776  82.205  1.00  0.00     0.056 A 
ATOM     11  C   UNL     1      63.950  82.430  82.637  1.00  0.00     0.050 A 
ATOM     12  C   UNL     1      64.793  83.335  81.970  1.00  0.00     0.009 A 
BRANCH   8  13
ATOM     13  O   UNL     1      66.321  79.677  83.329  1.00  0.00    -0.493 OA
ATOM     14  C   UNL     1      66.742  78.805  82.262  1.00  0.00     0.278 C 
ENDBRANCH   8  13
BRANCH   9  15
ATOM     15  O   UNL     1      63.644  80.343  83.768  1.00  0.00    -0.504 OA
ATOM     16  H   UNL     1      62.734  80.639  83.693  1.00  0.00     0.293 HD
ENDBRANCH   9  15
ENDBRANCH   6   7
ENDBRANCH   3   6
ENDBRANCH   1   2
BRANCH   1  17
ATOM     17  C   UNL     1      65.668  83.943  76.826  1.00  0.00     0.010 C 
BRANCH  17  18
ATOM     18  C   UNL     1      64.185  84.140  77.244  1.00  0.00     0.001 C 
BRANCH  18  19
ATOM     19  C   UNL     1      63.178  83.439  76.293  1.00  0.00     0.000 C 
BRANCH  19  20
ATOM     20  C   UNL     1      63.880  82.802  75.059  1.00  0.00     0.003 C 
BRANCH  20  21
ATOM     21  C   UNL     1      63.025  81.747  74.285  1.00  0.00    -0.017 C 
ATOM     22  C   UNL     1      63.817  81.170  73.074  1.00  0.00     0.007 C 
ATOM     23  C   UNL     1      61.656  82.311  73.807  1.00  0.00     0.007 C 
ENDBRANCH  20  21
ENDBRANCH  19  20
ENDBRANCH  18  19
ENDBRANCH  17  18
ENDBRANCH   1  17
TORSDOF 10
ENDMDL
MODEL 10
REMARK VINA RESULT:    -5.128      3.192      8.174
REMARK INTER + INTRA:          -8.858
REMARK INTER:                  -8.264
REMARK INTRA:                  -0.594
REMARK UNBOUND:                -0.882
REMARK SMILES COc1cc(CNC(=O)CCCCCC(C)C)ccc1O
REMARK SMILES IDX 10 1 8 2 7 3 9 5 6 6 5 7 3 8 20 9 4 10 19 11 18 12 2 13 1 14
REMARK SMILES IDX 21 15 11 17 12 18 13 19 14 20 15 21 16 22 17 23
REMARK H PARENT 7 4 21 16
REMARK Flexibility Score: inf
ROOT
ATOM      1  C   UNL     1      76.591  83.870  67.811  1.00  0.00     0.100 C 
ENDROOT
BRANCH   1   2
ATOM      2  C   UNL     1      77.019  84.752  68.917  1.00  0.00     0.220 C 
ATOM      3  N   UNL     1      77.104  86.096  68.708  1.00  0.00    -0.352 N 
ATOM      4  H   UNL     1      76.989  86.384  67.747  1.00  0.00     0.163 HD
ATOM      5  O   UNL     1      77.256  84.246  70.041  1.00  0.00    -0.275 OA
BRANCH   3   6
ATOM      6  C   UNL     1      77.334  87.072  69.724  1.00  0.00     0.151 C 
BRANCH   6   7
ATOM      7  C   UNL     1      76.099  87.800  70.125  1.00  0.00    -0.025 A 
ATOM      8  C   UNL     1      74.891  89.910  70.490  1.00  0.00     0.160 A 
ATOM      9  C   UNL     1      73.729  89.184  70.825  1.00  0.00     0.157 A 
ATOM     10  C   UNL     1      76.074  89.214  70.161  1.00  0.00     0.056 A 
ATOM     11  C   UNL     1      73.751  87.778  70.819  1.00  0.00     0.050 A 
ATOM     12  C   UNL     1      74.924  87.090  70.467  1.00  0.00     0.009 A 
BRANCH   8  13
ATOM     13  O   UNL     1      74.897  91.281  70.509  1.00  0.00    -0.493 OA
ATOM     14  C   UNL     1      75.673  91.845  71.584  1.00  0.00     0.278 C 
ENDBRANCH   8  13
BRANCH   9  15
ATOM     15  O   UNL     1      72.588  89.844  71.146  1.00  0.00    -0.504 OA
ATOM     16  H   UNL     1      72.666  90.765  70.887  1.00  0.00     0.293 HD
ENDBRANCH   9  15
ENDBRANCH   6   7
ENDBRANCH   3   6
ENDBRANCH   1   2
BRANCH   1  17
ATOM     17  C   UNL     1      77.717  83.517  66.803  1.00  0.00     0.010 C 
BRANCH  17  18
ATOM     18  C   UNL     1      77.162  82.761  65.565  1.00  0.00     0.001 C 
BRANCH  18  19
ATOM     19  C   UNL     1      76.151  81.642  65.929  1.00  0.00     0.000 C 
BRANCH  19  20
ATOM     20  C   UNL     1      75.246  81.252  64.724  1.00  0.00     0.003 C 
BRANCH  20  21
ATOM     21  C   UNL     1      73.780  80.858  65.099  1.00  0.00    -0.017 C 
ATOM     22  C   UNL     1      72.977  80.436  63.833  1.00  0.00     0.007 C 
ATOM     23  C   UNL     1      73.026  81.988  65.857  1.00  0.00     0.007 C 
ENDBRANCH  20  21
ENDBRANCH  19  20
ENDBRANCH  18  19
ENDBRANCH  17  18
ENDBRANCH   1  17
TORSDOF 10
ENDMDL
