MODEL 1
REMARK VINA RESULT:    -6.693      0.000      0.000
REMARK INTER + INTRA:         -11.632
REMARK INTER:                 -10.802
REMARK INTRA:                  -0.831
REMARK UNBOUND:                -0.831
REMARK SMILES COc1cc(CNC(=O)CCCCCCC(C)C)ccc1O
REMARK SMILES IDX 11 1 10 2 8 3 7 4 9 6 6 7 5 8 3 9 21 10 4 11 20 12 19 13
REMARK SMILES IDX 2 14 1 15 22 16 12 18 13 19 14 20 15 21 16 22 17 23 18 24
REMARK H PARENT 7 5 22 17
REMARK Flexibility Score: inf
ROOT
ATOM      1  C   UNL     1      93.448  94.306  76.855  1.00  0.00     0.010 C 
ENDROOT
BRANCH   1   2
ATOM      2  C   UNL     1      92.179  94.867  76.157  1.00  0.00     0.100 C 
BRANCH   2   3
ATOM      3  C   UNL     1      90.939  94.150  76.533  1.00  0.00     0.220 C 
ATOM      4  N   UNL     1      91.006  92.955  77.188  1.00  0.00    -0.352 N 
ATOM      5  H   UNL     1      91.942  92.609  77.339  1.00  0.00     0.163 HD
ATOM      6  O   UNL     1      89.833  94.677  76.259  1.00  0.00    -0.275 OA
BRANCH   4   7
ATOM      7  C   UNL     1      89.880  92.203  77.652  1.00  0.00     0.151 C 
BRANCH   7   8
ATOM      8  C   UNL     1      89.712  90.903  76.946  1.00  0.00    -0.025 A 
ATOM      9  C   UNL     1      89.078  89.639  74.934  1.00  0.00     0.160 A 
ATOM     10  C   UNL     1      89.430  88.433  75.578  1.00  0.00     0.157 A 
ATOM     11  C   UNL     1      89.203  90.861  75.628  1.00  0.00     0.056 A 
ATOM     12  C   UNL     1      89.900  88.459  76.904  1.00  0.00     0.050 A 
ATOM     13  C   UNL     1      90.051  89.685  77.580  1.00  0.00     0.009 A 
BRANCH   9  14
ATOM     14  O   UNL     1      88.582  89.622  73.659  1.00  0.00    -0.493 OA
ATOM     15  C   UNL     1      87.956  90.856  73.263  1.00  0.00     0.278 C 
ENDBRANCH   9  14
BRANCH  10  16
ATOM     16  O   UNL     1      89.318  87.241  74.935  1.00  0.00    -0.504 OA
ATOM     17  H   UNL     1      88.974  87.387  74.050  1.00  0.00     0.293 HD
ENDBRANCH  10  16
ENDBRANCH   7   8
ENDBRANCH   4   7
ENDBRANCH   2   3
ENDBRANCH   1   2
BRANCH   1  18
ATOM     18  C   UNL     1      94.603  94.040  75.848  1.00  0.00     0.001 C 
BRANCH  18  19
ATOM     19  C   UNL     1      96.013  94.380  76.408  1.00  0.00     0.000 C 
BRANCH  19  20
ATOM     20  C   UNL     1      96.138  94.002  77.911  1.00  0.00     0.000 C 
BRANCH  20  21
ATOM     21  C   UNL     1      96.347  95.216  78.858  1.00  0.00     0.003 C 
BRANCH  21  22
ATOM     22  C   UNL     1      95.524  95.154  80.186  1.00  0.00    -0.017 C 
ATOM     23  C   UNL     1      95.896  96.346  81.113  1.00  0.00     0.007 C 
ATOM     24  C   UNL     1      95.668  93.805  80.949  1.00  0.00     0.007 C 
ENDBRANCH  21  22
ENDBRANCH  20  21
ENDBRANCH  19  20
ENDBRANCH  18  19
ENDBRANCH   1  18
TORSDOF 11
ENDMDL
MODEL 2
REMARK VINA RESULT:    -6.329      3.518      8.746
REMARK INTER + INTRA:         -11.044
REMARK INTER:                 -10.092
REMARK INTRA:                  -0.951
REMARK UNBOUND:                -0.831
REMARK SMILES COc1cc(CNC(=O)CCCCCCC(C)C)ccc1O
REMARK SMILES IDX 11 1 10 2 8 3 7 4 9 6 6 7 5 8 3 9 21 10 4 11 20 12 19 13
REMARK SMILES IDX 2 14 1 15 22 16 12 18 13 19 14 20 15 21 16 22 17 23 18 24
REMARK H PARENT 7 5 22 17
REMARK Flexibility Score: inf
ROOT
ATOM      1  C   UNL     1      92.885  94.023  76.405  1.00  0.00     0.010 C 
ENDROOT
BRANCH   1   2
ATOM      2  C   UNL     1      94.089  93.708  75.475  1.00  0.00     0.100 C 
BRANCH   2   3
ATOM      3  C   UNL     1      95.379  94.210  75.998  1.00  0.00     0.220 C 
ATOM      4  N   UNL     1      95.404  95.107  77.026  1.00  0.00    -0.352 N 
ATOM      5  H   UNL     1      94.494  95.410  77.342  1.00  0.00     0.163 HD
ATOM      6  O   UNL     1      96.443  93.775  75.494  1.00  0.00    -0.275 OA
BRANCH   4   7
ATOM      7  C   UNL     1      96.587  95.616  77.650  1.00  0.00     0.151 C 
BRANCH   7   8
ATOM      8  C   UNL     1      96.420  95.867  79.108  1.00  0.00    -0.025 A 
ATOM      9  C   UNL     1      95.559  95.170  81.303  1.00  0.00     0.160 A 
ATOM     10  C   UNL     1      96.136  96.315  81.895  1.00  0.00     0.157 A 
ATOM     11  C   UNL     1      95.690  94.965  79.914  1.00  0.00     0.056 A 
ATOM     12  C   UNL     1      96.832  97.241  81.097  1.00  0.00     0.050 A 
ATOM     13  C   UNL     1      96.983  97.014  79.715  1.00  0.00     0.009 A 
BRANCH   9  14
ATOM     14  O   UNL     1      94.846  94.284  82.064  1.00  0.00    -0.493 OA
ATOM     15  C   UNL     1      95.585  93.102  82.422  1.00  0.00     0.278 C 
ENDBRANCH   9  14
BRANCH  10  16
ATOM     16  O   UNL     1      96.024  96.540  83.231  1.00  0.00    -0.504 OA
ATOM     17  H   UNL     1      95.618  97.397  83.378  1.00  0.00     0.293 HD
ENDBRANCH  10  16
ENDBRANCH   7   8
ENDBRANCH   4   7
ENDBRANCH   2   3
ENDBRANCH   1   2
BRANCH   1  18
ATOM     18  C   UNL     1      91.524  93.915  75.660  1.00  0.00     0.001 C 
BRANCH  18  19
ATOM     19  C   UNL     1      90.314  94.439  76.485  1.00  0.00     0.000 C 
BRANCH  19  20
ATOM     20  C   UNL     1      89.305  93.301  76.807  1.00  0.00     0.000 C 
BRANCH  20  21
ATOM     21  C   UNL     1      89.951  92.038  77.441  1.00  0.00     0.003 C 
BRANCH  21  22
ATOM     22  C   UNL     1      89.482  90.684  76.815  1.00  0.00    -0.017 C 
ATOM     23  C   UNL     1      90.709  89.815  76.419  1.00  0.00     0.007 C 
ATOM     24  C   UNL     1      88.521  90.856  75.601  1.00  0.00     0.007 C 
ENDBRANCH  21  22
ENDBRANCH  20  21
ENDBRANCH  19  20
ENDBRANCH  18  19
ENDBRANCH   1  18
TORSDOF 11
ENDMDL
MODEL 3
REMARK VINA RESULT:    -6.097      3.073      8.532
REMARK INTER + INTRA:         -10.670
REMARK INTER:                  -9.692
REMARK INTRA:                  -0.977
REMARK UNBOUND:                -0.831
REMARK SMILES COc1cc(CNC(=O)CCCCCCC(C)C)ccc1O
REMARK SMILES IDX 11 1 10 2 8 3 7 4 9 6 6 7 5 8 3 9 21 10 4 11 20 12 19 13
REMARK SMILES IDX 2 14 1 15 22 16 12 18 13 19 14 20 15 21 16 22 17 23 18 24
REMARK H PARENT 7 5 22 17
REMARK Flexibility Score: inf
ROOT
ATOM      1  C   UNL     1      90.274  93.628  75.977  1.00  0.00     0.010 C 
ENDROOT
BRANCH   1   2
ATOM      2  C   UNL     1      91.357  94.644  76.434  1.00  0.00     0.100 C 
BRANCH   2   3
ATOM      3  C   UNL     1      92.739  94.167  76.205  1.00  0.00     0.220 C 
ATOM      4  N   UNL     1      93.736  95.054  75.917  1.00  0.00    -0.352 N 
ATOM      5  H   UNL     1      93.434  96.014  75.837  1.00  0.00     0.163 HD
ATOM      6  O   UNL     1      92.976  92.938  76.305  1.00  0.00    -0.275 OA
BRANCH   4   7
ATOM      7  C   UNL     1      95.115  94.716  75.734  1.00  0.00     0.151 C 
BRANCH   7   8
ATOM      8  C   UNL     1      95.977  95.130  76.875  1.00  0.00    -0.025 A 
ATOM      9  C   UNL     1      96.541  95.021  79.266  1.00  0.00     0.160 A 
ATOM     10  C   UNL     1      97.641  95.879  79.048  1.00  0.00     0.157 A 
ATOM     11  C   UNL     1      95.708  94.669  78.184  1.00  0.00     0.056 A 
ATOM     12  C   UNL     1      97.895  96.377  77.757  1.00  0.00     0.050 A 
ATOM     13  C   UNL     1      97.077  95.997  76.676  1.00  0.00     0.009 A 
BRANCH   9  14
ATOM     14  O   UNL     1      96.262  94.563  80.525  1.00  0.00    -0.493 OA
ATOM     15  C   UNL     1      95.294  95.361  81.231  1.00  0.00     0.278 C 
ENDBRANCH   9  14
BRANCH  10  16
ATOM     16  O   UNL     1      98.460  96.237  80.072  1.00  0.00    -0.504 OA
ATOM     17  H   UNL     1      98.695  97.164  79.985  1.00  0.00     0.293 HD
ENDBRANCH  10  16
ENDBRANCH   7   8
ENDBRANCH   4   7
ENDBRANCH   2   3
ENDBRANCH   1   2
BRANCH   1  18
ATOM     18  C   UNL     1      89.529  92.983  77.180  1.00  0.00     0.001 C 
BRANCH  18  19
ATOM     19  C   UNL     1      90.327  91.840  77.870  1.00  0.00     0.000 C 
BRANCH  19  20
ATOM     20  C   UNL     1      89.734  90.443  77.530  1.00  0.00     0.000 C 
BRANCH  20  21
ATOM     21  C   UNL     1      90.516  89.669  76.433  1.00  0.00     0.003 C 
BRANCH  21  22
ATOM     22  C   UNL     1      90.305  90.209  74.980  1.00  0.00    -0.017 C 
ATOM     23  C   UNL     1      89.343  89.278  74.189  1.00  0.00     0.007 C 
ATOM     24  C   UNL     1      91.632  90.419  74.192  1.00  0.00     0.007 C 
ENDBRANCH  21  22
ENDBRANCH  20  21
ENDBRANCH  19  20
ENDBRANCH  18  19
ENDBRANCH   1  18
TORSDOF 11
ENDMDL
MODEL 4
REMARK VINA RESULT:    -5.789      1.689      2.885
REMARK INTER + INTRA:         -10.172
REMARK INTER:                  -9.467
REMARK INTRA:                  -0.706
REMARK UNBOUND:                -0.831
REMARK SMILES COc1cc(CNC(=O)CCCCCCC(C)C)ccc1O
REMARK SMILES IDX 11 1 10 2 8 3 7 4 9 6 6 7 5 8 3 9 21 10 4 11 20 12 19 13
REMARK SMILES IDX 2 14 1 15 22 16 12 18 13 19 14 20 15 21 16 22 17 23 18 24
REMARK H PARENT 7 5 22 17
REMARK Flexibility Score: inf
ROOT
ATOM      1  C   UNL     1      94.600  94.399  78.609  1.00  0.00     0.010 C 
ENDROOT
BRANCH   1   2
ATOM      2  C   UNL     1      94.881  94.099  77.111  1.00  0.00     0.100 C 
BRANCH   2   3
ATOM      3  C   UNL     1      93.649  93.953  76.303  1.00  0.00     0.220 C 
ATOM      4  N   UNL     1      92.428  94.211  76.855  1.00  0.00    -0.352 N 
ATOM      5  H   UNL     1      92.452  94.455  77.834  1.00  0.00     0.163 HD
ATOM      6  O   UNL     1      93.756  93.612  75.100  1.00  0.00    -0.275 OA
BRANCH   4   7
ATOM      7  C   UNL     1      91.179  94.160  76.157  1.00  0.00     0.151 C 
BRANCH   7   8
ATOM      8  C   UNL     1      90.652  92.777  75.998  1.00  0.00    -0.025 A 
ATOM      9  C   UNL     1      89.735  91.000  74.567  1.00  0.00     0.160 A 
ATOM     10  C   UNL     1      89.688  90.128  75.676  1.00  0.00     0.157 A 
ATOM     11  C   UNL     1      90.198  92.321  74.739  1.00  0.00     0.056 A 
ATOM     12  C   UNL     1      90.100  90.582  76.942  1.00  0.00     0.050 A 
ATOM     13  C   UNL     1      90.589  91.894  77.101  1.00  0.00     0.009 A 
BRANCH   9  14
ATOM     14  O   UNL     1      89.299  90.580  73.340  1.00  0.00    -0.493 OA
ATOM     15  C   UNL     1      87.937  90.945  73.052  1.00  0.00     0.278 C 
ENDBRANCH   9  14
BRANCH  10  16
ATOM     16  O   UNL     1      89.245  88.850  75.540  1.00  0.00    -0.504 OA
ATOM     17  H   UNL     1      88.345  88.858  75.206  1.00  0.00     0.293 HD
ENDBRANCH  10  16
ENDBRANCH   7   8
ENDBRANCH   4   7
ENDBRANCH   2   3
ENDBRANCH   1   2
BRANCH   1  18
ATOM     18  C   UNL     1      95.898  94.380  79.465  1.00  0.00     0.001 C 
BRANCH  18  19
ATOM     19  C   UNL     1      95.674  93.920  80.933  1.00  0.00     0.000 C 
BRANCH  19  20
ATOM     20  C   UNL     1      95.873  95.091  81.936  1.00  0.00     0.000 C 
BRANCH  20  21
ATOM     21  C   UNL     1      97.080  96.013  81.609  1.00  0.00     0.003 C 
BRANCH  21  22
ATOM     22  C   UNL     1      97.018  97.427  82.274  1.00  0.00    -0.017 C 
ATOM     23  C   UNL     1      96.393  97.333  83.694  1.00  0.00     0.007 C 
ATOM     24  C   UNL     1      96.267  98.488  81.417  1.00  0.00     0.007 C 
ENDBRANCH  21  22
ENDBRANCH  20  21
ENDBRANCH  19  20
ENDBRANCH  18  19
ENDBRANCH   1  18
TORSDOF 11
ENDMDL
MODEL 5
REMARK VINA RESULT:    -5.772     16.542     19.361
REMARK INTER + INTRA:         -10.146
REMARK INTER:                  -9.267
REMARK INTRA:                  -0.880
REMARK UNBOUND:                -0.831
REMARK SMILES COc1cc(CNC(=O)CCCCCCC(C)C)ccc1O
REMARK SMILES IDX 11 1 10 2 8 3 7 4 9 6 6 7 5 8 3 9 21 10 4 11 20 12 19 13
REMARK SMILES IDX 2 14 1 15 22 16 12 18 13 19 14 20 15 21 16 22 17 23 18 24
REMARK H PARENT 7 5 22 17
REMARK Flexibility Score: inf
ROOT
ATOM      1  C   UNL     1      77.505  88.722  64.047  1.00  0.00     0.010 C 
ENDROOT
BRANCH   1   2
ATOM      2  C   UNL     1      76.732  89.851  64.783  1.00  0.00     0.100 C 
BRANCH   2   3
ATOM      3  C   UNL     1      77.085  91.208  64.308  1.00  0.00     0.220 C 
ATOM      4  N   UNL     1      76.539  92.309  64.900  1.00  0.00    -0.352 N 
ATOM      5  H   UNL     1      75.868  92.107  65.628  1.00  0.00     0.163 HD
ATOM      6  O   UNL     1      77.912  91.320  63.371  1.00  0.00    -0.275 OA
BRANCH   4   7
ATOM      7  C   UNL     1      76.848  93.666  64.566  1.00  0.00     0.151 C 
BRANCH   7   8
ATOM      8  C   UNL     1      77.727  94.331  65.567  1.00  0.00    -0.025 A 
ATOM      9  C   UNL     1      78.122  95.120  67.863  1.00  0.00     0.160 A 
ATOM     10  C   UNL     1      79.412  95.559  67.492  1.00  0.00     0.157 A 
ATOM     11  C   UNL     1      77.284  94.528  66.895  1.00  0.00     0.056 A 
ATOM     12  C   UNL     1      79.849  95.404  66.164  1.00  0.00     0.050 A 
ATOM     13  C   UNL     1      79.018  94.785  65.210  1.00  0.00     0.009 A 
BRANCH   9  14
ATOM     14  O   UNL     1      77.672  95.301  69.142  1.00  0.00    -0.493 OA
ATOM     15  C   UNL     1      76.526  96.167  69.236  1.00  0.00     0.278 C 
ENDBRANCH   9  14
BRANCH  10  16
ATOM     16  O   UNL     1      80.240  96.134  68.403  1.00  0.00    -0.504 OA
ATOM     17  H   UNL     1      79.952  97.034  68.574  1.00  0.00     0.293 HD
ENDBRANCH  10  16
ENDBRANCH   7   8
ENDBRANCH   4   7
ENDBRANCH   2   3
ENDBRANCH   1   2
BRANCH   1  18
ATOM     18  C   UNL     1      77.910  87.567  65.006  1.00  0.00     0.001 C 
BRANCH  18  19
ATOM     19  C   UNL     1      78.029  88.000  66.495  1.00  0.00     0.000 C 
BRANCH  19  20
ATOM     20  C   UNL     1      77.891  86.787  67.457  1.00  0.00     0.000 C 
BRANCH  20  21
ATOM     21  C   UNL     1      78.054  85.404  66.766  1.00  0.00     0.003 C 
BRANCH  21  22
ATOM     22  C   UNL     1      76.918  84.379  67.086  1.00  0.00    -0.017 C 
ATOM     23  C   UNL     1      75.650  84.693  66.243  1.00  0.00     0.007 C 
ATOM     24  C   UNL     1      76.559  84.295  68.599  1.00  0.00     0.007 C 
ENDBRANCH  21  22
ENDBRANCH  20  21
ENDBRANCH  19  20
ENDBRANCH  18  19
ENDBRANCH   1  18
TORSDOF 11
ENDMDL
MODEL 6
REMARK VINA RESULT:    -5.650     18.523     21.989
REMARK INTER + INTRA:          -9.949
REMARK INTER:                  -8.401
REMARK INTRA:                  -1.548
REMARK UNBOUND:                -0.831
REMARK SMILES COc1cc(CNC(=O)CCCCCCC(C)C)ccc1O
REMARK SMILES IDX 11 1 10 2 8 3 7 4 9 6 6 7 5 8 3 9 21 10 4 11 20 12 19 13
REMARK SMILES IDX 2 14 1 15 22 16 12 18 13 19 14 20 15 21 16 22 17 23 18 24
REMARK H PARENT 7 5 22 17
REMARK Flexibility Score: inf
ROOT
ATOM      1  C   UNL     1      77.864  88.026  64.100  1.00  0.00     0.010 C 
ENDROOT
BRANCH   1   2
ATOM      2  C   UNL     1      76.938  86.949  63.470  1.00  0.00     0.100 C 
BRANCH   2   3
ATOM      3  C   UNL     1      77.235  85.576  63.936  1.00  0.00     0.220 C 
ATOM      4  N   UNL     1      76.234  84.658  64.059  1.00  0.00    -0.352 N 
ATOM      5  H   UNL     1      75.311  85.011  63.852  1.00  0.00     0.163 HD
ATOM      6  O   UNL     1      78.427  85.272  64.191  1.00  0.00    -0.275 OA
BRANCH   4   7
ATOM      7  C   UNL     1      76.409  83.290  64.443  1.00  0.00     0.151 C 
BRANCH   7   8
ATOM      8  C   UNL     1      75.143  82.508  64.424  1.00  0.00    -0.025 A 
ATOM      9  C   UNL     1      72.691  82.430  64.247  1.00  0.00     0.160 A 
ATOM     10  C   UNL     1      72.727  81.021  64.342  1.00  0.00     0.157 A 
ATOM     11  C   UNL     1      73.895  83.162  64.308  1.00  0.00     0.056 A 
ATOM     12  C   UNL     1      73.959  80.361  64.497  1.00  0.00     0.050 A 
ATOM     13  C   UNL     1      75.160  81.097  64.527  1.00  0.00     0.009 A 
BRANCH   9  14
ATOM     14  O   UNL     1      71.494  83.084  64.136  1.00  0.00    -0.493 OA
ATOM     15  C   UNL     1      71.088  83.759  65.341  1.00  0.00     0.278 C 
ENDBRANCH   9  14
BRANCH  10  16
ATOM     16  O   UNL     1      71.582  80.290  64.288  1.00  0.00    -0.504 OA
ATOM     17  H   UNL     1      71.778  79.375  64.500  1.00  0.00     0.293 HD
ENDBRANCH  10  16
ENDBRANCH   7   8
ENDBRANCH   4   7
ENDBRANCH   2   3
ENDBRANCH   1   2
BRANCH   1  18
ATOM     18  C   UNL     1      77.374  88.470  65.508  1.00  0.00     0.001 C 
BRANCH  18  19
ATOM     19  C   UNL     1      78.274  87.968  66.672  1.00  0.00     0.000 C 
BRANCH  19  20
ATOM     20  C   UNL     1      77.653  86.732  67.382  1.00  0.00     0.000 C 
BRANCH  20  21
ATOM     21  C   UNL     1      76.100  86.737  67.430  1.00  0.00     0.003 C 
BRANCH  21  22
ATOM     22  C   UNL     1      75.445  85.317  67.441  1.00  0.00    -0.017 C 
ATOM     23  C   UNL     1      74.060  85.363  68.146  1.00  0.00     0.007 C 
ATOM     24  C   UNL     1      76.345  84.218  68.079  1.00  0.00     0.007 C 
ENDBRANCH  21  22
ENDBRANCH  20  21
ENDBRANCH  19  20
ENDBRANCH  18  19
ENDBRANCH   1  18
TORSDOF 11
ENDMDL
MODEL 7
REMARK VINA RESULT:    -5.621      2.459      3.653
REMARK INTER + INTRA:          -9.901
REMARK INTER:                  -9.092
REMARK INTRA:                  -0.809
REMARK UNBOUND:                -0.831
REMARK SMILES COc1cc(CNC(=O)CCCCCCC(C)C)ccc1O
REMARK SMILES IDX 11 1 10 2 8 3 7 4 9 6 6 7 5 8 3 9 21 10 4 11 20 12 19 13
REMARK SMILES IDX 2 14 1 15 22 16 12 18 13 19 14 20 15 21 16 22 17 23 18 24
REMARK H PARENT 7 5 22 17
REMARK Flexibility Score: inf
ROOT
ATOM      1  C   UNL     1      94.470  94.329  78.633  1.00  0.00     0.010 C 
ENDROOT
BRANCH   1   2
ATOM      2  C   UNL     1      94.398  94.100  77.098  1.00  0.00     0.100 C 
BRANCH   2   3
ATOM      3  C   UNL     1      93.014  93.951  76.593  1.00  0.00     0.220 C 
ATOM      4  N   UNL     1      92.314  92.804  76.829  1.00  0.00    -0.352 N 
ATOM      5  H   UNL     1      92.831  92.089  77.318  1.00  0.00     0.163 HD
ATOM      6  O   UNL     1      92.495  94.909  75.969  1.00  0.00    -0.275 OA
BRANCH   4   7
ATOM      7  C   UNL     1      90.956  92.571  76.442  1.00  0.00     0.151 C 
BRANCH   7   8
ATOM      8  C   UNL     1      90.813  92.163  75.017  1.00  0.00    -0.025 A 
ATOM      9  C   UNL     1      89.437  91.951  72.990  1.00  0.00     0.160 A 
ATOM     10  C   UNL     1      90.546  91.428  72.289  1.00  0.00     0.157 A 
ATOM     11  C   UNL     1      89.574  92.296  74.351  1.00  0.00     0.056 A 
ATOM     12  C   UNL     1      91.774  91.254  72.952  1.00  0.00     0.050 A 
ATOM     13  C   UNL     1      91.912  91.628  74.303  1.00  0.00     0.009 A 
BRANCH   9  14
ATOM     14  O   UNL     1      88.227  92.088  72.366  1.00  0.00    -0.493 OA
ATOM     15  C   UNL     1      87.352  90.960  72.544  1.00  0.00     0.278 C 
ENDBRANCH   9  14
BRANCH  10  16
ATOM     16  O   UNL     1      90.443  91.085  70.978  1.00  0.00    -0.504 OA
ATOM     17  H   UNL     1      89.760  90.418  70.875  1.00  0.00     0.293 HD
ENDBRANCH  10  16
ENDBRANCH   7   8
ENDBRANCH   4   7
ENDBRANCH   2   3
ENDBRANCH   1   2
BRANCH   1  18
ATOM     18  C   UNL     1      95.936  94.446  79.140  1.00  0.00     0.001 C 
BRANCH  18  19
ATOM     19  C   UNL     1      96.355  95.896  79.515  1.00  0.00     0.000 C 
BRANCH  19  20
ATOM     20  C   UNL     1      96.896  96.672  78.281  1.00  0.00     0.000 C 
BRANCH  20  21
ATOM     21  C   UNL     1      97.626  95.781  77.238  1.00  0.00     0.003 C 
BRANCH  21  22
ATOM     22  C   UNL     1      97.839  96.455  75.843  1.00  0.00    -0.017 C 
ATOM     23  C   UNL     1      98.106  97.977  76.010  1.00  0.00     0.007 C 
ATOM     24  C   UNL     1      96.667  96.213  74.847  1.00  0.00     0.007 C 
ENDBRANCH  21  22
ENDBRANCH  20  21
ENDBRANCH  19  20
ENDBRANCH  18  19
ENDBRANCH   1  18
TORSDOF 11
ENDMDL
MODEL 8
REMARK VINA RESULT:    -5.596     23.660     27.632
REMARK INTER + INTRA:          -9.862
REMARK INTER:                  -8.215
REMARK INTRA:                  -1.646
REMARK UNBOUND:                -0.831
REMARK SMILES COc1cc(CNC(=O)CCCCCCC(C)C)ccc1O
REMARK SMILES IDX 11 1 10 2 8 3 7 4 9 6 6 7 5 8 3 9 21 10 4 11 20 12 19 13
REMARK SMILES IDX 2 14 1 15 22 16 12 18 13 19 14 20 15 21 16 22 17 23 18 24
REMARK H PARENT 7 5 22 17
REMARK Flexibility Score: inf
ROOT
ATOM      1  C   UNL     1      83.171  64.120  75.251  1.00  0.00     0.010 C 
ENDROOT
BRANCH   1   2
ATOM      2  C   UNL     1      82.439  64.755  76.466  1.00  0.00     0.100 C 
BRANCH   2   3
ATOM      3  C   UNL     1      82.665  66.213  76.588  1.00  0.00     0.220 C 
ATOM      4  N   UNL     1      83.926  66.703  76.766  1.00  0.00    -0.352 N 
ATOM      5  H   UNL     1      84.644  65.998  76.847  1.00  0.00     0.163 HD
ATOM      6  O   UNL     1      81.678  66.983  76.500  1.00  0.00    -0.275 OA
BRANCH   4   7
ATOM      7  C   UNL     1      84.270  68.090  76.838  1.00  0.00     0.151 C 
BRANCH   7   8
ATOM      8  C   UNL     1      85.036  68.567  75.654  1.00  0.00    -0.025 A 
ATOM      9  C   UNL     1      85.432  68.550  73.227  1.00  0.00     0.160 A 
ATOM     10  C   UNL     1      86.460  69.505  73.386  1.00  0.00     0.157 A 
ATOM     11  C   UNL     1      84.741  68.076  74.362  1.00  0.00     0.056 A 
ATOM     12  C   UNL     1      86.789  69.972  74.671  1.00  0.00     0.050 A 
ATOM     13  C   UNL     1      86.076  69.516  75.797  1.00  0.00     0.009 A 
BRANCH   9  14
ATOM     14  O   UNL     1      85.131  68.060  71.985  1.00  0.00    -0.493 OA
ATOM     15  C   UNL     1      85.682  66.756  71.728  1.00  0.00     0.278 C 
ENDBRANCH   9  14
BRANCH  10  16
ATOM     16  O   UNL     1      87.143  69.978  72.310  1.00  0.00    -0.504 OA
ATOM     17  H   UNL     1      87.411  70.885  72.476  1.00  0.00     0.293 HD
ENDBRANCH  10  16
ENDBRANCH   7   8
ENDBRANCH   4   7
ENDBRANCH   2   3
ENDBRANCH   1   2
BRANCH   1  18
ATOM     18  C   UNL     1      82.434  64.402  73.910  1.00  0.00     0.001 C 
BRANCH  18  19
ATOM     19  C   UNL     1      80.924  64.033  73.935  1.00  0.00     0.000 C 
BRANCH  19  20
ATOM     20  C   UNL     1      80.031  65.254  73.575  1.00  0.00     0.000 C 
BRANCH  20  21
ATOM     21  C   UNL     1      80.043  65.630  72.068  1.00  0.00     0.003 C 
BRANCH  21  22
ATOM     22  C   UNL     1      80.759  66.981  71.740  1.00  0.00    -0.017 C 
ATOM     23  C   UNL     1      82.014  66.731  70.857  1.00  0.00     0.007 C 
ATOM     24  C   UNL     1      81.137  67.810  73.002  1.00  0.00     0.007 C 
ENDBRANCH  21  22
ENDBRANCH  20  21
ENDBRANCH  19  20
ENDBRANCH  18  19
ENDBRANCH   1  18
TORSDOF 11
ENDMDL
MODEL 9
REMARK VINA RESULT:    -5.459     11.437     13.615
REMARK INTER + INTRA:          -9.641
REMARK INTER:                  -8.326
REMARK INTRA:                  -1.315
REMARK UNBOUND:                -0.831
REMARK SMILES COc1cc(CNC(=O)CCCCCCC(C)C)ccc1O
REMARK SMILES IDX 11 1 10 2 8 3 7 4 9 6 6 7 5 8 3 9 21 10 4 11 20 12 19 13
REMARK SMILES IDX 2 14 1 15 22 16 12 18 13 19 14 20 15 21 16 22 17 23 18 24
REMARK H PARENT 7 5 22 17
REMARK Flexibility Score: inf
ROOT
ATOM      1  C   UNL     1      97.633  83.534  76.814  1.00  0.00     0.010 C 
ENDROOT
BRANCH   1   2
ATOM      2  C   UNL     1      96.561  83.158  77.875  1.00  0.00     0.100 C 
BRANCH   2   3
ATOM      3  C   UNL     1      96.935  81.982  78.692  1.00  0.00     0.220 C 
ATOM      4  N   UNL     1      97.192  82.123  80.025  1.00  0.00    -0.352 N 
ATOM      5  H   UNL     1      97.147  83.073  80.365  1.00  0.00     0.163 HD
ATOM      6  O   UNL     1      96.986  80.857  78.139  1.00  0.00    -0.275 OA
BRANCH   4   7
ATOM      7  C   UNL     1      97.504  81.054  80.924  1.00  0.00     0.151 C 
BRANCH   7   8
ATOM      8  C   UNL     1      96.922  81.239  82.281  1.00  0.00    -0.025 A 
ATOM      9  C   UNL     1      96.075  82.723  84.051  1.00  0.00     0.160 A 
ATOM     10  C   UNL     1      95.772  81.599  84.851  1.00  0.00     0.157 A 
ATOM     11  C   UNL     1      96.664  82.535  82.782  1.00  0.00     0.056 A 
ATOM     12  C   UNL     1      96.061  80.306  84.379  1.00  0.00     0.050 A 
ATOM     13  C   UNL     1      96.622  80.125  83.100  1.00  0.00     0.009 A 
BRANCH   9  14
ATOM     14  O   UNL     1      95.836  83.987  84.516  1.00  0.00    -0.493 OA
ATOM     15  C   UNL     1      96.559  85.012  83.810  1.00  0.00     0.278 C 
ENDBRANCH   9  14
BRANCH  10  16
ATOM     16  O   UNL     1      95.206  81.750  86.077  1.00  0.00    -0.504 OA
ATOM     17  H   UNL     1      95.040  82.681  86.240  1.00  0.00     0.293 HD
ENDBRANCH  10  16
ENDBRANCH   7   8
ENDBRANCH   4   7
ENDBRANCH   2   3
ENDBRANCH   1   2
BRANCH   1  18
ATOM     18  C   UNL     1      97.171  83.195  75.368  1.00  0.00     0.001 C 
BRANCH  18  19
ATOM     19  C   UNL     1      97.560  81.763  74.905  1.00  0.00     0.000 C 
BRANCH  19  20
ATOM     20  C   UNL     1      99.101  81.604  74.774  1.00  0.00     0.000 C 
BRANCH  20  21
ATOM     21  C   UNL     1      99.739  80.675  75.845  1.00  0.00     0.003 C 
BRANCH  21  22
ATOM     22  C   UNL     1     100.890  81.333  76.674  1.00  0.00    -0.017 C 
ATOM     23  C   UNL     1     100.522  81.367  78.184  1.00  0.00     0.007 C 
ATOM     24  C   UNL     1     101.284  82.755  76.177  1.00  0.00     0.007 C 
ENDBRANCH  21  22
ENDBRANCH  20  21
ENDBRANCH  19  20
ENDBRANCH  18  19
ENDBRANCH   1  18
TORSDOF 11
ENDMDL
MODEL 10
REMARK VINA RESULT:    -5.380     23.969     27.846
REMARK INTER + INTRA:          -9.514
REMARK INTER:                  -8.419
REMARK INTRA:                  -1.095
REMARK UNBOUND:                -0.831
REMARK SMILES COc1cc(CNC(=O)CCCCCCC(C)C)ccc1O
REMARK SMILES IDX 11 1 10 2 8 3 7 4 9 6 6 7 5 8 3 9 21 10 4 11 20 12 19 13
REMARK SMILES IDX 2 14 1 15 22 16 12 18 13 19 14 20 15 21 16 22 17 23 18 24
REMARK H PARENT 7 5 22 17
REMARK Flexibility Score: inf
ROOT
ATOM      1  C   UNL     1      81.654  66.542  75.988  1.00  0.00     0.010 C 
ENDROOT
BRANCH   1   2
ATOM      2  C   UNL     1      82.239  65.123  76.229  1.00  0.00     0.100 C 
BRANCH   2   3
ATOM      3  C   UNL     1      83.672  65.137  76.600  1.00  0.00     0.220 C 
ATOM      4  N   UNL     1      84.549  65.941  75.931  1.00  0.00    -0.352 N 
ATOM      5  H   UNL     1      84.144  66.462  75.167  1.00  0.00     0.163 HD
ATOM      6  O   UNL     1      84.054  64.416  77.553  1.00  0.00    -0.275 OA
BRANCH   4   7
ATOM      7  C   UNL     1      85.941  66.080  76.237  1.00  0.00     0.151 C 
BRANCH   7   8
ATOM      8  C   UNL     1      86.229  67.223  77.147  1.00  0.00    -0.025 A 
ATOM      9  C   UNL     1      87.252  68.101  79.204  1.00  0.00     0.160 A 
ATOM     10  C   UNL     1      86.822  69.402  78.865  1.00  0.00     0.157 A 
ATOM     11  C   UNL     1      86.937  67.020  78.354  1.00  0.00     0.056 A 
ATOM     12  C   UNL     1      86.083  69.611  77.686  1.00  0.00     0.050 A 
ATOM     13  C   UNL     1      85.797  68.531  76.827  1.00  0.00     0.009 A 
BRANCH   9  14
ATOM     14  O   UNL     1      87.938  67.882  80.368  1.00  0.00    -0.493 OA
ATOM     15  C   UNL     1      87.156  67.234  81.388  1.00  0.00     0.278 C 
ENDBRANCH   9  14
BRANCH  10  16
ATOM     16  O   UNL     1      87.109  70.462  79.666  1.00  0.00    -0.504 OA
ATOM     17  H   UNL     1      87.660  70.170  80.396  1.00  0.00     0.293 HD
ENDBRANCH  10  16
ENDBRANCH   7   8
ENDBRANCH   4   7
ENDBRANCH   2   3
ENDBRANCH   1   2
BRANCH   1  18
ATOM     18  C   UNL     1      81.057  66.696  74.560  1.00  0.00     0.001 C 
BRANCH  18  19
ATOM     19  C   UNL     1      80.125  65.525  74.141  1.00  0.00     0.000 C 
BRANCH  19  20
ATOM     20  C   UNL     1      80.278  65.184  72.632  1.00  0.00     0.000 C 
BRANCH  20  21
ATOM     21  C   UNL     1      80.156  66.411  71.686  1.00  0.00     0.003 C 
BRANCH  21  22
ATOM     22  C   UNL     1      81.436  66.711  70.840  1.00  0.00    -0.017 C 
ATOM     23  C   UNL     1      82.504  65.602  71.059  1.00  0.00     0.007 C 
ATOM     24  C   UNL     1      82.048  68.117  71.109  1.00  0.00     0.007 C 
ENDBRANCH  21  22
ENDBRANCH  20  21
ENDBRANCH  19  20
ENDBRANCH  18  19
ENDBRANCH   1  18
TORSDOF 11
ENDMDL
