MODEL 1
REMARK VINA RESULT:    -6.196      0.000      0.000
REMARK INTER + INTRA:         -10.520
REMARK INTER:                 -10.000
REMARK INTRA:                  -0.520
REMARK UNBOUND:                -0.520
REMARK SMILES CCCCCCCCC(=O)NCc1ccc(O)c(OC)c1
REMARK SMILES IDX 7 1 6 2 5 3 4 4 3 5 2 6 1 7 8 8 9 9 10 10 11 11 12 13 13 14
REMARK SMILES IDX 21 15 14 16 18 17 15 18 16 19 19 20 20 21 17 22
REMARK H PARENT 11 12 17 23
REMARK Flexibility Score: inf
ROOT
ATOM      1  C   UNL     1      92.752  98.262  75.315  1.00  0.00     0.010 C 
ENDROOT
BRANCH   1   2
ATOM      2  C   UNL     1      93.415  97.181  76.217  1.00  0.00     0.001 C 
BRANCH   2   3
ATOM      3  C   UNL     1      92.453  95.994  76.518  1.00  0.00     0.000 C 
BRANCH   3   4
ATOM      4  C   UNL     1      92.030  95.892  78.011  1.00  0.00    -0.000 C 
BRANCH   4   5
ATOM      5  C   UNL     1      92.090  94.435  78.553  1.00  0.00    -0.000 C 
BRANCH   5   6
ATOM      6  C   UNL     1      91.000  93.523  77.930  1.00  0.00    -0.003 C 
ATOM      7  C   UNL     1      89.594  94.162  77.956  1.00  0.00     0.004 C 
ENDBRANCH   5   6
ENDBRANCH   4   5
ENDBRANCH   3   4
ENDBRANCH   2   3
ENDBRANCH   1   2
BRANCH   1   8
ATOM      8  C   UNL     1      93.769  99.194  74.599  1.00  0.00     0.100 C 
BRANCH   8   9
ATOM      9  C   UNL     1      93.086 100.127  73.671  1.00  0.00     0.220 C 
ATOM     10  O   UNL     1      93.526 101.297  73.572  1.00  0.00    -0.275 OA
ATOM     11  N   UNL     1      92.022  99.707  72.924  1.00  0.00    -0.352 N 
ATOM     12  H   UNL     1      91.698  98.777  73.145  1.00  0.00     0.163 HD
BRANCH  11  13
ATOM     13  C   UNL     1      91.372 100.463  71.897  1.00  0.00     0.151 C 
BRANCH  13  14
ATOM     14  C   UNL     1      90.460  99.657  71.043  1.00  0.00    -0.025 A 
ATOM     15  C   UNL     1      89.849 100.239  69.907  1.00  0.00     0.056 A 
ATOM     16  C   UNL     1      90.184  98.305  71.350  1.00  0.00     0.009 A 
ATOM     17  C   UNL     1      88.993  99.480  69.076  1.00  0.00     0.160 A 
ATOM     18  C   UNL     1      89.334  97.544  70.526  1.00  0.00     0.050 A 
ATOM     19  C   UNL     1      88.732  98.128  69.396  1.00  0.00     0.157 A 
BRANCH  17  20
ATOM     20  O   UNL     1      88.368 100.057  67.999  1.00  0.00    -0.493 OA
ATOM     21  C   UNL     1      88.571 101.477  67.892  1.00  0.00     0.278 C 
ENDBRANCH  17  20
BRANCH  19  22
ATOM     22  O   UNL     1      87.891  97.394  68.623  1.00  0.00    -0.504 OA
ATOM     23  H   UNL     1      87.801  97.811  67.763  1.00  0.00     0.293 HD
ENDBRANCH  19  22
ENDBRANCH  13  14
ENDBRANCH  11  13
ENDBRANCH   8   9
ENDBRANCH   1   8
TORSDOF 11
ENDMDL
MODEL 2
REMARK VINA RESULT:    -6.063      6.146      9.930
REMARK INTER + INTRA:         -10.306
REMARK INTER:                  -9.280
REMARK INTRA:                  -1.026
REMARK UNBOUND:                -0.520
REMARK SMILES CCCCCCCCC(=O)NCc1ccc(O)c(OC)c1
REMARK SMILES IDX 7 1 6 2 5 3 4 4 3 5 2 6 1 7 8 8 9 9 10 10 11 11 12 13 13 14
REMARK SMILES IDX 21 15 14 16 18 17 15 18 16 19 19 20 20 21 17 22
REMARK H PARENT 11 12 17 23
REMARK Flexibility Score: inf
ROOT
ATOM      1  C   UNL     1      93.611  96.002  75.971  1.00  0.00     0.010 C 
ENDROOT
BRANCH   1   2
ATOM      2  C   UNL     1      92.397  96.673  76.675  1.00  0.00     0.001 C 
BRANCH   2   3
ATOM      3  C   UNL     1      91.771  95.757  77.768  1.00  0.00     0.000 C 
BRANCH   3   4
ATOM      4  C   UNL     1      90.293  95.363  77.485  1.00  0.00    -0.000 C 
BRANCH   4   5
ATOM      5  C   UNL     1      89.933  93.953  78.033  1.00  0.00    -0.000 C 
BRANCH   5   6
ATOM      6  C   UNL     1      91.054  92.910  77.778  1.00  0.00    -0.003 C 
ATOM      7  C   UNL     1      91.162  92.495  76.294  1.00  0.00     0.004 C 
ENDBRANCH   5   6
ENDBRANCH   4   5
ENDBRANCH   3   4
ENDBRANCH   2   3
ENDBRANCH   1   2
BRANCH   1   8
ATOM      8  C   UNL     1      94.648  97.013  75.406  1.00  0.00     0.100 C 
BRANCH   8   9
ATOM      9  C   UNL     1      95.115  97.951  76.455  1.00  0.00     0.220 C 
ATOM     10  O   UNL     1      94.805  99.162  76.353  1.00  0.00    -0.275 OA
ATOM     11  N   UNL     1      95.840  97.495  77.519  1.00  0.00    -0.352 N 
ATOM     12  H   UNL     1      96.107  96.524  77.458  1.00  0.00     0.163 HD
BRANCH  11  13
ATOM     13  C   UNL     1      96.226  98.269  78.660  1.00  0.00     0.151 C 
BRANCH  13  14
ATOM     14  C   UNL     1      95.844  97.654  79.960  1.00  0.00    -0.025 A 
ATOM     15  C   UNL     1      95.952  98.399  81.158  1.00  0.00     0.056 A 
ATOM     16  C   UNL     1      95.373  96.322  80.023  1.00  0.00     0.009 A 
ATOM     17  C   UNL     1      95.576  97.834  82.399  1.00  0.00     0.160 A 
ATOM     18  C   UNL     1      94.997  95.755  81.254  1.00  0.00     0.050 A 
ATOM     19  C   UNL     1      95.104  96.502  82.443  1.00  0.00     0.157 A 
BRANCH  17  20
ATOM     20  O   UNL     1      95.721  98.542  83.565  1.00  0.00    -0.493 OA
ATOM     21  C   UNL     1      97.016  98.409  84.178  1.00  0.00     0.278 C 
ENDBRANCH  17  20
BRANCH  19  22
ATOM     22  O   UNL     1      94.765  95.936  83.629  1.00  0.00    -0.504 OA
ATOM     23  H   UNL     1      93.820  96.032  83.770  1.00  0.00     0.293 HD
ENDBRANCH  19  22
ENDBRANCH  13  14
ENDBRANCH  11  13
ENDBRANCH   8   9
ENDBRANCH   1   8
TORSDOF 11
ENDMDL
MODEL 3
REMARK VINA RESULT:    -5.839      7.636     10.409
REMARK INTER + INTRA:          -9.944
REMARK INTER:                  -9.198
REMARK INTRA:                  -0.746
REMARK UNBOUND:                -0.520
REMARK SMILES CCCCCCCCC(=O)NCc1ccc(O)c(OC)c1
REMARK SMILES IDX 7 1 6 2 5 3 4 4 3 5 2 6 1 7 8 8 9 9 10 10 11 11 12 13 13 14
REMARK SMILES IDX 21 15 14 16 18 17 15 18 16 19 19 20 20 21 17 22
REMARK H PARENT 11 12 17 23
REMARK Flexibility Score: inf
ROOT
ATOM      1  C   UNL     1      95.566  94.067  79.182  1.00  0.00     0.010 C 
ENDROOT
BRANCH   1   2
ATOM      2  C   UNL     1      94.498  94.809  78.328  1.00  0.00     0.001 C 
BRANCH   2   3
ATOM      3  C   UNL     1      93.063  94.252  78.565  1.00  0.00     0.000 C 
BRANCH   3   4
ATOM      4  C   UNL     1      92.093  94.491  77.373  1.00  0.00    -0.000 C 
BRANCH   4   5
ATOM      5  C   UNL     1      90.922  95.449  77.735  1.00  0.00    -0.000 C 
BRANCH   5   6
ATOM      6  C   UNL     1      89.531  94.827  77.440  1.00  0.00    -0.003 C 
ATOM      7  C   UNL     1      89.300  93.493  78.183  1.00  0.00     0.004 C 
ENDBRANCH   5   6
ENDBRANCH   4   5
ENDBRANCH   3   4
ENDBRANCH   2   3
ENDBRANCH   1   2
BRANCH   1   8
ATOM      8  C   UNL     1      94.984  93.348  80.432  1.00  0.00     0.100 C 
BRANCH   8   9
ATOM      9  C   UNL     1      95.117  94.188  81.647  1.00  0.00     0.220 C 
ATOM     10  O   UNL     1      95.280  93.615  82.751  1.00  0.00    -0.275 OA
ATOM     11  N   UNL     1      95.090  95.550  81.556  1.00  0.00    -0.352 N 
ATOM     12  H   UNL     1      94.867  95.903  80.636  1.00  0.00     0.163 HD
BRANCH  11  13
ATOM     13  C   UNL     1      95.347  96.464  82.626  1.00  0.00     0.151 C 
BRANCH  13  14
ATOM     14  C   UNL     1      95.503  97.877  82.186  1.00  0.00    -0.025 A 
ATOM     15  C   UNL     1      95.908  98.169  80.862  1.00  0.00     0.056 A 
ATOM     16  C   UNL     1      95.255  98.947  83.076  1.00  0.00     0.009 A 
ATOM     17  C   UNL     1      96.044  99.507  80.424  1.00  0.00     0.160 A 
ATOM     18  C   UNL     1      95.387 100.279  82.646  1.00  0.00     0.050 A 
ATOM     19  C   UNL     1      95.788 100.564  81.327  1.00  0.00     0.157 A 
BRANCH  17  20
ATOM     20  O   UNL     1      96.478  99.788  79.153  1.00  0.00    -0.493 OA
ATOM     21  C   UNL     1      96.001  98.872  78.152  1.00  0.00     0.278 C 
ENDBRANCH  17  20
BRANCH  19  22
ATOM     22  O   UNL     1      95.940 101.853  80.930  1.00  0.00    -0.504 OA
ATOM     23  H   UNL     1      95.426 102.005  80.133  1.00  0.00     0.293 HD
ENDBRANCH  19  22
ENDBRANCH  13  14
ENDBRANCH  11  13
ENDBRANCH   8   9
ENDBRANCH   1   8
TORSDOF 11
ENDMDL
MODEL 4
REMARK VINA RESULT:    -5.775      0.996      2.069
REMARK INTER + INTRA:          -9.840
REMARK INTER:                  -9.263
REMARK INTRA:                  -0.577
REMARK UNBOUND:                -0.520
REMARK SMILES CCCCCCCCC(=O)NCc1ccc(O)c(OC)c1
REMARK SMILES IDX 7 1 6 2 5 3 4 4 3 5 2 6 1 7 8 8 9 9 10 10 11 11 12 13 13 14
REMARK SMILES IDX 21 15 14 16 18 17 15 18 16 19 19 20 20 21 17 22
REMARK H PARENT 11 12 17 23
REMARK Flexibility Score: inf
ROOT
ATOM      1  C   UNL     1      94.004  98.826  75.660  1.00  0.00     0.010 C 
ENDROOT
BRANCH   1   2
ATOM      2  C   UNL     1      94.125  97.448  76.372  1.00  0.00     0.001 C 
BRANCH   2   3
ATOM      3  C   UNL     1      92.850  96.574  76.184  1.00  0.00     0.000 C 
BRANCH   3   4
ATOM      4  C   UNL     1      92.309  95.962  77.507  1.00  0.00    -0.000 C 
BRANCH   4   5
ATOM      5  C   UNL     1      90.779  96.174  77.685  1.00  0.00    -0.000 C 
BRANCH   5   6
ATOM      6  C   UNL     1      89.957  94.900  77.354  1.00  0.00    -0.003 C 
ATOM      7  C   UNL     1      90.185  93.758  78.370  1.00  0.00     0.004 C 
ENDBRANCH   5   6
ENDBRANCH   4   5
ENDBRANCH   3   4
ENDBRANCH   2   3
ENDBRANCH   1   2
BRANCH   1   8
ATOM      8  C   UNL     1      92.648  99.042  74.932  1.00  0.00     0.100 C 
BRANCH   8   9
ATOM      9  C   UNL     1      92.793  99.966  73.782  1.00  0.00     0.220 C 
ATOM     10  O   UNL     1      93.809 100.700  73.733  1.00  0.00    -0.275 OA
ATOM     11  N   UNL     1      91.855  99.993  72.790  1.00  0.00    -0.352 N 
ATOM     12  H   UNL     1      91.039  99.427  72.972  1.00  0.00     0.163 HD
BRANCH  11  13
ATOM     13  C   UNL     1      91.951 100.732  71.569  1.00  0.00     0.151 C 
BRANCH  13  14
ATOM     14  C   UNL     1      90.853 100.448  70.606  1.00  0.00    -0.025 A 
ATOM     15  C   UNL     1      90.198  99.194  70.623  1.00  0.00     0.056 A 
ATOM     16  C   UNL     1      90.447 101.418  69.661  1.00  0.00     0.009 A 
ATOM     17  C   UNL     1      89.140  98.917  69.726  1.00  0.00     0.160 A 
ATOM     18  C   UNL     1      89.395 101.149  68.767  1.00  0.00     0.050 A 
ATOM     19  C   UNL     1      88.746  99.900  68.790  1.00  0.00     0.157 A 
BRANCH  17  20
ATOM     20  O   UNL     1      88.535  97.685  69.715  1.00  0.00    -0.493 OA
ATOM     21  C   UNL     1      89.226  96.696  68.931  1.00  0.00     0.278 C 
ENDBRANCH  17  20
BRANCH  19  22
ATOM     22  O   UNL     1      87.750  99.640  67.905  1.00  0.00    -0.504 OA
ATOM     23  H   UNL     1      86.902  99.701  68.350  1.00  0.00     0.293 HD
ENDBRANCH  19  22
ENDBRANCH  13  14
ENDBRANCH  11  13
ENDBRANCH   8   9
ENDBRANCH   1   8
TORSDOF 11
ENDMDL
MODEL 5
REMARK VINA RESULT:    -5.737      7.923     10.842
REMARK INTER + INTRA:          -9.779
REMARK INTER:                  -9.064
REMARK INTRA:                  -0.715
REMARK UNBOUND:                -0.520
REMARK SMILES CCCCCCCCC(=O)NCc1ccc(O)c(OC)c1
REMARK SMILES IDX 7 1 6 2 5 3 4 4 3 5 2 6 1 7 8 8 9 9 10 10 11 11 12 13 13 14
REMARK SMILES IDX 21 15 14 16 18 17 15 18 16 19 19 20 20 21 17 22
REMARK H PARENT 11 12 17 23
REMARK Flexibility Score: inf
ROOT
ATOM      1  C   UNL     1      95.510  94.026  79.127  1.00  0.00     0.010 C 
ENDROOT
BRANCH   1   2
ATOM      2  C   UNL     1      94.595  94.933  78.254  1.00  0.00     0.001 C 
BRANCH   2   3
ATOM      3  C   UNL     1      93.083  94.659  78.506  1.00  0.00     0.000 C 
BRANCH   3   4
ATOM      4  C   UNL     1      92.173  95.004  77.293  1.00  0.00    -0.000 C 
BRANCH   4   5
ATOM      5  C   UNL     1      90.841  95.687  77.717  1.00  0.00    -0.000 C 
BRANCH   5   6
ATOM      6  C   UNL     1      89.593  94.849  77.331  1.00  0.00    -0.003 C 
ATOM      7  C   UNL     1      89.431  93.581  78.198  1.00  0.00     0.004 C 
ENDBRANCH   5   6
ENDBRANCH   4   5
ENDBRANCH   3   4
ENDBRANCH   2   3
ENDBRANCH   1   2
BRANCH   1   8
ATOM      8  C   UNL     1      94.801  93.432  80.376  1.00  0.00     0.100 C 
BRANCH   8   9
ATOM      9  C   UNL     1      95.026  94.274  81.576  1.00  0.00     0.220 C 
ATOM     10  O   UNL     1      95.425  93.717  82.627  1.00  0.00    -0.275 OA
ATOM     11  N   UNL     1      94.831  95.624  81.523  1.00  0.00    -0.352 N 
ATOM     12  H   UNL     1      94.428  95.954  80.658  1.00  0.00     0.163 HD
BRANCH  11  13
ATOM     13  C   UNL     1      95.147  96.555  82.563  1.00  0.00     0.151 C 
BRANCH  13  14
ATOM     14  C   UNL     1      95.458  97.924  82.070  1.00  0.00    -0.025 A 
ATOM     15  C   UNL     1      95.382  99.031  82.948  1.00  0.00     0.056 A 
ATOM     16  C   UNL     1      95.829  98.145  80.723  1.00  0.00     0.009 A 
ATOM     17  C   UNL     1      95.691 100.336  82.498  1.00  0.00     0.160 A 
ATOM     18  C   UNL     1      96.139  99.439  80.270  1.00  0.00     0.050 A 
ATOM     19  C   UNL     1      96.064 100.536  81.150  1.00  0.00     0.157 A 
BRANCH  17  20
ATOM     20  O   UNL     1      95.576 101.413  83.339  1.00  0.00    -0.493 OA
ATOM     21  C   UNL     1      94.228 101.696  83.754  1.00  0.00     0.278 C 
ENDBRANCH  17  20
BRANCH  19  22
ATOM     22  O   UNL     1      96.338 101.786  80.696  1.00  0.00    -0.504 OA
ATOM     23  H   UNL     1      97.003 102.191  81.257  1.00  0.00     0.293 HD
ENDBRANCH  19  22
ENDBRANCH  13  14
ENDBRANCH  11  13
ENDBRANCH   8   9
ENDBRANCH   1   8
TORSDOF 11
ENDMDL
MODEL 6
REMARK VINA RESULT:    -5.731      8.275     12.118
REMARK INTER + INTRA:          -9.768
REMARK INTER:                  -8.882
REMARK INTRA:                  -0.886
REMARK UNBOUND:                -0.520
REMARK SMILES CCCCCCCCC(=O)NCc1ccc(O)c(OC)c1
REMARK SMILES IDX 7 1 6 2 5 3 4 4 3 5 2 6 1 7 8 8 9 9 10 10 11 11 12 13 13 14
REMARK SMILES IDX 21 15 14 16 18 17 15 18 16 19 19 20 20 21 17 22
REMARK H PARENT 11 12 17 23
REMARK Flexibility Score: inf
ROOT
ATOM      1  C   UNL     1      95.190  94.747  78.834  1.00  0.00     0.010 C 
ENDROOT
BRANCH   1   2
ATOM      2  C   UNL     1      93.916  95.625  78.996  1.00  0.00     0.001 C 
BRANCH   2   3
ATOM      3  C   UNL     1      93.072  95.686  77.689  1.00  0.00     0.000 C 
BRANCH   3   4
ATOM      4  C   UNL     1      92.220  94.411  77.432  1.00  0.00    -0.000 C 
BRANCH   4   5
ATOM      5  C   UNL     1      91.250  94.092  78.605  1.00  0.00    -0.000 C 
BRANCH   5   6
ATOM      6  C   UNL     1      89.795  93.843  78.124  1.00  0.00    -0.003 C 
ATOM      7  C   UNL     1      89.212  95.034  77.332  1.00  0.00     0.004 C 
ENDBRANCH   5   6
ENDBRANCH   4   5
ENDBRANCH   3   4
ENDBRANCH   2   3
ENDBRANCH   1   2
BRANCH   1   8
ATOM      8  C   UNL     1      95.260  93.549  79.822  1.00  0.00     0.100 C 
BRANCH   8   9
ATOM      9  C   UNL     1      95.514  94.007  81.209  1.00  0.00     0.220 C 
ATOM     10  O   UNL     1      94.918  93.425  82.146  1.00  0.00    -0.275 OA
ATOM     11  N   UNL     1      96.398  95.018  81.454  1.00  0.00    -0.352 N 
ATOM     12  H   UNL     1      96.754  95.472  80.626  1.00  0.00     0.163 HD
BRANCH  11  13
ATOM     13  C   UNL     1      96.833  95.453  82.746  1.00  0.00     0.151 C 
BRANCH  13  14
ATOM     14  C   UNL     1      96.425  96.844  83.082  1.00  0.00    -0.025 A 
ATOM     15  C   UNL     1      96.913  97.465  84.256  1.00  0.00     0.056 A 
ATOM     16  C   UNL     1      95.546  97.566  82.242  1.00  0.00     0.009 A 
ATOM     17  C   UNL     1      96.548  98.793  84.579  1.00  0.00     0.160 A 
ATOM     18  C   UNL     1      95.180  98.886  82.557  1.00  0.00     0.050 A 
ATOM     19  C   UNL     1      95.671  99.500  83.725  1.00  0.00     0.157 A 
BRANCH  17  20
ATOM     20  O   UNL     1      96.988  99.379  85.739  1.00  0.00    -0.493 OA
ATOM     21  C   UNL     1      96.110  99.192  86.863  1.00  0.00     0.278 C 
ENDBRANCH  17  20
BRANCH  19  22
ATOM     22  O   UNL     1      95.290 100.766  84.035  1.00  0.00    -0.504 OA
ATOM     23  H   UNL     1      95.050 101.233  83.231  1.00  0.00     0.293 HD
ENDBRANCH  19  22
ENDBRANCH  13  14
ENDBRANCH  11  13
ENDBRANCH   8   9
ENDBRANCH   1   8
TORSDOF 11
ENDMDL
MODEL 7
REMARK VINA RESULT:    -5.658     30.987     32.594
REMARK INTER + INTRA:          -9.651
REMARK INTER:                  -8.199
REMARK INTRA:                  -1.452
REMARK UNBOUND:                -0.520
REMARK SMILES CCCCCCCCC(=O)NCc1ccc(O)c(OC)c1
REMARK SMILES IDX 7 1 6 2 5 3 4 4 3 5 2 6 1 7 8 8 9 9 10 10 11 11 12 13 13 14
REMARK SMILES IDX 21 15 14 16 18 17 15 18 16 19 19 20 20 21 17 22
REMARK H PARENT 11 12 17 23
REMARK Flexibility Score: inf
ROOT
ATOM      1  C   UNL     1      64.356  82.165  72.260  1.00  0.00     0.010 C 
ENDROOT
BRANCH   1   2
ATOM      2  C   UNL     1      63.926  80.972  73.161  1.00  0.00     0.001 C 
BRANCH   2   3
ATOM      3  C   UNL     1      62.516  81.185  73.786  1.00  0.00     0.000 C 
BRANCH   3   4
ATOM      4  C   UNL     1      61.875  82.558  73.436  1.00  0.00    -0.000 C 
BRANCH   4   5
ATOM      5  C   UNL     1      61.695  83.471  74.682  1.00  0.00    -0.000 C 
BRANCH   5   6
ATOM      6  C   UNL     1      62.752  83.191  75.784  1.00  0.00    -0.003 C 
ATOM      7  C   UNL     1      64.015  84.068  75.642  1.00  0.00     0.004 C 
ENDBRANCH   5   6
ENDBRANCH   4   5
ENDBRANCH   3   4
ENDBRANCH   2   3
ENDBRANCH   1   2
BRANCH   1   8
ATOM      8  C   UNL     1      64.640  81.768  70.784  1.00  0.00     0.100 C 
BRANCH   8   9
ATOM      9  C   UNL     1      63.582  82.274  69.876  1.00  0.00     0.220 C 
ATOM     10  O   UNL     1      63.373  81.656  68.805  1.00  0.00    -0.275 OA
ATOM     11  N   UNL     1      62.839  83.367  70.217  1.00  0.00    -0.352 N 
ATOM     12  H   UNL     1      63.148  83.837  71.056  1.00  0.00     0.163 HD
BRANCH  11  13
ATOM     13  C   UNL     1      61.705  83.864  69.500  1.00  0.00     0.151 C 
BRANCH  13  14
ATOM     14  C   UNL     1      60.857  84.798  70.288  1.00  0.00    -0.025 A 
ATOM     15  C   UNL     1      61.455  85.798  71.091  1.00  0.00     0.056 A 
ATOM     16  C   UNL     1      59.447  84.703  70.253  1.00  0.00     0.009 A 
ATOM     17  C   UNL     1      60.661  86.703  71.832  1.00  0.00     0.160 A 
ATOM     18  C   UNL     1      58.651  85.602  70.986  1.00  0.00     0.050 A 
ATOM     19  C   UNL     1      59.253  86.596  71.782  1.00  0.00     0.157 A 
BRANCH  17  20
ATOM     20  O   UNL     1      61.243  87.644  72.644  1.00  0.00    -0.493 OA
ATOM     21  C   UNL     1      61.857  87.104  73.827  1.00  0.00     0.278 C 
ENDBRANCH  17  20
BRANCH  19  22
ATOM     22  O   UNL     1      58.477  87.441  72.508  1.00  0.00    -0.504 OA
ATOM     23  H   UNL     1      58.659  87.318  73.443  1.00  0.00     0.293 HD
ENDBRANCH  19  22
ENDBRANCH  13  14
ENDBRANCH  11  13
ENDBRANCH   8   9
ENDBRANCH   1   8
TORSDOF 11
ENDMDL
MODEL 8
REMARK VINA RESULT:    -5.623     21.687     24.167
REMARK INTER + INTRA:          -9.594
REMARK INTER:                  -8.802
REMARK INTRA:                  -0.792
REMARK UNBOUND:                -0.520
REMARK SMILES CCCCCCCCC(=O)NCc1ccc(O)c(OC)c1
REMARK SMILES IDX 7 1 6 2 5 3 4 4 3 5 2 6 1 7 8 8 9 9 10 10 11 11 12 13 13 14
REMARK SMILES IDX 21 15 14 16 18 17 15 18 16 19 19 20 20 21 17 22
REMARK H PARENT 11 12 17 23
REMARK Flexibility Score: inf
ROOT
ATOM      1  C   UNL     1      77.355  83.164  66.025  1.00  0.00     0.010 C 
ENDROOT
BRANCH   1   2
ATOM      2  C   UNL     1      78.191  83.577  67.271  1.00  0.00     0.001 C 
BRANCH   2   3
ATOM      3  C   UNL     1      78.049  85.093  67.599  1.00  0.00     0.000 C 
BRANCH   3   4
ATOM      4  C   UNL     1      78.205  85.425  69.110  1.00  0.00    -0.000 C 
BRANCH   4   5
ATOM      5  C   UNL     1      77.069  86.343  69.643  1.00  0.00    -0.000 C 
BRANCH   5   6
ATOM      6  C   UNL     1      75.933  85.544  70.337  1.00  0.00    -0.003 C 
ATOM      7  C   UNL     1      76.413  84.193  70.910  1.00  0.00     0.004 C 
ENDBRANCH   5   6
ENDBRANCH   4   5
ENDBRANCH   3   4
ENDBRANCH   2   3
ENDBRANCH   1   2
BRANCH   1   8
ATOM      8  C   UNL     1      76.533  81.860  66.223  1.00  0.00     0.100 C 
BRANCH   8   9
ATOM      9  C   UNL     1      75.392  81.793  65.278  1.00  0.00     0.220 C 
ATOM     10  O   UNL     1      75.439  82.492  64.238  1.00  0.00    -0.275 OA
ATOM     11  N   UNL     1      74.334  80.966  65.526  1.00  0.00    -0.352 N 
ATOM     12  H   UNL     1      74.358  80.516  66.429  1.00  0.00     0.163 HD
BRANCH  11  13
ATOM     13  C   UNL     1      73.248  80.707  64.630  1.00  0.00     0.151 C 
BRANCH  13  14
ATOM     14  C   UNL     1      72.031  81.514  64.913  1.00  0.00    -0.025 A 
ATOM     15  C   UNL     1      71.691  81.847  66.245  1.00  0.00     0.056 A 
ATOM     16  C   UNL     1      71.194  81.957  63.863  1.00  0.00     0.009 A 
ATOM     17  C   UNL     1      70.546  82.628  66.528  1.00  0.00     0.160 A 
ATOM     18  C   UNL     1      70.055  82.735  64.137  1.00  0.00     0.050 A 
ATOM     19  C   UNL     1      69.724  83.066  65.465  1.00  0.00     0.157 A 
BRANCH  17  20
ATOM     20  O   UNL     1      70.195  82.914  67.823  1.00  0.00    -0.493 OA
ATOM     21  C   UNL     1      70.958  83.979  68.418  1.00  0.00     0.278 C 
ENDBRANCH  17  20
BRANCH  19  22
ATOM     22  O   UNL     1      68.607  83.794  65.722  1.00  0.00    -0.504 OA
ATOM     23  H   UNL     1      67.859  83.405  65.262  1.00  0.00     0.293 HD
ENDBRANCH  19  22
ENDBRANCH  13  14
ENDBRANCH  11  13
ENDBRANCH   8   9
ENDBRANCH   1   8
TORSDOF 11
ENDMDL
MODEL 9
REMARK VINA RESULT:    -5.498      7.395     10.295
REMARK INTER + INTRA:          -9.392
REMARK INTER:                  -8.595
REMARK INTRA:                  -0.798
REMARK UNBOUND:                -0.520
REMARK SMILES CCCCCCCCC(=O)NCc1ccc(O)c(OC)c1
REMARK SMILES IDX 7 1 6 2 5 3 4 4 3 5 2 6 1 7 8 8 9 9 10 10 11 11 12 13 13 14
REMARK SMILES IDX 21 15 14 16 18 17 15 18 16 19 19 20 20 21 17 22
REMARK H PARENT 11 12 17 23
REMARK Flexibility Score: inf
ROOT
ATOM      1  C   UNL     1      92.762  95.772  78.624  1.00  0.00     0.010 C 
ENDROOT
BRANCH   1   2
ATOM      2  C   UNL     1      91.955  95.835  77.295  1.00  0.00     0.001 C 
BRANCH   2   3
ATOM      3  C   UNL     1      90.418  95.894  77.541  1.00  0.00     0.000 C 
BRANCH   3   4
ATOM      4  C   UNL     1      89.763  94.499  77.752  1.00  0.00    -0.000 C 
BRANCH   4   5
ATOM      5  C   UNL     1      89.889  93.583  76.502  1.00  0.00    -0.000 C 
BRANCH   5   6
ATOM      6  C   UNL     1      90.959  92.472  76.683  1.00  0.00    -0.003 C 
ATOM      7  C   UNL     1      91.295  91.742  75.363  1.00  0.00     0.004 C 
ENDBRANCH   5   6
ENDBRANCH   4   5
ENDBRANCH   3   4
ENDBRANCH   2   3
ENDBRANCH   1   2
BRANCH   1   8
ATOM      8  C   UNL     1      92.998  94.328  79.148  1.00  0.00     0.100 C 
BRANCH   8   9
ATOM      9  C   UNL     1      94.127  94.280  80.108  1.00  0.00     0.220 C 
ATOM     10  O   UNL     1      94.203  93.301  80.889  1.00  0.00    -0.275 OA
ATOM     11  N   UNL     1      95.072  95.265  80.117  1.00  0.00    -0.352 N 
ATOM     12  H   UNL     1      94.868  96.045  79.510  1.00  0.00     0.163 HD
BRANCH  11  13
ATOM     13  C   UNL     1      96.276  95.261  80.891  1.00  0.00     0.151 C 
BRANCH  13  14
ATOM     14  C   UNL     1      97.259  96.299  80.479  1.00  0.00    -0.025 A 
ATOM     15  C   UNL     1      96.848  97.391  79.678  1.00  0.00     0.056 A 
ATOM     16  C   UNL     1      98.614  96.213  80.872  1.00  0.00     0.009 A 
ATOM     17  C   UNL     1      97.768  98.394  79.293  1.00  0.00     0.160 A 
ATOM     18  C   UNL     1      99.533  97.207  80.494  1.00  0.00     0.050 A 
ATOM     19  C   UNL     1      99.117  98.293  79.699  1.00  0.00     0.157 A 
BRANCH  17  20
ATOM     20  O   UNL     1      97.377  99.429  78.482  1.00  0.00    -0.493 OA
ATOM     21  C   UNL     1      96.474 100.358  79.106  1.00  0.00     0.278 C 
ENDBRANCH  17  20
BRANCH  19  22
ATOM     22  O   UNL     1     100.018  99.234  79.316  1.00  0.00    -0.504 OA
ATOM     23  H   UNL     1      99.948  99.998  79.893  1.00  0.00     0.293 HD
ENDBRANCH  19  22
ENDBRANCH  13  14
ENDBRANCH  11  13
ENDBRANCH   8   9
ENDBRANCH   1   8
TORSDOF 11
ENDMDL
MODEL 10
REMARK VINA RESULT:    -5.382      7.339     12.186
REMARK INTER + INTRA:          -9.206
REMARK INTER:                  -8.282
REMARK INTRA:                  -0.923
REMARK UNBOUND:                -0.520
REMARK SMILES CCCCCCCCC(=O)NCc1ccc(O)c(OC)c1
REMARK SMILES IDX 7 1 6 2 5 3 4 4 3 5 2 6 1 7 8 8 9 9 10 10 11 11 12 13 13 14
REMARK SMILES IDX 21 15 14 16 18 17 15 18 16 19 19 20 20 21 17 22
REMARK H PARENT 11 12 17 23
REMARK Flexibility Score: inf
ROOT
ATOM      1  C   UNL     1      93.052  95.512  78.981  1.00  0.00     0.010 C 
ENDROOT
BRANCH   1   2
ATOM      2  C   UNL     1      91.901  95.571  77.936  1.00  0.00     0.001 C 
BRANCH   2   3
ATOM      3  C   UNL     1      92.346  96.249  76.607  1.00  0.00     0.000 C 
BRANCH   3   4
ATOM      4  C   UNL     1      93.668  95.675  76.023  1.00  0.00    -0.000 C 
BRANCH   4   5
ATOM      5  C   UNL     1      94.836  96.702  76.058  1.00  0.00    -0.000 C 
BRANCH   5   6
ATOM      6  C   UNL     1      94.352  98.162  75.846  1.00  0.00    -0.003 C 
ATOM      7  C   UNL     1      95.347  99.210  76.392  1.00  0.00     0.004 C 
ENDBRANCH   5   6
ENDBRANCH   4   5
ENDBRANCH   3   4
ENDBRANCH   2   3
ENDBRANCH   1   2
BRANCH   1   8
ATOM      8  C   UNL     1      93.473  94.068  79.373  1.00  0.00     0.100 C 
BRANCH   8   9
ATOM      9  C   UNL     1      94.718  94.068  80.177  1.00  0.00     0.220 C 
ATOM     10  O   UNL     1      95.799  93.794  79.602  1.00  0.00    -0.275 OA
ATOM     11  N   UNL     1      94.687  94.388  81.504  1.00  0.00    -0.352 N 
ATOM     12  H   UNL     1      93.759  94.506  81.884  1.00  0.00     0.163 HD
BRANCH  11  13
ATOM     13  C   UNL     1      95.829  94.560  82.350  1.00  0.00     0.151 C 
BRANCH  13  14
ATOM     14  C   UNL     1      96.085  95.974  82.734  1.00  0.00    -0.025 A 
ATOM     15  C   UNL     1      97.262  96.318  83.442  1.00  0.00     0.056 A 
ATOM     16  C   UNL     1      95.162  96.994  82.407  1.00  0.00     0.009 A 
ATOM     17  C   UNL     1      97.527  97.660  83.799  1.00  0.00     0.160 A 
ATOM     18  C   UNL     1      95.420  98.331  82.759  1.00  0.00     0.050 A 
ATOM     19  C   UNL     1      96.595  98.667  83.460  1.00  0.00     0.157 A 
BRANCH  17  20
ATOM     20  O   UNL     1      98.647  97.986  84.521  1.00  0.00    -0.493 OA
ATOM     21  C   UNL     1      99.010  97.011  85.515  1.00  0.00     0.278 C 
ENDBRANCH  17  20
BRANCH  19  22
ATOM     22  O   UNL     1      96.822  99.956  83.819  1.00  0.00    -0.504 OA
ATOM     23  H   UNL     1      97.567  99.994  84.424  1.00  0.00     0.293 HD
ENDBRANCH  19  22
ENDBRANCH  13  14
ENDBRANCH  11  13
ENDBRANCH   8   9
ENDBRANCH   1   8
TORSDOF 11
ENDMDL
