MODEL 1
REMARK VINA RESULT:    -6.968      0.000      0.000
REMARK INTER + INTRA:          -8.569
REMARK INTER:                  -8.190
REMARK INTRA:                  -0.379
REMARK UNBOUND:                -0.379
REMARK SMILES O=C(/C=C/C=C/c1ccc2c(c1)OCO2)N1CCCCC1
REMARK SMILES IDX 3 1 4 2 2 3 1 4 16 5 17 6 21 7 18 8 20 9 19 10 5 11 6 12
REMARK SMILES IDX 7 13 12 14 8 15 11 16 9 17 13 18 10 19 14 20 15 21
REMARK H PARENT
REMARK Flexibility Score: inf
ROOT
ATOM      1  C   UNL     1      75.222  90.803  71.171  1.00  0.00     0.071 C 
ATOM      2  C   UNL     1      74.736  89.563  71.200  1.00  0.00     0.006 C 
ENDROOT
BRANCH   1   3
ATOM      3  C   UNL     1      74.748  91.759  72.192  1.00  0.00     0.246 C 
ATOM      4  O   UNL     1      73.578  91.661  72.562  1.00  0.00    -0.270 OA
ATOM      5  N   UNL     1      75.653  92.709  72.662  1.00  0.00    -0.339 N 
ATOM      6  C   UNL     1      75.210  93.675  73.672  1.00  0.00     0.120 C 
ATOM      7  C   UNL     1      77.042  92.884  72.211  1.00  0.00     0.120 C 
ATOM      8  C   UNL     1      76.142  93.688  74.878  1.00  0.00     0.022 C 
ATOM      9  C   UNL     1      78.009  92.906  73.394  1.00  0.00     0.022 C 
ATOM     10  C   UNL     1      77.587  93.925  74.449  1.00  0.00     0.004 C 
ENDBRANCH   1   3
BRANCH   2  11
ATOM     11  C   UNL     1      75.140  88.556  70.242  1.00  0.00     0.001 C 
ATOM     12  C   UNL     1      76.423  88.339  69.913  1.00  0.00     0.008 C 
BRANCH  12  13
ATOM     13  C   UNL     1      76.888  87.335  68.941  1.00  0.00    -0.022 A 
ATOM     14  C   UNL     1      77.161  86.046  69.379  1.00  0.00     0.058 A 
ATOM     15  C   UNL     1      77.042  87.708  67.603  1.00  0.00     0.012 A 
ATOM     16  C   UNL     1      77.593  85.141  68.431  1.00  0.00     0.166 A 
ATOM     17  C   UNL     1      77.481  86.772  66.665  1.00  0.00     0.051 A 
ATOM     18  O   UNL     1      77.911  83.837  68.659  1.00  0.00    -0.454 OA
ATOM     19  C   UNL     1      77.749  85.494  67.110  1.00  0.00     0.165 A 
ATOM     20  C   UNL     1      78.284  83.410  67.333  1.00  0.00     0.468 C 
ATOM     21  O   UNL     1      78.184  84.456  66.345  1.00  0.00    -0.454 OA
ENDBRANCH  12  13
ENDBRANCH   2  11
TORSDOF 3
ENDMDL
MODEL 2
REMARK VINA RESULT:    -6.914     24.214     26.420
REMARK INTER + INTRA:          -8.506
REMARK INTER:                  -8.155
REMARK INTRA:                  -0.351
REMARK UNBOUND:                -0.379
REMARK SMILES O=C(/C=C/C=C/c1ccc2c(c1)OCO2)N1CCCCC1
REMARK SMILES IDX 3 1 4 2 2 3 1 4 16 5 17 6 21 7 18 8 20 9 19 10 5 11 6 12
REMARK SMILES IDX 7 13 12 14 8 15 11 16 9 17 13 18 10 19 14 20 15 21
REMARK H PARENT
REMARK Flexibility Score: inf
ROOT
ATOM      1  C   UNL     1      99.568  83.162  80.574  1.00  0.00     0.071 C 
ATOM      2  C   UNL     1      98.559  82.586  81.223  1.00  0.00     0.006 C 
ENDROOT
BRANCH   1   3
ATOM      3  C   UNL     1     100.168  82.435  79.437  1.00  0.00     0.246 C 
ATOM      4  O   UNL     1     101.040  81.603  79.689  1.00  0.00    -0.270 OA
ATOM      5  N   UNL     1      99.711  82.743  78.156  1.00  0.00    -0.339 N 
ATOM      6  C   UNL     1     100.292  82.042  77.007  1.00  0.00     0.120 C 
ATOM      7  C   UNL     1      98.707  83.760  77.812  1.00  0.00     0.120 C 
ATOM      8  C   UNL     1      99.210  81.418  76.131  1.00  0.00     0.022 C 
ATOM      9  C   UNL     1      97.605  83.174  76.930  1.00  0.00     0.022 C 
ATOM     10  C   UNL     1      98.180  82.461  75.709  1.00  0.00     0.004 C 
ENDBRANCH   1   3
BRANCH   2  11
ATOM     11  C   UNL     1      97.907  83.220  82.350  1.00  0.00     0.001 C 
ATOM     12  C   UNL     1      97.826  82.644  83.560  1.00  0.00     0.008 C 
BRANCH  12  13
ATOM     13  C   UNL     1      97.169  83.239  84.736  1.00  0.00    -0.022 A 
ATOM     14  C   UNL     1      97.079  84.621  84.832  1.00  0.00     0.058 A 
ATOM     15  C   UNL     1      96.654  82.396  85.724  1.00  0.00     0.012 A 
ATOM     16  C   UNL     1      96.454  85.132  85.952  1.00  0.00     0.166 A 
ATOM     17  C   UNL     1      96.027  82.940  86.847  1.00  0.00     0.051 A 
ATOM     18  O   UNL     1      96.268  86.451  86.230  1.00  0.00    -0.454 OA
ATOM     19  C   UNL     1      95.942  84.314  86.933  1.00  0.00     0.165 A 
ATOM     20  C   UNL     1      95.582  86.371  87.495  1.00  0.00     0.468 C 
ATOM     21  O   UNL     1      95.371  85.018  87.948  1.00  0.00    -0.454 OA
ENDBRANCH  12  13
ENDBRANCH   2  11
TORSDOF 3
ENDMDL
MODEL 3
REMARK VINA RESULT:    -6.902     16.524     19.555
REMARK INTER + INTRA:          -8.491
REMARK INTER:                  -8.096
REMARK INTRA:                  -0.395
REMARK UNBOUND:                -0.379
REMARK SMILES O=C(/C=C/C=C/c1ccc2c(c1)OCO2)N1CCCCC1
REMARK SMILES IDX 3 1 4 2 2 3 1 4 16 5 17 6 21 7 18 8 20 9 19 10 5 11 6 12
REMARK SMILES IDX 7 13 12 14 8 15 11 16 9 17 13 18 10 19 14 20 15 21
REMARK H PARENT
REMARK Flexibility Score: inf
ROOT
ATOM      1  C   UNL     1      91.713  99.686  72.158  1.00  0.00     0.071 C 
ATOM      2  C   UNL     1      92.204 100.365  73.193  1.00  0.00     0.006 C 
ENDROOT
BRANCH   1   3
ATOM      3  C   UNL     1      90.996 100.439  71.110  1.00  0.00     0.246 C 
ATOM      4  O   UNL     1      91.411 101.565  70.833  1.00  0.00    -0.270 OA
ATOM      5  N   UNL     1      89.895  99.830  70.510  1.00  0.00    -0.339 N 
ATOM      6  C   UNL     1      89.159 100.555  69.470  1.00  0.00     0.120 C 
ATOM      7  C   UNL     1      89.344  98.508  70.845  1.00  0.00     0.120 C 
ATOM      8  C   UNL     1      89.020  99.721  68.201  1.00  0.00     0.022 C 
ATOM      9  C   UNL     1      89.185  97.642  69.596  1.00  0.00     0.022 C 
ATOM     10  C   UNL     1      88.397  98.363  68.506  1.00  0.00     0.004 C 
ENDBRANCH   1   3
BRANCH   2  11
ATOM     11  C   UNL     1      92.922  99.715  74.269  1.00  0.00     0.001 C 
ATOM     12  C   UNL     1      92.582  98.505  74.742  1.00  0.00     0.008 C 
BRANCH  12  13
ATOM     13  C   UNL     1      93.271  97.803  75.838  1.00  0.00    -0.022 A 
ATOM     14  C   UNL     1      92.616  96.773  76.498  1.00  0.00     0.058 A 
ATOM     15  C   UNL     1      94.568  98.193  76.183  1.00  0.00     0.012 A 
ATOM     16  C   UNL     1      93.302  96.145  77.517  1.00  0.00     0.166 A 
ATOM     17  C   UNL     1      95.240  97.541  77.219  1.00  0.00     0.051 A 
ATOM     18  O   UNL     1      92.835  95.120  78.282  1.00  0.00    -0.454 OA
ATOM     19  C   UNL     1      94.579  96.519  77.868  1.00  0.00     0.165 A 
ATOM     20  C   UNL     1      93.961  94.891  79.152  1.00  0.00     0.468 C 
ATOM     21  O   UNL     1      95.072  95.774  78.896  1.00  0.00    -0.454 OA
ENDBRANCH  12  13
ENDBRANCH   2  11
TORSDOF 3
ENDMDL
MODEL 4
REMARK VINA RESULT:    -6.793      3.192      9.374
REMARK INTER + INTRA:          -8.364
REMARK INTER:                  -7.962
REMARK INTRA:                  -0.402
REMARK UNBOUND:                -0.379
REMARK SMILES O=C(/C=C/C=C/c1ccc2c(c1)OCO2)N1CCCCC1
REMARK SMILES IDX 3 1 4 2 2 3 1 4 16 5 17 6 21 7 18 8 20 9 19 10 5 11 6 12
REMARK SMILES IDX 7 13 12 14 8 15 11 16 9 17 13 18 10 19 14 20 15 21
REMARK H PARENT
REMARK Flexibility Score: inf
ROOT
ATOM      1  C   UNL     1      77.316  85.802  67.824  1.00  0.00     0.071 C 
ATOM      2  C   UNL     1      76.945  85.900  69.099  1.00  0.00     0.006 C 
ENDROOT
BRANCH   1   3
ATOM      3  C   UNL     1      77.667  84.466  67.302  1.00  0.00     0.246 C 
ATOM      4  O   UNL     1      78.742  83.981  67.657  1.00  0.00    -0.270 OA
ATOM      5  N   UNL     1      76.762  83.846  66.441  1.00  0.00    -0.339 N 
ATOM      6  C   UNL     1      77.085  82.521  65.903  1.00  0.00     0.120 C 
ATOM      7  C   UNL     1      75.493  84.412  65.961  1.00  0.00     0.120 C 
ATOM      8  C   UNL     1      75.955  81.528  66.152  1.00  0.00     0.022 C 
ATOM      9  C   UNL     1      74.333  83.443  66.189  1.00  0.00     0.022 C 
ATOM     10  C   UNL     1      74.631  82.061  65.613  1.00  0.00     0.004 C 
ENDBRANCH   1   3
BRANCH   2  11
ATOM     11  C   UNL     1      76.583  87.165  69.700  1.00  0.00     0.001 C 
ATOM     12  C   UNL     1      75.373  87.396  70.236  1.00  0.00     0.008 C 
BRANCH  12  13
ATOM     13  C   UNL     1      74.951  88.665  70.852  1.00  0.00    -0.022 A 
ATOM     14  C   UNL     1      73.824  88.680  71.663  1.00  0.00     0.058 A 
ATOM     15  C   UNL     1      75.696  89.820  70.602  1.00  0.00     0.012 A 
ATOM     16  C   UNL     1      73.468  89.892  72.218  1.00  0.00     0.166 A 
ATOM     17  C   UNL     1      75.312  91.034  71.177  1.00  0.00     0.051 A 
ATOM     18  O   UNL     1      72.402  90.113  73.035  1.00  0.00    -0.454 OA
ATOM     19  C   UNL     1      74.192  91.038  71.981  1.00  0.00     0.165 A 
ATOM     20  C   UNL     1      72.537  91.527  73.286  1.00  0.00     0.468 C 
ATOM     21  O   UNL     1      73.671  92.120  72.621  1.00  0.00    -0.454 OA
ENDBRANCH  12  13
ENDBRANCH   2  11
TORSDOF 3
ENDMDL
MODEL 5
REMARK VINA RESULT:    -6.755     25.016     26.881
REMARK INTER + INTRA:          -8.318
REMARK INTER:                  -7.980
REMARK INTRA:                  -0.338
REMARK UNBOUND:                -0.379
REMARK SMILES O=C(/C=C/C=C/c1ccc2c(c1)OCO2)N1CCCCC1
REMARK SMILES IDX 3 1 4 2 2 3 1 4 16 5 17 6 21 7 18 8 20 9 19 10 5 11 6 12
REMARK SMILES IDX 7 13 12 14 8 15 11 16 9 17 13 18 10 19 14 20 15 21
REMARK H PARENT
REMARK Flexibility Score: inf
ROOT
ATOM      1  C   UNL     1      98.320  82.552  79.609  1.00  0.00     0.071 C 
ATOM      2  C   UNL     1      98.231  83.373  80.654  1.00  0.00     0.006 C 
ENDROOT
BRANCH   1   3
ATOM      3  C   UNL     1      98.098  83.115  78.263  1.00  0.00     0.246 C 
ATOM      4  O   UNL     1      96.992  83.603  78.025  1.00  0.00    -0.270 OA
ATOM      5  N   UNL     1      99.150  83.052  77.351  1.00  0.00    -0.339 N 
ATOM      6  C   UNL     1      98.957  83.599  76.004  1.00  0.00     0.120 C 
ATOM      7  C   UNL     1     100.466  82.439  77.583  1.00  0.00     0.120 C 
ATOM      8  C   UNL     1     100.057  84.592  75.643  1.00  0.00     0.022 C 
ATOM      9  C   UNL     1     101.597  83.404  77.228  1.00  0.00     0.022 C 
ATOM     10  C   UNL     1     101.437  83.967  75.819  1.00  0.00     0.004 C 
ENDBRANCH   1   3
BRANCH   2  11
ATOM     11  C   UNL     1      98.433  82.914  82.012  1.00  0.00     0.001 C 
ATOM     12  C   UNL     1      97.657  83.309  83.035  1.00  0.00     0.008 C 
BRANCH  12  13
ATOM     13  C   UNL     1      97.823  82.881  84.434  1.00  0.00    -0.022 A 
ATOM     14  C   UNL     1      98.313  83.787  85.365  1.00  0.00     0.058 A 
ATOM     15  C   UNL     1      97.481  81.573  84.787  1.00  0.00     0.012 A 
ATOM     16  C   UNL     1      98.449  83.340  86.663  1.00  0.00     0.166 A 
ATOM     17  C   UNL     1      97.629  81.146  86.109  1.00  0.00     0.051 A 
ATOM     18  O   UNL     1      98.911  84.070  87.715  1.00  0.00    -0.454 OA
ATOM     19  C   UNL     1      98.117  82.054  87.025  1.00  0.00     0.165 A 
ATOM     20  C   UNL     1      98.832  83.101  88.779  1.00  0.00     0.468 C 
ATOM     21  O   UNL     1      98.328  81.819  88.349  1.00  0.00    -0.454 OA
ENDBRANCH  12  13
ENDBRANCH   2  11
TORSDOF 3
ENDMDL
MODEL 6
REMARK VINA RESULT:    -6.740     24.267     25.491
REMARK INTER + INTRA:          -8.301
REMARK INTER:                  -7.980
REMARK INTRA:                  -0.322
REMARK UNBOUND:                -0.379
REMARK SMILES O=C(/C=C/C=C/c1ccc2c(c1)OCO2)N1CCCCC1
REMARK SMILES IDX 3 1 4 2 2 3 1 4 16 5 17 6 21 7 18 8 20 9 19 10 5 11 6 12
REMARK SMILES IDX 7 13 12 14 8 15 11 16 9 17 13 18 10 19 14 20 15 21
REMARK H PARENT
REMARK Flexibility Score: inf
ROOT
ATOM      1  C   UNL     1      97.206  83.796  85.411  1.00  0.00     0.071 C 
ATOM      2  C   UNL     1      97.742  82.910  84.575  1.00  0.00     0.006 C 
ENDROOT
BRANCH   1   3
ATOM      3  C   UNL     1      97.190  83.471  86.851  1.00  0.00     0.246 C 
ATOM      4  O   UNL     1      98.186  82.917  87.320  1.00  0.00    -0.270 OA
ATOM      5  N   UNL     1      96.051  83.806  87.581  1.00  0.00    -0.339 N 
ATOM      6  C   UNL     1      96.004  83.491  89.012  1.00  0.00     0.120 C 
ATOM      7  C   UNL     1      94.828  84.425  87.048  1.00  0.00     0.120 C 
ATOM      8  C   UNL     1      95.648  84.719  89.842  1.00  0.00     0.022 C 
ATOM      9  C   UNL     1      94.435  85.661  87.857  1.00  0.00     0.022 C 
ATOM     10  C   UNL     1      94.351  85.354  89.350  1.00  0.00     0.004 C 
ENDBRANCH   1   3
BRANCH   2  11
ATOM     11  C   UNL     1      97.803  83.139  83.147  1.00  0.00     0.001 C 
ATOM     12  C   UNL     1      98.774  82.632  82.370  1.00  0.00     0.008 C 
BRANCH  12  13
ATOM     13  C   UNL     1      98.888  82.840  80.917  1.00  0.00    -0.022 A 
ATOM     14  C   UNL     1      97.823  83.406  80.230  1.00  0.00     0.058 A 
ATOM     15  C   UNL     1     100.066  82.461  80.268  1.00  0.00     0.012 A 
ATOM     16  C   UNL     1      97.977  83.581  78.870  1.00  0.00     0.166 A 
ATOM     17  C   UNL     1     100.195  82.649  78.891  1.00  0.00     0.051 A 
ATOM     18  O   UNL     1      97.054  84.115  78.024  1.00  0.00    -0.454 OA
ATOM     19  C   UNL     1      99.132  83.213  78.218  1.00  0.00     0.165 A 
ATOM     20  C   UNL     1      97.757  84.042  76.767  1.00  0.00     0.468 C 
ATOM     21  O   UNL     1      99.076  83.470  76.882  1.00  0.00    -0.454 OA
ENDBRANCH  12  13
ENDBRANCH   2  11
TORSDOF 3
ENDMDL
MODEL 7
REMARK VINA RESULT:    -6.674     17.040     20.182
REMARK INTER + INTRA:          -8.223
REMARK INTER:                  -7.831
REMARK INTRA:                  -0.392
REMARK UNBOUND:                -0.379
REMARK SMILES O=C(/C=C/C=C/c1ccc2c(c1)OCO2)N1CCCCC1
REMARK SMILES IDX 3 1 4 2 2 3 1 4 16 5 17 6 21 7 18 8 20 9 19 10 5 11 6 12
REMARK SMILES IDX 7 13 12 14 8 15 11 16 9 17 13 18 10 19 14 20 15 21
REMARK H PARENT
REMARK Flexibility Score: inf
ROOT
ATOM      1  C   UNL     1      91.030  99.761  72.005  1.00  0.00     0.071 C 
ATOM      2  C   UNL     1      92.152 100.416  72.299  1.00  0.00     0.006 C 
ENDROOT
BRANCH   1   3
ATOM      3  C   UNL     1      90.198 100.272  70.898  1.00  0.00     0.246 C 
ATOM      4  O   UNL     1      90.219 101.484  70.682  1.00  0.00    -0.270 OA
ATOM      5  N   UNL     1      89.441  99.350  70.176  1.00  0.00    -0.339 N 
ATOM      6  C   UNL     1      88.600  99.828  69.074  1.00  0.00     0.120 C 
ATOM      7  C   UNL     1      89.355  97.905  70.432  1.00  0.00     0.120 C 
ATOM      8  C   UNL     1      88.880  99.062  67.786  1.00  0.00     0.022 C 
ATOM      9  C   UNL     1      89.627  97.100  69.161  1.00  0.00     0.022 C 
ATOM     10  C   UNL     1      88.744  97.558  68.004  1.00  0.00     0.004 C 
ENDBRANCH   1   3
BRANCH   2  11
ATOM     11  C   UNL     1      93.033  99.993  73.366  1.00  0.00     0.001 C 
ATOM     12  C   UNL     1      92.706  99.024  74.237  1.00  0.00     0.008 C 
BRANCH  12  13
ATOM     13  C   UNL     1      93.559  98.561  75.345  1.00  0.00    -0.022 A 
ATOM     14  C   UNL     1      94.524  99.418  75.858  1.00  0.00     0.058 A 
ATOM     15  C   UNL     1      93.374  97.271  75.849  1.00  0.00     0.012 A 
ATOM     16  C   UNL     1      95.298  98.939  76.895  1.00  0.00     0.166 A 
ATOM     17  C   UNL     1      94.172  96.812  76.899  1.00  0.00     0.051 A 
ATOM     18  O   UNL     1      96.291  99.620  77.530  1.00  0.00    -0.454 OA
ATOM     19  C   UNL     1      95.127  97.671  77.402  1.00  0.00     0.165 A 
ATOM     20  C   UNL     1      96.726  98.638  78.492  1.00  0.00     0.468 C 
ATOM     21  O   UNL     1      95.992  97.399  78.417  1.00  0.00    -0.454 OA
ENDBRANCH  12  13
ENDBRANCH   2  11
TORSDOF 3
ENDMDL
MODEL 8
REMARK VINA RESULT:    -6.651     24.189     25.433
REMARK INTER + INTRA:          -8.196
REMARK INTER:                  -7.812
REMARK INTRA:                  -0.385
REMARK UNBOUND:                -0.379
REMARK SMILES O=C(/C=C/C=C/c1ccc2c(c1)OCO2)N1CCCCC1
REMARK SMILES IDX 3 1 4 2 2 3 1 4 16 5 17 6 21 7 18 8 20 9 19 10 5 11 6 12
REMARK SMILES IDX 7 13 12 14 8 15 11 16 9 17 13 18 10 19 14 20 15 21
REMARK H PARENT
REMARK Flexibility Score: inf
ROOT
ATOM      1  C   UNL     1      95.188  82.924  86.368  1.00  0.00     0.071 C 
ATOM      2  C   UNL     1      96.236  82.103  86.341  1.00  0.00     0.006 C 
ENDROOT
BRANCH   1   3
ATOM      3  C   UNL     1      94.436  83.051  87.632  1.00  0.00     0.246 C 
ATOM      4  O   UNL     1      94.960  83.692  88.544  1.00  0.00    -0.270 OA
ATOM      5  N   UNL     1      93.189  82.433  87.712  1.00  0.00    -0.339 N 
ATOM      6  C   UNL     1      92.422  82.537  88.957  1.00  0.00     0.120 C 
ATOM      7  C   UNL     1      92.553  81.623  86.663  1.00  0.00     0.120 C 
ATOM      8  C   UNL     1      91.009  83.050  88.699  1.00  0.00     0.022 C 
ATOM      9  C   UNL     1      91.130  82.105  86.378  1.00  0.00     0.022 C 
ATOM     10  C   UNL     1      90.299  82.195  87.655  1.00  0.00     0.004 C 
ENDBRANCH   1   3
BRANCH   2  11
ATOM     11  C   UNL     1      97.034  81.913  85.149  1.00  0.00     0.001 C 
ATOM     12  C   UNL     1      97.475  82.935  84.398  1.00  0.00     0.008 C 
BRANCH  12  13
ATOM     13  C   UNL     1      98.281  82.798  83.174  1.00  0.00    -0.022 A 
ATOM     14  C   UNL     1      97.792  83.313  81.981  1.00  0.00     0.058 A 
ATOM     15  C   UNL     1      99.518  82.152  83.246  1.00  0.00     0.012 A 
ATOM     16  C   UNL     1      98.584  83.160  80.862  1.00  0.00     0.166 A 
ATOM     17  C   UNL     1     100.299  82.011  82.097  1.00  0.00     0.051 A 
ATOM     18  O   UNL     1      98.283  83.592  79.606  1.00  0.00    -0.454 OA
ATOM     19  C   UNL     1      99.804  82.526  80.917  1.00  0.00     0.165 A 
ATOM     20  C   UNL     1      99.450  83.159  78.879  1.00  0.00     0.468 C 
ATOM     21  O   UNL     1     100.420  82.482  79.705  1.00  0.00    -0.454 OA
ENDBRANCH  12  13
ENDBRANCH   2  11
TORSDOF 3
ENDMDL
MODEL 9
REMARK VINA RESULT:    -6.565     25.757     27.738
REMARK INTER + INTRA:          -8.095
REMARK INTER:                  -7.771
REMARK INTRA:                  -0.325
REMARK UNBOUND:                -0.379
REMARK SMILES O=C(/C=C/C=C/c1ccc2c(c1)OCO2)N1CCCCC1
REMARK SMILES IDX 3 1 4 2 2 3 1 4 16 5 17 6 21 7 18 8 20 9 19 10 5 11 6 12
REMARK SMILES IDX 7 13 12 14 8 15 11 16 9 17 13 18 10 19 14 20 15 21
REMARK H PARENT
REMARK Flexibility Score: inf
ROOT
ATOM      1  C   UNL     1      96.203  85.552  87.655  1.00  0.00     0.071 C 
ATOM      2  C   UNL     1      95.906  86.063  88.848  1.00  0.00     0.006 C 
ENDROOT
BRANCH   1   3
ATOM      3  C   UNL     1      96.584  84.127  87.584  1.00  0.00     0.246 C 
ATOM      4  O   UNL     1      96.245  83.401  88.519  1.00  0.00    -0.270 OA
ATOM      5  N   UNL     1      97.304  83.702  86.469  1.00  0.00    -0.339 N 
ATOM      6  C   UNL     1      97.701  82.294  86.373  1.00  0.00     0.120 C 
ATOM      7  C   UNL     1      97.765  84.547  85.358  1.00  0.00     0.120 C 
ATOM      8  C   UNL     1      97.263  81.681  85.048  1.00  0.00     0.022 C 
ATOM      9  C   UNL     1      97.347  83.963  84.008  1.00  0.00     0.022 C 
ATOM     10  C   UNL     1      97.773  82.504  83.869  1.00  0.00     0.004 C 
ENDBRANCH   1   3
BRANCH   2  11
ATOM     11  C   UNL     1      95.522  87.448  89.019  1.00  0.00     0.001 C 
ATOM     12  C   UNL     1      94.831  87.885  90.084  1.00  0.00     0.008 C 
BRANCH  12  13
ATOM     13  C   UNL     1      94.409  89.278  90.303  1.00  0.00    -0.022 A 
ATOM     14  C   UNL     1      93.345  89.536  91.158  1.00  0.00     0.058 A 
ATOM     15  C   UNL     1      95.091  90.304  89.644  1.00  0.00     0.012 A 
ATOM     16  C   UNL     1      92.987  90.857  91.331  1.00  0.00     0.166 A 
ATOM     17  C   UNL     1      94.707  91.633  89.838  1.00  0.00     0.051 A 
ATOM     18  O   UNL     1      91.977  91.313  92.122  1.00  0.00    -0.454 OA
ATOM     19  C   UNL     1      93.649  91.878  90.689  1.00  0.00     0.165 A 
ATOM     20  C   UNL     1      92.078  92.735  91.905  1.00  0.00     0.468 C 
ATOM     21  O   UNL     1      93.138  93.101  90.997  1.00  0.00    -0.454 OA
ENDBRANCH  12  13
ENDBRANCH   2  11
TORSDOF 3
ENDMDL
MODEL 10
REMARK VINA RESULT:    -6.512      2.968      8.636
REMARK INTER + INTRA:          -8.033
REMARK INTER:                  -7.645
REMARK INTRA:                  -0.388
REMARK UNBOUND:                -0.379
REMARK SMILES O=C(/C=C/C=C/c1ccc2c(c1)OCO2)N1CCCCC1
REMARK SMILES IDX 3 1 4 2 2 3 1 4 16 5 17 6 21 7 18 8 20 9 19 10 5 11 6 12
REMARK SMILES IDX 7 13 12 14 8 15 11 16 9 17 13 18 10 19 14 20 15 21
REMARK H PARENT
REMARK Flexibility Score: inf
ROOT
ATOM      1  C   UNL     1      75.287  88.108  69.937  1.00  0.00     0.071 C 
ATOM      2  C   UNL     1      74.701  88.710  70.970  1.00  0.00     0.006 C 
ENDROOT
BRANCH   1   3
ATOM      3  C   UNL     1      75.087  86.654  69.775  1.00  0.00     0.246 C 
ATOM      4  O   UNL     1      73.936  86.225  69.866  1.00  0.00    -0.270 OA
ATOM      5  N   UNL     1      76.212  85.866  69.537  1.00  0.00    -0.339 N 
ATOM      6  C   UNL     1      76.045  84.418  69.378  1.00  0.00     0.120 C 
ATOM      7  C   UNL     1      77.604  86.336  69.467  1.00  0.00     0.120 C 
ATOM      8  C   UNL     1      76.690  83.922  68.088  1.00  0.00     0.022 C 
ATOM      9  C   UNL     1      78.287  85.855  68.187  1.00  0.00     0.022 C 
ATOM     10  C   UNL     1      78.153  84.345  68.010  1.00  0.00     0.004 C 
ENDBRANCH   1   3
BRANCH   2  11
ATOM     11  C   UNL     1      74.839  90.131  71.212  1.00  0.00     0.001 C 
ATOM     12  C   UNL     1      76.022  90.764  71.168  1.00  0.00     0.008 C 
BRANCH  12  13
ATOM     13  C   UNL     1      76.220  92.202  71.413  1.00  0.00    -0.022 A 
ATOM     14  C   UNL     1      77.229  92.608  72.276  1.00  0.00     0.058 A 
ATOM     15  C   UNL     1      75.385  93.120  70.771  1.00  0.00     0.012 A 
ATOM     16  C   UNL     1      77.375  93.966  72.473  1.00  0.00     0.166 A 
ATOM     17  C   UNL     1      75.555  94.489  70.989  1.00  0.00     0.051 A 
ATOM     18  O   UNL     1      78.300  94.560  73.277  1.00  0.00    -0.454 OA
ATOM     19  C   UNL     1      76.561  94.882  71.847  1.00  0.00     0.165 A 
ATOM     20  C   UNL     1      77.975  95.952  73.086  1.00  0.00     0.468 C 
ATOM     21  O   UNL     1      76.873  96.164  72.180  1.00  0.00    -0.454 OA
ENDBRANCH  12  13
ENDBRANCH   2  11
TORSDOF 3
ENDMDL
