MODEL 1
REMARK VINA RESULT:    -6.046      0.000      0.000
REMARK INTER + INTRA:         -10.962
REMARK INTER:                  -9.934
REMARK INTRA:                  -1.027
REMARK UNBOUND:                -1.027
REMARK SMILES CCCCC[C@H](O)CC(=O)CCc1ccc(O)c(OC)c1
REMARK SMILES IDX 8 1 6 2 7 3 5 5 4 6 3 7 2 8 1 9 9 10 10 11 11 12 12 13 13 14
REMARK SMILES IDX 21 15 14 16 18 17 15 18 16 19 19 20 20 21 17 22
REMARK H PARENT 7 4 17 23
REMARK Flexibility Score: inf
ROOT
ATOM      1  C   UNL     1      95.282  93.165  78.461  1.00  0.00     0.107 C 
ENDROOT
BRANCH   1   2
ATOM      2  C   UNL     1      95.129  93.361  79.972  1.00  0.00     0.121 C 
BRANCH   2   3
ATOM      3  O   UNL     1      94.473  92.231  80.542  1.00  0.00    -0.393 OA
ATOM      4  H   UNL     1      94.427  92.368  81.504  1.00  0.00     0.210 HD
ENDBRANCH   2   3
BRANCH   2   5
ATOM      5  C   UNL     1      96.467  93.582  80.687  1.00  0.00     0.032 C 
BRANCH   5   6
ATOM      6  C   UNL     1      96.590  95.000  81.257  1.00  0.00     0.003 C 
BRANCH   6   7
ATOM      7  C   UNL     1      97.683  95.834  80.580  1.00  0.00    -0.000 C 
BRANCH   7   8
ATOM      8  C   UNL     1      98.360  95.121  79.410  1.00  0.00    -0.003 C 
ATOM      9  C   UNL     1      99.849  95.424  79.364  1.00  0.00     0.004 C 
ENDBRANCH   7   8
ENDBRANCH   6   7
ENDBRANCH   5   6
ENDBRANCH   2   5
ENDBRANCH   1   2
BRANCH   1  10
ATOM     10  C   UNL     1      94.997  94.428  77.665  1.00  0.00     0.135 C 
ATOM     11  O   UNL     1      94.978  95.530  78.211  1.00  0.00    -0.300 OA
BRANCH  10  12
ATOM     12  C   UNL     1      94.784  94.256  76.168  1.00  0.00     0.080 C 
BRANCH  12  13
ATOM     13  C   UNL     1      93.386  94.659  75.696  1.00  0.00     0.043 C 
BRANCH  13  14
ATOM     14  C   UNL     1      92.309  93.705  76.154  1.00  0.00    -0.044 A 
ATOM     15  C   UNL     1      91.996  92.584  75.384  1.00  0.00     0.054 A 
ATOM     16  C   UNL     1      91.627  93.945  77.347  1.00  0.00     0.008 A 
ATOM     17  C   UNL     1      91.001  91.703  75.809  1.00  0.00     0.160 A 
ATOM     18  C   UNL     1      90.632  93.064  77.772  1.00  0.00     0.050 A 
ATOM     19  C   UNL     1      90.319  91.943  77.002  1.00  0.00     0.157 A 
BRANCH  17  20
ATOM     20  O   UNL     1      90.704  90.612  75.049  1.00  0.00    -0.493 OA
ATOM     21  C   UNL     1      89.898  90.829  73.892  1.00  0.00     0.278 C 
ENDBRANCH  17  20
BRANCH  19  22
ATOM     22  O   UNL     1      89.346  91.090  77.427  1.00  0.00    -0.504 OA
ATOM     23  H   UNL     1      89.619  90.694  78.272  1.00  0.00     0.293 HD
ENDBRANCH  19  22
ENDBRANCH  13  14
ENDBRANCH  12  13
ENDBRANCH  10  12
ENDBRANCH   1  10
TORSDOF 12
ENDMDL
MODEL 2
REMARK VINA RESULT:    -5.854      1.588      2.055
REMARK INTER + INTRA:         -10.645
REMARK INTER:                  -9.520
REMARK INTRA:                  -1.125
REMARK UNBOUND:                -1.027
REMARK SMILES CCCCC[C@H](O)CC(=O)CCc1ccc(O)c(OC)c1
REMARK SMILES IDX 8 1 6 2 7 3 5 5 4 6 3 7 2 8 1 9 9 10 10 11 11 12 12 13 13 14
REMARK SMILES IDX 21 15 14 16 18 17 15 18 16 19 19 20 20 21 17 22
REMARK H PARENT 7 4 17 23
REMARK Flexibility Score: inf
ROOT
ATOM      1  C   UNL     1      96.194  93.379  79.830  1.00  0.00     0.107 C 
ENDROOT
BRANCH   1   2
ATOM      2  C   UNL     1      96.029  94.702  80.582  1.00  0.00     0.121 C 
BRANCH   2   3
ATOM      3  O   UNL     1      95.750  94.445  81.957  1.00  0.00    -0.393 OA
ATOM      4  H   UNL     1      94.800  94.601  82.102  1.00  0.00     0.210 HD
ENDBRANCH   2   3
BRANCH   2   5
ATOM      5  C   UNL     1      97.261  95.609  80.478  1.00  0.00     0.032 C 
BRANCH   5   6
ATOM      6  C   UNL     1      97.157  96.589  79.303  1.00  0.00     0.003 C 
BRANCH   6   7
ATOM      7  C   UNL     1      98.013  96.184  78.099  1.00  0.00    -0.000 C 
BRANCH   7   8
ATOM      8  C   UNL     1      97.821  97.086  76.881  1.00  0.00    -0.003 C 
ATOM      9  C   UNL     1      96.514  96.780  76.166  1.00  0.00     0.004 C 
ENDBRANCH   7   8
ENDBRANCH   6   7
ENDBRANCH   5   6
ENDBRANCH   2   5
ENDBRANCH   1   2
BRANCH   1  10
ATOM     10  C   UNL     1      95.611  93.414  78.427  1.00  0.00     0.135 C 
ATOM     11  O   UNL     1      96.026  92.657  77.550  1.00  0.00    -0.300 OA
BRANCH  10  12
ATOM     12  C   UNL     1      94.471  94.392  78.187  1.00  0.00     0.080 C 
BRANCH  12  13
ATOM     13  C   UNL     1      93.837  94.269  76.801  1.00  0.00     0.043 C 
BRANCH  13  14
ATOM     14  C   UNL     1      92.549  93.479  76.807  1.00  0.00    -0.044 A 
ATOM     15  C   UNL     1      92.176  92.744  75.683  1.00  0.00     0.054 A 
ATOM     16  C   UNL     1      91.734  93.486  77.939  1.00  0.00     0.008 A 
ATOM     17  C   UNL     1      90.987  92.014  75.691  1.00  0.00     0.160 A 
ATOM     18  C   UNL     1      90.544  92.757  77.947  1.00  0.00     0.050 A 
ATOM     19  C   UNL     1      90.171  92.021  76.822  1.00  0.00     0.157 A 
BRANCH  17  20
ATOM     20  O   UNL     1      90.632  91.300  74.586  1.00  0.00    -0.493 OA
ATOM     21  C   UNL     1      91.067  89.943  74.524  1.00  0.00     0.278 C 
ENDBRANCH  17  20
BRANCH  19  22
ATOM     22  O   UNL     1      89.008  91.313  76.842  1.00  0.00    -0.504 OA
ATOM     23  H   UNL     1      88.357  91.756  76.270  1.00  0.00     0.293 HD
ENDBRANCH  19  22
ENDBRANCH  13  14
ENDBRANCH  12  13
ENDBRANCH  10  12
ENDBRANCH   1  10
TORSDOF 12
ENDMDL
MODEL 3
REMARK VINA RESULT:    -5.789     20.642     24.493
REMARK INTER + INTRA:         -10.538
REMARK INTER:                  -9.385
REMARK INTRA:                  -1.153
REMARK UNBOUND:                -1.027
REMARK SMILES CCCCC[C@H](O)CC(=O)CCc1ccc(O)c(OC)c1
REMARK SMILES IDX 8 1 6 2 7 3 5 5 4 6 3 7 2 8 1 9 9 10 10 11 11 12 12 13 13 14
REMARK SMILES IDX 21 15 14 16 18 17 15 18 16 19 19 20 20 21 17 22
REMARK H PARENT 7 4 17 23
REMARK Flexibility Score: inf
ROOT
ATOM      1  C   UNL     1      76.224  85.512  66.659  1.00  0.00     0.107 C 
ENDROOT
BRANCH   1   2
ATOM      2  C   UNL     1      76.108  85.485  68.185  1.00  0.00     0.121 C 
BRANCH   2   3
ATOM      3  O   UNL     1      77.382  85.740  68.771  1.00  0.00    -0.393 OA
ATOM      4  H   UNL     1      77.279  86.477  69.398  1.00  0.00     0.210 HD
ENDBRANCH   2   3
BRANCH   2   5
ATOM      5  C   UNL     1      75.091  86.496  68.727  1.00  0.00     0.032 C 
BRANCH   5   6
ATOM      6  C   UNL     1      75.049  87.779  67.888  1.00  0.00     0.003 C 
BRANCH   6   7
ATOM      7  C   UNL     1      76.130  88.793  68.276  1.00  0.00    -0.000 C 
BRANCH   7   8
ATOM      8  C   UNL     1      77.061  89.167  67.124  1.00  0.00    -0.003 C 
ATOM      9  C   UNL     1      76.303  89.267  65.809  1.00  0.00     0.004 C 
ENDBRANCH   7   8
ENDBRANCH   6   7
ENDBRANCH   5   6
ENDBRANCH   2   5
ENDBRANCH   1   2
BRANCH   1  10
ATOM     10  C   UNL     1      76.920  84.285  66.092  1.00  0.00     0.135 C 
ATOM     11  O   UNL     1      77.968  83.867  66.585  1.00  0.00    -0.300 OA
BRANCH  10  12
ATOM     12  C   UNL     1      76.232  83.587  64.928  1.00  0.00     0.080 C 
BRANCH  12  13
ATOM     13  C   UNL     1      75.593  82.249  65.304  1.00  0.00     0.043 C 
BRANCH  13  14
ATOM     14  C   UNL     1      74.084  82.294  65.308  1.00  0.00    -0.044 A 
ATOM     15  C   UNL     1      73.352  81.219  64.805  1.00  0.00     0.054 A 
ATOM     16  C   UNL     1      73.421  83.413  65.815  1.00  0.00     0.008 A 
ATOM     17  C   UNL     1      71.958  81.262  64.809  1.00  0.00     0.160 A 
ATOM     18  C   UNL     1      72.027  83.456  65.819  1.00  0.00     0.050 A 
ATOM     19  C   UNL     1      71.295  82.380  65.316  1.00  0.00     0.157 A 
BRANCH  17  20
ATOM     20  O   UNL     1      71.253  80.205  64.315  1.00  0.00    -0.493 OA
ATOM     21  C   UNL     1      71.449  79.883  62.939  1.00  0.00     0.278 C 
ENDBRANCH  17  20
BRANCH  19  22
ATOM     22  O   UNL     1      69.934  82.433  65.326  1.00  0.00    -0.504 OA
ATOM     23  H   UNL     1      69.637  82.786  66.182  1.00  0.00     0.293 HD
ENDBRANCH  19  22
ENDBRANCH  13  14
ENDBRANCH  12  13
ENDBRANCH  10  12
ENDBRANCH   1  10
TORSDOF 12
ENDMDL
MODEL 4
REMARK VINA RESULT:    -5.691      3.516      7.788
REMARK INTER + INTRA:         -10.377
REMARK INTER:                  -9.415
REMARK INTRA:                  -0.963
REMARK UNBOUND:                -1.027
REMARK SMILES CCCCC[C@H](O)CC(=O)CCc1ccc(O)c(OC)c1
REMARK SMILES IDX 8 1 6 2 7 3 5 5 4 6 3 7 2 8 1 9 9 10 10 11 11 12 12 13 13 14
REMARK SMILES IDX 21 15 14 16 18 17 15 18 16 19 19 20 20 21 17 22
REMARK H PARENT 7 4 17 23
REMARK Flexibility Score: inf
ROOT
ATOM      1  C   UNL     1      92.471  93.192  77.632  1.00  0.00     0.107 C 
ENDROOT
BRANCH   1   2
ATOM      2  C   UNL     1      90.943  93.249  77.582  1.00  0.00     0.121 C 
BRANCH   2   3
ATOM      3  O   UNL     1      90.521  94.543  77.156  1.00  0.00    -0.393 OA
ATOM      4  H   UNL     1      91.317  95.090  77.034  1.00  0.00     0.210 HD
ENDBRANCH   2   3
BRANCH   2   5
ATOM      5  C   UNL     1      90.332  92.190  76.657  1.00  0.00     0.032 C 
BRANCH   5   6
ATOM      6  C   UNL     1      91.255  91.850  75.481  1.00  0.00     0.003 C 
BRANCH   6   7
ATOM      7  C   UNL     1      90.624  90.882  74.474  1.00  0.00    -0.000 C 
BRANCH   7   8
ATOM      8  C   UNL     1      89.117  91.069  74.308  1.00  0.00    -0.003 C 
ATOM      9  C   UNL     1      88.781  91.690  72.961  1.00  0.00     0.004 C 
ENDBRANCH   7   8
ENDBRANCH   6   7
ENDBRANCH   5   6
ENDBRANCH   2   5
ENDBRANCH   1   2
BRANCH   1  10
ATOM     10  C   UNL     1      93.131  94.498  77.220  1.00  0.00     0.135 C 
ATOM     11  O   UNL     1      93.384  95.369  78.052  1.00  0.00    -0.300 OA
BRANCH  10  12
ATOM     12  C   UNL     1      93.495  94.644  75.750  1.00  0.00     0.080 C 
BRANCH  12  13
ATOM     13  C   UNL     1      93.080  95.986  75.145  1.00  0.00     0.043 C 
BRANCH  13  14
ATOM     14  C   UNL     1      94.241  96.756  74.561  1.00  0.00    -0.044 A 
ATOM     15  C   UNL     1      94.006  97.861  73.743  1.00  0.00     0.054 A 
ATOM     16  C   UNL     1      95.550  96.360  74.840  1.00  0.00     0.008 A 
ATOM     17  C   UNL     1      95.079  98.571  73.205  1.00  0.00     0.160 A 
ATOM     18  C   UNL     1      96.623  97.071  74.302  1.00  0.00     0.050 A 
ATOM     19  C   UNL     1      96.387  98.176  73.484  1.00  0.00     0.157 A 
BRANCH  17  20
ATOM     20  O   UNL     1      94.836  99.649  72.408  1.00  0.00    -0.493 OA
ATOM     21  C   UNL     1      94.526  99.387  71.040  1.00  0.00     0.278 C 
ENDBRANCH  17  20
BRANCH  19  22
ATOM     22  O   UNL     1      97.443  98.862  72.964  1.00  0.00    -0.504 OA
ATOM     23  H   UNL     1      98.107  98.998  73.662  1.00  0.00     0.293 HD
ENDBRANCH  19  22
ENDBRANCH  13  14
ENDBRANCH  12  13
ENDBRANCH  10  12
ENDBRANCH   1  10
TORSDOF 12
ENDMDL
MODEL 5
REMARK VINA RESULT:    -5.653     20.886     24.447
REMARK INTER + INTRA:         -10.315
REMARK INTER:                  -8.964
REMARK INTRA:                  -1.350
REMARK UNBOUND:                -1.027
REMARK SMILES CCCCC[C@H](O)CC(=O)CCc1ccc(O)c(OC)c1
REMARK SMILES IDX 8 1 6 2 7 3 5 5 4 6 3 7 2 8 1 9 9 10 10 11 11 12 12 13 13 14
REMARK SMILES IDX 21 15 14 16 18 17 15 18 16 19 19 20 20 21 17 22
REMARK H PARENT 7 4 17 23
REMARK Flexibility Score: inf
ROOT
ATOM      1  C   UNL     1      76.477  85.393  65.908  1.00  0.00     0.107 C 
ENDROOT
BRANCH   1   2
ATOM      2  C   UNL     1      75.906  85.679  67.299  1.00  0.00     0.121 C 
BRANCH   2   3
ATOM      3  O   UNL     1      75.555  84.455  67.939  1.00  0.00    -0.393 OA
ATOM      4  H   UNL     1      75.325  83.812  67.245  1.00  0.00     0.210 HD
ENDBRANCH   2   3
BRANCH   2   5
ATOM      5  C   UNL     1      76.875  86.458  68.197  1.00  0.00     0.032 C 
BRANCH   5   6
ATOM      6  C   UNL     1      77.427  87.708  67.502  1.00  0.00     0.003 C 
BRANCH   6   7
ATOM      7  C   UNL     1      76.670  88.989  67.865  1.00  0.00    -0.000 C 
BRANCH   7   8
ATOM      8  C   UNL     1      76.410  89.906  66.672  1.00  0.00    -0.003 C 
ATOM      9  C   UNL     1      76.321  89.117  65.375  1.00  0.00     0.004 C 
ENDBRANCH   7   8
ENDBRANCH   6   7
ENDBRANCH   5   6
ENDBRANCH   2   5
ENDBRANCH   1   2
BRANCH   1  10
ATOM     10  C   UNL     1      76.854  83.935  65.707  1.00  0.00     0.135 C 
ATOM     11  O   UNL     1      77.733  83.408  66.389  1.00  0.00    -0.300 OA
BRANCH  10  12
ATOM     12  C   UNL     1      76.061  83.163  64.663  1.00  0.00     0.080 C 
BRANCH  12  13
ATOM     13  C   UNL     1      75.363  81.919  65.217  1.00  0.00     0.043 C 
BRANCH  13  14
ATOM     14  C   UNL     1      73.857  82.029  65.199  1.00  0.00    -0.044 A 
ATOM     15  C   UNL     1      73.238  83.213  65.600  1.00  0.00     0.054 A 
ATOM     16  C   UNL     1      73.084  80.945  64.781  1.00  0.00     0.008 A 
ATOM     17  C   UNL     1      71.847  83.313  65.583  1.00  0.00     0.160 A 
ATOM     18  C   UNL     1      71.693  81.045  64.763  1.00  0.00     0.050 A 
ATOM     19  C   UNL     1      71.074  82.230  65.164  1.00  0.00     0.157 A 
BRANCH  17  20
ATOM     20  O   UNL     1      71.254  84.475  65.978  1.00  0.00    -0.493 OA
ATOM     21  C   UNL     1      72.083  85.438  66.625  1.00  0.00     0.278 C 
ENDBRANCH  17  20
BRANCH  19  22
ATOM     22  O   UNL     1      69.715  82.316  65.143  1.00  0.00    -0.504 OA
ATOM     23  H   UNL     1      69.363  81.973  65.982  1.00  0.00     0.293 HD
ENDBRANCH  19  22
ENDBRANCH  13  14
ENDBRANCH  12  13
ENDBRANCH  10  12
ENDBRANCH   1  10
TORSDOF 12
ENDMDL
MODEL 6
REMARK VINA RESULT:    -5.604      8.812     12.389
REMARK INTER + INTRA:         -10.234
REMARK INTER:                  -9.341
REMARK INTRA:                  -0.893
REMARK UNBOUND:                -1.027
REMARK SMILES CCCCC[C@H](O)CC(=O)CCc1ccc(O)c(OC)c1
REMARK SMILES IDX 8 1 6 2 7 3 5 5 4 6 3 7 2 8 1 9 9 10 10 11 11 12 12 13 13 14
REMARK SMILES IDX 21 15 14 16 18 17 15 18 16 19 19 20 20 21 17 22
REMARK H PARENT 7 4 17 23
REMARK Flexibility Score: inf
ROOT
ATOM      1  C   UNL     1      90.494  99.177  68.681  1.00  0.00     0.107 C 
ENDROOT
BRANCH   1   2
ATOM      2  C   UNL     1      89.603  98.211  67.895  1.00  0.00     0.121 C 
BRANCH   2   3
ATOM      3  O   UNL     1      88.389  97.986  68.608  1.00  0.00    -0.393 OA
ATOM      4  H   UNL     1      87.980  97.179  68.250  1.00  0.00     0.210 HD
ENDBRANCH   2   3
BRANCH   2   5
ATOM      5  C   UNL     1      89.274  98.712  66.483  1.00  0.00     0.032 C 
BRANCH   5   6
ATOM      6  C   UNL     1      88.763 100.158  66.489  1.00  0.00     0.003 C 
BRANCH   6   7
ATOM      7  C   UNL     1      87.239 100.262  66.373  1.00  0.00    -0.000 C 
BRANCH   7   8
ATOM      8  C   UNL     1      86.733 101.695  66.214  1.00  0.00    -0.003 C 
ATOM      9  C   UNL     1      87.860 102.702  66.384  1.00  0.00     0.004 C 
ENDBRANCH   7   8
ENDBRANCH   6   7
ENDBRANCH   5   6
ENDBRANCH   2   5
ENDBRANCH   1   2
BRANCH   1  10
ATOM     10  C   UNL     1      90.360  99.020  70.187  1.00  0.00     0.135 C 
ATOM     11  O   UNL     1      89.974  97.960  70.680  1.00  0.00    -0.300 OA
BRANCH  10  12
ATOM     12  C   UNL     1      90.768 100.214  71.036  1.00  0.00     0.080 C 
BRANCH  12  13
ATOM     13  C   UNL     1      92.222 100.645  70.832  1.00  0.00     0.043 C 
BRANCH  13  14
ATOM     14  C   UNL     1      93.212  99.728  71.510  1.00  0.00    -0.044 A 
ATOM     15  C   UNL     1      94.322  99.257  70.808  1.00  0.00     0.054 A 
ATOM     16  C   UNL     1      93.016  99.352  72.839  1.00  0.00     0.008 A 
ATOM     17  C   UNL     1      95.236  98.411  71.436  1.00  0.00     0.160 A 
ATOM     18  C   UNL     1      93.931  98.506  73.467  1.00  0.00     0.050 A 
ATOM     19  C   UNL     1      95.040  98.035  72.765  1.00  0.00     0.157 A 
BRANCH  17  20
ATOM     20  O   UNL     1      96.315  97.957  70.740  1.00  0.00    -0.493 OA
ATOM     21  C   UNL     1      96.054  97.172  69.578  1.00  0.00     0.278 C 
ENDBRANCH  17  20
BRANCH  19  22
ATOM     22  O   UNL     1      95.926  97.210  73.389  1.00  0.00    -0.504 OA
ATOM     23  H   UNL     1      95.732  96.290  73.139  1.00  0.00     0.293 HD
ENDBRANCH  19  22
ENDBRANCH  13  14
ENDBRANCH  12  13
ENDBRANCH  10  12
ENDBRANCH   1  10
TORSDOF 12
ENDMDL
MODEL 7
REMARK VINA RESULT:    -5.559     12.409     13.942
REMARK INTER + INTRA:         -10.161
REMARK INTER:                  -8.709
REMARK INTRA:                  -1.452
REMARK UNBOUND:                -1.027
REMARK SMILES CCCCC[C@H](O)CC(=O)CCc1ccc(O)c(OC)c1
REMARK SMILES IDX 8 1 6 2 7 3 5 5 4 6 3 7 2 8 1 9 9 10 10 11 11 12 12 13 13 14
REMARK SMILES IDX 21 15 14 16 18 17 15 18 16 19 19 20 20 21 17 22
REMARK H PARENT 7 4 17 23
REMARK Flexibility Score: inf
ROOT
ATOM      1  C   UNL     1      96.665  82.374  74.384  1.00  0.00     0.107 C 
ENDROOT
BRANCH   1   2
ATOM      2  C   UNL     1      97.931  82.847  73.666  1.00  0.00     0.121 C 
BRANCH   2   3
ATOM      3  O   UNL     1      98.402  84.054  74.262  1.00  0.00    -0.393 OA
ATOM      4  H   UNL     1      99.373  84.063  74.188  1.00  0.00     0.210 HD
ENDBRANCH   2   3
BRANCH   2   5
ATOM      5  C   UNL     1      99.055  81.804  73.683  1.00  0.00     0.032 C 
BRANCH   5   6
ATOM      6  C   UNL     1     100.027  82.022  74.849  1.00  0.00     0.003 C 
BRANCH   6   7
ATOM      7  C   UNL     1     100.280  80.754  75.672  1.00  0.00    -0.000 C 
BRANCH   7   8
ATOM      8  C   UNL     1     101.366  79.852  75.089  1.00  0.00    -0.003 C 
ATOM      9  C   UNL     1     102.724  80.149  75.706  1.00  0.00     0.004 C 
ENDBRANCH   7   8
ENDBRANCH   6   7
ENDBRANCH   5   6
ENDBRANCH   2   5
ENDBRANCH   1   2
BRANCH   1  10
ATOM     10  C   UNL     1      96.199  83.335  75.466  1.00  0.00     0.135 C 
ATOM     11  O   UNL     1      95.873  84.489  75.189  1.00  0.00    -0.300 OA
BRANCH  10  12
ATOM     12  C   UNL     1      96.116  82.781  76.880  1.00  0.00     0.080 C 
BRANCH  12  13
ATOM     13  C   UNL     1      96.944  81.513  77.093  1.00  0.00     0.043 C 
BRANCH  13  14
ATOM     14  C   UNL     1      97.297  81.273  78.542  1.00  0.00    -0.044 A 
ATOM     15  C   UNL     1      98.207  80.271  78.882  1.00  0.00     0.054 A 
ATOM     16  C   UNL     1      96.714  82.054  79.540  1.00  0.00     0.008 A 
ATOM     17  C   UNL     1      98.533  80.052  80.220  1.00  0.00     0.160 A 
ATOM     18  C   UNL     1      97.040  81.834  80.878  1.00  0.00     0.050 A 
ATOM     19  C   UNL     1      97.949  80.832  81.218  1.00  0.00     0.157 A 
BRANCH  17  20
ATOM     20  O   UNL     1      99.422  79.070  80.540  1.00  0.00    -0.493 OA
ATOM     21  C   UNL     1     100.808  79.387  80.419  1.00  0.00     0.278 C 
ENDBRANCH  17  20
BRANCH  19  22
ATOM     22  O   UNL     1      98.260  80.627  82.528  1.00  0.00    -0.504 OA
ATOM     23  H   UNL     1      98.464  81.483  82.944  1.00  0.00     0.293 HD
ENDBRANCH  19  22
ENDBRANCH  13  14
ENDBRANCH  12  13
ENDBRANCH  10  12
ENDBRANCH   1  10
TORSDOF 12
ENDMDL
MODEL 8
REMARK VINA RESULT:    -5.559      3.534      5.655
REMARK INTER + INTRA:         -10.161
REMARK INTER:                  -8.577
REMARK INTRA:                  -1.583
REMARK UNBOUND:                -1.027
REMARK SMILES CCCCC[C@H](O)CC(=O)CCc1ccc(O)c(OC)c1
REMARK SMILES IDX 8 1 6 2 7 3 5 5 4 6 3 7 2 8 1 9 9 10 10 11 11 12 12 13 13 14
REMARK SMILES IDX 21 15 14 16 18 17 15 18 16 19 19 20 20 21 17 22
REMARK H PARENT 7 4 17 23
REMARK Flexibility Score: inf
ROOT
ATOM      1  C   UNL     1      93.890  94.489  78.438  1.00  0.00     0.107 C 
ENDROOT
BRANCH   1   2
ATOM      2  C   UNL     1      94.712  93.546  79.321  1.00  0.00     0.121 C 
BRANCH   2   3
ATOM      3  O   UNL     1      95.245  92.486  78.530  1.00  0.00    -0.393 OA
ATOM      4  H   UNL     1      95.804  92.883  77.839  1.00  0.00     0.210 HD
ENDBRANCH   2   3
BRANCH   2   5
ATOM      5  C   UNL     1      95.857  94.256  80.053  1.00  0.00     0.032 C 
BRANCH   5   6
ATOM      6  C   UNL     1      95.996  95.721  79.623  1.00  0.00     0.003 C 
BRANCH   6   7
ATOM      7  C   UNL     1      97.110  95.949  78.596  1.00  0.00    -0.000 C 
BRANCH   7   8
ATOM      8  C   UNL     1      96.594  96.240  77.188  1.00  0.00    -0.003 C 
ATOM      9  C   UNL     1      97.582  97.085  76.399  1.00  0.00     0.004 C 
ENDBRANCH   7   8
ENDBRANCH   6   7
ENDBRANCH   5   6
ENDBRANCH   2   5
ENDBRANCH   1   2
BRANCH   1  10
ATOM     10  C   UNL     1      93.117  93.763  77.350  1.00  0.00     0.135 C 
ATOM     11  O   UNL     1      92.327  92.860  77.629  1.00  0.00    -0.300 OA
BRANCH  10  12
ATOM     12  C   UNL     1      93.337  94.240  75.922  1.00  0.00     0.080 C 
BRANCH  12  13
ATOM     13  C   UNL     1      93.043  95.727  75.719  1.00  0.00     0.043 C 
BRANCH  13  14
ATOM     14  C   UNL     1      93.903  96.360  74.652  1.00  0.00    -0.044 A 
ATOM     15  C   UNL     1      93.679  97.683  74.268  1.00  0.00     0.054 A 
ATOM     16  C   UNL     1      94.923  95.622  74.050  1.00  0.00     0.008 A 
ATOM     17  C   UNL     1      94.475  98.267  73.282  1.00  0.00     0.160 A 
ATOM     18  C   UNL     1      95.719  96.206  73.064  1.00  0.00     0.050 A 
ATOM     19  C   UNL     1      95.495  97.528  72.680  1.00  0.00     0.157 A 
BRANCH  17  20
ATOM     20  O   UNL     1      94.247  99.559  72.915  1.00  0.00    -0.493 OA
ATOM     21  C   UNL     1      94.507 100.566  73.891  1.00  0.00     0.278 C 
ENDBRANCH  17  20
BRANCH  19  22
ATOM     22  O   UNL     1      96.279  98.088  71.717  1.00  0.00    -0.504 OA
ATOM     23  H   UNL     1      95.711  98.538  71.069  1.00  0.00     0.293 HD
ENDBRANCH  19  22
ENDBRANCH  13  14
ENDBRANCH  12  13
ENDBRANCH  10  12
ENDBRANCH   1  10
TORSDOF 12
ENDMDL
MODEL 9
REMARK VINA RESULT:    -5.554      2.647      4.028
REMARK INTER + INTRA:         -10.153
REMARK INTER:                  -8.925
REMARK INTRA:                  -1.228
REMARK UNBOUND:                -1.027
REMARK SMILES CCCCC[C@H](O)CC(=O)CCc1ccc(O)c(OC)c1
REMARK SMILES IDX 8 1 6 2 7 3 5 5 4 6 3 7 2 8 1 9 9 10 10 11 11 12 12 13 13 14
REMARK SMILES IDX 21 15 14 16 18 17 15 18 16 19 19 20 20 21 17 22
REMARK H PARENT 7 4 17 23
REMARK Flexibility Score: inf
ROOT
ATOM      1  C   UNL     1      96.656  96.048  80.166  1.00  0.00     0.107 C 
ENDROOT
BRANCH   1   2
ATOM      2  C   UNL     1      95.808  96.291  81.417  1.00  0.00     0.121 C 
BRANCH   2   3
ATOM      3  O   UNL     1      95.597  95.060  82.105  1.00  0.00    -0.393 OA
ATOM      4  H   UNL     1      96.078  94.364  81.624  1.00  0.00     0.210 HD
ENDBRANCH   2   3
BRANCH   2   5
ATOM      5  C   UNL     1      96.435  97.307  82.379  1.00  0.00     0.032 C 
BRANCH   5   6
ATOM      6  C   UNL     1      96.180  98.753  81.938  1.00  0.00     0.003 C 
BRANCH   6   7
ATOM      7  C   UNL     1      97.434  99.632  81.986  1.00  0.00    -0.000 C 
BRANCH   7   8
ATOM      8  C   UNL     1      97.642 100.471  80.726  1.00  0.00    -0.003 C 
ATOM      9  C   UNL     1      97.422  99.646  79.468  1.00  0.00     0.004 C 
ENDBRANCH   7   8
ENDBRANCH   6   7
ENDBRANCH   5   6
ENDBRANCH   2   5
ENDBRANCH   1   2
BRANCH   1  10
ATOM     10  C   UNL     1      96.967  94.578  79.934  1.00  0.00     0.135 C 
ATOM     11  O   UNL     1      97.723  93.965  80.687  1.00  0.00    -0.300 OA
BRANCH  10  12
ATOM     12  C   UNL     1      96.265  93.909  78.762  1.00  0.00     0.080 C 
BRANCH  12  13
ATOM     13  C   UNL     1      94.996  93.151  79.156  1.00  0.00     0.043 C 
BRANCH  13  14
ATOM     14  C   UNL     1      93.761  93.658  78.451  1.00  0.00    -0.044 A 
ATOM     15  C   UNL     1      93.829  94.805  77.661  1.00  0.00     0.054 A 
ATOM     16  C   UNL     1      92.551  92.977  78.590  1.00  0.00     0.008 A 
ATOM     17  C   UNL     1      92.687  95.271  77.009  1.00  0.00     0.160 A 
ATOM     18  C   UNL     1      91.409  93.443  77.938  1.00  0.00     0.050 A 
ATOM     19  C   UNL     1      91.477  94.591  77.148  1.00  0.00     0.157 A 
BRANCH  17  20
ATOM     20  O   UNL     1      92.766  96.393  76.241  1.00  0.00    -0.493 OA
ATOM     21  C   UNL     1      93.518  96.300  75.032  1.00  0.00     0.278 C 
ENDBRANCH  17  20
BRANCH  19  22
ATOM     22  O   UNL     1      90.355  95.036  76.517  1.00  0.00    -0.504 OA
ATOM     23  H   UNL     1      90.615  95.638  75.798  1.00  0.00     0.293 HD
ENDBRANCH  19  22
ENDBRANCH  13  14
ENDBRANCH  12  13
ENDBRANCH  10  12
ENDBRANCH   1  10
TORSDOF 12
ENDMDL
MODEL 10
REMARK VINA RESULT:    -5.397     13.164     14.637
REMARK INTER + INTRA:          -9.894
REMARK INTER:                  -9.054
REMARK INTRA:                  -0.841
REMARK UNBOUND:                -1.027
REMARK SMILES CCCCC[C@H](O)CC(=O)CCc1ccc(O)c(OC)c1
REMARK SMILES IDX 8 1 6 2 7 3 5 5 4 6 3 7 2 8 1 9 9 10 10 11 11 12 12 13 13 14
REMARK SMILES IDX 21 15 14 16 18 17 15 18 16 19 19 20 20 21 17 22
REMARK H PARENT 7 4 17 23
REMARK Flexibility Score: inf
ROOT
ATOM      1  C   UNL     1      95.372  81.551  84.057  1.00  0.00     0.107 C 
ENDROOT
BRANCH   1   2
ATOM      2  C   UNL     1      96.017  82.766  83.385  1.00  0.00     0.121 C 
BRANCH   2   3
ATOM      3  O   UNL     1      97.175  83.164  84.116  1.00  0.00    -0.393 OA
ATOM      4  H   UNL     1      97.258  82.574  84.886  1.00  0.00     0.210 HD
ENDBRANCH   2   3
BRANCH   2   5
ATOM      5  C   UNL     1      96.406  82.507  81.925  1.00  0.00     0.032 C 
BRANCH   5   6
ATOM      6  C   UNL     1      96.704  81.026  81.661  1.00  0.00     0.003 C 
BRANCH   6   7
ATOM      7  C   UNL     1      97.412  80.779  80.325  1.00  0.00    -0.000 C 
BRANCH   7   8
ATOM      8  C   UNL     1      97.488  82.017  79.434  1.00  0.00    -0.003 C 
ATOM      9  C   UNL     1      96.947  81.731  78.041  1.00  0.00     0.004 C 
ENDBRANCH   7   8
ENDBRANCH   6   7
ENDBRANCH   5   6
ENDBRANCH   2   5
ENDBRANCH   1   2
BRANCH   1  10
ATOM     10  C   UNL     1      95.050  81.783  85.525  1.00  0.00     0.135 C 
ATOM     11  O   UNL     1      95.929  82.118  86.320  1.00  0.00    -0.300 OA
BRANCH  10  12
ATOM     12  C   UNL     1      93.595  81.625  85.938  1.00  0.00     0.080 C 
BRANCH  12  13
ATOM     13  C   UNL     1      92.651  81.343  84.767  1.00  0.00     0.043 C 
BRANCH  13  14
ATOM     14  C   UNL     1      91.234  81.058  85.205  1.00  0.00    -0.044 A 
ATOM     15  C   UNL     1      90.966  80.736  86.535  1.00  0.00     0.054 A 
ATOM     16  C   UNL     1      90.193  81.117  84.278  1.00  0.00     0.008 A 
ATOM     17  C   UNL     1      89.657  80.474  86.939  1.00  0.00     0.160 A 
ATOM     18  C   UNL     1      88.884  80.855  84.681  1.00  0.00     0.050 A 
ATOM     19  C   UNL     1      88.616  80.533  86.012  1.00  0.00     0.157 A 
BRANCH  17  20
ATOM     20  O   UNL     1      89.407  80.160  88.241  1.00  0.00    -0.493 OA
ATOM     21  C   UNL     1      89.724  81.149  89.218  1.00  0.00     0.278 C 
ENDBRANCH  17  20
BRANCH  19  22
ATOM     22  O   UNL     1      87.333  80.278  86.394  1.00  0.00    -0.504 OA
ATOM     23  H   UNL     1      87.338  79.909  87.293  1.00  0.00     0.293 HD
ENDBRANCH  19  22
ENDBRANCH  13  14
ENDBRANCH  12  13
ENDBRANCH  10  12
ENDBRANCH   1  10
TORSDOF 12
ENDMDL
