MODEL 1
REMARK VINA RESULT:    -5.901      0.000      0.000
REMARK INTER + INTRA:         -10.692
REMARK INTER:                  -9.523
REMARK INTRA:                  -1.169
REMARK UNBOUND:                -1.169
REMARK SMILES CCCCCCCCC(=O)NCc1ccc(O)c(OC)c1
REMARK SMILES IDX 7 1 6 2 5 3 4 4 3 5 2 6 1 7 8 8 9 9 10 10 11 11 12 13 13 14
REMARK SMILES IDX 21 15 14 16 18 17 15 18 16 19 19 20 20 21 17 22
REMARK H PARENT 11 12 17 23
REMARK Flexibility Score: inf
ROOT
ATOM      1  C   UNL     1      94.854  95.837  74.188  1.00  0.00     0.010 C 
ENDROOT
BRANCH   1   2
ATOM      2  C   UNL     1      93.546  96.280  74.905  1.00  0.00     0.001 C 
BRANCH   2   3
ATOM      3  C   UNL     1      92.813  95.085  75.583  1.00  0.00     0.000 C 
BRANCH   3   4
ATOM      4  C   UNL     1      93.772  94.052  76.240  1.00  0.00    -0.000 C 
BRANCH   4   5
ATOM      5  C   UNL     1      93.219  93.489  77.581  1.00  0.00    -0.000 C 
BRANCH   5   6
ATOM      6  C   UNL     1      91.758  93.934  77.857  1.00  0.00    -0.003 C 
ATOM      7  C   UNL     1      90.738  92.787  77.677  1.00  0.00     0.004 C 
ENDBRANCH   5   6
ENDBRANCH   4   5
ENDBRANCH   3   4
ENDBRANCH   2   3
ENDBRANCH   1   2
BRANCH   1   8
ATOM      8  C   UNL     1      95.919  96.963  74.068  1.00  0.00     0.100 C 
BRANCH   8   9
ATOM      9  C   UNL     1      96.891  96.907  75.185  1.00  0.00     0.220 C 
ATOM     10  O   UNL     1      98.087  97.204  74.949  1.00  0.00    -0.275 OA
ATOM     11  N   UNL     1      96.484  96.569  76.444  1.00  0.00    -0.352 N 
ATOM     12  H   UNL     1      95.523  96.267  76.504  1.00  0.00     0.163 HD
BRANCH  11  13
ATOM     13  C   UNL     1      97.291  96.616  77.625  1.00  0.00     0.151 C 
BRANCH  13  14
ATOM     14  C   UNL     1      96.834  95.699  78.702  1.00  0.00    -0.025 A 
ATOM     15  C   UNL     1      96.387  96.220  79.940  1.00  0.00     0.056 A 
ATOM     16  C   UNL     1      96.840  94.297  78.515  1.00  0.00     0.009 A 
ATOM     17  C   UNL     1      95.934  95.361  80.967  1.00  0.00     0.160 A 
ATOM     18  C   UNL     1      96.389  93.438  79.532  1.00  0.00     0.050 A 
ATOM     19  C   UNL     1      95.943  93.964  80.760  1.00  0.00     0.157 A 
BRANCH  17  20
ATOM     20  O   UNL     1      95.541  95.867  82.181  1.00  0.00    -0.493 OA
ATOM     21  C   UNL     1      96.532  96.685  82.827  1.00  0.00     0.278 C 
ENDBRANCH  17  20
BRANCH  19  22
ATOM     22  O   UNL     1      95.536  93.124  81.746  1.00  0.00    -0.504 OA
ATOM     23  H   UNL     1      95.634  92.215  81.453  1.00  0.00     0.293 HD
ENDBRANCH  19  22
ENDBRANCH  13  14
ENDBRANCH  11  13
ENDBRANCH   8   9
ENDBRANCH   1   8
TORSDOF 11
ENDMDL
MODEL 2
REMARK VINA RESULT:    -5.830      1.423      2.702
REMARK INTER + INTRA:         -10.577
REMARK INTER:                  -9.525
REMARK INTRA:                  -1.052
REMARK UNBOUND:                -1.169
REMARK SMILES CCCCCCCCC(=O)NCc1ccc(O)c(OC)c1
REMARK SMILES IDX 7 1 6 2 5 3 4 4 3 5 2 6 1 7 8 8 9 9 10 10 11 11 12 13 13 14
REMARK SMILES IDX 21 15 14 16 18 17 15 18 16 19 19 20 20 21 17 22
REMARK H PARENT 11 12 17 23
REMARK Flexibility Score: inf
ROOT
ATOM      1  C   UNL     1      93.706  94.053  75.684  1.00  0.00     0.010 C 
ENDROOT
BRANCH   1   2
ATOM      2  C   UNL     1      93.055  94.037  77.097  1.00  0.00     0.001 C 
BRANCH   2   3
ATOM      3  C   UNL     1      91.793  94.946  77.174  1.00  0.00     0.000 C 
BRANCH   3   4
ATOM      4  C   UNL     1      90.463  94.199  76.870  1.00  0.00    -0.000 C 
BRANCH   4   5
ATOM      5  C   UNL     1      90.369  92.824  77.590  1.00  0.00    -0.000 C 
BRANCH   5   6
ATOM      6  C   UNL     1      89.929  91.681  76.636  1.00  0.00    -0.003 C 
ATOM      7  C   UNL     1      90.827  91.563  75.385  1.00  0.00     0.004 C 
ENDBRANCH   5   6
ENDBRANCH   4   5
ENDBRANCH   3   4
ENDBRANCH   2   3
ENDBRANCH   1   2
BRANCH   1   8
ATOM      8  C   UNL     1      93.709  95.453  75.009  1.00  0.00     0.100 C 
BRANCH   8   9
ATOM      9  C   UNL     1      94.858  96.271  75.467  1.00  0.00     0.220 C 
ATOM     10  O   UNL     1      95.048  97.386  74.925  1.00  0.00    -0.275 OA
ATOM     11  N   UNL     1      95.667  95.829  76.474  1.00  0.00    -0.352 N 
ATOM     12  H   UNL     1      95.477  94.885  76.778  1.00  0.00     0.163 HD
BRANCH  11  13
ATOM     13  C   UNL     1      96.713  96.581  77.097  1.00  0.00     0.151 C 
BRANCH  13  14
ATOM     14  C   UNL     1      96.778  96.412  78.573  1.00  0.00    -0.025 A 
ATOM     15  C   UNL     1      96.182  95.285  79.188  1.00  0.00     0.056 A 
ATOM     16  C   UNL     1      97.428  97.369  79.386  1.00  0.00     0.009 A 
ATOM     17  C   UNL     1      96.250  95.103  80.589  1.00  0.00     0.160 A 
ATOM     18  C   UNL     1      97.500  97.193  80.780  1.00  0.00     0.050 A 
ATOM     19  C   UNL     1      96.907  96.068  81.385  1.00  0.00     0.157 A 
BRANCH  17  20
ATOM     20  O   UNL     1      95.635  94.032  81.187  1.00  0.00    -0.493 OA
ATOM     21  C   UNL     1      95.390  92.924  80.303  1.00  0.00     0.278 C 
ENDBRANCH  17  20
BRANCH  19  22
ATOM     22  O   UNL     1      96.959  95.921  82.733  1.00  0.00    -0.504 OA
ATOM     23  H   UNL     1      97.171  95.009  82.948  1.00  0.00     0.293 HD
ENDBRANCH  19  22
ENDBRANCH  13  14
ENDBRANCH  11  13
ENDBRANCH   8   9
ENDBRANCH   1   8
TORSDOF 11
ENDMDL
MODEL 3
REMARK VINA RESULT:    -5.659      3.793      7.335
REMARK INTER + INTRA:         -10.301
REMARK INTER:                  -9.781
REMARK INTRA:                  -0.521
REMARK UNBOUND:                -1.169
REMARK SMILES CCCCCCCCC(=O)NCc1ccc(O)c(OC)c1
REMARK SMILES IDX 7 1 6 2 5 3 4 4 3 5 2 6 1 7 8 8 9 9 10 10 11 11 12 13 13 14
REMARK SMILES IDX 21 15 14 16 18 17 15 18 16 19 19 20 20 21 17 22
REMARK H PARENT 11 12 17 23
REMARK Flexibility Score: inf
ROOT
ATOM      1  C   UNL     1      96.379  97.187  82.141  1.00  0.00     0.010 C 
ENDROOT
BRANCH   1   2
ATOM      2  C   UNL     1      96.959  98.595  82.459  1.00  0.00     0.001 C 
BRANCH   2   3
ATOM      3  C   UNL     1      95.865  99.704  82.426  1.00  0.00     0.000 C 
BRANCH   3   4
ATOM      4  C   UNL     1      96.152 100.837  81.400  1.00  0.00    -0.000 C 
BRANCH   4   5
ATOM      5  C   UNL     1      94.926 101.766  81.174  1.00  0.00    -0.000 C 
BRANCH   5   6
ATOM      6  C   UNL     1      94.920 102.412  79.762  1.00  0.00    -0.003 C 
ATOM      7  C   UNL     1      93.775 103.431  79.573  1.00  0.00     0.004 C 
ENDBRANCH   5   6
ENDBRANCH   4   5
ENDBRANCH   3   4
ENDBRANCH   2   3
ENDBRANCH   1   2
BRANCH   1   8
ATOM      8  C   UNL     1      96.550  96.756  80.657  1.00  0.00     0.100 C 
BRANCH   8   9
ATOM      9  C   UNL     1      95.884  95.458  80.392  1.00  0.00     0.220 C 
ATOM     10  O   UNL     1      95.502  94.774  81.371  1.00  0.00    -0.275 OA
ATOM     11  N   UNL     1      95.670  95.037  79.111  1.00  0.00    -0.352 N 
ATOM     12  H   UNL     1      96.093  95.620  78.404  1.00  0.00     0.163 HD
BRANCH  11  13
ATOM     13  C   UNL     1      94.919  93.882  78.725  1.00  0.00     0.151 C 
BRANCH  13  14
ATOM     14  C   UNL     1      93.581  94.197  78.156  1.00  0.00    -0.025 A 
ATOM     15  C   UNL     1      92.536  93.244  78.223  1.00  0.00     0.056 A 
ATOM     16  C   UNL     1      93.329  95.443  77.537  1.00  0.00     0.009 A 
ATOM     17  C   UNL     1      91.255  93.536  77.701  1.00  0.00     0.160 A 
ATOM     18  C   UNL     1      92.057  95.739  77.017  1.00  0.00     0.050 A 
ATOM     19  C   UNL     1      91.021  94.788  77.090  1.00  0.00     0.157 A 
BRANCH  17  20
ATOM     20  O   UNL     1      90.256  92.596  77.729  1.00  0.00    -0.493 OA
ATOM     21  C   UNL     1      90.230  91.729  76.581  1.00  0.00     0.278 C 
ENDBRANCH  17  20
BRANCH  19  22
ATOM     22  O   UNL     1      89.804  95.073  76.561  1.00  0.00    -0.504 OA
ATOM     23  H   UNL     1      89.809  95.967  76.211  1.00  0.00     0.293 HD
ENDBRANCH  19  22
ENDBRANCH  13  14
ENDBRANCH  11  13
ENDBRANCH   8   9
ENDBRANCH   1   8
TORSDOF 11
ENDMDL
MODEL 4
REMARK VINA RESULT:    -5.622      1.674      2.166
REMARK INTER + INTRA:         -10.242
REMARK INTER:                  -9.621
REMARK INTRA:                  -0.621
REMARK UNBOUND:                -1.169
REMARK SMILES CCCCCCCCC(=O)NCc1ccc(O)c(OC)c1
REMARK SMILES IDX 7 1 6 2 5 3 4 4 3 5 2 6 1 7 8 8 9 9 10 10 11 11 12 13 13 14
REMARK SMILES IDX 21 15 14 16 18 17 15 18 16 19 19 20 20 21 17 22
REMARK H PARENT 11 12 17 23
REMARK Flexibility Score: inf
ROOT
ATOM      1  C   UNL     1      94.066  94.533  74.962  1.00  0.00     0.010 C 
ENDROOT
BRANCH   1   2
ATOM      2  C   UNL     1      93.285  94.075  76.227  1.00  0.00     0.001 C 
BRANCH   2   3
ATOM      3  C   UNL     1      92.024  94.950  76.491  1.00  0.00     0.000 C 
BRANCH   3   4
ATOM      4  C   UNL     1      90.686  94.162  76.417  1.00  0.00    -0.000 C 
BRANCH   4   5
ATOM      5  C   UNL     1      90.492  93.196  77.621  1.00  0.00    -0.000 C 
BRANCH   5   6
ATOM      6  C   UNL     1      89.853  91.844  77.203  1.00  0.00    -0.003 C 
ATOM      7  C   UNL     1      90.339  91.352  75.822  1.00  0.00     0.004 C 
ENDBRANCH   5   6
ENDBRANCH   4   5
ENDBRANCH   3   4
ENDBRANCH   2   3
ENDBRANCH   1   2
BRANCH   1   8
ATOM      8  C   UNL     1      94.439  96.042  74.965  1.00  0.00     0.100 C 
BRANCH   8   9
ATOM      9  C   UNL     1      95.572  96.316  75.882  1.00  0.00     0.220 C 
ATOM     10  O   UNL     1      96.208  97.388  75.739  1.00  0.00    -0.275 OA
ATOM     11  N   UNL     1      95.892  95.432  76.873  1.00  0.00    -0.352 N 
ATOM     12  H   UNL     1      95.374  94.566  76.843  1.00  0.00     0.163 HD
BRANCH  11  13
ATOM     13  C   UNL     1      96.863  95.646  77.902  1.00  0.00     0.151 C 
BRANCH  13  14
ATOM     14  C   UNL     1      96.689  94.764  79.086  1.00  0.00    -0.025 A 
ATOM     15  C   UNL     1      97.685  94.714  80.090  1.00  0.00     0.056 A 
ATOM     16  C   UNL     1      95.534  93.961  79.231  1.00  0.00     0.009 A 
ATOM     17  C   UNL     1      97.525  93.893  81.231  1.00  0.00     0.160 A 
ATOM     18  C   UNL     1      95.368  93.143  80.363  1.00  0.00     0.050 A 
ATOM     19  C   UNL     1      96.362  93.100  81.359  1.00  0.00     0.157 A 
BRANCH  17  20
ATOM     20  O   UNL     1      98.511  93.814  82.182  1.00  0.00    -0.493 OA
ATOM     21  C   UNL     1      99.505  94.849  82.087  1.00  0.00     0.278 C 
ENDBRANCH  17  20
BRANCH  19  22
ATOM     22  O   UNL     1      96.206  92.287  82.435  1.00  0.00    -0.504 OA
ATOM     23  H   UNL     1      95.358  91.840  82.377  1.00  0.00     0.293 HD
ENDBRANCH  19  22
ENDBRANCH  13  14
ENDBRANCH  11  13
ENDBRANCH   8   9
ENDBRANCH   1   8
TORSDOF 11
ENDMDL
MODEL 5
REMARK VINA RESULT:    -5.618     13.946     16.765
REMARK INTER + INTRA:         -10.236
REMARK INTER:                  -9.636
REMARK INTRA:                  -0.600
REMARK UNBOUND:                -1.169
REMARK SMILES CCCCCCCCC(=O)NCc1ccc(O)c(OC)c1
REMARK SMILES IDX 7 1 6 2 5 3 4 4 3 5 2 6 1 7 8 8 9 9 10 10 11 11 12 13 13 14
REMARK SMILES IDX 21 15 14 16 18 17 15 18 16 19 19 20 20 21 17 22
REMARK H PARENT 11 12 17 23
REMARK Flexibility Score: inf
ROOT
ATOM      1  C   UNL     1      95.713  80.305  83.206  1.00  0.00     0.010 C 
ENDROOT
BRANCH   1   2
ATOM      2  C   UNL     1      96.694  80.411  82.003  1.00  0.00     0.001 C 
BRANCH   2   3
ATOM      3  C   UNL     1      96.966  81.889  81.595  1.00  0.00     0.000 C 
BRANCH   3   4
ATOM      4  C   UNL     1      96.692  82.185  80.093  1.00  0.00    -0.000 C 
BRANCH   4   5
ATOM      5  C   UNL     1      97.690  81.460  79.146  1.00  0.00    -0.000 C 
BRANCH   5   6
ATOM      6  C   UNL     1      97.073  81.147  77.757  1.00  0.00    -0.003 C 
ATOM      7  C   UNL     1      97.150  82.343  76.782  1.00  0.00     0.004 C 
ENDBRANCH   5   6
ENDBRANCH   4   5
ENDBRANCH   3   4
ENDBRANCH   2   3
ENDBRANCH   1   2
BRANCH   1   8
ATOM      8  C   UNL     1      95.470  81.652  83.942  1.00  0.00     0.100 C 
BRANCH   8   9
ATOM      9  C   UNL     1      94.318  81.560  84.871  1.00  0.00     0.220 C 
ATOM     10  O   UNL     1      94.551  81.411  86.094  1.00  0.00    -0.275 OA
ATOM     11  N   UNL     1      93.039  81.665  84.403  1.00  0.00    -0.352 N 
ATOM     12  H   UNL     1      92.964  81.695  83.397  1.00  0.00     0.163 HD
BRANCH  11  13
ATOM     13  C   UNL     1      91.858  81.733  85.208  1.00  0.00     0.151 C 
BRANCH  13  14
ATOM     14  C   UNL     1      90.839  80.704  84.869  1.00  0.00    -0.025 A 
ATOM     15  C   UNL     1      89.464  81.041  84.855  1.00  0.00     0.056 A 
ATOM     16  C   UNL     1      91.220  79.378  84.560  1.00  0.00     0.009 A 
ATOM     17  C   UNL     1      88.486  80.078  84.518  1.00  0.00     0.160 A 
ATOM     18  C   UNL     1      90.252  78.416  84.223  1.00  0.00     0.050 A 
ATOM     19  C   UNL     1      88.886  78.758  84.208  1.00  0.00     0.157 A 
BRANCH  17  20
ATOM     20  O   UNL     1      87.151  80.395  84.546  1.00  0.00    -0.493 OA
ATOM     21  C   UNL     1      86.829  81.643  83.909  1.00  0.00     0.278 C 
ENDBRANCH  17  20
BRANCH  19  22
ATOM     22  O   UNL     1      87.957  77.815  83.908  1.00  0.00    -0.504 OA
ATOM     23  H   UNL     1      88.350  77.148  83.341  1.00  0.00     0.293 HD
ENDBRANCH  19  22
ENDBRANCH  13  14
ENDBRANCH  11  13
ENDBRANCH   8   9
ENDBRANCH   1   8
TORSDOF 11
ENDMDL
MODEL 6
REMARK VINA RESULT:    -5.508     12.805     14.740
REMARK INTER + INTRA:         -10.057
REMARK INTER:                  -9.055
REMARK INTRA:                  -1.003
REMARK UNBOUND:                -1.169
REMARK SMILES CCCCCCCCC(=O)NCc1ccc(O)c(OC)c1
REMARK SMILES IDX 7 1 6 2 5 3 4 4 3 5 2 6 1 7 8 8 9 9 10 10 11 11 12 13 13 14
REMARK SMILES IDX 21 15 14 16 18 17 15 18 16 19 19 20 20 21 17 22
REMARK H PARENT 11 12 17 23
REMARK Flexibility Score: inf
ROOT
ATOM      1  C   UNL     1      97.756  80.608  77.411  1.00  0.00     0.010 C 
ENDROOT
BRANCH   1   2
ATOM      2  C   UNL     1      97.384  82.095  77.678  1.00  0.00     0.001 C 
BRANCH   2   3
ATOM      3  C   UNL     1      95.981  82.462  77.110  1.00  0.00     0.000 C 
BRANCH   3   4
ATOM      4  C   UNL     1      96.016  83.575  76.025  1.00  0.00    -0.000 C 
BRANCH   4   5
ATOM      5  C   UNL     1      96.254  83.011  74.595  1.00  0.00    -0.000 C 
BRANCH   5   6
ATOM      6  C   UNL     1      97.732  83.147  74.139  1.00  0.00    -0.003 C 
ATOM      7  C   UNL     1      98.300  81.838  73.547  1.00  0.00     0.004 C 
ENDBRANCH   5   6
ENDBRANCH   4   5
ENDBRANCH   3   4
ENDBRANCH   2   3
ENDBRANCH   1   2
BRANCH   1   8
ATOM      8  C   UNL     1      99.065  80.151  78.115  1.00  0.00     0.100 C 
BRANCH   8   9
ATOM      9  C   UNL     1      98.815  79.771  79.526  1.00  0.00     0.220 C 
ATOM     10  O   UNL     1      99.787  79.754  80.319  1.00  0.00    -0.275 OA
ATOM     11  N   UNL     1      97.551  79.477  79.952  1.00  0.00    -0.352 N 
ATOM     12  H   UNL     1      96.861  79.437  79.216  1.00  0.00     0.163 HD
BRANCH  11  13
ATOM     13  C   UNL     1      97.161  79.237  81.308  1.00  0.00     0.151 C 
BRANCH  13  14
ATOM     14  C   UNL     1      96.639  80.442  82.006  1.00  0.00    -0.025 A 
ATOM     15  C   UNL     1      95.860  80.303  83.180  1.00  0.00     0.056 A 
ATOM     16  C   UNL     1      96.904  81.740  81.513  1.00  0.00     0.009 A 
ATOM     17  C   UNL     1      95.372  81.440  83.865  1.00  0.00     0.160 A 
ATOM     18  C   UNL     1      96.422  82.874  82.189  1.00  0.00     0.050 A 
ATOM     19  C   UNL     1      95.651  82.729  83.359  1.00  0.00     0.157 A 
BRANCH  17  20
ATOM     20  O   UNL     1      94.582  81.302  84.978  1.00  0.00    -0.493 OA
ATOM     21  C   UNL     1      94.622  79.992  85.570  1.00  0.00     0.278 C 
ENDBRANCH  17  20
BRANCH  19  22
ATOM     22  O   UNL     1      95.167  83.830  83.989  1.00  0.00    -0.504 OA
ATOM     23  H   UNL     1      95.525  84.619  83.576  1.00  0.00     0.293 HD
ENDBRANCH  19  22
ENDBRANCH  13  14
ENDBRANCH  11  13
ENDBRANCH   8   9
ENDBRANCH   1   8
TORSDOF 11
ENDMDL
MODEL 7
REMARK VINA RESULT:    -5.341      5.991      9.640
REMARK INTER + INTRA:          -9.789
REMARK INTER:                  -9.112
REMARK INTRA:                  -0.677
REMARK UNBOUND:                -1.169
REMARK SMILES CCCCCCCCC(=O)NCc1ccc(O)c(OC)c1
REMARK SMILES IDX 7 1 6 2 5 3 4 4 3 5 2 6 1 7 8 8 9 9 10 10 11 11 12 13 13 14
REMARK SMILES IDX 21 15 14 16 18 17 15 18 16 19 19 20 20 21 17 22
REMARK H PARENT 11 12 17 23
REMARK Flexibility Score: inf
ROOT
ATOM      1  C   UNL     1      94.571  96.266  74.386  1.00  0.00     0.010 C 
ENDROOT
BRANCH   1   2
ATOM      2  C   UNL     1      93.942  95.122  75.232  1.00  0.00     0.001 C 
BRANCH   2   3
ATOM      3  C   UNL     1      93.711  95.543  76.713  1.00  0.00     0.000 C 
BRANCH   3   4
ATOM      4  C   UNL     1      92.235  95.401  77.182  1.00  0.00    -0.000 C 
BRANCH   4   5
ATOM      5  C   UNL     1      91.818  93.921  77.411  1.00  0.00    -0.000 C 
BRANCH   5   6
ATOM      6  C   UNL     1      90.724  93.449  76.416  1.00  0.00    -0.003 C 
ATOM      7  C   UNL     1      91.032  92.069  75.795  1.00  0.00     0.004 C 
ENDBRANCH   5   6
ENDBRANCH   4   5
ENDBRANCH   3   4
ENDBRANCH   2   3
ENDBRANCH   1   2
BRANCH   1   8
ATOM      8  C   UNL     1      93.730  97.573  74.371  1.00  0.00     0.100 C 
BRANCH   8   9
ATOM      9  C   UNL     1      93.938  98.335  73.116  1.00  0.00     0.220 C 
ATOM     10  O   UNL     1      95.030  98.202  72.513  1.00  0.00    -0.275 OA
ATOM     11  N   UNL     1      92.950  99.136  72.618  1.00  0.00    -0.352 N 
ATOM     12  H   UNL     1      92.150  99.237  73.225  1.00  0.00     0.163 HD
BRANCH  11  13
ATOM     13  C   UNL     1      92.975  99.806  71.354  1.00  0.00     0.151 C 
BRANCH  13  14
ATOM     14  C   UNL     1      91.745  99.603  70.542  1.00  0.00    -0.025 A 
ATOM     15  C   UNL     1      91.584 100.284  69.312  1.00  0.00     0.056 A 
ATOM     16  C   UNL     1      90.719  98.736  70.982  1.00  0.00     0.009 A 
ATOM     17  C   UNL     1      90.429 100.088  68.520  1.00  0.00     0.160 A 
ATOM     18  C   UNL     1      89.568  98.536  70.199  1.00  0.00     0.050 A 
ATOM     19  C   UNL     1      89.415  99.214  68.974  1.00  0.00     0.157 A 
BRANCH  17  20
ATOM     20  O   UNL     1      90.255 100.781  67.349  1.00  0.00    -0.493 OA
ATOM     21  C   UNL     1      90.714 102.144  67.397  1.00  0.00     0.278 C 
ENDBRANCH  17  20
BRANCH  19  22
ATOM     22  O   UNL     1      88.288  99.036  68.239  1.00  0.00    -0.504 OA
ATOM     23  H   UNL     1      87.811  98.269  68.565  1.00  0.00     0.293 HD
ENDBRANCH  19  22
ENDBRANCH  13  14
ENDBRANCH  11  13
ENDBRANCH   8   9
ENDBRANCH   1   8
TORSDOF 11
ENDMDL
MODEL 8
REMARK VINA RESULT:    -5.131     12.734     15.338
REMARK INTER + INTRA:          -9.450
REMARK INTER:                  -8.815
REMARK INTRA:                  -0.636
REMARK UNBOUND:                -1.169
REMARK SMILES CCCCCCCCC(=O)NCc1ccc(O)c(OC)c1
REMARK SMILES IDX 7 1 6 2 5 3 4 4 3 5 2 6 1 7 8 8 9 9 10 10 11 11 12 13 13 14
REMARK SMILES IDX 21 15 14 16 18 17 15 18 16 19 19 20 20 21 17 22
REMARK H PARENT 11 12 17 23
REMARK Flexibility Score: inf
ROOT
ATOM      1  C   UNL     1      96.643  79.378  83.558  1.00  0.00     0.010 C 
ENDROOT
BRANCH   1   2
ATOM      2  C   UNL     1      95.213  79.565  84.142  1.00  0.00     0.001 C 
BRANCH   2   3
ATOM      3  C   UNL     1      95.127  80.781  85.111  1.00  0.00     0.000 C 
BRANCH   3   4
ATOM      4  C   UNL     1      94.560  82.070  84.452  1.00  0.00    -0.000 C 
BRANCH   4   5
ATOM      5  C   UNL     1      95.527  83.282  84.573  1.00  0.00    -0.000 C 
BRANCH   5   6
ATOM      6  C   UNL     1      94.910  84.459  85.376  1.00  0.00    -0.003 C 
ATOM      7  C   UNL     1      95.475  84.569  86.809  1.00  0.00     0.004 C 
ENDBRANCH   5   6
ENDBRANCH   4   5
ENDBRANCH   3   4
ENDBRANCH   2   3
ENDBRANCH   1   2
BRANCH   1   8
ATOM      8  C   UNL     1      96.669  79.125  82.025  1.00  0.00     0.100 C 
BRANCH   8   9
ATOM      9  C   UNL     1      97.452  80.167  81.319  1.00  0.00     0.220 C 
ATOM     10  O   UNL     1      98.111  80.984  82.006  1.00  0.00    -0.275 OA
ATOM     11  N   UNL     1      97.476  80.212  79.954  1.00  0.00    -0.352 N 
ATOM     12  H   UNL     1      96.844  79.566  79.504  1.00  0.00     0.163 HD
BRANCH  11  13
ATOM     13  C   UNL     1      98.299  81.073  79.161  1.00  0.00     0.151 C 
BRANCH  13  14
ATOM     14  C   UNL     1      97.572  81.741  78.048  1.00  0.00    -0.025 A 
ATOM     15  C   UNL     1      98.149  81.805  76.757  1.00  0.00     0.056 A 
ATOM     16  C   UNL     1      96.301  82.325  78.257  1.00  0.00     0.009 A 
ATOM     17  C   UNL     1      97.463  82.422  75.686  1.00  0.00     0.160 A 
ATOM     18  C   UNL     1      95.613  82.938  77.195  1.00  0.00     0.050 A 
ATOM     19  C   UNL     1      96.192  82.996  75.913  1.00  0.00     0.157 A 
BRANCH  17  20
ATOM     20  O   UNL     1      98.042  82.520  74.446  1.00  0.00    -0.493 OA
ATOM     21  C   UNL     1      99.458  82.777  74.476  1.00  0.00     0.278 C 
ENDBRANCH  17  20
BRANCH  19  22
ATOM     22  O   UNL     1      95.532  83.615  74.901  1.00  0.00    -0.504 OA
ATOM     23  H   UNL     1      95.895  83.329  74.060  1.00  0.00     0.293 HD
ENDBRANCH  19  22
ENDBRANCH  13  14
ENDBRANCH  11  13
ENDBRANCH   8   9
ENDBRANCH   1   8
TORSDOF 11
ENDMDL
MODEL 9
REMARK VINA RESULT:    -5.122     13.234     15.385
REMARK INTER + INTRA:          -9.435
REMARK INTER:                  -8.641
REMARK INTRA:                  -0.794
REMARK UNBOUND:                -1.169
REMARK SMILES CCCCCCCCC(=O)NCc1ccc(O)c(OC)c1
REMARK SMILES IDX 7 1 6 2 5 3 4 4 3 5 2 6 1 7 8 8 9 9 10 10 11 11 12 13 13 14
REMARK SMILES IDX 21 15 14 16 18 17 15 18 16 19 19 20 20 21 17 22
REMARK H PARENT 11 12 17 23
REMARK Flexibility Score: inf
ROOT
ATOM      1  C   UNL     1      97.668  82.053  78.860  1.00  0.00     0.010 C 
ENDROOT
BRANCH   1   2
ATOM      2  C   UNL     1      98.552  80.992  79.577  1.00  0.00     0.001 C 
BRANCH   2   3
ATOM      3  C   UNL     1      97.701  79.875  80.251  1.00  0.00     0.000 C 
BRANCH   3   4
ATOM      4  C   UNL     1      97.681  79.954  81.804  1.00  0.00    -0.000 C 
BRANCH   4   5
ATOM      5  C   UNL     1      96.249  80.149  82.377  1.00  0.00    -0.000 C 
BRANCH   5   6
ATOM      6  C   UNL     1      96.098  81.477  83.167  1.00  0.00    -0.003 C 
ATOM      7  C   UNL     1      96.316  82.727  82.287  1.00  0.00     0.004 C 
ENDBRANCH   5   6
ENDBRANCH   4   5
ENDBRANCH   3   4
ENDBRANCH   2   3
ENDBRANCH   1   2
BRANCH   1   8
ATOM      8  C   UNL     1      96.692  81.454  77.809  1.00  0.00     0.100 C 
BRANCH   8   9
ATOM      9  C   UNL     1      96.485  82.384  76.673  1.00  0.00     0.220 C 
ATOM     10  O   UNL     1      95.523  83.188  76.730  1.00  0.00    -0.275 OA
ATOM     11  N   UNL     1      97.339  82.381  75.608  1.00  0.00    -0.352 N 
ATOM     12  H   UNL     1      98.023  81.638  75.624  1.00  0.00     0.163 HD
BRANCH  11  13
ATOM     13  C   UNL     1      97.329  83.316  74.526  1.00  0.00     0.151 C 
BRANCH  13  14
ATOM     14  C   UNL     1      98.418  83.102  73.535  1.00  0.00    -0.025 A 
ATOM     15  C   UNL     1      98.703  81.799  73.061  1.00  0.00     0.056 A 
ATOM     16  C   UNL     1      99.187  84.186  73.054  1.00  0.00     0.009 A 
ATOM     17  C   UNL     1      99.723  81.581  72.107  1.00  0.00     0.160 A 
ATOM     18  C   UNL     1     100.202  83.977  72.104  1.00  0.00     0.050 A 
ATOM     19  C   UNL     1     100.479  82.678  71.635  1.00  0.00     0.157 A 
BRANCH  17  20
ATOM     20  O   UNL     1     100.026  80.313  71.681  1.00  0.00    -0.493 OA
ATOM     21  C   UNL     1      99.655  79.276  72.606  1.00  0.00     0.278 C 
ENDBRANCH  17  20
BRANCH  19  22
ATOM     22  O   UNL     1     101.479  82.483  70.738  1.00  0.00    -0.504 OA
ATOM     23  H   UNL     1     102.020  83.275  70.685  1.00  0.00     0.293 HD
ENDBRANCH  19  22
ENDBRANCH  13  14
ENDBRANCH  11  13
ENDBRANCH   8   9
ENDBRANCH   1   8
TORSDOF 11
ENDMDL
