MODEL 1
REMARK VINA RESULT:    -6.878      0.000      0.000
REMARK INTER + INTRA:         -13.218
REMARK INTER:                 -12.105
REMARK INTRA:                  -1.114
REMARK UNBOUND:                -1.114
REMARK SMILES C=C(C)[C@]12C[C@@H](C)[C@@]34O[C@](Cc5ccccc5)(O[C@@H]1[C@@H]3C=C(COC(=O)Cc1ccc(O)c(OC)c1)C[C@]1(O)C(=O)C(C)=C[C@@H]41)O2
REMARK SMILES IDX 23 1 22 2 21 3 20 4 9 5 8 6 10 7 6 8 18 9 46 10 19 11 5 12
REMARK SMILES IDX 7 13 4 14 45 15 38 16 44 17 40 18 42 20 41 21 43 22 39 23
REMARK SMILES IDX 11 25 12 26 13 27 17 28 14 29 16 30 15 31 2 32 3 33 1 34
REMARK SMILES IDX 37 35 24 37 25 38 26 39 27 40 28 41 36 42 29 43 33 44 30 45
REMARK SMILES IDX 31 46 34 47 35 48 32 49
REMARK H PARENT 39 24 32 50
REMARK Flexibility Score: 90.00
ROOT
ATOM      1  C   UNL     1      95.276  77.173  83.292  1.00  0.00     0.264 C 
ENDROOT
BRANCH   1   2
ATOM      2  C   UNL     1      96.334  78.232  83.084  1.00  0.00    -0.033 C 
ATOM      3  C   UNL     1      97.294  78.032  82.158  1.00  0.00    -0.015 C 
BRANCH   3   4
ATOM      4  C   UNL     1      98.497  78.895  81.815  1.00  0.00     0.078 C 
ATOM      5  O   UNL     1      97.796  80.422  80.000  1.00  0.00    -0.319 OA
ATOM      6  C   UNL     1      98.250  80.390  81.389  1.00  0.00     0.095 C 
ATOM      7  C   UNL     1      98.495  79.540  79.102  1.00  0.00     0.289 C 
ATOM      8  C   UNL     1      99.632  81.157  81.505  1.00  0.00     0.023 C 
ATOM      9  O   UNL     1      98.418  78.187  79.542  1.00  0.00    -0.320 OA
ATOM     10  O   UNL     1      99.886  79.841  79.022  1.00  0.00    -0.313 OA
ATOM     11  C   UNL     1      99.306  78.238  80.670  1.00  0.00     0.170 C 
ATOM     12  C   UNL     1     100.834  80.221  81.171  1.00  0.00     0.049 C 
ATOM     13  C   UNL     1      99.742  82.447  80.677  1.00  0.00     0.011 C 
ATOM     14  C   UNL     1     100.450  79.146  80.154  1.00  0.00     0.122 C 
BRANCH   6  15
ATOM     15  C   UNL     1      97.073  81.007  82.198  1.00  0.00     0.086 C 
ATOM     16  C   UNL     1      97.032  80.671  83.703  1.00  0.00     0.140 CG0
ATOM     17  C   UNL     1      96.856  82.494  82.165  1.00  0.00    -0.010 C 
ATOM     18  C   UNL     1      96.467  81.940  84.305  1.00  0.00     0.190 C 
ATOM     19  G   UNL     1      96.166  79.448  83.998  1.00  0.00     0.000 G0
ATOM     20  C   UNL     1      96.489  83.044  83.327  1.00  0.00    -0.008 C 
ATOM     21  O   UNL     1      96.088  82.069  85.459  1.00  0.00    -0.291 OA
ATOM     22  C   UNL     1      96.116  84.439  83.644  1.00  0.00     0.048 C 
BRANCH  16  23
ATOM     23  O   UNL     1      98.313  80.554  84.299  1.00  0.00    -0.381 OA
ATOM     24  H   UNL     1      98.336  81.117  85.091  1.00  0.00     0.212 HD
ENDBRANCH  16  23
ENDBRANCH   6  15
BRANCH   7  25
ATOM     25  C   UNL     1      97.870  79.668  77.728  1.00  0.00     0.135 C 
BRANCH  25  26
ATOM     26  C   UNL     1      98.114  81.027  77.120  1.00  0.00    -0.040 A 
ATOM     27  C   UNL     1      99.211  81.229  76.282  1.00  0.00     0.004 A 
ATOM     28  C   UNL     1      97.243  82.081  77.394  1.00  0.00     0.004 A 
ATOM     29  C   UNL     1      99.438  82.485  75.719  1.00  0.00     0.000 A 
ATOM     30  C   UNL     1      97.469  83.337  76.831  1.00  0.00     0.000 A 
ATOM     31  C   UNL     1      98.567  83.539  75.994  1.00  0.00     0.000 A 
ENDBRANCH  25  26
ENDBRANCH   7  25
BRANCH  14  32
ATOM     32  C   UNL     1     101.626  78.355  79.682  1.00  0.00    -0.046 C 
ATOM     33  C   UNL     1     102.881  79.130  79.414  1.00  0.00     0.042 C 
ATOM     34  C   UNL     1     101.563  77.026  79.508  1.00  0.00     0.010 C 
ENDBRANCH  14  32
ENDBRANCH   3   4
BRANCH   2  35
ATOM     35  C   UNL     1      96.155  79.437  83.988  1.00  0.00     0.078 CG0
ATOM     36  G   UNL     1      97.040  80.652  83.716  1.00  0.00     0.000 G0
ENDBRANCH   2  35
ENDBRANCH   1   2
BRANCH   1  37
ATOM     37  O   UNL     1      94.001  77.739  83.080  1.00  0.00    -0.461 OA
BRANCH  37  38
ATOM     38  C   UNL     1      93.018  77.375  83.970  1.00  0.00     0.310 C 
ATOM     39  O   UNL     1      92.310  76.382  83.868  1.00  0.00    -0.252 OA
BRANCH  38  40
ATOM     40  C   UNL     1      92.949  78.388  85.089  1.00  0.00     0.158 C 
BRANCH  40  41
ATOM     41  C   UNL     1      92.058  79.559  84.767  1.00  0.00    -0.033 A 
ATOM     42  C   UNL     1      92.472  80.856  85.075  1.00  0.00     0.054 A 
ATOM     43  C   UNL     1      90.820  79.348  84.160  1.00  0.00     0.008 A 
ATOM     44  C   UNL     1      91.647  81.941  84.777  1.00  0.00     0.160 A 
ATOM     45  C   UNL     1      89.995  80.433  83.862  1.00  0.00     0.050 A 
ATOM     46  C   UNL     1      90.408  81.729  84.170  1.00  0.00     0.157 A 
BRANCH  44  47
ATOM     47  O   UNL     1      92.061  83.201  85.083  1.00  0.00    -0.493 OA
ATOM     48  C   UNL     1      93.231  83.321  85.891  1.00  0.00     0.278 C 
ENDBRANCH  44  47
BRANCH  46  49
ATOM     49  O   UNL     1      89.594  82.780  83.874  1.00  0.00    -0.504 OA
ATOM     50  H   UNL     1      89.659  83.441  84.584  1.00  0.00     0.293 HD
ENDBRANCH  46  49
ENDBRANCH  40  41
ENDBRANCH  38  40
ENDBRANCH  37  38
ENDBRANCH   1  37
TORSDOF 11
ENDMDL
MODEL 2
REMARK VINA RESULT:    -5.933      6.391      9.582
REMARK INTER + INTRA:         -11.556
REMARK INTER:                  -9.847
REMARK INTRA:                  -1.709
REMARK UNBOUND:                -1.114
REMARK SMILES C=C(C)[C@]12C[C@@H](C)[C@@]34O[C@](Cc5ccccc5)(O[C@@H]1[C@@H]3C=C(COC(=O)Cc1ccc(O)c(OC)c1)C[C@]1(O)C(=O)C(C)=C[C@@H]41)O2
REMARK SMILES IDX 23 1 22 2 21 3 20 4 9 5 8 6 10 7 6 8 18 9 46 10 19 11 5 12
REMARK SMILES IDX 7 13 4 14 45 15 38 16 44 17 40 18 42 20 41 21 43 22 39 23
REMARK SMILES IDX 11 25 12 26 13 27 17 28 14 29 16 30 15 31 2 32 3 33 1 34
REMARK SMILES IDX 37 35 24 37 25 38 26 39 27 40 28 41 36 42 29 43 33 44 30 45
REMARK SMILES IDX 31 46 34 47 35 48 32 49
REMARK H PARENT 39 24 32 50
REMARK Flexibility Score: 90.00
ROOT
ATOM      1  C   UNL     1      95.935  74.093  81.437  1.00  0.00     0.264 C 
ENDROOT
BRANCH   1   2
ATOM      2  C   UNL     1      95.314  73.518  80.186  1.00  0.00    -0.033 C 
ATOM      3  C   UNL     1      93.990  73.264  80.163  1.00  0.00    -0.015 C 
BRANCH   3   4
ATOM      4  C   UNL     1      93.149  72.624  79.071  1.00  0.00     0.078 C 
ATOM      5  O   UNL     1      92.282  74.460  77.659  1.00  0.00    -0.319 OA
ATOM      6  C   UNL     1      93.148  73.284  77.642  1.00  0.00     0.095 C 
ATOM      7  C   UNL     1      91.034  74.297  78.359  1.00  0.00     0.289 C 
ATOM      8  C   UNL     1      92.566  72.220  76.622  1.00  0.00     0.023 C 
ATOM      9  O   UNL     1      91.248  73.909  79.713  1.00  0.00    -0.320 OA
ATOM     10  O   UNL     1      90.223  73.273  77.789  1.00  0.00    -0.313 OA
ATOM     11  C   UNL     1      91.669  72.549  79.522  1.00  0.00     0.170 C 
ATOM     12  C   UNL     1      91.485  71.318  77.293  1.00  0.00     0.049 C 
ATOM     13  C   UNL     1      92.009  72.798  75.311  1.00  0.00     0.011 C 
ATOM     14  C   UNL     1      90.728  72.064  78.392  1.00  0.00     0.122 C 
BRANCH   6  15
ATOM     15  C   UNL     1      94.557  73.844  77.292  1.00  0.00     0.086 C 
ATOM     16  C   UNL     1      95.757  72.950  77.670  1.00  0.00     0.140 CG0
ATOM     17  C   UNL     1      94.857  74.252  75.877  1.00  0.00    -0.010 C 
ATOM     18  C   UNL     1      96.740  73.236  76.554  1.00  0.00     0.190 C 
ATOM     19  G   UNL     1      96.320  73.293  79.048  1.00  0.00     0.000 G0
ATOM     20  C   UNL     1      96.085  73.950  75.442  1.00  0.00    -0.008 C 
ATOM     21  O   UNL     1      97.910  72.886  76.535  1.00  0.00    -0.291 OA
ATOM     22  C   UNL     1      96.744  74.266  74.158  1.00  0.00     0.048 C 
BRANCH  16  23
ATOM     23  O   UNL     1      95.499  71.562  77.547  1.00  0.00    -0.381 OA
ATOM     24  H   UNL     1      96.303  71.128  77.214  1.00  0.00     0.212 HD
ENDBRANCH  16  23
ENDBRANCH   6  15
BRANCH   7  25
ATOM     25  C   UNL     1      90.288  75.616  78.316  1.00  0.00     0.135 C 
BRANCH  25  26
ATOM     26  C   UNL     1      90.638  76.423  77.091  1.00  0.00    -0.040 A 
ATOM     27  C   UNL     1      91.619  77.414  77.165  1.00  0.00     0.004 A 
ATOM     28  C   UNL     1      89.984  76.180  75.884  1.00  0.00     0.004 A 
ATOM     29  C   UNL     1      91.943  78.161  76.032  1.00  0.00     0.000 A 
ATOM     30  C   UNL     1      90.308  76.927  74.751  1.00  0.00     0.000 A 
ATOM     31  C   UNL     1      91.287  77.917  74.826  1.00  0.00     0.000 A 
ENDBRANCH  25  26
ENDBRANCH   7  25
BRANCH  14  32
ATOM     32  C   UNL     1      89.569  71.284  78.922  1.00  0.00    -0.046 C 
ATOM     33  C   UNL     1      89.225  70.024  78.184  1.00  0.00     0.042 C 
ATOM     34  C   UNL     1      88.875  71.687  79.997  1.00  0.00     0.010 C 
ENDBRANCH  14  32
ENDBRANCH   3   4
BRANCH   2  35
ATOM     35  C   UNL     1      96.318  73.301  79.069  1.00  0.00     0.078 CG0
ATOM     36  G   UNL     1      95.763  72.961  77.687  1.00  0.00     0.000 G0
ENDBRANCH   2  35
ENDBRANCH   1   2
BRANCH   1  37
ATOM     37  O   UNL     1      95.540  75.441  81.576  1.00  0.00    -0.461 OA
BRANCH  37  38
ATOM     38  C   UNL     1      95.583  75.959  82.850  1.00  0.00     0.310 C 
ATOM     39  O   UNL     1      96.129  77.008  83.163  1.00  0.00    -0.252 OA
BRANCH  38  40
ATOM     40  C   UNL     1      94.856  75.033  83.796  1.00  0.00     0.158 C 
BRANCH  40  41
ATOM     41  C   UNL     1      93.358  75.182  83.728  1.00  0.00    -0.033 A 
ATOM     42  C   UNL     1      92.535  74.107  84.065  1.00  0.00     0.054 A 
ATOM     43  C   UNL     1      92.794  76.393  83.329  1.00  0.00     0.008 A 
ATOM     44  C   UNL     1      91.148  74.244  84.002  1.00  0.00     0.160 A 
ATOM     45  C   UNL     1      91.407  76.530  83.266  1.00  0.00     0.050 A 
ATOM     46  C   UNL     1      90.584  75.456  83.602  1.00  0.00     0.157 A 
BRANCH  44  47
ATOM     47  O   UNL     1      90.354  73.187  84.333  1.00  0.00    -0.493 OA
ATOM     48  C   UNL     1      89.832  73.159  85.660  1.00  0.00     0.278 C 
ENDBRANCH  44  47
BRANCH  46  49
ATOM     49  O   UNL     1      89.232  75.602  83.538  1.00  0.00    -0.504 OA
ATOM     50  H   UNL     1      88.970  76.372  84.071  1.00  0.00     0.293 HD
ENDBRANCH  46  49
ENDBRANCH  40  41
ENDBRANCH  38  40
ENDBRANCH  37  38
ENDBRANCH   1  37
TORSDOF 11
ENDMDL
MODEL 3
REMARK VINA RESULT:    -5.932     14.239     19.435
REMARK INTER + INTRA:         -11.554
REMARK INTER:                 -10.806
REMARK INTRA:                  -0.748
REMARK UNBOUND:                -1.114
REMARK SMILES C=C(C)[C@]12C[C@@H](C)[C@@]34O[C@](Cc5ccccc5)(O[C@@H]1[C@@H]3C=C(COC(=O)Cc1ccc(O)c(OC)c1)C[C@]1(O)C(=O)C(C)=C[C@@H]41)O2
REMARK SMILES IDX 23 1 22 2 21 3 20 4 9 5 8 6 10 7 6 8 18 9 46 10 19 11 5 12
REMARK SMILES IDX 7 13 4 14 45 15 38 16 44 17 40 18 42 20 41 21 43 22 39 23
REMARK SMILES IDX 11 25 12 26 13 27 17 28 14 29 16 30 15 31 2 32 3 33 1 34
REMARK SMILES IDX 37 35 24 37 25 38 26 39 27 40 28 41 36 42 29 43 33 44 30 45
REMARK SMILES IDX 31 46 34 47 35 48 32 49
REMARK H PARENT 39 24 32 50
REMARK Flexibility Score: 90.00
ROOT
ATOM      1  C   UNL     1      91.580  93.311  91.035  1.00  0.00     0.264 C 
ENDROOT
BRANCH   1   2
ATOM      2  C   UNL     1      92.474  94.517  91.204  1.00  0.00    -0.033 C 
ATOM      3  C   UNL     1      92.150  95.670  90.586  1.00  0.00    -0.015 C 
BRANCH   3   4
ATOM      4  C   UNL     1      92.911  96.985  90.535  1.00  0.00     0.078 C 
ATOM      5  O   UNL     1      92.075  98.376  92.401  1.00  0.00    -0.319 OA
ATOM      6  C   UNL     1      93.265  97.699  91.893  1.00  0.00     0.095 C 
ATOM      7  C   UNL     1      91.299  99.083  91.415  1.00  0.00     0.289 C 
ATOM      8  C   UNL     1      94.390  98.774  91.591  1.00  0.00     0.023 C 
ATOM      9  O   UNL     1      90.877  98.213  90.368  1.00  0.00    -0.320 OA
ATOM     10  O   UNL     1      92.045 100.117  90.780  1.00  0.00    -0.313 OA
ATOM     11  C   UNL     1      92.126  98.015  89.687  1.00  0.00     0.170 C 
ATOM     12  C   UNL     1      94.225  99.388  90.166  1.00  0.00     0.049 C 
ATOM     13  C   UNL     1      94.516  99.905  92.624  1.00  0.00     0.011 C 
ATOM     14  C   UNL     1      92.759  99.428  89.733  1.00  0.00     0.122 C 
BRANCH   6  15
ATOM     15  C   UNL     1      93.617  96.653  92.991  1.00  0.00     0.086 C 
ATOM     16  C   UNL     1      94.524  95.485  92.552  1.00  0.00     0.140 CG0
ATOM     17  C   UNL     1      94.242  97.118  94.276  1.00  0.00    -0.010 C 
ATOM     18  C   UNL     1      95.339  95.219  93.799  1.00  0.00     0.190 C 
ATOM     19  G   UNL     1      93.719  94.265  92.107  1.00  0.00     0.000 G0
ATOM     20  C   UNL     1      95.194  96.319  94.771  1.00  0.00    -0.008 C 
ATOM     21  O   UNL     1      96.067  94.254  93.977  1.00  0.00    -0.291 OA
ATOM     22  C   UNL     1      95.953  96.414  96.034  1.00  0.00     0.048 C 
BRANCH  16  23
ATOM     23  O   UNL     1      95.495  95.845  91.583  1.00  0.00    -0.381 OA
ATOM     24  H   UNL     1      96.289  95.305  91.729  1.00  0.00     0.212 HD
ENDBRANCH  16  23
ENDBRANCH   6  15
BRANCH   7  25
ATOM     25  C   UNL     1      90.088  99.682  92.103  1.00  0.00     0.135 C 
BRANCH  25  26
ATOM     26  C   UNL     1      88.850  98.846  91.895  1.00  0.00    -0.040 A 
ATOM     27  C   UNL     1      87.943  99.180  90.888  1.00  0.00     0.004 A 
ATOM     28  C   UNL     1      88.611  97.738  92.708  1.00  0.00     0.004 A 
ATOM     29  C   UNL     1      86.798  98.407  90.696  1.00  0.00     0.000 A 
ATOM     30  C   UNL     1      87.465  96.966  92.516  1.00  0.00     0.000 A 
ATOM     31  C   UNL     1      86.559  97.301  91.510  1.00  0.00     0.000 A 
ENDBRANCH  25  26
ENDBRANCH   7  25
BRANCH  14  32
ATOM     32  C   UNL     1      92.559 100.175  88.455  1.00  0.00    -0.046 C 
ATOM     33  C   UNL     1      93.650 100.048  87.435  1.00  0.00     0.042 C 
ATOM     34  C   UNL     1      91.464 100.918  88.233  1.00  0.00     0.010 C 
ENDBRANCH  14  32
ENDBRANCH   3   4
BRANCH   2  35
ATOM     35  C   UNL     1      93.670  94.250  92.099  1.00  0.00     0.078 CG0
ATOM     36  G   UNL     1      94.505  95.455  92.528  1.00  0.00     0.000 G0
ENDBRANCH   2  35
ENDBRANCH   1   2
BRANCH   1  37
ATOM     37  O   UNL     1      91.830  92.394  92.079  1.00  0.00    -0.461 OA
BRANCH  37  38
ATOM     38  C   UNL     1      92.561  91.277  91.746  1.00  0.00     0.310 C 
ATOM     39  O   UNL     1      93.572  90.901  92.324  1.00  0.00    -0.252 OA
BRANCH  38  40
ATOM     40  C   UNL     1      91.924  90.592  90.560  1.00  0.00     0.158 C 
BRANCH  40  41
ATOM     41  C   UNL     1      92.891  90.354  89.429  1.00  0.00    -0.033 A 
ATOM     42  C   UNL     1      93.162  89.052  89.006  1.00  0.00     0.054 A 
ATOM     43  C   UNL     1      93.514  91.434  88.805  1.00  0.00     0.008 A 
ATOM     44  C   UNL     1      94.058  88.831  87.959  1.00  0.00     0.160 A 
ATOM     45  C   UNL     1      94.409  91.213  87.758  1.00  0.00     0.050 A 
ATOM     46  C   UNL     1      94.681  89.913  87.335  1.00  0.00     0.157 A 
BRANCH  44  47
ATOM     47  O   UNL     1      94.315  87.556  87.556  1.00  0.00    -0.493 OA
ATOM     48  C   UNL     1      93.397  86.546  87.973  1.00  0.00     0.278 C 
ENDBRANCH  44  47
BRANCH  46  49
ATOM     49  O   UNL     1      95.556  89.709  86.311  1.00  0.00    -0.504 OA
ATOM     50  H   UNL     1      95.388  88.836  85.919  1.00  0.00     0.293 HD
ENDBRANCH  46  49
ENDBRANCH  40  41
ENDBRANCH  38  40
ENDBRANCH  37  38
ENDBRANCH   1  37
TORSDOF 11
ENDMDL
MODEL 4
REMARK VINA RESULT:    -5.929     13.700     19.379
REMARK INTER + INTRA:         -11.548
REMARK INTER:                 -10.698
REMARK INTRA:                  -0.850
REMARK UNBOUND:                -1.114
REMARK SMILES C=C(C)[C@]12C[C@@H](C)[C@@]34O[C@](Cc5ccccc5)(O[C@@H]1[C@@H]3C=C(COC(=O)Cc1ccc(O)c(OC)c1)C[C@]1(O)C(=O)C(C)=C[C@@H]41)O2
REMARK SMILES IDX 23 1 22 2 21 3 20 4 9 5 8 6 10 7 6 8 18 9 46 10 19 11 5 12
REMARK SMILES IDX 7 13 4 14 45 15 38 16 44 17 40 18 42 20 41 21 43 22 39 23
REMARK SMILES IDX 11 25 12 26 13 27 17 28 14 29 16 30 15 31 2 32 3 33 1 34
REMARK SMILES IDX 37 35 24 37 25 38 26 39 27 40 28 41 36 42 29 43 33 44 30 45
REMARK SMILES IDX 31 46 34 47 35 48 32 49
REMARK H PARENT 39 24 32 50
REMARK Flexibility Score: 90.00
ROOT
ATOM      1  C   UNL     1      91.828  91.425  92.716  1.00  0.00     0.264 C 
ENDROOT
BRANCH   1   2
ATOM      2  C   UNL     1      92.103  92.794  92.138  1.00  0.00    -0.033 C 
ATOM      3  C   UNL     1      91.117  93.713  92.120  1.00  0.00    -0.015 C 
BRANCH   3   4
ATOM      4  C   UNL     1      91.115  95.115  91.533  1.00  0.00     0.078 C 
ATOM      5  O   UNL     1      91.797  96.656  93.344  1.00  0.00    -0.319 OA
ATOM      6  C   UNL     1      92.199  96.139  92.038  1.00  0.00     0.095 C 
ATOM      7  C   UNL     1      90.402  96.986  93.474  1.00  0.00     0.289 C 
ATOM      8  C   UNL     1      92.252  97.333  90.997  1.00  0.00     0.023 C 
ATOM      9  O   UNL     1      89.575  95.860  93.191  1.00  0.00    -0.320 OA
ATOM     10  O   UNL     1      89.998  98.000  92.558  1.00  0.00    -0.313 OA
ATOM     11  C   UNL     1      89.737  95.781  91.766  1.00  0.00     0.170 C 
ATOM     12  C   UNL     1      90.850  97.608  90.371  1.00  0.00     0.049 C 
ATOM     13  C   UNL     1      92.840  98.649  91.531  1.00  0.00     0.011 C 
ATOM     14  C   UNL     1      89.720  97.272  91.344  1.00  0.00     0.122 C 
BRANCH   6  15
ATOM     15  C   UNL     1      93.555  95.423  92.303  1.00  0.00     0.086 C 
ATOM     16  C   UNL     1      93.990  94.381  91.252  1.00  0.00     0.140 CG0
ATOM     17  C   UNL     1      94.794  96.247  92.512  1.00  0.00    -0.010 C 
ATOM     18  C   UNL     1      95.497  94.530  91.249  1.00  0.00     0.190 C 
ATOM     19  G   UNL     1      93.542  92.967  91.621  1.00  0.00     0.000 G0
ATOM     20  C   UNL     1      95.907  95.758  91.956  1.00  0.00    -0.008 C 
ATOM     21  O   UNL     1      96.282  93.774  90.697  1.00  0.00    -0.291 OA
ATOM     22  C   UNL     1      97.300  96.247  92.025  1.00  0.00     0.048 C 
BRANCH  16  23
ATOM     23  O   UNL     1      93.615  94.712  89.925  1.00  0.00    -0.381 OA
ATOM     24  H   UNL     1      94.327  94.436  89.326  1.00  0.00     0.212 HD
ENDBRANCH  16  23
ENDBRANCH   6  15
BRANCH   7  25
ATOM     25  C   UNL     1      90.155  97.458  94.893  1.00  0.00     0.135 C 
BRANCH  25  26
ATOM     26  C   UNL     1      89.068  98.502  94.960  1.00  0.00    -0.040 A 
ATOM     27  C   UNL     1      89.377  99.846  94.748  1.00  0.00     0.004 A 
ATOM     28  C   UNL     1      87.753  98.124  95.231  1.00  0.00     0.004 A 
ATOM     29  C   UNL     1      88.372 100.812  94.810  1.00  0.00     0.000 A 
ATOM     30  C   UNL     1      86.748  99.090  95.293  1.00  0.00     0.000 A 
ATOM     31  C   UNL     1      87.058 100.434  95.082  1.00  0.00     0.000 A 
ENDBRANCH  25  26
ENDBRANCH   7  25
BRANCH  14  32
ATOM     32  C   UNL     1      88.380  97.696  90.838  1.00  0.00    -0.046 C 
ATOM     33  C   UNL     1      88.381  98.666  89.694  1.00  0.00     0.042 C 
ATOM     34  C   UNL     1      87.240  97.236  91.375  1.00  0.00     0.010 C 
ENDBRANCH  14  32
ENDBRANCH   3   4
BRANCH   2  35
ATOM     35  C   UNL     1      93.527  92.953  91.638  1.00  0.00     0.078 CG0
ATOM     36  G   UNL     1      93.983  94.362  91.265  1.00  0.00     0.000 G0
ENDBRANCH   2  35
ENDBRANCH   1   2
BRANCH   1  37
ATOM     37  O   UNL     1      92.937  90.586  92.478  1.00  0.00    -0.461 OA
BRANCH  37  38
ATOM     38  C   UNL     1      92.674  89.397  91.839  1.00  0.00     0.310 C 
ATOM     39  O   UNL     1      92.958  88.288  92.272  1.00  0.00    -0.252 OA
BRANCH  38  40
ATOM     40  C   UNL     1      91.985  89.673  90.523  1.00  0.00     0.158 C 
BRANCH  40  41
ATOM     41  C   UNL     1      92.928  89.648  89.348  1.00  0.00    -0.033 A 
ATOM     42  C   UNL     1      93.314  88.429  88.790  1.00  0.00     0.054 A 
ATOM     43  C   UNL     1      93.415  90.843  88.819  1.00  0.00     0.008 A 
ATOM     44  C   UNL     1      94.188  88.406  87.702  1.00  0.00     0.160 A 
ATOM     45  C   UNL     1      94.289  90.820  87.732  1.00  0.00     0.050 A 
ATOM     46  C   UNL     1      94.675  89.602  87.173  1.00  0.00     0.157 A 
BRANCH  44  47
ATOM     47  O   UNL     1      94.558  87.210  87.166  1.00  0.00    -0.493 OA
ATOM     48  C   UNL     1      94.076  86.910  85.857  1.00  0.00     0.278 C 
ENDBRANCH  44  47
BRANCH  46  49
ATOM     49  O   UNL     1      95.527  89.592  86.111  1.00  0.00    -0.504 OA
ATOM     50  H   UNL     1      95.251  90.275  85.477  1.00  0.00     0.293 HD
ENDBRANCH  46  49
ENDBRANCH  40  41
ENDBRANCH  38  40
ENDBRANCH  37  38
ENDBRANCH   1  37
TORSDOF 11
ENDMDL
MODEL 5
REMARK VINA RESULT:    -5.902      2.058      3.359
REMARK INTER + INTRA:         -11.501
REMARK INTER:                 -10.171
REMARK INTRA:                  -1.330
REMARK UNBOUND:                -1.114
REMARK SMILES C=C(C)[C@]12C[C@@H](C)[C@@]34O[C@](Cc5ccccc5)(O[C@@H]1[C@@H]3C=C(COC(=O)Cc1ccc(O)c(OC)c1)C[C@]1(O)C(=O)C(C)=C[C@@H]41)O2
REMARK SMILES IDX 23 1 22 2 21 3 20 4 9 5 8 6 10 7 6 8 18 9 46 10 19 11 5 12
REMARK SMILES IDX 7 13 4 14 45 15 38 16 44 17 40 18 42 20 41 21 43 22 39 23
REMARK SMILES IDX 11 25 12 26 13 27 17 28 14 29 16 30 15 31 2 32 3 33 1 34
REMARK SMILES IDX 37 35 24 37 25 38 26 39 27 40 28 41 36 42 29 43 33 44 30 45
REMARK SMILES IDX 31 46 34 47 35 48 32 49
REMARK H PARENT 39 24 32 50
REMARK Flexibility Score: 90.00
ROOT
ATOM      1  C   UNL     1      97.085  76.565  82.409  1.00  0.00     0.264 C 
ENDROOT
BRANCH   1   2
ATOM      2  C   UNL     1      97.588  77.988  82.344  1.00  0.00    -0.033 C 
ATOM      3  C   UNL     1      98.410  78.351  81.339  1.00  0.00    -0.015 C 
BRANCH   3   4
ATOM      4  C   UNL     1      99.107  79.680  81.094  1.00  0.00     0.078 C 
ATOM      5  O   UNL     1      97.616  81.017  79.641  1.00  0.00    -0.319 OA
ATOM      6  C   UNL     1      98.223  80.977  80.970  1.00  0.00     0.095 C 
ATOM      7  C   UNL     1      98.488  80.653  78.554  1.00  0.00     0.289 C 
ATOM      8  C   UNL     1      99.179  82.228  81.147  1.00  0.00     0.023 C 
ATOM      9  O   UNL     1      99.023  79.345  78.737  1.00  0.00    -0.320 OA
ATOM     10  O   UNL     1      99.615  81.519  78.452  1.00  0.00    -0.313 OA
ATOM     11  C   UNL     1      99.954  79.599  79.800  1.00  0.00     0.170 C 
ATOM     12  C   UNL     1     100.602  81.945  80.575  1.00  0.00     0.049 C 
ATOM     13  C   UNL     1      98.649  83.551  80.570  1.00  0.00     0.011 C 
ATOM     14  C   UNL     1     100.555  80.970  79.398  1.00  0.00     0.122 C 
BRANCH   6  15
ATOM     15  C   UNL     1      97.013  80.916  81.947  1.00  0.00     0.086 C 
ATOM     16  C   UNL     1      97.312  80.391  83.367  1.00  0.00     0.140 CG0
ATOM     17  C   UNL     1      96.204  82.158  82.197  1.00  0.00    -0.010 C 
ATOM     18  C   UNL     1      96.361  81.203  84.221  1.00  0.00     0.190 C 
ATOM     19  G   UNL     1      97.070  78.887  83.490  1.00  0.00     0.000 G0
ATOM     20  C   UNL     1      95.799  82.333  83.459  1.00  0.00    -0.008 C 
ATOM     21  O   UNL     1      96.117  80.997  85.401  1.00  0.00    -0.291 OA
ATOM     22  C   UNL     1      94.933  83.378  84.043  1.00  0.00     0.048 C 
BRANCH  16  23
ATOM     23  O   UNL     1      98.595  80.751  83.853  1.00  0.00    -0.381 OA
ATOM     24  H   UNL     1      99.204  80.013  83.685  1.00  0.00     0.212 HD
ENDBRANCH  16  23
ENDBRANCH   6  15
BRANCH   7  25
ATOM     25  C   UNL     1      97.691  80.705  77.267  1.00  0.00     0.135 C 
BRANCH  25  26
ATOM     26  C   UNL     1      97.641  82.098  76.689  1.00  0.00    -0.040 A 
ATOM     27  C   UNL     1      98.522  82.461  75.669  1.00  0.00     0.004 A 
ATOM     28  C   UNL     1      96.715  83.021  77.172  1.00  0.00     0.004 A 
ATOM     29  C   UNL     1      98.476  83.748  75.134  1.00  0.00     0.000 A 
ATOM     30  C   UNL     1      96.670  84.309  76.636  1.00  0.00     0.000 A 
ATOM     31  C   UNL     1      97.551  84.672  75.617  1.00  0.00     0.000 A 
ENDBRANCH  25  26
ENDBRANCH   7  25
BRANCH  14  32
ATOM     32  C   UNL     1     101.877  80.825  78.719  1.00  0.00    -0.046 C 
ATOM     33  C   UNL     1     102.062  81.612  77.456  1.00  0.00     0.042 C 
ATOM     34  C   UNL     1     102.845  80.036  79.211  1.00  0.00     0.010 C 
ENDBRANCH  14  32
ENDBRANCH   3   4
BRANCH   2  35
ATOM     35  C   UNL     1      97.066  78.857  83.473  1.00  0.00     0.078 CG0
ATOM     36  G   UNL     1      97.284  80.364  83.354  1.00  0.00     0.000 G0
ENDBRANCH   2  35
ENDBRANCH   1   2
BRANCH   1  37
ATOM     37  O   UNL     1      96.789  76.236  83.750  1.00  0.00    -0.461 OA
BRANCH  37  38
ATOM     38  C   UNL     1      95.976  75.143  83.942  1.00  0.00     0.310 C 
ATOM     39  O   UNL     1      96.072  74.350  84.869  1.00  0.00    -0.252 OA
BRANCH  38  40
ATOM     40  C   UNL     1      94.951  75.076  82.835  1.00  0.00     0.158 C 
BRANCH  40  41
ATOM     41  C   UNL     1      93.602  75.605  83.250  1.00  0.00    -0.033 A 
ATOM     42  C   UNL     1      92.484  74.771  83.213  1.00  0.00     0.054 A 
ATOM     43  C   UNL     1      93.472  76.928  83.671  1.00  0.00     0.008 A 
ATOM     44  C   UNL     1      91.236  75.261  83.597  1.00  0.00     0.160 A 
ATOM     45  C   UNL     1      92.223  77.419  84.055  1.00  0.00     0.050 A 
ATOM     46  C   UNL     1      91.105  76.586  84.017  1.00  0.00     0.157 A 
BRANCH  44  47
ATOM     47  O   UNL     1      90.151  74.438  83.556  1.00  0.00    -0.493 OA
ATOM     48  C   UNL     1      90.020  73.595  82.413  1.00  0.00     0.278 C 
ENDBRANCH  44  47
BRANCH  46  49
ATOM     49  O   UNL     1      89.892  77.075  84.396  1.00  0.00    -0.504 OA
ATOM     50  H   UNL     1      89.290  77.054  83.632  1.00  0.00     0.293 HD
ENDBRANCH  46  49
ENDBRANCH  40  41
ENDBRANCH  38  40
ENDBRANCH  37  38
ENDBRANCH   1  37
TORSDOF 11
ENDMDL
MODEL 6
REMARK VINA RESULT:    -5.758     33.014     38.057
REMARK INTER + INTRA:         -11.247
REMARK INTER:                  -9.504
REMARK INTRA:                  -1.743
REMARK UNBOUND:                -1.114
REMARK SMILES C=C(C)[C@]12C[C@@H](C)[C@@]34O[C@](Cc5ccccc5)(O[C@@H]1[C@@H]3C=C(COC(=O)Cc1ccc(O)c(OC)c1)C[C@]1(O)C(=O)C(C)=C[C@@H]41)O2
REMARK SMILES IDX 23 1 22 2 21 3 20 4 9 5 8 6 10 7 6 8 18 9 46 10 19 11 5 12
REMARK SMILES IDX 7 13 4 14 45 15 38 16 44 17 40 18 42 20 41 21 43 22 39 23
REMARK SMILES IDX 11 25 12 26 13 27 17 28 14 29 16 30 15 31 2 32 3 33 1 34
REMARK SMILES IDX 37 35 24 37 25 38 26 39 27 40 28 41 36 42 29 43 33 44 30 45
REMARK SMILES IDX 31 46 34 47 35 48 32 49
REMARK H PARENT 39 24 32 50
REMARK Flexibility Score: 90.00
ROOT
ATOM      1  C   UNL     1      61.600  83.950  86.695  1.00  0.00     0.264 C 
ENDROOT
BRANCH   1   2
ATOM      2  C   UNL     1      60.255  83.268  86.618  1.00  0.00    -0.033 C 
ATOM      3  C   UNL     1      60.165  82.050  86.046  1.00  0.00    -0.015 C 
BRANCH   3   4
ATOM      4  C   UNL     1      58.935  81.198  85.779  1.00  0.00     0.078 C 
ATOM      5  O   UNL     1      58.667  79.691  87.723  1.00  0.00    -0.319 OA
ATOM      6  C   UNL     1      58.028  80.788  87.000  1.00  0.00     0.095 C 
ATOM      7  C   UNL     1      59.243  78.661  86.897  1.00  0.00     0.289 C 
ATOM      8  C   UNL     1      56.638  80.295  86.421  1.00  0.00     0.023 C 
ATOM      9  O   UNL     1      60.212  79.199  86.001  1.00  0.00    -0.320 OA
ATOM     10  O   UNL     1      58.271  78.020  86.075  1.00  0.00    -0.313 OA
ATOM     11  C   UNL     1      59.349  79.881  85.077  1.00  0.00     0.170 C 
ATOM     12  C   UNL     1      56.812  79.590  85.040  1.00  0.00     0.049 C 
ATOM     13  C   UNL     1      55.817  79.393  87.356  1.00  0.00     0.011 C 
ATOM     14  C   UNL     1      58.168  78.890  84.929  1.00  0.00     0.122 C 
BRANCH   6  15
ATOM     15  C   UNL     1      57.948  81.944  88.039  1.00  0.00     0.086 C 
ATOM     16  C   UNL     1      57.763  83.364  87.464  1.00  0.00     0.140 CG0
ATOM     17  C   UNL     1      56.925  81.875  89.138  1.00  0.00    -0.010 C 
ATOM     18  C   UNL     1      56.903  84.032  88.517  1.00  0.00     0.190 C 
ATOM     19  G   UNL     1      59.096  84.080  87.257  1.00  0.00     0.000 G0
ATOM     20  C   UNL     1      56.340  83.037  89.449  1.00  0.00    -0.008 C 
ATOM     21  O   UNL     1      56.655  85.226  88.574  1.00  0.00    -0.291 OA
ATOM     22  C   UNL     1      55.367  83.358  90.513  1.00  0.00     0.048 C 
BRANCH  16  23
ATOM     23  O   UNL     1      56.963  83.410  86.295  1.00  0.00    -0.381 OA
ATOM     24  H   UNL     1      56.422  82.603  86.261  1.00  0.00     0.212 HD
ENDBRANCH  16  23
ENDBRANCH   6  15
BRANCH   7  25
ATOM     25  C   UNL     1      59.896  77.636  87.802  1.00  0.00     0.135 C 
BRANCH  25  26
ATOM     26  C   UNL     1      59.000  77.243  88.950  1.00  0.00    -0.040 A 
ATOM     27  C   UNL     1      57.782  76.610  88.700  1.00  0.00     0.004 A 
ATOM     28  C   UNL     1      59.389  77.512  90.262  1.00  0.00     0.004 A 
ATOM     29  C   UNL     1      56.953  76.247  89.762  1.00  0.00     0.000 A 
ATOM     30  C   UNL     1      58.560  77.149  91.324  1.00  0.00     0.000 A 
ATOM     31  C   UNL     1      57.342  76.516  91.073  1.00  0.00     0.000 A 
ENDBRANCH  25  26
ENDBRANCH   7  25
BRANCH  14  32
ATOM     32  C   UNL     1      58.285  78.058  83.694  1.00  0.00    -0.046 C 
ATOM     33  C   UNL     1      57.730  78.657  82.436  1.00  0.00     0.042 C 
ATOM     34  C   UNL     1      58.853  76.843  83.709  1.00  0.00     0.010 C 
ENDBRANCH  14  32
ENDBRANCH   3   4
BRANCH   2  35
ATOM     35  C   UNL     1      59.136  84.087  87.233  1.00  0.00     0.078 CG0
ATOM     36  G   UNL     1      57.799  83.384  87.461  1.00  0.00     0.000 G0
ENDBRANCH   2  35
ENDBRANCH   1   2
BRANCH   1  37
ATOM     37  O   UNL     1      61.601  85.079  85.847  1.00  0.00    -0.461 OA
BRANCH  37  38
ATOM     38  C   UNL     1      62.122  84.894  84.588  1.00  0.00     0.310 C 
ATOM     39  O   UNL     1      61.537  85.141  83.542  1.00  0.00    -0.252 OA
BRANCH  38  40
ATOM     40  C   UNL     1      63.523  84.339  84.698  1.00  0.00     0.158 C 
BRANCH  40  41
ATOM     41  C   UNL     1      63.689  83.018  83.992  1.00  0.00    -0.033 A 
ATOM     42  C   UNL     1      63.922  81.858  84.732  1.00  0.00     0.054 A 
ATOM     43  C   UNL     1      63.610  82.955  82.602  1.00  0.00     0.008 A 
ATOM     44  C   UNL     1      64.076  80.634  84.079  1.00  0.00     0.160 A 
ATOM     45  C   UNL     1      63.764  81.732  81.949  1.00  0.00     0.050 A 
ATOM     46  C   UNL     1      63.997  80.572  82.687  1.00  0.00     0.157 A 
BRANCH  44  47
ATOM     47  O   UNL     1      64.304  79.509  84.811  1.00  0.00    -0.493 OA
ATOM     48  C   UNL     1      63.648  79.413  86.074  1.00  0.00     0.278 C 
ENDBRANCH  44  47
BRANCH  46  49
ATOM     49  O   UNL     1      64.145  79.383  82.039  1.00  0.00    -0.504 OA
ATOM     50  H   UNL     1      63.314  79.165  81.584  1.00  0.00     0.293 HD
ENDBRANCH  46  49
ENDBRANCH  40  41
ENDBRANCH  38  40
ENDBRANCH  37  38
ENDBRANCH   1  37
TORSDOF 11
ENDMDL
MODEL 7
REMARK VINA RESULT:    -5.743     13.613     19.061
REMARK INTER + INTRA:         -11.221
REMARK INTER:                 -10.538
REMARK INTRA:                  -0.683
REMARK UNBOUND:                -1.114
REMARK SMILES C=C(C)[C@]12C[C@@H](C)[C@@]34O[C@](Cc5ccccc5)(O[C@@H]1[C@@H]3C=C(COC(=O)Cc1ccc(O)c(OC)c1)C[C@]1(O)C(=O)C(C)=C[C@@H]41)O2
REMARK SMILES IDX 23 1 22 2 21 3 20 4 9 5 8 6 10 7 6 8 18 9 46 10 19 11 5 12
REMARK SMILES IDX 7 13 4 14 45 15 38 16 44 17 40 18 42 20 41 21 43 22 39 23
REMARK SMILES IDX 11 25 12 26 13 27 17 28 14 29 16 30 15 31 2 32 3 33 1 34
REMARK SMILES IDX 37 35 24 37 25 38 26 39 27 40 28 41 36 42 29 43 33 44 30 45
REMARK SMILES IDX 31 46 34 47 35 48 32 49
REMARK H PARENT 39 24 32 50
REMARK Flexibility Score: 90.00
ROOT
ATOM      1  C   UNL     1      91.466  92.250  91.471  1.00  0.00     0.264 C 
ENDROOT
BRANCH   1   2
ATOM      2  C   UNL     1      92.137  93.546  91.078  1.00  0.00    -0.033 C 
ATOM      3  C   UNL     1      91.395  94.666  90.969  1.00  0.00    -0.015 C 
BRANCH   3   4
ATOM      4  C   UNL     1      91.810  96.058  90.521  1.00  0.00     0.078 C 
ATOM      5  O   UNL     1      92.432  97.315  92.559  1.00  0.00    -0.319 OA
ATOM      6  C   UNL     1      92.965  96.784  91.307  1.00  0.00     0.095 C 
ATOM      7  C   UNL     1      91.142  97.947  92.461  1.00  0.00     0.289 C 
ATOM      8  C   UNL     1      93.478  97.983  90.406  1.00  0.00     0.023 C 
ATOM      9  O   UNL     1      90.167  97.054  91.930  1.00  0.00    -0.320 OA
ATOM     10  O   UNL     1      91.155  99.069  91.583  1.00  0.00    -0.313 OA
ATOM     11  C   UNL     1      90.588  97.008  90.558  1.00  0.00     0.170 C 
ATOM     12  C   UNL     1      92.320  98.599  89.562  1.00  0.00     0.049 C 
ATOM     13  C   UNL     1      94.216  99.103  91.157  1.00  0.00     0.011 C 
ATOM     14  C   UNL     1      90.974  98.482  90.278  1.00  0.00     0.122 C 
BRANCH   6  15
ATOM     15  C   UNL     1      94.056  95.766  91.749  1.00  0.00     0.086 C 
ATOM     16  C   UNL     1      94.452  94.699  90.708  1.00  0.00     0.140 CG0
ATOM     17  C   UNL     1      95.379  96.275  92.249  1.00  0.00    -0.010 C 
ATOM     18  C   UNL     1      95.927  94.500  90.990  1.00  0.00     0.190 C 
ATOM     19  G   UNL     1      93.647  93.410  90.868  1.00  0.00     0.000 G0
ATOM     20  C   UNL     1      96.447  95.569  91.862  1.00  0.00    -0.008 C 
ATOM     21  O   UNL     1      96.622  93.609  90.525  1.00  0.00    -0.291 OA
ATOM     22  C   UNL     1      97.872  95.724  92.222  1.00  0.00     0.048 C 
BRANCH  16  23
ATOM     23  O   UNL     1      94.423  95.164  89.369  1.00  0.00    -0.381 OA
ATOM     24  H   UNL     1      93.728  95.838  89.293  1.00  0.00     0.212 HD
ENDBRANCH  16  23
ENDBRANCH   6  15
BRANCH   7  25
ATOM     25  C   UNL     1      90.725  98.395  93.848  1.00  0.00     0.135 C 
BRANCH  25  26
ATOM     26  C   UNL     1      91.845  98.253  94.848  1.00  0.00    -0.040 A 
ATOM     27  C   UNL     1      92.662  99.346  95.141  1.00  0.00     0.004 A 
ATOM     28  C   UNL     1      92.064  97.030  95.482  1.00  0.00     0.004 A 
ATOM     29  C   UNL     1      93.698  99.215  96.066  1.00  0.00     0.000 A 
ATOM     30  C   UNL     1      93.101  96.900  96.407  1.00  0.00     0.000 A 
ATOM     31  C   UNL     1      93.917  97.993  96.699  1.00  0.00     0.000 A 
ENDBRANCH  25  26
ENDBRANCH   7  25
BRANCH  14  32
ATOM     32  C   UNL     1      89.884  99.224  89.575  1.00  0.00    -0.046 C 
ATOM     33  C   UNL     1      90.313 100.138  88.466  1.00  0.00     0.042 C 
ATOM     34  C   UNL     1      88.594  99.082  89.917  1.00  0.00     0.010 C 
ENDBRANCH  14  32
ENDBRANCH   3   4
BRANCH   2  35
ATOM     35  C   UNL     1      93.631  93.399  90.858  1.00  0.00     0.078 CG0
ATOM     36  G   UNL     1      94.444  94.683  90.703  1.00  0.00     0.000 G0
ENDBRANCH   2  35
ENDBRANCH   1   2
BRANCH   1  37
ATOM     37  O   UNL     1      92.232  91.612  92.470  1.00  0.00    -0.461 OA
BRANCH  37  38
ATOM     38  C   UNL     1      92.773  90.392  92.135  1.00  0.00     0.310 C 
ATOM     39  O   UNL     1      93.756  89.891  92.663  1.00  0.00    -0.252 OA
BRANCH  38  40
ATOM     40  C   UNL     1      91.967  89.772  91.018  1.00  0.00     0.158 C 
BRANCH  40  41
ATOM     41  C   UNL     1      92.819  89.312  89.863  1.00  0.00    -0.033 A 
ATOM     42  C   UNL     1      92.896  87.955  89.550  1.00  0.00     0.054 A 
ATOM     43  C   UNL     1      93.530  90.244  89.107  1.00  0.00     0.008 A 
ATOM     44  C   UNL     1      93.685  87.529  88.481  1.00  0.00     0.160 A 
ATOM     45  C   UNL     1      94.318  89.819  88.038  1.00  0.00     0.050 A 
ATOM     46  C   UNL     1      94.396  88.462  87.725  1.00  0.00     0.157 A 
BRANCH  44  47
ATOM     47  O   UNL     1      93.753  86.202  88.185  1.00  0.00    -0.493 OA
ATOM     48  C   UNL     1      93.215  85.789  86.930  1.00  0.00     0.278 C 
ENDBRANCH  44  47
BRANCH  46  49
ATOM     49  O   UNL     1      95.168  88.058  86.678  1.00  0.00    -0.504 OA
ATOM     50  H   UNL     1      94.698  87.364  86.187  1.00  0.00     0.293 HD
ENDBRANCH  46  49
ENDBRANCH  40  41
ENDBRANCH  38  40
ENDBRANCH  37  38
ENDBRANCH   1  37
TORSDOF 11
ENDMDL
MODEL 8
REMARK VINA RESULT:    -5.475     42.596     45.817
REMARK INTER + INTRA:         -10.750
REMARK INTER:                  -9.657
REMARK INTRA:                  -1.093
REMARK UNBOUND:                -1.114
REMARK SMILES C=C(C)[C@]12C[C@@H](C)[C@@]34O[C@](Cc5ccccc5)(O[C@@H]1[C@@H]3C=C(COC(=O)Cc1ccc(O)c(OC)c1)C[C@]1(O)C(=O)C(C)=C[C@@H]41)O2
REMARK SMILES IDX 23 1 22 2 21 3 20 4 9 5 8 6 10 7 6 8 18 9 46 10 19 11 5 12
REMARK SMILES IDX 7 13 4 14 45 15 38 16 44 17 40 18 42 20 41 21 43 22 39 23
REMARK SMILES IDX 11 25 12 26 13 27 17 28 14 29 16 30 15 31 2 32 3 33 1 34
REMARK SMILES IDX 37 35 24 37 25 38 26 39 27 40 28 41 36 42 29 43 33 44 30 45
REMARK SMILES IDX 31 46 34 47 35 48 32 49
REMARK H PARENT 39 24 32 50
REMARK Flexibility Score: 90.00
ROOT
ATOM      1  C   UNL     1      54.325  93.767  70.682  1.00  0.00     0.264 C 
ENDROOT
BRANCH   1   2
ATOM      2  C   UNL     1      53.543  94.072  71.938  1.00  0.00    -0.033 C 
ATOM      3  C   UNL     1      53.488  93.150  72.921  1.00  0.00    -0.015 C 
BRANCH   3   4
ATOM      4  C   UNL     1      52.717  93.181  74.230  1.00  0.00     0.078 C 
ATOM      5  O   UNL     1      54.220  94.172  75.928  1.00  0.00    -0.319 OA
ATOM      6  C   UNL     1      52.962  94.384  75.215  1.00  0.00     0.095 C 
ATOM      7  C   UNL     1      54.447  92.826  76.390  1.00  0.00     0.289 C 
ATOM      8  C   UNL     1      51.768  94.403  76.256  1.00  0.00     0.023 C 
ATOM      9  O   UNL     1      54.407  91.896  75.311  1.00  0.00    -0.320 OA
ATOM     10  O   UNL     1      53.446  92.394  77.308  1.00  0.00    -0.313 OA
ATOM     11  C   UNL     1      52.998  91.888  75.036  1.00  0.00     0.170 C 
ATOM     12  C   UNL     1      51.258  92.962  76.567  1.00  0.00     0.049 C 
ATOM     13  C   UNL     1      52.053  95.140  77.575  1.00  0.00     0.011 C 
ATOM     14  C   UNL     1      52.380  91.929  76.456  1.00  0.00     0.122 C 
BRANCH   6  15
ATOM     15  C   UNL     1      53.182  95.708  74.426  1.00  0.00     0.086 C 
ATOM     16  C   UNL     1      52.252  95.941  73.217  1.00  0.00     0.140 CG0
ATOM     17  C   UNL     1      53.137  97.019  75.159  1.00  0.00    -0.010 C 
ATOM     18  C   UNL     1      52.067  97.443  73.233  1.00  0.00     0.190 C 
ATOM     19  G   UNL     1      52.867  95.440  71.911  1.00  0.00     0.000 G0
ATOM     20  C   UNL     1      52.542  98.021  74.504  1.00  0.00    -0.008 C 
ATOM     21  O   UNL     1      51.550  98.102  72.344  1.00  0.00    -0.291 OA
ATOM     22  C   UNL     1      52.390  99.443  74.875  1.00  0.00     0.048 C 
BRANCH  16  23
ATOM     23  O   UNL     1      50.939  95.436  73.397  1.00  0.00    -0.381 OA
ATOM     24  H   UNL     1      50.345  96.183  73.579  1.00  0.00     0.212 HD
ENDBRANCH  16  23
ENDBRANCH   6  15
BRANCH   7  25
ATOM     25  C   UNL     1      55.805  92.776  77.060  1.00  0.00     0.135 C 
BRANCH  25  26
ATOM     26  C   UNL     1      55.693  92.774  78.564  1.00  0.00    -0.040 A 
ATOM     27  C   UNL     1      55.322  93.939  79.237  1.00  0.00     0.004 A 
ATOM     28  C   UNL     1      55.959  91.609  79.282  1.00  0.00     0.004 A 
ATOM     29  C   UNL     1      55.218  93.937  80.629  1.00  0.00     0.000 A 
ATOM     30  C   UNL     1      55.855  91.607  80.674  1.00  0.00     0.000 A 
ATOM     31  C   UNL     1      55.485  92.772  81.346  1.00  0.00     0.000 A 
ENDBRANCH  25  26
ENDBRANCH   7  25
BRANCH  14  32
ATOM     32  C   UNL     1      51.960  90.574  76.924  1.00  0.00    -0.046 C 
ATOM     33  C   UNL     1      52.566  90.101  78.213  1.00  0.00     0.042 C 
ATOM     34  C   UNL     1      51.092  89.821  76.232  1.00  0.00     0.010 C 
ENDBRANCH  14  32
ENDBRANCH   3   4
BRANCH   2  35
ATOM     35  C   UNL     1      52.901  95.446  71.920  1.00  0.00     0.078 CG0
ATOM     36  G   UNL     1      52.236  95.924  73.210  1.00  0.00     0.000 G0
ENDBRANCH   2  35
ENDBRANCH   1   2
BRANCH   1  37
ATOM     37  O   UNL     1      55.589  93.247  71.033  1.00  0.00    -0.461 OA
BRANCH  37  38
ATOM     38  C   UNL     1      55.922  92.032  70.481  1.00  0.00     0.310 C 
ATOM     39  O   UNL     1      56.749  91.256  70.939  1.00  0.00    -0.252 OA
BRANCH  38  40
ATOM     40  C   UNL     1      55.110  91.808  69.227  1.00  0.00     0.158 C 
BRANCH  40  41
ATOM     41  C   UNL     1      55.896  91.137  68.130  1.00  0.00    -0.033 A 
ATOM     42  C   UNL     1      57.017  91.768  67.589  1.00  0.00     0.054 A 
ATOM     43  C   UNL     1      55.504  89.885  67.657  1.00  0.00     0.008 A 
ATOM     44  C   UNL     1      57.745  91.146  66.574  1.00  0.00     0.160 A 
ATOM     45  C   UNL     1      56.232  89.264  66.642  1.00  0.00     0.050 A 
ATOM     46  C   UNL     1      57.351  89.894  66.100  1.00  0.00     0.157 A 
BRANCH  44  47
ATOM     47  O   UNL     1      58.837  91.772  66.053  1.00  0.00    -0.493 OA
ATOM     48  C   UNL     1      58.670  93.126  65.634  1.00  0.00     0.278 C 
ENDBRANCH  44  47
BRANCH  46  49
ATOM     49  O   UNL     1      58.055  89.277  65.110  1.00  0.00    -0.504 OA
ATOM     50  H   UNL     1      58.652  89.923  64.697  1.00  0.00     0.293 HD
ENDBRANCH  46  49
ENDBRANCH  40  41
ENDBRANCH  38  40
ENDBRANCH  37  38
ENDBRANCH   1  37
TORSDOF 11
ENDMDL
MODEL 9
REMARK VINA RESULT:    -5.443     16.557     19.953
REMARK INTER + INTRA:         -10.693
REMARK INTER:                  -9.587
REMARK INTRA:                  -1.106
REMARK UNBOUND:                -1.114
REMARK SMILES C=C(C)[C@]12C[C@@H](C)[C@@]34O[C@](Cc5ccccc5)(O[C@@H]1[C@@H]3C=C(COC(=O)Cc1ccc(O)c(OC)c1)C[C@]1(O)C(=O)C(C)=C[C@@H]41)O2
REMARK SMILES IDX 23 1 22 2 21 3 20 4 9 5 8 6 10 7 6 8 18 9 46 10 19 11 5 12
REMARK SMILES IDX 7 13 4 14 45 15 38 16 44 17 40 18 42 20 41 21 43 22 39 23
REMARK SMILES IDX 11 25 12 26 13 27 17 28 14 29 16 30 15 31 2 32 3 33 1 34
REMARK SMILES IDX 37 35 24 37 25 38 26 39 27 40 28 41 36 42 29 43 33 44 30 45
REMARK SMILES IDX 31 46 34 47 35 48 32 49
REMARK H PARENT 39 24 32 50
REMARK Flexibility Score: 90.00
ROOT
ATOM      1  C   UNL     1      94.964 101.955  82.432  1.00  0.00     0.264 C 
ENDROOT
BRANCH   1   2
ATOM      2  C   UNL     1      95.753 100.676  82.279  1.00  0.00    -0.033 C 
ATOM      3  C   UNL     1      95.505  99.870  81.227  1.00  0.00    -0.015 C 
BRANCH   3   4
ATOM      4  C   UNL     1      96.097  98.511  80.892  1.00  0.00     0.078 C 
ATOM      5  O   UNL     1      98.044  98.917  79.421  1.00  0.00    -0.319 OA
ATOM      6  C   UNL     1      97.659  98.395  80.730  1.00  0.00     0.095 C 
ATOM      7  C   UNL     1      97.192  98.528  78.327  1.00  0.00     0.289 C 
ATOM      8  C   UNL     1      98.036  96.858  80.812  1.00  0.00     0.023 C 
ATOM      9  O   UNL     1      95.841  98.920  78.559  1.00  0.00    -0.320 OA
ATOM     10  O   UNL     1      97.157  97.115  78.144  1.00  0.00    -0.313 OA
ATOM     11  C   UNL     1      95.477  97.976  79.578  1.00  0.00     0.170 C 
ATOM     12  C   UNL     1      96.912  95.960  80.210  1.00  0.00     0.049 C 
ATOM     13  C   UNL     1      99.387  96.475  80.185  1.00  0.00     0.011 C 
ATOM     14  C   UNL     1      96.158  96.675  79.087  1.00  0.00     0.122 C 
BRANCH   6  15
ATOM     15  C   UNL     1      98.390  99.318  81.747  1.00  0.00     0.086 C 
ATOM     16  C   UNL     1      97.827  99.327  83.184  1.00  0.00     0.140 CG0
ATOM     17  C   UNL     1      99.870  99.160  81.953  1.00  0.00    -0.010 C 
ATOM     18  C   UNL     1      99.074  99.512  84.022  1.00  0.00     0.190 C 
ATOM     19  G   UNL     1      96.807 100.445  83.397  1.00  0.00     0.000 G0
ATOM     20  C   UNL     1     100.290  99.292  83.216  1.00  0.00    -0.008 C 
ATOM     21  O   UNL     1      99.093  99.761  85.218  1.00  0.00    -0.291 OA
ATOM     22  C   UNL     1     101.660  99.282  83.769  1.00  0.00     0.048 C 
BRANCH  16  23
ATOM     23  O   UNL     1      97.317  98.074  83.608  1.00  0.00    -0.381 OA
ATOM     24  H   UNL     1      98.049  97.436  83.631  1.00  0.00     0.212 HD
ENDBRANCH  16  23
ENDBRANCH   6  15
BRANCH   7  25
ATOM     25  C   UNL     1      97.707  99.190  77.065  1.00  0.00     0.135 C 
BRANCH  25  26
ATOM     26  C   UNL     1      96.815  98.917  75.879  1.00  0.00    -0.040 A 
ATOM     27  C   UNL     1      95.479  99.320  75.904  1.00  0.00     0.004 A 
ATOM     28  C   UNL     1      97.324  98.263  74.758  1.00  0.00     0.004 A 
ATOM     29  C   UNL     1      94.654  99.068  74.808  1.00  0.00     0.000 A 
ATOM     30  C   UNL     1      96.499  98.011  73.662  1.00  0.00     0.000 A 
ATOM     31  C   UNL     1      95.164  98.414  73.688  1.00  0.00     0.000 A 
ENDBRANCH  25  26
ENDBRANCH   7  25
BRANCH  14  32
ATOM     32  C   UNL     1      95.202  95.775  78.374  1.00  0.00    -0.046 C 
ATOM     33  C   UNL     1      94.705  94.590  79.148  1.00  0.00     0.042 C 
ATOM     34  C   UNL     1      94.810  96.013  77.114  1.00  0.00     0.010 C 
ENDBRANCH  14  32
ENDBRANCH   3   4
BRANCH   2  35
ATOM     35  C   UNL     1      96.772 100.470  83.384  1.00  0.00     0.078 CG0
ATOM     36  G   UNL     1      97.803  99.360  83.186  1.00  0.00     0.000 G0
ENDBRANCH   2  35
ENDBRANCH   1   2
BRANCH   1  37
ATOM     37  O   UNL     1      95.770 102.930  83.058  1.00  0.00    -0.461 OA
BRANCH  37  38
ATOM     38  C   UNL     1      95.153 104.117  83.377  1.00  0.00     0.310 C 
ATOM     39  O   UNL     1      95.516 105.222  82.997  1.00  0.00    -0.252 OA
BRANCH  38  40
ATOM     40  C   UNL     1      93.964 103.844  84.267  1.00  0.00     0.158 C 
BRANCH  40  41
ATOM     41  C   UNL     1      94.356 103.433  85.663  1.00  0.00    -0.033 A 
ATOM     42  C   UNL     1      93.934 102.204  86.172  1.00  0.00     0.054 A 
ATOM     43  C   UNL     1      95.141 104.279  86.446  1.00  0.00     0.008 A 
ATOM     44  C   UNL     1      94.297 101.823  87.464  1.00  0.00     0.160 A 
ATOM     45  C   UNL     1      95.504 103.898  87.738  1.00  0.00     0.050 A 
ATOM     46  C   UNL     1      95.082 102.670  88.247  1.00  0.00     0.157 A 
BRANCH  44  47
ATOM     47  O   UNL     1      93.878 100.621  87.950  1.00  0.00    -0.493 OA
ATOM     48  C   UNL     1      92.472 100.443  88.116  1.00  0.00     0.278 C 
ENDBRANCH  44  47
BRANCH  46  49
ATOM     49  O   UNL     1      95.443 102.308  89.509  1.00  0.00    -0.504 OA
ATOM     50  H   UNL     1      94.741 101.757  89.894  1.00  0.00     0.293 HD
ENDBRANCH  46  49
ENDBRANCH  40  41
ENDBRANCH  38  40
ENDBRANCH  37  38
ENDBRANCH   1  37
TORSDOF 11
ENDMDL
MODEL 10
REMARK VINA RESULT:    -5.119      3.020      5.039
REMARK INTER + INTRA:         -10.123
REMARK INTER:                  -9.210
REMARK INTRA:                  -0.912
REMARK UNBOUND:                -1.114
REMARK SMILES C=C(C)[C@]12C[C@@H](C)[C@@]34O[C@](Cc5ccccc5)(O[C@@H]1[C@@H]3C=C(COC(=O)Cc1ccc(O)c(OC)c1)C[C@]1(O)C(=O)C(C)=C[C@@H]41)O2
REMARK SMILES IDX 23 1 22 2 21 3 20 4 9 5 8 6 10 7 6 8 18 9 46 10 19 11 5 12
REMARK SMILES IDX 7 13 4 14 45 15 38 16 44 17 40 18 42 20 41 21 43 22 39 23
REMARK SMILES IDX 11 25 12 26 13 27 17 28 14 29 16 30 15 31 2 32 3 33 1 34
REMARK SMILES IDX 37 35 24 37 25 38 26 39 27 40 28 41 36 42 29 43 33 44 30 45
REMARK SMILES IDX 31 46 34 47 35 48 32 49
REMARK H PARENT 39 24 32 50
REMARK Flexibility Score: 90.00
ROOT
ATOM      1  C   UNL     1      97.429  78.491  81.225  1.00  0.00     0.264 C 
ENDROOT
BRANCH   1   2
ATOM      2  C   UNL     1      98.200  79.496  80.402  1.00  0.00    -0.033 C 
ATOM      3  C   UNL     1      99.336  79.112  79.785  1.00  0.00    -0.015 C 
BRANCH   3   4
ATOM      4  C   UNL     1     100.321  79.938  78.975  1.00  0.00     0.078 C 
ATOM      5  O   UNL     1      99.615  79.786  76.609  1.00  0.00    -0.319 OA
ATOM      6  C   UNL     1      99.786  80.721  77.719  1.00  0.00     0.095 C 
ATOM      7  C   UNL     1     100.677  78.827  76.442  1.00  0.00     0.289 C 
ATOM      8  C   UNL     1     100.876  81.803  77.328  1.00  0.00     0.023 C 
ATOM      9  O   UNL     1     100.866  78.053  77.624  1.00  0.00    -0.320 OA
ATOM     10  O   UNL     1     101.932  79.450  76.185  1.00  0.00    -0.313 OA
ATOM     11  C   UNL     1     101.476  79.037  78.474  1.00  0.00     0.170 C 
ATOM     12  C   UNL     1     102.319  81.296  77.634  1.00  0.00     0.049 C 
ATOM     13  C   UNL     1     100.810  82.312  75.879  1.00  0.00     0.011 C 
ATOM     14  C   UNL     1     102.426  79.777  77.500  1.00  0.00     0.122 C 
BRANCH   6  15
ATOM     15  C   UNL     1      98.357  81.277  77.982  1.00  0.00     0.086 C 
ATOM     16  C   UNL     1      98.111  81.887  79.378  1.00  0.00     0.140 CG0
ATOM     17  C   UNL     1      97.782  82.303  77.046  1.00  0.00    -0.010 C 
ATOM     18  C   UNL     1      97.137  83.007  79.078  1.00  0.00     0.190 C 
ATOM     19  G   UNL     1      97.542  80.865  80.362  1.00  0.00     0.000 G0
ATOM     20  C   UNL     1      97.068  83.272  77.628  1.00  0.00    -0.008 C 
ATOM     21  O   UNL     1      96.521  83.652  79.912  1.00  0.00    -0.291 OA
ATOM     22  C   UNL     1      96.300  84.382  77.026  1.00  0.00     0.048 C 
BRANCH  16  23
ATOM     23  O   UNL     1      99.239  82.554  79.919  1.00  0.00    -0.381 OA
ATOM     24  H   UNL     1      99.659  81.969  80.571  1.00  0.00     0.212 HD
ENDBRANCH  16  23
ENDBRANCH   6  15
BRANCH   7  25
ATOM     25  C   UNL     1     100.317  77.916  75.286  1.00  0.00     0.135 C 
BRANCH  25  26
ATOM     26  C   UNL     1     100.918  78.389  73.986  1.00  0.00    -0.040 A 
ATOM     27  C   UNL     1     102.241  78.074  73.674  1.00  0.00     0.004 A 
ATOM     28  C   UNL     1     100.151  79.139  73.094  1.00  0.00     0.004 A 
ATOM     29  C   UNL     1     102.797  78.512  72.471  1.00  0.00     0.000 A 
ATOM     30  C   UNL     1     100.707  79.576  71.892  1.00  0.00     0.000 A 
ATOM     31  C   UNL     1     102.030  79.262  71.581  1.00  0.00     0.000 A 
ENDBRANCH  25  26
ENDBRANCH   7  25
BRANCH  14  32
ATOM     32  C   UNL     1     103.834  79.288  77.609  1.00  0.00    -0.046 C 
ATOM     33  C   UNL     1     104.631  79.277  76.339  1.00  0.00     0.042 C 
ATOM     34  C   UNL     1     104.355  78.883  78.777  1.00  0.00     0.010 C 
ENDBRANCH  14  32
ENDBRANCH   3   4
BRANCH   2  35
ATOM     35  C   UNL     1      97.552  80.868  80.378  1.00  0.00     0.078 CG0
ATOM     36  G   UNL     1      98.105  81.885  79.382  1.00  0.00     0.000 G0
ENDBRANCH   2  35
ENDBRANCH   1   2
BRANCH   1  37
ATOM     37  O   UNL     1      97.750  78.658  82.589  1.00  0.00    -0.461 OA
BRANCH  37  38
ATOM     38  C   UNL     1      96.688  78.721  83.460  1.00  0.00     0.310 C 
ATOM     39  O   UNL     1      96.436  77.891  84.323  1.00  0.00    -0.252 OA
BRANCH  38  40
ATOM     40  C   UNL     1      95.884  79.971  83.187  1.00  0.00     0.158 C 
BRANCH  40  41
ATOM     41  C   UNL     1      96.412  81.180  83.916  1.00  0.00    -0.033 A 
ATOM     42  C   UNL     1      97.666  81.134  84.527  1.00  0.00     0.054 A 
ATOM     43  C   UNL     1      95.648  82.345  83.979  1.00  0.00     0.008 A 
ATOM     44  C   UNL     1      98.154  82.253  85.202  1.00  0.00     0.160 A 
ATOM     45  C   UNL     1      96.136  83.464  84.654  1.00  0.00     0.050 A 
ATOM     46  C   UNL     1      97.389  83.419  85.265  1.00  0.00     0.157 A 
BRANCH  44  47
ATOM     47  O   UNL     1      99.379  82.196  85.795  1.00  0.00    -0.493 OA
ATOM     48  C   UNL     1      99.646  81.065  86.623  1.00  0.00     0.278 C 
ENDBRANCH  44  47
BRANCH  46  49
ATOM     49  O   UNL     1      97.856  84.518  85.920  1.00  0.00    -0.504 OA
ATOM     50  H   UNL     1      98.794  84.382  86.136  1.00  0.00     0.293 HD
ENDBRANCH  46  49
ENDBRANCH  40  41
ENDBRANCH  38  40
ENDBRANCH  37  38
ENDBRANCH   1  37
TORSDOF 11
ENDMDL
