MODEL 1
REMARK VINA RESULT:    -5.317      0.000      0.000
REMARK INTER + INTRA:         -10.603
REMARK INTER:                  -8.891
REMARK INTRA:                  -1.712
REMARK UNBOUND:                -1.712
REMARK SMILES COc1cc(CNC(=O)CCCCCCCC(C)C)ccc1O
REMARK SMILES IDX 11 1 10 2 8 3 9 4 7 5 6 7 5 8 4 9 20 10 3 11 21 12 22 13
REMARK SMILES IDX 2 14 1 15 23 16 12 18 13 19 14 20 15 21 16 22 17 23 18 24
REMARK SMILES IDX 19 25
REMARK H PARENT 7 6 23 17
REMARK Flexibility Score: inf
ROOT
ATOM      1  C   UNL     1      89.850  97.080  69.975  1.00  0.00     0.010 C 
ENDROOT
BRANCH   1   2
ATOM      2  C   UNL     1      89.439  98.099  71.035  1.00  0.00     0.100 C 
BRANCH   2   3
ATOM      3  C   UNL     1      90.310  99.344  71.010  1.00  0.00     0.220 C 
ATOM      4  O   UNL     1      91.445  99.363  70.542  1.00  0.00    -0.275 OA
ATOM      5  N   UNL     1      89.664 100.430  71.581  1.00  0.00    -0.352 N 
ATOM      6  H   UNL     1      88.725 100.317  71.954  1.00  0.00     0.163 HD
BRANCH   5   7
ATOM      7  C   UNL     1      90.273 101.735  71.692  1.00  0.00     0.151 C 
BRANCH   7   8
ATOM      8  C   UNL     1      89.254 102.815  71.912  1.00  0.00    -0.025 A 
ATOM      9  C   UNL     1      88.761 103.046  73.191  1.00  0.00     0.056 A 
ATOM     10  C   UNL     1      88.812 103.572  70.833  1.00  0.00     0.009 A 
ATOM     11  C   UNL     1      87.813 104.048  73.394  1.00  0.00     0.160 A 
ATOM     12  C   UNL     1      87.863 104.574  71.038  1.00  0.00     0.050 A 
ATOM     13  C   UNL     1      87.363 104.813  72.318  1.00  0.00     0.157 A 
BRANCH  11  14
ATOM     14  O   UNL     1      87.333 104.272  74.650  1.00  0.00    -0.493 OA
ATOM     15  C   UNL     1      87.960 103.564  75.718  1.00  0.00     0.278 C 
ENDBRANCH  11  14
BRANCH  13  16
ATOM     16  O   UNL     1      86.439 105.795  72.504  1.00  0.00    -0.504 OA
ATOM     17  H   UNL     1      86.800 106.636  72.175  1.00  0.00     0.293 HD
ENDBRANCH  13  16
ENDBRANCH   7   8
ENDBRANCH   5   7
ENDBRANCH   2   3
ENDBRANCH   1   2
BRANCH   1  18
ATOM     18  C   UNL     1      88.841  96.950  68.831  1.00  0.00     0.001 C 
BRANCH  18  19
ATOM     19  C   UNL     1      88.890  98.056  67.772  1.00  0.00     0.000 C 
BRANCH  19  20
ATOM     20  C   UNL     1      87.890  99.186  68.030  1.00  0.00     0.000 C 
BRANCH  20  21
ATOM     21  C   UNL     1      88.519 100.583  67.973  1.00  0.00     0.000 C 
BRANCH  21  22
ATOM     22  C   UNL     1      89.938 100.585  67.394  1.00  0.00     0.003 C 
BRANCH  22  23
ATOM     23  C   UNL     1      90.515 102.000  67.190  1.00  0.00    -0.017 C 
ATOM     24  C   UNL     1      91.632 102.255  68.205  1.00  0.00     0.007 C 
ATOM     25  C   UNL     1      89.450 103.091  67.313  1.00  0.00     0.007 C 
ENDBRANCH  22  23
ENDBRANCH  21  22
ENDBRANCH  20  21
ENDBRANCH  19  20
ENDBRANCH  18  19
ENDBRANCH   1  18
TORSDOF 12
ENDMDL
MODEL 2
REMARK VINA RESULT:    -5.291     21.930     24.806
REMARK INTER + INTRA:         -10.559
REMARK INTER:                  -9.869
REMARK INTRA:                  -0.690
REMARK UNBOUND:                -1.712
REMARK SMILES COc1cc(CNC(=O)CCCCCCCC(C)C)ccc1O
REMARK SMILES IDX 11 1 10 2 8 3 9 4 7 5 6 7 5 8 4 9 20 10 3 11 21 12 22 13
REMARK SMILES IDX 2 14 1 15 23 16 12 18 13 19 14 20 15 21 16 22 17 23 18 24
REMARK SMILES IDX 19 25
REMARK H PARENT 7 6 23 17
REMARK Flexibility Score: inf
ROOT
ATOM      1  C   UNL     1      97.657  84.067  84.884  1.00  0.00     0.010 C 
ENDROOT
BRANCH   1   2
ATOM      2  C   UNL     1      96.391  84.736  85.417  1.00  0.00     0.100 C 
BRANCH   2   3
ATOM      3  C   UNL     1      95.857  84.053  86.664  1.00  0.00     0.220 C 
ATOM      4  O   UNL     1      96.563  83.751  87.622  1.00  0.00    -0.275 OA
ATOM      5  N   UNL     1      94.494  83.814  86.571  1.00  0.00    -0.352 N 
ATOM      6  H   UNL     1      93.993  84.090  85.731  1.00  0.00     0.163 HD
BRANCH   5   7
ATOM      7  C   UNL     1      93.738  83.168  87.619  1.00  0.00     0.151 C 
BRANCH   7   8
ATOM      8  C   UNL     1      92.859  82.075  87.085  1.00  0.00    -0.025 A 
ATOM      9  C   UNL     1      91.538  82.355  86.755  1.00  0.00     0.056 A 
ATOM     10  C   UNL     1      93.375  80.795  86.925  1.00  0.00     0.009 A 
ATOM     11  C   UNL     1      90.721  81.339  86.259  1.00  0.00     0.160 A 
ATOM     12  C   UNL     1      92.557  79.779  86.429  1.00  0.00     0.050 A 
ATOM     13  C   UNL     1      91.230  80.050  86.096  1.00  0.00     0.157 A 
BRANCH  11  14
ATOM     14  O   UNL     1      89.426  81.616  85.937  1.00  0.00    -0.493 OA
ATOM     15  C   UNL     1      88.467  81.543  86.991  1.00  0.00     0.278 C 
ENDBRANCH  11  14
BRANCH  13  16
ATOM     16  O   UNL     1      90.443  79.050  85.612  1.00  0.00    -0.504 OA
ATOM     17  H   UNL     1      89.513  79.335  85.645  1.00  0.00     0.293 HD
ENDBRANCH  13  16
ENDBRANCH   7   8
ENDBRANCH   5   7
ENDBRANCH   2   3
ENDBRANCH   1   2
BRANCH   1  18
ATOM     18  C   UNL     1      97.444  82.615  84.450  1.00  0.00     0.001 C 
BRANCH  18  19
ATOM     19  C   UNL     1      98.213  82.175  83.200  1.00  0.00     0.000 C 
BRANCH  19  20
ATOM     20  C   UNL     1      98.174  83.209  82.071  1.00  0.00     0.000 C 
BRANCH  20  21
ATOM     21  C   UNL     1      99.224  82.963  80.982  1.00  0.00     0.000 C 
BRANCH  21  22
ATOM     22  C   UNL     1      98.626  82.466  79.663  1.00  0.00     0.003 C 
BRANCH  22  23
ATOM     23  C   UNL     1      98.836  83.439  78.487  1.00  0.00    -0.017 C 
ATOM     24  C   UNL     1      97.486  83.987  78.020  1.00  0.00     0.007 C 
ATOM     25  C   UNL     1      99.562  82.787  77.309  1.00  0.00     0.007 C 
ENDBRANCH  22  23
ENDBRANCH  21  22
ENDBRANCH  20  21
ENDBRANCH  19  20
ENDBRANCH  18  19
ENDBRANCH   1  18
TORSDOF 12
ENDMDL
MODEL 3
REMARK VINA RESULT:    -5.282     21.113     23.307
REMARK INTER + INTRA:         -10.545
REMARK INTER:                  -9.630
REMARK INTRA:                  -0.915
REMARK UNBOUND:                -1.712
REMARK SMILES COc1cc(CNC(=O)CCCCCCCC(C)C)ccc1O
REMARK SMILES IDX 11 1 10 2 8 3 9 4 7 5 6 7 5 8 4 9 20 10 3 11 21 12 22 13
REMARK SMILES IDX 2 14 1 15 23 16 12 18 13 19 14 20 15 21 16 22 17 23 18 24
REMARK SMILES IDX 19 25
REMARK H PARENT 7 6 23 17
REMARK Flexibility Score: inf
ROOT
ATOM      1  C   UNL     1      97.998  82.948  79.674  1.00  0.00     0.010 C 
ENDROOT
BRANCH   1   2
ATOM      2  C   UNL     1      99.474  83.181  79.987  1.00  0.00     0.100 C 
BRANCH   2   3
ATOM      3  C   UNL     1      99.875  82.613  81.339  1.00  0.00     0.220 C 
ATOM      4  O   UNL     1     100.975  82.113  81.560  1.00  0.00    -0.275 OA
ATOM      5  N   UNL     1      98.848  82.726  82.264  1.00  0.00    -0.352 N 
ATOM      6  H   UNL     1      97.965  83.145  81.986  1.00  0.00     0.163 HD
BRANCH   5   7
ATOM      7  C   UNL     1      98.965  82.255  83.625  1.00  0.00     0.151 C 
BRANCH   7   8
ATOM      8  C   UNL     1      98.327  83.199  84.602  1.00  0.00    -0.025 A 
ATOM      9  C   UNL     1      98.862  83.334  85.878  1.00  0.00     0.056 A 
ATOM     10  C   UNL     1      97.207  83.928  84.221  1.00  0.00     0.009 A 
ATOM     11  C   UNL     1      98.268  84.211  86.786  1.00  0.00     0.160 A 
ATOM     12  C   UNL     1      96.614  84.805  85.130  1.00  0.00     0.050 A 
ATOM     13  C   UNL     1      97.144  84.947  86.412  1.00  0.00     0.157 A 
BRANCH  11  14
ATOM     14  O   UNL     1      98.795  84.340  88.036  1.00  0.00    -0.493 OA
ATOM     15  C   UNL     1      99.268  83.150  88.665  1.00  0.00     0.278 C 
ENDBRANCH  11  14
BRANCH  13  16
ATOM     16  O   UNL     1      96.556  85.807  87.289  1.00  0.00    -0.504 OA
ATOM     17  H   UNL     1      96.173  85.297  88.024  1.00  0.00     0.293 HD
ENDBRANCH  13  16
ENDBRANCH   7   8
ENDBRANCH   5   7
ENDBRANCH   2   3
ENDBRANCH   1   2
BRANCH   1  18
ATOM     18  C   UNL     1      97.427  83.938  78.655  1.00  0.00     0.001 C 
BRANCH  18  19
ATOM     19  C   UNL     1      97.470  83.485  77.192  1.00  0.00     0.000 C 
BRANCH  19  20
ATOM     20  C   UNL     1      98.416  84.322  76.327  1.00  0.00     0.000 C 
BRANCH  20  21
ATOM     21  C   UNL     1      99.655  83.553  75.856  1.00  0.00     0.000 C 
BRANCH  21  22
ATOM     22  C   UNL     1     100.961  84.332  76.044  1.00  0.00     0.003 C 
BRANCH  22  23
ATOM     23  C   UNL     1     101.793  84.457  74.753  1.00  0.00    -0.017 C 
ATOM     24  C   UNL     1     101.234  85.586  73.884  1.00  0.00     0.007 C 
ATOM     25  C   UNL     1     101.825  83.157  73.948  1.00  0.00     0.007 C 
ENDBRANCH  22  23
ENDBRANCH  21  22
ENDBRANCH  20  21
ENDBRANCH  19  20
ENDBRANCH  18  19
ENDBRANCH   1  18
TORSDOF 12
ENDMDL
MODEL 4
REMARK VINA RESULT:    -5.279     17.865     20.376
REMARK INTER + INTRA:         -10.540
REMARK INTER:                  -9.496
REMARK INTRA:                  -1.044
REMARK UNBOUND:                -1.712
REMARK SMILES COc1cc(CNC(=O)CCCCCCCC(C)C)ccc1O
REMARK SMILES IDX 11 1 10 2 8 3 9 4 7 5 6 7 5 8 4 9 20 10 3 11 21 12 22 13
REMARK SMILES IDX 2 14 1 15 23 16 12 18 13 19 14 20 15 21 16 22 17 23 18 24
REMARK SMILES IDX 19 25
REMARK H PARENT 7 6 23 17
REMARK Flexibility Score: inf
ROOT
ATOM      1  C   UNL     1      77.844  87.293  67.408  1.00  0.00     0.010 C 
ENDROOT
BRANCH   1   2
ATOM      2  C   UNL     1      78.222  86.115  68.303  1.00  0.00     0.100 C 
BRANCH   2   3
ATOM      3  C   UNL     1      77.328  86.009  69.528  1.00  0.00     0.220 C 
ATOM      4  O   UNL     1      77.570  85.268  70.476  1.00  0.00    -0.275 OA
ATOM      5  N   UNL     1      76.222  86.839  69.425  1.00  0.00    -0.352 N 
ATOM      6  H   UNL     1      76.099  87.411  68.593  1.00  0.00     0.163 HD
BRANCH   5   7
ATOM      7  C   UNL     1      75.208  86.924  70.450  1.00  0.00     0.151 C 
BRANCH   7   8
ATOM      8  C   UNL     1      74.925  88.344  70.845  1.00  0.00    -0.025 A 
ATOM      9  C   UNL     1      73.787  88.639  71.585  1.00  0.00     0.056 A 
ATOM     10  C   UNL     1      75.805  89.351  70.465  1.00  0.00     0.009 A 
ATOM     11  C   UNL     1      73.524  89.959  71.951  1.00  0.00     0.160 A 
ATOM     12  C   UNL     1      75.542  90.671  70.831  1.00  0.00     0.050 A 
ATOM     13  C   UNL     1      74.402  90.976  71.574  1.00  0.00     0.157 A 
BRANCH  11  14
ATOM     14  O   UNL     1      72.407  90.244  72.677  1.00  0.00    -0.493 OA
ATOM     15  C   UNL     1      72.523  90.178  74.098  1.00  0.00     0.278 C 
ENDBRANCH  11  14
BRANCH  13  16
ATOM     16  O   UNL     1      74.157  92.269  71.926  1.00  0.00    -0.504 OA
ATOM     17  H   UNL     1      73.973  92.786  71.123  1.00  0.00     0.293 HD
ENDBRANCH  13  16
ENDBRANCH   7   8
ENDBRANCH   5   7
ENDBRANCH   2   3
ENDBRANCH   1   2
BRANCH   1  18
ATOM     18  C   UNL     1      77.173  86.873  66.097  1.00  0.00     0.001 C 
BRANCH  18  19
ATOM     19  C   UNL     1      76.924  85.370  65.930  1.00  0.00     0.000 C 
BRANCH  19  20
ATOM     20  C   UNL     1      75.544  84.927  66.424  1.00  0.00     0.000 C 
BRANCH  20  21
ATOM     21  C   UNL     1      75.542  83.531  67.056  1.00  0.00     0.000 C 
BRANCH  21  22
ATOM     22  C   UNL     1      74.612  82.543  66.342  1.00  0.00     0.003 C 
BRANCH  22  23
ATOM     23  C   UNL     1      75.348  81.326  65.749  1.00  0.00    -0.017 C 
ATOM     24  C   UNL     1      76.839  81.641  65.609  1.00  0.00     0.007 C 
ATOM     25  C   UNL     1      74.782  80.904  64.392  1.00  0.00     0.007 C 
ENDBRANCH  22  23
ENDBRANCH  21  22
ENDBRANCH  20  21
ENDBRANCH  19  20
ENDBRANCH  18  19
ENDBRANCH   1  18
TORSDOF 12
ENDMDL
MODEL 5
REMARK VINA RESULT:    -5.271     20.437     23.833
REMARK INTER + INTRA:         -10.526
REMARK INTER:                  -8.916
REMARK INTRA:                  -1.610
REMARK UNBOUND:                -1.712
REMARK SMILES COc1cc(CNC(=O)CCCCCCCC(C)C)ccc1O
REMARK SMILES IDX 11 1 10 2 8 3 9 4 7 5 6 7 5 8 4 9 20 10 3 11 21 12 22 13
REMARK SMILES IDX 2 14 1 15 23 16 12 18 13 19 14 20 15 21 16 22 17 23 18 24
REMARK SMILES IDX 19 25
REMARK H PARENT 7 6 23 17
REMARK Flexibility Score: inf
ROOT
ATOM      1  C   UNL     1      77.078  84.564  70.213  1.00  0.00     0.010 C 
ENDROOT
BRANCH   1   2
ATOM      2  C   UNL     1      77.815  85.290  69.090  1.00  0.00     0.100 C 
BRANCH   2   3
ATOM      3  C   UNL     1      77.844  84.484  67.802  1.00  0.00     0.220 C 
ATOM      4  O   UNL     1      78.666  83.600  67.578  1.00  0.00    -0.275 OA
ATOM      5  N   UNL     1      76.841  84.881  66.929  1.00  0.00    -0.352 N 
ATOM      6  H   UNL     1      76.211  85.632  67.197  1.00  0.00     0.163 HD
BRANCH   5   7
ATOM      7  C   UNL     1      76.652  84.281  65.629  1.00  0.00     0.151 C 
BRANCH   7   8
ATOM      8  C   UNL     1      75.563  83.248  65.640  1.00  0.00    -0.025 A 
ATOM      9  C   UNL     1      74.341  83.543  66.232  1.00  0.00     0.056 A 
ATOM     10  C   UNL     1      75.789  82.006  65.060  1.00  0.00     0.009 A 
ATOM     11  C   UNL     1      73.330  82.582  66.243  1.00  0.00     0.160 A 
ATOM     12  C   UNL     1      74.778  81.044  65.071  1.00  0.00     0.050 A 
ATOM     13  C   UNL     1      73.548  81.332  65.663  1.00  0.00     0.157 A 
BRANCH  11  14
ATOM     14  O   UNL     1      72.133  82.875  66.824  1.00  0.00    -0.493 OA
ATOM     15  C   UNL     1      71.210  83.645  66.055  1.00  0.00     0.278 C 
ENDBRANCH  11  14
BRANCH  13  16
ATOM     16  O   UNL     1      72.569  80.386  65.667  1.00  0.00    -0.504 OA
ATOM     17  H   UNL     1      71.705  80.824  65.569  1.00  0.00     0.293 HD
ENDBRANCH  13  16
ENDBRANCH   7   8
ENDBRANCH   5   7
ENDBRANCH   2   3
ENDBRANCH   1   2
BRANCH   1  18
ATOM     18  C   UNL     1      75.587  84.905  70.286  1.00  0.00     0.001 C 
BRANCH  18  19
ATOM     19  C   UNL     1      75.248  86.399  70.321  1.00  0.00     0.000 C 
BRANCH  19  20
ATOM     20  C   UNL     1      74.018  86.761  69.484  1.00  0.00     0.000 C 
BRANCH  20  21
ATOM     21  C   UNL     1      73.118  85.560  69.173  1.00  0.00     0.000 C 
BRANCH  21  22
ATOM     22  C   UNL     1      71.692  85.958  68.777  1.00  0.00     0.003 C 
BRANCH  22  23
ATOM     23  C   UNL     1      70.632  85.566  69.825  1.00  0.00    -0.017 C 
ATOM     24  C   UNL     1      70.546  86.647  70.904  1.00  0.00     0.007 C 
ATOM     25  C   UNL     1      70.923  84.213  70.475  1.00  0.00     0.007 C 
ENDBRANCH  22  23
ENDBRANCH  21  22
ENDBRANCH  20  21
ENDBRANCH  19  20
ENDBRANCH  18  19
ENDBRANCH   1  18
TORSDOF 12
ENDMDL
MODEL 6
REMARK VINA RESULT:    -5.227      3.871      6.031
REMARK INTER + INTRA:         -10.453
REMARK INTER:                  -9.474
REMARK INTRA:                  -0.979
REMARK UNBOUND:                -1.712
REMARK SMILES COc1cc(CNC(=O)CCCCCCCC(C)C)ccc1O
REMARK SMILES IDX 11 1 10 2 8 3 9 4 7 5 6 7 5 8 4 9 20 10 3 11 21 12 22 13
REMARK SMILES IDX 2 14 1 15 23 16 12 18 13 19 14 20 15 21 16 22 17 23 18 24
REMARK SMILES IDX 19 25
REMARK H PARENT 7 6 23 17
REMARK Flexibility Score: inf
ROOT
ATOM      1  C   UNL     1      89.910  97.332  70.073  1.00  0.00     0.010 C 
ENDROOT
BRANCH   1   2
ATOM      2  C   UNL     1      89.588  98.497  71.007  1.00  0.00     0.100 C 
BRANCH   2   3
ATOM      3  C   UNL     1      90.740  99.480  71.126  1.00  0.00     0.220 C 
ATOM      4  O   UNL     1      91.206 100.091  70.168  1.00  0.00    -0.275 OA
ATOM      5  N   UNL     1      91.189  99.583  72.434  1.00  0.00    -0.352 N 
ATOM      6  H   UNL     1      90.747  99.027  73.162  1.00  0.00     0.163 HD
BRANCH   5   7
ATOM      7  C   UNL     1      92.283 100.444  72.821  1.00  0.00     0.151 C 
BRANCH   7   8
ATOM      8  C   UNL     1      93.278  99.731  73.689  1.00  0.00    -0.025 A 
ATOM      9  C   UNL     1      94.618  99.706  73.321  1.00  0.00     0.056 A 
ATOM     10  C   UNL     1      92.850  99.102  74.852  1.00  0.00     0.009 A 
ATOM     11  C   UNL     1      95.543  99.043  74.128  1.00  0.00     0.160 A 
ATOM     12  C   UNL     1      93.775  98.438  75.658  1.00  0.00     0.050 A 
ATOM     13  C   UNL     1      95.122  98.409  75.296  1.00  0.00     0.157 A 
BRANCH  11  14
ATOM     14  O   UNL     1      96.856  99.020  73.763  1.00  0.00    -0.493 OA
ATOM     15  C   UNL     1      97.560 100.261  73.799  1.00  0.00     0.278 C 
ENDBRANCH  11  14
BRANCH  13  16
ATOM     16  O   UNL     1      96.015  97.758  76.092  1.00  0.00    -0.504 OA
ATOM     17  H   UNL     1      96.579  97.192  75.538  1.00  0.00     0.293 HD
ENDBRANCH  13  16
ENDBRANCH   7   8
ENDBRANCH   5   7
ENDBRANCH   2   3
ENDBRANCH   1   2
BRANCH   1  18
ATOM     18  C   UNL     1      88.910  97.175  68.925  1.00  0.00     0.001 C 
BRANCH  18  19
ATOM     19  C   UNL     1      88.966  98.259  67.843  1.00  0.00     0.000 C 
BRANCH  19  20
ATOM     20  C   UNL     1      88.005  99.423  68.102  1.00  0.00     0.000 C 
BRANCH  20  21
ATOM     21  C   UNL     1      88.624 100.798  67.827  1.00  0.00     0.000 C 
BRANCH  21  22
ATOM     22  C   UNL     1      89.985 100.720  67.127  1.00  0.00     0.003 C 
BRANCH  22  23
ATOM     23  C   UNL     1      90.751 102.058  67.124  1.00  0.00    -0.017 C 
ATOM     24  C   UNL     1      89.760 103.221  67.214  1.00  0.00     0.007 C 
ATOM     25  C   UNL     1      91.631 102.227  65.884  1.00  0.00     0.007 C 
ENDBRANCH  22  23
ENDBRANCH  21  22
ENDBRANCH  20  21
ENDBRANCH  19  20
ENDBRANCH  18  19
ENDBRANCH   1  18
TORSDOF 12
ENDMDL
MODEL 7
REMARK VINA RESULT:    -5.195     20.998     24.019
REMARK INTER + INTRA:         -10.400
REMARK INTER:                  -8.947
REMARK INTRA:                  -1.453
REMARK UNBOUND:                -1.712
REMARK SMILES COc1cc(CNC(=O)CCCCCCCC(C)C)ccc1O
REMARK SMILES IDX 11 1 10 2 8 3 9 4 7 5 6 7 5 8 4 9 20 10 3 11 21 12 22 13
REMARK SMILES IDX 2 14 1 15 23 16 12 18 13 19 14 20 15 21 16 22 17 23 18 24
REMARK SMILES IDX 19 25
REMARK H PARENT 7 6 23 17
REMARK Flexibility Score: inf
ROOT
ATOM      1  C   UNL     1      99.277  82.415  75.995  1.00  0.00     0.010 C 
ENDROOT
BRANCH   1   2
ATOM      2  C   UNL     1      97.842  82.935  76.064  1.00  0.00     0.100 C 
BRANCH   2   3
ATOM      3  C   UNL     1      97.602  83.810  77.283  1.00  0.00     0.220 C 
ATOM      4  O   UNL     1      97.461  85.028  77.221  1.00  0.00    -0.275 OA
ATOM      5  N   UNL     1      97.573  83.062  78.450  1.00  0.00    -0.352 N 
ATOM      6  H   UNL     1      97.712  82.056  78.405  1.00  0.00     0.163 HD
BRANCH   5   7
ATOM      7  C   UNL     1      97.369  83.650  79.754  1.00  0.00     0.151 C 
BRANCH   7   8
ATOM      8  C   UNL     1      98.317  83.093  80.776  1.00  0.00    -0.025 A 
ATOM      9  C   UNL     1      97.989  83.158  82.125  1.00  0.00     0.056 A 
ATOM     10  C   UNL     1      99.512  82.519  80.363  1.00  0.00     0.009 A 
ATOM     11  C   UNL     1      98.870  82.641  83.074  1.00  0.00     0.160 A 
ATOM     12  C   UNL     1     100.394  82.002  81.313  1.00  0.00     0.050 A 
ATOM     13  C   UNL     1     100.073  82.063  82.669  1.00  0.00     0.157 A 
BRANCH  11  14
ATOM     14  O   UNL     1      98.545  82.707  84.396  1.00  0.00    -0.493 OA
ATOM     15  C   UNL     1      97.404  81.964  84.821  1.00  0.00     0.278 C 
ENDBRANCH  11  14
BRANCH  13  16
ATOM     16  O   UNL     1     100.941  81.554  83.587  1.00  0.00    -0.504 OA
ATOM     17  H   UNL     1     100.807  82.009  84.436  1.00  0.00     0.293 HD
ENDBRANCH  13  16
ENDBRANCH   7   8
ENDBRANCH   5   7
ENDBRANCH   2   3
ENDBRANCH   1   2
BRANCH   1  18
ATOM     18  C   UNL     1     100.315  83.518  75.769  1.00  0.00     0.001 C 
BRANCH  18  19
ATOM     19  C   UNL     1     101.423  83.613  76.823  1.00  0.00     0.000 C 
BRANCH  19  20
ATOM     20  C   UNL     1     102.824  83.742  76.219  1.00  0.00     0.000 C 
BRANCH  20  21
ATOM     21  C   UNL     1     103.525  82.395  76.013  1.00  0.00     0.000 C 
BRANCH  21  22
ATOM     22  C   UNL     1     103.332  81.426  77.184  1.00  0.00     0.003 C 
BRANCH  22  23
ATOM     23  C   UNL     1     104.199  81.766  78.412  1.00  0.00    -0.017 C 
ATOM     24  C   UNL     1     105.603  81.182  78.232  1.00  0.00     0.007 C 
ATOM     25  C   UNL     1     103.593  81.252  79.719  1.00  0.00     0.007 C 
ENDBRANCH  22  23
ENDBRANCH  21  22
ENDBRANCH  20  21
ENDBRANCH  19  20
ENDBRANCH  18  19
ENDBRANCH   1  18
TORSDOF 12
ENDMDL
MODEL 8
REMARK VINA RESULT:    -5.120     29.994     32.143
REMARK INTER + INTRA:         -10.274
REMARK INTER:                  -8.150
REMARK INTRA:                  -2.124
REMARK UNBOUND:                -1.712
REMARK SMILES COc1cc(CNC(=O)CCCCCCCC(C)C)ccc1O
REMARK SMILES IDX 11 1 10 2 8 3 9 4 7 5 6 7 5 8 4 9 20 10 3 11 21 12 22 13
REMARK SMILES IDX 2 14 1 15 23 16 12 18 13 19 14 20 15 21 16 22 17 23 18 24
REMARK SMILES IDX 19 25
REMARK H PARENT 7 6 23 17
REMARK Flexibility Score: inf
ROOT
ATOM      1  C   UNL     1      60.540  85.738  73.408  1.00  0.00     0.010 C 
ENDROOT
BRANCH   1   2
ATOM      2  C   UNL     1      60.745  85.073  74.767  1.00  0.00     0.100 C 
BRANCH   2   3
ATOM      3  C   UNL     1      61.725  83.912  74.701  1.00  0.00     0.220 C 
ATOM      4  O   UNL     1      61.499  82.811  75.194  1.00  0.00    -0.275 OA
ATOM      5  N   UNL     1      62.886  84.264  74.029  1.00  0.00    -0.352 N 
ATOM      6  H   UNL     1      62.989  85.206  73.663  1.00  0.00     0.163 HD
BRANCH   5   7
ATOM      7  C   UNL     1      63.985  83.346  73.832  1.00  0.00     0.151 C 
BRANCH   7   8
ATOM      8  C   UNL     1      64.202  83.034  72.380  1.00  0.00    -0.025 A 
ATOM      9  C   UNL     1      65.209  83.688  71.680  1.00  0.00     0.056 A 
ATOM     10  C   UNL     1      63.395  82.095  71.751  1.00  0.00     0.009 A 
ATOM     11  C   UNL     1      65.411  83.398  70.330  1.00  0.00     0.160 A 
ATOM     12  C   UNL     1      63.596  81.806  70.401  1.00  0.00     0.050 A 
ATOM     13  C   UNL     1      64.604  82.457  69.690  1.00  0.00     0.157 A 
BRANCH  11  14
ATOM     14  O   UNL     1      66.398  84.042  69.647  1.00  0.00    -0.493 OA
ATOM     15  C   UNL     1      66.753  85.348  70.098  1.00  0.00     0.278 C 
ENDBRANCH  11  14
BRANCH  13  16
ATOM     16  O   UNL     1      64.792  82.165  68.374  1.00  0.00    -0.504 OA
ATOM     17  H   UNL     1      65.227  82.920  67.941  1.00  0.00     0.293 HD
ENDBRANCH  13  16
ENDBRANCH   7   8
ENDBRANCH   5   7
ENDBRANCH   2   3
ENDBRANCH   1   2
BRANCH   1  18
ATOM     18  C   UNL     1      59.110  86.238  73.183  1.00  0.00     0.001 C 
BRANCH  18  19
ATOM     19  C   UNL     1      58.482  85.869  71.835  1.00  0.00     0.000 C 
BRANCH  19  20
ATOM     20  C   UNL     1      58.975  84.528  71.285  1.00  0.00     0.000 C 
BRANCH  20  21
ATOM     21  C   UNL     1      59.691  84.648  69.935  1.00  0.00     0.000 C 
BRANCH  21  22
ATOM     22  C   UNL     1      61.209  84.472  70.035  1.00  0.00     0.003 C 
BRANCH  22  23
ATOM     23  C   UNL     1      62.001  85.743  69.670  1.00  0.00    -0.017 C 
ATOM     24  C   UNL     1      61.032  86.860  69.274  1.00  0.00     0.007 C 
ATOM     25  C   UNL     1      63.002  85.506  68.539  1.00  0.00     0.007 C 
ENDBRANCH  22  23
ENDBRANCH  21  22
ENDBRANCH  20  21
ENDBRANCH  19  20
ENDBRANCH  18  19
ENDBRANCH   1  18
TORSDOF 12
ENDMDL
MODEL 9
REMARK VINA RESULT:    -5.034     20.286     22.854
REMARK INTER + INTRA:         -10.130
REMARK INTER:                  -8.824
REMARK INTRA:                  -1.306
REMARK UNBOUND:                -1.712
REMARK SMILES COc1cc(CNC(=O)CCCCCCCC(C)C)ccc1O
REMARK SMILES IDX 11 1 10 2 8 3 9 4 7 5 6 7 5 8 4 9 20 10 3 11 21 12 22 13
REMARK SMILES IDX 2 14 1 15 23 16 12 18 13 19 14 20 15 21 16 22 17 23 18 24
REMARK SMILES IDX 19 25
REMARK H PARENT 7 6 23 17
REMARK Flexibility Score: inf
ROOT
ATOM      1  C   UNL     1      99.329  82.504  76.051  1.00  0.00     0.010 C 
ENDROOT
BRANCH   1   2
ATOM      2  C   UNL     1      97.887  83.008  76.078  1.00  0.00     0.100 C 
BRANCH   2   3
ATOM      3  C   UNL     1      97.596  83.863  77.300  1.00  0.00     0.220 C 
ATOM      4  O   UNL     1      97.437  85.079  77.248  1.00  0.00    -0.275 OA
ATOM      5  N   UNL     1      97.543  83.099  78.456  1.00  0.00    -0.352 N 
ATOM      6  H   UNL     1      97.699  82.096  78.402  1.00  0.00     0.163 HD
BRANCH   5   7
ATOM      7  C   UNL     1      97.290  83.667  79.760  1.00  0.00     0.151 C 
BRANCH   7   8
ATOM      8  C   UNL     1      98.238  83.139  80.796  1.00  0.00    -0.025 A 
ATOM      9  C   UNL     1      97.880  83.176  82.139  1.00  0.00     0.056 A 
ATOM     10  C   UNL     1      99.466  82.620  80.403  1.00  0.00     0.009 A 
ATOM     11  C   UNL     1      98.762  82.686  83.102  1.00  0.00     0.160 A 
ATOM     12  C   UNL     1     100.348  82.130  81.367  1.00  0.00     0.050 A 
ATOM     13  C   UNL     1      99.997  82.163  82.716  1.00  0.00     0.157 A 
BRANCH  11  14
ATOM     14  O   UNL     1      98.408  82.724  84.417  1.00  0.00    -0.493 OA
ATOM     15  C   UNL     1      97.834  83.938  84.898  1.00  0.00     0.278 C 
ENDBRANCH  11  14
BRANCH  13  16
ATOM     16  O   UNL     1     100.866  81.681  83.647  1.00  0.00    -0.504 OA
ATOM     17  H   UNL     1     100.695  82.121  84.498  1.00  0.00     0.293 HD
ENDBRANCH  13  16
ENDBRANCH   7   8
ENDBRANCH   5   7
ENDBRANCH   2   3
ENDBRANCH   1   2
BRANCH   1  18
ATOM     18  C   UNL     1     100.368  83.628  76.063  1.00  0.00     0.001 C 
BRANCH  18  19
ATOM     19  C   UNL     1     101.739  83.259  76.640  1.00  0.00     0.000 C 
BRANCH  19  20
ATOM     20  C   UNL     1     102.856  83.261  75.594  1.00  0.00     0.000 C 
BRANCH  20  21
ATOM     21  C   UNL     1     102.387  82.830  74.199  1.00  0.00     0.000 C 
BRANCH  21  22
ATOM     22  C   UNL     1     102.681  83.870  73.113  1.00  0.00     0.003 C 
BRANCH  22  23
ATOM     23  C   UNL     1     102.610  85.324  73.619  1.00  0.00    -0.017 C 
ATOM     24  C   UNL     1     101.233  85.914  73.307  1.00  0.00     0.007 C 
ATOM     25  C   UNL     1     103.698  86.210  73.011  1.00  0.00     0.007 C 
ENDBRANCH  22  23
ENDBRANCH  21  22
ENDBRANCH  20  21
ENDBRANCH  19  20
ENDBRANCH  18  19
ENDBRANCH   1  18
TORSDOF 12
ENDMDL
MODEL 10
REMARK VINA RESULT:    -4.950     40.705     43.258
REMARK INTER + INTRA:          -9.990
REMARK INTER:                  -8.409
REMARK INTRA:                  -1.582
REMARK UNBOUND:                -1.712
REMARK SMILES COc1cc(CNC(=O)CCCCCCCC(C)C)ccc1O
REMARK SMILES IDX 11 1 10 2 8 3 9 4 7 5 6 7 5 8 4 9 20 10 3 11 21 12 22 13
REMARK SMILES IDX 2 14 1 15 23 16 12 18 13 19 14 20 15 21 16 22 17 23 18 24
REMARK SMILES IDX 19 25
REMARK H PARENT 7 6 23 17
REMARK Flexibility Score: inf
ROOT
ATOM      1  C   UNL     1      66.026  66.241  78.712  1.00  0.00     0.010 C 
ENDROOT
BRANCH   1   2
ATOM      2  C   UNL     1      65.472  66.495  80.112  1.00  0.00     0.100 C 
BRANCH   2   3
ATOM      3  C   UNL     1      65.582  67.954  80.523  1.00  0.00     0.220 C 
ATOM      4  O   UNL     1      66.102  68.321  81.573  1.00  0.00    -0.275 OA
ATOM      5  N   UNL     1      65.019  68.794  79.574  1.00  0.00    -0.352 N 
ATOM      6  H   UNL     1      64.599  68.397  78.737  1.00  0.00     0.163 HD
BRANCH   5   7
ATOM      7  C   UNL     1      64.983  70.231  79.723  1.00  0.00     0.151 C 
BRANCH   7   8
ATOM      8  C   UNL     1      63.750  70.689  80.446  1.00  0.00    -0.025 A 
ATOM      9  C   UNL     1      63.846  71.115  81.766  1.00  0.00     0.056 A 
ATOM     10  C   UNL     1      62.526  70.683  79.789  1.00  0.00     0.009 A 
ATOM     11  C   UNL     1      62.700  71.540  82.438  1.00  0.00     0.160 A 
ATOM     12  C   UNL     1      61.380  71.108  80.462  1.00  0.00     0.050 A 
ATOM     13  C   UNL     1      61.466  71.537  81.786  1.00  0.00     0.157 A 
BRANCH  11  14
ATOM     14  O   UNL     1      62.798  71.957  83.732  1.00  0.00    -0.493 OA
ATOM     15  C   UNL     1      63.358  73.250  83.956  1.00  0.00     0.278 C 
ENDBRANCH  11  14
BRANCH  13  16
ATOM     16  O   UNL     1      60.341  71.951  82.432  1.00  0.00    -0.504 OA
ATOM     17  H   UNL     1      59.686  71.232  82.419  1.00  0.00     0.293 HD
ENDBRANCH  13  16
ENDBRANCH   7   8
ENDBRANCH   5   7
ENDBRANCH   2   3
ENDBRANCH   1   2
BRANCH   1  18
ATOM     18  C   UNL     1      65.911  64.781  78.265  1.00  0.00     0.001 C 
BRANCH  18  19
ATOM     19  C   UNL     1      64.516  64.330  77.822  1.00  0.00     0.000 C 
BRANCH  19  20
ATOM     20  C   UNL     1      63.858  63.351  78.799  1.00  0.00     0.000 C 
BRANCH  20  21
ATOM     21  C   UNL     1      62.891  64.025  79.779  1.00  0.00     0.000 C 
BRANCH  21  22
ATOM     22  C   UNL     1      62.126  65.202  79.164  1.00  0.00     0.003 C 
BRANCH  22  23
ATOM     23  C   UNL     1      61.145  65.875  80.143  1.00  0.00    -0.017 C 
ATOM     24  C   UNL     1      61.905  66.837  81.058  1.00  0.00     0.007 C 
ATOM     25  C   UNL     1      60.374  64.861  80.990  1.00  0.00     0.007 C 
ENDBRANCH  22  23
ENDBRANCH  21  22
ENDBRANCH  20  21
ENDBRANCH  19  20
ENDBRANCH  18  19
ENDBRANCH   1  18
TORSDOF 12
ENDMDL
