MODEL 1
REMARK VINA RESULT:    -6.654      0.000      0.000
REMARK INTER + INTRA:         -11.732
REMARK INTER:                 -11.127
REMARK INTRA:                  -0.604
REMARK UNBOUND:                -0.604
REMARK SMILES COc1cc(CNC(=O)CCCCCCCC(C)C)ccc1O
REMARK SMILES IDX 11 1 10 2 8 3 9 4 7 5 6 7 5 8 4 9 20 10 3 11 21 12 22 13
REMARK SMILES IDX 2 14 1 15 23 16 12 18 13 19 14 20 15 21 16 22 17 23 18 24
REMARK SMILES IDX 19 25
REMARK H PARENT 7 6 23 17
REMARK Flexibility Score: inf
ROOT
ATOM      1  C   UNL     1      95.302  79.825  84.302  1.00  0.00     0.010 C 
ENDROOT
BRANCH   1   2
ATOM      2  C   UNL     1      93.811  79.495  84.316  1.00  0.00     0.100 C 
BRANCH   2   3
ATOM      3  C   UNL     1      93.029  80.389  85.264  1.00  0.00     0.220 C 
ATOM      4  O   UNL     1      93.432  80.703  86.380  1.00  0.00    -0.275 OA
ATOM      5  N   UNL     1      91.822  80.786  84.709  1.00  0.00    -0.352 N 
ATOM      6  H   UNL     1      91.567  80.466  83.779  1.00  0.00     0.163 HD
BRANCH   5   7
ATOM      7  C   UNL     1      90.882  81.635  85.405  1.00  0.00     0.151 C 
BRANCH   7   8
ATOM      8  C   UNL     1      89.522  81.605  84.770  1.00  0.00    -0.025 A 
ATOM      9  C   UNL     1      88.673  82.696  84.912  1.00  0.00     0.056 A 
ATOM     10  C   UNL     1      89.126  80.487  84.046  1.00  0.00     0.009 A 
ATOM     11  C   UNL     1      87.409  82.668  84.322  1.00  0.00     0.160 A 
ATOM     12  C   UNL     1      87.862  80.459  83.456  1.00  0.00     0.050 A 
ATOM     13  C   UNL     1      87.003  81.549  83.594  1.00  0.00     0.157 A 
BRANCH  11  14
ATOM     14  O   UNL     1      86.579  83.739  84.464  1.00  0.00    -0.493 OA
ATOM     15  C   UNL     1      86.094  84.013  85.778  1.00  0.00     0.278 C 
ENDBRANCH  11  14
BRANCH  13  16
ATOM     16  O   UNL     1      85.772  81.510  83.012  1.00  0.00    -0.504 OA
ATOM     17  H   UNL     1      85.591  80.602  82.716  1.00  0.00     0.293 HD
ENDBRANCH  13  16
ENDBRANCH   7   8
ENDBRANCH   5   7
ENDBRANCH   2   3
ENDBRANCH   1   2
BRANCH   1  18
ATOM     18  C   UNL     1      95.623  81.170  83.645  1.00  0.00     0.001 C 
BRANCH  18  19
ATOM     19  C   UNL     1      96.571  81.113  82.443  1.00  0.00     0.000 C 
BRANCH  19  20
ATOM     20  C   UNL     1      96.812  82.480  81.797  1.00  0.00     0.000 C 
BRANCH  20  21
ATOM     21  C   UNL     1      97.923  82.469  80.741  1.00  0.00     0.000 C 
BRANCH  21  22
ATOM     22  C   UNL     1      97.448  81.984  79.367  1.00  0.00     0.003 C 
BRANCH  22  23
ATOM     23  C   UNL     1      97.636  83.028  78.249  1.00  0.00    -0.017 C 
ATOM     24  C   UNL     1      96.321  83.773  78.010  1.00  0.00     0.007 C 
ATOM     25  C   UNL     1      98.117  82.402  76.938  1.00  0.00     0.007 C 
ENDBRANCH  22  23
ENDBRANCH  21  22
ENDBRANCH  20  21
ENDBRANCH  19  20
ENDBRANCH  18  19
ENDBRANCH   1  18
TORSDOF 12
ENDMDL
MODEL 2
REMARK VINA RESULT:    -6.410      2.194      3.646
REMARK INTER + INTRA:         -11.323
REMARK INTER:                 -10.490
REMARK INTRA:                  -0.833
REMARK UNBOUND:                -0.604
REMARK SMILES COc1cc(CNC(=O)CCCCCCCC(C)C)ccc1O
REMARK SMILES IDX 11 1 10 2 8 3 9 4 7 5 6 7 5 8 4 9 20 10 3 11 21 12 22 13
REMARK SMILES IDX 2 14 1 15 23 16 12 18 13 19 14 20 15 21 16 22 17 23 18 24
REMARK SMILES IDX 19 25
REMARK H PARENT 7 6 23 17
REMARK Flexibility Score: inf
ROOT
ATOM      1  C   UNL     1      96.454  82.012  81.993  1.00  0.00     0.010 C 
ENDROOT
BRANCH   1   2
ATOM      2  C   UNL     1      96.699  83.175  82.953  1.00  0.00     0.100 C 
BRANCH   2   3
ATOM      3  C   UNL     1      95.812  83.104  84.185  1.00  0.00     0.220 C 
ATOM      4  O   UNL     1      96.252  83.005  85.327  1.00  0.00    -0.275 OA
ATOM      5  N   UNL     1      94.467  83.158  83.849  1.00  0.00    -0.352 N 
ATOM      6  H   UNL     1      94.196  83.229  82.872  1.00  0.00     0.163 HD
BRANCH   5   7
ATOM      7  C   UNL     1      93.411  83.101  84.833  1.00  0.00     0.151 C 
BRANCH   7   8
ATOM      8  C   UNL     1      92.531  81.900  84.643  1.00  0.00    -0.025 A 
ATOM      9  C   UNL     1      91.188  82.074  84.329  1.00  0.00     0.056 A 
ATOM     10  C   UNL     1      93.068  80.627  84.784  1.00  0.00     0.009 A 
ATOM     11  C   UNL     1      90.371  80.958  84.153  1.00  0.00     0.160 A 
ATOM     12  C   UNL     1      92.249  79.510  84.608  1.00  0.00     0.050 A 
ATOM     13  C   UNL     1      90.901  79.675  84.293  1.00  0.00     0.157 A 
BRANCH  11  14
ATOM     14  O   UNL     1      89.055  81.133  83.846  1.00  0.00    -0.493 OA
ATOM     15  C   UNL     1      88.227  81.719  84.850  1.00  0.00     0.278 C 
ENDBRANCH  11  14
BRANCH  13  16
ATOM     16  O   UNL     1      90.113  78.578  84.123  1.00  0.00    -0.504 OA
ATOM     17  H   UNL     1      90.352  78.143  83.286  1.00  0.00     0.293 HD
ENDBRANCH  13  16
ENDBRANCH   7   8
ENDBRANCH   5   7
ENDBRANCH   2   3
ENDBRANCH   1   2
BRANCH   1  18
ATOM     18  C   UNL     1      97.607  81.776  81.014  1.00  0.00     0.001 C 
BRANCH  18  19
ATOM     19  C   UNL     1      97.985  82.971  80.133  1.00  0.00     0.000 C 
BRANCH  19  20
ATOM     20  C   UNL     1      96.814  83.507  79.306  1.00  0.00     0.000 C 
BRANCH  20  21
ATOM     21  C   UNL     1      96.733  82.903  77.900  1.00  0.00     0.000 C 
BRANCH  21  22
ATOM     22  C   UNL     1      96.727  83.956  76.786  1.00  0.00     0.003 C 
BRANCH  22  23
ATOM     23  C   UNL     1      97.632  83.592  75.592  1.00  0.00    -0.017 C 
ATOM     24  C   UNL     1      99.089  83.513  76.053  1.00  0.00     0.007 C 
ATOM     25  C   UNL     1      97.510  84.590  74.440  1.00  0.00     0.007 C 
ENDBRANCH  22  23
ENDBRANCH  21  22
ENDBRANCH  20  21
ENDBRANCH  19  20
ENDBRANCH  18  19
ENDBRANCH   1  18
TORSDOF 12
ENDMDL
MODEL 3
REMARK VINA RESULT:    -6.160      5.618     10.063
REMARK INTER + INTRA:         -10.906
REMARK INTER:                  -9.472
REMARK INTRA:                  -1.433
REMARK UNBOUND:                -0.604
REMARK SMILES COc1cc(CNC(=O)CCCCCCCC(C)C)ccc1O
REMARK SMILES IDX 11 1 10 2 8 3 9 4 7 5 6 7 5 8 4 9 20 10 3 11 21 12 22 13
REMARK SMILES IDX 2 14 1 15 23 16 12 18 13 19 14 20 15 21 16 22 17 23 18 24
REMARK SMILES IDX 19 25
REMARK H PARENT 7 6 23 17
REMARK Flexibility Score: inf
ROOT
ATOM      1  C   UNL     1      97.047  80.286  81.251  1.00  0.00     0.010 C 
ENDROOT
BRANCH   1   2
ATOM      2  C   UNL     1      98.390  79.613  80.972  1.00  0.00     0.100 C 
BRANCH   2   3
ATOM      3  C   UNL     1      99.361  80.537  80.255  1.00  0.00     0.220 C 
ATOM      4  O   UNL     1     100.468  80.828  80.701  1.00  0.00    -0.275 OA
ATOM      5  N   UNL     1      98.835  81.001  79.059  1.00  0.00    -0.352 N 
ATOM      6  H   UNL     1      97.902  80.714  78.776  1.00  0.00     0.163 HD
BRANCH   5   7
ATOM      7  C   UNL     1      99.551  81.902  78.186  1.00  0.00     0.151 C 
BRANCH   7   8
ATOM      8  C   UNL     1      98.620  82.766  77.386  1.00  0.00    -0.025 A 
ATOM      9  C   UNL     1      98.997  83.193  76.118  1.00  0.00     0.056 A 
ATOM     10  C   UNL     1      97.391  83.131  77.921  1.00  0.00     0.009 A 
ATOM     11  C   UNL     1      98.132  83.996  75.375  1.00  0.00     0.160 A 
ATOM     12  C   UNL     1      96.526  83.934  77.177  1.00  0.00     0.050 A 
ATOM     13  C   UNL     1      96.896  84.367  75.904  1.00  0.00     0.157 A 
BRANCH  11  14
ATOM     14  O   UNL     1      98.506  84.413  74.132  1.00  0.00    -0.493 OA
ATOM     15  C   UNL     1      99.415  83.579  73.415  1.00  0.00     0.278 C 
ENDBRANCH  11  14
BRANCH  13  16
ATOM     16  O   UNL     1      96.043  85.150  75.188  1.00  0.00    -0.504 OA
ATOM     17  H   UNL     1      96.412  85.291  74.299  1.00  0.00     0.293 HD
ENDBRANCH  13  16
ENDBRANCH   7   8
ENDBRANCH   5   7
ENDBRANCH   2   3
ENDBRANCH   1   2
BRANCH   1  18
ATOM     18  C   UNL     1      97.136  81.427  82.268  1.00  0.00     0.001 C 
BRANCH  18  19
ATOM     19  C   UNL     1      96.880  82.832  81.714  1.00  0.00     0.000 C 
BRANCH  19  20
ATOM     20  C   UNL     1      95.939  83.665  82.588  1.00  0.00     0.000 C 
BRANCH  20  21
ATOM     21  C   UNL     1      96.294  83.624  84.078  1.00  0.00     0.000 C 
BRANCH  21  22
ATOM     22  C   UNL     1      95.132  83.166  84.966  1.00  0.00     0.003 C 
BRANCH  22  23
ATOM     23  C   UNL     1      94.109  82.280  84.230  1.00  0.00    -0.017 C 
ATOM     24  C   UNL     1      92.691  82.654  84.667  1.00  0.00     0.007 C 
ATOM     25  C   UNL     1      94.344  80.788  84.471  1.00  0.00     0.007 C 
ENDBRANCH  22  23
ENDBRANCH  21  22
ENDBRANCH  20  21
ENDBRANCH  19  20
ENDBRANCH  18  19
ENDBRANCH   1  18
TORSDOF 12
ENDMDL
MODEL 4
REMARK VINA RESULT:    -6.029     11.831     13.983
REMARK INTER + INTRA:         -10.687
REMARK INTER:                  -8.494
REMARK INTRA:                  -2.193
REMARK UNBOUND:                -0.604
REMARK SMILES COc1cc(CNC(=O)CCCCCCCC(C)C)ccc1O
REMARK SMILES IDX 11 1 10 2 8 3 9 4 7 5 6 7 5 8 4 9 20 10 3 11 21 12 22 13
REMARK SMILES IDX 2 14 1 15 23 16 12 18 13 19 14 20 15 21 16 22 17 23 18 24
REMARK SMILES IDX 19 25
REMARK H PARENT 7 6 23 17
REMARK Flexibility Score: inf
ROOT
ATOM      1  C   UNL     1      94.222  92.564  92.906  1.00  0.00     0.010 C 
ENDROOT
BRANCH   1   2
ATOM      2  C   UNL     1      92.731  92.542  93.239  1.00  0.00     0.100 C 
BRANCH   2   3
ATOM      3  C   UNL     1      91.941  91.649  92.297  1.00  0.00     0.220 C 
ATOM      4  O   UNL     1      90.715  91.582  92.301  1.00  0.00    -0.275 OA
ATOM      5  N   UNL     1      92.777  90.929  91.456  1.00  0.00    -0.352 N 
ATOM      6  H   UNL     1      93.785  91.041  91.534  1.00  0.00     0.163 HD
BRANCH   5   7
ATOM      7  C   UNL     1      92.282  89.998  90.469  1.00  0.00     0.151 C 
BRANCH   7   8
ATOM      8  C   UNL     1      93.154  89.958  89.248  1.00  0.00    -0.025 A 
ATOM      9  C   UNL     1      93.457  88.737  88.658  1.00  0.00     0.056 A 
ATOM     10  C   UNL     1      93.650  91.144  88.719  1.00  0.00     0.009 A 
ATOM     11  C   UNL     1      94.268  88.700  87.523  1.00  0.00     0.160 A 
ATOM     12  C   UNL     1      94.462  91.107  87.585  1.00  0.00     0.050 A 
ATOM     13  C   UNL     1      94.771  89.886  86.987  1.00  0.00     0.157 A 
BRANCH  11  14
ATOM     14  O   UNL     1      94.563  87.501  86.948  1.00  0.00    -0.493 OA
ATOM     15  C   UNL     1      93.668  86.421  87.207  1.00  0.00     0.278 C 
ENDBRANCH  11  14
BRANCH  13  16
ATOM     16  O   UNL     1      95.563  89.863  85.879  1.00  0.00    -0.504 OA
ATOM     17  H   UNL     1      95.035  90.133  85.107  1.00  0.00     0.293 HD
ENDBRANCH  13  16
ENDBRANCH   7   8
ENDBRANCH   5   7
ENDBRANCH   2   3
ENDBRANCH   1   2
BRANCH   1  18
ATOM     18  C   UNL     1      94.854  93.953  93.030  1.00  0.00     0.001 C 
BRANCH  18  19
ATOM     19  C   UNL     1      95.756  94.378  91.867  1.00  0.00     0.000 C 
BRANCH  19  20
ATOM     20  C   UNL     1      95.356  93.750  90.530  1.00  0.00     0.000 C 
BRANCH  20  21
ATOM     21  C   UNL     1      94.441  94.644  89.685  1.00  0.00     0.000 C 
BRANCH  21  22
ATOM     22  C   UNL     1      92.951  94.423  89.965  1.00  0.00     0.003 C 
BRANCH  22  23
ATOM     23  C   UNL     1      92.198  95.715  90.338  1.00  0.00    -0.017 C 
ATOM     24  C   UNL     1      93.201  96.844  90.590  1.00  0.00     0.007 C 
ATOM     25  C   UNL     1      91.304  95.539  91.567  1.00  0.00     0.007 C 
ENDBRANCH  22  23
ENDBRANCH  21  22
ENDBRANCH  20  21
ENDBRANCH  19  20
ENDBRANCH  18  19
ENDBRANCH   1  18
TORSDOF 12
ENDMDL
MODEL 5
REMARK VINA RESULT:    -6.018      2.456      3.457
REMARK INTER + INTRA:         -10.667
REMARK INTER:                 -10.046
REMARK INTRA:                  -0.621
REMARK UNBOUND:                -0.604
REMARK SMILES COc1cc(CNC(=O)CCCCCCCC(C)C)ccc1O
REMARK SMILES IDX 11 1 10 2 8 3 9 4 7 5 6 7 5 8 4 9 20 10 3 11 21 12 22 13
REMARK SMILES IDX 2 14 1 15 23 16 12 18 13 19 14 20 15 21 16 22 17 23 18 24
REMARK SMILES IDX 19 25
REMARK H PARENT 7 6 23 17
REMARK Flexibility Score: inf
ROOT
ATOM      1  C   UNL     1      95.959  82.059  84.684  1.00  0.00     0.010 C 
ENDROOT
BRANCH   1   2
ATOM      2  C   UNL     1      94.766  82.555  83.870  1.00  0.00     0.100 C 
BRANCH   2   3
ATOM      3  C   UNL     1      93.512  82.706  84.715  1.00  0.00     0.220 C 
ATOM      4  O   UNL     1      93.509  83.218  85.831  1.00  0.00    -0.275 OA
ATOM      5  N   UNL     1      92.397  82.191  84.070  1.00  0.00    -0.352 N 
ATOM      6  H   UNL     1      92.498  81.775  83.149  1.00  0.00     0.163 HD
BRANCH   5   7
ATOM      7  C   UNL     1      91.077  82.201  84.658  1.00  0.00     0.151 C 
BRANCH   7   8
ATOM      8  C   UNL     1      90.361  80.898  84.452  1.00  0.00    -0.025 A 
ATOM      9  C   UNL     1      91.081  79.710  84.453  1.00  0.00     0.056 A 
ATOM     10  C   UNL     1      88.984  80.894  84.261  1.00  0.00     0.009 A 
ATOM     11  C   UNL     1      90.415  78.499  84.260  1.00  0.00     0.160 A 
ATOM     12  C   UNL     1      88.318  79.683  84.068  1.00  0.00     0.050 A 
ATOM     13  C   UNL     1      89.033  78.486  84.068  1.00  0.00     0.157 A 
BRANCH  11  14
ATOM     14  O   UNL     1      91.124  77.336  84.261  1.00  0.00    -0.493 OA
ATOM     15  C   UNL     1      92.545  77.444  84.338  1.00  0.00     0.278 C 
ENDBRANCH  11  14
BRANCH  13  16
ATOM     16  O   UNL     1      88.372  77.310  83.880  1.00  0.00    -0.504 OA
ATOM     17  H   UNL     1      88.619  76.943  83.013  1.00  0.00     0.293 HD
ENDBRANCH  13  16
ENDBRANCH   7   8
ENDBRANCH   5   7
ENDBRANCH   2   3
ENDBRANCH   1   2
BRANCH   1  18
ATOM     18  C   UNL     1      97.309  82.530  84.137  1.00  0.00     0.001 C 
BRANCH  18  19
ATOM     19  C   UNL     1      98.012  81.563  83.179  1.00  0.00     0.000 C 
BRANCH  19  20
ATOM     20  C   UNL     1      97.182  81.232  81.936  1.00  0.00     0.000 C 
BRANCH  20  21
ATOM     21  C   UNL     1      97.083  82.395  80.942  1.00  0.00     0.000 C 
BRANCH  21  22
ATOM     22  C   UNL     1      97.526  82.020  79.524  1.00  0.00     0.003 C 
BRANCH  22  23
ATOM     23  C   UNL     1      97.685  83.235  78.589  1.00  0.00    -0.017 C 
ATOM     24  C   UNL     1      96.313  83.670  78.068  1.00  0.00     0.007 C 
ATOM     25  C   UNL     1      98.615  82.949  77.410  1.00  0.00     0.007 C 
ENDBRANCH  22  23
ENDBRANCH  21  22
ENDBRANCH  20  21
ENDBRANCH  19  20
ENDBRANCH  18  19
ENDBRANCH   1  18
TORSDOF 12
ENDMDL
MODEL 6
REMARK VINA RESULT:    -5.742      3.789      5.087
REMARK INTER + INTRA:         -10.207
REMARK INTER:                  -9.220
REMARK INTRA:                  -0.987
REMARK UNBOUND:                -0.604
REMARK SMILES COc1cc(CNC(=O)CCCCCCCC(C)C)ccc1O
REMARK SMILES IDX 11 1 10 2 8 3 9 4 7 5 6 7 5 8 4 9 20 10 3 11 21 12 22 13
REMARK SMILES IDX 2 14 1 15 23 16 12 18 13 19 14 20 15 21 16 22 17 23 18 24
REMARK SMILES IDX 19 25
REMARK H PARENT 7 6 23 17
REMARK Flexibility Score: inf
ROOT
ATOM      1  C   UNL     1      96.299  82.010  82.382  1.00  0.00     0.010 C 
ENDROOT
BRANCH   1   2
ATOM      2  C   UNL     1      96.466  83.511  82.153  1.00  0.00     0.100 C 
BRANCH   2   3
ATOM      3  C   UNL     1      95.840  84.338  83.263  1.00  0.00     0.220 C 
ATOM      4  O   UNL     1      96.145  85.506  83.487  1.00  0.00    -0.275 OA
ATOM      5  N   UNL     1      94.903  83.606  83.978  1.00  0.00    -0.352 N 
ATOM      6  H   UNL     1      94.724  82.638  83.726  1.00  0.00     0.163 HD
BRANCH   5   7
ATOM      7  C   UNL     1      94.166  84.154  85.093  1.00  0.00     0.151 C 
BRANCH   7   8
ATOM      8  C   UNL     1      93.629  83.080  85.993  1.00  0.00    -0.025 A 
ATOM      9  C   UNL     1      93.056  81.941  85.439  1.00  0.00     0.056 A 
ATOM     10  C   UNL     1      93.710  83.235  87.372  1.00  0.00     0.009 A 
ATOM     11  C   UNL     1      92.557  80.943  86.276  1.00  0.00     0.160 A 
ATOM     12  C   UNL     1      93.209  82.236  88.209  1.00  0.00     0.050 A 
ATOM     13  C   UNL     1      92.633  81.090  87.661  1.00  0.00     0.157 A 
BRANCH  11  14
ATOM     14  O   UNL     1      91.995  79.828  85.729  1.00  0.00    -0.493 OA
ATOM     15  C   UNL     1      92.561  79.350  84.509  1.00  0.00     0.278 C 
ENDBRANCH  11  14
BRANCH  13  16
ATOM     16  O   UNL     1      92.150  80.123  88.488  1.00  0.00    -0.504 OA
ATOM     17  H   UNL     1      91.199  80.273  88.629  1.00  0.00     0.293 HD
ENDBRANCH  13  16
ENDBRANCH   7   8
ENDBRANCH   5   7
ENDBRANCH   2   3
ENDBRANCH   1   2
BRANCH   1  18
ATOM     18  C   UNL     1      97.080  81.150  81.384  1.00  0.00     0.001 C 
BRANCH  18  19
ATOM     19  C   UNL     1      97.962  81.918  80.393  1.00  0.00     0.000 C 
BRANCH  19  20
ATOM     20  C   UNL     1      98.521  81.037  79.272  1.00  0.00     0.000 C 
BRANCH  20  21
ATOM     21  C   UNL     1      97.788  81.211  77.937  1.00  0.00     0.000 C 
BRANCH  21  22
ATOM     22  C   UNL     1      98.060  82.563  77.268  1.00  0.00     0.003 C 
BRANCH  22  23
ATOM     23  C   UNL     1      96.777  83.340  76.912  1.00  0.00    -0.017 C 
ATOM     24  C   UNL     1      97.104  84.442  75.901  1.00  0.00     0.007 C 
ATOM     25  C   UNL     1      96.102  83.952  78.140  1.00  0.00     0.007 C 
ENDBRANCH  22  23
ENDBRANCH  21  22
ENDBRANCH  20  21
ENDBRANCH  19  20
ENDBRANCH  18  19
ENDBRANCH   1  18
TORSDOF 12
ENDMDL
MODEL 7
REMARK VINA RESULT:    -5.693     21.342     22.918
REMARK INTER + INTRA:         -10.125
REMARK INTER:                  -9.517
REMARK INTRA:                  -0.607
REMARK UNBOUND:                -0.604
REMARK SMILES COc1cc(CNC(=O)CCCCCCCC(C)C)ccc1O
REMARK SMILES IDX 11 1 10 2 8 3 9 4 7 5 6 7 5 8 4 9 20 10 3 11 21 12 22 13
REMARK SMILES IDX 2 14 1 15 23 16 12 18 13 19 14 20 15 21 16 22 17 23 18 24
REMARK SMILES IDX 19 25
REMARK H PARENT 7 6 23 17
REMARK Flexibility Score: inf
ROOT
ATOM      1  C   UNL     1      74.296  89.606  70.057  1.00  0.00     0.010 C 
ENDROOT
BRANCH   1   2
ATOM      2  C   UNL     1      74.531  91.094  70.308  1.00  0.00     0.100 C 
BRANCH   2   3
ATOM      3  C   UNL     1      73.973  91.551  71.646  1.00  0.00     0.220 C 
ATOM      4  O   UNL     1      73.089  90.948  72.248  1.00  0.00    -0.275 OA
ATOM      5  N   UNL     1      74.582  92.719  72.080  1.00  0.00    -0.352 N 
ATOM      6  H   UNL     1      75.299  93.154  71.506  1.00  0.00     0.163 HD
BRANCH   5   7
ATOM      7  C   UNL     1      74.230  93.372  73.320  1.00  0.00     0.151 C 
BRANCH   7   8
ATOM      8  C   UNL     1      75.443  93.728  74.130  1.00  0.00    -0.025 A 
ATOM      9  C   UNL     1      75.324  93.910  75.503  1.00  0.00     0.056 A 
ATOM     10  C   UNL     1      76.672  93.873  73.498  1.00  0.00     0.009 A 
ATOM     11  C   UNL     1      76.451  94.241  76.255  1.00  0.00     0.160 A 
ATOM     12  C   UNL     1      77.799  94.206  74.251  1.00  0.00     0.050 A 
ATOM     13  C   UNL     1      77.689  94.390  75.629  1.00  0.00     0.157 A 
BRANCH  11  14
ATOM     14  O   UNL     1      76.330  94.419  77.600  1.00  0.00    -0.493 OA
ATOM     15  C   UNL     1      75.331  95.334  78.046  1.00  0.00     0.278 C 
ENDBRANCH  11  14
BRANCH  13  16
ATOM     16  O   UNL     1      78.796  94.712  76.353  1.00  0.00    -0.504 OA
ATOM     17  H   UNL     1      78.631  95.543  76.831  1.00  0.00     0.293 HD
ENDBRANCH  13  16
ENDBRANCH   7   8
ENDBRANCH   5   7
ENDBRANCH   2   3
ENDBRANCH   1   2
BRANCH   1  18
ATOM     18  C   UNL     1      75.293  88.989  69.072  1.00  0.00     0.001 C 
BRANCH  18  19
ATOM     19  C   UNL     1      75.551  87.488  69.240  1.00  0.00     0.000 C 
BRANCH  19  20
ATOM     20  C   UNL     1      76.845  87.018  68.570  1.00  0.00     0.000 C 
BRANCH  20  21
ATOM     21  C   UNL     1      76.613  86.287  67.243  1.00  0.00     0.000 C 
BRANCH  21  22
ATOM     22  C   UNL     1      75.673  85.083  67.369  1.00  0.00     0.003 C 
BRANCH  22  23
ATOM     23  C   UNL     1      76.195  83.820  66.658  1.00  0.00    -0.017 C 
ATOM     24  C   UNL     1      77.689  83.973  66.360  1.00  0.00     0.007 C 
ATOM     25  C   UNL     1      75.441  83.522  65.362  1.00  0.00     0.007 C 
ENDBRANCH  22  23
ENDBRANCH  21  22
ENDBRANCH  20  21
ENDBRANCH  19  20
ENDBRANCH  18  19
ENDBRANCH   1  18
TORSDOF 12
ENDMDL
MODEL 8
REMARK VINA RESULT:    -5.474     22.686     25.617
REMARK INTER + INTRA:          -9.758
REMARK INTER:                  -8.411
REMARK INTRA:                  -1.347
REMARK UNBOUND:                -0.604
REMARK SMILES COc1cc(CNC(=O)CCCCCCCC(C)C)ccc1O
REMARK SMILES IDX 11 1 10 2 8 3 9 4 7 5 6 7 5 8 4 9 20 10 3 11 21 12 22 13
REMARK SMILES IDX 2 14 1 15 23 16 12 18 13 19 14 20 15 21 16 22 17 23 18 24
REMARK SMILES IDX 19 25
REMARK H PARENT 7 6 23 17
REMARK Flexibility Score: inf
ROOT
ATOM      1  C   UNL     1      72.904  87.069  68.472  1.00  0.00     0.010 C 
ENDROOT
BRANCH   1   2
ATOM      2  C   UNL     1      73.130  85.584  68.198  1.00  0.00     0.100 C 
BRANCH   2   3
ATOM      3  C   UNL     1      71.861  84.878  67.749  1.00  0.00     0.220 C 
ATOM      4  O   UNL     1      71.504  84.816  66.576  1.00  0.00    -0.275 OA
ATOM      5  N   UNL     1      71.173  84.334  68.824  1.00  0.00    -0.352 N 
ATOM      6  H   UNL     1      71.541  84.446  69.764  1.00  0.00     0.163 HD
BRANCH   5   7
ATOM      7  C   UNL     1      69.928  83.616  68.674  1.00  0.00     0.151 C 
BRANCH   7   8
ATOM      8  C   UNL     1      68.865  84.138  69.596  1.00  0.00    -0.025 A 
ATOM      9  C   UNL     1      67.526  83.976  69.262  1.00  0.00     0.056 A 
ATOM     10  C   UNL     1      69.230  84.778  70.773  1.00  0.00     0.009 A 
ATOM     11  C   UNL     1      66.537  84.462  70.118  1.00  0.00     0.160 A 
ATOM     12  C   UNL     1      68.242  85.265  71.630  1.00  0.00     0.050 A 
ATOM     13  C   UNL     1      66.895  85.107  71.302  1.00  0.00     0.157 A 
BRANCH  11  14
ATOM     14  O   UNL     1      65.225  84.301  69.787  1.00  0.00    -0.493 OA
ATOM     15  C   UNL     1      64.886  83.143  69.027  1.00  0.00     0.278 C 
ENDBRANCH  11  14
BRANCH  13  16
ATOM     16  O   UNL     1      65.940  85.584  72.147  1.00  0.00    -0.504 OA
ATOM     17  H   UNL     1      65.441  86.287  71.695  1.00  0.00     0.293 HD
ENDBRANCH  13  16
ENDBRANCH   7   8
ENDBRANCH   5   7
ENDBRANCH   2   3
ENDBRANCH   1   2
BRANCH   1  18
ATOM     18  C   UNL     1      74.150  87.791  68.992  1.00  0.00     0.001 C 
BRANCH  18  19
ATOM     19  C   UNL     1      75.026  88.455  67.925  1.00  0.00     0.000 C 
BRANCH  19  20
ATOM     20  C   UNL     1      76.492  88.593  68.346  1.00  0.00     0.000 C 
BRANCH  20  21
ATOM     21  C   UNL     1      77.178  87.249  68.614  1.00  0.00     0.000 C 
BRANCH  21  22
ATOM     22  C   UNL     1      77.150  86.302  67.410  1.00  0.00     0.003 C 
BRANCH  22  23
ATOM     23  C   UNL     1      77.078  84.813  67.800  1.00  0.00    -0.017 C 
ATOM     24  C   UNL     1      76.236  84.050  66.775  1.00  0.00     0.007 C 
ATOM     25  C   UNL     1      76.499  84.602  69.200  1.00  0.00     0.007 C 
ENDBRANCH  22  23
ENDBRANCH  21  22
ENDBRANCH  20  21
ENDBRANCH  19  20
ENDBRANCH  18  19
ENDBRANCH   1  18
TORSDOF 12
ENDMDL
MODEL 9
REMARK VINA RESULT:    -5.356      3.317      6.033
REMARK INTER + INTRA:          -9.560
REMARK INTER:                  -7.890
REMARK INTRA:                  -1.671
REMARK UNBOUND:                -0.604
REMARK SMILES COc1cc(CNC(=O)CCCCCCCC(C)C)ccc1O
REMARK SMILES IDX 11 1 10 2 8 3 9 4 7 5 6 7 5 8 4 9 20 10 3 11 21 12 22 13
REMARK SMILES IDX 2 14 1 15 23 16 12 18 13 19 14 20 15 21 16 22 17 23 18 24
REMARK SMILES IDX 19 25
REMARK H PARENT 7 6 23 17
REMARK Flexibility Score: inf
ROOT
ATOM      1  C   UNL     1      95.941  82.140  83.040  1.00  0.00     0.010 C 
ENDROOT
BRANCH   1   2
ATOM      2  C   UNL     1      96.738  80.888  83.400  1.00  0.00     0.100 C 
BRANCH   2   3
ATOM      3  C   UNL     1      95.843  79.715  83.763  1.00  0.00     0.220 C 
ATOM      4  O   UNL     1      96.028  78.573  83.352  1.00  0.00    -0.275 OA
ATOM      5  N   UNL     1      94.806  80.105  84.597  1.00  0.00    -0.352 N 
ATOM      6  H   UNL     1      94.726  81.079  84.878  1.00  0.00     0.163 HD
BRANCH   5   7
ATOM      7  C   UNL     1      93.804  79.185  85.085  1.00  0.00     0.151 C 
BRANCH   7   8
ATOM      8  C   UNL     1      92.421  79.584  84.662  1.00  0.00    -0.025 A 
ATOM      9  C   UNL     1      91.401  78.640  84.664  1.00  0.00     0.056 A 
ATOM     10  C   UNL     1      92.174  80.895  84.273  1.00  0.00     0.009 A 
ATOM     11  C   UNL     1      90.116  79.012  84.271  1.00  0.00     0.160 A 
ATOM     12  C   UNL     1      90.887  81.267  83.879  1.00  0.00     0.050 A 
ATOM     13  C   UNL     1      89.858  80.325  83.878  1.00  0.00     0.157 A 
BRANCH  11  14
ATOM     14  O   UNL     1      89.119  78.083  84.273  1.00  0.00    -0.493 OA
ATOM     15  C   UNL     1      89.512  76.711  84.297  1.00  0.00     0.278 C 
ENDBRANCH  11  14
BRANCH  13  16
ATOM     16  O   UNL     1      88.607  80.701  83.492  1.00  0.00    -0.504 OA
ATOM     17  H   UNL     1      88.004  80.615  84.250  1.00  0.00     0.293 HD
ENDBRANCH  13  16
ENDBRANCH   7   8
ENDBRANCH   5   7
ENDBRANCH   2   3
ENDBRANCH   1   2
BRANCH   1  18
ATOM     18  C   UNL     1      96.557  83.433  83.581  1.00  0.00     0.001 C 
BRANCH  18  19
ATOM     19  C   UNL     1      95.712  84.192  84.609  1.00  0.00     0.000 C 
BRANCH  19  20
ATOM     20  C   UNL     1      94.256  83.722  84.661  1.00  0.00     0.000 C 
BRANCH  20  21
ATOM     21  C   UNL     1      93.617  83.867  86.047  1.00  0.00     0.000 C 
BRANCH  21  22
ATOM     22  C   UNL     1      94.048  82.774  87.030  1.00  0.00     0.003 C 
BRANCH  22  23
ATOM     23  C   UNL     1      94.681  83.325  88.323  1.00  0.00    -0.017 C 
ATOM     24  C   UNL     1      95.838  82.423  88.757  1.00  0.00     0.007 C 
ATOM     25  C   UNL     1      93.671  83.451  89.464  1.00  0.00     0.007 C 
ENDBRANCH  22  23
ENDBRANCH  21  22
ENDBRANCH  20  21
ENDBRANCH  19  20
ENDBRANCH  18  19
ENDBRANCH   1  18
TORSDOF 12
ENDMDL
MODEL 10
REMARK VINA RESULT:    -5.342      7.792     10.716
REMARK INTER + INTRA:          -9.538
REMARK INTER:                  -8.220
REMARK INTRA:                  -1.318
REMARK UNBOUND:                -0.604
REMARK SMILES COc1cc(CNC(=O)CCCCCCCC(C)C)ccc1O
REMARK SMILES IDX 11 1 10 2 8 3 9 4 7 5 6 7 5 8 4 9 20 10 3 11 21 12 22 13
REMARK SMILES IDX 2 14 1 15 23 16 12 18 13 19 14 20 15 21 16 22 17 23 18 24
REMARK SMILES IDX 19 25
REMARK H PARENT 7 6 23 17
REMARK Flexibility Score: inf
ROOT
ATOM      1  C   UNL     1      98.747  85.249  73.537  1.00  0.00     0.010 C 
ENDROOT
BRANCH   1   2
ATOM      2  C   UNL     1      98.313  84.005  74.309  1.00  0.00     0.100 C 
BRANCH   2   3
ATOM      3  C   UNL     1      97.281  84.320  75.379  1.00  0.00     0.220 C 
ATOM      4  O   UNL     1      96.315  85.052  75.189  1.00  0.00    -0.275 OA
ATOM      5  N   UNL     1      97.580  83.686  76.577  1.00  0.00    -0.352 N 
ATOM      6  H   UNL     1      98.411  83.105  76.644  1.00  0.00     0.163 HD
BRANCH   5   7
ATOM      7  C   UNL     1      96.763  83.824  77.760  1.00  0.00     0.151 C 
BRANCH   7   8
ATOM      8  C   UNL     1      97.240  82.941  78.877  1.00  0.00    -0.025 A 
ATOM      9  C   UNL     1      97.813  81.710  78.584  1.00  0.00     0.056 A 
ATOM     10  C   UNL     1      97.103  83.365  80.193  1.00  0.00     0.009 A 
ATOM     11  C   UNL     1      98.256  80.890  79.622  1.00  0.00     0.160 A 
ATOM     12  C   UNL     1      97.546  82.544  81.232  1.00  0.00     0.050 A 
ATOM     13  C   UNL     1      98.122  81.307  80.946  1.00  0.00     0.157 A 
BRANCH  11  14
ATOM     14  O   UNL     1      98.816  79.683  79.330  1.00  0.00    -0.493 OA
ATOM     15  C   UNL     1      97.929  78.575  79.184  1.00  0.00     0.278 C 
ENDBRANCH  11  14
BRANCH  13  16
ATOM     16  O   UNL     1      98.551  80.516  81.968  1.00  0.00    -0.504 OA
ATOM     17  H   UNL     1      97.787  80.260  82.513  1.00  0.00     0.293 HD
ENDBRANCH  13  16
ENDBRANCH   7   8
ENDBRANCH   5   7
ENDBRANCH   2   3
ENDBRANCH   1   2
BRANCH   1  18
ATOM     18  C   UNL     1      99.707  84.947  72.383  1.00  0.00     0.001 C 
BRANCH  18  19
ATOM     19  C   UNL     1     100.510  83.648  72.509  1.00  0.00     0.000 C 
BRANCH  19  20
ATOM     20  C   UNL     1     102.025  83.870  72.495  1.00  0.00     0.000 C 
BRANCH  20  21
ATOM     21  C   UNL     1     102.667  83.784  73.884  1.00  0.00     0.000 C 
BRANCH  21  22
ATOM     22  C   UNL     1     102.483  82.419  74.553  1.00  0.00     0.003 C 
BRANCH  22  23
ATOM     23  C   UNL     1     102.135  82.512  76.052  1.00  0.00    -0.017 C 
ATOM     24  C   UNL     1     103.168  81.736  76.872  1.00  0.00     0.007 C 
ATOM     25  C   UNL     1     100.733  81.986  76.362  1.00  0.00     0.007 C 
ENDBRANCH  22  23
ENDBRANCH  21  22
ENDBRANCH  20  21
ENDBRANCH  19  20
ENDBRANCH  18  19
ENDBRANCH   1  18
TORSDOF 12
ENDMDL
