MODEL 1
REMARK VINA RESULT:    -7.058      0.000      0.000
REMARK INTER + INTRA:         -13.705
REMARK INTER:                 -12.422
REMARK INTRA:                  -1.283
REMARK UNBOUND:                -1.283
REMARK SMILES C=C(C)[C@]12C[C@@H](C)[C@@]34O[C@](Cc5ccccc5)(O[C@@H]1[C@@H]3C=C(COC(=O)Cc1ccc(O)c(OC)c1)C[C@]1(O)C(=O)C(C)=C[C@@H]41)O2
REMARK SMILES IDX 23 1 22 2 21 3 20 4 9 5 8 6 10 7 6 8 18 9 46 10 19 11 5 12
REMARK SMILES IDX 7 13 4 14 45 15 38 16 44 17 40 18 42 20 41 21 43 22 39 23
REMARK SMILES IDX 11 25 12 26 13 27 17 28 14 29 16 30 15 31 2 32 3 33 1 34
REMARK SMILES IDX 37 35 24 37 25 38 26 39 27 40 28 41 36 42 29 43 33 44 30 45
REMARK SMILES IDX 31 46 34 47 35 48 32 49
REMARK H PARENT 39 24 32 50
REMARK Flexibility Score: 90.00
ROOT
ATOM      1  C   UNL     1      65.050  87.699  74.145  1.00  0.00     0.264 C 
ENDROOT
BRANCH   1   2
ATOM      2  C   UNL     1      63.834  87.326  73.331  1.00  0.00    -0.033 C 
ATOM      3  C   UNL     1      63.829  86.163  72.649  1.00  0.00    -0.015 C 
BRANCH   3   4
ATOM      4  C   UNL     1      62.775  85.600  71.708  1.00  0.00     0.078 C 
ATOM      5  O   UNL     1      61.266  84.195  73.075  1.00  0.00    -0.319 OA
ATOM      6  C   UNL     1      61.312  85.404  72.255  1.00  0.00     0.095 C 
ATOM      7  C   UNL     1      61.976  83.062  72.542  1.00  0.00     0.289 C 
ATOM      8  C   UNL     1      60.353  85.226  71.006  1.00  0.00     0.023 C 
ATOM      9  O   UNL     1      63.350  83.371  72.319  1.00  0.00    -0.320 OA
ATOM     10  O   UNL     1      61.465  82.647  71.279  1.00  0.00    -0.313 OA
ATOM     11  C   UNL     1      63.233  84.223  71.169  1.00  0.00     0.170 C 
ATOM     12  C   UNL     1      61.074  84.495  69.832  1.00  0.00     0.049 C 
ATOM     13  C   UNL     1      59.014  84.529  71.296  1.00  0.00     0.011 C 
ATOM     14  C   UNL     1      62.132  83.515  70.340  1.00  0.00     0.122 C 
BRANCH   6  15
ATOM     15  C   UNL     1      60.929  86.552  73.233  1.00  0.00     0.086 C 
ATOM     16  C   UNL     1      61.351  87.975  72.810  1.00  0.00     0.140 CG0
ATOM     17  C   UNL     1      59.494  86.721  73.645  1.00  0.00    -0.010 C 
ATOM     18  C   UNL     1      60.220  88.824  73.349  1.00  0.00     0.190 C 
ATOM     19  G   UNL     1      62.708  88.371  73.391  1.00  0.00     0.000 G0
ATOM     20  C   UNL     1      59.072  87.986  73.746  1.00  0.00    -0.008 C 
ATOM     21  O   UNL     1      60.216  90.044  73.408  1.00  0.00    -0.291 OA
ATOM     22  C   UNL     1      57.772  88.523  74.197  1.00  0.00     0.048 C 
BRANCH  16  23
ATOM     23  O   UNL     1      61.303  88.195  71.410  1.00  0.00    -0.381 OA
ATOM     24  H   UNL     1      60.376  88.324  71.151  1.00  0.00     0.212 HD
ENDBRANCH  16  23
ENDBRANCH   6  15
BRANCH   7  25
ATOM     25  C   UNL     1      61.863  81.921  73.533  1.00  0.00     0.135 C 
BRANCH  25  26
ATOM     26  C   UNL     1      63.215  81.417  73.973  1.00  0.00    -0.040 A 
ATOM     27  C   UNL     1      63.668  81.675  75.268  1.00  0.00     0.004 A 
ATOM     28  C   UNL     1      64.012  80.693  73.087  1.00  0.00     0.004 A 
ATOM     29  C   UNL     1      64.918  81.210  75.675  1.00  0.00     0.000 A 
ATOM     30  C   UNL     1      65.263  80.227  73.495  1.00  0.00     0.000 A 
ATOM     31  C   UNL     1      65.715  80.486  74.789  1.00  0.00     0.000 A 
ENDBRANCH  25  26
ENDBRANCH   7  25
BRANCH  14  32
ATOM     32  C   UNL     1      62.707  82.673  69.247  1.00  0.00    -0.046 C 
ATOM     33  C   UNL     1      62.997  83.375  67.954  1.00  0.00     0.042 C 
ATOM     34  C   UNL     1      62.950  81.364  69.413  1.00  0.00     0.010 C 
ENDBRANCH  14  32
ENDBRANCH   3   4
BRANCH   2  35
ATOM     35  C   UNL     1      62.727  88.361  73.405  1.00  0.00     0.078 CG0
ATOM     36  G   UNL     1      61.370  87.977  72.817  1.00  0.00     0.000 G0
ENDBRANCH   2  35
ENDBRANCH   1   2
BRANCH   1  37
ATOM     37  O   UNL     1      65.539  86.553  74.808  1.00  0.00    -0.461 OA
BRANCH  37  38
ATOM     38  C   UNL     1      66.093  86.759  76.050  1.00  0.00     0.310 C 
ATOM     39  O   UNL     1      66.990  87.553  76.296  1.00  0.00    -0.252 OA
BRANCH  38  40
ATOM     40  C   UNL     1      65.424  85.854  77.057  1.00  0.00     0.158 C 
BRANCH  40  41
ATOM     41  C   UNL     1      64.655  86.612  78.109  1.00  0.00    -0.033 A 
ATOM     42  C   UNL     1      65.127  86.657  79.421  1.00  0.00     0.054 A 
ATOM     43  C   UNL     1      63.472  87.268  77.770  1.00  0.00     0.008 A 
ATOM     44  C   UNL     1      64.415  87.358  80.394  1.00  0.00     0.160 A 
ATOM     45  C   UNL     1      62.760  87.969  78.744  1.00  0.00     0.050 A 
ATOM     46  C   UNL     1      63.231  88.014  80.055  1.00  0.00     0.157 A 
BRANCH  44  47
ATOM     47  O   UNL     1      64.886  87.395  81.672  1.00  0.00    -0.493 OA
ATOM     48  C   UNL     1      66.180  87.961  81.870  1.00  0.00     0.278 C 
ENDBRANCH  44  47
BRANCH  46  49
ATOM     49  O   UNL     1      62.528  88.703  80.997  1.00  0.00    -0.504 OA
ATOM     50  H   UNL     1      62.563  89.652  80.787  1.00  0.00     0.293 HD
ENDBRANCH  46  49
ENDBRANCH  40  41
ENDBRANCH  38  40
ENDBRANCH  37  38
ENDBRANCH   1  37
TORSDOF 11
ENDMDL
MODEL 2
REMARK VINA RESULT:    -6.386     32.058     35.104
REMARK INTER + INTRA:         -12.522
REMARK INTER:                 -11.775
REMARK INTRA:                  -0.747
REMARK UNBOUND:                -1.283
REMARK SMILES C=C(C)[C@]12C[C@@H](C)[C@@]34O[C@](Cc5ccccc5)(O[C@@H]1[C@@H]3C=C(COC(=O)Cc1ccc(O)c(OC)c1)C[C@]1(O)C(=O)C(C)=C[C@@H]41)O2
REMARK SMILES IDX 23 1 22 2 21 3 20 4 9 5 8 6 10 7 6 8 18 9 46 10 19 11 5 12
REMARK SMILES IDX 7 13 4 14 45 15 38 16 44 17 40 18 42 20 41 21 43 22 39 23
REMARK SMILES IDX 11 25 12 26 13 27 17 28 14 29 16 30 15 31 2 32 3 33 1 34
REMARK SMILES IDX 37 35 24 37 25 38 26 39 27 40 28 41 36 42 29 43 33 44 30 45
REMARK SMILES IDX 31 46 34 47 35 48 32 49
REMARK H PARENT 39 24 32 50
REMARK Flexibility Score: 90.00
ROOT
ATOM      1  C   UNL     1      95.233  86.956  86.735  1.00  0.00     0.264 C 
ENDROOT
BRANCH   1   2
ATOM      2  C   UNL     1      94.663  85.570  86.542  1.00  0.00    -0.033 C 
ATOM      3  C   UNL     1      95.428  84.616  85.974  1.00  0.00    -0.015 C 
BRANCH   3   4
ATOM      4  C   UNL     1      95.070  83.186  85.603  1.00  0.00     0.078 C 
ATOM      5  O   UNL     1      95.679  81.767  87.536  1.00  0.00    -0.319 OA
ATOM      6  C   UNL     1      94.546  82.228  86.737  1.00  0.00     0.095 C 
ATOM      7  C   UNL     1      96.851  81.395  86.787  1.00  0.00     0.289 C 
ATOM      8  C   UNL     1      93.861  80.983  86.034  1.00  0.00     0.023 C 
ATOM      9  O   UNL     1      97.313  82.475  85.980  1.00  0.00    -0.320 OA
ATOM     10  O   UNL     1      96.599  80.321  85.885  1.00  0.00    -0.313 OA
ATOM     11  C   UNL     1      96.296  82.485  84.966  1.00  0.00     0.170 C 
ATOM     12  C   UNL     1      94.565  80.628  84.689  1.00  0.00     0.049 C 
ATOM     13  C   UNL     1      93.743  79.719  86.900  1.00  0.00     0.011 C 
ATOM     14  C   UNL     1      96.054  80.975  84.720  1.00  0.00     0.122 C 
BRANCH   6  15
ATOM     15  C   UNL     1      93.649  83.004  87.745  1.00  0.00     0.086 C 
ATOM     16  C   UNL     1      92.639  83.995  87.132  1.00  0.00     0.140 CG0
ATOM     17  C   UNL     1      92.826  82.236  88.741  1.00  0.00    -0.010 C 
ATOM     18  C   UNL     1      91.467  83.897  88.085  1.00  0.00     0.190 C 
ATOM     19  G   UNL     1      93.203  85.412  87.042  1.00  0.00     0.000 G0
ATOM     20  C   UNL     1      91.605  82.728  88.975  1.00  0.00    -0.008 C 
ATOM     21  O   UNL     1      90.500  84.644  88.099  1.00  0.00    -0.291 OA
ATOM     22  C   UNL     1      90.571  82.291  89.934  1.00  0.00     0.048 C 
BRANCH  16  23
ATOM     23  O   UNL     1      92.101  83.573  85.890  1.00  0.00    -0.381 OA
ATOM     24  H   UNL     1      92.337  82.640  85.754  1.00  0.00     0.212 HD
ENDBRANCH  16  23
ENDBRANCH   6  15
BRANCH   7  25
ATOM     25  C   UNL     1      97.933  80.989  87.767  1.00  0.00     0.135 C 
BRANCH  25  26
ATOM     26  C   UNL     1      99.315  81.152  87.183  1.00  0.00    -0.040 A 
ATOM     27  C   UNL     1      99.818  80.190  86.307  1.00  0.00     0.004 A 
ATOM     28  C   UNL     1     100.088  82.263  87.518  1.00  0.00     0.004 A 
ATOM     29  C   UNL     1     101.096  80.340  85.766  1.00  0.00     0.000 A 
ATOM     30  C   UNL     1     101.365  82.413  86.978  1.00  0.00     0.000 A 
ATOM     31  C   UNL     1     101.869  81.451  86.102  1.00  0.00     0.000 A 
ENDBRANCH  25  26
ENDBRANCH   7  25
BRANCH  14  32
ATOM     32  C   UNL     1      96.785  80.478  83.516  1.00  0.00    -0.046 C 
ATOM     33  C   UNL     1      97.283  79.065  83.580  1.00  0.00     0.042 C 
ATOM     34  C   UNL     1      96.986  81.252  82.439  1.00  0.00     0.010 C 
ENDBRANCH  14  32
ENDBRANCH   3   4
BRANCH   2  35
ATOM     35  C   UNL     1      93.239  85.437  87.046  1.00  0.00     0.078 CG0
ATOM     36  G   UNL     1      92.653  84.027  87.121  1.00  0.00     0.000 G0
ENDBRANCH   2  35
ENDBRANCH   1   2
BRANCH   1  37
ATOM     37  O   UNL     1      95.111  87.326  88.092  1.00  0.00    -0.461 OA
BRANCH  37  38
ATOM     38  C   UNL     1      95.455  88.620  88.403  1.00  0.00     0.310 C 
ATOM     39  O   UNL     1      96.484  88.955  88.974  1.00  0.00    -0.252 OA
BRANCH  38  40
ATOM     40  C   UNL     1      94.370  89.559  87.931  1.00  0.00     0.158 C 
BRANCH  40  41
ATOM     41  C   UNL     1      93.565  90.144  89.063  1.00  0.00    -0.033 A 
ATOM     42  C   UNL     1      94.184  90.438  90.279  1.00  0.00     0.054 A 
ATOM     43  C   UNL     1      92.203  90.392  88.896  1.00  0.00     0.008 A 
ATOM     44  C   UNL     1      93.439  90.979  91.327  1.00  0.00     0.160 A 
ATOM     45  C   UNL     1      91.459  90.933  89.944  1.00  0.00     0.050 A 
ATOM     46  C   UNL     1      92.076  91.227  91.160  1.00  0.00     0.157 A 
BRANCH  44  47
ATOM     47  O   UNL     1      94.054  91.262  92.510  1.00  0.00    -0.493 OA
ATOM     48  C   UNL     1      95.468  91.450  92.476  1.00  0.00     0.278 C 
ENDBRANCH  44  47
BRANCH  46  49
ATOM     49  O   UNL     1      91.339  91.756  92.175  1.00  0.00    -0.504 OA
ATOM     50  H   UNL     1      91.712  91.462  93.023  1.00  0.00     0.293 HD
ENDBRANCH  46  49
ENDBRANCH  40  41
ENDBRANCH  38  40
ENDBRANCH  37  38
ENDBRANCH   1  37
TORSDOF 11
ENDMDL
MODEL 3
REMARK VINA RESULT:    -6.367     30.580     34.100
REMARK INTER + INTRA:         -12.488
REMARK INTER:                 -10.872
REMARK INTRA:                  -1.616
REMARK UNBOUND:                -1.283
REMARK SMILES C=C(C)[C@]12C[C@@H](C)[C@@]34O[C@](Cc5ccccc5)(O[C@@H]1[C@@H]3C=C(COC(=O)Cc1ccc(O)c(OC)c1)C[C@]1(O)C(=O)C(C)=C[C@@H]41)O2
REMARK SMILES IDX 23 1 22 2 21 3 20 4 9 5 8 6 10 7 6 8 18 9 46 10 19 11 5 12
REMARK SMILES IDX 7 13 4 14 45 15 38 16 44 17 40 18 42 20 41 21 43 22 39 23
REMARK SMILES IDX 11 25 12 26 13 27 17 28 14 29 16 30 15 31 2 32 3 33 1 34
REMARK SMILES IDX 37 35 24 37 25 38 26 39 27 40 28 41 36 42 29 43 33 44 30 45
REMARK SMILES IDX 31 46 34 47 35 48 32 49
REMARK H PARENT 39 24 32 50
REMARK Flexibility Score: 90.00
ROOT
ATOM      1  C   UNL     1      90.840  84.383  88.562  1.00  0.00     0.264 C 
ENDROOT
BRANCH   1   2
ATOM      2  C   UNL     1      91.456  83.499  87.503  1.00  0.00    -0.033 C 
ATOM      3  C   UNL     1      92.723  83.731  87.105  1.00  0.00    -0.015 C 
BRANCH   3   4
ATOM      4  C   UNL     1      93.533  83.045  86.017  1.00  0.00     0.078 C 
ATOM      5  O   UNL     1      94.790  81.212  87.103  1.00  0.00    -0.319 OA
ATOM      6  C   UNL     1      93.751  81.489  86.114  1.00  0.00     0.095 C 
ATOM      7  C   UNL     1      95.937  82.081  87.052  1.00  0.00     0.289 C 
ATOM      8  C   UNL     1      94.233  80.982  84.692  1.00  0.00     0.023 C 
ATOM      9  O   UNL     1      95.559  83.447  87.205  1.00  0.00    -0.320 OA
ATOM     10  O   UNL     1      96.616  82.009  85.800  1.00  0.00    -0.313 OA
ATOM     11  C   UNL     1      94.942  83.682  85.930  1.00  0.00     0.170 C 
ATOM     12  C   UNL     1      95.100  82.057  83.967  1.00  0.00     0.049 C 
ATOM     13  C   UNL     1      94.976  79.637  84.688  1.00  0.00     0.011 C 
ATOM     14  C   UNL     1      95.879  82.920  84.960  1.00  0.00     0.122 C 
BRANCH   6  15
ATOM     15  C   UNL     1      92.481  80.788  86.678  1.00  0.00     0.086 C 
ATOM     16  C   UNL     1      91.129  81.281  86.122  1.00  0.00     0.140 CG0
ATOM     17  C   UNL     1      92.368  79.292  86.598  1.00  0.00    -0.010 C 
ATOM     18  C   UNL     1      90.300  80.014  86.113  1.00  0.00     0.190 C 
ATOM     19  G   UNL     1      90.513  82.377  86.990  1.00  0.00     0.000 G0
ATOM     20  C   UNL     1      91.149  78.824  86.309  1.00  0.00    -0.008 C 
ATOM     21  O   UNL     1      89.095  79.958  85.919  1.00  0.00    -0.291 OA
ATOM     22  C   UNL     1      90.658  77.433  86.231  1.00  0.00     0.048 C 
BRANCH  16  23
ATOM     23  O   UNL     1      91.175  81.665  84.758  1.00  0.00    -0.381 OA
ATOM     24  H   UNL     1      90.780  80.955  84.225  1.00  0.00     0.212 HD
ENDBRANCH  16  23
ENDBRANCH   6  15
BRANCH   7  25
ATOM     25  C   UNL     1      96.885  81.684  88.165  1.00  0.00     0.135 C 
BRANCH  25  26
ATOM     26  C   UNL     1      96.309  80.597  89.037  1.00  0.00    -0.040 A 
ATOM     27  C   UNL     1      96.447  79.259  88.666  1.00  0.00     0.004 A 
ATOM     28  C   UNL     1      95.640  80.928  90.215  1.00  0.00     0.004 A 
ATOM     29  C   UNL     1      95.914  78.253  89.472  1.00  0.00     0.000 A 
ATOM     30  C   UNL     1      95.107  79.922  91.021  1.00  0.00     0.000 A 
ATOM     31  C   UNL     1      95.244  78.584  90.649  1.00  0.00     0.000 A 
ENDBRANCH  25  26
ENDBRANCH   7  25
BRANCH  14  32
ATOM     32  C   UNL     1      96.853  83.832  84.288  1.00  0.00    -0.046 C 
ATOM     33  C   UNL     1      98.224  83.275  84.045  1.00  0.00     0.042 C 
ATOM     34  C   UNL     1      96.520  85.079  83.922  1.00  0.00     0.010 C 
ENDBRANCH  14  32
ENDBRANCH   3   4
BRANCH   2  35
ATOM     35  C   UNL     1      90.516  82.412  87.015  1.00  0.00     0.078 CG0
ATOM     36  G   UNL     1      91.114  81.311  86.141  1.00  0.00     0.000 G0
ENDBRANCH   2  35
ENDBRANCH   1   2
BRANCH   1  37
ATOM     37  O   UNL     1      91.574  84.254  89.761  1.00  0.00    -0.461 OA
BRANCH  37  38
ATOM     38  C   UNL     1      92.488  85.248  90.025  1.00  0.00     0.310 C 
ATOM     39  O   UNL     1      93.510  85.106  90.681  1.00  0.00    -0.252 OA
BRANCH  38  40
ATOM     40  C   UNL     1      92.032  86.536  89.381  1.00  0.00     0.158 C 
BRANCH  40  41
ATOM     41  C   UNL     1      93.170  87.343  88.810  1.00  0.00    -0.033 A 
ATOM     42  C   UNL     1      93.286  88.699  89.118  1.00  0.00     0.054 A 
ATOM     43  C   UNL     1      94.106  86.735  87.975  1.00  0.00     0.008 A 
ATOM     44  C   UNL     1      94.339  89.446  88.590  1.00  0.00     0.160 A 
ATOM     45  C   UNL     1      95.160  87.482  87.447  1.00  0.00     0.050 A 
ATOM     46  C   UNL     1      95.276  88.837  87.754  1.00  0.00     0.157 A 
BRANCH  44  47
ATOM     47  O   UNL     1      94.442  90.769  88.897  1.00  0.00    -0.493 OA
ATOM     48  C   UNL     1      93.572  91.268  89.912  1.00  0.00     0.278 C 
ENDBRANCH  44  47
BRANCH  46  49
ATOM     49  O   UNL     1      96.309  89.556  87.234  1.00  0.00    -0.504 OA
ATOM     50  H   UNL     1      96.954  89.739  87.938  1.00  0.00     0.293 HD
ENDBRANCH  46  49
ENDBRANCH  40  41
ENDBRANCH  38  40
ENDBRANCH  37  38
ENDBRANCH   1  37
TORSDOF 11
ENDMDL
MODEL 4
REMARK VINA RESULT:    -6.340      3.794      8.702
REMARK INTER + INTRA:         -12.442
REMARK INTER:                 -11.747
REMARK INTRA:                  -0.695
REMARK UNBOUND:                -1.283
REMARK SMILES C=C(C)[C@]12C[C@@H](C)[C@@]34O[C@](Cc5ccccc5)(O[C@@H]1[C@@H]3C=C(COC(=O)Cc1ccc(O)c(OC)c1)C[C@]1(O)C(=O)C(C)=C[C@@H]41)O2
REMARK SMILES IDX 23 1 22 2 21 3 20 4 9 5 8 6 10 7 6 8 18 9 46 10 19 11 5 12
REMARK SMILES IDX 7 13 4 14 45 15 38 16 44 17 40 18 42 20 41 21 43 22 39 23
REMARK SMILES IDX 11 25 12 26 13 27 17 28 14 29 16 30 15 31 2 32 3 33 1 34
REMARK SMILES IDX 37 35 24 37 25 38 26 39 27 40 28 41 36 42 29 43 33 44 30 45
REMARK SMILES IDX 31 46 34 47 35 48 32 49
REMARK H PARENT 39 24 32 50
REMARK Flexibility Score: 90.00
ROOT
ATOM      1  C   UNL     1      58.507  87.354  72.440  1.00  0.00     0.264 C 
ENDROOT
BRANCH   1   2
ATOM      2  C   UNL     1      60.002  87.301  72.652  1.00  0.00    -0.033 C 
ATOM      3  C   UNL     1      60.485  87.060  73.887  1.00  0.00    -0.015 C 
BRANCH   3   4
ATOM      4  C   UNL     1      61.925  87.032  74.371  1.00  0.00     0.078 C 
ATOM      5  O   UNL     1      62.699  84.689  74.202  1.00  0.00    -0.319 OA
ATOM      6  C   UNL     1      62.929  86.034  73.682  1.00  0.00     0.095 C 
ATOM      7  C   UNL     1      62.489  84.605  75.624  1.00  0.00     0.289 C 
ATOM      8  C   UNL     1      64.398  86.496  74.056  1.00  0.00     0.023 C 
ATOM      9  O   UNL     1      61.387  85.412  76.033  1.00  0.00    -0.320 OA
ATOM     10  O   UNL     1      63.610  85.080  76.365  1.00  0.00    -0.313 OA
ATOM     11  C   UNL     1      61.965  86.719  75.887  1.00  0.00     0.170 C 
ATOM     12  C   UNL     1      64.454  87.122  75.483  1.00  0.00     0.049 C 
ATOM     13  C   UNL     1      65.482  85.413  73.929  1.00  0.00     0.011 C 
ATOM     14  C   UNL     1      63.407  86.507  76.412  1.00  0.00     0.122 C 
BRANCH   6  15
ATOM     15  C   UNL     1      62.632  85.918  72.158  1.00  0.00     0.086 C 
ATOM     16  C   UNL     1      62.322  87.239  71.423  1.00  0.00     0.140 CG0
ATOM     17  C   UNL     1      63.633  85.246  71.262  1.00  0.00    -0.010 C 
ATOM     18  C   UNL     1      62.922  86.999  70.054  1.00  0.00     0.190 C 
ATOM     19  G   UNL     1      60.823  87.528  71.363  1.00  0.00     0.000 G0
ATOM     20  C   UNL     1      63.799  85.813  70.062  1.00  0.00    -0.008 C 
ATOM     21  O   UNL     1      62.757  87.709  69.074  1.00  0.00    -0.291 OA
ATOM     22  C   UNL     1      64.623  85.384  68.913  1.00  0.00     0.048 C 
BRANCH  16  23
ATOM     23  O   UNL     1      63.045  88.354  71.918  1.00  0.00    -0.381 OA
ATOM     24  H   UNL     1      63.571  88.065  72.682  1.00  0.00     0.212 HD
ENDBRANCH  16  23
ENDBRANCH   6  15
BRANCH   7  25
ATOM     25  C   UNL     1      62.223  83.157  75.981  1.00  0.00     0.135 C 
BRANCH  25  26
ATOM     26  C   UNL     1      63.039  82.208  75.139  1.00  0.00    -0.040 A 
ATOM     27  C   UNL     1      62.527  81.730  73.932  1.00  0.00     0.004 A 
ATOM     28  C   UNL     1      64.305  81.809  75.566  1.00  0.00     0.004 A 
ATOM     29  C   UNL     1      63.282  80.853  73.153  1.00  0.00     0.000 A 
ATOM     30  C   UNL     1      65.060  80.931  74.786  1.00  0.00     0.000 A 
ATOM     31  C   UNL     1      64.547  80.454  73.580  1.00  0.00     0.000 A 
ENDBRANCH  25  26
ENDBRANCH   7  25
BRANCH  14  32
ATOM     32  C   UNL     1      63.560  86.958  77.828  1.00  0.00    -0.046 C 
ATOM     33  C   UNL     1      64.834  86.562  78.515  1.00  0.00     0.042 C 
ATOM     34  C   UNL     1      62.613  87.676  78.451  1.00  0.00     0.010 C 
ENDBRANCH  14  32
ENDBRANCH   3   4
BRANCH   2  35
ATOM     35  C   UNL     1      60.792  87.532  71.377  1.00  0.00     0.078 CG0
ATOM     36  G   UNL     1      62.291  87.243  71.422  1.00  0.00     0.000 G0
ENDBRANCH   2  35
ENDBRANCH   1   2
BRANCH   1  37
ATOM     37  O   UNL     1      58.182  88.507  71.693  1.00  0.00    -0.461 OA
BRANCH  37  38
ATOM     38  C   UNL     1      57.683  88.293  70.429  1.00  0.00     0.310 C 
ATOM     39  O   UNL     1      57.176  87.249  70.042  1.00  0.00    -0.252 OA
BRANCH  38  40
ATOM     40  C   UNL     1      57.860  89.542  69.599  1.00  0.00     0.158 C 
BRANCH  40  41
ATOM     41  C   UNL     1      56.694  89.808  68.682  1.00  0.00    -0.033 A 
ATOM     42  C   UNL     1      55.783  90.820  68.988  1.00  0.00     0.054 A 
ATOM     43  C   UNL     1      56.526  89.045  67.527  1.00  0.00     0.008 A 
ATOM     44  C   UNL     1      54.703  91.066  68.139  1.00  0.00     0.160 A 
ATOM     45  C   UNL     1      55.447  89.291  66.678  1.00  0.00     0.050 A 
ATOM     46  C   UNL     1      54.536  90.301  66.984  1.00  0.00     0.157 A 
BRANCH  44  47
ATOM     47  O   UNL     1      53.820  92.055  68.449  1.00  0.00    -0.493 OA
ATOM     48  C   UNL     1      54.258  93.399  68.255  1.00  0.00     0.278 C 
ENDBRANCH  44  47
BRANCH  46  49
ATOM     49  O   UNL     1      53.486  90.533  66.147  1.00  0.00    -0.504 OA
ATOM     50  H   UNL     1      52.713  90.038  66.465  1.00  0.00     0.293 HD
ENDBRANCH  46  49
ENDBRANCH  40  41
ENDBRANCH  38  40
ENDBRANCH  37  38
ENDBRANCH   1  37
TORSDOF 11
ENDMDL
MODEL 5
REMARK VINA RESULT:    -6.250     33.127     35.395
REMARK INTER + INTRA:         -12.283
REMARK INTER:                 -11.108
REMARK INTRA:                  -1.175
REMARK UNBOUND:                -1.283
REMARK SMILES C=C(C)[C@]12C[C@@H](C)[C@@]34O[C@](Cc5ccccc5)(O[C@@H]1[C@@H]3C=C(COC(=O)Cc1ccc(O)c(OC)c1)C[C@]1(O)C(=O)C(C)=C[C@@H]41)O2
REMARK SMILES IDX 23 1 22 2 21 3 20 4 9 5 8 6 10 7 6 8 18 9 46 10 19 11 5 12
REMARK SMILES IDX 7 13 4 14 45 15 38 16 44 17 40 18 42 20 41 21 43 22 39 23
REMARK SMILES IDX 11 25 12 26 13 27 17 28 14 29 16 30 15 31 2 32 3 33 1 34
REMARK SMILES IDX 37 35 24 37 25 38 26 39 27 40 28 41 36 42 29 43 33 44 30 45
REMARK SMILES IDX 31 46 34 47 35 48 32 49
REMARK H PARENT 39 24 32 50
REMARK Flexibility Score: 90.00
ROOT
ATOM      1  C   UNL     1      95.331  87.189  86.456  1.00  0.00     0.264 C 
ENDROOT
BRANCH   1   2
ATOM      2  C   UNL     1      95.090  85.748  86.073  1.00  0.00    -0.033 C 
ATOM      3  C   UNL     1      95.936  85.143  85.215  1.00  0.00    -0.015 C 
BRANCH   3   4
ATOM      4  C   UNL     1      95.872  83.746  84.620  1.00  0.00     0.078 C 
ATOM      5  O   UNL     1      97.191  82.269  86.102  1.00  0.00    -0.319 OA
ATOM      6  C   UNL     1      95.841  82.515  85.600  1.00  0.00     0.095 C 
ATOM      7  C   UNL     1      98.240  82.361  85.120  1.00  0.00     0.289 C 
ATOM      8  C   UNL     1      95.353  81.255  84.773  1.00  0.00     0.023 C 
ATOM      9  O   UNL     1      98.248  83.639  84.489  1.00  0.00    -0.320 OA
ATOM     10  O   UNL     1      98.080  81.413  84.067  1.00  0.00    -0.313 OA
ATOM     11  C   UNL     1      97.074  83.523  83.670  1.00  0.00     0.170 C 
ATOM     12  C   UNL     1      95.833  81.324  83.290  1.00  0.00     0.049 C 
ATOM     13  C   UNL     1      95.728  79.888  85.369  1.00  0.00     0.011 C 
ATOM     14  C   UNL     1      97.165  82.063  83.161  1.00  0.00     0.122 C 
BRANCH   6  15
ATOM     15  C   UNL     1      95.007  82.844  86.872  1.00  0.00     0.086 C 
ATOM     16  C   UNL     1      93.679  83.594  86.640  1.00  0.00     0.140 CG0
ATOM     17  C   UNL     1      94.621  81.732  87.807  1.00  0.00    -0.010 C 
ATOM     18  C   UNL     1      92.789  83.025  87.725  1.00  0.00     0.190 C 
ATOM     19  G   UNL     1      93.845  85.109  86.754  1.00  0.00     0.000 G0
ATOM     20  C   UNL     1      93.391  81.820  88.325  1.00  0.00    -0.008 C 
ATOM     21  O   UNL     1      91.692  83.460  88.041  1.00  0.00    -0.291 OA
ATOM     22  C   UNL     1      92.716  80.967  89.325  1.00  0.00     0.048 C 
BRANCH  16  23
ATOM     23  O   UNL     1      93.020  83.235  85.437  1.00  0.00    -0.381 OA
ATOM     24  H   UNL     1      92.098  83.010  85.648  1.00  0.00     0.212 HD
ENDBRANCH  16  23
ENDBRANCH   6  15
BRANCH   7  25
ATOM     25  C   UNL     1      99.565  82.125  85.816  1.00  0.00     0.135 C 
BRANCH  25  26
ATOM     26  C   UNL     1     100.040  80.701  85.660  1.00  0.00    -0.040 A 
ATOM     27  C   UNL     1      99.547  79.706  86.504  1.00  0.00     0.004 A 
ATOM     28  C   UNL     1     100.970  80.380  84.672  1.00  0.00     0.004 A 
ATOM     29  C   UNL     1      99.985  78.389  86.360  1.00  0.00     0.000 A 
ATOM     30  C   UNL     1     101.408  79.063  84.528  1.00  0.00     0.000 A 
ATOM     31  C   UNL     1     100.916  78.068  85.373  1.00  0.00     0.000 A 
ENDBRANCH  25  26
ENDBRANCH   7  25
BRANCH  14  32
ATOM     32  C   UNL     1      97.734  81.984  81.782  1.00  0.00    -0.046 C 
ATOM     33  C   UNL     1      98.766  80.921  81.551  1.00  0.00     0.042 C 
ATOM     34  C   UNL     1      97.344  82.817  80.805  1.00  0.00     0.010 C 
ENDBRANCH  14  32
ENDBRANCH   3   4
BRANCH   2  35
ATOM     35  C   UNL     1      93.870  85.150  86.747  1.00  0.00     0.078 CG0
ATOM     36  G   UNL     1      93.685  83.636  86.642  1.00  0.00     0.000 G0
ENDBRANCH   2  35
ENDBRANCH   1   2
BRANCH   1  37
ATOM     37  O   UNL     1      95.138  87.342  87.846  1.00  0.00    -0.461 OA
BRANCH  37  38
ATOM     38  C   UNL     1      95.333  88.605  88.353  1.00  0.00     0.310 C 
ATOM     39  O   UNL     1      96.337  88.978  88.944  1.00  0.00    -0.252 OA
BRANCH  38  40
ATOM     40  C   UNL     1      94.119  89.457  88.066  1.00  0.00     0.158 C 
BRANCH  40  41
ATOM     41  C   UNL     1      93.457  89.977  89.316  1.00  0.00    -0.033 A 
ATOM     42  C   UNL     1      93.339  91.352  89.522  1.00  0.00     0.054 A 
ATOM     43  C   UNL     1      92.960  89.084  90.265  1.00  0.00     0.008 A 
ATOM     44  C   UNL     1      92.726  91.833  90.679  1.00  0.00     0.160 A 
ATOM     45  C   UNL     1      92.347  89.565  91.422  1.00  0.00     0.050 A 
ATOM     46  C   UNL     1      92.230  90.939  91.630  1.00  0.00     0.157 A 
BRANCH  44  47
ATOM     47  O   UNL     1      92.617  93.177  90.871  1.00  0.00    -0.493 OA
ATOM     48  C   UNL     1      91.805  93.900  89.947  1.00  0.00     0.278 C 
ENDBRANCH  44  47
BRANCH  46  49
ATOM     49  O   UNL     1      91.628  91.397  92.762  1.00  0.00    -0.504 OA
ATOM     50  H   UNL     1      91.799  90.771  93.486  1.00  0.00     0.293 HD
ENDBRANCH  46  49
ENDBRANCH  40  41
ENDBRANCH  38  40
ENDBRANCH  37  38
ENDBRANCH   1  37
TORSDOF 11
ENDMDL
MODEL 6
REMARK VINA RESULT:    -6.227     30.951     34.643
REMARK INTER + INTRA:         -12.243
REMARK INTER:                 -10.158
REMARK INTRA:                  -2.085
REMARK UNBOUND:                -1.283
REMARK SMILES C=C(C)[C@]12C[C@@H](C)[C@@]34O[C@](Cc5ccccc5)(O[C@@H]1[C@@H]3C=C(COC(=O)Cc1ccc(O)c(OC)c1)C[C@]1(O)C(=O)C(C)=C[C@@H]41)O2
REMARK SMILES IDX 23 1 22 2 21 3 20 4 9 5 8 6 10 7 6 8 18 9 46 10 19 11 5 12
REMARK SMILES IDX 7 13 4 14 45 15 38 16 44 17 40 18 42 20 41 21 43 22 39 23
REMARK SMILES IDX 11 25 12 26 13 27 17 28 14 29 16 30 15 31 2 32 3 33 1 34
REMARK SMILES IDX 37 35 24 37 25 38 26 39 27 40 28 41 36 42 29 43 33 44 30 45
REMARK SMILES IDX 31 46 34 47 35 48 32 49
REMARK H PARENT 39 24 32 50
REMARK Flexibility Score: 90.00
ROOT
ATOM      1  C   UNL     1      96.737  78.478  86.590  1.00  0.00     0.264 C 
ENDROOT
BRANCH   1   2
ATOM      2  C   UNL     1      95.298  78.684  87.003  1.00  0.00    -0.033 C 
ATOM      3  C   UNL     1      94.950  79.822  87.636  1.00  0.00    -0.015 C 
BRANCH   3   4
ATOM      4  C   UNL     1      93.605  80.231  88.215  1.00  0.00     0.078 C 
ATOM      5  O   UNL     1      92.419  81.499  86.453  1.00  0.00    -0.319 OA
ATOM      6  C   UNL     1      92.360  80.278  87.254  1.00  0.00     0.095 C 
ATOM      7  C   UNL     1      92.800  82.688  87.170  1.00  0.00     0.289 C 
ATOM      8  C   UNL     1      91.058  80.307  88.157  1.00  0.00     0.023 C 
ATOM      9  O   UNL     1      94.070  82.530  87.796  1.00  0.00    -0.320 OA
ATOM     10  O   UNL     1      91.889  83.002  88.220  1.00  0.00    -0.313 OA
ATOM     11  C   UNL     1      93.716  81.634  88.861  1.00  0.00     0.170 C 
ATOM     12  C   UNL     1      91.304  81.077  89.490  1.00  0.00     0.049 C 
ATOM     13  C   UNL     1      89.794  80.856  87.475  1.00  0.00     0.011 C 
ATOM     14  C   UNL     1      92.343  82.186  89.319  1.00  0.00     0.122 C 
BRANCH   6  15
ATOM     15  C   UNL     1      92.424  79.125  86.210  1.00  0.00     0.086 C 
ATOM     16  C   UNL     1      92.855  77.745  86.748  1.00  0.00     0.140 CG0
ATOM     17  C   UNL     1      91.210  78.814  85.381  1.00  0.00    -0.010 C 
ATOM     18  C   UNL     1      92.044  76.794  85.893  1.00  0.00     0.190 C 
ATOM     19  G   UNL     1      94.360  77.516  86.610  1.00  0.00     0.000 G0
ATOM     20  C   UNL     1      90.984  77.514  85.161  1.00  0.00    -0.008 C 
ATOM     21  O   UNL     1      92.196  75.583  85.841  1.00  0.00    -0.291 OA
ATOM     22  C   UNL     1      89.952  76.854  84.337  1.00  0.00     0.048 C 
BRANCH  16  23
ATOM     23  O   UNL     1      92.409  77.478  88.067  1.00  0.00    -0.381 OA
ATOM     24  H   UNL     1      91.447  77.345  88.045  1.00  0.00     0.212 HD
ENDBRANCH  16  23
ENDBRANCH   6  15
BRANCH   7  25
ATOM     25  C   UNL     1      92.854  83.840  86.186  1.00  0.00     0.135 C 
BRANCH  25  26
ATOM     26  C   UNL     1      93.537  85.051  86.770  1.00  0.00    -0.040 A 
ATOM     27  C   UNL     1      94.681  85.568  86.160  1.00  0.00     0.004 A 
ATOM     28  C   UNL     1      93.026  85.654  87.918  1.00  0.00     0.004 A 
ATOM     29  C   UNL     1      95.313  86.688  86.700  1.00  0.00     0.000 A 
ATOM     30  C   UNL     1      93.658  86.775  88.458  1.00  0.00     0.000 A 
ATOM     31  C   UNL     1      94.802  87.291  87.849  1.00  0.00     0.000 A 
ENDBRANCH  25  26
ENDBRANCH   7  25
BRANCH  14  32
ATOM     32  C   UNL     1      92.463  83.053  90.531  1.00  0.00    -0.046 C 
ATOM     33  C   UNL     1      91.212  83.239  91.338  1.00  0.00     0.042 C 
ATOM     34  C   UNL     1      93.622  83.632  90.877  1.00  0.00     0.010 C 
ENDBRANCH  14  32
ENDBRANCH   3   4
BRANCH   2  35
ATOM     35  C   UNL     1      94.398  77.524  86.619  1.00  0.00     0.078 CG0
ATOM     36  G   UNL     1      92.890  77.742  86.735  1.00  0.00     0.000 G0
ENDBRANCH   2  35
ENDBRANCH   1   2
BRANCH   1  37
ATOM     37  O   UNL     1      96.776  77.860  85.322  1.00  0.00    -0.461 OA
BRANCH  37  38
ATOM     38  C   UNL     1      97.312  78.605  84.298  1.00  0.00     0.310 C 
ATOM     39  O   UNL     1      98.504  78.677  84.031  1.00  0.00    -0.252 OA
BRANCH  38  40
ATOM     40  C   UNL     1      96.205  79.318  83.558  1.00  0.00     0.158 C 
BRANCH  40  41
ATOM     41  C   UNL     1      96.390  80.813  83.521  1.00  0.00    -0.033 A 
ATOM     42  C   UNL     1      97.142  81.398  82.502  1.00  0.00     0.054 A 
ATOM     43  C   UNL     1      95.808  81.613  84.505  1.00  0.00     0.008 A 
ATOM     44  C   UNL     1      97.313  82.782  82.467  1.00  0.00     0.160 A 
ATOM     45  C   UNL     1      95.980  82.997  84.470  1.00  0.00     0.050 A 
ATOM     46  C   UNL     1      96.732  83.581  83.452  1.00  0.00     0.157 A 
BRANCH  44  47
ATOM     47  O   UNL     1      98.051  83.340  81.467  1.00  0.00    -0.493 OA
ATOM     48  C   UNL     1      98.124  82.622  80.237  1.00  0.00     0.278 C 
ENDBRANCH  44  47
BRANCH  46  49
ATOM     49  O   UNL     1      96.891  84.934  83.428  1.00  0.00    -0.504 OA
ATOM     50  H   UNL     1      97.077  85.247  84.329  1.00  0.00     0.293 HD
ENDBRANCH  46  49
ENDBRANCH  40  41
ENDBRANCH  38  40
ENDBRANCH  37  38
ENDBRANCH   1  37
TORSDOF 11
ENDMDL
MODEL 7
REMARK VINA RESULT:    -5.836     31.985     34.913
REMARK INTER + INTRA:         -11.555
REMARK INTER:                 -10.662
REMARK INTRA:                  -0.893
REMARK UNBOUND:                -1.283
REMARK SMILES C=C(C)[C@]12C[C@@H](C)[C@@]34O[C@](Cc5ccccc5)(O[C@@H]1[C@@H]3C=C(COC(=O)Cc1ccc(O)c(OC)c1)C[C@]1(O)C(=O)C(C)=C[C@@H]41)O2
REMARK SMILES IDX 23 1 22 2 21 3 20 4 9 5 8 6 10 7 6 8 18 9 46 10 19 11 5 12
REMARK SMILES IDX 7 13 4 14 45 15 38 16 44 17 40 18 42 20 41 21 43 22 39 23
REMARK SMILES IDX 11 25 12 26 13 27 17 28 14 29 16 30 15 31 2 32 3 33 1 34
REMARK SMILES IDX 37 35 24 37 25 38 26 39 27 40 28 41 36 42 29 43 33 44 30 45
REMARK SMILES IDX 31 46 34 47 35 48 32 49
REMARK H PARENT 39 24 32 50
REMARK Flexibility Score: 90.00
ROOT
ATOM      1  C   UNL     1      95.207  87.046  87.680  1.00  0.00     0.264 C 
ENDROOT
BRANCH   1   2
ATOM      2  C   UNL     1      94.834  85.754  86.992  1.00  0.00    -0.033 C 
ATOM      3  C   UNL     1      95.767  85.095  86.276  1.00  0.00    -0.015 C 
BRANCH   3   4
ATOM      4  C   UNL     1      95.627  83.834  85.438  1.00  0.00     0.078 C 
ATOM      5  O   UNL     1      96.200  81.927  86.906  1.00  0.00    -0.319 OA
ATOM      6  C   UNL     1      95.109  82.523  86.139  1.00  0.00     0.095 C 
ATOM      7  C   UNL     1      97.481  81.914  86.248  1.00  0.00     0.289 C 
ATOM      8  C   UNL     1      94.659  81.517  85.001  1.00  0.00     0.023 C 
ATOM      9  O   UNL     1      97.889  83.230  85.883  1.00  0.00    -0.320 OA
ATOM     10  O   UNL     1      97.458  81.168  85.033  1.00  0.00    -0.313 OA
ATOM     11  C   UNL     1      96.989  83.479  84.792  1.00  0.00     0.170 C 
ATOM     12  C   UNL     1      95.538  81.671  83.721  1.00  0.00     0.049 C 
ATOM     13  C   UNL     1      94.607  80.036  85.411  1.00  0.00     0.011 C 
ATOM     14  C   UNL     1      96.961  82.113  84.063  1.00  0.00     0.122 C 
BRANCH   6  15
ATOM     15  C   UNL     1      94.024  82.858  87.203  1.00  0.00     0.086 C 
ATOM     16  C   UNL     1      92.968  83.905  86.791  1.00  0.00     0.140 CG0
ATOM     17  C   UNL     1      93.202  81.746  87.792  1.00  0.00    -0.010 C 
ATOM     18  C   UNL     1      91.724  83.409  87.498  1.00  0.00     0.190 C 
ATOM     19  G   UNL     1      93.360  85.319  87.219  1.00  0.00     0.000 G0
ATOM     20  C   UNL     1      91.912  82.034  87.996  1.00  0.00    -0.008 C 
ATOM     21  O   UNL     1      90.677  84.029  87.607  1.00  0.00    -0.291 OA
ATOM     22  C   UNL     1      90.845  81.227  88.623  1.00  0.00     0.048 C 
BRANCH  16  23
ATOM     23  O   UNL     1      92.619  83.859  85.418  1.00  0.00    -0.381 OA
ATOM     24  H   UNL     1      91.658  83.736  85.350  1.00  0.00     0.212 HD
ENDBRANCH  16  23
ENDBRANCH   6  15
BRANCH   7  25
ATOM     25  C   UNL     1      98.497  81.308  87.195  1.00  0.00     0.135 C 
BRANCH  25  26
ATOM     26  C   UNL     1      98.040  79.976  87.736  1.00  0.00    -0.040 A 
ATOM     27  C   UNL     1      97.733  79.843  89.091  1.00  0.00     0.004 A 
ATOM     28  C   UNL     1      97.922  78.879  86.884  1.00  0.00     0.004 A 
ATOM     29  C   UNL     1      97.310  78.611  89.593  1.00  0.00     0.000 A 
ATOM     30  C   UNL     1      97.499  77.648  87.385  1.00  0.00     0.000 A 
ATOM     31  C   UNL     1      97.193  77.515  88.740  1.00  0.00     0.000 A 
ENDBRANCH  25  26
ENDBRANCH   7  25
BRANCH  14  32
ATOM     32  C   UNL     1      97.869  82.090  82.877  1.00  0.00    -0.046 C 
ATOM     33  C   UNL     1      97.206  82.163  81.534  1.00  0.00     0.042 C 
ATOM     34  C   UNL     1      99.202  82.010  83.006  1.00  0.00     0.010 C 
ENDBRANCH  14  32
ENDBRANCH   3   4
BRANCH   2  35
ATOM     35  C   UNL     1      93.389  85.354  87.222  1.00  0.00     0.078 CG0
ATOM     36  G   UNL     1      92.979  83.943  86.800  1.00  0.00     0.000 G0
ENDBRANCH   2  35
ENDBRANCH   1   2
BRANCH   1  37
ATOM     37  O   UNL     1      94.040  87.664  88.179  1.00  0.00    -0.461 OA
BRANCH  37  38
ATOM     38  C   UNL     1      94.225  88.622  89.148  1.00  0.00     0.310 C 
ATOM     39  O   UNL     1      95.242  89.287  89.294  1.00  0.00    -0.252 OA
BRANCH  38  40
ATOM     40  C   UNL     1      92.983  88.724  90.001  1.00  0.00     0.158 C 
BRANCH  40  41
ATOM     41  C   UNL     1      92.649  90.142  90.387  1.00  0.00    -0.033 A 
ATOM     42  C   UNL     1      93.007  90.624  91.647  1.00  0.00     0.054 A 
ATOM     43  C   UNL     1      91.985  90.973  89.486  1.00  0.00     0.008 A 
ATOM     44  C   UNL     1      92.698  91.937  92.005  1.00  0.00     0.160 A 
ATOM     45  C   UNL     1      91.676  92.285  89.844  1.00  0.00     0.050 A 
ATOM     46  C   UNL     1      92.032  92.768  91.103  1.00  0.00     0.157 A 
BRANCH  44  47
ATOM     47  O   UNL     1      93.052  92.396  93.238  1.00  0.00    -0.493 OA
ATOM     48  C   UNL     1      94.094  91.696  93.915  1.00  0.00     0.278 C 
ENDBRANCH  44  47
BRANCH  46  49
ATOM     49  O   UNL     1      91.727  94.051  91.440  1.00  0.00    -0.504 OA
ATOM     50  H   UNL     1      90.769  94.120  91.589  1.00  0.00     0.293 HD
ENDBRANCH  46  49
ENDBRANCH  40  41
ENDBRANCH  38  40
ENDBRANCH  37  38
ENDBRANCH   1  37
TORSDOF 11
ENDMDL
MODEL 8
REMARK VINA RESULT:    -5.689     31.646     36.386
REMARK INTER + INTRA:         -11.296
REMARK INTER:                 -10.429
REMARK INTRA:                  -0.867
REMARK UNBOUND:                -1.283
REMARK SMILES C=C(C)[C@]12C[C@@H](C)[C@@]34O[C@](Cc5ccccc5)(O[C@@H]1[C@@H]3C=C(COC(=O)Cc1ccc(O)c(OC)c1)C[C@]1(O)C(=O)C(C)=C[C@@H]41)O2
REMARK SMILES IDX 23 1 22 2 21 3 20 4 9 5 8 6 10 7 6 8 18 9 46 10 19 11 5 12
REMARK SMILES IDX 7 13 4 14 45 15 38 16 44 17 40 18 42 20 41 21 43 22 39 23
REMARK SMILES IDX 11 25 12 26 13 27 17 28 14 29 16 30 15 31 2 32 3 33 1 34
REMARK SMILES IDX 37 35 24 37 25 38 26 39 27 40 28 41 36 42 29 43 33 44 30 45
REMARK SMILES IDX 31 46 34 47 35 48 32 49
REMARK H PARENT 39 24 32 50
REMARK Flexibility Score: 90.00
ROOT
ATOM      1  C   UNL     1      98.857  81.294  82.115  1.00  0.00     0.264 C 
ENDROOT
BRANCH   1   2
ATOM      2  C   UNL     1      98.555  81.555  83.572  1.00  0.00    -0.033 C 
ATOM      3  C   UNL     1      97.337  82.014  83.921  1.00  0.00    -0.015 C 
BRANCH   3   4
ATOM      4  C   UNL     1      96.815  82.422  85.289  1.00  0.00     0.078 C 
ATOM      5  O   UNL     1      95.731  80.427  86.272  1.00  0.00    -0.319 OA
ATOM      6  C   UNL     1      96.843  81.358  86.449  1.00  0.00     0.095 C 
ATOM      7  C   UNL     1      94.477  81.029  85.899  1.00  0.00     0.289 C 
ATOM      8  C   UNL     1      96.661  82.135  87.818  1.00  0.00     0.023 C 
ATOM      9  O   UNL     1      94.601  81.777  84.692  1.00  0.00    -0.320 OA
ATOM     10  O   UNL     1      94.008  81.952  86.877  1.00  0.00    -0.313 OA
ATOM     11  C   UNL     1      95.349  82.905  85.170  1.00  0.00     0.170 C 
ATOM     12  C   UNL     1      95.744  83.385  87.647  1.00  0.00     0.049 C 
ATOM     13  C   UNL     1      96.156  81.288  88.997  1.00  0.00     0.011 C 
ATOM     14  C   UNL     1      94.699  83.175  86.551  1.00  0.00     0.122 C 
BRANCH   6  15
ATOM     15  C   UNL     1      98.115  80.467  86.350  1.00  0.00     0.086 C 
ATOM     16  C   UNL     1      99.433  81.198  86.019  1.00  0.00     0.140 CG0
ATOM     17  C   UNL     1      98.487  79.583  87.508  1.00  0.00    -0.010 C 
ATOM     18  C   UNL     1     100.455  80.398  86.799  1.00  0.00     0.190 C 
ATOM     19  G   UNL     1      99.723  81.213  84.518  1.00  0.00     0.000 G0
ATOM     20  C   UNL     1      99.796  79.501  87.768  1.00  0.00    -0.008 C 
ATOM     21  O   UNL     1     101.667  80.502  86.692  1.00  0.00    -0.291 OA
ATOM     22  C   UNL     1     100.520  78.679  88.759  1.00  0.00     0.048 C 
BRANCH  16  23
ATOM     23  O   UNL     1      99.524  82.498  86.576  1.00  0.00    -0.381 OA
ATOM     24  H   UNL     1      98.813  82.603  87.230  1.00  0.00     0.212 HD
ENDBRANCH  16  23
ENDBRANCH   6  15
BRANCH   7  25
ATOM     25  C   UNL     1      93.456  79.924  85.714  1.00  0.00     0.135 C 
BRANCH  25  26
ATOM     26  C   UNL     1      92.091  80.327  86.216  1.00  0.00    -0.040 A 
ATOM     27  C   UNL     1      91.454  79.560  87.193  1.00  0.00     0.004 A 
ATOM     28  C   UNL     1      91.467  81.464  85.706  1.00  0.00     0.004 A 
ATOM     29  C   UNL     1      90.192  79.932  87.658  1.00  0.00     0.000 A 
ATOM     30  C   UNL     1      90.205  81.836  86.171  1.00  0.00     0.000 A 
ATOM     31  C   UNL     1      89.568  81.069  87.147  1.00  0.00     0.000 A 
ENDBRANCH  25  26
ENDBRANCH   7  25
BRANCH  14  32
ATOM     32  C   UNL     1      93.697  84.282  86.493  1.00  0.00    -0.046 C 
ATOM     33  C   UNL     1      93.880  85.284  85.392  1.00  0.00     0.042 C 
ATOM     34  C   UNL     1      92.691  84.374  87.375  1.00  0.00     0.010 C 
ENDBRANCH  14  32
ENDBRANCH   3   4
BRANCH   2  35
ATOM     35  C   UNL     1      99.724  81.240  84.487  1.00  0.00     0.078 CG0
ATOM     36  G   UNL     1      99.447  81.210  85.989  1.00  0.00     0.000 G0
ENDBRANCH   2  35
ENDBRANCH   1   2
BRANCH   1  37
ATOM     37  O   UNL     1      97.717  81.598  81.340  1.00  0.00    -0.461 OA
BRANCH  37  38
ATOM     38  C   UNL     1      97.900  82.494  80.313  1.00  0.00     0.310 C 
ATOM     39  O   UNL     1      98.873  83.223  80.182  1.00  0.00    -0.252 OA
BRANCH  38  40
ATOM     40  C   UNL     1      96.716  82.437  79.377  1.00  0.00     0.158 C 
BRANCH  40  41
ATOM     41  C   UNL     1      97.087  81.995  77.985  1.00  0.00    -0.033 A 
ATOM     42  C   UNL     1      97.457  80.670  77.750  1.00  0.00     0.054 A 
ATOM     43  C   UNL     1      97.061  82.909  76.932  1.00  0.00     0.008 A 
ATOM     44  C   UNL     1      97.802  80.260  76.461  1.00  0.00     0.160 A 
ATOM     45  C   UNL     1      97.405  82.499  75.643  1.00  0.00     0.050 A 
ATOM     46  C   UNL     1      97.775  81.175  75.408  1.00  0.00     0.157 A 
BRANCH  44  47
ATOM     47  O   UNL     1      98.162  78.965  76.244  1.00  0.00    -0.493 OA
ATOM     48  C   UNL     1      99.547  78.647  76.370  1.00  0.00     0.278 C 
ENDBRANCH  44  47
BRANCH  46  49
ATOM     49  O   UNL     1      98.108  80.787  74.146  1.00  0.00    -0.504 OA
ATOM     50  H   UNL     1      98.271  81.577  73.604  1.00  0.00     0.293 HD
ENDBRANCH  46  49
ENDBRANCH  40  41
ENDBRANCH  38  40
ENDBRANCH  37  38
ENDBRANCH   1  37
TORSDOF 11
ENDMDL
MODEL 9
REMARK VINA RESULT:    -5.539      2.768      5.848
REMARK INTER + INTRA:         -11.032
REMARK INTER:                  -8.270
REMARK INTRA:                  -2.761
REMARK UNBOUND:                -1.283
REMARK SMILES C=C(C)[C@]12C[C@@H](C)[C@@]34O[C@](Cc5ccccc5)(O[C@@H]1[C@@H]3C=C(COC(=O)Cc1ccc(O)c(OC)c1)C[C@]1(O)C(=O)C(C)=C[C@@H]41)O2
REMARK SMILES IDX 23 1 22 2 21 3 20 4 9 5 8 6 10 7 6 8 18 9 46 10 19 11 5 12
REMARK SMILES IDX 7 13 4 14 45 15 38 16 44 17 40 18 42 20 41 21 43 22 39 23
REMARK SMILES IDX 11 25 12 26 13 27 17 28 14 29 16 30 15 31 2 32 3 33 1 34
REMARK SMILES IDX 37 35 24 37 25 38 26 39 27 40 28 41 36 42 29 43 33 44 30 45
REMARK SMILES IDX 31 46 34 47 35 48 32 49
REMARK H PARENT 39 24 32 50
REMARK Flexibility Score: 90.00
ROOT
ATOM      1  C   UNL     1      61.031  89.599  72.885  1.00  0.00     0.264 C 
ENDROOT
BRANCH   1   2
ATOM      2  C   UNL     1      62.395  88.996  73.127  1.00  0.00    -0.033 C 
ATOM      3  C   UNL     1      62.631  88.344  74.283  1.00  0.00    -0.015 C 
BRANCH   3   4
ATOM      4  C   UNL     1      63.922  87.724  74.794  1.00  0.00     0.078 C 
ATOM      5  O   UNL     1      63.917  85.356  74.078  1.00  0.00    -0.319 OA
ATOM      6  C   UNL     1      64.625  86.624  73.914  1.00  0.00     0.095 C 
ATOM      7  C   UNL     1      63.530  85.036  75.428  1.00  0.00     0.289 C 
ATOM      8  C   UNL     1      66.111  86.466  74.440  1.00  0.00     0.023 C 
ATOM      9  O   UNL     1      62.706  86.057  75.985  1.00  0.00    -0.320 OA
ATOM     10  O   UNL     1      64.652  84.928  76.301  1.00  0.00    -0.313 OA
ATOM     11  C   UNL     1      63.685  87.089  76.187  1.00  0.00     0.170 C 
ATOM     12  C   UNL     1      66.201  86.705  75.979  1.00  0.00     0.049 C 
ATOM     13  C   UNL     1      66.798  85.137  74.088  1.00  0.00     0.011 C 
ATOM     14  C   UNL     1      64.913  86.291  76.692  1.00  0.00     0.122 C 
BRANCH   6  15
ATOM     15  C   UNL     1      64.483  86.955  72.400  1.00  0.00     0.086 C 
ATOM     16  C   UNL     1      64.698  88.431  72.004  1.00  0.00     0.140 CG0
ATOM     17  C   UNL     1      65.312  86.200  71.400  1.00  0.00    -0.010 C 
ATOM     18  C   UNL     1      65.342  88.311  70.639  1.00  0.00     0.190 C 
ATOM     19  G   UNL     1      63.387  89.215  71.965  1.00  0.00     0.000 G0
ATOM     20  C   UNL     1      65.787  86.928  70.384  1.00  0.00    -0.008 C 
ATOM     21  O   UNL     1      65.525  89.233  69.859  1.00  0.00    -0.291 OA
ATOM     22  C   UNL     1      66.557  86.512  69.193  1.00  0.00     0.048 C 
BRANCH  16  23
ATOM     23  O   UNL     1      65.677  89.098  72.783  1.00  0.00    -0.381 OA
ATOM     24  H   UNL     1      66.345  89.470  72.184  1.00  0.00     0.212 HD
ENDBRANCH  16  23
ENDBRANCH   6  15
BRANCH   7  25
ATOM     25  C   UNL     1      62.776  83.723  75.408  1.00  0.00     0.135 C 
BRANCH  25  26
ATOM     26  C   UNL     1      63.645  82.578  74.951  1.00  0.00    -0.040 A 
ATOM     27  C   UNL     1      63.626  82.178  73.615  1.00  0.00     0.004 A 
ATOM     28  C   UNL     1      64.469  81.920  75.864  1.00  0.00     0.004 A 
ATOM     29  C   UNL     1      64.431  81.119  73.192  1.00  0.00     0.000 A 
ATOM     30  C   UNL     1      65.274  80.862  75.441  1.00  0.00     0.000 A 
ATOM     31  C   UNL     1      65.254  80.462  74.105  1.00  0.00     0.000 A 
ENDBRANCH  25  26
ENDBRANCH   7  25
BRANCH  14  32
ATOM     32  C   UNL     1      65.039  86.338  78.180  1.00  0.00    -0.046 C 
ATOM     33  C   UNL     1      66.369  85.935  78.744  1.00  0.00     0.042 C 
ATOM     34  C   UNL     1      64.022  86.720  78.966  1.00  0.00     0.010 C 
ENDBRANCH  14  32
ENDBRANCH   3   4
BRANCH   2  35
ATOM     35  C   UNL     1      63.355  89.214  71.973  1.00  0.00     0.078 CG0
ATOM     36  G   UNL     1      64.668  88.433  71.999  1.00  0.00     0.000 G0
ENDBRANCH   2  35
ENDBRANCH   1   2
BRANCH   1  37
ATOM     37  O   UNL     1      61.118  91.004  72.979  1.00  0.00    -0.461 OA
BRANCH  37  38
ATOM     38  C   UNL     1      60.433  91.588  74.019  1.00  0.00     0.310 C 
ATOM     39  O   UNL     1      59.265  91.364  74.305  1.00  0.00    -0.252 OA
BRANCH  38  40
ATOM     40  C   UNL     1      61.346  92.545  74.750  1.00  0.00     0.158 C 
BRANCH  40  41
ATOM     41  C   UNL     1      62.375  91.843  75.599  1.00  0.00    -0.033 A 
ATOM     42  C   UNL     1      61.979  91.143  76.739  1.00  0.00     0.054 A 
ATOM     43  C   UNL     1      63.723  91.893  75.244  1.00  0.00     0.008 A 
ATOM     44  C   UNL     1      62.931  90.493  77.524  1.00  0.00     0.160 A 
ATOM     45  C   UNL     1      64.675  91.243  76.030  1.00  0.00     0.050 A 
ATOM     46  C   UNL     1      64.280  90.544  77.169  1.00  0.00     0.157 A 
BRANCH  44  47
ATOM     47  O   UNL     1      62.532  89.813  78.635  1.00  0.00    -0.493 OA
ATOM     48  C   UNL     1      61.170  89.392  78.683  1.00  0.00     0.278 C 
ENDBRANCH  44  47
BRANCH  46  49
ATOM     49  O   UNL     1      65.219  89.912  77.928  1.00  0.00    -0.504 OA
ATOM     50  H   UNL     1      66.080  89.972  77.481  1.00  0.00     0.293 HD
ENDBRANCH  46  49
ENDBRANCH  40  41
ENDBRANCH  38  40
ENDBRANCH  37  38
ENDBRANCH   1  37
TORSDOF 11
ENDMDL
MODEL 10
REMARK VINA RESULT:    -5.520     11.152     14.416
REMARK INTER + INTRA:         -10.998
REMARK INTER:                 -10.106
REMARK INTRA:                  -0.892
REMARK UNBOUND:                -1.283
REMARK SMILES C=C(C)[C@]12C[C@@H](C)[C@@]34O[C@](Cc5ccccc5)(O[C@@H]1[C@@H]3C=C(COC(=O)Cc1ccc(O)c(OC)c1)C[C@]1(O)C(=O)C(C)=C[C@@H]41)O2
REMARK SMILES IDX 23 1 22 2 21 3 20 4 9 5 8 6 10 7 6 8 18 9 46 10 19 11 5 12
REMARK SMILES IDX 7 13 4 14 45 15 38 16 44 17 40 18 42 20 41 21 43 22 39 23
REMARK SMILES IDX 11 25 12 26 13 27 17 28 14 29 16 30 15 31 2 32 3 33 1 34
REMARK SMILES IDX 37 35 24 37 25 38 26 39 27 40 28 41 36 42 29 43 33 44 30 45
REMARK SMILES IDX 31 46 34 47 35 48 32 49
REMARK H PARENT 39 24 32 50
REMARK Flexibility Score: 90.00
ROOT
ATOM      1  C   UNL     1      75.002  94.804  74.975  1.00  0.00     0.264 C 
ENDROOT
BRANCH   1   2
ATOM      2  C   UNL     1      75.410  94.275  73.620  1.00  0.00    -0.033 C 
ATOM      3  C   UNL     1      74.600  93.408  72.979  1.00  0.00    -0.015 C 
BRANCH   3   4
ATOM      4  C   UNL     1      74.814  92.681  71.662  1.00  0.00     0.078 C 
ATOM      5  O   UNL     1      73.816  94.090  69.890  1.00  0.00    -0.319 OA
ATOM      6  C   UNL     1      75.081  93.538  70.368  1.00  0.00     0.095 C 
ATOM      7  C   UNL     1      72.699  93.182  69.914  1.00  0.00     0.289 C 
ATOM      8  C   UNL     1      75.679  92.569  69.266  1.00  0.00     0.023 C 
ATOM      9  O   UNL     1      72.472  92.676  71.227  1.00  0.00    -0.320 OA
ATOM     10  O   UNL     1      72.914  92.037  69.093  1.00  0.00    -0.313 OA
ATOM     11  C   UNL     1      73.591  91.784  71.351  1.00  0.00     0.170 C 
ATOM     12  C   UNL     1      75.093  91.129  69.392  1.00  0.00     0.049 C 
ATOM     13  C   UNL     1      75.537  93.054  67.814  1.00  0.00     0.011 C 
ATOM     14  C   UNL     1      73.666  91.145  69.941  1.00  0.00     0.122 C 
BRANCH   6  15
ATOM     15  C   UNL     1      75.948  94.786  70.703  1.00  0.00     0.086 C 
ATOM     16  C   UNL     1      77.132  94.554  71.665  1.00  0.00     0.140 CG0
ATOM     17  C   UNL     1      76.559  95.580  69.583  1.00  0.00    -0.010 C 
ATOM     18  C   UNL     1      78.172  95.522  71.142  1.00  0.00     0.190 C 
ATOM     19  G   UNL     1      76.756  94.829  73.120  1.00  0.00     0.000 G0
ATOM     20  C   UNL     1      77.797  96.031  69.809  1.00  0.00    -0.008 C 
ATOM     21  O   UNL     1      79.214  95.816  71.708  1.00  0.00    -0.291 OA
ATOM     22  C   UNL     1      78.660  96.900  68.982  1.00  0.00     0.048 C 
BRANCH  16  23
ATOM     23  O   UNL     1      77.748  93.285  71.521  1.00  0.00    -0.381 OA
ATOM     24  H   UNL     1      77.210  92.627  71.991  1.00  0.00     0.212 HD
ENDBRANCH  16  23
ENDBRANCH   6  15
BRANCH   7  25
ATOM     25  C   UNL     1      71.470  93.926  69.433  1.00  0.00     0.135 C 
BRANCH  25  26
ATOM     26  C   UNL     1      70.193  93.247  69.862  1.00  0.00    -0.040 A 
ATOM     27  C   UNL     1      69.487  93.722  70.967  1.00  0.00     0.004 A 
ATOM     28  C   UNL     1      69.717  92.144  69.152  1.00  0.00     0.004 A 
ATOM     29  C   UNL     1      68.306  93.094  71.364  1.00  0.00     0.000 A 
ATOM     30  C   UNL     1      68.536  91.516  69.549  1.00  0.00     0.000 A 
ATOM     31  C   UNL     1      67.831  91.992  70.655  1.00  0.00     0.000 A 
ENDBRANCH  25  26
ENDBRANCH   7  25
BRANCH  14  32
ATOM     32  C   UNL     1      73.019  89.799  69.900  1.00  0.00    -0.046 C 
ATOM     33  C   UNL     1      73.812  88.703  69.252  1.00  0.00     0.042 C 
ATOM     34  C   UNL     1      71.799  89.583  70.412  1.00  0.00     0.010 C 
ENDBRANCH  14  32
ENDBRANCH   3   4
BRANCH   2  35
ATOM     35  C   UNL     1      76.740  94.826  73.142  1.00  0.00     0.078 CG0
ATOM     36  G   UNL     1      77.131  94.548  71.691  1.00  0.00     0.000 G0
ENDBRANCH   2  35
ENDBRANCH   1   2
BRANCH   1  37
ATOM     37  O   UNL     1      74.721  93.720  75.834  1.00  0.00    -0.461 OA
BRANCH  37  38
ATOM     38  C   UNL     1      73.734  93.926  76.770  1.00  0.00     0.310 C 
ATOM     39  O   UNL     1      72.555  94.132  76.515  1.00  0.00    -0.252 OA
BRANCH  38  40
ATOM     40  C   UNL     1      74.331  93.857  78.156  1.00  0.00     0.158 C 
BRANCH  40  41
ATOM     41  C   UNL     1      73.654  92.840  79.038  1.00  0.00    -0.033 A 
ATOM     42  C   UNL     1      73.063  93.241  80.238  1.00  0.00     0.054 A 
ATOM     43  C   UNL     1      73.617  91.500  78.656  1.00  0.00     0.008 A 
ATOM     44  C   UNL     1      72.436  92.300  81.055  1.00  0.00     0.160 A 
ATOM     45  C   UNL     1      72.990  90.558  79.473  1.00  0.00     0.050 A 
ATOM     46  C   UNL     1      72.400  90.958  80.672  1.00  0.00     0.157 A 
BRANCH  44  47
ATOM     47  O   UNL     1      71.863  92.702  82.223  1.00  0.00    -0.493 OA
ATOM     48  C   UNL     1      72.724  92.841  83.353  1.00  0.00     0.278 C 
ENDBRANCH  44  47
BRANCH  46  49
ATOM     49  O   UNL     1      71.790  90.030  81.461  1.00  0.00    -0.504 OA
ATOM     50  H   UNL     1      70.928  89.803  81.073  1.00  0.00     0.293 HD
ENDBRANCH  46  49
ENDBRANCH  40  41
ENDBRANCH  38  40
ENDBRANCH  37  38
ENDBRANCH   1  37
TORSDOF 11
ENDMDL
