MODEL 1
REMARK VINA RESULT:    -6.672      0.000      0.000
REMARK INTER + INTRA:         -12.991
REMARK INTER:                 -11.743
REMARK INTRA:                  -1.248
REMARK UNBOUND:                -1.248
REMARK SMILES C=C(C)[C@]12C[C@@H](C)[C@@]34O[C@](Cc5ccccc5)(O[C@@H]1[C@@H]3C=C(COC(=O)Cc1ccc(O)c(OC)c1)C[C@]1(O)C(=O)C(C)=C[C@@H]41)O2
REMARK SMILES IDX 23 1 22 2 21 3 20 4 9 5 8 6 10 7 6 8 18 9 46 10 19 11 5 12
REMARK SMILES IDX 7 13 4 14 45 15 38 16 44 17 40 18 42 20 41 21 43 22 39 23
REMARK SMILES IDX 11 25 12 26 13 27 17 28 14 29 16 30 15 31 2 32 3 33 1 34
REMARK SMILES IDX 37 35 24 37 25 38 26 39 27 40 28 41 36 42 29 43 33 44 30 45
REMARK SMILES IDX 31 46 34 47 35 48 32 49
REMARK H PARENT 39 24 32 50
REMARK Flexibility Score: 90.00
ROOT
ATOM      1  C   UNL     1      69.321  83.846  67.493  1.00  0.00     0.264 C 
ENDROOT
BRANCH   1   2
ATOM      2  C   UNL     1      70.465  84.308  66.620  1.00  0.00    -0.033 C 
ATOM      3  C   UNL     1      70.856  85.598  66.675  1.00  0.00    -0.015 C 
BRANCH   3   4
ATOM      4  C   UNL     1      71.912  86.320  65.855  1.00  0.00     0.078 C 
ATOM      5  O   UNL     1      74.021  86.214  67.144  1.00  0.00    -0.319 OA
ATOM      6  C   UNL     1      73.391  85.782  65.898  1.00  0.00     0.095 C 
ATOM      7  C   UNL     1      73.757  87.576  67.529  1.00  0.00     0.289 C 
ATOM      8  C   UNL     1      74.169  86.416  64.672  1.00  0.00     0.023 C 
ATOM      9  O   UNL     1      72.357  87.814  67.657  1.00  0.00    -0.320 OA
ATOM     10  O   UNL     1      74.220  88.512  66.559  1.00  0.00    -0.313 OA
ATOM     11  C   UNL     1      71.974  87.810  66.273  1.00  0.00     0.170 C 
ATOM     12  C   UNL     1      73.650  87.850  64.346  1.00  0.00     0.049 C 
ATOM     13  C   UNL     1      75.700  86.444  64.804  1.00  0.00     0.011 C 
ATOM     14  C   UNL     1      73.145  88.567  65.599  1.00  0.00     0.122 C 
BRANCH   6  15
ATOM     15  C   UNL     1      73.411  84.228  65.971  1.00  0.00     0.086 C 
ATOM     16  C   UNL     1      72.420  83.491  65.045  1.00  0.00     0.140 CG0
ATOM     17  C   UNL     1      74.705  83.496  65.751  1.00  0.00    -0.010 C 
ATOM     18  C   UNL     1      73.188  82.238  64.678  1.00  0.00     0.190 C 
ATOM     19  G   UNL     1      71.097  83.183  65.745  1.00  0.00     0.000 G0
ATOM     20  C   UNL     1      74.609  82.361  65.052  1.00  0.00    -0.008 C 
ATOM     21  O   UNL     1      72.722  81.266  64.103  1.00  0.00    -0.291 OA
ATOM     22  C   UNL     1      75.642  81.357  64.720  1.00  0.00     0.048 C 
BRANCH  16  23
ATOM     23  O   UNL     1      72.210  84.137  63.801  1.00  0.00    -0.381 OA
ATOM     24  H   UNL     1      71.278  84.026  63.551  1.00  0.00     0.212 HD
ENDBRANCH  16  23
ENDBRANCH   6  15
BRANCH   7  25
ATOM     25  C   UNL     1      74.444  87.838  68.854  1.00  0.00     0.135 C 
BRANCH  25  26
ATOM     26  C   UNL     1      74.267  89.265  69.310  1.00  0.00    -0.040 A 
ATOM     27  C   UNL     1      73.045  89.680  69.842  1.00  0.00     0.004 A 
ATOM     28  C   UNL     1      75.324  90.168  69.202  1.00  0.00     0.004 A 
ATOM     29  C   UNL     1      72.881  91.000  70.264  1.00  0.00     0.000 A 
ATOM     30  C   UNL     1      75.160  91.488  69.625  1.00  0.00     0.000 A 
ATOM     31  C   UNL     1      73.938  91.903  70.155  1.00  0.00     0.000 A 
ENDBRANCH  25  26
ENDBRANCH   7  25
BRANCH  14  32
ATOM     32  C   UNL     1      72.814  90.002  65.345  1.00  0.00    -0.046 C 
ATOM     33  C   UNL     1      73.627  91.012  66.099  1.00  0.00     0.042 C 
ATOM     34  C   UNL     1      71.845  90.367  64.492  1.00  0.00     0.010 C 
ENDBRANCH  14  32
ENDBRANCH   3   4
BRANCH   2  35
ATOM     35  C   UNL     1      71.048  83.198  65.766  1.00  0.00     0.078 CG0
ATOM     36  G   UNL     1      72.377  83.479  65.068  1.00  0.00     0.000 G0
ENDBRANCH   2  35
ENDBRANCH   1   2
BRANCH   1  37
ATOM     37  O   UNL     1      69.172  84.737  68.577  1.00  0.00    -0.461 OA
BRANCH  37  38
ATOM     38  C   UNL     1      68.229  84.396  69.519  1.00  0.00     0.310 C 
ATOM     39  O   UNL     1      67.126  83.927  69.272  1.00  0.00    -0.252 OA
BRANCH  38  40
ATOM     40  C   UNL     1      68.766  84.689  70.900  1.00  0.00     0.158 C 
BRANCH  40  41
ATOM     41  C   UNL     1      67.982  85.755  71.622  1.00  0.00    -0.033 A 
ATOM     42  C   UNL     1      67.390  85.472  72.853  1.00  0.00     0.054 A 
ATOM     43  C   UNL     1      67.849  87.024  71.059  1.00  0.00     0.008 A 
ATOM     44  C   UNL     1      66.664  86.459  73.521  1.00  0.00     0.160 A 
ATOM     45  C   UNL     1      67.123  88.011  71.727  1.00  0.00     0.050 A 
ATOM     46  C   UNL     1      66.531  87.729  72.957  1.00  0.00     0.157 A 
BRANCH  44  47
ATOM     47  O   UNL     1      66.091  86.171  74.722  1.00  0.00    -0.493 OA
ATOM     48  C   UNL     1      64.829  85.506  74.695  1.00  0.00     0.278 C 
ENDBRANCH  44  47
BRANCH  46  49
ATOM     49  O   UNL     1      65.826  88.700  73.600  1.00  0.00    -0.504 OA
ATOM     50  H   UNL     1      66.081  89.567  73.242  1.00  0.00     0.293 HD
ENDBRANCH  46  49
ENDBRANCH  40  41
ENDBRANCH  38  40
ENDBRANCH  37  38
ENDBRANCH   1  37
TORSDOF 11
ENDMDL
MODEL 2
REMARK VINA RESULT:    -6.390     27.680     30.507
REMARK INTER + INTRA:         -12.494
REMARK INTER:                 -11.612
REMARK INTRA:                  -0.882
REMARK UNBOUND:                -1.248
REMARK SMILES C=C(C)[C@]12C[C@@H](C)[C@@]34O[C@](Cc5ccccc5)(O[C@@H]1[C@@H]3C=C(COC(=O)Cc1ccc(O)c(OC)c1)C[C@]1(O)C(=O)C(C)=C[C@@H]41)O2
REMARK SMILES IDX 23 1 22 2 21 3 20 4 9 5 8 6 10 7 6 8 18 9 46 10 19 11 5 12
REMARK SMILES IDX 7 13 4 14 45 15 38 16 44 17 40 18 42 20 41 21 43 22 39 23
REMARK SMILES IDX 11 25 12 26 13 27 17 28 14 29 16 30 15 31 2 32 3 33 1 34
REMARK SMILES IDX 37 35 24 37 25 38 26 39 27 40 28 41 36 42 29 43 33 44 30 45
REMARK SMILES IDX 31 46 34 47 35 48 32 49
REMARK H PARENT 39 24 32 50
REMARK Flexibility Score: 90.00
ROOT
ATOM      1  C   UNL     1      98.656  77.122  79.194  1.00  0.00     0.264 C 
ENDROOT
BRANCH   1   2
ATOM      2  C   UNL     1      99.510  77.360  77.971  1.00  0.00    -0.033 C 
ATOM      3  C   UNL     1      98.942  77.864  76.857  1.00  0.00    -0.015 C 
BRANCH   3   4
ATOM      4  C   UNL     1      99.557  78.120  75.491  1.00  0.00     0.078 C 
ATOM      5  O   UNL     1     100.355  80.461  75.487  1.00  0.00    -0.319 OA
ATOM      6  C   UNL     1     100.805  79.074  75.399  1.00  0.00     0.095 C 
ATOM      7  C   UNL     1      99.172  80.775  74.728  1.00  0.00     0.289 C 
ATOM      8  C   UNL     1     101.489  78.835  73.989  1.00  0.00     0.023 C 
ATOM      9  O   UNL     1      98.076  79.948  75.112  1.00  0.00    -0.320 OA
ATOM     10  O   UNL     1      99.350  80.552  73.331  1.00  0.00    -0.313 OA
ATOM     11  C   UNL     1      98.487  78.700  74.533  1.00  0.00     0.170 C 
ATOM     12  C   UNL     1     100.435  78.480  72.896  1.00  0.00     0.049 C 
ATOM     13  C   UNL     1     102.383  79.980  73.486  1.00  0.00     0.011 C 
ATOM     14  C   UNL     1      99.086  79.143  73.174  1.00  0.00     0.122 C 
BRANCH   6  15
ATOM     15  C   UNL     1     101.734  78.888  76.633  1.00  0.00     0.086 C 
ATOM     16  C   UNL     1     101.990  77.433  77.078  1.00  0.00     0.140 CG0
ATOM     17  C   UNL     1     103.109  79.496  76.618  1.00  0.00    -0.010 C 
ATOM     18  C   UNL     1     103.417  77.492  77.581  1.00  0.00     0.190 C 
ATOM     19  G   UNL     1     101.008  76.979  78.157  1.00  0.00     0.000 G0
ATOM     20  C   UNL     1     104.072  78.748  77.168  1.00  0.00    -0.008 C 
ATOM     21  O   UNL     1     103.986  76.608  78.202  1.00  0.00    -0.291 OA
ATOM     22  C   UNL     1     105.498  79.054  77.400  1.00  0.00     0.048 C 
BRANCH  16  23
ATOM     23  O   UNL     1     102.047  76.507  76.007  1.00  0.00    -0.381 OA
ATOM     24  H   UNL     1     102.977  76.384  75.755  1.00  0.00     0.212 HD
ENDBRANCH  16  23
ENDBRANCH   6  15
BRANCH   7  25
ATOM     25  C   UNL     1      98.824  82.230  74.968  1.00  0.00     0.135 C 
BRANCH  25  26
ATOM     26  C   UNL     1      97.759  82.389  76.025  1.00  0.00    -0.040 A 
ATOM     27  C   UNL     1      96.549  83.008  75.707  1.00  0.00     0.004 A 
ATOM     28  C   UNL     1      97.983  81.918  77.318  1.00  0.00     0.004 A 
ATOM     29  C   UNL     1      95.564  83.155  76.684  1.00  0.00     0.000 A 
ATOM     30  C   UNL     1      96.997  82.065  78.295  1.00  0.00     0.000 A 
ATOM     31  C   UNL     1      95.788  82.684  77.977  1.00  0.00     0.000 A 
ENDBRANCH  25  26
ENDBRANCH   7  25
BRANCH  14  32
ATOM     32  C   UNL     1      98.117  78.968  72.050  1.00  0.00    -0.046 C 
ATOM     33  C   UNL     1      97.053  80.017  71.924  1.00  0.00     0.042 C 
ATOM     34  C   UNL     1      98.194  77.932  71.202  1.00  0.00     0.010 C 
ENDBRANCH  14  32
ENDBRANCH   3   4
BRANCH   2  35
ATOM     35  C   UNL     1     100.966  76.986  78.180  1.00  0.00     0.078 CG0
ATOM     36  G   UNL     1     101.963  77.433  77.112  1.00  0.00     0.000 G0
ENDBRANCH   2  35
ENDBRANCH   1   2
BRANCH   1  37
ATOM     37  O   UNL     1      99.260  77.736  80.312  1.00  0.00    -0.461 OA
BRANCH  37  38
ATOM     38  C   UNL     1      98.490  77.820  81.449  1.00  0.00     0.310 C 
ATOM     39  O   UNL     1      98.783  77.334  82.533  1.00  0.00    -0.252 OA
BRANCH  38  40
ATOM     40  C   UNL     1      97.234  78.604  81.151  1.00  0.00     0.158 C 
BRANCH  40  41
ATOM     41  C   UNL     1      97.095  79.840  82.003  1.00  0.00    -0.033 A 
ATOM     42  C   UNL     1      97.117  79.733  83.394  1.00  0.00     0.054 A 
ATOM     43  C   UNL     1      96.947  81.089  81.401  1.00  0.00     0.008 A 
ATOM     44  C   UNL     1      96.989  80.877  84.182  1.00  0.00     0.160 A 
ATOM     45  C   UNL     1      96.818  82.232  82.189  1.00  0.00     0.050 A 
ATOM     46  C   UNL     1      96.839  82.127  83.580  1.00  0.00     0.157 A 
BRANCH  44  47
ATOM     47  O   UNL     1      97.011  80.761  85.539  1.00  0.00    -0.493 OA
ATOM     48  C   UNL     1      97.906  79.797  86.093  1.00  0.00     0.278 C 
ENDBRANCH  44  47
BRANCH  46  49
ATOM     49  O   UNL     1      96.715  83.250  84.339  1.00  0.00    -0.504 OA
ATOM     50  H   UNL     1      97.025  83.059  85.240  1.00  0.00     0.293 HD
ENDBRANCH  46  49
ENDBRANCH  40  41
ENDBRANCH  38  40
ENDBRANCH  37  38
ENDBRANCH   1  37
TORSDOF 11
ENDMDL
MODEL 3
REMARK VINA RESULT:    -6.325      5.407     12.442
REMARK INTER + INTRA:         -12.379
REMARK INTER:                 -10.676
REMARK INTRA:                  -1.703
REMARK UNBOUND:                -1.248
REMARK SMILES C=C(C)[C@]12C[C@@H](C)[C@@]34O[C@](Cc5ccccc5)(O[C@@H]1[C@@H]3C=C(COC(=O)Cc1ccc(O)c(OC)c1)C[C@]1(O)C(=O)C(C)=C[C@@H]41)O2
REMARK SMILES IDX 23 1 22 2 21 3 20 4 9 5 8 6 10 7 6 8 18 9 46 10 19 11 5 12
REMARK SMILES IDX 7 13 4 14 45 15 38 16 44 17 40 18 42 20 41 21 43 22 39 23
REMARK SMILES IDX 11 25 12 26 13 27 17 28 14 29 16 30 15 31 2 32 3 33 1 34
REMARK SMILES IDX 37 35 24 37 25 38 26 39 27 40 28 41 36 42 29 43 33 44 30 45
REMARK SMILES IDX 31 46 34 47 35 48 32 49
REMARK H PARENT 39 24 32 50
REMARK Flexibility Score: 90.00
ROOT
ATOM      1  C   UNL     1      64.805  87.670  70.045  1.00  0.00     0.264 C 
ENDROOT
BRANCH   1   2
ATOM      2  C   UNL     1      63.982  87.508  71.301  1.00  0.00    -0.033 C 
ATOM      3  C   UNL     1      62.769  86.923  71.224  1.00  0.00    -0.015 C 
BRANCH   3   4
ATOM      4  C   UNL     1      61.728  86.713  72.312  1.00  0.00     0.078 C 
ATOM      5  O   UNL     1      62.147  84.479  73.288  1.00  0.00    -0.319 OA
ATOM      6  C   UNL     1      62.142  85.906  73.599  1.00  0.00     0.095 C 
ATOM      7  C   UNL     1      61.037  84.017  72.495  1.00  0.00     0.289 C 
ATOM      8  C   UNL     1      61.056  86.196  74.716  1.00  0.00     0.023 C 
ATOM      9  O   UNL     1      60.958  84.720  71.258  1.00  0.00    -0.320 OA
ATOM     10  O   UNL     1      59.784  84.232  73.140  1.00  0.00    -0.313 OA
ATOM     11  C   UNL     1      60.489  85.996  71.722  1.00  0.00     0.170 C 
ATOM     12  C   UNL     1      59.641  86.406  74.096  1.00  0.00     0.049 C 
ATOM     13  C   UNL     1      60.972  85.151  75.841  1.00  0.00     0.011 C 
ATOM     14  C   UNL     1      59.461  85.598  72.810  1.00  0.00     0.122 C 
BRANCH   6  15
ATOM     15  C   UNL     1      63.613  86.222  73.998  1.00  0.00     0.086 C 
ATOM     16  C   UNL     1      64.037  87.703  73.917  1.00  0.00     0.140 CG0
ATOM     17  C   UNL     1      64.120  85.786  75.344  1.00  0.00    -0.010 C 
ATOM     18  C   UNL     1      65.014  87.825  75.067  1.00  0.00     0.190 C 
ATOM     19  G   UNL     1      64.671  88.049  72.571  1.00  0.00     0.000 G0
ATOM     20  C   UNL     1      64.932  86.653  75.958  1.00  0.00    -0.008 C 
ATOM     21  O   UNL     1      65.745  88.782  75.277  1.00  0.00    -0.291 OA
ATOM     22  C   UNL     1      65.671  86.527  77.232  1.00  0.00     0.048 C 
BRANCH  16  23
ATOM     23  O   UNL     1      63.004  88.615  74.253  1.00  0.00    -0.381 OA
ATOM     24  H   UNL     1      62.537  88.863  73.438  1.00  0.00     0.212 HD
ENDBRANCH  16  23
ENDBRANCH   6  15
BRANCH   7  25
ATOM     25  C   UNL     1      61.224  82.537  72.231  1.00  0.00     0.135 C 
BRANCH  25  26
ATOM     26  C   UNL     1      62.353  82.272  71.266  1.00  0.00    -0.040 A 
ATOM     27  C   UNL     1      62.094  82.182  69.898  1.00  0.00     0.004 A 
ATOM     28  C   UNL     1      63.655  82.120  71.741  1.00  0.00     0.004 A 
ATOM     29  C   UNL     1      63.138  81.938  69.005  1.00  0.00     0.000 A 
ATOM     30  C   UNL     1      64.699  81.875  70.848  1.00  0.00     0.000 A 
ATOM     31  C   UNL     1      64.440  81.785  69.480  1.00  0.00     0.000 A 
ENDBRANCH  25  26
ENDBRANCH   7  25
BRANCH  14  32
ATOM     32  C   UNL     1      58.058  85.639  72.298  1.00  0.00    -0.046 C 
ATOM     33  C   UNL     1      57.275  84.364  72.409  1.00  0.00     0.042 C 
ATOM     34  C   UNL     1      57.527  86.752  71.770  1.00  0.00     0.010 C 
ENDBRANCH  14  32
ENDBRANCH   3   4
BRANCH   2  35
ATOM     35  C   UNL     1      64.673  88.046  72.539  1.00  0.00     0.078 CG0
ATOM     36  G   UNL     1      64.052  87.703  73.892  1.00  0.00     0.000 G0
ENDBRANCH   2  35
ENDBRANCH   1   2
BRANCH   1  37
ATOM     37  O   UNL     1      64.038  87.270  68.929  1.00  0.00    -0.461 OA
BRANCH  37  38
ATOM     38  C   UNL     1      64.617  86.341  68.096  1.00  0.00     0.310 C 
ATOM     39  O   UNL     1      64.818  86.500  66.899  1.00  0.00    -0.252 OA
BRANCH  38  40
ATOM     40  C   UNL     1      64.962  85.100  68.885  1.00  0.00     0.158 C 
BRANCH  40  41
ATOM     41  C   UNL     1      66.434  84.988  69.190  1.00  0.00    -0.033 A 
ATOM     42  C   UNL     1      67.364  84.987  68.150  1.00  0.00     0.054 A 
ATOM     43  C   UNL     1      66.866  84.887  70.512  1.00  0.00     0.008 A 
ATOM     44  C   UNL     1      68.726  84.883  68.433  1.00  0.00     0.160 A 
ATOM     45  C   UNL     1      68.228  84.783  70.795  1.00  0.00     0.050 A 
ATOM     46  C   UNL     1      69.158  84.781  69.756  1.00  0.00     0.157 A 
BRANCH  44  47
ATOM     47  O   UNL     1      69.624  84.883  67.409  1.00  0.00    -0.493 OA
ATOM     48  C   UNL     1      69.283  84.127  66.248  1.00  0.00     0.278 C 
ENDBRANCH  44  47
BRANCH  46  49
ATOM     49  O   UNL     1      70.485  84.681  70.044  1.00  0.00    -0.504 OA
ATOM     50  H   UNL     1      70.939  85.481  69.729  1.00  0.00     0.293 HD
ENDBRANCH  46  49
ENDBRANCH  40  41
ENDBRANCH  38  40
ENDBRANCH  37  38
ENDBRANCH   1  37
TORSDOF 11
ENDMDL
MODEL 4
REMARK VINA RESULT:    -6.214      5.814     11.128
REMARK INTER + INTRA:         -12.184
REMARK INTER:                 -10.403
REMARK INTRA:                  -1.781
REMARK UNBOUND:                -1.248
REMARK SMILES C=C(C)[C@]12C[C@@H](C)[C@@]34O[C@](Cc5ccccc5)(O[C@@H]1[C@@H]3C=C(COC(=O)Cc1ccc(O)c(OC)c1)C[C@]1(O)C(=O)C(C)=C[C@@H]41)O2
REMARK SMILES IDX 23 1 22 2 21 3 20 4 9 5 8 6 10 7 6 8 18 9 46 10 19 11 5 12
REMARK SMILES IDX 7 13 4 14 45 15 38 16 44 17 40 18 42 20 41 21 43 22 39 23
REMARK SMILES IDX 11 25 12 26 13 27 17 28 14 29 16 30 15 31 2 32 3 33 1 34
REMARK SMILES IDX 37 35 24 37 25 38 26 39 27 40 28 41 36 42 29 43 33 44 30 45
REMARK SMILES IDX 31 46 34 47 35 48 32 49
REMARK H PARENT 39 24 32 50
REMARK Flexibility Score: 90.00
ROOT
ATOM      1  C   UNL     1      75.805  96.529  69.917  1.00  0.00     0.264 C 
ENDROOT
BRANCH   1   2
ATOM      2  C   UNL     1      74.735  95.469  70.040  1.00  0.00    -0.033 C 
ATOM      3  C   UNL     1      74.638  94.517  69.090  1.00  0.00    -0.015 C 
BRANCH   3   4
ATOM      4  C   UNL     1      73.615  93.402  68.943  1.00  0.00     0.078 C 
ATOM      5  O   UNL     1      74.554  91.411  70.071  1.00  0.00    -0.319 OA
ATOM      6  C   UNL     1      73.456  92.372  70.123  1.00  0.00     0.095 C 
ATOM      7  C   UNL     1      74.889  90.928  68.756  1.00  0.00     0.289 C 
ATOM      8  C   UNL     1      72.082  91.610  69.913  1.00  0.00     0.023 C 
ATOM      9  O   UNL     1      75.223  92.002  67.880  1.00  0.00    -0.320 OA
ATOM     10  O   UNL     1      73.799  90.250  68.135  1.00  0.00    -0.313 OA
ATOM     11  C   UNL     1      73.921  92.572  67.672  1.00  0.00     0.170 C 
ATOM     12  C   UNL     1      71.753  91.435  68.398  1.00  0.00     0.049 C 
ATOM     13  C   UNL     1      71.966  90.252  70.622  1.00  0.00     0.011 C 
ATOM     14  C   UNL     1      73.022  91.317  67.553  1.00  0.00     0.122 C 
BRANCH   6  15
ATOM     15  C   UNL     1      73.624  93.080  71.499  1.00  0.00     0.086 C 
ATOM     16  C   UNL     1      72.920  94.444  71.653  1.00  0.00     0.140 CG0
ATOM     17  C   UNL     1      73.243  92.347  72.755  1.00  0.00    -0.010 C 
ATOM     18  C   UNL     1      72.514  94.439  73.112  1.00  0.00     0.190 C 
ATOM     19  G   UNL     1      73.844  95.611  71.307  1.00  0.00     0.000 G0
ATOM     20  C   UNL     1      72.643  93.089  73.692  1.00  0.00    -0.008 C 
ATOM     21  O   UNL     1      72.086  95.401  73.731  1.00  0.00    -0.291 OA
ATOM     22  C   UNL     1      72.213  92.730  75.059  1.00  0.00     0.048 C 
BRANCH  16  23
ATOM     23  O   UNL     1      71.688  94.536  70.959  1.00  0.00    -0.381 OA
ATOM     24  H   UNL     1      71.137  93.776  71.209  1.00  0.00     0.212 HD
ENDBRANCH  16  23
ENDBRANCH   6  15
BRANCH   7  25
ATOM     25  C   UNL     1      76.067  89.984  68.881  1.00  0.00     0.135 C 
BRANCH  25  26
ATOM     26  C   UNL     1      76.164  89.042  67.707  1.00  0.00    -0.040 A 
ATOM     27  C   UNL     1      76.335  89.549  66.418  1.00  0.00     0.004 A 
ATOM     28  C   UNL     1      76.084  87.664  67.909  1.00  0.00     0.004 A 
ATOM     29  C   UNL     1      76.424  88.678  65.332  1.00  0.00     0.000 A 
ATOM     30  C   UNL     1      76.174  86.793  66.823  1.00  0.00     0.000 A 
ATOM     31  C   UNL     1      76.344  87.301  65.535  1.00  0.00     0.000 A 
ENDBRANCH  25  26
ENDBRANCH   7  25
BRANCH  14  32
ATOM     32  C   UNL     1      72.733  90.966  66.130  1.00  0.00    -0.046 C 
ATOM     33  C   UNL     1      72.851  89.515  65.768  1.00  0.00     0.042 C 
ATOM     34  C   UNL     1      72.389  91.896  65.226  1.00  0.00     0.010 C 
ENDBRANCH  14  32
ENDBRANCH   3   4
BRANCH   2  35
ATOM     35  C   UNL     1      73.880  95.629  71.283  1.00  0.00     0.078 CG0
ATOM     36  G   UNL     1      72.951  94.471  71.646  1.00  0.00     0.000 G0
ENDBRANCH   2  35
ENDBRANCH   1   2
BRANCH   1  37
ATOM     37  O   UNL     1      77.075  95.929  70.062  1.00  0.00    -0.461 OA
BRANCH  37  38
ATOM     38  C   UNL     1      78.001  96.634  70.794  1.00  0.00     0.310 C 
ATOM     39  O   UNL     1      79.174  96.787  70.483  1.00  0.00    -0.252 OA
BRANCH  38  40
ATOM     40  C   UNL     1      77.346  97.187  72.038  1.00  0.00     0.158 C 
BRANCH  40  41
ATOM     41  C   UNL     1      77.814  96.510  73.300  1.00  0.00    -0.033 A 
ATOM     42  C   UNL     1      77.433  95.195  73.569  1.00  0.00     0.054 A 
ATOM     43  C   UNL     1      78.629  97.197  74.199  1.00  0.00     0.008 A 
ATOM     44  C   UNL     1      77.867  94.568  74.737  1.00  0.00     0.160 A 
ATOM     45  C   UNL     1      79.063  96.571  75.368  1.00  0.00     0.050 A 
ATOM     46  C   UNL     1      78.682  95.256  75.637  1.00  0.00     0.157 A 
BRANCH  44  47
ATOM     47  O   UNL     1      77.488  93.284  74.989  1.00  0.00    -0.493 OA
ATOM     48  C   UNL     1      76.118  93.066  75.323  1.00  0.00     0.278 C 
ENDBRANCH  44  47
BRANCH  46  49
ATOM     49  O   UNL     1      79.112  94.654  76.780  1.00  0.00    -0.504 OA
ATOM     50  H   UNL     1      79.962  95.046  77.044  1.00  0.00     0.293 HD
ENDBRANCH  46  49
ENDBRANCH  40  41
ENDBRANCH  38  40
ENDBRANCH  37  38
ENDBRANCH   1  37
TORSDOF 11
ENDMDL
MODEL 5
REMARK VINA RESULT:    -6.178      2.436      3.481
REMARK INTER + INTRA:         -12.122
REMARK INTER:                 -11.271
REMARK INTRA:                  -0.852
REMARK UNBOUND:                -1.248
REMARK SMILES C=C(C)[C@]12C[C@@H](C)[C@@]34O[C@](Cc5ccccc5)(O[C@@H]1[C@@H]3C=C(COC(=O)Cc1ccc(O)c(OC)c1)C[C@]1(O)C(=O)C(C)=C[C@@H]41)O2
REMARK SMILES IDX 23 1 22 2 21 3 20 4 9 5 8 6 10 7 6 8 18 9 46 10 19 11 5 12
REMARK SMILES IDX 7 13 4 14 45 15 38 16 44 17 40 18 42 20 41 21 43 22 39 23
REMARK SMILES IDX 11 25 12 26 13 27 17 28 14 29 16 30 15 31 2 32 3 33 1 34
REMARK SMILES IDX 37 35 24 37 25 38 26 39 27 40 28 41 36 42 29 43 33 44 30 45
REMARK SMILES IDX 31 46 34 47 35 48 32 49
REMARK H PARENT 39 24 32 50
REMARK Flexibility Score: 90.00
ROOT
ATOM      1  C   UNL     1      68.307  84.537  68.641  1.00  0.00     0.264 C 
ENDROOT
BRANCH   1   2
ATOM      2  C   UNL     1      69.240  84.879  67.503  1.00  0.00    -0.033 C 
ATOM      3  C   UNL     1      69.703  86.140  67.386  1.00  0.00    -0.015 C 
BRANCH   3   4
ATOM      4  C   UNL     1      70.578  86.750  66.303  1.00  0.00     0.078 C 
ATOM      5  O   UNL     1      72.922  86.536  67.067  1.00  0.00    -0.319 OA
ATOM      6  C   UNL     1      71.988  86.105  66.029  1.00  0.00     0.095 C 
ATOM      7  C   UNL     1      72.843  87.928  67.427  1.00  0.00     0.289 C 
ATOM      8  C   UNL     1      72.490  86.631  64.621  1.00  0.00     0.023 C 
ATOM      9  O   UNL     1      71.531  88.275  67.865  1.00  0.00    -0.320 OA
ATOM     10  O   UNL     1      73.121  88.789  66.326  1.00  0.00    -0.313 OA
ATOM     11  C   UNL     1      70.831  88.246  66.612  1.00  0.00     0.170 C 
ATOM     12  C   UNL     1      72.001  88.086  64.347  1.00  0.00     0.049 C 
ATOM     13  C   UNL     1      74.008  86.550  64.389  1.00  0.00     0.011 C 
ATOM     14  C   UNL     1      71.855  88.887  65.642  1.00  0.00     0.122 C 
BRANCH   6  15
ATOM     15  C   UNL     1      71.926  84.557  66.181  1.00  0.00     0.086 C 
ATOM     16  C   UNL     1      70.693  83.863  65.565  1.00  0.00     0.140 CG0
ATOM     17  C   UNL     1      73.077  83.723  65.694  1.00  0.00    -0.010 C 
ATOM     18  C   UNL     1      71.265  82.543  65.093  1.00  0.00     0.190 C 
ATOM     19  G   UNL     1      69.566  83.682  66.580  1.00  0.00     0.000 G0
ATOM     20  C   UNL     1      72.740  82.571  65.103  1.00  0.00    -0.008 C 
ATOM     21  O   UNL     1      70.612  81.587  64.702  1.00  0.00    -0.291 OA
ATOM     22  C   UNL     1      73.593  81.482  64.586  1.00  0.00     0.048 C 
BRANCH  16  23
ATOM     23  O   UNL     1      70.225  84.474  64.375  1.00  0.00    -0.381 OA
ATOM     24  H   UNL     1      69.255  84.515  64.412  1.00  0.00     0.212 HD
ENDBRANCH  16  23
ENDBRANCH   6  15
BRANCH   7  25
ATOM     25  C   UNL     1      73.840  88.189  68.538  1.00  0.00     0.135 C 
BRANCH  25  26
ATOM     26  C   UNL     1      74.870  87.092  68.642  1.00  0.00    -0.040 A 
ATOM     27  C   UNL     1      76.124  87.255  68.053  1.00  0.00     0.004 A 
ATOM     28  C   UNL     1      74.570  85.916  69.329  1.00  0.00     0.004 A 
ATOM     29  C   UNL     1      77.077  86.241  68.149  1.00  0.00     0.000 A 
ATOM     30  C   UNL     1      75.523  84.902  69.425  1.00  0.00     0.000 A 
ATOM     31  C   UNL     1      76.776  85.065  68.835  1.00  0.00     0.000 A 
ENDBRANCH  25  26
ENDBRANCH   7  25
BRANCH  14  32
ATOM     32  C   UNL     1      71.564  90.331  65.394  1.00  0.00    -0.046 C 
ATOM     33  C   UNL     1      71.640  90.787  63.967  1.00  0.00     0.042 C 
ATOM     34  C   UNL     1      71.254  91.174  66.391  1.00  0.00     0.010 C 
ENDBRANCH  14  32
ENDBRANCH   3   4
BRANCH   2  35
ATOM     35  C   UNL     1      69.549  83.692  66.610  1.00  0.00     0.078 CG0
ATOM     36  G   UNL     1      70.664  83.864  65.580  1.00  0.00     0.000 G0
ENDBRANCH   2  35
ENDBRANCH   1   2
BRANCH   1  37
ATOM     37  O   UNL     1      67.093  85.238  68.476  1.00  0.00    -0.461 OA
BRANCH  37  38
ATOM     38  C   UNL     1      66.429  85.584  69.630  1.00  0.00     0.310 C 
ATOM     39  O   UNL     1      65.797  86.619  69.792  1.00  0.00    -0.252 OA
BRANCH  38  40
ATOM     40  C   UNL     1      66.601  84.492  70.659  1.00  0.00     0.158 C 
BRANCH  40  41
ATOM     41  C   UNL     1      65.360  83.659  70.845  1.00  0.00    -0.033 A 
ATOM     42  C   UNL     1      64.360  84.083  71.722  1.00  0.00     0.054 A 
ATOM     43  C   UNL     1      65.210  82.464  70.142  1.00  0.00     0.008 A 
ATOM     44  C   UNL     1      63.211  83.311  71.894  1.00  0.00     0.160 A 
ATOM     45  C   UNL     1      64.061  81.692  70.314  1.00  0.00     0.050 A 
ATOM     46  C   UNL     1      63.062  82.115  71.190  1.00  0.00     0.157 A 
BRANCH  44  47
ATOM     47  O   UNL     1      62.243  83.735  72.753  1.00  0.00    -0.493 OA
ATOM     48  C   UNL     1      61.823  85.093  72.637  1.00  0.00     0.278 C 
ENDBRANCH  44  47
BRANCH  46  49
ATOM     49  O   UNL     1      61.944  81.354  71.350  1.00  0.00    -0.504 OA
ATOM     50  H   UNL     1      61.392  81.431  70.553  1.00  0.00     0.293 HD
ENDBRANCH  46  49
ENDBRANCH  40  41
ENDBRANCH  38  40
ENDBRANCH  37  38
ENDBRANCH   1  37
TORSDOF 11
ENDMDL
MODEL 6
REMARK VINA RESULT:    -6.072      5.977     10.297
REMARK INTER + INTRA:         -11.935
REMARK INTER:                 -10.411
REMARK INTRA:                  -1.524
REMARK UNBOUND:                -1.248
REMARK SMILES C=C(C)[C@]12C[C@@H](C)[C@@]34O[C@](Cc5ccccc5)(O[C@@H]1[C@@H]3C=C(COC(=O)Cc1ccc(O)c(OC)c1)C[C@]1(O)C(=O)C(C)=C[C@@H]41)O2
REMARK SMILES IDX 23 1 22 2 21 3 20 4 9 5 8 6 10 7 6 8 18 9 46 10 19 11 5 12
REMARK SMILES IDX 7 13 4 14 45 15 38 16 44 17 40 18 42 20 41 21 43 22 39 23
REMARK SMILES IDX 11 25 12 26 13 27 17 28 14 29 16 30 15 31 2 32 3 33 1 34
REMARK SMILES IDX 37 35 24 37 25 38 26 39 27 40 28 41 36 42 29 43 33 44 30 45
REMARK SMILES IDX 31 46 34 47 35 48 32 49
REMARK H PARENT 39 24 32 50
REMARK Flexibility Score: 90.00
ROOT
ATOM      1  C   UNL     1      66.623  88.017  71.064  1.00  0.00     0.264 C 
ENDROOT
BRANCH   1   2
ATOM      2  C   UNL     1      66.315  86.596  70.652  1.00  0.00    -0.033 C 
ATOM      3  C   UNL     1      65.325  85.928  71.278  1.00  0.00    -0.015 C 
BRANCH   3   4
ATOM      4  C   UNL     1      64.876  84.486  71.107  1.00  0.00     0.078 C 
ATOM      5  O   UNL     1      63.054  84.494  69.433  1.00  0.00    -0.319 OA
ATOM      6  C   UNL     1      64.411  84.012  69.679  1.00  0.00     0.095 C 
ATOM      7  C   UNL     1      62.146  84.375  70.544  1.00  0.00     0.289 C 
ATOM      8  C   UNL     1      64.412  82.427  69.677  1.00  0.00     0.023 C 
ATOM      9  O   UNL     1      62.639  85.063  71.691  1.00  0.00    -0.320 OA
ATOM     10  O   UNL     1      61.968  83.022  70.954  1.00  0.00    -0.313 OA
ATOM     11  C   UNL     1      63.706  84.181  72.074  1.00  0.00     0.170 C 
ATOM     12  C   UNL     1      64.037  81.853  71.078  1.00  0.00     0.049 C 
ATOM     13  C   UNL     1      63.532  81.768  68.602  1.00  0.00     0.011 C 
ATOM     14  C   UNL     1      63.086  82.782  71.834  1.00  0.00     0.122 C 
BRANCH   6  15
ATOM     15  C   UNL     1      65.270  84.682  68.568  1.00  0.00     0.086 C 
ATOM     16  C   UNL     1      66.788  84.754  68.833  1.00  0.00     0.140 CG0
ATOM     17  C   UNL     1      65.185  84.166  67.159  1.00  0.00    -0.010 C 
ATOM     18  C   UNL     1      67.369  84.595  67.444  1.00  0.00     0.190 C 
ATOM     19  G   UNL     1      67.198  86.071  69.491  1.00  0.00     0.000 G0
ATOM     20  C   UNL     1      66.343  84.131  66.492  1.00  0.00    -0.008 C 
ATOM     21  O   UNL     1      68.540  84.772  67.141  1.00  0.00    -0.291 OA
ATOM     22  C   UNL     1      66.621  83.767  65.087  1.00  0.00     0.048 C 
BRANCH  16  23
ATOM     23  O   UNL     1      67.300  83.640  69.544  1.00  0.00    -0.381 OA
ATOM     24  H   UNL     1      66.617  83.329  70.161  1.00  0.00     0.212 HD
ENDBRANCH  16  23
ENDBRANCH   6  15
BRANCH   7  25
ATOM     25  C   UNL     1      60.810  84.959  70.131  1.00  0.00     0.135 C 
BRANCH  25  26
ATOM     26  C   UNL     1      60.051  85.521  71.307  1.00  0.00    -0.040 A 
ATOM     27  C   UNL     1      59.625  84.674  72.331  1.00  0.00     0.004 A 
ATOM     28  C   UNL     1      59.778  86.887  71.373  1.00  0.00     0.004 A 
ATOM     29  C   UNL     1      58.923  85.194  73.419  1.00  0.00     0.000 A 
ATOM     30  C   UNL     1      59.076  87.406  72.461  1.00  0.00     0.000 A 
ATOM     31  C   UNL     1      58.649  86.559  73.484  1.00  0.00     0.000 A 
ENDBRANCH  25  26
ENDBRANCH   7  25
BRANCH  14  32
ATOM     32  C   UNL     1      62.570  82.172  73.096  1.00  0.00    -0.046 C 
ATOM     33  C   UNL     1      62.917  82.887  74.367  1.00  0.00     0.042 C 
ATOM     34  C   UNL     1      61.837  81.048  73.093  1.00  0.00     0.010 C 
ENDBRANCH  14  32
ENDBRANCH   3   4
BRANCH   2  35
ATOM     35  C   UNL     1      67.204  86.096  69.529  1.00  0.00     0.078 CG0
ATOM     36  G   UNL     1      66.802  84.788  68.850  1.00  0.00     0.000 G0
ENDBRANCH   2  35
ENDBRANCH   1   2
BRANCH   1  37
ATOM     37  O   UNL     1      65.594  88.493  71.905  1.00  0.00    -0.461 OA
BRANCH  37  38
ATOM     38  C   UNL     1      65.950  89.462  72.814  1.00  0.00     0.310 C 
ATOM     39  O   UNL     1      65.394  90.544  72.941  1.00  0.00    -0.252 OA
BRANCH  38  40
ATOM     40  C   UNL     1      67.130  88.982  73.626  1.00  0.00     0.158 C 
BRANCH  40  41
ATOM     41  C   UNL     1      66.738  88.475  74.990  1.00  0.00    -0.033 A 
ATOM     42  C   UNL     1      65.485  87.893  75.183  1.00  0.00     0.054 A 
ATOM     43  C   UNL     1      67.628  88.588  76.058  1.00  0.00     0.008 A 
ATOM     44  C   UNL     1      65.122  87.423  76.446  1.00  0.00     0.160 A 
ATOM     45  C   UNL     1      67.265  88.118  77.321  1.00  0.00     0.050 A 
ATOM     46  C   UNL     1      66.012  87.537  77.515  1.00  0.00     0.157 A 
BRANCH  44  47
ATOM     47  O   UNL     1      63.896  86.857  76.623  1.00  0.00    -0.493 OA
ATOM     48  C   UNL     1      62.788  87.502  75.997  1.00  0.00     0.278 C 
ENDBRANCH  44  47
BRANCH  46  49
ATOM     49  O   UNL     1      65.669  87.081  78.752  1.00  0.00    -0.504 OA
ATOM     50  H   UNL     1      64.866  87.541  79.047  1.00  0.00     0.293 HD
ENDBRANCH  46  49
ENDBRANCH  40  41
ENDBRANCH  38  40
ENDBRANCH  37  38
ENDBRANCH   1  37
TORSDOF 11
ENDMDL
MODEL 7
REMARK VINA RESULT:    -6.048     29.063     32.060
REMARK INTER + INTRA:         -11.893
REMARK INTER:                  -9.500
REMARK INTRA:                  -2.394
REMARK UNBOUND:                -1.248
REMARK SMILES C=C(C)[C@]12C[C@@H](C)[C@@]34O[C@](Cc5ccccc5)(O[C@@H]1[C@@H]3C=C(COC(=O)Cc1ccc(O)c(OC)c1)C[C@]1(O)C(=O)C(C)=C[C@@H]41)O2
REMARK SMILES IDX 23 1 22 2 21 3 20 4 9 5 8 6 10 7 6 8 18 9 46 10 19 11 5 12
REMARK SMILES IDX 7 13 4 14 45 15 38 16 44 17 40 18 42 20 41 21 43 22 39 23
REMARK SMILES IDX 11 25 12 26 13 27 17 28 14 29 16 30 15 31 2 32 3 33 1 34
REMARK SMILES IDX 37 35 24 37 25 38 26 39 27 40 28 41 36 42 29 43 33 44 30 45
REMARK SMILES IDX 31 46 34 47 35 48 32 49
REMARK H PARENT 39 24 32 50
REMARK Flexibility Score: 90.00
ROOT
ATOM      1  C   UNL     1      96.824  82.545  91.947  1.00  0.00     0.264 C 
ENDROOT
BRANCH   1   2
ATOM      2  C   UNL     1      95.688  83.059  91.093  1.00  0.00    -0.033 C 
ATOM      3  C   UNL     1      95.701  82.821  89.766  1.00  0.00    -0.015 C 
BRANCH   3   4
ATOM      4  C   UNL     1      94.732  83.288  88.692  1.00  0.00     0.078 C 
ATOM      5  O   UNL     1      93.030  81.512  88.434  1.00  0.00    -0.319 OA
ATOM      6  C   UNL     1      93.212  82.905  88.837  1.00  0.00     0.095 C 
ATOM      7  C   UNL     1      93.747  81.113  87.251  1.00  0.00     0.289 C 
ATOM      8  C   UNL     1      92.386  83.843  87.863  1.00  0.00     0.023 C 
ATOM      9  O   UNL     1      95.148  81.333  87.396  1.00  0.00    -0.320 OA
ATOM     10  O   UNL     1      93.357  81.863  86.104  1.00  0.00    -0.313 OA
ATOM     11  C   UNL     1      95.189  82.766  87.308  1.00  0.00     0.170 C 
ATOM     12  C   UNL     1      93.198  84.190  86.578  1.00  0.00     0.049 C 
ATOM     13  C   UNL     1      90.996  83.321  87.465  1.00  0.00     0.011 C 
ATOM     14  C   UNL     1      94.155  83.061  86.192  1.00  0.00     0.122 C 
BRANCH   6  15
ATOM     15  C   UNL     1      92.774  82.939  90.330  1.00  0.00     0.086 C 
ATOM     16  C   UNL     1      93.286  84.133  91.162  1.00  0.00     0.140 CG0
ATOM     17  C   UNL     1      91.311  82.878  90.669  1.00  0.00    -0.010 C 
ATOM     18  C   UNL     1      92.137  84.383  92.115  1.00  0.00     0.190 C 
ATOM     19  G   UNL     1      94.591  83.811  91.889  1.00  0.00     0.000 G0
ATOM     20  C   UNL     1      90.927  83.657  91.686  1.00  0.00    -0.008 C 
ATOM     21  O   UNL     1      92.171  85.123  93.086  1.00  0.00    -0.291 OA
ATOM     22  C   UNL     1      89.607  83.788  92.337  1.00  0.00     0.048 C 
BRANCH  16  23
ATOM     23  O   UNL     1      93.387  85.342  90.428  1.00  0.00    -0.381 OA
ATOM     24  H   UNL     1      94.207  85.792  90.690  1.00  0.00     0.212 HD
ENDBRANCH  16  23
ENDBRANCH   6  15
BRANCH   7  25
ATOM     25  C   UNL     1      93.482  79.641  87.008  1.00  0.00     0.135 C 
BRANCH  25  26
ATOM     26  C   UNL     1      92.129  79.406  86.384  1.00  0.00    -0.040 A 
ATOM     27  C   UNL     1      92.033  78.777  85.142  1.00  0.00     0.004 A 
ATOM     28  C   UNL     1      90.973  79.816  87.048  1.00  0.00     0.004 A 
ATOM     29  C   UNL     1      90.782  78.559  84.565  1.00  0.00     0.000 A 
ATOM     30  C   UNL     1      89.722  79.598  86.471  1.00  0.00     0.000 A 
ATOM     31  C   UNL     1      89.627  78.970  85.229  1.00  0.00     0.000 A 
ENDBRANCH  25  26
ENDBRANCH   7  25
BRANCH  14  32
ATOM     32  C   UNL     1      94.809  83.290  84.868  1.00  0.00    -0.046 C 
ATOM     33  C   UNL     1      94.949  82.088  83.982  1.00  0.00     0.042 C 
ATOM     34  C   UNL     1      95.246  84.501  84.493  1.00  0.00     0.010 C 
ENDBRANCH  14  32
ENDBRANCH   3   4
BRANCH   2  35
ATOM     35  C   UNL     1      94.633  83.803  91.890  1.00  0.00     0.078 CG0
ATOM     36  G   UNL     1      93.312  84.109  91.187  1.00  0.00     0.000 G0
ENDBRANCH   2  35
ENDBRANCH   1   2
BRANCH   1  37
ATOM     37  O   UNL     1      98.022  83.183  91.562  1.00  0.00    -0.461 OA
BRANCH  37  38
ATOM     38  C   UNL     1      98.282  84.398  92.154  1.00  0.00     0.310 C 
ATOM     39  O   UNL     1      98.161  84.639  93.347  1.00  0.00    -0.252 OA
BRANCH  38  40
ATOM     40  C   UNL     1      98.737  85.384  91.103  1.00  0.00     0.158 C 
BRANCH  40  41
ATOM     41  C   UNL     1      97.612  86.230  90.565  1.00  0.00    -0.033 A 
ATOM     42  C   UNL     1      96.914  87.087  91.418  1.00  0.00     0.054 A 
ATOM     43  C   UNL     1      97.268  86.158  89.215  1.00  0.00     0.008 A 
ATOM     44  C   UNL     1      95.873  87.871  90.919  1.00  0.00     0.160 A 
ATOM     45  C   UNL     1      96.227  86.942  88.717  1.00  0.00     0.050 A 
ATOM     46  C   UNL     1      95.530  87.798  89.569  1.00  0.00     0.157 A 
BRANCH  44  47
ATOM     47  O   UNL     1      95.200  88.703  91.761  1.00  0.00    -0.493 OA
ATOM     48  C   UNL     1      95.845  89.923  92.121  1.00  0.00     0.278 C 
ENDBRANCH  44  47
BRANCH  46  49
ATOM     49  O   UNL     1      94.516  88.559  89.071  1.00  0.00    -0.504 OA
ATOM     50  H   UNL     1      94.251  88.206  88.205  1.00  0.00     0.293 HD
ENDBRANCH  46  49
ENDBRANCH  40  41
ENDBRANCH  38  40
ENDBRANCH  37  38
ENDBRANCH   1  37
TORSDOF 11
ENDMDL
MODEL 8
REMARK VINA RESULT:    -5.927     26.955     29.567
REMARK INTER + INTRA:         -11.679
REMARK INTER:                 -10.850
REMARK INTRA:                  -0.828
REMARK UNBOUND:                -1.248
REMARK SMILES C=C(C)[C@]12C[C@@H](C)[C@@]34O[C@](Cc5ccccc5)(O[C@@H]1[C@@H]3C=C(COC(=O)Cc1ccc(O)c(OC)c1)C[C@]1(O)C(=O)C(C)=C[C@@H]41)O2
REMARK SMILES IDX 23 1 22 2 21 3 20 4 9 5 8 6 10 7 6 8 18 9 46 10 19 11 5 12
REMARK SMILES IDX 7 13 4 14 45 15 38 16 44 17 40 18 42 20 41 21 43 22 39 23
REMARK SMILES IDX 11 25 12 26 13 27 17 28 14 29 16 30 15 31 2 32 3 33 1 34
REMARK SMILES IDX 37 35 24 37 25 38 26 39 27 40 28 41 36 42 29 43 33 44 30 45
REMARK SMILES IDX 31 46 34 47 35 48 32 49
REMARK H PARENT 39 24 32 50
REMARK Flexibility Score: 90.00
ROOT
ATOM      1  C   UNL     1      97.417  79.928  80.579  1.00  0.00     0.264 C 
ENDROOT
BRANCH   1   2
ATOM      2  C   UNL     1      97.629  79.131  79.313  1.00  0.00    -0.033 C 
ATOM      3  C   UNL     1      97.576  79.760  78.122  1.00  0.00    -0.015 C 
BRANCH   3   4
ATOM      4  C   UNL     1      97.678  79.181  76.720  1.00  0.00     0.078 C 
ATOM      5  O   UNL     1     100.057  79.317  76.055  1.00  0.00    -0.319 OA
ATOM      6  C   UNL     1      98.975  78.376  76.335  1.00  0.00     0.095 C 
ATOM      7  C   UNL     1      99.686  80.469  75.275  1.00  0.00     0.289 C 
ATOM      8  C   UNL     1      98.652  77.545  75.024  1.00  0.00     0.023 C 
ATOM      9  O   UNL     1      98.637  81.203  75.902  1.00  0.00    -0.320 OA
ATOM     10  O   UNL     1      99.190  80.113  73.987  1.00  0.00    -0.313 OA
ATOM     11  C   UNL     1      97.534  80.312  75.672  1.00  0.00     0.170 C 
ATOM     12  C   UNL     1      97.650  78.303  74.100  1.00  0.00     0.049 C 
ATOM     13  C   UNL     1      99.876  77.108  74.202  1.00  0.00     0.011 C 
ATOM     14  C   UNL     1      97.798  79.819  74.227  1.00  0.00     0.122 C 
BRANCH   6  15
ATOM     15  C   UNL     1      99.487  77.543  77.545  1.00  0.00     0.086 C 
ATOM     16  C   UNL     1      98.409  76.814  78.374  1.00  0.00     0.140 CG0
ATOM     17  C   UNL     1     100.532  76.485  77.322  1.00  0.00    -0.010 C 
ATOM     18  C   UNL     1      99.125  75.549  78.799  1.00  0.00     0.190 C 
ATOM     19  G   UNL     1      97.935  77.646  79.564  1.00  0.00     0.000 G0
ATOM     20  C   UNL     1     100.372  75.364  78.033  1.00  0.00    -0.008 C 
ATOM     21  O   UNL     1      98.717  74.749  79.627  1.00  0.00    -0.291 OA
ATOM     22  C   UNL     1     101.233  74.168  78.130  1.00  0.00     0.048 C 
BRANCH  16  23
ATOM     23  O   UNL     1      97.316  76.341  77.604  1.00  0.00    -0.381 OA
ATOM     24  H   UNL     1      96.494  76.559  78.073  1.00  0.00     0.212 HD
ENDBRANCH  16  23
ENDBRANCH   6  15
BRANCH   7  25
ATOM     25  C   UNL     1     100.907  81.352  75.120  1.00  0.00     0.135 C 
BRANCH  25  26
ATOM     26  C   UNL     1     100.743  82.355  74.005  1.00  0.00    -0.040 A 
ATOM     27  C   UNL     1     101.457  82.200  72.817  1.00  0.00     0.004 A 
ATOM     28  C   UNL     1      99.876  83.436  74.162  1.00  0.00     0.004 A 
ATOM     29  C   UNL     1     101.304  83.127  71.785  1.00  0.00     0.000 A 
ATOM     30  C   UNL     1      99.723  84.363  73.130  1.00  0.00     0.000 A 
ATOM     31  C   UNL     1     100.438  84.208  71.942  1.00  0.00     0.000 A 
ENDBRANCH  25  26
ENDBRANCH   7  25
BRANCH  14  32
ATOM     32  C   UNL     1      96.980  80.563  73.222  1.00  0.00    -0.046 C 
ATOM     33  C   UNL     1      96.648  79.823  71.960  1.00  0.00     0.042 C 
ATOM     34  C   UNL     1      96.565  81.821  73.436  1.00  0.00     0.010 C 
ENDBRANCH  14  32
ENDBRANCH   3   4
BRANCH   2  35
ATOM     35  C   UNL     1      97.894  77.660  79.573  1.00  0.00     0.078 CG0
ATOM     36  G   UNL     1      98.392  76.821  78.397  1.00  0.00     0.000 G0
ENDBRANCH   2  35
ENDBRANCH   1   2
BRANCH   1  37
ATOM     37  O   UNL     1      98.212  79.385  81.611  1.00  0.00    -0.461 OA
BRANCH  37  38
ATOM     38  C   UNL     1      98.269  80.109  82.780  1.00  0.00     0.310 C 
ATOM     39  O   UNL     1      98.799  79.730  83.815  1.00  0.00    -0.252 OA
BRANCH  38  40
ATOM     40  C   UNL     1      97.576  81.437  82.585  1.00  0.00     0.158 C 
BRANCH  40  41
ATOM     41  C   UNL     1      96.363  81.602  83.464  1.00  0.00    -0.033 A 
ATOM     42  C   UNL     1      96.087  82.841  84.045  1.00  0.00     0.054 A 
ATOM     43  C   UNL     1      95.517  80.519  83.696  1.00  0.00     0.008 A 
ATOM     44  C   UNL     1      94.964  82.994  84.858  1.00  0.00     0.160 A 
ATOM     45  C   UNL     1      94.394  80.672  84.509  1.00  0.00     0.050 A 
ATOM     46  C   UNL     1      94.118  81.909  85.091  1.00  0.00     0.157 A 
BRANCH  44  47
ATOM     47  O   UNL     1      94.705  84.207  85.420  1.00  0.00    -0.493 OA
ATOM     48  C   UNL     1      95.308  84.478  86.684  1.00  0.00     0.278 C 
ENDBRANCH  44  47
BRANCH  46  49
ATOM     49  O   UNL     1      93.018  82.047  85.882  1.00  0.00    -0.504 OA
ATOM     50  H   UNL     1      93.145  82.810  86.470  1.00  0.00     0.293 HD
ENDBRANCH  46  49
ENDBRANCH  40  41
ENDBRANCH  38  40
ENDBRANCH  37  38
ENDBRANCH   1  37
TORSDOF 11
ENDMDL
MODEL 9
REMARK VINA RESULT:    -5.466     28.449     31.495
REMARK INTER + INTRA:         -10.868
REMARK INTER:                  -9.589
REMARK INTRA:                  -1.279
REMARK UNBOUND:                -1.248
REMARK SMILES C=C(C)[C@]12C[C@@H](C)[C@@]34O[C@](Cc5ccccc5)(O[C@@H]1[C@@H]3C=C(COC(=O)Cc1ccc(O)c(OC)c1)C[C@]1(O)C(=O)C(C)=C[C@@H]41)O2
REMARK SMILES IDX 23 1 22 2 21 3 20 4 9 5 8 6 10 7 6 8 18 9 46 10 19 11 5 12
REMARK SMILES IDX 7 13 4 14 45 15 38 16 44 17 40 18 42 20 41 21 43 22 39 23
REMARK SMILES IDX 11 25 12 26 13 27 17 28 14 29 16 30 15 31 2 32 3 33 1 34
REMARK SMILES IDX 37 35 24 37 25 38 26 39 27 40 28 41 36 42 29 43 33 44 30 45
REMARK SMILES IDX 31 46 34 47 35 48 32 49
REMARK H PARENT 39 24 32 50
REMARK Flexibility Score: 90.00
ROOT
ATOM      1  C   UNL     1      96.155  85.261  89.007  1.00  0.00     0.264 C 
ENDROOT
BRANCH   1   2
ATOM      2  C   UNL     1      94.751  84.767  89.268  1.00  0.00    -0.033 C 
ATOM      3  C   UNL     1      94.188  83.895  88.408  1.00  0.00    -0.015 C 
BRANCH   3   4
ATOM      4  C   UNL     1      92.783  83.315  88.403  1.00  0.00     0.078 C 
ATOM      5  O   UNL     1      92.878  81.186  89.659  1.00  0.00    -0.319 OA
ATOM      6  C   UNL     1      92.295  82.526  89.674  1.00  0.00     0.095 C 
ATOM      7  C   UNL     1      92.877  80.528  88.378  1.00  0.00     0.289 C 
ATOM      8  C   UNL     1      90.716  82.410  89.591  1.00  0.00     0.023 C 
ATOM      9  O   UNL     1      93.565  81.301  87.398  1.00  0.00    -0.320 OA
ATOM     10  O   UNL     1      91.560  80.342  87.867  1.00  0.00    -0.313 OA
ATOM     11  C   UNL     1      92.613  82.358  87.198  1.00  0.00     0.170 C 
ATOM     12  C   UNL     1      90.229  82.299  88.113  1.00  0.00     0.049 C 
ATOM     13  C   UNL     1      90.093  81.276  90.421  1.00  0.00     0.011 C 
ATOM     14  C   UNL     1      91.262  81.600  87.228  1.00  0.00     0.122 C 
BRANCH   6  15
ATOM     15  C   UNL     1      92.849  83.176  90.975  1.00  0.00     0.086 C 
ATOM     16  C   UNL     1      92.825  84.718  91.028  1.00  0.00     0.140 CG0
ATOM     17  C   UNL     1      92.275  82.772  92.303  1.00  0.00    -0.010 C 
ATOM     18  C   UNL     1      92.559  84.990  92.493  1.00  0.00     0.190 C 
ATOM     19  G   UNL     1      94.138  85.333  90.547  1.00  0.00     0.000 G0
ATOM     20  C   UNL     1      92.126  83.763  93.188  1.00  0.00    -0.008 C 
ATOM     21  O   UNL     1      92.637  86.081  93.036  1.00  0.00    -0.291 OA
ATOM     22  C   UNL     1      91.677  83.723  94.595  1.00  0.00     0.048 C 
BRANCH  16  23
ATOM     23  O   UNL     1      91.711  85.297  90.369  1.00  0.00    -0.381 OA
ATOM     24  H   UNL     1      91.385  86.037  90.908  1.00  0.00     0.212 HD
ENDBRANCH  16  23
ENDBRANCH   6  15
BRANCH   7  25
ATOM     25  C   UNL     1      93.554  79.181  88.535  1.00  0.00     0.135 C 
BRANCH  25  26
ATOM     26  C   UNL     1      92.786  78.080  87.847  1.00  0.00    -0.040 A 
ATOM     27  C   UNL     1      91.923  77.267  88.582  1.00  0.00     0.004 A 
ATOM     28  C   UNL     1      92.939  77.874  86.476  1.00  0.00     0.004 A 
ATOM     29  C   UNL     1      91.213  76.248  87.946  1.00  0.00     0.000 A 
ATOM     30  C   UNL     1      92.229  76.855  85.840  1.00  0.00     0.000 A 
ATOM     31  C   UNL     1      91.366  76.042  86.576  1.00  0.00     0.000 A 
ENDBRANCH  25  26
ENDBRANCH   7  25
BRANCH  14  32
ATOM     32  C   UNL     1      90.745  81.320  85.854  1.00  0.00    -0.046 C 
ATOM     33  C   UNL     1      89.463  80.546  85.774  1.00  0.00     0.042 C 
ATOM     34  C   UNL     1      91.391  81.737  84.755  1.00  0.00     0.010 C 
ENDBRANCH  14  32
ENDBRANCH   3   4
BRANCH   2  35
ATOM     35  C   UNL     1      94.143  85.344  90.532  1.00  0.00     0.078 CG0
ATOM     36  G   UNL     1      92.836  84.724  91.026  1.00  0.00     0.000 G0
ENDBRANCH   2  35
ENDBRANCH   1   2
BRANCH   1  37
ATOM     37  O   UNL     1      96.109  86.337  88.095  1.00  0.00    -0.461 OA
BRANCH  37  38
ATOM     38  C   UNL     1      96.560  87.549  88.561  1.00  0.00     0.310 C 
ATOM     39  O   UNL     1      97.518  87.703  89.305  1.00  0.00    -0.252 OA
BRANCH  38  40
ATOM     40  C   UNL     1      95.691  88.656  88.012  1.00  0.00     0.158 C 
BRANCH  40  41
ATOM     41  C   UNL     1      94.770  89.249  89.048  1.00  0.00    -0.033 A 
ATOM     42  C   UNL     1      94.956  90.565  89.475  1.00  0.00     0.054 A 
ATOM     43  C   UNL     1      93.733  88.484  89.579  1.00  0.00     0.008 A 
ATOM     44  C   UNL     1      94.105  91.114  90.433  1.00  0.00     0.160 A 
ATOM     45  C   UNL     1      92.881  89.033  90.538  1.00  0.00     0.050 A 
ATOM     46  C   UNL     1      93.067  90.347  90.965  1.00  0.00     0.157 A 
BRANCH  44  47
ATOM     47  O   UNL     1      94.296  92.399  90.842  1.00  0.00    -0.493 OA
ATOM     48  C   UNL     1      93.862  93.432  89.959  1.00  0.00     0.278 C 
ENDBRANCH  44  47
BRANCH  46  49
ATOM     49  O   UNL     1      92.228  90.873  91.901  1.00  0.00    -0.504 OA
ATOM     50  H   UNL     1      91.514  90.238  92.079  1.00  0.00     0.293 HD
ENDBRANCH  46  49
ENDBRANCH  40  41
ENDBRANCH  38  40
ENDBRANCH  37  38
ENDBRANCH   1  37
TORSDOF 11
ENDMDL
MODEL 10
REMARK VINA RESULT:    -5.406     26.332     30.193
REMARK INTER + INTRA:         -10.763
REMARK INTER:                  -8.443
REMARK INTRA:                  -2.320
REMARK UNBOUND:                -1.248
REMARK SMILES C=C(C)[C@]12C[C@@H](C)[C@@]34O[C@](Cc5ccccc5)(O[C@@H]1[C@@H]3C=C(COC(=O)Cc1ccc(O)c(OC)c1)C[C@]1(O)C(=O)C(C)=C[C@@H]41)O2
REMARK SMILES IDX 23 1 22 2 21 3 20 4 9 5 8 6 10 7 6 8 18 9 46 10 19 11 5 12
REMARK SMILES IDX 7 13 4 14 45 15 38 16 44 17 40 18 42 20 41 21 43 22 39 23
REMARK SMILES IDX 11 25 12 26 13 27 17 28 14 29 16 30 15 31 2 32 3 33 1 34
REMARK SMILES IDX 37 35 24 37 25 38 26 39 27 40 28 41 36 42 29 43 33 44 30 45
REMARK SMILES IDX 31 46 34 47 35 48 32 49
REMARK H PARENT 39 24 32 50
REMARK Flexibility Score: 90.00
ROOT
ATOM      1  C   UNL     1      99.576  77.448  75.640  1.00  0.00     0.264 C 
ENDROOT
BRANCH   1   2
ATOM      2  C   UNL     1      99.815  78.900  75.299  1.00  0.00    -0.033 C 
ATOM      3  C   UNL     1     100.775  79.219  74.408  1.00  0.00    -0.015 C 
BRANCH   3   4
ATOM      4  C   UNL     1     101.258  80.589  73.959  1.00  0.00     0.078 C 
ATOM      5  O   UNL     1      99.937  81.197  71.958  1.00  0.00    -0.319 OA
ATOM      6  C   UNL     1     100.209  81.586  73.340  1.00  0.00     0.095 C 
ATOM      7  C   UNL     1     101.092  80.821  71.185  1.00  0.00     0.289 C 
ATOM      8  C   UNL     1     100.855  83.033  73.359  1.00  0.00     0.023 C 
ATOM      9  O   UNL     1     101.796  79.744  71.797  1.00  0.00    -0.320 OA
ATOM     10  O   UNL     1     102.036  81.882  71.070  1.00  0.00    -0.313 OA
ATOM     11  C   UNL     1     102.387  80.431  72.911  1.00  0.00     0.170 C 
ATOM     12  C   UNL     1     102.400  82.973  73.154  1.00  0.00     0.049 C 
ATOM     13  C   UNL     1     100.246  84.040  72.370  1.00  0.00     0.011 C 
ATOM     14  C   UNL     1     102.809  81.783  72.284  1.00  0.00     0.122 C 
BRANCH   6  15
ATOM     15  C   UNL     1      98.835  81.457  74.058  1.00  0.00     0.086 C 
ATOM     16  C   UNL     1      98.881  81.313  75.594  1.00  0.00     0.140 CG0
ATOM     17  C   UNL     1      97.787  82.512  73.837  1.00  0.00    -0.010 C 
ATOM     18  C   UNL     1      97.631  82.049  76.028  1.00  0.00     0.190 C 
ATOM     19  G   UNL     1      98.882  79.851  76.036  1.00  0.00     0.000 G0
ATOM     20  C   UNL     1      97.074  82.846  74.918  1.00  0.00    -0.008 C 
ATOM     21  O   UNL     1      97.158  82.039  77.154  1.00  0.00    -0.291 OA
ATOM     22  C   UNL     1      95.928  83.768  75.054  1.00  0.00     0.048 C 
BRANCH  16  23
ATOM     23  O   UNL     1      99.932  82.041  76.207  1.00  0.00    -0.381 OA
ATOM     24  H   UNL     1     100.346  81.475  76.879  1.00  0.00     0.212 HD
ENDBRANCH  16  23
ENDBRANCH   6  15
BRANCH   7  25
ATOM     25  C   UNL     1     100.625  80.408  69.803  1.00  0.00     0.135 C 
BRANCH  25  26
ATOM     26  C   UNL     1     101.414  81.089  68.713  1.00  0.00    -0.040 A 
ATOM     27  C   UNL     1     102.337  80.360  67.961  1.00  0.00     0.004 A 
ATOM     28  C   UNL     1     101.221  82.445  68.455  1.00  0.00     0.004 A 
ATOM     29  C   UNL     1     103.066  80.990  66.952  1.00  0.00     0.000 A 
ATOM     30  C   UNL     1     101.950  83.075  67.446  1.00  0.00     0.000 A 
ATOM     31  C   UNL     1     102.873  82.347  66.695  1.00  0.00     0.000 A 
ENDBRANCH  25  26
ENDBRANCH   7  25
BRANCH  14  32
ATOM     32  C   UNL     1     104.258  81.807  71.923  1.00  0.00    -0.046 C 
ATOM     33  C   UNL     1     104.636  81.105  70.653  1.00  0.00     0.042 C 
ATOM     34  C   UNL     1     105.170  82.422  72.691  1.00  0.00     0.010 C 
ENDBRANCH  14  32
ENDBRANCH   3   4
BRANCH   2  35
ATOM     35  C   UNL     1      98.888  79.845  76.040  1.00  0.00     0.078 CG0
ATOM     36  G   UNL     1      98.880  81.307  75.596  1.00  0.00     0.000 G0
ENDBRANCH   2  35
ENDBRANCH   1   2
BRANCH   1  37
ATOM     37  O   UNL     1     100.148  76.633  74.639  1.00  0.00    -0.461 OA
BRANCH  37  38
ATOM     38  C   UNL     1      99.318  75.696  74.070  1.00  0.00     0.310 C 
ATOM     39  O   UNL     1      99.674  74.603  73.652  1.00  0.00    -0.252 OA
BRANCH  38  40
ATOM     40  C   UNL     1      97.903  76.226  74.040  1.00  0.00     0.158 C 
BRANCH  40  41
ATOM     41  C   UNL     1      97.668  77.214  72.927  1.00  0.00    -0.033 A 
ATOM     42  C   UNL     1      98.206  76.978  71.661  1.00  0.00     0.054 A 
ATOM     43  C   UNL     1      96.914  78.363  73.162  1.00  0.00     0.008 A 
ATOM     44  C   UNL     1      97.988  77.893  70.630  1.00  0.00     0.160 A 
ATOM     45  C   UNL     1      96.697  79.278  72.131  1.00  0.00     0.050 A 
ATOM     46  C   UNL     1      97.234  79.043  70.866  1.00  0.00     0.157 A 
BRANCH  44  47
ATOM     47  O   UNL     1      98.518  77.653  69.399  1.00  0.00    -0.493 OA
ATOM     48  C   UNL     1      98.665  76.288  69.011  1.00  0.00     0.278 C 
ENDBRANCH  44  47
BRANCH  46  49
ATOM     49  O   UNL     1      97.014  79.942  69.867  1.00  0.00    -0.504 OA
ATOM     50  H   UNL     1      96.925  79.465  69.025  1.00  0.00     0.293 HD
ENDBRANCH  46  49
ENDBRANCH  40  41
ENDBRANCH  38  40
ENDBRANCH  37  38
ENDBRANCH   1  37
TORSDOF 11
ENDMDL
