MODEL 1
REMARK VINA RESULT:    -5.226      0.000      0.000
REMARK INTER + INTRA:          -9.888
REMARK INTER:                  -8.434
REMARK INTRA:                  -1.453
REMARK UNBOUND:                -1.453
REMARK SMILES CCCCCCCCC(=O)NCc1ccc(O)c(OC)c1
REMARK SMILES IDX 7 1 6 2 5 3 4 4 3 5 2 6 1 7 8 8 9 9 10 10 11 11 12 13 13 14
REMARK SMILES IDX 21 15 14 16 18 17 15 18 16 19 19 20 20 21 17 22
REMARK H PARENT 11 12 17 23
REMARK Flexibility Score: inf
ROOT
ATOM      1  C   UNL     1      81.626  85.807  87.461  1.00  0.00     0.010 C 
ENDROOT
BRANCH   1   2
ATOM      2  C   UNL     1      81.871  86.025  85.940  1.00  0.00     0.001 C 
BRANCH   2   3
ATOM      3  C   UNL     1      80.569  85.852  85.103  1.00  0.00     0.000 C 
BRANCH   3   4
ATOM      4  C   UNL     1      80.558  86.676  83.785  1.00  0.00    -0.000 C 
BRANCH   4   5
ATOM      5  C   UNL     1      79.889  88.069  83.953  1.00  0.00    -0.000 C 
BRANCH   5   6
ATOM      6  C   UNL     1      80.916  89.189  84.273  1.00  0.00    -0.003 C 
ATOM      7  C   UNL     1      80.678  89.847  85.650  1.00  0.00     0.004 C 
ENDBRANCH   5   6
ENDBRANCH   4   5
ENDBRANCH   3   4
ENDBRANCH   2   3
ENDBRANCH   1   2
BRANCH   1   8
ATOM      8  C   UNL     1      80.390  86.570  88.015  1.00  0.00     0.100 C 
BRANCH   8   9
ATOM      9  C   UNL     1      80.792  87.815  88.713  1.00  0.00     0.220 C 
ATOM     10  O   UNL     1      79.915  88.684  88.934  1.00  0.00    -0.275 OA
ATOM     11  N   UNL     1      82.081  87.991  89.129  1.00  0.00    -0.352 N 
ATOM     12  H   UNL     1      82.721  87.272  88.824  1.00  0.00     0.163 HD
BRANCH  11  13
ATOM     13  C   UNL     1      82.560  89.076  89.930  1.00  0.00     0.151 C 
BRANCH  13  14
ATOM     14  C   UNL     1      82.967  90.271  89.144  1.00  0.00    -0.025 A 
ATOM     15  C   UNL     1      83.724  90.119  87.958  1.00  0.00     0.056 A 
ATOM     16  C   UNL     1      82.610  91.573  89.564  1.00  0.00     0.009 A 
ATOM     17  C   UNL     1      84.103  91.245  87.191  1.00  0.00     0.160 A 
ATOM     18  C   UNL     1      82.984  92.697  88.805  1.00  0.00     0.050 A 
ATOM     19  C   UNL     1      83.735  92.538  87.625  1.00  0.00     0.157 A 
BRANCH  17  20
ATOM     20  O   UNL     1      84.874  91.099  86.065  1.00  0.00    -0.493 OA
ATOM     21  C   UNL     1      85.542  89.829  85.969  1.00  0.00     0.278 C 
ENDBRANCH  17  20
BRANCH  19  22
ATOM     22  O   UNL     1      84.114  93.631  86.913  1.00  0.00    -0.504 OA
ATOM     23  H   UNL     1      83.489  94.344  87.066  1.00  0.00     0.293 HD
ENDBRANCH  19  22
ENDBRANCH  13  14
ENDBRANCH  11  13
ENDBRANCH   8   9
ENDBRANCH   1   8
TORSDOF 11
ENDMDL
MODEL 2
REMARK VINA RESULT:    -5.094      1.801      2.972
REMARK INTER + INTRA:          -9.675
REMARK INTER:                  -8.195
REMARK INTRA:                  -1.479
REMARK UNBOUND:                -1.453
REMARK SMILES CCCCCCCCC(=O)NCc1ccc(O)c(OC)c1
REMARK SMILES IDX 7 1 6 2 5 3 4 4 3 5 2 6 1 7 8 8 9 9 10 10 11 11 12 13 13 14
REMARK SMILES IDX 21 15 14 16 18 17 15 18 16 19 19 20 20 21 17 22
REMARK H PARENT 11 12 17 23
REMARK Flexibility Score: inf
ROOT
ATOM      1  C   UNL     1      80.210  86.251  85.332  1.00  0.00     0.010 C 
ENDROOT
BRANCH   1   2
ATOM      2  C   UNL     1      80.961  87.027  84.213  1.00  0.00     0.001 C 
BRANCH   2   3
ATOM      3  C   UNL     1      80.379  88.454  83.992  1.00  0.00     0.000 C 
BRANCH   3   4
ATOM      4  C   UNL     1      81.007  89.537  84.915  1.00  0.00    -0.000 C 
BRANCH   4   5
ATOM      5  C   UNL     1      82.509  89.270  85.218  1.00  0.00    -0.000 C 
BRANCH   5   6
ATOM      6  C   UNL     1      83.435  90.387  84.668  1.00  0.00    -0.003 C 
ATOM      7  C   UNL     1      84.841  90.370  85.308  1.00  0.00     0.004 C 
ENDBRANCH   5   6
ENDBRANCH   4   5
ENDBRANCH   3   4
ENDBRANCH   2   3
ENDBRANCH   1   2
BRANCH   1   8
ATOM      8  C   UNL     1      81.104  85.877  86.548  1.00  0.00     0.100 C 
BRANCH   8   9
ATOM      9  C   UNL     1      80.874  86.794  87.690  1.00  0.00     0.220 C 
ATOM     10  O   UNL     1      79.704  87.191  87.908  1.00  0.00    -0.275 OA
ATOM     11  N   UNL     1      81.909  87.169  88.498  1.00  0.00    -0.352 N 
ATOM     12  H   UNL     1      82.817  86.862  88.182  1.00  0.00     0.163 HD
BRANCH  11  13
ATOM     13  C   UNL     1      81.794  87.929  89.705  1.00  0.00     0.151 C 
BRANCH  13  14
ATOM     14  C   UNL     1      82.280  89.329  89.582  1.00  0.00    -0.025 A 
ATOM     15  C   UNL     1      83.283  89.814  90.456  1.00  0.00     0.056 A 
ATOM     16  C   UNL     1      81.752  90.198  88.600  1.00  0.00     0.009 A 
ATOM     17  C   UNL     1      83.767  91.137  90.340  1.00  0.00     0.160 A 
ATOM     18  C   UNL     1      82.231  91.515  88.479  1.00  0.00     0.050 A 
ATOM     19  C   UNL     1      83.230  91.990  89.350  1.00  0.00     0.157 A 
BRANCH  17  20
ATOM     20  O   UNL     1      84.709  91.618  91.215  1.00  0.00    -0.493 OA
ATOM     21  C   UNL     1      84.202  91.893  92.532  1.00  0.00     0.278 C 
ENDBRANCH  17  20
BRANCH  19  22
ATOM     22  O   UNL     1      83.666  93.272  89.243  1.00  0.00    -0.504 OA
ATOM     23  H   UNL     1      84.429  93.302  88.661  1.00  0.00     0.293 HD
ENDBRANCH  19  22
ENDBRANCH  13  14
ENDBRANCH  11  13
ENDBRANCH   8   9
ENDBRANCH   1   8
TORSDOF 11
ENDMDL
MODEL 3
REMARK VINA RESULT:    -5.014     23.590     26.170
REMARK INTER + INTRA:          -9.546
REMARK INTER:                  -7.531
REMARK INTRA:                  -2.015
REMARK UNBOUND:                -1.453
REMARK SMILES CCCCCCCCC(=O)NCc1ccc(O)c(OC)c1
REMARK SMILES IDX 7 1 6 2 5 3 4 4 3 5 2 6 1 7 8 8 9 9 10 10 11 11 12 13 13 14
REMARK SMILES IDX 21 15 14 16 18 17 15 18 16 19 19 20 20 21 17 22
REMARK H PARENT 11 12 17 23
REMARK Flexibility Score: inf
ROOT
ATOM      1  C   UNL     1      80.307  66.880  72.231  1.00  0.00     0.010 C 
ENDROOT
BRANCH   1   2
ATOM      2  C   UNL     1      80.921  67.240  70.847  1.00  0.00     0.001 C 
BRANCH   2   3
ATOM      3  C   UNL     1      82.075  68.278  70.967  1.00  0.00     0.000 C 
BRANCH   3   4
ATOM      4  C   UNL     1      82.651  68.413  72.406  1.00  0.00    -0.000 C 
BRANCH   4   5
ATOM      5  C   UNL     1      84.164  68.064  72.481  1.00  0.00    -0.000 C 
BRANCH   5   6
ATOM      6  C   UNL     1      84.437  66.763  73.283  1.00  0.00    -0.003 C 
ATOM      7  C   UNL     1      84.089  65.485  72.488  1.00  0.00     0.004 C 
ENDBRANCH   5   6
ENDBRANCH   4   5
ENDBRANCH   3   4
ENDBRANCH   2   3
ENDBRANCH   1   2
BRANCH   1   8
ATOM      8  C   UNL     1      80.405  65.370  72.589  1.00  0.00     0.100 C 
BRANCH   8   9
ATOM      9  C   UNL     1      80.605  65.173  74.045  1.00  0.00     0.220 C 
ATOM     10  O   UNL     1      80.461  64.019  74.515  1.00  0.00    -0.275 OA
ATOM     11  N   UNL     1      80.965  66.220  74.845  1.00  0.00    -0.352 N 
ATOM     12  H   UNL     1      80.968  67.117  74.381  1.00  0.00     0.163 HD
BRANCH  11  13
ATOM     13  C   UNL     1      81.322  66.132  76.227  1.00  0.00     0.151 C 
BRANCH  13  14
ATOM     14  C   UNL     1      82.789  66.143  76.472  1.00  0.00    -0.025 A 
ATOM     15  C   UNL     1      83.457  67.363  76.737  1.00  0.00     0.056 A 
ATOM     16  C   UNL     1      83.541  64.946  76.440  1.00  0.00     0.009 A 
ATOM     17  C   UNL     1      84.849  67.387  76.988  1.00  0.00     0.160 A 
ATOM     18  C   UNL     1      84.924  64.964  76.690  1.00  0.00     0.050 A 
ATOM     19  C   UNL     1      85.583  66.180  76.956  1.00  0.00     0.157 A 
BRANCH  17  20
ATOM     20  O   UNL     1      85.502  68.575  77.202  1.00  0.00    -0.493 OA
ATOM     21  C   UNL     1      85.884  69.262  75.998  1.00  0.00     0.278 C 
ENDBRANCH  17  20
BRANCH  19  22
ATOM     22  O   UNL     1      86.923  66.190  77.169  1.00  0.00    -0.504 OA
ATOM     23  H   UNL     1      87.220  65.302  77.380  1.00  0.00     0.293 HD
ENDBRANCH  19  22
ENDBRANCH  13  14
ENDBRANCH  11  13
ENDBRANCH   8   9
ENDBRANCH   1   8
TORSDOF 11
ENDMDL
MODEL 4
REMARK VINA RESULT:    -4.919     24.241     26.078
REMARK INTER + INTRA:          -9.392
REMARK INTER:                  -7.842
REMARK INTRA:                  -1.550
REMARK UNBOUND:                -1.453
REMARK SMILES CCCCCCCCC(=O)NCc1ccc(O)c(OC)c1
REMARK SMILES IDX 7 1 6 2 5 3 4 4 3 5 2 6 1 7 8 8 9 9 10 10 11 11 12 13 13 14
REMARK SMILES IDX 21 15 14 16 18 17 15 18 16 19 19 20 20 21 17 22
REMARK H PARENT 11 12 17 23
REMARK Flexibility Score: inf
ROOT
ATOM      1  C   UNL     1      83.322  63.659  75.003  1.00  0.00     0.010 C 
ENDROOT
BRANCH   1   2
ATOM      2  C   UNL     1      82.404  64.351  73.955  1.00  0.00     0.001 C 
BRANCH   2   3
ATOM      3  C   UNL     1      80.902  63.993  74.160  1.00  0.00     0.000 C 
BRANCH   3   4
ATOM      4  C   UNL     1      79.925  65.134  73.758  1.00  0.00    -0.000 C 
BRANCH   4   5
ATOM      5  C   UNL     1      80.523  66.549  73.999  1.00  0.00    -0.000 C 
BRANCH   5   6
ATOM      6  C   UNL     1      80.560  67.409  72.707  1.00  0.00    -0.003 C 
ATOM      7  C   UNL     1      80.201  66.603  71.439  1.00  0.00     0.004 C 
ENDBRANCH   5   6
ENDBRANCH   4   5
ENDBRANCH   3   4
ENDBRANCH   2   3
ENDBRANCH   1   2
BRANCH   1   8
ATOM      8  C   UNL     1      83.170  64.223  76.444  1.00  0.00     0.100 C 
BRANCH   8   9
ATOM      9  C   UNL     1      84.086  65.366  76.676  1.00  0.00     0.220 C 
ATOM     10  O   UNL     1      85.239  65.126  77.105  1.00  0.00    -0.275 OA
ATOM     11  N   UNL     1      83.687  66.642  76.399  1.00  0.00    -0.352 N 
ATOM     12  H   UNL     1      82.715  66.729  76.142  1.00  0.00     0.163 HD
BRANCH  11  13
ATOM     13  C   UNL     1      84.518  67.806  76.446  1.00  0.00     0.151 C 
BRANCH  13  14
ATOM     14  C   UNL     1      84.870  68.348  75.106  1.00  0.00    -0.025 A 
ATOM     15  C   UNL     1      84.138  67.950  73.962  1.00  0.00     0.056 A 
ATOM     16  C   UNL     1      85.937  69.262  74.949  1.00  0.00     0.009 A 
ATOM     17  C   UNL     1      84.449  68.470  72.684  1.00  0.00     0.160 A 
ATOM     18  C   UNL     1      86.251  69.784  73.681  1.00  0.00     0.050 A 
ATOM     19  C   UNL     1      85.517  69.386  72.548  1.00  0.00     0.157 A 
BRANCH  17  20
ATOM     20  O   UNL     1      83.766  68.050  71.571  1.00  0.00    -0.493 OA
ATOM     21  C   UNL     1      83.982  66.668  71.234  1.00  0.00     0.278 C 
ENDBRANCH  17  20
BRANCH  19  22
ATOM     22  O   UNL     1      85.846  69.874  71.324  1.00  0.00    -0.504 OA
ATOM     23  H   UNL     1      85.924  69.148  70.701  1.00  0.00     0.293 HD
ENDBRANCH  19  22
ENDBRANCH  13  14
ENDBRANCH  11  13
ENDBRANCH   8   9
ENDBRANCH   1   8
TORSDOF 11
ENDMDL
MODEL 5
REMARK VINA RESULT:    -4.853      2.602      4.363
REMARK INTER + INTRA:          -9.285
REMARK INTER:                  -8.228
REMARK INTRA:                  -1.058
REMARK UNBOUND:                -1.453
REMARK SMILES CCCCCCCCC(=O)NCc1ccc(O)c(OC)c1
REMARK SMILES IDX 7 1 6 2 5 3 4 4 3 5 2 6 1 7 8 8 9 9 10 10 11 11 12 13 13 14
REMARK SMILES IDX 21 15 14 16 18 17 15 18 16 19 19 20 20 21 17 22
REMARK H PARENT 11 12 17 23
REMARK Flexibility Score: inf
ROOT
ATOM      1  C   UNL     1      80.026  90.218  86.317  1.00  0.00     0.010 C 
ENDROOT
BRANCH   1   2
ATOM      2  C   UNL     1      79.736  89.526  84.954  1.00  0.00     0.001 C 
BRANCH   2   3
ATOM      3  C   UNL     1      81.042  89.103  84.219  1.00  0.00     0.000 C 
BRANCH   3   4
ATOM      4  C   UNL     1      81.079  87.600  83.822  1.00  0.00    -0.000 C 
BRANCH   4   5
ATOM      5  C   UNL     1      79.858  86.805  84.366  1.00  0.00    -0.000 C 
BRANCH   5   6
ATOM      6  C   UNL     1      80.216  85.932  85.598  1.00  0.00    -0.003 C 
ATOM      7  C   UNL     1      81.739  85.829  85.839  1.00  0.00     0.004 C 
ENDBRANCH   5   6
ENDBRANCH   4   5
ENDBRANCH   3   4
ENDBRANCH   2   3
ENDBRANCH   1   2
BRANCH   1   8
ATOM      8  C   UNL     1      80.786  89.317  87.331  1.00  0.00     0.100 C 
BRANCH   8   9
ATOM      9  C   UNL     1      81.933  90.036  87.937  1.00  0.00     0.220 C 
ATOM     10  O   UNL     1      82.717  89.391  88.674  1.00  0.00    -0.275 OA
ATOM     11  N   UNL     1      82.141  91.359  87.671  1.00  0.00    -0.352 N 
ATOM     12  H   UNL     1      81.405  91.799  87.139  1.00  0.00     0.163 HD
BRANCH  11  13
ATOM     13  C   UNL     1      83.281  92.123  88.078  1.00  0.00     0.151 C 
BRANCH  13  14
ATOM     14  C   UNL     1      83.075  93.595  88.004  1.00  0.00    -0.025 A 
ATOM     15  C   UNL     1      82.048  94.209  88.760  1.00  0.00     0.056 A 
ATOM     16  C   UNL     1      83.892  94.403  87.181  1.00  0.00     0.009 A 
ATOM     17  C   UNL     1      81.851  95.608  88.714  1.00  0.00     0.160 A 
ATOM     18  C   UNL     1      83.703  95.795  87.131  1.00  0.00     0.050 A 
ATOM     19  C   UNL     1      82.681  96.400  87.888  1.00  0.00     0.157 A 
BRANCH  17  20
ATOM     20  O   UNL     1      80.829  96.197  89.415  1.00  0.00    -0.493 OA
ATOM     21  C   UNL     1      81.139  96.466  90.794  1.00  0.00     0.278 C 
ENDBRANCH  17  20
BRANCH  19  22
ATOM     22  O   UNL     1      82.488  97.742  87.812  1.00  0.00    -0.504 OA
ATOM     23  H   UNL     1      83.278  98.159  87.459  1.00  0.00     0.293 HD
ENDBRANCH  19  22
ENDBRANCH  13  14
ENDBRANCH  11  13
ENDBRANCH   8   9
ENDBRANCH   1   8
TORSDOF 11
ENDMDL
MODEL 6
REMARK VINA RESULT:    -4.845     13.029     15.573
REMARK INTER + INTRA:          -9.272
REMARK INTER:                  -8.650
REMARK INTRA:                  -0.622
REMARK UNBOUND:                -1.453
REMARK SMILES CCCCCCCCC(=O)NCc1ccc(O)c(OC)c1
REMARK SMILES IDX 7 1 6 2 5 3 4 4 3 5 2 6 1 7 8 8 9 9 10 10 11 11 12 13 13 14
REMARK SMILES IDX 21 15 14 16 18 17 15 18 16 19 19 20 20 21 17 22
REMARK H PARENT 11 12 17 23
REMARK Flexibility Score: inf
ROOT
ATOM      1  C   UNL     1      97.837  81.752  82.317  1.00  0.00     0.010 C 
ENDROOT
BRANCH   1   2
ATOM      2  C   UNL     1      97.887  81.373  80.809  1.00  0.00     0.001 C 
BRANCH   2   3
ATOM      3  C   UNL     1      97.480  82.561  79.889  1.00  0.00     0.000 C 
BRANCH   3   4
ATOM      4  C   UNL     1      96.349  82.214  78.880  1.00  0.00    -0.000 C 
BRANCH   4   5
ATOM      5  C   UNL     1      96.832  82.250  77.402  1.00  0.00    -0.000 C 
BRANCH   5   6
ATOM      6  C   UNL     1      98.022  83.224  77.188  1.00  0.00    -0.003 C 
ATOM      7  C   UNL     1      98.208  83.628  75.708  1.00  0.00     0.004 C 
ENDBRANCH   5   6
ENDBRANCH   4   5
ENDBRANCH   3   4
ENDBRANCH   2   3
ENDBRANCH   1   2
BRANCH   1   8
ATOM      8  C   UNL     1      96.452  82.274  82.790  1.00  0.00     0.100 C 
BRANCH   8   9
ATOM      9  C   UNL     1      96.547  83.656  83.320  1.00  0.00     0.220 C 
ATOM     10  O   UNL     1      97.533  84.354  82.985  1.00  0.00    -0.275 OA
ATOM     11  N   UNL     1      95.567  84.158  84.127  1.00  0.00    -0.352 N 
ATOM     12  H   UNL     1      94.867  83.485  84.402  1.00  0.00     0.163 HD
BRANCH  11  13
ATOM     13  C   UNL     1      95.472  85.511  84.583  1.00  0.00     0.151 C 
BRANCH  13  14
ATOM     14  C   UNL     1      94.756  85.660  85.878  1.00  0.00    -0.025 A 
ATOM     15  C   UNL     1      95.217  86.585  86.845  1.00  0.00     0.056 A 
ATOM     16  C   UNL     1      93.609  84.885  86.168  1.00  0.00     0.009 A 
ATOM     17  C   UNL     1      94.536  86.750  88.073  1.00  0.00     0.160 A 
ATOM     18  C   UNL     1      92.927  85.045  87.386  1.00  0.00     0.050 A 
ATOM     19  C   UNL     1      93.390  85.969  88.343  1.00  0.00     0.157 A 
BRANCH  17  20
ATOM     20  O   UNL     1      95.009  87.616  89.027  1.00  0.00    -0.493 OA
ATOM     21  C   UNL     1      95.386  88.906  88.515  1.00  0.00     0.278 C 
ENDBRANCH  17  20
BRANCH  19  22
ATOM     22  O   UNL     1      92.740  86.096  89.528  1.00  0.00    -0.504 OA
ATOM     23  H   UNL     1      93.187  86.751  90.070  1.00  0.00     0.293 HD
ENDBRANCH  19  22
ENDBRANCH  13  14
ENDBRANCH  11  13
ENDBRANCH   8   9
ENDBRANCH   1   8
TORSDOF 11
ENDMDL
MODEL 7
REMARK VINA RESULT:    -4.820     24.491     26.254
REMARK INTER + INTRA:          -9.231
REMARK INTER:                  -7.443
REMARK INTRA:                  -1.789
REMARK UNBOUND:                -1.453
REMARK SMILES CCCCCCCCC(=O)NCc1ccc(O)c(OC)c1
REMARK SMILES IDX 7 1 6 2 5 3 4 4 3 5 2 6 1 7 8 8 9 9 10 10 11 11 12 13 13 14
REMARK SMILES IDX 21 15 14 16 18 17 15 18 16 19 19 20 20 21 17 22
REMARK H PARENT 11 12 17 23
REMARK Flexibility Score: inf
ROOT
ATOM      1  C   UNL     1      80.419  67.110  72.345  1.00  0.00     0.010 C 
ENDROOT
BRANCH   1   2
ATOM      2  C   UNL     1      81.237  67.346  71.043  1.00  0.00     0.001 C 
BRANCH   2   3
ATOM      3  C   UNL     1      82.492  68.235  71.288  1.00  0.00     0.000 C 
BRANCH   3   4
ATOM      4  C   UNL     1      82.987  68.228  72.762  1.00  0.00    -0.000 C 
BRANCH   4   5
ATOM      5  C   UNL     1      84.467  67.770  72.896  1.00  0.00    -0.000 C 
BRANCH   5   6
ATOM      6  C   UNL     1      85.425  68.944  73.237  1.00  0.00    -0.003 C 
ATOM      7  C   UNL     1      85.904  69.710  71.985  1.00  0.00     0.004 C 
ENDBRANCH   5   6
ENDBRANCH   4   5
ENDBRANCH   3   4
ENDBRANCH   2   3
ENDBRANCH   1   2
BRANCH   1   8
ATOM      8  C   UNL     1      80.186  65.610  72.680  1.00  0.00     0.100 C 
BRANCH   8   9
ATOM      9  C   UNL     1      80.640  65.287  74.054  1.00  0.00     0.220 C 
ATOM     10  O   UNL     1      80.754  64.080  74.375  1.00  0.00    -0.275 OA
ATOM     11  N   UNL     1      80.951  66.284  74.934  1.00  0.00    -0.352 N 
ATOM     12  H   UNL     1      80.741  67.214  74.603  1.00  0.00     0.163 HD
BRANCH  11  13
ATOM     13  C   UNL     1      81.530  66.103  76.230  1.00  0.00     0.151 C 
BRANCH  13  14
ATOM     14  C   UNL     1      82.996  66.350  76.274  1.00  0.00    -0.025 A 
ATOM     15  C   UNL     1      83.900  65.353  75.836  1.00  0.00     0.056 A 
ATOM     16  C   UNL     1      83.512  67.576  76.754  1.00  0.00     0.009 A 
ATOM     17  C   UNL     1      85.295  65.580  75.856  1.00  0.00     0.160 A 
ATOM     18  C   UNL     1      84.899  67.808  76.775  1.00  0.00     0.050 A 
ATOM     19  C   UNL     1      85.793  66.813  76.335  1.00  0.00     0.157 A 
BRANCH  17  20
ATOM     20  O   UNL     1      86.172  64.597  75.470  1.00  0.00    -0.493 OA
ATOM     21  C   UNL     1      86.313  64.460  74.045  1.00  0.00     0.278 C 
ENDBRANCH  17  20
BRANCH  19  22
ATOM     22  O   UNL     1      87.131  67.037  76.385  1.00  0.00    -0.504 OA
ATOM     23  H   UNL     1      87.305  67.970  76.240  1.00  0.00     0.293 HD
ENDBRANCH  19  22
ENDBRANCH  13  14
ENDBRANCH  11  13
ENDBRANCH   8   9
ENDBRANCH   1   8
TORSDOF 11
ENDMDL
MODEL 8
REMARK VINA RESULT:    -4.795      2.042      5.202
REMARK INTER + INTRA:          -9.192
REMARK INTER:                  -8.183
REMARK INTRA:                  -1.009
REMARK UNBOUND:                -1.453
REMARK SMILES CCCCCCCCC(=O)NCc1ccc(O)c(OC)c1
REMARK SMILES IDX 7 1 6 2 5 3 4 4 3 5 2 6 1 7 8 8 9 9 10 10 11 11 12 13 13 14
REMARK SMILES IDX 21 15 14 16 18 17 15 18 16 19 19 20 20 21 17 22
REMARK H PARENT 11 12 17 23
REMARK Flexibility Score: inf
ROOT
ATOM      1  C   UNL     1      84.306  90.968  85.808  1.00  0.00     0.010 C 
ENDROOT
BRANCH   1   2
ATOM      2  C   UNL     1      83.885  90.164  84.544  1.00  0.00     0.001 C 
BRANCH   2   3
ATOM      3  C   UNL     1      82.786  89.106  84.858  1.00  0.00     0.000 C 
BRANCH   3   4
ATOM      4  C   UNL     1      81.384  89.721  85.128  1.00  0.00    -0.000 C 
BRANCH   4   5
ATOM      5  C   UNL     1      80.317  88.647  85.486  1.00  0.00    -0.000 C 
BRANCH   5   6
ATOM      6  C   UNL     1      79.431  88.259  84.271  1.00  0.00    -0.003 C 
ATOM      7  C   UNL     1      80.178  87.389  83.237  1.00  0.00     0.004 C 
ENDBRANCH   5   6
ENDBRANCH   4   5
ENDBRANCH   3   4
ENDBRANCH   2   3
ENDBRANCH   1   2
BRANCH   1   8
ATOM      8  C   UNL     1      84.682  90.077  87.025  1.00  0.00     0.100 C 
BRANCH   8   9
ATOM      9  C   UNL     1      83.891  90.439  88.225  1.00  0.00     0.220 C 
ATOM     10  O   UNL     1      83.389  91.588  88.282  1.00  0.00    -0.275 OA
ATOM     11  N   UNL     1      83.693  89.532  89.226  1.00  0.00    -0.352 N 
ATOM     12  H   UNL     1      84.211  88.672  89.119  1.00  0.00     0.163 HD
BRANCH  11  13
ATOM     13  C   UNL     1      82.838  89.711  90.359  1.00  0.00     0.151 C 
BRANCH  13  14
ATOM     14  C   UNL     1      81.441  89.250  90.138  1.00  0.00    -0.025 A 
ATOM     15  C   UNL     1      81.094  87.896  90.362  1.00  0.00     0.056 A 
ATOM     16  C   UNL     1      80.441  90.148  89.700  1.00  0.00     0.009 A 
ATOM     17  C   UNL     1      79.767  87.448  90.173  1.00  0.00     0.160 A 
ATOM     18  C   UNL     1      79.118  89.708  89.511  1.00  0.00     0.050 A 
ATOM     19  C   UNL     1      78.779  88.360  89.738  1.00  0.00     0.157 A 
BRANCH  17  20
ATOM     20  O   UNL     1      79.441  86.126  90.349  1.00  0.00    -0.493 OA
ATOM     21  C   UNL     1      79.075  85.785  91.698  1.00  0.00     0.278 C 
ENDBRANCH  17  20
BRANCH  19  22
ATOM     22  O   UNL     1      77.506  87.939  89.526  1.00  0.00    -0.504 OA
ATOM     23  H   UNL     1      77.454  86.992  89.672  1.00  0.00     0.293 HD
ENDBRANCH  19  22
ENDBRANCH  13  14
ENDBRANCH  11  13
ENDBRANCH   8   9
ENDBRANCH   1   8
TORSDOF 11
ENDMDL
MODEL 9
REMARK VINA RESULT:    -4.695      2.419      4.385
REMARK INTER + INTRA:          -9.030
REMARK INTER:                  -7.614
REMARK INTRA:                  -1.416
REMARK UNBOUND:                -1.453
REMARK SMILES CCCCCCCCC(=O)NCc1ccc(O)c(OC)c1
REMARK SMILES IDX 7 1 6 2 5 3 4 4 3 5 2 6 1 7 8 8 9 9 10 10 11 11 12 13 13 14
REMARK SMILES IDX 21 15 14 16 18 17 15 18 16 19 19 20 20 21 17 22
REMARK H PARENT 11 12 17 23
REMARK Flexibility Score: inf
ROOT
ATOM      1  C   UNL     1      80.557  89.626  86.694  1.00  0.00     0.010 C 
ENDROOT
BRANCH   1   2
ATOM      2  C   UNL     1      81.095  88.680  85.582  1.00  0.00     0.001 C 
BRANCH   2   3
ATOM      3  C   UNL     1      82.463  89.159  85.012  1.00  0.00     0.000 C 
BRANCH   3   4
ATOM      4  C   UNL     1      83.690  88.652  85.820  1.00  0.00    -0.000 C 
BRANCH   4   5
ATOM      5  C   UNL     1      84.310  89.754  86.726  1.00  0.00    -0.000 C 
BRANCH   5   6
ATOM      6  C   UNL     1      85.631  90.328  86.146  1.00  0.00    -0.003 C 
ATOM      7  C   UNL     1      85.394  91.400  85.060  1.00  0.00     0.004 C 
ENDBRANCH   5   6
ENDBRANCH   4   5
ENDBRANCH   3   4
ENDBRANCH   2   3
ENDBRANCH   1   2
BRANCH   1   8
ATOM      8  C   UNL     1      80.676  89.042  88.129  1.00  0.00     0.100 C 
BRANCH   8   9
ATOM      9  C   UNL     1      81.346  89.994  89.046  1.00  0.00     0.220 C 
ATOM     10  O   UNL     1      82.326  89.587  89.716  1.00  0.00    -0.275 OA
ATOM     11  N   UNL     1      80.922  91.289  89.133  1.00  0.00    -0.352 N 
ATOM     12  H   UNL     1      80.076  91.487  88.619  1.00  0.00     0.163 HD
BRANCH  11  13
ATOM     13  C   UNL     1      81.569  92.333  89.868  1.00  0.00     0.151 C 
BRANCH  13  14
ATOM     14  C   UNL     1      82.178  93.384  89.009  1.00  0.00    -0.025 A 
ATOM     15  C   UNL     1      81.771  94.734  89.138  1.00  0.00     0.056 A 
ATOM     16  C   UNL     1      83.167  93.058  88.053  1.00  0.00     0.009 A 
ATOM     17  C   UNL     1      82.354  95.746  88.341  1.00  0.00     0.160 A 
ATOM     18  C   UNL     1      83.751  94.060  87.258  1.00  0.00     0.050 A 
ATOM     19  C   UNL     1      83.344  95.401  87.393  1.00  0.00     0.157 A 
BRANCH  17  20
ATOM     20  O   UNL     1      81.928  97.047  88.437  1.00  0.00    -0.493 OA
ATOM     21  C   UNL     1      82.321  97.706  89.654  1.00  0.00     0.278 C 
ENDBRANCH  17  20
BRANCH  19  22
ATOM     22  O   UNL     1      83.894  96.357  86.602  1.00  0.00    -0.504 OA
ATOM     23  H   UNL     1      84.031  97.157  87.115  1.00  0.00     0.293 HD
ENDBRANCH  19  22
ENDBRANCH  13  14
ENDBRANCH  11  13
ENDBRANCH   8   9
ENDBRANCH   1   8
TORSDOF 11
ENDMDL
MODEL 10
REMARK VINA RESULT:    -4.656     14.783     18.024
REMARK INTER + INTRA:          -8.968
REMARK INTER:                  -8.380
REMARK INTRA:                  -0.588
REMARK UNBOUND:                -1.453
REMARK SMILES CCCCCCCCC(=O)NCc1ccc(O)c(OC)c1
REMARK SMILES IDX 7 1 6 2 5 3 4 4 3 5 2 6 1 7 8 8 9 9 10 10 11 11 12 13 13 14
REMARK SMILES IDX 21 15 14 16 18 17 15 18 16 19 19 20 20 21 17 22
REMARK H PARENT 11 12 17 23
REMARK Flexibility Score: inf
ROOT
ATOM      1  C   UNL     1      96.781  96.324  75.333  1.00  0.00     0.010 C 
ENDROOT
BRANCH   1   2
ATOM      2  C   UNL     1      96.552  97.774  74.816  1.00  0.00     0.001 C 
BRANCH   2   3
ATOM      3  C   UNL     1      95.050  98.067  74.528  1.00  0.00     0.000 C 
BRANCH   3   4
ATOM      4  C   UNL     1      94.805  99.405  73.776  1.00  0.00    -0.000 C 
BRANCH   4   5
ATOM      5  C   UNL     1      93.317  99.600  73.367  1.00  0.00    -0.000 C 
BRANCH   5   6
ATOM      6  C   UNL     1      92.635 100.765  74.133  1.00  0.00    -0.003 C 
ATOM      7  C   UNL     1      93.486 102.054  74.145  1.00  0.00     0.004 C 
ENDBRANCH   5   6
ENDBRANCH   4   5
ENDBRANCH   3   4
ENDBRANCH   2   3
ENDBRANCH   1   2
BRANCH   1   8
ATOM      8  C   UNL     1      95.648  95.333  74.947  1.00  0.00     0.100 C 
BRANCH   8   9
ATOM      9  C   UNL     1      95.027  94.728  76.150  1.00  0.00     0.220 C 
ATOM     10  O   UNL     1      95.682  94.724  77.219  1.00  0.00    -0.275 OA
ATOM     11  N   UNL     1      93.762  94.216  76.095  1.00  0.00    -0.352 N 
ATOM     12  H   UNL     1      93.361  94.192  75.169  1.00  0.00     0.163 HD
BRANCH  11  13
ATOM     13  C   UNL     1      93.004  93.738  77.211  1.00  0.00     0.151 C 
BRANCH  13  14
ATOM     14  C   UNL     1      91.793  92.965  76.828  1.00  0.00    -0.025 A 
ATOM     15  C   UNL     1      91.369  92.927  75.478  1.00  0.00     0.056 A 
ATOM     16  C   UNL     1      91.044  92.260  77.799  1.00  0.00     0.009 A 
ATOM     17  C   UNL     1      90.229  92.182  75.097  1.00  0.00     0.160 A 
ATOM     18  C   UNL     1      89.910  91.517  77.426  1.00  0.00     0.050 A 
ATOM     19  C   UNL     1      89.495  91.481  76.081  1.00  0.00     0.157 A 
BRANCH  17  20
ATOM     20  O   UNL     1      89.795  92.181  73.795  1.00  0.00    -0.493 OA
ATOM     21  C   UNL     1      90.677  91.505  72.882  1.00  0.00     0.278 C 
ENDBRANCH  17  20
BRANCH  19  22
ATOM     22  O   UNL     1      88.384  90.783  75.735  1.00  0.00    -0.504 OA
ATOM     23  H   UNL     1      87.658  91.029  76.314  1.00  0.00     0.293 HD
ENDBRANCH  19  22
ENDBRANCH  13  14
ENDBRANCH  11  13
ENDBRANCH   8   9
ENDBRANCH   1   8
TORSDOF 11
ENDMDL
