MODEL 1
REMARK VINA RESULT:    -7.326      0.000      0.000
REMARK INTER + INTRA:         -13.416
REMARK INTER:                 -12.894
REMARK INTRA:                  -0.522
REMARK UNBOUND:                -0.522
REMARK SMILES C=C(C)[C@]12C[C@@H](C)[C@@]34O[C@](Cc5ccccc5)(O[C@@H]1[C@@H]3C=C(COC(=O)Cc1ccc(O)c(OC)c1)C[C@]1(O)C(=O)C(C)=C[C@@H]41)O2
REMARK SMILES IDX 23 1 22 2 21 3 20 4 9 5 8 6 10 7 6 8 18 9 46 10 19 11 5 12
REMARK SMILES IDX 7 13 4 14 45 15 38 16 44 17 40 18 42 20 41 21 43 22 39 23
REMARK SMILES IDX 11 25 12 26 13 27 17 28 14 29 16 30 15 31 2 32 3 33 1 34
REMARK SMILES IDX 37 35 24 37 25 38 26 39 27 40 28 41 36 42 29 43 33 44 30 45
REMARK SMILES IDX 31 46 34 47 35 48 32 49
REMARK H PARENT 39 24 32 50
REMARK Flexibility Score: 90.00
ROOT
ATOM      1  C   UNL     1      96.144  80.757  83.790  1.00  0.00     0.264 C 
ENDROOT
BRANCH   1   2
ATOM      2  C   UNL     1      94.993  81.397  84.531  1.00  0.00    -0.033 C 
ATOM      3  C   UNL     1      93.780  80.810  84.496  1.00  0.00    -0.015 C 
BRANCH   3   4
ATOM      4  C   UNL     1      92.462  81.286  85.084  1.00  0.00     0.078 C 
ATOM      5  O   UNL     1      92.282  80.295  87.344  1.00  0.00    -0.319 OA
ATOM      6  C   UNL     1      92.390  81.567  86.632  1.00  0.00     0.095 C 
ATOM      7  C   UNL     1      91.380  79.336  86.760  1.00  0.00     0.289 C 
ATOM      8  C   UNL     1      91.090  82.431  86.903  1.00  0.00     0.023 C 
ATOM      9  O   UNL     1      91.742  79.039  85.414  1.00  0.00    -0.320 OA
ATOM     10  O   UNL     1      90.041  79.820  86.701  1.00  0.00    -0.313 OA
ATOM     11  C   UNL     1      91.345  80.260  84.771  1.00  0.00     0.170 C 
ATOM     12  C   UNL     1      89.942  82.063  85.913  1.00  0.00     0.049 C 
ATOM     13  C   UNL     1      90.557  82.385  88.344  1.00  0.00     0.011 C 
ATOM     14  C   UNL     1      90.012  80.596  85.486  1.00  0.00     0.122 C 
BRANCH   6  15
ATOM     15  C   UNL     1      93.724  82.186  87.142  1.00  0.00     0.086 C 
ATOM     16  C   UNL     1      94.349  83.280  86.253  1.00  0.00     0.140 CG0
ATOM     17  C   UNL     1      93.778  82.783  88.521  1.00  0.00    -0.010 C 
ATOM     18  C   UNL     1      94.981  84.206  87.271  1.00  0.00     0.190 C 
ATOM     19  G   UNL     1      95.369  82.710  85.268  1.00  0.00     0.000 G0
ATOM     20  C   UNL     1      94.500  83.903  88.632  1.00  0.00    -0.008 C 
ATOM     21  O   UNL     1      95.749  85.122  87.015  1.00  0.00    -0.291 OA
ATOM     22  C   UNL     1      94.837  84.703  89.827  1.00  0.00     0.048 C 
BRANCH  16  23
ATOM     23  O   UNL     1      93.397  84.099  85.595  1.00  0.00    -0.381 OA
ATOM     24  H   UNL     1      93.532  85.018  85.881  1.00  0.00     0.212 HD
ENDBRANCH  16  23
ENDBRANCH   6  15
BRANCH   7  25
ATOM     25  C   UNL     1      91.426  78.072  87.594  1.00  0.00     0.135 C 
BRANCH  25  26
ATOM     26  C   UNL     1      90.408  77.057  87.137  1.00  0.00    -0.040 A 
ATOM     27  C   UNL     1      90.681  76.242  86.038  1.00  0.00     0.004 A 
ATOM     28  C   UNL     1      89.195  76.932  87.814  1.00  0.00     0.004 A 
ATOM     29  C   UNL     1      89.740  75.302  85.616  1.00  0.00     0.000 A 
ATOM     30  C   UNL     1      88.254  75.992  87.391  1.00  0.00     0.000 A 
ATOM     31  C   UNL     1      88.527  75.178  86.292  1.00  0.00     0.000 A 
ENDBRANCH  25  26
ENDBRANCH   7  25
BRANCH  14  32
ATOM     32  C   UNL     1      88.824  80.174  84.686  1.00  0.00    -0.046 C 
ATOM     33  C   UNL     1      88.961  78.890  83.922  1.00  0.00     0.042 C 
ATOM     34  C   UNL     1      87.697  80.901  84.651  1.00  0.00     0.010 C 
ENDBRANCH  14  32
ENDBRANCH   3   4
BRANCH   2  35
ATOM     35  C   UNL     1      95.386  82.671  85.254  1.00  0.00     0.078 CG0
ATOM     36  G   UNL     1      94.359  83.279  86.207  1.00  0.00     0.000 G0
ENDBRANCH   2  35
ENDBRANCH   1   2
BRANCH   1  37
ATOM     37  O   UNL     1      95.941  80.898  82.400  1.00  0.00    -0.461 OA
BRANCH  37  38
ATOM     38  C   UNL     1      97.074  80.989  81.626  1.00  0.00     0.310 C 
ATOM     39  O   UNL     1      97.968  80.154  81.587  1.00  0.00    -0.252 OA
BRANCH  38  40
ATOM     40  C   UNL     1      97.043  82.276  80.835  1.00  0.00     0.158 C 
BRANCH  40  41
ATOM     41  C   UNL     1      97.061  82.051  79.345  1.00  0.00    -0.033 A 
ATOM     42  C   UNL     1      98.171  81.456  78.743  1.00  0.00     0.054 A 
ATOM     43  C   UNL     1      95.970  82.437  78.568  1.00  0.00     0.008 A 
ATOM     44  C   UNL     1      98.187  81.247  77.364  1.00  0.00     0.160 A 
ATOM     45  C   UNL     1      95.987  82.229  77.188  1.00  0.00     0.050 A 
ATOM     46  C   UNL     1      97.095  81.635  76.586  1.00  0.00     0.157 A 
BRANCH  44  47
ATOM     47  O   UNL     1      99.276  80.666  76.788  1.00  0.00    -0.493 OA
ATOM     48  C   UNL     1      99.252  79.247  76.642  1.00  0.00     0.278 C 
ENDBRANCH  44  47
BRANCH  46  49
ATOM     49  O   UNL     1      97.100  81.435  75.239  1.00  0.00    -0.504 OA
ATOM     50  H   UNL     1      96.220  81.646  74.885  1.00  0.00     0.293 HD
ENDBRANCH  46  49
ENDBRANCH  40  41
ENDBRANCH  38  40
ENDBRANCH  37  38
ENDBRANCH   1  37
TORSDOF 11
ENDMDL
MODEL 2
REMARK VINA RESULT:    -7.129      1.370      2.248
REMARK INTER + INTRA:         -13.069
REMARK INTER:                 -12.392
REMARK INTRA:                  -0.676
REMARK UNBOUND:                -0.522
REMARK SMILES C=C(C)[C@]12C[C@@H](C)[C@@]34O[C@](Cc5ccccc5)(O[C@@H]1[C@@H]3C=C(COC(=O)Cc1ccc(O)c(OC)c1)C[C@]1(O)C(=O)C(C)=C[C@@H]41)O2
REMARK SMILES IDX 23 1 22 2 21 3 20 4 9 5 8 6 10 7 6 8 18 9 46 10 19 11 5 12
REMARK SMILES IDX 7 13 4 14 45 15 38 16 44 17 40 18 42 20 41 21 43 22 39 23
REMARK SMILES IDX 11 25 12 26 13 27 17 28 14 29 16 30 15 31 2 32 3 33 1 34
REMARK SMILES IDX 37 35 24 37 25 38 26 39 27 40 28 41 36 42 29 43 33 44 30 45
REMARK SMILES IDX 31 46 34 47 35 48 32 49
REMARK H PARENT 39 24 32 50
REMARK Flexibility Score: 90.00
ROOT
ATOM      1  C   UNL     1      96.427  80.857  84.334  1.00  0.00     0.264 C 
ENDROOT
BRANCH   1   2
ATOM      2  C   UNL     1      95.160  81.458  84.897  1.00  0.00    -0.033 C 
ATOM      3  C   UNL     1      94.023  80.734  84.880  1.00  0.00    -0.015 C 
BRANCH   3   4
ATOM      4  C   UNL     1      92.620  81.132  85.308  1.00  0.00     0.078 C 
ATOM      5  O   UNL     1      92.374  80.466  87.678  1.00  0.00    -0.319 OA
ATOM      6  C   UNL     1      92.399  81.624  86.787  1.00  0.00     0.095 C 
ATOM      7  C   UNL     1      91.628  79.333  87.195  1.00  0.00     0.289 C 
ATOM      8  C   UNL     1      90.997  82.359  86.845  1.00  0.00     0.023 C 
ATOM      9  O   UNL     1      92.122  78.888  85.934  1.00  0.00    -0.320 OA
ATOM     10  O   UNL     1      90.253  79.642  86.982  1.00  0.00    -0.313 OA
ATOM     11  C   UNL     1      91.647  79.947  85.089  1.00  0.00     0.170 C 
ATOM     12  C   UNL     1      89.975  81.719  85.855  1.00  0.00     0.049 C 
ATOM     13  C   UNL     1      90.362  82.462  88.241  1.00  0.00     0.011 C 
ATOM     14  C   UNL     1      90.235  80.225  85.662  1.00  0.00     0.122 C 
BRANCH   6  15
ATOM     15  C   UNL     1      93.615  82.464  87.276  1.00  0.00     0.086 C 
ATOM     16  C   UNL     1      94.191  83.478  86.267  1.00  0.00     0.140 CG0
ATOM     17  C   UNL     1      93.497  83.261  88.545  1.00  0.00    -0.010 C 
ATOM     18  C   UNL     1      94.639  84.613  87.164  1.00  0.00     0.190 C 
ATOM     19  G   UNL     1      95.340  82.890  85.449  1.00  0.00     0.000 G0
ATOM     20  C   UNL     1      94.085  84.462  88.523  1.00  0.00    -0.008 C 
ATOM     21  O   UNL     1      95.323  85.563  86.816  1.00  0.00    -0.291 OA
ATOM     22  C   UNL     1      94.240  85.465  89.596  1.00  0.00     0.048 C 
BRANCH  16  23
ATOM     23  O   UNL     1      93.213  84.074  85.430  1.00  0.00    -0.381 OA
ATOM     24  H   UNL     1      93.299  85.039  85.496  1.00  0.00     0.212 HD
ENDBRANCH  16  23
ENDBRANCH   6  15
BRANCH   7  25
ATOM     25  C   UNL     1      91.744  78.217  88.213  1.00  0.00     0.135 C 
BRANCH  25  26
ATOM     26  C   UNL     1      92.934  77.329  87.946  1.00  0.00    -0.040 A 
ATOM     27  C   UNL     1      92.779  76.165  87.192  1.00  0.00     0.004 A 
ATOM     28  C   UNL     1      94.188  77.672  88.450  1.00  0.00     0.004 A 
ATOM     29  C   UNL     1      93.879  75.344  86.944  1.00  0.00     0.000 A 
ATOM     30  C   UNL     1      95.288  76.850  88.202  1.00  0.00     0.000 A 
ATOM     31  C   UNL     1      95.133  75.686  87.449  1.00  0.00     0.000 A 
ENDBRANCH  25  26
ENDBRANCH   7  25
BRANCH  14  32
ATOM     32  C   UNL     1      89.164  79.554  84.866  1.00  0.00    -0.046 C 
ATOM     33  C   UNL     1      89.167  78.054  84.882  1.00  0.00     0.042 C 
ATOM     34  C   UNL     1      88.250  80.252  84.175  1.00  0.00     0.010 C 
ENDBRANCH  14  32
ENDBRANCH   3   4
BRANCH   2  35
ATOM     35  C   UNL     1      95.357  82.862  85.438  1.00  0.00     0.078 CG0
ATOM     36  G   UNL     1      94.219  83.457  86.267  1.00  0.00     0.000 G0
ENDBRANCH   2  35
ENDBRANCH   1   2
BRANCH   1  37
ATOM     37  O   UNL     1      96.906  81.675  83.288  1.00  0.00    -0.461 OA
BRANCH  37  38
ATOM     38  C   UNL     1      96.628  81.252  82.009  1.00  0.00     0.310 C 
ATOM     39  O   UNL     1      96.374  80.099  81.689  1.00  0.00    -0.252 OA
BRANCH  38  40
ATOM     40  C   UNL     1      96.685  82.430  81.064  1.00  0.00     0.158 C 
BRANCH  40  41
ATOM     41  C   UNL     1      97.076  82.041  79.662  1.00  0.00    -0.033 A 
ATOM     42  C   UNL     1      96.277  82.425  78.584  1.00  0.00     0.054 A 
ATOM     43  C   UNL     1      98.235  81.298  79.441  1.00  0.00     0.008 A 
ATOM     44  C   UNL     1      96.639  82.065  77.285  1.00  0.00     0.160 A 
ATOM     45  C   UNL     1      98.596  80.937  78.143  1.00  0.00     0.050 A 
ATOM     46  C   UNL     1      97.799  81.321  77.065  1.00  0.00     0.157 A 
BRANCH  44  47
ATOM     47  O   UNL     1      95.851  82.445  76.241  1.00  0.00    -0.493 OA
ATOM     48  C   UNL     1      95.973  83.795  75.796  1.00  0.00     0.278 C 
ENDBRANCH  44  47
BRANCH  46  49
ATOM     49  O   UNL     1      98.162  80.964  75.802  1.00  0.00    -0.504 OA
ATOM     50  H   UNL     1      98.009  80.011  75.685  1.00  0.00     0.293 HD
ENDBRANCH  46  49
ENDBRANCH  40  41
ENDBRANCH  38  40
ENDBRANCH  37  38
ENDBRANCH   1  37
TORSDOF 11
ENDMDL
MODEL 3
REMARK VINA RESULT:    -6.504      9.270     14.387
REMARK INTER + INTRA:         -11.969
REMARK INTER:                 -10.246
REMARK INTRA:                  -1.723
REMARK UNBOUND:                -0.522
REMARK SMILES C=C(C)[C@]12C[C@@H](C)[C@@]34O[C@](Cc5ccccc5)(O[C@@H]1[C@@H]3C=C(COC(=O)Cc1ccc(O)c(OC)c1)C[C@]1(O)C(=O)C(C)=C[C@@H]41)O2
REMARK SMILES IDX 23 1 22 2 21 3 20 4 9 5 8 6 10 7 6 8 18 9 46 10 19 11 5 12
REMARK SMILES IDX 7 13 4 14 45 15 38 16 44 17 40 18 42 20 41 21 43 22 39 23
REMARK SMILES IDX 11 25 12 26 13 27 17 28 14 29 16 30 15 31 2 32 3 33 1 34
REMARK SMILES IDX 37 35 24 37 25 38 26 39 27 40 28 41 36 42 29 43 33 44 30 45
REMARK SMILES IDX 31 46 34 47 35 48 32 49
REMARK H PARENT 39 24 32 50
REMARK Flexibility Score: 90.00
ROOT
ATOM      1  C   UNL     1     103.550  79.352  74.873  1.00  0.00     0.264 C 
ENDROOT
BRANCH   1   2
ATOM      2  C   UNL     1     102.094  79.210  74.493  1.00  0.00    -0.033 C 
ATOM      3  C   UNL     1     101.191  80.068  75.008  1.00  0.00    -0.015 C 
BRANCH   3   4
ATOM      4  C   UNL     1      99.680  80.090  74.847  1.00  0.00     0.078 C 
ATOM      5  O   UNL     1      99.181  81.570  72.929  1.00  0.00    -0.319 OA
ATOM      6  C   UNL     1      99.083  80.188  73.394  1.00  0.00     0.095 C 
ATOM      7  C   UNL     1      98.834  82.574  73.902  1.00  0.00     0.289 C 
ATOM      8  C   UNL     1      97.557  79.770  73.472  1.00  0.00     0.023 C 
ATOM      9  O   UNL     1      99.641  82.461  75.072  1.00  0.00    -0.320 OA
ATOM     10  O   UNL     1      97.487  82.450  74.351  1.00  0.00    -0.313 OA
ATOM     11  C   UNL     1      99.082  81.271  75.650  1.00  0.00     0.170 C 
ATOM     12  C   UNL     1      96.918  80.190  74.832  1.00  0.00     0.049 C 
ATOM     13  C   UNL     1      96.675  80.270  72.317  1.00  0.00     0.011 C 
ATOM     14  C   UNL     1      97.566  81.456  75.394  1.00  0.00     0.122 C 
BRANCH   6  15
ATOM     15  C   UNL     1      99.948  79.378  72.386  1.00  0.00     0.086 C 
ATOM     16  C   UNL     1     100.426  77.990  72.862  1.00  0.00     0.140 CG0
ATOM     17  C   UNL     1      99.414  79.109  71.007  1.00  0.00    -0.010 C 
ATOM     18  C   UNL     1     100.414  77.183  71.581  1.00  0.00     0.190 C 
ATOM     19  G   UNL     1     101.811  78.047  73.505  1.00  0.00     0.000 G0
ATOM     20  C   UNL     1      99.683  77.894  70.515  1.00  0.00    -0.008 C 
ATOM     21  O   UNL     1     100.895  76.069  71.442  1.00  0.00    -0.291 OA
ATOM     22  C   UNL     1      99.393  77.320  69.185  1.00  0.00     0.048 C 
BRANCH  16  23
ATOM     23  O   UNL     1      99.496  77.317  73.695  1.00  0.00    -0.381 OA
ATOM     24  H   UNL     1      98.743  77.910  73.855  1.00  0.00     0.212 HD
ENDBRANCH  16  23
ENDBRANCH   6  15
BRANCH   7  25
ATOM     25  C   UNL     1      99.034  83.937  73.272  1.00  0.00     0.135 C 
BRANCH  25  26
ATOM     26  C   UNL     1     100.377  84.055  72.595  1.00  0.00    -0.040 A 
ATOM     27  C   UNL     1     100.460  84.040  71.202  1.00  0.00     0.004 A 
ATOM     28  C   UNL     1     101.536  84.182  73.360  1.00  0.00     0.004 A 
ATOM     29  C   UNL     1     101.701  84.150  70.576  1.00  0.00     0.000 A 
ATOM     30  C   UNL     1     102.778  84.291  72.734  1.00  0.00     0.000 A 
ATOM     31  C   UNL     1     102.860  84.275  71.342  1.00  0.00     0.000 A 
ENDBRANCH  25  26
ENDBRANCH   7  25
BRANCH  14  32
ATOM     32  C   UNL     1      96.853  81.980  76.597  1.00  0.00    -0.046 C 
ATOM     33  C   UNL     1      96.063  83.240  76.404  1.00  0.00     0.042 C 
ATOM     34  C   UNL     1      96.915  81.359  77.785  1.00  0.00     0.010 C 
ENDBRANCH  14  32
ENDBRANCH   3   4
BRANCH   2  35
ATOM     35  C   UNL     1     101.841  78.066  73.529  1.00  0.00     0.078 CG0
ATOM     36  G   UNL     1     100.453  77.981  72.895  1.00  0.00     0.000 G0
ENDBRANCH   2  35
ENDBRANCH   1   2
BRANCH   1  37
ATOM     37  O   UNL     1     103.650  79.564  76.265  1.00  0.00    -0.461 OA
BRANCH  37  38
ATOM     38  C   UNL     1     103.913  78.452  77.031  1.00  0.00     0.310 C 
ATOM     39  O   UNL     1     105.019  78.128  77.443  1.00  0.00    -0.252 OA
BRANCH  38  40
ATOM     40  C   UNL     1     102.629  77.698  77.284  1.00  0.00     0.158 C 
BRANCH  40  41
ATOM     41  C   UNL     1     101.827  78.268  78.425  1.00  0.00    -0.033 A 
ATOM     42  C   UNL     1     102.362  78.283  79.714  1.00  0.00     0.054 A 
ATOM     43  C   UNL     1     100.550  78.779  78.194  1.00  0.00     0.008 A 
ATOM     44  C   UNL     1     101.620  78.811  80.771  1.00  0.00     0.160 A 
ATOM     45  C   UNL     1      99.808  79.307  79.251  1.00  0.00     0.050 A 
ATOM     46  C   UNL     1     100.342  79.322  80.539  1.00  0.00     0.157 A 
BRANCH  44  47
ATOM     47  O   UNL     1     102.153  78.820  82.024  1.00  0.00    -0.493 OA
ATOM     48  C   UNL     1     103.556  79.058  82.130  1.00  0.00     0.278 C 
ENDBRANCH  44  47
BRANCH  46  49
ATOM     49  O   UNL     1      99.609  79.840  81.563  1.00  0.00    -0.504 OA
ATOM     50  H   UNL     1      99.127  80.622  81.243  1.00  0.00     0.293 HD
ENDBRANCH  46  49
ENDBRANCH  40  41
ENDBRANCH  38  40
ENDBRANCH  37  38
ENDBRANCH   1  37
TORSDOF 11
ENDMDL
MODEL 4
REMARK VINA RESULT:    -6.466      7.674     12.477
REMARK INTER + INTRA:         -11.903
REMARK INTER:                 -10.052
REMARK INTRA:                  -1.850
REMARK UNBOUND:                -0.522
REMARK SMILES C=C(C)[C@]12C[C@@H](C)[C@@]34O[C@](Cc5ccccc5)(O[C@@H]1[C@@H]3C=C(COC(=O)Cc1ccc(O)c(OC)c1)C[C@]1(O)C(=O)C(C)=C[C@@H]41)O2
REMARK SMILES IDX 23 1 22 2 21 3 20 4 9 5 8 6 10 7 6 8 18 9 46 10 19 11 5 12
REMARK SMILES IDX 7 13 4 14 45 15 38 16 44 17 40 18 42 20 41 21 43 22 39 23
REMARK SMILES IDX 11 25 12 26 13 27 17 28 14 29 16 30 15 31 2 32 3 33 1 34
REMARK SMILES IDX 37 35 24 37 25 38 26 39 27 40 28 41 36 42 29 43 33 44 30 45
REMARK SMILES IDX 31 46 34 47 35 48 32 49
REMARK H PARENT 39 24 32 50
REMARK Flexibility Score: 90.00
ROOT
ATOM      1  C   UNL     1      97.265  75.971  73.862  1.00  0.00     0.264 C 
ENDROOT
BRANCH   1   2
ATOM      2  C   UNL     1      97.778  77.375  73.643  1.00  0.00    -0.033 C 
ATOM      3  C   UNL     1      97.385  78.359  74.477  1.00  0.00    -0.015 C 
BRANCH   3   4
ATOM      4  C   UNL     1      97.692  79.846  74.426  1.00  0.00     0.078 C 
ATOM      5  O   UNL     1      99.705  80.214  75.816  1.00  0.00    -0.319 OA
ATOM      6  C   UNL     1      99.198  80.301  74.448  1.00  0.00     0.095 C 
ATOM      7  C   UNL     1      98.810  80.695  76.836  1.00  0.00     0.289 C 
ATOM      8  C   UNL     1      99.252  81.810  73.965  1.00  0.00     0.023 C 
ATOM      9  O   UNL     1      97.564  80.003  76.800  1.00  0.00    -0.320 OA
ATOM     10  O   UNL     1      98.489  82.074  76.669  1.00  0.00    -0.313 OA
ATOM     11  C   UNL     1      96.997  80.567  75.608  1.00  0.00     0.170 C 
ATOM     12  C   UNL     1      97.977  82.595  74.404  1.00  0.00     0.049 C 
ATOM     13  C   UNL     1     100.505  82.593  74.386  1.00  0.00     0.011 C 
ATOM     14  C   UNL     1      97.405  82.058  75.716  1.00  0.00     0.122 C 
BRANCH   6  15
ATOM     15  C   UNL     1     100.086  79.309  73.642  1.00  0.00     0.086 C 
ATOM     16  C   UNL     1      99.503  78.809  72.303  1.00  0.00     0.140 CG0
ATOM     17  C   UNL     1     101.492  79.702  73.285  1.00  0.00    -0.010 C 
ATOM     18  C   UNL     1     100.740  78.665  71.442  1.00  0.00     0.190 C 
ATOM     19  G   UNL     1      98.743  77.493  72.461  1.00  0.00     0.000 G0
ATOM     20  C   UNL     1     101.899  79.330  72.067  1.00  0.00    -0.008 C 
ATOM     21  O   UNL     1     100.783  78.120  70.350  1.00  0.00    -0.291 OA
ATOM     22  C   UNL     1     103.221  79.470  71.422  1.00  0.00     0.048 C 
BRANCH  16  23
ATOM     23  O   UNL     1      98.725  79.777  71.619  1.00  0.00    -0.381 OA
ATOM     24  H   UNL     1      98.190  79.322  70.948  1.00  0.00     0.212 HD
ENDBRANCH  16  23
ENDBRANCH   6  15
BRANCH   7  25
ATOM     25  C   UNL     1      99.471  80.490  78.184  1.00  0.00     0.135 C 
BRANCH  25  26
ATOM     26  C   UNL     1      98.491  80.635  79.322  1.00  0.00    -0.040 A 
ATOM     27  C   UNL     1      97.994  79.499  79.963  1.00  0.00     0.004 A 
ATOM     28  C   UNL     1      98.083  81.902  79.735  1.00  0.00     0.004 A 
ATOM     29  C   UNL     1      97.088  79.632  81.016  1.00  0.00     0.000 A 
ATOM     30  C   UNL     1      97.177  82.036  80.788  1.00  0.00     0.000 A 
ATOM     31  C   UNL     1      96.680  80.900  81.428  1.00  0.00     0.000 A 
ENDBRANCH  25  26
ENDBRANCH   7  25
BRANCH  14  32
ATOM     32  C   UNL     1      96.297  82.906  76.250  1.00  0.00    -0.046 C 
ATOM     33  C   UNL     1      95.613  82.402  77.486  1.00  0.00     0.042 C 
ATOM     34  C   UNL     1      95.934  84.053  75.657  1.00  0.00     0.010 C 
ENDBRANCH  14  32
ENDBRANCH   3   4
BRANCH   2  35
ATOM     35  C   UNL     1      98.719  77.486  72.458  1.00  0.00     0.078 CG0
ATOM     36  G   UNL     1      99.496  78.792  72.303  1.00  0.00     0.000 G0
ENDBRANCH   2  35
ENDBRANCH   1   2
BRANCH   1  37
ATOM     37  O   UNL     1      97.488  75.597  75.205  1.00  0.00    -0.461 OA
BRANCH  37  38
ATOM     38  C   UNL     1      98.750  75.142  75.508  1.00  0.00     0.310 C 
ATOM     39  O   UNL     1      99.141  73.994  75.345  1.00  0.00    -0.252 OA
BRANCH  38  40
ATOM     40  C   UNL     1      99.573  76.276  76.072  1.00  0.00     0.158 C 
BRANCH  40  41
ATOM     41  C   UNL     1      99.578  76.307  77.578  1.00  0.00    -0.033 A 
ATOM     42  C   UNL     1     100.615  76.945  78.260  1.00  0.00     0.054 A 
ATOM     43  C   UNL     1      98.545  75.699  78.292  1.00  0.00     0.008 A 
ATOM     44  C   UNL     1     100.620  76.973  79.654  1.00  0.00     0.160 A 
ATOM     45  C   UNL     1      98.550  75.727  79.687  1.00  0.00     0.050 A 
ATOM     46  C   UNL     1      99.586  76.364  80.368  1.00  0.00     0.157 A 
BRANCH  44  47
ATOM     47  O   UNL     1     101.638  77.599  80.308  1.00  0.00    -0.493 OA
ATOM     48  C   UNL     1     101.435  78.964  80.670  1.00  0.00     0.278 C 
ENDBRANCH  44  47
BRANCH  46  49
ATOM     49  O   UNL     1      99.580  76.387  81.730  1.00  0.00    -0.504 OA
ATOM     50  H   UNL     1     100.286  76.978  82.040  1.00  0.00     0.293 HD
ENDBRANCH  46  49
ENDBRANCH  40  41
ENDBRANCH  38  40
ENDBRANCH  37  38
ENDBRANCH   1  37
TORSDOF 11
ENDMDL
MODEL 5
REMARK VINA RESULT:    -6.381      6.859     10.836
REMARK INTER + INTRA:         -11.752
REMARK INTER:                  -9.668
REMARK INTRA:                  -2.083
REMARK UNBOUND:                -0.522
REMARK SMILES C=C(C)[C@]12C[C@@H](C)[C@@]34O[C@](Cc5ccccc5)(O[C@@H]1[C@@H]3C=C(COC(=O)Cc1ccc(O)c(OC)c1)C[C@]1(O)C(=O)C(C)=C[C@@H]41)O2
REMARK SMILES IDX 23 1 22 2 21 3 20 4 9 5 8 6 10 7 6 8 18 9 46 10 19 11 5 12
REMARK SMILES IDX 7 13 4 14 45 15 38 16 44 17 40 18 42 20 41 21 43 22 39 23
REMARK SMILES IDX 11 25 12 26 13 27 17 28 14 29 16 30 15 31 2 32 3 33 1 34
REMARK SMILES IDX 37 35 24 37 25 38 26 39 27 40 28 41 36 42 29 43 33 44 30 45
REMARK SMILES IDX 31 46 34 47 35 48 32 49
REMARK H PARENT 39 24 32 50
REMARK Flexibility Score: 90.00
ROOT
ATOM      1  C   UNL     1      99.238  77.024  73.921  1.00  0.00     0.264 C 
ENDROOT
BRANCH   1   2
ATOM      2  C   UNL     1      99.856  77.886  74.996  1.00  0.00    -0.033 C 
ATOM      3  C   UNL     1      99.111  78.249  76.060  1.00  0.00    -0.015 C 
BRANCH   3   4
ATOM      4  C   UNL     1      99.469  79.161  77.222  1.00  0.00     0.078 C 
ATOM      5  O   UNL     1     100.355  77.718  79.025  1.00  0.00    -0.319 OA
ATOM      6  C   UNL     1     100.719  78.794  78.105  1.00  0.00     0.095 C 
ATOM      7  C   UNL     1      99.065  77.852  79.651  1.00  0.00     0.289 C 
ATOM      8  C   UNL     1     101.113  80.083  78.938  1.00  0.00     0.023 C 
ATOM      9  O   UNL     1      98.027  77.949  78.680  1.00  0.00    -0.320 OA
ATOM     10  O   UNL     1      98.967  79.035  80.440  1.00  0.00    -0.313 OA
ATOM     11  C   UNL     1      98.265  79.277  78.189  1.00  0.00     0.170 C 
ATOM     12  C   UNL     1      99.857  80.930  79.309  1.00  0.00     0.049 C 
ATOM     13  C   UNL     1     101.946  79.822  80.203  1.00  0.00     0.011 C 
ATOM     14  C   UNL     1      98.615  80.055  79.482  1.00  0.00     0.122 C 
BRANCH   6  15
ATOM     15  C   UNL     1     101.855  78.190  77.230  1.00  0.00     0.086 C 
ATOM     16  C   UNL     1     102.112  78.883  75.876  1.00  0.00     0.140 CG0
ATOM     17  C   UNL     1     103.232  78.039  77.812  1.00  0.00    -0.010 C 
ATOM     18  C   UNL     1     103.609  78.734  75.712  1.00  0.00     0.190 C 
ATOM     19  G   UNL     1     101.330  78.231  74.736  1.00  0.00     0.000 G0
ATOM     20  C   UNL     1     104.240  78.310  76.977  1.00  0.00    -0.008 C 
ATOM     21  O   UNL     1     104.238  78.976  74.693  1.00  0.00    -0.291 OA
ATOM     22  C   UNL     1     105.699  78.192  77.175  1.00  0.00     0.048 C 
BRANCH  16  23
ATOM     23  O   UNL     1     101.913  80.287  75.903  1.00  0.00    -0.381 OA
ATOM     24  H   UNL     1     102.131  80.611  76.793  1.00  0.00     0.212 HD
ENDBRANCH  16  23
ENDBRANCH   6  15
BRANCH   7  25
ATOM     25  C   UNL     1      98.834  76.638  80.528  1.00  0.00     0.135 C 
BRANCH  25  26
ATOM     26  C   UNL     1      98.064  76.983  81.779  1.00  0.00    -0.040 A 
ATOM     27  C   UNL     1      98.738  77.462  82.903  1.00  0.00     0.004 A 
ATOM     28  C   UNL     1      96.679  76.824  81.812  1.00  0.00     0.004 A 
ATOM     29  C   UNL     1      98.026  77.782  84.060  1.00  0.00     0.000 A 
ATOM     30  C   UNL     1      95.967  77.143  82.969  1.00  0.00     0.000 A 
ATOM     31  C   UNL     1      96.642  77.622  84.092  1.00  0.00     0.000 A 
ENDBRANCH  25  26
ENDBRANCH   7  25
BRANCH  14  32
ATOM     32  C   UNL     1      97.445  80.816  80.014  1.00  0.00    -0.046 C 
ATOM     33  C   UNL     1      96.926  80.383  81.353  1.00  0.00     0.042 C 
ATOM     34  C   UNL     1      96.890  81.830  79.333  1.00  0.00     0.010 C 
ENDBRANCH  14  32
ENDBRANCH   3   4
BRANCH   2  35
ATOM     35  C   UNL     1     101.307  78.234  74.719  1.00  0.00     0.078 CG0
ATOM     36  G   UNL     1     102.105  78.862  75.860  1.00  0.00     0.000 G0
ENDBRANCH   2  35
ENDBRANCH   1   2
BRANCH   1  37
ATOM     37  O   UNL     1      97.891  77.403  73.735  1.00  0.00    -0.461 OA
BRANCH  37  38
ATOM     38  C   UNL     1      97.628  78.194  72.640  1.00  0.00     0.310 C 
ATOM     39  O   UNL     1      98.113  78.037  71.528  1.00  0.00    -0.252 OA
BRANCH  38  40
ATOM     40  C   UNL     1      96.651  79.280  73.025  1.00  0.00     0.158 C 
BRANCH  40  41
ATOM     41  C   UNL     1      97.317  80.609  73.273  1.00  0.00    -0.033 A 
ATOM     42  C   UNL     1      96.582  81.669  73.804  1.00  0.00     0.054 A 
ATOM     43  C   UNL     1      98.668  80.779  72.972  1.00  0.00     0.008 A 
ATOM     44  C   UNL     1      97.198  82.899  74.034  1.00  0.00     0.160 A 
ATOM     45  C   UNL     1      99.285  82.009  73.202  1.00  0.00     0.050 A 
ATOM     46  C   UNL     1      98.551  83.069  73.733  1.00  0.00     0.157 A 
BRANCH  44  47
ATOM     47  O   UNL     1      96.470  83.927  74.553  1.00  0.00    -0.493 OA
ATOM     48  C   UNL     1      96.021  83.788  75.900  1.00  0.00     0.278 C 
ENDBRANCH  44  47
BRANCH  46  49
ATOM     49  O   UNL     1      99.163  84.265  73.954  1.00  0.00    -0.504 OA
ATOM     50  H   UNL     1      99.323  84.367  74.907  1.00  0.00     0.293 HD
ENDBRANCH  46  49
ENDBRANCH  40  41
ENDBRANCH  38  40
ENDBRANCH  37  38
ENDBRANCH   1  37
TORSDOF 11
ENDMDL
MODEL 6
REMARK VINA RESULT:    -6.294     32.241     36.749
REMARK INTER + INTRA:         -11.599
REMARK INTER:                 -10.597
REMARK INTRA:                  -1.002
REMARK UNBOUND:                -0.522
REMARK SMILES C=C(C)[C@]12C[C@@H](C)[C@@]34O[C@](Cc5ccccc5)(O[C@@H]1[C@@H]3C=C(COC(=O)Cc1ccc(O)c(OC)c1)C[C@]1(O)C(=O)C(C)=C[C@@H]41)O2
REMARK SMILES IDX 23 1 22 2 21 3 20 4 9 5 8 6 10 7 6 8 18 9 46 10 19 11 5 12
REMARK SMILES IDX 7 13 4 14 45 15 38 16 44 17 40 18 42 20 41 21 43 22 39 23
REMARK SMILES IDX 11 25 12 26 13 27 17 28 14 29 16 30 15 31 2 32 3 33 1 34
REMARK SMILES IDX 37 35 24 37 25 38 26 39 27 40 28 41 36 42 29 43 33 44 30 45
REMARK SMILES IDX 31 46 34 47 35 48 32 49
REMARK H PARENT 39 24 32 50
REMARK Flexibility Score: 90.00
ROOT
ATOM      1  C   UNL     1      60.119  88.791  70.111  1.00  0.00     0.264 C 
ENDROOT
BRANCH   1   2
ATOM      2  C   UNL     1      60.187  87.548  70.966  1.00  0.00    -0.033 C 
ATOM      3  C   UNL     1      61.126  86.617  70.701  1.00  0.00    -0.015 C 
BRANCH   3   4
ATOM      4  C   UNL     1      61.353  85.263  71.354  1.00  0.00     0.078 C 
ATOM      5  O   UNL     1      62.969  85.612  73.194  1.00  0.00    -0.319 OA
ATOM      6  C   UNL     1      61.593  85.212  72.909  1.00  0.00     0.095 C 
ATOM      7  C   UNL     1      63.966  85.065  72.310  1.00  0.00     0.289 C 
ATOM      8  C   UNL     1      61.375  83.715  73.379  1.00  0.00     0.023 C 
ATOM      9  O   UNL     1      63.697  85.408  70.953  1.00  0.00    -0.320 OA
ATOM     10  O   UNL     1      64.000  83.641  72.348  1.00  0.00    -0.313 OA
ATOM     11  C   UNL     1      62.567  84.559  70.698  1.00  0.00     0.170 C 
ATOM     12  C   UNL     1      61.815  82.700  72.279  1.00  0.00     0.049 C 
ATOM     13  C   UNL     1      62.037  83.340  74.715  1.00  0.00     0.011 C 
ATOM     14  C   UNL     1      62.960  83.251  71.427  1.00  0.00     0.122 C 
BRANCH   6  15
ATOM     15  C   UNL     1      60.721  86.275  73.637  1.00  0.00     0.086 C 
ATOM     16  C   UNL     1      59.269  86.421  73.137  1.00  0.00     0.140 CG0
ATOM     17  C   UNL     1      60.571  86.208  75.131  1.00  0.00    -0.010 C 
ATOM     18  C   UNL     1      58.518  86.755  74.409  1.00  0.00     0.190 C 
ATOM     19  G   UNL     1      59.131  87.510  72.074  1.00  0.00     0.000 G0
ATOM     20  C   UNL     1      59.353  86.499  75.598  1.00  0.00    -0.008 C 
ATOM     21  O   UNL     1      57.359  87.136  74.468  1.00  0.00    -0.291 OA
ATOM     22  C   UNL     1      58.869  86.611  76.989  1.00  0.00     0.048 C 
BRANCH  16  23
ATOM     23  O   UNL     1      58.684  85.203  72.708  1.00  0.00    -0.381 OA
ATOM     24  H   UNL     1      58.481  85.276  71.761  1.00  0.00     0.212 HD
ENDBRANCH  16  23
ENDBRANCH   6  15
BRANCH   7  25
ATOM     25  C   UNL     1      65.318  85.615  72.718  1.00  0.00     0.135 C 
BRANCH  25  26
ATOM     26  C   UNL     1      65.250  86.370  74.023  1.00  0.00    -0.040 A 
ATOM     27  C   UNL     1      65.316  87.763  74.026  1.00  0.00     0.004 A 
ATOM     28  C   UNL     1      65.120  85.675  75.225  1.00  0.00     0.004 A 
ATOM     29  C   UNL     1      65.253  88.462  75.232  1.00  0.00     0.000 A 
ATOM     30  C   UNL     1      65.058  86.374  76.431  1.00  0.00     0.000 A 
ATOM     31  C   UNL     1      65.124  87.767  76.434  1.00  0.00     0.000 A 
ENDBRANCH  25  26
ENDBRANCH   7  25
BRANCH  14  32
ATOM     32  C   UNL     1      63.519  82.231  70.490  1.00  0.00    -0.046 C 
ATOM     33  C   UNL     1      62.664  81.878  69.309  1.00  0.00     0.042 C 
ATOM     34  C   UNL     1      64.718  81.664  70.691  1.00  0.00     0.010 C 
ENDBRANCH  14  32
ENDBRANCH   3   4
BRANCH   2  35
ATOM     35  C   UNL     1      59.141  87.522  72.064  1.00  0.00     0.078 CG0
ATOM     36  G   UNL     1      59.293  86.458  73.150  1.00  0.00     0.000 G0
ENDBRANCH   2  35
ENDBRANCH   1   2
BRANCH   1  37
ATOM     37  O   UNL     1      59.435  88.497  68.912  1.00  0.00    -0.461 OA
BRANCH  37  38
ATOM     38  C   UNL     1      59.020  89.576  68.167  1.00  0.00     0.310 C 
ATOM     39  O   UNL     1      59.498  89.915  67.094  1.00  0.00    -0.252 OA
BRANCH  38  40
ATOM     40  C   UNL     1      57.885  90.274  68.879  1.00  0.00     0.158 C 
BRANCH  40  41
ATOM     41  C   UNL     1      56.528  89.840  68.390  1.00  0.00    -0.033 A 
ATOM     42  C   UNL     1      55.963  90.449  67.269  1.00  0.00     0.054 A 
ATOM     43  C   UNL     1      55.836  88.830  69.058  1.00  0.00     0.008 A 
ATOM     44  C   UNL     1      54.706  90.047  66.816  1.00  0.00     0.160 A 
ATOM     45  C   UNL     1      54.579  88.428  68.605  1.00  0.00     0.050 A 
ATOM     46  C   UNL     1      54.014  89.036  67.485  1.00  0.00     0.157 A 
BRANCH  44  47
ATOM     47  O   UNL     1      54.165  90.648  65.720  1.00  0.00    -0.493 OA
ATOM     48  C   UNL     1      54.663  90.243  64.446  1.00  0.00     0.278 C 
ENDBRANCH  44  47
BRANCH  46  49
ATOM     49  O   UNL     1      52.787  88.635  67.051  1.00  0.00    -0.504 OA
ATOM     50  H   UNL     1      52.867  87.756  66.642  1.00  0.00     0.293 HD
ENDBRANCH  46  49
ENDBRANCH  40  41
ENDBRANCH  38  40
ENDBRANCH  37  38
ENDBRANCH   1  37
TORSDOF 11
ENDMDL
MODEL 7
REMARK VINA RESULT:    -6.247      4.548     13.054
REMARK INTER + INTRA:         -11.516
REMARK INTER:                 -10.837
REMARK INTRA:                  -0.679
REMARK UNBOUND:                -0.522
REMARK SMILES C=C(C)[C@]12C[C@@H](C)[C@@]34O[C@](Cc5ccccc5)(O[C@@H]1[C@@H]3C=C(COC(=O)Cc1ccc(O)c(OC)c1)C[C@]1(O)C(=O)C(C)=C[C@@H]41)O2
REMARK SMILES IDX 23 1 22 2 21 3 20 4 9 5 8 6 10 7 6 8 18 9 46 10 19 11 5 12
REMARK SMILES IDX 7 13 4 14 45 15 38 16 44 17 40 18 42 20 41 21 43 22 39 23
REMARK SMILES IDX 11 25 12 26 13 27 17 28 14 29 16 30 15 31 2 32 3 33 1 34
REMARK SMILES IDX 37 35 24 37 25 38 26 39 27 40 28 41 36 42 29 43 33 44 30 45
REMARK SMILES IDX 31 46 34 47 35 48 32 49
REMARK H PARENT 39 24 32 50
REMARK Flexibility Score: 90.00
ROOT
ATOM      1  C   UNL     1      98.705  77.539  79.661  1.00  0.00     0.264 C 
ENDROOT
BRANCH   1   2
ATOM      2  C   UNL     1      98.455  77.578  78.171  1.00  0.00    -0.033 C 
ATOM      3  C   UNL     1      98.470  78.765  77.532  1.00  0.00    -0.015 C 
BRANCH   3   4
ATOM      4  C   UNL     1      98.176  79.079  76.074  1.00  0.00     0.078 C 
ATOM      5  O   UNL     1     100.335  78.994  74.869  1.00  0.00    -0.319 OA
ATOM      6  C   UNL     1      99.026  78.353  74.966  1.00  0.00     0.095 C 
ATOM      7  C   UNL     1     100.321  80.434  74.915  1.00  0.00     0.289 C 
ATOM      8  C   UNL     1      98.259  78.518  73.588  1.00  0.00     0.023 C 
ATOM      9  O   UNL     1      99.703  80.907  76.109  1.00  0.00    -0.320 OA
ATOM     10  O   UNL     1      99.573  81.002  73.843  1.00  0.00    -0.313 OA
ATOM     11  C   UNL     1      98.330  80.599  75.822  1.00  0.00     0.170 C 
ATOM     12  C   UNL     1      97.501  79.879  73.516  1.00  0.00     0.049 C 
ATOM     13  C   UNL     1      99.123  78.346  72.328  1.00  0.00     0.011 C 
ATOM     14  C   UNL     1      98.212  80.967  74.322  1.00  0.00     0.122 C 
BRANCH   6  15
ATOM     15  C   UNL     1      99.341  76.887  75.384  1.00  0.00     0.086 C 
ATOM     16  C   UNL     1      98.180  76.098  76.024  1.00  0.00     0.140 CG0
ATOM     17  C   UNL     1      99.892  75.932  74.363  1.00  0.00    -0.010 C 
ATOM     18  C   UNL     1      98.430  74.690  75.528  1.00  0.00     0.190 C 
ATOM     19  G   UNL     1      98.190  76.192  77.549  1.00  0.00     0.000 G0
ATOM     20  C   UNL     1      99.421  74.683  74.434  1.00  0.00    -0.008 C 
ATOM     21  O   UNL     1      97.862  73.686  75.929  1.00  0.00    -0.291 OA
ATOM     22  C   UNL     1      99.791  73.480  73.660  1.00  0.00     0.048 C 
BRANCH  16  23
ATOM     23  O   UNL     1      96.905  76.422  75.494  1.00  0.00    -0.381 OA
ATOM     24  H   UNL     1      96.781  77.383  75.558  1.00  0.00     0.212 HD
ENDBRANCH  16  23
ENDBRANCH   6  15
BRANCH   7  25
ATOM     25  C   UNL     1     101.752  80.925  74.849  1.00  0.00     0.135 C 
BRANCH  25  26
ATOM     26  C   UNL     1     102.669  80.116  75.733  1.00  0.00    -0.040 A 
ATOM     27  C   UNL     1     102.290  79.816  77.041  1.00  0.00     0.004 A 
ATOM     28  C   UNL     1     103.895  79.667  75.241  1.00  0.00     0.004 A 
ATOM     29  C   UNL     1     103.138  79.067  77.858  1.00  0.00     0.000 A 
ATOM     30  C   UNL     1     104.742  78.919  76.058  1.00  0.00     0.000 A 
ATOM     31  C   UNL     1     104.363  78.619  77.367  1.00  0.00     0.000 A 
ENDBRANCH  25  26
ENDBRANCH   7  25
BRANCH  14  32
ATOM     32  C   UNL     1      97.608  82.318  74.121  1.00  0.00    -0.046 C 
ATOM     33  C   UNL     1      98.566  83.438  73.847  1.00  0.00     0.042 C 
ATOM     34  C   UNL     1      96.283  82.518  74.181  1.00  0.00     0.010 C 
ENDBRANCH  14  32
ENDBRANCH   3   4
BRANCH   2  35
ATOM     35  C   UNL     1      98.218  76.205  77.571  1.00  0.00     0.078 CG0
ATOM     36  G   UNL     1      98.162  76.109  76.047  1.00  0.00     0.000 G0
ENDBRANCH   2  35
ENDBRANCH   1   2
BRANCH   1  37
ATOM     37  O   UNL     1      98.201  78.718  80.251  1.00  0.00    -0.461 OA
BRANCH  37  38
ATOM     38  C   UNL     1      98.131  78.729  81.624  1.00  0.00     0.310 C 
ATOM     39  O   UNL     1      99.084  78.583  82.377  1.00  0.00    -0.252 OA
BRANCH  38  40
ATOM     40  C   UNL     1      96.700  78.950  82.055  1.00  0.00     0.158 C 
BRANCH  40  41
ATOM     41  C   UNL     1      96.420  80.376  82.454  1.00  0.00    -0.033 A 
ATOM     42  C   UNL     1      95.559  80.645  83.519  1.00  0.00     0.054 A 
ATOM     43  C   UNL     1      97.020  81.426  81.760  1.00  0.00     0.008 A 
ATOM     44  C   UNL     1      95.299  81.965  83.889  1.00  0.00     0.160 A 
ATOM     45  C   UNL     1      96.760  82.745  82.129  1.00  0.00     0.050 A 
ATOM     46  C   UNL     1      95.900  83.015  83.193  1.00  0.00     0.157 A 
BRANCH  44  47
ATOM     47  O   UNL     1      94.457  82.215  84.930  1.00  0.00    -0.493 OA
ATOM     48  C   UNL     1      94.057  81.099  85.723  1.00  0.00     0.278 C 
ENDBRANCH  44  47
BRANCH  46  49
ATOM     49  O   UNL     1      95.654  84.308  83.546  1.00  0.00    -0.504 OA
ATOM     50  H   UNL     1      95.134  84.734  82.844  1.00  0.00     0.293 HD
ENDBRANCH  46  49
ENDBRANCH  40  41
ENDBRANCH  38  40
ENDBRANCH  37  38
ENDBRANCH   1  37
TORSDOF 11
ENDMDL
MODEL 8
REMARK VINA RESULT:    -6.027     25.465     31.134
REMARK INTER + INTRA:         -11.129
REMARK INTER:                 -10.314
REMARK INTRA:                  -0.816
REMARK UNBOUND:                -0.522
REMARK SMILES C=C(C)[C@]12C[C@@H](C)[C@@]34O[C@](Cc5ccccc5)(O[C@@H]1[C@@H]3C=C(COC(=O)Cc1ccc(O)c(OC)c1)C[C@]1(O)C(=O)C(C)=C[C@@H]41)O2
REMARK SMILES IDX 23 1 22 2 21 3 20 4 9 5 8 6 10 7 6 8 18 9 46 10 19 11 5 12
REMARK SMILES IDX 7 13 4 14 45 15 38 16 44 17 40 18 42 20 41 21 43 22 39 23
REMARK SMILES IDX 11 25 12 26 13 27 17 28 14 29 16 30 15 31 2 32 3 33 1 34
REMARK SMILES IDX 37 35 24 37 25 38 26 39 27 40 28 41 36 42 29 43 33 44 30 45
REMARK SMILES IDX 31 46 34 47 35 48 32 49
REMARK H PARENT 39 24 32 50
REMARK Flexibility Score: 90.00
ROOT
ATOM      1  C   UNL     1      65.518  72.487  85.665  1.00  0.00     0.264 C 
ENDROOT
BRANCH   1   2
ATOM      2  C   UNL     1      64.082  72.945  85.770  1.00  0.00    -0.033 C 
ATOM      3  C   UNL     1      63.816  74.263  85.874  1.00  0.00    -0.015 C 
BRANCH   3   4
ATOM      4  C   UNL     1      62.482  74.966  86.067  1.00  0.00     0.078 C 
ATOM      5  O   UNL     1      61.631  75.529  83.813  1.00  0.00    -0.319 OA
ATOM      6  C   UNL     1      61.349  74.726  85.001  1.00  0.00     0.095 C 
ATOM      7  C   UNL     1      62.084  76.872  84.070  1.00  0.00     0.289 C 
ATOM      8  C   UNL     1      59.980  75.204  85.642  1.00  0.00     0.023 C 
ATOM      9  O   UNL     1      63.260  76.876  84.875  1.00  0.00    -0.320 OA
ATOM     10  O   UNL     1      61.122  77.638  84.790  1.00  0.00    -0.313 OA
ATOM     11  C   UNL     1      62.700  76.497  86.142  1.00  0.00     0.170 C 
ATOM     12  C   UNL     1      60.190  76.413  86.604  1.00  0.00     0.049 C 
ATOM     13  C   UNL     1      58.863  75.536  84.639  1.00  0.00     0.011 C 
ATOM     14  C   UNL     1      61.367  77.286  86.167  1.00  0.00     0.122 C 
BRANCH   6  15
ATOM     15  C   UNL     1      61.372  73.256  84.492  1.00  0.00     0.086 C 
ATOM     16  C   UNL     1      61.595  72.169  85.563  1.00  0.00     0.140 CG0
ATOM     17  C   UNL     1      60.206  72.733  83.700  1.00  0.00    -0.010 C 
ATOM     18  C   UNL     1      60.758  71.020  85.041  1.00  0.00     0.190 C 
ATOM     19  G   UNL     1      63.070  71.798  85.710  1.00  0.00     0.000 G0
ATOM     20  C   UNL     1      59.855  71.470  83.965  1.00  0.00    -0.008 C 
ATOM     21  O   UNL     1      60.775  69.878  85.473  1.00  0.00    -0.291 OA
ATOM     22  C   UNL     1      58.829  70.616  83.333  1.00  0.00     0.048 C 
BRANCH  16  23
ATOM     23  O   UNL     1      61.010  72.471  86.818  1.00  0.00    -0.381 OA
ATOM     24  H   UNL     1      60.532  73.313  86.740  1.00  0.00     0.212 HD
ENDBRANCH  16  23
ENDBRANCH   6  15
BRANCH   7  25
ATOM     25  C   UNL     1      62.371  77.539  82.740  1.00  0.00     0.135 C 
BRANCH  25  26
ATOM     26  C   UNL     1      63.647  78.343  82.775  1.00  0.00    -0.040 A 
ATOM     27  C   UNL     1      63.723  79.497  83.555  1.00  0.00     0.004 A 
ATOM     28  C   UNL     1      64.751  77.931  82.029  1.00  0.00     0.004 A 
ATOM     29  C   UNL     1      64.904  80.241  83.587  1.00  0.00     0.000 A 
ATOM     30  C   UNL     1      65.931  78.675  82.061  1.00  0.00     0.000 A 
ATOM     31  C   UNL     1      66.007  79.829  82.840  1.00  0.00     0.000 A 
ENDBRANCH  25  26
ENDBRANCH   7  25
BRANCH  14  32
ATOM     32  C   UNL     1      61.475  78.545  86.964  1.00  0.00    -0.046 C 
ATOM     33  C   UNL     1      60.203  79.313  87.164  1.00  0.00     0.042 C 
ATOM     34  C   UNL     1      62.644  78.965  87.471  1.00  0.00     0.010 C 
ENDBRANCH  14  32
ENDBRANCH   3   4
BRANCH   2  35
ATOM     35  C   UNL     1      63.088  71.800  85.734  1.00  0.00     0.078 CG0
ATOM     36  G   UNL     1      61.611  72.160  85.585  1.00  0.00     0.000 G0
ENDBRANCH   2  35
ENDBRANCH   1   2
BRANCH   1  37
ATOM     37  O   UNL     1      65.664  71.251  86.330  1.00  0.00    -0.461 OA
BRANCH  37  38
ATOM     38  C   UNL     1      66.516  70.343  85.746  1.00  0.00     0.310 C 
ATOM     39  O   UNL     1      66.509  69.138  85.955  1.00  0.00    -0.252 OA
BRANCH  38  40
ATOM     40  C   UNL     1      67.457  71.063  84.810  1.00  0.00     0.158 C 
BRANCH  40  41
ATOM     41  C   UNL     1      68.857  71.177  85.356  1.00  0.00    -0.033 A 
ATOM     42  C   UNL     1      69.123  72.041  86.420  1.00  0.00     0.054 A 
ATOM     43  C   UNL     1      69.887  70.418  84.800  1.00  0.00     0.008 A 
ATOM     44  C   UNL     1      70.419  72.146  86.926  1.00  0.00     0.160 A 
ATOM     45  C   UNL     1      71.183  70.523  85.306  1.00  0.00     0.050 A 
ATOM     46  C   UNL     1      71.449  71.387  86.368  1.00  0.00     0.157 A 
BRANCH  44  47
ATOM     47  O   UNL     1      70.666  72.992  87.963  1.00  0.00    -0.493 OA
ATOM     48  C   UNL     1      70.419  74.380  87.741  1.00  0.00     0.278 C 
ENDBRANCH  44  47
BRANCH  46  49
ATOM     49  O   UNL     1      72.717  71.480  86.855  1.00  0.00    -0.504 OA
ATOM     50  H   UNL     1      72.996  70.608  87.183  1.00  0.00     0.293 HD
ENDBRANCH  46  49
ENDBRANCH  40  41
ENDBRANCH  38  40
ENDBRANCH  37  38
ENDBRANCH   1  37
TORSDOF 11
ENDMDL
MODEL 9
REMARK VINA RESULT:    -6.021     30.092     34.379
REMARK INTER + INTRA:         -11.119
REMARK INTER:                  -9.148
REMARK INTRA:                  -1.971
REMARK UNBOUND:                -0.522
REMARK SMILES C=C(C)[C@]12C[C@@H](C)[C@@]34O[C@](Cc5ccccc5)(O[C@@H]1[C@@H]3C=C(COC(=O)Cc1ccc(O)c(OC)c1)C[C@]1(O)C(=O)C(C)=C[C@@H]41)O2
REMARK SMILES IDX 23 1 22 2 21 3 20 4 9 5 8 6 10 7 6 8 18 9 46 10 19 11 5 12
REMARK SMILES IDX 7 13 4 14 45 15 38 16 44 17 40 18 42 20 41 21 43 22 39 23
REMARK SMILES IDX 11 25 12 26 13 27 17 28 14 29 16 30 15 31 2 32 3 33 1 34
REMARK SMILES IDX 37 35 24 37 25 38 26 39 27 40 28 41 36 42 29 43 33 44 30 45
REMARK SMILES IDX 31 46 34 47 35 48 32 49
REMARK H PARENT 39 24 32 50
REMARK Flexibility Score: 90.00
ROOT
ATOM      1  C   UNL     1      59.380  89.001  72.401  1.00  0.00     0.264 C 
ENDROOT
BRANCH   1   2
ATOM      2  C   UNL     1      60.170  88.076  73.298  1.00  0.00    -0.033 C 
ATOM      3  C   UNL     1      60.987  87.159  72.743  1.00  0.00    -0.015 C 
BRANCH   3   4
ATOM      4  C   UNL     1      61.819  86.077  73.412  1.00  0.00     0.078 C 
ATOM      5  O   UNL     1      64.068  87.032  73.796  1.00  0.00    -0.319 OA
ATOM      6  C   UNL     1      62.889  86.510  74.482  1.00  0.00     0.095 C 
ATOM      7  C   UNL     1      64.491  86.283  72.641  1.00  0.00     0.289 C 
ATOM      8  C   UNL     1      63.292  85.218  75.307  1.00  0.00     0.023 C 
ATOM      9  O   UNL     1      63.447  86.187  71.676  1.00  0.00    -0.320 OA
ATOM     10  O   UNL     1      64.840  84.939  72.966  1.00  0.00    -0.313 OA
ATOM     11  C   UNL     1      62.576  85.257  72.339  1.00  0.00     0.170 C 
ATOM     12  C   UNL     1      63.246  83.936  74.420  1.00  0.00     0.049 C 
ATOM     13  C   UNL     1      64.647  85.293  76.029  1.00  0.00     0.011 C 
ATOM     14  C   UNL     1      63.575  84.248  72.959  1.00  0.00     0.122 C 
BRANCH   6  15
ATOM     15  C   UNL     1      62.369  87.708  75.328  1.00  0.00     0.086 C 
ATOM     16  C   UNL     1      60.898  87.631  75.785  1.00  0.00     0.140 CG0
ATOM     17  C   UNL     1      63.103  88.099  76.580  1.00  0.00    -0.010 C 
ATOM     18  C   UNL     1      60.940  88.309  77.138  1.00  0.00     0.190 C 
ATOM     19  G   UNL     1      59.954  88.332  74.808  1.00  0.00     0.000 G0
ATOM     20  C   UNL     1      62.329  88.468  77.606  1.00  0.00    -0.008 C 
ATOM     21  O   UNL     1      59.964  88.641  77.794  1.00  0.00    -0.291 OA
ATOM     22  C   UNL     1      62.700  88.985  78.940  1.00  0.00     0.048 C 
BRANCH  16  23
ATOM     23  O   UNL     1      60.456  86.316  76.078  1.00  0.00    -0.381 OA
ATOM     24  H   UNL     1      61.006  85.689  75.581  1.00  0.00     0.212 HD
ENDBRANCH  16  23
ENDBRANCH   6  15
BRANCH   7  25
ATOM     25  C   UNL     1      65.689  86.984  72.032  1.00  0.00     0.135 C 
BRANCH  25  26
ATOM     26  C   UNL     1      66.440  86.091  71.075  1.00  0.00    -0.040 A 
ATOM     27  C   UNL     1      67.655  85.524  71.460  1.00  0.00     0.004 A 
ATOM     28  C   UNL     1      65.919  85.832  69.808  1.00  0.00     0.004 A 
ATOM     29  C   UNL     1      68.350  84.699  70.575  1.00  0.00     0.000 A 
ATOM     30  C   UNL     1      66.614  85.006  68.924  1.00  0.00     0.000 A 
ATOM     31  C   UNL     1      67.830  84.440  69.308  1.00  0.00     0.000 A 
ENDBRANCH  25  26
ENDBRANCH   7  25
BRANCH  14  32
ATOM     32  C   UNL     1      63.716  83.015  72.127  1.00  0.00    -0.046 C 
ATOM     33  C   UNL     1      64.486  83.164  70.849  1.00  0.00     0.042 C 
ATOM     34  C   UNL     1      63.186  81.841  72.502  1.00  0.00     0.010 C 
ENDBRANCH  14  32
ENDBRANCH   3   4
BRANCH   2  35
ATOM     35  C   UNL     1      59.926  88.327  74.774  1.00  0.00     0.078 CG0
ATOM     36  G   UNL     1      60.878  87.657  75.763  1.00  0.00     0.000 G0
ENDBRANCH   2  35
ENDBRANCH   1   2
BRANCH   1  37
ATOM     37  O   UNL     1      58.091  88.463  72.196  1.00  0.00    -0.461 OA
BRANCH  37  38
ATOM     38  C   UNL     1      57.661  88.396  70.891  1.00  0.00     0.310 C 
ATOM     39  O   UNL     1      57.352  89.359  70.203  1.00  0.00    -0.252 OA
BRANCH  38  40
ATOM     40  C   UNL     1      57.630  86.954  70.444  1.00  0.00     0.158 C 
BRANCH  40  41
ATOM     41  C   UNL     1      58.958  86.472  69.919  1.00  0.00    -0.033 A 
ATOM     42  C   UNL     1      59.908  87.393  69.477  1.00  0.00     0.054 A 
ATOM     43  C   UNL     1      59.237  85.106  69.876  1.00  0.00     0.008 A 
ATOM     44  C   UNL     1      61.138  86.947  68.992  1.00  0.00     0.160 A 
ATOM     45  C   UNL     1      60.467  84.660  69.391  1.00  0.00     0.050 A 
ATOM     46  C   UNL     1      61.417  85.580  68.948  1.00  0.00     0.157 A 
BRANCH  44  47
ATOM     47  O   UNL     1      62.058  87.855  68.563  1.00  0.00    -0.493 OA
ATOM     48  C   UNL     1      62.538  88.795  69.523  1.00  0.00     0.278 C 
ENDBRANCH  44  47
BRANCH  46  49
ATOM     49  O   UNL     1      62.614  85.134  68.477  1.00  0.00    -0.504 OA
ATOM     50  H   UNL     1      63.285  85.824  68.612  1.00  0.00     0.293 HD
ENDBRANCH  46  49
ENDBRANCH  40  41
ENDBRANCH  38  40
ENDBRANCH  37  38
ENDBRANCH   1  37
TORSDOF 11
ENDMDL
MODEL 10
REMARK VINA RESULT:    -5.922      7.746     11.708
REMARK INTER + INTRA:         -10.945
REMARK INTER:                  -8.655
REMARK INTRA:                  -2.291
REMARK UNBOUND:                -0.522
REMARK SMILES C=C(C)[C@]12C[C@@H](C)[C@@]34O[C@](Cc5ccccc5)(O[C@@H]1[C@@H]3C=C(COC(=O)Cc1ccc(O)c(OC)c1)C[C@]1(O)C(=O)C(C)=C[C@@H]41)O2
REMARK SMILES IDX 23 1 22 2 21 3 20 4 9 5 8 6 10 7 6 8 18 9 46 10 19 11 5 12
REMARK SMILES IDX 7 13 4 14 45 15 38 16 44 17 40 18 42 20 41 21 43 22 39 23
REMARK SMILES IDX 11 25 12 26 13 27 17 28 14 29 16 30 15 31 2 32 3 33 1 34
REMARK SMILES IDX 37 35 24 37 25 38 26 39 27 40 28 41 36 42 29 43 33 44 30 45
REMARK SMILES IDX 31 46 34 47 35 48 32 49
REMARK H PARENT 39 24 32 50
REMARK Flexibility Score: 90.00
ROOT
ATOM      1  C   UNL     1      99.576  76.878  73.966  1.00  0.00     0.264 C 
ENDROOT
BRANCH   1   2
ATOM      2  C   UNL     1     100.088  77.788  75.058  1.00  0.00    -0.033 C 
ATOM      3  C   UNL     1      99.417  77.860  76.225  1.00  0.00    -0.015 C 
BRANCH   3   4
ATOM      4  C   UNL     1      99.677  78.743  77.435  1.00  0.00     0.078 C 
ATOM      5  O   UNL     1     101.124  77.453  78.971  1.00  0.00    -0.319 OA
ATOM      6  C   UNL     1     101.082  78.654  78.139  1.00  0.00     0.095 C 
ATOM      7  C   UNL     1      99.934  77.193  79.739  1.00  0.00     0.289 C 
ATOM      8  C   UNL     1     101.239  79.934  79.060  1.00  0.00     0.023 C 
ATOM      9  O   UNL     1      98.789  77.085  78.897  1.00  0.00    -0.320 OA
ATOM     10  O   UNL     1      99.641  78.244  80.655  1.00  0.00    -0.313 OA
ATOM     11  C   UNL     1      98.617  78.463  78.529  1.00  0.00     0.170 C 
ATOM     12  C   UNL     1      99.868  80.387  79.648  1.00  0.00     0.049 C 
ATOM     13  C   UNL     1     102.266  79.807  80.196  1.00  0.00     0.011 C 
ATOM     14  C   UNL     1      98.922  79.204  79.854  1.00  0.00     0.122 C 
BRANCH   6  15
ATOM     15  C   UNL     1     102.212  78.441  77.091  1.00  0.00     0.086 C 
ATOM     16  C   UNL     1     102.106  79.275  75.797  1.00  0.00     0.140 CG0
ATOM     17  C   UNL     1     103.645  78.621  77.506  1.00  0.00    -0.010 C 
ATOM     18  C   UNL     1     103.558  79.543  75.462  1.00  0.00     0.190 C 
ATOM     19  G   UNL     1     101.377  78.523  74.684  1.00  0.00     0.000 G0
ATOM     20  C   UNL     1     104.433  79.212  76.602  1.00  0.00    -0.008 C 
ATOM     21  O   UNL     1     103.966  80.018  74.413  1.00  0.00    -0.291 OA
ATOM     22  C   UNL     1     105.887  79.473  76.633  1.00  0.00     0.048 C 
BRANCH  16  23
ATOM     23  O   UNL     1     101.559  80.568  75.992  1.00  0.00    -0.381 OA
ATOM     24  H   UNL     1     101.596  81.048  75.148  1.00  0.00     0.212 HD
ENDBRANCH  16  23
ENDBRANCH   6  15
BRANCH   7  25
ATOM     25  C   UNL     1     100.133  75.898  80.500  1.00  0.00     0.135 C 
BRANCH  25  26
ATOM     26  C   UNL     1     101.522  75.340  80.313  1.00  0.00    -0.040 A 
ATOM     27  C   UNL     1     101.791  74.486  79.243  1.00  0.00     0.004 A 
ATOM     28  C   UNL     1     102.537  75.678  81.207  1.00  0.00     0.004 A 
ATOM     29  C   UNL     1     103.076  73.970  79.069  1.00  0.00     0.000 A 
ATOM     30  C   UNL     1     103.821  75.161  81.033  1.00  0.00     0.000 A 
ATOM     31  C   UNL     1     104.090  74.307  79.964  1.00  0.00     0.000 A 
ENDBRANCH  25  26
ENDBRANCH   7  25
BRANCH  14  32
ATOM     32  C   UNL     1      97.675  79.586  80.583  1.00  0.00    -0.046 C 
ATOM     33  C   UNL     1      97.062  78.524  81.448  1.00  0.00     0.042 C 
ATOM     34  C   UNL     1      97.134  80.808  80.471  1.00  0.00     0.010 C 
ENDBRANCH  14  32
ENDBRANCH   3   4
BRANCH   2  35
ATOM     35  C   UNL     1     101.357  78.526  74.672  1.00  0.00     0.078 CG0
ATOM     36  G   UNL     1     102.111  79.249  75.787  1.00  0.00     0.000 G0
ENDBRANCH   2  35
ENDBRANCH   1   2
BRANCH   1  37
ATOM     37  O   UNL     1      98.181  77.043  73.837  1.00  0.00    -0.461 OA
BRANCH  37  38
ATOM     38  C   UNL     1      97.736  77.543  72.636  1.00  0.00     0.310 C 
ATOM     39  O   UNL     1      98.036  77.100  71.536  1.00  0.00    -0.252 OA
BRANCH  38  40
ATOM     40  C   UNL     1      96.822  78.720  72.886  1.00  0.00     0.158 C 
BRANCH  40  41
ATOM     41  C   UNL     1      97.564  79.957  73.326  1.00  0.00    -0.033 A 
ATOM     42  C   UNL     1      97.122  80.676  74.437  1.00  0.00     0.054 A 
ATOM     43  C   UNL     1      98.691  80.382  72.623  1.00  0.00     0.008 A 
ATOM     44  C   UNL     1      97.808  81.820  74.845  1.00  0.00     0.160 A 
ATOM     45  C   UNL     1      99.377  81.526  73.031  1.00  0.00     0.050 A 
ATOM     46  C   UNL     1      98.936  82.245  74.141  1.00  0.00     0.157 A 
BRANCH  44  47
ATOM     47  O   UNL     1      97.367  82.514  75.931  1.00  0.00    -0.493 OA
ATOM     48  C   UNL     1      96.162  83.262  75.777  1.00  0.00     0.278 C 
ENDBRANCH  44  47
BRANCH  46  49
ATOM     49  O   UNL     1      99.614  83.360  74.530  1.00  0.00    -0.504 OA
ATOM     50  H   UNL     1      99.166  83.751  75.300  1.00  0.00     0.293 HD
ENDBRANCH  46  49
ENDBRANCH  40  41
ENDBRANCH  38  40
ENDBRANCH  37  38
ENDBRANCH   1  37
TORSDOF 11
ENDMDL
