MODEL 1
REMARK VINA RESULT:    -6.480      0.000      0.000
REMARK INTER + INTRA:         -11.589
REMARK INTER:                 -10.458
REMARK INTRA:                  -1.131
REMARK UNBOUND:                -1.131
REMARK SMILES COc1cc(CNC(=O)CCCCC/C=C/C(C)C)ccc1O
REMARK SMILES IDX 11 1 10 2 8 3 7 4 9 6 6 7 5 8 3 9 22 10 4 11 21 12 20 13
REMARK SMILES IDX 2 14 1 15 23 16 12 18 13 19 14 20 15 21 16 22 17 23 18 24
REMARK SMILES IDX 19 25
REMARK H PARENT 7 5 23 17
REMARK Flexibility Score: inf
ROOT
ATOM      1  C   UNL     1      90.835  98.935  70.970  1.00  0.00     0.010 C 
ENDROOT
BRANCH   1   2
ATOM      2  C   UNL     1      90.695 100.332  71.629  1.00  0.00     0.100 C 
BRANCH   2   3
ATOM      3  C   UNL     1      91.697 100.604  72.676  1.00  0.00     0.220 C 
ATOM      4  N   UNL     1      92.162  99.586  73.452  1.00  0.00    -0.352 N 
ATOM      5  H   UNL     1      91.712  98.695  73.291  1.00  0.00     0.163 HD
ATOM      6  O   UNL     1      92.129 101.775  72.797  1.00  0.00    -0.275 OA
BRANCH   4   7
ATOM      7  C   UNL     1      93.195  99.693  74.429  1.00  0.00     0.151 C 
BRANCH   7   8
ATOM      8  C   UNL     1      93.542  98.384  75.041  1.00  0.00    -0.025 A 
ATOM      9  C   UNL     1      92.883  96.362  76.277  1.00  0.00     0.160 A 
ATOM     10  C   UNL     1      94.221  95.912  76.252  1.00  0.00     0.157 A 
ATOM     11  C   UNL     1      92.555  97.597  75.680  1.00  0.00     0.056 A 
ATOM     12  C   UNL     1      95.207  96.678  75.604  1.00  0.00     0.050 A 
ATOM     13  C   UNL     1      94.868  97.900  74.994  1.00  0.00     0.009 A 
BRANCH   9  14
ATOM     14  O   UNL     1      91.900  95.584  76.829  1.00  0.00    -0.493 OA
ATOM     15  C   UNL     1      90.891  96.324  77.535  1.00  0.00     0.278 C 
ENDBRANCH   9  14
BRANCH  10  16
ATOM     16  O   UNL     1      94.582  94.744  76.840  1.00  0.00    -0.504 OA
ATOM     17  H   UNL     1      94.300  94.747  77.758  1.00  0.00     0.293 HD
ENDBRANCH  10  16
ENDBRANCH   7   8
ENDBRANCH   4   7
ENDBRANCH   2   3
ENDBRANCH   1   2
BRANCH   1  18
ATOM     18  C   UNL     1      89.456  98.240  70.834  1.00  0.00     0.001 C 
BRANCH  18  19
ATOM     19  C   UNL     1      89.375  97.244  69.650  1.00  0.00     0.004 C 
BRANCH  19  20
ATOM     20  C   UNL     1      88.358  97.723  68.576  1.00  0.00     0.027 C 
BRANCH  20  21
ATOM     21  C   UNL     1      88.386  99.156  68.342  1.00  0.00    -0.031 C 
ATOM     22  C   UNL     1      89.353  99.748  67.619  1.00  0.00    -0.028 C 
BRANCH  22  23
ATOM     23  C   UNL     1      89.408 101.185  67.361  1.00  0.00     0.005 C 
ATOM     24  C   UNL     1      89.087 101.976  68.657  1.00  0.00     0.012 C 
ATOM     25  C   UNL     1      90.787 101.571  66.761  1.00  0.00     0.012 C 
ENDBRANCH  22  23
ENDBRANCH  20  21
ENDBRANCH  19  20
ENDBRANCH  18  19
ENDBRANCH   1  18
TORSDOF 11
ENDMDL
MODEL 2
REMARK VINA RESULT:    -5.739     19.639     23.113
REMARK INTER + INTRA:         -10.393
REMARK INTER:                  -8.257
REMARK INTRA:                  -2.136
REMARK UNBOUND:                -1.131
REMARK SMILES COc1cc(CNC(=O)CCCCC/C=C/C(C)C)ccc1O
REMARK SMILES IDX 11 1 10 2 8 3 7 4 9 6 6 7 5 8 3 9 22 10 4 11 21 12 20 13
REMARK SMILES IDX 2 14 1 15 23 16 12 18 13 19 14 20 15 21 16 22 17 23 18 24
REMARK SMILES IDX 19 25
REMARK H PARENT 7 5 23 17
REMARK Flexibility Score: inf
ROOT
ATOM      1  C   UNL     1      77.783  86.836  69.271  1.00  0.00     0.010 C 
ENDROOT
BRANCH   1   2
ATOM      2  C   UNL     1      76.411  87.336  69.791  1.00  0.00     0.100 C 
BRANCH   2   3
ATOM      3  C   UNL     1      75.364  86.298  69.818  1.00  0.00     0.220 C 
ATOM      4  N   UNL     1      74.358  86.326  68.900  1.00  0.00    -0.352 N 
ATOM      5  H   UNL     1      74.367  87.131  68.289  1.00  0.00     0.163 HD
ATOM      6  O   UNL     1      75.453  85.384  70.671  1.00  0.00    -0.275 OA
BRANCH   4   7
ATOM      7  C   UNL     1      73.342  85.335  68.752  1.00  0.00     0.151 C 
BRANCH   7   8
ATOM      8  C   UNL     1      73.235  84.827  67.360  1.00  0.00    -0.025 A 
ATOM      9  C   UNL     1      73.935  84.893  65.003  1.00  0.00     0.160 A 
ATOM     10  C   UNL     1      72.989  83.892  64.695  1.00  0.00     0.157 A 
ATOM     11  C   UNL     1      74.045  85.359  66.329  1.00  0.00     0.056 A 
ATOM     12  C   UNL     1      72.190  83.344  65.715  1.00  0.00     0.050 A 
ATOM     13  C   UNL     1      72.320  83.800  67.040  1.00  0.00     0.009 A 
BRANCH   9  14
ATOM     14  O   UNL     1      74.778  85.371  64.034  1.00  0.00    -0.493 OA
ATOM     15  C   UNL     1      75.236  86.714  64.265  1.00  0.00     0.278 C 
ENDBRANCH   9  14
BRANCH  10  16
ATOM     16  O   UNL     1      72.831  83.436  63.427  1.00  0.00    -0.504 OA
ATOM     17  H   UNL     1      72.430  82.564  63.448  1.00  0.00     0.293 HD
ENDBRANCH  10  16
ENDBRANCH   7   8
ENDBRANCH   4   7
ENDBRANCH   2   3
ENDBRANCH   1   2
BRANCH   1  18
ATOM     18  C   UNL     1      77.959  87.151  67.764  1.00  0.00     0.001 C 
BRANCH  18  19
ATOM     19  C   UNL     1      77.575  85.974  66.832  1.00  0.00     0.004 C 
BRANCH  19  20
ATOM     20  C   UNL     1      78.281  84.658  67.261  1.00  0.00     0.027 C 
BRANCH  20  21
ATOM     21  C   UNL     1      77.920  83.509  66.449  1.00  0.00    -0.031 C 
ATOM     22  C   UNL     1      76.746  82.868  66.592  1.00  0.00    -0.028 C 
BRANCH  22  23
ATOM     23  C   UNL     1      76.350  81.715  65.788  1.00  0.00     0.005 C 
ATOM     24  C   UNL     1      75.003  81.139  66.299  1.00  0.00     0.012 C 
ATOM     25  C   UNL     1      76.294  82.102  64.285  1.00  0.00     0.012 C 
ENDBRANCH  22  23
ENDBRANCH  20  21
ENDBRANCH  19  20
ENDBRANCH  18  19
ENDBRANCH   1  18
TORSDOF 11
ENDMDL
MODEL 3
REMARK VINA RESULT:    -5.706     20.094     23.489
REMARK INTER + INTRA:         -10.340
REMARK INTER:                  -8.159
REMARK INTRA:                  -2.181
REMARK UNBOUND:                -1.131
REMARK SMILES COc1cc(CNC(=O)CCCCC/C=C/C(C)C)ccc1O
REMARK SMILES IDX 11 1 10 2 8 3 7 4 9 6 6 7 5 8 3 9 22 10 4 11 21 12 20 13
REMARK SMILES IDX 2 14 1 15 23 16 12 18 13 19 14 20 15 21 16 22 17 23 18 24
REMARK SMILES IDX 19 25
REMARK H PARENT 7 5 23 17
REMARK Flexibility Score: inf
ROOT
ATOM      1  C   UNL     1      77.885  86.627  69.176  1.00  0.00     0.010 C 
ENDROOT
BRANCH   1   2
ATOM      2  C   UNL     1      76.587  87.151  69.844  1.00  0.00     0.100 C 
BRANCH   2   3
ATOM      3  C   UNL     1      75.472  86.186  69.826  1.00  0.00     0.220 C 
ATOM      4  N   UNL     1      74.638  86.135  68.750  1.00  0.00    -0.352 N 
ATOM      5  H   UNL     1      74.812  86.840  68.048  1.00  0.00     0.163 HD
ATOM      6  O   UNL     1      75.345  85.403  70.797  1.00  0.00    -0.275 OA
BRANCH   4   7
ATOM      7  C   UNL     1      73.585  85.191  68.561  1.00  0.00     0.151 C 
BRANCH   7   8
ATOM      8  C   UNL     1      73.370  84.852  67.130  1.00  0.00    -0.025 A 
ATOM      9  C   UNL     1      72.085  83.702  65.377  1.00  0.00     0.160 A 
ATOM     10  C   UNL     1      72.998  84.167  64.404  1.00  0.00     0.157 A 
ATOM     11  C   UNL     1      72.283  84.040  66.731  1.00  0.00     0.056 A 
ATOM     12  C   UNL     1      74.073  84.989  64.788  1.00  0.00     0.050 A 
ATOM     13  C   UNL     1      74.252  85.338  66.139  1.00  0.00     0.009 A 
BRANCH   9  14
ATOM     14  O   UNL     1      70.987  82.975  65.003  1.00  0.00    -0.493 OA
ATOM     15  C   UNL     1      69.949  82.925  65.997  1.00  0.00     0.278 C 
ENDBRANCH   9  14
BRANCH  10  16
ATOM     16  O   UNL     1      72.859  83.841  63.095  1.00  0.00    -0.504 OA
ATOM     17  H   UNL     1      73.159  84.573  62.550  1.00  0.00     0.293 HD
ENDBRANCH  10  16
ENDBRANCH   7   8
ENDBRANCH   4   7
ENDBRANCH   2   3
ENDBRANCH   1   2
BRANCH   1  18
ATOM     18  C   UNL     1      77.950  87.038  67.683  1.00  0.00     0.001 C 
BRANCH  18  19
ATOM     19  C   UNL     1      77.708  85.863  66.702  1.00  0.00     0.004 C 
BRANCH  19  20
ATOM     20  C   UNL     1      78.278  84.530  67.262  1.00  0.00     0.027 C 
BRANCH  20  21
ATOM     21  C   UNL     1      77.903  83.362  66.485  1.00  0.00    -0.031 C 
ATOM     22  C   UNL     1      76.653  82.867  66.489  1.00  0.00    -0.028 C 
BRANCH  22  23
ATOM     23  C   UNL     1      76.242  81.698  65.716  1.00  0.00     0.005 C 
ATOM     24  C   UNL     1      74.807  81.264  66.116  1.00  0.00     0.012 C 
ATOM     25  C   UNL     1      76.368  81.989  64.195  1.00  0.00     0.012 C 
ENDBRANCH  22  23
ENDBRANCH  20  21
ENDBRANCH  19  20
ENDBRANCH  18  19
ENDBRANCH   1  18
TORSDOF 11
ENDMDL
MODEL 4
REMARK VINA RESULT:    -5.703     17.668     20.883
REMARK INTER + INTRA:         -10.334
REMARK INTER:                  -9.590
REMARK INTRA:                  -0.744
REMARK UNBOUND:                -1.131
REMARK SMILES COc1cc(CNC(=O)CCCCC/C=C/C(C)C)ccc1O
REMARK SMILES IDX 11 1 10 2 8 3 7 4 9 6 6 7 5 8 3 9 22 10 4 11 21 12 20 13
REMARK SMILES IDX 2 14 1 15 23 16 12 18 13 19 14 20 15 21 16 22 17 23 18 24
REMARK SMILES IDX 19 25
REMARK H PARENT 7 5 23 17
REMARK Flexibility Score: inf
ROOT
ATOM      1  C   UNL     1      97.414  83.926  84.710  1.00  0.00     0.010 C 
ENDROOT
BRANCH   1   2
ATOM      2  C   UNL     1      98.410  82.786  85.045  1.00  0.00     0.100 C 
BRANCH   2   3
ATOM      3  C   UNL     1      99.281  82.399  83.920  1.00  0.00     0.220 C 
ATOM      4  N   UNL     1      99.013  82.859  82.666  1.00  0.00    -0.352 N 
ATOM      5  H   UNL     1      98.160  83.395  82.587  1.00  0.00     0.163 HD
ATOM      6  O   UNL     1     100.281  81.681  84.160  1.00  0.00    -0.275 OA
BRANCH   4   7
ATOM      7  C   UNL     1      99.824  82.643  81.512  1.00  0.00     0.151 C 
BRANCH   7   8
ATOM      8  C   UNL     1      99.116  82.965  80.247  1.00  0.00    -0.025 A 
ATOM      9  C   UNL     1      99.147  83.334  77.815  1.00  0.00     0.160 A 
ATOM     10  C   UNL     1      97.768  83.634  77.844  1.00  0.00     0.157 A 
ATOM     11  C   UNL     1      99.812  83.011  79.016  1.00  0.00     0.056 A 
ATOM     12  C   UNL     1      97.062  83.574  79.059  1.00  0.00     0.050 A 
ATOM     13  C   UNL     1      97.729  83.232  80.251  1.00  0.00     0.009 A 
BRANCH   9  14
ATOM     14  O   UNL     1      99.825  83.304  76.625  1.00  0.00    -0.493 OA
ATOM     15  C   UNL     1     101.224  83.614  76.738  1.00  0.00     0.278 C 
ENDBRANCH   9  14
BRANCH  10  16
ATOM     16  O   UNL     1      97.097  83.976  76.715  1.00  0.00    -0.504 OA
ATOM     17  H   UNL     1      97.248  84.905  76.524  1.00  0.00     0.293 HD
ENDBRANCH  10  16
ENDBRANCH   7   8
ENDBRANCH   4   7
ENDBRANCH   2   3
ENDBRANCH   1   2
BRANCH   1  18
ATOM     18  C   UNL     1      96.184  83.889  85.652  1.00  0.00     0.001 C 
BRANCH  18  19
ATOM     19  C   UNL     1      95.753  85.285  86.169  1.00  0.00     0.004 C 
BRANCH  19  20
ATOM     20  C   UNL     1      96.308  85.558  87.594  1.00  0.00     0.027 C 
BRANCH  20  21
ATOM     21  C   UNL     1      95.343  85.319  88.654  1.00  0.00    -0.031 C 
ATOM     22  C   UNL     1      94.064  84.990  88.400  1.00  0.00    -0.028 C 
BRANCH  22  23
ATOM     23  C   UNL     1      93.071  84.738  89.441  1.00  0.00     0.005 C 
ATOM     24  C   UNL     1      92.879  86.004  90.319  1.00  0.00     0.012 C 
ATOM     25  C   UNL     1      91.739  84.253  88.807  1.00  0.00     0.012 C 
ENDBRANCH  22  23
ENDBRANCH  20  21
ENDBRANCH  19  20
ENDBRANCH  18  19
ENDBRANCH   1  18
TORSDOF 11
ENDMDL
MODEL 5
REMARK VINA RESULT:    -5.608     21.162     24.655
REMARK INTER + INTRA:         -10.182
REMARK INTER:                  -9.465
REMARK INTRA:                  -0.717
REMARK UNBOUND:                -1.131
REMARK SMILES COc1cc(CNC(=O)CCCCC/C=C/C(C)C)ccc1O
REMARK SMILES IDX 11 1 10 2 8 3 7 4 9 6 6 7 5 8 3 9 22 10 4 11 21 12 20 13
REMARK SMILES IDX 2 14 1 15 23 16 12 18 13 19 14 20 15 21 16 22 17 23 18 24
REMARK SMILES IDX 19 25
REMARK H PARENT 7 5 23 17
REMARK Flexibility Score: inf
ROOT
ATOM      1  C   UNL     1      77.105  83.456  67.303  1.00  0.00     0.010 C 
ENDROOT
BRANCH   1   2
ATOM      2  C   UNL     1      76.960  82.870  65.875  1.00  0.00     0.100 C 
BRANCH   2   3
ATOM      3  C   UNL     1      75.822  81.945  65.718  1.00  0.00     0.220 C 
ATOM      4  N   UNL     1      75.250  81.773  64.494  1.00  0.00    -0.352 N 
ATOM      5  H   UNL     1      75.620  82.373  63.769  1.00  0.00     0.163 HD
ATOM      6  O   UNL     1      75.433  81.304  66.723  1.00  0.00    -0.275 OA
BRANCH   4   7
ATOM      7  C   UNL     1      74.213  80.843  64.186  1.00  0.00     0.151 C 
BRANCH   7   8
ATOM      8  C   UNL     1      72.866  81.471  64.178  1.00  0.00    -0.025 A 
ATOM      9  C   UNL     1      70.890  82.302  65.383  1.00  0.00     0.160 A 
ATOM     10  C   UNL     1      70.274  82.618  64.152  1.00  0.00     0.157 A 
ATOM     11  C   UNL     1      72.175  81.723  65.386  1.00  0.00     0.056 A 
ATOM     12  C   UNL     1      70.959  82.387  62.945  1.00  0.00     0.050 A 
ATOM     13  C   UNL     1      72.250  81.828  62.958  1.00  0.00     0.009 A 
BRANCH   9  14
ATOM     14  O   UNL     1      70.269  82.603  66.566  1.00  0.00    -0.493 OA
ATOM     15  C   UNL     1      70.995  83.529  67.391  1.00  0.00     0.278 C 
ENDBRANCH   9  14
BRANCH  10  16
ATOM     16  O   UNL     1      69.027  83.150  64.104  1.00  0.00    -0.504 OA
ATOM     17  H   UNL     1      68.543  82.763  63.371  1.00  0.00     0.293 HD
ENDBRANCH  10  16
ENDBRANCH   7   8
ENDBRANCH   4   7
ENDBRANCH   2   3
ENDBRANCH   1   2
BRANCH   1  18
ATOM     18  C   UNL     1      78.325  84.407  67.396  1.00  0.00     0.001 C 
BRANCH  18  19
ATOM     19  C   UNL     1      77.952  85.867  67.755  1.00  0.00     0.004 C 
BRANCH  19  20
ATOM     20  C   UNL     1      77.753  86.041  69.287  1.00  0.00     0.027 C 
BRANCH  20  21
ATOM     21  C   UNL     1      76.527  86.735  69.642  1.00  0.00    -0.031 C 
ATOM     22  C   UNL     1      76.483  88.066  69.832  1.00  0.00    -0.028 C 
BRANCH  22  23
ATOM     23  C   UNL     1      75.267  88.793  70.185  1.00  0.00     0.005 C 
ATOM     24  C   UNL     1      74.356  87.915  71.084  1.00  0.00     0.012 C 
ATOM     25  C   UNL     1      75.626  90.148  70.853  1.00  0.00     0.012 C 
ENDBRANCH  22  23
ENDBRANCH  20  21
ENDBRANCH  19  20
ENDBRANCH  18  19
ENDBRANCH   1  18
TORSDOF 11
ENDMDL
MODEL 6
REMARK VINA RESULT:    -5.593     28.006     30.738
REMARK INTER + INTRA:         -10.158
REMARK INTER:                  -8.386
REMARK INTRA:                  -1.772
REMARK UNBOUND:                -1.131
REMARK SMILES COc1cc(CNC(=O)CCCCC/C=C/C(C)C)ccc1O
REMARK SMILES IDX 11 1 10 2 8 3 7 4 9 6 6 7 5 8 3 9 22 10 4 11 21 12 20 13
REMARK SMILES IDX 2 14 1 15 23 16 12 18 13 19 14 20 15 21 16 22 17 23 18 24
REMARK SMILES IDX 19 25
REMARK H PARENT 7 5 23 17
REMARK Flexibility Score: inf
ROOT
ATOM      1  C   UNL     1      62.236  83.114  74.498  1.00  0.00     0.010 C 
ENDROOT
BRANCH   1   2
ATOM      2  C   UNL     1      63.258  83.094  75.664  1.00  0.00     0.100 C 
BRANCH   2   3
ATOM      3  C   UNL     1      64.501  83.837  75.385  1.00  0.00     0.220 C 
ATOM      4  N   UNL     1      64.679  84.429  74.172  1.00  0.00    -0.352 N 
ATOM      5  H   UNL     1      63.946  84.246  73.502  1.00  0.00     0.163 HD
ATOM      6  O   UNL     1      65.352  83.938  76.300  1.00  0.00    -0.275 OA
BRANCH   4   7
ATOM      7  C   UNL     1      65.784  85.254  73.806  1.00  0.00     0.151 C 
BRANCH   7   8
ATOM      8  C   UNL     1      66.408  84.839  72.523  1.00  0.00    -0.025 A 
ATOM      9  C   UNL     1      68.396  84.206  71.221  1.00  0.00     0.160 A 
ATOM     10  C   UNL     1      67.601  84.100  70.060  1.00  0.00     0.157 A 
ATOM     11  C   UNL     1      67.797  84.583  72.440  1.00  0.00     0.056 A 
ATOM     12  C   UNL     1      66.216  84.335  70.134  1.00  0.00     0.050 A 
ATOM     13  C   UNL     1      65.622  84.692  71.359  1.00  0.00     0.009 A 
BRANCH   9  14
ATOM     14  O   UNL     1      69.729  83.894  71.178  1.00  0.00    -0.493 OA
ATOM     15  C   UNL     1      70.581  84.998  70.830  1.00  0.00     0.278 C 
ENDBRANCH   9  14
BRANCH  10  16
ATOM     16  O   UNL     1      68.143  83.767  68.862  1.00  0.00    -0.504 OA
ATOM     17  H   UNL     1      67.677  83.009  68.499  1.00  0.00     0.293 HD
ENDBRANCH  10  16
ENDBRANCH   7   8
ENDBRANCH   4   7
ENDBRANCH   2   3
ENDBRANCH   1   2
BRANCH   1  18
ATOM     18  C   UNL     1      62.176  81.739  73.783  1.00  0.00     0.001 C 
BRANCH  18  19
ATOM     19  C   UNL     1      63.557  81.053  73.637  1.00  0.00     0.004 C 
BRANCH  19  20
ATOM     20  C   UNL     1      64.182  81.329  72.241  1.00  0.00     0.027 C 
BRANCH  20  21
ATOM     21  C   UNL     1      63.292  82.028  71.330  1.00  0.00    -0.031 C 
ATOM     22  C   UNL     1      63.448  81.981  69.995  1.00  0.00    -0.028 C 
BRANCH  22  23
ATOM     23  C   UNL     1      62.567  82.667  69.052  1.00  0.00     0.005 C 
ATOM     24  C   UNL     1      61.950  83.927  69.714  1.00  0.00     0.012 C 
ATOM     25  C   UNL     1      63.337  83.004  67.746  1.00  0.00     0.012 C 
ENDBRANCH  22  23
ENDBRANCH  20  21
ENDBRANCH  19  20
ENDBRANCH  18  19
ENDBRANCH   1  18
TORSDOF 11
ENDMDL
MODEL 7
REMARK VINA RESULT:    -5.486     30.066     32.608
REMARK INTER + INTRA:          -9.984
REMARK INTER:                  -8.097
REMARK INTRA:                  -1.887
REMARK UNBOUND:                -1.131
REMARK SMILES COc1cc(CNC(=O)CCCCC/C=C/C(C)C)ccc1O
REMARK SMILES IDX 11 1 10 2 8 3 7 4 9 6 6 7 5 8 3 9 22 10 4 11 21 12 20 13
REMARK SMILES IDX 2 14 1 15 23 16 12 18 13 19 14 20 15 21 16 22 17 23 18 24
REMARK SMILES IDX 19 25
REMARK H PARENT 7 5 23 17
REMARK Flexibility Score: inf
ROOT
ATOM      1  C   UNL     1      65.561  84.983  69.351  1.00  0.00     0.010 C 
ENDROOT
BRANCH   1   2
ATOM      2  C   UNL     1      65.397  83.667  68.548  1.00  0.00     0.100 C 
BRANCH   2   3
ATOM      3  C   UNL     1      64.912  82.530  69.351  1.00  0.00     0.220 C 
ATOM      4  N   UNL     1      65.311  82.396  70.646  1.00  0.00    -0.352 N 
ATOM      5  H   UNL     1      65.994  83.076  70.950  1.00  0.00     0.163 HD
ATOM      6  O   UNL     1      64.104  81.729  68.823  1.00  0.00    -0.275 OA
BRANCH   4   7
ATOM      7  C   UNL     1      64.845  81.403  71.559  1.00  0.00     0.151 C 
BRANCH   7   8
ATOM      8  C   UNL     1      63.929  81.958  72.589  1.00  0.00    -0.025 A 
ATOM      9  C   UNL     1      63.369  83.698  74.236  1.00  0.00     0.160 A 
ATOM     10  C   UNL     1      62.204  82.984  74.592  1.00  0.00     0.157 A 
ATOM     11  C   UNL     1      64.226  83.176  73.245  1.00  0.00     0.056 A 
ATOM     12  C   UNL     1      61.890  81.781  73.934  1.00  0.00     0.050 A 
ATOM     13  C   UNL     1      62.740  81.277  72.933  1.00  0.00     0.009 A 
BRANCH   9  14
ATOM     14  O   UNL     1      63.639  84.913  74.807  1.00  0.00    -0.493 OA
ATOM     15  C   UNL     1      63.534  86.024  73.902  1.00  0.00     0.278 C 
ENDBRANCH   9  14
BRANCH  10  16
ATOM     16  O   UNL     1      61.368  83.437  75.560  1.00  0.00    -0.504 OA
ATOM     17  H   UNL     1      61.280  82.769  76.244  1.00  0.00     0.293 HD
ENDBRANCH  10  16
ENDBRANCH   7   8
ENDBRANCH   4   7
ENDBRANCH   2   3
ENDBRANCH   1   2
BRANCH   1  18
ATOM     18  C   UNL     1      64.264  85.331  70.125  1.00  0.00     0.001 C 
BRANCH  18  19
ATOM     19  C   UNL     1      63.071  85.700  69.208  1.00  0.00     0.004 C 
BRANCH  19  20
ATOM     20  C   UNL     1      62.020  84.556  69.156  1.00  0.00     0.027 C 
BRANCH  20  21
ATOM     21  C   UNL     1      60.890  84.760  70.046  1.00  0.00    -0.031 C 
ATOM     22  C   UNL     1      60.869  84.281  71.303  1.00  0.00    -0.028 C 
BRANCH  22  23
ATOM     23  C   UNL     1      59.751  84.474  72.223  1.00  0.00     0.005 C 
ATOM     24  C   UNL     1      59.978  85.743  73.087  1.00  0.00     0.012 C 
ATOM     25  C   UNL     1      58.412  84.525  71.439  1.00  0.00     0.012 C 
ENDBRANCH  22  23
ENDBRANCH  20  21
ENDBRANCH  19  20
ENDBRANCH  18  19
ENDBRANCH   1  18
TORSDOF 11
ENDMDL
MODEL 8
REMARK VINA RESULT:    -5.382     18.319     21.453
REMARK INTER + INTRA:          -9.817
REMARK INTER:                  -9.187
REMARK INTRA:                  -0.630
REMARK UNBOUND:                -1.131
REMARK SMILES COc1cc(CNC(=O)CCCCC/C=C/C(C)C)ccc1O
REMARK SMILES IDX 11 1 10 2 8 3 7 4 9 6 6 7 5 8 3 9 22 10 4 11 21 12 20 13
REMARK SMILES IDX 2 14 1 15 23 16 12 18 13 19 14 20 15 21 16 22 17 23 18 24
REMARK SMILES IDX 19 25
REMARK H PARENT 7 5 23 17
REMARK Flexibility Score: inf
ROOT
ATOM      1  C   UNL     1      76.059  87.735  70.021  1.00  0.00     0.010 C 
ENDROOT
BRANCH   1   2
ATOM      2  C   UNL     1      75.641  86.302  70.443  1.00  0.00     0.100 C 
BRANCH   2   3
ATOM      3  C   UNL     1      76.427  85.234  69.799  1.00  0.00     0.220 C 
ATOM      4  N   UNL     1      76.594  85.234  68.448  1.00  0.00    -0.352 N 
ATOM      5  H   UNL     1      76.083  85.958  67.961  1.00  0.00     0.163 HD
ATOM      6  O   UNL     1      76.962  84.366  70.529  1.00  0.00    -0.275 OA
BRANCH   4   7
ATOM      7  C   UNL     1      77.405  84.321  67.711  1.00  0.00     0.151 C 
BRANCH   7   8
ATOM      8  C   UNL     1      76.604  83.371  66.897  1.00  0.00    -0.025 A 
ATOM      9  C   UNL     1      74.431  82.415  66.254  1.00  0.00     0.160 A 
ATOM     10  C   UNL     1      75.085  81.519  65.380  1.00  0.00     0.157 A 
ATOM     11  C   UNL     1      75.194  83.327  67.011  1.00  0.00     0.056 A 
ATOM     12  C   UNL     1      76.485  81.565  65.246  1.00  0.00     0.050 A 
ATOM     13  C   UNL     1      77.238  82.492  65.991  1.00  0.00     0.009 A 
BRANCH   9  14
ATOM     14  O   UNL     1      73.063  82.437  66.326  1.00  0.00    -0.493 OA
ATOM     15  C   UNL     1      72.442  83.365  65.421  1.00  0.00     0.278 C 
ENDBRANCH   9  14
BRANCH  10  16
ATOM     16  O   UNL     1      74.390  80.607  64.655  1.00  0.00    -0.504 OA
ATOM     17  H   UNL     1      73.465  80.632  64.914  1.00  0.00     0.293 HD
ENDBRANCH  10  16
ENDBRANCH   7   8
ENDBRANCH   4   7
ENDBRANCH   2   3
ENDBRANCH   1   2
BRANCH   1  18
ATOM     18  C   UNL     1      74.860  88.714  70.102  1.00  0.00     0.001 C 
BRANCH  18  19
ATOM     19  C   UNL     1      75.212  90.166  69.690  1.00  0.00     0.004 C 
BRANCH  19  20
ATOM     20  C   UNL     1      75.102  91.140  70.896  1.00  0.00     0.027 C 
BRANCH  20  21
ATOM     21  C   UNL     1      76.378  91.443  71.521  1.00  0.00    -0.031 C 
ATOM     22  C   UNL     1      76.609  92.605  72.157  1.00  0.00    -0.028 C 
BRANCH  22  23
ATOM     23  C   UNL     1      77.878  92.938  72.800  1.00  0.00     0.005 C 
ATOM     24  C   UNL     1      78.447  94.258  72.214  1.00  0.00     0.012 C 
ATOM     25  C   UNL     1      77.698  93.006  74.341  1.00  0.00     0.012 C 
ENDBRANCH  22  23
ENDBRANCH  20  21
ENDBRANCH  19  20
ENDBRANCH  18  19
ENDBRANCH   1  18
TORSDOF 11
ENDMDL
MODEL 9
REMARK VINA RESULT:    -5.318     17.008     20.088
REMARK INTER + INTRA:          -9.714
REMARK INTER:                  -8.631
REMARK INTRA:                  -1.082
REMARK UNBOUND:                -1.131
REMARK SMILES COc1cc(CNC(=O)CCCCC/C=C/C(C)C)ccc1O
REMARK SMILES IDX 11 1 10 2 8 3 7 4 9 6 6 7 5 8 3 9 22 10 4 11 21 12 20 13
REMARK SMILES IDX 2 14 1 15 23 16 12 18 13 19 14 20 15 21 16 22 17 23 18 24
REMARK SMILES IDX 19 25
REMARK H PARENT 7 5 23 17
REMARK Flexibility Score: inf
ROOT
ATOM      1  C   UNL     1     100.409  81.587  80.370  1.00  0.00     0.010 C 
ENDROOT
BRANCH   1   2
ATOM      2  C   UNL     1      99.681  82.880  79.919  1.00  0.00     0.100 C 
BRANCH   2   3
ATOM      3  C   UNL     1      98.465  83.185  80.695  1.00  0.00     0.220 C 
ATOM      4  N   UNL     1      98.513  83.194  82.055  1.00  0.00    -0.352 N 
ATOM      5  H   UNL     1      99.399  82.909  82.448  1.00  0.00     0.163 HD
ATOM      6  O   UNL     1      97.416  83.471  80.069  1.00  0.00    -0.275 OA
BRANCH   4   7
ATOM      7  C   UNL     1      97.441  83.566  82.921  1.00  0.00     0.151 C 
BRANCH   7   8
ATOM      8  C   UNL     1      97.866  83.686  84.339  1.00  0.00    -0.025 A 
ATOM      9  C   UNL     1      99.157  82.853  86.260  1.00  0.00     0.160 A 
ATOM     10  C   UNL     1      98.631  83.889  87.062  1.00  0.00     0.157 A 
ATOM     11  C   UNL     1      98.765  82.754  84.910  1.00  0.00     0.056 A 
ATOM     12  C   UNL     1      97.750  84.832  86.501  1.00  0.00     0.050 A 
ATOM     13  C   UNL     1      97.378  84.737  85.147  1.00  0.00     0.009 A 
BRANCH   9  14
ATOM     14  O   UNL     1     100.083  81.983  86.772  1.00  0.00    -0.493 OA
ATOM     15  C   UNL     1     101.133  81.634  85.854  1.00  0.00     0.278 C 
ENDBRANCH   9  14
BRANCH  10  16
ATOM     16  O   UNL     1      98.961  84.003  88.373  1.00  0.00    -0.504 OA
ATOM     17  H   UNL     1      99.657  84.658  88.471  1.00  0.00     0.293 HD
ENDBRANCH  10  16
ENDBRANCH   7   8
ENDBRANCH   4   7
ENDBRANCH   2   3
ENDBRANCH   1   2
BRANCH   1  18
ATOM     18  C   UNL     1     101.938  81.696  80.139  1.00  0.00     0.001 C 
BRANCH  18  19
ATOM     19  C   UNL     1     102.413  81.068  78.804  1.00  0.00     0.004 C 
BRANCH  19  20
ATOM     20  C   UNL     1     102.806  82.162  77.772  1.00  0.00     0.027 C 
BRANCH  20  21
ATOM     21  C   UNL     1     101.755  82.466  76.815  1.00  0.00    -0.031 C 
ATOM     22  C   UNL     1     101.187  83.682  76.733  1.00  0.00    -0.028 C 
BRANCH  22  23
ATOM     23  C   UNL     1     100.134  84.021  75.779  1.00  0.00     0.005 C 
ATOM     24  C   UNL     1      98.751  84.026  76.484  1.00  0.00     0.012 C 
ATOM     25  C   UNL     1     100.450  85.376  75.090  1.00  0.00     0.012 C 
ENDBRANCH  22  23
ENDBRANCH  20  21
ENDBRANCH  19  20
ENDBRANCH  18  19
ENDBRANCH   1  18
TORSDOF 11
ENDMDL
MODEL 10
REMARK VINA RESULT:    -5.301     17.513     21.440
REMARK INTER + INTRA:          -9.686
REMARK INTER:                  -8.896
REMARK INTRA:                  -0.791
REMARK UNBOUND:                -1.131
REMARK SMILES COc1cc(CNC(=O)CCCCC/C=C/C(C)C)ccc1O
REMARK SMILES IDX 11 1 10 2 8 3 7 4 9 6 6 7 5 8 3 9 22 10 4 11 21 12 20 13
REMARK SMILES IDX 2 14 1 15 23 16 12 18 13 19 14 20 15 21 16 22 17 23 18 24
REMARK SMILES IDX 19 25
REMARK H PARENT 7 5 23 17
REMARK Flexibility Score: inf
ROOT
ATOM      1  C   UNL     1      97.614  83.609  84.074  1.00  0.00     0.010 C 
ENDROOT
BRANCH   1   2
ATOM      2  C   UNL     1      98.751  82.607  84.403  1.00  0.00     0.100 C 
BRANCH   2   3
ATOM      3  C   UNL     1      99.430  82.059  83.214  1.00  0.00     0.220 C 
ATOM      4  N   UNL     1      98.727  81.850  82.067  1.00  0.00    -0.352 N 
ATOM      5  H   UNL     1      97.735  82.028  82.143  1.00  0.00     0.163 HD
ATOM      6  O   UNL     1     100.662  81.835  83.282  1.00  0.00    -0.275 OA
BRANCH   4   7
ATOM      7  C   UNL     1      99.277  81.419  80.823  1.00  0.00     0.151 C 
BRANCH   7   8
ATOM      8  C   UNL     1      98.689  82.133  79.660  1.00  0.00    -0.025 A 
ATOM      9  C   UNL     1      98.429  82.405  77.229  1.00  0.00     0.160 A 
ATOM     10  C   UNL     1      97.608  83.533  77.444  1.00  0.00     0.157 A 
ATOM     11  C   UNL     1      98.970  81.720  78.336  1.00  0.00     0.056 A 
ATOM     12  C   UNL     1      97.308  83.943  78.756  1.00  0.00     0.050 A 
ATOM     13  C   UNL     1      97.836  83.242  79.856  1.00  0.00     0.009 A 
BRANCH   9  14
ATOM     14  O   UNL     1      98.656  81.945  75.959  1.00  0.00    -0.493 OA
ATOM     15  C   UNL     1      99.968  81.392  75.759  1.00  0.00     0.278 C 
ENDBRANCH   9  14
BRANCH  10  16
ATOM     16  O   UNL     1      97.091  84.237  76.406  1.00  0.00    -0.504 OA
ATOM     17  H   UNL     1      96.135  84.269  76.486  1.00  0.00     0.293 HD
ENDBRANCH  10  16
ENDBRANCH   7   8
ENDBRANCH   4   7
ENDBRANCH   2   3
ENDBRANCH   1   2
BRANCH   1  18
ATOM     18  C   UNL     1      96.544  83.629  85.196  1.00  0.00     0.001 C 
BRANCH  18  19
ATOM     19  C   UNL     1      96.883  82.710  86.396  1.00  0.00     0.004 C 
BRANCH  19  20
ATOM     20  C   UNL     1      95.912  81.499  86.474  1.00  0.00     0.027 C 
BRANCH  20  21
ATOM     21  C   UNL     1      94.522  81.876  86.665  1.00  0.00    -0.031 C 
ATOM     22  C   UNL     1      93.704  81.210  87.500  1.00  0.00    -0.028 C 
BRANCH  22  23
ATOM     23  C   UNL     1      92.304  81.566  87.717  1.00  0.00     0.005 C 
ATOM     24  C   UNL     1      91.553  81.649  86.362  1.00  0.00     0.012 C 
ATOM     25  C   UNL     1      91.641  80.563  88.699  1.00  0.00     0.012 C 
ENDBRANCH  22  23
ENDBRANCH  20  21
ENDBRANCH  19  20
ENDBRANCH  18  19
ENDBRANCH   1  18
TORSDOF 11
ENDMDL
