MODEL 1
REMARK VINA RESULT:    -6.951      0.000      0.000
REMARK INTER + INTRA:         -13.071
REMARK INTER:                 -11.827
REMARK INTRA:                  -1.244
REMARK UNBOUND:                -1.244
REMARK SMILES C=C(C)[C@]12C[C@@H](C)[C@@]34O[C@](Cc5ccccc5)(O[C@@H]1[C@@H]3C=C(COC(=O)Cc1ccc(O)cc1)C[C@]1(O)C(=O)C(C)=C[C@@H]41)O2
REMARK SMILES IDX 23 1 22 2 21 3 20 4 9 5 8 6 10 7 6 8 18 10 44 11 19 12 5 13
REMARK SMILES IDX 7 14 4 15 11 16 12 17 13 18 17 19 14 20 16 21 15 22 2 23
REMARK SMILES IDX 3 24 1 25 35 26 36 27 43 28 38 29 42 30 39 32 40 33 41 34
REMARK SMILES IDX 37 35 24 37 25 38 26 39 27 40 28 41 29 42 34 43 30 44 33 45
REMARK SMILES IDX 31 46 32 47
REMARK H PARENT 37 36 32 48
REMARK Flexibility Score: 90.00
ROOT
ATOM      1  C   UNL     1      66.661  86.213  78.523  1.00  0.00     0.264 C 
ENDROOT
BRANCH   1   2
ATOM      2  C   UNL     1      65.463  86.721  77.755  1.00  0.00    -0.033 C 
ATOM      3  C   UNL     1      65.203  86.215  76.531  1.00  0.00    -0.015 C 
BRANCH   3   4
ATOM      4  C   UNL     1      64.121  86.605  75.537  1.00  0.00     0.078 C 
ATOM      5  O   UNL     1      62.196  85.106  75.943  1.00  0.00    -0.319 OA
ATOM      6  C   UNL     1      62.618  86.505  75.989  1.00  0.00     0.095 CG0
ATOM      7  C   UNL     1      62.635  84.369  74.785  1.00  0.00     0.289 C 
ATOM      8  C   UNL     1      61.752  87.347  74.964  1.00  0.00     0.023 C 
ATOM      9  G   UNL     1      62.462  86.908  77.484  1.00  0.00     0.000 G0
ATOM     10  O   UNL     1      64.055  84.388  74.667  1.00  0.00    -0.320 OA
ATOM     11  O   UNL     1      62.140  84.924  73.569  1.00  0.00    -0.313 OA
ATOM     12  C   UNL     1      64.254  85.749  74.253  1.00  0.00     0.170 C 
ATOM     13  C   UNL     1      62.355  87.294  73.526  1.00  0.00     0.049 C 
ATOM     14  C   UNL     1      60.258  86.983  74.904  1.00  0.00     0.011 C 
ATOM     15  C   UNL     1      63.082  85.974  73.266  1.00  0.00     0.122 C 
BRANCH   7  16
ATOM     16  C   UNL     1      62.150  82.939  74.921  1.00  0.00     0.135 C 
BRANCH  16  17
ATOM     17  C   UNL     1      63.207  81.942  74.516  1.00  0.00    -0.040 A 
ATOM     18  C   UNL     1      63.267  81.486  73.199  1.00  0.00     0.004 A 
ATOM     19  C   UNL     1      64.124  81.478  75.458  1.00  0.00     0.004 A 
ATOM     20  C   UNL     1      64.245  80.564  72.824  1.00  0.00     0.000 A 
ATOM     21  C   UNL     1      65.102  80.556  75.083  1.00  0.00     0.000 A 
ATOM     22  C   UNL     1      65.162  80.099  73.767  1.00  0.00     0.000 A 
ENDBRANCH  16  17
ENDBRANCH   7  16
BRANCH  15  23
ATOM     23  C   UNL     1      63.510  85.825  71.843  1.00  0.00    -0.046 C 
ATOM     24  C   UNL     1      62.933  84.659  71.096  1.00  0.00     0.042 C 
ATOM     25  C   UNL     1      64.362  86.685  71.265  1.00  0.00     0.010 C 
ENDBRANCH  15  23
ENDBRANCH   3   4
BRANCH   2  26
ATOM     26  C   UNL     1      64.676  87.776  78.508  1.00  0.00     0.078 C 
BRANCH  26  27
ATOM     27  C   UNL     1      63.312  88.166  77.942  1.00  0.00     0.140 C 
ATOM     28  C   UNL     1      62.493  86.937  77.496  1.00  0.00     0.086 CG0
ATOM     29  C   UNL     1      62.411  88.797  78.983  1.00  0.00     0.190 C 
ATOM     30  C   UNL     1      61.128  87.200  78.068  1.00  0.00    -0.010 C 
ATOM     31  G   UNL     1      62.628  86.530  75.999  1.00  0.00     0.000 G0
ATOM     32  O   UNL     1      62.730  89.700  79.742  1.00  0.00    -0.291 OA
ATOM     33  C   UNL     1      61.054  88.220  78.928  1.00  0.00    -0.008 C 
ATOM     34  C   UNL     1      59.914  88.706  79.732  1.00  0.00     0.048 C 
BRANCH  27  35
ATOM     35  O   UNL     1      63.431  89.168  76.946  1.00  0.00    -0.381 OA
ATOM     36  H   UNL     1      62.581  89.239  76.480  1.00  0.00     0.212 HD
ENDBRANCH  27  35
ENDBRANCH  26  27
ENDBRANCH   2  26
ENDBRANCH   1   2
BRANCH   1  37
ATOM     37  O   UNL     1      66.220  85.519  79.671  1.00  0.00    -0.461 OA
BRANCH  37  38
ATOM     38  C   UNL     1      66.939  85.732  80.824  1.00  0.00     0.310 C 
ATOM     39  O   UNL     1      67.872  85.042  81.208  1.00  0.00    -0.252 OA
BRANCH  38  40
ATOM     40  C   UNL     1      66.397  86.948  81.538  1.00  0.00     0.158 C 
BRANCH  40  41
ATOM     41  C   UNL     1      65.147  86.656  82.328  1.00  0.00    -0.037 A 
ATOM     42  C   UNL     1      63.946  87.280  81.989  1.00  0.00     0.008 A 
ATOM     43  C   UNL     1      65.190  85.764  83.399  1.00  0.00     0.008 A 
ATOM     44  C   UNL     1      62.789  87.012  82.721  1.00  0.00     0.046 A 
ATOM     45  C   UNL     1      64.033  85.494  84.130  1.00  0.00     0.046 A 
ATOM     46  C   UNL     1      62.833  86.118  83.792  1.00  0.00     0.115 A 
BRANCH  46  47
ATOM     47  O   UNL     1      61.705  85.857  84.506  1.00  0.00    -0.508 OA
ATOM     48  H   UNL     1      61.957  85.579  85.404  1.00  0.00     0.293 HD
ENDBRANCH  46  47
ENDBRANCH  40  41
ENDBRANCH  38  40
ENDBRANCH  37  38
ENDBRANCH   1  37
TORSDOF 10
ENDMDL
MODEL 2
REMARK VINA RESULT:    -6.515     14.609     18.327
REMARK INTER + INTRA:         -12.329
REMARK INTER:                 -11.456
REMARK INTRA:                  -0.873
REMARK UNBOUND:                -1.244
REMARK SMILES C=C(C)[C@]12C[C@@H](C)[C@@]34O[C@](Cc5ccccc5)(O[C@@H]1[C@@H]3C=C(COC(=O)Cc1ccc(O)cc1)C[C@]1(O)C(=O)C(C)=C[C@@H]41)O2
REMARK SMILES IDX 23 1 22 2 21 3 20 4 9 5 8 6 10 7 6 8 18 10 44 11 19 12 5 13
REMARK SMILES IDX 7 14 4 15 11 16 12 17 13 18 17 19 14 20 16 21 15 22 2 23
REMARK SMILES IDX 3 24 1 25 35 26 36 27 43 28 38 29 42 30 39 32 40 33 41 34
REMARK SMILES IDX 37 35 24 37 25 38 26 39 27 40 28 41 29 42 34 43 30 44 33 45
REMARK SMILES IDX 31 46 32 47
REMARK H PARENT 37 36 32 48
REMARK Flexibility Score: 90.00
ROOT
ATOM      1  C   UNL     1      76.963  91.432  63.144  1.00  0.00     0.264 C 
ENDROOT
BRANCH   1   2
ATOM      2  C   UNL     1      76.531  92.491  64.132  1.00  0.00    -0.033 C 
ATOM      3  C   UNL     1      75.432  92.280  64.886  1.00  0.00    -0.015 C 
BRANCH   3   4
ATOM      4  C   UNL     1      74.754  93.205  65.883  1.00  0.00     0.078 C 
ATOM      5  O   UNL     1      75.720  92.704  68.104  1.00  0.00    -0.319 OA
ATOM      6  C   UNL     1      75.599  93.752  67.092  1.00  0.00     0.095 CG0
ATOM      7  C   UNL     1      74.515  91.959  68.365  1.00  0.00     0.289 C 
ATOM      8  C   UNL     1      74.816  94.985  67.706  1.00  0.00     0.023 C 
ATOM      9  G   UNL     1      77.065  94.041  66.656  1.00  0.00     0.000 G0
ATOM     10  O   UNL     1      74.017  91.347  67.179  1.00  0.00    -0.320 OA
ATOM     11  O   UNL     1      73.459  92.788  68.845  1.00  0.00    -0.313 OA
ATOM     12  C   UNL     1      73.514  92.504  66.492  1.00  0.00     0.170 C 
ATOM     13  C   UNL     1      73.272  94.799  67.587  1.00  0.00     0.049 C 
ATOM     14  C   UNL     1      75.176  95.339  69.159  1.00  0.00     0.011 C 
ATOM     15  C   UNL     1      72.874  93.323  67.639  1.00  0.00     0.122 C 
BRANCH   7  16
ATOM     16  C   UNL     1      74.830  90.895  69.398  1.00  0.00     0.135 C 
BRANCH  16  17
ATOM     17  C   UNL     1      74.399  89.522  68.946  1.00  0.00    -0.040 A 
ATOM     18  C   UNL     1      75.269  88.728  68.200  1.00  0.00     0.004 A 
ATOM     19  C   UNL     1      73.130  89.047  69.275  1.00  0.00     0.004 A 
ATOM     20  C   UNL     1      74.871  87.458  67.782  1.00  0.00     0.000 A 
ATOM     21  C   UNL     1      72.731  87.777  68.858  1.00  0.00     0.000 A 
ATOM     22  C   UNL     1      73.601  86.983  68.112  1.00  0.00     0.000 A 
ENDBRANCH  16  17
ENDBRANCH   7  16
BRANCH  15  23
ATOM     23  C   UNL     1      71.394  93.131  67.709  1.00  0.00    -0.046 C 
ATOM     24  C   UNL     1      70.584  93.844  66.667  1.00  0.00     0.042 C 
ATOM     25  C   UNL     1      70.822  92.364  68.649  1.00  0.00     0.010 C 
ENDBRANCH  15  23
ENDBRANCH   3   4
BRANCH   2  26
ATOM     26  C   UNL     1      77.445  93.702  64.146  1.00  0.00     0.078 C 
BRANCH  26  27
ATOM     27  C   UNL     1      77.233  94.724  65.260  1.00  0.00     0.140 C 
ATOM     28  C   UNL     1      77.046  94.056  66.638  1.00  0.00     0.086 CG0
ATOM     29  C   UNL     1      78.449  95.598  65.485  1.00  0.00     0.190 C 
ATOM     30  C   UNL     1      77.939  94.861  67.541  1.00  0.00    -0.010 C 
ATOM     31  G   UNL     1      75.578  93.773  67.070  1.00  0.00     0.000 G0
ATOM     32  O   UNL     1      79.074  96.179  64.610  1.00  0.00    -0.291 OA
ATOM     33  C   UNL     1      78.758  95.716  66.922  1.00  0.00    -0.008 C 
ATOM     34  C   UNL     1      79.811  96.594  67.474  1.00  0.00     0.048 C 
BRANCH  27  35
ATOM     35  O   UNL     1      76.209  95.648  64.929  1.00  0.00    -0.381 OA
ATOM     36  H   UNL     1      75.834  95.999  65.754  1.00  0.00     0.212 HD
ENDBRANCH  27  35
ENDBRANCH  26  27
ENDBRANCH   2  26
ENDBRANCH   1   2
BRANCH   1  37
ATOM     37  O   UNL     1      77.800  90.500  63.796  1.00  0.00    -0.461 OA
BRANCH  37  38
ATOM     38  C   UNL     1      77.176  89.401  64.340  1.00  0.00     0.310 C 
ATOM     39  O   UNL     1      76.157  88.884  63.905  1.00  0.00    -0.252 OA
BRANCH  38  40
ATOM     40  C   UNL     1      77.944  88.936  65.554  1.00  0.00     0.158 C 
BRANCH  40  41
ATOM     41  C   UNL     1      78.029  87.435  65.656  1.00  0.00    -0.037 A 
ATOM     42  C   UNL     1      78.217  86.830  66.899  1.00  0.00     0.008 A 
ATOM     43  C   UNL     1      77.919  86.650  64.509  1.00  0.00     0.008 A 
ATOM     44  C   UNL     1      78.297  85.440  66.994  1.00  0.00     0.046 A 
ATOM     45  C   UNL     1      77.998  85.260  64.603  1.00  0.00     0.046 A 
ATOM     46  C   UNL     1      78.187  84.655  65.845  1.00  0.00     0.115 A 
BRANCH  46  47
ATOM     47  O   UNL     1      78.265  83.300  65.938  1.00  0.00    -0.508 OA
ATOM     48  H   UNL     1      77.395  82.919  65.728  1.00  0.00     0.293 HD
ENDBRANCH  46  47
ENDBRANCH  40  41
ENDBRANCH  38  40
ENDBRANCH  37  38
ENDBRANCH   1  37
TORSDOF 10
ENDMDL
MODEL 3
REMARK VINA RESULT:    -6.441     31.349     34.232
REMARK INTER + INTRA:         -12.204
REMARK INTER:                 -11.617
REMARK INTRA:                  -0.587
REMARK UNBOUND:                -1.244
REMARK SMILES C=C(C)[C@]12C[C@@H](C)[C@@]34O[C@](Cc5ccccc5)(O[C@@H]1[C@@H]3C=C(COC(=O)Cc1ccc(O)cc1)C[C@]1(O)C(=O)C(C)=C[C@@H]41)O2
REMARK SMILES IDX 23 1 22 2 21 3 20 4 9 5 8 6 10 7 6 8 18 10 44 11 19 12 5 13
REMARK SMILES IDX 7 14 4 15 11 16 12 17 13 18 17 19 14 20 16 21 15 22 2 23
REMARK SMILES IDX 3 24 1 25 35 26 36 27 43 28 38 29 42 30 39 32 40 33 41 34
REMARK SMILES IDX 37 35 24 37 25 38 26 39 27 40 28 41 29 42 34 43 30 44 33 45
REMARK SMILES IDX 31 46 32 47
REMARK H PARENT 37 36 32 48
REMARK Flexibility Score: 90.00
ROOT
ATOM      1  C   UNL     1      94.433  86.338  86.319  1.00  0.00     0.264 C 
ENDROOT
BRANCH   1   2
ATOM      2  C   UNL     1      94.595  84.926  85.805  1.00  0.00    -0.033 C 
ATOM      3  C   UNL     1      95.649  84.630  85.016  1.00  0.00    -0.015 C 
BRANCH   3   4
ATOM      4  C   UNL     1      95.994  83.324  84.318  1.00  0.00     0.078 C 
ATOM      5  O   UNL     1      97.500  82.074  85.829  1.00  0.00    -0.319 OA
ATOM      6  C   UNL     1      96.183  82.033  85.196  1.00  0.00     0.095 CG0
ATOM      7  C   UNL     1      98.577  82.515  84.980  1.00  0.00     0.289 C 
ATOM      8  C   UNL     1      96.107  80.780  84.229  1.00  0.00     0.023 C 
ATOM      9  G   UNL     1      95.180  82.021  86.386  1.00  0.00     0.000 G0
ATOM     10  O   UNL     1      98.321  83.812  84.450  1.00  0.00    -0.320 OA
ATOM     11  O   UNL     1      98.760  81.665  83.850  1.00  0.00    -0.313 OA
ATOM     12  C   UNL     1      97.295  83.495  83.496  1.00  0.00     0.170 C 
ATOM     13  C   UNL     1      96.688  81.108  82.820  1.00  0.00     0.049 C 
ATOM     14  C   UNL     1      96.758  79.492  84.762  1.00  0.00     0.011 C 
ATOM     15  C   UNL     1      97.797  82.159  82.896  1.00  0.00     0.122 C 
BRANCH   7  16
ATOM     16  C   UNL     1      99.850  82.539  85.803  1.00  0.00     0.135 C 
BRANCH  16  17
ATOM     17  C   UNL     1      99.797  81.569  86.958  1.00  0.00    -0.040 A 
ATOM     18  C   UNL     1      99.945  80.202  86.728  1.00  0.00     0.004 A 
ATOM     19  C   UNL     1      99.600  82.041  88.255  1.00  0.00     0.004 A 
ATOM     20  C   UNL     1      99.896  79.305  87.796  1.00  0.00     0.000 A 
ATOM     21  C   UNL     1      99.551  81.145  89.323  1.00  0.00     0.000 A 
ATOM     22  C   UNL     1      99.699  79.777  89.093  1.00  0.00     0.000 A 
ENDBRANCH  16  17
ENDBRANCH   7  16
BRANCH  15  23
ATOM     23  C   UNL     1      98.491  82.357  81.587  1.00  0.00    -0.046 C 
ATOM     24  C   UNL     1      99.959  82.050  81.564  1.00  0.00     0.042 C 
ATOM     25  C   UNL     1      97.839  82.784  80.496  1.00  0.00     0.010 C 
ENDBRANCH  15  23
ENDBRANCH   3   4
BRANCH   2  26
ATOM     26  C   UNL     1      93.499  83.990  86.278  1.00  0.00     0.078 C 
BRANCH  26  27
ATOM     27  C   UNL     1      93.716  82.494  86.059  1.00  0.00     0.140 C 
ATOM     28  C   UNL     1      95.161  82.061  86.382  1.00  0.00     0.086 CG0
ATOM     29  C   UNL     1      92.902  81.645  87.011  1.00  0.00     0.190 C 
ATOM     30  C   UNL     1      94.978  80.817  87.206  1.00  0.00    -0.010 C 
ATOM     31  G   UNL     1      96.155  82.044  85.184  1.00  0.00     0.000 G0
ATOM     32  O   UNL     1      91.709  81.781  87.238  1.00  0.00    -0.291 OA
ATOM     33  C   UNL     1      93.724  80.571  87.599  1.00  0.00    -0.008 C 
ATOM     34  C   UNL     1      93.194  79.504  88.472  1.00  0.00     0.048 C 
BRANCH  27  35
ATOM     35  O   UNL     1      93.269  82.088  84.776  1.00  0.00    -0.381 OA
ATOM     36  H   UNL     1      92.301  82.002  84.802  1.00  0.00     0.212 HD
ENDBRANCH  27  35
ENDBRANCH  26  27
ENDBRANCH   2  26
ENDBRANCH   1   2
BRANCH   1  37
ATOM     37  O   UNL     1      95.502  86.644  87.189  1.00  0.00    -0.461 OA
BRANCH  37  38
ATOM     38  C   UNL     1      95.226  87.532  88.203  1.00  0.00     0.310 C 
ATOM     39  O   UNL     1      95.087  87.232  89.380  1.00  0.00    -0.252 OA
BRANCH  38  40
ATOM     40  C   UNL     1      95.121  88.927  87.636  1.00  0.00     0.158 C 
BRANCH  40  41
ATOM     41  C   UNL     1      94.405  89.882  88.556  1.00  0.00    -0.037 A 
ATOM     42  C   UNL     1      93.013  89.968  88.526  1.00  0.00     0.008 A 
ATOM     43  C   UNL     1      95.133  90.682  89.436  1.00  0.00     0.008 A 
ATOM     44  C   UNL     1      92.350  90.853  89.376  1.00  0.00     0.046 A 
ATOM     45  C   UNL     1      94.470  91.567  90.287  1.00  0.00     0.046 A 
ATOM     46  C   UNL     1      93.079  91.653  90.257  1.00  0.00     0.115 A 
BRANCH  46  47
ATOM     47  O   UNL     1      92.432  92.516  91.086  1.00  0.00    -0.508 OA
ATOM     48  H   UNL     1      91.579  92.125  91.346  1.00  0.00     0.293 HD
ENDBRANCH  46  47
ENDBRANCH  40  41
ENDBRANCH  38  40
ENDBRANCH  37  38
ENDBRANCH   1  37
TORSDOF 10
ENDMDL
MODEL 4
REMARK VINA RESULT:    -6.387     28.711     33.581
REMARK INTER + INTRA:         -12.112
REMARK INTER:                 -11.928
REMARK INTRA:                  -0.185
REMARK UNBOUND:                -1.244
REMARK SMILES C=C(C)[C@]12C[C@@H](C)[C@@]34O[C@](Cc5ccccc5)(O[C@@H]1[C@@H]3C=C(COC(=O)Cc1ccc(O)cc1)C[C@]1(O)C(=O)C(C)=C[C@@H]41)O2
REMARK SMILES IDX 23 1 22 2 21 3 20 4 9 5 8 6 10 7 6 8 18 10 44 11 19 12 5 13
REMARK SMILES IDX 7 14 4 15 11 16 12 17 13 18 17 19 14 20 16 21 15 22 2 23
REMARK SMILES IDX 3 24 1 25 35 26 36 27 43 28 38 29 42 30 39 32 40 33 41 34
REMARK SMILES IDX 37 35 24 37 25 38 26 39 27 40 28 41 29 42 34 43 30 44 33 45
REMARK SMILES IDX 31 46 32 47
REMARK H PARENT 37 36 32 48
REMARK Flexibility Score: 90.00
ROOT
ATOM      1  C   UNL     1      96.254  83.669  85.475  1.00  0.00     0.264 C 
ENDROOT
BRANCH   1   2
ATOM      2  C   UNL     1      95.198  83.402  86.523  1.00  0.00    -0.033 C 
ATOM      3  C   UNL     1      95.212  84.112  87.669  1.00  0.00    -0.015 C 
BRANCH   3   4
ATOM      4  C   UNL     1      94.321  83.986  88.895  1.00  0.00     0.078 C 
ATOM      5  O   UNL     1      92.434  85.552  88.578  1.00  0.00    -0.319 OA
ATOM      6  C   UNL     1      92.766  84.135  88.708  1.00  0.00     0.095 CG0
ATOM      7  C   UNL     1      93.122  86.432  89.488  1.00  0.00     0.289 C 
ATOM      8  C   UNL     1      92.069  83.550  90.005  1.00  0.00     0.023 C 
ATOM      9  G   UNL     1      92.308  83.504  87.360  1.00  0.00     0.000 G0
ATOM     10  O   UNL     1      94.536  86.313  89.352  1.00  0.00    -0.320 OA
ATOM     11  O   UNL     1      92.840  86.130  90.852  1.00  0.00    -0.313 OA
ATOM     12  C   UNL     1      94.740  85.028  89.960  1.00  0.00     0.170 C 
ATOM     13  C   UNL     1      92.936  83.791  91.278  1.00  0.00     0.049 C 
ATOM     14  C   UNL     1      90.635  84.044  90.264  1.00  0.00     0.011 C 
ATOM     15  C   UNL     1      93.767  85.069  91.164  1.00  0.00     0.122 C 
BRANCH   7  16
ATOM     16  C   UNL     1      92.695  87.855  89.187  1.00  0.00     0.135 C 
BRANCH  16  17
ATOM     17  C   UNL     1      93.755  88.857  89.570  1.00  0.00    -0.040 A 
ATOM     18  C   UNL     1      94.314  89.687  88.600  1.00  0.00     0.004 A 
ATOM     19  C   UNL     1      94.175  88.953  90.897  1.00  0.00     0.004 A 
ATOM     20  C   UNL     1      95.294  90.615  88.955  1.00  0.00     0.000 A 
ATOM     21  C   UNL     1      95.155  89.881  91.252  1.00  0.00     0.000 A 
ATOM     22  C   UNL     1      95.714  90.711  90.281  1.00  0.00     0.000 A 
ENDBRANCH  16  17
ENDBRANCH   7  16
BRANCH  15  23
ATOM     23  C   UNL     1      94.465  85.416  92.439  1.00  0.00    -0.046 C 
ATOM     24  C   UNL     1      95.684  84.605  92.767  1.00  0.00     0.042 C 
ATOM     25  C   UNL     1      94.028  86.395  93.243  1.00  0.00     0.010 C 
ENDBRANCH  15  23
ENDBRANCH   3   4
BRANCH   2  26
ATOM     26  C   UNL     1      94.214  82.322  86.114  1.00  0.00     0.078 C 
BRANCH  26  27
ATOM     27  C   UNL     1      92.979  82.134  86.993  1.00  0.00     0.140 C 
ATOM     28  C   UNL     1      92.314  83.478  87.360  1.00  0.00     0.086 CG0
ATOM     29  C   UNL     1      91.862  81.405  86.276  1.00  0.00     0.190 C 
ATOM     30  C   UNL     1      90.853  83.223  87.118  1.00  0.00    -0.010 C 
ATOM     31  G   UNL     1      92.765  84.120  88.704  1.00  0.00     0.000 G0
ATOM     32  O   UNL     1      91.986  80.366  85.645  1.00  0.00    -0.291 OA
ATOM     33  C   UNL     1      90.568  82.081  86.486  1.00  0.00    -0.008 C 
ATOM     34  C   UNL     1      89.271  81.550  86.018  1.00  0.00     0.048 C 
BRANCH  27  35
ATOM     35  O   UNL     1      93.259  81.309  88.112  1.00  0.00    -0.381 OA
ATOM     36  H   UNL     1      93.994  80.717  87.879  1.00  0.00     0.212 HD
ENDBRANCH  27  35
ENDBRANCH  26  27
ENDBRANCH   2  26
ENDBRANCH   1   2
BRANCH   1  37
ATOM     37  O   UNL     1      95.877  83.051  84.264  1.00  0.00    -0.461 OA
BRANCH  37  38
ATOM     38  C   UNL     1      96.638  83.361  83.161  1.00  0.00     0.310 C 
ATOM     39  O   UNL     1      97.048  84.479  82.882  1.00  0.00    -0.252 OA
BRANCH  38  40
ATOM     40  C   UNL     1      96.886  82.110  82.352  1.00  0.00     0.158 C 
BRANCH  40  41
ATOM     41  C   UNL     1      97.434  82.397  80.978  1.00  0.00    -0.037 A 
ATOM     42  C   UNL     1      96.562  82.626  79.914  1.00  0.00     0.008 A 
ATOM     43  C   UNL     1      98.812  82.433  80.770  1.00  0.00     0.008 A 
ATOM     44  C   UNL     1      97.068  82.891  78.641  1.00  0.00     0.046 A 
ATOM     45  C   UNL     1      99.319  82.699  79.497  1.00  0.00     0.046 A 
ATOM     46  C   UNL     1      98.448  82.927  78.433  1.00  0.00     0.115 A 
BRANCH  46  47
ATOM     47  O   UNL     1      98.942  83.185  77.192  1.00  0.00    -0.508 OA
ATOM     48  H   UNL     1      99.491  82.434  76.908  1.00  0.00     0.293 HD
ENDBRANCH  46  47
ENDBRANCH  40  41
ENDBRANCH  38  40
ENDBRANCH  37  38
ENDBRANCH   1  37
TORSDOF 10
ENDMDL
MODEL 5
REMARK VINA RESULT:    -6.350      2.484      6.081
REMARK INTER + INTRA:         -12.049
REMARK INTER:                 -10.069
REMARK INTRA:                  -1.979
REMARK UNBOUND:                -1.244
REMARK SMILES C=C(C)[C@]12C[C@@H](C)[C@@]34O[C@](Cc5ccccc5)(O[C@@H]1[C@@H]3C=C(COC(=O)Cc1ccc(O)cc1)C[C@]1(O)C(=O)C(C)=C[C@@H]41)O2
REMARK SMILES IDX 23 1 22 2 21 3 20 4 9 5 8 6 10 7 6 8 18 10 44 11 19 12 5 13
REMARK SMILES IDX 7 14 4 15 11 16 12 17 13 18 17 19 14 20 16 21 15 22 2 23
REMARK SMILES IDX 3 24 1 25 35 26 36 27 43 28 38 29 42 30 39 32 40 33 41 34
REMARK SMILES IDX 37 35 24 37 25 38 26 39 27 40 28 41 29 42 34 43 30 44 33 45
REMARK SMILES IDX 31 46 32 47
REMARK H PARENT 37 36 32 48
REMARK Flexibility Score: 90.00
ROOT
ATOM      1  C   UNL     1      66.105  88.423  73.478  1.00  0.00     0.264 C 
ENDROOT
BRANCH   1   2
ATOM      2  C   UNL     1      65.246  87.326  72.893  1.00  0.00    -0.033 C 
ATOM      3  C   UNL     1      65.145  86.149  73.545  1.00  0.00    -0.015 C 
BRANCH   3   4
ATOM      4  C   UNL     1      64.418  84.878  73.135  1.00  0.00     0.078 C 
ATOM      5  O   UNL     1      62.162  84.983  74.143  1.00  0.00    -0.319 OA
ATOM      6  C   UNL     1      62.870  84.955  72.865  1.00  0.00     0.095 CG0
ATOM      7  C   UNL     1      62.659  84.071  75.142  1.00  0.00     0.289 C 
ATOM      8  C   UNL     1      62.458  83.652  72.065  1.00  0.00     0.023 C 
ATOM      9  G   UNL     1      62.495  86.304  72.184  1.00  0.00     0.000 G0
ATOM     10  O   UNL     1      64.038  84.304  75.416  1.00  0.00    -0.320 OA
ATOM     11  O   UNL     1      62.574  82.710  74.724  1.00  0.00    -0.313 OA
ATOM     12  C   UNL     1      64.624  83.784  74.212  1.00  0.00     0.170 C 
ATOM     13  C   UNL     1      63.325  82.425  72.484  1.00  0.00     0.049 C 
ATOM     14  C   UNL     1      60.969  83.272  72.142  1.00  0.00     0.011 C 
ATOM     15  C   UNL     1      63.773  82.520  73.943  1.00  0.00     0.122 C 
BRANCH   7  16
ATOM     16  C   UNL     1      61.845  84.262  76.406  1.00  0.00     0.135 C 
BRANCH  16  17
ATOM     17  C   UNL     1      61.746  85.714  76.802  1.00  0.00    -0.040 A 
ATOM     18  C   UNL     1      62.885  86.404  77.213  1.00  0.00     0.004 A 
ATOM     19  C   UNL     1      60.514  86.365  76.756  1.00  0.00     0.004 A 
ATOM     20  C   UNL     1      62.793  87.748  77.579  1.00  0.00     0.000 A 
ATOM     21  C   UNL     1      60.422  87.709  77.122  1.00  0.00     0.000 A 
ATOM     22  C   UNL     1      61.561  88.399  77.533  1.00  0.00     0.000 A 
ENDBRANCH  16  17
ENDBRANCH   7  16
BRANCH  15  23
ATOM     23  C   UNL     1      64.449  81.275  74.418  1.00  0.00    -0.046 C 
ATOM     24  C   UNL     1      64.272  80.937  75.868  1.00  0.00     0.042 C 
ATOM     25  C   UNL     1      65.174  80.504  73.594  1.00  0.00     0.010 C 
ENDBRANCH  15  23
ENDBRANCH   3   4
BRANCH   2  26
ATOM     26  C   UNL     1      64.575  87.724  71.591  1.00  0.00     0.078 C 
BRANCH  26  27
ATOM     27  C   UNL     1      63.470  86.809  71.067  1.00  0.00     0.140 C 
ATOM     28  C   UNL     1      62.526  86.332  72.190  1.00  0.00     0.086 CG0
ATOM     29  C   UNL     1      62.522  87.525  70.127  1.00  0.00     0.190 C 
ATOM     30  C   UNL     1      61.156  86.529  71.603  1.00  0.00    -0.010 C 
ATOM     31  G   UNL     1      62.883  84.969  72.852  1.00  0.00     0.000 G0
ATOM     32  O   UNL     1      62.856  88.224  69.183  1.00  0.00    -0.291 OA
ATOM     33  C   UNL     1      61.118  87.220  70.459  1.00  0.00    -0.008 C 
ATOM     34  C   UNL     1      59.961  87.668  69.657  1.00  0.00     0.048 C 
BRANCH  27  35
ATOM     35  O   UNL     1      63.999  85.757  70.277  1.00  0.00    -0.381 OA
ATOM     36  H   UNL     1      63.799  84.914  70.717  1.00  0.00     0.212 HD
ENDBRANCH  27  35
ENDBRANCH  26  27
ENDBRANCH   2  26
ENDBRANCH   1   2
BRANCH   1  37
ATOM     37  O   UNL     1      65.276  89.391  74.085  1.00  0.00    -0.461 OA
BRANCH  37  38
ATOM     38  C   UNL     1      65.479  89.609  75.428  1.00  0.00     0.310 C 
ATOM     39  O   UNL     1      64.763  90.293  76.145  1.00  0.00    -0.252 OA
BRANCH  38  40
ATOM     40  C   UNL     1      66.720  88.874  75.875  1.00  0.00     0.158 C 
BRANCH  40  41
ATOM     41  C   UNL     1      66.494  88.036  77.107  1.00  0.00    -0.037 A 
ATOM     42  C   UNL     1      66.522  86.644  77.018  1.00  0.00     0.008 A 
ATOM     43  C   UNL     1      66.257  88.650  78.336  1.00  0.00     0.008 A 
ATOM     44  C   UNL     1      66.312  85.867  78.158  1.00  0.00     0.046 A 
ATOM     45  C   UNL     1      66.047  87.875  79.476  1.00  0.00     0.046 A 
ATOM     46  C   UNL     1      66.075  86.483  79.387  1.00  0.00     0.115 A 
BRANCH  46  47
ATOM     47  O   UNL     1      65.870  85.726  80.499  1.00  0.00    -0.508 OA
ATOM     48  H   UNL     1      64.963  85.373  80.478  1.00  0.00     0.293 HD
ENDBRANCH  46  47
ENDBRANCH  40  41
ENDBRANCH  38  40
ENDBRANCH  37  38
ENDBRANCH   1  37
TORSDOF 10
ENDMDL
MODEL 6
REMARK VINA RESULT:    -6.310      5.355      7.301
REMARK INTER + INTRA:         -11.980
REMARK INTER:                 -10.808
REMARK INTRA:                  -1.172
REMARK UNBOUND:                -1.244
REMARK SMILES C=C(C)[C@]12C[C@@H](C)[C@@]34O[C@](Cc5ccccc5)(O[C@@H]1[C@@H]3C=C(COC(=O)Cc1ccc(O)cc1)C[C@]1(O)C(=O)C(C)=C[C@@H]41)O2
REMARK SMILES IDX 23 1 22 2 21 3 20 4 9 5 8 6 10 7 6 8 18 10 44 11 19 12 5 13
REMARK SMILES IDX 7 14 4 15 11 16 12 17 13 18 17 19 14 20 16 21 15 22 2 23
REMARK SMILES IDX 3 24 1 25 35 26 36 27 43 28 38 29 42 30 39 32 40 33 41 34
REMARK SMILES IDX 37 35 24 37 25 38 26 39 27 40 28 41 29 42 34 43 30 44 33 45
REMARK SMILES IDX 31 46 32 47
REMARK H PARENT 37 36 32 48
REMARK Flexibility Score: 90.00
ROOT
ATOM      1  C   UNL     1      64.658  88.494  73.755  1.00  0.00     0.264 C 
ENDROOT
BRANCH   1   2
ATOM      2  C   UNL     1      63.494  87.948  72.961  1.00  0.00    -0.033 C 
ATOM      3  C   UNL     1      63.588  86.718  72.414  1.00  0.00    -0.015 C 
BRANCH   3   4
ATOM      4  C   UNL     1      62.603  85.982  71.520  1.00  0.00     0.078 C 
ATOM      5  O   UNL     1      61.170  84.614  72.999  1.00  0.00    -0.319 OA
ATOM      6  C   UNL     1      61.146  85.732  72.058  1.00  0.00     0.095 CG0
ATOM      7  C   UNL     1      61.977  83.490  72.600  1.00  0.00     0.289 C 
ATOM      8  C   UNL     1      60.236  85.353  70.818  1.00  0.00     0.023 C 
ATOM      9  G   UNL     1      60.653  86.942  72.904  1.00  0.00     0.000 G0
ATOM     10  O   UNL     1      63.328  83.879  72.370  1.00  0.00    -0.320 OA
ATOM     11  O   UNL     1      61.530  82.908  71.378  1.00  0.00    -0.313 OA
ATOM     12  C   UNL     1      63.176  84.596  71.135  1.00  0.00     0.170 C 
ATOM     13  C   UNL     1      61.038  84.562  69.739  1.00  0.00     0.049 C 
ATOM     14  C   UNL     1      58.944  84.588  71.155  1.00  0.00     0.011 C 
ATOM     15  C   UNL     1      62.154  83.725  70.365  1.00  0.00     0.122 C 
BRANCH   7  16
ATOM     16  C   UNL     1      61.923  82.451  73.703  1.00  0.00     0.135 C 
BRANCH  16  17
ATOM     17  C   UNL     1      63.252  81.767  73.902  1.00  0.00    -0.040 A 
ATOM     18  C   UNL     1      63.795  80.987  72.882  1.00  0.00     0.004 A 
ATOM     19  C   UNL     1      63.937  81.914  75.108  1.00  0.00     0.004 A 
ATOM     20  C   UNL     1      65.025  80.354  73.066  1.00  0.00     0.000 A 
ATOM     21  C   UNL     1      65.167  81.281  75.292  1.00  0.00     0.000 A 
ATOM     22  C   UNL     1      65.710  80.502  74.271  1.00  0.00     0.000 A 
ENDBRANCH  16  17
ENDBRANCH   7  16
BRANCH  15  23
ATOM     23  C   UNL     1      62.818  82.822  69.377  1.00  0.00    -0.046 C 
ATOM     24  C   UNL     1      63.624  83.493  68.305  1.00  0.00     0.042 C 
ATOM     25  C   UNL     1      62.699  81.488  69.443  1.00  0.00     0.010 C 
ENDBRANCH  15  23
ENDBRANCH   3   4
BRANCH   2  26
ATOM     26  C   UNL     1      62.319  88.906  72.892  1.00  0.00     0.078 C 
BRANCH  26  27
ATOM     27  C   UNL     1      61.004  88.358  72.340  1.00  0.00     0.140 C 
ATOM     28  C   UNL     1      60.671  86.961  72.903  1.00  0.00     0.086 CG0
ATOM     29  C   UNL     1      59.807  89.178  72.774  1.00  0.00     0.190 C 
ATOM     30  C   UNL     1      59.219  87.072  73.278  1.00  0.00    -0.010 C 
ATOM     31  G   UNL     1      61.149  85.748  72.054  1.00  0.00     0.000 G0
ATOM     32  O   UNL     1      59.720  90.395  72.705  1.00  0.00    -0.291 OA
ATOM     33  C   UNL     1      58.712  88.308  73.243  1.00  0.00    -0.008 C 
ATOM     34  C   UNL     1      57.370  88.797  73.620  1.00  0.00     0.048 C 
BRANCH  27  35
ATOM     35  O   UNL     1      60.967  88.429  70.924  1.00  0.00    -0.381 OA
ATOM     36  H   UNL     1      60.040  88.513  70.646  1.00  0.00     0.212 HD
ENDBRANCH  27  35
ENDBRANCH  26  27
ENDBRANCH   2  26
ENDBRANCH   1   2
BRANCH   1  37
ATOM     37  O   UNL     1      65.328  89.472  72.989  1.00  0.00    -0.461 OA
BRANCH  37  38
ATOM     38  C   UNL     1      66.703  89.430  73.019  1.00  0.00     0.310 C 
ATOM     39  O   UNL     1      67.377  89.190  74.010  1.00  0.00    -0.252 OA
BRANCH  38  40
ATOM     40  C   UNL     1      67.246  89.727  71.641  1.00  0.00     0.158 C 
BRANCH  40  41
ATOM     41  C   UNL     1      67.285  88.513  70.751  1.00  0.00    -0.037 A 
ATOM     42  C   UNL     1      68.502  87.891  70.472  1.00  0.00     0.008 A 
ATOM     43  C   UNL     1      66.104  88.010  70.205  1.00  0.00     0.008 A 
ATOM     44  C   UNL     1      68.538  86.767  69.646  1.00  0.00     0.046 A 
ATOM     45  C   UNL     1      66.140  86.885  69.379  1.00  0.00     0.046 A 
ATOM     46  C   UNL     1      67.357  86.264  69.100  1.00  0.00     0.115 A 
BRANCH  46  47
ATOM     47  O   UNL     1      67.392  85.168  68.295  1.00  0.00    -0.508 OA
ATOM     48  H   UNL     1      66.643  84.588  68.517  1.00  0.00     0.293 HD
ENDBRANCH  46  47
ENDBRANCH  40  41
ENDBRANCH  38  40
ENDBRANCH  37  38
ENDBRANCH   1  37
TORSDOF 10
ENDMDL
MODEL 7
REMARK VINA RESULT:    -6.290     12.936     17.252
REMARK INTER + INTRA:         -11.946
REMARK INTER:                 -11.076
REMARK INTRA:                  -0.870
REMARK UNBOUND:                -1.244
REMARK SMILES C=C(C)[C@]12C[C@@H](C)[C@@]34O[C@](Cc5ccccc5)(O[C@@H]1[C@@H]3C=C(COC(=O)Cc1ccc(O)cc1)C[C@]1(O)C(=O)C(C)=C[C@@H]41)O2
REMARK SMILES IDX 23 1 22 2 21 3 20 4 9 5 8 6 10 7 6 8 18 10 44 11 19 12 5 13
REMARK SMILES IDX 7 14 4 15 11 16 12 17 13 18 17 19 14 20 16 21 15 22 2 23
REMARK SMILES IDX 3 24 1 25 35 26 36 27 43 28 38 29 42 30 39 32 40 33 41 34
REMARK SMILES IDX 37 35 24 37 25 38 26 39 27 40 28 41 29 42 34 43 30 44 33 45
REMARK SMILES IDX 31 46 32 47
REMARK H PARENT 37 36 32 48
REMARK Flexibility Score: 90.00
ROOT
ATOM      1  C   UNL     1      77.782  86.021  67.553  1.00  0.00     0.264 C 
ENDROOT
BRANCH   1   2
ATOM      2  C   UNL     1      76.734  86.909  66.924  1.00  0.00    -0.033 C 
ATOM      3  C   UNL     1      75.526  87.023  67.514  1.00  0.00    -0.015 C 
BRANCH   3   4
ATOM      4  C   UNL     1      74.292  87.780  67.049  1.00  0.00     0.078 C 
ATOM      5  O   UNL     1      74.391  90.023  68.086  1.00  0.00    -0.319 OA
ATOM      6  C   UNL     1      74.415  89.329  66.801  1.00  0.00     0.095 CG0
ATOM      7  C   UNL     1      73.420  89.535  69.032  1.00  0.00     0.289 C 
ATOM      8  C   UNL     1      73.162  89.777  65.941  1.00  0.00     0.023 C 
ATOM      9  G   UNL     1      75.803  89.683  66.193  1.00  0.00     0.000 G0
ATOM     10  O   UNL     1      73.611  88.150  69.302  1.00  0.00    -0.320 OA
ATOM     11  O   UNL     1      72.085  89.653  68.546  1.00  0.00    -0.313 OA
ATOM     12  C   UNL     1      73.141  87.586  68.067  1.00  0.00     0.170 C 
ATOM     13  C   UNL     1      71.898  88.931  66.287  1.00  0.00     0.049 C 
ATOM     14  C   UNL     1      72.809  91.272  66.015  1.00  0.00     0.011 C 
ATOM     15  C   UNL     1      71.910  88.467  67.744  1.00  0.00     0.122 C 
BRANCH   7  16
ATOM     16  C   UNL     1      73.563  90.332  70.313  1.00  0.00     0.135 C 
BRANCH  16  17
ATOM     17  C   UNL     1      73.974  91.759  70.050  1.00  0.00    -0.040 A 
ATOM     18  C   UNL     1      75.306  92.142  70.205  1.00  0.00     0.004 A 
ATOM     19  C   UNL     1      73.021  92.696  69.650  1.00  0.00     0.004 A 
ATOM     20  C   UNL     1      75.686  93.462  69.961  1.00  0.00     0.000 A 
ATOM     21  C   UNL     1      73.402  94.016  69.406  1.00  0.00     0.000 A 
ATOM     22  C   UNL     1      74.733  94.398  69.561  1.00  0.00     0.000 A 
ENDBRANCH  16  17
ENDBRANCH   7  16
BRANCH  15  23
ATOM     23  C   UNL     1      70.629  87.811  68.147  1.00  0.00    -0.046 C 
ATOM     24  C   UNL     1      69.972  88.347  69.385  1.00  0.00     0.042 C 
ATOM     25  C   UNL     1      70.097  86.800  67.444  1.00  0.00     0.010 C 
ENDBRANCH  15  23
ENDBRANCH   3   4
BRANCH   2  26
ATOM     26  C   UNL     1      77.214  87.592  65.657  1.00  0.00     0.078 C 
BRANCH  26  27
ATOM     27  C   UNL     1      76.332  88.698  65.083  1.00  0.00     0.140 C 
ATOM     28  C   UNL     1      75.809  89.654  66.176  1.00  0.00     0.086 CG0
ATOM     29  C   UNL     1      77.096  89.635  64.171  1.00  0.00     0.190 C 
ATOM     30  C   UNL     1      76.043  91.018  65.590  1.00  0.00    -0.010 C 
ATOM     31  G   UNL     1      74.415  89.310  66.778  1.00  0.00     0.000 G0
ATOM     32  O   UNL     1      77.836  89.290  63.262  1.00  0.00    -0.291 OA
ATOM     33  C   UNL     1      76.786  91.044  64.479  1.00  0.00    -0.008 C 
ATOM     34  C   UNL     1      77.278  92.192  63.690  1.00  0.00     0.048 C 
BRANCH  27  35
ATOM     35  O   UNL     1      75.314  88.170  64.250  1.00  0.00    -0.381 OA
ATOM     36  H   UNL     1      74.757  87.578  64.783  1.00  0.00     0.212 HD
ENDBRANCH  27  35
ENDBRANCH  26  27
ENDBRANCH   2  26
ENDBRANCH   1   2
BRANCH   1  37
ATOM     37  O   UNL     1      78.688  85.592  66.559  1.00  0.00    -0.461 OA
BRANCH  37  38
ATOM     38  C   UNL     1      78.202  84.686  65.644  1.00  0.00     0.310 C 
ATOM     39  O   UNL     1      78.368  84.752  64.434  1.00  0.00    -0.252 OA
BRANCH  38  40
ATOM     40  C   UNL     1      77.435  83.604  66.366  1.00  0.00     0.158 C 
BRANCH  40  41
ATOM     41  C   UNL     1      76.240  83.114  65.590  1.00  0.00    -0.037 A 
ATOM     42  C   UNL     1      75.076  83.882  65.542  1.00  0.00     0.008 A 
ATOM     43  C   UNL     1      76.296  81.892  64.920  1.00  0.00     0.008 A 
ATOM     44  C   UNL     1      73.969  83.427  64.825  1.00  0.00     0.046 A 
ATOM     45  C   UNL     1      75.189  81.438  64.202  1.00  0.00     0.046 A 
ATOM     46  C   UNL     1      74.026  82.205  64.155  1.00  0.00     0.115 A 
BRANCH  46  47
ATOM     47  O   UNL     1      72.946  81.762  63.455  1.00  0.00    -0.508 OA
ATOM     48  H   UNL     1      72.887  82.256  62.619  1.00  0.00     0.293 HD
ENDBRANCH  46  47
ENDBRANCH  40  41
ENDBRANCH  38  40
ENDBRANCH  37  38
ENDBRANCH   1  37
TORSDOF 10
ENDMDL
MODEL 8
REMARK VINA RESULT:    -6.162      2.361      8.506
REMARK INTER + INTRA:         -11.728
REMARK INTER:                 -10.946
REMARK INTRA:                  -0.783
REMARK UNBOUND:                -1.244
REMARK SMILES C=C(C)[C@]12C[C@@H](C)[C@@]34O[C@](Cc5ccccc5)(O[C@@H]1[C@@H]3C=C(COC(=O)Cc1ccc(O)cc1)C[C@]1(O)C(=O)C(C)=C[C@@H]41)O2
REMARK SMILES IDX 23 1 22 2 21 3 20 4 9 5 8 6 10 7 6 8 18 10 44 11 19 12 5 13
REMARK SMILES IDX 7 14 4 15 11 16 12 17 13 18 17 19 14 20 16 21 15 22 2 23
REMARK SMILES IDX 3 24 1 25 35 26 36 27 43 28 38 29 42 30 39 32 40 33 41 34
REMARK SMILES IDX 37 35 24 37 25 38 26 39 27 40 28 41 29 42 34 43 30 44 33 45
REMARK SMILES IDX 31 46 32 47
REMARK H PARENT 37 36 32 48
REMARK Flexibility Score: 90.00
ROOT
ATOM      1  C   UNL     1      62.654  83.336  75.714  1.00  0.00     0.264 C 
ENDROOT
BRANCH   1   2
ATOM      2  C   UNL     1      63.211  84.737  75.627  1.00  0.00    -0.033 C 
ATOM      3  C   UNL     1      63.344  85.465  76.755  1.00  0.00    -0.015 C 
BRANCH   3   4
ATOM      4  C   UNL     1      63.801  86.905  76.926  1.00  0.00     0.078 C 
ATOM      5  O   UNL     1      66.237  86.844  77.345  1.00  0.00    -0.319 OA
ATOM      6  C   UNL     1      65.226  87.307  76.396  1.00  0.00     0.095 CG0
ATOM      7  C   UNL     1      65.917  87.050  78.734  1.00  0.00     0.289 C 
ATOM      8  C   UNL     1      65.277  88.888  76.307  1.00  0.00     0.023 C 
ATOM      9  G   UNL     1      65.558  86.552  75.076  1.00  0.00     0.000 G0
ATOM     10  O   UNL     1      64.689  86.418  79.082  1.00  0.00    -0.320 OA
ATOM     11  O   UNL     1      65.745  88.429  79.052  1.00  0.00    -0.313 OA
ATOM     12  C   UNL     1      63.760  87.295  78.425  1.00  0.00     0.170 C 
ATOM     13  C   UNL     1      64.418  89.552  77.427  1.00  0.00     0.049 C 
ATOM     14  C   UNL     1      66.686  89.506  76.311  1.00  0.00     0.011 C 
ATOM     15  C   UNL     1      64.373  88.692  78.690  1.00  0.00     0.122 C 
BRANCH   7  16
ATOM     16  C   UNL     1      67.044  86.477  79.571  1.00  0.00     0.135 C 
BRANCH  16  17
ATOM     17  C   UNL     1      67.036  87.017  80.979  1.00  0.00    -0.040 A 
ATOM     18  C   UNL     1      66.355  86.333  81.985  1.00  0.00     0.004 A 
ATOM     19  C   UNL     1      67.709  88.202  81.274  1.00  0.00     0.004 A 
ATOM     20  C   UNL     1      66.348  86.833  83.288  1.00  0.00     0.000 A 
ATOM     21  C   UNL     1      67.702  88.703  82.576  1.00  0.00     0.000 A 
ATOM     22  C   UNL     1      67.022  88.018  83.582  1.00  0.00     0.000 A 
ENDBRANCH  16  17
ENDBRANCH   7  16
BRANCH  15  23
ATOM     23  C   UNL     1      63.710  89.387  79.835  1.00  0.00    -0.046 C 
ATOM     24  C   UNL     1      64.621  90.077  80.807  1.00  0.00     0.042 C 
ATOM     25  C   UNL     1      62.377  89.394  79.985  1.00  0.00     0.010 C 
ENDBRANCH  15  23
ENDBRANCH   3   4
BRANCH   2  26
ATOM     26  C   UNL     1      63.569  85.149  74.211  1.00  0.00     0.078 C 
BRANCH  26  27
ATOM     27  C   UNL     1      64.377  86.434  74.041  1.00  0.00     0.140 C 
ATOM     28  C   UNL     1      65.532  86.537  75.059  1.00  0.00     0.086 CG0
ATOM     29  C   UNL     1      65.106  86.490  72.715  1.00  0.00     0.190 C 
ATOM     30  C   UNL     1      66.702  86.966  74.218  1.00  0.00    -0.010 C 
ATOM     31  G   UNL     1      65.218  87.301  76.378  1.00  0.00     0.000 G0
ATOM     32  O   UNL     1      64.609  86.259  71.623  1.00  0.00    -0.291 OA
ATOM     33  C   UNL     1      66.504  86.924  72.898  1.00  0.00    -0.008 C 
ATOM     34  C   UNL     1      67.440  87.192  71.786  1.00  0.00     0.048 C 
BRANCH  27  35
ATOM     35  O   UNL     1      63.536  87.576  74.013  1.00  0.00    -0.381 OA
ATOM     36  H   UNL     1      63.833  88.192  74.703  1.00  0.00     0.212 HD
ENDBRANCH  27  35
ENDBRANCH  26  27
ENDBRANCH   2  26
ENDBRANCH   1   2
BRANCH   1  37
ATOM     37  O   UNL     1      63.720  82.414  75.800  1.00  0.00    -0.461 OA
BRANCH  37  38
ATOM     38  C   UNL     1      63.990  81.690  74.662  1.00  0.00     0.310 C 
ATOM     39  O   UNL     1      65.108  81.485  74.209  1.00  0.00    -0.252 OA
BRANCH  38  40
ATOM     40  C   UNL     1      62.698  81.189  74.064  1.00  0.00     0.158 C 
BRANCH  40  41
ATOM     41  C   UNL     1      62.367  81.843  72.747  1.00  0.00    -0.037 A 
ATOM     42  C   UNL     1      61.432  82.877  72.697  1.00  0.00     0.008 A 
ATOM     43  C   UNL     1      62.995  81.414  71.579  1.00  0.00     0.008 A 
ATOM     44  C   UNL     1      61.125  83.481  71.478  1.00  0.00     0.046 A 
ATOM     45  C   UNL     1      62.689  82.019  70.359  1.00  0.00     0.046 A 
ATOM     46  C   UNL     1      61.754  83.052  70.308  1.00  0.00     0.115 A 
BRANCH  46  47
ATOM     47  O   UNL     1      61.455  83.642  69.119  1.00  0.00    -0.508 OA
ATOM     48  H   UNL     1      60.996  84.482  69.291  1.00  0.00     0.293 HD
ENDBRANCH  46  47
ENDBRANCH  40  41
ENDBRANCH  38  40
ENDBRANCH  37  38
ENDBRANCH   1  37
TORSDOF 10
ENDMDL
MODEL 9
REMARK VINA RESULT:    -6.113      3.570      8.878
REMARK INTER + INTRA:         -11.645
REMARK INTER:                 -10.794
REMARK INTRA:                  -0.852
REMARK UNBOUND:                -1.244
REMARK SMILES C=C(C)[C@]12C[C@@H](C)[C@@]34O[C@](Cc5ccccc5)(O[C@@H]1[C@@H]3C=C(COC(=O)Cc1ccc(O)cc1)C[C@]1(O)C(=O)C(C)=C[C@@H]41)O2
REMARK SMILES IDX 23 1 22 2 21 3 20 4 9 5 8 6 10 7 6 8 18 10 44 11 19 12 5 13
REMARK SMILES IDX 7 14 4 15 11 16 12 17 13 18 17 19 14 20 16 21 15 22 2 23
REMARK SMILES IDX 3 24 1 25 35 26 36 27 43 28 38 29 42 30 39 32 40 33 41 34
REMARK SMILES IDX 37 35 24 37 25 38 26 39 27 40 28 41 29 42 34 43 30 44 33 45
REMARK SMILES IDX 31 46 32 47
REMARK H PARENT 37 36 32 48
REMARK Flexibility Score: 90.00
ROOT
ATOM      1  C   UNL     1      58.965  87.443  73.934  1.00  0.00     0.264 C 
ENDROOT
BRANCH   1   2
ATOM      2  C   UNL     1      60.473  87.386  73.855  1.00  0.00    -0.033 C 
ATOM      3  C   UNL     1      61.174  86.969  74.929  1.00  0.00    -0.015 C 
BRANCH   3   4
ATOM      4  C   UNL     1      62.679  86.895  75.130  1.00  0.00     0.078 C 
ATOM      5  O   UNL     1      63.379  84.612  74.487  1.00  0.00    -0.319 OA
ATOM      6  C   UNL     1      63.525  86.022  74.131  1.00  0.00     0.095 CG0
ATOM      7  C   UNL     1      63.436  84.324  75.898  1.00  0.00     0.289 C 
ATOM      8  C   UNL     1      65.043  86.448  74.289  1.00  0.00     0.023 C 
ATOM      9  G   UNL     1      62.950  86.119  72.688  1.00  0.00     0.000 G0
ATOM     10  O   UNL     1      62.439  85.047  76.614  1.00  0.00    -0.320 OA
ATOM     11  O   UNL     1      64.680  84.705  76.480  1.00  0.00    -0.313 OA
ATOM     12  C   UNL     1      62.995  86.370  76.552  1.00  0.00     0.170 C 
ATOM     13  C   UNL     1      65.371  86.864  75.756  1.00  0.00     0.049 C 
ATOM     14  C   UNL     1      66.074  85.411  73.812  1.00  0.00     0.011 C 
ATOM     15  C   UNL     1      64.506  86.108  76.766  1.00  0.00     0.122 C 
BRANCH   7  16
ATOM     16  C   UNL     1      63.225  82.835  76.087  1.00  0.00     0.135 C 
BRANCH  16  17
ATOM     17  C   UNL     1      63.744  82.036  74.917  1.00  0.00    -0.040 A 
ATOM     18  C   UNL     1      62.896  81.721  73.857  1.00  0.00     0.004 A 
ATOM     19  C   UNL     1      65.073  81.613  74.898  1.00  0.00     0.004 A 
ATOM     20  C   UNL     1      63.376  80.982  72.774  1.00  0.00     0.000 A 
ATOM     21  C   UNL     1      65.553  80.875  73.816  1.00  0.00     0.000 A 
ATOM     22  C   UNL     1      64.705  80.560  72.755  1.00  0.00     0.000 A 
ENDBRANCH  16  17
ENDBRANCH   7  16
BRANCH  15  23
ATOM     23  C   UNL     1      64.925  86.355  78.178  1.00  0.00    -0.046 C 
ATOM     24  C   UNL     1      64.046  87.270  78.979  1.00  0.00     0.042 C 
ATOM     25  C   UNL     1      66.024  85.792  78.701  1.00  0.00     0.010 C 
ENDBRANCH  15  23
ENDBRANCH   3   4
BRANCH   2  26
ATOM     26  C   UNL     1      61.016  87.821  72.506  1.00  0.00     0.078 C 
BRANCH  26  27
ATOM     27  C   UNL     1      62.491  87.542  72.225  1.00  0.00     0.140 C 
ATOM     28  C   UNL     1      62.918  86.134  72.690  1.00  0.00     0.086 CG0
ATOM     29  C   UNL     1      62.801  87.502  70.743  1.00  0.00     0.190 C 
ATOM     30  C   UNL     1      63.707  85.605  71.526  1.00  0.00    -0.010 C 
ATOM     31  G   UNL     1      63.515  86.039  74.125  1.00  0.00     0.000 G0
ATOM     32  O   UNL     1      62.455  88.341  69.925  1.00  0.00    -0.291 OA
ATOM     33  C   UNL     1      63.639  86.335  70.409  1.00  0.00    -0.008 C 
ATOM     34  C   UNL     1      64.210  86.081  69.070  1.00  0.00     0.048 C 
BRANCH  27  35
ATOM     35  O   UNL     1      63.318  88.583  72.716  1.00  0.00    -0.381 OA
ATOM     36  H   UNL     1      63.406  88.477  73.678  1.00  0.00     0.212 HD
ENDBRANCH  27  35
ENDBRANCH  26  27
ENDBRANCH   2  26
ENDBRANCH   1   2
BRANCH   1  37
ATOM     37  O   UNL     1      58.417  87.040  72.697  1.00  0.00    -0.461 OA
BRANCH  37  38
ATOM     38  C   UNL     1      57.670  87.981  72.027  1.00  0.00     0.310 C 
ATOM     39  O   UNL     1      57.343  89.070  72.480  1.00  0.00    -0.252 OA
BRANCH  38  40
ATOM     40  C   UNL     1      57.318  87.462  70.654  1.00  0.00     0.158 C 
BRANCH  40  41
ATOM     41  C   UNL     1      57.747  88.390  69.547  1.00  0.00    -0.037 A 
ATOM     42  C   UNL     1      56.793  89.136  68.854  1.00  0.00     0.008 A 
ATOM     43  C   UNL     1      59.096  88.504  69.215  1.00  0.00     0.008 A 
ATOM     44  C   UNL     1      57.189  89.994  67.828  1.00  0.00     0.046 A 
ATOM     45  C   UNL     1      59.493  89.363  68.190  1.00  0.00     0.046 A 
ATOM     46  C   UNL     1      58.540  90.108  67.496  1.00  0.00     0.115 A 
BRANCH  46  47
ATOM     47  O   UNL     1      58.926  90.945  66.496  1.00  0.00    -0.508 OA
ATOM     48  H   UNL     1      59.897  90.934  66.432  1.00  0.00     0.293 HD
ENDBRANCH  46  47
ENDBRANCH  40  41
ENDBRANCH  38  40
ENDBRANCH  37  38
ENDBRANCH   1  37
TORSDOF 10
ENDMDL
MODEL 10
REMARK VINA RESULT:    -5.899      1.906      3.975
REMARK INTER + INTRA:         -11.282
REMARK INTER:                 -10.915
REMARK INTRA:                  -0.367
REMARK UNBOUND:                -1.244
REMARK SMILES C=C(C)[C@]12C[C@@H](C)[C@@]34O[C@](Cc5ccccc5)(O[C@@H]1[C@@H]3C=C(COC(=O)Cc1ccc(O)cc1)C[C@]1(O)C(=O)C(C)=C[C@@H]41)O2
REMARK SMILES IDX 23 1 22 2 21 3 20 4 9 5 8 6 10 7 6 8 18 10 44 11 19 12 5 13
REMARK SMILES IDX 7 14 4 15 11 16 12 17 13 18 17 19 14 20 16 21 15 22 2 23
REMARK SMILES IDX 3 24 1 25 35 26 36 27 43 28 38 29 42 30 39 32 40 33 41 34
REMARK SMILES IDX 37 35 24 37 25 38 26 39 27 40 28 41 29 42 34 43 30 44 33 45
REMARK SMILES IDX 31 46 32 47
REMARK H PARENT 37 36 32 48
REMARK Flexibility Score: 90.00
ROOT
ATOM      1  C   UNL     1      61.351  89.632  78.530  1.00  0.00     0.264 C 
ENDROOT
BRANCH   1   2
ATOM      2  C   UNL     1      61.505  89.171  77.098  1.00  0.00    -0.033 C 
ATOM      3  C   UNL     1      62.570  88.417  76.759  1.00  0.00    -0.015 C 
BRANCH   3   4
ATOM      4  C   UNL     1      62.990  87.897  75.394  1.00  0.00     0.078 C 
ATOM      5  O   UNL     1      61.987  85.651  75.137  1.00  0.00    -0.319 OA
ATOM      6  C   UNL     1      61.975  87.006  74.588  1.00  0.00     0.095 CG0
ATOM      7  C   UNL     1      63.291  85.127  75.453  1.00  0.00     0.289 C 
ATOM      8  C   UNL     1      62.465  86.964  73.082  1.00  0.00     0.023 C 
ATOM      9  G   UNL     1      60.514  87.499  74.802  1.00  0.00     0.000 G0
ATOM     10  O   UNL     1      63.977  85.966  76.378  1.00  0.00    -0.320 OA
ATOM     11  O   UNL     1      64.135  85.046  74.306  1.00  0.00    -0.313 OA
ATOM     12  C   UNL     1      64.296  87.075  75.522  1.00  0.00     0.170 C 
ATOM     13  C   UNL     1      64.020  87.021  72.984  1.00  0.00     0.049 C 
ATOM     14  C   UNL     1      61.945  85.778  72.250  1.00  0.00     0.011 C 
ATOM     15  C   UNL     1      64.688  86.374  74.198  1.00  0.00     0.122 C 
BRANCH   7  16
ATOM     16  C   UNL     1      63.115  83.743  76.047  1.00  0.00     0.135 C 
BRANCH  16  17
ATOM     17  C   UNL     1      63.452  82.655  75.059  1.00  0.00    -0.040 A 
ATOM     18  C   UNL     1      64.668  81.980  75.152  1.00  0.00     0.004 A 
ATOM     19  C   UNL     1      62.545  82.324  74.052  1.00  0.00     0.004 A 
ATOM     20  C   UNL     1      64.979  80.972  74.238  1.00  0.00     0.000 A 
ATOM     21  C   UNL     1      62.856  81.317  73.138  1.00  0.00     0.000 A 
ATOM     22  C   UNL     1      64.073  80.642  73.231  1.00  0.00     0.000 A 
ENDBRANCH  16  17
ENDBRANCH   7  16
BRANCH  15  23
ATOM     23  C   UNL     1      66.169  86.255  74.043  1.00  0.00    -0.046 C 
ATOM     24  C   UNL     1      66.721  86.587  72.688  1.00  0.00     0.042 C 
ATOM     25  C   UNL     1      66.960  85.874  75.057  1.00  0.00     0.010 C 
ENDBRANCH  15  23
ENDBRANCH   3   4
BRANCH   2  26
ATOM     26  C   UNL     1      60.377  89.640  76.198  1.00  0.00     0.078 C 
BRANCH  26  27
ATOM     27  C   UNL     1      60.314  89.045  74.792  1.00  0.00     0.140 C 
ATOM     28  C   UNL     1      60.510  87.515  74.797  1.00  0.00     0.086 CG0
ATOM     29  C   UNL     1      58.946  89.196  74.160  1.00  0.00     0.190 C 
ATOM     30  C   UNL     1      59.419  87.020  73.888  1.00  0.00    -0.010 C 
ATOM     31  G   UNL     1      61.967  87.010  74.586  1.00  0.00     0.000 G0
ATOM     32  O   UNL     1      58.296  90.229  74.117  1.00  0.00    -0.291 OA
ATOM     33  C   UNL     1      58.509  87.933  73.536  1.00  0.00    -0.008 C 
ATOM     34  C   UNL     1      57.276  87.787  72.736  1.00  0.00     0.048 C 
BRANCH  27  35
ATOM     35  O   UNL     1      61.176  89.731  73.900  1.00  0.00    -0.381 OA
ATOM     36  H   UNL     1      61.935  90.069  74.405  1.00  0.00     0.212 HD
ENDBRANCH  27  35
ENDBRANCH  26  27
ENDBRANCH   2  26
ENDBRANCH   1   2
BRANCH   1  37
ATOM     37  O   UNL     1      62.422  89.127  79.299  1.00  0.00    -0.461 OA
BRANCH  37  38
ATOM     38  C   UNL     1      62.333  89.315  80.659  1.00  0.00     0.310 C 
ATOM     39  O   UNL     1      62.251  90.401  81.214  1.00  0.00    -0.252 OA
BRANCH  38  40
ATOM     40  C   UNL     1      62.354  87.975  81.355  1.00  0.00     0.158 C 
BRANCH  40  41
ATOM     41  C   UNL     1      63.646  87.227  81.151  1.00  0.00    -0.037 A 
ATOM     42  C   UNL     1      64.254  87.214  79.896  1.00  0.00     0.008 A 
ATOM     43  C   UNL     1      64.234  86.546  82.217  1.00  0.00     0.008 A 
ATOM     44  C   UNL     1      65.449  86.520  79.706  1.00  0.00     0.046 A 
ATOM     45  C   UNL     1      65.430  85.853  82.028  1.00  0.00     0.046 A 
ATOM     46  C   UNL     1      66.037  85.840  80.773  1.00  0.00     0.115 A 
BRANCH  46  47
ATOM     47  O   UNL     1      67.203  85.163  80.588  1.00  0.00    -0.508 OA
ATOM     48  H   UNL     1      67.086  84.525  79.862  1.00  0.00     0.293 HD
ENDBRANCH  46  47
ENDBRANCH  40  41
ENDBRANCH  38  40
ENDBRANCH  37  38
ENDBRANCH   1  37
TORSDOF 10
ENDMDL
