MODEL 1
REMARK VINA RESULT:    -6.390      0.000      0.000
REMARK INTER + INTRA:         -10.482
REMARK INTER:                  -9.938
REMARK INTRA:                  -0.544
REMARK UNBOUND:                -0.544
REMARK SMILES COc1cc(CNC(=O)CCCC/C=C/C(C)C)ccc1O
REMARK SMILES IDX 10 1 8 2 7 3 9 5 6 6 5 7 3 8 21 9 4 10 20 11 19 12 2 13 1 14
REMARK SMILES IDX 22 15 11 17 12 18 13 19 14 20 15 21 16 22 17 23 18 24
REMARK H PARENT 7 4 22 16
REMARK Flexibility Score: inf
ROOT
ATOM      1  C   UNL     1      97.475  83.125  84.540  1.00  0.00     0.100 C 
ENDROOT
BRANCH   1   2
ATOM      2  C   UNL     1      98.217  82.479  83.440  1.00  0.00     0.220 C 
ATOM      3  N   UNL     1      98.892  83.232  82.526  1.00  0.00    -0.352 N 
ATOM      4  H   UNL     1      98.816  84.231  82.657  1.00  0.00     0.163 HD
ATOM      5  O   UNL     1      98.226  81.226  83.388  1.00  0.00    -0.275 OA
BRANCH   3   6
ATOM      6  C   UNL     1      99.664  82.704  81.447  1.00  0.00     0.151 C 
BRANCH   6   7
ATOM      7  C   UNL     1      99.032  82.995  80.131  1.00  0.00    -0.025 A 
ATOM      8  C   UNL     1      99.167  83.057  77.673  1.00  0.00     0.160 A 
ATOM      9  C   UNL     1      97.838  83.524  77.611  1.00  0.00     0.157 A 
ATOM     10  C   UNL     1      99.752  82.799  78.930  1.00  0.00     0.056 A 
ATOM     11  C   UNL     1      97.114  83.743  78.800  1.00  0.00     0.050 A 
ATOM     12  C   UNL     1      97.703  83.471  80.051  1.00  0.00     0.009 A 
BRANCH   8  13
ATOM     13  O   UNL     1      99.897  82.906  76.521  1.00  0.00    -0.493 OA
ATOM     14  C   UNL     1     100.725  84.038  76.198  1.00  0.00     0.278 C 
ENDBRANCH   8  13
BRANCH   9  15
ATOM     15  O   UNL     1      97.241  83.770  76.416  1.00  0.00    -0.504 OA
ATOM     16  H   UNL     1      96.381  84.170  76.564  1.00  0.00     0.293 HD
ENDBRANCH   9  15
ENDBRANCH   6   7
ENDBRANCH   3   6
ENDBRANCH   1   2
BRANCH   1  17
ATOM     17  C   UNL     1      96.700  82.087  85.395  1.00  0.00     0.010 C 
BRANCH  17  18
ATOM     18  C   UNL     1      95.479  82.703  86.135  1.00  0.00     0.005 C 
BRANCH  18  19
ATOM     19  C   UNL     1      94.714  81.654  86.988  1.00  0.00     0.027 C 
BRANCH  19  20
ATOM     20  C   UNL     1      93.329  81.512  86.567  1.00  0.00    -0.031 C 
ATOM     21  C   UNL     1      92.588  80.407  86.766  1.00  0.00    -0.028 C 
BRANCH  21  22
ATOM     22  C   UNL     1      91.189  80.293  86.352  1.00  0.00     0.005 C 
ATOM     23  C   UNL     1      90.520  81.681  86.149  1.00  0.00     0.012 C 
ATOM     24  C   UNL     1      91.079  79.433  85.066  1.00  0.00     0.012 C 
ENDBRANCH  21  22
ENDBRANCH  19  20
ENDBRANCH  18  19
ENDBRANCH  17  18
ENDBRANCH   1  17
TORSDOF 10
ENDMDL
MODEL 2
REMARK VINA RESULT:    -6.141      4.572      9.608
REMARK INTER + INTRA:         -10.096
REMARK INTER:                  -9.538
REMARK INTRA:                  -0.557
REMARK UNBOUND:                -0.544
REMARK SMILES COc1cc(CNC(=O)CCCC/C=C/C(C)C)ccc1O
REMARK SMILES IDX 10 1 8 2 7 3 9 5 6 6 5 7 3 8 21 9 4 10 20 11 19 12 2 13 1 14
REMARK SMILES IDX 22 15 11 17 12 18 13 19 14 20 15 21 16 22 17 23 18 24
REMARK H PARENT 7 4 22 16
REMARK Flexibility Score: inf
ROOT
ATOM      1  C   UNL     1      95.581  85.537  86.383  1.00  0.00     0.100 C 
ENDROOT
BRANCH   1   2
ATOM      2  C   UNL     1      94.772  84.779  87.357  1.00  0.00     0.220 C 
ATOM      3  N   UNL     1      93.453  84.537  87.120  1.00  0.00    -0.352 N 
ATOM      4  H   UNL     1      93.094  84.931  86.262  1.00  0.00     0.163 HD
ATOM      5  O   UNL     1      95.340  84.349  88.390  1.00  0.00    -0.275 OA
BRANCH   3   6
ATOM      6  C   UNL     1      92.594  83.789  87.982  1.00  0.00     0.151 C 
BRANCH   6   7
ATOM      7  C   UNL     1      91.895  82.700  87.245  1.00  0.00    -0.025 A 
ATOM      8  C   UNL     1      89.804  81.611  86.535  1.00  0.00     0.160 A 
ATOM      9  C   UNL     1      90.547  80.641  85.831  1.00  0.00     0.157 A 
ATOM     10  C   UNL     1      90.484  82.628  87.237  1.00  0.00     0.056 A 
ATOM     11  C   UNL     1      91.955  80.688  85.846  1.00  0.00     0.050 A 
ATOM     12  C   UNL     1      92.625  81.715  86.540  1.00  0.00     0.009 A 
BRANCH   8  13
ATOM     13  O   UNL     1      88.435  81.532  86.577  1.00  0.00    -0.493 OA
ATOM     14  C   UNL     1      87.771  82.301  85.558  1.00  0.00     0.278 C 
ENDBRANCH   8  13
BRANCH   9  15
ATOM     15  O   UNL     1      89.924  79.656  85.134  1.00  0.00    -0.504 OA
ATOM     16  H   UNL     1      89.481  80.034  84.371  1.00  0.00     0.293 HD
ENDBRANCH   9  15
ENDBRANCH   6   7
ENDBRANCH   3   6
ENDBRANCH   1   2
BRANCH   1  17
ATOM     17  C   UNL     1      96.780  84.701  85.860  1.00  0.00     0.010 C 
BRANCH  17  18
ATOM     18  C   UNL     1      96.566  84.176  84.413  1.00  0.00     0.005 C 
BRANCH  18  19
ATOM     19  C   UNL     1      97.738  83.279  83.930  1.00  0.00     0.027 C 
BRANCH  19  20
ATOM     20  C   UNL     1      98.119  83.569  82.556  1.00  0.00    -0.031 C 
ATOM     21  C   UNL     1      98.160  82.651  81.573  1.00  0.00    -0.028 C 
BRANCH  21  22
ATOM     22  C   UNL     1      98.527  82.968  80.194  1.00  0.00     0.005 C 
ATOM     23  C   UNL     1      99.203  81.769  79.473  1.00  0.00     0.012 C 
ATOM     24  C   UNL     1      97.282  83.456  79.407  1.00  0.00     0.012 C 
ENDBRANCH  21  22
ENDBRANCH  19  20
ENDBRANCH  18  19
ENDBRANCH  17  18
ENDBRANCH   1  17
TORSDOF 10
ENDMDL
MODEL 3
REMARK VINA RESULT:    -6.029      4.056      9.528
REMARK INTER + INTRA:          -9.921
REMARK INTER:                  -9.227
REMARK INTRA:                  -0.694
REMARK UNBOUND:                -0.544
REMARK SMILES COc1cc(CNC(=O)CCCC/C=C/C(C)C)ccc1O
REMARK SMILES IDX 10 1 8 2 7 3 9 5 6 6 5 7 3 8 21 9 4 10 20 11 19 12 2 13 1 14
REMARK SMILES IDX 22 15 11 17 12 18 13 19 14 20 15 21 16 22 17 23 18 24
REMARK H PARENT 7 4 22 16
REMARK Flexibility Score: inf
ROOT
ATOM      1  C   UNL     1      97.208  84.342  86.175  1.00  0.00     0.100 C 
ENDROOT
BRANCH   1   2
ATOM      2  C   UNL     1      96.008  85.069  86.631  1.00  0.00     0.220 C 
ATOM      3  N   UNL     1      95.150  84.496  87.522  1.00  0.00    -0.352 N 
ATOM      4  H   UNL     1      95.393  83.557  87.806  1.00  0.00     0.163 HD
ATOM      5  O   UNL     1      95.817  86.230  86.196  1.00  0.00    -0.275 OA
BRANCH   3   6
ATOM      6  C   UNL     1      93.981  85.125  88.048  1.00  0.00     0.151 C 
BRANCH   6   7
ATOM      7  C   UNL     1      92.805  84.214  88.010  1.00  0.00    -0.025 A 
ATOM      8  C   UNL     1      91.656  82.260  87.048  1.00  0.00     0.160 A 
ATOM      9  C   UNL     1      90.579  82.455  87.937  1.00  0.00     0.157 A 
ATOM     10  C   UNL     1      92.757  83.142  87.091  1.00  0.00     0.056 A 
ATOM     11  C   UNL     1      90.604  83.531  88.846  1.00  0.00     0.050 A 
ATOM     12  C   UNL     1      91.713  84.399  88.890  1.00  0.00     0.009 A 
BRANCH   8  13
ATOM     13  O   UNL     1      91.607  81.254  86.118  1.00  0.00    -0.493 OA
ATOM     14  C   UNL     1      92.329  80.068  86.497  1.00  0.00     0.278 C 
ENDBRANCH   8  13
BRANCH   9  15
ATOM     15  O   UNL     1      89.511  81.616  87.931  1.00  0.00    -0.504 OA
ATOM     16  H   UNL     1      89.622  80.949  88.612  1.00  0.00     0.293 HD
ENDBRANCH   9  15
ENDBRANCH   6   7
ENDBRANCH   3   6
ENDBRANCH   1   2
BRANCH   1  17
ATOM     17  C   UNL     1      97.272  84.257  84.626  1.00  0.00     0.010 C 
BRANCH  17  18
ATOM     18  C   UNL     1      97.394  82.798  84.105  1.00  0.00     0.005 C 
BRANCH  18  19
ATOM     19  C   UNL     1      98.815  82.479  83.568  1.00  0.00     0.027 C 
BRANCH  19  20
ATOM     20  C   UNL     1      98.827  82.293  82.125  1.00  0.00    -0.031 C 
ATOM     21  C   UNL     1      98.502  83.250  81.237  1.00  0.00    -0.028 C 
BRANCH  21  22
ATOM     22  C   UNL     1      98.539  83.047  79.789  1.00  0.00     0.005 C 
ATOM     23  C   UNL     1      98.920  81.590  79.408  1.00  0.00     0.012 C 
ATOM     24  C   UNL     1      97.181  83.447  79.156  1.00  0.00     0.012 C 
ENDBRANCH  21  22
ENDBRANCH  19  20
ENDBRANCH  18  19
ENDBRANCH  17  18
ENDBRANCH   1  17
TORSDOF 10
ENDMDL
MODEL 4
REMARK VINA RESULT:    -6.009     13.179     15.095
REMARK INTER + INTRA:          -9.890
REMARK INTER:                  -8.942
REMARK INTRA:                  -0.948
REMARK UNBOUND:                -0.544
REMARK SMILES COc1cc(CNC(=O)CCCC/C=C/C(C)C)ccc1O
REMARK SMILES IDX 10 1 8 2 7 3 9 5 6 6 5 7 3 8 21 9 4 10 20 11 19 12 2 13 1 14
REMARK SMILES IDX 22 15 11 17 12 18 13 19 14 20 15 21 16 22 17 23 18 24
REMARK H PARENT 7 4 22 16
REMARK Flexibility Score: inf
ROOT
ATOM      1  C   UNL     1      94.385  93.704  79.795  1.00  0.00     0.100 C 
ENDROOT
BRANCH   1   2
ATOM      2  C   UNL     1      95.015  93.774  81.127  1.00  0.00     0.220 C 
ATOM      3  N   UNL     1      95.953  94.724  81.399  1.00  0.00    -0.352 N 
ATOM      4  H   UNL     1      96.181  95.332  80.625  1.00  0.00     0.163 HD
ATOM      5  O   UNL     1      94.646  92.952  82.001  1.00  0.00    -0.275 OA
BRANCH   3   6
ATOM      6  C   UNL     1      96.598  94.895  82.662  1.00  0.00     0.151 C 
BRANCH   6   7
ATOM      7  C   UNL     1      97.492  96.085  82.661  1.00  0.00    -0.025 A 
ATOM      8  C   UNL     1      98.728  97.819  83.897  1.00  0.00     0.160 A 
ATOM      9  C   UNL     1      99.212  98.343  82.680  1.00  0.00     0.157 A 
ATOM     10  C   UNL     1      97.872  96.698  83.876  1.00  0.00     0.056 A 
ATOM     11  C   UNL     1      98.826  97.754  81.460  1.00  0.00     0.050 A 
ATOM     12  C   UNL     1      97.980  96.628  81.450  1.00  0.00     0.009 A 
BRANCH   8  13
ATOM     13  O   UNL     1      99.048  98.429  85.084  1.00  0.00    -0.493 OA
ATOM     14  C   UNL     1      98.308  97.935  86.215  1.00  0.00     0.278 C 
ENDBRANCH   8  13
BRANCH   9  15
ATOM     15  O   UNL     1     100.048  99.413  82.666  1.00  0.00    -0.504 OA
ATOM     16  H   UNL     1     100.958  99.108  82.647  1.00  0.00     0.293 HD
ENDBRANCH   9  15
ENDBRANCH   6   7
ENDBRANCH   3   6
ENDBRANCH   1   2
BRANCH   1  17
ATOM     17  C   UNL     1      95.249  94.408  78.715  1.00  0.00     0.010 C 
BRANCH  17  18
ATOM     18  C   UNL     1      94.529  95.620  78.059  1.00  0.00     0.005 C 
BRANCH  18  19
ATOM     19  C   UNL     1      93.880  95.256  76.697  1.00  0.00     0.027 C 
BRANCH  19  20
ATOM     20  C   UNL     1      92.524  94.752  76.854  1.00  0.00    -0.031 C 
ATOM     21  C   UNL     1      91.623  95.262  77.712  1.00  0.00    -0.028 C 
BRANCH  21  22
ATOM     22  C   UNL     1      90.258  94.752  77.839  1.00  0.00     0.005 C 
ATOM     23  C   UNL     1      89.548  94.620  76.464  1.00  0.00     0.012 C 
ATOM     24  C   UNL     1      90.260  93.397  78.593  1.00  0.00     0.012 C 
ENDBRANCH  21  22
ENDBRANCH  19  20
ENDBRANCH  18  19
ENDBRANCH  17  18
ENDBRANCH   1  17
TORSDOF 10
ENDMDL
MODEL 5
REMARK VINA RESULT:    -6.006     13.800     16.209
REMARK INTER + INTRA:          -9.885
REMARK INTER:                  -8.939
REMARK INTRA:                  -0.946
REMARK UNBOUND:                -0.544
REMARK SMILES COc1cc(CNC(=O)CCCC/C=C/C(C)C)ccc1O
REMARK SMILES IDX 10 1 8 2 7 3 9 5 6 6 5 7 3 8 21 9 4 10 20 11 19 12 2 13 1 14
REMARK SMILES IDX 22 15 11 17 12 18 13 19 14 20 15 21 16 22 17 23 18 24
REMARK H PARENT 7 4 22 16
REMARK Flexibility Score: inf
ROOT
ATOM      1  C   UNL     1      94.444  93.663  79.790  1.00  0.00     0.100 C 
ENDROOT
BRANCH   1   2
ATOM      2  C   UNL     1      95.187  93.928  81.037  1.00  0.00     0.220 C 
ATOM      3  N   UNL     1      96.148  94.893  81.078  1.00  0.00    -0.352 N 
ATOM      4  H   UNL     1      96.310  95.371  80.202  1.00  0.00     0.163 HD
ATOM      5  O   UNL     1      94.893  93.257  82.056  1.00  0.00    -0.275 OA
BRANCH   3   6
ATOM      6  C   UNL     1      96.899  95.248  82.239  1.00  0.00     0.151 C 
BRANCH   6   7
ATOM      7  C   UNL     1      96.484  96.573  82.776  1.00  0.00    -0.025 A 
ATOM      8  C   UNL     1      96.612  98.293  84.532  1.00  0.00     0.160 A 
ATOM      9  C   UNL     1      95.717  99.104  83.804  1.00  0.00     0.157 A 
ATOM     10  C   UNL     1      96.985  97.036  84.013  1.00  0.00     0.056 A 
ATOM     11  C   UNL     1      95.194  98.648  82.578  1.00  0.00     0.050 A 
ATOM     12  C   UNL     1      95.581  97.396  82.062  1.00  0.00     0.009 A 
BRANCH   8  13
ATOM     13  O   UNL     1      97.073  98.705  85.757  1.00  0.00    -0.493 OA
ATOM     14  C   UNL     1      96.354  98.148  86.872  1.00  0.00     0.278 C 
ENDBRANCH   8  13
BRANCH   9  15
ATOM     15  O   UNL     1      95.349 100.326  84.269  1.00  0.00    -0.504 OA
ATOM     16  H   UNL     1      95.064 100.876  83.536  1.00  0.00     0.293 HD
ENDBRANCH   9  15
ENDBRANCH   6   7
ENDBRANCH   3   6
ENDBRANCH   1   2
BRANCH   1  17
ATOM     17  C   UNL     1      93.481  94.829  79.439  1.00  0.00     0.010 C 
BRANCH  17  18
ATOM     18  C   UNL     1      92.160  94.345  78.779  1.00  0.00     0.005 C 
BRANCH  18  19
ATOM     19  C   UNL     1      91.999  94.867  77.326  1.00  0.00     0.027 C 
BRANCH  19  20
ATOM     20  C   UNL     1      92.814  96.045  77.074  1.00  0.00    -0.031 C 
ATOM     21  C   UNL     1      93.791  96.106  76.150  1.00  0.00    -0.028 C 
BRANCH  21  22
ATOM     22  C   UNL     1      94.586  97.308  75.900  1.00  0.00     0.005 C 
ATOM     23  C   UNL     1      95.471  97.692  77.118  1.00  0.00     0.012 C 
ATOM     24  C   UNL     1      95.449  97.125  74.625  1.00  0.00     0.012 C 
ENDBRANCH  21  22
ENDBRANCH  19  20
ENDBRANCH  18  19
ENDBRANCH  17  18
ENDBRANCH   1  17
TORSDOF 10
ENDMDL
MODEL 6
REMARK VINA RESULT:    -5.999     13.009     14.794
REMARK INTER + INTRA:          -9.875
REMARK INTER:                  -8.892
REMARK INTRA:                  -0.983
REMARK UNBOUND:                -0.544
REMARK SMILES COc1cc(CNC(=O)CCCC/C=C/C(C)C)ccc1O
REMARK SMILES IDX 10 1 8 2 7 3 9 5 6 6 5 7 3 8 21 9 4 10 20 11 19 12 2 13 1 14
REMARK SMILES IDX 22 15 11 17 12 18 13 19 14 20 15 21 16 22 17 23 18 24
REMARK H PARENT 7 4 22 16
REMARK Flexibility Score: inf
ROOT
ATOM      1  C   UNL     1      94.421  93.706  79.859  1.00  0.00     0.100 C 
ENDROOT
BRANCH   1   2
ATOM      2  C   UNL     1      95.084  93.781  81.176  1.00  0.00     0.220 C 
ATOM      3  N   UNL     1      96.014  94.745  81.428  1.00  0.00    -0.352 N 
ATOM      4  H   UNL     1      96.212  95.360  80.650  1.00  0.00     0.163 HD
ATOM      5  O   UNL     1      94.751  92.950  82.055  1.00  0.00    -0.275 OA
BRANCH   3   6
ATOM      6  C   UNL     1      96.687  94.922  82.674  1.00  0.00     0.151 C 
BRANCH   6   7
ATOM      7  C   UNL     1      97.577  96.115  82.650  1.00  0.00    -0.025 A 
ATOM      8  C   UNL     1      99.047  97.650  81.406  1.00  0.00     0.160 A 
ATOM      9  C   UNL     1      99.261  98.399  82.581  1.00  0.00     0.157 A 
ATOM     10  C   UNL     1      98.210  96.515  81.452  1.00  0.00     0.056 A 
ATOM     11  C   UNL     1      98.652  98.001  83.788  1.00  0.00     0.050 A 
ATOM     12  C   UNL     1      97.808  96.874  83.821  1.00  0.00     0.009 A 
BRANCH   8  13
ATOM     13  O   UNL     1      99.689  97.994  80.244  1.00  0.00    -0.493 OA
ATOM     14  C   UNL     1     100.884  97.233  79.986  1.00  0.00     0.278 C 
ENDBRANCH   8  13
BRANCH   9  15
ATOM     15  O   UNL     1     100.050  99.504  82.569  1.00  0.00    -0.504 OA
ATOM     16  H   UNL     1      99.508 100.284  82.429  1.00  0.00     0.293 HD
ENDBRANCH   9  15
ENDBRANCH   6   7
ENDBRANCH   3   6
ENDBRANCH   1   2
BRANCH   1  17
ATOM     17  C   UNL     1      95.279  94.367  78.748  1.00  0.00     0.010 C 
BRANCH  17  18
ATOM     18  C   UNL     1      94.581  95.592  78.092  1.00  0.00     0.005 C 
BRANCH  18  19
ATOM     19  C   UNL     1      93.930  95.240  76.727  1.00  0.00     0.027 C 
BRANCH  19  20
ATOM     20  C   UNL     1      92.570  94.745  76.881  1.00  0.00    -0.031 C 
ATOM     21  C   UNL     1      91.660  95.280  77.715  1.00  0.00    -0.028 C 
BRANCH  21  22
ATOM     22  C   UNL     1      90.292  94.778  77.839  1.00  0.00     0.005 C 
ATOM     23  C   UNL     1      89.592  94.627  76.460  1.00  0.00     0.012 C 
ATOM     24  C   UNL     1      90.282  93.436  78.615  1.00  0.00     0.012 C 
ENDBRANCH  21  22
ENDBRANCH  19  20
ENDBRANCH  18  19
ENDBRANCH  17  18
ENDBRANCH   1  17
TORSDOF 10
ENDMDL
MODEL 7
REMARK VINA RESULT:    -5.883      3.176      9.917
REMARK INTER + INTRA:          -9.694
REMARK INTER:                  -9.288
REMARK INTRA:                  -0.406
REMARK UNBOUND:                -0.544
REMARK SMILES COc1cc(CNC(=O)CCCC/C=C/C(C)C)ccc1O
REMARK SMILES IDX 10 1 8 2 7 3 9 5 6 6 5 7 3 8 21 9 4 10 20 11 19 12 2 13 1 14
REMARK SMILES IDX 22 15 11 17 12 18 13 19 14 20 15 21 16 22 17 23 18 24
REMARK H PARENT 7 4 22 16
REMARK Flexibility Score: inf
ROOT
ATOM      1  C   UNL     1      97.747  83.299  83.860  1.00  0.00     0.100 C 
ENDROOT
BRANCH   1   2
ATOM      2  C   UNL     1      97.127  82.342  84.797  1.00  0.00     0.220 C 
ATOM      3  N   UNL     1      96.224  82.768  85.724  1.00  0.00    -0.352 N 
ATOM      4  H   UNL     1      96.048  83.763  85.722  1.00  0.00     0.163 HD
ATOM      5  O   UNL     1      97.439  81.131  84.697  1.00  0.00    -0.275 OA
BRANCH   3   6
ATOM      6  C   UNL     1      95.547  81.920  86.651  1.00  0.00     0.151 C 
BRANCH   6   7
ATOM      7  C   UNL     1      94.252  82.511  87.088  1.00  0.00    -0.025 A 
ATOM      8  C   UNL     1      91.790  82.507  87.051  1.00  0.00     0.160 A 
ATOM      9  C   UNL     1      91.775  83.614  87.925  1.00  0.00     0.157 A 
ATOM     10  C   UNL     1      93.027  81.968  86.639  1.00  0.00     0.056 A 
ATOM     11  C   UNL     1      92.988  84.178  88.365  1.00  0.00     0.050 A 
ATOM     12  C   UNL     1      94.218  83.626  87.958  1.00  0.00     0.009 A 
BRANCH   8  13
ATOM     13  O   UNL     1      90.613  81.995  86.568  1.00  0.00    -0.493 OA
ATOM     14  C   UNL     1      90.061  80.934  87.369  1.00  0.00     0.278 C 
ENDBRANCH   8  13
BRANCH   9  15
ATOM     15  O   UNL     1      90.601  84.148  88.351  1.00  0.00    -0.504 OA
ATOM     16  H   UNL     1      89.910  83.483  88.305  1.00  0.00     0.293 HD
ENDBRANCH   9  15
ENDBRANCH   6   7
ENDBRANCH   3   6
ENDBRANCH   1   2
BRANCH   1  17
ATOM     17  C   UNL     1      98.552  82.574  82.749  1.00  0.00     0.010 C 
BRANCH  17  18
ATOM     18  C   UNL     1      98.395  83.241  81.354  1.00  0.00     0.005 C 
BRANCH  18  19
ATOM     19  C   UNL     1      99.046  82.403  80.221  1.00  0.00     0.027 C 
BRANCH  19  20
ATOM     20  C   UNL     1      98.536  82.768  78.908  1.00  0.00    -0.031 C 
ATOM     21  C   UNL     1      99.286  83.302  77.927  1.00  0.00    -0.028 C 
BRANCH  21  22
ATOM     22  C   UNL     1      98.757  83.643  76.607  1.00  0.00     0.005 C 
ATOM     23  C   UNL     1      97.618  84.697  76.683  1.00  0.00     0.012 C 
ATOM     24  C   UNL     1      99.900  84.130  75.680  1.00  0.00     0.012 C 
ENDBRANCH  21  22
ENDBRANCH  19  20
ENDBRANCH  18  19
ENDBRANCH  17  18
ENDBRANCH   1  17
TORSDOF 10
ENDMDL
MODEL 8
REMARK VINA RESULT:    -5.881      7.890     10.618
REMARK INTER + INTRA:          -9.691
REMARK INTER:                  -8.871
REMARK INTRA:                  -0.820
REMARK UNBOUND:                -0.544
REMARK SMILES COc1cc(CNC(=O)CCCC/C=C/C(C)C)ccc1O
REMARK SMILES IDX 10 1 8 2 7 3 9 5 6 6 5 7 3 8 21 9 4 10 20 11 19 12 2 13 1 14
REMARK SMILES IDX 22 15 11 17 12 18 13 19 14 20 15 21 16 22 17 23 18 24
REMARK H PARENT 7 4 22 16
REMARK Flexibility Score: inf
ROOT
ATOM      1  C   UNL     1      94.136  86.526  89.836  1.00  0.00     0.100 C 
ENDROOT
BRANCH   1   2
ATOM      2  C   UNL     1      94.318  85.191  89.234  1.00  0.00     0.220 C 
ATOM      3  N   UNL     1      93.556  84.801  88.174  1.00  0.00    -0.352 N 
ATOM      4  H   UNL     1      92.868  85.477  87.871  1.00  0.00     0.163 HD
ATOM      5  O   UNL     1      95.205  84.442  89.710  1.00  0.00    -0.275 OA
BRANCH   3   6
ATOM      6  C   UNL     1      93.675  83.546  87.501  1.00  0.00     0.151 C 
BRANCH   6   7
ATOM      7  C   UNL     1      92.366  82.844  87.419  1.00  0.00    -0.025 A 
ATOM      8  C   UNL     1      90.938  81.115  86.401  1.00  0.00     0.160 A 
ATOM      9  C   UNL     1      89.882  81.480  87.262  1.00  0.00     0.157 A 
ATOM     10  C   UNL     1      92.168  81.801  86.486  1.00  0.00     0.056 A 
ATOM     11  C   UNL     1      90.059  82.530  88.184  1.00  0.00     0.050 A 
ATOM     12  C   UNL     1      91.294  83.201  88.269  1.00  0.00     0.009 A 
BRANCH   8  13
ATOM     13  O   UNL     1      90.750  80.138  85.457  1.00  0.00    -0.493 OA
ATOM     14  C   UNL     1      91.476  78.922  85.718  1.00  0.00     0.278 C 
ENDBRANCH   8  13
BRANCH   9  15
ATOM     15  O   UNL     1      88.690  80.831  87.215  1.00  0.00    -0.504 OA
ATOM     16  H   UNL     1      88.741  80.028  87.739  1.00  0.00     0.293 HD
ENDBRANCH   9  15
ENDBRANCH   6   7
ENDBRANCH   3   6
ENDBRANCH   1   2
BRANCH   1  17
ATOM     17  C   UNL     1      95.484  87.284  89.964  1.00  0.00     0.010 C 
BRANCH  17  18
ATOM     18  C   UNL     1      95.969  87.889  88.617  1.00  0.00     0.005 C 
BRANCH  18  19
ATOM     19  C   UNL     1      96.327  89.395  88.740  1.00  0.00     0.027 C 
BRANCH  19  20
ATOM     20  C   UNL     1      95.601  90.043  89.821  1.00  0.00    -0.031 C 
ATOM     21  C   UNL     1      94.571  90.890  89.639  1.00  0.00    -0.028 C 
BRANCH  21  22
ATOM     22  C   UNL     1      93.843  91.516  90.743  1.00  0.00     0.005 C 
ATOM     23  C   UNL     1      93.700  93.052  90.559  1.00  0.00     0.012 C 
ATOM     24  C   UNL     1      92.454  90.848  90.915  1.00  0.00     0.012 C 
ENDBRANCH  21  22
ENDBRANCH  19  20
ENDBRANCH  18  19
ENDBRANCH  17  18
ENDBRANCH   1  17
TORSDOF 10
ENDMDL
MODEL 9
REMARK VINA RESULT:    -5.799     13.580     16.095
REMARK INTER + INTRA:          -9.563
REMARK INTER:                  -8.134
REMARK INTRA:                  -1.428
REMARK UNBOUND:                -0.544
REMARK SMILES COc1cc(CNC(=O)CCCC/C=C/C(C)C)ccc1O
REMARK SMILES IDX 10 1 8 2 7 3 9 5 6 6 5 7 3 8 21 9 4 10 20 11 19 12 2 13 1 14
REMARK SMILES IDX 22 15 11 17 12 18 13 19 14 20 15 21 16 22 17 23 18 24
REMARK H PARENT 7 4 22 16
REMARK Flexibility Score: inf
ROOT
ATOM      1  C   UNL     1      96.179  99.908  76.706  1.00  0.00     0.100 C 
ENDROOT
BRANCH   1   2
ATOM      2  C   UNL     1      95.169  99.003  76.125  1.00  0.00     0.220 C 
ATOM      3  N   UNL     1      95.477  97.702  75.861  1.00  0.00    -0.352 N 
ATOM      4  H   UNL     1      96.430  97.438  76.070  1.00  0.00     0.163 HD
ATOM      5  O   UNL     1      94.021  99.459  75.906  1.00  0.00    -0.275 OA
BRANCH   3   6
ATOM      6  C   UNL     1      94.565  96.739  75.331  1.00  0.00     0.151 C 
BRANCH   6   7
ATOM      7  C   UNL     1      93.916  95.949  76.412  1.00  0.00    -0.025 A 
ATOM      8  C   UNL     1      91.874  95.166  77.544  1.00  0.00     0.160 A 
ATOM      9  C   UNL     1      92.660  94.430  78.455  1.00  0.00     0.157 A 
ATOM     10  C   UNL     1      92.508  95.919  76.534  1.00  0.00     0.056 A 
ATOM     11  C   UNL     1      94.065  94.466  78.358  1.00  0.00     0.050 A 
ATOM     12  C   UNL     1      94.689  95.211  77.338  1.00  0.00     0.009 A 
BRANCH   8  13
ATOM     13  O   UNL     1      90.509  95.188  77.675  1.00  0.00    -0.493 OA
ATOM     14  C   UNL     1      89.811  94.424  76.674  1.00  0.00     0.278 C 
ENDBRANCH   8  13
BRANCH   9  15
ATOM     15  O   UNL     1      92.081  93.685  79.431  1.00  0.00    -0.504 OA
ATOM     16  H   UNL     1      91.655  92.919  79.039  1.00  0.00     0.293 HD
ENDBRANCH   9  15
ENDBRANCH   6   7
ENDBRANCH   3   6
ENDBRANCH   1   2
BRANCH   1  17
ATOM     17  C   UNL     1      96.033 100.016  78.247  1.00  0.00     0.010 C 
BRANCH  17  18
ATOM     18  C   UNL     1      96.106  98.636  78.960  1.00  0.00     0.005 C 
BRANCH  18  19
ATOM     19  C   UNL     1      97.566  98.132  79.122  1.00  0.00     0.027 C 
BRANCH  19  20
ATOM     20  C   UNL     1      97.683  97.120  80.161  1.00  0.00    -0.031 C 
ATOM     21  C   UNL     1      96.744  96.193  80.423  1.00  0.00    -0.028 C 
BRANCH  21  22
ATOM     22  C   UNL     1      96.892  95.173  81.461  1.00  0.00     0.005 C 
ATOM     23  C   UNL     1      97.406  95.766  82.802  1.00  0.00     0.012 C 
ATOM     24  C   UNL     1      95.552  94.420  81.667  1.00  0.00     0.012 C 
ENDBRANCH  21  22
ENDBRANCH  19  20
ENDBRANCH  18  19
ENDBRANCH  17  18
ENDBRANCH   1  17
TORSDOF 10
ENDMDL
MODEL 10
REMARK VINA RESULT:    -5.792      4.163      5.905
REMARK INTER + INTRA:          -9.552
REMARK INTER:                  -8.046
REMARK INTRA:                  -1.506
REMARK UNBOUND:                -0.544
REMARK SMILES COc1cc(CNC(=O)CCCC/C=C/C(C)C)ccc1O
REMARK SMILES IDX 10 1 8 2 7 3 9 5 6 6 5 7 3 8 21 9 4 10 20 11 19 12 2 13 1 14
REMARK SMILES IDX 22 15 11 17 12 18 13 19 14 20 15 21 16 22 17 23 18 24
REMARK H PARENT 7 4 22 16
REMARK Flexibility Score: inf
ROOT
ATOM      1  C   UNL     1     102.453  79.185  79.591  1.00  0.00     0.100 C 
ENDROOT
BRANCH   1   2
ATOM      2  C   UNL     1     100.993  79.383  79.677  1.00  0.00     0.220 C 
ATOM      3  N   UNL     1     100.331  80.078  78.710  1.00  0.00    -0.352 N 
ATOM      4  H   UNL     1     100.916  80.448  77.974  1.00  0.00     0.163 HD
ATOM      5  O   UNL     1     100.383  78.876  80.650  1.00  0.00    -0.275 OA
BRANCH   3   6
ATOM      6  C   UNL     1      98.920  80.297  78.684  1.00  0.00     0.151 C 
BRANCH   6   7
ATOM      7  C   UNL     1      98.591  81.698  78.302  1.00  0.00    -0.025 A 
ATOM      8  C   UNL     1      98.885  83.614  76.785  1.00  0.00     0.160 A 
ATOM      9  C   UNL     1      97.962  84.360  77.547  1.00  0.00     0.157 A 
ATOM     10  C   UNL     1      99.192  82.293  77.170  1.00  0.00     0.056 A 
ATOM     11  C   UNL     1      97.370  83.787  78.690  1.00  0.00     0.050 A 
ATOM     12  C   UNL     1      97.674  82.462  79.060  1.00  0.00     0.009 A 
BRANCH   8  13
ATOM     13  O   UNL     1      99.513  84.190  75.710  1.00  0.00    -0.493 OA
ATOM     14  C   UNL     1     100.912  83.868  75.607  1.00  0.00     0.278 C 
ENDBRANCH   8  13
BRANCH   9  15
ATOM     15  O   UNL     1      97.634  85.630  77.196  1.00  0.00    -0.504 OA
ATOM     16  H   UNL     1      98.399  86.200  77.303  1.00  0.00     0.293 HD
ENDBRANCH   9  15
ENDBRANCH   6   7
ENDBRANCH   3   6
ENDBRANCH   1   2
BRANCH   1  17
ATOM     17  C   UNL     1     103.216  80.116  80.571  1.00  0.00     0.010 C 
BRANCH  17  18
ATOM     18  C   UNL     1     102.587  81.535  80.671  1.00  0.00     0.005 C 
BRANCH  18  19
ATOM     19  C   UNL     1     102.334  81.966  82.141  1.00  0.00     0.027 C 
BRANCH  19  20
ATOM     20  C   UNL     1     100.973  81.677  82.569  1.00  0.00    -0.031 C 
ATOM     21  C   UNL     1      99.879  82.281  82.070  1.00  0.00    -0.028 C 
BRANCH  21  22
ATOM     22  C   UNL     1      98.519  81.961  82.501  1.00  0.00     0.005 C 
ATOM     23  C   UNL     1      98.481  80.767  83.494  1.00  0.00     0.012 C 
ATOM     24  C   UNL     1      97.843  83.214  83.116  1.00  0.00     0.012 C 
ENDBRANCH  21  22
ENDBRANCH  19  20
ENDBRANCH  18  19
ENDBRANCH  17  18
ENDBRANCH   1  17
TORSDOF 10
ENDMDL
