MODEL 1
REMARK VINA RESULT:    -6.241      0.000      0.000
REMARK INTER + INTRA:         -11.992
REMARK INTER:                 -10.437
REMARK INTRA:                  -1.556
REMARK UNBOUND:                -1.556
REMARK SMILES COc1cc(CNC(=O)CCCCCCCC(C)C)ccc1O
REMARK SMILES IDX 11 1 10 2 8 3 9 4 7 5 6 7 5 8 4 9 20 10 3 11 21 12 22 13
REMARK SMILES IDX 2 14 1 15 23 16 12 18 13 19 14 20 15 21 16 22 17 23 18 24
REMARK SMILES IDX 19 25
REMARK H PARENT 7 6 23 17
REMARK Flexibility Score: inf
ROOT
ATOM      1  C   UNL     1      94.077  97.261  74.226  1.00  0.00     0.010 C 
ENDROOT
BRANCH   1   2
ATOM      2  C   UNL     1      95.244  98.152  74.647  1.00  0.00     0.100 C 
BRANCH   2   3
ATOM      3  C   UNL     1      96.470  97.348  75.049  1.00  0.00     0.220 C 
ATOM      4  O   UNL     1      97.180  96.754  74.243  1.00  0.00    -0.275 OA
ATOM      5  N   UNL     1      96.666  97.370  76.422  1.00  0.00    -0.352 N 
ATOM      6  H   UNL     1      96.017  97.881  77.014  1.00  0.00     0.163 HD
BRANCH   5   7
ATOM      7  C   UNL     1      97.757  96.678  77.069  1.00  0.00     0.151 C 
BRANCH   7   8
ATOM      8  C   UNL     1      97.304  95.935  78.292  1.00  0.00    -0.025 A 
ATOM      9  C   UNL     1      98.244  95.321  79.111  1.00  0.00     0.056 A 
ATOM     10  C   UNL     1      95.949  95.869  78.592  1.00  0.00     0.009 A 
ATOM     11  C   UNL     1      97.823  94.631  80.247  1.00  0.00     0.160 A 
ATOM     12  C   UNL     1      95.528  95.177  79.729  1.00  0.00     0.050 A 
ATOM     13  C   UNL     1      96.464  94.558  80.557  1.00  0.00     0.157 A 
BRANCH  11  14
ATOM     14  O   UNL     1      98.747  94.029  81.048  1.00  0.00    -0.493 OA
ATOM     15  C   UNL     1      99.296  94.814  82.105  1.00  0.00     0.278 C 
ENDBRANCH  11  14
BRANCH  13  16
ATOM     16  O   UNL     1      96.041  93.887  81.664  1.00  0.00    -0.504 OA
ATOM     17  H   UNL     1      95.751  92.996  81.402  1.00  0.00     0.293 HD
ENDBRANCH  13  16
ENDBRANCH   7   8
ENDBRANCH   5   7
ENDBRANCH   2   3
ENDBRANCH   1   2
BRANCH   1  18
ATOM     18  C   UNL     1      93.690  96.222  75.281  1.00  0.00     0.001 C 
BRANCH  18  19
ATOM     19  C   UNL     1      94.048  94.770  74.947  1.00  0.00     0.000 C 
BRANCH  19  20
ATOM     20  C   UNL     1      93.900  93.821  76.139  1.00  0.00     0.000 C 
BRANCH  20  21
ATOM     21  C   UNL     1      93.014  94.380  77.258  1.00  0.00     0.000 C 
BRANCH  21  22
ATOM     22  C   UNL     1      92.148  93.314  77.937  1.00  0.00     0.003 C 
BRANCH  22  23
ATOM     23  C   UNL     1      90.671  93.353  77.499  1.00  0.00    -0.017 C 
ATOM     24  C   UNL     1      90.372  92.165  76.582  1.00  0.00     0.007 C 
ATOM     25  C   UNL     1      90.304  94.656  76.788  1.00  0.00     0.007 C 
ENDBRANCH  22  23
ENDBRANCH  21  22
ENDBRANCH  20  21
ENDBRANCH  19  20
ENDBRANCH  18  19
ENDBRANCH   1  18
TORSDOF 12
ENDMDL
MODEL 2
REMARK VINA RESULT:    -5.812     12.988     14.358
REMARK INTER + INTRA:         -11.274
REMARK INTER:                  -9.544
REMARK INTRA:                  -1.731
REMARK UNBOUND:                -1.556
REMARK SMILES COc1cc(CNC(=O)CCCCCCCC(C)C)ccc1O
REMARK SMILES IDX 11 1 10 2 8 3 9 4 7 5 6 7 5 8 4 9 20 10 3 11 21 12 22 13
REMARK SMILES IDX 2 14 1 15 23 16 12 18 13 19 14 20 15 21 16 22 17 23 18 24
REMARK SMILES IDX 19 25
REMARK H PARENT 7 6 23 17
REMARK Flexibility Score: inf
ROOT
ATOM      1  C   UNL     1      96.734  81.745  73.784  1.00  0.00     0.010 C 
ENDROOT
BRANCH   1   2
ATOM      2  C   UNL     1      96.809  83.227  74.144  1.00  0.00     0.100 C 
BRANCH   2   3
ATOM      3  C   UNL     1      96.233  83.518  75.521  1.00  0.00     0.220 C 
ATOM      4  O   UNL     1      95.554  84.510  75.771  1.00  0.00    -0.275 OA
ATOM      5  N   UNL     1      96.580  82.536  76.436  1.00  0.00    -0.352 N 
ATOM      6  H   UNL     1      97.157  81.754  76.139  1.00  0.00     0.163 HD
BRANCH   5   7
ATOM      7  C   UNL     1      96.168  82.575  77.820  1.00  0.00     0.151 C 
BRANCH   7   8
ATOM      8  C   UNL     1      97.115  81.822  78.709  1.00  0.00    -0.025 A 
ATOM      9  C   UNL     1      96.941  81.859  80.087  1.00  0.00     0.056 A 
ATOM     10  C   UNL     1      98.157  81.097  78.144  1.00  0.00     0.009 A 
ATOM     11  C   UNL     1      97.822  81.160  80.913  1.00  0.00     0.160 A 
ATOM     12  C   UNL     1      99.039  80.399  78.971  1.00  0.00     0.050 A 
ATOM     13  C   UNL     1      98.871  80.430  80.355  1.00  0.00     0.157 A 
BRANCH  11  14
ATOM     14  O   UNL     1      97.648  81.199  82.264  1.00  0.00    -0.493 OA
ATOM     15  C   UNL     1      97.088  82.392  82.811  1.00  0.00     0.278 C 
ENDBRANCH  11  14
BRANCH  13  16
ATOM     16  O   UNL     1      99.737  79.743  81.150  1.00  0.00    -0.504 OA
ATOM     17  H   UNL     1     100.609  80.174  81.115  1.00  0.00     0.293 HD
ENDBRANCH  13  16
ENDBRANCH   7   8
ENDBRANCH   5   7
ENDBRANCH   2   3
ENDBRANCH   1   2
BRANCH   1  18
ATOM     18  C   UNL     1      98.082  81.150  73.367  1.00  0.00     0.001 C 
BRANCH  18  19
ATOM     19  C   UNL     1      99.061  80.858  74.509  1.00  0.00     0.000 C 
BRANCH  19  20
ATOM     20  C   UNL     1      99.968  82.044  74.847  1.00  0.00     0.000 C 
BRANCH  20  21
ATOM     21  C   UNL     1     101.176  82.174  73.913  1.00  0.00     0.000 C 
BRANCH  21  22
ATOM     22  C   UNL     1     101.466  83.619  73.494  1.00  0.00     0.003 C 
BRANCH  22  23
ATOM     23  C   UNL     1     100.893  83.983  72.110  1.00  0.00    -0.017 C 
ATOM     24  C   UNL     1      99.575  84.742  72.279  1.00  0.00     0.007 C 
ATOM     25  C   UNL     1     100.670  82.755  71.227  1.00  0.00     0.007 C 
ENDBRANCH  22  23
ENDBRANCH  21  22
ENDBRANCH  20  21
ENDBRANCH  19  20
ENDBRANCH  18  19
ENDBRANCH   1  18
TORSDOF 12
ENDMDL
MODEL 3
REMARK VINA RESULT:    -5.797      6.931      9.877
REMARK INTER + INTRA:         -11.251
REMARK INTER:                 -10.098
REMARK INTRA:                  -1.153
REMARK UNBOUND:                -1.556
REMARK SMILES COc1cc(CNC(=O)CCCCCCCC(C)C)ccc1O
REMARK SMILES IDX 11 1 10 2 8 3 9 4 7 5 6 7 5 8 4 9 20 10 3 11 21 12 22 13
REMARK SMILES IDX 2 14 1 15 23 16 12 18 13 19 14 20 15 21 16 22 17 23 18 24
REMARK SMILES IDX 19 25
REMARK H PARENT 7 6 23 17
REMARK Flexibility Score: inf
ROOT
ATOM      1  C   UNL     1      89.890  98.111  70.049  1.00  0.00     0.010 C 
ENDROOT
BRANCH   1   2
ATOM      2  C   UNL     1      89.554  99.593  70.196  1.00  0.00     0.100 C 
BRANCH   2   3
ATOM      3  C   UNL     1      90.610 100.350  70.984  1.00  0.00     0.220 C 
ATOM      4  O   UNL     1      90.386 101.406  71.570  1.00  0.00    -0.275 OA
ATOM      5  N   UNL     1      91.837  99.703  70.945  1.00  0.00    -0.352 N 
ATOM      6  H   UNL     1      91.930  98.836  70.423  1.00  0.00     0.163 HD
BRANCH   5   7
ATOM      7  C   UNL     1      93.014 100.216  71.607  1.00  0.00     0.151 C 
BRANCH   7   8
ATOM      8  C   UNL     1      93.796  99.127  72.283  1.00  0.00    -0.025 A 
ATOM      9  C   UNL     1      94.927  98.607  71.665  1.00  0.00     0.056 A 
ATOM     10  C   UNL     1      93.382  98.652  73.521  1.00  0.00     0.009 A 
ATOM     11  C   UNL     1      95.653  97.595  72.294  1.00  0.00     0.160 A 
ATOM     12  C   UNL     1      94.108  97.639  74.150  1.00  0.00     0.050 A 
ATOM     13  C   UNL     1      95.244  97.111  73.536  1.00  0.00     0.157 A 
BRANCH  11  14
ATOM     14  O   UNL     1      96.760  97.087  71.684  1.00  0.00    -0.493 OA
ATOM     15  C   UNL     1      96.600  96.599  70.352  1.00  0.00     0.278 C 
ENDBRANCH  11  14
BRANCH  13  16
ATOM     16  O   UNL     1      95.945  96.124  74.160  1.00  0.00    -0.504 OA
ATOM     17  H   UNL     1      96.662  95.827  73.574  1.00  0.00     0.293 HD
ENDBRANCH  13  16
ENDBRANCH   7   8
ENDBRANCH   5   7
ENDBRANCH   2   3
ENDBRANCH   1   2
BRANCH   1  18
ATOM     18  C   UNL     1      90.060  97.664  68.594  1.00  0.00     0.001 C 
BRANCH  18  19
ATOM     19  C   UNL     1      89.169  98.378  67.572  1.00  0.00     0.000 C 
BRANCH  19  20
ATOM     20  C   UNL     1      89.956  99.004  66.417  1.00  0.00     0.000 C 
BRANCH  20  21
ATOM     21  C   UNL     1      89.823 100.530  66.345  1.00  0.00     0.000 C 
BRANCH  21  22
ATOM     22  C   UNL     1      88.602 101.068  67.099  1.00  0.00     0.003 C 
BRANCH  22  23
ATOM     23  C   UNL     1      87.418 101.422  66.179  1.00  0.00    -0.017 C 
ATOM     24  C   UNL     1      86.861 102.797  66.557  1.00  0.00     0.007 C 
ATOM     25  C   UNL     1      86.299 100.381  66.237  1.00  0.00     0.007 C 
ENDBRANCH  22  23
ENDBRANCH  21  22
ENDBRANCH  20  21
ENDBRANCH  19  20
ENDBRANCH  18  19
ENDBRANCH   1  18
TORSDOF 12
ENDMDL
MODEL 4
REMARK VINA RESULT:    -5.659     22.489     26.572
REMARK INTER + INTRA:         -11.019
REMARK INTER:                  -9.075
REMARK INTRA:                  -1.944
REMARK UNBOUND:                -1.556
REMARK SMILES COc1cc(CNC(=O)CCCCCCCC(C)C)ccc1O
REMARK SMILES IDX 11 1 10 2 8 3 9 4 7 5 6 7 5 8 4 9 20 10 3 11 21 12 22 13
REMARK SMILES IDX 2 14 1 15 23 16 12 18 13 19 14 20 15 21 16 22 17 23 18 24
REMARK SMILES IDX 19 25
REMARK H PARENT 7 6 23 17
REMARK Flexibility Score: inf
ROOT
ATOM      1  C   UNL     1      70.020  83.177  66.085  1.00  0.00     0.010 C 
ENDROOT
BRANCH   1   2
ATOM      2  C   UNL     1      70.034  84.686  66.319  1.00  0.00     0.100 C 
BRANCH   2   3
ATOM      3  C   UNL     1      70.600  85.055  67.681  1.00  0.00     0.220 C 
ATOM      4  O   UNL     1      70.085  84.711  68.740  1.00  0.00    -0.275 OA
ATOM      5  N   UNL     1      71.748  85.825  67.564  1.00  0.00    -0.352 N 
ATOM      6  H   UNL     1      72.096  86.071  66.641  1.00  0.00     0.163 HD
BRANCH   5   7
ATOM      7  C   UNL     1      72.481  86.317  68.708  1.00  0.00     0.151 C 
BRANCH   7   8
ATOM      8  C   UNL     1      73.962  86.135  68.546  1.00  0.00    -0.025 A 
ATOM      9  C   UNL     1      74.673  86.987  67.709  1.00  0.00     0.056 A 
ATOM     10  C   UNL     1      74.607  85.115  69.235  1.00  0.00     0.009 A 
ATOM     11  C   UNL     1      76.049  86.817  67.559  1.00  0.00     0.160 A 
ATOM     12  C   UNL     1      75.984  84.945  69.084  1.00  0.00     0.050 A 
ATOM     13  C   UNL     1      76.705  85.795  68.247  1.00  0.00     0.157 A 
BRANCH  11  14
ATOM     14  O   UNL     1      76.742  87.654  66.738  1.00  0.00    -0.493 OA
ATOM     15  C   UNL     1      77.031  88.959  67.237  1.00  0.00     0.278 C 
ENDBRANCH  11  14
BRANCH  13  16
ATOM     16  O   UNL     1      78.049  85.620  68.109  1.00  0.00    -0.504 OA
ATOM     17  H   UNL     1      78.227  84.684  67.913  1.00  0.00     0.293 HD
ENDBRANCH  13  16
ENDBRANCH   7   8
ENDBRANCH   5   7
ENDBRANCH   2   3
ENDBRANCH   1   2
BRANCH   1  18
ATOM     18  C   UNL     1      70.992  82.720  64.993  1.00  0.00     0.001 C 
BRANCH  18  19
ATOM     19  C   UNL     1      71.360  81.232  65.013  1.00  0.00     0.000 C 
BRANCH  19  20
ATOM     20  C   UNL     1      72.811  80.963  64.602  1.00  0.00     0.000 C 
BRANCH  20  21
ATOM     21  C   UNL     1      73.835  81.423  65.646  1.00  0.00     0.000 C 
BRANCH  21  22
ATOM     22  C   UNL     1      75.084  82.062  65.029  1.00  0.00     0.003 C 
BRANCH  22  23
ATOM     23  C   UNL     1      75.382  83.474  65.571  1.00  0.00    -0.017 C 
ATOM     24  C   UNL     1      74.259  84.431  65.164  1.00  0.00     0.007 C 
ATOM     25  C   UNL     1      76.724  84.018  65.080  1.00  0.00     0.007 C 
ENDBRANCH  22  23
ENDBRANCH  21  22
ENDBRANCH  20  21
ENDBRANCH  19  20
ENDBRANCH  18  19
ENDBRANCH   1  18
TORSDOF 12
ENDMDL
MODEL 5
REMARK VINA RESULT:    -5.629     13.343     15.241
REMARK INTER + INTRA:         -10.969
REMARK INTER:                 -10.101
REMARK INTRA:                  -0.868
REMARK UNBOUND:                -1.556
REMARK SMILES COc1cc(CNC(=O)CCCCCCCC(C)C)ccc1O
REMARK SMILES IDX 11 1 10 2 8 3 9 4 7 5 6 7 5 8 4 9 20 10 3 11 21 12 22 13
REMARK SMILES IDX 2 14 1 15 23 16 12 18 13 19 14 20 15 21 16 22 17 23 18 24
REMARK SMILES IDX 19 25
REMARK H PARENT 7 6 23 17
REMARK Flexibility Score: inf
ROOT
ATOM      1  C   UNL     1      96.665  82.119  82.314  1.00  0.00     0.010 C 
ENDROOT
BRANCH   1   2
ATOM      2  C   UNL     1      96.770  80.604  82.150  1.00  0.00     0.100 C 
BRANCH   2   3
ATOM      3  C   UNL     1      97.373  80.207  80.813  1.00  0.00     0.220 C 
ATOM      4  O   UNL     1      97.396  79.051  80.401  1.00  0.00    -0.275 OA
ATOM      5  N   UNL     1      97.888  81.305  80.140  1.00  0.00    -0.352 N 
ATOM      6  H   UNL     1      97.833  82.226  80.567  1.00  0.00     0.163 HD
BRANCH   5   7
ATOM      7  C   UNL     1      98.526  81.203  78.848  1.00  0.00     0.151 C 
BRANCH   7   8
ATOM      8  C   UNL     1      97.716  81.863  77.769  1.00  0.00    -0.025 A 
ATOM      9  C   UNL     1      98.234  81.961  76.483  1.00  0.00     0.056 A 
ATOM     10  C   UNL     1      96.458  82.370  78.068  1.00  0.00     0.009 A 
ATOM     11  C   UNL     1      97.482  82.574  75.481  1.00  0.00     0.160 A 
ATOM     12  C   UNL     1      95.706  82.984  77.066  1.00  0.00     0.050 A 
ATOM     13  C   UNL     1      96.217  83.086  75.773  1.00  0.00     0.157 A 
BRANCH  11  14
ATOM     14  O   UNL     1      97.993  82.668  74.222  1.00  0.00    -0.493 OA
ATOM     15  C   UNL     1      99.022  81.745  73.870  1.00  0.00     0.278 C 
ENDBRANCH  11  14
BRANCH  13  16
ATOM     16  O   UNL     1      95.473  83.687  74.803  1.00  0.00    -0.504 OA
ATOM     17  H   UNL     1      95.335  84.620  75.042  1.00  0.00     0.293 HD
ENDBRANCH  13  16
ENDBRANCH   7   8
ENDBRANCH   5   7
ENDBRANCH   2   3
ENDBRANCH   1   2
BRANCH   1  18
ATOM     18  C   UNL     1      96.119  82.548  83.679  1.00  0.00     0.001 C 
BRANCH  18  19
ATOM     19  C   UNL     1      94.799  81.894  84.102  1.00  0.00     0.000 C 
BRANCH  19  20
ATOM     20  C   UNL     1      94.222  82.476  85.395  1.00  0.00     0.000 C 
BRANCH  20  21
ATOM     21  C   UNL     1      93.011  81.701  85.925  1.00  0.00     0.000 C 
BRANCH  21  22
ATOM     22  C   UNL     1      92.561  80.569  84.996  1.00  0.00     0.003 C 
BRANCH  22  23
ATOM     23  C   UNL     1      91.091  80.689  84.549  1.00  0.00    -0.017 C 
ATOM     24  C   UNL     1      90.397  81.797  85.344  1.00  0.00     0.007 C 
ATOM     25  C   UNL     1      90.320  79.379  84.713  1.00  0.00     0.007 C 
ENDBRANCH  22  23
ENDBRANCH  21  22
ENDBRANCH  20  21
ENDBRANCH  19  20
ENDBRANCH  18  19
ENDBRANCH   1  18
TORSDOF 12
ENDMDL
MODEL 6
REMARK VINA RESULT:    -5.561     12.658     14.371
REMARK INTER + INTRA:         -10.855
REMARK INTER:                 -10.167
REMARK INTRA:                  -0.688
REMARK UNBOUND:                -1.556
REMARK SMILES COc1cc(CNC(=O)CCCCCCCC(C)C)ccc1O
REMARK SMILES IDX 11 1 10 2 8 3 9 4 7 5 6 7 5 8 4 9 20 10 3 11 21 12 22 13
REMARK SMILES IDX 2 14 1 15 23 16 12 18 13 19 14 20 15 21 16 22 17 23 18 24
REMARK SMILES IDX 19 25
REMARK H PARENT 7 6 23 17
REMARK Flexibility Score: inf
ROOT
ATOM      1  C   UNL     1      96.949  82.073  78.396  1.00  0.00     0.010 C 
ENDROOT
BRANCH   1   2
ATOM      2  C   UNL     1      98.060  81.117  78.824  1.00  0.00     0.100 C 
BRANCH   2   3
ATOM      3  C   UNL     1      97.772  80.457  80.161  1.00  0.00     0.220 C 
ATOM      4  O   UNL     1      97.444  79.279  80.275  1.00  0.00    -0.275 OA
ATOM      5  N   UNL     1      97.920  81.349  81.213  1.00  0.00    -0.352 N 
ATOM      6  H   UNL     1      98.184  82.312  81.021  1.00  0.00     0.163 HD
BRANCH   5   7
ATOM      7  C   UNL     1      97.696  80.979  82.591  1.00  0.00     0.151 C 
BRANCH   7   8
ATOM      8  C   UNL     1      96.817  81.967  83.302  1.00  0.00    -0.025 A 
ATOM      9  C   UNL     1      96.123  81.575  84.440  1.00  0.00     0.056 A 
ATOM     10  C   UNL     1      96.707  83.264  82.815  1.00  0.00     0.009 A 
ATOM     11  C   UNL     1      95.306  82.493  85.100  1.00  0.00     0.160 A 
ATOM     12  C   UNL     1      95.889  84.181  83.475  1.00  0.00     0.050 A 
ATOM     13  C   UNL     1      95.189  83.796  84.618  1.00  0.00     0.157 A 
BRANCH  11  14
ATOM     14  O   UNL     1      94.626  82.104  86.215  1.00  0.00    -0.493 OA
ATOM     15  C   UNL     1      93.201  82.093  86.134  1.00  0.00     0.278 C 
ENDBRANCH  11  14
BRANCH  13  16
ATOM     16  O   UNL     1      94.395  84.702  85.254  1.00  0.00    -0.504 OA
ATOM     17  H   UNL     1      94.943  85.238  85.853  1.00  0.00     0.293 HD
ENDBRANCH  13  16
ENDBRANCH   7   8
ENDBRANCH   5   7
ENDBRANCH   2   3
ENDBRANCH   1   2
BRANCH   1  18
ATOM     18  C   UNL     1      96.609  81.986  76.905  1.00  0.00     0.001 C 
BRANCH  18  19
ATOM     19  C   UNL     1      95.932  83.222  76.305  1.00  0.00     0.000 C 
BRANCH  19  20
ATOM     20  C   UNL     1      96.436  83.567  74.901  1.00  0.00     0.000 C 
BRANCH  20  21
ATOM     21  C   UNL     1      96.617  82.340  74.000  1.00  0.00     0.000 C 
BRANCH  21  22
ATOM     22  C   UNL     1      98.007  82.257  73.360  1.00  0.00     0.003 C 
BRANCH  22  23
ATOM     23  C   UNL     1      98.974  83.353  73.848  1.00  0.00    -0.017 C 
ATOM     24  C   UNL     1      99.392  84.236  72.670  1.00  0.00     0.007 C 
ATOM     25  C   UNL     1     100.218  82.778  74.526  1.00  0.00     0.007 C 
ENDBRANCH  22  23
ENDBRANCH  21  22
ENDBRANCH  20  21
ENDBRANCH  19  20
ENDBRANCH  18  19
ENDBRANCH   1  18
TORSDOF 12
ENDMDL
MODEL 7
REMARK VINA RESULT:    -5.432     13.805     15.530
REMARK INTER + INTRA:         -10.639
REMARK INTER:                  -9.553
REMARK INTRA:                  -1.087
REMARK UNBOUND:                -1.556
REMARK SMILES COc1cc(CNC(=O)CCCCCCCC(C)C)ccc1O
REMARK SMILES IDX 11 1 10 2 8 3 9 4 7 5 6 7 5 8 4 9 20 10 3 11 21 12 22 13
REMARK SMILES IDX 2 14 1 15 23 16 12 18 13 19 14 20 15 21 16 22 17 23 18 24
REMARK SMILES IDX 19 25
REMARK H PARENT 7 6 23 17
REMARK Flexibility Score: inf
ROOT
ATOM      1  C   UNL     1      97.394  80.681  77.963  1.00  0.00     0.010 C 
ENDROOT
BRANCH   1   2
ATOM      2  C   UNL     1      96.890  82.116  78.097  1.00  0.00     0.100 C 
BRANCH   2   3
ATOM      3  C   UNL     1      96.538  82.734  76.754  1.00  0.00     0.220 C 
ATOM      4  O   UNL     1      95.476  83.312  76.536  1.00  0.00    -0.275 OA
ATOM      5  N   UNL     1      97.554  82.553  75.828  1.00  0.00    -0.352 N 
ATOM      6  H   UNL     1      98.395  82.051  76.098  1.00  0.00     0.163 HD
BRANCH   5   7
ATOM      7  C   UNL     1      97.471  83.038  74.469  1.00  0.00     0.151 C 
BRANCH   7   8
ATOM      8  C   UNL     1      97.774  81.959  73.470  1.00  0.00    -0.025 A 
ATOM      9  C   UNL     1      99.040  81.885  72.901  1.00  0.00     0.056 A 
ATOM     10  C   UNL     1      96.785  81.047  73.123  1.00  0.00     0.009 A 
ATOM     11  C   UNL     1      99.321  80.883  71.973  1.00  0.00     0.160 A 
ATOM     12  C   UNL     1      97.066  80.045  72.193  1.00  0.00     0.050 A 
ATOM     13  C   UNL     1      98.334  79.963  71.618  1.00  0.00     0.157 A 
BRANCH  11  14
ATOM     14  O   UNL     1     100.563  80.813  71.417  1.00  0.00    -0.493 OA
ATOM     15  C   UNL     1     101.667  80.684  72.312  1.00  0.00     0.278 C 
ENDBRANCH  11  14
BRANCH  13  16
ATOM     16  O   UNL     1      98.597  78.980  70.712  1.00  0.00    -0.504 OA
ATOM     17  H   UNL     1      99.039  79.371  69.940  1.00  0.00     0.293 HD
ENDBRANCH  13  16
ENDBRANCH   7   8
ENDBRANCH   5   7
ENDBRANCH   2   3
ENDBRANCH   1   2
BRANCH   1  18
ATOM     18  C   UNL     1      98.645  80.394  78.797  1.00  0.00     0.001 C 
BRANCH  18  19
ATOM     19  C   UNL     1      98.498  80.599  80.308  1.00  0.00     0.000 C 
BRANCH  19  20
ATOM     20  C   UNL     1      97.364  79.775  80.923  1.00  0.00     0.000 C 
BRANCH  20  21
ATOM     21  C   UNL     1      96.561  80.538  81.983  1.00  0.00     0.000 C 
BRANCH  21  22
ATOM     22  C   UNL     1      96.616  82.059  81.807  1.00  0.00     0.003 C 
BRANCH  22  23
ATOM     23  C   UNL     1      95.660  82.821  82.744  1.00  0.00    -0.017 C 
ATOM     24  C   UNL     1      96.367  84.052  83.316  1.00  0.00     0.007 C 
ATOM     25  C   UNL     1      95.142  81.949  83.888  1.00  0.00     0.007 C 
ENDBRANCH  22  23
ENDBRANCH  21  22
ENDBRANCH  20  21
ENDBRANCH  19  20
ENDBRANCH  18  19
ENDBRANCH   1  18
TORSDOF 12
ENDMDL
MODEL 8
REMARK VINA RESULT:    -5.296     27.060     30.825
REMARK INTER + INTRA:         -10.411
REMARK INTER:                  -8.937
REMARK INTRA:                  -1.474
REMARK UNBOUND:                -1.556
REMARK SMILES COc1cc(CNC(=O)CCCCCCCC(C)C)ccc1O
REMARK SMILES IDX 11 1 10 2 8 3 9 4 7 5 6 7 5 8 4 9 20 10 3 11 21 12 22 13
REMARK SMILES IDX 2 14 1 15 23 16 12 18 13 19 14 20 15 21 16 22 17 23 18 24
REMARK SMILES IDX 19 25
REMARK H PARENT 7 6 23 17
REMARK Flexibility Score: inf
ROOT
ATOM      1  C   UNL     1      80.924  66.514  72.871  1.00  0.00     0.010 C 
ENDROOT
BRANCH   1   2
ATOM      2  C   UNL     1      81.207  65.858  71.521  1.00  0.00     0.100 C 
BRANCH   2   3
ATOM      3  C   UNL     1      82.474  66.391  70.873  1.00  0.00     0.220 C 
ATOM      4  O   UNL     1      82.657  66.400  69.659  1.00  0.00    -0.275 OA
ATOM      5  N   UNL     1      83.378  66.847  71.821  1.00  0.00    -0.352 N 
ATOM      6  H   UNL     1      83.143  66.789  72.808  1.00  0.00     0.163 HD
BRANCH   5   7
ATOM      7  C   UNL     1      84.667  67.398  71.472  1.00  0.00     0.151 C 
BRANCH   7   8
ATOM      8  C   UNL     1      84.861  68.776  72.036  1.00  0.00    -0.025 A 
ATOM      9  C   UNL     1      85.578  68.942  73.214  1.00  0.00     0.056 A 
ATOM     10  C   UNL     1      84.320  69.871  71.373  1.00  0.00     0.009 A 
ATOM     11  C   UNL     1      85.758  70.223  73.738  1.00  0.00     0.160 A 
ATOM     12  C   UNL     1      84.498  71.151  71.898  1.00  0.00     0.050 A 
ATOM     13  C   UNL     1      85.217  71.328  73.080  1.00  0.00     0.157 A 
BRANCH  11  14
ATOM     14  O   UNL     1      86.461  70.382  74.893  1.00  0.00    -0.493 OA
ATOM     15  C   UNL     1      85.788  70.064  76.111  1.00  0.00     0.278 C 
ENDBRANCH  11  14
BRANCH  13  16
ATOM     16  O   UNL     1      85.386  72.583  73.581  1.00  0.00    -0.504 OA
ATOM     17  H   UNL     1      84.794  72.701  74.344  1.00  0.00     0.293 HD
ENDBRANCH  13  16
ENDBRANCH   7   8
ENDBRANCH   5   7
ENDBRANCH   2   3
ENDBRANCH   1   2
BRANCH   1  18
ATOM     18  C   UNL     1      80.365  65.544  73.916  1.00  0.00     0.001 C 
BRANCH  18  19
ATOM     19  C   UNL     1      80.136  66.132  75.313  1.00  0.00     0.000 C 
BRANCH  19  20
ATOM     20  C   UNL     1      80.260  65.095  76.433  1.00  0.00     0.000 C 
BRANCH  20  21
ATOM     21  C   UNL     1      80.906  63.782  75.979  1.00  0.00     0.000 C 
BRANCH  21  22
ATOM     22  C   UNL     1      82.332  63.593  76.509  1.00  0.00     0.003 C 
BRANCH  22  23
ATOM     23  C   UNL     1      83.260  64.787  76.214  1.00  0.00    -0.017 C 
ATOM     24  C   UNL     1      83.866  64.638  74.817  1.00  0.00     0.007 C 
ATOM     25  C   UNL     1      84.378  64.929  77.248  1.00  0.00     0.007 C 
ENDBRANCH  22  23
ENDBRANCH  21  22
ENDBRANCH  20  21
ENDBRANCH  19  20
ENDBRANCH  18  19
ENDBRANCH   1  18
TORSDOF 12
ENDMDL
MODEL 9
REMARK VINA RESULT:    -5.213     22.406     26.223
REMARK INTER + INTRA:         -10.273
REMARK INTER:                  -8.828
REMARK INTRA:                  -1.444
REMARK UNBOUND:                -1.556
REMARK SMILES COc1cc(CNC(=O)CCCCCCCC(C)C)ccc1O
REMARK SMILES IDX 11 1 10 2 8 3 9 4 7 5 6 7 5 8 4 9 20 10 3 11 21 12 22 13
REMARK SMILES IDX 2 14 1 15 23 16 12 18 13 19 14 20 15 21 16 22 17 23 18 24
REMARK SMILES IDX 19 25
REMARK H PARENT 7 6 23 17
REMARK Flexibility Score: inf
ROOT
ATOM      1  C   UNL     1      74.534  82.908  65.204  1.00  0.00     0.010 C 
ENDROOT
BRANCH   1   2
ATOM      2  C   UNL     1      76.055  82.952  65.076  1.00  0.00     0.100 C 
BRANCH   2   3
ATOM      3  C   UNL     1      76.718  83.619  66.270  1.00  0.00     0.220 C 
ATOM      4  O   UNL     1      77.932  83.630  66.447  1.00  0.00    -0.275 OA
ATOM      5  N   UNL     1      75.781  84.192  67.118  1.00  0.00    -0.352 N 
ATOM      6  H   UNL     1      74.792  84.123  66.894  1.00  0.00     0.163 HD
BRANCH   5   7
ATOM      7  C   UNL     1      76.145  84.884  68.333  1.00  0.00     0.151 C 
BRANCH   7   8
ATOM      8  C   UNL     1      76.105  86.375  68.164  1.00  0.00    -0.025 A 
ATOM      9  C   UNL     1      74.984  87.083  68.578  1.00  0.00     0.056 A 
ATOM     10  C   UNL     1      77.190  87.031  67.596  1.00  0.00     0.009 A 
ATOM     11  C   UNL     1      74.947  88.469  68.421  1.00  0.00     0.160 A 
ATOM     12  C   UNL     1      77.152  88.417  67.438  1.00  0.00     0.050 A 
ATOM     13  C   UNL     1      76.031  89.136  67.851  1.00  0.00     0.157 A 
BRANCH  11  14
ATOM     14  O   UNL     1      73.845  89.161  68.828  1.00  0.00    -0.493 OA
ATOM     15  C   UNL     1      72.745  89.217  67.921  1.00  0.00     0.278 C 
ENDBRANCH  11  14
BRANCH  13  16
ATOM     16  O   UNL     1      76.007  90.489  67.693  1.00  0.00    -0.504 OA
ATOM     17  H   UNL     1      76.732  90.751  67.100  1.00  0.00     0.293 HD
ENDBRANCH  13  16
ENDBRANCH   7   8
ENDBRANCH   5   7
ENDBRANCH   2   3
ENDBRANCH   1   2
BRANCH   1  18
ATOM     18  C   UNL     1      73.999  81.550  65.666  1.00  0.00     0.001 C 
BRANCH  18  19
ATOM     19  C   UNL     1      72.761  81.036  64.924  1.00  0.00     0.000 C 
BRANCH  19  20
ATOM     20  C   UNL     1      72.781  81.349  63.425  1.00  0.00     0.000 C 
BRANCH  20  21
ATOM     21  C   UNL     1      71.526  82.082  62.938  1.00  0.00     0.000 C 
BRANCH  21  22
ATOM     22  C   UNL     1      70.437  82.198  64.010  1.00  0.00     0.003 C 
BRANCH  22  23
ATOM     23  C   UNL     1      70.179  83.646  64.470  1.00  0.00    -0.017 C 
ATOM     24  C   UNL     1      70.844  84.623  63.498  1.00  0.00     0.007 C 
ATOM     25  C   UNL     1      70.684  83.909  65.889  1.00  0.00     0.007 C 
ENDBRANCH  22  23
ENDBRANCH  21  22
ENDBRANCH  20  21
ENDBRANCH  19  20
ENDBRANCH  18  19
ENDBRANCH   1  18
TORSDOF 12
ENDMDL
MODEL 10
REMARK VINA RESULT:    -5.071     13.534     14.849
REMARK INTER + INTRA:         -10.036
REMARK INTER:                  -8.823
REMARK INTRA:                  -1.213
REMARK UNBOUND:                -1.556
REMARK SMILES COc1cc(CNC(=O)CCCCCCCC(C)C)ccc1O
REMARK SMILES IDX 11 1 10 2 8 3 9 4 7 5 6 7 5 8 4 9 20 10 3 11 21 12 22 13
REMARK SMILES IDX 2 14 1 15 23 16 12 18 13 19 14 20 15 21 16 22 17 23 18 24
REMARK SMILES IDX 19 25
REMARK H PARENT 7 6 23 17
REMARK Flexibility Score: inf
ROOT
ATOM      1  C   UNL     1      97.046  81.690  73.464  1.00  0.00     0.010 C 
ENDROOT
BRANCH   1   2
ATOM      2  C   UNL     1      97.523  82.822  74.372  1.00  0.00     0.100 C 
BRANCH   2   3
ATOM      3  C   UNL     1      96.606  83.031  75.566  1.00  0.00     0.220 C 
ATOM      4  O   UNL     1      95.583  83.708  75.520  1.00  0.00    -0.275 OA
ATOM      5  N   UNL     1      97.079  82.374  76.692  1.00  0.00    -0.352 N 
ATOM      6  H   UNL     1      97.945  81.845  76.638  1.00  0.00     0.163 HD
BRANCH   5   7
ATOM      7  C   UNL     1      96.400  82.416  77.966  1.00  0.00     0.151 C 
BRANCH   7   8
ATOM      8  C   UNL     1      97.168  81.695  79.036  1.00  0.00    -0.025 A 
ATOM      9  C   UNL     1      98.162  80.792  78.678  1.00  0.00     0.056 A 
ATOM     10  C   UNL     1      96.877  81.938  80.373  1.00  0.00     0.009 A 
ATOM     11  C   UNL     1      98.875  80.122  79.673  1.00  0.00     0.160 A 
ATOM     12  C   UNL     1      97.590  81.267  81.367  1.00  0.00     0.050 A 
ATOM     13  C   UNL     1      98.589  80.359  81.017  1.00  0.00     0.157 A 
BRANCH  11  14
ATOM     14  O   UNL     1      99.848  79.237  79.318  1.00  0.00    -0.493 OA
ATOM     15  C   UNL     1     101.096  79.782  78.893  1.00  0.00     0.278 C 
ENDBRANCH  11  14
BRANCH  13  16
ATOM     16  O   UNL     1      99.279  79.712  81.997  1.00  0.00    -0.504 OA
ATOM     17  H   UNL     1     100.063  80.238  82.232  1.00  0.00     0.293 HD
ENDBRANCH  13  16
ENDBRANCH   7   8
ENDBRANCH   5   7
ENDBRANCH   2   3
ENDBRANCH   1   2
BRANCH   1  18
ATOM     18  C   UNL     1      98.023  80.514  73.391  1.00  0.00     0.001 C 
BRANCH  18  19
ATOM     19  C   UNL     1      99.454  80.864  72.970  1.00  0.00     0.000 C 
BRANCH  19  20
ATOM     20  C   UNL     1      99.642  80.916  71.451  1.00  0.00     0.000 C 
BRANCH  20  21
ATOM     21  C   UNL     1     100.767  81.858  71.008  1.00  0.00     0.000 C 
BRANCH  21  22
ATOM     22  C   UNL     1     101.367  82.671  72.160  1.00  0.00     0.003 C 
BRANCH  22  23
ATOM     23  C   UNL     1     101.222  84.194  71.978  1.00  0.00    -0.017 C 
ATOM     24  C   UNL     1      99.764  84.606  72.198  1.00  0.00     0.007 C 
ATOM     25  C   UNL     1     101.686  84.666  70.599  1.00  0.00     0.007 C 
ENDBRANCH  22  23
ENDBRANCH  21  22
ENDBRANCH  20  21
ENDBRANCH  19  20
ENDBRANCH  18  19
ENDBRANCH   1  18
TORSDOF 12
ENDMDL
