MODEL 1
REMARK VINA RESULT:    -7.345      0.000      0.000
REMARK INTER + INTRA:         -12.489
REMARK INTER:                 -11.853
REMARK INTRA:                  -0.636
REMARK UNBOUND:                -0.636
REMARK SMILES COc1cc(CNC(=O)CCCCC/C=C/C(C)C)ccc1O
REMARK SMILES IDX 11 1 10 2 8 3 7 4 9 6 6 7 5 8 3 9 22 10 4 11 21 12 20 13
REMARK SMILES IDX 2 14 1 15 23 16 12 18 13 19 14 20 15 21 16 22 17 23 18 24
REMARK SMILES IDX 19 25
REMARK H PARENT 7 5 23 17
REMARK Flexibility Score: inf
ROOT
ATOM      1  C   UNL     1      95.202  84.325  85.146  1.00  0.00     0.010 C 
ENDROOT
BRANCH   1   2
ATOM      2  C   UNL     1      93.666  84.422  85.332  1.00  0.00     0.100 C 
BRANCH   2   3
ATOM      3  C   UNL     1      93.017  83.135  85.647  1.00  0.00     0.220 C 
ATOM      4  N   UNL     1      91.868  82.781  85.008  1.00  0.00    -0.352 N 
ATOM      5  H   UNL     1      91.492  83.489  84.393  1.00  0.00     0.163 HD
ATOM      6  O   UNL     1      93.572  82.375  86.476  1.00  0.00    -0.275 OA
BRANCH   4   7
ATOM      7  C   UNL     1      91.194  81.531  85.145  1.00  0.00     0.151 C 
BRANCH   7   8
ATOM      8  C   UNL     1      89.799  81.574  84.634  1.00  0.00    -0.025 A 
ATOM      9  C   UNL     1      87.655  82.751  84.372  1.00  0.00     0.160 A 
ATOM     10  C   UNL     1      87.122  81.628  83.703  1.00  0.00     0.157 A 
ATOM     11  C   UNL     1      88.985  82.712  84.840  1.00  0.00     0.056 A 
ATOM     12  C   UNL     1      87.928  80.497  83.478  1.00  0.00     0.050 A 
ATOM     13  C   UNL     1      89.260  80.474  83.931  1.00  0.00     0.009 A 
BRANCH   9  14
ATOM     14  O   UNL     1      86.908  83.889  84.519  1.00  0.00    -0.493 OA
ATOM     15  C   UNL     1      86.282  84.019  85.806  1.00  0.00     0.278 C 
ENDBRANCH   9  14
BRANCH  10  16
ATOM     16  O   UNL     1      85.839  81.614  83.263  1.00  0.00    -0.504 OA
ATOM     17  H   UNL     1      85.296  81.110  83.875  1.00  0.00     0.293 HD
ENDBRANCH  10  16
ENDBRANCH   7   8
ENDBRANCH   4   7
ENDBRANCH   2   3
ENDBRANCH   1   2
BRANCH   1  18
ATOM     18  C   UNL     1      95.581  84.278  83.643  1.00  0.00     0.001 C 
BRANCH  18  19
ATOM     19  C   UNL     1      95.789  82.843  83.098  1.00  0.00     0.004 C 
BRANCH  19  20
ATOM     20  C   UNL     1      97.140  82.715  82.339  1.00  0.00     0.027 C 
BRANCH  20  21
ATOM     21  C   UNL     1      96.992  82.344  80.942  1.00  0.00    -0.031 C 
ATOM     22  C   UNL     1      97.275  83.193  79.939  1.00  0.00    -0.028 C 
BRANCH  22  23
ATOM     23  C   UNL     1      97.142  82.849  78.525  1.00  0.00     0.005 C 
ATOM     24  C   UNL     1      96.271  83.904  77.794  1.00  0.00     0.012 C 
ATOM     25  C   UNL     1      98.545  82.691  77.878  1.00  0.00     0.012 C 
ENDBRANCH  22  23
ENDBRANCH  20  21
ENDBRANCH  19  20
ENDBRANCH  18  19
ENDBRANCH   1  18
TORSDOF 11
ENDMDL
MODEL 2
REMARK VINA RESULT:    -6.563     20.709     22.447
REMARK INTER + INTRA:         -11.227
REMARK INTER:                 -10.516
REMARK INTRA:                  -0.711
REMARK UNBOUND:                -0.636
REMARK SMILES COc1cc(CNC(=O)CCCCC/C=C/C(C)C)ccc1O
REMARK SMILES IDX 11 1 10 2 8 3 7 4 9 6 6 7 5 8 3 9 22 10 4 11 21 12 20 13
REMARK SMILES IDX 2 14 1 15 23 16 12 18 13 19 14 20 15 21 16 22 17 23 18 24
REMARK SMILES IDX 19 25
REMARK H PARENT 7 5 23 17
REMARK Flexibility Score: inf
ROOT
ATOM      1  C   UNL     1      73.923  89.525  70.256  1.00  0.00     0.010 C 
ENDROOT
BRANCH   1   2
ATOM      2  C   UNL     1      74.420  90.983  70.439  1.00  0.00     0.100 C 
BRANCH   2   3
ATOM      3  C   UNL     1      74.018  91.598  71.717  1.00  0.00     0.220 C 
ATOM      4  N   UNL     1      74.611  92.753  72.130  1.00  0.00    -0.352 N 
ATOM      5  H   UNL     1      75.364  93.075  71.537  1.00  0.00     0.163 HD
ATOM      6  O   UNL     1      73.100  91.055  72.377  1.00  0.00    -0.275 OA
BRANCH   4   7
ATOM      7  C   UNL     1      74.251  93.501  73.290  1.00  0.00     0.151 C 
BRANCH   7   8
ATOM      8  C   UNL     1      75.423  93.838  74.139  1.00  0.00    -0.025 A 
ATOM      9  C   UNL     1      76.362  94.565  76.293  1.00  0.00     0.160 A 
ATOM     10  C   UNL     1      77.660  94.532  75.737  1.00  0.00     0.157 A 
ATOM     11  C   UNL     1      75.255  94.227  75.488  1.00  0.00     0.056 A 
ATOM     12  C   UNL     1      77.841  94.130  74.401  1.00  0.00     0.050 A 
ATOM     13  C   UNL     1      76.732  93.776  73.610  1.00  0.00     0.009 A 
BRANCH   9  14
ATOM     14  O   UNL     1      76.183  94.870  77.616  1.00  0.00    -0.493 OA
ATOM     15  C   UNL     1      75.678  93.781  78.406  1.00  0.00     0.278 C 
ENDBRANCH   9  14
BRANCH  10  16
ATOM     16  O   UNL     1      78.749  94.877  76.468  1.00  0.00    -0.504 OA
ATOM     17  H   UNL     1      78.508  94.927  77.397  1.00  0.00     0.293 HD
ENDBRANCH  10  16
ENDBRANCH   7   8
ENDBRANCH   4   7
ENDBRANCH   2   3
ENDBRANCH   1   2
BRANCH   1  18
ATOM     18  C   UNL     1      74.859  88.729  69.312  1.00  0.00     0.001 C 
BRANCH  18  19
ATOM     19  C   UNL     1      76.158  89.487  68.938  1.00  0.00     0.004 C 
BRANCH  19  20
ATOM     20  C   UNL     1      77.174  88.553  68.223  1.00  0.00     0.027 C 
BRANCH  20  21
ATOM     21  C   UNL     1      76.756  87.162  68.177  1.00  0.00    -0.031 C 
ATOM     22  C   UNL     1      77.111  86.273  69.123  1.00  0.00    -0.028 C 
BRANCH  22  23
ATOM     23  C   UNL     1      76.703  84.871  69.109  1.00  0.00     0.005 C 
ATOM     24  C   UNL     1      75.954  84.515  70.420  1.00  0.00     0.012 C 
ATOM     25  C   UNL     1      75.853  84.571  67.844  1.00  0.00     0.012 C 
ENDBRANCH  22  23
ENDBRANCH  20  21
ENDBRANCH  19  20
ENDBRANCH  18  19
ENDBRANCH   1  18
TORSDOF 11
ENDMDL
MODEL 3
REMARK VINA RESULT:    -6.510      5.609      7.258
REMARK INTER + INTRA:         -11.143
REMARK INTER:                 -10.343
REMARK INTRA:                  -0.799
REMARK UNBOUND:                -0.636
REMARK SMILES COc1cc(CNC(=O)CCCCC/C=C/C(C)C)ccc1O
REMARK SMILES IDX 11 1 10 2 8 3 7 4 9 6 6 7 5 8 3 9 22 10 4 11 21 12 20 13
REMARK SMILES IDX 2 14 1 15 23 16 12 18 13 19 14 20 15 21 16 22 17 23 18 24
REMARK SMILES IDX 19 25
REMARK H PARENT 7 5 23 17
REMARK Flexibility Score: inf
ROOT
ATOM      1  C   UNL     1      90.993  74.829  82.911  1.00  0.00     0.010 C 
ENDROOT
BRANCH   1   2
ATOM      2  C   UNL     1      92.281  74.874  83.773  1.00  0.00     0.100 C 
BRANCH   2   3
ATOM      3  C   UNL     1      92.999  76.161  83.713  1.00  0.00     0.220 C 
ATOM      4  N   UNL     1      92.521  77.236  84.398  1.00  0.00    -0.352 N 
ATOM      5  H   UNL     1      91.634  77.083  84.857  1.00  0.00     0.163 HD
ATOM      6  O   UNL     1      94.065  76.218  83.056  1.00  0.00    -0.275 OA
BRANCH   4   7
ATOM      7  C   UNL     1      93.165  78.505  84.504  1.00  0.00     0.151 C 
BRANCH   7   8
ATOM      8  C   UNL     1      92.215  79.641  84.377  1.00  0.00    -0.025 A 
ATOM      9  C   UNL     1      89.977  80.504  83.833  1.00  0.00     0.160 A 
ATOM     10  C   UNL     1      90.424  81.819  84.087  1.00  0.00     0.157 A 
ATOM     11  C   UNL     1      90.877  79.427  83.972  1.00  0.00     0.056 A 
ATOM     12  C   UNL     1      91.748  82.042  84.507  1.00  0.00     0.050 A 
ATOM     13  C   UNL     1      92.634  80.960  84.662  1.00  0.00     0.009 A 
BRANCH   9  14
ATOM     14  O   UNL     1      88.668  80.268  83.509  1.00  0.00    -0.493 OA
ATOM     15  C   UNL     1      87.998  79.355  84.395  1.00  0.00     0.278 C 
ENDBRANCH   9  14
BRANCH  10  16
ATOM     16  O   UNL     1      89.598  82.885  83.938  1.00  0.00    -0.504 OA
ATOM     17  H   UNL     1      89.246  82.894  83.044  1.00  0.00     0.293 HD
ENDBRANCH  10  16
ENDBRANCH   7   8
ENDBRANCH   4   7
ENDBRANCH   2   3
ENDBRANCH   1   2
BRANCH   1  18
ATOM     18  C   UNL     1      91.297  74.324  81.477  1.00  0.00     0.001 C 
BRANCH  18  19
ATOM     19  C   UNL     1      91.475  75.462  80.440  1.00  0.00     0.004 C 
BRANCH  19  20
ATOM     20  C   UNL     1      91.321  74.933  78.986  1.00  0.00     0.027 C 
BRANCH  20  21
ATOM     21  C   UNL     1      90.678  75.876  78.087  1.00  0.00    -0.031 C 
ATOM     22  C   UNL     1      91.364  76.565  77.158  1.00  0.00    -0.028 C 
BRANCH  22  23
ATOM     23  C   UNL     1      90.747  77.515  76.236  1.00  0.00     0.005 C 
ATOM     24  C   UNL     1      91.658  78.758  76.055  1.00  0.00     0.012 C 
ATOM     25  C   UNL     1      90.422  76.820  74.886  1.00  0.00     0.012 C 
ENDBRANCH  22  23
ENDBRANCH  20  21
ENDBRANCH  19  20
ENDBRANCH  18  19
ENDBRANCH   1  18
TORSDOF 11
ENDMDL
MODEL 4
REMARK VINA RESULT:    -6.222      3.300      5.450
REMARK INTER + INTRA:         -10.678
REMARK INTER:                  -9.945
REMARK INTRA:                  -0.733
REMARK UNBOUND:                -0.636
REMARK SMILES COc1cc(CNC(=O)CCCCC/C=C/C(C)C)ccc1O
REMARK SMILES IDX 11 1 10 2 8 3 7 4 9 6 6 7 5 8 3 9 22 10 4 11 21 12 20 13
REMARK SMILES IDX 2 14 1 15 23 16 12 18 13 19 14 20 15 21 16 22 17 23 18 24
REMARK SMILES IDX 19 25
REMARK H PARENT 7 5 23 17
REMARK Flexibility Score: inf
ROOT
ATOM      1  C   UNL     1      98.129  81.584  80.095  1.00  0.00     0.010 C 
ENDROOT
BRANCH   1   2
ATOM      2  C   UNL     1      97.090  80.865  80.993  1.00  0.00     0.100 C 
BRANCH   2   3
ATOM      3  C   UNL     1      96.740  81.607  82.218  1.00  0.00     0.220 C 
ATOM      4  N   UNL     1      96.263  80.938  83.304  1.00  0.00    -0.352 N 
ATOM      5  H   UNL     1      96.111  79.949  83.157  1.00  0.00     0.163 HD
ATOM      6  O   UNL     1      96.932  82.846  82.239  1.00  0.00    -0.275 OA
BRANCH   4   7
ATOM      7  C   UNL     1      95.978  81.517  84.577  1.00  0.00     0.151 C 
BRANCH   7   8
ATOM      8  C   UNL     1      94.536  81.451  84.926  1.00  0.00    -0.025 A 
ATOM      9  C   UNL     1      92.724  80.634  86.375  1.00  0.00     0.160 A 
ATOM     10  C   UNL     1      91.776  81.284  85.555  1.00  0.00     0.157 A 
ATOM     11  C   UNL     1      94.093  80.714  86.050  1.00  0.00     0.056 A 
ATOM     12  C   UNL     1      92.206  82.034  84.444  1.00  0.00     0.050 A 
ATOM     13  C   UNL     1      93.576  82.125  84.138  1.00  0.00     0.009 A 
BRANCH   9  14
ATOM     14  O   UNL     1      92.324  79.975  87.507  1.00  0.00    -0.493 OA
ATOM     15  C   UNL     1      92.582  80.692  88.726  1.00  0.00     0.278 C 
ENDBRANCH   9  14
BRANCH  10  16
ATOM     16  O   UNL     1      90.447  81.208  85.817  1.00  0.00    -0.504 OA
ATOM     17  H   UNL     1      90.192  81.936  86.389  1.00  0.00     0.293 HD
ENDBRANCH  10  16
ENDBRANCH   7   8
ENDBRANCH   4   7
ENDBRANCH   2   3
ENDBRANCH   1   2
BRANCH   1  18
ATOM     18  C   UNL     1      97.483  82.073  78.774  1.00  0.00     0.001 C 
BRANCH  18  19
ATOM     19  C   UNL     1      97.125  83.581  78.777  1.00  0.00     0.004 C 
BRANCH  19  20
ATOM     20  C   UNL     1      96.338  83.979  77.497  1.00  0.00     0.027 C 
BRANCH  20  21
ATOM     21  C   UNL     1      97.111  83.855  76.273  1.00  0.00    -0.031 C 
ATOM     22  C   UNL     1      96.895  84.642  75.204  1.00  0.00    -0.028 C 
BRANCH  22  23
ATOM     23  C   UNL     1      97.657  84.546  73.961  1.00  0.00     0.005 C 
ATOM     24  C   UNL     1      99.104  85.065  74.178  1.00  0.00     0.012 C 
ATOM     25  C   UNL     1      97.627  83.090  73.423  1.00  0.00     0.012 C 
ENDBRANCH  22  23
ENDBRANCH  20  21
ENDBRANCH  19  20
ENDBRANCH  18  19
ENDBRANCH   1  18
TORSDOF 11
ENDMDL
MODEL 5
REMARK VINA RESULT:    -6.103      5.666      7.432
REMARK INTER + INTRA:         -10.485
REMARK INTER:                  -9.756
REMARK INTRA:                  -0.729
REMARK UNBOUND:                -0.636
REMARK SMILES COc1cc(CNC(=O)CCCCC/C=C/C(C)C)ccc1O
REMARK SMILES IDX 11 1 10 2 8 3 7 4 9 6 6 7 5 8 3 9 22 10 4 11 21 12 20 13
REMARK SMILES IDX 2 14 1 15 23 16 12 18 13 19 14 20 15 21 16 22 17 23 18 24
REMARK SMILES IDX 19 25
REMARK H PARENT 7 5 23 17
REMARK Flexibility Score: inf
ROOT
ATOM      1  C   UNL     1      91.002  74.778  82.865  1.00  0.00     0.010 C 
ENDROOT
BRANCH   1   2
ATOM      2  C   UNL     1      92.306  74.722  83.702  1.00  0.00     0.100 C 
BRANCH   2   3
ATOM      3  C   UNL     1      93.059  75.990  83.725  1.00  0.00     0.220 C 
ATOM      4  N   UNL     1      92.588  77.045  84.447  1.00  0.00    -0.352 N 
ATOM      5  H   UNL     1      91.684  76.895  84.872  1.00  0.00     0.163 HD
ATOM      6  O   UNL     1      94.146  76.049  83.104  1.00  0.00    -0.275 OA
BRANCH   4   7
ATOM      7  C   UNL     1      93.262  78.289  84.633  1.00  0.00     0.151 C 
BRANCH   7   8
ATOM      8  C   UNL     1      92.364  79.459  84.446  1.00  0.00    -0.025 A 
ATOM      9  C   UNL     1      91.946  81.877  84.605  1.00  0.00     0.160 A 
ATOM     10  C   UNL     1      90.628  81.679  84.138  1.00  0.00     0.157 A 
ATOM     11  C   UNL     1      92.800  80.766  84.764  1.00  0.00     0.056 A 
ATOM     12  C   UNL     1      90.190  80.385  83.803  1.00  0.00     0.050 A 
ATOM     13  C   UNL     1      91.055  79.284  83.946  1.00  0.00     0.009 A 
BRANCH   9  14
ATOM     14  O   UNL     1      92.411  83.142  84.850  1.00  0.00    -0.493 OA
ATOM     15  C   UNL     1      93.710  83.182  85.463  1.00  0.00     0.278 C 
ENDBRANCH   9  14
BRANCH  10  16
ATOM     16  O   UNL     1      89.766  82.717  83.999  1.00  0.00    -0.504 OA
ATOM     17  H   UNL     1      89.682  83.177  84.837  1.00  0.00     0.293 HD
ENDBRANCH  10  16
ENDBRANCH   7   8
ENDBRANCH   4   7
ENDBRANCH   2   3
ENDBRANCH   1   2
BRANCH   1  18
ATOM     18  C   UNL     1      91.252  74.311  81.408  1.00  0.00     0.001 C 
BRANCH  18  19
ATOM     19  C   UNL     1      91.295  75.471  80.381  1.00  0.00     0.004 C 
BRANCH  19  20
ATOM     20  C   UNL     1      91.283  74.937  78.922  1.00  0.00     0.027 C 
BRANCH  20  21
ATOM     21  C   UNL     1      90.645  75.836  77.975  1.00  0.00    -0.031 C 
ATOM     22  C   UNL     1      91.345  76.541  77.069  1.00  0.00    -0.028 C 
BRANCH  22  23
ATOM     23  C   UNL     1      90.733  77.449  76.102  1.00  0.00     0.005 C 
ATOM     24  C   UNL     1      91.558  78.759  75.996  1.00  0.00     0.012 C 
ATOM     25  C   UNL     1      90.573  76.741  74.729  1.00  0.00     0.012 C 
ENDBRANCH  22  23
ENDBRANCH  20  21
ENDBRANCH  19  20
ENDBRANCH  18  19
ENDBRANCH   1  18
TORSDOF 11
ENDMDL
MODEL 6
REMARK VINA RESULT:    -5.883     22.193     24.724
REMARK INTER + INTRA:         -10.130
REMARK INTER:                  -7.900
REMARK INTRA:                  -2.230
REMARK UNBOUND:                -0.636
REMARK SMILES COc1cc(CNC(=O)CCCCC/C=C/C(C)C)ccc1O
REMARK SMILES IDX 11 1 10 2 8 3 7 4 9 6 6 7 5 8 3 9 22 10 4 11 21 12 20 13
REMARK SMILES IDX 2 14 1 15 23 16 12 18 13 19 14 20 15 21 16 22 17 23 18 24
REMARK SMILES IDX 19 25
REMARK H PARENT 7 5 23 17
REMARK Flexibility Score: inf
ROOT
ATOM      1  C   UNL     1      74.645  89.918  70.045  1.00  0.00     0.010 C 
ENDROOT
BRANCH   1   2
ATOM      2  C   UNL     1      73.136  90.201  69.827  1.00  0.00     0.100 C 
BRANCH   2   3
ATOM      3  C   UNL     1      72.512  89.363  68.786  1.00  0.00     0.220 C 
ATOM      4  N   UNL     1      72.672  88.011  68.818  1.00  0.00    -0.352 N 
ATOM      5  H   UNL     1      73.292  87.677  69.543  1.00  0.00     0.163 HD
ATOM      6  O   UNL     1      71.810  89.924  67.912  1.00  0.00    -0.275 OA
BRANCH   4   7
ATOM      7  C   UNL     1      72.048  87.081  67.935  1.00  0.00     0.151 C 
BRANCH   7   8
ATOM      8  C   UNL     1      72.974  86.575  66.889  1.00  0.00    -0.025 A 
ATOM      9  C   UNL     1      74.063  84.702  65.726  1.00  0.00     0.160 A 
ATOM     10  C   UNL     1      74.784  85.617  64.928  1.00  0.00     0.157 A 
ATOM     11  C   UNL     1      73.172  85.186  66.705  1.00  0.00     0.056 A 
ATOM     12  C   UNL     1      74.582  87.000  65.091  1.00  0.00     0.050 A 
ATOM     13  C   UNL     1      73.676  87.475  66.057  1.00  0.00     0.009 A 
BRANCH   9  14
ATOM     14  O   UNL     1      74.187  83.354  65.516  1.00  0.00    -0.493 OA
ATOM     15  C   UNL     1      73.005  82.731  64.986  1.00  0.00     0.278 C 
ENDBRANCH   9  14
BRANCH  10  16
ATOM     16  O   UNL     1      75.672  85.192  63.994  1.00  0.00    -0.504 OA
ATOM     17  H   UNL     1      76.415  85.799  63.962  1.00  0.00     0.293 HD
ENDBRANCH  10  16
ENDBRANCH   7   8
ENDBRANCH   4   7
ENDBRANCH   2   3
ENDBRANCH   1   2
BRANCH   1  18
ATOM     18  C   UNL     1      75.406  89.872  68.696  1.00  0.00     0.001 C 
BRANCH  18  19
ATOM     19  C   UNL     1      76.806  89.214  68.792  1.00  0.00     0.004 C 
BRANCH  19  20
ATOM     20  C   UNL     1      77.205  88.531  67.454  1.00  0.00     0.027 C 
BRANCH  20  21
ATOM     21  C   UNL     1      77.132  87.080  67.494  1.00  0.00    -0.031 C 
ATOM     22  C   UNL     1      76.398  86.422  68.408  1.00  0.00    -0.028 C 
BRANCH  22  23
ATOM     23  C   UNL     1      76.300  84.966  68.471  1.00  0.00     0.005 C 
ATOM     24  C   UNL     1      77.352  84.315  67.534  1.00  0.00     0.012 C 
ATOM     25  C   UNL     1      76.438  84.482  69.940  1.00  0.00     0.012 C 
ENDBRANCH  22  23
ENDBRANCH  20  21
ENDBRANCH  19  20
ENDBRANCH  18  19
ENDBRANCH   1  18
TORSDOF 11
ENDMDL
MODEL 7
REMARK VINA RESULT:    -5.775      4.585      9.936
REMARK INTER + INTRA:          -9.956
REMARK INTER:                  -9.276
REMARK INTRA:                  -0.680
REMARK UNBOUND:                -0.636
REMARK SMILES COc1cc(CNC(=O)CCCCC/C=C/C(C)C)ccc1O
REMARK SMILES IDX 11 1 10 2 8 3 7 4 9 6 6 7 5 8 3 9 22 10 4 11 21 12 20 13
REMARK SMILES IDX 2 14 1 15 23 16 12 18 13 19 14 20 15 21 16 22 17 23 18 24
REMARK SMILES IDX 19 25
REMARK H PARENT 7 5 23 17
REMARK Flexibility Score: inf
ROOT
ATOM      1  C   UNL     1      96.752  81.396  83.510  1.00  0.00     0.010 C 
ENDROOT
BRANCH   1   2
ATOM      2  C   UNL     1      96.554  81.129  81.996  1.00  0.00     0.100 C 
BRANCH   2   3
ATOM      3  C   UNL     1      97.590  81.734  81.139  1.00  0.00     0.220 C 
ATOM      4  N   UNL     1      97.875  81.182  79.927  1.00  0.00    -0.352 N 
ATOM      5  H   UNL     1      97.384  80.321  79.730  1.00  0.00     0.163 HD
ATOM      6  O   UNL     1      98.158  82.778  81.538  1.00  0.00    -0.275 OA
BRANCH   4   7
ATOM      7  C   UNL     1      98.780  81.719  78.963  1.00  0.00     0.151 C 
BRANCH   7   8
ATOM      8  C   UNL     1      98.101  82.574  77.955  1.00  0.00    -0.025 A 
ATOM      9  C   UNL     1      98.025  83.584  75.714  1.00  0.00     0.160 A 
ATOM     10  C   UNL     1      96.828  84.250  76.055  1.00  0.00     0.157 A 
ATOM     11  C   UNL     1      98.657  82.759  76.668  1.00  0.00     0.056 A 
ATOM     12  C   UNL     1      96.258  84.059  77.327  1.00  0.00     0.050 A 
ATOM     13  C   UNL     1      96.884  83.220  78.267  1.00  0.00     0.009 A 
BRANCH   9  14
ATOM     14  O   UNL     1      98.542  83.692  74.450  1.00  0.00    -0.493 OA
ATOM     15  C   UNL     1      99.679  84.567  74.353  1.00  0.00     0.278 C 
ENDBRANCH   9  14
BRANCH  10  16
ATOM     16  O   UNL     1      96.205  85.074  75.176  1.00  0.00    -0.504 OA
ATOM     17  H   UNL     1      95.416  84.642  74.838  1.00  0.00     0.293 HD
ENDBRANCH  10  16
ENDBRANCH   7   8
ENDBRANCH   4   7
ENDBRANCH   2   3
ENDBRANCH   1   2
BRANCH   1  18
ATOM     18  C   UNL     1      95.784  82.497  84.015  1.00  0.00     0.001 C 
BRANCH  18  19
ATOM     19  C   UNL     1      94.937  82.068  85.240  1.00  0.00     0.004 C 
BRANCH  19  20
ATOM     20  C   UNL     1      94.231  80.706  84.992  1.00  0.00     0.027 C 
BRANCH  20  21
ATOM     21  C   UNL     1      92.780  80.787  85.015  1.00  0.00    -0.031 C 
ATOM     22  C   UNL     1      92.046  80.860  83.891  1.00  0.00    -0.028 C 
BRANCH  22  23
ATOM     23  C   UNL     1      90.587  80.937  83.881  1.00  0.00     0.005 C 
ATOM     24  C   UNL     1      89.972  79.533  84.123  1.00  0.00     0.012 C 
ATOM     25  C   UNL     1      90.098  81.982  84.920  1.00  0.00     0.012 C 
ENDBRANCH  22  23
ENDBRANCH  20  21
ENDBRANCH  19  20
ENDBRANCH  18  19
ENDBRANCH   1  18
TORSDOF 11
ENDMDL
MODEL 8
REMARK VINA RESULT:    -5.755     20.738     23.034
REMARK INTER + INTRA:          -9.923
REMARK INTER:                  -9.140
REMARK INTRA:                  -0.783
REMARK UNBOUND:                -0.636
REMARK SMILES COc1cc(CNC(=O)CCCCC/C=C/C(C)C)ccc1O
REMARK SMILES IDX 11 1 10 2 8 3 7 4 9 6 6 7 5 8 3 9 22 10 4 11 21 12 20 13
REMARK SMILES IDX 2 14 1 15 23 16 12 18 13 19 14 20 15 21 16 22 17 23 18 24
REMARK SMILES IDX 19 25
REMARK H PARENT 7 5 23 17
REMARK Flexibility Score: inf
ROOT
ATOM      1  C   UNL     1      74.590  90.350  70.658  1.00  0.00     0.010 C 
ENDROOT
BRANCH   1   2
ATOM      2  C   UNL     1      73.293  90.723  71.422  1.00  0.00     0.100 C 
BRANCH   2   3
ATOM      3  C   UNL     1      73.368  92.010  72.139  1.00  0.00     0.220 C 
ATOM      4  N   UNL     1      74.433  92.835  71.941  1.00  0.00    -0.352 N 
ATOM      5  H   UNL     1      75.156  92.455  71.346  1.00  0.00     0.163 HD
ATOM      6  O   UNL     1      72.417  92.329  72.892  1.00  0.00    -0.275 OA
BRANCH   4   7
ATOM      7  C   UNL     1      74.583  94.142  72.493  1.00  0.00     0.151 C 
BRANCH   7   8
ATOM      8  C   UNL     1      75.702  94.226  73.468  1.00  0.00    -0.025 A 
ATOM      9  C   UNL     1      77.969  94.974  74.057  1.00  0.00     0.160 A 
ATOM     10  C   UNL     1      77.852  94.336  75.312  1.00  0.00     0.157 A 
ATOM     11  C   UNL     1      76.898  94.907  73.143  1.00  0.00     0.056 A 
ATOM     12  C   UNL     1      76.661  93.671  75.652  1.00  0.00     0.050 A 
ATOM     13  C   UNL     1      75.589  93.625  74.741  1.00  0.00     0.009 A 
BRANCH   9  14
ATOM     14  O   UNL     1      79.090  95.699  73.751  1.00  0.00    -0.493 OA
ATOM     15  C   UNL     1      78.827  97.067  73.397  1.00  0.00     0.278 C 
ENDBRANCH   9  14
BRANCH  10  16
ATOM     16  O   UNL     1      78.870  94.353  76.209  1.00  0.00    -0.504 OA
ATOM     17  H   UNL     1      78.898  93.514  76.675  1.00  0.00     0.293 HD
ENDBRANCH  10  16
ENDBRANCH   7   8
ENDBRANCH   4   7
ENDBRANCH   2   3
ENDBRANCH   1   2
BRANCH   1  18
ATOM     18  C   UNL     1      74.266  89.769  69.258  1.00  0.00     0.001 C 
BRANCH  18  19
ATOM     19  C   UNL     1      75.500  89.181  68.527  1.00  0.00     0.004 C 
BRANCH  19  20
ATOM     20  C   UNL     1      75.075  88.257  67.351  1.00  0.00     0.027 C 
BRANCH  20  21
ATOM     21  C   UNL     1      75.388  86.855  67.567  1.00  0.00    -0.031 C 
ATOM     22  C   UNL     1      75.276  86.271  68.773  1.00  0.00    -0.028 C 
BRANCH  22  23
ATOM     23  C   UNL     1      75.577  84.863  69.022  1.00  0.00     0.005 C 
ATOM     24  C   UNL     1      76.605  84.341  67.983  1.00  0.00     0.012 C 
ATOM     25  C   UNL     1      76.065  84.669  70.483  1.00  0.00     0.012 C 
ENDBRANCH  22  23
ENDBRANCH  20  21
ENDBRANCH  19  20
ENDBRANCH  18  19
ENDBRANCH   1  18
TORSDOF 11
ENDMDL
MODEL 9
REMARK VINA RESULT:    -5.563     14.463     17.049
REMARK INTER + INTRA:          -9.614
REMARK INTER:                  -8.879
REMARK INTRA:                  -0.735
REMARK UNBOUND:                -0.636
REMARK SMILES COc1cc(CNC(=O)CCCCC/C=C/C(C)C)ccc1O
REMARK SMILES IDX 11 1 10 2 8 3 7 4 9 6 6 7 5 8 3 9 22 10 4 11 21 12 20 13
REMARK SMILES IDX 2 14 1 15 23 16 12 18 13 19 14 20 15 21 16 22 17 23 18 24
REMARK SMILES IDX 19 25
REMARK H PARENT 7 5 23 17
REMARK Flexibility Score: inf
ROOT
ATOM      1  C   UNL     1      94.656  96.175  77.641  1.00  0.00     0.010 C 
ENDROOT
BRANCH   1   2
ATOM      2  C   UNL     1      94.556  97.508  78.427  1.00  0.00     0.100 C 
BRANCH   2   3
ATOM      3  C   UNL     1      95.668  97.735  79.368  1.00  0.00     0.220 C 
ATOM      4  N   UNL     1      96.384  98.892  79.305  1.00  0.00    -0.352 N 
ATOM      5  H   UNL     1      96.133  99.501  78.538  1.00  0.00     0.163 HD
ATOM      6  O   UNL     1      95.901  96.862  80.238  1.00  0.00    -0.275 OA
BRANCH   4   7
ATOM      7  C   UNL     1      97.416  99.279  80.210  1.00  0.00     0.151 C 
BRANCH   7   8
ATOM      8  C   UNL     1      96.888  99.708  81.531  1.00  0.00    -0.025 A 
ATOM      9  C   UNL     1      96.961  99.632  83.988  1.00  0.00     0.160 A 
ATOM     10  C   UNL     1      95.839 100.487  84.047  1.00  0.00     0.157 A 
ATOM     11  C   UNL     1      97.470  99.242  82.733  1.00  0.00     0.056 A 
ATOM     12  C   UNL     1      95.262 100.970  82.858  1.00  0.00     0.050 A 
ATOM     13  C   UNL     1      95.788 100.592  81.609  1.00  0.00     0.009 A 
BRANCH   9  14
ATOM     14  O   UNL     1      97.584  99.227  85.138  1.00  0.00    -0.493 OA
ATOM     15  C   UNL     1      98.834  99.889  85.394  1.00  0.00     0.278 C 
ENDBRANCH   9  14
BRANCH  10  16
ATOM     16  O   UNL     1      95.301 100.863  85.234  1.00  0.00    -0.504 OA
ATOM     17  H   UNL     1      95.752 100.406  85.948  1.00  0.00     0.293 HD
ENDBRANCH  10  16
ENDBRANCH   7   8
ENDBRANCH   4   7
ENDBRANCH   2   3
ENDBRANCH   1   2
BRANCH   1  18
ATOM     18  C   UNL     1      93.826  95.058  78.324  1.00  0.00     0.001 C 
BRANCH  18  19
ATOM     19  C   UNL     1      92.339  95.035  77.891  1.00  0.00     0.004 C 
BRANCH  19  20
ATOM     20  C   UNL     1      92.166  95.526  76.427  1.00  0.00     0.027 C 
BRANCH  20  21
ATOM     21  C   UNL     1      91.316  94.668  75.619  1.00  0.00    -0.031 C 
ATOM     22  C   UNL     1      90.759  93.544  76.105  1.00  0.00    -0.028 C 
BRANCH  22  23
ATOM     23  C   UNL     1      89.896  92.664  75.322  1.00  0.00     0.005 C 
ATOM     24  C   UNL     1      90.478  92.471  73.896  1.00  0.00     0.012 C 
ATOM     25  C   UNL     1      89.692  91.314  76.062  1.00  0.00     0.012 C 
ENDBRANCH  22  23
ENDBRANCH  20  21
ENDBRANCH  19  20
ENDBRANCH  18  19
ENDBRANCH   1  18
TORSDOF 11
ENDMDL
MODEL 10
REMARK VINA RESULT:    -5.563     29.347     32.794
REMARK INTER + INTRA:          -9.614
REMARK INTER:                  -7.412
REMARK INTRA:                  -2.202
REMARK UNBOUND:                -0.636
REMARK SMILES COc1cc(CNC(=O)CCCCC/C=C/C(C)C)ccc1O
REMARK SMILES IDX 11 1 10 2 8 3 7 4 9 6 6 7 5 8 3 9 22 10 4 11 21 12 20 13
REMARK SMILES IDX 2 14 1 15 23 16 12 18 13 19 14 20 15 21 16 22 17 23 18 24
REMARK SMILES IDX 19 25
REMARK H PARENT 7 5 23 17
REMARK Flexibility Score: inf
ROOT
ATOM      1  C   UNL     1      64.661  65.474  77.875  1.00  0.00     0.010 C 
ENDROOT
BRANCH   1   2
ATOM      2  C   UNL     1      63.138  65.257  77.680  1.00  0.00     0.100 C 
BRANCH   2   3
ATOM      3  C   UNL     1      62.346  65.416  78.913  1.00  0.00     0.220 C 
ATOM      4  N   UNL     1      62.612  66.447  79.762  1.00  0.00    -0.352 N 
ATOM      5  H   UNL     1      63.414  67.007  79.506  1.00  0.00     0.163 HD
ATOM      6  O   UNL     1      61.410  64.610  79.128  1.00  0.00    -0.275 OA
BRANCH   4   7
ATOM      7  C   UNL     1      61.865  66.773  80.933  1.00  0.00     0.151 C 
BRANCH   7   8
ATOM      8  C   UNL     1      62.225  68.102  81.491  1.00  0.00    -0.025 A 
ATOM      9  C   UNL     1      62.224  69.708  83.353  1.00  0.00     0.160 A 
ATOM     10  C   UNL     1      62.868  70.659  82.532  1.00  0.00     0.157 A 
ATOM     11  C   UNL     1      61.899  68.442  82.824  1.00  0.00     0.056 A 
ATOM     12  C   UNL     1      63.212  70.326  81.209  1.00  0.00     0.050 A 
ATOM     13  C   UNL     1      62.902  69.053  80.695  1.00  0.00     0.009 A 
BRANCH   9  14
ATOM     14  O   UNL     1      61.963  69.992  84.667  1.00  0.00    -0.493 OA
ATOM     15  C   UNL     1      62.621  69.116  85.598  1.00  0.00     0.278 C 
ENDBRANCH   9  14
BRANCH  10  16
ATOM     16  O   UNL     1      63.172  71.898  82.993  1.00  0.00    -0.504 OA
ATOM     17  H   UNL     1      63.954  71.850  83.548  1.00  0.00     0.293 HD
ENDBRANCH  10  16
ENDBRANCH   7   8
ENDBRANCH   4   7
ENDBRANCH   2   3
ENDBRANCH   1   2
BRANCH   1  18
ATOM     18  C   UNL     1      65.369  64.152  78.266  1.00  0.00     0.001 C 
BRANCH  18  19
ATOM     19  C   UNL     1      66.304  64.285  79.495  1.00  0.00     0.004 C 
BRANCH  19  20
ATOM     20  C   UNL     1      65.504  64.637  80.780  1.00  0.00     0.027 C 
BRANCH  20  21
ATOM     21  C   UNL     1      66.041  65.773  81.510  1.00  0.00    -0.031 C 
ATOM     22  C   UNL     1      65.963  67.031  81.040  1.00  0.00    -0.028 C 
BRANCH  22  23
ATOM     23  C   UNL     1      66.488  68.194  81.751  1.00  0.00     0.005 C 
ATOM     24  C   UNL     1      65.779  68.351  83.122  1.00  0.00     0.012 C 
ATOM     25  C   UNL     1      68.030  68.086  81.893  1.00  0.00     0.012 C 
ENDBRANCH  22  23
ENDBRANCH  20  21
ENDBRANCH  19  20
ENDBRANCH  18  19
ENDBRANCH   1  18
TORSDOF 11
ENDMDL
