MODEL 1
REMARK VINA RESULT:    -5.458      0.000      0.000
REMARK INTER + INTRA:         -10.692
REMARK INTER:                  -8.809
REMARK INTRA:                  -1.884
REMARK UNBOUND:                -1.884
REMARK SMILES COc1cc(CNC(=O)CCCCCCC(C)C)ccc1O
REMARK SMILES IDX 11 1 10 2 8 3 7 4 9 6 6 7 5 8 3 9 21 10 4 11 20 12 19 13
REMARK SMILES IDX 2 14 1 15 22 16 12 18 13 19 14 20 15 21 16 22 17 23 18 24
REMARK H PARENT 7 5 22 17
REMARK Flexibility Score: inf
ROOT
ATOM      1  C   UNL     1      87.280  99.881  66.831  1.00  0.00     0.010 C 
ENDROOT
BRANCH   1   2
ATOM      2  C   UNL     1      88.509  99.005  66.460  1.00  0.00     0.100 C 
BRANCH   2   3
ATOM      3  C   UNL     1      89.271  98.537  67.640  1.00  0.00     0.220 C 
ATOM      4  N   UNL     1      89.008  99.049  68.877  1.00  0.00    -0.352 N 
ATOM      5  H   UNL     1      88.307  99.775  68.892  1.00  0.00     0.163 HD
ATOM      6  O   UNL     1      90.141  97.647  67.480  1.00  0.00    -0.275 OA
BRANCH   4   7
ATOM      7  C   UNL     1      89.638  98.634  70.094  1.00  0.00     0.151 C 
BRANCH   7   8
ATOM      8  C   UNL     1      90.426  99.715  70.745  1.00  0.00    -0.025 A 
ATOM      9  C   UNL     1      92.504 100.491  71.809  1.00  0.00     0.160 A 
ATOM     10  C   UNL     1      91.953 101.783  71.948  1.00  0.00     0.157 A 
ATOM     11  C   UNL     1      91.731  99.464  71.227  1.00  0.00     0.056 A 
ATOM     12  C   UNL     1      90.641 102.036  71.508  1.00  0.00     0.050 A 
ATOM     13  C   UNL     1      89.886 101.014  70.901  1.00  0.00     0.009 A 
BRANCH   9  14
ATOM     14  O   UNL     1      93.764 100.224  72.270  1.00  0.00    -0.493 OA
ATOM     15  C   UNL     1      93.787  99.423  73.466  1.00  0.00     0.278 C 
ENDBRANCH   9  14
BRANCH  10  16
ATOM     16  O   UNL     1      92.673 102.791  72.507  1.00  0.00    -0.504 OA
ATOM     17  H   UNL     1      93.427 102.992  71.947  1.00  0.00     0.293 HD
ENDBRANCH  10  16
ENDBRANCH   7   8
ENDBRANCH   4   7
ENDBRANCH   2   3
ENDBRANCH   1   2
BRANCH   1  18
ATOM     18  C   UNL     1      87.416 101.337  66.300  1.00  0.00     0.001 C 
BRANCH  18  19
ATOM     19  C   UNL     1      88.309 102.247  67.189  1.00  0.00     0.000 C 
BRANCH  19  20
ATOM     20  C   UNL     1      89.077 103.299  66.341  1.00  0.00     0.000 C 
BRANCH  20  21
ATOM     21  C   UNL     1      90.604 103.035  66.228  1.00  0.00     0.003 C 
BRANCH  21  22
ATOM     22  C   UNL     1      91.035 101.565  66.543  1.00  0.00    -0.017 C 
ATOM     23  C   UNL     1      92.020 101.533  67.745  1.00  0.00     0.007 C 
ATOM     24  C   UNL     1      91.643 100.816  65.320  1.00  0.00     0.007 C 
ENDBRANCH  21  22
ENDBRANCH  20  21
ENDBRANCH  19  20
ENDBRANCH  18  19
ENDBRANCH   1  18
TORSDOF 11
ENDMDL
MODEL 2
REMARK VINA RESULT:    -5.431      0.773      2.018
REMARK INTER + INTRA:         -10.648
REMARK INTER:                  -8.740
REMARK INTRA:                  -1.909
REMARK UNBOUND:                -1.884
REMARK SMILES COc1cc(CNC(=O)CCCCCCC(C)C)ccc1O
REMARK SMILES IDX 11 1 10 2 8 3 7 4 9 6 6 7 5 8 3 9 21 10 4 11 20 12 19 13
REMARK SMILES IDX 2 14 1 15 22 16 12 18 13 19 14 20 15 21 16 22 17 23 18 24
REMARK H PARENT 7 5 22 17
REMARK Flexibility Score: inf
ROOT
ATOM      1  C   UNL     1      87.399  99.772  66.878  1.00  0.00     0.010 C 
ENDROOT
BRANCH   1   2
ATOM      2  C   UNL     1      88.657  98.927  66.536  1.00  0.00     0.100 C 
BRANCH   2   3
ATOM      3  C   UNL     1      89.402  98.477  67.734  1.00  0.00     0.220 C 
ATOM      4  N   UNL     1      89.123  99.009  68.959  1.00  0.00    -0.352 N 
ATOM      5  H   UNL     1      88.424  99.736  68.953  1.00  0.00     0.163 HD
ATOM      6  O   UNL     1      90.273  97.583  67.599  1.00  0.00    -0.275 OA
BRANCH   4   7
ATOM      7  C   UNL     1      89.735  98.611  70.191  1.00  0.00     0.151 C 
BRANCH   7   8
ATOM      8  C   UNL     1      90.524  99.699  70.831  1.00  0.00    -0.025 A 
ATOM      9  C   UNL     1      90.754 102.056  71.494  1.00  0.00     0.160 A 
ATOM     10  C   UNL     1      92.002 101.769  72.089  1.00  0.00     0.157 A 
ATOM     11  C   UNL     1      90.035 101.025  70.854  1.00  0.00     0.056 A 
ATOM     12  C   UNL     1      92.518 100.462  72.039  1.00  0.00     0.050 A 
ATOM     13  C   UNL     1      91.781  99.431  71.424  1.00  0.00     0.009 A 
BRANCH   9  14
ATOM     14  O   UNL     1      90.262 103.333  71.503  1.00  0.00    -0.493 OA
ATOM     15  C   UNL     1      90.382 104.010  70.238  1.00  0.00     0.278 C 
ENDBRANCH   9  14
BRANCH  10  16
ATOM     16  O   UNL     1      92.718 102.743  72.711  1.00  0.00    -0.504 OA
ATOM     17  H   UNL     1      92.235 103.052  73.481  1.00  0.00     0.293 HD
ENDBRANCH  10  16
ENDBRANCH   7   8
ENDBRANCH   4   7
ENDBRANCH   2   3
ENDBRANCH   1   2
BRANCH   1  18
ATOM     18  C   UNL     1      87.497 101.222  66.323  1.00  0.00     0.001 C 
BRANCH  18  19
ATOM     19  C   UNL     1      88.349 102.175  67.207  1.00  0.00     0.000 C 
BRANCH  19  20
ATOM     20  C   UNL     1      89.086 103.243  66.352  1.00  0.00     0.000 C 
BRANCH  20  21
ATOM     21  C   UNL     1      90.613 102.997  66.202  1.00  0.00     0.003 C 
BRANCH  21  22
ATOM     22  C   UNL     1      91.062 101.521  66.457  1.00  0.00    -0.017 C 
ATOM     23  C   UNL     1      92.038 101.451  67.665  1.00  0.00     0.007 C 
ATOM     24  C   UNL     1      91.689 100.834  65.209  1.00  0.00     0.007 C 
ENDBRANCH  21  22
ENDBRANCH  20  21
ENDBRANCH  19  20
ENDBRANCH  18  19
ENDBRANCH   1  18
TORSDOF 11
ENDMDL
MODEL 3
REMARK VINA RESULT:    -5.205     19.615     22.815
REMARK INTER + INTRA:         -10.284
REMARK INTER:                  -9.165
REMARK INTRA:                  -1.119
REMARK UNBOUND:                -1.884
REMARK SMILES COc1cc(CNC(=O)CCCCCCC(C)C)ccc1O
REMARK SMILES IDX 11 1 10 2 8 3 7 4 9 6 6 7 5 8 3 9 21 10 4 11 20 12 19 13
REMARK SMILES IDX 2 14 1 15 22 16 12 18 13 19 14 20 15 21 16 22 17 23 18 24
REMARK H PARENT 7 5 22 17
REMARK Flexibility Score: inf
ROOT
ATOM      1  C   UNL     1      77.201  86.826  67.175  1.00  0.00     0.010 C 
ENDROOT
BRANCH   1   2
ATOM      2  C   UNL     1      76.479  86.034  68.299  1.00  0.00     0.100 C 
BRANCH   2   3
ATOM      3  C   UNL     1      75.012  85.965  68.117  1.00  0.00     0.220 C 
ATOM      4  N   UNL     1      74.475  85.907  66.864  1.00  0.00    -0.352 N 
ATOM      5  H   UNL     1      75.149  85.961  66.114  1.00  0.00     0.163 HD
ATOM      6  O   UNL     1      74.279  85.936  69.136  1.00  0.00    -0.275 OA
BRANCH   4   7
ATOM      7  C   UNL     1      73.080  85.780  66.567  1.00  0.00     0.151 C 
BRANCH   7   8
ATOM      8  C   UNL     1      72.695  84.409  66.133  1.00  0.00    -0.025 A 
ATOM      9  C   UNL     1      73.333  82.151  65.398  1.00  0.00     0.160 A 
ATOM     10  C   UNL     1      71.972  81.781  65.346  1.00  0.00     0.157 A 
ATOM     11  C   UNL     1      73.683  83.465  65.772  1.00  0.00     0.056 A 
ATOM     12  C   UNL     1      70.977  82.723  65.665  1.00  0.00     0.050 A 
ATOM     13  C   UNL     1      71.335  84.025  66.066  1.00  0.00     0.009 A 
BRANCH   9  14
ATOM     14  O   UNL     1      74.307  81.254  65.052  1.00  0.00    -0.493 OA
ATOM     15  C   UNL     1      75.625  81.826  64.983  1.00  0.00     0.278 C 
ENDBRANCH   9  14
BRANCH  10  16
ATOM     16  O   UNL     1      71.605  80.522  64.988  1.00  0.00    -0.504 OA
ATOM     17  H   UNL     1      70.708  80.535  64.647  1.00  0.00     0.293 HD
ENDBRANCH  10  16
ENDBRANCH   7   8
ENDBRANCH   4   7
ENDBRANCH   2   3
ENDBRANCH   1   2
BRANCH   1  18
ATOM     18  C   UNL     1      77.481  88.301  67.583  1.00  0.00     0.001 C 
BRANCH  18  19
ATOM     19  C   UNL     1      76.702  89.345  66.734  1.00  0.00     0.000 C 
BRANCH  19  20
ATOM     20  C   UNL     1      75.283  89.609  67.314  1.00  0.00     0.000 C 
BRANCH  20  21
ATOM     21  C   UNL     1      75.229  89.660  68.866  1.00  0.00     0.003 C 
BRANCH  21  22
ATOM     22  C   UNL     1      75.053  91.094  69.463  1.00  0.00    -0.017 C 
ATOM     23  C   UNL     1      73.785  91.159  70.359  1.00  0.00     0.007 C 
ATOM     24  C   UNL     1      75.018  92.220  68.387  1.00  0.00     0.007 C 
ENDBRANCH  21  22
ENDBRANCH  20  21
ENDBRANCH  19  20
ENDBRANCH  18  19
ENDBRANCH   1  18
TORSDOF 11
ENDMDL
MODEL 4
REMARK VINA RESULT:    -5.203     20.153     23.458
REMARK INTER + INTRA:         -10.280
REMARK INTER:                  -8.716
REMARK INTRA:                  -1.564
REMARK UNBOUND:                -1.884
REMARK SMILES COc1cc(CNC(=O)CCCCCCC(C)C)ccc1O
REMARK SMILES IDX 11 1 10 2 8 3 7 4 9 6 6 7 5 8 3 9 21 10 4 11 20 12 19 13
REMARK SMILES IDX 2 14 1 15 22 16 12 18 13 19 14 20 15 21 16 22 17 23 18 24
REMARK H PARENT 7 5 22 17
REMARK Flexibility Score: inf
ROOT
ATOM      1  C   UNL     1      77.523  87.589  67.075  1.00  0.00     0.010 C 
ENDROOT
BRANCH   1   2
ATOM      2  C   UNL     1      77.222  86.200  67.702  1.00  0.00     0.100 C 
BRANCH   2   3
ATOM      3  C   UNL     1      77.145  85.111  66.703  1.00  0.00     0.220 C 
ATOM      4  N   UNL     1      76.315  85.222  65.625  1.00  0.00    -0.352 N 
ATOM      5  H   UNL     1      75.756  86.062  65.609  1.00  0.00     0.163 HD
ATOM      6  O   UNL     1      77.874  84.100  66.856  1.00  0.00    -0.275 OA
BRANCH   4   7
ATOM      7  C   UNL     1      76.201  84.263  64.568  1.00  0.00     0.151 C 
BRANCH   7   8
ATOM      8  C   UNL     1      75.054  83.330  64.745  1.00  0.00    -0.025 A 
ATOM      9  C   UNL     1      72.764  82.638  64.176  1.00  0.00     0.160 A 
ATOM     10  C   UNL     1      72.880  81.530  65.043  1.00  0.00     0.157 A 
ATOM     11  C   UNL     1      73.843  83.538  64.048  1.00  0.00     0.056 A 
ATOM     12  C   UNL     1      74.067  81.334  65.772  1.00  0.00     0.050 A 
ATOM     13  C   UNL     1      75.151  82.220  65.617  1.00  0.00     0.009 A 
BRANCH   9  14
ATOM     14  O   UNL     1      71.600  82.861  63.492  1.00  0.00    -0.493 OA
ATOM     15  C   UNL     1      70.761  83.867  64.088  1.00  0.00     0.278 C 
ENDBRANCH   9  14
BRANCH  10  16
ATOM     16  O   UNL     1      71.857  80.648  65.187  1.00  0.00    -0.504 OA
ATOM     17  H   UNL     1      71.652  80.546  66.120  1.00  0.00     0.293 HD
ENDBRANCH  10  16
ENDBRANCH   7   8
ENDBRANCH   4   7
ENDBRANCH   2   3
ENDBRANCH   1   2
BRANCH   1  18
ATOM     18  C   UNL     1      76.400  88.623  67.372  1.00  0.00     0.001 C 
BRANCH  18  19
ATOM     19  C   UNL     1      75.076  88.347  66.606  1.00  0.00     0.000 C 
BRANCH  19  20
ATOM     20  C   UNL     1      73.850  88.355  67.561  1.00  0.00     0.000 C 
BRANCH  20  21
ATOM     21  C   UNL     1      74.084  87.607  68.903  1.00  0.00     0.003 C 
BRANCH  21  22
ATOM     22  C   UNL     1      73.543  86.140  68.933  1.00  0.00    -0.017 C 
ATOM     23  C   UNL     1      74.454  85.243  69.817  1.00  0.00     0.007 C 
ATOM     24  C   UNL     1      73.364  85.511  67.520  1.00  0.00     0.007 C 
ENDBRANCH  21  22
ENDBRANCH  20  21
ENDBRANCH  19  20
ENDBRANCH  18  19
ENDBRANCH   1  18
TORSDOF 11
ENDMDL
MODEL 5
REMARK VINA RESULT:    -4.950      7.831     10.492
REMARK INTER + INTRA:          -9.872
REMARK INTER:                  -9.106
REMARK INTRA:                  -0.766
REMARK UNBOUND:                -1.884
REMARK SMILES COc1cc(CNC(=O)CCCCCCC(C)C)ccc1O
REMARK SMILES IDX 11 1 10 2 8 3 7 4 9 6 6 7 5 8 3 9 21 10 4 11 20 12 19 13
REMARK SMILES IDX 2 14 1 15 22 16 12 18 13 19 14 20 15 21 16 22 17 23 18 24
REMARK H PARENT 7 5 22 17
REMARK Flexibility Score: inf
ROOT
ATOM      1  C   UNL     1      95.004  97.272  74.804  1.00  0.00     0.010 C 
ENDROOT
BRANCH   1   2
ATOM      2  C   UNL     1      93.749  96.363  74.689  1.00  0.00     0.100 C 
BRANCH   2   3
ATOM      3  C   UNL     1      93.822  95.155  75.540  1.00  0.00     0.220 C 
ATOM      4  N   UNL     1      93.417  95.203  76.842  1.00  0.00    -0.352 N 
ATOM      5  H   UNL     1      93.122  96.115  77.158  1.00  0.00     0.163 HD
ATOM      6  O   UNL     1      94.238  94.085  75.031  1.00  0.00    -0.275 OA
BRANCH   4   7
ATOM      7  C   UNL     1      93.388  94.088  77.740  1.00  0.00     0.151 C 
BRANCH   7   8
ATOM      8  C   UNL     1      94.413  94.174  78.816  1.00  0.00    -0.025 A 
ATOM      9  C   UNL     1      96.025  95.497  80.120  1.00  0.00     0.160 A 
ATOM     10  C   UNL     1      96.337  94.357  80.894  1.00  0.00     0.157 A 
ATOM     11  C   UNL     1      95.082  95.392  79.077  1.00  0.00     0.056 A 
ATOM     12  C   UNL     1      95.707  93.130  80.618  1.00  0.00     0.050 A 
ATOM     13  C   UNL     1      94.744  93.040  79.594  1.00  0.00     0.009 A 
BRANCH   9  14
ATOM     14  O   UNL     1      96.661  96.686  80.354  1.00  0.00    -0.493 OA
ATOM     15  C   UNL     1      97.417  97.170  79.229  1.00  0.00     0.278 C 
ENDBRANCH   9  14
BRANCH  10  16
ATOM     16  O   UNL     1      97.243  94.428  81.904  1.00  0.00    -0.504 OA
ATOM     17  H   UNL     1      96.782  94.443  82.746  1.00  0.00     0.293 HD
ENDBRANCH  10  16
ENDBRANCH   7   8
ENDBRANCH   4   7
ENDBRANCH   2   3
ENDBRANCH   1   2
BRANCH   1  18
ATOM     18  C   UNL     1      96.195  96.736  73.960  1.00  0.00     0.001 C 
BRANCH  18  19
ATOM     19  C   UNL     1      95.778  96.179  72.570  1.00  0.00     0.000 C 
BRANCH  19  20
ATOM     20  C   UNL     1      95.984  97.233  71.446  1.00  0.00     0.000 C 
BRANCH  20  21
ATOM     21  C   UNL     1      97.454  97.372  70.964  1.00  0.00     0.003 C 
BRANCH  21  22
ATOM     22  C   UNL     1      97.684  97.004  69.462  1.00  0.00    -0.017 C 
ATOM     23  C   UNL     1      99.189  96.718  69.196  1.00  0.00     0.007 C 
ATOM     24  C   UNL     1      97.148  98.075  68.466  1.00  0.00     0.007 C 
ENDBRANCH  21  22
ENDBRANCH  20  21
ENDBRANCH  19  20
ENDBRANCH  18  19
ENDBRANCH   1  18
TORSDOF 11
ENDMDL
MODEL 6
REMARK VINA RESULT:    -4.935     20.540     23.333
REMARK INTER + INTRA:          -9.848
REMARK INTER:                  -8.380
REMARK INTRA:                  -1.467
REMARK UNBOUND:                -1.884
REMARK SMILES COc1cc(CNC(=O)CCCCCCC(C)C)ccc1O
REMARK SMILES IDX 11 1 10 2 8 3 7 4 9 6 6 7 5 8 3 9 21 10 4 11 20 12 19 13
REMARK SMILES IDX 2 14 1 15 22 16 12 18 13 19 14 20 15 21 16 22 17 23 18 24
REMARK H PARENT 7 5 22 17
REMARK Flexibility Score: inf
ROOT
ATOM      1  C   UNL     1      70.531  83.888  65.616  1.00  0.00     0.010 C 
ENDROOT
BRANCH   1   2
ATOM      2  C   UNL     1      70.322  84.568  66.998  1.00  0.00     0.100 C 
BRANCH   2   3
ATOM      3  C   UNL     1      71.231  85.712  67.230  1.00  0.00     0.220 C 
ATOM      4  N   UNL     1      71.782  85.916  68.461  1.00  0.00    -0.352 N 
ATOM      5  H   UNL     1      71.482  85.263  69.170  1.00  0.00     0.163 HD
ATOM      6  O   UNL     1      71.501  86.471  66.267  1.00  0.00    -0.275 OA
BRANCH   4   7
ATOM      7  C   UNL     1      72.716  86.950  68.787  1.00  0.00     0.151 C 
BRANCH   7   8
ATOM      8  C   UNL     1      74.136  86.517  68.672  1.00  0.00    -0.025 A 
ATOM      9  C   UNL     1      76.427  86.920  67.874  1.00  0.00     0.160 A 
ATOM     10  C   UNL     1      76.853  85.720  68.485  1.00  0.00     0.157 A 
ATOM     11  C   UNL     1      75.071  87.299  67.956  1.00  0.00     0.056 A 
ATOM     12  C   UNL     1      75.924  84.913  69.166  1.00  0.00     0.050 A 
ATOM     13  C   UNL     1      74.577  85.313  69.269  1.00  0.00     0.009 A 
BRANCH   9  14
ATOM     14  O   UNL     1      77.315  87.692  67.175  1.00  0.00    -0.493 OA
ATOM     15  C   UNL     1      76.819  89.006  66.861  1.00  0.00     0.278 C 
ENDBRANCH   9  14
BRANCH  10  16
ATOM     16  O   UNL     1      78.153  85.329  68.420  1.00  0.00    -0.504 OA
ATOM     17  H   UNL     1      78.625  85.890  67.801  1.00  0.00     0.293 HD
ENDBRANCH  10  16
ENDBRANCH   7   8
ENDBRANCH   4   7
ENDBRANCH   2   3
ENDBRANCH   1   2
BRANCH   1  18
ATOM     18  C   UNL     1      69.952  82.445  65.579  1.00  0.00     0.001 C 
BRANCH  18  19
ATOM     19  C   UNL     1      71.016  81.350  65.284  1.00  0.00     0.000 C 
BRANCH  19  20
ATOM     20  C   UNL     1      72.160  81.893  64.382  1.00  0.00     0.000 C 
BRANCH  20  21
ATOM     21  C   UNL     1      73.581  81.427  64.804  1.00  0.00     0.003 C 
BRANCH  21  22
ATOM     22  C   UNL     1      74.637  82.575  64.912  1.00  0.00    -0.017 C 
ATOM     23  C   UNL     1      76.050  81.989  65.190  1.00  0.00     0.007 C 
ATOM     24  C   UNL     1      74.278  83.658  65.972  1.00  0.00     0.007 C 
ENDBRANCH  21  22
ENDBRANCH  20  21
ENDBRANCH  19  20
ENDBRANCH  18  19
ENDBRANCH   1  18
TORSDOF 11
ENDMDL
MODEL 7
REMARK VINA RESULT:    -4.869     19.388     22.506
REMARK INTER + INTRA:          -9.741
REMARK INTER:                  -8.639
REMARK INTRA:                  -1.103
REMARK UNBOUND:                -1.884
REMARK SMILES COc1cc(CNC(=O)CCCCCCC(C)C)ccc1O
REMARK SMILES IDX 11 1 10 2 8 3 7 4 9 6 6 7 5 8 3 9 21 10 4 11 20 12 19 13
REMARK SMILES IDX 2 14 1 15 22 16 12 18 13 19 14 20 15 21 16 22 17 23 18 24
REMARK H PARENT 7 5 22 17
REMARK Flexibility Score: inf
ROOT
ATOM      1  C   UNL     1     102.705  79.075  76.475  1.00  0.00     0.010 C 
ENDROOT
BRANCH   1   2
ATOM      2  C   UNL     1     102.130  79.558  77.835  1.00  0.00     0.100 C 
BRANCH   2   3
ATOM      3  C   UNL     1     100.678  79.309  77.977  1.00  0.00     0.220 C 
ATOM      4  N   UNL     1      99.812  80.351  78.134  1.00  0.00    -0.352 N 
ATOM      5  H   UNL     1     100.250  81.259  78.187  1.00  0.00     0.163 HD
ATOM      6  O   UNL     1     100.263  78.125  77.925  1.00  0.00    -0.275 OA
BRANCH   4   7
ATOM      7  C   UNL     1      98.388  80.236  78.223  1.00  0.00     0.151 C 
BRANCH   7   8
ATOM      8  C   UNL     1      97.665  81.208  77.356  1.00  0.00    -0.025 A 
ATOM      9  C   UNL     1      97.327  82.260  75.159  1.00  0.00     0.160 A 
ATOM     10  C   UNL     1      96.264  83.025  75.687  1.00  0.00     0.157 A 
ATOM     11  C   UNL     1      98.031  81.373  76.001  1.00  0.00     0.056 A 
ATOM     12  C   UNL     1      95.917  82.898  77.044  1.00  0.00     0.050 A 
ATOM     13  C   UNL     1      96.604  81.989  77.871  1.00  0.00     0.009 A 
BRANCH   9  14
ATOM     14  O   UNL     1      97.699  82.404  73.850  1.00  0.00    -0.493 OA
ATOM     15  C   UNL     1      97.837  81.157  73.146  1.00  0.00     0.278 C 
ENDBRANCH   9  14
BRANCH  10  16
ATOM     16  O   UNL     1      95.571  83.889  74.900  1.00  0.00    -0.504 OA
ATOM     17  H   UNL     1      95.919  84.776  75.016  1.00  0.00     0.293 HD
ENDBRANCH  10  16
ENDBRANCH   7   8
ENDBRANCH   4   7
ENDBRANCH   2   3
ENDBRANCH   1   2
BRANCH   1  18
ATOM     18  C   UNL     1     102.815  80.232  75.440  1.00  0.00     0.001 C 
BRANCH  18  19
ATOM     19  C   UNL     1     101.442  80.816  75.006  1.00  0.00     0.000 C 
BRANCH  19  20
ATOM     20  C   UNL     1     101.546  81.581  73.657  1.00  0.00     0.000 C 
BRANCH  20  21
ATOM     21  C   UNL     1     101.104  83.069  73.731  1.00  0.00     0.003 C 
BRANCH  21  22
ATOM     22  C   UNL     1     100.900  83.757  72.342  1.00  0.00    -0.017 C 
ATOM     23  C   UNL     1     102.211  84.455  71.883  1.00  0.00     0.007 C 
ATOM     24  C   UNL     1      99.709  84.760  72.310  1.00  0.00     0.007 C 
ENDBRANCH  21  22
ENDBRANCH  20  21
ENDBRANCH  19  20
ENDBRANCH  18  19
ENDBRANCH   1  18
TORSDOF 11
ENDMDL
MODEL 8
REMARK VINA RESULT:    -4.858     19.325     22.543
REMARK INTER + INTRA:          -9.724
REMARK INTER:                  -8.304
REMARK INTRA:                  -1.420
REMARK UNBOUND:                -1.884
REMARK SMILES COc1cc(CNC(=O)CCCCCCC(C)C)ccc1O
REMARK SMILES IDX 11 1 10 2 8 3 7 4 9 6 6 7 5 8 3 9 21 10 4 11 20 12 19 13
REMARK SMILES IDX 2 14 1 15 22 16 12 18 13 19 14 20 15 21 16 22 17 23 18 24
REMARK H PARENT 7 5 22 17
REMARK Flexibility Score: inf
ROOT
ATOM      1  C   UNL     1      77.317  87.979  67.427  1.00  0.00     0.010 C 
ENDROOT
BRANCH   1   2
ATOM      2  C   UNL     1      77.151  86.584  68.092  1.00  0.00     0.100 C 
BRANCH   2   3
ATOM      3  C   UNL     1      77.123  85.471  67.117  1.00  0.00     0.220 C 
ATOM      4  N   UNL     1      76.358  85.561  65.990  1.00  0.00    -0.352 N 
ATOM      5  H   UNL     1      75.808  86.404  65.921  1.00  0.00     0.163 HD
ATOM      6  O   UNL     1      77.833  84.460  67.338  1.00  0.00    -0.275 OA
BRANCH   4   7
ATOM      7  C   UNL     1      76.297  84.576  64.953  1.00  0.00     0.151 C 
BRANCH   7   8
ATOM      8  C   UNL     1      75.155  83.634  65.105  1.00  0.00    -0.025 A 
ATOM      9  C   UNL     1      72.740  83.236  65.350  1.00  0.00     0.160 A 
ATOM     10  C   UNL     1      72.968  81.842  65.353  1.00  0.00     0.157 A 
ATOM     11  C   UNL     1      73.835  84.120  65.246  1.00  0.00     0.056 A 
ATOM     12  C   UNL     1      74.281  81.347  65.253  1.00  0.00     0.050 A 
ATOM     13  C   UNL     1      75.366  82.235  65.120  1.00  0.00     0.009 A 
BRANCH   9  14
ATOM     14  O   UNL     1      71.471  83.729  65.486  1.00  0.00    -0.493 OA
ATOM     15  C   UNL     1      71.355  84.767  66.476  1.00  0.00     0.278 C 
ENDBRANCH   9  14
BRANCH  10  16
ATOM     16  O   UNL     1      71.933  80.968  65.453  1.00  0.00    -0.504 OA
ATOM     17  H   UNL     1      72.275  80.073  65.513  1.00  0.00     0.293 HD
ENDBRANCH  10  16
ENDBRANCH   7   8
ENDBRANCH   4   7
ENDBRANCH   2   3
ENDBRANCH   1   2
BRANCH   1  18
ATOM     18  C   UNL     1      76.079  88.890  67.658  1.00  0.00     0.001 C 
BRANCH  18  19
ATOM     19  C   UNL     1      76.127  90.227  66.865  1.00  0.00     0.000 C 
BRANCH  19  20
ATOM     20  C   UNL     1      75.044  90.271  65.751  1.00  0.00     0.000 C 
BRANCH  20  21
ATOM     21  C   UNL     1      75.559  89.855  64.345  1.00  0.00     0.003 C 
BRANCH  21  22
ATOM     22  C   UNL     1      74.800  88.646  63.706  1.00  0.00    -0.017 C 
ATOM     23  C   UNL     1      73.950  87.909  64.779  1.00  0.00     0.007 C 
ATOM     24  C   UNL     1      75.733  87.643  62.966  1.00  0.00     0.007 C 
ENDBRANCH  21  22
ENDBRANCH  20  21
ENDBRANCH  19  20
ENDBRANCH  18  19
ENDBRANCH   1  18
TORSDOF 11
ENDMDL
MODEL 9
REMARK VINA RESULT:    -4.724      6.777     10.306
REMARK INTER + INTRA:          -9.507
REMARK INTER:                  -8.278
REMARK INTRA:                  -1.228
REMARK UNBOUND:                -1.884
REMARK SMILES COc1cc(CNC(=O)CCCCCCC(C)C)ccc1O
REMARK SMILES IDX 11 1 10 2 8 3 7 4 9 6 6 7 5 8 3 9 21 10 4 11 20 12 19 13
REMARK SMILES IDX 2 14 1 15 22 16 12 18 13 19 14 20 15 21 16 22 17 23 18 24
REMARK H PARENT 7 5 22 17
REMARK Flexibility Score: inf
ROOT
ATOM      1  C   UNL     1      95.260  97.208  74.822  1.00  0.00     0.010 C 
ENDROOT
BRANCH   1   2
ATOM      2  C   UNL     1      93.920  96.440  74.652  1.00  0.00     0.100 C 
BRANCH   2   3
ATOM      3  C   UNL     1      93.816  95.247  75.522  1.00  0.00     0.220 C 
ATOM      4  N   UNL     1      93.389  95.370  76.812  1.00  0.00    -0.352 N 
ATOM      5  H   UNL     1      93.207  96.318  77.107  1.00  0.00     0.163 HD
ATOM      6  O   UNL     1      94.104  94.124  75.041  1.00  0.00    -0.275 OA
BRANCH   4   7
ATOM      7  C   UNL     1      93.195  94.285  77.725  1.00  0.00     0.151 C 
BRANCH   7   8
ATOM      8  C   UNL     1      94.275  94.174  78.744  1.00  0.00    -0.025 A 
ATOM      9  C   UNL     1      96.082  95.209  80.052  1.00  0.00     0.160 A 
ATOM     10  C   UNL     1      96.306  93.983  80.717  1.00  0.00     0.157 A 
ATOM     11  C   UNL     1      95.083  95.290  79.059  1.00  0.00     0.056 A 
ATOM     12  C   UNL     1      95.534  92.856  80.384  1.00  0.00     0.050 A 
ATOM     13  C   UNL     1      94.518  92.951  79.413  1.00  0.00     0.009 A 
BRANCH   9  14
ATOM     14  O   UNL     1      96.854  96.302  80.340  1.00  0.00    -0.493 OA
ATOM     15  C   UNL     1      96.279  97.173  81.330  1.00  0.00     0.278 C 
ENDBRANCH   9  14
BRANCH  10  16
ATOM     16  O   UNL     1      97.263  93.876  81.676  1.00  0.00    -0.504 OA
ATOM     17  H   UNL     1      97.119  94.547  82.347  1.00  0.00     0.293 HD
ENDBRANCH  10  16
ENDBRANCH   7   8
ENDBRANCH   4   7
ENDBRANCH   2   3
ENDBRANCH   1   2
BRANCH   1  18
ATOM     18  C   UNL     1      96.360  96.692  73.851  1.00  0.00     0.001 C 
BRANCH  18  19
ATOM     19  C   UNL     1      96.280  97.311  72.427  1.00  0.00     0.000 C 
BRANCH  19  20
ATOM     20  C   UNL     1      96.611  98.830  72.444  1.00  0.00     0.000 C 
BRANCH  20  21
ATOM     21  C   UNL     1      95.556  99.720  71.731  1.00  0.00     0.003 C 
BRANCH  21  22
ATOM     22  C   UNL     1      94.076  99.251  71.918  1.00  0.00    -0.017 C 
ATOM     23  C   UNL     1      93.264  99.477  70.611  1.00  0.00     0.007 C 
ATOM     24  C   UNL     1      93.357  99.917  73.128  1.00  0.00     0.007 C 
ENDBRANCH  21  22
ENDBRANCH  20  21
ENDBRANCH  19  20
ENDBRANCH  18  19
ENDBRANCH   1  18
TORSDOF 11
ENDMDL
MODEL 10
REMARK VINA RESULT:    -4.681     19.410     22.693
REMARK INTER + INTRA:          -9.438
REMARK INTER:                  -8.528
REMARK INTRA:                  -0.910
REMARK UNBOUND:                -1.884
REMARK SMILES COc1cc(CNC(=O)CCCCCCC(C)C)ccc1O
REMARK SMILES IDX 11 1 10 2 8 3 7 4 9 6 6 7 5 8 3 9 21 10 4 11 20 12 19 13
REMARK SMILES IDX 2 14 1 15 22 16 12 18 13 19 14 20 15 21 16 22 17 23 18 24
REMARK H PARENT 7 5 22 17
REMARK Flexibility Score: inf
ROOT
ATOM      1  C   UNL     1      77.247  87.792  67.460  1.00  0.00     0.010 C 
ENDROOT
BRANCH   1   2
ATOM      2  C   UNL     1      77.270  86.343  68.021  1.00  0.00     0.100 C 
BRANCH   2   3
ATOM      3  C   UNL     1      77.162  85.307  66.970  1.00  0.00     0.220 C 
ATOM      4  N   UNL     1      76.344  85.499  65.894  1.00  0.00    -0.352 N 
ATOM      5  H   UNL     1      75.814  86.358  65.916  1.00  0.00     0.163 HD
ATOM      6  O   UNL     1      77.854  84.265  67.078  1.00  0.00    -0.275 OA
BRANCH   4   7
ATOM      7  C   UNL     1      76.203  84.597  64.792  1.00  0.00     0.151 C 
BRANCH   7   8
ATOM      8  C   UNL     1      75.098  83.616  64.974  1.00  0.00    -0.025 A 
ATOM      9  C   UNL     1      72.741  83.135  65.483  1.00  0.00     0.160 A 
ATOM     10  C   UNL     1      72.976  81.757  65.280  1.00  0.00     0.157 A 
ATOM     11  C   UNL     1      73.806  84.050  65.347  1.00  0.00     0.056 A 
ATOM     12  C   UNL     1      74.267  81.309  64.946  1.00  0.00     0.050 A 
ATOM     13  C   UNL     1      75.319  82.231  64.784  1.00  0.00     0.009 A 
BRANCH   9  14
ATOM     14  O   UNL     1      71.498  83.577  65.846  1.00  0.00    -0.493 OA
ATOM     15  C   UNL     1      70.731  84.114  64.752  1.00  0.00     0.278 C 
ENDBRANCH   9  14
BRANCH  10  16
ATOM     16  O   UNL     1      71.969  80.853  65.405  1.00  0.00    -0.504 OA
ATOM     17  H   UNL     1      71.761  80.733  66.335  1.00  0.00     0.293 HD
ENDBRANCH  10  16
ENDBRANCH   7   8
ENDBRANCH   4   7
ENDBRANCH   2   3
ENDBRANCH   1   2
BRANCH   1  18
ATOM     18  C   UNL     1      76.145  88.662  68.127  1.00  0.00     0.001 C 
BRANCH  18  19
ATOM     19  C   UNL     1      75.162  89.314  67.114  1.00  0.00     0.000 C 
BRANCH  19  20
ATOM     20  C   UNL     1      74.015  90.074  67.838  1.00  0.00     0.000 C 
BRANCH  20  21
ATOM     21  C   UNL     1      73.910  89.771  69.358  1.00  0.00     0.003 C 
BRANCH  21  22
ATOM     22  C   UNL     1      74.131  91.011  70.285  1.00  0.00    -0.017 C 
ATOM     23  C   UNL     1      72.773  91.523  70.841  1.00  0.00     0.007 C 
ATOM     24  C   UNL     1      74.912  92.172  69.601  1.00  0.00     0.007 C 
ENDBRANCH  21  22
ENDBRANCH  20  21
ENDBRANCH  19  20
ENDBRANCH  18  19
ENDBRANCH   1  18
TORSDOF 11
ENDMDL
