MODEL 1
REMARK VINA RESULT:    -7.343      0.000      0.000
REMARK INTER + INTRA:         -12.751
REMARK INTER:                 -12.923
REMARK INTRA:                   0.172
REMARK UNBOUND:                 0.172
REMARK SMILES C=C(C)[C@]12C[C@@H](C)[C@@]34O[C@](Cc5ccccc5)(O[C@@H]1[C@@H]3C=C(COC(=O)Cc1ccc(O)c(OC)c1)C[C@]1(O)C(=O)C(C)=C[C@@H]41)O2
REMARK SMILES IDX 23 1 22 2 21 3 20 4 9 5 8 6 10 7 6 8 18 9 46 10 19 11 5 12
REMARK SMILES IDX 7 13 4 14 45 15 38 16 44 17 40 18 42 20 41 21 43 22 39 23
REMARK SMILES IDX 11 25 12 26 13 27 17 28 14 29 16 30 15 31 2 32 3 33 1 34
REMARK SMILES IDX 37 35 24 37 25 38 26 39 27 40 28 41 36 42 29 43 33 44 30 45
REMARK SMILES IDX 31 46 34 47 35 48 32 49
REMARK H PARENT 39 24 32 50
REMARK Flexibility Score: 90.00
ROOT
ATOM      1  C   UNL     1      95.227  96.867  77.093  1.00  0.00     0.264 C 
ENDROOT
BRANCH   1   2
ATOM      2  C   UNL     1      95.773  97.880  76.114  1.00  0.00    -0.033 C 
ATOM      3  C   UNL     1      95.625  97.666  74.791  1.00  0.00    -0.015 C 
BRANCH   3   4
ATOM      4  C   UNL     1      96.144  98.480  73.618  1.00  0.00     0.078 C 
ATOM      5  O   UNL     1      94.361 100.085  73.011  1.00  0.00    -0.319 OA
ATOM      6  C   UNL     1      95.729  99.996  73.517  1.00  0.00     0.095 C 
ATOM      7  C   UNL     1      94.047  99.195  71.923  1.00  0.00     0.289 C 
ATOM      8  C   UNL     1      96.713 100.695  72.491  1.00  0.00     0.023 C 
ATOM      9  O   UNL     1      94.278  97.836  72.283  1.00  0.00    -0.320 OA
ATOM     10  O   UNL     1      94.861  99.433  70.777  1.00  0.00    -0.313 OA
ATOM     11  C   UNL     1      95.714  97.817  72.286  1.00  0.00     0.170 C 
ATOM     12  C   UNL     1      97.150  99.714  71.359  1.00  0.00     0.049 C 
ATOM     13  C   UNL     1      96.195 102.000  71.864  1.00  0.00     0.011 C 
ATOM     14  C   UNL     1      96.063  98.685  71.051  1.00  0.00     0.122 C 
BRANCH   6  15
ATOM     15  C   UNL     1      95.664 100.645  74.930  1.00  0.00     0.086 C 
ATOM     16  C   UNL     1      96.800 100.270  75.904  1.00  0.00     0.140 CG0
ATOM     17  C   UNL     1      95.581 102.141  75.049  1.00  0.00    -0.010 C 
ATOM     18  C   UNL     1      96.986 101.547  76.695  1.00  0.00     0.190 C 
ATOM     19  G   UNL     1      96.430  99.081  76.790  1.00  0.00     0.000 G0
ATOM     20  C   UNL     1      96.290 102.676  76.048  1.00  0.00    -0.008 C 
ATOM     21  O   UNL     1      97.661 101.661  77.707  1.00  0.00    -0.291 OA
ATOM     22  C   UNL     1      96.379 104.077  76.509  1.00  0.00     0.048 C 
BRANCH  16  23
ATOM     23  O   UNL     1      98.055 100.075  75.274  1.00  0.00    -0.381 OA
ATOM     24  H   UNL     1      97.912 100.026  74.314  1.00  0.00     0.212 HD
ENDBRANCH  16  23
ENDBRANCH   6  15
BRANCH   7  25
ATOM     25  C   UNL     1      92.589  99.387  71.557  1.00  0.00     0.135 C 
BRANCH  25  26
ATOM     26  C   UNL     1      92.177 100.837  71.618  1.00  0.00    -0.040 A 
ATOM     27  C   UNL     1      92.675 101.743  70.680  1.00  0.00     0.004 A 
ATOM     28  C   UNL     1      91.298 101.272  72.609  1.00  0.00     0.004 A 
ATOM     29  C   UNL     1      92.294 103.084  70.736  1.00  0.00     0.000 A 
ATOM     30  C   UNL     1      90.917 102.613  72.665  1.00  0.00     0.000 A 
ATOM     31  C   UNL     1      91.416 103.518  71.728  1.00  0.00     0.000 A 
ENDBRANCH  25  26
ENDBRANCH   7  25
BRANCH  14  32
ATOM     32  C   UNL     1      96.383  97.853  69.852  1.00  0.00    -0.046 C 
ATOM     33  C   UNL     1      97.756  97.253  69.810  1.00  0.00     0.042 C 
ATOM     34  C   UNL     1      95.492  97.654  68.869  1.00  0.00     0.010 C 
ENDBRANCH  14  32
ENDBRANCH   3   4
BRANCH   2  35
ATOM     35  C   UNL     1      96.439  99.063  76.792  1.00  0.00     0.078 CG0
ATOM     36  G   UNL     1      96.795 100.262  75.914  1.00  0.00     0.000 G0
ENDBRANCH   2  35
ENDBRANCH   1   2
BRANCH   1  37
ATOM     37  O   UNL     1      94.064  96.277  76.554  1.00  0.00    -0.461 OA
BRANCH  37  38
ATOM     38  C   UNL     1      93.286  95.555  77.429  1.00  0.00     0.310 C 
ATOM     39  O   UNL     1      93.714  94.862  78.342  1.00  0.00    -0.252 OA
BRANCH  38  40
ATOM     40  C   UNL     1      91.828  95.751  77.087  1.00  0.00     0.158 C 
BRANCH  40  41
ATOM     41  C   UNL     1      91.143  94.473  76.676  1.00  0.00    -0.033 A 
ATOM     42  C   UNL     1      91.326  93.967  75.388  1.00  0.00     0.054 A 
ATOM     43  C   UNL     1      90.328  93.795  77.581  1.00  0.00     0.008 A 
ATOM     44  C   UNL     1      90.693  92.784  75.007  1.00  0.00     0.160 A 
ATOM     45  C   UNL     1      89.695  92.612  77.200  1.00  0.00     0.050 A 
ATOM     46  C   UNL     1      89.877  92.107  75.913  1.00  0.00     0.157 A 
BRANCH  44  47
ATOM     47  O   UNL     1      90.879  92.301  73.747  1.00  0.00    -0.493 OA
ATOM     48  C   UNL     1      90.310  91.026  73.451  1.00  0.00     0.278 C 
ENDBRANCH  44  47
BRANCH  46  49
ATOM     49  O   UNL     1      89.254  90.950  75.553  1.00  0.00    -0.504 OA
ATOM     50  H   UNL     1      88.824  91.078  74.690  1.00  0.00     0.293 HD
ENDBRANCH  46  49
ENDBRANCH  40  41
ENDBRANCH  38  40
ENDBRANCH  37  38
ENDBRANCH   1  37
TORSDOF 11
ENDMDL
MODEL 2
REMARK VINA RESULT:    -6.641      1.687      2.373
REMARK INTER + INTRA:         -11.516
REMARK INTER:                 -10.348
REMARK INTRA:                  -1.169
REMARK UNBOUND:                 0.172
REMARK SMILES C=C(C)[C@]12C[C@@H](C)[C@@]34O[C@](Cc5ccccc5)(O[C@@H]1[C@@H]3C=C(COC(=O)Cc1ccc(O)c(OC)c1)C[C@]1(O)C(=O)C(C)=C[C@@H]41)O2
REMARK SMILES IDX 23 1 22 2 21 3 20 4 9 5 8 6 10 7 6 8 18 9 46 10 19 11 5 12
REMARK SMILES IDX 7 13 4 14 45 15 38 16 44 17 40 18 42 20 41 21 43 22 39 23
REMARK SMILES IDX 11 25 12 26 13 27 17 28 14 29 16 30 15 31 2 32 3 33 1 34
REMARK SMILES IDX 37 35 24 37 25 38 26 39 27 40 28 41 36 42 29 43 33 44 30 45
REMARK SMILES IDX 31 46 34 47 35 48 32 49
REMARK H PARENT 39 24 32 50
REMARK Flexibility Score: 90.00
ROOT
ATOM      1  C   UNL     1      95.677  99.120  77.095  1.00  0.00     0.264 C 
ENDROOT
BRANCH   1   2
ATOM      2  C   UNL     1      95.792  99.965  75.848  1.00  0.00    -0.033 C 
ATOM      3  C   UNL     1      95.700  99.373  74.640  1.00  0.00    -0.015 C 
BRANCH   3   4
ATOM      4  C   UNL     1      95.858  99.978  73.255  1.00  0.00     0.078 C 
ATOM      5  O   UNL     1      93.596 100.622  72.488  1.00  0.00    -0.319 OA
ATOM      6  C   UNL     1      94.906 101.162  72.842  1.00  0.00     0.095 C 
ATOM      7  C   UNL     1      93.618  99.425  71.687  1.00  0.00     0.289 C 
ATOM      8  C   UNL     1      95.541 101.868  71.574  1.00  0.00     0.023 C 
ATOM      9  O   UNL     1      94.346  98.384  72.333  1.00  0.00    -0.320 OA
ATOM     10  O   UNL     1      94.265  99.626  70.433  1.00  0.00    -0.313 OA
ATOM     11  C   UNL     1      95.685  98.879  72.178  1.00  0.00     0.170 C 
ATOM     12  C   UNL     1      96.294 100.846  70.668  1.00  0.00     0.049 C 
ATOM     13  C   UNL     1      94.564 102.688  70.716  1.00  0.00     0.011 C 
ATOM     14  C   UNL     1      95.664  99.455  70.740  1.00  0.00     0.122 C 
BRANCH   6  15
ATOM     15  C   UNL     1      94.627 102.094  74.056  1.00  0.00     0.086 C 
ATOM     16  C   UNL     1      95.843 102.444  74.939  1.00  0.00     0.140 CG0
ATOM     17  C   UNL     1      93.967 103.425  73.827  1.00  0.00    -0.010 C 
ATOM     18  C   UNL     1      95.533 103.861  75.374  1.00  0.00     0.190 C 
ATOM     19  G   UNL     1      95.992 101.488  76.122  1.00  0.00     0.000 G0
ATOM     20  C   UNL     1      94.435 104.432  74.572  1.00  0.00    -0.008 C 
ATOM     21  O   UNL     1      96.134 104.485  76.235  1.00  0.00    -0.291 OA
ATOM     22  C   UNL     1      93.979 105.834  74.672  1.00  0.00     0.048 C 
BRANCH  16  23
ATOM     23  O   UNL     1      97.058 102.569  74.218  1.00  0.00    -0.381 OA
ATOM     24  H   UNL     1      97.314 101.690  73.894  1.00  0.00     0.212 HD
ENDBRANCH  16  23
ENDBRANCH   6  15
BRANCH   7  25
ATOM     25  C   UNL     1      92.188  98.982  71.454  1.00  0.00     0.135 C 
BRANCH  25  26
ATOM     26  C   UNL     1      91.323 100.108  70.947  1.00  0.00    -0.040 A 
ATOM     27  C   UNL     1      91.082 100.241  69.579  1.00  0.00     0.004 A 
ATOM     28  C   UNL     1      90.762 101.016  71.845  1.00  0.00     0.004 A 
ATOM     29  C   UNL     1      90.281 101.283  69.110  1.00  0.00     0.000 A 
ATOM     30  C   UNL     1      89.961 102.058  71.376  1.00  0.00     0.000 A 
ATOM     31  C   UNL     1      89.721 102.191  70.008  1.00  0.00     0.000 A 
ENDBRANCH  25  26
ENDBRANCH   7  25
BRANCH  14  32
ATOM     32  C   UNL     1      96.251  98.506  69.746  1.00  0.00    -0.046 C 
ATOM     33  C   UNL     1      97.723  98.246  69.869  1.00  0.00     0.042 C 
ATOM     34  C   UNL     1      95.505  97.920  68.798  1.00  0.00     0.010 C 
ENDBRANCH  14  32
ENDBRANCH   3   4
BRANCH   2  35
ATOM     35  C   UNL     1      95.999 101.438  76.144  1.00  0.00     0.078 CG0
ATOM     36  G   UNL     1      95.840 102.414  74.979  1.00  0.00     0.000 G0
ENDBRANCH   2  35
ENDBRANCH   1   2
BRANCH   1  37
ATOM     37  O   UNL     1      94.742  98.086  76.874  1.00  0.00    -0.461 OA
BRANCH  37  38
ATOM     38  C   UNL     1      95.014  96.881  77.478  1.00  0.00     0.310 C 
ATOM     39  O   UNL     1      96.122  96.366  77.554  1.00  0.00    -0.252 OA
BRANCH  38  40
ATOM     40  C   UNL     1      93.737  96.294  78.032  1.00  0.00     0.158 C 
BRANCH  40  41
ATOM     41  C   UNL     1      92.907  95.598  76.983  1.00  0.00    -0.033 A 
ATOM     42  C   UNL     1      91.648  95.094  77.312  1.00  0.00     0.054 A 
ATOM     43  C   UNL     1      93.397  95.459  75.685  1.00  0.00     0.008 A 
ATOM     44  C   UNL     1      90.880  94.450  76.342  1.00  0.00     0.160 A 
ATOM     45  C   UNL     1      92.629  94.814  74.715  1.00  0.00     0.050 A 
ATOM     46  C   UNL     1      91.371  94.310  75.043  1.00  0.00     0.157 A 
BRANCH  44  47
ATOM     47  O   UNL     1      89.653  93.962  76.675  1.00  0.00    -0.493 OA
ATOM     48  C   UNL     1      89.598  92.621  77.161  1.00  0.00     0.278 C 
ENDBRANCH  44  47
BRANCH  46  49
ATOM     49  O   UNL     1      90.629  93.684  74.087  1.00  0.00    -0.504 OA
ATOM     50  H   UNL     1      91.138  93.656  73.260  1.00  0.00     0.293 HD
ENDBRANCH  46  49
ENDBRANCH  40  41
ENDBRANCH  38  40
ENDBRANCH  37  38
ENDBRANCH   1  37
TORSDOF 11
ENDMDL
MODEL 3
REMARK VINA RESULT:    -6.520     22.336     27.389
REMARK INTER + INTRA:         -11.302
REMARK INTER:                 -10.658
REMARK INTRA:                  -0.644
REMARK UNBOUND:                 0.172
REMARK SMILES C=C(C)[C@]12C[C@@H](C)[C@@]34O[C@](Cc5ccccc5)(O[C@@H]1[C@@H]3C=C(COC(=O)Cc1ccc(O)c(OC)c1)C[C@]1(O)C(=O)C(C)=C[C@@H]41)O2
REMARK SMILES IDX 23 1 22 2 21 3 20 4 9 5 8 6 10 7 6 8 18 9 46 10 19 11 5 12
REMARK SMILES IDX 7 13 4 14 45 15 38 16 44 17 40 18 42 20 41 21 43 22 39 23
REMARK SMILES IDX 11 25 12 26 13 27 17 28 14 29 16 30 15 31 2 32 3 33 1 34
REMARK SMILES IDX 37 35 24 37 25 38 26 39 27 40 28 41 36 42 29 43 33 44 30 45
REMARK SMILES IDX 31 46 34 47 35 48 32 49
REMARK H PARENT 39 24 32 50
REMARK Flexibility Score: 90.00
ROOT
ATOM      1  C   UNL     1      69.261  87.383  69.729  1.00  0.00     0.264 C 
ENDROOT
BRANCH   1   2
ATOM      2  C   UNL     1      70.043  87.403  68.437  1.00  0.00    -0.033 C 
ATOM      3  C   UNL     1      70.913  88.407  68.208  1.00  0.00    -0.015 C 
BRANCH   3   4
ATOM      4  C   UNL     1      71.752  88.694  66.974  1.00  0.00     0.078 C 
ATOM      5  O   UNL     1      73.942  87.598  67.319  1.00  0.00    -0.319 OA
ATOM      6  C   UNL     1      72.751  87.586  66.472  1.00  0.00     0.095 C 
ATOM      7  C   UNL     1      74.449  88.904  67.652  1.00  0.00     0.289 C 
ATOM      8  C   UNL     1      73.163  87.948  64.985  1.00  0.00     0.023 C 
ATOM      9  O   UNL     1      73.457  89.693  68.305  1.00  0.00    -0.320 OA
ATOM     10  O   UNL     1      74.833  89.646  66.497  1.00  0.00    -0.313 OA
ATOM     11  C   UNL     1      72.591  89.977  67.195  1.00  0.00     0.170 C 
ATOM     12  C   UNL     1      73.209  89.491  64.765  1.00  0.00     0.049 C 
ATOM     13  C   UNL     1      74.477  87.321  64.493  1.00  0.00     0.011 C 
ATOM     14  C   UNL     1      73.596  90.234  66.044  1.00  0.00     0.122 C 
BRANCH   6  15
ATOM     15  C   UNL     1      72.147  86.166  66.672  1.00  0.00     0.086 C 
ATOM     16  C   UNL     1      70.659  86.002  66.298  1.00  0.00     0.140 CG0
ATOM     17  C   UNL     1      72.805  84.986  66.014  1.00  0.00    -0.010 C 
ATOM     18  C   UNL     1      70.610  84.585  65.767  1.00  0.00     0.190 C 
ATOM     19  G   UNL     1      69.736  86.210  67.498  1.00  0.00     0.000 G0
ATOM     20  C   UNL     1      71.969  84.067  65.520  1.00  0.00    -0.008 C 
ATOM     21  O   UNL     1      69.593  83.956  65.521  1.00  0.00    -0.291 OA
ATOM     22  C   UNL     1      72.255  82.761  64.891  1.00  0.00     0.048 C 
BRANCH  16  23
ATOM     23  O   UNL     1      70.255  86.792  65.192  1.00  0.00    -0.381 OA
ATOM     24  H   UNL     1      69.750  87.553  65.526  1.00  0.00     0.212 HD
ENDBRANCH  16  23
ENDBRANCH   6  15
BRANCH   7  25
ATOM     25  C   UNL     1      75.647  88.731  68.563  1.00  0.00     0.135 C 
BRANCH  25  26
ATOM     26  C   UNL     1      76.035  87.282  68.719  1.00  0.00    -0.040 A 
ATOM     27  C   UNL     1      77.188  86.798  68.099  1.00  0.00     0.004 A 
ATOM     28  C   UNL     1      75.242  86.425  69.483  1.00  0.00     0.004 A 
ATOM     29  C   UNL     1      77.546  85.457  68.243  1.00  0.00     0.000 A 
ATOM     30  C   UNL     1      75.601  85.085  69.626  1.00  0.00     0.000 A 
ATOM     31  C   UNL     1      76.754  84.601  69.006  1.00  0.00     0.000 A 
ENDBRANCH  25  26
ENDBRANCH   7  25
BRANCH  14  32
ATOM     32  C   UNL     1      73.825  91.693  65.815  1.00  0.00    -0.046 C 
ATOM     33  C   UNL     1      72.789  92.405  64.996  1.00  0.00     0.042 C 
ATOM     34  C   UNL     1      74.895  92.330  66.312  1.00  0.00     0.010 C 
ENDBRANCH  14  32
ENDBRANCH   3   4
BRANCH   2  35
ATOM     35  C   UNL     1      69.729  86.225  67.533  1.00  0.00     0.078 CG0
ATOM     36  G   UNL     1      70.629  86.020  66.315  1.00  0.00     0.000 G0
ENDBRANCH   2  35
ENDBRANCH   1   2
BRANCH   1  37
ATOM     37  O   UNL     1      69.563  86.201  70.439  1.00  0.00    -0.461 OA
BRANCH  37  38
ATOM     38  C   UNL     1      68.489  85.497  70.933  1.00  0.00     0.310 C 
ATOM     39  O   UNL     1      68.554  84.632  71.796  1.00  0.00    -0.252 OA
BRANCH  38  40
ATOM     40  C   UNL     1      67.225  85.956  70.246  1.00  0.00     0.158 C 
BRANCH  40  41
ATOM     41  C   UNL     1      66.116  84.939  70.313  1.00  0.00    -0.033 A 
ATOM     42  C   UNL     1      65.148  85.028  71.315  1.00  0.00     0.054 A 
ATOM     43  C   UNL     1      66.056  83.908  69.375  1.00  0.00     0.008 A 
ATOM     44  C   UNL     1      64.121  84.085  71.377  1.00  0.00     0.160 A 
ATOM     45  C   UNL     1      65.029  82.966  69.438  1.00  0.00     0.050 A 
ATOM     46  C   UNL     1      64.062  83.054  70.438  1.00  0.00     0.157 A 
BRANCH  44  47
ATOM     47  O   UNL     1      63.182  84.182  72.359  1.00  0.00    -0.493 OA
ATOM     48  C   UNL     1      61.850  84.496  71.954  1.00  0.00     0.278 C 
ENDBRANCH  44  47
BRANCH  46  49
ATOM     49  O   UNL     1      63.064  82.130  70.489  1.00  0.00    -0.504 OA
ATOM     50  H   UNL     1      62.614  82.101  69.627  1.00  0.00     0.293 HD
ENDBRANCH  46  49
ENDBRANCH  40  41
ENDBRANCH  38  40
ENDBRANCH  37  38
ENDBRANCH   1  37
TORSDOF 11
ENDMDL
MODEL 4
REMARK VINA RESULT:    -6.411     36.104     40.979
REMARK INTER + INTRA:         -11.111
REMARK INTER:                  -9.749
REMARK INTRA:                  -1.362
REMARK UNBOUND:                 0.172
REMARK SMILES C=C(C)[C@]12C[C@@H](C)[C@@]34O[C@](Cc5ccccc5)(O[C@@H]1[C@@H]3C=C(COC(=O)Cc1ccc(O)c(OC)c1)C[C@]1(O)C(=O)C(C)=C[C@@H]41)O2
REMARK SMILES IDX 23 1 22 2 21 3 20 4 9 5 8 6 10 7 6 8 18 9 46 10 19 11 5 12
REMARK SMILES IDX 7 13 4 14 45 15 38 16 44 17 40 18 42 20 41 21 43 22 39 23
REMARK SMILES IDX 11 25 12 26 13 27 17 28 14 29 16 30 15 31 2 32 3 33 1 34
REMARK SMILES IDX 37 35 24 37 25 38 26 39 27 40 28 41 36 42 29 43 33 44 30 45
REMARK SMILES IDX 31 46 34 47 35 48 32 49
REMARK H PARENT 39 24 32 50
REMARK Flexibility Score: 90.00
ROOT
ATOM      1  C   UNL     1      60.419  84.717  86.783  1.00  0.00     0.264 C 
ENDROOT
BRANCH   1   2
ATOM      2  C   UNL     1      59.277  83.730  86.848  1.00  0.00    -0.033 C 
ATOM      3  C   UNL     1      59.366  82.572  86.162  1.00  0.00    -0.015 C 
BRANCH   3   4
ATOM      4  C   UNL     1      58.338  81.464  86.002  1.00  0.00     0.078 C 
ATOM      5  O   UNL     1      58.787  79.803  87.779  1.00  0.00    -0.319 OA
ATOM      6  C   UNL     1      57.791  80.758  87.298  1.00  0.00     0.095 C 
ATOM      7  C   UNL     1      59.423  79.009  86.759  1.00  0.00     0.289 C 
ATOM      8  C   UNL     1      56.470  79.979  86.899  1.00  0.00     0.023 C 
ATOM      9  O   UNL     1      60.059  79.832  85.785  1.00  0.00    -0.320 OA
ATOM     10  O   UNL     1      58.490  78.209  86.037  1.00  0.00    -0.313 OA
ATOM     11  C   UNL     1      58.908  80.345  85.097  1.00  0.00     0.170 C 
ATOM     12  C   UNL     1      56.544  79.439  85.438  1.00  0.00     0.049 C 
ATOM     13  C   UNL     1      56.065  78.838  87.846  1.00  0.00     0.011 C 
ATOM     14  C   UNL     1      57.980  79.106  85.030  1.00  0.00     0.122 C 
BRANCH   6  15
ATOM     15  C   UNL     1      57.639  81.780  88.462  1.00  0.00     0.086 C 
ATOM     16  C   UNL     1      57.030  83.148  88.090  1.00  0.00     0.140 CG0
ATOM     17  C   UNL     1      56.880  81.383  89.697  1.00  0.00    -0.010 C 
ATOM     18  C   UNL     1      56.249  83.506  89.337  1.00  0.00     0.190 C 
ATOM     19  G   UNL     1      58.102  84.184  87.753  1.00  0.00     0.000 G0
ATOM     20  C   UNL     1      56.111  82.339  90.228  1.00  0.00    -0.008 C 
ATOM     21  O   UNL     1      55.747  84.596  89.569  1.00  0.00    -0.291 OA
ATOM     22  C   UNL     1      55.303  82.333  91.465  1.00  0.00     0.048 C 
BRANCH  16  23
ATOM     23  O   UNL     1      56.040  83.079  87.078  1.00  0.00    -0.381 OA
ATOM     24  H   UNL     1      55.540  83.912  87.080  1.00  0.00     0.212 HD
ENDBRANCH  16  23
ENDBRANCH   6  15
BRANCH   7  25
ATOM     25  C   UNL     1      60.450  78.114  87.424  1.00  0.00     0.135 C 
BRANCH  25  26
ATOM     26  C   UNL     1      61.417  77.527  86.427  1.00  0.00    -0.040 A 
ATOM     27  C   UNL     1      61.201  76.246  85.917  1.00  0.00     0.004 A 
ATOM     28  C   UNL     1      62.526  78.264  86.013  1.00  0.00     0.004 A 
ATOM     29  C   UNL     1      62.096  75.703  84.995  1.00  0.00     0.000 A 
ATOM     30  C   UNL     1      63.421  77.721  85.091  1.00  0.00     0.000 A 
ATOM     31  C   UNL     1      63.205  76.440  84.582  1.00  0.00     0.000 A 
ENDBRANCH  25  26
ENDBRANCH   7  25
BRANCH  14  32
ATOM     32  C   UNL     1      58.055  78.419  83.706  1.00  0.00    -0.046 C 
ATOM     33  C   UNL     1      57.367  79.105  82.563  1.00  0.00     0.042 C 
ATOM     34  C   UNL     1      58.703  77.255  83.546  1.00  0.00     0.010 C 
ENDBRANCH  14  32
ENDBRANCH   3   4
BRANCH   2  35
ATOM     35  C   UNL     1      58.133  84.200  87.727  1.00  0.00     0.078 CG0
ATOM     36  G   UNL     1      57.055  83.176  88.079  1.00  0.00     0.000 G0
ENDBRANCH   2  35
ENDBRANCH   1   2
BRANCH   1  37
ATOM     37  O   UNL     1      61.331  84.310  85.786  1.00  0.00    -0.461 OA
BRANCH  37  38
ATOM     38  C   UNL     1      61.499  85.173  84.727  1.00  0.00     0.310 C 
ATOM     39  O   UNL     1      60.828  86.175  84.524  1.00  0.00    -0.252 OA
BRANCH  38  40
ATOM     40  C   UNL     1      62.638  84.690  83.859  1.00  0.00     0.158 C 
BRANCH  40  41
ATOM     41  C   UNL     1      63.417  83.562  84.485  1.00  0.00    -0.033 A 
ATOM     42  C   UNL     1      63.903  83.689  85.788  1.00  0.00     0.054 A 
ATOM     43  C   UNL     1      63.653  82.393  83.764  1.00  0.00     0.008 A 
ATOM     44  C   UNL     1      64.624  82.645  86.367  1.00  0.00     0.160 A 
ATOM     45  C   UNL     1      64.375  81.349  84.343  1.00  0.00     0.050 A 
ATOM     46  C   UNL     1      64.861  81.475  85.644  1.00  0.00     0.157 A 
BRANCH  44  47
ATOM     47  O   UNL     1      65.093  82.780  87.639  1.00  0.00    -0.493 OA
ATOM     48  C   UNL     1      64.153  82.609  88.698  1.00  0.00     0.278 C 
ENDBRANCH  44  47
BRANCH  46  49
ATOM     49  O   UNL     1      65.563  80.449  86.200  1.00  0.00    -0.504 OA
ATOM     50  H   UNL     1      65.223  79.607  85.852  1.00  0.00     0.293 HD
ENDBRANCH  46  49
ENDBRANCH  40  41
ENDBRANCH  38  40
ENDBRANCH  37  38
ENDBRANCH   1  37
TORSDOF 11
ENDMDL
MODEL 5
REMARK VINA RESULT:    -6.360     28.387     32.753
REMARK INTER + INTRA:         -11.021
REMARK INTER:                 -10.014
REMARK INTRA:                  -1.007
REMARK UNBOUND:                 0.172
REMARK SMILES C=C(C)[C@]12C[C@@H](C)[C@@]34O[C@](Cc5ccccc5)(O[C@@H]1[C@@H]3C=C(COC(=O)Cc1ccc(O)c(OC)c1)C[C@]1(O)C(=O)C(C)=C[C@@H]41)O2
REMARK SMILES IDX 23 1 22 2 21 3 20 4 9 5 8 6 10 7 6 8 18 9 46 10 19 11 5 12
REMARK SMILES IDX 7 13 4 14 45 15 38 16 44 17 40 18 42 20 41 21 43 22 39 23
REMARK SMILES IDX 11 25 12 26 13 27 17 28 14 29 16 30 15 31 2 32 3 33 1 34
REMARK SMILES IDX 37 35 24 37 25 38 26 39 27 40 28 41 36 42 29 43 33 44 30 45
REMARK SMILES IDX 31 46 34 47 35 48 32 49
REMARK H PARENT 39 24 32 50
REMARK Flexibility Score: 90.00
ROOT
ATOM      1  C   UNL     1      83.350  69.316  87.581  1.00  0.00     0.264 C 
ENDROOT
BRANCH   1   2
ATOM      2  C   UNL     1      83.232  70.817  87.702  1.00  0.00    -0.033 C 
ATOM      3  C   UNL     1      82.440  71.488  86.841  1.00  0.00    -0.015 C 
BRANCH   3   4
ATOM      4  C   UNL     1      82.214  72.985  86.704  1.00  0.00     0.078 C 
ATOM      5  O   UNL     1      80.244  73.545  88.091  1.00  0.00    -0.319 OA
ATOM      6  C   UNL     1      81.680  73.778  87.954  1.00  0.00     0.095 C 
ATOM      7  C   UNL     1      79.494  73.580  86.862  1.00  0.00     0.289 C 
ATOM      8  C   UNL     1      81.937  75.320  87.690  1.00  0.00     0.023 C 
ATOM      9  O   UNL     1      79.991  72.627  85.925  1.00  0.00    -0.320 OA
ATOM     10  O   UNL     1      79.583  74.844  86.209  1.00  0.00    -0.313 OA
ATOM     11  C   UNL     1      81.222  73.264  85.548  1.00  0.00     0.170 C 
ATOM     12  C   UNL     1      81.815  75.668  86.175  1.00  0.00     0.049 C 
ATOM     13  C   UNL     1      81.063  76.284  88.508  1.00  0.00     0.011 C 
ATOM     14  C   UNL     1      80.815  74.756  85.463  1.00  0.00     0.122 C 
BRANCH   6  15
ATOM     15  C   UNL     1      82.291  73.214  89.269  1.00  0.00     0.086 C 
ATOM     16  C   UNL     1      83.797  72.881  89.230  1.00  0.00     0.140 CG0
ATOM     17  C   UNL     1      82.139  73.992  90.546  1.00  0.00    -0.010 C 
ATOM     18  C   UNL     1      84.242  73.215  90.639  1.00  0.00     0.190 C 
ATOM     19  G   UNL     1      84.056  71.420  88.866  1.00  0.00     0.000 G0
ATOM     20  C   UNL     1      83.207  73.989  91.350  1.00  0.00    -0.008 C 
ATOM     21  O   UNL     1      85.327  72.935  91.124  1.00  0.00    -0.291 OA
ATOM     22  C   UNL     1      83.386  74.568  92.698  1.00  0.00     0.048 C 
BRANCH  16  23
ATOM     23  O   UNL     1      84.559  73.759  88.418  1.00  0.00    -0.381 OA
ATOM     24  H   UNL     1      85.406  73.331  88.213  1.00  0.00     0.212 HD
ENDBRANCH  16  23
ENDBRANCH   6  15
BRANCH   7  25
ATOM     25  C   UNL     1      78.044  73.276  87.180  1.00  0.00     0.135 C 
BRANCH  25  26
ATOM     26  C   UNL     1      77.511  72.133  86.352  1.00  0.00    -0.040 A 
ATOM     27  C   UNL     1      77.275  70.893  86.946  1.00  0.00     0.004 A 
ATOM     28  C   UNL     1      77.253  72.316  84.994  1.00  0.00     0.004 A 
ATOM     29  C   UNL     1      76.781  69.836  86.181  1.00  0.00     0.000 A 
ATOM     30  C   UNL     1      76.760  71.259  84.229  1.00  0.00     0.000 A 
ATOM     31  C   UNL     1      76.524  70.019  84.823  1.00  0.00     0.000 A 
ENDBRANCH  25  26
ENDBRANCH   7  25
BRANCH  14  32
ATOM     32  C   UNL     1      80.546  75.185  84.058  1.00  0.00    -0.046 C 
ATOM     33  C   UNL     1      81.698  75.800  83.321  1.00  0.00     0.042 C 
ATOM     34  C   UNL     1      79.342  75.029  83.487  1.00  0.00     0.010 C 
ENDBRANCH  14  32
ENDBRANCH   3   4
BRANCH   2  35
ATOM     35  C   UNL     1      84.059  71.389  88.838  1.00  0.00     0.078 CG0
ATOM     36  G   UNL     1      83.816  72.850  89.212  1.00  0.00     0.000 G0
ENDBRANCH   2  35
ENDBRANCH   1   2
BRANCH   1  37
ATOM     37  O   UNL     1      84.196  68.999  86.496  1.00  0.00    -0.461 OA
BRANCH  37  38
ATOM     38  C   UNL     1      84.913  67.830  86.605  1.00  0.00     0.310 C 
ATOM     39  O   UNL     1      85.472  67.441  87.621  1.00  0.00    -0.252 OA
BRANCH  38  40
ATOM     40  C   UNL     1      84.902  67.107  85.279  1.00  0.00     0.158 C 
BRANCH  40  41
ATOM     41  C   UNL     1      83.703  66.209  85.109  1.00  0.00    -0.033 A 
ATOM     42  C   UNL     1      82.428  66.764  84.989  1.00  0.00     0.054 A 
ATOM     43  C   UNL     1      83.867  64.825  85.071  1.00  0.00     0.008 A 
ATOM     44  C   UNL     1      81.319  65.934  84.831  1.00  0.00     0.160 A 
ATOM     45  C   UNL     1      82.758  63.995  84.914  1.00  0.00     0.050 A 
ATOM     46  C   UNL     1      81.484  64.548  84.794  1.00  0.00     0.157 A 
BRANCH  44  47
ATOM     47  O   UNL     1      80.079  66.487  84.715  1.00  0.00    -0.493 OA
ATOM     48  C   UNL     1      79.636  67.316  85.788  1.00  0.00     0.278 C 
ENDBRANCH  44  47
BRANCH  46  49
ATOM     49  O   UNL     1      80.408  63.728  84.640  1.00  0.00    -0.504 OA
ATOM     50  H   UNL     1      80.599  63.083  83.938  1.00  0.00     0.293 HD
ENDBRANCH  46  49
ENDBRANCH  40  41
ENDBRANCH  38  40
ENDBRANCH  37  38
ENDBRANCH   1  37
TORSDOF 11
ENDMDL
MODEL 6
REMARK VINA RESULT:    -6.239     21.883     27.852
REMARK INTER + INTRA:         -10.808
REMARK INTER:                  -9.644
REMARK INTRA:                  -1.164
REMARK UNBOUND:                 0.172
REMARK SMILES C=C(C)[C@]12C[C@@H](C)[C@@]34O[C@](Cc5ccccc5)(O[C@@H]1[C@@H]3C=C(COC(=O)Cc1ccc(O)c(OC)c1)C[C@]1(O)C(=O)C(C)=C[C@@H]41)O2
REMARK SMILES IDX 23 1 22 2 21 3 20 4 9 5 8 6 10 7 6 8 18 9 46 10 19 11 5 12
REMARK SMILES IDX 7 13 4 14 45 15 38 16 44 17 40 18 42 20 41 21 43 22 39 23
REMARK SMILES IDX 11 25 12 26 13 27 17 28 14 29 16 30 15 31 2 32 3 33 1 34
REMARK SMILES IDX 37 35 24 37 25 38 26 39 27 40 28 41 36 42 29 43 33 44 30 45
REMARK SMILES IDX 31 46 34 47 35 48 32 49
REMARK H PARENT 39 24 32 50
REMARK Flexibility Score: 90.00
ROOT
ATOM      1  C   UNL     1      73.055  84.604  66.389  1.00  0.00     0.264 C 
ENDROOT
BRANCH   1   2
ATOM      2  C   UNL     1      72.005  85.637  66.722  1.00  0.00    -0.033 C 
ATOM      3  C   UNL     1      70.703  85.333  66.547  1.00  0.00    -0.015 C 
BRANCH   3   4
ATOM      4  C   UNL     1      69.474  86.210  66.731  1.00  0.00     0.078 C 
ATOM      5  O   UNL     1      68.698  85.882  69.057  1.00  0.00    -0.319 OA
ATOM      6  C   UNL     1      69.236  86.880  68.135  1.00  0.00     0.095 C 
ATOM      7  C   UNL     1      67.683  85.020  68.507  1.00  0.00     0.289 C 
ATOM      8  C   UNL     1      68.174  88.039  67.940  1.00  0.00     0.023 C 
ATOM      9  O   UNL     1      68.163  84.323  67.360  1.00  0.00    -0.320 OA
ATOM     10  O   UNL     1      66.538  85.745  68.067  1.00  0.00    -0.313 OA
ATOM     11  C   UNL     1      68.196  85.397  66.408  1.00  0.00     0.170 C 
ATOM     12  C   UNL     1      67.140  87.685  66.828  1.00  0.00     0.049 C 
ATOM     13  C   UNL     1      67.428  88.473  69.212  1.00  0.00     0.011 C 
ATOM     14  C   UNL     1      66.899  86.177  66.739  1.00  0.00     0.122 C 
BRANCH   6  15
ATOM     15  C   UNL     1      70.587  87.312  68.776  1.00  0.00     0.086 C 
ATOM     16  C   UNL     1      71.611  87.969  67.828  1.00  0.00     0.140 CG0
ATOM     17  C   UNL     1      70.577  88.227  69.968  1.00  0.00    -0.010 C 
ATOM     18  C   UNL     1      72.293  88.975  68.731  1.00  0.00     0.190 C 
ATOM     19  G   UNL     1      72.588  86.953  67.240  1.00  0.00     0.000 G0
ATOM     20  C   UNL     1      71.540  89.155  69.986  1.00  0.00    -0.008 C 
ATOM     21  O   UNL     1      73.305  89.602  68.455  1.00  0.00    -0.291 OA
ATOM     22  C   UNL     1      71.881  90.153  71.021  1.00  0.00     0.048 C 
BRANCH  16  23
ATOM     23  O   UNL     1      71.023  88.768  66.814  1.00  0.00    -0.381 OA
ATOM     24  H   UNL     1      70.346  88.240  66.361  1.00  0.00     0.212 HD
ENDBRANCH  16  23
ENDBRANCH   6  15
BRANCH   7  25
ATOM     25  C   UNL     1      67.274  84.027  69.576  1.00  0.00     0.135 C 
BRANCH  25  26
ATOM     26  C   UNL     1      67.142  84.677  70.931  1.00  0.00    -0.040 A 
ATOM     27  C   UNL     1      68.227  84.688  71.807  1.00  0.00     0.004 A 
ATOM     28  C   UNL     1      65.936  85.267  71.307  1.00  0.00     0.004 A 
ATOM     29  C   UNL     1      68.106  85.289  73.061  1.00  0.00     0.000 A 
ATOM     30  C   UNL     1      65.814  85.868  72.560  1.00  0.00     0.000 A 
ATOM     31  C   UNL     1      66.900  85.879  73.437  1.00  0.00     0.000 A 
ENDBRANCH  25  26
ENDBRANCH   7  25
BRANCH  14  32
ATOM     32  C   UNL     1      65.782  85.828  65.810  1.00  0.00    -0.046 C 
ATOM     33  C   UNL     1      65.816  86.477  64.459  1.00  0.00     0.042 C 
ATOM     34  C   UNL     1      64.803  84.981  66.165  1.00  0.00     0.010 C 
ENDBRANCH  14  32
ENDBRANCH   3   4
BRANCH   2  35
ATOM     35  C   UNL     1      72.591  86.937  67.239  1.00  0.00     0.078 CG0
ATOM     36  G   UNL     1      71.621  87.948  67.849  1.00  0.00     0.000 G0
ENDBRANCH   2  35
ENDBRANCH   1   2
BRANCH   1  37
ATOM     37  O   UNL     1      73.129  84.446  64.989  1.00  0.00    -0.461 OA
BRANCH  37  38
ATOM     38  C   UNL     1      73.667  85.499  64.285  1.00  0.00     0.310 C 
ATOM     39  O   UNL     1      73.020  86.375  63.729  1.00  0.00    -0.252 OA
BRANCH  38  40
ATOM     40  C   UNL     1      75.174  85.403  64.308  1.00  0.00     0.158 C 
BRANCH  40  41
ATOM     41  C   UNL     1      75.798  86.212  65.415  1.00  0.00    -0.033 A 
ATOM     42  C   UNL     1      76.260  85.576  66.568  1.00  0.00     0.054 A 
ATOM     43  C   UNL     1      75.916  87.595  65.287  1.00  0.00     0.008 A 
ATOM     44  C   UNL     1      76.838  86.325  67.594  1.00  0.00     0.160 A 
ATOM     45  C   UNL     1      76.494  88.344  66.312  1.00  0.00     0.050 A 
ATOM     46  C   UNL     1      76.954  87.710  67.465  1.00  0.00     0.157 A 
BRANCH  44  47
ATOM     47  O   UNL     1      77.284  85.693  68.715  1.00  0.00    -0.493 OA
ATOM     48  C   UNL     1      76.534  84.566  69.165  1.00  0.00     0.278 C 
ENDBRANCH  44  47
BRANCH  46  49
ATOM     49  O   UNL     1      77.518  88.451  68.459  1.00  0.00    -0.504 OA
ATOM     50  H   UNL     1      77.912  87.852  69.116  1.00  0.00     0.293 HD
ENDBRANCH  46  49
ENDBRANCH  40  41
ENDBRANCH  38  40
ENDBRANCH  37  38
ENDBRANCH   1  37
TORSDOF 11
ENDMDL
MODEL 7
REMARK VINA RESULT:    -6.067     29.696     35.038
REMARK INTER + INTRA:         -10.506
REMARK INTER:                  -9.555
REMARK INTRA:                  -0.951
REMARK UNBOUND:                 0.172
REMARK SMILES C=C(C)[C@]12C[C@@H](C)[C@@]34O[C@](Cc5ccccc5)(O[C@@H]1[C@@H]3C=C(COC(=O)Cc1ccc(O)c(OC)c1)C[C@]1(O)C(=O)C(C)=C[C@@H]41)O2
REMARK SMILES IDX 23 1 22 2 21 3 20 4 9 5 8 6 10 7 6 8 18 9 46 10 19 11 5 12
REMARK SMILES IDX 7 13 4 14 45 15 38 16 44 17 40 18 42 20 41 21 43 22 39 23
REMARK SMILES IDX 11 25 12 26 13 27 17 28 14 29 16 30 15 31 2 32 3 33 1 34
REMARK SMILES IDX 37 35 24 37 25 38 26 39 27 40 28 41 36 42 29 43 33 44 30 45
REMARK SMILES IDX 31 46 34 47 35 48 32 49
REMARK H PARENT 39 24 32 50
REMARK Flexibility Score: 90.00
ROOT
ATOM      1  C   UNL     1      61.827  89.919  69.226  1.00  0.00     0.264 C 
ENDROOT
BRANCH   1   2
ATOM      2  C   UNL     1      61.870  88.714  70.136  1.00  0.00    -0.033 C 
ATOM      3  C   UNL     1      62.650  87.665  69.805  1.00  0.00    -0.015 C 
BRANCH   3   4
ATOM      4  C   UNL     1      62.808  86.323  70.501  1.00  0.00     0.078 C 
ATOM      5  O   UNL     1      64.686  86.554  72.094  1.00  0.00    -0.319 OA
ATOM      6  C   UNL     1      63.247  86.310  72.012  1.00  0.00     0.095 C 
ATOM      7  C   UNL     1      65.486  85.855  71.123  1.00  0.00     0.289 C 
ATOM      8  C   UNL     1      62.927  84.871  72.593  1.00  0.00     0.023 C 
ATOM      9  O   UNL     1      65.078  86.169  69.794  1.00  0.00    -0.320 OA
ATOM     10  O   UNL     1      65.363  84.439  71.239  1.00  0.00    -0.313 OA
ATOM     11  C   UNL     1      63.835  85.452  69.736  1.00  0.00     0.170 C 
ATOM     12  C   UNL     1      63.097  83.765  71.507  1.00  0.00     0.049 C 
ATOM     13  C   UNL     1      63.715  84.477  73.853  1.00  0.00     0.011 C 
ATOM     14  C   UNL     1      64.172  84.138  70.484  1.00  0.00     0.122 C 
BRANCH   6  15
ATOM     15  C   UNL     1      62.607  87.500  72.783  1.00  0.00     0.086 C 
ATOM     16  C   UNL     1      61.125  87.795  72.469  1.00  0.00     0.140 CG0
ATOM     17  C   UNL     1      62.655  87.517  74.285  1.00  0.00    -0.010 C 
ATOM     18  C   UNL     1      60.597  88.271  73.806  1.00  0.00     0.190 C 
ATOM     19  G   UNL     1      60.966  88.845  71.370  1.00  0.00     0.000 G0
ATOM     20  C   UNL     1      61.552  87.970  74.889  1.00  0.00    -0.008 C 
ATOM     21  O   UNL     1      59.507  88.790  73.993  1.00  0.00    -0.291 OA
ATOM     22  C   UNL     1      61.278  88.201  76.323  1.00  0.00     0.048 C 
BRANCH  16  23
ATOM     23  O   UNL     1      60.355  86.637  72.194  1.00  0.00    -0.381 OA
ATOM     24  H   UNL     1      60.363  86.069  72.982  1.00  0.00     0.212 HD
ENDBRANCH  16  23
ENDBRANCH   6  15
BRANCH   7  25
ATOM     25  C   UNL     1      66.934  86.255  71.322  1.00  0.00     0.135 C 
BRANCH  25  26
ATOM     26  C   UNL     1      67.218  86.656  72.748  1.00  0.00    -0.040 A 
ATOM     27  C   UNL     1      67.261  85.686  73.749  1.00  0.00     0.004 A 
ATOM     28  C   UNL     1      67.440  87.996  73.065  1.00  0.00     0.004 A 
ATOM     29  C   UNL     1      67.525  86.056  75.069  1.00  0.00     0.000 A 
ATOM     30  C   UNL     1      67.703  88.366  74.385  1.00  0.00     0.000 A 
ATOM     31  C   UNL     1      67.745  87.395  75.386  1.00  0.00     0.000 A 
ENDBRANCH  25  26
ENDBRANCH   7  25
BRANCH  14  32
ATOM     32  C   UNL     1      64.481  83.019  69.543  1.00  0.00    -0.046 C 
ATOM     33  C   UNL     1      64.070  81.647  69.987  1.00  0.00     0.042 C 
ATOM     34  C   UNL     1      65.092  83.230  68.368  1.00  0.00     0.010 C 
ENDBRANCH  14  32
ENDBRANCH   3   4
BRANCH   2  35
ATOM     35  C   UNL     1      60.991  88.864  71.364  1.00  0.00     0.078 CG0
ATOM     36  G   UNL     1      61.128  87.803  72.455  1.00  0.00     0.000 G0
ENDBRANCH   2  35
ENDBRANCH   1   2
BRANCH   1  37
ATOM     37  O   UNL     1      60.975  89.648  68.134  1.00  0.00    -0.461 OA
BRANCH  37  38
ATOM     38  C   UNL     1      59.660  90.026  68.280  1.00  0.00     0.310 C 
ATOM     39  O   UNL     1      59.249  90.839  69.096  1.00  0.00    -0.252 OA
BRANCH  38  40
ATOM     40  C   UNL     1      58.808  89.283  67.278  1.00  0.00     0.158 C 
BRANCH  40  41
ATOM     41  C   UNL     1      57.467  89.932  67.050  1.00  0.00    -0.033 A 
ATOM     42  C   UNL     1      57.328  90.920  66.074  1.00  0.00     0.054 A 
ATOM     43  C   UNL     1      56.366  89.546  67.813  1.00  0.00     0.008 A 
ATOM     44  C   UNL     1      56.088  91.522  65.863  1.00  0.00     0.160 A 
ATOM     45  C   UNL     1      55.125  90.148  67.602  1.00  0.00     0.050 A 
ATOM     46  C   UNL     1      54.986  91.136  66.628  1.00  0.00     0.157 A 
BRANCH  44  47
ATOM     47  O   UNL     1      55.964  92.485  64.908  1.00  0.00    -0.493 OA
ATOM     48  C   UNL     1      56.152  92.083  63.553  1.00  0.00     0.278 C 
ENDBRANCH  44  47
BRANCH  46  49
ATOM     49  O   UNL     1      53.769  91.715  66.430  1.00  0.00    -0.504 OA
ATOM     50  H   UNL     1      53.135  91.344  67.066  1.00  0.00     0.293 HD
ENDBRANCH  46  49
ENDBRANCH  40  41
ENDBRANCH  38  40
ENDBRANCH  37  38
ENDBRANCH   1  37
TORSDOF 11
ENDMDL
MODEL 8
REMARK VINA RESULT:    -6.000     29.909     37.813
REMARK INTER + INTRA:         -10.388
REMARK INTER:                  -9.389
REMARK INTRA:                  -1.000
REMARK UNBOUND:                 0.172
REMARK SMILES C=C(C)[C@]12C[C@@H](C)[C@@]34O[C@](Cc5ccccc5)(O[C@@H]1[C@@H]3C=C(COC(=O)Cc1ccc(O)c(OC)c1)C[C@]1(O)C(=O)C(C)=C[C@@H]41)O2
REMARK SMILES IDX 23 1 22 2 21 3 20 4 9 5 8 6 10 7 6 8 18 9 46 10 19 11 5 12
REMARK SMILES IDX 7 13 4 14 45 15 38 16 44 17 40 18 42 20 41 21 43 22 39 23
REMARK SMILES IDX 11 25 12 26 13 27 17 28 14 29 16 30 15 31 2 32 3 33 1 34
REMARK SMILES IDX 37 35 24 37 25 38 26 39 27 40 28 41 36 42 29 43 33 44 30 45
REMARK SMILES IDX 31 46 34 47 35 48 32 49
REMARK H PARENT 39 24 32 50
REMARK Flexibility Score: 90.00
ROOT
ATOM      1  C   UNL     1      75.410  70.578  86.382  1.00  0.00     0.264 C 
ENDROOT
BRANCH   1   2
ATOM      2  C   UNL     1      75.292  69.244  85.683  1.00  0.00    -0.033 C 
ATOM      3  C   UNL     1      76.409  68.536  85.422  1.00  0.00    -0.015 C 
BRANCH   3   4
ATOM      4  C   UNL     1      76.564  67.222  84.673  1.00  0.00     0.078 C 
ATOM      5  O   UNL     1      76.447  65.414  86.357  1.00  0.00    -0.319 OA
ATOM      6  C   UNL     1      75.766  65.967  85.188  1.00  0.00     0.095 C 
ATOM      7  C   UNL     1      77.882  65.344  86.258  1.00  0.00     0.289 C 
ATOM      8  C   UNL     1      75.763  64.890  84.026  1.00  0.00     0.023 C 
ATOM      9  O   UNL     1      78.447  66.628  86.007  1.00  0.00    -0.320 OA
ATOM     10  O   UNL     1      78.311  64.517  85.180  1.00  0.00    -0.313 OA
ATOM     11  C   UNL     1      78.057  66.811  84.637  1.00  0.00     0.170 C 
ATOM     12  C   UNL     1      77.079  64.948  83.190  1.00  0.00     0.049 C 
ATOM     13  C   UNL     1      75.502  63.441  84.469  1.00  0.00     0.011 C 
ATOM     14  C   UNL     1      78.269  65.398  84.038  1.00  0.00     0.122 C 
BRANCH   6  15
ATOM     15  C   UNL     1      74.363  66.384  85.717  1.00  0.00     0.086 C 
ATOM     16  C   UNL     1      73.593  67.413  84.864  1.00  0.00     0.140 CG0
ATOM     17  C   UNL     1      73.336  65.323  85.996  1.00  0.00    -0.010 C 
ATOM     18  C   UNL     1      72.155  66.979  85.049  1.00  0.00     0.190 C 
ATOM     19  G   UNL     1      73.837  68.848  85.331  1.00  0.00     0.000 G0
ATOM     20  C   UNL     1      72.081  65.638  85.658  1.00  0.00    -0.008 C 
ATOM     21  O   UNL     1      71.172  67.617  84.701  1.00  0.00    -0.291 OA
ATOM     22  C   UNL     1      70.825  64.887  85.858  1.00  0.00     0.048 C 
BRANCH  16  23
ATOM     23  O   UNL     1      73.811  67.279  83.469  1.00  0.00    -0.381 OA
ATOM     24  H   UNL     1      72.947  67.216  83.028  1.00  0.00     0.212 HD
ENDBRANCH  16  23
ENDBRANCH   6  15
BRANCH   7  25
ATOM     25  C   UNL     1      78.422  64.794  87.563  1.00  0.00     0.135 C 
BRANCH  25  26
ATOM     26  C   UNL     1      77.363  64.741  88.636  1.00  0.00    -0.040 A 
ATOM     27  C   UNL     1      76.791  63.519  88.992  1.00  0.00     0.004 A 
ATOM     28  C   UNL     1      76.956  65.913  89.273  1.00  0.00     0.004 A 
ATOM     29  C   UNL     1      75.812  63.470  89.984  1.00  0.00     0.000 A 
ATOM     30  C   UNL     1      75.976  65.864  90.265  1.00  0.00     0.000 A 
ATOM     31  C   UNL     1      75.405  64.642  90.620  1.00  0.00     0.000 A 
ENDBRANCH  25  26
ENDBRANCH   7  25
BRANCH  14  32
ATOM     32  C   UNL     1      79.568  65.286  83.309  1.00  0.00    -0.046 C 
ATOM     33  C   UNL     1      80.736  64.791  84.110  1.00  0.00     0.042 C 
ATOM     34  C   UNL     1      79.685  65.610  82.013  1.00  0.00     0.010 C 
ENDBRANCH  14  32
ENDBRANCH   3   4
BRANCH   2  35
ATOM     35  C   UNL     1      73.858  68.865  85.364  1.00  0.00     0.078 CG0
ATOM     36  G   UNL     1      73.605  67.442  84.870  1.00  0.00     0.000 G0
ENDBRANCH   2  35
ENDBRANCH   1   2
BRANCH   1  37
ATOM     37  O   UNL     1      76.613  71.205  85.992  1.00  0.00    -0.461 OA
BRANCH  37  38
ATOM     38  C   UNL     1      77.442  71.618  87.009  1.00  0.00     0.310 C 
ATOM     39  O   UNL     1      77.953  70.881  87.842  1.00  0.00    -0.252 OA
BRANCH  38  40
ATOM     40  C   UNL     1      77.622  73.116  86.937  1.00  0.00     0.158 C 
BRANCH  40  41
ATOM     41  C   UNL     1      78.706  73.532  85.977  1.00  0.00    -0.033 A 
ATOM     42  C   UNL     1      80.003  73.753  86.442  1.00  0.00     0.054 A 
ATOM     43  C   UNL     1      78.414  73.696  84.623  1.00  0.00     0.008 A 
ATOM     44  C   UNL     1      81.007  74.138  85.553  1.00  0.00     0.160 A 
ATOM     45  C   UNL     1      79.418  74.082  83.734  1.00  0.00     0.050 A 
ATOM     46  C   UNL     1      80.714  74.303  84.199  1.00  0.00     0.157 A 
BRANCH  44  47
ATOM     47  O   UNL     1      82.269  74.351  86.019  1.00  0.00    -0.493 OA
ATOM     48  C   UNL     1      82.395  74.799  87.368  1.00  0.00     0.278 C 
ENDBRANCH  44  47
BRANCH  46  49
ATOM     49  O   UNL     1      81.686  74.678  83.321  1.00  0.00    -0.504 OA
ATOM     50  H   UNL     1      82.203  75.402  83.712  1.00  0.00     0.293 HD
ENDBRANCH  46  49
ENDBRANCH  40  41
ENDBRANCH  38  40
ENDBRANCH  37  38
ENDBRANCH   1  37
TORSDOF 11
ENDMDL
MODEL 9
REMARK VINA RESULT:    -5.953     29.999     38.132
REMARK INTER + INTRA:         -10.305
REMARK INTER:                  -9.570
REMARK INTRA:                  -0.736
REMARK UNBOUND:                 0.172
REMARK SMILES C=C(C)[C@]12C[C@@H](C)[C@@]34O[C@](Cc5ccccc5)(O[C@@H]1[C@@H]3C=C(COC(=O)Cc1ccc(O)c(OC)c1)C[C@]1(O)C(=O)C(C)=C[C@@H]41)O2
REMARK SMILES IDX 23 1 22 2 21 3 20 4 9 5 8 6 10 7 6 8 18 9 46 10 19 11 5 12
REMARK SMILES IDX 7 13 4 14 45 15 38 16 44 17 40 18 42 20 41 21 43 22 39 23
REMARK SMILES IDX 11 25 12 26 13 27 17 28 14 29 16 30 15 31 2 32 3 33 1 34
REMARK SMILES IDX 37 35 24 37 25 38 26 39 27 40 28 41 36 42 29 43 33 44 30 45
REMARK SMILES IDX 31 46 34 47 35 48 32 49
REMARK H PARENT 39 24 32 50
REMARK Flexibility Score: 90.00
ROOT
ATOM      1  C   UNL     1      76.177  70.171  86.147  1.00  0.00     0.264 C 
ENDROOT
BRANCH   1   2
ATOM      2  C   UNL     1      75.226  68.997  86.139  1.00  0.00    -0.033 C 
ATOM      3  C   UNL     1      73.897  69.225  86.188  1.00  0.00    -0.015 C 
BRANCH   3   4
ATOM      4  C   UNL     1      72.751  68.231  86.268  1.00  0.00     0.078 C 
ATOM      5  O   UNL     1      72.055  67.743  83.945  1.00  0.00    -0.319 OA
ATOM      6  C   UNL     1      72.628  67.136  85.143  1.00  0.00     0.095 C 
ATOM      7  C   UNL     1      70.953  68.642  84.175  1.00  0.00     0.289 C 
ATOM      8  C   UNL     1      71.652  66.007  85.676  1.00  0.00     0.023 C 
ATOM      9  O   UNL     1      71.325  69.702  85.052  1.00  0.00    -0.320 OA
ATOM     10  O   UNL     1      69.849  67.994  84.802  1.00  0.00    -0.313 OA
ATOM     11  C   UNL     1      71.400  68.987  86.295  1.00  0.00     0.170 C 
ATOM     12  C   UNL     1      70.544  66.600  86.601  1.00  0.00     0.049 C 
ATOM     13  C   UNL     1      71.000  65.133  84.593  1.00  0.00     0.011 C 
ATOM     14  C   UNL     1      70.183  68.032  86.205  1.00  0.00     0.122 C 
BRANCH   6  15
ATOM     15  C   UNL     1      74.036  66.646  84.696  1.00  0.00     0.086 C 
ATOM     16  C   UNL     1      75.061  66.402  85.822  1.00  0.00     0.140 CG0
ATOM     17  C   UNL     1      74.150  65.411  83.846  1.00  0.00    -0.010 C 
ATOM     18  C   UNL     1      75.859  65.230  85.289  1.00  0.00     0.190 C 
ATOM     19  G   UNL     1      75.931  67.630  86.086  1.00  0.00     0.000 G0
ATOM     20  C   UNL     1      75.179  64.609  84.137  1.00  0.00    -0.008 C 
ATOM     21  O   UNL     1      76.900  64.807  85.767  1.00  0.00    -0.291 OA
ATOM     22  C   UNL     1      75.642  63.375  83.470  1.00  0.00     0.048 C 
BRANCH  16  23
ATOM     23  O   UNL     1      74.490  65.905  87.021  1.00  0.00    -0.381 OA
ATOM     24  H   UNL     1      73.740  65.332  86.789  1.00  0.00     0.212 HD
ENDBRANCH  16  23
ENDBRANCH   6  15
BRANCH   7  25
ATOM     25  C   UNL     1      70.516  69.210  82.841  1.00  0.00     0.135 C 
BRANCH  25  26
ATOM     26  C   UNL     1      69.112  68.790  82.480  1.00  0.00    -0.040 A 
ATOM     27  C   UNL     1      68.905  67.666  81.679  1.00  0.00     0.004 A 
ATOM     28  C   UNL     1      68.022  69.523  82.948  1.00  0.00     0.004 A 
ATOM     29  C   UNL     1      67.608  67.277  81.346  1.00  0.00     0.000 A 
ATOM     30  C   UNL     1      66.725  69.133  82.614  1.00  0.00     0.000 A 
ATOM     31  C   UNL     1      66.518  68.010  81.813  1.00  0.00     0.000 A 
ENDBRANCH  25  26
ENDBRANCH   7  25
BRANCH  14  32
ATOM     32  C   UNL     1      69.002  68.555  86.955  1.00  0.00    -0.046 C 
ATOM     33  C   UNL     1      69.288  69.180  88.288  1.00  0.00     0.042 C 
ATOM     34  C   UNL     1      67.756  68.470  86.466  1.00  0.00     0.010 C 
ENDBRANCH  14  32
ENDBRANCH   3   4
BRANCH   2  35
ATOM     35  C   UNL     1      75.934  67.658  86.066  1.00  0.00     0.078 CG0
ATOM     36  G   UNL     1      75.067  66.421  85.837  1.00  0.00     0.000 G0
ENDBRANCH   2  35
ENDBRANCH   1   2
BRANCH   1  37
ATOM     37  O   UNL     1      75.945  70.968  85.006  1.00  0.00    -0.461 OA
BRANCH  37  38
ATOM     38  C   UNL     1      77.043  71.599  84.470  1.00  0.00     0.310 C 
ATOM     39  O   UNL     1      77.802  71.110  83.645  1.00  0.00    -0.252 OA
BRANCH  38  40
ATOM     40  C   UNL     1      77.166  72.985  85.059  1.00  0.00     0.158 C 
BRANCH  40  41
ATOM     41  C   UNL     1      78.463  73.663  84.701  1.00  0.00    -0.033 A 
ATOM     42  C   UNL     1      79.466  73.802  85.663  1.00  0.00     0.054 A 
ATOM     43  C   UNL     1      78.663  74.151  83.410  1.00  0.00     0.008 A 
ATOM     44  C   UNL     1      80.667  74.430  85.332  1.00  0.00     0.160 A 
ATOM     45  C   UNL     1      79.864  74.779  83.080  1.00  0.00     0.050 A 
ATOM     46  C   UNL     1      80.866  74.919  84.040  1.00  0.00     0.157 A 
BRANCH  44  47
ATOM     47  O   UNL     1      81.637  74.560  86.278  1.00  0.00    -0.493 OA
ATOM     48  C   UNL     1      81.230  75.021  87.565  1.00  0.00     0.278 C 
ENDBRANCH  44  47
BRANCH  46  49
ATOM     49  O   UNL     1      82.034  75.532  83.705  1.00  0.00    -0.504 OA
ATOM     50  H   UNL     1      82.218  75.372  82.764  1.00  0.00     0.293 HD
ENDBRANCH  46  49
ENDBRANCH  40  41
ENDBRANCH  38  40
ENDBRANCH  37  38
ENDBRANCH   1  37
TORSDOF 11
ENDMDL
MODEL 10
REMARK VINA RESULT:    -5.939     29.597     37.340
REMARK INTER + INTRA:         -10.281
REMARK INTER:                  -9.059
REMARK INTRA:                  -1.222
REMARK UNBOUND:                 0.172
REMARK SMILES C=C(C)[C@]12C[C@@H](C)[C@@]34O[C@](Cc5ccccc5)(O[C@@H]1[C@@H]3C=C(COC(=O)Cc1ccc(O)c(OC)c1)C[C@]1(O)C(=O)C(C)=C[C@@H]41)O2
REMARK SMILES IDX 23 1 22 2 21 3 20 4 9 5 8 6 10 7 6 8 18 9 46 10 19 11 5 12
REMARK SMILES IDX 7 13 4 14 45 15 38 16 44 17 40 18 42 20 41 21 43 22 39 23
REMARK SMILES IDX 11 25 12 26 13 27 17 28 14 29 16 30 15 31 2 32 3 33 1 34
REMARK SMILES IDX 37 35 24 37 25 38 26 39 27 40 28 41 36 42 29 43 33 44 30 45
REMARK SMILES IDX 31 46 34 47 35 48 32 49
REMARK H PARENT 39 24 32 50
REMARK Flexibility Score: 90.00
ROOT
ATOM      1  C   UNL     1      80.010  68.125  87.987  1.00  0.00     0.264 C 
ENDROOT
BRANCH   1   2
ATOM      2  C   UNL     1      79.257  67.114  87.155  1.00  0.00    -0.033 C 
ATOM      3  C   UNL     1      77.927  66.977  87.328  1.00  0.00    -0.015 C 
BRANCH   3   4
ATOM      4  C   UNL     1      76.967  65.992  86.681  1.00  0.00     0.078 C 
ATOM      5  O   UNL     1      76.078  67.084  84.646  1.00  0.00    -0.319 OA
ATOM      6  C   UNL     1      76.880  65.954  85.109  1.00  0.00     0.095 C 
ATOM      7  C   UNL     1      74.887  67.349  85.411  1.00  0.00     0.289 C 
ATOM      8  C   UNL     1      76.162  64.601  84.702  1.00  0.00     0.023 C 
ATOM      9  O   UNL     1      75.194  67.580  86.783  1.00  0.00    -0.320 OA
ATOM     10  O   UNL     1      73.981  66.249  85.399  1.00  0.00    -0.313 OA
ATOM     11  C   UNL     1      75.528  66.246  87.195  1.00  0.00     0.170 C 
ATOM     12  C   UNL     1      75.097  64.178  85.760  1.00  0.00     0.049 C 
ATOM     13  C   UNL     1      75.527  64.587  83.302  1.00  0.00     0.011 C 
ATOM     14  C   UNL     1      74.473  65.392  86.450  1.00  0.00     0.122 C 
BRANCH   6  15
ATOM     15  C   UNL     1      78.281  66.185  84.473  1.00  0.00     0.086 C 
ATOM     16  C   UNL     1      79.463  65.458  85.149  1.00  0.00     0.140 CG0
ATOM     17  C   UNL     1      78.483  65.898  83.012  1.00  0.00    -0.010 C 
ATOM     18  C   UNL     1      80.363  65.139  83.974  1.00  0.00     0.190 C 
ATOM     19  G   UNL     1      80.154  66.330  86.196  1.00  0.00     0.000 G0
ATOM     20  C   UNL     1      79.655  65.335  82.696  1.00  0.00    -0.008 C 
ATOM     21  O   UNL     1      81.510  64.723  84.053  1.00  0.00    -0.291 OA
ATOM     22  C   UNL     1      80.221  64.995  81.374  1.00  0.00     0.048 C 
BRANCH  16  23
ATOM     23  O   UNL     1      79.128  64.184  85.675  1.00  0.00    -0.381 OA
ATOM     24  H   UNL     1      78.588  63.714  85.019  1.00  0.00     0.212 HD
ENDBRANCH  16  23
ENDBRANCH   6  15
BRANCH   7  25
ATOM     25  C   UNL     1      74.207  68.570  84.825  1.00  0.00     0.135 C 
BRANCH  25  26
ATOM     26  C   UNL     1      72.720  68.564  85.075  1.00  0.00    -0.040 A 
ATOM     27  C   UNL     1      71.871  67.869  84.213  1.00  0.00     0.004 A 
ATOM     28  C   UNL     1      72.193  69.251  86.168  1.00  0.00     0.004 A 
ATOM     29  C   UNL     1      70.495  67.863  84.443  1.00  0.00     0.000 A 
ATOM     30  C   UNL     1      70.817  69.244  86.399  1.00  0.00     0.000 A 
ATOM     31  C   UNL     1      69.969  68.551  85.536  1.00  0.00     0.000 A 
ENDBRANCH  25  26
ENDBRANCH   7  25
BRANCH  14  32
ATOM     32  C   UNL     1      73.325  65.023  87.332  1.00  0.00    -0.046 C 
ATOM     33  C   UNL     1      73.364  63.648  87.931  1.00  0.00     0.042 C 
ATOM     34  C   UNL     1      72.316  65.872  87.576  1.00  0.00     0.010 C 
ENDBRANCH  14  32
ENDBRANCH   3   4
BRANCH   2  35
ATOM     35  C   UNL     1      80.148  66.360  86.185  1.00  0.00     0.078 CG0
ATOM     36  G   UNL     1      79.460  65.458  85.161  1.00  0.00     0.000 G0
ENDBRANCH   2  35
ENDBRANCH   1   2
BRANCH   1  37
ATOM     37  O   UNL     1      79.838  69.410  87.428  1.00  0.00    -0.461 OA
BRANCH  37  38
ATOM     38  C   UNL     1      80.986  70.134  87.203  1.00  0.00     0.310 C 
ATOM     39  O   UNL     1      82.036  69.672  86.778  1.00  0.00    -0.252 OA
BRANCH  38  40
ATOM     40  C   UNL     1      80.747  71.582  87.560  1.00  0.00     0.158 C 
BRANCH  40  41
ATOM     41  C   UNL     1      81.008  72.522  86.411  1.00  0.00    -0.033 A 
ATOM     42  C   UNL     1      80.439  72.271  85.162  1.00  0.00     0.054 A 
ATOM     43  C   UNL     1      81.817  73.643  86.596  1.00  0.00     0.008 A 
ATOM     44  C   UNL     1      80.680  73.141  84.098  1.00  0.00     0.160 A 
ATOM     45  C   UNL     1      82.058  74.513  85.533  1.00  0.00     0.050 A 
ATOM     46  C   UNL     1      81.491  74.262  84.284  1.00  0.00     0.157 A 
BRANCH  44  47
ATOM     47  O   UNL     1      80.120  72.885  82.883  1.00  0.00    -0.493 OA
ATOM     48  C   UNL     1      78.841  72.253  82.879  1.00  0.00     0.278 C 
ENDBRANCH  44  47
BRANCH  46  49
ATOM     49  O   UNL     1      81.732  75.119  83.254  1.00  0.00    -0.504 OA
ATOM     50  H   UNL     1      81.129  75.878  83.324  1.00  0.00     0.293 HD
ENDBRANCH  46  49
ENDBRANCH  40  41
ENDBRANCH  38  40
ENDBRANCH  37  38
ENDBRANCH   1  37
TORSDOF 11
ENDMDL
