MODEL 1
REMARK VINA RESULT:    -6.589      0.000      0.000
REMARK INTER + INTRA:         -11.679
REMARK INTER:                 -10.633
REMARK INTRA:                  -1.046
REMARK UNBOUND:                -1.046
REMARK SMILES COc1cc(CNC(=O)CCCCCCC(C)C)ccc1O
REMARK SMILES IDX 11 1 10 2 8 3 7 4 9 6 6 7 5 8 3 9 21 10 4 11 20 12 19 13
REMARK SMILES IDX 2 14 1 15 22 16 12 18 13 19 14 20 15 21 16 22 17 23 18 24
REMARK H PARENT 7 5 22 17
REMARK Flexibility Score: inf
ROOT
ATOM      1  C   UNL     1      90.274  91.518  77.935  1.00  0.00     0.010 C 
ENDROOT
BRANCH   1   2
ATOM      2  C   UNL     1      89.782  92.782  77.178  1.00  0.00     0.100 C 
BRANCH   2   3
ATOM      3  C   UNL     1      90.758  93.286  76.186  1.00  0.00     0.220 C 
ATOM      4  N   UNL     1      92.068  92.910  76.256  1.00  0.00    -0.352 N 
ATOM      5  H   UNL     1      92.296  92.320  77.042  1.00  0.00     0.163 HD
ATOM      6  O   UNL     1      90.350  94.042  75.271  1.00  0.00    -0.275 OA
BRANCH   4   7
ATOM      7  C   UNL     1      93.086  93.286  75.322  1.00  0.00     0.151 C 
BRANCH   7   8
ATOM      8  C   UNL     1      94.274  93.908  75.969  1.00  0.00    -0.025 A 
ATOM      9  C   UNL     1      95.385  94.800  77.974  1.00  0.00     0.160 A 
ATOM     10  C   UNL     1      96.551  95.052  77.218  1.00  0.00     0.157 A 
ATOM     11  C   UNL     1      94.251  94.248  77.340  1.00  0.00     0.056 A 
ATOM     12  C   UNL     1      96.573  94.754  75.844  1.00  0.00     0.050 A 
ATOM     13  C   UNL     1      95.447  94.176  75.224  1.00  0.00     0.009 A 
BRANCH   9  14
ATOM     14  O   UNL     1      95.339  95.123  79.303  1.00  0.00    -0.493 OA
ATOM     15  C   UNL     1      95.603  94.012  80.179  1.00  0.00     0.278 C 
ENDBRANCH   9  14
BRANCH  10  16
ATOM     16  O   UNL     1      97.657  95.585  77.802  1.00  0.00    -0.504 OA
ATOM     17  H   UNL     1      97.601  95.472  78.754  1.00  0.00     0.293 HD
ENDBRANCH  10  16
ENDBRANCH   7   8
ENDBRANCH   4   7
ENDBRANCH   2   3
ENDBRANCH   1   2
BRANCH   1  18
ATOM     18  C   UNL     1      89.858  90.203  77.216  1.00  0.00     0.001 C 
BRANCH  18  19
ATOM     19  C   UNL     1      88.820  90.414  76.077  1.00  0.00     0.000 C 
BRANCH  19  20
ATOM     20  C   UNL     1      89.183  89.584  74.813  1.00  0.00     0.000 C 
BRANCH  20  21
ATOM     21  C   UNL     1      89.690  90.436  73.616  1.00  0.00     0.003 C 
BRANCH  21  22
ATOM     22  C   UNL     1      88.683  91.525  73.120  1.00  0.00    -0.017 C 
ATOM     23  C   UNL     1      87.516  90.867  72.331  1.00  0.00     0.007 C 
ATOM     24  C   UNL     1      89.347  92.650  72.274  1.00  0.00     0.007 C 
ENDBRANCH  21  22
ENDBRANCH  20  21
ENDBRANCH  19  20
ENDBRANCH  18  19
ENDBRANCH   1  18
TORSDOF 11
ENDMDL
MODEL 2
REMARK VINA RESULT:    -6.513      2.700      7.717
REMARK INTER + INTRA:         -11.557
REMARK INTER:                 -10.429
REMARK INTRA:                  -1.128
REMARK UNBOUND:                -1.046
REMARK SMILES COc1cc(CNC(=O)CCCCCCC(C)C)ccc1O
REMARK SMILES IDX 11 1 10 2 8 3 7 4 9 6 6 7 5 8 3 9 21 10 4 11 20 12 19 13
REMARK SMILES IDX 2 14 1 15 22 16 12 18 13 19 14 20 15 21 16 22 17 23 18 24
REMARK H PARENT 7 5 22 17
REMARK Flexibility Score: inf
ROOT
ATOM      1  C   UNL     1      93.423  94.229  76.701  1.00  0.00     0.010 C 
ENDROOT
BRANCH   1   2
ATOM      2  C   UNL     1      92.150  94.980  76.221  1.00  0.00     0.100 C 
BRANCH   2   3
ATOM      3  C   UNL     1      90.897  94.245  76.500  1.00  0.00     0.220 C 
ATOM      4  N   UNL     1      90.922  93.090  77.227  1.00  0.00    -0.352 N 
ATOM      5  H   UNL     1      91.845  92.784  77.499  1.00  0.00     0.163 HD
ATOM      6  O   UNL     1      89.814  94.718  76.076  1.00  0.00    -0.275 OA
BRANCH   4   7
ATOM      7  C   UNL     1      89.772  92.327  77.607  1.00  0.00     0.151 C 
BRANCH   7   8
ATOM      8  C   UNL     1      89.671  91.024  76.894  1.00  0.00    -0.025 A 
ATOM      9  C   UNL     1      89.142  89.743  74.862  1.00  0.00     0.160 A 
ATOM     10  C   UNL     1      89.517  88.549  75.515  1.00  0.00     0.157 A 
ATOM     11  C   UNL     1      89.204  90.967  75.561  1.00  0.00     0.056 A 
ATOM     12  C   UNL     1      89.946  88.587  76.854  1.00  0.00     0.050 A 
ATOM     13  C   UNL     1      90.033  89.816  77.536  1.00  0.00     0.009 A 
BRANCH   9  14
ATOM     14  O   UNL     1      88.686  89.712  73.573  1.00  0.00    -0.493 OA
ATOM     15  C   UNL     1      89.649  90.167  72.605  1.00  0.00     0.278 C 
ENDBRANCH   9  14
BRANCH  10  16
ATOM     16  O   UNL     1      89.466  87.355  74.867  1.00  0.00    -0.504 OA
ATOM     17  H   UNL     1      88.821  86.787  75.294  1.00  0.00     0.293 HD
ENDBRANCH  10  16
ENDBRANCH   7   8
ENDBRANCH   4   7
ENDBRANCH   2   3
ENDBRANCH   1   2
BRANCH   1  18
ATOM     18  C   UNL     1      94.284  93.715  75.512  1.00  0.00     0.001 C 
BRANCH  18  19
ATOM     19  C   UNL     1      95.801  94.028  75.657  1.00  0.00     0.000 C 
BRANCH  19  20
ATOM     20  C   UNL     1      96.214  95.260  74.804  1.00  0.00     0.000 C 
BRANCH  20  21
ATOM     21  C   UNL     1      96.139  96.614  75.563  1.00  0.00     0.003 C 
BRANCH  21  22
ATOM     22  C   UNL     1      95.446  97.768  74.767  1.00  0.00    -0.017 C 
ATOM     23  C   UNL     1      94.254  97.215  73.936  1.00  0.00     0.007 C 
ATOM     24  C   UNL     1      96.420  98.572  73.856  1.00  0.00     0.007 C 
ENDBRANCH  21  22
ENDBRANCH  20  21
ENDBRANCH  19  20
ENDBRANCH  18  19
ENDBRANCH   1  18
TORSDOF 11
ENDMDL
MODEL 3
REMARK VINA RESULT:    -6.266      1.831      2.549
REMARK INTER + INTRA:         -11.159
REMARK INTER:                  -9.781
REMARK INTRA:                  -1.378
REMARK UNBOUND:                -1.046
REMARK SMILES COc1cc(CNC(=O)CCCCCCC(C)C)ccc1O
REMARK SMILES IDX 11 1 10 2 8 3 7 4 9 6 6 7 5 8 3 9 21 10 4 11 20 12 19 13
REMARK SMILES IDX 2 14 1 15 22 16 12 18 13 19 14 20 15 21 16 22 17 23 18 24
REMARK H PARENT 7 5 22 17
REMARK Flexibility Score: inf
ROOT
ATOM      1  C   UNL     1      91.134  93.009  77.016  1.00  0.00     0.010 C 
ENDROOT
BRANCH   1   2
ATOM      2  C   UNL     1      91.434  94.441  76.495  1.00  0.00     0.100 C 
BRANCH   2   3
ATOM      3  C   UNL     1      92.837  94.624  76.060  1.00  0.00     0.220 C 
ATOM      4  N   UNL     1      93.866  94.268  76.882  1.00  0.00    -0.352 N 
ATOM      5  H   UNL     1      93.582  93.929  77.790  1.00  0.00     0.163 HD
ATOM      6  O   UNL     1      93.056  95.087  74.913  1.00  0.00    -0.275 OA
BRANCH   4   7
ATOM      7  C   UNL     1      95.256  94.344  76.548  1.00  0.00     0.151 C 
BRANCH   7   8
ATOM      8  C   UNL     1      96.096  94.886  77.651  1.00  0.00    -0.025 A 
ATOM      9  C   UNL     1      96.685  94.966  80.037  1.00  0.00     0.160 A 
ATOM     10  C   UNL     1      97.722  95.882  79.752  1.00  0.00     0.157 A 
ATOM     11  C   UNL     1      95.870  94.491  78.989  1.00  0.00     0.056 A 
ATOM     12  C   UNL     1      97.931  96.314  78.430  1.00  0.00     0.050 A 
ATOM     13  C   UNL     1      97.132  95.812  77.384  1.00  0.00     0.009 A 
BRANCH   9  14
ATOM     14  O   UNL     1      96.447  94.571  81.325  1.00  0.00    -0.493 OA
ATOM     15  C   UNL     1      95.305  95.208  81.926  1.00  0.00     0.278 C 
ENDBRANCH   9  14
BRANCH  10  16
ATOM     16  O   UNL     1      98.522  96.358  80.743  1.00  0.00    -0.504 OA
ATOM     17  H   UNL     1      98.753  97.271  80.555  1.00  0.00     0.293 HD
ENDBRANCH  10  16
ENDBRANCH   7   8
ENDBRANCH   4   7
ENDBRANCH   2   3
ENDBRANCH   1   2
BRANCH   1  18
ATOM     18  C   UNL     1      89.608  92.724  77.105  1.00  0.00     0.001 C 
BRANCH  18  19
ATOM     19  C   UNL     1      89.221  91.262  76.745  1.00  0.00     0.000 C 
BRANCH  19  20
ATOM     20  C   UNL     1      90.086  90.713  75.576  1.00  0.00     0.000 C 
BRANCH  20  21
ATOM     21  C   UNL     1      89.493  90.978  74.165  1.00  0.00     0.003 C 
BRANCH  21  22
ATOM     22  C   UNL     1      90.380  91.879  73.245  1.00  0.00    -0.017 C 
ATOM     23  C   UNL     1      91.882  91.721  73.614  1.00  0.00     0.007 C 
ATOM     24  C   UNL     1      89.971  93.382  73.260  1.00  0.00     0.007 C 
ENDBRANCH  21  22
ENDBRANCH  20  21
ENDBRANCH  19  20
ENDBRANCH  18  19
ENDBRANCH   1  18
TORSDOF 11
ENDMDL
MODEL 4
REMARK VINA RESULT:    -6.202      2.397      8.233
REMARK INTER + INTRA:         -11.054
REMARK INTER:                 -10.076
REMARK INTRA:                  -0.978
REMARK UNBOUND:                -1.046
REMARK SMILES COc1cc(CNC(=O)CCCCCCC(C)C)ccc1O
REMARK SMILES IDX 11 1 10 2 8 3 7 4 9 6 6 7 5 8 3 9 21 10 4 11 20 12 19 13
REMARK SMILES IDX 2 14 1 15 22 16 12 18 13 19 14 20 15 21 16 22 17 23 18 24
REMARK H PARENT 7 5 22 17
REMARK Flexibility Score: inf
ROOT
ATOM      1  C   UNL     1      94.154  94.319  77.075  1.00  0.00     0.010 C 
ENDROOT
BRANCH   1   2
ATOM      2  C   UNL     1      92.876  94.621  76.244  1.00  0.00     0.100 C 
BRANCH   2   3
ATOM      3  C   UNL     1      91.682  93.887  76.719  1.00  0.00     0.220 C 
ATOM      4  N   UNL     1      91.821  92.720  77.412  1.00  0.00    -0.352 N 
ATOM      5  H   UNL     1      92.774  92.405  77.519  1.00  0.00     0.163 HD
ATOM      6  O   UNL     1      90.547  94.374  76.493  1.00  0.00    -0.275 OA
BRANCH   4   7
ATOM      7  C   UNL     1      90.745  91.957  77.969  1.00  0.00     0.151 C 
BRANCH   7   8
ATOM      8  C   UNL     1      90.429  90.731  77.186  1.00  0.00    -0.025 A 
ATOM      9  C   UNL     1      90.274  89.564  75.026  1.00  0.00     0.160 A 
ATOM     10  C   UNL     1      89.872  88.385  75.690  1.00  0.00     0.157 A 
ATOM     11  C   UNL     1      90.531  90.731  75.776  1.00  0.00     0.056 A 
ATOM     12  C   UNL     1      89.728  88.383  77.089  1.00  0.00     0.050 A 
ATOM     13  C   UNL     1      90.015  89.543  77.834  1.00  0.00     0.009 A 
BRANCH   9  14
ATOM     14  O   UNL     1      90.378  89.588  73.662  1.00  0.00    -0.493 OA
ATOM     15  C   UNL     1      90.391  90.915  73.104  1.00  0.00     0.278 C 
ENDBRANCH   9  14
BRANCH  10  16
ATOM     16  O   UNL     1      89.616  87.246  74.993  1.00  0.00    -0.504 OA
ATOM     17  H   UNL     1      88.690  87.011  75.094  1.00  0.00     0.293 HD
ENDBRANCH  10  16
ENDBRANCH   7   8
ENDBRANCH   4   7
ENDBRANCH   2   3
ENDBRANCH   1   2
BRANCH   1  18
ATOM     18  C   UNL     1      95.422  94.207  76.182  1.00  0.00     0.001 C 
BRANCH  18  19
ATOM     19  C   UNL     1      96.745  94.541  76.927  1.00  0.00     0.000 C 
BRANCH  19  20
ATOM     20  C   UNL     1      96.894  96.069  77.171  1.00  0.00     0.000 C 
BRANCH  20  21
ATOM     21  C   UNL     1      96.739  96.496  78.657  1.00  0.00     0.003 C 
BRANCH  21  22
ATOM     22  C   UNL     1      96.655  95.307  79.669  1.00  0.00    -0.017 C 
ATOM     23  C   UNL     1      95.292  95.324  80.416  1.00  0.00     0.007 C 
ATOM     24  C   UNL     1      97.833  95.268  80.687  1.00  0.00     0.007 C 
ENDBRANCH  21  22
ENDBRANCH  20  21
ENDBRANCH  19  20
ENDBRANCH  18  19
ENDBRANCH   1  18
TORSDOF 11
ENDMDL
MODEL 5
REMARK VINA RESULT:    -6.149     13.703     16.286
REMARK INTER + INTRA:         -10.969
REMARK INTER:                  -9.029
REMARK INTRA:                  -1.941
REMARK UNBOUND:                -1.046
REMARK SMILES COc1cc(CNC(=O)CCCCCCC(C)C)ccc1O
REMARK SMILES IDX 11 1 10 2 8 3 7 4 9 6 6 7 5 8 3 9 21 10 4 11 20 12 19 13
REMARK SMILES IDX 2 14 1 15 22 16 12 18 13 19 14 20 15 21 16 22 17 23 18 24
REMARK H PARENT 7 5 22 17
REMARK Flexibility Score: inf
ROOT
ATOM      1  C   UNL     1      80.927  86.151  84.601  1.00  0.00     0.010 C 
ENDROOT
BRANCH   1   2
ATOM      2  C   UNL     1      80.020  86.042  85.858  1.00  0.00     0.100 C 
BRANCH   2   3
ATOM      3  C   UNL     1      80.698  86.457  87.106  1.00  0.00     0.220 C 
ATOM      4  N   UNL     1      80.109  87.360  87.943  1.00  0.00    -0.352 N 
ATOM      5  H   UNL     1      79.230  87.729  87.613  1.00  0.00     0.163 HD
ATOM      6  O   UNL     1      81.808  85.943  87.387  1.00  0.00    -0.275 OA
BRANCH   4   7
ATOM      7  C   UNL     1      80.641  87.790  89.200  1.00  0.00     0.151 C 
BRANCH   7   8
ATOM      8  C   UNL     1      81.362  89.090  89.119  1.00  0.00    -0.025 A 
ATOM      9  C   UNL     1      83.255  90.520  89.766  1.00  0.00     0.160 A 
ATOM     10  C   UNL     1      82.765  91.550  88.934  1.00  0.00     0.157 A 
ATOM     11  C   UNL     1      82.541  89.307  89.867  1.00  0.00     0.056 A 
ATOM     12  C   UNL     1      81.571  91.360  88.215  1.00  0.00     0.050 A 
ATOM     13  C   UNL     1      80.879  90.136  88.297  1.00  0.00     0.009 A 
BRANCH   9  14
ATOM     14  O   UNL     1      84.394  90.709  90.501  1.00  0.00    -0.493 OA
ATOM     15  C   UNL     1      84.174  91.396  91.746  1.00  0.00     0.278 C 
ENDBRANCH   9  14
BRANCH  10  16
ATOM     16  O   UNL     1      83.431  92.729  88.819  1.00  0.00    -0.504 OA
ATOM     17  H   UNL     1      84.065  92.669  88.101  1.00  0.00     0.293 HD
ENDBRANCH  10  16
ENDBRANCH   7   8
ENDBRANCH   4   7
ENDBRANCH   2   3
ENDBRANCH   1   2
BRANCH   1  18
ATOM     18  C   UNL     1      80.538  87.356  83.698  1.00  0.00     0.001 C 
BRANCH  18  19
ATOM     19  C   UNL     1      79.536  88.341  84.365  1.00  0.00     0.000 C 
BRANCH  19  20
ATOM     20  C   UNL     1      80.248  89.628  84.868  1.00  0.00     0.000 C 
BRANCH  20  21
ATOM     21  C   UNL     1      81.629  89.891  84.207  1.00  0.00     0.003 C 
BRANCH  21  22
ATOM     22  C   UNL     1      82.814  90.049  85.216  1.00  0.00    -0.017 C 
ATOM     23  C   UNL     1      84.004  90.791  84.546  1.00  0.00     0.007 C 
ATOM     24  C   UNL     1      83.291  88.703  85.836  1.00  0.00     0.007 C 
ENDBRANCH  21  22
ENDBRANCH  20  21
ENDBRANCH  19  20
ENDBRANCH  18  19
ENDBRANCH   1  18
TORSDOF 11
ENDMDL
MODEL 6
REMARK VINA RESULT:    -5.957      2.182      8.474
REMARK INTER + INTRA:         -10.660
REMARK INTER:                  -9.796
REMARK INTRA:                  -0.864
REMARK UNBOUND:                -1.046
REMARK SMILES COc1cc(CNC(=O)CCCCCCC(C)C)ccc1O
REMARK SMILES IDX 11 1 10 2 8 3 7 4 9 6 6 7 5 8 3 9 21 10 4 11 20 12 19 13
REMARK SMILES IDX 2 14 1 15 22 16 12 18 13 19 14 20 15 21 16 22 17 23 18 24
REMARK H PARENT 7 5 22 17
REMARK Flexibility Score: inf
ROOT
ATOM      1  C   UNL     1      94.390  94.258  76.858  1.00  0.00     0.010 C 
ENDROOT
BRANCH   1   2
ATOM      2  C   UNL     1      93.165  94.406  75.913  1.00  0.00     0.100 C 
BRANCH   2   3
ATOM      3  C   UNL     1      92.033  93.525  76.280  1.00  0.00     0.220 C 
ATOM      4  N   UNL     1      92.077  92.192  75.992  1.00  0.00    -0.352 N 
ATOM      5  H   UNL     1      92.900  91.896  75.488  1.00  0.00     0.163 HD
ATOM      6  O   UNL     1      91.051  94.026  76.879  1.00  0.00    -0.275 OA
BRANCH   4   7
ATOM      7  C   UNL     1      91.072  91.237  76.349  1.00  0.00     0.151 C 
BRANCH   7   8
ATOM      8  C   UNL     1      90.099  90.973  75.253  1.00  0.00    -0.025 A 
ATOM      9  C   UNL     1      89.044  91.642  73.135  1.00  0.00     0.160 A 
ATOM     10  C   UNL     1      88.278  90.456  73.139  1.00  0.00     0.157 A 
ATOM     11  C   UNL     1      89.933  91.900  74.199  1.00  0.00     0.056 A 
ATOM     12  C   UNL     1      88.406  89.543  74.202  1.00  0.00     0.050 A 
ATOM     13  C   UNL     1      89.317  89.794  75.247  1.00  0.00     0.009 A 
BRANCH   9  14
ATOM     14  O   UNL     1      88.899  92.554  72.126  1.00  0.00    -0.493 OA
ATOM     15  C   UNL     1      89.435  93.853  72.436  1.00  0.00     0.278 C 
ENDBRANCH   9  14
BRANCH  10  16
ATOM     16  O   UNL     1      87.413  90.182  72.127  1.00  0.00    -0.504 OA
ATOM     17  H   UNL     1      86.517  90.157  72.471  1.00  0.00     0.293 HD
ENDBRANCH  10  16
ENDBRANCH   7   8
ENDBRANCH   4   7
ENDBRANCH   2   3
ENDBRANCH   1   2
BRANCH   1  18
ATOM     18  C   UNL     1      95.720  94.088  76.072  1.00  0.00     0.001 C 
BRANCH  18  19
ATOM     19  C   UNL     1      96.966  94.636  76.822  1.00  0.00     0.000 C 
BRANCH  19  20
ATOM     20  C   UNL     1      96.835  96.158  77.113  1.00  0.00     0.000 C 
BRANCH  20  21
ATOM     21  C   UNL     1      96.726  96.512  78.622  1.00  0.00     0.003 C 
BRANCH  21  22
ATOM     22  C   UNL     1      96.721  95.277  79.581  1.00  0.00    -0.017 C 
ATOM     23  C   UNL     1      95.330  95.119  80.257  1.00  0.00     0.007 C 
ATOM     24  C   UNL     1      97.848  95.314  80.654  1.00  0.00     0.007 C 
ENDBRANCH  21  22
ENDBRANCH  20  21
ENDBRANCH  19  20
ENDBRANCH  18  19
ENDBRANCH   1  18
TORSDOF 11
ENDMDL
MODEL 7
REMARK VINA RESULT:    -5.878      2.168      8.134
REMARK INTER + INTRA:         -10.532
REMARK INTER:                  -9.609
REMARK INTRA:                  -0.923
REMARK UNBOUND:                -1.046
REMARK SMILES COc1cc(CNC(=O)CCCCCCC(C)C)ccc1O
REMARK SMILES IDX 11 1 10 2 8 3 7 4 9 6 6 7 5 8 3 9 21 10 4 11 20 12 19 13
REMARK SMILES IDX 2 14 1 15 22 16 12 18 13 19 14 20 15 21 16 22 17 23 18 24
REMARK H PARENT 7 5 22 17
REMARK Flexibility Score: inf
ROOT
ATOM      1  C   UNL     1      96.550  95.740  74.871  1.00  0.00     0.010 C 
ENDROOT
BRANCH   1   2
ATOM      2  C   UNL     1      95.689  94.453  74.995  1.00  0.00     0.100 C 
BRANCH   2   3
ATOM      3  C   UNL     1      94.318  94.712  75.488  1.00  0.00     0.220 C 
ATOM      4  N   UNL     1      93.828  94.020  76.558  1.00  0.00    -0.352 N 
ATOM      5  H   UNL     1      94.453  93.318  76.927  1.00  0.00     0.163 HD
ATOM      6  O   UNL     1      93.630  95.594  74.919  1.00  0.00    -0.275 OA
BRANCH   4   7
ATOM      7  C   UNL     1      92.544  94.225  77.157  1.00  0.00     0.151 C 
BRANCH   7   8
ATOM      8  C   UNL     1      91.530  93.223  76.729  1.00  0.00    -0.025 A 
ATOM      9  C   UNL     1      90.143  92.217  74.965  1.00  0.00     0.160 A 
ATOM     10  C   UNL     1      89.631  91.286  75.895  1.00  0.00     0.157 A 
ATOM     11  C   UNL     1      91.072  93.188  75.392  1.00  0.00     0.056 A 
ATOM     12  C   UNL     1      90.050  91.335  77.237  1.00  0.00     0.050 A 
ATOM     13  C   UNL     1      91.001  92.289  77.650  1.00  0.00     0.009 A 
BRANCH   9  14
ATOM     14  O   UNL     1      89.713  92.203  73.666  1.00  0.00    -0.493 OA
ATOM     15  C   UNL     1      90.641  91.589  72.754  1.00  0.00     0.278 C 
ENDBRANCH   9  14
BRANCH  10  16
ATOM     16  O   UNL     1      88.734  90.340  75.512  1.00  0.00    -0.504 OA
ATOM     17  H   UNL     1      88.171  90.696  74.820  1.00  0.00     0.293 HD
ENDBRANCH  10  16
ENDBRANCH   7   8
ENDBRANCH   4   7
ENDBRANCH   2   3
ENDBRANCH   1   2
BRANCH   1  18
ATOM     18  C   UNL     1      96.728  96.461  76.238  1.00  0.00     0.001 C 
BRANCH  18  19
ATOM     19  C   UNL     1      97.410  95.583  77.325  1.00  0.00     0.000 C 
BRANCH  19  20
ATOM     20  C   UNL     1      97.628  96.374  78.646  1.00  0.00     0.000 C 
BRANCH  20  21
ATOM     21  C   UNL     1      97.322  95.561  79.934  1.00  0.00     0.003 C 
BRANCH  21  22
ATOM     22  C   UNL     1      95.817  95.184  80.123  1.00  0.00    -0.017 C 
ATOM     23  C   UNL     1      95.347  95.531  81.564  1.00  0.00     0.007 C 
ATOM     24  C   UNL     1      95.496  93.698  79.788  1.00  0.00     0.007 C 
ENDBRANCH  21  22
ENDBRANCH  20  21
ENDBRANCH  19  20
ENDBRANCH  18  19
ENDBRANCH   1  18
TORSDOF 11
ENDMDL
MODEL 8
REMARK VINA RESULT:    -5.803      1.722      2.704
REMARK INTER + INTRA:         -10.411
REMARK INTER:                  -9.497
REMARK INTRA:                  -0.915
REMARK UNBOUND:                -1.046
REMARK SMILES COc1cc(CNC(=O)CCCCCCC(C)C)ccc1O
REMARK SMILES IDX 11 1 10 2 8 3 7 4 9 6 6 7 5 8 3 9 21 10 4 11 20 12 19 13
REMARK SMILES IDX 2 14 1 15 22 16 12 18 13 19 14 20 15 21 16 22 17 23 18 24
REMARK H PARENT 7 5 22 17
REMARK Flexibility Score: inf
ROOT
ATOM      1  C   UNL     1      91.019  92.531  77.399  1.00  0.00     0.010 C 
ENDROOT
BRANCH   1   2
ATOM      2  C   UNL     1      91.233  93.496  76.200  1.00  0.00     0.100 C 
BRANCH   2   3
ATOM      3  C   UNL     1      92.660  93.782  75.928  1.00  0.00     0.220 C 
ATOM      4  N   UNL     1      93.410  94.472  76.835  1.00  0.00    -0.352 N 
ATOM      5  H   UNL     1      92.901  94.788  77.648  1.00  0.00     0.163 HD
ATOM      6  O   UNL     1      93.166  93.357  74.860  1.00  0.00    -0.275 OA
BRANCH   4   7
ATOM      7  C   UNL     1      94.807  94.756  76.707  1.00  0.00     0.151 C 
BRANCH   7   8
ATOM      8  C   UNL     1      95.520  94.796  78.013  1.00  0.00    -0.025 A 
ATOM      9  C   UNL     1      97.361  95.638  79.410  1.00  0.00     0.160 A 
ATOM     10  C   UNL     1      96.860  94.912  80.512  1.00  0.00     0.157 A 
ATOM     11  C   UNL     1      96.699  95.560  78.166  1.00  0.00     0.056 A 
ATOM     12  C   UNL     1      95.709  94.117  80.362  1.00  0.00     0.050 A 
ATOM     13  C   UNL     1      95.037  94.067  79.125  1.00  0.00     0.009 A 
BRANCH   9  14
ATOM     14  O   UNL     1      98.501  96.384  79.534  1.00  0.00    -0.493 OA
ATOM     15  C   UNL     1      98.260  97.796  79.671  1.00  0.00     0.278 C 
ENDBRANCH   9  14
BRANCH  10  16
ATOM     16  O   UNL     1      97.477  94.968  81.721  1.00  0.00    -0.504 OA
ATOM     17  H   UNL     1      96.995  94.427  82.351  1.00  0.00     0.293 HD
ENDBRANCH  10  16
ENDBRANCH   7   8
ENDBRANCH   4   7
ENDBRANCH   2   3
ENDBRANCH   1   2
BRANCH   1  18
ATOM     18  C   UNL     1      89.595  91.905  77.402  1.00  0.00     0.001 C 
BRANCH  18  19
ATOM     19  C   UNL     1      89.586  90.369  77.166  1.00  0.00     0.000 C 
BRANCH  19  20
ATOM     20  C   UNL     1      90.250  89.994  75.811  1.00  0.00     0.000 C 
BRANCH  20  21
ATOM     21  C   UNL     1      89.241  89.661  74.677  1.00  0.00     0.003 C 
BRANCH  21  22
ATOM     22  C   UNL     1      88.806  90.888  73.812  1.00  0.00    -0.017 C 
ATOM     23  C   UNL     1      87.500  90.569  73.033  1.00  0.00     0.007 C 
ATOM     24  C   UNL     1      89.913  91.391  72.839  1.00  0.00     0.007 C 
ENDBRANCH  21  22
ENDBRANCH  20  21
ENDBRANCH  19  20
ENDBRANCH  18  19
ENDBRANCH   1  18
TORSDOF 11
ENDMDL
MODEL 9
REMARK VINA RESULT:    -5.771      2.189      8.394
REMARK INTER + INTRA:         -10.360
REMARK INTER:                  -9.568
REMARK INTRA:                  -0.792
REMARK UNBOUND:                -1.046
REMARK SMILES COc1cc(CNC(=O)CCCCCCC(C)C)ccc1O
REMARK SMILES IDX 11 1 10 2 8 3 7 4 9 6 6 7 5 8 3 9 21 10 4 11 20 12 19 13
REMARK SMILES IDX 2 14 1 15 22 16 12 18 13 19 14 20 15 21 16 22 17 23 18 24
REMARK H PARENT 7 5 22 17
REMARK Flexibility Score: inf
ROOT
ATOM      1  C   UNL     1      95.229  94.866  76.637  1.00  0.00     0.010 C 
ENDROOT
BRANCH   1   2
ATOM      2  C   UNL     1      94.108  95.091  75.585  1.00  0.00     0.100 C 
BRANCH   2   3
ATOM      3  C   UNL     1      92.845  94.396  75.918  1.00  0.00     0.220 C 
ATOM      4  N   UNL     1      92.783  93.033  75.903  1.00  0.00    -0.352 N 
ATOM      5  H   UNL     1      93.635  92.576  75.611  1.00  0.00     0.163 HD
ATOM      6  O   UNL     1      91.845  95.085  76.237  1.00  0.00    -0.275 OA
BRANCH   4   7
ATOM      7  C   UNL     1      91.637  92.254  76.262  1.00  0.00     0.151 C 
BRANCH   7   8
ATOM      8  C   UNL     1      90.879  91.748  75.085  1.00  0.00    -0.025 A 
ATOM      9  C   UNL     1      89.433  90.047  74.053  1.00  0.00     0.160 A 
ATOM     10  C   UNL     1      89.396  90.800  72.859  1.00  0.00     0.157 A 
ATOM     11  C   UNL     1      90.188  90.517  75.149  1.00  0.00     0.056 A 
ATOM     12  C   UNL     1      90.112  92.007  72.770  1.00  0.00     0.050 A 
ATOM     13  C   UNL     1      90.840  92.485  73.877  1.00  0.00     0.009 A 
BRANCH   9  14
ATOM     14  O   UNL     1      88.773  88.852  74.137  1.00  0.00    -0.493 OA
ATOM     15  C   UNL     1      89.407  87.899  75.010  1.00  0.00     0.278 C 
ENDBRANCH   9  14
BRANCH  10  16
ATOM     16  O   UNL     1      88.678  90.371  71.788  1.00  0.00    -0.504 OA
ATOM     17  H   UNL     1      89.240  89.838  71.220  1.00  0.00     0.293 HD
ENDBRANCH  10  16
ENDBRANCH   7   8
ENDBRANCH   4   7
ENDBRANCH   2   3
ENDBRANCH   1   2
BRANCH   1  18
ATOM     18  C   UNL     1      96.649  95.056  76.032  1.00  0.00     0.001 C 
BRANCH  18  19
ATOM     19  C   UNL     1      97.669  95.697  77.015  1.00  0.00     0.000 C 
BRANCH  19  20
ATOM     20  C   UNL     1      96.952  96.481  78.151  1.00  0.00     0.000 C 
BRANCH  20  21
ATOM     21  C   UNL     1      97.140  95.865  79.565  1.00  0.00     0.003 C 
BRANCH  21  22
ATOM     22  C   UNL     1      95.819  95.371  80.240  1.00  0.00    -0.017 C 
ATOM     23  C   UNL     1      95.758  95.836  81.722  1.00  0.00     0.007 C 
ATOM     24  C   UNL     1      95.605  93.832  80.142  1.00  0.00     0.007 C 
ENDBRANCH  21  22
ENDBRANCH  20  21
ENDBRANCH  19  20
ENDBRANCH  18  19
ENDBRANCH   1  18
TORSDOF 11
ENDMDL
MODEL 10
REMARK VINA RESULT:    -5.718     13.686     16.969
REMARK INTER + INTRA:         -10.273
REMARK INTER:                  -8.729
REMARK INTRA:                  -1.544
REMARK UNBOUND:                -1.046
REMARK SMILES COc1cc(CNC(=O)CCCCCCC(C)C)ccc1O
REMARK SMILES IDX 11 1 10 2 8 3 7 4 9 6 6 7 5 8 3 9 21 10 4 11 20 12 19 13
REMARK SMILES IDX 2 14 1 15 22 16 12 18 13 19 14 20 15 21 16 22 17 23 18 24
REMARK H PARENT 7 5 22 17
REMARK Flexibility Score: inf
ROOT
ATOM      1  C   UNL     1      82.410  90.282  90.394  1.00  0.00     0.010 C 
ENDROOT
BRANCH   1   2
ATOM      2  C   UNL     1      81.018  90.772  89.909  1.00  0.00     0.100 C 
BRANCH   2   3
ATOM      3  C   UNL     1      80.390  89.865  88.922  1.00  0.00     0.220 C 
ATOM      4  N   UNL     1      80.158  88.558  89.236  1.00  0.00    -0.352 N 
ATOM      5  H   UNL     1      80.485  88.280  90.150  1.00  0.00     0.163 HD
ATOM      6  O   UNL     1      80.057  90.331  87.805  1.00  0.00    -0.275 OA
BRANCH   4   7
ATOM      7  C   UNL     1      79.508  87.607  88.387  1.00  0.00     0.151 C 
BRANCH   7   8
ATOM      8  C   UNL     1      80.455  86.837  87.535  1.00  0.00    -0.025 A 
ATOM      9  C   UNL     1      81.220  86.124  85.309  1.00  0.00     0.160 A 
ATOM     10  C   UNL     1      82.283  85.408  85.901  1.00  0.00     0.157 A 
ATOM     11  C   UNL     1      80.305  86.816  86.130  1.00  0.00     0.056 A 
ATOM     12  C   UNL     1      82.421  85.389  87.301  1.00  0.00     0.050 A 
ATOM     13  C   UNL     1      81.520  86.106  88.113  1.00  0.00     0.009 A 
BRANCH   9  14
ATOM     14  O   UNL     1      81.055  86.117  83.951  1.00  0.00    -0.493 OA
ATOM     15  C   UNL     1      80.005  86.987  83.490  1.00  0.00     0.278 C 
ENDBRANCH   9  14
BRANCH  10  16
ATOM     16  O   UNL     1      83.179  84.731  85.136  1.00  0.00    -0.504 OA
ATOM     17  H   UNL     1      83.472  83.946  85.605  1.00  0.00     0.293 HD
ENDBRANCH  10  16
ENDBRANCH   7   8
ENDBRANCH   4   7
ENDBRANCH   2   3
ENDBRANCH   1   2
BRANCH   1  18
ATOM     18  C   UNL     1      83.573  91.088  89.748  1.00  0.00     0.001 C 
BRANCH  18  19
ATOM     19  C   UNL     1      83.114  92.057  88.623  1.00  0.00     0.000 C 
BRANCH  19  20
ATOM     20  C   UNL     1      83.605  91.585  87.226  1.00  0.00     0.000 C 
BRANCH  20  21
ATOM     21  C   UNL     1      83.396  90.069  86.956  1.00  0.00     0.003 C 
BRANCH  21  22
ATOM     22  C   UNL     1      83.434  89.666  85.445  1.00  0.00    -0.017 C 
ATOM     23  C   UNL     1      84.479  90.525  84.679  1.00  0.00     0.007 C 
ATOM     24  C   UNL     1      82.046  89.742  84.743  1.00  0.00     0.007 C 
ENDBRANCH  21  22
ENDBRANCH  20  21
ENDBRANCH  19  20
ENDBRANCH  18  19
ENDBRANCH   1  18
TORSDOF 11
ENDMDL
