MODEL 1
REMARK VINA RESULT:    -6.387      0.000      0.000
REMARK INTER + INTRA:         -13.308
REMARK INTER:                 -10.867
REMARK INTRA:                  -2.441
REMARK UNBOUND:                -2.441
REMARK SMILES C=C(C)[C@]12C[C@@H](C)[C@@]34O[C@](Cc5ccccc5)(O[C@@H]1[C@@H]3C=C(COC(=O)Cc1ccc(O)cc1)C[C@]1(O)C(=O)C(C)=C[C@@H]41)O2
REMARK SMILES IDX 23 1 22 2 21 3 20 4 9 5 8 6 10 7 6 8 18 10 44 11 19 12 5 13
REMARK SMILES IDX 7 14 4 15 11 16 12 17 13 18 17 19 14 20 16 21 15 22 2 23
REMARK SMILES IDX 3 24 1 25 35 26 36 27 43 28 38 29 42 30 39 32 40 33 41 34
REMARK SMILES IDX 37 35 24 37 25 38 26 39 27 40 28 41 29 42 34 43 30 44 33 45
REMARK SMILES IDX 31 46 32 47
REMARK H PARENT 37 36 32 48
REMARK Flexibility Score: 90.00
ROOT
ATOM      1  C   UNL     1     103.506  79.632  75.375  1.00  0.00     0.264 C 
ENDROOT
BRANCH   1   2
ATOM      2  C   UNL     1     102.061  79.430  74.984  1.00  0.00    -0.033 C 
ATOM      3  C   UNL     1     101.152  80.373  75.310  1.00  0.00    -0.015 C 
BRANCH   3   4
ATOM      4  C   UNL     1      99.646  80.374  75.101  1.00  0.00     0.078 C 
ATOM      5  O   UNL     1      99.215  81.533  72.960  1.00  0.00    -0.319 OA
ATOM      6  C   UNL     1      99.093  80.243  73.635  1.00  0.00     0.095 CG0
ATOM      7  C   UNL     1      98.848  82.679  73.752  1.00  0.00     0.289 C 
ATOM      8  C   UNL     1      97.562  79.846  73.733  1.00  0.00     0.023 C 
ATOM      9  G   UNL     1      99.980  79.279  72.793  1.00  0.00     0.000 G0
ATOM     10  O   UNL     1      99.620  82.751  74.947  1.00  0.00    -0.320 OA
ATOM     11  O   UNL     1      97.487  82.633  74.174  1.00  0.00    -0.313 OA
ATOM     12  C   UNL     1      99.035  81.669  75.690  1.00  0.00     0.170 C 
ATOM     13  C   UNL     1      96.887  80.479  74.988  1.00  0.00     0.049 C 
ATOM     14  C   UNL     1      96.716  80.160  72.487  1.00  0.00     0.011 C 
ATOM     15  C   UNL     1      97.528  81.816  75.363  1.00  0.00     0.122 C 
BRANCH   7  16
ATOM     16  C   UNL     1      99.076  83.925  72.919  1.00  0.00     0.135 C 
BRANCH  16  17
ATOM     17  C   UNL     1     100.477  83.987  72.364  1.00  0.00    -0.040 A 
ATOM     18  C   UNL     1     100.687  83.911  70.988  1.00  0.00     0.004 A 
ATOM     19  C   UNL     1     101.563  84.121  73.229  1.00  0.00     0.004 A 
ATOM     20  C   UNL     1     101.984  83.969  70.475  1.00  0.00     0.000 A 
ATOM     21  C   UNL     1     102.859  84.180  72.717  1.00  0.00     0.000 A 
ATOM     22  C   UNL     1     103.069  84.103  71.340  1.00  0.00     0.000 A 
ENDBRANCH  16  17
ENDBRANCH   7  16
BRANCH  15  23
ATOM     23  C   UNL     1      96.785  82.525  76.447  1.00  0.00    -0.046 C 
ATOM     24  C   UNL     1      97.056  82.063  77.848  1.00  0.00     0.042 C 
ATOM     25  C   UNL     1      95.923  83.519  76.183  1.00  0.00     0.010 C 
ENDBRANCH  15  23
ENDBRANCH   3   4
BRANCH   2  26
ATOM     26  C   UNL     1     101.822  78.133  74.234  1.00  0.00     0.078 C 
BRANCH  26  27
ATOM     27  C   UNL     1     100.483  77.979  73.515  1.00  0.00     0.140 C 
ATOM     28  C   UNL     1     100.038  79.284  72.823  1.00  0.00     0.086 CG0
ATOM     29  C   UNL     1     100.555  77.005  72.358  1.00  0.00     0.190 C 
ATOM     30  C   UNL     1      99.597  78.825  71.461  1.00  0.00    -0.010 C 
ATOM     31  G   UNL     1      99.109  80.217  73.653  1.00  0.00     0.000 G0
ATOM     32  O   UNL     1     101.044  75.886  72.403  1.00  0.00    -0.291 OA
ATOM     33  C   UNL     1      99.898  77.559  71.159  1.00  0.00    -0.008 C 
ATOM     34  C   UNL     1      99.695  76.806  69.903  1.00  0.00     0.048 C 
BRANCH  27  35
ATOM     35  O   UNL     1      99.499  77.418  74.368  1.00  0.00    -0.381 OA
ATOM     36  H   UNL     1      98.755  77.116  73.820  1.00  0.00     0.212 HD
ENDBRANCH  27  35
ENDBRANCH  26  27
ENDBRANCH   2  26
ENDBRANCH   1   2
BRANCH   1  37
ATOM     37  O   UNL     1     103.582  79.895  76.761  1.00  0.00    -0.461 OA
BRANCH  37  38
ATOM     38  C   UNL     1     104.020  78.858  77.552  1.00  0.00     0.310 C 
ATOM     39  O   UNL     1     104.877  78.045  77.235  1.00  0.00    -0.252 OA
BRANCH  38  40
ATOM     40  C   UNL     1     103.280  78.882  78.868  1.00  0.00     0.158 C 
BRANCH  40  41
ATOM     41  C   UNL     1     101.784  78.816  78.702  1.00  0.00    -0.037 A 
ATOM     42  C   UNL     1     100.983  79.853  79.182  1.00  0.00     0.008 A 
ATOM     43  C   UNL     1     101.199  77.719  78.070  1.00  0.00     0.008 A 
ATOM     44  C   UNL     1      99.598  79.792  79.029  1.00  0.00     0.046 A 
ATOM     45  C   UNL     1      99.814  77.658  77.917  1.00  0.00     0.046 A 
ATOM     46  C   UNL     1      99.013  78.694  78.397  1.00  0.00     0.115 A 
BRANCH  46  47
ATOM     47  O   UNL     1      97.662  78.635  78.248  1.00  0.00    -0.508 OA
ATOM     48  H   UNL     1      97.270  78.282  79.066  1.00  0.00     0.293 HD
ENDBRANCH  46  47
ENDBRANCH  40  41
ENDBRANCH  38  40
ENDBRANCH  37  38
ENDBRANCH   1  37
TORSDOF 10
ENDMDL
MODEL 2
REMARK VINA RESULT:    -6.149      7.767     12.407
REMARK INTER + INTRA:         -12.904
REMARK INTER:                 -12.102
REMARK INTRA:                  -0.802
REMARK UNBOUND:                -2.441
REMARK SMILES C=C(C)[C@]12C[C@@H](C)[C@@]34O[C@](Cc5ccccc5)(O[C@@H]1[C@@H]3C=C(COC(=O)Cc1ccc(O)cc1)C[C@]1(O)C(=O)C(C)=C[C@@H]41)O2
REMARK SMILES IDX 23 1 22 2 21 3 20 4 9 5 8 6 10 7 6 8 18 10 44 11 19 12 5 13
REMARK SMILES IDX 7 14 4 15 11 16 12 17 13 18 17 19 14 20 16 21 15 22 2 23
REMARK SMILES IDX 3 24 1 25 35 26 36 27 43 28 38 29 42 30 39 32 40 33 41 34
REMARK SMILES IDX 37 35 24 37 25 38 26 39 27 40 28 41 29 42 34 43 30 44 33 45
REMARK SMILES IDX 31 46 32 47
REMARK H PARENT 37 36 32 48
REMARK Flexibility Score: 90.00
ROOT
ATOM      1  C   UNL     1      98.039  80.882  81.621  1.00  0.00     0.264 C 
ENDROOT
BRANCH   1   2
ATOM      2  C   UNL     1      97.720  80.727  83.090  1.00  0.00    -0.033 C 
ATOM      3  C   UNL     1      96.588  81.274  83.580  1.00  0.00    -0.015 C 
BRANCH   3   4
ATOM      4  C   UNL     1      96.083  81.326  85.013  1.00  0.00     0.078 C 
ATOM      5  O   UNL     1      94.634  79.348  85.338  1.00  0.00    -0.319 OA
ATOM      6  C   UNL     1      95.879  79.970  85.784  1.00  0.00     0.095 CG0
ATOM      7  C   UNL     1      93.519  80.246  85.184  1.00  0.00     0.289 C 
ATOM      8  C   UNL     1      95.772  80.307  87.328  1.00  0.00     0.023 C 
ATOM      9  G   UNL     1      96.985  78.943  85.400  1.00  0.00     0.000 G0
ATOM     10  O   UNL     1      93.821  81.295  84.268  1.00  0.00    -0.320 OA
ATOM     11  O   UNL     1      93.169  80.891  86.406  1.00  0.00    -0.313 OA
ATOM     12  C   UNL     1      94.727  82.072  85.066  1.00  0.00     0.170 C 
ATOM     13  C   UNL     1      95.088  81.689  87.566  1.00  0.00     0.049 C 
ATOM     14  C   UNL     1      95.077  79.240  88.192  1.00  0.00     0.011 C 
ATOM     15  C   UNL     1      94.073  82.014  86.468  1.00  0.00     0.122 C 
BRANCH   7  16
ATOM     16  C   UNL     1      92.333  79.449  84.677  1.00  0.00     0.135 C 
BRANCH  16  17
ATOM     17  C   UNL     1      91.020  80.031  85.139  1.00  0.00    -0.040 A 
ATOM     18  C   UNL     1      90.460  81.112  84.460  1.00  0.00     0.004 A 
ATOM     19  C   UNL     1      90.367  79.486  86.244  1.00  0.00     0.004 A 
ATOM     20  C   UNL     1      89.245  81.650  84.887  1.00  0.00     0.000 A 
ATOM     21  C   UNL     1      89.153  80.023  86.671  1.00  0.00     0.000 A 
ATOM     22  C   UNL     1      88.592  81.105  85.993  1.00  0.00     0.000 A 
ENDBRANCH  16  17
ENDBRANCH   7  16
BRANCH  15  23
ATOM     23  C   UNL     1      93.277  83.242  86.769  1.00  0.00    -0.046 C 
ATOM     24  C   UNL     1      93.893  84.547  86.356  1.00  0.00     0.042 C 
ATOM     25  C   UNL     1      92.081  83.183  87.373  1.00  0.00     0.010 C 
ENDBRANCH  15  23
ENDBRANCH   3   4
BRANCH   2  26
ATOM     26  C   UNL     1      98.767  79.931  83.847  1.00  0.00     0.078 C 
BRANCH  26  27
ATOM     27  C   UNL     1      98.425  79.506  85.273  1.00  0.00     0.140 C 
ATOM     28  C   UNL     1      96.992  78.946  85.388  1.00  0.00     0.086 CG0
ATOM     29  C   UNL     1      99.268  78.342  85.750  1.00  0.00     0.190 C 
ATOM     30  C   UNL     1      97.168  77.699  86.208  1.00  0.00    -0.010 C 
ATOM     31  G   UNL     1      95.885  79.968  85.780  1.00  0.00     0.000 G0
ATOM     32  O   UNL     1     100.484  78.265  85.659  1.00  0.00    -0.291 OA
ATOM     33  C   UNL     1      98.433  77.317  86.405  1.00  0.00    -0.008 C 
ATOM     34  C   UNL     1      98.972  76.119  87.082  1.00  0.00     0.048 C 
BRANCH  27  35
ATOM     35  O   UNL     1      98.713  80.536  86.204  1.00  0.00    -0.381 OA
ATOM     36  H   UNL     1      97.889  81.016  86.395  1.00  0.00     0.212 HD
ENDBRANCH  27  35
ENDBRANCH  26  27
ENDBRANCH   2  26
ENDBRANCH   1   2
BRANCH   1  37
ATOM     37  O   UNL     1      97.376  79.873  80.891  1.00  0.00    -0.461 OA
BRANCH  37  38
ATOM     38  C   UNL     1      97.596  79.861  79.533  1.00  0.00     0.310 C 
ATOM     39  O   UNL     1      97.316  78.936  78.784  1.00  0.00    -0.252 OA
BRANCH  38  40
ATOM     40  C   UNL     1      98.234  81.164  79.115  1.00  0.00     0.158 C 
BRANCH  40  41
ATOM     41  C   UNL     1      97.513  81.832  77.973  1.00  0.00    -0.037 A 
ATOM     42  C   UNL     1      98.077  81.833  76.697  1.00  0.00     0.008 A 
ATOM     43  C   UNL     1      96.283  82.451  78.192  1.00  0.00     0.008 A 
ATOM     44  C   UNL     1      97.409  82.452  75.640  1.00  0.00     0.046 A 
ATOM     45  C   UNL     1      95.615  83.070  77.135  1.00  0.00     0.046 A 
ATOM     46  C   UNL     1      96.178  83.071  75.859  1.00  0.00     0.115 A 
BRANCH  46  47
ATOM     47  O   UNL     1      95.527  83.675  74.828  1.00  0.00    -0.508 OA
ATOM     48  H   UNL     1      94.569  83.636  74.993  1.00  0.00     0.293 HD
ENDBRANCH  46  47
ENDBRANCH  40  41
ENDBRANCH  38  40
ENDBRANCH  37  38
ENDBRANCH   1  37
TORSDOF 10
ENDMDL
MODEL 3
REMARK VINA RESULT:    -5.919     25.410     29.641
REMARK INTER + INTRA:         -12.512
REMARK INTER:                 -10.357
REMARK INTRA:                  -2.156
REMARK UNBOUND:                -2.441
REMARK SMILES C=C(C)[C@]12C[C@@H](C)[C@@]34O[C@](Cc5ccccc5)(O[C@@H]1[C@@H]3C=C(COC(=O)Cc1ccc(O)cc1)C[C@]1(O)C(=O)C(C)=C[C@@H]41)O2
REMARK SMILES IDX 23 1 22 2 21 3 20 4 9 5 8 6 10 7 6 8 18 10 44 11 19 12 5 13
REMARK SMILES IDX 7 14 4 15 11 16 12 17 13 18 17 19 14 20 16 21 15 22 2 23
REMARK SMILES IDX 3 24 1 25 35 26 36 27 43 28 38 29 42 30 39 32 40 33 41 34
REMARK SMILES IDX 37 35 24 37 25 38 26 39 27 40 28 41 29 42 34 43 30 44 33 45
REMARK SMILES IDX 31 46 32 47
REMARK H PARENT 37 36 32 48
REMARK Flexibility Score: 90.00
ROOT
ATOM      1  C   UNL     1      70.229  88.452  69.019  1.00  0.00     0.264 C 
ENDROOT
BRANCH   1   2
ATOM      2  C   UNL     1      71.665  88.741  68.648  1.00  0.00    -0.033 C 
ATOM      3  C   UNL     1      72.518  87.712  68.463  1.00  0.00    -0.015 C 
BRANCH   3   4
ATOM      4  C   UNL     1      74.008  87.736  68.163  1.00  0.00     0.078 C 
ATOM      5  O   UNL     1      74.250  87.663  65.703  1.00  0.00    -0.319 OA
ATOM      6  C   UNL     1      74.501  88.496  66.877  1.00  0.00     0.095 CG0
ATOM      7  C   UNL     1      74.565  86.266  65.861  1.00  0.00     0.289 C 
ATOM      8  C   UNL     1      76.060  88.732  67.028  1.00  0.00     0.023 C 
ATOM      9  G   UNL     1      73.652  89.777  66.632  1.00  0.00     0.000 G0
ATOM     10  O   UNL     1      73.846  85.693  66.950  1.00  0.00    -0.320 OA
ATOM     11  O   UNL     1      75.944  86.051  66.154  1.00  0.00    -0.313 OA
ATOM     12  C   UNL     1      74.546  86.288  68.054  1.00  0.00     0.170 C 
ATOM     13  C   UNL     1      76.743  87.566  67.806  1.00  0.00     0.049 C 
ATOM     14  C   UNL     1      76.821  88.982  65.714  1.00  0.00     0.011 C 
ATOM     15  C   UNL     1      76.020  86.237  67.583  1.00  0.00     0.122 C 
BRANCH   7  16
ATOM     16  C   UNL     1      74.205  85.549  64.575  1.00  0.00     0.135 C 
BRANCH  16  17
ATOM     17  C   UNL     1      74.112  84.056  64.765  1.00  0.00    -0.040 A 
ATOM     18  C   UNL     1      72.904  83.475  65.148  1.00  0.00     0.004 A 
ATOM     19  C   UNL     1      75.236  83.257  64.558  1.00  0.00     0.004 A 
ATOM     20  C   UNL     1      72.818  82.093  65.323  1.00  0.00     0.000 A 
ATOM     21  C   UNL     1      75.151  81.875  64.733  1.00  0.00     0.000 A 
ATOM     22  C   UNL     1      73.942  81.294  65.116  1.00  0.00     0.000 A 
ENDBRANCH  16  17
ENDBRANCH   7  16
BRANCH  15  23
ATOM     23  C   UNL     1      76.757  85.077  68.169  1.00  0.00    -0.046 C 
ATOM     24  C   UNL     1      76.791  85.003  69.667  1.00  0.00     0.042 C 
ATOM     25  C   UNL     1      77.354  84.154  67.401  1.00  0.00     0.010 C 
ENDBRANCH  15  23
ENDBRANCH   3   4
BRANCH   2  26
ATOM     26  C   UNL     1      71.960  90.224  68.520  1.00  0.00     0.078 C 
BRANCH  26  27
ATOM     27  C   UNL     1      73.304  90.618  67.910  1.00  0.00     0.140 C 
ATOM     28  C   UNL     1      73.641  89.787  66.654  1.00  0.00     0.086 CG0
ATOM     29  C   UNL     1      73.304  92.034  67.373  1.00  0.00     0.190 C 
ATOM     30  C   UNL     1      74.111  90.819  65.667  1.00  0.00    -0.010 C 
ATOM     31  G   UNL     1      74.497  88.508  66.887  1.00  0.00     0.000 G0
ATOM     32  O   UNL     1      72.907  93.020  67.975  1.00  0.00    -0.291 OA
ATOM     33  C   UNL     1      73.910  92.090  66.029  1.00  0.00    -0.008 C 
ATOM     34  C   UNL     1      74.166  93.342  65.287  1.00  0.00     0.048 C 
BRANCH  27  35
ATOM     35  O   UNL     1      74.334  90.626  68.884  1.00  0.00    -0.381 OA
ATOM     36  H   UNL     1      73.956  90.337  69.732  1.00  0.00     0.212 HD
ENDBRANCH  27  35
ENDBRANCH  26  27
ENDBRANCH   2  26
ENDBRANCH   1   2
BRANCH   1  37
ATOM     37  O   UNL     1      70.172  87.256  69.767  1.00  0.00    -0.461 OA
BRANCH  37  38
ATOM     38  C   UNL     1      69.264  86.315  69.339  1.00  0.00     0.310 C 
ATOM     39  O   UNL     1      68.049  86.452  69.358  1.00  0.00    -0.252 OA
BRANCH  38  40
ATOM     40  C   UNL     1      70.000  85.093  68.845  1.00  0.00     0.158 C 
BRANCH  40  41
ATOM     41  C   UNL     1      69.786  84.833  67.376  1.00  0.00    -0.037 A 
ATOM     42  C   UNL     1      70.009  85.850  66.448  1.00  0.00     0.008 A 
ATOM     43  C   UNL     1      69.365  83.575  66.944  1.00  0.00     0.008 A 
ATOM     44  C   UNL     1      69.811  85.609  65.088  1.00  0.00     0.046 A 
ATOM     45  C   UNL     1      69.167  83.334  65.584  1.00  0.00     0.046 A 
ATOM     46  C   UNL     1      69.390  84.351  64.656  1.00  0.00     0.115 A 
BRANCH  46  47
ATOM     47  O   UNL     1      69.196  84.116  63.330  1.00  0.00    -0.508 OA
ATOM     48  H   UNL     1      69.794  83.404  63.045  1.00  0.00     0.293 HD
ENDBRANCH  46  47
ENDBRANCH  40  41
ENDBRANCH  38  40
ENDBRANCH  37  38
ENDBRANCH   1  37
TORSDOF 10
ENDMDL
MODEL 4
REMARK VINA RESULT:    -5.885      8.381     12.731
REMARK INTER + INTRA:         -12.454
REMARK INTER:                 -12.039
REMARK INTRA:                  -0.415
REMARK UNBOUND:                -2.441
REMARK SMILES C=C(C)[C@]12C[C@@H](C)[C@@]34O[C@](Cc5ccccc5)(O[C@@H]1[C@@H]3C=C(COC(=O)Cc1ccc(O)cc1)C[C@]1(O)C(=O)C(C)=C[C@@H]41)O2
REMARK SMILES IDX 23 1 22 2 21 3 20 4 9 5 8 6 10 7 6 8 18 10 44 11 19 12 5 13
REMARK SMILES IDX 7 14 4 15 11 16 12 17 13 18 17 19 14 20 16 21 15 22 2 23
REMARK SMILES IDX 3 24 1 25 35 26 36 27 43 28 38 29 42 30 39 32 40 33 41 34
REMARK SMILES IDX 37 35 24 37 25 38 26 39 27 40 28 41 29 42 34 43 30 44 33 45
REMARK SMILES IDX 31 46 32 47
REMARK H PARENT 37 36 32 48
REMARK Flexibility Score: 90.00
ROOT
ATOM      1  C   UNL     1      96.487  81.143  81.848  1.00  0.00     0.264 C 
ENDROOT
BRANCH   1   2
ATOM      2  C   UNL     1      96.053  80.542  83.165  1.00  0.00    -0.033 C 
ATOM      3  C   UNL     1      95.638  81.358  84.156  1.00  0.00    -0.015 C 
BRANCH   3   4
ATOM      4  C   UNL     1      95.229  81.015  85.580  1.00  0.00     0.078 C 
ATOM      5  O   UNL     1      92.781  80.666  85.562  1.00  0.00    -0.319 OA
ATOM      6  C   UNL     1      94.055  79.990  85.795  1.00  0.00     0.095 CG0
ATOM      7  C   UNL     1      92.674  81.989  86.122  1.00  0.00     0.289 C 
ATOM      8  C   UNL     1      94.119  79.498  87.300  1.00  0.00     0.023 C 
ATOM      9  G   UNL     1      94.100  78.864  84.721  1.00  0.00     0.000 G0
ATOM     10  O   UNL     1      93.703  82.844  85.633  1.00  0.00    -0.320 OA
ATOM     11  O   UNL     1      92.815  81.989  87.541  1.00  0.00    -0.313 OA
ATOM     12  C   UNL     1      94.833  82.306  86.338  1.00  0.00     0.170 C 
ATOM     13  C   UNL     1      94.631  80.624  88.249  1.00  0.00     0.049 C 
ATOM     14  C   UNL     1      92.810  78.914  87.861  1.00  0.00     0.011 C 
ATOM     15  C   UNL     1      94.244  82.013  87.740  1.00  0.00     0.122 C 
BRANCH   7  16
ATOM     16  C   UNL     1      91.317  82.554  85.750  1.00  0.00     0.135 C 
BRANCH  16  17
ATOM     17  C   UNL     1      90.274  81.474  85.606  1.00  0.00    -0.040 A 
ATOM     18  C   UNL     1      89.894  81.036  84.339  1.00  0.00     0.004 A 
ATOM     19  C   UNL     1      89.690  80.915  86.743  1.00  0.00     0.004 A 
ATOM     20  C   UNL     1      88.929  80.036  84.206  1.00  0.00     0.000 A 
ATOM     21  C   UNL     1      88.725  79.915  86.610  1.00  0.00     0.000 A 
ATOM     22  C   UNL     1      88.345  79.477  85.342  1.00  0.00     0.000 A 
ENDBRANCH  16  17
ENDBRANCH   7  16
BRANCH  15  23
ATOM     23  C   UNL     1      94.564  83.094  88.721  1.00  0.00    -0.046 C 
ATOM     24  C   UNL     1      94.397  82.743  90.170  1.00  0.00     0.042 C 
ATOM     25  C   UNL     1      94.977  84.308  88.328  1.00  0.00     0.010 C 
ENDBRANCH  15  23
ENDBRANCH   3   4
BRANCH   2  26
ATOM     26  C   UNL     1      96.142  79.028  83.187  1.00  0.00     0.078 C 
BRANCH  26  27
ATOM     27  C   UNL     1      95.533  78.310  84.390  1.00  0.00     0.140 C 
ATOM     28  C   UNL     1      94.126  78.843  84.736  1.00  0.00     0.086 CG0
ATOM     29  C   UNL     1      95.267  76.845  84.118  1.00  0.00     0.190 C 
ATOM     30  C   UNL     1      93.320  77.591  84.944  1.00  0.00    -0.010 C 
ATOM     31  G   UNL     1      94.066  79.977  85.800  1.00  0.00     0.000 G0
ATOM     32  O   UNL     1      96.066  76.060  83.627  1.00  0.00    -0.291 OA
ATOM     33  C   UNL     1      93.922  76.455  84.580  1.00  0.00    -0.008 C 
ATOM     34  C   UNL     1      93.410  75.069  84.566  1.00  0.00     0.048 C 
BRANCH  27  35
ATOM     35  O   UNL     1      96.425  78.294  85.491  1.00  0.00    -0.381 OA
ATOM     36  H   UNL     1      97.120  78.955  85.333  1.00  0.00     0.212 HD
ENDBRANCH  27  35
ENDBRANCH  26  27
ENDBRANCH   2  26
ENDBRANCH   1   2
BRANCH   1  37
ATOM     37  O   UNL     1      97.682  80.523  81.424  1.00  0.00    -0.461 OA
BRANCH  37  38
ATOM     38  C   UNL     1      97.753  80.188  80.091  1.00  0.00     0.310 C 
ATOM     39  O   UNL     1      97.303  79.163  79.600  1.00  0.00    -0.252 OA
BRANCH  38  40
ATOM     40  C   UNL     1      98.472  81.279  79.334  1.00  0.00     0.158 C 
BRANCH  40  41
ATOM     41  C   UNL     1      97.641  81.869  78.224  1.00  0.00    -0.037 A 
ATOM     42  C   UNL     1      96.348  82.323  78.485  1.00  0.00     0.008 A 
ATOM     43  C   UNL     1      98.164  81.961  76.935  1.00  0.00     0.008 A 
ATOM     44  C   UNL     1      95.579  82.868  77.457  1.00  0.00     0.046 A 
ATOM     45  C   UNL     1      97.396  82.507  75.906  1.00  0.00     0.046 A 
ATOM     46  C   UNL     1      96.103  82.960  76.167  1.00  0.00     0.115 A 
BRANCH  46  47
ATOM     47  O   UNL     1      95.352  83.491  75.164  1.00  0.00    -0.508 OA
ATOM     48  H   UNL     1      94.419  83.261  75.313  1.00  0.00     0.293 HD
ENDBRANCH  46  47
ENDBRANCH  40  41
ENDBRANCH  38  40
ENDBRANCH  37  38
ENDBRANCH   1  37
TORSDOF 10
ENDMDL
MODEL 5
REMARK VINA RESULT:    -5.649      2.018      5.570
REMARK INTER + INTRA:         -12.054
REMARK INTER:                 -10.305
REMARK INTRA:                  -1.749
REMARK UNBOUND:                -2.441
REMARK SMILES C=C(C)[C@]12C[C@@H](C)[C@@]34O[C@](Cc5ccccc5)(O[C@@H]1[C@@H]3C=C(COC(=O)Cc1ccc(O)cc1)C[C@]1(O)C(=O)C(C)=C[C@@H]41)O2
REMARK SMILES IDX 23 1 22 2 21 3 20 4 9 5 8 6 10 7 6 8 18 10 44 11 19 12 5 13
REMARK SMILES IDX 7 14 4 15 11 16 12 17 13 18 17 19 14 20 16 21 15 22 2 23
REMARK SMILES IDX 3 24 1 25 35 26 36 27 43 28 38 29 42 30 39 32 40 33 41 34
REMARK SMILES IDX 37 35 24 37 25 38 26 39 27 40 28 41 29 42 34 43 30 44 33 45
REMARK SMILES IDX 31 46 32 47
REMARK H PARENT 37 36 32 48
REMARK Flexibility Score: 90.00
ROOT
ATOM      1  C   UNL     1     103.455  80.113  74.746  1.00  0.00     0.264 C 
ENDROOT
BRANCH   1   2
ATOM      2  C   UNL     1     102.377  80.012  75.800  1.00  0.00    -0.033 C 
ATOM      3  C   UNL     1     101.152  80.516  75.541  1.00  0.00    -0.015 C 
BRANCH   3   4
ATOM      4  C   UNL     1      99.934  80.607  76.446  1.00  0.00     0.078 C 
ATOM      5  O   UNL     1      98.592  78.567  76.057  1.00  0.00    -0.319 OA
ATOM      6  C   UNL     1      99.365  79.281  77.071  1.00  0.00     0.095 CG0
ATOM      7  C   UNL     1      97.732  79.391  75.247  1.00  0.00     0.289 C 
ATOM      8  C   UNL     1      98.410  79.686  78.269  1.00  0.00     0.023 C 
ATOM      9  G   UNL     1     100.519  78.302  77.438  1.00  0.00     0.000 G0
ATOM     10  O   UNL     1      98.470  80.410  74.578  1.00  0.00    -0.320 OA
ATOM     11  O   UNL     1      96.748  80.073  76.021  1.00  0.00    -0.313 OA
ATOM     12  C   UNL     1      98.763  81.276  75.686  1.00  0.00     0.170 C 
ATOM     13  C   UNL     1      97.681  81.035  77.987  1.00  0.00     0.049 C 
ATOM     14  C   UNL     1      97.376  78.624  78.678  1.00  0.00     0.011 C 
ATOM     15  C   UNL     1      97.441  81.248  76.492  1.00  0.00     0.122 C 
BRANCH   7  16
ATOM     16  C   UNL     1      97.045  78.503  74.228  1.00  0.00     0.135 C 
BRANCH  16  17
ATOM     17  C   UNL     1      97.664  78.628  72.858  1.00  0.00    -0.040 A 
ATOM     18  C   UNL     1      97.001  79.333  71.855  1.00  0.00     0.004 A 
ATOM     19  C   UNL     1      98.901  78.038  72.597  1.00  0.00     0.004 A 
ATOM     20  C   UNL     1      97.575  79.449  70.588  1.00  0.00     0.000 A 
ATOM     21  C   UNL     1      99.474  78.154  71.330  1.00  0.00     0.000 A 
ATOM     22  C   UNL     1      98.811  78.859  70.327  1.00  0.00     0.000 A 
ENDBRANCH  16  17
ENDBRANCH   7  16
BRANCH  15  23
ATOM     23  C   UNL     1      96.587  82.441  76.212  1.00  0.00    -0.046 C 
ATOM     24  C   UNL     1      96.759  83.076  74.863  1.00  0.00     0.042 C 
ATOM     25  C   UNL     1      95.717  82.918  77.113  1.00  0.00     0.010 C 
ENDBRANCH  15  23
ENDBRANCH   3   4
BRANCH   2  26
ATOM     26  C   UNL     1     102.843  79.315  77.064  1.00  0.00     0.078 C 
BRANCH  26  27
ATOM     27  C   UNL     1     101.775  78.944  78.091  1.00  0.00     0.140 C 
ATOM     28  C   UNL     1     100.529  78.313  77.436  1.00  0.00     0.086 CG0
ATOM     29  C   UNL     1     102.232  77.853  79.036  1.00  0.00     0.190 C 
ATOM     30  C   UNL     1     100.242  77.120  78.304  1.00  0.00    -0.010 C 
ATOM     31  G   UNL     1      99.373  79.292  77.078  1.00  0.00     0.000 G0
ATOM     32  O   UNL     1     103.296  77.837  79.637  1.00  0.00    -0.291 OA
ATOM     33  C   UNL     1     101.193  76.818  79.194  1.00  0.00    -0.008 C 
ATOM     34  C   UNL     1     101.287  75.686  80.139  1.00  0.00     0.048 C 
BRANCH  27  35
ATOM     35  O   UNL     1     101.480  80.033  78.950  1.00  0.00    -0.381 OA
ATOM     36  H   UNL     1     102.014  79.940  79.757  1.00  0.00     0.212 HD
ENDBRANCH  27  35
ENDBRANCH  26  27
ENDBRANCH   2  26
ENDBRANCH   1   2
BRANCH   1  37
ATOM     37  O   UNL     1     103.012  79.484  73.563  1.00  0.00    -0.461 OA
BRANCH  37  38
ATOM     38  C   UNL     1     103.535  79.967  72.386  1.00  0.00     0.310 C 
ATOM     39  O   UNL     1     103.813  79.285  71.409  1.00  0.00    -0.252 OA
BRANCH  38  40
ATOM     40  C   UNL     1     103.710  81.463  72.488  1.00  0.00     0.158 C 
BRANCH  40  41
ATOM     41  C   UNL     1     102.401  82.205  72.554  1.00  0.00    -0.037 A 
ATOM     42  C   UNL     1     101.276  81.693  71.906  1.00  0.00     0.008 A 
ATOM     43  C   UNL     1     102.312  83.404  73.260  1.00  0.00     0.008 A 
ATOM     44  C   UNL     1     100.063  82.381  71.966  1.00  0.00     0.046 A 
ATOM     45  C   UNL     1     101.100  84.091  73.321  1.00  0.00     0.046 A 
ATOM     46  C   UNL     1      99.976  83.580  72.673  1.00  0.00     0.115 A 
BRANCH  46  47
ATOM     47  O   UNL     1      98.793  84.250  72.731  1.00  0.00    -0.508 OA
ATOM     48  H   UNL     1      98.160  83.730  73.257  1.00  0.00     0.293 HD
ENDBRANCH  46  47
ENDBRANCH  40  41
ENDBRANCH  38  40
ENDBRANCH  37  38
ENDBRANCH   1  37
TORSDOF 10
ENDMDL
MODEL 6
REMARK VINA RESULT:    -5.547     16.737     19.925
REMARK INTER + INTRA:         -11.879
REMARK INTER:                 -10.735
REMARK INTRA:                  -1.145
REMARK UNBOUND:                -2.441
REMARK SMILES C=C(C)[C@]12C[C@@H](C)[C@@]34O[C@](Cc5ccccc5)(O[C@@H]1[C@@H]3C=C(COC(=O)Cc1ccc(O)cc1)C[C@]1(O)C(=O)C(C)=C[C@@H]41)O2
REMARK SMILES IDX 23 1 22 2 21 3 20 4 9 5 8 6 10 7 6 8 18 10 44 11 19 12 5 13
REMARK SMILES IDX 7 14 4 15 11 16 12 17 13 18 17 19 14 20 16 21 15 22 2 23
REMARK SMILES IDX 3 24 1 25 35 26 36 27 43 28 38 29 42 30 39 32 40 33 41 34
REMARK SMILES IDX 37 35 24 37 25 38 26 39 27 40 28 41 29 42 34 43 30 44 33 45
REMARK SMILES IDX 31 46 32 47
REMARK H PARENT 37 36 32 48
REMARK Flexibility Score: 90.00
ROOT
ATOM      1  C   UNL     1      82.518  67.861  73.864  1.00  0.00     0.264 C 
ENDROOT
BRANCH   1   2
ATOM      2  C   UNL     1      84.003  67.760  74.127  1.00  0.00    -0.033 C 
ATOM      3  C   UNL     1      84.866  67.912  73.101  1.00  0.00    -0.015 C 
BRANCH   3   4
ATOM      4  C   UNL     1      86.381  67.784  73.087  1.00  0.00     0.078 C 
ATOM      5  O   UNL     1      87.300  70.047  73.471  1.00  0.00    -0.319 OA
ATOM      6  C   UNL     1      87.219  68.706  74.046  1.00  0.00     0.095 CG0
ATOM      7  C   UNL     1      87.548  70.094  72.053  1.00  0.00     0.289 C 
ATOM      8  C   UNL     1      88.676  68.092  74.150  1.00  0.00     0.023 C 
ATOM      9  G   UNL     1      86.482  68.909  75.402  1.00  0.00     0.000 G0
ATOM     10  O   UNL     1      86.549  69.381  71.329  1.00  0.00    -0.320 OA
ATOM     11  O   UNL     1      88.788  69.486  71.698  1.00  0.00    -0.313 OA
ATOM     12  C   UNL     1      86.916  68.032  71.656  1.00  0.00     0.170 C 
ATOM     13  C   UNL     1      89.105  67.409  72.815  1.00  0.00     0.049 C 
ATOM     14  C   UNL     1      89.776  69.070  74.598  1.00  0.00     0.011 C 
ATOM     15  C   UNL     1      88.463  68.084  71.602  1.00  0.00     0.122 C 
BRANCH   7  16
ATOM     16  C   UNL     1      87.557  71.547  71.620  1.00  0.00     0.135 C 
BRANCH  16  17
ATOM     17  C   UNL     1      88.117  71.721  70.231  1.00  0.00    -0.040 A 
ATOM     18  C   UNL     1      87.302  71.512  69.119  1.00  0.00     0.004 A 
ATOM     19  C   UNL     1      89.451  72.090  70.059  1.00  0.00     0.004 A 
ATOM     20  C   UNL     1      87.821  71.674  67.833  1.00  0.00     0.000 A 
ATOM     21  C   UNL     1      89.969  72.252  68.774  1.00  0.00     0.000 A 
ATOM     22  C   UNL     1      89.155  72.043  67.662  1.00  0.00     0.000 A 
ENDBRANCH  16  17
ENDBRANCH   7  16
BRANCH  15  23
ATOM     23  C   UNL     1      88.998  67.565  70.307  1.00  0.00    -0.046 C 
ATOM     24  C   UNL     1      89.178  66.079  70.213  1.00  0.00     0.042 C 
ATOM     25  C   UNL     1      89.300  68.381  69.287  1.00  0.00     0.010 C 
ENDBRANCH  15  23
ENDBRANCH   3   4
BRANCH   2  26
ATOM     26  C   UNL     1      84.333  67.496  75.584  1.00  0.00     0.078 C 
BRANCH  26  27
ATOM     27  C   UNL     1      85.797  67.621  76.002  1.00  0.00     0.140 C 
ATOM     28  C   UNL     1      86.467  68.880  75.413  1.00  0.00     0.086 CG0
ATOM     29  C   UNL     1      85.959  67.833  77.492  1.00  0.00     0.190 C 
ATOM     30  C   UNL     1      87.203  69.466  76.586  1.00  0.00    -0.010 C 
ATOM     31  G   UNL     1      87.213  68.691  74.060  1.00  0.00     0.000 G0
ATOM     32  O   UNL     1      85.416  67.172  78.364  1.00  0.00    -0.291 OA
ATOM     33  C   UNL     1      86.918  68.918  77.771  1.00  0.00    -0.008 C 
ATOM     34  C   UNL     1      87.381  69.287  79.125  1.00  0.00     0.048 C 
BRANCH  27  35
ATOM     35  O   UNL     1      86.511  66.422  75.751  1.00  0.00    -0.381 OA
ATOM     36  H   UNL     1      87.463  66.615  75.805  1.00  0.00     0.212 HD
ENDBRANCH  27  35
ENDBRANCH  26  27
ENDBRANCH   2  26
ENDBRANCH   1   2
BRANCH   1  37
ATOM     37  O   UNL     1      81.863  66.762  74.460  1.00  0.00    -0.461 OA
BRANCH  37  38
ATOM     38  C   UNL     1      81.209  65.907  73.603  1.00  0.00     0.310 C 
ATOM     39  O   UNL     1      80.926  64.743  73.853  1.00  0.00    -0.252 OA
BRANCH  38  40
ATOM     40  C   UNL     1      80.897  66.627  72.313  1.00  0.00     0.158 C 
BRANCH  40  41
ATOM     41  C   UNL     1      81.370  65.880  71.094  1.00  0.00    -0.037 A 
ATOM     42  C   UNL     1      80.557  65.805  69.963  1.00  0.00     0.008 A 
ATOM     43  C   UNL     1      82.620  65.262  71.095  1.00  0.00     0.008 A 
ATOM     44  C   UNL     1      80.994  65.112  68.833  1.00  0.00     0.046 A 
ATOM     45  C   UNL     1      83.058  64.569  69.965  1.00  0.00     0.046 A 
ATOM     46  C   UNL     1      82.245  64.494  68.835  1.00  0.00     0.115 A 
BRANCH  46  47
ATOM     47  O   UNL     1      82.671  63.818  67.734  1.00  0.00    -0.508 OA
ATOM     48  H   UNL     1      81.963  63.824  67.066  1.00  0.00     0.293 HD
ENDBRANCH  46  47
ENDBRANCH  40  41
ENDBRANCH  38  40
ENDBRANCH  37  38
ENDBRANCH   1  37
TORSDOF 10
ENDMDL
MODEL 7
REMARK VINA RESULT:    -5.531      1.935      4.037
REMARK INTER + INTRA:         -11.852
REMARK INTER:                  -9.380
REMARK INTRA:                  -2.473
REMARK UNBOUND:                -2.441
REMARK SMILES C=C(C)[C@]12C[C@@H](C)[C@@]34O[C@](Cc5ccccc5)(O[C@@H]1[C@@H]3C=C(COC(=O)Cc1ccc(O)cc1)C[C@]1(O)C(=O)C(C)=C[C@@H]41)O2
REMARK SMILES IDX 23 1 22 2 21 3 20 4 9 5 8 6 10 7 6 8 18 10 44 11 19 12 5 13
REMARK SMILES IDX 7 14 4 15 11 16 12 17 13 18 17 19 14 20 16 21 15 22 2 23
REMARK SMILES IDX 3 24 1 25 35 26 36 27 43 28 38 29 42 30 39 32 40 33 41 34
REMARK SMILES IDX 37 35 24 37 25 38 26 39 27 40 28 41 29 42 34 43 30 44 33 45
REMARK SMILES IDX 31 46 32 47
REMARK H PARENT 37 36 32 48
REMARK Flexibility Score: 90.00
ROOT
ATOM      1  C   UNL     1     103.712  79.832  75.055  1.00  0.00     0.264 C 
ENDROOT
BRANCH   1   2
ATOM      2  C   UNL     1     102.254  79.592  74.739  1.00  0.00    -0.033 C 
ATOM      3  C   UNL     1     101.331  80.473  75.176  1.00  0.00    -0.015 C 
BRANCH   3   4
ATOM      4  C   UNL     1      99.816  80.422  75.059  1.00  0.00     0.078 C 
ATOM      5  O   UNL     1      99.212  81.643  72.995  1.00  0.00    -0.319 OA
ATOM      6  C   UNL     1      99.179  80.324  73.624  1.00  0.00     0.095 CG0
ATOM      7  C   UNL     1      98.851  82.742  73.853  1.00  0.00     0.289 C 
ATOM      8  C   UNL     1      97.673  79.863  73.797  1.00  0.00     0.023 C 
ATOM      9  G   UNL     1     100.049  79.429  72.693  1.00  0.00     0.000 G0
ATOM     10  O   UNL     1      99.691  82.800  75.002  1.00  0.00    -0.320 OA
ATOM     11  O   UNL     1      97.521  82.626  74.353  1.00  0.00    -0.313 OA
ATOM     12  C   UNL     1      99.193  81.669  75.734  1.00  0.00     0.170 C 
ATOM     13  C   UNL     1      97.053  80.421  75.115  1.00  0.00     0.049 C 
ATOM     14  C   UNL     1      96.742  80.189  72.617  1.00  0.00     0.011 C 
ATOM     15  C   UNL     1      97.666  81.767  75.503  1.00  0.00     0.122 C 
BRANCH   7  16
ATOM     16  C   UNL     1      98.980  84.027  73.058  1.00  0.00     0.135 C 
BRANCH  16  17
ATOM     17  C   UNL     1     100.358  84.191  72.466  1.00  0.00    -0.040 A 
ATOM     18  C   UNL     1     100.520  84.250  71.083  1.00  0.00     0.004 A 
ATOM     19  C   UNL     1     101.469  84.283  73.304  1.00  0.00     0.004 A 
ATOM     20  C   UNL     1     101.795  84.402  70.536  1.00  0.00     0.000 A 
ATOM     21  C   UNL     1     102.743  84.435  72.757  1.00  0.00     0.000 A 
ATOM     22  C   UNL     1     102.906  84.494  71.374  1.00  0.00     0.000 A 
ENDBRANCH  16  17
ENDBRANCH   7  16
BRANCH  15  23
ATOM     23  C   UNL     1      96.963  82.405  76.658  1.00  0.00    -0.046 C 
ATOM     24  C   UNL     1      95.953  83.460  76.317  1.00  0.00     0.042 C 
ATOM     25  C   UNL     1      97.222  82.055  77.926  1.00  0.00     0.010 C 
ENDBRANCH  15  23
ENDBRANCH   3   4
BRANCH   2  26
ATOM     26  C   UNL     1     102.021  78.333  73.924  1.00  0.00     0.078 C 
BRANCH  26  27
ATOM     27  C   UNL     1     100.625  78.130  73.339  1.00  0.00     0.140 C 
ATOM     28  C   UNL     1     100.060  79.421  72.712  1.00  0.00     0.086 CG0
ATOM     29  C   UNL     1     100.622  77.171  72.167  1.00  0.00     0.190 C 
ATOM     30  C   UNL     1      99.506  78.958  71.394  1.00  0.00    -0.010 C 
ATOM     31  G   UNL     1      99.180  80.307  73.642  1.00  0.00     0.000 G0
ATOM     32  O   UNL     1     101.157  76.073  72.148  1.00  0.00    -0.291 OA
ATOM     33  C   UNL     1      99.827  77.708  71.046  1.00  0.00    -0.008 C 
ATOM     34  C   UNL     1      99.532  76.961  69.806  1.00  0.00     0.048 C 
BRANCH  27  35
ATOM     35  O   UNL     1      99.753  77.520  74.276  1.00  0.00    -0.381 OA
ATOM     36  H   UNL     1      99.328  78.220  74.800  1.00  0.00     0.212 HD
ENDBRANCH  27  35
ENDBRANCH  26  27
ENDBRANCH   2  26
ENDBRANCH   1   2
BRANCH   1  37
ATOM     37  O   UNL     1     104.497  79.479  73.936  1.00  0.00    -0.461 OA
BRANCH  37  38
ATOM     38  C   UNL     1     104.923  80.518  73.141  1.00  0.00     0.310 C 
ATOM     39  O   UNL     1     104.929  81.697  73.469  1.00  0.00    -0.252 OA
BRANCH  38  40
ATOM     40  C   UNL     1     105.379  79.978  71.807  1.00  0.00     0.158 C 
BRANCH  40  41
ATOM     41  C   UNL     1     104.253  79.827  70.818  1.00  0.00    -0.037 A 
ATOM     42  C   UNL     1     103.360  80.880  70.611  1.00  0.00     0.008 A 
ATOM     43  C   UNL     1     104.101  78.636  70.108  1.00  0.00     0.008 A 
ATOM     44  C   UNL     1     102.317  80.740  69.696  1.00  0.00     0.046 A 
ATOM     45  C   UNL     1     103.058  78.497  69.192  1.00  0.00     0.046 A 
ATOM     46  C   UNL     1     102.166  79.548  68.986  1.00  0.00     0.115 A 
BRANCH  46  47
ATOM     47  O   UNL     1     101.148  79.413  68.093  1.00  0.00    -0.508 OA
ATOM     48  H   UNL     1     101.313  78.627  67.543  1.00  0.00     0.293 HD
ENDBRANCH  46  47
ENDBRANCH  40  41
ENDBRANCH  38  40
ENDBRANCH  37  38
ENDBRANCH   1  37
TORSDOF 10
ENDMDL
MODEL 8
REMARK VINA RESULT:    -5.156     26.187     30.368
REMARK INTER + INTRA:         -11.214
REMARK INTER:                 -10.689
REMARK INTRA:                  -0.525
REMARK UNBOUND:                -2.441
REMARK SMILES C=C(C)[C@]12C[C@@H](C)[C@@]34O[C@](Cc5ccccc5)(O[C@@H]1[C@@H]3C=C(COC(=O)Cc1ccc(O)cc1)C[C@]1(O)C(=O)C(C)=C[C@@H]41)O2
REMARK SMILES IDX 23 1 22 2 21 3 20 4 9 5 8 6 10 7 6 8 18 10 44 11 19 12 5 13
REMARK SMILES IDX 7 14 4 15 11 16 12 17 13 18 17 19 14 20 16 21 15 22 2 23
REMARK SMILES IDX 3 24 1 25 35 26 36 27 43 28 38 29 42 30 39 32 40 33 41 34
REMARK SMILES IDX 37 35 24 37 25 38 26 39 27 40 28 41 29 42 34 43 30 44 33 45
REMARK SMILES IDX 31 46 32 47
REMARK H PARENT 37 36 32 48
REMARK Flexibility Score: 90.00
ROOT
ATOM      1  C   UNL     1      69.159  87.091  69.233  1.00  0.00     0.264 C 
ENDROOT
BRANCH   1   2
ATOM      2  C   UNL     1      70.495  87.738  68.950  1.00  0.00    -0.033 C 
ATOM      3  C   UNL     1      71.566  86.956  68.701  1.00  0.00    -0.015 C 
BRANCH   3   4
ATOM      4  C   UNL     1      73.015  87.351  68.466  1.00  0.00     0.078 C 
ATOM      5  O   UNL     1      73.308  87.595  66.022  1.00  0.00    -0.319 OA
ATOM      6  C   UNL     1      73.340  88.335  67.282  1.00  0.00     0.095 CG0
ATOM      7  C   UNL     1      73.935  86.299  66.054  1.00  0.00     0.289 C 
ATOM      8  C   UNL     1      74.800  88.904  67.518  1.00  0.00     0.023 C 
ATOM      9  G   UNL     1      72.221  89.407  67.131  1.00  0.00     0.000 G0
ATOM     10  O   UNL     1      73.350  85.465  67.050  1.00  0.00    -0.320 OA
ATOM     11  O   UNL     1      75.320  86.374  66.380  1.00  0.00    -0.313 OA
ATOM     12  C   UNL     1      73.875  86.084  68.235  1.00  0.00     0.170 C 
ATOM     13  C   UNL     1      75.721  87.848  68.204  1.00  0.00     0.049 C 
ATOM     14  C   UNL     1      75.504  89.458  66.268  1.00  0.00     0.011 C 
ATOM     15  C   UNL     1      75.328  86.421  67.821  1.00  0.00     0.122 C 
BRANCH   7  16
ATOM     16  C   UNL     1      73.771  85.659  64.689  1.00  0.00     0.135 C 
BRANCH  16  17
ATOM     17  C   UNL     1      74.011  84.171  64.729  1.00  0.00    -0.040 A 
ATOM     18  C   UNL     1      75.313  83.675  64.776  1.00  0.00     0.004 A 
ATOM     19  C   UNL     1      72.929  83.291  64.719  1.00  0.00     0.004 A 
ATOM     20  C   UNL     1      75.535  82.297  64.813  1.00  0.00     0.000 A 
ATOM     21  C   UNL     1      73.151  81.914  64.756  1.00  0.00     0.000 A 
ATOM     22  C   UNL     1      74.453  81.418  64.803  1.00  0.00     0.000 A 
ENDBRANCH  16  17
ENDBRANCH   7  16
BRANCH  15  23
ATOM     23  C   UNL     1      76.304  85.404  68.319  1.00  0.00    -0.046 C 
ATOM     24  C   UNL     1      76.040  84.848  69.687  1.00  0.00     0.042 C 
ATOM     25  C   UNL     1      77.355  85.012  67.585  1.00  0.00     0.010 C 
ENDBRANCH  15  23
ENDBRANCH   3   4
BRANCH   2  26
ATOM     26  C   UNL     1      70.441  89.254  68.978  1.00  0.00     0.078 C 
BRANCH  26  27
ATOM     27  C   UNL     1      71.670  90.005  68.471  1.00  0.00     0.140 C 
ATOM     28  C   UNL     1      72.211  89.416  67.152  1.00  0.00     0.086 CG0
ATOM     29  C   UNL     1      71.356  91.435  68.084  1.00  0.00     0.190 C 
ATOM     30  C   UNL     1      72.451  90.631  66.299  1.00  0.00    -0.010 C 
ATOM     31  G   UNL     1      73.333  88.346  67.289  1.00  0.00     0.000 G0
ATOM     32  O   UNL     1      70.732  92.233  68.767  1.00  0.00    -0.291 OA
ATOM     33  C   UNL     1      71.958  91.775  66.781  1.00  0.00    -0.008 C 
ATOM     34  C   UNL     1      71.935  93.127  66.184  1.00  0.00     0.048 C 
BRANCH  27  35
ATOM     35  O   UNL     1      72.652  90.137  69.485  1.00  0.00    -0.381 OA
ATOM     36  H   UNL     1      72.740  89.282  69.939  1.00  0.00     0.212 HD
ENDBRANCH  27  35
ENDBRANCH  26  27
ENDBRANCH   2  26
ENDBRANCH   1   2
BRANCH   1  37
ATOM     37  O   UNL     1      69.322  86.098  70.223  1.00  0.00    -0.461 OA
BRANCH  37  38
ATOM     38  C   UNL     1      68.601  84.939  70.046  1.00  0.00     0.310 C 
ATOM     39  O   UNL     1      69.063  83.878  69.651  1.00  0.00    -0.252 OA
BRANCH  38  40
ATOM     40  C   UNL     1      67.157  85.183  70.415  1.00  0.00     0.158 C 
BRANCH  40  41
ATOM     41  C   UNL     1      67.001  85.947  71.703  1.00  0.00    -0.037 A 
ATOM     42  C   UNL     1      67.299  85.333  72.920  1.00  0.00     0.008 A 
ATOM     43  C   UNL     1      66.557  87.269  71.681  1.00  0.00     0.008 A 
ATOM     44  C   UNL     1      67.153  86.040  74.114  1.00  0.00     0.046 A 
ATOM     45  C   UNL     1      66.411  87.977  72.875  1.00  0.00     0.046 A 
ATOM     46  C   UNL     1      66.709  87.363  74.090  1.00  0.00     0.115 A 
BRANCH  46  47
ATOM     47  O   UNL     1      66.566  88.053  75.255  1.00  0.00    -0.508 OA
ATOM     48  H   UNL     1      67.135  88.842  75.226  1.00  0.00     0.293 HD
ENDBRANCH  46  47
ENDBRANCH  40  41
ENDBRANCH  38  40
ENDBRANCH  37  38
ENDBRANCH   1  37
TORSDOF 10
ENDMDL
MODEL 9
REMARK VINA RESULT:    -5.025      2.581      6.669
REMARK INTER + INTRA:         -10.992
REMARK INTER:                  -9.439
REMARK INTRA:                  -1.553
REMARK UNBOUND:                -2.441
REMARK SMILES C=C(C)[C@]12C[C@@H](C)[C@@]34O[C@](Cc5ccccc5)(O[C@@H]1[C@@H]3C=C(COC(=O)Cc1ccc(O)cc1)C[C@]1(O)C(=O)C(C)=C[C@@H]41)O2
REMARK SMILES IDX 23 1 22 2 21 3 20 4 9 5 8 6 10 7 6 8 18 10 44 11 19 12 5 13
REMARK SMILES IDX 7 14 4 15 11 16 12 17 13 18 17 19 14 20 16 21 15 22 2 23
REMARK SMILES IDX 3 24 1 25 35 26 36 27 43 28 38 29 42 30 39 32 40 33 41 34
REMARK SMILES IDX 37 35 24 37 25 38 26 39 27 40 28 41 29 42 34 43 30 44 33 45
REMARK SMILES IDX 31 46 32 47
REMARK H PARENT 37 36 32 48
REMARK Flexibility Score: 90.00
ROOT
ATOM      1  C   UNL     1     103.502  79.762  75.587  1.00  0.00     0.264 C 
ENDROOT
BRANCH   1   2
ATOM      2  C   UNL     1     102.406  79.801  76.627  1.00  0.00    -0.033 C 
ATOM      3  C   UNL     1     101.171  80.209  76.268  1.00  0.00    -0.015 C 
BRANCH   3   4
ATOM      4  C   UNL     1      99.932  80.408  77.127  1.00  0.00     0.078 C 
ATOM      5  O   UNL     1      98.653  78.293  77.048  1.00  0.00    -0.319 OA
ATOM      6  C   UNL     1      99.386  79.182  77.947  1.00  0.00     0.095 CG0
ATOM      7  C   UNL     1      97.789  78.950  76.102  1.00  0.00     0.289 C 
ATOM      8  C   UNL     1      98.395  79.745  79.048  1.00  0.00     0.023 C 
ATOM      9  G   UNL     1     100.557  78.310  78.486  1.00  0.00     0.000 G0
ATOM     10  O   UNL     1      98.513  79.871  75.291  1.00  0.00    -0.320 OA
ATOM     11  O   UNL     1      96.771  79.718  76.740  1.00  0.00    -0.313 OA
ATOM     12  C   UNL     1      98.759  80.911  76.250  1.00  0.00     0.170 C 
ATOM     13  C   UNL     1      97.636  81.010  78.541  1.00  0.00     0.049 C 
ATOM     14  C   UNL     1      97.381  78.732  79.606  1.00  0.00     0.011 C 
ATOM     15  C   UNL     1      97.422  80.973  77.027  1.00  0.00     0.122 C 
BRANCH   7  16
ATOM     16  C   UNL     1      97.148  77.890  75.228  1.00  0.00     0.135 C 
BRANCH  16  17
ATOM     17  C   UNL     1      97.218  76.521  75.856  1.00  0.00    -0.040 A 
ATOM     18  C   UNL     1      98.366  75.743  75.707  1.00  0.00     0.004 A 
ATOM     19  C   UNL     1      96.134  76.032  76.585  1.00  0.00     0.004 A 
ATOM     20  C   UNL     1      98.431  74.476  76.288  1.00  0.00     0.000 A 
ATOM     21  C   UNL     1      96.199  74.765  77.166  1.00  0.00     0.000 A 
ATOM     22  C   UNL     1      97.347  73.988  77.017  1.00  0.00     0.000 A 
ENDBRANCH  16  17
ENDBRANCH   7  16
BRANCH  15  23
ATOM     23  C   UNL     1      96.543  82.080  76.545  1.00  0.00    -0.046 C 
ATOM     24  C   UNL     1      95.764  82.813  77.597  1.00  0.00     0.042 C 
ATOM     25  C   UNL     1      96.453  82.401  75.246  1.00  0.00     0.010 C 
ENDBRANCH  15  23
ENDBRANCH   3   4
BRANCH   2  26
ATOM     26  C   UNL     1     102.868  79.344  77.998  1.00  0.00     0.078 C 
BRANCH  26  27
ATOM     27  C   UNL     1     101.790  79.089  79.049  1.00  0.00     0.140 C 
ATOM     28  C   UNL     1     100.585  78.317  78.474  1.00  0.00     0.086 CG0
ATOM     29  C   UNL     1     102.265  78.172  80.156  1.00  0.00     0.190 C 
ATOM     30  C   UNL     1     100.322  77.258  79.508  1.00  0.00    -0.010 C 
ATOM     31  G   UNL     1      99.402  79.184  77.951  1.00  0.00     0.000 G0
ATOM     32  O   UNL     1     103.314  78.290  80.772  1.00  0.00    -0.291 OA
ATOM     33  C   UNL     1     101.261  77.132  80.450  1.00  0.00    -0.008 C 
ATOM     34  C   UNL     1     101.374  76.160  81.556  1.00  0.00     0.048 C 
BRANCH  27  35
ATOM     35  O   UNL     1     101.435  80.283  79.728  1.00  0.00    -0.381 OA
ATOM     36  H   UNL     1     100.565  80.571  79.405  1.00  0.00     0.212 HD
ENDBRANCH  27  35
ENDBRANCH  26  27
ENDBRANCH   2  26
ENDBRANCH   1   2
BRANCH   1  37
ATOM     37  O   UNL     1     102.942  79.446  74.331  1.00  0.00    -0.461 OA
BRANCH  37  38
ATOM     38  C   UNL     1     103.525  80.045  73.238  1.00  0.00     0.310 C 
ATOM     39  O   UNL     1     104.719  80.279  73.119  1.00  0.00    -0.252 OA
BRANCH  38  40
ATOM     40  C   UNL     1     102.463  80.366  72.213  1.00  0.00     0.158 C 
BRANCH  40  41
ATOM     41  C   UNL     1     101.581  81.517  72.622  1.00  0.00    -0.037 A 
ATOM     42  C   UNL     1     102.151  82.708  73.073  1.00  0.00     0.008 A 
ATOM     43  C   UNL     1     100.194  81.393  72.552  1.00  0.00     0.008 A 
ATOM     44  C   UNL     1     101.335  83.774  73.452  1.00  0.00     0.046 A 
ATOM     45  C   UNL     1      99.376  82.458  72.931  1.00  0.00     0.046 A 
ATOM     46  C   UNL     1      99.947  83.648  73.381  1.00  0.00     0.115 A 
BRANCH  46  47
ATOM     47  O   UNL     1      99.150  84.687  73.752  1.00  0.00    -0.508 OA
ATOM     48  H   UNL     1      98.972  84.624  74.706  1.00  0.00     0.293 HD
ENDBRANCH  46  47
ENDBRANCH  40  41
ENDBRANCH  38  40
ENDBRANCH  37  38
ENDBRANCH   1  37
TORSDOF 10
ENDMDL
MODEL 10
REMARK VINA RESULT:    -4.981     27.426     31.507
REMARK INTER + INTRA:         -10.917
REMARK INTER:                 -10.880
REMARK INTRA:                  -0.037
REMARK UNBOUND:                -2.441
REMARK SMILES C=C(C)[C@]12C[C@@H](C)[C@@]34O[C@](Cc5ccccc5)(O[C@@H]1[C@@H]3C=C(COC(=O)Cc1ccc(O)cc1)C[C@]1(O)C(=O)C(C)=C[C@@H]41)O2
REMARK SMILES IDX 23 1 22 2 21 3 20 4 9 5 8 6 10 7 6 8 18 10 44 11 19 12 5 13
REMARK SMILES IDX 7 14 4 15 11 16 12 17 13 18 17 19 14 20 16 21 15 22 2 23
REMARK SMILES IDX 3 24 1 25 35 26 36 27 43 28 38 29 42 30 39 32 40 33 41 34
REMARK SMILES IDX 37 35 24 37 25 38 26 39 27 40 28 41 29 42 34 43 30 44 33 45
REMARK SMILES IDX 31 46 32 47
REMARK H PARENT 37 36 32 48
REMARK Flexibility Score: 90.00
ROOT
ATOM      1  C   UNL     1      68.164  86.120  68.548  1.00  0.00     0.264 C 
ENDROOT
BRANCH   1   2
ATOM      2  C   UNL     1      69.415  86.968  68.531  1.00  0.00    -0.033 C 
ATOM      3  C   UNL     1      70.620  86.363  68.511  1.00  0.00    -0.015 C 
BRANCH   3   4
ATOM      4  C   UNL     1      72.010  86.978  68.567  1.00  0.00     0.078 C 
ATOM      5  O   UNL     1      72.736  87.332  66.229  1.00  0.00    -0.319 OA
ATOM      6  C   UNL     1      72.406  88.033  67.469  1.00  0.00     0.095 CG0
ATOM      7  C   UNL     1      73.535  86.144  66.388  1.00  0.00     0.289 C 
ATOM      8  C   UNL     1      73.687  88.807  67.989  1.00  0.00     0.023 C 
ATOM      9  G   UNL     1      71.189  88.928  67.097  1.00  0.00     0.000 G0
ATOM     10  O   UNL     1      72.901  85.204  67.250  1.00  0.00    -0.320 OA
ATOM     11  O   UNL     1      74.802  86.418  66.982  1.00  0.00    -0.313 OA
ATOM     12  C   UNL     1      73.081  85.862  68.515  1.00  0.00     0.170 C 
ATOM     13  C   UNL     1      74.605  87.884  68.847  1.00  0.00     0.049 C 
ATOM     14  C   UNL     1      74.529  89.497  66.902  1.00  0.00     0.011 C 
ATOM     15  C   UNL     1      74.519  86.425  68.397  1.00  0.00     0.122 C 
BRANCH   7  16
ATOM     16  C   UNL     1      73.744  85.526  65.020  1.00  0.00     0.135 C 
BRANCH  16  17
ATOM     17  C   UNL     1      73.818  84.021  65.083  1.00  0.00    -0.040 A 
ATOM     18  C   UNL     1      75.006  83.396  65.461  1.00  0.00     0.004 A 
ATOM     19  C   UNL     1      72.697  83.255  64.764  1.00  0.00     0.004 A 
ATOM     20  C   UNL     1      75.074  82.004  65.521  1.00  0.00     0.000 A 
ATOM     21  C   UNL     1      72.765  81.862  64.824  1.00  0.00     0.000 A 
ATOM     22  C   UNL     1      73.953  81.237  65.202  1.00  0.00     0.000 A 
ENDBRANCH  16  17
ENDBRANCH   7  16
BRANCH  15  23
ATOM     23  C   UNL     1      75.521  85.553  69.081  1.00  0.00    -0.046 C 
ATOM     24  C   UNL     1      75.002  84.698  70.199  1.00  0.00     0.042 C 
ATOM     25  C   UNL     1      76.812  85.536  68.717  1.00  0.00     0.010 C 
ENDBRANCH  15  23
ENDBRANCH   3   4
BRANCH   2  26
ATOM     26  C   UNL     1      69.125  88.457  68.533  1.00  0.00     0.078 C 
BRANCH  26  27
ATOM     27  C   UNL     1      70.305  89.398  68.297  1.00  0.00     0.140 C 
ATOM     28  C   UNL     1      71.190  88.941  67.119  1.00  0.00     0.086 CG0
ATOM     29  C   UNL     1      69.868  90.779  67.858  1.00  0.00     0.190 C 
ATOM     30  C   UNL     1      71.416  90.206  66.339  1.00  0.00    -0.010 C 
ATOM     31  G   UNL     1      72.407  88.041  67.484  1.00  0.00     0.000 G0
ATOM     32  O   UNL     1      69.003  91.453  68.398  1.00  0.00    -0.291 OA
ATOM     33  C   UNL     1      70.668  91.249  66.711  1.00  0.00    -0.008 C 
ATOM     34  C   UNL     1      70.565  92.602  66.128  1.00  0.00     0.048 C 
BRANCH  27  35
ATOM     35  O   UNL     1      71.025  89.636  69.495  1.00  0.00    -0.381 OA
ATOM     36  H   UNL     1      71.638  88.895  69.637  1.00  0.00     0.212 HD
ENDBRANCH  27  35
ENDBRANCH  26  27
ENDBRANCH   2  26
ENDBRANCH   1   2
BRANCH   1  37
ATOM     37  O   UNL     1      68.013  85.536  69.824  1.00  0.00    -0.461 OA
BRANCH  37  38
ATOM     38  C   UNL     1      66.723  85.270  70.221  1.00  0.00     0.310 C 
ATOM     39  O   UNL     1      66.122  85.868  71.103  1.00  0.00    -0.252 OA
BRANCH  38  40
ATOM     40  C   UNL     1      66.168  84.130  69.401  1.00  0.00     0.158 C 
BRANCH  40  41
ATOM     41  C   UNL     1      65.024  83.420  70.079  1.00  0.00    -0.037 A 
ATOM     42  C   UNL     1      63.795  84.063  70.227  1.00  0.00     0.008 A 
ATOM     43  C   UNL     1      65.194  82.122  70.559  1.00  0.00     0.008 A 
ATOM     44  C   UNL     1      62.736  83.406  70.856  1.00  0.00     0.046 A 
ATOM     45  C   UNL     1      64.136  81.465  71.186  1.00  0.00     0.046 A 
ATOM     46  C   UNL     1      62.907  82.107  71.335  1.00  0.00     0.115 A 
BRANCH  46  47
ATOM     47  O   UNL     1      61.874  81.467  71.948  1.00  0.00    -0.508 OA
ATOM     48  H   UNL     1      62.161  81.181  72.833  1.00  0.00     0.293 HD
ENDBRANCH  46  47
ENDBRANCH  40  41
ENDBRANCH  38  40
ENDBRANCH  37  38
ENDBRANCH   1  37
TORSDOF 10
ENDMDL
