MODEL 1
REMARK VINA RESULT:    -5.890      0.000      0.000
REMARK INTER + INTRA:         -10.369
REMARK INTER:                  -9.161
REMARK INTRA:                  -1.208
REMARK UNBOUND:                -1.208
REMARK SMILES COc1cc(CNC(=O)CCCCCC(C)C)ccc1O
REMARK SMILES IDX 10 1 8 2 7 3 9 5 6 6 5 7 3 8 20 9 4 10 19 11 18 12 2 13 1 14
REMARK SMILES IDX 21 15 11 17 12 18 13 19 14 20 15 21 16 22 17 23
REMARK H PARENT 7 4 21 16
REMARK Flexibility Score: inf
ROOT
ATOM      1  C   UNL     1      95.962  97.522  74.451  1.00  0.00     0.100 C 
ENDROOT
BRANCH   1   2
ATOM      2  C   UNL     1      96.950  97.543  75.550  1.00  0.00     0.220 C 
ATOM      3  N   UNL     1      96.812  96.673  76.591  1.00  0.00    -0.352 N 
ATOM      4  H   UNL     1      95.947  96.152  76.597  1.00  0.00     0.163 HD
ATOM      5  O   UNL     1      97.921  98.335  75.481  1.00  0.00    -0.275 OA
BRANCH   3   6
ATOM      6  C   UNL     1      97.778  96.467  77.623  1.00  0.00     0.151 C 
BRANCH   6   7
ATOM      7  C   UNL     1      97.272  95.619  78.735  1.00  0.00    -0.025 A 
ATOM      8  C   UNL     1      97.690  94.267  80.746  1.00  0.00     0.160 A 
ATOM      9  C   UNL     1      96.302  94.058  80.892  1.00  0.00     0.157 A 
ATOM     10  C   UNL     1      98.167  95.029  79.659  1.00  0.00     0.056 A 
ATOM     11  C   UNL     1      95.404  94.618  79.964  1.00  0.00     0.050 A 
ATOM     12  C   UNL     1      95.884  95.396  78.898  1.00  0.00     0.009 A 
BRANCH   8  13
ATOM     13  O   UNL     1      98.582  93.714  81.627  1.00  0.00    -0.493 OA
ATOM     14  C   UNL     1      99.139  94.659  82.561  1.00  0.00     0.278 C 
ENDBRANCH   8  13
BRANCH   9  15
ATOM     15  O   UNL     1      95.833  93.325  81.933  1.00  0.00    -0.504 OA
ATOM     16  H   UNL     1      96.561  92.857  82.348  1.00  0.00     0.293 HD
ENDBRANCH   9  15
ENDBRANCH   6   7
ENDBRANCH   3   6
ENDBRANCH   1   2
BRANCH   1  17
ATOM     17  C   UNL     1      95.051  96.265  74.436  1.00  0.00     0.010 C 
BRANCH  17  18
ATOM     18  C   UNL     1      93.580  96.621  74.790  1.00  0.00     0.001 C 
BRANCH  18  19
ATOM     19  C   UNL     1      93.076  95.935  76.087  1.00  0.00     0.000 C 
BRANCH  19  20
ATOM     20  C   UNL     1      93.373  94.407  76.099  1.00  0.00     0.003 C 
BRANCH  20  21
ATOM     21  C   UNL     1      92.270  93.525  76.770  1.00  0.00    -0.017 C 
ATOM     22  C   UNL     1      90.858  94.146  76.558  1.00  0.00     0.007 C 
ATOM     23  C   UNL     1      92.526  93.287  78.287  1.00  0.00     0.007 C 
ENDBRANCH  20  21
ENDBRANCH  19  20
ENDBRANCH  18  19
ENDBRANCH  17  18
ENDBRANCH   1  17
TORSDOF 10
ENDMDL
MODEL 2
REMARK VINA RESULT:    -5.684     14.252     17.001
REMARK INTER + INTRA:         -10.049
REMARK INTER:                  -9.466
REMARK INTRA:                  -0.583
REMARK UNBOUND:                -1.208
REMARK SMILES COc1cc(CNC(=O)CCCCCC(C)C)ccc1O
REMARK SMILES IDX 10 1 8 2 7 3 9 5 6 6 5 7 3 8 20 9 4 10 19 11 18 12 2 13 1 14
REMARK SMILES IDX 21 15 11 17 12 18 13 19 14 20 15 21 16 22 17 23
REMARK H PARENT 7 4 21 16
REMARK Flexibility Score: inf
ROOT
ATOM      1  C   UNL     1      95.521  81.798  83.884  1.00  0.00     0.100 C 
ENDROOT
BRANCH   1   2
ATOM      2  C   UNL     1      94.407  82.080  84.812  1.00  0.00     0.220 C 
ATOM      3  N   UNL     1      93.144  81.690  84.480  1.00  0.00    -0.352 N 
ATOM      4  H   UNL     1      93.040  81.342  83.537  1.00  0.00     0.163 HD
ATOM      5  O   UNL     1      94.654  82.637  85.910  1.00  0.00    -0.275 OA
BRANCH   3   6
ATOM      6  C   UNL     1      92.012  81.741  85.349  1.00  0.00     0.151 C 
BRANCH   6   7
ATOM      7  C   UNL     1      90.963  80.745  85.003  1.00  0.00    -0.025 A 
ATOM      8  C   UNL     1      88.592  80.157  84.716  1.00  0.00     0.160 A 
ATOM      9  C   UNL     1      88.967  78.869  84.278  1.00  0.00     0.157 A 
ATOM     10  C   UNL     1      89.591  81.080  85.093  1.00  0.00     0.056 A 
ATOM     11  C   UNL     1      90.328  78.516  84.210  1.00  0.00     0.050 A 
ATOM     12  C   UNL     1      91.318  79.448  84.564  1.00  0.00     0.009 A 
BRANCH   8  13
ATOM     13  O   UNL     1      87.273  80.514  84.808  1.00  0.00    -0.493 OA
ATOM     14  C   UNL     1      86.889  81.565  83.901  1.00  0.00     0.278 C 
ENDBRANCH   8  13
BRANCH   9  15
ATOM     15  O   UNL     1      88.015  77.974  83.915  1.00  0.00    -0.504 OA
ATOM     16  H   UNL     1      87.953  77.942  82.958  1.00  0.00     0.293 HD
ENDBRANCH   9  15
ENDBRANCH   6   7
ENDBRANCH   3   6
ENDBRANCH   1   2
BRANCH   1  17
ATOM     17  C   UNL     1      95.764  80.288  83.618  1.00  0.00     0.010 C 
BRANCH  17  18
ATOM     18  C   UNL     1      96.297  80.038  82.180  1.00  0.00     0.001 C 
BRANCH  18  19
ATOM     19  C   UNL     1      97.385  81.053  81.741  1.00  0.00     0.000 C 
BRANCH  19  20
ATOM     20  C   UNL     1      96.887  81.998  80.610  1.00  0.00     0.003 C 
BRANCH  20  21
ATOM     21  C   UNL     1      97.729  81.953  79.293  1.00  0.00    -0.017 C 
ATOM     22  C   UNL     1      96.803  81.987  78.041  1.00  0.00     0.007 C 
ATOM     23  C   UNL     1      98.676  80.720  79.223  1.00  0.00     0.007 C 
ENDBRANCH  20  21
ENDBRANCH  19  20
ENDBRANCH  18  19
ENDBRANCH  17  18
ENDBRANCH   1  17
TORSDOF 10
ENDMDL
MODEL 3
REMARK VINA RESULT:    -5.612      6.021     10.157
REMARK INTER + INTRA:          -9.937
REMARK INTER:                  -9.173
REMARK INTRA:                  -0.763
REMARK UNBOUND:                -1.208
REMARK SMILES COc1cc(CNC(=O)CCCCCC(C)C)ccc1O
REMARK SMILES IDX 10 1 8 2 7 3 9 5 6 6 5 7 3 8 20 9 4 10 19 11 18 12 2 13 1 14
REMARK SMILES IDX 21 15 11 17 12 18 13 19 14 20 15 21 16 22 17 23
REMARK H PARENT 7 4 21 16
REMARK Flexibility Score: inf
ROOT
ATOM      1  C   UNL     1      94.004  97.932  74.207  1.00  0.00     0.100 C 
ENDROOT
BRANCH   1   2
ATOM      2  C   UNL     1      93.983  98.549  72.865  1.00  0.00     0.220 C 
ATOM      3  N   UNL     1      92.884  99.251  72.468  1.00  0.00    -0.352 N 
ATOM      4  H   UNL     1      92.091  99.185  73.090  1.00  0.00     0.163 HD
ATOM      5  O   UNL     1      94.997  98.450  72.132  1.00  0.00    -0.275 OA
BRANCH   3   6
ATOM      6  C   UNL     1      92.796 100.038  71.280  1.00  0.00     0.151 C 
BRANCH   6   7
ATOM      7  C   UNL     1      91.567  99.763  70.487  1.00  0.00    -0.025 A 
ATOM      8  C   UNL     1      90.128 100.239  68.551  1.00  0.00     0.160 A 
ATOM      9  C   UNL     1      89.262  99.195  68.941  1.00  0.00     0.157 A 
ATOM     10  C   UNL     1      91.264 100.528  69.336  1.00  0.00     0.056 A 
ATOM     11  C   UNL     1      89.540  98.445  70.098  1.00  0.00     0.050 A 
ATOM     12  C   UNL     1      90.686  98.722  70.863  1.00  0.00     0.009 A 
BRANCH   8  13
ATOM     13  O   UNL     1      89.865 100.994  67.438  1.00  0.00    -0.493 OA
ATOM     14  C   UNL     1      90.875 100.895  66.416  1.00  0.00     0.278 C 
ENDBRANCH   8  13
BRANCH   9  15
ATOM     15  O   UNL     1      88.166  98.910  68.194  1.00  0.00    -0.504 OA
ATOM     16  H   UNL     1      88.318  98.102  67.698  1.00  0.00     0.293 HD
ENDBRANCH   9  15
ENDBRANCH   6   7
ENDBRANCH   3   6
ENDBRANCH   1   2
BRANCH   1  17
ATOM     17  C   UNL     1      95.129  96.880  74.408  1.00  0.00     0.010 C 
BRANCH  17  18
ATOM     18  C   UNL     1      94.581  95.430  74.307  1.00  0.00     0.001 C 
BRANCH  18  19
ATOM     19  C   UNL     1      94.533  94.692  75.671  1.00  0.00     0.000 C 
BRANCH  19  20
ATOM     20  C   UNL     1      93.750  95.498  76.748  1.00  0.00     0.003 C 
BRANCH  20  21
ATOM     21  C   UNL     1      92.199  95.300  76.723  1.00  0.00    -0.017 C 
ATOM     22  C   UNL     1      91.466  96.602  77.162  1.00  0.00     0.007 C 
ATOM     23  C   UNL     1      91.729  94.102  77.599  1.00  0.00     0.007 C 
ENDBRANCH  20  21
ENDBRANCH  19  20
ENDBRANCH  18  19
ENDBRANCH  17  18
ENDBRANCH   1  17
TORSDOF 10
ENDMDL
MODEL 4
REMARK VINA RESULT:    -5.490     13.020     15.108
REMARK INTER + INTRA:          -9.747
REMARK INTER:                  -8.824
REMARK INTRA:                  -0.923
REMARK UNBOUND:                -1.208
REMARK SMILES COc1cc(CNC(=O)CCCCCC(C)C)ccc1O
REMARK SMILES IDX 10 1 8 2 7 3 9 5 6 6 5 7 3 8 20 9 4 10 19 11 18 12 2 13 1 14
REMARK SMILES IDX 21 15 11 17 12 18 13 19 14 20 15 21 16 22 17 23
REMARK H PARENT 7 4 21 16
REMARK Flexibility Score: inf
ROOT
ATOM      1  C   UNL     1      98.638  79.412  81.001  1.00  0.00     0.100 C 
ENDROOT
BRANCH   1   2
ATOM      2  C   UNL     1      99.328  79.852  79.771  1.00  0.00     0.220 C 
ATOM      3  N   UNL     1      98.669  79.800  78.579  1.00  0.00    -0.352 N 
ATOM      4  H   UNL     1      97.776  79.329  78.607  1.00  0.00     0.163 HD
ATOM      5  O   UNL     1     100.495  80.305  79.856  1.00  0.00    -0.275 OA
BRANCH   3   6
ATOM      6  C   UNL     1      99.148  80.349  77.351  1.00  0.00     0.151 C 
BRANCH   6   7
ATOM      7  C   UNL     1      98.212  81.336  76.748  1.00  0.00    -0.025 A 
ATOM      8  C   UNL     1      97.539  82.759  74.858  1.00  0.00     0.160 A 
ATOM      9  C   UNL     1      96.393  83.165  75.574  1.00  0.00     0.157 A 
ATOM     10  C   UNL     1      98.450  81.862  75.456  1.00  0.00     0.056 A 
ATOM     11  C   UNL     1      96.160  82.668  76.870  1.00  0.00     0.050 A 
ATOM     12  C   UNL     1      97.058  81.757  77.451  1.00  0.00     0.009 A 
BRANCH   8  13
ATOM     13  O   UNL     1      97.795  83.246  73.603  1.00  0.00    -0.493 OA
ATOM     14  C   UNL     1      99.123  83.780  73.446  1.00  0.00     0.278 C 
ENDBRANCH   8  13
BRANCH   9  15
ATOM     15  O   UNL     1      95.512  84.028  75.010  1.00  0.00    -0.504 OA
ATOM     16  H   UNL     1      95.880  84.372  74.193  1.00  0.00     0.293 HD
ENDBRANCH   9  15
ENDBRANCH   6   7
ENDBRANCH   3   6
ENDBRANCH   1   2
BRANCH   1  17
ATOM     17  C   UNL     1      97.135  79.796  81.062  1.00  0.00     0.010 C 
BRANCH  17  18
ATOM     18  C   UNL     1      96.941  81.330  81.213  1.00  0.00     0.001 C 
BRANCH  18  19
ATOM     19  C   UNL     1      97.375  81.872  82.601  1.00  0.00     0.000 C 
BRANCH  19  20
ATOM     20  C   UNL     1      96.447  83.018  83.101  1.00  0.00     0.003 C 
BRANCH  20  21
ATOM     21  C   UNL     1      95.697  82.723  84.440  1.00  0.00    -0.017 C 
ATOM     22  C   UNL     1      94.568  81.672  84.224  1.00  0.00     0.007 C 
ATOM     23  C   UNL     1      95.113  84.005  85.101  1.00  0.00     0.007 C 
ENDBRANCH  20  21
ENDBRANCH  19  20
ENDBRANCH  18  19
ENDBRANCH  17  18
ENDBRANCH   1  17
TORSDOF 10
ENDMDL
MODEL 5
REMARK VINA RESULT:    -5.394     13.202     14.733
REMARK INTER + INTRA:          -9.598
REMARK INTER:                  -8.815
REMARK INTRA:                  -0.784
REMARK UNBOUND:                -1.208
REMARK SMILES COc1cc(CNC(=O)CCCCCC(C)C)ccc1O
REMARK SMILES IDX 10 1 8 2 7 3 9 5 6 6 5 7 3 8 20 9 4 10 19 11 18 12 2 13 1 14
REMARK SMILES IDX 21 15 11 17 12 18 13 19 14 20 15 21 16 22 17 23
REMARK H PARENT 7 4 21 16
REMARK Flexibility Score: inf
ROOT
ATOM      1  C   UNL     1      96.980  81.255  77.609  1.00  0.00     0.100 C 
ENDROOT
BRANCH   1   2
ATOM      2  C   UNL     1      97.499  81.650  78.935  1.00  0.00     0.220 C 
ATOM      3  N   UNL     1      96.627  82.053  79.902  1.00  0.00    -0.352 N 
ATOM      4  H   UNL     1      95.675  82.180  79.590  1.00  0.00     0.163 HD
ATOM      5  O   UNL     1      98.731  81.565  79.156  1.00  0.00    -0.275 OA
BRANCH   3   6
ATOM      6  C   UNL     1      96.968  82.294  81.267  1.00  0.00     0.151 C 
BRANCH   6   7
ATOM      7  C   UNL     1      96.422  81.268  82.196  1.00  0.00    -0.025 A 
ATOM      8  C   UNL     1      95.080  80.677  84.170  1.00  0.00     0.160 A 
ATOM      9  C   UNL     1      95.326  79.309  83.925  1.00  0.00     0.157 A 
ATOM     10  C   UNL     1      95.644  81.648  83.315  1.00  0.00     0.056 A 
ATOM     11  C   UNL     1      96.121  78.921  82.831  1.00  0.00     0.050 A 
ATOM     12  C   UNL     1      96.660  79.892  81.969  1.00  0.00     0.009 A 
BRANCH   8  13
ATOM     13  O   UNL     1      94.325  81.076  85.241  1.00  0.00    -0.493 OA
ATOM     14  C   UNL     1      92.941  81.313  84.923  1.00  0.00     0.278 C 
ENDBRANCH   8  13
BRANCH   9  15
ATOM     15  O   UNL     1      94.790  78.368  84.742  1.00  0.00    -0.504 OA
ATOM     16  H   UNL     1      94.714  78.721  85.631  1.00  0.00     0.293 HD
ENDBRANCH   9  15
ENDBRANCH   6   7
ENDBRANCH   3   6
ENDBRANCH   1   2
BRANCH   1  17
ATOM     17  C   UNL     1      95.929  82.233  77.017  1.00  0.00     0.010 C 
BRANCH  17  18
ATOM     18  C   UNL     1      96.571  83.220  76.004  1.00  0.00     0.001 C 
BRANCH  18  19
ATOM     19  C   UNL     1      96.253  82.879  74.525  1.00  0.00     0.000 C 
BRANCH  19  20
ATOM     20  C   UNL     1      97.509  82.385  73.751  1.00  0.00     0.003 C 
BRANCH  20  21
ATOM     21  C   UNL     1      98.831  83.154  74.078  1.00  0.00    -0.017 C 
ATOM     22  C   UNL     1      99.363  83.904  72.822  1.00  0.00     0.007 C 
ATOM     23  C   UNL     1      99.940  82.229  74.658  1.00  0.00     0.007 C 
ENDBRANCH  20  21
ENDBRANCH  19  20
ENDBRANCH  18  19
ENDBRANCH  17  18
ENDBRANCH   1  17
TORSDOF 10
ENDMDL
MODEL 6
REMARK VINA RESULT:    -5.382      2.382      4.490
REMARK INTER + INTRA:          -9.579
REMARK INTER:                  -8.445
REMARK INTRA:                  -1.134
REMARK UNBOUND:                -1.208
REMARK SMILES COc1cc(CNC(=O)CCCCCC(C)C)ccc1O
REMARK SMILES IDX 10 1 8 2 7 3 9 5 6 6 5 7 3 8 20 9 4 10 19 11 18 12 2 13 1 14
REMARK SMILES IDX 21 15 11 17 12 18 13 19 14 20 15 21 16 22 17 23
REMARK H PARENT 7 4 21 16
REMARK Flexibility Score: inf
ROOT
ATOM      1  C   UNL     1      93.078  95.780  75.201  1.00  0.00     0.100 C 
ENDROOT
BRANCH   1   2
ATOM      2  C   UNL     1      92.726  95.070  76.449  1.00  0.00     0.220 C 
ATOM      3  N   UNL     1      93.477  94.005  76.848  1.00  0.00    -0.352 N 
ATOM      4  H   UNL     1      94.160  93.690  76.174  1.00  0.00     0.163 HD
ATOM      5  O   UNL     1      91.765  95.491  77.138  1.00  0.00    -0.275 OA
BRANCH   3   6
ATOM      6  C   UNL     1      93.358  93.342  78.107  1.00  0.00     0.151 C 
BRANCH   6   7
ATOM      7  C   UNL     1      94.438  93.706  79.063  1.00  0.00    -0.025 A 
ATOM      8  C   UNL     1      95.976  95.376  80.008  1.00  0.00     0.160 A 
ATOM      9  C   UNL     1      96.447  94.418  80.930  1.00  0.00     0.157 A 
ATOM     10  C   UNL     1      94.988  95.009  79.069  1.00  0.00     0.056 A 
ATOM     11  C   UNL     1      95.926  93.111  80.916  1.00  0.00     0.050 A 
ATOM     12  C   UNL     1      94.925  92.759  79.994  1.00  0.00     0.009 A 
BRANCH   8  13
ATOM     13  O   UNL     1      96.484  96.648  79.992  1.00  0.00    -0.493 OA
ATOM     14  C   UNL     1      97.389  96.900  78.899  1.00  0.00     0.278 C 
ENDBRANCH   8  13
BRANCH   9  15
ATOM     15  O   UNL     1      97.398  94.759  81.835  1.00  0.00    -0.504 OA
ATOM     16  H   UNL     1      97.278  95.675  82.095  1.00  0.00     0.293 HD
ENDBRANCH   9  15
ENDBRANCH   6   7
ENDBRANCH   3   6
ENDBRANCH   1   2
BRANCH   1  17
ATOM     17  C   UNL     1      94.473  95.411  74.629  1.00  0.00     0.010 C 
BRANCH  17  18
ATOM     18  C   UNL     1      95.572  96.393  75.122  1.00  0.00     0.001 C 
BRANCH  18  19
ATOM     19  C   UNL     1      96.463  96.945  73.978  1.00  0.00     0.000 C 
BRANCH  19  20
ATOM     20  C   UNL     1      95.722  98.008  73.116  1.00  0.00     0.003 C 
BRANCH  20  21
ATOM     21  C   UNL     1      94.731  98.925  73.906  1.00  0.00    -0.017 C 
ATOM     22  C   UNL     1      93.340  98.971  73.207  1.00  0.00     0.007 C 
ATOM     23  C   UNL     1      95.275 100.369  74.109  1.00  0.00     0.007 C 
ENDBRANCH  20  21
ENDBRANCH  19  20
ENDBRANCH  18  19
ENDBRANCH  17  18
ENDBRANCH   1  17
TORSDOF 10
ENDMDL
MODEL 7
REMARK VINA RESULT:    -5.352      4.876      6.565
REMARK INTER + INTRA:          -9.532
REMARK INTER:                  -8.949
REMARK INTRA:                  -0.583
REMARK UNBOUND:                -1.208
REMARK SMILES COc1cc(CNC(=O)CCCCCC(C)C)ccc1O
REMARK SMILES IDX 10 1 8 2 7 3 9 5 6 6 5 7 3 8 20 9 4 10 19 11 18 12 2 13 1 14
REMARK SMILES IDX 21 15 11 17 12 18 13 19 14 20 15 21 16 22 17 23
REMARK H PARENT 7 4 21 16
REMARK Flexibility Score: inf
ROOT
ATOM      1  C   UNL     1      92.948  99.765  72.381  1.00  0.00     0.100 C 
ENDROOT
BRANCH   1   2
ATOM      2  C   UNL     1      93.997  98.789  72.740  1.00  0.00     0.220 C 
ATOM      3  N   UNL     1      93.892  98.093  73.908  1.00  0.00    -0.352 N 
ATOM      4  H   UNL     1      93.149  98.400  74.520  1.00  0.00     0.163 HD
ATOM      5  O   UNL     1      94.944  98.590  71.941  1.00  0.00    -0.275 OA
BRANCH   3   6
ATOM      6  C   UNL     1      94.732  97.005  74.294  1.00  0.00     0.151 C 
BRANCH   6   7
ATOM      7  C   UNL     1      94.123  96.139  75.339  1.00  0.00    -0.025 A 
ATOM      8  C   UNL     1      94.308  94.291  76.951  1.00  0.00     0.160 A 
ATOM      9  C   UNL     1      92.984  94.533  77.376  1.00  0.00     0.157 A 
ATOM     10  C   UNL     1      94.862  95.083  75.923  1.00  0.00     0.056 A 
ATOM     11  C   UNL     1      92.231  95.563  76.784  1.00  0.00     0.050 A 
ATOM     12  C   UNL     1      92.797  96.363  75.777  1.00  0.00     0.009 A 
BRANCH   8  13
ATOM     13  O   UNL     1      95.052  93.281  77.502  1.00  0.00    -0.493 OA
ATOM     14  C   UNL     1      96.155  93.741  78.306  1.00  0.00     0.278 C 
ENDBRANCH   8  13
BRANCH   9  15
ATOM     15  O   UNL     1      92.441  93.776  78.363  1.00  0.00    -0.504 OA
ATOM     16  H   UNL     1      92.758  94.084  79.214  1.00  0.00     0.293 HD
ENDBRANCH   9  15
ENDBRANCH   6   7
ENDBRANCH   3   6
ENDBRANCH   1   2
BRANCH   1  17
ATOM     17  C   UNL     1      92.013  99.303  71.230  1.00  0.00     0.010 C 
BRANCH  17  18
ATOM     18  C   UNL     1      90.728 100.173  71.152  1.00  0.00     0.001 C 
BRANCH  18  19
ATOM     19  C   UNL     1      89.546  99.463  70.440  1.00  0.00     0.000 C 
BRANCH  19  20
ATOM     20  C   UNL     1      89.433  99.871  68.942  1.00  0.00     0.003 C 
BRANCH  20  21
ATOM     21  C   UNL     1      90.107  98.882  67.936  1.00  0.00    -0.017 C 
ATOM     22  C   UNL     1      90.004  99.418  66.477  1.00  0.00     0.007 C 
ATOM     23  C   UNL     1      89.521  97.443  68.018  1.00  0.00     0.007 C 
ENDBRANCH  20  21
ENDBRANCH  19  20
ENDBRANCH  18  19
ENDBRANCH  17  18
ENDBRANCH   1  17
TORSDOF 10
ENDMDL
MODEL 8
REMARK VINA RESULT:    -5.183     22.573     24.863
REMARK INTER + INTRA:          -9.269
REMARK INTER:                  -8.512
REMARK INTRA:                  -0.757
REMARK UNBOUND:                -1.208
REMARK SMILES COc1cc(CNC(=O)CCCCCC(C)C)ccc1O
REMARK SMILES IDX 10 1 8 2 7 3 9 5 6 6 5 7 3 8 20 9 4 10 19 11 18 12 2 13 1 14
REMARK SMILES IDX 21 15 11 17 12 18 13 19 14 20 15 21 16 22 17 23
REMARK H PARENT 7 4 21 16
REMARK Flexibility Score: inf
ROOT
ATOM      1  C   UNL     1      76.543  85.513  68.771  1.00  0.00     0.100 C 
ENDROOT
BRANCH   1   2
ATOM      2  C   UNL     1      75.432  86.445  68.486  1.00  0.00     0.220 C 
ATOM      3  N   UNL     1      75.703  87.759  68.249  1.00  0.00    -0.352 N 
ATOM      4  H   UNL     1      76.661  88.032  68.418  1.00  0.00     0.163 HD
ATOM      5  O   UNL     1      74.261  85.996  68.428  1.00  0.00    -0.275 OA
BRANCH   3   6
ATOM      6  C   UNL     1      74.755  88.725  67.795  1.00  0.00     0.151 C 
BRANCH   6   7
ATOM      7  C   UNL     1      74.281  89.631  68.876  1.00  0.00    -0.025 A 
ATOM      8  C   UNL     1      74.539  91.687  70.201  1.00  0.00     0.160 A 
ATOM      9  C   UNL     1      73.343  91.391  70.888  1.00  0.00     0.157 A 
ATOM     10  C   UNL     1      75.010  90.796  69.213  1.00  0.00     0.056 A 
ATOM     11  C   UNL     1      72.624  90.221  70.580  1.00  0.00     0.050 A 
ATOM     12  C   UNL     1      73.086  89.351  69.578  1.00  0.00     0.009 A 
BRANCH   8  13
ATOM     13  O   UNL     1      75.264  92.810  70.500  1.00  0.00    -0.493 OA
ATOM     14  C   UNL     1      75.235  93.813  69.466  1.00  0.00     0.278 C 
ENDBRANCH   8  13
BRANCH   9  15
ATOM     15  O   UNL     1      72.882  92.239  71.842  1.00  0.00    -0.504 OA
ATOM     16  H   UNL     1      73.388  92.119  72.648  1.00  0.00     0.293 HD
ENDBRANCH   9  15
ENDBRANCH   6   7
ENDBRANCH   3   6
ENDBRANCH   1   2
BRANCH   1  17
ATOM     17  C   UNL     1      77.550  85.346  67.601  1.00  0.00     0.010 C 
BRANCH  17  18
ATOM     18  C   UNL     1      77.459  83.931  66.965  1.00  0.00     0.001 C 
BRANCH  18  19
ATOM     19  C   UNL     1      76.473  83.855  65.770  1.00  0.00     0.000 C 
BRANCH  19  20
ATOM     20  C   UNL     1      75.116  83.204  66.168  1.00  0.00     0.003 C 
BRANCH  20  21
ATOM     21  C   UNL     1      74.841  81.805  65.527  1.00  0.00    -0.017 C 
ATOM     22  C   UNL     1      75.585  81.663  64.166  1.00  0.00     0.007 C 
ATOM     23  C   UNL     1      73.324  81.513  65.340  1.00  0.00     0.007 C 
ENDBRANCH  20  21
ENDBRANCH  19  20
ENDBRANCH  18  19
ENDBRANCH  17  18
ENDBRANCH   1  17
TORSDOF 10
ENDMDL
MODEL 9
REMARK VINA RESULT:    -5.152     23.669     26.463
REMARK INTER + INTRA:          -9.222
REMARK INTER:                  -7.568
REMARK INTRA:                  -1.654
REMARK UNBOUND:                -1.208
REMARK SMILES COc1cc(CNC(=O)CCCCCC(C)C)ccc1O
REMARK SMILES IDX 10 1 8 2 7 3 9 5 6 6 5 7 3 8 20 9 4 10 19 11 18 12 2 13 1 14
REMARK SMILES IDX 21 15 11 17 12 18 13 19 14 20 15 21 16 22 17 23
REMARK H PARENT 7 4 21 16
REMARK Flexibility Score: inf
ROOT
ATOM      1  C   UNL     1      76.176  88.928  65.155  1.00  0.00     0.100 C 
ENDROOT
BRANCH   1   2
ATOM      2  C   UNL     1      75.480  88.030  64.210  1.00  0.00     0.220 C 
ATOM      3  N   UNL     1      75.923  86.750  64.053  1.00  0.00    -0.352 N 
ATOM      4  H   UNL     1      76.800  86.545  64.511  1.00  0.00     0.163 HD
ATOM      5  O   UNL     1      74.466  88.452  63.602  1.00  0.00    -0.275 OA
BRANCH   3   6
ATOM      6  C   UNL     1      75.250  85.732  63.313  1.00  0.00     0.151 C 
BRANCH   6   7
ATOM      7  C   UNL     1      74.948  84.523  64.125  1.00  0.00    -0.025 A 
ATOM      8  C   UNL     1      73.318  83.036  65.212  1.00  0.00     0.160 A 
ATOM      9  C   UNL     1      74.368  82.183  65.614  1.00  0.00     0.157 A 
ATOM     10  C   UNL     1      73.616  84.209  64.486  1.00  0.00     0.056 A 
ATOM     11  C   UNL     1      75.698  82.499  65.283  1.00  0.00     0.050 A 
ATOM     12  C   UNL     1      75.986  83.656  64.539  1.00  0.00     0.009 A 
BRANCH   8  13
ATOM     13  O   UNL     1      72.018  82.757  65.541  1.00  0.00    -0.493 OA
ATOM     14  C   UNL     1      71.246  83.919  65.902  1.00  0.00     0.278 C 
ENDBRANCH   8  13
BRANCH   9  15
ATOM     15  O   UNL     1      74.092  81.054  66.313  1.00  0.00    -0.504 OA
ATOM     16  H   UNL     1      73.724  81.288  67.168  1.00  0.00     0.293 HD
ENDBRANCH   9  15
ENDBRANCH   6   7
ENDBRANCH   3   6
ENDBRANCH   1   2
BRANCH   1  17
ATOM     17  C   UNL     1      75.449  89.110  66.515  1.00  0.00     0.010 C 
BRANCH  17  18
ATOM     18  C   UNL     1      76.325  88.622  67.701  1.00  0.00     0.001 C 
BRANCH  18  19
ATOM     19  C   UNL     1      77.450  87.642  67.275  1.00  0.00     0.000 C 
BRANCH  19  20
ATOM     20  C   UNL     1      76.999  86.155  67.365  1.00  0.00     0.003 C 
BRANCH  20  21
ATOM     21  C   UNL     1      75.915  85.859  68.452  1.00  0.00    -0.017 C 
ATOM     22  C   UNL     1      76.408  84.765  69.445  1.00  0.00     0.007 C 
ATOM     23  C   UNL     1      74.544  85.446  67.842  1.00  0.00     0.007 C 
ENDBRANCH  20  21
ENDBRANCH  19  20
ENDBRANCH  18  19
ENDBRANCH  17  18
ENDBRANCH   1  17
TORSDOF 10
ENDMDL
MODEL 10
REMARK VINA RESULT:    -5.099      4.013      7.016
REMARK INTER + INTRA:          -9.139
REMARK INTER:                  -8.333
REMARK INTRA:                  -0.806
REMARK UNBOUND:                -1.208
REMARK SMILES COc1cc(CNC(=O)CCCCCC(C)C)ccc1O
REMARK SMILES IDX 10 1 8 2 7 3 9 5 6 6 5 7 3 8 20 9 4 10 19 11 18 12 2 13 1 14
REMARK SMILES IDX 21 15 11 17 12 18 13 19 14 20 15 21 16 22 17 23
REMARK H PARENT 7 4 21 16
REMARK Flexibility Score: inf
ROOT
ATOM      1  C   UNL     1      96.948  97.083  81.041  1.00  0.00     0.100 C 
ENDROOT
BRANCH   1   2
ATOM      2  C   UNL     1      96.081  95.896  80.886  1.00  0.00     0.220 C 
ATOM      3  N   UNL     1      96.024  95.261  79.682  1.00  0.00    -0.352 N 
ATOM      4  H   UNL     1      96.493  95.740  78.926  1.00  0.00     0.163 HD
ATOM      5  O   UNL     1      95.445  95.472  81.882  1.00  0.00    -0.275 OA
BRANCH   3   6
ATOM      6  C   UNL     1      95.371  94.015  79.440  1.00  0.00     0.151 C 
BRANCH   6   7
ATOM      7  C   UNL     1      94.165  94.145  78.577  1.00  0.00    -0.025 A 
ATOM      8  C   UNL     1      92.921  95.326  76.815  1.00  0.00     0.160 A 
ATOM      9  C   UNL     1      91.900  94.355  76.888  1.00  0.00     0.157 A 
ATOM     10  C   UNL     1      94.038  95.225  77.673  1.00  0.00     0.056 A 
ATOM     11  C   UNL     1      92.004  93.291  77.803  1.00  0.00     0.050 A 
ATOM     12  C   UNL     1      93.130  93.183  78.637  1.00  0.00     0.009 A 
BRANCH   8  13
ATOM     13  O   UNL     1      92.830  96.381  75.945  1.00  0.00    -0.493 OA
ATOM     14  C   UNL     1      93.706  96.273  74.806  1.00  0.00     0.278 C 
ENDBRANCH   8  13
BRANCH   9  15
ATOM     15  O   UNL     1      90.822  94.443  76.070  1.00  0.00    -0.504 OA
ATOM     16  H   UNL     1      90.025  94.532  76.598  1.00  0.00     0.293 HD
ENDBRANCH   9  15
ENDBRANCH   6   7
ENDBRANCH   3   6
ENDBRANCH   1   2
BRANCH   1  17
ATOM     17  C   UNL     1      97.592  97.580  79.719  1.00  0.00     0.010 C 
BRANCH  17  18
ATOM     18  C   UNL     1      97.468  99.121  79.566  1.00  0.00     0.001 C 
BRANCH  18  19
ATOM     19  C   UNL     1      97.068  99.841  80.881  1.00  0.00     0.000 C 
BRANCH  19  20
ATOM     20  C   UNL     1      97.138 101.390  80.749  1.00  0.00     0.003 C 
BRANCH  20  21
ATOM     21  C   UNL     1      95.779 102.133  80.960  1.00  0.00    -0.017 C 
ATOM     22  C   UNL     1      94.851 101.331  81.919  1.00  0.00     0.007 C 
ATOM     23  C   UNL     1      95.038 102.428  79.623  1.00  0.00     0.007 C 
ENDBRANCH  20  21
ENDBRANCH  19  20
ENDBRANCH  18  19
ENDBRANCH  17  18
ENDBRANCH   1  17
TORSDOF 10
ENDMDL
