MODEL 1
REMARK VINA RESULT:    -7.006      0.000      0.000
REMARK INTER + INTRA:         -13.377
REMARK INTER:                 -12.330
REMARK INTRA:                  -1.047
REMARK UNBOUND:                -1.047
REMARK SMILES C=C(C)[C@]12C[C@@H](C)[C@@]34O[C@](Cc5ccccc5)(O[C@@H]1[C@@H]3C=C(COC(=O)Cc1ccc(O)c(OC)c1)C[C@]1(O)C(=O)C(C)=C[C@@H]41)O2
REMARK SMILES IDX 23 1 22 2 21 3 20 4 9 5 8 6 10 7 6 8 18 9 46 10 19 11 5 12
REMARK SMILES IDX 7 13 4 14 45 15 38 16 44 17 40 18 42 20 41 21 43 22 39 23
REMARK SMILES IDX 11 25 12 26 13 27 17 28 14 29 16 30 15 31 2 32 3 33 1 34
REMARK SMILES IDX 37 35 24 37 25 38 26 39 27 40 28 41 36 42 29 43 33 44 30 45
REMARK SMILES IDX 31 46 34 47 35 48 32 49
REMARK H PARENT 39 24 32 50
REMARK Flexibility Score: 90.00
ROOT
ATOM      1  C   UNL     1      68.443  87.071  71.805  1.00  0.00     0.264 C 
ENDROOT
BRANCH   1   2
ATOM      2  C   UNL     1      67.817  85.797  71.290  1.00  0.00    -0.033 C 
ATOM      3  C   UNL     1      66.600  85.431  71.740  1.00  0.00    -0.015 C 
BRANCH   3   4
ATOM      4  C   UNL     1      65.797  84.175  71.441  1.00  0.00     0.078 C 
ATOM      5  O   UNL     1      64.333  84.696  69.517  1.00  0.00    -0.319 OA
ATOM      6  C   UNL     1      65.446  83.850  69.942  1.00  0.00     0.095 C 
ATOM      7  C   UNL     1      63.267  84.839  70.475  1.00  0.00     0.289 C 
ATOM      8  C   UNL     1      65.004  82.330  69.871  1.00  0.00     0.023 C 
ATOM      9  O   UNL     1      63.749  85.361  71.711  1.00  0.00    -0.320 OA
ATOM     10  O   UNL     1      62.656  83.592  70.795  1.00  0.00    -0.313 OA
ATOM     11  C   UNL     1      64.454  84.214  72.210  1.00  0.00     0.170 C 
ATOM     12  C   UNL     1      64.272  81.887  71.175  1.00  0.00     0.049 C 
ATOM     13  C   UNL     1      64.153  81.946  68.650  1.00  0.00     0.011 C 
ATOM     14  C   UNL     1      63.513  83.047  71.820  1.00  0.00     0.122 C 
BRANCH   6  15
ATOM     15  C   UNL     1      66.619  84.250  69.001  1.00  0.00     0.086 C 
ATOM     16  C   UNL     1      68.037  83.890  69.491  1.00  0.00     0.140 CG0
ATOM     17  C   UNL     1      66.612  83.779  67.574  1.00  0.00    -0.010 C 
ATOM     18  C   UNL     1      68.758  83.572  68.198  1.00  0.00     0.190 C 
ATOM     19  G   UNL     1      68.691  85.038  70.259  1.00  0.00     0.000 G0
ATOM     20  C   UNL     1      67.803  83.417  67.085  1.00  0.00    -0.008 C 
ATOM     21  O   UNL     1      69.963  83.410  68.080  1.00  0.00    -0.291 OA
ATOM     22  C   UNL     1      68.182  82.989  65.722  1.00  0.00     0.048 C 
BRANCH  16  23
ATOM     23  O   UNL     1      68.100  82.676  70.221  1.00  0.00    -0.381 OA
ATOM     24  H   UNL     1      67.983  81.938  69.601  1.00  0.00     0.212 HD
ENDBRANCH  16  23
ENDBRANCH   6  15
BRANCH   7  25
ATOM     25  C   UNL     1      62.228  85.777  69.894  1.00  0.00     0.135 C 
BRANCH  25  26
ATOM     26  C   UNL     1      60.856  85.525  70.467  1.00  0.00    -0.040 A 
ATOM     27  C   UNL     1      59.987  84.637  69.833  1.00  0.00     0.004 A 
ATOM     28  C   UNL     1      60.456  86.179  71.632  1.00  0.00     0.004 A 
ATOM     29  C   UNL     1      58.717  84.404  70.363  1.00  0.00     0.000 A 
ATOM     30  C   UNL     1      59.187  85.946  72.163  1.00  0.00     0.000 A 
ATOM     31  C   UNL     1      58.318  85.059  71.528  1.00  0.00     0.000 A 
ENDBRANCH  25  26
ENDBRANCH   7  25
BRANCH  14  32
ATOM     32  C   UNL     1      62.658  82.609  72.964  1.00  0.00    -0.046 C 
ATOM     33  C   UNL     1      63.280  81.635  73.921  1.00  0.00     0.042 C 
ATOM     34  C   UNL     1      61.405  83.059  73.127  1.00  0.00     0.010 C 
ENDBRANCH  14  32
ENDBRANCH   3   4
BRANCH   2  35
ATOM     35  C   UNL     1      68.687  85.072  70.280  1.00  0.00     0.078 CG0
ATOM     36  G   UNL     1      68.047  83.922  69.504  1.00  0.00     0.000 G0
ENDBRANCH   2  35
ENDBRANCH   1   2
BRANCH   1  37
ATOM     37  O   UNL     1      68.847  87.868  70.712  1.00  0.00    -0.461 OA
BRANCH  37  38
ATOM     38  C   UNL     1      69.879  88.747  70.948  1.00  0.00     0.310 C 
ATOM     39  O   UNL     1      69.919  89.904  70.556  1.00  0.00    -0.252 OA
BRANCH  38  40
ATOM     40  C   UNL     1      70.949  88.061  71.764  1.00  0.00     0.158 C 
BRANCH  40  41
ATOM     41  C   UNL     1      72.340  88.531  71.424  1.00  0.00    -0.033 A 
ATOM     42  C   UNL     1      73.143  87.772  70.571  1.00  0.00     0.054 A 
ATOM     43  C   UNL     1      72.824  89.724  71.959  1.00  0.00     0.008 A 
ATOM     44  C   UNL     1      74.431  88.207  70.256  1.00  0.00     0.160 A 
ATOM     45  C   UNL     1      74.111  90.159  71.644  1.00  0.00     0.050 A 
ATOM     46  C   UNL     1      74.915  89.401  70.793  1.00  0.00     0.157 A 
BRANCH  44  47
ATOM     47  O   UNL     1      75.206  87.457  69.423  1.00  0.00    -0.493 OA
ATOM     48  C   UNL     1      76.111  86.539  70.033  1.00  0.00     0.278 C 
ENDBRANCH  44  47
BRANCH  46  49
ATOM     49  O   UNL     1      76.169  89.836  70.491  1.00  0.00    -0.504 OA
ATOM     50  H   UNL     1      76.267  90.755  70.793  1.00  0.00     0.293 HD
ENDBRANCH  46  49
ENDBRANCH  40  41
ENDBRANCH  38  40
ENDBRANCH  37  38
ENDBRANCH   1  37
TORSDOF 11
ENDMDL
MODEL 2
REMARK VINA RESULT:    -6.699      3.413      5.405
REMARK INTER + INTRA:         -12.837
REMARK INTER:                 -11.786
REMARK INTRA:                  -1.051
REMARK UNBOUND:                -1.047
REMARK SMILES C=C(C)[C@]12C[C@@H](C)[C@@]34O[C@](Cc5ccccc5)(O[C@@H]1[C@@H]3C=C(COC(=O)Cc1ccc(O)c(OC)c1)C[C@]1(O)C(=O)C(C)=C[C@@H]41)O2
REMARK SMILES IDX 23 1 22 2 21 3 20 4 9 5 8 6 10 7 6 8 18 9 46 10 19 11 5 12
REMARK SMILES IDX 7 13 4 14 45 15 38 16 44 17 40 18 42 20 41 21 43 22 39 23
REMARK SMILES IDX 11 25 12 26 13 27 17 28 14 29 16 30 15 31 2 32 3 33 1 34
REMARK SMILES IDX 37 35 24 37 25 38 26 39 27 40 28 41 36 42 29 43 33 44 30 45
REMARK SMILES IDX 31 46 34 47 35 48 32 49
REMARK H PARENT 39 24 32 50
REMARK Flexibility Score: 90.00
ROOT
ATOM      1  C   UNL     1      68.047  85.465  70.231  1.00  0.00     0.264 C 
ENDROOT
BRANCH   1   2
ATOM      2  C   UNL     1      66.904  84.636  70.769  1.00  0.00    -0.033 C 
ATOM      3  C   UNL     1      66.488  84.830  72.036  1.00  0.00    -0.015 C 
BRANCH   3   4
ATOM      4  C   UNL     1      65.426  84.084  72.828  1.00  0.00     0.078 C 
ATOM      5  O   UNL     1      63.299  85.307  72.509  1.00  0.00    -0.319 OA
ATOM      6  C   UNL     1      63.962  84.031  72.251  1.00  0.00     0.095 C 
ATOM      7  C   UNL     1      63.520  85.862  73.820  1.00  0.00     0.289 C 
ATOM      8  C   UNL     1      63.189  82.876  73.012  1.00  0.00     0.023 C 
ATOM      9  O   UNL     1      64.909  86.046  74.076  1.00  0.00    -0.320 OA
ATOM     10  O   UNL     1      63.047  85.006  74.857  1.00  0.00    -0.313 OA
ATOM     11  C   UNL     1      65.317  84.681  74.253  1.00  0.00     0.170 C 
ATOM     12  C   UNL     1      63.673  82.740  74.488  1.00  0.00     0.049 C 
ATOM     13  C   UNL     1      61.655  82.979  72.984  1.00  0.00     0.011 C 
ATOM     14  C   UNL     1      64.136  84.081  75.057  1.00  0.00     0.122 C 
BRANCH   6  15
ATOM     15  C   UNL     1      63.984  83.912  70.700  1.00  0.00     0.086 C 
ATOM     16  C   UNL     1      65.021  82.934  70.107  1.00  0.00     0.140 CG0
ATOM     17  C   UNL     1      62.718  83.563  69.970  1.00  0.00    -0.010 C 
ATOM     18  C   UNL     1      64.300  82.392  68.892  1.00  0.00     0.190 C 
ATOM     19  G   UNL     1      66.332  83.631  69.748  1.00  0.00     0.000 G0
ATOM     20  C   UNL     1      62.865  82.732  68.932  1.00  0.00    -0.008 C 
ATOM     21  O   UNL     1      64.808  81.716  68.010  1.00  0.00    -0.291 OA
ATOM     22  C   UNL     1      61.871  82.247  67.953  1.00  0.00     0.048 C 
BRANCH  16  23
ATOM     23  O   UNL     1      65.248  81.785  70.907  1.00  0.00    -0.381 OA
ATOM     24  H   UNL     1      64.498  81.178  70.792  1.00  0.00     0.212 HD
ENDBRANCH  16  23
ENDBRANCH   6  15
BRANCH   7  25
ATOM     25  C   UNL     1      62.803  87.195  73.899  1.00  0.00     0.135 C 
BRANCH  25  26
ATOM     26  C   UNL     1      61.434  87.139  73.267  1.00  0.00    -0.040 A 
ATOM     27  C   UNL     1      61.124  87.984  72.200  1.00  0.00     0.004 A 
ATOM     28  C   UNL     1      60.480  86.243  73.747  1.00  0.00     0.004 A 
ATOM     29  C   UNL     1      59.858  87.932  71.616  1.00  0.00     0.000 A 
ATOM     30  C   UNL     1      59.214  86.192  73.162  1.00  0.00     0.000 A 
ATOM     31  C   UNL     1      58.904  87.037  72.096  1.00  0.00     0.000 A 
ENDBRANCH  25  26
ENDBRANCH   7  25
BRANCH  14  32
ATOM     32  C   UNL     1      64.432  84.013  76.520  1.00  0.00    -0.046 C 
ATOM     33  C   UNL     1      65.881  84.030  76.905  1.00  0.00     0.042 C 
ATOM     34  C   UNL     1      63.456  83.940  77.438  1.00  0.00     0.010 C 
ENDBRANCH  14  32
ENDBRANCH   3   4
BRANCH   2  35
ATOM     35  C   UNL     1      66.351  83.656  69.752  1.00  0.00     0.078 CG0
ATOM     36  G   UNL     1      65.036  82.958  70.097  1.00  0.00     0.000 G0
ENDBRANCH   2  35
ENDBRANCH   1   2
BRANCH   1  37
ATOM     37  O   UNL     1      68.390  85.007  68.941  1.00  0.00    -0.461 OA
BRANCH  37  38
ATOM     38  C   UNL     1      69.683  84.569  68.774  1.00  0.00     0.310 C 
ATOM     39  O   UNL     1      70.683  85.258  68.925  1.00  0.00    -0.252 OA
BRANCH  38  40
ATOM     40  C   UNL     1      69.675  83.112  68.376  1.00  0.00     0.158 C 
BRANCH  40  41
ATOM     41  C   UNL     1      70.140  82.886  66.961  1.00  0.00    -0.033 A 
ATOM     42  C   UNL     1      69.398  83.394  65.894  1.00  0.00     0.054 A 
ATOM     43  C   UNL     1      71.311  82.170  66.717  1.00  0.00     0.008 A 
ATOM     44  C   UNL     1      69.828  83.185  64.583  1.00  0.00     0.160 A 
ATOM     45  C   UNL     1      71.742  81.961  65.407  1.00  0.00     0.050 A 
ATOM     46  C   UNL     1      71.000  82.468  64.340  1.00  0.00     0.157 A 
BRANCH  44  47
ATOM     47  O   UNL     1      69.095  83.685  63.550  1.00  0.00    -0.493 OA
ATOM     48  C   UNL     1      67.677  83.697  63.707  1.00  0.00     0.278 C 
ENDBRANCH  44  47
BRANCH  46  49
ATOM     49  O   UNL     1      71.431  82.258  63.065  1.00  0.00    -0.504 OA
ATOM     50  H   UNL     1      70.791  82.650  62.446  1.00  0.00     0.293 HD
ENDBRANCH  46  49
ENDBRANCH  40  41
ENDBRANCH  38  40
ENDBRANCH  37  38
ENDBRANCH   1  37
TORSDOF 11
ENDMDL
MODEL 3
REMARK VINA RESULT:    -6.577      3.970      8.834
REMARK INTER + INTRA:         -12.622
REMARK INTER:                 -10.718
REMARK INTRA:                  -1.905
REMARK UNBOUND:                -1.047
REMARK SMILES C=C(C)[C@]12C[C@@H](C)[C@@]34O[C@](Cc5ccccc5)(O[C@@H]1[C@@H]3C=C(COC(=O)Cc1ccc(O)c(OC)c1)C[C@]1(O)C(=O)C(C)=C[C@@H]41)O2
REMARK SMILES IDX 23 1 22 2 21 3 20 4 9 5 8 6 10 7 6 8 18 9 46 10 19 11 5 12
REMARK SMILES IDX 7 13 4 14 45 15 38 16 44 17 40 18 42 20 41 21 43 22 39 23
REMARK SMILES IDX 11 25 12 26 13 27 17 28 14 29 16 30 15 31 2 32 3 33 1 34
REMARK SMILES IDX 37 35 24 37 25 38 26 39 27 40 28 41 36 42 29 43 33 44 30 45
REMARK SMILES IDX 31 46 34 47 35 48 32 49
REMARK H PARENT 39 24 32 50
REMARK Flexibility Score: 90.00
ROOT
ATOM      1  C   UNL     1      72.142  83.382  65.938  1.00  0.00     0.264 C 
ENDROOT
BRANCH   1   2
ATOM      2  C   UNL     1      71.938  84.122  67.239  1.00  0.00    -0.033 C 
ATOM      3  C   UNL     1      72.707  85.194  67.516  1.00  0.00    -0.015 C 
BRANCH   3   4
ATOM      4  C   UNL     1      72.752  86.052  68.770  1.00  0.00     0.078 C 
ATOM      5  O   UNL     1      71.187  87.933  68.413  1.00  0.00    -0.319 OA
ATOM      6  C   UNL     1      71.426  86.756  69.244  1.00  0.00     0.095 C 
ATOM      7  C   UNL     1      72.349  88.737  68.133  1.00  0.00     0.289 C 
ATOM      8  C   UNL     1      71.634  87.209  70.748  1.00  0.00     0.023 C 
ATOM      9  O   UNL     1      73.367  87.969  67.497  1.00  0.00    -0.320 OA
ATOM     10  O   UNL     1      72.944  89.259  69.318  1.00  0.00    -0.313 OA
ATOM     11  C   UNL     1      73.810  87.170  68.605  1.00  0.00     0.170 C 
ATOM     12  C   UNL     1      73.117  87.609  71.024  1.00  0.00     0.049 C 
ATOM     13  C   UNL     1      70.703  88.332  71.234  1.00  0.00     0.011 C 
ATOM     14  C   UNL     1      73.789  88.184  69.777  1.00  0.00     0.122 C 
BRANCH   6  15
ATOM     15  C   UNL     1      70.193  85.841  68.986  1.00  0.00     0.086 C 
ATOM     16  C   UNL     1      70.371  84.348  69.330  1.00  0.00     0.140 CG0
ATOM     17  C   UNL     1      68.873  86.190  69.614  1.00  0.00    -0.010 C 
ATOM     18  C   UNL     1      68.989  83.958  69.812  1.00  0.00     0.190 C 
ATOM     19  G   UNL     1      70.823  83.527  68.123  1.00  0.00     0.000 G0
ATOM     20  C   UNL     1      68.160  85.152  70.063  1.00  0.00    -0.008 C 
ATOM     21  O   UNL     1      68.608  82.816  70.020  1.00  0.00    -0.291 OA
ATOM     22  C   UNL     1      66.806  85.111  70.652  1.00  0.00     0.048 C 
BRANCH  16  23
ATOM     23  O   UNL     1      71.200  84.113  70.456  1.00  0.00    -0.381 OA
ATOM     24  H   UNL     1      70.679  83.647  71.130  1.00  0.00     0.212 HD
ENDBRANCH  16  23
ENDBRANCH   6  15
BRANCH   7  25
ATOM     25  C   UNL     1      71.930  89.880  67.231  1.00  0.00     0.135 C 
BRANCH  25  26
ATOM     26  C   UNL     1      70.782  90.668  67.812  1.00  0.00    -0.040 A 
ATOM     27  C   UNL     1      69.554  90.699  67.151  1.00  0.00     0.004 A 
ATOM     28  C   UNL     1      70.948  91.363  69.009  1.00  0.00     0.004 A 
ATOM     29  C   UNL     1      68.491  91.427  67.688  1.00  0.00     0.000 A 
ATOM     30  C   UNL     1      69.886  92.091  69.546  1.00  0.00     0.000 A 
ATOM     31  C   UNL     1      68.658  92.123  68.885  1.00  0.00     0.000 A 
ENDBRANCH  25  26
ENDBRANCH   7  25
BRANCH  14  32
ATOM     32  C   UNL     1      75.146  88.741  70.061  1.00  0.00    -0.046 C 
ATOM     33  C   UNL     1      76.309  87.957  69.529  1.00  0.00     0.042 C 
ATOM     34  C   UNL     1      75.315  89.877  70.753  1.00  0.00     0.010 C 
ENDBRANCH  14  32
ENDBRANCH   3   4
BRANCH   2  35
ATOM     35  C   UNL     1      70.833  83.530  68.093  1.00  0.00     0.078 CG0
ATOM     36  G   UNL     1      70.377  84.339  69.306  1.00  0.00     0.000 G0
ENDBRANCH   2  35
ENDBRANCH   1   2
BRANCH   1  37
ATOM     37  O   UNL     1      73.119  82.379  66.120  1.00  0.00    -0.461 OA
BRANCH  37  38
ATOM     38  C   UNL     1      74.220  82.446  65.298  1.00  0.00     0.310 C 
ATOM     39  O   UNL     1      74.238  82.960  64.188  1.00  0.00    -0.252 OA
BRANCH  38  40
ATOM     40  C   UNL     1      75.397  81.788  65.977  1.00  0.00     0.158 C 
BRANCH  40  41
ATOM     41  C   UNL     1      76.254  82.762  66.744  1.00  0.00    -0.033 A 
ATOM     42  C   UNL     1      75.796  83.294  67.950  1.00  0.00     0.054 A 
ATOM     43  C   UNL     1      77.504  83.132  66.248  1.00  0.00     0.008 A 
ATOM     44  C   UNL     1      76.589  84.197  68.659  1.00  0.00     0.160 A 
ATOM     45  C   UNL     1      78.296  84.035  66.958  1.00  0.00     0.050 A 
ATOM     46  C   UNL     1      77.840  84.567  68.163  1.00  0.00     0.157 A 
BRANCH  44  47
ATOM     47  O   UNL     1      76.131  84.709  69.835  1.00  0.00    -0.493 OA
ATOM     48  C   UNL     1      76.480  84.008  71.028  1.00  0.00     0.278 C 
ENDBRANCH  44  47
BRANCH  46  49
ATOM     49  O   UNL     1      78.623  85.446  68.847  1.00  0.00    -0.504 OA
ATOM     50  H   UNL     1      79.499  85.048  68.986  1.00  0.00     0.293 HD
ENDBRANCH  46  49
ENDBRANCH  40  41
ENDBRANCH  38  40
ENDBRANCH  37  38
ENDBRANCH   1  37
TORSDOF 11
ENDMDL
MODEL 4
REMARK VINA RESULT:    -6.162      5.122      8.685
REMARK INTER + INTRA:         -11.892
REMARK INTER:                 -10.111
REMARK INTRA:                  -1.781
REMARK UNBOUND:                -1.047
REMARK SMILES C=C(C)[C@]12C[C@@H](C)[C@@]34O[C@](Cc5ccccc5)(O[C@@H]1[C@@H]3C=C(COC(=O)Cc1ccc(O)c(OC)c1)C[C@]1(O)C(=O)C(C)=C[C@@H]41)O2
REMARK SMILES IDX 23 1 22 2 21 3 20 4 9 5 8 6 10 7 6 8 18 9 46 10 19 11 5 12
REMARK SMILES IDX 7 13 4 14 45 15 38 16 44 17 40 18 42 20 41 21 43 22 39 23
REMARK SMILES IDX 11 25 12 26 13 27 17 28 14 29 16 30 15 31 2 32 3 33 1 34
REMARK SMILES IDX 37 35 24 37 25 38 26 39 27 40 28 41 36 42 29 43 33 44 30 45
REMARK SMILES IDX 31 46 34 47 35 48 32 49
REMARK H PARENT 39 24 32 50
REMARK Flexibility Score: 90.00
ROOT
ATOM      1  C   UNL     1      62.758  89.023  74.673  1.00  0.00     0.264 C 
ENDROOT
BRANCH   1   2
ATOM      2  C   UNL     1      62.762  88.040  73.526  1.00  0.00    -0.033 C 
ATOM      3  C   UNL     1      63.786  87.171  73.406  1.00  0.00    -0.015 C 
BRANCH   3   4
ATOM      4  C   UNL     1      64.061  86.149  72.315  1.00  0.00     0.078 C 
ATOM      5  O   UNL     1      63.063  84.012  73.061  1.00  0.00    -0.319 OA
ATOM      6  C   UNL     1      62.975  85.045  72.032  1.00  0.00     0.095 C 
ATOM      7  C   UNL     1      64.399  83.609  73.418  1.00  0.00     0.289 C 
ATOM      8  C   UNL     1      63.299  84.405  70.618  1.00  0.00     0.023 C 
ATOM      9  O   UNL     1      65.172  84.721  73.865  1.00  0.00    -0.320 OA
ATOM     10  O   UNL     1      65.114  83.064  72.312  1.00  0.00    -0.313 OA
ATOM     11  C   UNL     1      65.383  85.400  72.617  1.00  0.00     0.170 C 
ATOM     12  C   UNL     1      64.834  84.373  70.344  1.00  0.00     0.049 C 
ATOM     13  C   UNL     1      62.707  83.008  70.375  1.00  0.00     0.011 C 
ATOM     14  C   UNL     1      65.637  84.227  71.638  1.00  0.00     0.122 C 
BRANCH   6  15
ATOM     15  C   UNL     1      61.541  85.628  72.188  1.00  0.00     0.086 C 
ATOM     16  C   UNL     1      61.304  87.023  71.573  1.00  0.00     0.140 CG0
ATOM     17  C   UNL     1      60.364  84.829  71.706  1.00  0.00    -0.010 C 
ATOM     18  C   UNL     1      59.866  86.933  71.106  1.00  0.00     0.190 C 
ATOM     19  G   UNL     1      61.520  88.146  72.588  1.00  0.00     0.000 G0
ATOM     20  C   UNL     1      59.393  85.536  71.118  1.00  0.00    -0.008 C 
ATOM     21  O   UNL     1      59.188  87.872  70.718  1.00  0.00    -0.291 OA
ATOM     22  C   UNL     1      58.077  85.103  70.607  1.00  0.00     0.048 C 
BRANCH  16  23
ATOM     23  O   UNL     1      62.034  87.256  70.380  1.00  0.00    -0.381 OA
ATOM     24  H   UNL     1      62.381  86.407  70.062  1.00  0.00     0.212 HD
ENDBRANCH  16  23
ENDBRANCH   6  15
BRANCH   7  25
ATOM     25  C   UNL     1      64.306  82.574  74.520  1.00  0.00     0.135 C 
BRANCH  25  26
ATOM     26  C   UNL     1      64.065  83.205  75.869  1.00  0.00    -0.040 A 
ATOM     27  C   UNL     1      65.121  83.354  76.768  1.00  0.00     0.004 A 
ATOM     28  C   UNL     1      62.786  83.639  76.218  1.00  0.00     0.004 A 
ATOM     29  C   UNL     1      64.899  83.938  78.016  1.00  0.00     0.000 A 
ATOM     30  C   UNL     1      62.564  84.223  77.465  1.00  0.00     0.000 A 
ATOM     31  C   UNL     1      63.620  84.371  78.364  1.00  0.00     0.000 A 
ENDBRANCH  25  26
ENDBRANCH   7  25
BRANCH  14  32
ATOM     32  C   UNL     1      67.094  84.011  71.388  1.00  0.00    -0.046 C 
ATOM     33  C   UNL     1      67.443  82.991  70.345  1.00  0.00     0.042 C 
ATOM     34  C   UNL     1      68.037  84.690  72.058  1.00  0.00     0.010 C 
ENDBRANCH  14  32
ENDBRANCH   3   4
BRANCH   2  35
ATOM     35  C   UNL     1      61.548  88.171  72.626  1.00  0.00     0.078 CG0
ATOM     36  G   UNL     1      61.306  87.053  71.612  1.00  0.00     0.000 G0
ENDBRANCH   2  35
ENDBRANCH   1   2
BRANCH   1  37
ATOM     37  O   UNL     1      63.890  88.797  75.485  1.00  0.00    -0.461 OA
BRANCH  37  38
ATOM     38  C   UNL     1      63.767  89.146  76.810  1.00  0.00     0.310 C 
ATOM     39  O   UNL     1      64.275  90.132  77.327  1.00  0.00    -0.252 OA
BRANCH  38  40
ATOM     40  C   UNL     1      62.912  88.125  77.524  1.00  0.00     0.158 C 
BRANCH  40  41
ATOM     41  C   UNL     1      63.435  87.774  78.893  1.00  0.00    -0.033 A 
ATOM     42  C   UNL     1      64.800  87.550  79.081  1.00  0.00     0.054 A 
ATOM     43  C   UNL     1      62.557  87.673  79.971  1.00  0.00     0.008 A 
ATOM     44  C   UNL     1      65.284  87.224  80.349  1.00  0.00     0.160 A 
ATOM     45  C   UNL     1      63.041  87.348  81.238  1.00  0.00     0.050 A 
ATOM     46  C   UNL     1      64.404  87.123  81.427  1.00  0.00     0.157 A 
BRANCH  44  47
ATOM     47  O   UNL     1      66.618  87.007  80.520  1.00  0.00    -0.493 OA
ATOM     48  C   UNL     1      67.063  85.652  80.494  1.00  0.00     0.278 C 
ENDBRANCH  44  47
BRANCH  46  49
ATOM     49  O   UNL     1      64.866  86.807  82.669  1.00  0.00    -0.504 OA
ATOM     50  H   UNL     1      65.097  85.863  82.690  1.00  0.00     0.293 HD
ENDBRANCH  46  49
ENDBRANCH  40  41
ENDBRANCH  38  40
ENDBRANCH  37  38
ENDBRANCH   1  37
TORSDOF 11
ENDMDL
MODEL 5
REMARK VINA RESULT:    -5.958      3.168      4.715
REMARK INTER + INTRA:         -11.533
REMARK INTER:                  -9.804
REMARK INTRA:                  -1.729
REMARK UNBOUND:                -1.047
REMARK SMILES C=C(C)[C@]12C[C@@H](C)[C@@]34O[C@](Cc5ccccc5)(O[C@@H]1[C@@H]3C=C(COC(=O)Cc1ccc(O)c(OC)c1)C[C@]1(O)C(=O)C(C)=C[C@@H]41)O2
REMARK SMILES IDX 23 1 22 2 21 3 20 4 9 5 8 6 10 7 6 8 18 9 46 10 19 11 5 12
REMARK SMILES IDX 7 13 4 14 45 15 38 16 44 17 40 18 42 20 41 21 43 22 39 23
REMARK SMILES IDX 11 25 12 26 13 27 17 28 14 29 16 30 15 31 2 32 3 33 1 34
REMARK SMILES IDX 37 35 24 37 25 38 26 39 27 40 28 41 36 42 29 43 33 44 30 45
REMARK SMILES IDX 31 46 34 47 35 48 32 49
REMARK H PARENT 39 24 32 50
REMARK Flexibility Score: 90.00
ROOT
ATOM      1  C   UNL     1      66.870  88.351  72.218  1.00  0.00     0.264 C 
ENDROOT
BRANCH   1   2
ATOM      2  C   UNL     1      66.755  86.855  72.043  1.00  0.00    -0.033 C 
ATOM      3  C   UNL     1      65.562  86.258  72.235  1.00  0.00    -0.015 C 
BRANCH   3   4
ATOM      4  C   UNL     1      65.204  84.781  72.198  1.00  0.00     0.078 C 
ATOM      5  O   UNL     1      64.463  84.278  69.892  1.00  0.00    -0.319 OA
ATOM      6  C   UNL     1      65.497  83.973  70.878  1.00  0.00     0.095 C 
ATOM      7  C   UNL     1      63.118  84.327  70.404  1.00  0.00     0.289 C 
ATOM      8  C   UNL     1      65.440  82.431  71.237  1.00  0.00     0.023 C 
ATOM      9  O   UNL     1      62.998  85.284  71.453  1.00  0.00    -0.320 OA
ATOM     10  O   UNL     1      62.708  83.084  70.968  1.00  0.00    -0.313 OA
ATOM     11  C   UNL     1      63.697  84.597  72.502  1.00  0.00     0.170 C 
ATOM     12  C   UNL     1      64.394  82.144  72.359  1.00  0.00     0.049 C 
ATOM     13  C   UNL     1      65.189  81.486  70.051  1.00  0.00     0.011 C 
ATOM     14  C   UNL     1      63.229  83.132  72.313  1.00  0.00     0.122 C 
BRANCH   6  15
ATOM     15  C   UNL     1      66.820  84.457  70.217  1.00  0.00     0.086 C 
ATOM     16  C   UNL     1      68.002  84.717  71.173  1.00  0.00     0.140 CG0
ATOM     17  C   UNL     1      67.434  83.640  69.115  1.00  0.00    -0.010 C 
ATOM     18  C   UNL     1      69.195  84.309  70.334  1.00  0.00     0.190 C 
ATOM     19  G   UNL     1      68.073  86.176  71.620  1.00  0.00     0.000 G0
ATOM     20  C   UNL     1      68.768  83.561  69.137  1.00  0.00    -0.008 C 
ATOM     21  O   UNL     1      70.365  84.516  70.618  1.00  0.00    -0.291 OA
ATOM     22  C   UNL     1      69.699  82.924  68.182  1.00  0.00     0.048 C 
BRANCH  16  23
ATOM     23  O   UNL     1      68.050  83.833  72.281  1.00  0.00    -0.381 OA
ATOM     24  H   UNL     1      67.813  82.942  71.973  1.00  0.00     0.212 HD
ENDBRANCH  16  23
ENDBRANCH   6  15
BRANCH   7  25
ATOM     25  C   UNL     1      62.189  84.696  69.265  1.00  0.00     0.135 C 
BRANCH  25  26
ATOM     26  C   UNL     1      60.873  85.241  69.763  1.00  0.00    -0.040 A 
ATOM     27  C   UNL     1      59.827  84.369  70.065  1.00  0.00     0.004 A 
ATOM     28  C   UNL     1      60.703  86.616  69.923  1.00  0.00     0.004 A 
ATOM     29  C   UNL     1      58.610  84.872  70.526  1.00  0.00     0.000 A 
ATOM     30  C   UNL     1      59.486  87.119  70.384  1.00  0.00     0.000 A 
ATOM     31  C   UNL     1      58.440  86.247  70.685  1.00  0.00     0.000 A 
ENDBRANCH  25  26
ENDBRANCH   7  25
BRANCH  14  32
ATOM     32  C   UNL     1      62.129  82.768  73.256  1.00  0.00    -0.046 C 
ATOM     33  C   UNL     1      62.118  81.350  73.744  1.00  0.00     0.042 C 
ATOM     34  C   UNL     1      61.204  83.659  73.645  1.00  0.00     0.010 C 
ENDBRANCH  14  32
ENDBRANCH   3   4
BRANCH   2  35
ATOM     35  C   UNL     1      68.066  86.200  71.648  1.00  0.00     0.078 CG0
ATOM     36  G   UNL     1      68.007  84.748  71.175  1.00  0.00     0.000 G0
ENDBRANCH   2  35
ENDBRANCH   1   2
BRANCH   1  37
ATOM     37  O   UNL     1      67.526  88.903  71.097  1.00  0.00    -0.461 OA
BRANCH  37  38
ATOM     38  C   UNL     1      66.784  88.996  69.943  1.00  0.00     0.310 C 
ATOM     39  O   UNL     1      65.651  89.451  69.870  1.00  0.00    -0.252 OA
BRANCH  38  40
ATOM     40  C   UNL     1      67.584  88.449  68.783  1.00  0.00     0.158 C 
BRANCH  40  41
ATOM     41  C   UNL     1      66.858  88.554  67.467  1.00  0.00    -0.033 A 
ATOM     42  C   UNL     1      66.204  87.439  66.941  1.00  0.00     0.054 A 
ATOM     43  C   UNL     1      66.839  89.765  66.775  1.00  0.00     0.008 A 
ATOM     44  C   UNL     1      65.532  87.536  65.722  1.00  0.00     0.160 A 
ATOM     45  C   UNL     1      66.168  89.861  65.556  1.00  0.00     0.050 A 
ATOM     46  C   UNL     1      65.514  88.748  65.030  1.00  0.00     0.157 A 
BRANCH  44  47
ATOM     47  O   UNL     1      64.897  86.441  65.218  1.00  0.00    -0.493 OA
ATOM     48  C   UNL     1      65.301  85.169  65.722  1.00  0.00     0.278 C 
ENDBRANCH  44  47
BRANCH  46  49
ATOM     49  O   UNL     1      64.860  88.855  63.840  1.00  0.00    -0.504 OA
ATOM     50  H   UNL     1      64.708  89.795  63.645  1.00  0.00     0.293 HD
ENDBRANCH  46  49
ENDBRANCH  40  41
ENDBRANCH  38  40
ENDBRANCH  37  38
ENDBRANCH   1  37
TORSDOF 11
ENDMDL
MODEL 6
REMARK VINA RESULT:    -5.903      6.424     11.048
REMARK INTER + INTRA:         -11.436
REMARK INTER:                  -8.657
REMARK INTRA:                  -2.780
REMARK UNBOUND:                -1.047
REMARK SMILES C=C(C)[C@]12C[C@@H](C)[C@@]34O[C@](Cc5ccccc5)(O[C@@H]1[C@@H]3C=C(COC(=O)Cc1ccc(O)c(OC)c1)C[C@]1(O)C(=O)C(C)=C[C@@H]41)O2
REMARK SMILES IDX 23 1 22 2 21 3 20 4 9 5 8 6 10 7 6 8 18 9 46 10 19 11 5 12
REMARK SMILES IDX 7 13 4 14 45 15 38 16 44 17 40 18 42 20 41 21 43 22 39 23
REMARK SMILES IDX 11 25 12 26 13 27 17 28 14 29 16 30 15 31 2 32 3 33 1 34
REMARK SMILES IDX 37 35 24 37 25 38 26 39 27 40 28 41 36 42 29 43 33 44 30 45
REMARK SMILES IDX 31 46 34 47 35 48 32 49
REMARK H PARENT 39 24 32 50
REMARK Flexibility Score: 90.00
ROOT
ATOM      1  C   UNL     1      75.009  92.149  72.710  1.00  0.00     0.264 C 
ENDROOT
BRANCH   1   2
ATOM      2  C   UNL     1      74.138  91.369  71.753  1.00  0.00    -0.033 C 
ATOM      3  C   UNL     1      74.718  90.654  70.767  1.00  0.00    -0.015 C 
BRANCH   3   4
ATOM      4  C   UNL     1      74.072  89.858  69.645  1.00  0.00     0.078 C 
ATOM      5  O   UNL     1      73.845  87.530  70.452  1.00  0.00    -0.319 OA
ATOM      6  C   UNL     1      73.078  88.698  70.026  1.00  0.00     0.095 C 
ATOM      7  C   UNL     1      75.004  87.229  69.652  1.00  0.00     0.289 C 
ATOM      8  C   UNL     1      72.246  88.333  68.727  1.00  0.00     0.023 C 
ATOM      9  O   UNL     1      75.903  88.334  69.608  1.00  0.00    -0.320 OA
ATOM     10  O   UNL     1      74.667  86.951  68.295  1.00  0.00    -0.313 OA
ATOM     11  C   UNL     1      75.167  89.223  68.753  1.00  0.00     0.170 C 
ATOM     12  C   UNL     1      73.097  88.518  67.434  1.00  0.00     0.049 C 
ATOM     13  C   UNL     1      71.607  86.935  68.724  1.00  0.00     0.011 C 
ATOM     14  C   UNL     1      74.582  88.258  67.691  1.00  0.00     0.122 C 
BRANCH   6  15
ATOM     15  C   UNL     1      72.232  89.084  71.275  1.00  0.00     0.086 C 
ATOM     16  C   UNL     1      71.693  90.530  71.310  1.00  0.00     0.140 CG0
ATOM     17  C   UNL     1      71.033  88.255  71.637  1.00  0.00    -0.010 C 
ATOM     18  C   UNL     1      70.361  90.363  72.010  1.00  0.00     0.190 C 
ATOM     19  G   UNL     1      72.632  91.477  72.056  1.00  0.00     0.000 G0
ATOM     20  C   UNL     1      69.974  88.942  72.080  1.00  0.00    -0.008 C 
ATOM     21  O   UNL     1      69.659  91.274  72.423  1.00  0.00    -0.291 OA
ATOM     22  C   UNL     1      68.676  88.461  72.595  1.00  0.00     0.048 C 
BRANCH  16  23
ATOM     23  O   UNL     1      71.345  91.044  70.036  1.00  0.00    -0.381 OA
ATOM     24  H   UNL     1      72.150  91.096  69.495  1.00  0.00     0.212 HD
ENDBRANCH  16  23
ENDBRANCH   6  15
BRANCH   7  25
ATOM     25  C   UNL     1      75.700  86.026  70.257  1.00  0.00     0.135 C 
BRANCH  25  26
ATOM     26  C   UNL     1      76.398  85.192  69.212  1.00  0.00    -0.040 A 
ATOM     27  C   UNL     1      75.683  84.232  68.495  1.00  0.00     0.004 A 
ATOM     28  C   UNL     1      77.756  85.381  68.961  1.00  0.00     0.004 A 
ATOM     29  C   UNL     1      76.328  83.460  67.528  1.00  0.00     0.000 A 
ATOM     30  C   UNL     1      78.402  84.610  67.994  1.00  0.00     0.000 A 
ATOM     31  C   UNL     1      77.687  83.649  67.278  1.00  0.00     0.000 A 
ENDBRANCH  25  26
ENDBRANCH   7  25
BRANCH  14  32
ATOM     32  C   UNL     1      75.390  88.250  66.435  1.00  0.00    -0.046 C 
ATOM     33  C   UNL     1      74.788  88.953  65.255  1.00  0.00     0.042 C 
ATOM     34  C   UNL     1      76.587  87.648  66.365  1.00  0.00     0.010 C 
ENDBRANCH  14  32
ENDBRANCH   3   4
BRANCH   2  35
ATOM     35  C   UNL     1      72.657  91.499  72.055  1.00  0.00     0.078 CG0
ATOM     36  G   UNL     1      71.709  90.551  71.323  1.00  0.00     0.000 G0
ENDBRANCH   2  35
ENDBRANCH   1   2
BRANCH   1  37
ATOM     37  O   UNL     1      74.594  93.498  72.725  1.00  0.00    -0.461 OA
BRANCH  37  38
ATOM     38  C   UNL     1      75.413  94.394  72.078  1.00  0.00     0.310 C 
ATOM     39  O   UNL     1      76.615  94.511  72.268  1.00  0.00    -0.252 OA
BRANCH  38  40
ATOM     40  C   UNL     1      74.598  95.208  71.100  1.00  0.00     0.158 C 
BRANCH  40  41
ATOM     41  C   UNL     1      74.261  94.450  69.842  1.00  0.00    -0.033 A 
ATOM     42  C   UNL     1      72.936  94.363  69.413  1.00  0.00     0.054 A 
ATOM     43  C   UNL     1      75.273  93.835  69.105  1.00  0.00     0.008 A 
ATOM     44  C   UNL     1      72.624  93.662  68.248  1.00  0.00     0.160 A 
ATOM     45  C   UNL     1      74.961  93.133  67.941  1.00  0.00     0.050 A 
ATOM     46  C   UNL     1      73.637  93.046  67.512  1.00  0.00     0.157 A 
BRANCH  44  47
ATOM     47  O   UNL     1      71.327  93.584  67.840  1.00  0.00    -0.493 OA
ATOM     48  C   UNL     1      70.338  94.128  68.714  1.00  0.00     0.278 C 
ENDBRANCH  44  47
BRANCH  46  49
ATOM     49  O   UNL     1      73.345  92.360  66.373  1.00  0.00    -0.504 OA
ATOM     50  H   UNL     1      72.392  92.433  66.195  1.00  0.00     0.293 HD
ENDBRANCH  46  49
ENDBRANCH  40  41
ENDBRANCH  38  40
ENDBRANCH  37  38
ENDBRANCH   1  37
TORSDOF 11
ENDMDL
MODEL 7
REMARK VINA RESULT:    -5.746      4.047      7.722
REMARK INTER + INTRA:         -11.160
REMARK INTER:                  -8.421
REMARK INTRA:                  -2.739
REMARK UNBOUND:                -1.047
REMARK SMILES C=C(C)[C@]12C[C@@H](C)[C@@]34O[C@](Cc5ccccc5)(O[C@@H]1[C@@H]3C=C(COC(=O)Cc1ccc(O)c(OC)c1)C[C@]1(O)C(=O)C(C)=C[C@@H]41)O2
REMARK SMILES IDX 23 1 22 2 21 3 20 4 9 5 8 6 10 7 6 8 18 9 46 10 19 11 5 12
REMARK SMILES IDX 7 13 4 14 45 15 38 16 44 17 40 18 42 20 41 21 43 22 39 23
REMARK SMILES IDX 11 25 12 26 13 27 17 28 14 29 16 30 15 31 2 32 3 33 1 34
REMARK SMILES IDX 37 35 24 37 25 38 26 39 27 40 28 41 36 42 29 43 33 44 30 45
REMARK SMILES IDX 31 46 34 47 35 48 32 49
REMARK H PARENT 39 24 32 50
REMARK Flexibility Score: 90.00
ROOT
ATOM      1  C   UNL     1      67.986  88.266  73.485  1.00  0.00     0.264 C 
ENDROOT
BRANCH   1   2
ATOM      2  C   UNL     1      66.530  87.875  73.587  1.00  0.00    -0.033 C 
ATOM      3  C   UNL     1      66.191  86.572  73.511  1.00  0.00    -0.015 C 
BRANCH   3   4
ATOM      4  C   UNL     1      64.812  85.933  73.508  1.00  0.00     0.078 C 
ATOM      5  O   UNL     1      64.267  85.384  75.858  1.00  0.00    -0.319 OA
ATOM      6  C   UNL     1      63.855  86.212  74.727  1.00  0.00     0.095 C 
ATOM      7  C   UNL     1      64.616  84.025  75.533  1.00  0.00     0.289 C 
ATOM      8  C   UNL     1      62.388  85.804  74.288  1.00  0.00     0.023 C 
ATOM      9  O   UNL     1      65.663  83.976  74.568  1.00  0.00    -0.320 OA
ATOM     10  O   UNL     1      63.526  83.311  74.955  1.00  0.00    -0.313 OA
ATOM     11  C   UNL     1      64.946  84.394  73.396  1.00  0.00     0.170 C 
ATOM     12  C   UNL     1      62.402  84.597  73.300  1.00  0.00     0.049 C 
ATOM     13  C   UNL     1      61.412  85.512  75.439  1.00  0.00     0.011 C 
ATOM     14  C   UNL     1      63.587  83.667  73.559  1.00  0.00     0.122 C 
BRANCH   6  15
ATOM     15  C   UNL     1      64.019  87.674  75.234  1.00  0.00     0.086 C 
ATOM     16  C   UNL     1      64.120  88.764  74.147  1.00  0.00     0.140 CG0
ATOM     17  C   UNL     1      63.014  88.235  76.200  1.00  0.00    -0.010 C 
ATOM     18  C   UNL     1      63.424  89.939  74.799  1.00  0.00     0.190 C 
ATOM     19  G   UNL     1      65.569  89.075  73.774  1.00  0.00     0.000 G0
ATOM     20  C   UNL     1      62.680  89.514  75.999  1.00  0.00    -0.008 C 
ATOM     21  O   UNL     1      63.422  91.085  74.375  1.00  0.00    -0.291 OA
ATOM     22  C   UNL     1      61.801  90.403  76.787  1.00  0.00     0.048 C 
BRANCH  16  23
ATOM     23  O   UNL     1      63.334  88.500  72.996  1.00  0.00    -0.381 OA
ATOM     24  H   UNL     1      62.988  89.344  72.661  1.00  0.00     0.212 HD
ENDBRANCH  16  23
ENDBRANCH   6  15
BRANCH   7  25
ATOM     25  C   UNL     1      65.059  83.330  76.805  1.00  0.00     0.135 C 
BRANCH  25  26
ATOM     26  C   UNL     1      64.549  84.032  78.039  1.00  0.00    -0.040 A 
ATOM     27  C   UNL     1      65.424  84.777  78.829  1.00  0.00     0.004 A 
ATOM     28  C   UNL     1      63.202  83.937  78.390  1.00  0.00     0.004 A 
ATOM     29  C   UNL     1      64.953  85.426  79.971  1.00  0.00     0.000 A 
ATOM     30  C   UNL     1      62.731  84.586  79.531  1.00  0.00     0.000 A 
ATOM     31  C   UNL     1      63.607  85.330  80.321  1.00  0.00     0.000 A 
ENDBRANCH  25  26
ENDBRANCH   7  25
BRANCH  14  32
ATOM     32  C   UNL     1      63.521  82.413  72.750  1.00  0.00    -0.046 C 
ATOM     33  C   UNL     1      64.197  82.452  71.411  1.00  0.00     0.042 C 
ATOM     34  C   UNL     1      62.893  81.315  73.194  1.00  0.00     0.010 C 
ENDBRANCH  14  32
ENDBRANCH   3   4
BRANCH   2  35
ATOM     35  C   UNL     1      65.607  89.063  73.777  1.00  0.00     0.078 CG0
ATOM     36  G   UNL     1      64.147  88.766  74.120  1.00  0.00     0.000 G0
ENDBRANCH   2  35
ENDBRANCH   1   2
BRANCH   1  37
ATOM     37  O   UNL     1      68.232  88.822  72.211  1.00  0.00    -0.461 OA
BRANCH  37  38
ATOM     38  C   UNL     1      69.195  88.200  71.451  1.00  0.00     0.310 C 
ATOM     39  O   UNL     1      70.279  87.816  71.868  1.00  0.00    -0.252 OA
BRANCH  38  40
ATOM     40  C   UNL     1      68.707  88.066  70.028  1.00  0.00     0.158 C 
BRANCH  40  41
ATOM     41  C   UNL     1      67.368  87.380  69.928  1.00  0.00    -0.033 A 
ATOM     42  C   UNL     1      66.210  88.135  69.744  1.00  0.00     0.054 A 
ATOM     43  C   UNL     1      67.288  85.991  70.019  1.00  0.00     0.008 A 
ATOM     44  C   UNL     1      64.971  87.500  69.651  1.00  0.00     0.160 A 
ATOM     45  C   UNL     1      66.049  85.356  69.927  1.00  0.00     0.050 A 
ATOM     46  C   UNL     1      64.891  86.110  69.743  1.00  0.00     0.157 A 
BRANCH  44  47
ATOM     47  O   UNL     1      63.847  88.248  69.471  1.00  0.00    -0.493 OA
ATOM     48  C   UNL     1      63.373  88.396  68.133  1.00  0.00     0.278 C 
ENDBRANCH  44  47
BRANCH  46  49
ATOM     49  O   UNL     1      63.687  85.479  69.652  1.00  0.00    -0.504 OA
ATOM     50  H   UNL     1      63.076  86.036  69.142  1.00  0.00     0.293 HD
ENDBRANCH  46  49
ENDBRANCH  40  41
ENDBRANCH  38  40
ENDBRANCH  37  38
ENDBRANCH   1  37
TORSDOF 11
ENDMDL
MODEL 8
REMARK VINA RESULT:    -5.694      3.496      6.849
REMARK INTER + INTRA:         -11.069
REMARK INTER:                  -9.737
REMARK INTRA:                  -1.332
REMARK UNBOUND:                -1.047
REMARK SMILES C=C(C)[C@]12C[C@@H](C)[C@@]34O[C@](Cc5ccccc5)(O[C@@H]1[C@@H]3C=C(COC(=O)Cc1ccc(O)c(OC)c1)C[C@]1(O)C(=O)C(C)=C[C@@H]41)O2
REMARK SMILES IDX 23 1 22 2 21 3 20 4 9 5 8 6 10 7 6 8 18 9 46 10 19 11 5 12
REMARK SMILES IDX 7 13 4 14 45 15 38 16 44 17 40 18 42 20 41 21 43 22 39 23
REMARK SMILES IDX 11 25 12 26 13 27 17 28 14 29 16 30 15 31 2 32 3 33 1 34
REMARK SMILES IDX 37 35 24 37 25 38 26 39 27 40 28 41 36 42 29 43 33 44 30 45
REMARK SMILES IDX 31 46 34 47 35 48 32 49
REMARK H PARENT 39 24 32 50
REMARK Flexibility Score: 90.00
ROOT
ATOM      1  C   UNL     1      66.220  87.348  75.097  1.00  0.00     0.264 C 
ENDROOT
BRANCH   1   2
ATOM      2  C   UNL     1      66.528  86.721  73.757  1.00  0.00    -0.033 C 
ATOM      3  C   UNL     1      65.647  85.856  73.216  1.00  0.00    -0.015 C 
BRANCH   3   4
ATOM      4  C   UNL     1      65.755  85.044  71.936  1.00  0.00     0.078 C 
ATOM      5  O   UNL     1      64.755  86.407  70.130  1.00  0.00    -0.319 OA
ATOM      6  C   UNL     1      66.008  85.808  70.583  1.00  0.00     0.095 C 
ATOM      7  C   UNL     1      63.590  85.570  70.259  1.00  0.00     0.289 C 
ATOM      8  C   UNL     1      66.495  84.744  69.514  1.00  0.00     0.023 C 
ATOM      9  O   UNL     1      63.398  85.154  71.609  1.00  0.00    -0.320 OA
ATOM     10  O   UNL     1      63.699  84.369  69.498  1.00  0.00    -0.313 OA
ATOM     11  C   UNL     1      64.469  84.205  71.734  1.00  0.00     0.170 C 
ATOM     12  C   UNL     1      65.835  83.351  69.753  1.00  0.00     0.049 C 
ATOM     13  C   UNL     1      66.311  85.152  68.044  1.00  0.00     0.011 C 
ATOM     14  C   UNL     1      64.439  83.484  70.364  1.00  0.00     0.122 C 
BRANCH   6  15
ATOM     15  C   UNL     1      66.960  87.019  70.803  1.00  0.00     0.086 C 
ATOM     16  C   UNL     1      68.172  86.773  71.725  1.00  0.00     0.140 CG0
ATOM     17  C   UNL     1      67.563  87.708  69.610  1.00  0.00    -0.010 C 
ATOM     18  C   UNL     1      69.241  87.644  71.100  1.00  0.00     0.190 C 
ATOM     19  G   UNL     1      67.879  87.155  73.176  1.00  0.00     0.000 G0
ATOM     20  C   UNL     1      68.835  88.096  69.756  1.00  0.00    -0.008 C 
ATOM     21  O   UNL     1      70.323  87.907  71.602  1.00  0.00    -0.291 OA
ATOM     22  C   UNL     1      69.707  88.860  68.841  1.00  0.00     0.048 C 
BRANCH  16  23
ATOM     23  O   UNL     1      68.706  85.463  71.634  1.00  0.00    -0.381 OA
ATOM     24  H   UNL     1      67.969  84.834  71.562  1.00  0.00     0.212 HD
ENDBRANCH  16  23
ENDBRANCH   6  15
BRANCH   7  25
ATOM     25  C   UNL     1      62.383  86.358  69.790  1.00  0.00     0.135 C 
BRANCH  25  26
ATOM     26  C   UNL     1      61.142  86.011  70.574  1.00  0.00    -0.040 A 
ATOM     27  C   UNL     1      60.380  84.899  70.216  1.00  0.00     0.004 A 
ATOM     28  C   UNL     1      60.757  86.802  71.656  1.00  0.00     0.004 A 
ATOM     29  C   UNL     1      59.232  84.578  70.941  1.00  0.00     0.000 A 
ATOM     30  C   UNL     1      59.609  86.481  72.381  1.00  0.00     0.000 A 
ATOM     31  C   UNL     1      58.847  85.369  72.023  1.00  0.00     0.000 A 
ENDBRANCH  25  26
ENDBRANCH   7  25
BRANCH  14  32
ATOM     32  C   UNL     1      63.715  82.179  70.432  1.00  0.00    -0.046 C 
ATOM     33  C   UNL     1      64.026  81.310  71.614  1.00  0.00     0.042 C 
ATOM     34  C   UNL     1      62.837  81.805  69.489  1.00  0.00     0.010 C 
ENDBRANCH  14  32
ENDBRANCH   3   4
BRANCH   2  35
ATOM     35  C   UNL     1      67.851  87.183  73.175  1.00  0.00     0.078 CG0
ATOM     36  G   UNL     1      68.171  86.755  71.743  1.00  0.00     0.000 G0
ENDBRANCH   2  35
ENDBRANCH   1   2
BRANCH   1  37
ATOM     37  O   UNL     1      67.403  87.415  75.864  1.00  0.00    -0.461 OA
BRANCH  37  38
ATOM     38  C   UNL     1      67.291  87.056  77.187  1.00  0.00     0.310 C 
ATOM     39  O   UNL     1      67.190  87.839  78.121  1.00  0.00    -0.252 OA
BRANCH  38  40
ATOM     40  C   UNL     1      67.314  85.550  77.305  1.00  0.00     0.158 C 
BRANCH  40  41
ATOM     41  C   UNL     1      66.136  85.002  78.069  1.00  0.00    -0.033 A 
ATOM     42  C   UNL     1      64.907  84.835  77.429  1.00  0.00     0.054 A 
ATOM     43  C   UNL     1      66.273  84.663  79.415  1.00  0.00     0.008 A 
ATOM     44  C   UNL     1      63.816  84.328  78.136  1.00  0.00     0.160 A 
ATOM     45  C   UNL     1      65.182  84.156  80.121  1.00  0.00     0.050 A 
ATOM     46  C   UNL     1      63.954  83.989  79.483  1.00  0.00     0.157 A 
BRANCH  44  47
ATOM     47  O   UNL     1      62.622  84.169  77.501  1.00  0.00    -0.493 OA
ATOM     48  C   UNL     1      62.481  84.785  76.222  1.00  0.00     0.278 C 
ENDBRANCH  44  47
BRANCH  46  49
ATOM     49  O   UNL     1      62.897  83.492  80.183  1.00  0.00    -0.504 OA
ATOM     50  H   UNL     1      62.828  82.537  80.017  1.00  0.00     0.293 HD
ENDBRANCH  46  49
ENDBRANCH  40  41
ENDBRANCH  38  40
ENDBRANCH  37  38
ENDBRANCH   1  37
TORSDOF 11
ENDMDL
MODEL 9
REMARK VINA RESULT:    -5.648      4.514      9.188
REMARK INTER + INTRA:         -10.987
REMARK INTER:                  -8.795
REMARK INTRA:                  -2.191
REMARK UNBOUND:                -1.047
REMARK SMILES C=C(C)[C@]12C[C@@H](C)[C@@]34O[C@](Cc5ccccc5)(O[C@@H]1[C@@H]3C=C(COC(=O)Cc1ccc(O)c(OC)c1)C[C@]1(O)C(=O)C(C)=C[C@@H]41)O2
REMARK SMILES IDX 23 1 22 2 21 3 20 4 9 5 8 6 10 7 6 8 18 9 46 10 19 11 5 12
REMARK SMILES IDX 7 13 4 14 45 15 38 16 44 17 40 18 42 20 41 21 43 22 39 23
REMARK SMILES IDX 11 25 12 26 13 27 17 28 14 29 16 30 15 31 2 32 3 33 1 34
REMARK SMILES IDX 37 35 24 37 25 38 26 39 27 40 28 41 36 42 29 43 33 44 30 45
REMARK SMILES IDX 31 46 34 47 35 48 32 49
REMARK H PARENT 39 24 32 50
REMARK Flexibility Score: 90.00
ROOT
ATOM      1  C   UNL     1      64.112  89.216  73.533  1.00  0.00     0.264 C 
ENDROOT
BRANCH   1   2
ATOM      2  C   UNL     1      63.725  87.769  73.729  1.00  0.00    -0.033 C 
ATOM      3  C   UNL     1      63.726  86.937  72.667  1.00  0.00    -0.015 C 
BRANCH   3   4
ATOM      4  C   UNL     1      63.309  85.477  72.586  1.00  0.00     0.078 C 
ATOM      5  O   UNL     1      65.345  84.124  72.965  1.00  0.00    -0.319 OA
ATOM      6  C   UNL     1      64.031  84.439  73.522  1.00  0.00     0.095 C 
ATOM      7  C   UNL     1      65.378  83.928  71.538  1.00  0.00     0.289 C 
ATOM      8  C   UNL     1      63.147  83.124  73.553  1.00  0.00     0.023 C 
ATOM      9  O   UNL     1      64.887  85.073  70.847  1.00  0.00    -0.320 OA
ATOM     10  O   UNL     1      64.552  82.844  71.122  1.00  0.00    -0.313 OA
ATOM     11  C   UNL     1      63.485  84.961  71.136  1.00  0.00     0.170 C 
ATOM     12  C   UNL     1      62.426  82.889  72.190  1.00  0.00     0.049 C 
ATOM     13  C   UNL     1      63.886  81.841  73.968  1.00  0.00     0.011 C 
ATOM     14  C   UNL     1      63.241  83.435  71.017  1.00  0.00     0.122 C 
BRANCH   6  15
ATOM     15  C   UNL     1      64.340  85.069  74.911  1.00  0.00     0.086 C 
ATOM     16  C   UNL     1      63.217  85.924  75.534  1.00  0.00     0.140 CG0
ATOM     17  C   UNL     1      64.772  84.181  76.044  1.00  0.00    -0.010 C 
ATOM     18  C   UNL     1      63.383  85.652  77.014  1.00  0.00     0.190 C 
ATOM     19  G   UNL     1      63.362  87.406  75.192  1.00  0.00     0.000 G0
ATOM     20  C   UNL     1      64.273  84.499  77.243  1.00  0.00    -0.008 C 
ATOM     21  O   UNL     1      62.823  86.261  77.913  1.00  0.00    -0.291 OA
ATOM     22  C   UNL     1      64.540  83.909  78.571  1.00  0.00     0.048 C 
BRANCH  16  23
ATOM     23  O   UNL     1      61.910  85.453  75.248  1.00  0.00    -0.381 OA
ATOM     24  H   UNL     1      61.399  85.445  76.073  1.00  0.00     0.212 HD
ENDBRANCH  16  23
ENDBRANCH   6  15
BRANCH   7  25
ATOM     25  C   UNL     1      66.812  83.658  71.129  1.00  0.00     0.135 C 
BRANCH  25  26
ATOM     26  C   UNL     1      67.163  84.330  69.824  1.00  0.00    -0.040 A 
ATOM     27  C   UNL     1      67.085  83.615  68.629  1.00  0.00     0.004 A 
ATOM     28  C   UNL     1      67.564  85.665  69.813  1.00  0.00     0.004 A 
ATOM     29  C   UNL     1      67.409  84.236  67.422  1.00  0.00     0.000 A 
ATOM     30  C   UNL     1      67.888  86.286  68.606  1.00  0.00     0.000 A 
ATOM     31  C   UNL     1      67.811  85.571  67.411  1.00  0.00     0.000 A 
ENDBRANCH  25  26
ENDBRANCH   7  25
BRANCH  14  32
ATOM     32  C   UNL     1      62.661  83.062  69.691  1.00  0.00    -0.046 C 
ATOM     33  C   UNL     1      63.273  81.874  69.012  1.00  0.00     0.042 C 
ATOM     34  C   UNL     1      61.650  83.751  69.140  1.00  0.00     0.010 C 
ENDBRANCH  14  32
ENDBRANCH   3   4
BRANCH   2  35
ATOM     35  C   UNL     1      63.380  87.435  75.167  1.00  0.00     0.078 CG0
ATOM     36  G   UNL     1      63.229  85.957  75.525  1.00  0.00     0.000 G0
ENDBRANCH   2  35
ENDBRANCH   1   2
BRANCH   1  37
ATOM     37  O   UNL     1      62.995  90.037  73.795  1.00  0.00    -0.461 OA
BRANCH  37  38
ATOM     38  C   UNL     1      62.151  90.273  72.734  1.00  0.00     0.310 C 
ATOM     39  O   UNL     1      62.493  90.731  71.653  1.00  0.00    -0.252 OA
BRANCH  38  40
ATOM     40  C   UNL     1      60.742  89.881  73.113  1.00  0.00     0.158 C 
BRANCH  40  41
ATOM     41  C   UNL     1      60.213  88.729  72.298  1.00  0.00    -0.033 A 
ATOM     42  C   UNL     1      59.851  88.927  70.965  1.00  0.00     0.054 A 
ATOM     43  C   UNL     1      60.087  87.466  72.875  1.00  0.00     0.008 A 
ATOM     44  C   UNL     1      59.362  87.861  70.210  1.00  0.00     0.160 A 
ATOM     45  C   UNL     1      59.597  86.400  72.120  1.00  0.00     0.050 A 
ATOM     46  C   UNL     1      59.234  86.597  70.788  1.00  0.00     0.157 A 
BRANCH  44  47
ATOM     47  O   UNL     1      59.011  88.066  68.910  1.00  0.00    -0.493 OA
ATOM     48  C   UNL     1      58.592  89.382  68.551  1.00  0.00     0.278 C 
ENDBRANCH  44  47
BRANCH  46  49
ATOM     49  O   UNL     1      58.759  85.549  70.060  1.00  0.00    -0.504 OA
ATOM     50  H   UNL     1      58.491  85.868  69.182  1.00  0.00     0.293 HD
ENDBRANCH  46  49
ENDBRANCH  40  41
ENDBRANCH  38  40
ENDBRANCH  37  38
ENDBRANCH   1  37
TORSDOF 11
ENDMDL
MODEL 10
REMARK VINA RESULT:    -5.623      7.955     14.204
REMARK INTER + INTRA:         -10.943
REMARK INTER:                  -8.429
REMARK INTRA:                  -2.514
REMARK UNBOUND:                -1.047
REMARK SMILES C=C(C)[C@]12C[C@@H](C)[C@@]34O[C@](Cc5ccccc5)(O[C@@H]1[C@@H]3C=C(COC(=O)Cc1ccc(O)c(OC)c1)C[C@]1(O)C(=O)C(C)=C[C@@H]41)O2
REMARK SMILES IDX 23 1 22 2 21 3 20 4 9 5 8 6 10 7 6 8 18 9 46 10 19 11 5 12
REMARK SMILES IDX 7 13 4 14 45 15 38 16 44 17 40 18 42 20 41 21 43 22 39 23
REMARK SMILES IDX 11 25 12 26 13 27 17 28 14 29 16 30 15 31 2 32 3 33 1 34
REMARK SMILES IDX 37 35 24 37 25 38 26 39 27 40 28 41 36 42 29 43 33 44 30 45
REMARK SMILES IDX 31 46 34 47 35 48 32 49
REMARK H PARENT 39 24 32 50
REMARK Flexibility Score: 90.00
ROOT
ATOM      1  C   UNL     1      74.928  90.400  69.175  1.00  0.00     0.264 C 
ENDROOT
BRANCH   1   2
ATOM      2  C   UNL     1      74.613  91.626  70.000  1.00  0.00    -0.033 C 
ATOM      3  C   UNL     1      75.448  91.982  70.997  1.00  0.00    -0.015 C 
BRANCH   3   4
ATOM      4  C   UNL     1      75.318  93.111  72.007  1.00  0.00     0.078 C 
ATOM      5  O   UNL     1      76.500  95.066  71.057  1.00  0.00    -0.319 OA
ATOM      6  C   UNL     1      75.184  94.584  71.469  1.00  0.00     0.095 C 
ATOM      7  C   UNL     1      77.583  94.738  71.948  1.00  0.00     0.289 C 
ATOM      8  C   UNL     1      74.647  95.482  72.660  1.00  0.00     0.023 C 
ATOM      9  O   UNL     1      77.687  93.329  72.139  1.00  0.00    -0.320 OA
ATOM     10  O   UNL     1      77.400  95.290  73.249  1.00  0.00    -0.313 OA
ATOM     11  C   UNL     1      76.535  93.101  72.965  1.00  0.00     0.170 C 
ATOM     12  C   UNL     1      75.176  94.979  74.038  1.00  0.00     0.049 C 
ATOM     13  C   UNL     1      74.922  96.989  72.526  1.00  0.00     0.011 C 
ATOM     14  C   UNL     1      76.554  94.327  73.912  1.00  0.00     0.122 C 
BRANCH   6  15
ATOM     15  C   UNL     1      74.332  94.621  70.168  1.00  0.00     0.086 C 
ATOM     16  C   UNL     1      73.061  93.746  70.161  1.00  0.00     0.140 CG0
ATOM     17  C   UNL     1      73.848  95.943  69.641  1.00  0.00    -0.010 C 
ATOM     18  C   UNL     1      72.103  94.567  69.325  1.00  0.00     0.190 C 
ATOM     19  G   UNL     1      73.318  92.361  69.567  1.00  0.00     0.000 G0
ATOM     20  C   UNL     1      72.610  95.940  69.136  1.00  0.00    -0.008 C 
ATOM     21  O   UNL     1      71.026  94.181  68.898  1.00  0.00    -0.291 OA
ATOM     22  C   UNL     1      71.852  97.018  68.468  1.00  0.00     0.048 C 
BRANCH  16  23
ATOM     23  O   UNL     1      72.419  93.657  71.423  1.00  0.00    -0.381 OA
ATOM     24  H   UNL     1      72.762  92.876  71.888  1.00  0.00     0.212 HD
ENDBRANCH  16  23
ENDBRANCH   6  15
BRANCH   7  25
ATOM     25  C   UNL     1      78.870  95.269  71.350  1.00  0.00     0.135 C 
BRANCH  25  26
ATOM     26  C   UNL     1      78.623  96.436  70.426  1.00  0.00    -0.040 A 
ATOM     27  C   UNL     1      78.712  96.262  69.044  1.00  0.00     0.004 A 
ATOM     28  C   UNL     1      78.306  97.688  70.952  1.00  0.00     0.004 A 
ATOM     29  C   UNL     1      78.483  97.341  68.190  1.00  0.00     0.000 A 
ATOM     30  C   UNL     1      78.078  98.767  70.097  1.00  0.00     0.000 A 
ATOM     31  C   UNL     1      78.167  98.593  68.716  1.00  0.00     0.000 A 
ENDBRANCH  25  26
ENDBRANCH   7  25
BRANCH  14  32
ATOM     32  C   UNL     1      77.160  94.003  75.238  1.00  0.00    -0.046 C 
ATOM     33  C   UNL     1      76.442  92.974  76.060  1.00  0.00     0.042 C 
ATOM     34  C   UNL     1      78.282  94.598  75.670  1.00  0.00     0.010 C 
ENDBRANCH  14  32
ENDBRANCH   3   4
BRANCH   2  35
ATOM     35  C   UNL     1      73.340  92.326  69.563  1.00  0.00     0.078 CG0
ATOM     36  G   UNL     1      73.060  93.705  70.160  1.00  0.00     0.000 G0
ENDBRANCH   2  35
ENDBRANCH   1   2
BRANCH   1  37
ATOM     37  O   UNL     1      75.091  89.290  70.032  1.00  0.00    -0.461 OA
BRANCH  37  38
ATOM     38  C   UNL     1      73.987  88.488  70.205  1.00  0.00     0.310 C 
ATOM     39  O   UNL     1      73.304  88.028  69.301  1.00  0.00    -0.252 OA
BRANCH  38  40
ATOM     40  C   UNL     1      73.752  88.264  71.681  1.00  0.00     0.158 C 
BRANCH  40  41
ATOM     41  C   UNL     1      72.697  89.176  72.253  1.00  0.00    -0.033 A 
ATOM     42  C   UNL     1      73.064  90.223  73.099  1.00  0.00     0.054 A 
ATOM     43  C   UNL     1      71.354  88.973  71.937  1.00  0.00     0.008 A 
ATOM     44  C   UNL     1      72.088  91.067  73.628  1.00  0.00     0.160 A 
ATOM     45  C   UNL     1      70.377  89.816  72.467  1.00  0.00     0.050 A 
ATOM     46  C   UNL     1      70.744  90.863  73.312  1.00  0.00     0.157 A 
BRANCH  44  47
ATOM     47  O   UNL     1      72.458  92.085  74.453  1.00  0.00    -0.493 OA
ATOM     48  C   UNL     1      72.709  91.756  75.818  1.00  0.00     0.278 C 
ENDBRANCH  44  47
BRANCH  46  49
ATOM     49  O   UNL     1      69.782  91.681  73.822  1.00  0.00    -0.504 OA
ATOM     50  H   UNL     1      69.277  91.195  74.496  1.00  0.00     0.293 HD
ENDBRANCH  46  49
ENDBRANCH  40  41
ENDBRANCH  38  40
ENDBRANCH  37  38
ENDBRANCH   1  37
TORSDOF 11
ENDMDL
