MODEL 1
REMARK VINA RESULT:    -6.826      0.000      0.000
REMARK INTER + INTRA:         -13.370
REMARK INTER:                 -12.014
REMARK INTRA:                  -1.356
REMARK UNBOUND:                -1.356
REMARK SMILES C=C(C)[C@]12C[C@@H](C)[C@@]34O[C@](Cc5ccccc5)(O[C@@H]1[C@@H]3C=C(COC(=O)Cc1ccc(O)c(OC)c1)C[C@]1(O)C(=O)C(C)=C[C@@H]41)O2
REMARK SMILES IDX 23 1 22 2 21 3 20 4 9 5 8 6 10 7 6 8 18 9 46 10 19 11 5 12
REMARK SMILES IDX 7 13 4 14 45 15 38 16 44 17 40 18 42 20 41 21 43 22 39 23
REMARK SMILES IDX 11 25 12 26 13 27 17 28 14 29 16 30 15 31 2 32 3 33 1 34
REMARK SMILES IDX 37 35 24 37 25 38 26 39 27 40 28 41 36 42 29 43 33 44 30 45
REMARK SMILES IDX 31 46 34 47 35 48 32 49
REMARK H PARENT 39 24 32 50
REMARK Flexibility Score: 90.00
ROOT
ATOM      1  C   UNL     1      87.404  66.282  71.216  1.00  0.00     0.264 C 
ENDROOT
BRANCH   1   2
ATOM      2  C   UNL     1      86.170  66.019  72.047  1.00  0.00    -0.033 C 
ATOM      3  C   UNL     1      86.278  65.966  73.390  1.00  0.00    -0.015 C 
BRANCH   3   4
ATOM      4  C   UNL     1      85.218  65.645  74.431  1.00  0.00     0.078 C 
ATOM      5  O   UNL     1      84.213  67.798  75.123  1.00  0.00    -0.319 OA
ATOM      6  C   UNL     1      83.914  66.527  74.468  1.00  0.00     0.095 C 
ATOM      7  C   UNL     1      85.033  67.704  76.304  1.00  0.00     0.289 C 
ATOM      8  C   UNL     1      82.829  65.743  75.316  1.00  0.00     0.023 C 
ATOM      9  O   UNL     1      86.277  67.069  76.020  1.00  0.00    -0.320 OA
ATOM     10  O   UNL     1      84.424  66.918  77.325  1.00  0.00    -0.313 OA
ATOM     11  C   UNL     1      85.836  65.713  75.849  1.00  0.00     0.170 C 
ATOM     12  C   UNL     1      83.489  64.909  76.457  1.00  0.00     0.049 C 
ATOM     13  C   UNL     1      81.699  66.606  75.902  1.00  0.00     0.011 C 
ATOM     14  C   UNL     1      84.773  65.565  76.967  1.00  0.00     0.122 C 
BRANCH   6  15
ATOM     15  C   UNL     1      83.476  66.926  73.029  1.00  0.00     0.086 C 
ATOM     16  C   UNL     1      83.575  65.820  71.957  1.00  0.00     0.140 CG0
ATOM     17  C   UNL     1      82.107  67.505  72.809  1.00  0.00    -0.010 C 
ATOM     18  C   UNL     1      82.398  66.133  71.057  1.00  0.00     0.190 C 
ATOM     19  G   UNL     1      84.908  65.856  71.212  1.00  0.00     0.000 G0
ATOM     20  C   UNL     1      81.486  67.100  71.696  1.00  0.00    -0.008 C 
ATOM     21  O   UNL     1      82.187  65.626  69.966  1.00  0.00    -0.291 OA
ATOM     22  C   UNL     1      80.188  67.517  71.125  1.00  0.00     0.048 C 
BRANCH  16  23
ATOM     23  O   UNL     1      83.290  64.520  72.446  1.00  0.00    -0.381 OA
ATOM     24  H   UNL     1      82.574  64.587  73.099  1.00  0.00     0.212 HD
ENDBRANCH  16  23
ENDBRANCH   6  15
BRANCH   7  25
ATOM     25  C   UNL     1      85.281  69.106  76.824  1.00  0.00     0.135 C 
BRANCH  25  26
ATOM     26  C   UNL     1      86.600  69.661  76.348  1.00  0.00    -0.040 A 
ATOM     27  C   UNL     1      87.726  69.581  77.168  1.00  0.00     0.004 A 
ATOM     28  C   UNL     1      86.695  70.252  75.088  1.00  0.00     0.004 A 
ATOM     29  C   UNL     1      88.947  70.094  76.728  1.00  0.00     0.000 A 
ATOM     30  C   UNL     1      87.916  70.765  74.649  1.00  0.00     0.000 A 
ATOM     31  C   UNL     1      89.041  70.686  75.469  1.00  0.00     0.000 A 
ENDBRANCH  25  26
ENDBRANCH   7  25
BRANCH  14  32
ATOM     32  C   UNL     1      85.324  64.885  78.178  1.00  0.00    -0.046 C 
ATOM     33  C   UNL     1      85.083  63.408  78.275  1.00  0.00     0.042 C 
ATOM     34  C   UNL     1      85.996  65.557  79.124  1.00  0.00     0.010 C 
ENDBRANCH  14  32
ENDBRANCH   3   4
BRANCH   2  35
ATOM     35  C   UNL     1      84.915  65.851  71.211  1.00  0.00     0.078 CG0
ATOM     36  G   UNL     1      83.581  65.809  71.954  1.00  0.00     0.000 G0
ENDBRANCH   2  35
ENDBRANCH   1   2
BRANCH   1  37
ATOM     37  O   UNL     1      87.254  67.507  70.531  1.00  0.00    -0.461 OA
BRANCH  37  38
ATOM     38  C   UNL     1      87.989  68.566  71.011  1.00  0.00     0.310 C 
ATOM     39  O   UNL     1      89.137  68.494  71.426  1.00  0.00    -0.252 OA
BRANCH  38  40
ATOM     40  C   UNL     1      87.159  69.827  70.945  1.00  0.00     0.158 C 
BRANCH  40  41
ATOM     41  C   UNL     1      87.558  70.734  69.810  1.00  0.00    -0.033 A 
ATOM     42  C   UNL     1      88.711  71.514  69.913  1.00  0.00     0.054 A 
ATOM     43  C   UNL     1      86.776  70.794  68.656  1.00  0.00     0.008 A 
ATOM     44  C   UNL     1      89.080  72.355  68.862  1.00  0.00     0.160 A 
ATOM     45  C   UNL     1      87.146  71.634  67.606  1.00  0.00     0.050 A 
ATOM     46  C   UNL     1      88.297  72.415  67.708  1.00  0.00     0.157 A 
BRANCH  44  47
ATOM     47  O   UNL     1      90.207  73.111  68.974  1.00  0.00    -0.493 OA
ATOM     48  C   UNL     1      91.067  72.833  70.078  1.00  0.00     0.278 C 
ENDBRANCH  44  47
BRANCH  46  49
ATOM     49  O   UNL     1      88.648  73.230  66.676  1.00  0.00    -0.504 OA
ATOM     50  H   UNL     1      87.852  73.671  66.335  1.00  0.00     0.293 HD
ENDBRANCH  46  49
ENDBRANCH  40  41
ENDBRANCH  38  40
ENDBRANCH  37  38
ENDBRANCH   1  37
TORSDOF 11
ENDMDL
MODEL 2
REMARK VINA RESULT:    -6.575     27.923     33.831
REMARK INTER + INTRA:         -12.929
REMARK INTER:                 -12.527
REMARK INTRA:                  -0.402
REMARK UNBOUND:                -1.356
REMARK SMILES C=C(C)[C@]12C[C@@H](C)[C@@]34O[C@](Cc5ccccc5)(O[C@@H]1[C@@H]3C=C(COC(=O)Cc1ccc(O)c(OC)c1)C[C@]1(O)C(=O)C(C)=C[C@@H]41)O2
REMARK SMILES IDX 23 1 22 2 21 3 20 4 9 5 8 6 10 7 6 8 18 9 46 10 19 11 5 12
REMARK SMILES IDX 7 13 4 14 45 15 38 16 44 17 40 18 42 20 41 21 43 22 39 23
REMARK SMILES IDX 11 25 12 26 13 27 17 28 14 29 16 30 15 31 2 32 3 33 1 34
REMARK SMILES IDX 37 35 24 37 25 38 26 39 27 40 28 41 36 42 29 43 33 44 30 45
REMARK SMILES IDX 31 46 34 47 35 48 32 49
REMARK H PARENT 39 24 32 50
REMARK Flexibility Score: 90.00
ROOT
ATOM      1  C   UNL     1      93.732  98.235  72.600  1.00  0.00     0.264 C 
ENDROOT
BRANCH   1   2
ATOM      2  C   UNL     1      93.529  99.661  72.144  1.00  0.00    -0.033 C 
ATOM      3  C   UNL     1      93.776  99.983  70.858  1.00  0.00    -0.015 C 
BRANCH   3   4
ATOM      4  C   UNL     1      93.725 101.341  70.177  1.00  0.00     0.078 C 
ATOM      5  O   UNL     1      91.438 101.606  69.270  1.00  0.00    -0.319 OA
ATOM      6  C   UNL     1      92.381 102.160  70.239  1.00  0.00     0.095 C 
ATOM      7  C   UNL     1      91.999 101.271  67.987  1.00  0.00     0.289 C 
ATOM      8  C   UNL     1      92.715 103.659  69.848  1.00  0.00     0.023 C 
ATOM      9  O   UNL     1      93.069 100.338  68.118  1.00  0.00    -0.320 OA
ATOM     10  O   UNL     1      92.556 102.404  67.326  1.00  0.00    -0.313 OA
ATOM     11  C   UNL     1      94.080 101.191  68.677  1.00  0.00     0.170 C 
ATOM     12  C   UNL     1      93.868 103.733  68.801  1.00  0.00     0.049 C 
ATOM     13  C   UNL     1      91.521 104.493  69.355  1.00  0.00     0.011 C 
ATOM     14  C   UNL     1      93.881 102.508  67.886  1.00  0.00     0.122 C 
BRANCH   6  15
ATOM     15  C   UNL     1      91.681 101.968  71.616  1.00  0.00     0.086 C 
ATOM     16  C   UNL     1      92.601 101.987  72.855  1.00  0.00     0.140 CG0
ATOM     17  C   UNL     1      90.554 102.884  72.003  1.00  0.00    -0.010 C 
ATOM     18  C   UNL     1      91.721 102.634  73.904  1.00  0.00     0.190 C 
ATOM     19  G   UNL     1      93.056 100.585  73.257  1.00  0.00     0.000 G0
ATOM     20  C   UNL     1      90.533 103.254  73.288  1.00  0.00    -0.008 C 
ATOM     21  O   UNL     1      91.969 102.691  75.099  1.00  0.00    -0.291 OA
ATOM     22  C   UNL     1      89.544 104.065  74.028  1.00  0.00     0.048 C 
BRANCH  16  23
ATOM     23  O   UNL     1      93.700 102.875  72.740  1.00  0.00    -0.381 OA
ATOM     24  H   UNL     1      93.448 103.727  73.132  1.00  0.00     0.212 HD
ENDBRANCH  16  23
ENDBRANCH   6  15
BRANCH   7  25
ATOM     25  C   UNL     1      90.901 100.674  67.130  1.00  0.00     0.135 C 
BRANCH  25  26
ATOM     26  C   UNL     1      90.628  99.233  67.483  1.00  0.00    -0.040 A 
ATOM     27  C   UNL     1      90.716  98.812  68.811  1.00  0.00     0.004 A 
ATOM     28  C   UNL     1      90.287  98.322  66.485  1.00  0.00     0.004 A 
ATOM     29  C   UNL     1      90.463  97.480  69.139  1.00  0.00     0.000 A 
ATOM     30  C   UNL     1      90.035  96.989  66.812  1.00  0.00     0.000 A 
ATOM     31  C   UNL     1      90.123  96.569  68.140  1.00  0.00     0.000 A 
ENDBRANCH  25  26
ENDBRANCH   7  25
BRANCH  14  32
ATOM     32  C   UNL     1      94.857 102.640  66.763  1.00  0.00    -0.046 C 
ATOM     33  C   UNL     1      96.051 101.734  66.812  1.00  0.00     0.042 C 
ATOM     34  C   UNL     1      94.676 103.520  65.766  1.00  0.00     0.010 C 
ENDBRANCH  14  32
ENDBRANCH   3   4
BRANCH   2  35
ATOM     35  C   UNL     1      93.044 100.577  73.252  1.00  0.00     0.078 CG0
ATOM     36  G   UNL     1      92.605 101.985  72.853  1.00  0.00     0.000 G0
ENDBRANCH   2  35
ENDBRANCH   1   2
BRANCH   1  37
ATOM     37  O   UNL     1      93.903  98.213  74.001  1.00  0.00    -0.461 OA
BRANCH  37  38
ATOM     38  C   UNL     1      95.201  98.218  74.455  1.00  0.00     0.310 C 
ATOM     39  O   UNL     1      95.731  99.141  75.057  1.00  0.00    -0.252 OA
BRANCH  38  40
ATOM     40  C   UNL     1      95.867  96.910  74.096  1.00  0.00     0.158 C 
BRANCH  40  41
ATOM     41  C   UNL     1      95.843  95.909  75.222  1.00  0.00    -0.033 A 
ATOM     42  C   UNL     1      94.684  95.173  75.477  1.00  0.00     0.054 A 
ATOM     43  C   UNL     1      96.978  95.717  76.009  1.00  0.00     0.008 A 
ATOM     44  C   UNL     1      94.662  94.247  76.519  1.00  0.00     0.160 A 
ATOM     45  C   UNL     1      96.955  94.790  77.052  1.00  0.00     0.050 A 
ATOM     46  C   UNL     1      95.798  94.055  77.307  1.00  0.00     0.157 A 
BRANCH  44  47
ATOM     47  O   UNL     1      93.526  93.535  76.759  1.00  0.00    -0.493 OA
ATOM     48  C   UNL     1      92.291  94.249  76.711  1.00  0.00     0.278 C 
ENDBRANCH  44  47
BRANCH  46  49
ATOM     49  O   UNL     1      95.788  93.153  78.327  1.00  0.00    -0.504 OA
ATOM     50  H   UNL     1      95.527  93.604  79.147  1.00  0.00     0.293 HD
ENDBRANCH  46  49
ENDBRANCH  40  41
ENDBRANCH  38  40
ENDBRANCH  37  38
ENDBRANCH   1  37
TORSDOF 11
ENDMDL
MODEL 3
REMARK VINA RESULT:    -6.297      3.685      8.438
REMARK INTER + INTRA:         -12.439
REMARK INTER:                  -9.122
REMARK INTRA:                  -3.317
REMARK UNBOUND:                -1.356
REMARK SMILES C=C(C)[C@]12C[C@@H](C)[C@@]34O[C@](Cc5ccccc5)(O[C@@H]1[C@@H]3C=C(COC(=O)Cc1ccc(O)c(OC)c1)C[C@]1(O)C(=O)C(C)=C[C@@H]41)O2
REMARK SMILES IDX 23 1 22 2 21 3 20 4 9 5 8 6 10 7 6 8 18 9 46 10 19 11 5 12
REMARK SMILES IDX 7 13 4 14 45 15 38 16 44 17 40 18 42 20 41 21 43 22 39 23
REMARK SMILES IDX 11 25 12 26 13 27 17 28 14 29 16 30 15 31 2 32 3 33 1 34
REMARK SMILES IDX 37 35 24 37 25 38 26 39 27 40 28 41 36 42 29 43 33 44 30 45
REMARK SMILES IDX 31 46 34 47 35 48 32 49
REMARK H PARENT 39 24 32 50
REMARK Flexibility Score: 90.00
ROOT
ATOM      1  C   UNL     1      87.291  69.729  78.692  1.00  0.00     0.264 C 
ENDROOT
BRANCH   1   2
ATOM      2  C   UNL     1      87.467  68.661  77.638  1.00  0.00    -0.033 C 
ATOM      3  C   UNL     1      86.411  67.898  77.290  1.00  0.00    -0.015 C 
BRANCH   3   4
ATOM      4  C   UNL     1      86.345  66.724  76.327  1.00  0.00     0.078 C 
ATOM      5  O   UNL     1      85.713  67.639  74.117  1.00  0.00    -0.319 OA
ATOM      6  C   UNL     1      86.787  66.955  74.834  1.00  0.00     0.095 C 
ATOM      7  C   UNL     1      84.384  67.157  74.392  1.00  0.00     0.289 C 
ATOM      8  C   UNL     1      87.028  65.531  74.180  1.00  0.00     0.023 C 
ATOM      9  O   UNL     1      84.083  67.235  75.783  1.00  0.00    -0.320 OA
ATOM     10  O   UNL     1      84.222  65.786  74.039  1.00  0.00    -0.313 OA
ATOM     11  C   UNL     1      84.902  66.165  76.278  1.00  0.00     0.170 C 
ATOM     12  C   UNL     1      86.059  64.461  74.768  1.00  0.00     0.049 C 
ATOM     13  C   UNL     1      86.964  65.491  72.644  1.00  0.00     0.011 C 
ATOM     14  C   UNL     1      84.724  65.076  75.190  1.00  0.00     0.122 C 
BRANCH   6  15
ATOM     15  C   UNL     1      87.991  67.937  74.760  1.00  0.00     0.086 C 
ATOM     16  C   UNL     1      89.108  67.723  75.803  1.00  0.00     0.140 CG0
ATOM     17  C   UNL     1      88.744  68.085  73.467  1.00  0.00    -0.010 C 
ATOM     18  C   UNL     1      90.353  68.109  75.031  1.00  0.00     0.190 C 
ATOM     19  G   UNL     1      88.904  68.580  77.051  1.00  0.00     0.000 G0
ATOM     20  C   UNL     1      90.069  68.212  73.587  1.00  0.00    -0.008 C 
ATOM     21  O   UNL     1      91.464  68.270  75.514  1.00  0.00    -0.291 OA
ATOM     22  C   UNL     1      91.099  68.454  72.556  1.00  0.00     0.048 C 
BRANCH  16  23
ATOM     23  O   UNL     1      89.327  66.363  76.138  1.00  0.00    -0.381 OA
ATOM     24  H   UNL     1      88.632  66.084  76.757  1.00  0.00     0.212 HD
ENDBRANCH  16  23
ENDBRANCH   6  15
BRANCH   7  25
ATOM     25  C   UNL     1      83.401  68.002  73.607  1.00  0.00     0.135 C 
BRANCH  25  26
ATOM     26  C   UNL     1      82.273  67.175  73.040  1.00  0.00    -0.040 A 
ATOM     27  C   UNL     1      81.168  66.866  73.834  1.00  0.00     0.004 A 
ATOM     28  C   UNL     1      82.334  66.722  71.722  1.00  0.00     0.004 A 
ATOM     29  C   UNL     1      80.125  66.102  73.310  1.00  0.00     0.000 A 
ATOM     30  C   UNL     1      81.290  65.958  71.198  1.00  0.00     0.000 A 
ATOM     31  C   UNL     1      80.186  65.648  71.993  1.00  0.00     0.000 A 
ENDBRANCH  25  26
ENDBRANCH   7  25
BRANCH  14  32
ATOM     32  C   UNL     1      83.716  64.047  75.585  1.00  0.00    -0.046 C 
ATOM     33  C   UNL     1      83.589  63.774  77.054  1.00  0.00     0.042 C 
ATOM     34  C   UNL     1      82.966  63.404  74.677  1.00  0.00     0.010 C 
ENDBRANCH  14  32
ENDBRANCH   3   4
BRANCH   2  35
ATOM     35  C   UNL     1      88.878  68.599  77.084  1.00  0.00     0.078 CG0
ATOM     36  G   UNL     1      89.101  67.749  75.834  1.00  0.00     0.000 G0
ENDBRANCH   2  35
ENDBRANCH   1   2
BRANCH   1  37
ATOM     37  O   UNL     1      86.844  69.133  79.891  1.00  0.00    -0.461 OA
BRANCH  37  38
ATOM     38  C   UNL     1      87.774  69.020  80.898  1.00  0.00     0.310 C 
ATOM     39  O   UNL     1      88.621  69.861  81.170  1.00  0.00    -0.252 OA
BRANCH  38  40
ATOM     40  C   UNL     1      87.587  67.703  81.613  1.00  0.00     0.158 C 
BRANCH  40  41
ATOM     41  C   UNL     1      87.463  66.534  80.670  1.00  0.00    -0.033 A 
ATOM     42  C   UNL     1      88.586  66.071  79.983  1.00  0.00     0.054 A 
ATOM     43  C   UNL     1      86.227  65.916  80.483  1.00  0.00     0.008 A 
ATOM     44  C   UNL     1      88.472  64.989  79.110  1.00  0.00     0.160 A 
ATOM     45  C   UNL     1      86.113  64.834  79.610  1.00  0.00     0.050 A 
ATOM     46  C   UNL     1      87.235  64.371  78.923  1.00  0.00     0.157 A 
BRANCH  44  47
ATOM     47  O   UNL     1      89.575  64.546  78.445  1.00  0.00    -0.493 OA
ATOM     48  C   UNL     1      90.670  64.089  79.238  1.00  0.00     0.278 C 
ENDBRANCH  44  47
BRANCH  46  49
ATOM     49  O   UNL     1      87.111  63.313  78.074  1.00  0.00    -0.504 OA
ATOM     50  H   UNL     1      86.191  63.002  78.088  1.00  0.00     0.293 HD
ENDBRANCH  46  49
ENDBRANCH  40  41
ENDBRANCH  38  40
ENDBRANCH  37  38
ENDBRANCH   1  37
TORSDOF 11
ENDMDL
MODEL 4
REMARK VINA RESULT:    -6.148     28.919     34.093
REMARK INTER + INTRA:         -12.177
REMARK INTER:                 -11.557
REMARK INTRA:                  -0.620
REMARK UNBOUND:                -1.356
REMARK SMILES C=C(C)[C@]12C[C@@H](C)[C@@]34O[C@](Cc5ccccc5)(O[C@@H]1[C@@H]3C=C(COC(=O)Cc1ccc(O)c(OC)c1)C[C@]1(O)C(=O)C(C)=C[C@@H]41)O2
REMARK SMILES IDX 23 1 22 2 21 3 20 4 9 5 8 6 10 7 6 8 18 9 46 10 19 11 5 12
REMARK SMILES IDX 7 13 4 14 45 15 38 16 44 17 40 18 42 20 41 21 43 22 39 23
REMARK SMILES IDX 11 25 12 26 13 27 17 28 14 29 16 30 15 31 2 32 3 33 1 34
REMARK SMILES IDX 37 35 24 37 25 38 26 39 27 40 28 41 36 42 29 43 33 44 30 45
REMARK SMILES IDX 31 46 34 47 35 48 32 49
REMARK H PARENT 39 24 32 50
REMARK Flexibility Score: 90.00
ROOT
ATOM      1  C   UNL     1      94.511  98.187  71.472  1.00  0.00     0.264 C 
ENDROOT
BRANCH   1   2
ATOM      2  C   UNL     1      94.033  99.611  71.306  1.00  0.00    -0.033 C 
ATOM      3  C   UNL     1      94.006 100.159  70.075  1.00  0.00    -0.015 C 
BRANCH   3   4
ATOM      4  C   UNL     1      93.647 101.575  69.656  1.00  0.00     0.078 C 
ATOM      5  O   UNL     1      91.232 101.575  69.116  1.00  0.00    -0.319 OA
ATOM      6  C   UNL     1      92.223 102.129  70.036  1.00  0.00     0.095 C 
ATOM      7  C   UNL     1      91.628 101.542  67.732  1.00  0.00     0.289 C 
ATOM      8  C   UNL     1      92.263 103.705  69.876  1.00  0.00     0.023 C 
ATOM      9  O   UNL     1      92.832 100.800  67.556  1.00  0.00    -0.320 OA
ATOM     10  O   UNL     1      91.898 102.842  67.215  1.00  0.00    -0.313 OA
ATOM     11  C   UNL     1      93.780 101.719  68.120  1.00  0.00     0.170 C 
ATOM     12  C   UNL     1      93.213 104.137  68.716  1.00  0.00     0.049 C 
ATOM     13  C   UNL     1      90.896 104.385  69.697  1.00  0.00     0.011 C 
ATOM     14  C   UNL     1      93.265 103.087  67.606  1.00  0.00     0.122 C 
BRANCH   6  15
ATOM     15  C   UNL     1      91.785 101.611  71.437  1.00  0.00     0.086 C 
ATOM     16  C   UNL     1      92.868 101.623  72.536  1.00  0.00     0.140 CG0
ATOM     17  C   UNL     1      90.594 102.231  72.112  1.00  0.00    -0.010 C 
ATOM     18  C   UNL     1      92.065 101.933  73.781  1.00  0.00     0.190 C 
ATOM     19  G   UNL     1      93.607 100.289  72.633  1.00  0.00     0.000 G0
ATOM     20  C   UNL     1      90.709 102.400  73.434  1.00  0.00    -0.008 C 
ATOM     21  O   UNL     1      92.481 101.863  74.928  1.00  0.00    -0.291 OA
ATOM     22  C   UNL     1      89.725 102.894  74.419  1.00  0.00     0.048 C 
BRANCH  16  23
ATOM     23  O   UNL     1      93.773 102.710  72.437  1.00  0.00    -0.381 OA
ATOM     24  H   UNL     1      94.191 102.842  73.304  1.00  0.00     0.212 HD
ENDBRANCH  16  23
ENDBRANCH   6  15
BRANCH   7  25
ATOM     25  C   UNL     1      90.511 100.902  66.933  1.00  0.00     0.135 C 
BRANCH  25  26
ATOM     26  C   UNL     1      90.332  99.444  67.279  1.00  0.00    -0.040 A 
ATOM     27  C   UNL     1      90.504  99.013  68.594  1.00  0.00     0.004 A 
ATOM     28  C   UNL     1      89.994  98.527  66.284  1.00  0.00     0.004 A 
ATOM     29  C   UNL     1      90.339  97.665  68.914  1.00  0.00     0.000 A 
ATOM     30  C   UNL     1      89.829  97.179  66.604  1.00  0.00     0.000 A 
ATOM     31  C   UNL     1      90.002  96.749  67.919  1.00  0.00     0.000 A 
ENDBRANCH  25  26
ENDBRANCH   7  25
BRANCH  14  32
ATOM     32  C   UNL     1      94.021 103.557  66.406  1.00  0.00    -0.046 C 
ATOM     33  C   UNL     1      93.291 103.496  65.098  1.00  0.00     0.042 C 
ATOM     34  C   UNL     1      95.282 104.007  66.494  1.00  0.00     0.010 C 
ENDBRANCH  14  32
ENDBRANCH   3   4
BRANCH   2  35
ATOM     35  C   UNL     1      93.621 100.256  72.616  1.00  0.00     0.078 CG0
ATOM     36  G   UNL     1      92.871 101.585  72.535  1.00  0.00     0.000 G0
ENDBRANCH   2  35
ENDBRANCH   1   2
BRANCH   1  37
ATOM     37  O   UNL     1      95.856  98.193  71.899  1.00  0.00    -0.461 OA
BRANCH  37  38
ATOM     38  C   UNL     1      96.778  97.682  71.015  1.00  0.00     0.310 C 
ATOM     39  O   UNL     1      97.025  98.147  69.911  1.00  0.00    -0.252 OA
BRANCH  38  40
ATOM     40  C   UNL     1      97.434  96.463  71.618  1.00  0.00     0.158 C 
BRANCH  40  41
ATOM     41  C   UNL     1      97.569  96.549  73.117  1.00  0.00    -0.033 A 
ATOM     42  C   UNL     1      96.676  95.861  73.938  1.00  0.00     0.054 A 
ATOM     43  C   UNL     1      98.588  97.315  73.682  1.00  0.00     0.008 A 
ATOM     44  C   UNL     1      96.801  95.940  75.326  1.00  0.00     0.160 A 
ATOM     45  C   UNL     1      98.714  97.394  75.069  1.00  0.00     0.050 A 
ATOM     46  C   UNL     1      97.820  96.708  75.891  1.00  0.00     0.157 A 
BRANCH  44  47
ATOM     47  O   UNL     1      95.922  95.265  76.117  1.00  0.00    -0.493 OA
ATOM     48  C   UNL     1      96.181  93.879  76.338  1.00  0.00     0.278 C 
ENDBRANCH  44  47
BRANCH  46  49
ATOM     49  O   UNL     1      97.953  96.792  77.244  1.00  0.00    -0.504 OA
ATOM     50  H   UNL     1      98.112  97.719  77.489  1.00  0.00     0.293 HD
ENDBRANCH  46  49
ENDBRANCH  40  41
ENDBRANCH  38  40
ENDBRANCH  37  38
ENDBRANCH   1  37
TORSDOF 11
ENDMDL
MODEL 5
REMARK VINA RESULT:    -6.089      1.427      2.203
REMARK INTER + INTRA:         -12.073
REMARK INTER:                 -10.753
REMARK INTRA:                  -1.319
REMARK UNBOUND:                -1.356
REMARK SMILES C=C(C)[C@]12C[C@@H](C)[C@@]34O[C@](Cc5ccccc5)(O[C@@H]1[C@@H]3C=C(COC(=O)Cc1ccc(O)c(OC)c1)C[C@]1(O)C(=O)C(C)=C[C@@H]41)O2
REMARK SMILES IDX 23 1 22 2 21 3 20 4 9 5 8 6 10 7 6 8 18 9 46 10 19 11 5 12
REMARK SMILES IDX 7 13 4 14 45 15 38 16 44 17 40 18 42 20 41 21 43 22 39 23
REMARK SMILES IDX 11 25 12 26 13 27 17 28 14 29 16 30 15 31 2 32 3 33 1 34
REMARK SMILES IDX 37 35 24 37 25 38 26 39 27 40 28 41 36 42 29 43 33 44 30 45
REMARK SMILES IDX 31 46 34 47 35 48 32 49
REMARK H PARENT 39 24 32 50
REMARK Flexibility Score: 90.00
ROOT
ATOM      1  C   UNL     1      87.461  66.723  71.376  1.00  0.00     0.264 C 
ENDROOT
BRANCH   1   2
ATOM      2  C   UNL     1      86.296  66.267  72.222  1.00  0.00    -0.033 C 
ATOM      3  C   UNL     1      86.431  66.223  73.563  1.00  0.00    -0.015 C 
BRANCH   3   4
ATOM      4  C   UNL     1      85.450  65.735  74.616  1.00  0.00     0.078 C 
ATOM      5  O   UNL     1      84.156  67.706  75.365  1.00  0.00    -0.319 OA
ATOM      6  C   UNL     1      84.032  66.415  74.692  1.00  0.00     0.095 C 
ATOM      7  C   UNL     1      85.004  67.716  76.529  1.00  0.00     0.289 C 
ATOM      8  C   UNL     1      83.090  65.469  75.545  1.00  0.00     0.023 C 
ATOM      9  O   UNL     1      86.322  67.274  76.212  1.00  0.00    -0.320 OA
ATOM     10  O   UNL     1      84.537  66.834  77.546  1.00  0.00    -0.313 OA
ATOM     11  C   UNL     1      86.079  65.871  76.025  1.00  0.00     0.170 C 
ATOM     12  C   UNL     1      83.888  64.724  76.659  1.00  0.00     0.049 C 
ATOM     13  C   UNL     1      81.859  66.148  76.165  1.00  0.00     0.011 C 
ATOM     14  C   UNL     1      85.072  65.552  77.158  1.00  0.00     0.122 C 
BRANCH   6  15
ATOM     15  C   UNL     1      83.513  66.768  73.268  1.00  0.00     0.086 C 
ATOM     16  C   UNL     1      83.737  65.699  72.178  1.00  0.00     0.140 CG0
ATOM     17  C   UNL     1      82.073  67.158  73.084  1.00  0.00    -0.010 C 
ATOM     18  C   UNL     1      82.509  65.859  71.307  1.00  0.00     0.190 C 
ATOM     19  G   UNL     1      85.036  65.924  71.406  1.00  0.00     0.000 G0
ATOM     20  C   UNL     1      81.488  66.686  71.978  1.00  0.00    -0.008 C 
ATOM     21  O   UNL     1      82.344  65.340  70.213  1.00  0.00    -0.291 OA
ATOM     22  C   UNL     1      80.134  66.929  71.440  1.00  0.00     0.048 C 
BRANCH  16  23
ATOM     23  O   UNL     1      83.642  64.366  72.654  1.00  0.00    -0.381 OA
ATOM     24  H   UNL     1      84.388  63.858  72.295  1.00  0.00     0.212 HD
ENDBRANCH  16  23
ENDBRANCH   6  15
BRANCH   7  25
ATOM     25  C   UNL     1      85.055  69.130  77.069  1.00  0.00     0.135 C 
BRANCH  25  26
ATOM     26  C   UNL     1      86.445  69.520  77.506  1.00  0.00    -0.040 A 
ATOM     27  C   UNL     1      87.421  69.806  76.550  1.00  0.00     0.004 A 
ATOM     28  C   UNL     1      86.755  69.595  78.863  1.00  0.00     0.004 A 
ATOM     29  C   UNL     1      88.707  70.167  76.954  1.00  0.00     0.000 A 
ATOM     30  C   UNL     1      88.041  69.955  79.266  1.00  0.00     0.000 A 
ATOM     31  C   UNL     1      89.017  70.241  78.311  1.00  0.00     0.000 A 
ENDBRANCH  25  26
ENDBRANCH   7  25
BRANCH  14  32
ATOM     32  C   UNL     1      85.740  64.941  78.346  1.00  0.00    -0.046 C 
ATOM     33  C   UNL     1      85.881  63.448  78.333  1.00  0.00     0.042 C 
ATOM     34  C   UNL     1      86.188  65.686  79.369  1.00  0.00     0.010 C 
ENDBRANCH  14  32
ENDBRANCH   3   4
BRANCH   2  35
ATOM     35  C   UNL     1      85.070  65.910  71.403  1.00  0.00     0.078 CG0
ATOM     36  G   UNL     1      83.755  65.721  72.158  1.00  0.00     0.000 G0
ENDBRANCH   2  35
ENDBRANCH   1   2
BRANCH   1  37
ATOM     37  O   UNL     1      86.975  67.322  70.195  1.00  0.00    -0.461 OA
BRANCH  37  38
ATOM     38  C   UNL     1      87.706  68.377  69.701  1.00  0.00     0.310 C 
ATOM     39  O   UNL     1      88.534  68.300  68.804  1.00  0.00    -0.252 OA
BRANCH  38  40
ATOM     40  C   UNL     1      87.329  69.641  70.439  1.00  0.00     0.158 C 
BRANCH  40  41
ATOM     41  C   UNL     1      88.460  70.200  71.263  1.00  0.00    -0.033 A 
ATOM     42  C   UNL     1      89.519  70.860  70.638  1.00  0.00     0.054 A 
ATOM     43  C   UNL     1      88.449  70.057  72.651  1.00  0.00     0.008 A 
ATOM     44  C   UNL     1      90.565  71.378  71.402  1.00  0.00     0.160 A 
ATOM     45  C   UNL     1      89.496  70.575  73.414  1.00  0.00     0.050 A 
ATOM     46  C   UNL     1      90.554  71.235  72.790  1.00  0.00     0.157 A 
BRANCH  44  47
ATOM     47  O   UNL     1      91.593  72.020  70.781  1.00  0.00    -0.493 OA
ATOM     48  C   UNL     1      91.494  73.439  70.661  1.00  0.00     0.278 C 
ENDBRANCH  44  47
BRANCH  46  49
ATOM     49  O   UNL     1      91.570  71.737  73.545  1.00  0.00    -0.504 OA
ATOM     50  H   UNL     1      92.296  72.007  72.959  1.00  0.00     0.293 HD
ENDBRANCH  46  49
ENDBRANCH  40  41
ENDBRANCH  38  40
ENDBRANCH  37  38
ENDBRANCH   1  37
TORSDOF 11
ENDMDL
MODEL 6
REMARK VINA RESULT:    -6.070      3.227      6.765
REMARK INTER + INTRA:         -12.039
REMARK INTER:                 -10.294
REMARK INTRA:                  -1.745
REMARK UNBOUND:                -1.356
REMARK SMILES C=C(C)[C@]12C[C@@H](C)[C@@]34O[C@](Cc5ccccc5)(O[C@@H]1[C@@H]3C=C(COC(=O)Cc1ccc(O)c(OC)c1)C[C@]1(O)C(=O)C(C)=C[C@@H]41)O2
REMARK SMILES IDX 23 1 22 2 21 3 20 4 9 5 8 6 10 7 6 8 18 9 46 10 19 11 5 12
REMARK SMILES IDX 7 13 4 14 45 15 38 16 44 17 40 18 42 20 41 21 43 22 39 23
REMARK SMILES IDX 11 25 12 26 13 27 17 28 14 29 16 30 15 31 2 32 3 33 1 34
REMARK SMILES IDX 37 35 24 37 25 38 26 39 27 40 28 41 36 42 29 43 33 44 30 45
REMARK SMILES IDX 31 46 34 47 35 48 32 49
REMARK H PARENT 39 24 32 50
REMARK Flexibility Score: 90.00
ROOT
ATOM      1  C   UNL     1      81.896  64.542  75.566  1.00  0.00     0.264 C 
ENDROOT
BRANCH   1   2
ATOM      2  C   UNL     1      83.385  64.554  75.825  1.00  0.00    -0.033 C 
ATOM      3  C   UNL     1      84.217  65.007  74.866  1.00  0.00    -0.015 C 
BRANCH   3   4
ATOM      4  C   UNL     1      85.736  65.051  74.849  1.00  0.00     0.078 C 
ATOM      5  O   UNL     1      86.403  67.271  75.712  1.00  0.00    -0.319 OA
ATOM      6  C   UNL     1      86.475  65.839  75.993  1.00  0.00     0.095 C 
ATOM      7  C   UNL     1      86.633  67.642  74.340  1.00  0.00     0.289 C 
ATOM      8  C   UNL     1      87.993  65.381  75.989  1.00  0.00     0.023 C 
ATOM      9  O   UNL     1      85.713  66.991  73.467  1.00  0.00    -0.320 OA
ATOM     10  O   UNL     1      87.929  67.262  73.886  1.00  0.00    -0.313 OA
ATOM     11  C   UNL     1      86.230  65.652  73.510  1.00  0.00     0.170 C 
ATOM     12  C   UNL     1      88.483  65.044  74.547  1.00  0.00     0.049 C 
ATOM     13  C   UNL     1      88.979  66.358  76.649  1.00  0.00     0.011 C 
ATOM     14  C   UNL     1      87.761  65.884  73.493  1.00  0.00     0.122 C 
BRANCH   6  15
ATOM     15  C   UNL     1      85.730  65.671  77.349  1.00  0.00     0.086 C 
ATOM     16  C   UNL     1      85.217  64.252  77.671  1.00  0.00     0.140 CG0
ATOM     17  C   UNL     1      86.411  66.093  78.621  1.00  0.00    -0.010 C 
ATOM     18  C   UNL     1      85.373  64.183  79.176  1.00  0.00     0.190 C 
ATOM     19  G   UNL     1      83.771  64.046  77.223  1.00  0.00     0.000 G0
ATOM     20  C   UNL     1      86.207  65.293  79.673  1.00  0.00    -0.008 C 
ATOM     21  O   UNL     1      84.921  63.305  79.895  1.00  0.00    -0.291 OA
ATOM     22  C   UNL     1      86.643  65.438  81.077  1.00  0.00     0.048 C 
BRANCH  16  23
ATOM     23  O   UNL     1      86.059  63.215  77.196  1.00  0.00    -0.381 OA
ATOM     24  H   UNL     1      85.500  62.481  76.892  1.00  0.00     0.212 HD
ENDBRANCH  16  23
ENDBRANCH   6  15
BRANCH   7  25
ATOM     25  C   UNL     1      86.476  69.145  74.221  1.00  0.00     0.135 C 
BRANCH  25  26
ATOM     26  C   UNL     1      87.696  69.881  74.715  1.00  0.00    -0.040 A 
ATOM     27  C   UNL     1      87.974  69.932  76.081  1.00  0.00     0.004 A 
ATOM     28  C   UNL     1      88.547  70.510  73.807  1.00  0.00     0.004 A 
ATOM     29  C   UNL     1      89.102  70.613  76.539  1.00  0.00     0.000 A 
ATOM     30  C   UNL     1      89.676  71.191  74.264  1.00  0.00     0.000 A 
ATOM     31  C   UNL     1      89.953  71.242  75.630  1.00  0.00     0.000 A 
ENDBRANCH  25  26
ENDBRANCH   7  25
BRANCH  14  32
ATOM     32  C   UNL     1      88.340  65.712  72.126  1.00  0.00    -0.046 C 
ATOM     33  C   UNL     1      87.457  66.102  70.979  1.00  0.00     0.042 C 
ATOM     34  C   UNL     1      89.579  65.234  71.936  1.00  0.00     0.010 C 
ENDBRANCH  14  32
ENDBRANCH   3   4
BRANCH   2  35
ATOM     35  C   UNL     1      83.753  64.036  77.202  1.00  0.00     0.078 CG0
ATOM     36  G   UNL     1      85.194  64.246  77.666  1.00  0.00     0.000 G0
ENDBRANCH   2  35
ENDBRANCH   1   2
BRANCH   1  37
ATOM     37  O   UNL     1      81.662  64.273  74.201  1.00  0.00    -0.461 OA
BRANCH  37  38
ATOM     38  C   UNL     1      80.348  64.103  73.831  1.00  0.00     0.310 C 
ATOM     39  O   UNL     1      79.667  63.121  74.089  1.00  0.00    -0.252 OA
BRANCH  38  40
ATOM     40  C   UNL     1      79.881  65.315  73.059  1.00  0.00     0.158 C 
BRANCH  40  41
ATOM     41  C   UNL     1      81.018  66.151  72.532  1.00  0.00    -0.033 A 
ATOM     42  C   UNL     1      81.651  65.795  71.339  1.00  0.00     0.054 A 
ATOM     43  C   UNL     1      81.439  67.280  73.234  1.00  0.00     0.008 A 
ATOM     44  C   UNL     1      82.704  66.569  70.851  1.00  0.00     0.160 A 
ATOM     45  C   UNL     1      82.492  68.054  72.746  1.00  0.00     0.050 A 
ATOM     46  C   UNL     1      83.125  67.698  71.555  1.00  0.00     0.157 A 
BRANCH  44  47
ATOM     47  O   UNL     1      83.314  66.212  69.687  1.00  0.00    -0.493 OA
ATOM     48  C   UNL     1      84.207  65.100  69.738  1.00  0.00     0.278 C 
ENDBRANCH  44  47
BRANCH  46  49
ATOM     49  O   UNL     1      84.151  68.462  71.087  1.00  0.00    -0.504 OA
ATOM     50  H   UNL     1      83.913  68.810  70.211  1.00  0.00     0.293 HD
ENDBRANCH  46  49
ENDBRANCH  40  41
ENDBRANCH  38  40
ENDBRANCH  37  38
ENDBRANCH   1  37
TORSDOF 11
ENDMDL
MODEL 7
REMARK VINA RESULT:    -5.947     30.680     34.374
REMARK INTER + INTRA:         -11.822
REMARK INTER:                 -11.088
REMARK INTRA:                  -0.734
REMARK UNBOUND:                -1.356
REMARK SMILES C=C(C)[C@]12C[C@@H](C)[C@@]34O[C@](Cc5ccccc5)(O[C@@H]1[C@@H]3C=C(COC(=O)Cc1ccc(O)c(OC)c1)C[C@]1(O)C(=O)C(C)=C[C@@H]41)O2
REMARK SMILES IDX 23 1 22 2 21 3 20 4 9 5 8 6 10 7 6 8 18 9 46 10 19 11 5 12
REMARK SMILES IDX 7 13 4 14 45 15 38 16 44 17 40 18 42 20 41 21 43 22 39 23
REMARK SMILES IDX 11 25 12 26 13 27 17 28 14 29 16 30 15 31 2 32 3 33 1 34
REMARK SMILES IDX 37 35 24 37 25 38 26 39 27 40 28 41 36 42 29 43 33 44 30 45
REMARK SMILES IDX 31 46 34 47 35 48 32 49
REMARK H PARENT 39 24 32 50
REMARK Flexibility Score: 90.00
ROOT
ATOM      1  C   UNL     1      94.028  98.187  71.645  1.00  0.00     0.264 C 
ENDROOT
BRANCH   1   2
ATOM      2  C   UNL     1      93.682  99.638  71.406  1.00  0.00    -0.033 C 
ATOM      3  C   UNL     1      93.813 100.152  70.167  1.00  0.00    -0.015 C 
BRANCH   3   4
ATOM      4  C   UNL     1      93.607 101.580  69.687  1.00  0.00     0.078 C 
ATOM      5  O   UNL     1      91.262 101.750  68.917  1.00  0.00    -0.319 OA
ATOM      6  C   UNL     1      92.202 102.251  69.917  1.00  0.00     0.095 C 
ATOM      7  C   UNL     1      91.783 101.648  67.578  1.00  0.00     0.289 C 
ATOM      8  C   UNL     1      92.381 103.815  69.730  1.00  0.00     0.023 C 
ATOM      9  O   UNL     1      92.937 100.812  67.534  1.00  0.00    -0.320 OA
ATOM     10  O   UNL     1      92.203 102.910  67.064  1.00  0.00    -0.313 OA
ATOM     11  C   UNL     1      93.896 101.672  68.169  1.00  0.00     0.170 C 
ATOM     12  C   UNL     1      93.467 104.141  68.660  1.00  0.00     0.049 C 
ATOM     13  C   UNL     1      91.094 104.592  69.407  1.00  0.00     0.011 C 
ATOM     14  C   UNL     1      93.541 103.060  67.581  1.00  0.00     0.122 C 
BRANCH   6  15
ATOM     15  C   UNL     1      91.594 101.806  71.279  1.00  0.00     0.086 C 
ATOM     16  C   UNL     1      92.565 101.767  72.477  1.00  0.00     0.140 CG0
ATOM     17  C   UNL     1      90.396 102.533  71.823  1.00  0.00    -0.010 C 
ATOM     18  C   UNL     1      91.674 102.171  73.632  1.00  0.00     0.190 C 
ATOM     19  G   UNL     1      93.185 100.384  72.672  1.00  0.00     0.000 G0
ATOM     20  C   UNL     1      90.398 102.729  73.146  1.00  0.00    -0.008 C 
ATOM     21  O   UNL     1      91.972 102.101  74.815  1.00  0.00    -0.291 OA
ATOM     22  C   UNL     1      89.366 103.322  74.021  1.00  0.00     0.048 C 
BRANCH  16  23
ATOM     23  O   UNL     1      93.557 102.779  72.445  1.00  0.00    -0.381 OA
ATOM     24  H   UNL     1      94.424 102.365  72.588  1.00  0.00     0.212 HD
ENDBRANCH  16  23
ENDBRANCH   6  15
BRANCH   7  25
ATOM     25  C   UNL     1      90.700 101.074  66.688  1.00  0.00     0.135 C 
BRANCH  25  26
ATOM     26  C   UNL     1      90.387  99.639  67.032  1.00  0.00    -0.040 A 
ATOM     27  C   UNL     1      91.002  99.036  68.130  1.00  0.00     0.004 A 
ATOM     28  C   UNL     1      89.484  98.916  66.255  1.00  0.00     0.004 A 
ATOM     29  C   UNL     1      90.714  97.708  68.449  1.00  0.00     0.000 A 
ATOM     30  C   UNL     1      89.195  97.588  66.574  1.00  0.00     0.000 A 
ATOM     31  C   UNL     1      89.810  96.985  67.671  1.00  0.00     0.000 A 
ENDBRANCH  25  26
ENDBRANCH   7  25
BRANCH  14  32
ATOM     32  C   UNL     1      94.442 103.438  66.450  1.00  0.00    -0.046 C 
ATOM     33  C   UNL     1      93.769 103.811  65.163  1.00  0.00     0.042 C 
ATOM     34  C   UNL     1      95.777 103.443  66.579  1.00  0.00     0.010 C 
ENDBRANCH  14  32
ENDBRANCH   3   4
BRANCH   2  35
ATOM     35  C   UNL     1      93.202 100.349  72.658  1.00  0.00     0.078 CG0
ATOM     36  G   UNL     1      92.579 101.733  72.480  1.00  0.00     0.000 G0
ENDBRANCH   2  35
ENDBRANCH   1   2
BRANCH   1  37
ATOM     37  O   UNL     1      95.298  98.104  72.256  1.00  0.00    -0.461 OA
BRANCH  37  38
ATOM     38  C   UNL     1      96.384  98.241  71.423  1.00  0.00     0.310 C 
ATOM     39  O   UNL     1      97.178  99.171  71.451  1.00  0.00    -0.252 OA
BRANCH  38  40
ATOM     40  C   UNL     1      96.442  97.067  70.474  1.00  0.00     0.158 C 
BRANCH  40  41
ATOM     41  C   UNL     1      97.538  97.196  69.447  1.00  0.00    -0.033 A 
ATOM     42  C   UNL     1      97.414  98.117  68.406  1.00  0.00     0.054 A 
ATOM     43  C   UNL     1      98.676  96.395  69.537  1.00  0.00     0.008 A 
ATOM     44  C   UNL     1      98.428  98.236  67.456  1.00  0.00     0.160 A 
ATOM     45  C   UNL     1      99.690  96.514  68.587  1.00  0.00     0.050 A 
ATOM     46  C   UNL     1      99.567  97.434  67.546  1.00  0.00     0.157 A 
BRANCH  44  47
ATOM     47  O   UNL     1      98.296  99.139  66.445  1.00  0.00    -0.493 OA
ATOM     48  C   UNL     1      97.776 100.423  66.785  1.00  0.00     0.278 C 
ENDBRANCH  44  47
BRANCH  46  49
ATOM     49  O   UNL     1     100.564  97.542  66.625  1.00  0.00    -0.504 OA
ATOM     50  H   UNL     1     100.174  97.531  65.734  1.00  0.00     0.293 HD
ENDBRANCH  46  49
ENDBRANCH  40  41
ENDBRANCH  38  40
ENDBRANCH  37  38
ENDBRANCH   1  37
TORSDOF 11
ENDMDL
MODEL 8
REMARK VINA RESULT:    -5.890     17.201     20.628
REMARK INTER + INTRA:         -11.723
REMARK INTER:                 -10.252
REMARK INTRA:                  -1.471
REMARK UNBOUND:                -1.356
REMARK SMILES C=C(C)[C@]12C[C@@H](C)[C@@]34O[C@](Cc5ccccc5)(O[C@@H]1[C@@H]3C=C(COC(=O)Cc1ccc(O)c(OC)c1)C[C@]1(O)C(=O)C(C)=C[C@@H]41)O2
REMARK SMILES IDX 23 1 22 2 21 3 20 4 9 5 8 6 10 7 6 8 18 9 46 10 19 11 5 12
REMARK SMILES IDX 7 13 4 14 45 15 38 16 44 17 40 18 42 20 41 21 43 22 39 23
REMARK SMILES IDX 11 25 12 26 13 27 17 28 14 29 16 30 15 31 2 32 3 33 1 34
REMARK SMILES IDX 37 35 24 37 25 38 26 39 27 40 28 41 36 42 29 43 33 44 30 45
REMARK SMILES IDX 31 46 34 47 35 48 32 49
REMARK H PARENT 39 24 32 50
REMARK Flexibility Score: 90.00
ROOT
ATOM      1  C   UNL     1      98.483  80.137  85.067  1.00  0.00     0.264 C 
ENDROOT
BRANCH   1   2
ATOM      2  C   UNL     1      97.115  80.775  84.991  1.00  0.00    -0.033 C 
ATOM      3  C   UNL     1      96.022  80.021  85.221  1.00  0.00    -0.015 C 
BRANCH   3   4
ATOM      4  C   UNL     1      94.553  80.399  85.131  1.00  0.00     0.078 C 
ATOM      5  O   UNL     1      93.863  81.151  87.385  1.00  0.00    -0.319 OA
ATOM      6  C   UNL     1      94.034  81.601  86.006  1.00  0.00     0.095 C 
ATOM      7  C   UNL     1      93.255  79.854  87.539  1.00  0.00     0.289 C 
ATOM      8  C   UNL     1      92.630  82.048  85.423  1.00  0.00     0.023 C 
ATOM      9  O   UNL     1      93.998  78.850  86.854  1.00  0.00    -0.320 OA
ATOM     10  O   UNL     1      91.941  79.804  86.989  1.00  0.00    -0.313 OA
ATOM     11  C   UNL     1      93.672  79.178  85.494  1.00  0.00     0.170 C 
ATOM     12  C   UNL     1      91.838  80.834  84.846  1.00  0.00     0.049 C 
ATOM     13  C   UNL     1      91.730  82.829  86.395  1.00  0.00     0.011 C 
ATOM     14  C   UNL     1      92.168  79.539  85.589  1.00  0.00     0.122 C 
BRANCH   6  15
ATOM     15  C   UNL     1      95.109  82.723  86.094  1.00  0.00     0.086 C 
ATOM     16  C   UNL     1      95.862  83.048  84.787  1.00  0.00     0.140 CG0
ATOM     17  C   UNL     1      94.719  84.077  86.619  1.00  0.00    -0.010 C 
ATOM     18  C   UNL     1      96.096  84.539  84.908  1.00  0.00     0.190 C 
ATOM     19  G   UNL     1      97.164  82.260  84.661  1.00  0.00     0.000 G0
ATOM     20  C   UNL     1      95.278  85.117  85.992  1.00  0.00    -0.008 C 
ATOM     21  O   UNL     1      96.820  85.203  84.183  1.00  0.00    -0.291 OA
ATOM     22  C   UNL     1      95.192  86.563  86.283  1.00  0.00     0.048 C 
BRANCH  16  23
ATOM     23  O   UNL     1      95.065  82.924  83.621  1.00  0.00    -0.381 OA
ATOM     24  H   UNL     1      94.557  82.098  83.682  1.00  0.00     0.212 HD
ENDBRANCH  16  23
ENDBRANCH   6  15
BRANCH   7  25
ATOM     25  C   UNL     1      93.197  79.529  89.018  1.00  0.00     0.135 C 
BRANCH  25  26
ATOM     26  C   UNL     1      92.873  80.743  89.852  1.00  0.00    -0.040 A 
ATOM     27  C   UNL     1      91.578  81.261  89.857  1.00  0.00     0.004 A 
ATOM     28  C   UNL     1      93.868  81.348  90.619  1.00  0.00     0.004 A 
ATOM     29  C   UNL     1      91.278  82.384  90.628  1.00  0.00     0.000 A 
ATOM     30  C   UNL     1      93.569  82.472  91.390  1.00  0.00     0.000 A 
ATOM     31  C   UNL     1      92.274  82.989  91.394  1.00  0.00     0.000 A 
ENDBRANCH  25  26
ENDBRANCH   7  25
BRANCH  14  32
ATOM     32  C   UNL     1      91.291  78.401  85.178  1.00  0.00    -0.046 C 
ATOM     33  C   UNL     1      90.141  78.744  84.278  1.00  0.00     0.042 C 
ATOM     34  C   UNL     1      91.519  77.145  85.589  1.00  0.00     0.010 C 
ENDBRANCH  14  32
ENDBRANCH   3   4
BRANCH   2  35
ATOM     35  C   UNL     1      97.167  82.254  84.655  1.00  0.00     0.078 CG0
ATOM     36  G   UNL     1      95.869  83.047  84.793  1.00  0.00     0.000 G0
ENDBRANCH   2  35
ENDBRANCH   1   2
BRANCH   1  37
ATOM     37  O   UNL     1      98.617  79.195  84.024  1.00  0.00    -0.461 OA
BRANCH  37  38
ATOM     38  C   UNL     1      99.046  79.686  82.813  1.00  0.00     0.310 C 
ATOM     39  O   UNL     1     100.023  80.405  82.652  1.00  0.00    -0.252 OA
BRANCH  38  40
ATOM     40  C   UNL     1      98.126  79.201  81.717  1.00  0.00     0.158 C 
BRANCH  40  41
ATOM     41  C   UNL     1      97.814  80.266  80.698  1.00  0.00    -0.033 A 
ATOM     42  C   UNL     1      98.162  80.074  79.360  1.00  0.00     0.054 A 
ATOM     43  C   UNL     1      97.176  81.442  81.091  1.00  0.00     0.008 A 
ATOM     44  C   UNL     1      97.873  81.060  78.416  1.00  0.00     0.160 A 
ATOM     45  C   UNL     1      96.886  82.428  80.147  1.00  0.00     0.050 A 
ATOM     46  C   UNL     1      97.235  82.237  78.810  1.00  0.00     0.157 A 
BRANCH  44  47
ATOM     47  O   UNL     1      98.218  80.862  77.114  1.00  0.00    -0.493 OA
ATOM     48  C   UNL     1      99.433  81.463  76.667  1.00  0.00     0.278 C 
ENDBRANCH  44  47
BRANCH  46  49
ATOM     49  O   UNL     1      96.947  83.206  77.897  1.00  0.00    -0.504 OA
ATOM     50  H   UNL     1      97.700  83.303  77.290  1.00  0.00     0.293 HD
ENDBRANCH  46  49
ENDBRANCH  40  41
ENDBRANCH  38  40
ENDBRANCH  37  38
ENDBRANCH   1  37
TORSDOF 11
ENDMDL
MODEL 9
REMARK VINA RESULT:    -5.881     18.850     22.159
REMARK INTER + INTRA:         -11.707
REMARK INTER:                  -9.628
REMARK INTRA:                  -2.079
REMARK UNBOUND:                -1.356
REMARK SMILES C=C(C)[C@]12C[C@@H](C)[C@@]34O[C@](Cc5ccccc5)(O[C@@H]1[C@@H]3C=C(COC(=O)Cc1ccc(O)c(OC)c1)C[C@]1(O)C(=O)C(C)=C[C@@H]41)O2
REMARK SMILES IDX 23 1 22 2 21 3 20 4 9 5 8 6 10 7 6 8 18 9 46 10 19 11 5 12
REMARK SMILES IDX 7 13 4 14 45 15 38 16 44 17 40 18 42 20 41 21 43 22 39 23
REMARK SMILES IDX 11 25 12 26 13 27 17 28 14 29 16 30 15 31 2 32 3 33 1 34
REMARK SMILES IDX 37 35 24 37 25 38 26 39 27 40 28 41 36 42 29 43 33 44 30 45
REMARK SMILES IDX 31 46 34 47 35 48 32 49
REMARK H PARENT 39 24 32 50
REMARK Flexibility Score: 90.00
ROOT
ATOM      1  C   UNL     1     101.001  79.054  81.999  1.00  0.00     0.264 C 
ENDROOT
BRANCH   1   2
ATOM      2  C   UNL     1     100.809  79.899  83.238  1.00  0.00    -0.033 C 
ATOM      3  C   UNL     1      99.664  80.594  83.391  1.00  0.00    -0.015 C 
BRANCH   3   4
ATOM      4  C   UNL     1      99.264  81.563  84.491  1.00  0.00     0.078 C 
ATOM      5  O   UNL     1      98.077  80.245  86.216  1.00  0.00    -0.319 OA
ATOM      6  C   UNL     1      99.273  81.051  85.980  1.00  0.00     0.095 C 
ATOM      7  C   UNL     1      96.858  80.774  85.660  1.00  0.00     0.289 C 
ATOM      8  C   UNL     1      99.242  82.323  86.924  1.00  0.00     0.023 C 
ATOM      9  O   UNL     1      96.971  80.963  84.252  1.00  0.00    -0.320 OA
ATOM     10  O   UNL     1      96.530  82.053  86.196  1.00  0.00    -0.313 OA
ATOM     11  C   UNL     1      97.839  82.107  84.220  1.00  0.00     0.170 C 
ATOM     12  C   UNL     1      98.425  83.489  86.287  1.00  0.00     0.049 C 
ATOM     13  C   UNL     1      98.740  82.070  88.355  1.00  0.00     0.011 C 
ATOM     14  C   UNL     1      97.301  82.968  85.390  1.00  0.00     0.122 C 
BRANCH   6  15
ATOM     15  C   UNL     1     100.457  80.070  86.218  1.00  0.00     0.086 C 
ATOM     16  C   UNL     1     101.808  80.469  85.590  1.00  0.00     0.140 CG0
ATOM     17  C   UNL     1     100.824  79.687  87.625  1.00  0.00    -0.010 C 
ATOM     18  C   UNL     1     102.805  79.946  86.603  1.00  0.00     0.190 C 
ATOM     19  G   UNL     1     102.004  79.855  84.205  1.00  0.00     0.000 G0
ATOM     20  C   UNL     1     102.135  79.582  87.866  1.00  0.00    -0.008 C 
ATOM     21  O   UNL     1     104.013  79.875  86.435  1.00  0.00    -0.291 OA
ATOM     22  C   UNL     1     102.847  79.154  89.087  1.00  0.00     0.048 C 
BRANCH  16  23
ATOM     23  O   UNL     1     102.043  81.867  85.575  1.00  0.00    -0.381 OA
ATOM     24  H   UNL     1     101.579  82.248  84.811  1.00  0.00     0.212 HD
ENDBRANCH  16  23
ENDBRANCH   6  15
BRANCH   7  25
ATOM     25  C   UNL     1      95.738  79.798  85.958  1.00  0.00     0.135 C 
BRANCH  25  26
ATOM     26  C   UNL     1      94.389  80.473  85.975  1.00  0.00    -0.040 A 
ATOM     27  C   UNL     1      93.725  80.736  84.776  1.00  0.00     0.004 A 
ATOM     28  C   UNL     1      93.805  80.835  87.189  1.00  0.00     0.004 A 
ATOM     29  C   UNL     1      92.478  81.361  84.792  1.00  0.00     0.000 A 
ATOM     30  C   UNL     1      92.558  81.459  87.205  1.00  0.00     0.000 A 
ATOM     31  C   UNL     1      91.895  81.722  86.006  1.00  0.00     0.000 A 
ENDBRANCH  25  26
ENDBRANCH   7  25
BRANCH  14  32
ATOM     32  C   UNL     1      96.394  84.056  84.915  1.00  0.00    -0.046 C 
ATOM     33  C   UNL     1      95.058  84.147  85.591  1.00  0.00     0.042 C 
ATOM     34  C   UNL     1      96.754  84.903  83.939  1.00  0.00     0.010 C 
ENDBRANCH  14  32
ENDBRANCH   3   4
BRANCH   2  35
ATOM     35  C   UNL     1     101.990  79.837  84.188  1.00  0.00     0.078 CG0
ATOM     36  G   UNL     1     101.808  80.464  85.570  1.00  0.00     0.000 G0
ENDBRANCH   2  35
ENDBRANCH   1   2
BRANCH   1  37
ATOM     37  O   UNL     1     100.270  79.619  80.932  1.00  0.00    -0.461 OA
BRANCH  37  38
ATOM     38  C   UNL     1     101.011  80.172  79.913  1.00  0.00     0.310 C 
ATOM     39  O   UNL     1     101.780  79.555  79.189  1.00  0.00    -0.252 OA
BRANCH  38  40
ATOM     40  C   UNL     1     100.727  81.653  79.829  1.00  0.00     0.158 C 
BRANCH  40  41
ATOM     41  C   UNL     1      99.276  81.959  79.561  1.00  0.00    -0.033 A 
ATOM     42  C   UNL     1      98.780  81.895  78.258  1.00  0.00     0.054 A 
ATOM     43  C   UNL     1      98.430  82.306  80.613  1.00  0.00     0.008 A 
ATOM     44  C   UNL     1      97.437  82.179  78.009  1.00  0.00     0.160 A 
ATOM     45  C   UNL     1      97.087  82.590  80.364  1.00  0.00     0.050 A 
ATOM     46  C   UNL     1      96.590  82.527  79.063  1.00  0.00     0.157 A 
BRANCH  44  47
ATOM     47  O   UNL     1      96.964  82.114  76.734  1.00  0.00    -0.493 OA
ATOM     48  C   UNL     1      97.885  81.716  75.720  1.00  0.00     0.278 C 
ENDBRANCH  44  47
BRANCH  46  49
ATOM     49  O   UNL     1      95.277  82.804  78.832  1.00  0.00    -0.504 OA
ATOM     50  H   UNL     1      95.185  83.178  77.940  1.00  0.00     0.293 HD
ENDBRANCH  46  49
ENDBRANCH  40  41
ENDBRANCH  38  40
ENDBRANCH  37  38
ENDBRANCH   1  37
TORSDOF 11
ENDMDL
MODEL 10
REMARK VINA RESULT:    -5.529     27.854     30.711
REMARK INTER + INTRA:         -11.088
REMARK INTER:                  -8.639
REMARK INTRA:                  -2.449
REMARK UNBOUND:                -1.356
REMARK SMILES C=C(C)[C@]12C[C@@H](C)[C@@]34O[C@](Cc5ccccc5)(O[C@@H]1[C@@H]3C=C(COC(=O)Cc1ccc(O)c(OC)c1)C[C@]1(O)C(=O)C(C)=C[C@@H]41)O2
REMARK SMILES IDX 23 1 22 2 21 3 20 4 9 5 8 6 10 7 6 8 18 9 46 10 19 11 5 12
REMARK SMILES IDX 7 13 4 14 45 15 38 16 44 17 40 18 42 20 41 21 43 22 39 23
REMARK SMILES IDX 11 25 12 26 13 27 17 28 14 29 16 30 15 31 2 32 3 33 1 34
REMARK SMILES IDX 37 35 24 37 25 38 26 39 27 40 28 41 36 42 29 43 33 44 30 45
REMARK SMILES IDX 31 46 34 47 35 48 32 49
REMARK H PARENT 39 24 32 50
REMARK Flexibility Score: 90.00
ROOT
ATOM      1  C   UNL     1      78.481  95.027  90.837  1.00  0.00     0.264 C 
ENDROOT
BRANCH   1   2
ATOM      2  C   UNL     1      79.325  93.839  91.234  1.00  0.00    -0.033 C 
ATOM      3  C   UNL     1      79.258  92.708  90.503  1.00  0.00    -0.015 C 
BRANCH   3   4
ATOM      4  C   UNL     1      79.936  91.368  90.733  1.00  0.00     0.078 C 
ATOM      5  O   UNL     1      82.068  91.415  89.479  1.00  0.00    -0.319 OA
ATOM      6  C   UNL     1      81.507  91.331  90.826  1.00  0.00     0.095 C 
ATOM      7  C   UNL     1      81.402  90.616  88.483  1.00  0.00     0.289 C 
ATOM      8  C   UNL     1      81.917  89.945  91.477  1.00  0.00     0.023 C 
ATOM      9  O   UNL     1      80.021  90.953  88.389  1.00  0.00    -0.320 OA
ATOM     10  O   UNL     1      81.440  89.225  88.791  1.00  0.00    -0.313 OA
ATOM     11  C   UNL     1      79.537  90.377  89.612  1.00  0.00     0.170 C 
ATOM     12  C   UNL     1      80.925  88.810  91.077  1.00  0.00     0.049 C 
ATOM     13  C   UNL     1      83.357  89.486  91.200  1.00  0.00     0.011 C 
ATOM     14  C   UNL     1      80.326  89.046  89.689  1.00  0.00     0.122 C 
BRANCH   6  15
ATOM     15  C   UNL     1      82.048  92.597  91.552  1.00  0.00     0.086 C 
ATOM     16  C   UNL     1      81.262  93.053  92.798  1.00  0.00     0.140 CG0
ATOM     17  C   UNL     1      83.479  92.628  92.010  1.00  0.00    -0.010 C 
ATOM     18  C   UNL     1      82.355  93.604  93.689  1.00  0.00     0.190 C 
ATOM     19  G   UNL     1      80.200  94.098  92.460  1.00  0.00     0.000 G0
ATOM     20  C   UNL     1      83.688  93.212  93.194  1.00  0.00    -0.008 C 
ATOM     21  O   UNL     1      82.177  94.245  94.714  1.00  0.00    -0.291 OA
ATOM     22  C   UNL     1      84.951  93.493  93.907  1.00  0.00     0.048 C 
BRANCH  16  23
ATOM     23  O   UNL     1      80.715  91.985  93.555  1.00  0.00    -0.381 OA
ATOM     24  H   UNL     1      79.868  92.277  93.931  1.00  0.00     0.212 HD
ENDBRANCH  16  23
ENDBRANCH   6  15
BRANCH   7  25
ATOM     25  C   UNL     1      82.080  90.857  87.149  1.00  0.00     0.135 C 
BRANCH  25  26
ATOM     26  C   UNL     1      81.808  89.745  86.167  1.00  0.00    -0.040 A 
ATOM     27  C   UNL     1      82.650  88.633  86.123  1.00  0.00     0.004 A 
ATOM     28  C   UNL     1      80.715  89.826  85.306  1.00  0.00     0.004 A 
ATOM     29  C   UNL     1      82.399  87.603  85.216  1.00  0.00     0.000 A 
ATOM     30  C   UNL     1      80.464  88.796  84.398  1.00  0.00     0.000 A 
ATOM     31  C   UNL     1      81.306  87.685  84.353  1.00  0.00     0.000 A 
ENDBRANCH  25  26
ENDBRANCH   7  25
BRANCH  14  32
ATOM     32  C   UNL     1      79.516  87.885  89.209  1.00  0.00    -0.046 C 
ATOM     33  C   UNL     1      80.184  86.975  88.222  1.00  0.00     0.042 C 
ATOM     34  C   UNL     1      78.263  87.669  89.636  1.00  0.00     0.010 C 
ENDBRANCH  14  32
ENDBRANCH   3   4
BRANCH   2  35
ATOM     35  C   UNL     1      80.182  94.100  92.459  1.00  0.00     0.078 CG0
ATOM     36  G   UNL     1      81.245  93.058  92.803  1.00  0.00     0.000 G0
ENDBRANCH   2  35
ENDBRANCH   1   2
BRANCH   1  37
ATOM     37  O   UNL     1      79.077  96.209  91.329  1.00  0.00    -0.461 OA
BRANCH  37  38
ATOM     38  C   UNL     1      79.018  97.308  90.504  1.00  0.00     0.310 C 
ATOM     39  O   UNL     1      78.347  98.309  90.715  1.00  0.00    -0.252 OA
BRANCH  38  40
ATOM     40  C   UNL     1      79.909  97.087  89.304  1.00  0.00     0.158 C 
BRANCH  40  41
ATOM     41  C   UNL     1      81.293  96.623  89.677  1.00  0.00    -0.033 A 
ATOM     42  C   UNL     1      81.947  95.677  88.886  1.00  0.00     0.054 A 
ATOM     43  C   UNL     1      81.920  97.137  90.811  1.00  0.00     0.008 A 
ATOM     44  C   UNL     1      83.229  95.247  89.231  1.00  0.00     0.160 A 
ATOM     45  C   UNL     1      83.201  96.707  91.156  1.00  0.00     0.050 A 
ATOM     46  C   UNL     1      83.856  95.762  90.367  1.00  0.00     0.157 A 
BRANCH  44  47
ATOM     47  O   UNL     1      83.858  94.324  88.452  1.00  0.00    -0.493 OA
ATOM     48  C   UNL     1      83.681  94.438  87.040  1.00  0.00     0.278 C 
ENDBRANCH  44  47
BRANCH  46  49
ATOM     49  O   UNL     1      85.107  95.350  90.712  1.00  0.00    -0.504 OA
ATOM     50  H   UNL     1      85.135  95.192  91.671  1.00  0.00     0.293 HD
ENDBRANCH  46  49
ENDBRANCH  40  41
ENDBRANCH  38  40
ENDBRANCH  37  38
ENDBRANCH   1  37
TORSDOF 11
ENDMDL
