MODEL 1
REMARK VINA RESULT:    -7.067      0.000      0.000
REMARK INTER + INTRA:         -12.125
REMARK INTER:                 -10.991
REMARK INTRA:                  -1.134
REMARK UNBOUND:                -1.134
REMARK SMILES CCCCC/C=C/C(=O)CCc1ccc(O)c(OC)c1
REMARK SMILES IDX 6 1 7 2 8 3 9 4 10 5 11 6 12 7 17 8 20 9 15 10 14 11 13 12
REMARK SMILES IDX 18 13 19 14 16 15 5 17 4 18 3 19 2 20 1 21
REMARK H PARENT 16 16
REMARK Flexibility Score: inf
ROOT
ATOM      1  C   UNL     1      91.957  92.618  74.185  1.00  0.00    -0.023 C 
ATOM      2  C   UNL     1      90.675  92.951  73.992  1.00  0.00     0.043 C 
ENDROOT
BRANCH   2   3
ATOM      3  C   UNL     1      89.963  92.483  72.772  1.00  0.00     0.155 C 
ATOM      4  O   UNL     1      89.484  93.270  71.958  1.00  0.00    -0.295 OA
BRANCH   3   5
ATOM      5  C   UNL     1      89.812  90.983  72.612  1.00  0.00     0.085 C 
BRANCH   5   6
ATOM      6  C   UNL     1      88.782  90.420  73.592  1.00  0.00     0.044 C 
BRANCH   6   7
ATOM      7  C   UNL     1      89.410  89.623  74.711  1.00  0.00    -0.044 A 
ATOM      8  C   UNL     1      89.981  89.399  77.031  1.00  0.00     0.160 A 
ATOM      9  C   UNL     1      89.401  90.136  75.998  1.00  0.00     0.054 A 
ATOM     10  C   UNL     1      90.562  88.160  76.763  1.00  0.00     0.157 A 
ATOM     11  C   UNL     1      90.564  87.657  75.462  1.00  0.00     0.050 A 
ATOM     12  C   UNL     1      89.984  88.394  74.429  1.00  0.00     0.008 A 
BRANCH   8  13
ATOM     13  O   UNL     1      89.974  89.901  78.298  1.00  0.00    -0.493 OA
ATOM     14  C   UNL     1      90.371  91.261  78.458  1.00  0.00     0.278 C 
ENDBRANCH   8  13
BRANCH  10  15
ATOM     15  O   UNL     1      91.132  87.431  77.763  1.00  0.00    -0.504 OA
ATOM     16  H   UNL     1      90.420  87.023  78.286  1.00  0.00     0.293 HD
ENDBRANCH  10  15
ENDBRANCH   6   7
ENDBRANCH   5   6
ENDBRANCH   3   5
ENDBRANCH   2   3
BRANCH   1  17
ATOM     17  C   UNL     1      92.745  93.050  75.388  1.00  0.00     0.027 C 
BRANCH  17  18
ATOM     18  C   UNL     1      92.848  94.573  75.524  1.00  0.00     0.004 C 
BRANCH  18  19
ATOM     19  C   UNL     1      94.283  95.078  75.703  1.00  0.00     0.000 C 
BRANCH  19  20
ATOM     20  C   UNL     1      95.298  94.020  75.269  1.00  0.00    -0.003 C 
ATOM     21  C   UNL     1      96.291  93.712  76.378  1.00  0.00     0.004 C 
ENDBRANCH  19  20
ENDBRANCH  18  19
ENDBRANCH  17  18
ENDBRANCH   1  17
TORSDOF 10
ENDMDL
MODEL 2
REMARK VINA RESULT:    -7.012      1.281      2.226
REMARK INTER + INTRA:         -12.040
REMARK INTER:                 -10.992
REMARK INTRA:                  -1.047
REMARK UNBOUND:                -1.134
REMARK SMILES CCCCC/C=C/C(=O)CCc1ccc(O)c(OC)c1
REMARK SMILES IDX 6 1 7 2 8 3 9 4 10 5 11 6 12 7 17 8 20 9 15 10 14 11 13 12
REMARK SMILES IDX 18 13 19 14 16 15 5 17 4 18 3 19 2 20 1 21
REMARK H PARENT 16 16
REMARK Flexibility Score: inf
ROOT
ATOM      1  C   UNL     1      91.660  93.116  74.055  1.00  0.00    -0.023 C 
ATOM      2  C   UNL     1      91.119  92.107  73.360  1.00  0.00     0.043 C 
ENDROOT
BRANCH   2   3
ATOM      3  C   UNL     1      89.795  92.285  72.704  1.00  0.00     0.155 C 
ATOM      4  O   UNL     1      89.359  93.397  72.413  1.00  0.00    -0.295 OA
BRANCH   3   5
ATOM      5  C   UNL     1      88.988  91.025  72.458  1.00  0.00     0.085 C 
BRANCH   5   6
ATOM      6  C   UNL     1      88.274  90.567  73.731  1.00  0.00     0.044 C 
BRANCH   6   7
ATOM      7  C   UNL     1      89.147  89.713  74.620  1.00  0.00    -0.044 A 
ATOM      8  C   UNL     1      90.047  89.223  76.789  1.00  0.00     0.160 A 
ATOM      9  C   UNL     1      89.241  90.013  75.969  1.00  0.00     0.054 A 
ATOM     10  C   UNL     1      90.748  88.145  76.250  1.00  0.00     0.157 A 
ATOM     11  C   UNL     1      90.643  87.856  74.889  1.00  0.00     0.050 A 
ATOM     12  C   UNL     1      89.837  88.645  74.069  1.00  0.00     0.008 A 
BRANCH   8  13
ATOM     13  O   UNL     1      90.142  89.516  78.117  1.00  0.00    -0.493 OA
ATOM     14  C   UNL     1      89.362  88.726  79.012  1.00  0.00     0.278 C 
ENDBRANCH   8  13
BRANCH  10  15
ATOM     15  O   UNL     1      91.538  87.367  77.041  1.00  0.00    -0.504 OA
ATOM     16  H   UNL     1      92.166  87.944  77.508  1.00  0.00     0.293 HD
ENDBRANCH  10  15
ENDBRANCH   6   7
ENDBRANCH   5   6
ENDBRANCH   3   5
ENDBRANCH   2   3
BRANCH   1  17
ATOM     17  C   UNL     1      92.989  93.016  74.745  1.00  0.00     0.027 C 
BRANCH  17  18
ATOM     18  C   UNL     1      92.961  93.545  76.183  1.00  0.00     0.004 C 
BRANCH  18  19
ATOM     19  C   UNL     1      91.579  94.031  76.632  1.00  0.00     0.000 C 
BRANCH  19  20
ATOM     20  C   UNL     1      90.847  92.951  77.430  1.00  0.00    -0.003 C 
ATOM     21  C   UNL     1      89.340  93.057  77.259  1.00  0.00     0.004 C 
ENDBRANCH  19  20
ENDBRANCH  18  19
ENDBRANCH  17  18
ENDBRANCH   1  17
TORSDOF 10
ENDMDL
MODEL 3
REMARK VINA RESULT:    -6.937      2.379      5.868
REMARK INTER + INTRA:         -11.924
REMARK INTER:                 -10.203
REMARK INTRA:                  -1.721
REMARK UNBOUND:                -1.134
REMARK SMILES CCCCC/C=C/C(=O)CCc1ccc(O)c(OC)c1
REMARK SMILES IDX 6 1 7 2 8 3 9 4 10 5 11 6 12 7 17 8 20 9 15 10 14 11 13 12
REMARK SMILES IDX 18 13 19 14 16 15 5 17 4 18 3 19 2 20 1 21
REMARK H PARENT 16 16
REMARK Flexibility Score: inf
ROOT
ATOM      1  C   UNL     1      90.641  92.965  77.330  1.00  0.00    -0.023 C 
ATOM      2  C   UNL     1      91.957  92.721  77.294  1.00  0.00     0.043 C 
ENDROOT
BRANCH   2   3
ATOM      3  C   UNL     1      92.901  93.803  76.902  1.00  0.00     0.155 C 
ATOM      4  O   UNL     1      93.603  94.382  77.729  1.00  0.00    -0.295 OA
BRANCH   3   5
ATOM      5  C   UNL     1      92.915  94.192  75.437  1.00  0.00     0.085 C 
BRANCH   5   6
ATOM      6  C   UNL     1      92.919  92.957  74.535  1.00  0.00     0.044 C 
BRANCH   6   7
ATOM      7  C   UNL     1      91.586  92.712  73.868  1.00  0.00    -0.044 A 
ATOM      8  C   UNL     1      90.106  91.256  72.664  1.00  0.00     0.160 A 
ATOM      9  C   UNL     1      91.337  91.482  73.280  1.00  0.00     0.054 A 
ATOM     10  C   UNL     1      89.141  92.262  72.644  1.00  0.00     0.157 A 
ATOM     11  C   UNL     1      89.407  93.496  73.240  1.00  0.00     0.050 A 
ATOM     12  C   UNL     1      90.638  93.721  73.856  1.00  0.00     0.008 A 
BRANCH   8  13
ATOM     13  O   UNL     1      89.858  90.048  72.085  1.00  0.00    -0.493 OA
ATOM     14  C   UNL     1      90.168  89.917  70.699  1.00  0.00     0.278 C 
ENDBRANCH   8  13
BRANCH  10  15
ATOM     15  O   UNL     1      87.935  92.054  72.047  1.00  0.00    -0.504 OA
ATOM     16  H   UNL     1      87.610  91.176  72.312  1.00  0.00     0.293 HD
ENDBRANCH  10  15
ENDBRANCH   6   7
ENDBRANCH   5   6
ENDBRANCH   3   5
ENDBRANCH   2   3
BRANCH   1  17
ATOM     17  C   UNL     1      89.625  91.929  77.713  1.00  0.00     0.027 C 
BRANCH  17  18
ATOM     18  C   UNL     1      89.218  91.024  76.545  1.00  0.00     0.004 C 
BRANCH  18  19
ATOM     19  C   UNL     1      89.625  89.559  76.733  1.00  0.00     0.000 C 
BRANCH  19  20
ATOM     20  C   UNL     1      89.695  88.830  75.391  1.00  0.00    -0.003 C 
ATOM     21  C   UNL     1      91.099  88.321  75.105  1.00  0.00     0.004 C 
ENDBRANCH  19  20
ENDBRANCH  18  19
ENDBRANCH  17  18
ENDBRANCH   1  17
TORSDOF 10
ENDMDL
MODEL 4
REMARK VINA RESULT:    -6.795      2.117      5.446
REMARK INTER + INTRA:         -11.702
REMARK INTER:                 -10.332
REMARK INTRA:                  -1.370
REMARK UNBOUND:                -1.134
REMARK SMILES CCCCC/C=C/C(=O)CCc1ccc(O)c(OC)c1
REMARK SMILES IDX 6 1 7 2 8 3 9 4 10 5 11 6 12 7 17 8 20 9 15 10 14 11 13 12
REMARK SMILES IDX 18 13 19 14 16 15 5 17 4 18 3 19 2 20 1 21
REMARK H PARENT 16 16
REMARK Flexibility Score: inf
ROOT
ATOM      1  C   UNL     1      90.010  89.168  73.866  1.00  0.00    -0.023 C 
ATOM      2  C   UNL     1      89.959  89.806  72.690  1.00  0.00     0.043 C 
ENDROOT
BRANCH   2   3
ATOM      3  C   UNL     1      88.858  90.769  72.415  1.00  0.00     0.155 C 
ATOM      4  O   UNL     1      88.021  90.565  71.538  1.00  0.00    -0.295 OA
BRANCH   3   5
ATOM      5  C   UNL     1      88.852  92.042  73.239  1.00  0.00     0.085 C 
BRANCH   5   6
ATOM      6  C   UNL     1      90.176  92.796  73.105  1.00  0.00     0.044 C 
BRANCH   6   7
ATOM      7  C   UNL     1      90.926  92.902  74.411  1.00  0.00    -0.044 A 
ATOM      8  C   UNL     1      92.731  93.822  75.697  1.00  0.00     0.160 A 
ATOM      9  C   UNL     1      92.039  93.725  74.490  1.00  0.00     0.054 A 
ATOM     10  C   UNL     1      92.303  93.096  76.808  1.00  0.00     0.157 A 
ATOM     11  C   UNL     1      91.182  92.271  76.712  1.00  0.00     0.050 A 
ATOM     12  C   UNL     1      90.489  92.174  75.505  1.00  0.00     0.008 A 
BRANCH   8  13
ATOM     13  O   UNL     1      93.825  94.631  75.778  1.00  0.00    -0.493 OA
ATOM     14  C   UNL     1      95.069  94.083  75.347  1.00  0.00     0.278 C 
ENDBRANCH   8  13
BRANCH  10  15
ATOM     15  O   UNL     1      92.971  93.183  77.992  1.00  0.00    -0.504 OA
ATOM     16  H   UNL     1      93.580  92.427  78.056  1.00  0.00     0.293 HD
ENDBRANCH  10  15
ENDBRANCH   6   7
ENDBRANCH   5   6
ENDBRANCH   3   5
ENDBRANCH   2   3
BRANCH   1  17
ATOM     17  C   UNL     1      91.086  88.183  74.219  1.00  0.00     0.027 C 
BRANCH  17  18
ATOM     18  C   UNL     1      91.020  87.717  75.677  1.00  0.00     0.004 C 
BRANCH  18  19
ATOM     19  C   UNL     1      89.792  88.235  76.432  1.00  0.00     0.000 C 
BRANCH  19  20
ATOM     20  C   UNL     1      89.858  87.864  77.914  1.00  0.00    -0.003 C 
ATOM     21  C   UNL     1      89.705  89.088  78.803  1.00  0.00     0.004 C 
ENDBRANCH  19  20
ENDBRANCH  18  19
ENDBRANCH  17  18
ENDBRANCH   1  17
TORSDOF 10
ENDMDL
MODEL 5
REMARK VINA RESULT:    -6.793      2.078      4.813
REMARK INTER + INTRA:         -11.698
REMARK INTER:                 -10.434
REMARK INTRA:                  -1.264
REMARK UNBOUND:                -1.134
REMARK SMILES CCCCC/C=C/C(=O)CCc1ccc(O)c(OC)c1
REMARK SMILES IDX 6 1 7 2 8 3 9 4 10 5 11 6 12 7 17 8 20 9 15 10 14 11 13 12
REMARK SMILES IDX 18 13 19 14 16 15 5 17 4 18 3 19 2 20 1 21
REMARK H PARENT 16 16
REMARK Flexibility Score: inf
ROOT
ATOM      1  C   UNL     1      90.831  93.071  74.089  1.00  0.00    -0.023 C 
ATOM      2  C   UNL     1      92.045  93.233  74.630  1.00  0.00     0.043 C 
ENDROOT
BRANCH   2   3
ATOM      3  C   UNL     1      92.183  93.874  75.966  1.00  0.00     0.155 C 
ATOM      4  O   UNL     1      92.433  95.072  76.089  1.00  0.00    -0.295 OA
BRANCH   3   5
ATOM      5  C   UNL     1      92.051  92.963  77.170  1.00  0.00     0.085 C 
BRANCH   5   6
ATOM      6  C   UNL     1      90.583  92.677  77.492  1.00  0.00     0.044 C 
BRANCH   6   7
ATOM      7  C   UNL     1      90.302  91.207  77.700  1.00  0.00    -0.044 A 
ATOM      8  C   UNL     1      89.939  89.016  76.791  1.00  0.00     0.160 A 
ATOM      9  C   UNL     1      90.198  90.373  76.598  1.00  0.00     0.054 A 
ATOM     10  C   UNL     1      89.788  88.511  78.082  1.00  0.00     0.157 A 
ATOM     11  C   UNL     1      89.895  89.364  79.181  1.00  0.00     0.050 A 
ATOM     12  C   UNL     1      90.154  90.721  78.988  1.00  0.00     0.008 A 
BRANCH   8  13
ATOM     13  O   UNL     1      89.836  88.194  75.710  1.00  0.00    -0.493 OA
ATOM     14  C   UNL     1      91.036  87.916  74.990  1.00  0.00     0.278 C 
ENDBRANCH   8  13
BRANCH  10  15
ATOM     15  O   UNL     1      89.535  87.188  78.283  1.00  0.00    -0.504 OA
ATOM     16  H   UNL     1      88.905  87.106  79.020  1.00  0.00     0.293 HD
ENDBRANCH  10  15
ENDBRANCH   6   7
ENDBRANCH   5   6
ENDBRANCH   3   5
ENDBRANCH   2   3
BRANCH   1  17
ATOM     17  C   UNL     1      90.609  92.435  72.748  1.00  0.00     0.027 C 
BRANCH  17  18
ATOM     18  C   UNL     1      90.405  90.918  72.828  1.00  0.00     0.004 C 
BRANCH  18  19
ATOM     19  C   UNL     1      89.519  90.359  71.710  1.00  0.00     0.000 C 
BRANCH  19  20
ATOM     20  C   UNL     1      88.044  90.371  72.117  1.00  0.00    -0.003 C 
ATOM     21  C   UNL     1      87.884  90.399  73.629  1.00  0.00     0.004 C 
ENDBRANCH  19  20
ENDBRANCH  18  19
ENDBRANCH  17  18
ENDBRANCH   1  17
TORSDOF 10
ENDMDL
MODEL 6
REMARK VINA RESULT:    -6.321      2.805      6.601
REMARK INTER + INTRA:         -10.964
REMARK INTER:                  -9.776
REMARK INTRA:                  -1.188
REMARK UNBOUND:                -1.134
REMARK SMILES CCCCC/C=C/C(=O)CCc1ccc(O)c(OC)c1
REMARK SMILES IDX 6 1 7 2 8 3 9 4 10 5 11 6 12 7 17 8 20 9 15 10 14 11 13 12
REMARK SMILES IDX 18 13 19 14 16 15 5 17 4 18 3 19 2 20 1 21
REMARK H PARENT 16 16
REMARK Flexibility Score: inf
ROOT
ATOM      1  C   UNL     1      89.536  89.818  75.815  1.00  0.00    -0.023 C 
ATOM      2  C   UNL     1      90.406  90.775  76.160  1.00  0.00     0.043 C 
ENDROOT
BRANCH   2   3
ATOM      3  C   UNL     1      90.534  91.182  77.586  1.00  0.00     0.155 C 
ATOM      4  O   UNL     1      89.996  90.549  78.492  1.00  0.00    -0.295 OA
BRANCH   3   5
ATOM      5  C   UNL     1      91.319  92.450  77.859  1.00  0.00     0.085 C 
BRANCH   5   6
ATOM      6  C   UNL     1      91.303  93.385  76.649  1.00  0.00     0.044 C 
BRANCH   6   7
ATOM      7  C   UNL     1      92.624  94.083  76.429  1.00  0.00    -0.044 A 
ATOM      8  C   UNL     1      94.831  94.634  77.192  1.00  0.00     0.160 A 
ATOM      9  C   UNL     1      93.611  93.989  77.396  1.00  0.00     0.054 A 
ATOM     10  C   UNL     1      95.048  95.363  76.023  1.00  0.00     0.157 A 
ATOM     11  C   UNL     1      94.044  95.449  75.058  1.00  0.00     0.050 A 
ATOM     12  C   UNL     1      92.824  94.804  75.263  1.00  0.00     0.008 A 
BRANCH   8  13
ATOM     13  O   UNL     1      95.804  94.543  78.142  1.00  0.00    -0.493 OA
ATOM     14  C   UNL     1      95.408  94.747  79.497  1.00  0.00     0.278 C 
ENDBRANCH   8  13
BRANCH  10  15
ATOM     15  O   UNL     1      96.236  95.997  75.812  1.00  0.00    -0.504 OA
ATOM     16  H   UNL     1      96.883  95.653  76.451  1.00  0.00     0.293 HD
ENDBRANCH  10  15
ENDBRANCH   6   7
ENDBRANCH   5   6
ENDBRANCH   3   5
ENDBRANCH   2   3
BRANCH   1  17
ATOM     17  C   UNL     1      89.348  89.351  74.400  1.00  0.00     0.027 C 
BRANCH  17  18
ATOM     18  C   UNL     1      90.221  90.111  73.395  1.00  0.00     0.004 C 
BRANCH  18  19
ATOM     19  C   UNL     1      89.419  90.817  72.297  1.00  0.00     0.000 C 
BRANCH  19  20
ATOM     20  C   UNL     1      90.001  92.199  71.993  1.00  0.00    -0.003 C 
ATOM     21  C   UNL     1      90.048  93.070  73.238  1.00  0.00     0.004 C 
ENDBRANCH  19  20
ENDBRANCH  18  19
ENDBRANCH  17  18
ENDBRANCH   1  17
TORSDOF 10
ENDMDL
MODEL 7
REMARK VINA RESULT:    -6.204      2.139      5.157
REMARK INTER + INTRA:         -10.783
REMARK INTER:                  -9.967
REMARK INTRA:                  -0.816
REMARK UNBOUND:                -1.134
REMARK SMILES CCCCC/C=C/C(=O)CCc1ccc(O)c(OC)c1
REMARK SMILES IDX 6 1 7 2 8 3 9 4 10 5 11 6 12 7 17 8 20 9 15 10 14 11 13 12
REMARK SMILES IDX 18 13 19 14 16 15 5 17 4 18 3 19 2 20 1 21
REMARK H PARENT 16 16
REMARK Flexibility Score: inf
ROOT
ATOM      1  C   UNL     1      89.832  89.464  73.861  1.00  0.00    -0.023 C 
ATOM      2  C   UNL     1      89.651  89.952  72.628  1.00  0.00     0.043 C 
ENDROOT
BRANCH   2   3
ATOM      3  C   UNL     1      88.617  90.995  72.387  1.00  0.00     0.155 C 
ATOM      4  O   UNL     1      87.587  90.755  71.761  1.00  0.00    -0.295 OA
BRANCH   3   5
ATOM      5  C   UNL     1      88.924  92.385  72.909  1.00  0.00     0.085 C 
BRANCH   5   6
ATOM      6  C   UNL     1      90.404  92.730  72.733  1.00  0.00     0.044 C 
BRANCH   6   7
ATOM      7  C   UNL     1      91.130  92.889  74.048  1.00  0.00    -0.044 A 
ATOM      8  C   UNL     1      91.076  93.036  76.443  1.00  0.00     0.160 A 
ATOM      9  C   UNL     1      90.404  92.890  75.229  1.00  0.00     0.054 A 
ATOM     10  C   UNL     1      92.462  93.181  76.461  1.00  0.00     0.157 A 
ATOM     11  C   UNL     1      93.179  93.179  75.263  1.00  0.00     0.050 A 
ATOM     12  C   UNL     1      92.508  93.032  74.049  1.00  0.00     0.008 A 
BRANCH   8  13
ATOM     13  O   UNL     1      90.364  93.037  77.605  1.00  0.00    -0.493 OA
ATOM     14  C   UNL     1      90.003  91.768  78.145  1.00  0.00     0.278 C 
ENDBRANCH   8  13
BRANCH  10  15
ATOM     15  O   UNL     1      93.129  93.325  77.640  1.00  0.00    -0.504 OA
ATOM     16  H   UNL     1      92.880  92.587  78.223  1.00  0.00     0.293 HD
ENDBRANCH  10  15
ENDBRANCH   6   7
ENDBRANCH   5   6
ENDBRANCH   3   5
ENDBRANCH   2   3
BRANCH   1  17
ATOM     17  C   UNL     1      90.852  88.412  74.186  1.00  0.00     0.027 C 
BRANCH  17  18
ATOM     18  C   UNL     1      91.027  88.188  75.692  1.00  0.00     0.004 C 
BRANCH  18  19
ATOM     19  C   UNL     1      89.709  87.936  76.432  1.00  0.00     0.000 C 
BRANCH  19  20
ATOM     20  C   UNL     1      89.961  87.546  77.889  1.00  0.00    -0.003 C 
ATOM     21  C   UNL     1      89.534  88.651  78.843  1.00  0.00     0.004 C 
ENDBRANCH  19  20
ENDBRANCH  18  19
ENDBRANCH  17  18
ENDBRANCH   1  17
TORSDOF 10
ENDMDL
MODEL 8
REMARK VINA RESULT:    -5.961      3.040      6.869
REMARK INTER + INTRA:         -10.406
REMARK INTER:                  -9.663
REMARK INTRA:                  -0.743
REMARK UNBOUND:                -1.134
REMARK SMILES CCCCC/C=C/C(=O)CCc1ccc(O)c(OC)c1
REMARK SMILES IDX 6 1 7 2 8 3 9 4 10 5 11 6 12 7 17 8 20 9 15 10 14 11 13 12
REMARK SMILES IDX 18 13 19 14 16 15 5 17 4 18 3 19 2 20 1 21
REMARK H PARENT 16 16
REMARK Flexibility Score: inf
ROOT
ATOM      1  C   UNL     1      89.605  90.971  75.395  1.00  0.00    -0.023 C 
ATOM      2  C   UNL     1      90.049  92.223  75.229  1.00  0.00     0.043 C 
ENDROOT
BRANCH   2   3
ATOM      3  C   UNL     1      90.156  93.133  76.401  1.00  0.00     0.155 C 
ATOM      4  O   UNL     1      89.570  92.904  77.457  1.00  0.00    -0.295 OA
BRANCH   3   5
ATOM      5  C   UNL     1      90.986  94.388  76.209  1.00  0.00     0.085 C 
BRANCH   5   6
ATOM      6  C   UNL     1      92.122  94.155  75.212  1.00  0.00     0.044 C 
BRANCH   6   7
ATOM      7  C   UNL     1      93.472  94.565  75.754  1.00  0.00    -0.044 A 
ATOM      8  C   UNL     1      95.219  94.310  77.379  1.00  0.00     0.160 A 
ATOM      9  C   UNL     1      93.972  93.931  76.880  1.00  0.00     0.054 A 
ATOM     10  C   UNL     1      95.948  95.316  76.746  1.00  0.00     0.157 A 
ATOM     11  C   UNL     1      95.430  95.945  75.613  1.00  0.00     0.050 A 
ATOM     12  C   UNL     1      94.183  95.566  75.114  1.00  0.00     0.008 A 
BRANCH   8  13
ATOM     13  O   UNL     1      95.713  93.688  78.486  1.00  0.00    -0.493 OA
ATOM     14  C   UNL     1      95.364  94.244  79.752  1.00  0.00     0.278 C 
ENDBRANCH   8  13
BRANCH  10  15
ATOM     15  O   UNL     1      97.166  95.694  77.224  1.00  0.00    -0.504 OA
ATOM     16  H   UNL     1      97.397  95.110  77.967  1.00  0.00     0.293 HD
ENDBRANCH  10  15
ENDBRANCH   6   7
ENDBRANCH   5   6
ENDBRANCH   3   5
ENDBRANCH   2   3
BRANCH   1  17
ATOM     17  C   UNL     1      89.468  89.992  74.265  1.00  0.00     0.027 C 
BRANCH  17  18
ATOM     18  C   UNL     1      89.123  88.575  74.735  1.00  0.00     0.004 C 
BRANCH  18  19
ATOM     19  C   UNL     1      90.344  87.658  74.865  1.00  0.00     0.000 C 
BRANCH  19  20
ATOM     20  C   UNL     1      91.040  87.855  76.213  1.00  0.00    -0.003 C 
ATOM     21  C   UNL     1      90.039  87.891  77.357  1.00  0.00     0.004 C 
ENDBRANCH  19  20
ENDBRANCH  18  19
ENDBRANCH  17  18
ENDBRANCH   1  17
TORSDOF 10
ENDMDL
MODEL 9
REMARK VINA RESULT:    -5.871      3.205      5.518
REMARK INTER + INTRA:         -10.264
REMARK INTER:                  -9.350
REMARK INTRA:                  -0.915
REMARK UNBOUND:                -1.134
REMARK SMILES CCCCC/C=C/C(=O)CCc1ccc(O)c(OC)c1
REMARK SMILES IDX 6 1 7 2 8 3 9 4 10 5 11 6 12 7 17 8 20 9 15 10 14 11 13 12
REMARK SMILES IDX 18 13 19 14 16 15 5 17 4 18 3 19 2 20 1 21
REMARK H PARENT 16 16
REMARK Flexibility Score: inf
ROOT
ATOM      1  C   UNL     1      95.543  96.244  75.133  1.00  0.00    -0.023 C 
ATOM      2  C   UNL     1      94.589  95.325  75.323  1.00  0.00     0.043 C 
ENDROOT
BRANCH   2   3
ATOM      3  C   UNL     1      94.770  94.270  76.357  1.00  0.00     0.155 C 
ATOM      4  O   UNL     1      95.792  93.589  76.417  1.00  0.00    -0.295 OA
BRANCH   3   5
ATOM      5  C   UNL     1      93.606  94.043  77.302  1.00  0.00     0.085 C 
BRANCH   5   6
ATOM      6  C   UNL     1      92.320  94.669  76.760  1.00  0.00     0.044 C 
BRANCH   6   7
ATOM      7  C   UNL     1      91.298  93.639  76.340  1.00  0.00    -0.044 A 
ATOM      8  C   UNL     1      90.175  92.420  74.605  1.00  0.00     0.160 A 
ATOM      9  C   UNL     1      91.119  93.371  74.992  1.00  0.00     0.054 A 
ATOM     10  C   UNL     1      89.422  91.750  75.569  1.00  0.00     0.157 A 
ATOM     11  C   UNL     1      89.613  92.033  76.923  1.00  0.00     0.050 A 
ATOM     12  C   UNL     1      90.557  92.984  77.310  1.00  0.00     0.008 A 
BRANCH   8  13
ATOM     13  O   UNL     1      89.998  92.153  73.281  1.00  0.00    -0.493 OA
ATOM     14  C   UNL     1      89.228  93.089  72.528  1.00  0.00     0.278 C 
ENDBRANCH   8  13
BRANCH  10  15
ATOM     15  O   UNL     1      88.498  90.820  75.203  1.00  0.00    -0.504 OA
ATOM     16  H   UNL     1      88.615  90.628  74.257  1.00  0.00     0.293 HD
ENDBRANCH  10  15
ENDBRANCH   6   7
ENDBRANCH   5   6
ENDBRANCH   3   5
ENDBRANCH   2   3
BRANCH   1  17
ATOM     17  C   UNL     1      95.436  97.338  74.111  1.00  0.00     0.027 C 
BRANCH  17  18
ATOM     18  C   UNL     1      93.993  97.789  73.861  1.00  0.00     0.004 C 
BRANCH  18  19
ATOM     19  C   UNL     1      93.863  98.853  72.766  1.00  0.00     0.000 C 
BRANCH  19  20
ATOM     20  C   UNL     1      93.621  98.211  71.399  1.00  0.00    -0.003 C 
ATOM     21  C   UNL     1      94.797  98.434  70.462  1.00  0.00     0.004 C 
ENDBRANCH  19  20
ENDBRANCH  18  19
ENDBRANCH  17  18
ENDBRANCH   1  17
TORSDOF 10
ENDMDL
MODEL 10
REMARK VINA RESULT:    -5.485      4.724      8.236
REMARK INTER + INTRA:          -9.665
REMARK INTER:                  -8.869
REMARK INTRA:                  -0.796
REMARK UNBOUND:                -1.134
REMARK SMILES CCCCC/C=C/C(=O)CCc1ccc(O)c(OC)c1
REMARK SMILES IDX 6 1 7 2 8 3 9 4 10 5 11 6 12 7 17 8 20 9 15 10 14 11 13 12
REMARK SMILES IDX 18 13 19 14 16 15 5 17 4 18 3 19 2 20 1 21
REMARK H PARENT 16 16
REMARK Flexibility Score: inf
ROOT
ATOM      1  C   UNL     1      92.629  93.417  76.433  1.00  0.00    -0.023 C 
ATOM      2  C   UNL     1      93.368  94.412  76.940  1.00  0.00     0.043 C 
ENDROOT
BRANCH   2   3
ATOM      3  C   UNL     1      94.497  94.974  76.150  1.00  0.00     0.155 C 
ATOM      4  O   UNL     1      94.351  95.356  74.991  1.00  0.00    -0.295 OA
BRANCH   3   5
ATOM      5  C   UNL     1      95.851  95.003  76.832  1.00  0.00     0.085 C 
BRANCH   5   6
ATOM      6  C   UNL     1      95.935  93.956  77.944  1.00  0.00     0.044 C 
BRANCH   6   7
ATOM      7  C   UNL     1      95.943  94.565  79.326  1.00  0.00    -0.044 A 
ATOM      8  C   UNL     1      96.312  96.457  80.756  1.00  0.00     0.160 A 
ATOM      9  C   UNL     1      96.305  95.894  79.480  1.00  0.00     0.054 A 
ATOM     10  C   UNL     1      95.958  95.684  81.862  1.00  0.00     0.157 A 
ATOM     11  C   UNL     1      95.598  94.346  81.691  1.00  0.00     0.050 A 
ATOM     12  C   UNL     1      95.590  93.784  80.414  1.00  0.00     0.008 A 
BRANCH   8  13
ATOM     13  O   UNL     1      96.666  97.763  80.910  1.00  0.00    -0.493 OA
ATOM     14  C   UNL     1      98.060  98.066  80.871  1.00  0.00     0.278 C 
ENDBRANCH   8  13
BRANCH  10  15
ATOM     15  O   UNL     1      95.961  96.222  83.113  1.00  0.00    -0.504 OA
ATOM     16  H   UNL     1      96.741  96.798  83.196  1.00  0.00     0.293 HD
ENDBRANCH  10  15
ENDBRANCH   6   7
ENDBRANCH   5   6
ENDBRANCH   3   5
ENDBRANCH   2   3
BRANCH   1  17
ATOM     17  C   UNL     1      91.475  92.796  77.165  1.00  0.00     0.027 C 
BRANCH  17  18
ATOM     18  C   UNL     1      90.148  92.919  76.411  1.00  0.00     0.004 C 
BRANCH  18  19
ATOM     19  C   UNL     1      90.231  92.479  74.946  1.00  0.00     0.000 C 
BRANCH  19  20
ATOM     20  C   UNL     1      89.387  91.228  74.696  1.00  0.00    -0.003 C 
ATOM     21  C   UNL     1      88.776  90.702  75.985  1.00  0.00     0.004 C 
ENDBRANCH  19  20
ENDBRANCH  18  19
ENDBRANCH  17  18
ENDBRANCH   1  17
TORSDOF 10
ENDMDL
