MODEL 1
REMARK VINA RESULT:    -6.637      0.000      0.000
REMARK INTER + INTRA:         -11.666
REMARK INTER:                 -10.712
REMARK INTRA:                  -0.955
REMARK UNBOUND:                -0.955
REMARK SMILES COc1cc(CNC(=O)CCCCCCC(C)C)ccc1O
REMARK SMILES IDX 11 1 10 2 8 3 7 4 9 6 6 7 5 8 3 9 21 10 4 11 20 12 19 13
REMARK SMILES IDX 2 14 1 15 22 16 12 18 13 19 14 20 15 21 16 22 17 23 18 24
REMARK H PARENT 7 5 22 17
REMARK Flexibility Score: inf
ROOT
ATOM      1  C   UNL     1      94.485  93.689  75.396  1.00  0.00     0.010 C 
ENDROOT
BRANCH   1   2
ATOM      2  C   UNL     1      93.462  94.801  75.032  1.00  0.00     0.100 C 
BRANCH   2   3
ATOM      3  C   UNL     1      92.080  94.487  75.459  1.00  0.00     0.220 C 
ATOM      4  N   UNL     1      91.377  93.494  74.842  1.00  0.00    -0.352 N 
ATOM      5  H   UNL     1      91.859  93.052  74.073  1.00  0.00     0.163 HD
ATOM      6  O   UNL     1      91.583  95.136  76.412  1.00  0.00    -0.275 OA
BRANCH   4   7
ATOM      7  C   UNL     1      90.061  93.065  75.206  1.00  0.00     0.151 C 
BRANCH   7   8
ATOM      8  C   UNL     1      90.059  91.938  76.179  1.00  0.00    -0.025 A 
ATOM      9  C   UNL     1      89.971  89.525  76.642  1.00  0.00     0.160 A 
ATOM     10  C   UNL     1      90.100  89.783  78.024  1.00  0.00     0.157 A 
ATOM     11  C   UNL     1      89.933  90.603  75.733  1.00  0.00     0.056 A 
ATOM     12  C   UNL     1      90.187  91.109  78.483  1.00  0.00     0.050 A 
ATOM     13  C   UNL     1      90.177  92.180  77.568  1.00  0.00     0.009 A 
BRANCH   9  14
ATOM     14  O   UNL     1      89.846  88.240  76.188  1.00  0.00    -0.493 OA
ATOM     15  C   UNL     1      91.038  87.725  75.567  1.00  0.00     0.278 C 
ENDBRANCH   9  14
BRANCH  10  16
ATOM     16  O   UNL     1      90.138  88.763  78.922  1.00  0.00    -0.504 OA
ATOM     17  H   UNL     1      89.302  88.722  79.394  1.00  0.00     0.293 HD
ENDBRANCH  10  16
ENDBRANCH   7   8
ENDBRANCH   4   7
ENDBRANCH   2   3
ENDBRANCH   1   2
BRANCH   1  18
ATOM     18  C   UNL     1      95.950  94.209  75.372  1.00  0.00     0.001 C 
BRANCH  18  19
ATOM     19  C   UNL     1      96.570  94.399  76.785  1.00  0.00     0.000 C 
BRANCH  19  20
ATOM     20  C   UNL     1      95.660  93.799  77.894  1.00  0.00     0.000 C 
BRANCH  20  21
ATOM     21  C   UNL     1      94.831  94.855  78.677  1.00  0.00     0.003 C 
BRANCH  21  22
ATOM     22  C   UNL     1      95.263  95.045  80.168  1.00  0.00    -0.017 C 
ATOM     23  C   UNL     1      96.332  96.168  80.285  1.00  0.00     0.007 C 
ATOM     24  C   UNL     1      95.769  93.738  80.845  1.00  0.00     0.007 C 
ENDBRANCH  21  22
ENDBRANCH  20  21
ENDBRANCH  19  20
ENDBRANCH  18  19
ENDBRANCH   1  18
TORSDOF 11
ENDMDL
MODEL 2
REMARK VINA RESULT:    -6.499      1.507      2.054
REMARK INTER + INTRA:         -11.442
REMARK INTER:                 -10.655
REMARK INTRA:                  -0.787
REMARK UNBOUND:                -0.955
REMARK SMILES COc1cc(CNC(=O)CCCCCCC(C)C)ccc1O
REMARK SMILES IDX 11 1 10 2 8 3 7 4 9 6 6 7 5 8 3 9 21 10 4 11 20 12 19 13
REMARK SMILES IDX 2 14 1 15 22 16 12 18 13 19 14 20 15 21 16 22 17 23 18 24
REMARK H PARENT 7 5 22 17
REMARK Flexibility Score: inf
ROOT
ATOM      1  C   UNL     1      93.856  94.222  75.508  1.00  0.00     0.010 C 
ENDROOT
BRANCH   1   2
ATOM      2  C   UNL     1      92.436  94.717  75.901  1.00  0.00     0.100 C 
BRANCH   2   3
ATOM      3  C   UNL     1      91.715  93.779  76.790  1.00  0.00     0.220 C 
ATOM      4  N   UNL     1      90.370  93.596  76.653  1.00  0.00    -0.352 N 
ATOM      5  H   UNL     1      89.936  94.173  75.948  1.00  0.00     0.163 HD
ATOM      6  O   UNL     1      92.371  93.142  77.651  1.00  0.00    -0.275 OA
BRANCH   4   7
ATOM      7  C   UNL     1      89.580  92.675  77.414  1.00  0.00     0.151 C 
BRANCH   7   8
ATOM      8  C   UNL     1      89.572  91.300  76.845  1.00  0.00    -0.025 A 
ATOM      9  C   UNL     1      89.214  89.784  74.942  1.00  0.00     0.160 A 
ATOM     10  C   UNL     1      89.597  88.685  75.741  1.00  0.00     0.157 A 
ATOM     11  C   UNL     1      89.187  91.078  75.504  1.00  0.00     0.056 A 
ATOM     12  C   UNL     1      89.945  88.888  77.089  1.00  0.00     0.050 A 
ATOM     13  C   UNL     1      89.944  90.186  77.636  1.00  0.00     0.009 A 
BRANCH   9  14
ATOM     14  O   UNL     1      88.836  89.593  73.641  1.00  0.00    -0.493 OA
ATOM     15  C   UNL     1      89.859  89.923  72.684  1.00  0.00     0.278 C 
ENDBRANCH   9  14
BRANCH  10  16
ATOM     16  O   UNL     1      89.631  87.428  75.227  1.00  0.00    -0.504 OA
ATOM     17  H   UNL     1      89.255  87.434  74.344  1.00  0.00     0.293 HD
ENDBRANCH  10  16
ENDBRANCH   7   8
ENDBRANCH   4   7
ENDBRANCH   2   3
ENDBRANCH   1   2
BRANCH   1  18
ATOM     18  C   UNL     1      94.974  95.159  76.047  1.00  0.00     0.001 C 
BRANCH  18  19
ATOM     19  C   UNL     1      95.974  94.452  77.005  1.00  0.00     0.000 C 
BRANCH  19  20
ATOM     20  C   UNL     1      95.439  94.414  78.464  1.00  0.00     0.000 C 
BRANCH  20  21
ATOM     21  C   UNL     1      96.063  95.485  79.401  1.00  0.00     0.003 C 
BRANCH  21  22
ATOM     22  C   UNL     1      95.553  95.434  80.878  1.00  0.00    -0.017 C 
ATOM     23  C   UNL     1      96.115  96.635  81.689  1.00  0.00     0.007 C 
ATOM     24  C   UNL     1      95.866  94.092  81.602  1.00  0.00     0.007 C 
ENDBRANCH  21  22
ENDBRANCH  20  21
ENDBRANCH  19  20
ENDBRANCH  18  19
ENDBRANCH   1  18
TORSDOF 11
ENDMDL
MODEL 3
REMARK VINA RESULT:    -6.372      3.048      7.644
REMARK INTER + INTRA:         -11.239
REMARK INTER:                 -10.144
REMARK INTRA:                  -1.094
REMARK UNBOUND:                -0.955
REMARK SMILES COc1cc(CNC(=O)CCCCCCC(C)C)ccc1O
REMARK SMILES IDX 11 1 10 2 8 3 7 4 9 6 6 7 5 8 3 9 21 10 4 11 20 12 19 13
REMARK SMILES IDX 2 14 1 15 22 16 12 18 13 19 14 20 15 21 16 22 17 23 18 24
REMARK H PARENT 7 5 22 17
REMARK Flexibility Score: inf
ROOT
ATOM      1  C   UNL     1      91.768  94.795  76.539  1.00  0.00     0.010 C 
ENDROOT
BRANCH   1   2
ATOM      2  C   UNL     1      92.690  94.747  75.290  1.00  0.00     0.100 C 
BRANCH   2   3
ATOM      3  C   UNL     1      94.125  94.605  75.627  1.00  0.00     0.220 C 
ATOM      4  N   UNL     1      94.714  95.463  76.508  1.00  0.00    -0.352 N 
ATOM      5  H   UNL     1      94.110  96.195  76.851  1.00  0.00     0.163 HD
ATOM      6  O   UNL     1      94.775  93.666  75.105  1.00  0.00    -0.275 OA
BRANCH   4   7
ATOM      7  C   UNL     1      96.073  95.387  76.953  1.00  0.00     0.151 C 
BRANCH   7   8
ATOM      8  C   UNL     1      96.199  95.080  78.404  1.00  0.00    -0.025 A 
ATOM      9  C   UNL     1      97.262  95.493  80.583  1.00  0.00     0.160 A 
ATOM     10  C   UNL     1      96.416  94.532  81.180  1.00  0.00     0.157 A 
ATOM     11  C   UNL     1      97.160  95.745  79.199  1.00  0.00     0.056 A 
ATOM     12  C   UNL     1      95.482  93.836  80.392  1.00  0.00     0.050 A 
ATOM     13  C   UNL     1      95.366  94.114  79.016  1.00  0.00     0.009 A 
BRANCH   9  14
ATOM     14  O   UNL     1      98.201  96.147  81.333  1.00  0.00    -0.493 OA
ATOM     15  C   UNL     1      99.513  96.155  80.742  1.00  0.00     0.278 C 
ENDBRANCH   9  14
BRANCH  10  16
ATOM     16  O   UNL     1      96.493  94.267  82.511  1.00  0.00    -0.504 OA
ATOM     17  H   UNL     1      97.188  93.623  82.668  1.00  0.00     0.293 HD
ENDBRANCH  10  16
ENDBRANCH   7   8
ENDBRANCH   4   7
ENDBRANCH   2   3
ENDBRANCH   1   2
BRANCH   1  18
ATOM     18  C   UNL     1      90.349  94.232  76.242  1.00  0.00     0.001 C 
BRANCH  18  19
ATOM     19  C   UNL     1      89.969  93.000  77.111  1.00  0.00     0.000 C 
BRANCH  19  20
ATOM     20  C   UNL     1      90.994  91.843  76.942  1.00  0.00     0.000 C 
BRANCH  20  21
ATOM     21  C   UNL     1      90.429  90.592  76.215  1.00  0.00     0.003 C 
BRANCH  21  22
ATOM     22  C   UNL     1      91.255  90.136  74.968  1.00  0.00    -0.017 C 
ATOM     23  C   UNL     1      91.866  91.366  74.241  1.00  0.00     0.007 C 
ATOM     24  C   UNL     1      90.445  89.259  73.968  1.00  0.00     0.007 C 
ENDBRANCH  21  22
ENDBRANCH  20  21
ENDBRANCH  19  20
ENDBRANCH  18  19
ENDBRANCH   1  18
TORSDOF 11
ENDMDL
MODEL 4
REMARK VINA RESULT:    -6.363      2.169      3.691
REMARK INTER + INTRA:         -11.223
REMARK INTER:                 -10.348
REMARK INTRA:                  -0.875
REMARK UNBOUND:                -0.955
REMARK SMILES COc1cc(CNC(=O)CCCCCCC(C)C)ccc1O
REMARK SMILES IDX 11 1 10 2 8 3 7 4 9 6 6 7 5 8 3 9 21 10 4 11 20 12 19 13
REMARK SMILES IDX 2 14 1 15 22 16 12 18 13 19 14 20 15 21 16 22 17 23 18 24
REMARK H PARENT 7 5 22 17
REMARK Flexibility Score: inf
ROOT
ATOM      1  C   UNL     1      93.575  93.685  77.170  1.00  0.00     0.010 C 
ENDROOT
BRANCH   1   2
ATOM      2  C   UNL     1      92.267  94.471  76.875  1.00  0.00     0.100 C 
BRANCH   2   3
ATOM      3  C   UNL     1      91.055  93.622  76.905  1.00  0.00     0.220 C 
ATOM      4  N   UNL     1      91.065  92.430  77.568  1.00  0.00    -0.352 N 
ATOM      5  H   UNL     1      91.955  92.181  77.974  1.00  0.00     0.163 HD
ATOM      6  O   UNL     1      90.017  94.035  76.332  1.00  0.00    -0.275 OA
BRANCH   4   7
ATOM      7  C   UNL     1      89.941  91.556  77.713  1.00  0.00     0.151 C 
BRANCH   7   8
ATOM      8  C   UNL     1      90.081  90.287  76.948  1.00  0.00    -0.025 A 
ATOM      9  C   UNL     1      90.437  89.114  74.816  1.00  0.00     0.160 A 
ATOM     10  C   UNL     1      90.393  87.874  75.488  1.00  0.00     0.157 A 
ATOM     11  C   UNL     1      90.262  90.308  75.546  1.00  0.00     0.056 A 
ATOM     12  C   UNL     1      90.174  87.837  76.877  1.00  0.00     0.050 A 
ATOM     13  C   UNL     1      90.029  89.035  77.605  1.00  0.00     0.009 A 
BRANCH   9  14
ATOM     14  O   UNL     1      90.610  89.159  73.459  1.00  0.00    -0.493 OA
ATOM     15  C   UNL     1      89.731  90.083  72.792  1.00  0.00     0.278 C 
ENDBRANCH   9  14
BRANCH  10  16
ATOM     16  O   UNL     1      90.557  86.707  74.809  1.00  0.00    -0.504 OA
ATOM     17  H   UNL     1      91.434  86.686  74.419  1.00  0.00     0.293 HD
ENDBRANCH  10  16
ENDBRANCH   7   8
ENDBRANCH   4   7
ENDBRANCH   2   3
ENDBRANCH   1   2
BRANCH   1  18
ATOM     18  C   UNL     1      94.800  94.627  77.342  1.00  0.00     0.001 C 
BRANCH  18  19
ATOM     19  C   UNL     1      95.999  94.271  76.419  1.00  0.00     0.000 C 
BRANCH  19  20
ATOM     20  C   UNL     1      95.785  94.800  74.973  1.00  0.00     0.000 C 
BRANCH  20  21
ATOM     21  C   UNL     1      94.945  96.105  74.889  1.00  0.00     0.003 C 
BRANCH  21  22
ATOM     22  C   UNL     1      95.700  97.325  74.267  1.00  0.00    -0.017 C 
ATOM     23  C   UNL     1      95.986  98.399  75.354  1.00  0.00     0.007 C 
ATOM     24  C   UNL     1      94.964  97.962  73.052  1.00  0.00     0.007 C 
ENDBRANCH  21  22
ENDBRANCH  20  21
ENDBRANCH  19  20
ENDBRANCH  18  19
ENDBRANCH   1  18
TORSDOF 11
ENDMDL
MODEL 5
REMARK VINA RESULT:    -5.945     12.899     16.138
REMARK INTER + INTRA:         -10.548
REMARK INTER:                  -8.599
REMARK INTRA:                  -1.950
REMARK UNBOUND:                -0.955
REMARK SMILES COc1cc(CNC(=O)CCCCCCC(C)C)ccc1O
REMARK SMILES IDX 11 1 10 2 8 3 7 4 9 6 6 7 5 8 3 9 21 10 4 11 20 12 19 13
REMARK SMILES IDX 2 14 1 15 22 16 12 18 13 19 14 20 15 21 16 22 17 23 18 24
REMARK H PARENT 7 5 22 17
REMARK Flexibility Score: inf
ROOT
ATOM      1  C   UNL     1      80.069  87.007  84.048  1.00  0.00     0.010 C 
ENDROOT
BRANCH   1   2
ATOM      2  C   UNL     1      80.957  85.803  84.466  1.00  0.00     0.100 C 
BRANCH   2   3
ATOM      3  C   UNL     1      81.679  86.023  85.739  1.00  0.00     0.220 C 
ATOM      4  N   UNL     1      80.989  86.310  86.881  1.00  0.00    -0.352 N 
ATOM      5  H   UNL     1      79.991  86.398  86.759  1.00  0.00     0.163 HD
ATOM      6  O   UNL     1      82.929  85.915  85.749  1.00  0.00    -0.275 OA
BRANCH   4   7
ATOM      7  C   UNL     1      81.572  86.484  88.177  1.00  0.00     0.151 C 
BRANCH   7   8
ATOM      8  C   UNL     1      81.279  87.814  88.778  1.00  0.00    -0.025 A 
ATOM      9  C   UNL     1      81.836  89.598  90.376  1.00  0.00     0.160 A 
ATOM     10  C   UNL     1      80.753  90.368  89.899  1.00  0.00     0.157 A 
ATOM     11  C   UNL     1      82.079  88.322  89.826  1.00  0.00     0.056 A 
ATOM     12  C   UNL     1      79.925  89.857  88.883  1.00  0.00     0.050 A 
ATOM     13  C   UNL     1      80.191  88.594  88.318  1.00  0.00     0.009 A 
BRANCH   9  14
ATOM     14  O   UNL     1      82.624  90.069  91.391  1.00  0.00    -0.493 OA
ATOM     15  C   UNL     1      83.876  90.622  90.946  1.00  0.00     0.278 C 
ENDBRANCH   9  14
BRANCH  10  16
ATOM     16  O   UNL     1      80.494  91.600  90.411  1.00  0.00    -0.504 OA
ATOM     17  H   UNL     1      80.884  92.270  89.844  1.00  0.00     0.293 HD
ENDBRANCH  10  16
ENDBRANCH   7   8
ENDBRANCH   4   7
ENDBRANCH   2   3
ENDBRANCH   1   2
BRANCH   1  18
ATOM     18  C   UNL     1      80.905  88.292  83.787  1.00  0.00     0.001 C 
BRANCH  18  19
ATOM     19  C   UNL     1      80.552  89.473  84.734  1.00  0.00     0.000 C 
BRANCH  19  20
ATOM     20  C   UNL     1      81.818  90.043  85.434  1.00  0.00     0.000 C 
BRANCH  20  21
ATOM     21  C   UNL     1      83.144  89.347  85.019  1.00  0.00     0.003 C 
BRANCH  21  22
ATOM     22  C   UNL     1      84.428  89.949  85.677  1.00  0.00    -0.017 C 
ATOM     23  C   UNL     1      84.255  90.045  87.219  1.00  0.00     0.007 C 
ATOM     24  C   UNL     1      84.845  91.328  85.088  1.00  0.00     0.007 C 
ENDBRANCH  21  22
ENDBRANCH  20  21
ENDBRANCH  19  20
ENDBRANCH  18  19
ENDBRANCH   1  18
TORSDOF 11
ENDMDL
MODEL 6
REMARK VINA RESULT:    -5.678      2.748      7.953
REMARK INTER + INTRA:         -10.118
REMARK INTER:                  -9.295
REMARK INTRA:                  -0.822
REMARK UNBOUND:                -0.955
REMARK SMILES COc1cc(CNC(=O)CCCCCCC(C)C)ccc1O
REMARK SMILES IDX 11 1 10 2 8 3 7 4 9 6 6 7 5 8 3 9 21 10 4 11 20 12 19 13
REMARK SMILES IDX 2 14 1 15 22 16 12 18 13 19 14 20 15 21 16 22 17 23 18 24
REMARK H PARENT 7 5 22 17
REMARK Flexibility Score: inf
ROOT
ATOM      1  C   UNL     1      90.785  93.062  77.248  1.00  0.00     0.010 C 
ENDROOT
BRANCH   1   2
ATOM      2  C   UNL     1      91.114  94.409  76.546  1.00  0.00     0.100 C 
BRANCH   2   3
ATOM      3  C   UNL     1      92.501  94.477  76.035  1.00  0.00     0.220 C 
ATOM      4  N   UNL     1      93.555  94.505  76.901  1.00  0.00    -0.352 N 
ATOM      5  H   UNL     1      93.297  94.519  77.877  1.00  0.00     0.163 HD
ATOM      6  O   UNL     1      92.685  94.485  74.793  1.00  0.00    -0.275 OA
BRANCH   4   7
ATOM      7  C   UNL     1      94.936  94.512  76.523  1.00  0.00     0.151 C 
BRANCH   7   8
ATOM      8  C   UNL     1      95.837  94.997  77.604  1.00  0.00    -0.025 A 
ATOM      9  C   UNL     1      96.569  94.943  79.951  1.00  0.00     0.160 A 
ATOM     10  C   UNL     1      97.580  95.884  79.660  1.00  0.00     0.157 A 
ATOM     11  C   UNL     1      95.695  94.522  78.927  1.00  0.00     0.056 A 
ATOM     12  C   UNL     1      97.707  96.394  78.356  1.00  0.00     0.050 A 
ATOM     13  C   UNL     1      96.850  95.947  77.332  1.00  0.00     0.009 A 
BRANCH   9  14
ATOM     14  O   UNL     1      96.411  94.470  81.226  1.00  0.00    -0.493 OA
ATOM     15  C   UNL     1      95.246  94.985  81.895  1.00  0.00     0.278 C 
ENDBRANCH   9  14
BRANCH  10  16
ATOM     16  O   UNL     1      98.435  96.309  80.628  1.00  0.00    -0.504 OA
ATOM     17  H   UNL     1      97.943  96.488  81.433  1.00  0.00     0.293 HD
ENDBRANCH  10  16
ENDBRANCH   7   8
ENDBRANCH   4   7
ENDBRANCH   2   3
ENDBRANCH   1   2
BRANCH   1  18
ATOM     18  C   UNL     1      90.525  91.917  76.228  1.00  0.00     0.001 C 
BRANCH  18  19
ATOM     19  C   UNL     1      89.847  92.392  74.912  1.00  0.00     0.000 C 
BRANCH  19  20
ATOM     20  C   UNL     1      89.287  91.195  74.093  1.00  0.00     0.000 C 
BRANCH  20  21
ATOM     21  C   UNL     1      88.887  89.965  74.954  1.00  0.00     0.003 C 
BRANCH  21  22
ATOM     22  C   UNL     1      89.689  88.661  74.637  1.00  0.00    -0.017 C 
ATOM     23  C   UNL     1      89.603  87.667  75.829  1.00  0.00     0.007 C 
ATOM     24  C   UNL     1      91.175  88.920  74.249  1.00  0.00     0.007 C 
ENDBRANCH  21  22
ENDBRANCH  20  21
ENDBRANCH  19  20
ENDBRANCH  18  19
ENDBRANCH   1  18
TORSDOF 11
ENDMDL
MODEL 7
REMARK VINA RESULT:    -5.644      3.447      8.861
REMARK INTER + INTRA:         -10.064
REMARK INTER:                  -9.204
REMARK INTRA:                  -0.860
REMARK UNBOUND:                -0.955
REMARK SMILES COc1cc(CNC(=O)CCCCCCC(C)C)ccc1O
REMARK SMILES IDX 11 1 10 2 8 3 7 4 9 6 6 7 5 8 3 9 21 10 4 11 20 12 19 13
REMARK SMILES IDX 2 14 1 15 22 16 12 18 13 19 14 20 15 21 16 22 17 23 18 24
REMARK H PARENT 7 5 22 17
REMARK Flexibility Score: inf
ROOT
ATOM      1  C   UNL     1      90.500  92.837  76.984  1.00  0.00     0.010 C 
ENDROOT
BRANCH   1   2
ATOM      2  C   UNL     1      91.153  94.180  76.556  1.00  0.00     0.100 C 
BRANCH   2   3
ATOM      3  C   UNL     1      92.632  94.148  76.584  1.00  0.00     0.220 C 
ATOM      4  N   UNL     1      93.350  94.468  75.469  1.00  0.00    -0.352 N 
ATOM      5  H   UNL     1      92.792  94.673  74.653  1.00  0.00     0.163 HD
ATOM      6  O   UNL     1      93.207  93.844  77.658  1.00  0.00    -0.275 OA
BRANCH   4   7
ATOM      7  C   UNL     1      94.779  94.527  75.395  1.00  0.00     0.151 C 
BRANCH   7   8
ATOM      8  C   UNL     1      95.282  95.779  74.767  1.00  0.00    -0.025 A 
ATOM      9  C   UNL     1      97.142  97.105  73.854  1.00  0.00     0.160 A 
ATOM     10  C   UNL     1      96.244  98.145  73.529  1.00  0.00     0.157 A 
ATOM     11  C   UNL     1      96.658  95.940  74.486  1.00  0.00     0.056 A 
ATOM     12  C   UNL     1      94.878  98.013  73.839  1.00  0.00     0.050 A 
ATOM     13  C   UNL     1      94.397  96.834  74.443  1.00  0.00     0.009 A 
BRANCH   9  14
ATOM     14  O   UNL     1      98.478  97.240  73.593  1.00  0.00    -0.493 OA
ATOM     15  C   UNL     1      98.906  96.566  72.396  1.00  0.00     0.278 C 
ENDBRANCH   9  14
BRANCH  10  16
ATOM     16  O   UNL     1      96.681  99.279  72.921  1.00  0.00    -0.504 OA
ATOM     17  H   UNL     1      96.384  99.287  72.008  1.00  0.00     0.293 HD
ENDBRANCH  10  16
ENDBRANCH   7   8
ENDBRANCH   4   7
ENDBRANCH   2   3
ENDBRANCH   1   2
BRANCH   1  18
ATOM     18  C   UNL     1      90.208  91.912  75.768  1.00  0.00     0.001 C 
BRANCH  18  19
ATOM     19  C   UNL     1      88.973  90.989  75.966  1.00  0.00     0.000 C 
BRANCH  19  20
ATOM     20  C   UNL     1      88.868  89.925  74.838  1.00  0.00     0.000 C 
BRANCH  20  21
ATOM     21  C   UNL     1      89.578  90.326  73.515  1.00  0.00     0.003 C 
BRANCH  21  22
ATOM     22  C   UNL     1      88.639  90.965  72.441  1.00  0.00    -0.017 C 
ATOM     23  C   UNL     1      88.865  92.502  72.367  1.00  0.00     0.007 C 
ATOM     24  C   UNL     1      87.130  90.646  72.659  1.00  0.00     0.007 C 
ENDBRANCH  21  22
ENDBRANCH  20  21
ENDBRANCH  19  20
ENDBRANCH  18  19
ENDBRANCH   1  18
TORSDOF 11
ENDMDL
MODEL 8
REMARK VINA RESULT:    -5.557     25.841     28.936
REMARK INTER + INTRA:          -9.922
REMARK INTER:                  -8.749
REMARK INTRA:                  -1.173
REMARK UNBOUND:                -0.955
REMARK SMILES COc1cc(CNC(=O)CCCCCCC(C)C)ccc1O
REMARK SMILES IDX 11 1 10 2 8 3 7 4 9 6 6 7 5 8 3 9 21 10 4 11 20 12 19 13
REMARK SMILES IDX 2 14 1 15 22 16 12 18 13 19 14 20 15 21 16 22 17 23 18 24
REMARK H PARENT 7 5 22 17
REMARK Flexibility Score: inf
ROOT
ATOM      1  C   UNL     1      80.172  66.202  74.215  1.00  0.00     0.010 C 
ENDROOT
BRANCH   1   2
ATOM      2  C   UNL     1      81.455  66.525  75.030  1.00  0.00     0.100 C 
BRANCH   2   3
ATOM      3  C   UNL     1      82.026  65.344  75.715  1.00  0.00     0.220 C 
ATOM      4  N   UNL     1      83.217  64.819  75.306  1.00  0.00    -0.352 N 
ATOM      5  H   UNL     1      83.622  65.272  74.499  1.00  0.00     0.163 HD
ATOM      6  O   UNL     1      81.404  64.854  76.689  1.00  0.00    -0.275 OA
BRANCH   4   7
ATOM      7  C   UNL     1      83.892  63.719  75.926  1.00  0.00     0.151 C 
BRANCH   7   8
ATOM      8  C   UNL     1      84.580  64.092  77.192  1.00  0.00    -0.025 A 
ATOM      9  C   UNL     1      85.763  65.756  78.563  1.00  0.00     0.160 A 
ATOM     10  C   UNL     1      85.854  64.824  79.620  1.00  0.00     0.157 A 
ATOM     11  C   UNL     1      85.145  65.378  77.353  1.00  0.00     0.056 A 
ATOM     12  C   UNL     1      85.331  63.529  79.458  1.00  0.00     0.050 A 
ATOM     13  C   UNL     1      84.689  63.167  78.258  1.00  0.00     0.009 A 
BRANCH   9  14
ATOM     14  O   UNL     1      86.304  67.006  78.696  1.00  0.00    -0.493 OA
ATOM     15  C   UNL     1      85.846  67.944  77.705  1.00  0.00     0.278 C 
ENDBRANCH   9  14
BRANCH  10  16
ATOM     16  O   UNL     1      86.446  65.161  80.796  1.00  0.00    -0.504 OA
ATOM     17  H   UNL     1      85.770  65.312  81.462  1.00  0.00     0.293 HD
ENDBRANCH  10  16
ENDBRANCH   7   8
ENDBRANCH   4   7
ENDBRANCH   2   3
ENDBRANCH   1   2
BRANCH   1  18
ATOM     18  C   UNL     1      80.458  65.243  73.025  1.00  0.00     0.001 C 
BRANCH  18  19
ATOM     19  C   UNL     1      80.161  65.867  71.632  1.00  0.00     0.000 C 
BRANCH  19  20
ATOM     20  C   UNL     1      81.442  66.473  70.993  1.00  0.00     0.000 C 
BRANCH  20  21
ATOM     21  C   UNL     1      81.564  68.014  71.148  1.00  0.00     0.003 C 
BRANCH  21  22
ATOM     22  C   UNL     1      82.796  68.489  71.986  1.00  0.00    -0.017 C 
ATOM     23  C   UNL     1      83.529  69.653  71.263  1.00  0.00     0.007 C 
ATOM     24  C   UNL     1      83.795  67.345  72.331  1.00  0.00     0.007 C 
ENDBRANCH  21  22
ENDBRANCH  20  21
ENDBRANCH  19  20
ENDBRANCH  18  19
ENDBRANCH   1  18
TORSDOF 11
ENDMDL
MODEL 9
REMARK VINA RESULT:    -5.524      2.061      3.529
REMARK INTER + INTRA:          -9.869
REMARK INTER:                  -9.195
REMARK INTRA:                  -0.674
REMARK UNBOUND:                -0.955
REMARK SMILES COc1cc(CNC(=O)CCCCCCC(C)C)ccc1O
REMARK SMILES IDX 11 1 10 2 8 3 7 4 9 6 6 7 5 8 3 9 21 10 4 11 20 12 19 13
REMARK SMILES IDX 2 14 1 15 22 16 12 18 13 19 14 20 15 21 16 22 17 23 18 24
REMARK H PARENT 7 5 22 17
REMARK Flexibility Score: inf
ROOT
ATOM      1  C   UNL     1      94.066  93.835  76.526  1.00  0.00     0.010 C 
ENDROOT
BRANCH   1   2
ATOM      2  C   UNL     1      93.004  94.845  76.011  1.00  0.00     0.100 C 
BRANCH   2   3
ATOM      3  C   UNL     1      91.655  94.254  75.869  1.00  0.00     0.220 C 
ATOM      4  N   UNL     1      91.478  93.103  75.157  1.00  0.00    -0.352 N 
ATOM      5  H   UNL     1      92.315  92.744  74.722  1.00  0.00     0.163 HD
ATOM      6  O   UNL     1      90.688  94.818  76.437  1.00  0.00    -0.275 OA
BRANCH   4   7
ATOM      7  C   UNL     1      90.234  92.411  75.001  1.00  0.00     0.151 C 
BRANCH   7   8
ATOM      8  C   UNL     1      90.136  91.186  75.841  1.00  0.00    -0.025 A 
ATOM      9  C   UNL     1      90.062  88.735  76.030  1.00  0.00     0.160 A 
ATOM     10  C   UNL     1      89.993  88.844  77.437  1.00  0.00     0.157 A 
ATOM     11  C   UNL     1      90.114  89.905  75.244  1.00  0.00     0.056 A 
ATOM     12  C   UNL     1      89.975  90.114  78.040  1.00  0.00     0.050 A 
ATOM     13  C   UNL     1      90.057  91.277  77.250  1.00  0.00     0.009 A 
BRANCH   9  14
ATOM     14  O   UNL     1      90.040  87.505  75.431  1.00  0.00    -0.493 OA
ATOM     15  C   UNL     1      91.163  87.262  74.564  1.00  0.00     0.278 C 
ENDBRANCH   9  14
BRANCH  10  16
ATOM     16  O   UNL     1      89.940  87.734  78.219  1.00  0.00    -0.504 OA
ATOM     17  H   UNL     1      90.711  87.187  78.049  1.00  0.00     0.293 HD
ENDBRANCH  10  16
ENDBRANCH   7   8
ENDBRANCH   4   7
ENDBRANCH   2   3
ENDBRANCH   1   2
BRANCH   1  18
ATOM     18  C   UNL     1      95.463  94.074  75.886  1.00  0.00     0.001 C 
BRANCH  18  19
ATOM     19  C   UNL     1      95.955  95.546  75.987  1.00  0.00     0.000 C 
BRANCH  19  20
ATOM     20  C   UNL     1      95.878  96.271  74.614  1.00  0.00     0.000 C 
BRANCH  20  21
ATOM     21  C   UNL     1      97.013  95.884  73.625  1.00  0.00     0.003 C 
BRANCH  21  22
ATOM     22  C   UNL     1      97.621  97.086  72.831  1.00  0.00    -0.017 C 
ATOM     23  C   UNL     1      99.174  97.044  72.887  1.00  0.00     0.007 C 
ATOM     24  C   UNL     1      97.096  98.475  73.300  1.00  0.00     0.007 C 
ENDBRANCH  21  22
ENDBRANCH  20  21
ENDBRANCH  19  20
ENDBRANCH  18  19
ENDBRANCH   1  18
TORSDOF 11
ENDMDL
MODEL 10
REMARK VINA RESULT:    -5.511     24.294     28.010
REMARK INTER + INTRA:          -9.849
REMARK INTER:                  -8.135
REMARK INTRA:                  -1.714
REMARK UNBOUND:                -0.955
REMARK SMILES COc1cc(CNC(=O)CCCCCCC(C)C)ccc1O
REMARK SMILES IDX 11 1 10 2 8 3 7 4 9 6 6 7 5 8 3 9 21 10 4 11 20 12 19 13
REMARK SMILES IDX 2 14 1 15 22 16 12 18 13 19 14 20 15 21 16 22 17 23 18 24
REMARK H PARENT 7 5 22 17
REMARK Flexibility Score: inf
ROOT
ATOM      1  C   UNL     1      82.063  64.361  74.607  1.00  0.00     0.010 C 
ENDROOT
BRANCH   1   2
ATOM      2  C   UNL     1      82.163  64.577  76.143  1.00  0.00     0.100 C 
BRANCH   2   3
ATOM      3  C   UNL     1      83.283  65.460  76.538  1.00  0.00     0.220 C 
ATOM      4  N   UNL     1      83.185  66.811  76.379  1.00  0.00    -0.352 N 
ATOM      5  H   UNL     1      82.330  67.123  75.944  1.00  0.00     0.163 HD
ATOM      6  O   UNL     1      84.309  64.940  77.041  1.00  0.00    -0.275 OA
BRANCH   4   7
ATOM      7  C   UNL     1      84.177  67.764  76.777  1.00  0.00     0.151 C 
BRANCH   7   8
ATOM      8  C   UNL     1      84.939  68.331  75.631  1.00  0.00    -0.025 A 
ATOM      9  C   UNL     1      85.161  68.743  73.217  1.00  0.00     0.160 A 
ATOM     10  C   UNL     1      86.364  69.446  73.445  1.00  0.00     0.157 A 
ATOM     11  C   UNL     1      84.469  68.175  74.307  1.00  0.00     0.056 A 
ATOM     12  C   UNL     1      86.862  69.574  74.754  1.00  0.00     0.050 A 
ATOM     13  C   UNL     1      86.151  69.030  75.841  1.00  0.00     0.009 A 
BRANCH   9  14
ATOM     14  O   UNL     1      84.688  68.579  71.943  1.00  0.00    -0.493 OA
ATOM     15  C   UNL     1      83.707  69.559  71.558  1.00  0.00     0.278 C 
ENDBRANCH   9  14
BRANCH  10  16
ATOM     16  O   UNL     1      87.052  70.002  72.413  1.00  0.00    -0.504 OA
ATOM     17  H   UNL     1      87.812  69.454  72.204  1.00  0.00     0.293 HD
ENDBRANCH  10  16
ENDBRANCH   7   8
ENDBRANCH   4   7
ENDBRANCH   2   3
ENDBRANCH   1   2
BRANCH   1  18
ATOM     18  C   UNL     1      80.603  64.497  74.089  1.00  0.00     0.001 C 
BRANCH  18  19
ATOM     19  C   UNL     1      80.019  65.931  74.228  1.00  0.00     0.000 C 
BRANCH  19  20
ATOM     20  C   UNL     1      80.992  67.002  73.658  1.00  0.00     0.000 C 
BRANCH  20  21
ATOM     21  C   UNL     1      80.533  67.628  72.312  1.00  0.00     0.003 C 
BRANCH  21  22
ATOM     22  C   UNL     1      81.037  66.873  71.039  1.00  0.00    -0.017 C 
ATOM     23  C   UNL     1      79.908  65.977  70.455  1.00  0.00     0.007 C 
ATOM     24  C   UNL     1      82.328  66.037  71.277  1.00  0.00     0.007 C 
ENDBRANCH  21  22
ENDBRANCH  20  21
ENDBRANCH  19  20
ENDBRANCH  18  19
ENDBRANCH   1  18
TORSDOF 11
ENDMDL
