MODEL 1
REMARK VINA RESULT:    -5.589      0.000      0.000
REMARK INTER + INTRA:         -12.833
REMARK INTER:                  -9.837
REMARK INTRA:                  -2.996
REMARK UNBOUND:                -2.996
REMARK SMILES C=C(C)[C@]12C[C@@H](C)[C@@]34O[C@](Cc5ccccc5)(O[C@@H]1[C@@H]3C=C(COC(=O)Cc1ccc(O)c(OC)c1)C[C@]1(O)C(=O)C(C)=C[C@@H]41)O2
REMARK SMILES IDX 23 1 22 2 21 3 20 4 9 5 8 6 10 7 6 8 18 9 46 10 19 11 5 12
REMARK SMILES IDX 7 13 4 14 45 15 38 16 44 17 40 18 42 20 41 21 43 22 39 23
REMARK SMILES IDX 11 25 12 26 13 27 17 28 14 29 16 30 15 31 2 32 3 33 1 34
REMARK SMILES IDX 37 35 24 37 25 38 26 39 27 40 28 41 36 42 29 43 33 44 30 45
REMARK SMILES IDX 31 46 34 47 35 48 32 49
REMARK H PARENT 39 24 32 50
REMARK Flexibility Score: 90.00
ROOT
ATOM      1  C   UNL     1      75.370  85.447  69.277  1.00  0.00     0.264 C 
ENDROOT
BRANCH   1   2
ATOM      2  C   UNL     1      74.267  86.007  68.410  1.00  0.00    -0.033 C 
ATOM      3  C   UNL     1      73.430  85.160  67.779  1.00  0.00    -0.015 C 
BRANCH   3   4
ATOM      4  C   UNL     1      72.305  85.463  66.803  1.00  0.00     0.078 C 
ATOM      5  O   UNL     1      70.228  85.648  68.133  1.00  0.00    -0.319 OA
ATOM      6  C   UNL     1      71.137  86.406  67.277  1.00  0.00     0.095 C 
ATOM      7  C   UNL     1      69.918  84.317  67.678  1.00  0.00     0.289 C 
ATOM      8  C   UNL     1      70.357  86.890  65.985  1.00  0.00     0.023 C 
ATOM      9  O   UNL     1      71.100  83.537  67.518  1.00  0.00    -0.320 OA
ATOM     10  O   UNL     1      69.280  84.316  66.403  1.00  0.00    -0.313 OA
ATOM     11  C   UNL     1      71.644  84.143  66.335  1.00  0.00     0.170 C 
ATOM     12  C   UNL     1      70.352  85.793  64.876  1.00  0.00     0.049 C 
ATOM     13  C   UNL     1      68.920  87.380  66.227  1.00  0.00     0.011 C 
ATOM     14  C   UNL     1      70.380  84.386  65.472  1.00  0.00     0.122 C 
BRANCH   6  15
ATOM     15  C   UNL     1      71.680  87.539  68.194  1.00  0.00     0.086 C 
ATOM     16  C   UNL     1      72.996  88.207  67.744  1.00  0.00     0.140 CG0
ATOM     17  C   UNL     1      70.793  88.706  68.528  1.00  0.00    -0.010 C 
ATOM     18  C   UNL     1      72.806  89.639  68.195  1.00  0.00     0.190 C 
ATOM     19  G   UNL     1      74.222  87.551  68.377  1.00  0.00     0.000 G0
ATOM     20  C   UNL     1      71.401  89.896  68.564  1.00  0.00    -0.008 C 
ATOM     21  O   UNL     1      73.675  90.498  68.211  1.00  0.00    -0.291 OA
ATOM     22  C   UNL     1      70.870  91.225  68.931  1.00  0.00     0.048 C 
BRANCH  16  23
ATOM     23  O   UNL     1      73.134  88.311  66.336  1.00  0.00    -0.381 OA
ATOM     24  H   UNL     1      74.018  87.993  66.090  1.00  0.00     0.212 HD
ENDBRANCH  16  23
ENDBRANCH   6  15
BRANCH   7  25
ATOM     25  C   UNL     1      69.008  83.665  68.699  1.00  0.00     0.135 C 
BRANCH  25  26
ATOM     26  C   UNL     1      67.675  84.365  68.798  1.00  0.00    -0.040 A 
ATOM     27  C   UNL     1      67.257  84.898  70.018  1.00  0.00     0.004 A 
ATOM     28  C   UNL     1      66.863  84.481  67.671  1.00  0.00     0.004 A 
ATOM     29  C   UNL     1      66.025  85.546  70.110  1.00  0.00     0.000 A 
ATOM     30  C   UNL     1      65.630  85.130  67.763  1.00  0.00     0.000 A 
ATOM     31  C   UNL     1      65.212  85.662  68.983  1.00  0.00     0.000 A 
ENDBRANCH  25  26
ENDBRANCH   7  25
BRANCH  14  32
ATOM     32  C   UNL     1      70.192  83.321  64.441  1.00  0.00    -0.046 C 
ATOM     33  C   UNL     1      68.871  83.312  63.732  1.00  0.00     0.042 C 
ATOM     34  C   UNL     1      71.150  82.424  64.165  1.00  0.00     0.010 C 
ENDBRANCH  14  32
ENDBRANCH   3   4
BRANCH   2  35
ATOM     35  C   UNL     1      74.251  87.524  68.374  1.00  0.00     0.078 CG0
ATOM     36  G   UNL     1      73.034  88.194  67.738  1.00  0.00     0.000 G0
ENDBRANCH   2  35
ENDBRANCH   1   2
BRANCH   1  37
ATOM     37  O   UNL     1      76.139  84.534  68.524  1.00  0.00    -0.461 OA
BRANCH  37  38
ATOM     38  C   UNL     1      77.291  85.029  67.958  1.00  0.00     0.310 C 
ATOM     39  O   UNL     1      77.985  85.915  68.439  1.00  0.00    -0.252 OA
BRANCH  38  40
ATOM     40  C   UNL     1      77.563  84.312  66.657  1.00  0.00     0.158 C 
BRANCH  40  41
ATOM     41  C   UNL     1      76.432  84.437  65.669  1.00  0.00    -0.033 A 
ATOM     42  C   UNL     1      76.049  85.695  65.203  1.00  0.00     0.054 A 
ATOM     43  C   UNL     1      75.768  83.295  65.220  1.00  0.00     0.008 A 
ATOM     44  C   UNL     1      75.002  85.810  64.288  1.00  0.00     0.160 A 
ATOM     45  C   UNL     1      74.721  83.411  64.306  1.00  0.00     0.050 A 
ATOM     46  C   UNL     1      74.338  84.668  63.840  1.00  0.00     0.157 A 
BRANCH  44  47
ATOM     47  O   UNL     1      74.637  87.044  63.841  1.00  0.00    -0.493 OA
ATOM     48  C   UNL     1      75.636  88.062  63.858  1.00  0.00     0.278 C 
ENDBRANCH  44  47
BRANCH  46  49
ATOM     49  O   UNL     1      73.315  84.768  62.946  1.00  0.00    -0.504 OA
ATOM     50  H   UNL     1      73.287  83.961  62.405  1.00  0.00     0.293 HD
ENDBRANCH  46  49
ENDBRANCH  40  41
ENDBRANCH  38  40
ENDBRANCH  37  38
ENDBRANCH   1  37
TORSDOF 11
ENDMDL
MODEL 2
REMARK VINA RESULT:    -5.349      2.767      8.182
REMARK INTER + INTRA:         -12.410
REMARK INTER:                 -11.175
REMARK INTRA:                  -1.235
REMARK UNBOUND:                -2.996
REMARK SMILES C=C(C)[C@]12C[C@@H](C)[C@@]34O[C@](Cc5ccccc5)(O[C@@H]1[C@@H]3C=C(COC(=O)Cc1ccc(O)c(OC)c1)C[C@]1(O)C(=O)C(C)=C[C@@H]41)O2
REMARK SMILES IDX 23 1 22 2 21 3 20 4 9 5 8 6 10 7 6 8 18 9 46 10 19 11 5 12
REMARK SMILES IDX 7 13 4 14 45 15 38 16 44 17 40 18 42 20 41 21 43 22 39 23
REMARK SMILES IDX 11 25 12 26 13 27 17 28 14 29 16 30 15 31 2 32 3 33 1 34
REMARK SMILES IDX 37 35 24 37 25 38 26 39 27 40 28 41 36 42 29 43 33 44 30 45
REMARK SMILES IDX 31 46 34 47 35 48 32 49
REMARK H PARENT 39 24 32 50
REMARK Flexibility Score: 90.00
ROOT
ATOM      1  C   UNL     1      70.685  85.194  66.286  1.00  0.00     0.264 C 
ENDROOT
BRANCH   1   2
ATOM      2  C   UNL     1      72.023  85.882  66.153  1.00  0.00    -0.033 C 
ATOM      3  C   UNL     1      72.148  87.164  66.554  1.00  0.00    -0.015 C 
BRANCH   3   4
ATOM      4  C   UNL     1      73.348  88.092  66.457  1.00  0.00     0.078 C 
ATOM      5  O   UNL     1      74.605  87.868  68.576  1.00  0.00    -0.319 OA
ATOM      6  C   UNL     1      74.697  87.646  67.135  1.00  0.00     0.095 C 
ATOM      7  C   UNL     1      73.997  89.113  68.970  1.00  0.00     0.289 C 
ATOM      8  C   UNL     1      75.855  88.548  66.538  1.00  0.00     0.023 C 
ATOM      9  O   UNL     1      72.682  89.238  68.436  1.00  0.00    -0.320 OA
ATOM     10  O   UNL     1      74.718  90.244  68.486  1.00  0.00    -0.313 OA
ATOM     11  C   UNL     1      72.991  89.476  67.054  1.00  0.00     0.170 C 
ATOM     12  C   UNL     1      75.346  89.985  66.206  1.00  0.00     0.049 C 
ATOM     13  C   UNL     1      77.126  88.643  67.397  1.00  0.00     0.011 C 
ATOM     14  C   UNL     1      74.218  90.417  67.144  1.00  0.00     0.122 C 
BRANCH   6  15
ATOM     15  C   UNL     1      74.905  86.110  66.991  1.00  0.00     0.086 C 
ATOM     16  C   UNL     1      74.559  85.503  65.616  1.00  0.00     0.140 CG0
ATOM     17  C   UNL     1      76.248  85.516  67.307  1.00  0.00    -0.010 C 
ATOM     18  C   UNL     1      75.580  84.393  65.483  1.00  0.00     0.190 C 
ATOM     19  G   UNL     1      73.122  84.986  65.558  1.00  0.00     0.000 G0
ATOM     20  C   UNL     1      76.644  84.531  66.495  1.00  0.00    -0.008 C 
ATOM     21  O   UNL     1      75.572  83.521  64.627  1.00  0.00    -0.291 OA
ATOM     22  C   UNL     1      77.848  83.675  66.553  1.00  0.00     0.048 C 
BRANCH  16  23
ATOM     23  O   UNL     1      74.845  86.359  64.522  1.00  0.00    -0.381 OA
ATOM     24  H   UNL     1      75.606  85.997  64.039  1.00  0.00     0.212 HD
ENDBRANCH  16  23
ENDBRANCH   6  15
BRANCH   7  25
ATOM     25  C   UNL     1      73.943  89.158  70.483  1.00  0.00     0.135 C 
BRANCH  25  26
ATOM     26  C   UNL     1      73.437  90.485  70.992  1.00  0.00    -0.040 A 
ATOM     27  C   UNL     1      72.080  90.655  71.268  1.00  0.00     0.004 A 
ATOM     28  C   UNL     1      74.326  91.542  71.188  1.00  0.00     0.004 A 
ATOM     29  C   UNL     1      71.613  91.882  71.739  1.00  0.00     0.000 A 
ATOM     30  C   UNL     1      73.858  92.769  71.658  1.00  0.00     0.000 A 
ATOM     31  C   UNL     1      72.501  92.939  71.933  1.00  0.00     0.000 A 
ENDBRANCH  25  26
ENDBRANCH   7  25
BRANCH  14  32
ATOM     32  C   UNL     1      73.840  91.851  66.964  1.00  0.00    -0.046 C 
ATOM     33  C   UNL     1      72.548  92.279  67.595  1.00  0.00     0.042 C 
ATOM     34  C   UNL     1      74.611  92.708  66.278  1.00  0.00     0.010 C 
ENDBRANCH  14  32
ENDBRANCH   3   4
BRANCH   2  35
ATOM     35  C   UNL     1      73.097  84.987  65.565  1.00  0.00     0.078 CG0
ATOM     36  G   UNL     1      74.537  85.497  65.614  1.00  0.00     0.000 G0
ENDBRANCH   2  35
ENDBRANCH   1   2
BRANCH   1  37
ATOM     37  O   UNL     1      70.477  84.833  67.634  1.00  0.00    -0.461 OA
BRANCH  37  38
ATOM     38  C   UNL     1      69.336  85.323  68.226  1.00  0.00     0.310 C 
ATOM     39  O   UNL     1      68.195  85.000  67.925  1.00  0.00    -0.252 OA
BRANCH  38  40
ATOM     40  C   UNL     1      69.711  86.316  69.301  1.00  0.00     0.158 C 
BRANCH  40  41
ATOM     41  C   UNL     1      68.963  86.097  70.590  1.00  0.00    -0.033 A 
ATOM     42  C   UNL     1      68.362  87.177  71.239  1.00  0.00     0.054 A 
ATOM     43  C   UNL     1      68.871  84.817  71.135  1.00  0.00     0.008 A 
ATOM     44  C   UNL     1      67.670  86.975  72.433  1.00  0.00     0.160 A 
ATOM     45  C   UNL     1      68.179  84.615  72.329  1.00  0.00     0.050 A 
ATOM     46  C   UNL     1      67.579  85.693  72.979  1.00  0.00     0.157 A 
BRANCH  44  47
ATOM     47  O   UNL     1      67.088  88.036  73.058  1.00  0.00    -0.493 OA
ATOM     48  C   UNL     1      65.862  88.518  72.509  1.00  0.00     0.278 C 
ENDBRANCH  44  47
BRANCH  46  49
ATOM     49  O   UNL     1      66.904  85.484  74.143  1.00  0.00    -0.504 OA
ATOM     50  H   UNL     1      66.059  85.963  74.110  1.00  0.00     0.293 HD
ENDBRANCH  46  49
ENDBRANCH  40  41
ENDBRANCH  38  40
ENDBRANCH  37  38
ENDBRANCH   1  37
TORSDOF 11
ENDMDL
MODEL 3
REMARK VINA RESULT:    -5.338     22.050     26.290
REMARK INTER + INTRA:         -12.391
REMARK INTER:                 -11.810
REMARK INTRA:                  -0.580
REMARK UNBOUND:                -2.996
REMARK SMILES C=C(C)[C@]12C[C@@H](C)[C@@]34O[C@](Cc5ccccc5)(O[C@@H]1[C@@H]3C=C(COC(=O)Cc1ccc(O)c(OC)c1)C[C@]1(O)C(=O)C(C)=C[C@@H]41)O2
REMARK SMILES IDX 23 1 22 2 21 3 20 4 9 5 8 6 10 7 6 8 18 9 46 10 19 11 5 12
REMARK SMILES IDX 7 13 4 14 45 15 38 16 44 17 40 18 42 20 41 21 43 22 39 23
REMARK SMILES IDX 11 25 12 26 13 27 17 28 14 29 16 30 15 31 2 32 3 33 1 34
REMARK SMILES IDX 37 35 24 37 25 38 26 39 27 40 28 41 36 42 29 43 33 44 30 45
REMARK SMILES IDX 31 46 34 47 35 48 32 49
REMARK H PARENT 39 24 32 50
REMARK Flexibility Score: 90.00
ROOT
ATOM      1  C   UNL     1      94.076  96.787  73.895  1.00  0.00     0.264 C 
ENDROOT
BRANCH   1   2
ATOM      2  C   UNL     1      94.290  97.668  72.686  1.00  0.00    -0.033 C 
ATOM      3  C   UNL     1      93.300  98.492  72.288  1.00  0.00    -0.015 C 
BRANCH   3   4
ATOM      4  C   UNL     1      93.236  99.408  71.076  1.00  0.00     0.078 C 
ATOM      5  O   UNL     1      94.045 101.628  71.808  1.00  0.00    -0.319 OA
ATOM      6  C   UNL     1      94.345 100.513  70.914  1.00  0.00     0.095 C 
ATOM      7  C   UNL     1      92.661 102.022  71.858  1.00  0.00     0.289 C 
ATOM      8  C   UNL     1      94.302 101.019  69.413  1.00  0.00     0.023 C 
ATOM      9  O   UNL     1      91.826 100.933  72.243  1.00  0.00    -0.320 OA
ATOM     10  O   UNL     1      92.174 102.450  70.589  1.00  0.00    -0.313 OA
ATOM     11  C   UNL     1      91.874 100.143  71.044  1.00  0.00     0.170 C 
ATOM     12  C   UNL     1      92.851 100.986  68.841  1.00  0.00     0.049 C 
ATOM     13  C   UNL     1      94.917 102.406  69.166  1.00  0.00     0.011 C 
ATOM     14  C   UNL     1      91.807 101.220  69.932  1.00  0.00     0.122 C 
BRANCH   6  15
ATOM     15  C   UNL     1      95.726  99.985  71.401  1.00  0.00     0.086 C 
ATOM     16  C   UNL     1      96.093  98.548  70.975  1.00  0.00     0.140 CG0
ATOM     17  C   UNL     1      96.968 100.771  71.088  1.00  0.00    -0.010 C 
ATOM     18  C   UNL     1      97.594  98.636  70.792  1.00  0.00     0.190 C 
ATOM     19  G   UNL     1      95.692  97.514  72.026  1.00  0.00     0.000 G0
ATOM     20  C   UNL     1      98.042 100.041  70.769  1.00  0.00    -0.008 C 
ATOM     21  O   UNL     1      98.345  97.686  70.632  1.00  0.00    -0.291 OA
ATOM     22  C   UNL     1      99.430 100.463  70.488  1.00  0.00     0.048 C 
BRANCH  16  23
ATOM     23  O   UNL     1      95.616  98.191  69.689  1.00  0.00    -0.381 OA
ATOM     24  H   UNL     1      94.896  98.798  69.449  1.00  0.00     0.212 HD
ENDBRANCH  16  23
ENDBRANCH   6  15
BRANCH   7  25
ATOM     25  C   UNL     1      92.523 103.151  72.860  1.00  0.00     0.135 C 
BRANCH  25  26
ATOM     26  C   UNL     1      91.082 103.418  73.217  1.00  0.00    -0.040 A 
ATOM     27  C   UNL     1      90.507 102.778  74.316  1.00  0.00     0.004 A 
ATOM     28  C   UNL     1      90.326 104.304  72.452  1.00  0.00     0.004 A 
ATOM     29  C   UNL     1      89.174 103.024  74.647  1.00  0.00     0.000 A 
ATOM     30  C   UNL     1      88.993 104.550  72.783  1.00  0.00     0.000 A 
ATOM     31  C   UNL     1      88.418 103.910  73.881  1.00  0.00     0.000 A 
ENDBRANCH  25  26
ENDBRANCH   7  25
BRANCH  14  32
ATOM     32  C   UNL     1      90.426 101.374  69.383  1.00  0.00    -0.046 C 
ATOM     33  C   UNL     1      90.318 101.519  67.894  1.00  0.00     0.042 C 
ATOM     34  C   UNL     1      89.344 101.382  70.175  1.00  0.00     0.010 C 
ENDBRANCH  14  32
ENDBRANCH   3   4
BRANCH   2  35
ATOM     35  C   UNL     1      95.662  97.498  72.061  1.00  0.00     0.078 CG0
ATOM     36  G   UNL     1      96.077  98.516  71.001  1.00  0.00     0.000 G0
ENDBRANCH   2  35
ENDBRANCH   1   2
BRANCH   1  37
ATOM     37  O   UNL     1      94.978  97.165  74.913  1.00  0.00    -0.461 OA
BRANCH  37  38
ATOM     38  C   UNL     1      94.501  97.106  76.202  1.00  0.00     0.310 C 
ATOM     39  O   UNL     1      94.084  98.062  76.841  1.00  0.00    -0.252 OA
BRANCH  38  40
ATOM     40  C   UNL     1      94.571  95.682  76.701  1.00  0.00     0.158 C 
BRANCH  40  41
ATOM     41  C   UNL     1      93.225  95.007  76.746  1.00  0.00    -0.033 A 
ATOM     42  C   UNL     1      92.696  94.429  75.591  1.00  0.00     0.054 A 
ATOM     43  C   UNL     1      92.507  94.960  77.941  1.00  0.00     0.008 A 
ATOM     44  C   UNL     1      91.449  93.804  75.633  1.00  0.00     0.160 A 
ATOM     45  C   UNL     1      91.260  94.336  77.982  1.00  0.00     0.050 A 
ATOM     46  C   UNL     1      90.731  93.758  76.829  1.00  0.00     0.157 A 
BRANCH  44  47
ATOM     47  O   UNL     1      90.943  93.243  74.499  1.00  0.00    -0.493 OA
ATOM     48  C   UNL     1      89.931  93.975  73.810  1.00  0.00     0.278 C 
ENDBRANCH  44  47
BRANCH  46  49
ATOM     49  O   UNL     1      89.514  93.150  76.881  1.00  0.00    -0.504 OA
ATOM     50  H   UNL     1      89.375  92.647  76.061  1.00  0.00     0.293 HD
ENDBRANCH  46  49
ENDBRANCH  40  41
ENDBRANCH  38  40
ENDBRANCH  37  38
ENDBRANCH   1  37
TORSDOF 11
ENDMDL
MODEL 4
REMARK VINA RESULT:    -5.226     23.665     26.740
REMARK INTER + INTRA:         -12.193
REMARK INTER:                 -11.735
REMARK INTRA:                  -0.458
REMARK UNBOUND:                -2.996
REMARK SMILES C=C(C)[C@]12C[C@@H](C)[C@@]34O[C@](Cc5ccccc5)(O[C@@H]1[C@@H]3C=C(COC(=O)Cc1ccc(O)c(OC)c1)C[C@]1(O)C(=O)C(C)=C[C@@H]41)O2
REMARK SMILES IDX 23 1 22 2 21 3 20 4 9 5 8 6 10 7 6 8 18 9 46 10 19 11 5 12
REMARK SMILES IDX 7 13 4 14 45 15 38 16 44 17 40 18 42 20 41 21 43 22 39 23
REMARK SMILES IDX 11 25 12 26 13 27 17 28 14 29 16 30 15 31 2 32 3 33 1 34
REMARK SMILES IDX 37 35 24 37 25 38 26 39 27 40 28 41 36 42 29 43 33 44 30 45
REMARK SMILES IDX 31 46 34 47 35 48 32 49
REMARK H PARENT 39 24 32 50
REMARK Flexibility Score: 90.00
ROOT
ATOM      1  C   UNL     1      90.913  75.878  77.917  1.00  0.00     0.264 C 
ENDROOT
BRANCH   1   2
ATOM      2  C   UNL     1      91.121  74.990  79.121  1.00  0.00    -0.033 C 
ATOM      3  C   UNL     1      91.719  75.497  80.219  1.00  0.00    -0.015 C 
BRANCH   3   4
ATOM      4  C   UNL     1      92.109  74.802  81.513  1.00  0.00     0.078 C 
ATOM      5  O   UNL     1      90.222  75.096  83.085  1.00  0.00    -0.319 OA
ATOM      6  C   UNL     1      90.981  74.089  82.349  1.00  0.00     0.095 C 
ATOM      7  C   UNL     1      91.009  76.131  83.705  1.00  0.00     0.289 C 
ATOM      8  C   UNL     1      91.691  73.113  83.376  1.00  0.00     0.023 C 
ATOM      9  O   UNL     1      91.806  76.819  82.744  1.00  0.00    -0.320 OA
ATOM     10  O   UNL     1      91.925  75.612  84.665  1.00  0.00    -0.313 OA
ATOM     11  C   UNL     1      92.792  75.812  82.467  1.00  0.00     0.170 C 
ATOM     12  C   UNL     1      93.061  73.685  83.854  1.00  0.00     0.049 C 
ATOM     13  C   UNL     1      90.848  72.717  84.599  1.00  0.00     0.011 C 
ATOM     14  C   UNL     1      93.062  75.214  83.870  1.00  0.00     0.122 C 
BRANCH   6  15
ATOM     15  C   UNL     1      89.935  73.424  81.408  1.00  0.00     0.086 C 
ATOM     16  C   UNL     1      90.501  72.665  80.190  1.00  0.00     0.140 CG0
ATOM     17  C   UNL     1      88.933  72.462  81.984  1.00  0.00    -0.010 C 
ATOM     18  C   UNL     1      89.519  71.523  80.032  1.00  0.00     0.190 C 
ATOM     19  G   UNL     1      90.576  73.548  78.945  1.00  0.00     0.000 G0
ATOM     20  C   UNL     1      88.658  71.398  81.223  1.00  0.00    -0.008 C 
ATOM     21  O   UNL     1      89.465  70.763  79.077  1.00  0.00    -0.291 OA
ATOM     22  C   UNL     1      87.680  70.309  81.427  1.00  0.00     0.048 C 
BRANCH  16  23
ATOM     23  O   UNL     1      91.737  72.017  80.441  1.00  0.00    -0.381 OA
ATOM     24  H   UNL     1      92.196  71.893  79.593  1.00  0.00     0.212 HD
ENDBRANCH  16  23
ENDBRANCH   6  15
BRANCH   7  25
ATOM     25  C   UNL     1      90.066  77.106  84.380  1.00  0.00     0.135 C 
BRANCH  25  26
ATOM     26  C   UNL     1      90.604  78.515  84.365  1.00  0.00    -0.040 A 
ATOM     27  C   UNL     1      91.904  78.770  84.803  1.00  0.00     0.004 A 
ATOM     28  C   UNL     1      89.803  79.563  83.913  1.00  0.00     0.004 A 
ATOM     29  C   UNL     1      92.402  80.073  84.789  1.00  0.00     0.000 A 
ATOM     30  C   UNL     1      90.301  80.866  83.899  1.00  0.00     0.000 A 
ATOM     31  C   UNL     1      91.600  81.121  84.337  1.00  0.00     0.000 A 
ENDBRANCH  25  26
ENDBRANCH   7  25
BRANCH  14  32
ATOM     32  C   UNL     1      94.294  75.781  84.495  1.00  0.00    -0.046 C 
ATOM     33  C   UNL     1      94.813  77.056  83.899  1.00  0.00     0.042 C 
ATOM     34  C   UNL     1      94.904  75.184  85.531  1.00  0.00     0.010 C 
ENDBRANCH  14  32
ENDBRANCH   3   4
BRANCH   2  35
ATOM     35  C   UNL     1      90.594  73.582  78.921  1.00  0.00     0.078 CG0
ATOM     36  G   UNL     1      90.505  72.687  80.156  1.00  0.00     0.000 G0
ENDBRANCH   2  35
ENDBRANCH   1   2
BRANCH   1  37
ATOM     37  O   UNL     1      92.039  75.789  77.071  1.00  0.00    -0.461 OA
BRANCH  37  38
ATOM     38  C   UNL     1      92.223  76.830  76.191  1.00  0.00     0.310 C 
ATOM     39  O   UNL     1      92.891  77.830  76.415  1.00  0.00    -0.252 OA
BRANCH  38  40
ATOM     40  C   UNL     1      91.474  76.546  74.910  1.00  0.00     0.158 C 
BRANCH  40  41
ATOM     41  C   UNL     1      92.077  75.416  74.114  1.00  0.00    -0.033 A 
ATOM     42  C   UNL     1      91.775  74.094  74.442  1.00  0.00     0.054 A 
ATOM     43  C   UNL     1      92.936  75.693  73.051  1.00  0.00     0.008 A 
ATOM     44  C   UNL     1      92.333  73.049  73.705  1.00  0.00     0.160 A 
ATOM     45  C   UNL     1      93.494  74.648  72.314  1.00  0.00     0.050 A 
ATOM     46  C   UNL     1      93.193  73.326  72.642  1.00  0.00     0.157 A 
BRANCH  44  47
ATOM     47  O   UNL     1      92.032  71.762  74.035  1.00  0.00    -0.493 OA
ATOM     48  C   UNL     1      90.807  71.233  73.528  1.00  0.00     0.278 C 
ENDBRANCH  44  47
BRANCH  46  49
ATOM     49  O   UNL     1      93.743  72.314  71.915  1.00  0.00    -0.504 OA
ATOM     50  H   UNL     1      93.390  72.346  71.010  1.00  0.00     0.293 HD
ENDBRANCH  46  49
ENDBRANCH  40  41
ENDBRANCH  38  40
ENDBRANCH  37  38
ENDBRANCH   1  37
TORSDOF 11
ENDMDL
MODEL 5
REMARK VINA RESULT:    -4.896     27.019     30.570
REMARK INTER + INTRA:         -11.612
REMARK INTER:                  -9.715
REMARK INTRA:                  -1.897
REMARK UNBOUND:                -2.996
REMARK SMILES C=C(C)[C@]12C[C@@H](C)[C@@]34O[C@](Cc5ccccc5)(O[C@@H]1[C@@H]3C=C(COC(=O)Cc1ccc(O)c(OC)c1)C[C@]1(O)C(=O)C(C)=C[C@@H]41)O2
REMARK SMILES IDX 23 1 22 2 21 3 20 4 9 5 8 6 10 7 6 8 18 9 46 10 19 11 5 12
REMARK SMILES IDX 7 13 4 14 45 15 38 16 44 17 40 18 42 20 41 21 43 22 39 23
REMARK SMILES IDX 11 25 12 26 13 27 17 28 14 29 16 30 15 31 2 32 3 33 1 34
REMARK SMILES IDX 37 35 24 37 25 38 26 39 27 40 28 41 36 42 29 43 33 44 30 45
REMARK SMILES IDX 31 46 34 47 35 48 32 49
REMARK H PARENT 39 24 32 50
REMARK Flexibility Score: 90.00
ROOT
ATOM      1  C   UNL     1     100.728  77.583  75.662  1.00  0.00     0.264 C 
ENDROOT
BRANCH   1   2
ATOM      2  C   UNL     1     101.344  78.257  74.459  1.00  0.00    -0.033 C 
ATOM      3  C   UNL     1     100.550  78.632  73.435  1.00  0.00    -0.015 C 
BRANCH   3   4
ATOM      4  C   UNL     1     100.928  79.248  72.098  1.00  0.00     0.078 C 
ATOM      5  O   UNL     1     100.806  81.703  72.377  1.00  0.00    -0.319 OA
ATOM      6  C   UNL     1     101.727  80.604  72.098  1.00  0.00     0.095 C 
ATOM      7  C   UNL     1      99.539  81.633  71.696  1.00  0.00     0.289 C 
ATOM      8  C   UNL     1     102.347  80.795  70.652  1.00  0.00     0.023 C 
ATOM      9  O   UNL     1      98.856  80.420  71.998  1.00  0.00    -0.320 OA
ATOM     10  O   UNL     1      99.685  81.650  70.278  1.00  0.00    -0.313 OA
ATOM     11  C   UNL     1      99.653  79.488  71.251  1.00  0.00     0.170 C 
ATOM     12  C   UNL     1     101.421  80.196  69.549  1.00  0.00     0.049 C 
ATOM     13  C   UNL     1     102.718  82.240  70.278  1.00  0.00     0.011 C 
ATOM     14  C   UNL     1      99.947  80.271  69.947  1.00  0.00     0.122 C 
BRANCH   6  15
ATOM     15  C   UNL     1     102.747  80.644  73.273  1.00  0.00     0.086 C 
ATOM     16  C   UNL     1     103.537  79.344  73.531  1.00  0.00     0.140 CG0
ATOM     17  C   UNL     1     103.808  81.708  73.292  1.00  0.00    -0.010 C 
ATOM     18  C   UNL     1     104.881  79.866  73.995  1.00  0.00     0.190 C 
ATOM     19  G   UNL     1     102.862  78.456  74.575  1.00  0.00     0.000 G0
ATOM     20  C   UNL     1     105.011  81.310  73.719  1.00  0.00    -0.008 C 
ATOM     21  O   UNL     1     105.772  79.191  74.487  1.00  0.00    -0.291 OA
ATOM     22  C   UNL     1     106.246  82.088  73.945  1.00  0.00     0.048 C 
BRANCH  16  23
ATOM     23  O   UNL     1     103.846  78.616  72.354  1.00  0.00    -0.381 OA
ATOM     24  H   UNL     1     104.229  77.762  72.613  1.00  0.00     0.212 HD
ENDBRANCH  16  23
ENDBRANCH   6  15
BRANCH   7  25
ATOM     25  C   UNL     1      98.699  82.817  72.132  1.00  0.00     0.135 C 
BRANCH  25  26
ATOM     26  C   UNL     1      99.502  83.820  72.922  1.00  0.00    -0.040 A 
ATOM     27  C   UNL     1      99.733  83.611  74.283  1.00  0.00     0.004 A 
ATOM     28  C   UNL     1     100.015  84.954  72.294  1.00  0.00     0.004 A 
ATOM     29  C   UNL     1     100.476  84.539  75.014  1.00  0.00     0.000 A 
ATOM     30  C   UNL     1     100.758  85.881  73.025  1.00  0.00     0.000 A 
ATOM     31  C   UNL     1     100.988  85.673  74.385  1.00  0.00     0.000 A 
ENDBRANCH  25  26
ENDBRANCH   7  25
BRANCH  14  32
ATOM     32  C   UNL     1      99.031  79.872  68.835  1.00  0.00    -0.046 C 
ATOM     33  C   UNL     1      98.034  80.903  68.397  1.00  0.00     0.042 C 
ATOM     34  C   UNL     1      99.097  78.661  68.262  1.00  0.00     0.010 C 
ENDBRANCH  14  32
ENDBRANCH   3   4
BRANCH   2  35
ATOM     35  C   UNL     1     102.845  78.434  74.580  1.00  0.00     0.078 CG0
ATOM     36  G   UNL     1     103.528  79.337  73.553  1.00  0.00     0.000 G0
ENDBRANCH   2  35
ENDBRANCH   1   2
BRANCH   1  37
ATOM     37  O   UNL     1     100.896  78.407  76.796  1.00  0.00    -0.461 OA
BRANCH  37  38
ATOM     38  C   UNL     1      99.841  79.229  77.113  1.00  0.00     0.310 C 
ATOM     39  O   UNL     1      98.678  78.867  77.230  1.00  0.00    -0.252 OA
BRANCH  38  40
ATOM     40  C   UNL     1     100.339  80.644  77.293  1.00  0.00     0.158 C 
BRANCH  40  41
ATOM     41  C   UNL     1      99.481  81.456  78.228  1.00  0.00    -0.033 A 
ATOM     42  C   UNL     1      98.556  82.365  77.712  1.00  0.00     0.054 A 
ATOM     43  C   UNL     1      99.609  81.298  79.607  1.00  0.00     0.008 A 
ATOM     44  C   UNL     1      97.761  83.117  78.578  1.00  0.00     0.160 A 
ATOM     45  C   UNL     1      98.814  82.050  80.473  1.00  0.00     0.050 A 
ATOM     46  C   UNL     1      97.891  82.959  79.959  1.00  0.00     0.157 A 
BRANCH  44  47
ATOM     47  O   UNL     1      96.862  84.002  78.064  1.00  0.00    -0.493 OA
ATOM     48  C   UNL     1      96.813  84.123  76.643  1.00  0.00     0.278 C 
ENDBRANCH  44  47
BRANCH  46  49
ATOM     49  O   UNL     1      97.119  83.687  80.813  1.00  0.00    -0.504 OA
ATOM     50  H   UNL     1      96.853  83.122  81.558  1.00  0.00     0.293 HD
ENDBRANCH  46  49
ENDBRANCH  40  41
ENDBRANCH  38  40
ENDBRANCH  37  38
ENDBRANCH   1  37
TORSDOF 11
ENDMDL
MODEL 6
REMARK VINA RESULT:    -4.887      2.069      3.592
REMARK INTER + INTRA:         -11.596
REMARK INTER:                  -9.930
REMARK INTRA:                  -1.666
REMARK UNBOUND:                -2.996
REMARK SMILES C=C(C)[C@]12C[C@@H](C)[C@@]34O[C@](Cc5ccccc5)(O[C@@H]1[C@@H]3C=C(COC(=O)Cc1ccc(O)c(OC)c1)C[C@]1(O)C(=O)C(C)=C[C@@H]41)O2
REMARK SMILES IDX 23 1 22 2 21 3 20 4 9 5 8 6 10 7 6 8 18 9 46 10 19 11 5 12
REMARK SMILES IDX 7 13 4 14 45 15 38 16 44 17 40 18 42 20 41 21 43 22 39 23
REMARK SMILES IDX 11 25 12 26 13 27 17 28 14 29 16 30 15 31 2 32 3 33 1 34
REMARK SMILES IDX 37 35 24 37 25 38 26 39 27 40 28 41 36 42 29 43 33 44 30 45
REMARK SMILES IDX 31 46 34 47 35 48 32 49
REMARK H PARENT 39 24 32 50
REMARK Flexibility Score: 90.00
ROOT
ATOM      1  C   UNL     1      73.275  84.331  67.118  1.00  0.00     0.264 C 
ENDROOT
BRANCH   1   2
ATOM      2  C   UNL     1      72.203  85.388  67.247  1.00  0.00    -0.033 C 
ATOM      3  C   UNL     1      70.915  85.051  67.031  1.00  0.00    -0.015 C 
BRANCH   3   4
ATOM      4  C   UNL     1      69.676  85.931  67.023  1.00  0.00     0.078 C 
ATOM      5  O   UNL     1      68.751  85.894  69.317  1.00  0.00    -0.319 OA
ATOM      6  C   UNL     1      69.346  86.772  68.312  1.00  0.00     0.095 C 
ATOM      7  C   UNL     1      67.776  84.959  68.818  1.00  0.00     0.289 C 
ATOM      8  C   UNL     1      68.297  87.887  67.903  1.00  0.00     0.023 C 
ATOM      9  O   UNL     1      68.330  84.127  67.802  1.00  0.00    -0.320 OA
ATOM     10  O   UNL     1      66.660  85.610  68.216  1.00  0.00    -0.313 OA
ATOM     11  C   UNL     1      68.423  85.072  66.725  1.00  0.00     0.170 C 
ATOM     12  C   UNL     1      67.338  87.383  66.781  1.00  0.00     0.049 C 
ATOM     13  C   UNL     1      67.469  88.471  69.059  1.00  0.00     0.011 C 
ATOM     14  C   UNL     1      67.106  85.875  66.869  1.00  0.00     0.122 C 
BRANCH   6  15
ATOM     15  C   UNL     1      70.652  87.295  68.979  1.00  0.00     0.086 C 
ATOM     16  C   UNL     1      71.728  87.850  68.023  1.00  0.00     0.140 CG0
ATOM     17  C   UNL     1      70.562  88.345  70.051  1.00  0.00    -0.010 C 
ATOM     18  C   UNL     1      72.347  88.964  68.840  1.00  0.00     0.190 C 
ATOM     19  G   UNL     1      72.747  86.784  67.621  1.00  0.00     0.000 G0
ATOM     20  C   UNL     1      71.516  89.282  70.017  1.00  0.00    -0.008 C 
ATOM     21  O   UNL     1      73.369  89.569  68.554  1.00  0.00    -0.291 OA
ATOM     22  C   UNL     1      71.785  90.400  70.944  1.00  0.00     0.048 C 
BRANCH  16  23
ATOM     23  O   UNL     1      71.200  88.515  66.888  1.00  0.00    -0.381 OA
ATOM     24  H   UNL     1      71.172  89.468  67.076  1.00  0.00     0.212 HD
ENDBRANCH  16  23
ENDBRANCH   6  15
BRANCH   7  25
ATOM     25  C   UNL     1      67.299  84.105  69.975  1.00  0.00     0.135 C 
BRANCH  25  26
ATOM     26  C   UNL     1      65.969  83.454  69.688  1.00  0.00    -0.040 A 
ATOM     27  C   UNL     1      64.805  83.962  70.266  1.00  0.00     0.004 A 
ATOM     28  C   UNL     1      65.902  82.347  68.843  1.00  0.00     0.004 A 
ATOM     29  C   UNL     1      63.574  83.360  70.000  1.00  0.00     0.000 A 
ATOM     30  C   UNL     1      64.672  81.745  68.577  1.00  0.00     0.000 A 
ATOM     31  C   UNL     1      63.508  82.252  69.156  1.00  0.00     0.000 A 
ENDBRANCH  25  26
ENDBRANCH   7  25
BRANCH  14  32
ATOM     32  C   UNL     1      66.052  85.399  65.923  1.00  0.00    -0.046 C 
ATOM     33  C   UNL     1      66.458  85.283  64.484  1.00  0.00     0.042 C 
ATOM     34  C   UNL     1      64.813  85.093  66.337  1.00  0.00     0.010 C 
ENDBRANCH  14  32
ENDBRANCH   3   4
BRANCH   2  35
ATOM     35  C   UNL     1      72.753  86.750  67.628  1.00  0.00     0.078 CG0
ATOM     36  G   UNL     1      71.742  87.832  68.002  1.00  0.00     0.000 G0
ENDBRANCH   2  35
ENDBRANCH   1   2
BRANCH   1  37
ATOM     37  O   UNL     1      73.806  84.362  65.810  1.00  0.00    -0.461 OA
BRANCH  37  38
ATOM     38  C   UNL     1      74.933  83.604  65.593  1.00  0.00     0.310 C 
ATOM     39  O   UNL     1      74.978  82.383  65.637  1.00  0.00    -0.252 OA
BRANCH  38  40
ATOM     40  C   UNL     1      76.102  84.513  65.294  1.00  0.00     0.158 C 
BRANCH  40  41
ATOM     41  C   UNL     1      76.199  85.678  66.245  1.00  0.00    -0.033 A 
ATOM     42  C   UNL     1      76.467  85.455  67.596  1.00  0.00     0.054 A 
ATOM     43  C   UNL     1      76.023  86.979  65.775  1.00  0.00     0.008 A 
ATOM     44  C   UNL     1      76.557  86.534  68.477  1.00  0.00     0.160 A 
ATOM     45  C   UNL     1      76.113  88.058  66.655  1.00  0.00     0.050 A 
ATOM     46  C   UNL     1      76.379  87.835  68.006  1.00  0.00     0.157 A 
BRANCH  44  47
ATOM     47  O   UNL     1      76.818  86.303  69.793  1.00  0.00    -0.493 OA
ATOM     48  C   UNL     1      76.602  84.978  70.275  1.00  0.00     0.278 C 
ENDBRANCH  44  47
BRANCH  46  49
ATOM     49  O   UNL     1      76.466  88.896  68.855  1.00  0.00    -0.504 OA
ATOM     50  H   UNL     1      77.399  89.153  68.947  1.00  0.00     0.293 HD
ENDBRANCH  46  49
ENDBRANCH  40  41
ENDBRANCH  38  40
ENDBRANCH  37  38
ENDBRANCH   1  37
TORSDOF 11
ENDMDL
MODEL 7
REMARK VINA RESULT:    -4.765      7.122     11.898
REMARK INTER + INTRA:         -11.382
REMARK INTER:                 -10.608
REMARK INTRA:                  -0.775
REMARK UNBOUND:                -2.996
REMARK SMILES C=C(C)[C@]12C[C@@H](C)[C@@]34O[C@](Cc5ccccc5)(O[C@@H]1[C@@H]3C=C(COC(=O)Cc1ccc(O)c(OC)c1)C[C@]1(O)C(=O)C(C)=C[C@@H]41)O2
REMARK SMILES IDX 23 1 22 2 21 3 20 4 9 5 8 6 10 7 6 8 18 9 46 10 19 11 5 12
REMARK SMILES IDX 7 13 4 14 45 15 38 16 44 17 40 18 42 20 41 21 43 22 39 23
REMARK SMILES IDX 11 25 12 26 13 27 17 28 14 29 16 30 15 31 2 32 3 33 1 34
REMARK SMILES IDX 37 35 24 37 25 38 26 39 27 40 28 41 36 42 29 43 33 44 30 45
REMARK SMILES IDX 31 46 34 47 35 48 32 49
REMARK H PARENT 39 24 32 50
REMARK Flexibility Score: 90.00
ROOT
ATOM      1  C   UNL     1      74.219  91.022  71.126  1.00  0.00     0.264 C 
ENDROOT
BRANCH   1   2
ATOM      2  C   UNL     1      73.953  92.424  71.622  1.00  0.00    -0.033 C 
ATOM      3  C   UNL     1      74.664  92.901  72.663  1.00  0.00    -0.015 C 
BRANCH   3   4
ATOM      4  C   UNL     1      74.537  94.230  73.390  1.00  0.00     0.078 C 
ATOM      5  O   UNL     1      76.120  95.796  72.312  1.00  0.00    -0.319 OA
ATOM      6  C   UNL     1      74.700  95.557  72.559  1.00  0.00     0.095 C 
ATOM      7  C   UNL     1      76.990  95.557  73.435  1.00  0.00     0.289 C 
ATOM      8  C   UNL     1      74.114  96.744  73.430  1.00  0.00     0.023 C 
ATOM      9  O   UNL     1      76.861  94.221  73.914  1.00  0.00    -0.320 OA
ATOM     10  O   UNL     1      76.681  96.396  74.546  1.00  0.00    -0.313 OA
ATOM     11  C   UNL     1      75.571  94.301  74.541  1.00  0.00     0.170 C 
ATOM     12  C   UNL     1      74.340  96.500  74.954  1.00  0.00     0.049 C 
ATOM     13  C   UNL     1      74.617  98.148  73.057  1.00  0.00     0.011 C 
ATOM     14  C   UNL     1      75.613  95.695  75.215  1.00  0.00     0.122 C 
BRANCH   6  15
ATOM     15  C   UNL     1      74.080  95.399  71.141  1.00  0.00     0.086 C 
ATOM     16  C   UNL     1      72.711  94.691  71.072  1.00  0.00     0.140 CG0
ATOM     17  C   UNL     1      73.887  96.617  70.282  1.00  0.00    -0.010 C 
ATOM     18  C   UNL     1      72.030  95.408  69.925  1.00  0.00     0.190 C 
ATOM     19  G   UNL     1      72.850  93.190  70.823  1.00  0.00     0.000 G0
ATOM     20  C   UNL     1      72.758  96.640  69.565  1.00  0.00    -0.008 C 
ATOM     21  O   UNL     1      70.989  95.059  69.390  1.00  0.00    -0.291 OA
ATOM     22  C   UNL     1      72.283  97.620  68.568  1.00  0.00     0.048 C 
BRANCH  16  23
ATOM     23  O   UNL     1      71.871  94.955  72.183  1.00  0.00    -0.381 OA
ATOM     24  H   UNL     1      72.166  94.406  72.929  1.00  0.00     0.212 HD
ENDBRANCH  16  23
ENDBRANCH   6  15
BRANCH   7  25
ATOM     25  C   UNL     1      78.417  95.807  72.993  1.00  0.00     0.135 C 
BRANCH  25  26
ATOM     26  C   UNL     1      78.719  97.280  72.863  1.00  0.00    -0.040 A 
ATOM     27  C   UNL     1      78.686  97.890  71.608  1.00  0.00     0.004 A 
ATOM     28  C   UNL     1      79.029  98.031  73.996  1.00  0.00     0.004 A 
ATOM     29  C   UNL     1      78.965  99.252  71.488  1.00  0.00     0.000 A 
ATOM     30  C   UNL     1      79.307  99.393  73.875  1.00  0.00     0.000 A 
ATOM     31  C   UNL     1      79.275 100.003  72.620  1.00  0.00     0.000 A 
ENDBRANCH  25  26
ENDBRANCH   7  25
BRANCH  14  32
ATOM     32  C   UNL     1      75.948  95.605  76.669  1.00  0.00    -0.046 C 
ATOM     33  C   UNL     1      76.798  94.441  77.082  1.00  0.00     0.042 C 
ATOM     34  C   UNL     1      75.513  96.514  77.554  1.00  0.00     0.010 C 
ENDBRANCH  14  32
ENDBRANCH   3   4
BRANCH   2  35
ATOM     35  C   UNL     1      72.872  93.139  70.833  1.00  0.00     0.078 CG0
ATOM     36  G   UNL     1      72.718  94.642  71.062  1.00  0.00     0.000 G0
ENDBRANCH   2  35
ENDBRANCH   1   2
BRANCH   1  37
ATOM     37  O   UNL     1      73.468  90.792  69.953  1.00  0.00    -0.461 OA
BRANCH  37  38
ATOM     38  C   UNL     1      74.173  90.352  68.856  1.00  0.00     0.310 C 
ATOM     39  O   UNL     1      73.737  90.305  67.714  1.00  0.00    -0.252 OA
BRANCH  38  40
ATOM     40  C   UNL     1      75.562  89.938  69.282  1.00  0.00     0.158 C 
BRANCH  40  41
ATOM     41  C   UNL     1      75.934  88.556  68.811  1.00  0.00    -0.033 A 
ATOM     42  C   UNL     1      75.044  87.495  68.989  1.00  0.00     0.054 A 
ATOM     43  C   UNL     1      77.166  88.336  68.196  1.00  0.00     0.008 A 
ATOM     44  C   UNL     1      75.388  86.216  68.553  1.00  0.00     0.160 A 
ATOM     45  C   UNL     1      77.510  87.056  67.760  1.00  0.00     0.050 A 
ATOM     46  C   UNL     1      76.622  85.996  67.939  1.00  0.00     0.157 A 
BRANCH  44  47
ATOM     47  O   UNL     1      74.512  85.189  68.734  1.00  0.00    -0.493 OA
ATOM     48  C   UNL     1      73.201  85.352  68.194  1.00  0.00     0.278 C 
ENDBRANCH  44  47
BRANCH  46  49
ATOM     49  O   UNL     1      76.968  84.751  67.508  1.00  0.00    -0.504 OA
ATOM     50  H   UNL     1      76.479  84.552  66.692  1.00  0.00     0.293 HD
ENDBRANCH  46  49
ENDBRANCH  40  41
ENDBRANCH  38  40
ENDBRANCH  37  38
ENDBRANCH   1  37
TORSDOF 11
ENDMDL
MODEL 8
REMARK VINA RESULT:    -4.681      2.475      8.529
REMARK INTER + INTRA:         -11.234
REMARK INTER:                 -10.320
REMARK INTRA:                  -0.914
REMARK UNBOUND:                -2.996
REMARK SMILES C=C(C)[C@]12C[C@@H](C)[C@@]34O[C@](Cc5ccccc5)(O[C@@H]1[C@@H]3C=C(COC(=O)Cc1ccc(O)c(OC)c1)C[C@]1(O)C(=O)C(C)=C[C@@H]41)O2
REMARK SMILES IDX 23 1 22 2 21 3 20 4 9 5 8 6 10 7 6 8 18 9 46 10 19 11 5 12
REMARK SMILES IDX 7 13 4 14 45 15 38 16 44 17 40 18 42 20 41 21 43 22 39 23
REMARK SMILES IDX 11 25 12 26 13 27 17 28 14 29 16 30 15 31 2 32 3 33 1 34
REMARK SMILES IDX 37 35 24 37 25 38 26 39 27 40 28 41 36 42 29 43 33 44 30 45
REMARK SMILES IDX 31 46 34 47 35 48 32 49
REMARK H PARENT 39 24 32 50
REMARK Flexibility Score: 90.00
ROOT
ATOM      1  C   UNL     1      68.950  85.017  69.348  1.00  0.00     0.264 C 
ENDROOT
BRANCH   1   2
ATOM      2  C   UNL     1      69.768  85.597  68.217  1.00  0.00    -0.033 C 
ATOM      3  C   UNL     1      70.412  86.766  68.402  1.00  0.00    -0.015 C 
BRANCH   3   4
ATOM      4  C   UNL     1      71.225  87.587  67.413  1.00  0.00     0.078 C 
ATOM      5  O   UNL     1      73.581  86.869  67.646  1.00  0.00    -0.319 OA
ATOM      6  C   UNL     1      72.458  86.906  66.711  1.00  0.00     0.095 C 
ATOM      7  C   UNL     1      73.783  88.070  68.415  1.00  0.00     0.289 C 
ATOM      8  C   UNL     1      72.849  87.796  65.459  1.00  0.00     0.023 C 
ATOM      9  O   UNL     1      72.618  88.407  69.163  1.00  0.00    -0.320 OA
ATOM     10  O   UNL     1      74.051  89.201  67.590  1.00  0.00    -0.313 OA
ATOM     11  C   UNL     1      71.761  88.864  68.105  1.00  0.00     0.170 C 
ATOM     12  C   UNL     1      72.576  89.308  65.726  1.00  0.00     0.049 C 
ATOM     13  C   UNL     1      74.287  87.619  64.947  1.00  0.00     0.011 C 
ATOM     14  C   UNL     1      72.739  89.660  67.205  1.00  0.00     0.122 C 
BRANCH   6  15
ATOM     15  C   UNL     1      72.161  85.410  66.401  1.00  0.00     0.086 C 
ATOM     16  C   UNL     1      70.762  85.099  65.830  1.00  0.00     0.140 CG0
ATOM     17  C   UNL     1      73.086  84.648  65.495  1.00  0.00    -0.010 C 
ATOM     18  C   UNL     1      71.042  83.944  64.892  1.00  0.00     0.190 C 
ATOM     19  G   UNL     1      69.759  84.735  66.924  1.00  0.00     0.000 G0
ATOM     20  C   UNL     1      72.490  83.795  64.655  1.00  0.00    -0.008 C 
ATOM     21  O   UNL     1      70.195  83.248  64.353  1.00  0.00    -0.291 OA
ATOM     22  C   UNL     1      73.078  82.837  63.696  1.00  0.00     0.048 C 
BRANCH  16  23
ATOM     23  O   UNL     1      70.253  86.111  64.977  1.00  0.00    -0.381 OA
ATOM     24  H   UNL     1      70.785  86.914  65.102  1.00  0.00     0.212 HD
ENDBRANCH  16  23
ENDBRANCH   6  15
BRANCH   7  25
ATOM     25  C   UNL     1      74.948  87.842  69.356  1.00  0.00     0.135 C 
BRANCH  25  26
ATOM     26  C   UNL     1      75.802  86.675  68.926  1.00  0.00    -0.040 A 
ATOM     27  C   UNL     1      76.705  86.823  67.873  1.00  0.00     0.004 A 
ATOM     28  C   UNL     1      75.690  85.449  69.581  1.00  0.00     0.004 A 
ATOM     29  C   UNL     1      77.495  85.744  67.475  1.00  0.00     0.000 A 
ATOM     30  C   UNL     1      76.480  84.370  69.183  1.00  0.00     0.000 A 
ATOM     31  C   UNL     1      77.382  84.518  68.130  1.00  0.00     0.000 A 
ENDBRANCH  25  26
ENDBRANCH   7  25
BRANCH  14  32
ATOM     32  C   UNL     1      72.662  91.131  67.457  1.00  0.00    -0.046 C 
ATOM     33  C   UNL     1      71.430  91.825  66.958  1.00  0.00     0.042 C 
ATOM     34  C   UNL     1      73.640  91.794  68.093  1.00  0.00     0.010 C 
ENDBRANCH  14  32
ENDBRANCH   3   4
BRANCH   2  35
ATOM     35  C   UNL     1      69.754  84.733  66.970  1.00  0.00     0.078 CG0
ATOM     36  G   UNL     1      70.747  85.088  65.864  1.00  0.00     0.000 G0
ENDBRANCH   2  35
ENDBRANCH   1   2
BRANCH   1  37
ATOM     37  O   UNL     1      68.958  85.914  70.438  1.00  0.00    -0.461 OA
BRANCH  37  38
ATOM     38  C   UNL     1      67.872  85.859  71.279  1.00  0.00     0.310 C 
ATOM     39  O   UNL     1      67.923  85.621  72.478  1.00  0.00    -0.252 OA
BRANCH  38  40
ATOM     40  C   UNL     1      66.611  86.137  70.494  1.00  0.00     0.158 C 
BRANCH  40  41
ATOM     41  C   UNL     1      65.699  84.941  70.404  1.00  0.00    -0.033 A 
ATOM     42  C   UNL     1      65.923  83.964  69.434  1.00  0.00     0.054 A 
ATOM     43  C   UNL     1      64.630  84.811  71.291  1.00  0.00     0.008 A 
ATOM     44  C   UNL     1      65.079  82.857  69.350  1.00  0.00     0.160 A 
ATOM     45  C   UNL     1      63.786  83.704  71.208  1.00  0.00     0.050 A 
ATOM     46  C   UNL     1      64.009  82.727  70.238  1.00  0.00     0.157 A 
BRANCH  44  47
ATOM     47  O   UNL     1      65.307  81.910  68.399  1.00  0.00    -0.493 OA
ATOM     48  C   UNL     1      64.792  82.165  67.093  1.00  0.00     0.278 C 
ENDBRANCH  44  47
BRANCH  46  49
ATOM     49  O   UNL     1      63.179  81.650  70.167  1.00  0.00    -0.504 OA
ATOM     50  H   UNL     1      62.282  81.956  69.950  1.00  0.00     0.293 HD
ENDBRANCH  46  49
ENDBRANCH  40  41
ENDBRANCH  38  40
ENDBRANCH  37  38
ENDBRANCH   1  37
TORSDOF 11
ENDMDL
MODEL 9
REMARK VINA RESULT:    -4.646     27.973     30.864
REMARK INTER + INTRA:         -11.172
REMARK INTER:                  -8.933
REMARK INTRA:                  -2.239
REMARK UNBOUND:                -2.996
REMARK SMILES C=C(C)[C@]12C[C@@H](C)[C@@]34O[C@](Cc5ccccc5)(O[C@@H]1[C@@H]3C=C(COC(=O)Cc1ccc(O)c(OC)c1)C[C@]1(O)C(=O)C(C)=C[C@@H]41)O2
REMARK SMILES IDX 23 1 22 2 21 3 20 4 9 5 8 6 10 7 6 8 18 9 46 10 19 11 5 12
REMARK SMILES IDX 7 13 4 14 45 15 38 16 44 17 40 18 42 20 41 21 43 22 39 23
REMARK SMILES IDX 11 25 12 26 13 27 17 28 14 29 16 30 15 31 2 32 3 33 1 34
REMARK SMILES IDX 37 35 24 37 25 38 26 39 27 40 28 41 36 42 29 43 33 44 30 45
REMARK SMILES IDX 31 46 34 47 35 48 32 49
REMARK H PARENT 39 24 32 50
REMARK Flexibility Score: 90.00
ROOT
ATOM      1  C   UNL     1     101.731  83.726  74.896  1.00  0.00     0.264 C 
ENDROOT
BRANCH   1   2
ATOM      2  C   UNL     1     101.990  82.285  75.272  1.00  0.00    -0.033 C 
ATOM      3  C   UNL     1     101.889  81.913  76.563  1.00  0.00    -0.015 C 
BRANCH   3   4
ATOM      4  C   UNL     1     102.170  80.563  77.203  1.00  0.00     0.078 C 
ATOM      5  O   UNL     1     100.035  79.313  77.218  1.00  0.00    -0.319 OA
ATOM      6  C   UNL     1     101.389  79.304  76.669  1.00  0.00     0.095 C 
ATOM      7  C   UNL     1      99.937  79.664  78.611  1.00  0.00     0.289 C 
ATOM      8  C   UNL     1     102.153  78.013  77.181  1.00  0.00     0.023 C 
ATOM      9  O   UNL     1     100.505  80.947  78.863  1.00  0.00    -0.320 OA
ATOM     10  O   UNL     1     100.648  78.757  79.449  1.00  0.00    -0.313 OA
ATOM     11  C   UNL     1     101.900  80.635  78.726  1.00  0.00     0.170 C 
ATOM     12  C   UNL     1     102.804  78.251  78.578  1.00  0.00     0.049 C 
ATOM     13  C   UNL     1     101.316  76.724  77.220  1.00  0.00     0.011 C 
ATOM     14  C   UNL     1     102.003  79.251  79.413  1.00  0.00     0.122 C 
BRANCH   6  15
ATOM     15  C   UNL     1     101.185  79.393  75.129  1.00  0.00     0.086 C 
ATOM     16  C   UNL     1     102.396  79.889  74.310  1.00  0.00     0.140 CG0
ATOM     17  C   UNL     1     100.728  78.177  74.375  1.00  0.00    -0.010 C 
ATOM     18  C   UNL     1     102.266  79.099  73.025  1.00  0.00     0.190 C 
ATOM     19  G   UNL     1     102.355  81.398  74.076  1.00  0.00     0.000 G0
ATOM     20  C   UNL     1     101.295  77.998  73.177  1.00  0.00    -0.008 C 
ATOM     21  O   UNL     1     102.906  79.297  72.004  1.00  0.00    -0.291 OA
ATOM     22  C   UNL     1     101.034  76.976  72.143  1.00  0.00     0.048 C 
BRANCH  16  23
ATOM     23  O   UNL     1     103.649  79.480  74.834  1.00  0.00    -0.381 OA
ATOM     24  H   UNL     1     104.138  79.017  74.133  1.00  0.00     0.212 HD
ENDBRANCH  16  23
ENDBRANCH   6  15
BRANCH   7  25
ATOM     25  C   UNL     1      98.472  79.669  78.998  1.00  0.00     0.135 C 
BRANCH  25  26
ATOM     26  C   UNL     1      97.851  81.035  78.848  1.00  0.00    -0.040 A 
ATOM     27  C   UNL     1      97.621  81.824  79.975  1.00  0.00     0.004 A 
ATOM     28  C   UNL     1      97.509  81.511  77.582  1.00  0.00     0.004 A 
ATOM     29  C   UNL     1      97.047  83.089  79.837  1.00  0.00     0.000 A 
ATOM     30  C   UNL     1      96.936  82.775  77.444  1.00  0.00     0.000 A 
ATOM     31  C   UNL     1      96.705  83.563  78.571  1.00  0.00     0.000 A 
ENDBRANCH  25  26
ENDBRANCH   7  25
BRANCH  14  32
ATOM     32  C   UNL     1     102.502  79.357  80.817  1.00  0.00    -0.046 C 
ATOM     33  C   UNL     1     102.804  80.741  81.310  1.00  0.00     0.042 C 
ATOM     34  C   UNL     1     102.671  78.276  81.594  1.00  0.00     0.010 C 
ENDBRANCH  14  32
ENDBRANCH   3   4
BRANCH   2  35
ATOM     35  C   UNL     1     102.338  81.413  74.080  1.00  0.00     0.078 CG0
ATOM     36  G   UNL     1     102.381  79.903  74.309  1.00  0.00     0.000 G0
ENDBRANCH   2  35
ENDBRANCH   1   2
BRANCH   1  37
ATOM     37  O   UNL     1     100.363  83.889  74.588  1.00  0.00    -0.461 OA
BRANCH  37  38
ATOM     38  C   UNL     1     100.059  84.866  73.668  1.00  0.00     0.310 C 
ATOM     39  O   UNL     1     100.549  85.987  73.645  1.00  0.00    -0.252 OA
BRANCH  38  40
ATOM     40  C   UNL     1      99.030  84.340  72.695  1.00  0.00     0.158 C 
BRANCH  40  41
ATOM     41  C   UNL     1      99.500  83.120  71.945  1.00  0.00    -0.033 A 
ATOM     42  C   UNL     1     100.474  83.244  70.953  1.00  0.00     0.054 A 
ATOM     43  C   UNL     1      98.964  81.868  72.243  1.00  0.00     0.008 A 
ATOM     44  C   UNL     1     100.909  82.115  70.258  1.00  0.00     0.160 A 
ATOM     45  C   UNL     1      99.399  80.739  71.548  1.00  0.00     0.050 A 
ATOM     46  C   UNL     1     100.371  80.862  70.556  1.00  0.00     0.157 A 
BRANCH  44  47
ATOM     47  O   UNL     1     101.859  82.249  69.291  1.00  0.00    -0.493 OA
ATOM     48  C   UNL     1     101.400  82.456  67.956  1.00  0.00     0.278 C 
ENDBRANCH  44  47
BRANCH  46  49
ATOM     49  O   UNL     1     100.789  79.753  69.885  1.00  0.00    -0.504 OA
ATOM     50  H   UNL     1     101.587  79.973  69.376  1.00  0.00     0.293 HD
ENDBRANCH  46  49
ENDBRANCH  40  41
ENDBRANCH  38  40
ENDBRANCH  37  38
ENDBRANCH   1  37
TORSDOF 11
ENDMDL
MODEL 10
REMARK VINA RESULT:    -4.009     24.317     27.157
REMARK INTER + INTRA:         -10.051
REMARK INTER:                  -8.987
REMARK INTRA:                  -1.065
REMARK UNBOUND:                -2.996
REMARK SMILES C=C(C)[C@]12C[C@@H](C)[C@@]34O[C@](Cc5ccccc5)(O[C@@H]1[C@@H]3C=C(COC(=O)Cc1ccc(O)c(OC)c1)C[C@]1(O)C(=O)C(C)=C[C@@H]41)O2
REMARK SMILES IDX 23 1 22 2 21 3 20 4 9 5 8 6 10 7 6 8 18 9 46 10 19 11 5 12
REMARK SMILES IDX 7 13 4 14 45 15 38 16 44 17 40 18 42 20 41 21 43 22 39 23
REMARK SMILES IDX 11 25 12 26 13 27 17 28 14 29 16 30 15 31 2 32 3 33 1 34
REMARK SMILES IDX 37 35 24 37 25 38 26 39 27 40 28 41 36 42 29 43 33 44 30 45
REMARK SMILES IDX 31 46 34 47 35 48 32 49
REMARK H PARENT 39 24 32 50
REMARK Flexibility Score: 90.00
ROOT
ATOM      1  C   UNL     1      79.514  65.525  83.780  1.00  0.00     0.264 C 
ENDROOT
BRANCH   1   2
ATOM      2  C   UNL     1      78.364  66.068  84.595  1.00  0.00    -0.033 C 
ATOM      3  C   UNL     1      78.473  67.289  85.157  1.00  0.00    -0.015 C 
BRANCH   3   4
ATOM      4  C   UNL     1      77.505  68.019  86.073  1.00  0.00     0.078 C 
ATOM      5  O   UNL     1      76.045  69.397  84.628  1.00  0.00    -0.319 OA
ATOM      6  C   UNL     1      76.038  68.274  85.562  1.00  0.00     0.095 C 
ATOM      7  C   UNL     1      76.859  70.519  85.019  1.00  0.00     0.289 C 
ATOM      8  C   UNL     1      75.149  68.645  86.820  1.00  0.00     0.023 C 
ATOM      9  O   UNL     1      78.215  70.128  85.223  1.00  0.00    -0.320 OA
ATOM     10  O   UNL     1      76.434  71.092  86.253  1.00  0.00    -0.313 OA
ATOM     11  C   UNL     1      78.085  69.403  86.456  1.00  0.00     0.170 C 
ATOM     12  C   UNL     1      75.971  69.428  87.890  1.00  0.00     0.049 C 
ATOM     13  C   UNL     1      73.853  69.412  86.510  1.00  0.00     0.011 C 
ATOM     14  C   UNL     1      77.076  70.270  87.249  1.00  0.00     0.122 C 
BRANCH   6  15
ATOM     15  C   UNL     1      75.531  67.069  84.717  1.00  0.00     0.086 C 
ATOM     16  C   UNL     1      75.871  65.666  85.261  1.00  0.00     0.140 CG0
ATOM     17  C   UNL     1      74.069  66.969  84.381  1.00  0.00    -0.010 C 
ATOM     18  C   UNL     1      74.658  64.856  84.853  1.00  0.00     0.190 C 
ATOM     19  G   UNL     1      77.168  65.117  84.670  1.00  0.00     0.000 G0
ATOM     20  C   UNL     1      73.556  65.735  84.421  1.00  0.00    -0.008 C 
ATOM     21  O   UNL     1      74.566  63.639  84.915  1.00  0.00    -0.291 OA
ATOM     22  C   UNL     1      72.201  65.256  84.076  1.00  0.00     0.048 C 
BRANCH  16  23
ATOM     23  O   UNL     1      75.872  65.584  86.677  1.00  0.00    -0.381 OA
ATOM     24  H   UNL     1      75.272  66.265  87.024  1.00  0.00     0.212 HD
ENDBRANCH  16  23
ENDBRANCH   6  15
BRANCH   7  25
ATOM     25  C   UNL     1      76.787  71.564  83.924  1.00  0.00     0.135 C 
BRANCH  25  26
ATOM     26  C   UNL     1      77.870  72.604  84.064  1.00  0.00    -0.040 A 
ATOM     27  C   UNL     1      78.934  72.629  83.161  1.00  0.00     0.004 A 
ATOM     28  C   UNL     1      77.808  73.543  85.093  1.00  0.00     0.004 A 
ATOM     29  C   UNL     1      79.936  73.591  83.289  1.00  0.00     0.000 A 
ATOM     30  C   UNL     1      78.810  74.505  85.222  1.00  0.00     0.000 A 
ATOM     31  C   UNL     1      79.874  74.529  84.319  1.00  0.00     0.000 A 
ENDBRANCH  25  26
ENDBRANCH   7  25
BRANCH  14  32
ATOM     32  C   UNL     1      77.757  71.166  88.231  1.00  0.00    -0.046 C 
ATOM     33  C   UNL     1      79.244  71.297  88.089  1.00  0.00     0.042 C 
ATOM     34  C   UNL     1      77.077  71.818  89.187  1.00  0.00     0.010 C 
ENDBRANCH  14  32
ENDBRANCH   3   4
BRANCH   2  35
ATOM     35  C   UNL     1      77.184  65.118  84.665  1.00  0.00     0.078 CG0
ATOM     36  G   UNL     1      75.880  65.665  85.245  1.00  0.00     0.000 G0
ENDBRANCH   2  35
ENDBRANCH   1   2
BRANCH   1  37
ATOM     37  O   UNL     1      80.670  65.459  84.588  1.00  0.00    -0.461 OA
BRANCH  37  38
ATOM     38  C   UNL     1      81.424  64.314  84.480  1.00  0.00     0.310 C 
ATOM     39  O   UNL     1      81.291  63.465  83.609  1.00  0.00    -0.252 OA
BRANCH  38  40
ATOM     40  C   UNL     1      82.437  64.269  85.599  1.00  0.00     0.158 C 
BRANCH  40  41
ATOM     41  C   UNL     1      83.447  65.385  85.522  1.00  0.00    -0.033 A 
ATOM     42  C   UNL     1      83.462  66.380  86.500  1.00  0.00     0.054 A 
ATOM     43  C   UNL     1      84.367  65.422  84.475  1.00  0.00     0.008 A 
ATOM     44  C   UNL     1      84.398  67.413  86.429  1.00  0.00     0.160 A 
ATOM     45  C   UNL     1      85.303  66.455  84.404  1.00  0.00     0.050 A 
ATOM     46  C   UNL     1      85.318  67.450  85.380  1.00  0.00     0.157 A 
BRANCH  44  47
ATOM     47  O   UNL     1      84.403  68.379  87.389  1.00  0.00    -0.493 OA
ATOM     48  C   UNL     1      83.523  69.487  87.199  1.00  0.00     0.278 C 
ENDBRANCH  44  47
BRANCH  46  49
ATOM     49  O   UNL     1      86.236  68.453  85.302  1.00  0.00    -0.504 OA
ATOM     50  H   UNL     1      86.776  68.325  84.503  1.00  0.00     0.293 HD
ENDBRANCH  46  49
ENDBRANCH  40  41
ENDBRANCH  38  40
ENDBRANCH  37  38
ENDBRANCH   1  37
TORSDOF 11
ENDMDL
