MODEL 1
REMARK VINA RESULT:    -6.637      0.000      0.000
REMARK INTER + INTRA:         -13.425
REMARK INTER:                 -11.680
REMARK INTRA:                  -1.745
REMARK UNBOUND:                -1.745
REMARK SMILES C=C(C)[C@]12C[C@@H](C)[C@@]34O[C@](Cc5ccccc5)(O[C@@H]1[C@@H]3C=C(COC(=O)Cc1ccc(O)c(OC)c1)C[C@]1(O)C(=O)C(C)=C[C@@H]41)O2
REMARK SMILES IDX 23 1 22 2 21 3 20 4 9 5 8 6 10 7 6 8 18 9 46 10 19 11 5 12
REMARK SMILES IDX 7 13 4 14 45 15 38 16 44 17 40 18 42 20 41 21 43 22 39 23
REMARK SMILES IDX 11 25 12 26 13 27 17 28 14 29 16 30 15 31 2 32 3 33 1 34
REMARK SMILES IDX 37 35 24 37 25 38 26 39 27 40 28 41 36 42 29 43 33 44 30 45
REMARK SMILES IDX 31 46 34 47 35 48 32 49
REMARK H PARENT 39 24 32 50
REMARK Flexibility Score: 90.00
ROOT
ATOM      1  C   UNL     1      64.860  87.976  70.568  1.00  0.00     0.264 C 
ENDROOT
BRANCH   1   2
ATOM      2  C   UNL     1      64.798  86.557  71.083  1.00  0.00    -0.033 C 
ATOM      3  C   UNL     1      64.390  86.332  72.348  1.00  0.00    -0.015 C 
BRANCH   3   4
ATOM      4  C   UNL     1      64.315  85.024  73.119  1.00  0.00     0.078 C 
ATOM      5  O   UNL     1      62.030  84.130  72.798  1.00  0.00    -0.319 OA
ATOM      6  C   UNL     1      63.440  83.857  72.528  1.00  0.00     0.095 C 
ATOM      7  C   UNL     1      61.741  84.628  74.119  1.00  0.00     0.289 C 
ATOM      8  C   UNL     1      63.864  82.519  73.265  1.00  0.00     0.023 C 
ATOM      9  O   UNL     1      62.466  85.825  74.391  1.00  0.00    -0.320 OA
ATOM     10  O   UNL     1      62.121  83.708  75.139  1.00  0.00    -0.313 OA
ATOM     11  C   UNL     1      63.788  85.288  74.551  1.00  0.00     0.170 C 
ATOM     12  C   UNL     1      64.280  82.789  74.744  1.00  0.00     0.049 C 
ATOM     13  C   UNL     1      62.826  81.386  73.225  1.00  0.00     0.011 C 
ATOM     14  C   UNL     1      63.524  83.979  75.336  1.00  0.00     0.122 C 
BRANCH   6  15
ATOM     15  C   UNL     1      63.538  83.824  70.975  1.00  0.00     0.086 C 
ATOM     16  C   UNL     1      64.947  84.027  70.379  1.00  0.00     0.140 CG0
ATOM     17  C   UNL     1      63.011  82.631  70.228  1.00  0.00    -0.010 C 
ATOM     18  C   UNL     1      64.910  83.146  69.149  1.00  0.00     0.190 C 
ATOM     19  G   UNL     1      65.225  85.492  70.042  1.00  0.00     0.000 G0
ATOM     20  C   UNL     1      63.745  82.242  69.180  1.00  0.00    -0.008 C 
ATOM     21  O   UNL     1      65.751  83.132  68.262  1.00  0.00    -0.291 OA
ATOM     22  C   UNL     1      63.493  81.180  68.185  1.00  0.00     0.048 C 
BRANCH  16  23
ATOM     23  O   UNL     1      65.988  83.470  71.164  1.00  0.00    -0.381 OA
ATOM     24  H   UNL     1      66.807  83.484  70.642  1.00  0.00     0.212 HD
ENDBRANCH  16  23
ENDBRANCH   6  15
BRANCH   7  25
ATOM     25  C   UNL     1      60.253  84.898  74.210  1.00  0.00     0.135 C 
BRANCH  25  26
ATOM     26  C   UNL     1      59.695  85.431  72.914  1.00  0.00    -0.040 A 
ATOM     27  C   UNL     1      59.676  86.806  72.676  1.00  0.00     0.004 A 
ATOM     28  C   UNL     1      59.199  84.551  71.953  1.00  0.00     0.004 A 
ATOM     29  C   UNL     1      59.160  87.300  71.477  1.00  0.00     0.000 A 
ATOM     30  C   UNL     1      58.683  85.044  70.754  1.00  0.00     0.000 A 
ATOM     31  C   UNL     1      58.664  86.419  70.517  1.00  0.00     0.000 A 
ENDBRANCH  25  26
ENDBRANCH   7  25
BRANCH  14  32
ATOM     32  C   UNL     1      63.770  84.144  76.801  1.00  0.00    -0.046 C 
ATOM     33  C   UNL     1      65.153  83.820  77.281  1.00  0.00     0.042 C 
ATOM     34  C   UNL     1      62.808  84.558  77.639  1.00  0.00     0.010 C 
ENDBRANCH  14  32
ENDBRANCH   3   4
BRANCH   2  35
ATOM     35  C   UNL     1      65.218  85.530  70.048  1.00  0.00     0.078 CG0
ATOM     36  G   UNL     1      64.938  84.062  70.367  1.00  0.00     0.000 G0
ENDBRANCH   2  35
ENDBRANCH   1   2
BRANCH   1  37
ATOM     37  O   UNL     1      65.302  88.829  71.602  1.00  0.00    -0.461 OA
BRANCH  37  38
ATOM     38  C   UNL     1      66.576  89.333  71.472  1.00  0.00     0.310 C 
ATOM     39  O   UNL     1      66.908  90.208  70.685  1.00  0.00    -0.252 OA
BRANCH  38  40
ATOM     40  C   UNL     1      67.495  88.639  72.449  1.00  0.00     0.158 C 
BRANCH  40  41
ATOM     41  C   UNL     1      68.703  88.027  71.788  1.00  0.00    -0.033 A 
ATOM     42  C   UNL     1      68.558  86.903  70.975  1.00  0.00     0.054 A 
ATOM     43  C   UNL     1      69.965  88.586  71.988  1.00  0.00     0.008 A 
ATOM     44  C   UNL     1      69.676  86.337  70.362  1.00  0.00     0.160 A 
ATOM     45  C   UNL     1      71.083  88.019  71.375  1.00  0.00     0.050 A 
ATOM     46  C   UNL     1      70.939  86.895  70.563  1.00  0.00     0.157 A 
BRANCH  44  47
ATOM     47  O   UNL     1      69.522  85.239  69.571  1.00  0.00    -0.493 OA
ATOM     48  C   UNL     1      68.783  85.408  68.363  1.00  0.00     0.278 C 
ENDBRANCH  44  47
BRANCH  46  49
ATOM     49  O   UNL     1      72.038  86.352  69.970  1.00  0.00    -0.504 OA
ATOM     50  H   UNL     1      71.978  86.487  69.009  1.00  0.00     0.293 HD
ENDBRANCH  46  49
ENDBRANCH  40  41
ENDBRANCH  38  40
ENDBRANCH  37  38
ENDBRANCH   1  37
TORSDOF 11
ENDMDL
MODEL 2
REMARK VINA RESULT:    -6.625      1.689      3.019
REMARK INTER + INTRA:         -13.405
REMARK INTER:                 -11.322
REMARK INTRA:                  -2.083
REMARK UNBOUND:                -1.745
REMARK SMILES C=C(C)[C@]12C[C@@H](C)[C@@]34O[C@](Cc5ccccc5)(O[C@@H]1[C@@H]3C=C(COC(=O)Cc1ccc(O)c(OC)c1)C[C@]1(O)C(=O)C(C)=C[C@@H]41)O2
REMARK SMILES IDX 23 1 22 2 21 3 20 4 9 5 8 6 10 7 6 8 18 9 46 10 19 11 5 12
REMARK SMILES IDX 7 13 4 14 45 15 38 16 44 17 40 18 42 20 41 21 43 22 39 23
REMARK SMILES IDX 11 25 12 26 13 27 17 28 14 29 16 30 15 31 2 32 3 33 1 34
REMARK SMILES IDX 37 35 24 37 25 38 26 39 27 40 28 41 36 42 29 43 33 44 30 45
REMARK SMILES IDX 31 46 34 47 35 48 32 49
REMARK H PARENT 39 24 32 50
REMARK Flexibility Score: 90.00
ROOT
ATOM      1  C   UNL     1      64.977  88.016  70.676  1.00  0.00     0.264 C 
ENDROOT
BRANCH   1   2
ATOM      2  C   UNL     1      64.861  86.582  71.137  1.00  0.00    -0.033 C 
ATOM      3  C   UNL     1      64.446  86.324  72.394  1.00  0.00    -0.015 C 
BRANCH   3   4
ATOM      4  C   UNL     1      64.320  84.992  73.114  1.00  0.00     0.078 C 
ATOM      5  O   UNL     1      62.004  84.197  72.759  1.00  0.00    -0.319 OA
ATOM      6  C   UNL     1      63.403  83.881  72.479  1.00  0.00     0.095 C 
ATOM      7  C   UNL     1      61.732  84.654  74.098  1.00  0.00     0.289 C 
ATOM      8  C   UNL     1      63.776  82.502  73.165  1.00  0.00     0.023 C 
ATOM      9  O   UNL     1      62.500  85.812  74.415  1.00  0.00    -0.320 OA
ATOM     10  O   UNL     1      62.076  83.682  75.082  1.00  0.00    -0.313 OA
ATOM     11  C   UNL     1      63.801  85.220  74.555  1.00  0.00     0.170 C 
ATOM     12  C   UNL     1      64.200  82.700  74.653  1.00  0.00     0.049 C 
ATOM     13  C   UNL     1      62.697  81.410  73.082  1.00  0.00     0.011 C 
ATOM     14  C   UNL     1      63.487  83.893  75.290  1.00  0.00     0.122 C 
BRANCH   6  15
ATOM     15  C   UNL     1      63.503  83.904  70.927  1.00  0.00     0.086 C 
ATOM     16  C   UNL     1      64.917  84.094  70.339  1.00  0.00     0.140 CG0
ATOM     17  C   UNL     1      62.948  82.753  70.135  1.00  0.00    -0.010 C 
ATOM     18  C   UNL     1      64.860  83.260  69.077  1.00  0.00     0.190 C 
ATOM     19  G   UNL     1      65.232  85.562  70.057  1.00  0.00     0.000 G0
ATOM     20  C   UNL     1      63.673  82.385  69.074  1.00  0.00    -0.008 C 
ATOM     21  O   UNL     1      65.701  83.258  68.191  1.00  0.00    -0.291 OA
ATOM     22  C   UNL     1      63.396  81.367  68.039  1.00  0.00     0.048 C 
BRANCH  16  23
ATOM     23  O   UNL     1      65.943  83.482  71.103  1.00  0.00    -0.381 OA
ATOM     24  H   UNL     1      66.763  83.495  70.582  1.00  0.00     0.212 HD
ENDBRANCH  16  23
ENDBRANCH   6  15
BRANCH   7  25
ATOM     25  C   UNL     1      60.255  84.976  74.199  1.00  0.00     0.135 C 
BRANCH  25  26
ATOM     26  C   UNL     1      59.710  85.543  72.911  1.00  0.00    -0.040 A 
ATOM     27  C   UNL     1      59.741  86.920  72.687  1.00  0.00     0.004 A 
ATOM     28  C   UNL     1      59.178  84.691  71.943  1.00  0.00     0.004 A 
ATOM     29  C   UNL     1      59.238  87.444  71.496  1.00  0.00     0.000 A 
ATOM     30  C   UNL     1      58.675  85.216  70.752  1.00  0.00     0.000 A 
ATOM     31  C   UNL     1      58.705  86.592  70.530  1.00  0.00     0.000 A 
ENDBRANCH  25  26
ENDBRANCH   7  25
BRANCH  14  32
ATOM     32  C   UNL     1      63.736  83.993  76.760  1.00  0.00    -0.046 C 
ATOM     33  C   UNL     1      65.124  83.659  77.221  1.00  0.00     0.042 C 
ATOM     34  C   UNL     1      62.774  84.360  77.619  1.00  0.00     0.010 C 
ENDBRANCH  14  32
ENDBRANCH   3   4
BRANCH   2  35
ATOM     35  C   UNL     1      65.240  85.579  70.063  1.00  0.00     0.078 CG0
ATOM     36  G   UNL     1      64.934  84.108  70.341  1.00  0.00     0.000 G0
ENDBRANCH   2  35
ENDBRANCH   1   2
BRANCH   1  37
ATOM     37  O   UNL     1      65.541  88.794  71.710  1.00  0.00    -0.461 OA
BRANCH  37  38
ATOM     38  C   UNL     1      66.758  89.374  71.440  1.00  0.00     0.310 C 
ATOM     39  O   UNL     1      66.924  90.371  70.750  1.00  0.00    -0.252 OA
BRANCH  38  40
ATOM     40  C   UNL     1      67.854  88.592  72.126  1.00  0.00     0.158 C 
BRANCH  40  41
ATOM     41  C   UNL     1      67.543  88.287  73.569  1.00  0.00    -0.033 A 
ATOM     42  C   UNL     1      67.404  89.328  74.487  1.00  0.00     0.054 A 
ATOM     43  C   UNL     1      67.396  86.964  73.986  1.00  0.00     0.008 A 
ATOM     44  C   UNL     1      67.117  89.046  75.823  1.00  0.00     0.160 A 
ATOM     45  C   UNL     1      67.108  86.682  75.322  1.00  0.00     0.050 A 
ATOM     46  C   UNL     1      66.969  87.722  76.240  1.00  0.00     0.157 A 
BRANCH  44  47
ATOM     47  O   UNL     1      66.983  90.071  76.710  1.00  0.00    -0.493 OA
ATOM     48  C   UNL     1      65.871  90.946  76.527  1.00  0.00     0.278 C 
ENDBRANCH  44  47
BRANCH  46  49
ATOM     49  O   UNL     1      66.688  87.435  77.541  1.00  0.00    -0.504 OA
ATOM     50  H   UNL     1      67.129  88.087  78.112  1.00  0.00     0.293 HD
ENDBRANCH  46  49
ENDBRANCH  40  41
ENDBRANCH  38  40
ENDBRANCH  37  38
ENDBRANCH   1  37
TORSDOF 11
ENDMDL
MODEL 3
REMARK VINA RESULT:    -6.522      3.003      6.074
REMARK INTER + INTRA:         -13.224
REMARK INTER:                 -10.510
REMARK INTRA:                  -2.714
REMARK UNBOUND:                -1.745
REMARK SMILES C=C(C)[C@]12C[C@@H](C)[C@@]34O[C@](Cc5ccccc5)(O[C@@H]1[C@@H]3C=C(COC(=O)Cc1ccc(O)c(OC)c1)C[C@]1(O)C(=O)C(C)=C[C@@H]41)O2
REMARK SMILES IDX 23 1 22 2 21 3 20 4 9 5 8 6 10 7 6 8 18 9 46 10 19 11 5 12
REMARK SMILES IDX 7 13 4 14 45 15 38 16 44 17 40 18 42 20 41 21 43 22 39 23
REMARK SMILES IDX 11 25 12 26 13 27 17 28 14 29 16 30 15 31 2 32 3 33 1 34
REMARK SMILES IDX 37 35 24 37 25 38 26 39 27 40 28 41 36 42 29 43 33 44 30 45
REMARK SMILES IDX 31 46 34 47 35 48 32 49
REMARK H PARENT 39 24 32 50
REMARK Flexibility Score: 90.00
ROOT
ATOM      1  C   UNL     1      62.340  88.946  74.344  1.00  0.00     0.264 C 
ENDROOT
BRANCH   1   2
ATOM      2  C   UNL     1      62.457  87.933  73.230  1.00  0.00    -0.033 C 
ATOM      3  C   UNL     1      63.525  87.110  73.197  1.00  0.00    -0.015 C 
BRANCH   3   4
ATOM      4  C   UNL     1      63.912  86.072  72.156  1.00  0.00     0.078 C 
ATOM      5  O   UNL     1      62.975  83.911  72.912  1.00  0.00    -0.319 OA
ATOM      6  C   UNL     1      62.897  84.909  71.847  1.00  0.00     0.095 C 
ATOM      7  C   UNL     1      64.305  83.586  73.356  1.00  0.00     0.289 C 
ATOM      8  C   UNL     1      63.332  84.245  70.475  1.00  0.00     0.023 C 
ATOM      9  O   UNL     1      64.997  84.746  73.811  1.00  0.00    -0.320 OA
ATOM     10  O   UNL     1      65.108  83.044  72.310  1.00  0.00    -0.313 OA
ATOM     11  C   UNL     1      65.247  85.398  72.556  1.00  0.00     0.170 C 
ATOM     12  C   UNL     1      64.881  84.280  70.289  1.00  0.00     0.049 C 
ATOM     13  C   UNL     1      62.822  82.814  70.244  1.00  0.00     0.011 C 
ATOM     14  C   UNL     1      65.613  84.211  71.630  1.00  0.00     0.122 C 
BRANCH   6  15
ATOM     15  C   UNL     1      61.431  85.426  71.904  1.00  0.00     0.086 C 
ATOM     16  C   UNL     1      61.165  86.792  71.239  1.00  0.00     0.140 CG0
ATOM     17  C   UNL     1      60.323  84.558  71.376  1.00  0.00    -0.010 C 
ATOM     18  C   UNL     1      59.763  86.621  70.691  1.00  0.00     0.190 C 
ATOM     19  G   UNL     1      61.267  87.947  72.233  1.00  0.00     0.000 G0
ATOM     20  C   UNL     1      59.357  85.203  70.713  1.00  0.00    -0.008 C 
ATOM     21  O   UNL     1      59.066  87.515  70.238  1.00  0.00    -0.291 OA
ATOM     22  C   UNL     1      58.095  84.694  70.138  1.00  0.00     0.048 C 
BRANCH  16  23
ATOM     23  O   UNL     1      61.952  87.031  70.084  1.00  0.00    -0.381 OA
ATOM     24  H   UNL     1      61.360  87.108  69.319  1.00  0.00     0.212 HD
ENDBRANCH  16  23
ENDBRANCH   6  15
BRANCH   7  25
ATOM     25  C   UNL     1      64.197  82.579  74.484  1.00  0.00     0.135 C 
BRANCH  25  26
ATOM     26  C   UNL     1      63.973  83.247  75.818  1.00  0.00    -0.040 A 
ATOM     27  C   UNL     1      62.778  83.923  76.067  1.00  0.00     0.004 A 
ATOM     28  C   UNL     1      64.958  83.187  76.803  1.00  0.00     0.004 A 
ATOM     29  C   UNL     1      62.570  84.540  77.300  1.00  0.00     0.000 A 
ATOM     30  C   UNL     1      64.750  83.804  78.036  1.00  0.00     0.000 A 
ATOM     31  C   UNL     1      63.555  84.481  78.285  1.00  0.00     0.000 A 
ENDBRANCH  25  26
ENDBRANCH   7  25
BRANCH  14  32
ATOM     32  C   UNL     1      67.091  84.060  71.470  1.00  0.00    -0.046 C 
ATOM     33  C   UNL     1      67.944  84.848  72.418  1.00  0.00     0.042 C 
ATOM     34  C   UNL     1      67.624  83.264  70.531  1.00  0.00     0.010 C 
ENDBRANCH  14  32
ENDBRANCH   3   4
BRANCH   2  35
ATOM     35  C   UNL     1      61.293  87.979  72.259  1.00  0.00     0.078 CG0
ATOM     36  G   UNL     1      61.164  86.823  71.267  1.00  0.00     0.000 G0
ENDBRANCH   2  35
ENDBRANCH   1   2
BRANCH   1  37
ATOM     37  O   UNL     1      62.378  88.280  75.588  1.00  0.00    -0.461 OA
BRANCH  37  38
ATOM     38  C   UNL     1      63.012  88.942  76.614  1.00  0.00     0.310 C 
ATOM     39  O   UNL     1      62.512  89.196  77.701  1.00  0.00    -0.252 OA
BRANCH  38  40
ATOM     40  C   UNL     1      64.415  89.306  76.189  1.00  0.00     0.158 C 
BRANCH  40  41
ATOM     41  C   UNL     1      65.426  88.240  76.527  1.00  0.00    -0.033 A 
ATOM     42  C   UNL     1      65.601  87.839  77.852  1.00  0.00     0.054 A 
ATOM     43  C   UNL     1      66.187  87.654  75.515  1.00  0.00     0.008 A 
ATOM     44  C   UNL     1      66.536  86.853  78.164  1.00  0.00     0.160 A 
ATOM     45  C   UNL     1      67.123  86.668  75.828  1.00  0.00     0.050 A 
ATOM     46  C   UNL     1      67.298  86.267  77.152  1.00  0.00     0.157 A 
BRANCH  44  47
ATOM     47  O   UNL     1      66.698  86.470  79.462  1.00  0.00    -0.493 OA
ATOM     48  C   UNL     1      66.558  87.482  80.458  1.00  0.00     0.278 C 
ENDBRANCH  44  47
BRANCH  46  49
ATOM     49  O   UNL     1      68.213  85.303  77.445  1.00  0.00    -0.504 OA
ATOM     50  H   UNL     1      67.930  84.464  77.043  1.00  0.00     0.293 HD
ENDBRANCH  46  49
ENDBRANCH  40  41
ENDBRANCH  38  40
ENDBRANCH  37  38
ENDBRANCH   1  37
TORSDOF 11
ENDMDL
MODEL 4
REMARK VINA RESULT:    -6.321      4.484     11.416
REMARK INTER + INTRA:         -12.870
REMARK INTER:                 -12.043
REMARK INTRA:                  -0.826
REMARK UNBOUND:                -1.745
REMARK SMILES C=C(C)[C@]12C[C@@H](C)[C@@]34O[C@](Cc5ccccc5)(O[C@@H]1[C@@H]3C=C(COC(=O)Cc1ccc(O)c(OC)c1)C[C@]1(O)C(=O)C(C)=C[C@@H]41)O2
REMARK SMILES IDX 23 1 22 2 21 3 20 4 9 5 8 6 10 7 6 8 18 9 46 10 19 11 5 12
REMARK SMILES IDX 7 13 4 14 45 15 38 16 44 17 40 18 42 20 41 21 43 22 39 23
REMARK SMILES IDX 11 25 12 26 13 27 17 28 14 29 16 30 15 31 2 32 3 33 1 34
REMARK SMILES IDX 37 35 24 37 25 38 26 39 27 40 28 41 36 42 29 43 33 44 30 45
REMARK SMILES IDX 31 46 34 47 35 48 32 49
REMARK H PARENT 39 24 32 50
REMARK Flexibility Score: 90.00
ROOT
ATOM      1  C   UNL     1      69.289  83.071  69.065  1.00  0.00     0.264 C 
ENDROOT
BRANCH   1   2
ATOM      2  C   UNL     1      70.296  83.681  68.119  1.00  0.00    -0.033 C 
ATOM      3  C   UNL     1      70.609  84.987  68.241  1.00  0.00    -0.015 C 
BRANCH   3   4
ATOM      4  C   UNL     1      71.520  85.845  67.378  1.00  0.00     0.078 C 
ATOM      5  O   UNL     1      73.767  85.774  68.411  1.00  0.00    -0.319 OA
ATOM      6  C   UNL     1      73.023  85.406  67.209  1.00  0.00     0.095 C 
ATOM      7  C   UNL     1      73.471  87.078  68.945  1.00  0.00     0.289 C 
ATOM      8  C   UNL     1      73.614  86.192  65.966  1.00  0.00     0.023 C 
ATOM      9  O   UNL     1      72.084  87.210  69.247  1.00  0.00    -0.320 OA
ATOM     10  O   UNL     1      73.764  88.121  68.018  1.00  0.00    -0.313 OA
ATOM     11  C   UNL     1      71.544  87.296  67.920  1.00  0.00     0.170 C 
ATOM     12  C   UNL     1      72.979  87.610  65.831  1.00  0.00     0.049 C 
ATOM     13  C   UNL     1      75.146  86.312  65.930  1.00  0.00     0.011 C 
ATOM     14  C   UNL     1      72.583  88.184  67.192  1.00  0.00     0.122 C 
BRANCH   6  15
ATOM     15  C   UNL     1      73.140  83.856  67.138  1.00  0.00     0.086 C 
ATOM     16  C   UNL     1      72.083  83.133  66.277  1.00  0.00     0.140 CG0
ATOM     17  C   UNL     1      74.435  83.235  66.696  1.00  0.00    -0.010 C 
ATOM     18  C   UNL     1      72.868  81.970  65.707  1.00  0.00     0.190 C 
ATOM     19  G   UNL     1      70.880  82.679  67.102  1.00  0.00     0.000 G0
ATOM     20  C   UNL     1      74.316  82.157  65.914  1.00  0.00    -0.008 C 
ATOM     21  O   UNL     1      72.389  81.019  65.107  1.00  0.00    -0.291 OA
ATOM     22  C   UNL     1      75.354  81.258  65.369  1.00  0.00     0.048 C 
BRANCH  16  23
ATOM     23  O   UNL     1      71.680  83.863  65.131  1.00  0.00    -0.381 OA
ATOM     24  H   UNL     1      70.937  84.439  65.379  1.00  0.00     0.212 HD
ENDBRANCH  16  23
ENDBRANCH   6  15
BRANCH   7  25
ATOM     25  C   UNL     1      74.291  87.275  70.204  1.00  0.00     0.135 C 
BRANCH  25  26
ATOM     26  C   UNL     1      75.579  86.490  70.167  1.00  0.00    -0.040 A 
ATOM     27  C   UNL     1      76.735  87.073  69.647  1.00  0.00     0.004 A 
ATOM     28  C   UNL     1      75.615  85.184  70.654  1.00  0.00     0.004 A 
ATOM     29  C   UNL     1      77.927  86.348  69.613  1.00  0.00     0.000 A 
ATOM     30  C   UNL     1      76.807  84.459  70.621  1.00  0.00     0.000 A 
ATOM     31  C   UNL     1      77.962  85.042  70.100  1.00  0.00     0.000 A 
ENDBRANCH  25  26
ENDBRANCH   7  25
BRANCH  14  32
ATOM     32  C   UNL     1      72.143  89.609  67.108  1.00  0.00    -0.046 C 
ATOM     33  C   UNL     1      72.157  90.384  68.392  1.00  0.00     0.042 C 
ATOM     34  C   UNL     1      71.757  90.165  65.949  1.00  0.00     0.010 C 
ENDBRANCH  14  32
ENDBRANCH   3   4
BRANCH   2  35
ATOM     35  C   UNL     1      70.848  82.686  67.115  1.00  0.00     0.078 CG0
ATOM     36  G   UNL     1      72.072  83.114  66.307  1.00  0.00     0.000 G0
ENDBRANCH   2  35
ENDBRANCH   1   2
BRANCH   1  37
ATOM     37  O   UNL     1      68.233  83.984  69.276  1.00  0.00    -0.461 OA
BRANCH  37  38
ATOM     38  C   UNL     1      67.887  84.222  70.585  1.00  0.00     0.310 C 
ATOM     39  O   UNL     1      68.587  83.965  71.555  1.00  0.00    -0.252 OA
BRANCH  38  40
ATOM     40  C   UNL     1      66.512  84.847  70.638  1.00  0.00     0.158 C 
BRANCH  40  41
ATOM     41  C   UNL     1      65.460  83.909  71.168  1.00  0.00    -0.033 A 
ATOM     42  C   UNL     1      64.247  84.415  71.638  1.00  0.00     0.054 A 
ATOM     43  C   UNL     1      65.696  82.535  71.189  1.00  0.00     0.008 A 
ATOM     44  C   UNL     1      63.272  83.546  72.130  1.00  0.00     0.160 A 
ATOM     45  C   UNL     1      64.722  81.666  71.680  1.00  0.00     0.050 A 
ATOM     46  C   UNL     1      63.510  82.171  72.151  1.00  0.00     0.157 A 
BRANCH  44  47
ATOM     47  O   UNL     1      62.093  84.052  72.586  1.00  0.00    -0.493 OA
ATOM     48  C   UNL     1      62.088  84.594  73.906  1.00  0.00     0.278 C 
ENDBRANCH  44  47
BRANCH  46  49
ATOM     49  O   UNL     1      62.565  81.313  72.627  1.00  0.00    -0.504 OA
ATOM     50  H   UNL     1      62.636  81.271  73.595  1.00  0.00     0.293 HD
ENDBRANCH  46  49
ENDBRANCH  40  41
ENDBRANCH  38  40
ENDBRANCH  37  38
ENDBRANCH   1  37
TORSDOF 11
ENDMDL
MODEL 5
REMARK VINA RESULT:    -6.286      2.377      4.930
REMARK INTER + INTRA:         -12.808
REMARK INTER:                 -10.811
REMARK INTRA:                  -1.997
REMARK UNBOUND:                -1.745
REMARK SMILES C=C(C)[C@]12C[C@@H](C)[C@@]34O[C@](Cc5ccccc5)(O[C@@H]1[C@@H]3C=C(COC(=O)Cc1ccc(O)c(OC)c1)C[C@]1(O)C(=O)C(C)=C[C@@H]41)O2
REMARK SMILES IDX 23 1 22 2 21 3 20 4 9 5 8 6 10 7 6 8 18 9 46 10 19 11 5 12
REMARK SMILES IDX 7 13 4 14 45 15 38 16 44 17 40 18 42 20 41 21 43 22 39 23
REMARK SMILES IDX 11 25 12 26 13 27 17 28 14 29 16 30 15 31 2 32 3 33 1 34
REMARK SMILES IDX 37 35 24 37 25 38 26 39 27 40 28 41 36 42 29 43 33 44 30 45
REMARK SMILES IDX 31 46 34 47 35 48 32 49
REMARK H PARENT 39 24 32 50
REMARK Flexibility Score: 90.00
ROOT
ATOM      1  C   UNL     1      65.547  87.838  70.929  1.00  0.00     0.264 C 
ENDROOT
BRANCH   1   2
ATOM      2  C   UNL     1      65.303  86.409  71.356  1.00  0.00    -0.033 C 
ATOM      3  C   UNL     1      64.874  86.159  72.609  1.00  0.00    -0.015 C 
BRANCH   3   4
ATOM      4  C   UNL     1      64.632  84.826  73.298  1.00  0.00     0.078 C 
ATOM      5  O   UNL     1      62.251  84.255  72.943  1.00  0.00    -0.319 OA
ATOM      6  C   UNL     1      63.613  83.820  72.644  1.00  0.00     0.095 C 
ATOM      7  C   UNL     1      62.029  84.701  74.294  1.00  0.00     0.289 C 
ATOM      8  C   UNL     1      63.862  82.396  73.292  1.00  0.00     0.023 C 
ATOM      9  O   UNL     1      62.902  85.776  74.633  1.00  0.00    -0.320 OA
ATOM     10  O   UNL     1      62.289  83.678  75.251  1.00  0.00    -0.313 OA
ATOM     11  C   UNL     1      64.144  85.065  74.749  1.00  0.00     0.170 C 
ATOM     12  C   UNL     1      64.311  82.517  74.781  1.00  0.00     0.049 C 
ATOM     13  C   UNL     1      62.687  81.410  73.191  1.00  0.00     0.011 C 
ATOM     14  C   UNL     1      63.715  83.754  75.453  1.00  0.00     0.122 C 
BRANCH   6  15
ATOM     15  C   UNL     1      63.706  83.873  71.091  1.00  0.00     0.086 C 
ATOM     16  C   UNL     1      65.128  83.944  70.497  1.00  0.00     0.140 CG0
ATOM     17  C   UNL     1      63.040  82.799  70.277  1.00  0.00    -0.010 C 
ATOM     18  C   UNL     1      64.986  83.151  69.215  1.00  0.00     0.190 C 
ATOM     19  G   UNL     1      65.578  85.383  70.248  1.00  0.00     0.000 G0
ATOM     20  C   UNL     1      63.721  82.392  69.200  1.00  0.00    -0.008 C 
ATOM     21  O   UNL     1      65.818  83.093  68.322  1.00  0.00    -0.291 OA
ATOM     22  C   UNL     1      63.345  81.431  68.143  1.00  0.00     0.048 C 
BRANCH  16  23
ATOM     23  O   UNL     1      66.096  83.220  71.237  1.00  0.00    -0.381 OA
ATOM     24  H   UNL     1      65.730  82.346  71.450  1.00  0.00     0.212 HD
ENDBRANCH  16  23
ENDBRANCH   6  15
BRANCH   7  25
ATOM     25  C   UNL     1      60.588  85.154  74.415  1.00  0.00     0.135 C 
BRANCH  25  26
ATOM     26  C   UNL     1      60.046  85.671  73.105  1.00  0.00    -0.040 A 
ATOM     27  C   UNL     1      60.240  87.006  72.749  1.00  0.00     0.004 A 
ATOM     28  C   UNL     1      59.353  84.814  72.250  1.00  0.00     0.004 A 
ATOM     29  C   UNL     1      59.739  87.484  71.537  1.00  0.00     0.000 A 
ATOM     30  C   UNL     1      58.853  85.292  71.039  1.00  0.00     0.000 A 
ATOM     31  C   UNL     1      59.046  86.627  70.683  1.00  0.00     0.000 A 
ENDBRANCH  25  26
ENDBRANCH   7  25
BRANCH  14  32
ATOM     32  C   UNL     1      63.980  83.794  76.923  1.00  0.00    -0.046 C 
ATOM     33  C   UNL     1      62.821  84.172  77.796  1.00  0.00     0.042 C 
ATOM     34  C   UNL     1      65.188  83.507  77.433  1.00  0.00     0.010 C 
ENDBRANCH  14  32
ENDBRANCH   3   4
BRANCH   2  35
ATOM     35  C   UNL     1      65.580  85.404  70.254  1.00  0.00     0.078 CG0
ATOM     36  G   UNL     1      65.136  83.962  70.495  1.00  0.00     0.000 G0
ENDBRANCH   2  35
ENDBRANCH   1   2
BRANCH   1  37
ATOM     37  O   UNL     1      64.819  88.707  71.770  1.00  0.00    -0.461 OA
BRANCH  37  38
ATOM     38  C   UNL     1      64.499  89.937  71.243  1.00  0.00     0.310 C 
ATOM     39  O   UNL     1      65.180  90.947  71.352  1.00  0.00    -0.252 OA
BRANCH  38  40
ATOM     40  C   UNL     1      63.181  89.844  70.511  1.00  0.00     0.158 C 
BRANCH  40  41
ATOM     41  C   UNL     1      62.034  90.438  71.287  1.00  0.00    -0.033 A 
ATOM     42  C   UNL     1      60.907  90.910  70.614  1.00  0.00     0.054 A 
ATOM     43  C   UNL     1      62.099  90.516  72.678  1.00  0.00     0.008 A 
ATOM     44  C   UNL     1      59.845  91.460  71.333  1.00  0.00     0.160 A 
ATOM     45  C   UNL     1      61.038  91.066  73.397  1.00  0.00     0.050 A 
ATOM     46  C   UNL     1      59.911  91.538  72.725  1.00  0.00     0.157 A 
BRANCH  44  47
ATOM     47  O   UNL     1      58.750  91.918  70.665  1.00  0.00    -0.493 OA
ATOM     48  C   UNL     1      58.912  93.105  69.891  1.00  0.00     0.278 C 
ENDBRANCH  44  47
BRANCH  46  49
ATOM     49  O   UNL     1      58.880  92.072  73.437  1.00  0.00    -0.504 OA
ATOM     50  H   UNL     1      58.083  92.081  72.882  1.00  0.00     0.293 HD
ENDBRANCH  46  49
ENDBRANCH  40  41
ENDBRANCH  38  40
ENDBRANCH  37  38
ENDBRANCH   1  37
TORSDOF 11
ENDMDL
MODEL 6
REMARK VINA RESULT:    -5.993      3.549      7.160
REMARK INTER + INTRA:         -12.292
REMARK INTER:                 -11.104
REMARK INTRA:                  -1.188
REMARK UNBOUND:                -1.745
REMARK SMILES C=C(C)[C@]12C[C@@H](C)[C@@]34O[C@](Cc5ccccc5)(O[C@@H]1[C@@H]3C=C(COC(=O)Cc1ccc(O)c(OC)c1)C[C@]1(O)C(=O)C(C)=C[C@@H]41)O2
REMARK SMILES IDX 23 1 22 2 21 3 20 4 9 5 8 6 10 7 6 8 18 9 46 10 19 11 5 12
REMARK SMILES IDX 7 13 4 14 45 15 38 16 44 17 40 18 42 20 41 21 43 22 39 23
REMARK SMILES IDX 11 25 12 26 13 27 17 28 14 29 16 30 15 31 2 32 3 33 1 34
REMARK SMILES IDX 37 35 24 37 25 38 26 39 27 40 28 41 36 42 29 43 33 44 30 45
REMARK SMILES IDX 31 46 34 47 35 48 32 49
REMARK H PARENT 39 24 32 50
REMARK Flexibility Score: 90.00
ROOT
ATOM      1  C   UNL     1      64.431  87.932  74.943  1.00  0.00     0.264 C 
ENDROOT
BRANCH   1   2
ATOM      2  C   UNL     1      63.189  87.183  74.518  1.00  0.00    -0.033 C 
ATOM      3  C   UNL     1      62.350  87.749  73.627  1.00  0.00    -0.015 C 
BRANCH   3   4
ATOM      4  C   UNL     1      61.015  87.245  73.103  1.00  0.00     0.078 C 
ATOM      5  O   UNL     1      61.488  85.968  71.038  1.00  0.00    -0.319 OA
ATOM      6  C   UNL     1      60.971  85.838  72.398  1.00  0.00     0.095 C 
ATOM      7  C   UNL     1      61.040  87.132  70.317  1.00  0.00     0.289 C 
ATOM      8  C   UNL     1      59.456  85.378  72.340  1.00  0.00     0.023 C 
ATOM      9  O   UNL     1      61.370  88.330  71.013  1.00  0.00    -0.320 OA
ATOM     10  O   UNL     1      59.624  87.157  70.157  1.00  0.00    -0.313 OA
ATOM     11  C   UNL     1      60.428  88.262  72.094  1.00  0.00     0.170 C 
ATOM     12  C   UNL     1      58.495  86.595  72.175  1.00  0.00     0.049 C 
ATOM     13  C   UNL     1      59.128  84.319  71.275  1.00  0.00     0.011 C 
ATOM     14  C   UNL     1      59.152  87.733  71.393  1.00  0.00     0.122 C 
BRANCH   6  15
ATOM     15  C   UNL     1      61.946  84.843  73.091  1.00  0.00     0.086 C 
ATOM     16  C   UNL     1      61.949  84.855  74.633  1.00  0.00     0.140 CG0
ATOM     17  C   UNL     1      61.868  83.380  72.753  1.00  0.00    -0.010 C 
ATOM     18  C   UNL     1      62.211  83.403  74.971  1.00  0.00     0.190 C 
ATOM     19  G   UNL     1      63.016  85.790  75.201  1.00  0.00     0.000 G0
ATOM     20  C   UNL     1      62.040  82.545  73.783  1.00  0.00    -0.008 C 
ATOM     21  O   UNL     1      62.478  82.971  76.082  1.00  0.00    -0.291 OA
ATOM     22  C   UNL     1      62.109  81.069  73.811  1.00  0.00     0.048 C 
BRANCH  16  23
ATOM     23  O   UNL     1      60.678  85.112  75.207  1.00  0.00    -0.381 OA
ATOM     24  H   UNL     1      60.631  84.660  76.066  1.00  0.00     0.212 HD
ENDBRANCH  16  23
ENDBRANCH   6  15
BRANCH   7  25
ATOM     25  C   UNL     1      61.702  87.131  68.954  1.00  0.00     0.135 C 
BRANCH  25  26
ATOM     26  C   UNL     1      62.876  86.186  68.897  1.00  0.00    -0.040 A 
ATOM     27  C   UNL     1      62.716  84.907  68.362  1.00  0.00     0.004 A 
ATOM     28  C   UNL     1      64.122  86.590  69.376  1.00  0.00     0.004 A 
ATOM     29  C   UNL     1      63.802  84.032  68.309  1.00  0.00     0.000 A 
ATOM     30  C   UNL     1      65.208  85.715  69.323  1.00  0.00     0.000 A 
ATOM     31  C   UNL     1      65.047  84.437  68.789  1.00  0.00     0.000 A 
ENDBRANCH  25  26
ENDBRANCH   7  25
BRANCH  14  32
ATOM     32  C   UNL     1      58.195  88.832  71.065  1.00  0.00    -0.046 C 
ATOM     33  C   UNL     1      58.179  90.000  72.006  1.00  0.00     0.042 C 
ATOM     34  C   UNL     1      57.395  88.778  69.989  1.00  0.00     0.010 C 
ENDBRANCH  14  32
ENDBRANCH   3   4
BRANCH   2  35
ATOM     35  C   UNL     1      63.056  85.826  75.183  1.00  0.00     0.078 CG0
ATOM     36  G   UNL     1      61.976  84.888  74.646  1.00  0.00     0.000 G0
ENDBRANCH   2  35
ENDBRANCH   1   2
BRANCH   1  37
ATOM     37  O   UNL     1      64.839  87.475  76.214  1.00  0.00    -0.461 OA
BRANCH  37  38
ATOM     38  C   UNL     1      66.165  87.131  76.340  1.00  0.00     0.310 C 
ATOM     39  O   UNL     1      66.858  86.666  75.446  1.00  0.00    -0.252 OA
BRANCH  38  40
ATOM     40  C   UNL     1      66.629  87.417  77.749  1.00  0.00     0.158 C 
BRANCH  40  41
ATOM     41  C   UNL     1      66.358  86.280  78.700  1.00  0.00    -0.033 A 
ATOM     42  C   UNL     1      65.084  86.116  79.245  1.00  0.00     0.054 A 
ATOM     43  C   UNL     1      67.379  85.391  79.034  1.00  0.00     0.008 A 
ATOM     44  C   UNL     1      64.832  85.063  80.125  1.00  0.00     0.160 A 
ATOM     45  C   UNL     1      67.128  84.338  79.914  1.00  0.00     0.050 A 
ATOM     46  C   UNL     1      65.855  84.174  80.460  1.00  0.00     0.157 A 
BRANCH  44  47
ATOM     47  O   UNL     1      63.585  84.913  80.651  1.00  0.00    -0.493 OA
ATOM     48  C   UNL     1      62.659  85.977  80.436  1.00  0.00     0.278 C 
ENDBRANCH  44  47
BRANCH  46  49
ATOM     49  O   UNL     1      65.621  83.142  81.317  1.00  0.00    -0.504 OA
ATOM     50  H   UNL     1      65.316  82.372  80.809  1.00  0.00     0.293 HD
ENDBRANCH  46  49
ENDBRANCH  40  41
ENDBRANCH  38  40
ENDBRANCH  37  38
ENDBRANCH   1  37
TORSDOF 11
ENDMDL
MODEL 7
REMARK VINA RESULT:    -5.848      4.215      7.232
REMARK INTER + INTRA:         -12.037
REMARK INTER:                 -11.049
REMARK INTRA:                  -0.989
REMARK UNBOUND:                -1.745
REMARK SMILES C=C(C)[C@]12C[C@@H](C)[C@@]34O[C@](Cc5ccccc5)(O[C@@H]1[C@@H]3C=C(COC(=O)Cc1ccc(O)c(OC)c1)C[C@]1(O)C(=O)C(C)=C[C@@H]41)O2
REMARK SMILES IDX 23 1 22 2 21 3 20 4 9 5 8 6 10 7 6 8 18 9 46 10 19 11 5 12
REMARK SMILES IDX 7 13 4 14 45 15 38 16 44 17 40 18 42 20 41 21 43 22 39 23
REMARK SMILES IDX 11 25 12 26 13 27 17 28 14 29 16 30 15 31 2 32 3 33 1 34
REMARK SMILES IDX 37 35 24 37 25 38 26 39 27 40 28 41 36 42 29 43 33 44 30 45
REMARK SMILES IDX 31 46 34 47 35 48 32 49
REMARK H PARENT 39 24 32 50
REMARK Flexibility Score: 90.00
ROOT
ATOM      1  C   UNL     1      64.426  87.945  75.110  1.00  0.00     0.264 C 
ENDROOT
BRANCH   1   2
ATOM      2  C   UNL     1      63.173  87.225  74.672  1.00  0.00    -0.033 C 
ATOM      3  C   UNL     1      62.326  87.835  73.818  1.00  0.00    -0.015 C 
BRANCH   3   4
ATOM      4  C   UNL     1      60.980  87.363  73.293  1.00  0.00     0.078 C 
ATOM      5  O   UNL     1      61.410  86.187  71.160  1.00  0.00    -0.319 OA
ATOM      6  C   UNL     1      60.915  85.993  72.521  1.00  0.00     0.095 C 
ATOM      7  C   UNL     1      60.956  87.386  70.504  1.00  0.00     0.289 C 
ATOM      8  C   UNL     1      59.397  85.543  72.467  1.00  0.00     0.023 C 
ATOM      9  O   UNL     1      61.305  88.548  71.252  1.00  0.00    -0.320 OA
ATOM     10  O   UNL     1      59.538  87.426  70.371  1.00  0.00    -0.313 OA
ATOM     11  C   UNL     1      60.381  88.431  72.345  1.00  0.00     0.170 C 
ATOM     12  C   UNL     1      58.440  86.772  72.378  1.00  0.00     0.049 C 
ATOM     13  C   UNL     1      59.045  84.539  71.357  1.00  0.00     0.011 C 
ATOM     14  C   UNL     1      59.091  87.943  71.641  1.00  0.00     0.122 C 
BRANCH   6  15
ATOM     15  C   UNL     1      61.896  84.960  73.148  1.00  0.00     0.086 C 
ATOM     16  C   UNL     1      61.936  84.908  74.689  1.00  0.00     0.140 CG0
ATOM     17  C   UNL     1      61.794  83.513  72.752  1.00  0.00    -0.010 C 
ATOM     18  C   UNL     1      62.191  83.440  74.960  1.00  0.00     0.190 C 
ATOM     19  G   UNL     1      63.027  85.808  75.268  1.00  0.00     0.000 G0
ATOM     20  C   UNL     1      61.982  82.634  73.742  1.00  0.00    -0.008 C 
ATOM     21  O   UNL     1      62.480  82.960  76.045  1.00  0.00    -0.291 OA
ATOM     22  C   UNL     1      62.036  81.159  73.707  1.00  0.00     0.048 C 
BRANCH  16  23
ATOM     23  O   UNL     1      60.683  85.154  75.304  1.00  0.00    -0.381 OA
ATOM     24  H   UNL     1      59.987  85.057  74.633  1.00  0.00     0.212 HD
ENDBRANCH  16  23
ENDBRANCH   6  15
BRANCH   7  25
ATOM     25  C   UNL     1      61.596  87.449  69.132  1.00  0.00     0.135 C 
BRANCH  25  26
ATOM     26  C   UNL     1      61.209  88.701  68.385  1.00  0.00    -0.040 A 
ATOM     27  C   UNL     1      62.014  89.838  68.467  1.00  0.00     0.004 A 
ATOM     28  C   UNL     1      60.049  88.723  67.612  1.00  0.00     0.004 A 
ATOM     29  C   UNL     1      61.657  90.997  67.776  1.00  0.00     0.000 A 
ATOM     30  C   UNL     1      59.692  89.881  66.921  1.00  0.00     0.000 A 
ATOM     31  C   UNL     1      60.496  91.018  67.004  1.00  0.00     0.000 A 
ENDBRANCH  25  26
ENDBRANCH   7  25
BRANCH  14  32
ATOM     32  C   UNL     1      58.134  89.062  71.383  1.00  0.00    -0.046 C 
ATOM     33  C   UNL     1      57.471  89.070  70.038  1.00  0.00     0.042 C 
ATOM     34  C   UNL     1      57.883  90.006  72.303  1.00  0.00     0.010 C 
ENDBRANCH  14  32
ENDBRANCH   3   4
BRANCH   2  35
ATOM     35  C   UNL     1      63.039  85.841  75.280  1.00  0.00     0.078 CG0
ATOM     36  G   UNL     1      61.966  84.923  74.697  1.00  0.00     0.000 G0
ENDBRANCH   2  35
ENDBRANCH   1   2
BRANCH   1  37
ATOM     37  O   UNL     1      64.851  87.430  76.353  1.00  0.00    -0.461 OA
BRANCH  37  38
ATOM     38  C   UNL     1      66.199  87.185  76.482  1.00  0.00     0.310 C 
ATOM     39  O   UNL     1      66.943  86.852  75.569  1.00  0.00    -0.252 OA
BRANCH  38  40
ATOM     40  C   UNL     1      66.614  87.392  77.919  1.00  0.00     0.158 C 
BRANCH  40  41
ATOM     41  C   UNL     1      66.175  86.270  78.825  1.00  0.00    -0.033 A 
ATOM     42  C   UNL     1      64.894  86.281  79.379  1.00  0.00     0.054 A 
ATOM     43  C   UNL     1      67.049  85.220  79.109  1.00  0.00     0.008 A 
ATOM     44  C   UNL     1      64.488  85.243  80.217  1.00  0.00     0.160 A 
ATOM     45  C   UNL     1      66.642  84.182  79.947  1.00  0.00     0.050 A 
ATOM     46  C   UNL     1      65.363  84.193  80.502  1.00  0.00     0.157 A 
BRANCH  44  47
ATOM     47  O   UNL     1      63.236  85.265  80.752  1.00  0.00    -0.493 OA
ATOM     48  C   UNL     1      62.483  86.466  80.590  1.00  0.00     0.278 C 
ENDBRANCH  44  47
BRANCH  46  49
ATOM     49  O   UNL     1      64.977  83.173  81.318  1.00  0.00    -0.504 OA
ATOM     50  H   UNL     1      64.272  82.667  80.880  1.00  0.00     0.293 HD
ENDBRANCH  46  49
ENDBRANCH  40  41
ENDBRANCH  38  40
ENDBRANCH  37  38
ENDBRANCH   1  37
TORSDOF 11
ENDMDL
MODEL 8
REMARK VINA RESULT:    -5.412      2.430      4.250
REMARK INTER + INTRA:         -11.269
REMARK INTER:                 -10.042
REMARK INTRA:                  -1.227
REMARK UNBOUND:                -1.745
REMARK SMILES C=C(C)[C@]12C[C@@H](C)[C@@]34O[C@](Cc5ccccc5)(O[C@@H]1[C@@H]3C=C(COC(=O)Cc1ccc(O)c(OC)c1)C[C@]1(O)C(=O)C(C)=C[C@@H]41)O2
REMARK SMILES IDX 23 1 22 2 21 3 20 4 9 5 8 6 10 7 6 8 18 9 46 10 19 11 5 12
REMARK SMILES IDX 7 13 4 14 45 15 38 16 44 17 40 18 42 20 41 21 43 22 39 23
REMARK SMILES IDX 11 25 12 26 13 27 17 28 14 29 16 30 15 31 2 32 3 33 1 34
REMARK SMILES IDX 37 35 24 37 25 38 26 39 27 40 28 41 36 42 29 43 33 44 30 45
REMARK SMILES IDX 31 46 34 47 35 48 32 49
REMARK H PARENT 39 24 32 50
REMARK Flexibility Score: 90.00
ROOT
ATOM      1  C   UNL     1      65.092  88.060  70.730  1.00  0.00     0.264 C 
ENDROOT
BRANCH   1   2
ATOM      2  C   UNL     1      64.955  86.643  71.237  1.00  0.00    -0.033 C 
ATOM      3  C   UNL     1      64.534  86.434  72.501  1.00  0.00    -0.015 C 
BRANCH   3   4
ATOM      4  C   UNL     1      64.389  85.128  73.265  1.00  0.00     0.078 C 
ATOM      5  O   UNL     1      62.061  84.358  72.942  1.00  0.00    -0.319 OA
ATOM      6  C   UNL     1      63.453  84.011  72.669  1.00  0.00     0.095 C 
ATOM      7  C   UNL     1      61.799  84.863  74.265  1.00  0.00     0.289 C 
ATOM      8  C   UNL     1      63.806  82.649  73.399  1.00  0.00     0.023 C 
ATOM      9  O   UNL     1      62.586  86.019  74.542  1.00  0.00    -0.320 OA
ATOM     10  O   UNL     1      62.130  83.919  75.280  1.00  0.00    -0.313 OA
ATOM     11  C   UNL     1      63.878  85.412  74.699  1.00  0.00     0.170 C 
ATOM     12  C   UNL     1      64.237  82.890  74.879  1.00  0.00     0.049 C 
ATOM     13  C   UNL     1      62.709  81.573  73.354  1.00  0.00     0.011 C 
ATOM     14  C   UNL     1      63.545  84.115  75.478  1.00  0.00     0.122 C 
BRANCH   6  15
ATOM     15  C   UNL     1      63.550  83.982  71.116  1.00  0.00     0.086 C 
ATOM     16  C   UNL     1      64.967  84.113  70.520  1.00  0.00     0.140 CG0
ATOM     17  C   UNL     1      62.960  82.822  70.364  1.00  0.00    -0.010 C 
ATOM     18  C   UNL     1      64.883  83.241  69.285  1.00  0.00     0.190 C 
ATOM     19  G   UNL     1      65.321  85.562  70.190  1.00  0.00     0.000 G0
ATOM     20  C   UNL     1      63.672  82.400  69.313  1.00  0.00    -0.008 C 
ATOM     21  O   UNL     1      65.722  83.188  68.398  1.00  0.00    -0.291 OA
ATOM     22  C   UNL     1      63.365  81.357  68.312  1.00  0.00     0.048 C 
BRANCH  16  23
ATOM     23  O   UNL     1      65.977  83.498  71.302  1.00  0.00    -0.381 OA
ATOM     24  H   UNL     1      65.601  82.708  71.723  1.00  0.00     0.212 HD
ENDBRANCH  16  23
ENDBRANCH   6  15
BRANCH   7  25
ATOM     25  C   UNL     1      60.327  85.212  74.358  1.00  0.00     0.135 C 
BRANCH  25  26
ATOM     26  C   UNL     1      59.738  85.544  73.009  1.00  0.00    -0.040 A 
ATOM     27  C   UNL     1      59.228  84.526  72.202  1.00  0.00     0.004 A 
ATOM     28  C   UNL     1      59.702  86.866  72.570  1.00  0.00     0.004 A 
ATOM     29  C   UNL     1      58.683  84.832  70.955  1.00  0.00     0.000 A 
ATOM     30  C   UNL     1      59.157  87.173  71.322  1.00  0.00     0.000 A 
ATOM     31  C   UNL     1      58.647  86.155  70.516  1.00  0.00     0.000 A 
ENDBRANCH  25  26
ENDBRANCH   7  25
BRANCH  14  32
ATOM     32  C   UNL     1      63.799  84.258  76.943  1.00  0.00    -0.046 C 
ATOM     33  C   UNL     1      62.599  84.162  77.837  1.00  0.00     0.042 C 
ATOM     34  C   UNL     1      65.032  84.463  77.432  1.00  0.00     0.010 C 
ENDBRANCH  14  32
ENDBRANCH   3   4
BRANCH   2  35
ATOM     35  C   UNL     1      65.323  85.601  70.199  1.00  0.00     0.078 CG0
ATOM     36  G   UNL     1      64.973  84.147  70.513  1.00  0.00     0.000 G0
ENDBRANCH   2  35
ENDBRANCH   1   2
BRANCH   1  37
ATOM     37  O   UNL     1      65.085  88.951  71.824  1.00  0.00    -0.461 OA
BRANCH  37  38
ATOM     38  C   UNL     1      65.067  90.292  71.517  1.00  0.00     0.310 C 
ATOM     39  O   UNL     1      64.291  90.823  70.735  1.00  0.00    -0.252 OA
BRANCH  38  40
ATOM     40  C   UNL     1      66.152  91.001  72.293  1.00  0.00     0.158 C 
BRANCH  40  41
ATOM     41  C   UNL     1      65.613  91.845  73.419  1.00  0.00    -0.033 A 
ATOM     42  C   UNL     1      64.729  91.290  74.345  1.00  0.00     0.054 A 
ATOM     43  C   UNL     1      65.998  93.181  73.536  1.00  0.00     0.008 A 
ATOM     44  C   UNL     1      64.231  92.071  75.388  1.00  0.00     0.160 A 
ATOM     45  C   UNL     1      65.499  93.962  74.578  1.00  0.00     0.050 A 
ATOM     46  C   UNL     1      64.615  93.408  75.504  1.00  0.00     0.157 A 
BRANCH  44  47
ATOM     47  O   UNL     1      63.368  91.519  76.286  1.00  0.00    -0.493 OA
ATOM     48  C   UNL     1      61.985  91.514  75.938  1.00  0.00     0.278 C 
ENDBRANCH  44  47
BRANCH  46  49
ATOM     49  O   UNL     1      64.136  94.180  76.518  1.00  0.00    -0.504 OA
ATOM     50  H   UNL     1      63.431  93.695  76.979  1.00  0.00     0.293 HD
ENDBRANCH  46  49
ENDBRANCH  40  41
ENDBRANCH  38  40
ENDBRANCH  37  38
ENDBRANCH   1  37
TORSDOF 11
ENDMDL
MODEL 9
REMARK VINA RESULT:    -5.330      3.767      8.380
REMARK INTER + INTRA:         -11.125
REMARK INTER:                 -10.245
REMARK INTRA:                  -0.880
REMARK UNBOUND:                -1.745
REMARK SMILES C=C(C)[C@]12C[C@@H](C)[C@@]34O[C@](Cc5ccccc5)(O[C@@H]1[C@@H]3C=C(COC(=O)Cc1ccc(O)c(OC)c1)C[C@]1(O)C(=O)C(C)=C[C@@H]41)O2
REMARK SMILES IDX 23 1 22 2 21 3 20 4 9 5 8 6 10 7 6 8 18 9 46 10 19 11 5 12
REMARK SMILES IDX 7 13 4 14 45 15 38 16 44 17 40 18 42 20 41 21 43 22 39 23
REMARK SMILES IDX 11 25 12 26 13 27 17 28 14 29 16 30 15 31 2 32 3 33 1 34
REMARK SMILES IDX 37 35 24 37 25 38 26 39 27 40 28 41 36 42 29 43 33 44 30 45
REMARK SMILES IDX 31 46 34 47 35 48 32 49
REMARK H PARENT 39 24 32 50
REMARK Flexibility Score: 90.00
ROOT
ATOM      1  C   UNL     1      63.096  88.324  75.456  1.00  0.00     0.264 C 
ENDROOT
BRANCH   1   2
ATOM      2  C   UNL     1      62.405  87.429  74.454  1.00  0.00    -0.033 C 
ATOM      3  C   UNL     1      62.142  87.901  73.219  1.00  0.00    -0.015 C 
BRANCH   3   4
ATOM      4  C   UNL     1      61.400  87.238  72.071  1.00  0.00     0.078 C 
ATOM      5  O   UNL     1      63.096  86.087  70.686  1.00  0.00    -0.319 OA
ATOM      6  C   UNL     1      61.930  85.856  71.535  1.00  0.00     0.095 C 
ATOM      7  C   UNL     1      62.985  87.198  69.776  1.00  0.00     0.289 C 
ATOM      8  C   UNL     1      60.774  85.201  70.671  1.00  0.00     0.023 C 
ATOM      9  O   UNL     1      62.721  88.412  70.474  1.00  0.00    -0.320 OA
ATOM     10  O   UNL     1      61.908  87.040  68.857  1.00  0.00    -0.313 OA
ATOM     11  C   UNL     1      61.354  88.193  70.853  1.00  0.00     0.170 C 
ATOM     12  C   UNL     1      59.926  86.284  69.936  1.00  0.00     0.049 C 
ATOM     13  C   UNL     1      61.228  84.135  69.661  1.00  0.00     0.011 C 
ATOM     14  C   UNL     1      60.761  87.518  69.591  1.00  0.00     0.122 C 
BRANCH   6  15
ATOM     15  C   UNL     1      62.468  84.981  72.704  1.00  0.00     0.086 C 
ATOM     16  C   UNL     1      61.619  84.971  73.993  1.00  0.00     0.140 CG0
ATOM     17  C   UNL     1      62.754  83.525  72.464  1.00  0.00    -0.010 C 
ATOM     18  C   UNL     1      61.814  83.559  74.501  1.00  0.00     0.190 C 
ATOM     19  G   UNL     1      62.084  86.024  74.998  1.00  0.00     0.000 G0
ATOM     20  C   UNL     1      62.424  82.703  73.466  1.00  0.00    -0.008 C 
ATOM     21  O   UNL     1      61.473  83.148  75.600  1.00  0.00    -0.291 OA
ATOM     22  C   UNL     1      62.633  81.248  73.611  1.00  0.00     0.048 C 
BRANCH  16  23
ATOM     23  O   UNL     1      60.223  85.058  73.761  1.00  0.00    -0.381 OA
ATOM     24  H   UNL     1      60.043  84.756  72.856  1.00  0.00     0.212 HD
ENDBRANCH  16  23
ENDBRANCH   6  15
BRANCH   7  25
ATOM     25  C   UNL     1      64.288  87.319  69.013  1.00  0.00     0.135 C 
BRANCH  25  26
ATOM     26  C   UNL     1      64.327  86.405  67.813  1.00  0.00    -0.040 A 
ATOM     27  C   UNL     1      64.402  86.945  66.528  1.00  0.00     0.004 A 
ATOM     28  C   UNL     1      64.290  85.022  67.987  1.00  0.00     0.004 A 
ATOM     29  C   UNL     1      64.438  86.100  65.418  1.00  0.00     0.000 A 
ATOM     30  C   UNL     1      64.326  84.178  66.877  1.00  0.00     0.000 A 
ATOM     31  C   UNL     1      64.400  84.718  65.593  1.00  0.00     0.000 A 
ENDBRANCH  25  26
ENDBRANCH   7  25
BRANCH  14  32
ATOM     32  C   UNL     1      60.022  88.489  68.729  1.00  0.00    -0.046 C 
ATOM     33  C   UNL     1      60.690  88.873  67.442  1.00  0.00     0.042 C 
ATOM     34  C   UNL     1      58.829  88.989  69.085  1.00  0.00     0.010 C 
ENDBRANCH  14  32
ENDBRANCH   3   4
BRANCH   2  35
ATOM     35  C   UNL     1      62.094  86.050  75.004  1.00  0.00     0.078 CG0
ATOM     36  G   UNL     1      61.631  84.988  74.008  1.00  0.00     0.000 G0
ENDBRANCH   2  35
ENDBRANCH   1   2
BRANCH   1  37
ATOM     37  O   UNL     1      62.631  88.019  76.753  1.00  0.00    -0.461 OA
BRANCH  37  38
ATOM     38  C   UNL     1      63.595  87.772  77.703  1.00  0.00     0.310 C 
ATOM     39  O   UNL     1      64.418  86.869  77.648  1.00  0.00    -0.252 OA
BRANCH  38  40
ATOM     40  C   UNL     1      63.477  88.784  78.818  1.00  0.00     0.158 C 
BRANCH  40  41
ATOM     41  C   UNL     1      62.658  88.286  79.980  1.00  0.00    -0.033 A 
ATOM     42  C   UNL     1      62.995  87.086  80.607  1.00  0.00     0.054 A 
ATOM     43  C   UNL     1      61.564  89.025  80.430  1.00  0.00     0.008 A 
ATOM     44  C   UNL     1      62.236  86.625  81.683  1.00  0.00     0.160 A 
ATOM     45  C   UNL     1      60.805  88.564  81.506  1.00  0.00     0.050 A 
ATOM     46  C   UNL     1      61.141  87.364  82.133  1.00  0.00     0.157 A 
BRANCH  44  47
ATOM     47  O   UNL     1      62.574  85.452  82.287  1.00  0.00    -0.493 OA
ATOM     48  C   UNL     1      63.934  85.299  82.692  1.00  0.00     0.278 C 
ENDBRANCH  44  47
BRANCH  46  49
ATOM     49  O   UNL     1      60.394  86.925  83.183  1.00  0.00    -0.504 OA
ATOM     50  H   UNL     1      60.988  86.662  83.906  1.00  0.00     0.293 HD
ENDBRANCH  46  49
ENDBRANCH  40  41
ENDBRANCH  38  40
ENDBRANCH  37  38
ENDBRANCH   1  37
TORSDOF 11
ENDMDL
MODEL 10
REMARK VINA RESULT:    -4.932     12.770     15.533
REMARK INTER + INTRA:         -10.425
REMARK INTER:                  -7.773
REMARK INTRA:                  -2.651
REMARK UNBOUND:                -1.745
REMARK SMILES C=C(C)[C@]12C[C@@H](C)[C@@]34O[C@](Cc5ccccc5)(O[C@@H]1[C@@H]3C=C(COC(=O)Cc1ccc(O)c(OC)c1)C[C@]1(O)C(=O)C(C)=C[C@@H]41)O2
REMARK SMILES IDX 23 1 22 2 21 3 20 4 9 5 8 6 10 7 6 8 18 9 46 10 19 11 5 12
REMARK SMILES IDX 7 13 4 14 45 15 38 16 44 17 40 18 42 20 41 21 43 22 39 23
REMARK SMILES IDX 11 25 12 26 13 27 17 28 14 29 16 30 15 31 2 32 3 33 1 34
REMARK SMILES IDX 37 35 24 37 25 38 26 39 27 40 28 41 36 42 29 43 33 44 30 45
REMARK SMILES IDX 31 46 34 47 35 48 32 49
REMARK H PARENT 39 24 32 50
REMARK Flexibility Score: 90.00
ROOT
ATOM      1  C   UNL     1      78.314  97.169  75.589  1.00  0.00     0.264 C 
ENDROOT
BRANCH   1   2
ATOM      2  C   UNL     1      77.629  95.823  75.652  1.00  0.00    -0.033 C 
ATOM      3  C   UNL     1      76.753  95.575  76.647  1.00  0.00    -0.015 C 
BRANCH   3   4
ATOM      4  C   UNL     1      76.001  94.296  76.973  1.00  0.00     0.078 C 
ATOM      5  O   UNL     1      73.822  94.424  75.810  1.00  0.00    -0.319 OA
ATOM      6  C   UNL     1      75.072  93.670  75.867  1.00  0.00     0.095 C 
ATOM      7  C   UNL     1      73.256  94.777  77.086  1.00  0.00     0.289 C 
ATOM      8  C   UNL     1      74.763  92.174  76.290  1.00  0.00     0.023 C 
ATOM      9  O   UNL     1      74.175  95.538  77.866  1.00  0.00    -0.320 OA
ATOM     10  O   UNL     1      72.940  93.632  77.874  1.00  0.00    -0.313 OA
ATOM     11  C   UNL     1      75.113  94.511  78.224  1.00  0.00     0.170 C 
ATOM     12  C   UNL     1      74.691  92.022  77.840  1.00  0.00     0.049 C 
ATOM     13  C   UNL     1      73.506  91.556  75.656  1.00  0.00     0.011 C 
ATOM     14  C   UNL     1      74.190  93.301  78.512  1.00  0.00     0.122 C 
BRANCH   6  15
ATOM     15  C   UNL     1      75.699  93.849  74.454  1.00  0.00     0.086 C 
ATOM     16  C   UNL     1      77.218  93.602  74.348  1.00  0.00     0.140 CG0
ATOM     17  C   UNL     1      75.137  93.075  73.295  1.00  0.00    -0.010 C 
ATOM     18  C   UNL     1      77.355  93.005  72.963  1.00  0.00     0.190 C 
ATOM     19  G   UNL     1      78.025  94.889  74.513  1.00  0.00     0.000 G0
ATOM     20  C   UNL     1      76.040  92.611  72.425  1.00  0.00    -0.008 C 
ATOM     21  O   UNL     1      78.409  92.818  72.373  1.00  0.00    -0.291 OA
ATOM     22  C   UNL     1      75.849  91.892  71.148  1.00  0.00     0.048 C 
BRANCH  16  23
ATOM     23  O   UNL     1      77.694  92.579  75.206  1.00  0.00    -0.381 OA
ATOM     24  H   UNL     1      78.267  92.984  75.879  1.00  0.00     0.212 HD
ENDBRANCH  16  23
ENDBRANCH   6  15
BRANCH   7  25
ATOM     25  C   UNL     1      71.999  95.587  76.842  1.00  0.00     0.135 C 
BRANCH  25  26
ATOM     26  C   UNL     1      72.310  96.986  76.371  1.00  0.00    -0.040 A 
ATOM     27  C   UNL     1      72.246  98.053  77.267  1.00  0.00     0.004 A 
ATOM     28  C   UNL     1      72.662  97.212  75.041  1.00  0.00     0.004 A 
ATOM     29  C   UNL     1      72.534  99.347  76.832  1.00  0.00     0.000 A 
ATOM     30  C   UNL     1      72.950  98.506  74.605  1.00  0.00     0.000 A 
ATOM     31  C   UNL     1      72.886  99.573  75.502  1.00  0.00     0.000 A 
ENDBRANCH  25  26
ENDBRANCH   7  25
BRANCH  14  32
ATOM     32  C   UNL     1      73.939  93.122  79.974  1.00  0.00    -0.046 C 
ATOM     33  C   UNL     1      75.061  93.510  80.890  1.00  0.00     0.042 C 
ATOM     34  C   UNL     1      72.777  92.641  80.440  1.00  0.00     0.010 C 
ENDBRANCH  14  32
ENDBRANCH   3   4
BRANCH   2  35
ATOM     35  C   UNL     1      78.038  94.894  74.525  1.00  0.00     0.078 CG0
ATOM     36  G   UNL     1      77.230  93.609  74.351  1.00  0.00     0.000 G0
ENDBRANCH   2  35
ENDBRANCH   1   2
BRANCH   1  37
ATOM     37  O   UNL     1      77.342  98.180  75.432  1.00  0.00    -0.461 OA
BRANCH  37  38
ATOM     38  C   UNL     1      77.661  99.201  74.567  1.00  0.00     0.310 C 
ATOM     39  O   UNL     1      78.679  99.877  74.623  1.00  0.00    -0.252 OA
BRANCH  38  40
ATOM     40  C   UNL     1      76.562  99.356  73.542  1.00  0.00     0.158 C 
BRANCH  40  41
ATOM     41  C   UNL     1      76.541  98.241  72.529  1.00  0.00    -0.033 A 
ATOM     42  C   UNL     1      77.478  98.220  71.495  1.00  0.00     0.054 A 
ATOM     43  C   UNL     1      75.587  97.229  72.626  1.00  0.00     0.008 A 
ATOM     44  C   UNL     1      77.458  97.188  70.557  1.00  0.00     0.160 A 
ATOM     45  C   UNL     1      75.568  96.196  71.688  1.00  0.00     0.050 A 
ATOM     46  C   UNL     1      76.503  96.175  70.654  1.00  0.00     0.157 A 
BRANCH  44  47
ATOM     47  O   UNL     1      78.377  97.179  69.552  1.00  0.00    -0.493 OA
ATOM     48  C   UNL     1      79.162  98.358  69.380  1.00  0.00     0.278 C 
ENDBRANCH  44  47
BRANCH  46  49
ATOM     49  O   UNL     1      76.475  95.161  69.745  1.00  0.00    -0.504 OA
ATOM     50  H   UNL     1      76.671  94.324  70.198  1.00  0.00     0.293 HD
ENDBRANCH  46  49
ENDBRANCH  40  41
ENDBRANCH  38  40
ENDBRANCH  37  38
ENDBRANCH   1  37
TORSDOF 11
ENDMDL
