MODEL 1
REMARK VINA RESULT:    -6.354      0.000      0.000
REMARK INTER + INTRA:         -10.527
REMARK INTER:                  -9.883
REMARK INTRA:                  -0.644
REMARK UNBOUND:                -0.644
REMARK SMILES COc1cc(CNC(=O)CCCCCC(C)C)ccc1O
REMARK SMILES IDX 10 1 8 2 7 3 9 5 6 6 5 7 3 8 20 9 4 10 19 11 18 12 2 13 1 14
REMARK SMILES IDX 21 15 11 17 12 18 13 19 14 20 15 21 16 22 17 23
REMARK H PARENT 7 4 21 16
REMARK Flexibility Score: inf
ROOT
ATOM      1  C   UNL     1      93.688  98.788  74.613  1.00  0.00     0.100 C 
ENDROOT
BRANCH   1   2
ATOM      2  C   UNL     1      92.748  99.798  74.083  1.00  0.00     0.220 C 
ATOM      3  N   UNL     1      92.362  99.732  72.777  1.00  0.00    -0.352 N 
ATOM      4  H   UNL     1      92.862  99.055  72.219  1.00  0.00     0.163 HD
ATOM      5  O   UNL     1      92.292 100.672  74.859  1.00  0.00    -0.275 OA
BRANCH   3   6
ATOM      6  C   UNL     1      91.337 100.529  72.183  1.00  0.00     0.151 C 
BRANCH   6   7
ATOM      7  C   UNL     1      90.436  99.751  71.290  1.00  0.00    -0.025 A 
ATOM      8  C   UNL     1      88.913  99.649  69.362  1.00  0.00     0.160 A 
ATOM      9  C   UNL     1      88.773  98.258  69.549  1.00  0.00     0.157 A 
ATOM     10  C   UNL     1      89.728 100.390  70.244  1.00  0.00     0.056 A 
ATOM     11  C   UNL     1      89.450  97.617  70.603  1.00  0.00     0.050 A 
ATOM     12  C   UNL     1      90.280  98.356  71.463  1.00  0.00     0.009 A 
BRANCH   8  13
ATOM     13  O   UNL     1      88.246 100.295  68.354  1.00  0.00    -0.493 OA
ATOM     14  C   UNL     1      89.095 101.112  67.525  1.00  0.00     0.278 C 
ENDBRANCH   8  13
BRANCH   9  15
ATOM     15  O   UNL     1      87.990  97.537  68.708  1.00  0.00    -0.504 OA
ATOM     16  H   UNL     1      87.480  98.133  68.155  1.00  0.00     0.293 HD
ENDBRANCH   9  15
ENDBRANCH   6   7
ENDBRANCH   3   6
ENDBRANCH   1   2
BRANCH   1  17
ATOM     17  C   UNL     1      93.090  97.878  75.719  1.00  0.00     0.010 C 
BRANCH  17  18
ATOM     18  C   UNL     1      93.878  96.545  75.852  1.00  0.00     0.001 C 
BRANCH  18  19
ATOM     19  C   UNL     1      93.074  95.422  76.559  1.00  0.00     0.000 C 
BRANCH  19  20
ATOM     20  C   UNL     1      91.818  95.971  77.294  1.00  0.00     0.003 C 
BRANCH  20  21
ATOM     21  C   UNL     1      90.861  94.878  77.872  1.00  0.00    -0.017 C 
ATOM     22  C   UNL     1      91.413  93.450  77.589  1.00  0.00     0.007 C 
ATOM     23  C   UNL     1      89.406  95.004  77.336  1.00  0.00     0.007 C 
ENDBRANCH  20  21
ENDBRANCH  19  20
ENDBRANCH  18  19
ENDBRANCH  17  18
ENDBRANCH   1  17
TORSDOF 10
ENDMDL
MODEL 2
REMARK VINA RESULT:    -5.992      3.208      8.676
REMARK INTER + INTRA:          -9.963
REMARK INTER:                  -9.443
REMARK INTRA:                  -0.519
REMARK UNBOUND:                -0.644
REMARK SMILES COc1cc(CNC(=O)CCCCCC(C)C)ccc1O
REMARK SMILES IDX 10 1 8 2 7 3 9 5 6 6 5 7 3 8 20 9 4 10 19 11 18 12 2 13 1 14
REMARK SMILES IDX 21 15 11 17 12 18 13 19 14 20 15 21 16 22 17 23
REMARK H PARENT 7 4 21 16
REMARK Flexibility Score: inf
ROOT
ATOM      1  C   UNL     1      92.338 100.126  74.274  1.00  0.00     0.100 C 
ENDROOT
BRANCH   1   2
ATOM      2  C   UNL     1      93.453  99.260  74.709  1.00  0.00     0.220 C 
ATOM      3  N   UNL     1      93.185  98.010  75.183  1.00  0.00    -0.352 N 
ATOM      4  H   UNL     1      92.205  97.812  75.328  1.00  0.00     0.163 HD
ATOM      5  O   UNL     1      94.631  99.678  74.591  1.00  0.00    -0.275 OA
BRANCH   3   6
ATOM      6  C   UNL     1      94.165  97.013  75.471  1.00  0.00     0.151 C 
BRANCH   6   7
ATOM      7  C   UNL     1      93.784  96.130  76.606  1.00  0.00    -0.025 A 
ATOM      8  C   UNL     1      94.416  94.581  78.409  1.00  0.00     0.160 A 
ATOM      9  C   UNL     1      93.066  94.501  78.810  1.00  0.00     0.157 A 
ATOM     10  C   UNL     1      94.764  95.380  77.299  1.00  0.00     0.056 A 
ATOM     11  C   UNL     1      92.079  95.221  78.112  1.00  0.00     0.050 A 
ATOM     12  C   UNL     1      92.436  96.034  77.023  1.00  0.00     0.009 A 
BRANCH   8  13
ATOM     13  O   UNL     1      95.390  93.872  79.063  1.00  0.00    -0.493 OA
ATOM     14  C   UNL     1      95.896  94.529  80.241  1.00  0.00     0.278 C 
ENDBRANCH   8  13
BRANCH   9  15
ATOM     15  O   UNL     1      92.721  93.734  79.875  1.00  0.00    -0.504 OA
ATOM     16  H   UNL     1      93.477  93.636  80.457  1.00  0.00     0.293 HD
ENDBRANCH   9  15
ENDBRANCH   6   7
ENDBRANCH   3   6
ENDBRANCH   1   2
BRANCH   1  17
ATOM     17  C   UNL     1      92.424 100.584  72.794  1.00  0.00     0.010 C 
BRANCH  17  18
ATOM     18  C   UNL     1      91.538  99.703  71.869  1.00  0.00     0.001 C 
BRANCH  18  19
ATOM     19  C   UNL     1      90.146 100.322  71.578  1.00  0.00     0.000 C 
BRANCH  19  20
ATOM     20  C   UNL     1      89.078  99.239  71.248  1.00  0.00     0.003 C 
BRANCH  20  21
ATOM     21  C   UNL     1      89.469  98.256  70.096  1.00  0.00    -0.017 C 
ATOM     22  C   UNL     1      88.437  98.326  68.932  1.00  0.00     0.007 C 
ATOM     23  C   UNL     1      89.625  96.786  70.584  1.00  0.00     0.007 C 
ENDBRANCH  20  21
ENDBRANCH  19  20
ENDBRANCH  18  19
ENDBRANCH  17  18
ENDBRANCH   1  17
TORSDOF 10
ENDMDL
MODEL 3
REMARK VINA RESULT:    -5.965      3.503      7.753
REMARK INTER + INTRA:          -9.921
REMARK INTER:                  -9.315
REMARK INTRA:                  -0.606
REMARK UNBOUND:                -0.644
REMARK SMILES COc1cc(CNC(=O)CCCCCC(C)C)ccc1O
REMARK SMILES IDX 10 1 8 2 7 3 9 5 6 6 5 7 3 8 20 9 4 10 19 11 18 12 2 13 1 14
REMARK SMILES IDX 21 15 11 17 12 18 13 19 14 20 15 21 16 22 17 23
REMARK H PARENT 7 4 21 16
REMARK Flexibility Score: inf
ROOT
ATOM      1  C   UNL     1      93.390 100.182  74.925  1.00  0.00     0.100 C 
ENDROOT
BRANCH   1   2
ATOM      2  C   UNL     1      93.772  99.022  75.756  1.00  0.00     0.220 C 
ATOM      3  N   UNL     1      93.145  97.827  75.566  1.00  0.00    -0.352 N 
ATOM      4  H   UNL     1      92.351  97.858  74.942  1.00  0.00     0.163 HD
ATOM      5  O   UNL     1      94.698  99.151  76.593  1.00  0.00    -0.275 OA
BRANCH   3   6
ATOM      6  C   UNL     1      93.528  96.592  76.172  1.00  0.00     0.151 C 
BRANCH   6   7
ATOM      7  C   UNL     1      92.369  95.788  76.644  1.00  0.00    -0.025 A 
ATOM      8  C   UNL     1      91.314  93.605  77.054  1.00  0.00     0.160 A 
ATOM      9  C   UNL     1      90.190  94.254  77.606  1.00  0.00     0.157 A 
ATOM     10  C   UNL     1      92.388  94.375  76.560  1.00  0.00     0.056 A 
ATOM     11  C   UNL     1      90.149  95.659  77.670  1.00  0.00     0.050 A 
ATOM     12  C   UNL     1      91.232  96.420  77.199  1.00  0.00     0.009 A 
BRANCH   8  13
ATOM     13  O   UNL     1      91.365  92.238  76.964  1.00  0.00    -0.493 OA
ATOM     14  C   UNL     1      91.207  91.737  75.623  1.00  0.00     0.278 C 
ENDBRANCH   8  13
BRANCH   9  15
ATOM     15  O   UNL     1      89.151  93.523  78.082  1.00  0.00    -0.504 OA
ATOM     16  H   UNL     1      88.610  93.221  77.349  1.00  0.00     0.293 HD
ENDBRANCH   9  15
ENDBRANCH   6   7
ENDBRANCH   3   6
ENDBRANCH   1   2
BRANCH   1  17
ATOM     17  C   UNL     1      93.203  99.855  73.419  1.00  0.00     0.010 C 
BRANCH  17  18
ATOM     18  C   UNL     1      91.803 100.294  72.907  1.00  0.00     0.001 C 
BRANCH  18  19
ATOM     19  C   UNL     1      91.376  99.583  71.596  1.00  0.00     0.000 C 
BRANCH  19  20
ATOM     20  C   UNL     1      90.127 100.247  70.947  1.00  0.00     0.003 C 
BRANCH  20  21
ATOM     21  C   UNL     1      88.994  99.254  70.527  1.00  0.00    -0.017 C 
ATOM     22  C   UNL     1      89.411  97.782  70.817  1.00  0.00     0.007 C 
ATOM     23  C   UNL     1      88.579  99.407  69.035  1.00  0.00     0.007 C 
ENDBRANCH  20  21
ENDBRANCH  19  20
ENDBRANCH  18  19
ENDBRANCH  17  18
ENDBRANCH   1  17
TORSDOF 10
ENDMDL
MODEL 4
REMARK VINA RESULT:    -5.829     19.585     21.877
REMARK INTER + INTRA:          -9.711
REMARK INTER:                  -8.435
REMARK INTRA:                  -1.276
REMARK UNBOUND:                -0.644
REMARK SMILES COc1cc(CNC(=O)CCCCCC(C)C)ccc1O
REMARK SMILES IDX 10 1 8 2 7 3 9 5 6 6 5 7 3 8 20 9 4 10 19 11 18 12 2 13 1 14
REMARK SMILES IDX 21 15 11 17 12 18 13 19 14 20 15 21 16 22 17 23
REMARK H PARENT 7 4 21 16
REMARK Flexibility Score: inf
ROOT
ATOM      1  C   UNL     1      76.961  87.643  66.445  1.00  0.00     0.100 C 
ENDROOT
BRANCH   1   2
ATOM      2  C   UNL     1      76.970  86.653  65.348  1.00  0.00     0.220 C 
ATOM      3  N   UNL     1      77.257  85.350  65.625  1.00  0.00    -0.352 N 
ATOM      4  H   UNL     1      77.580  85.176  66.566  1.00  0.00     0.163 HD
ATOM      5  O   UNL     1      76.671  87.027  64.187  1.00  0.00    -0.275 OA
BRANCH   3   6
ATOM      6  C   UNL     1      77.134  84.267  64.702  1.00  0.00     0.151 C 
BRANCH   6   7
ATOM      7  C   UNL     1      75.992  83.364  65.011  1.00  0.00    -0.025 A 
ATOM      8  C   UNL     1      73.587  82.861  64.926  1.00  0.00     0.160 A 
ATOM      9  C   UNL     1      73.828  81.614  65.540  1.00  0.00     0.157 A 
ATOM     10  C   UNL     1      74.667  83.736  64.683  1.00  0.00     0.056 A 
ATOM     11  C   UNL     1      75.138  81.245  65.895  1.00  0.00     0.050 A 
ATOM     12  C   UNL     1      76.213  82.110  65.628  1.00  0.00     0.009 A 
BRANCH   8  13
ATOM     13  O   UNL     1      72.316  83.248  64.591  1.00  0.00    -0.493 OA
ATOM     14  C   UNL     1      72.206  83.797  63.264  1.00  0.00     0.278 C 
ENDBRANCH   8  13
BRANCH   9  15
ATOM     15  O   UNL     1      72.796  80.767  65.780  1.00  0.00    -0.504 OA
ATOM     16  H   UNL     1      72.030  81.043  65.272  1.00  0.00     0.293 HD
ENDBRANCH   9  15
ENDBRANCH   6   7
ENDBRANCH   3   6
ENDBRANCH   1   2
BRANCH   1  17
ATOM     17  C   UNL     1      75.825  87.436  67.482  1.00  0.00     0.010 C 
BRANCH  17  18
ATOM     18  C   UNL     1      76.221  87.984  68.881  1.00  0.00     0.001 C 
BRANCH  18  19
ATOM     19  C   UNL     1      76.088  86.933  70.015  1.00  0.00     0.000 C 
BRANCH  19  20
ATOM     20  C   UNL     1      77.341  86.014  70.114  1.00  0.00     0.003 C 
BRANCH  20  21
ATOM     21  C   UNL     1      77.031  84.485  70.218  1.00  0.00    -0.017 C 
ATOM     22  C   UNL     1      76.487  83.935  68.867  1.00  0.00     0.007 C 
ATOM     23  C   UNL     1      76.040  84.146  71.370  1.00  0.00     0.007 C 
ENDBRANCH  20  21
ENDBRANCH  19  20
ENDBRANCH  18  19
ENDBRANCH  17  18
ENDBRANCH   1  17
TORSDOF 10
ENDMDL
MODEL 5
REMARK VINA RESULT:    -5.818     20.122     22.391
REMARK INTER + INTRA:          -9.692
REMARK INTER:                  -9.045
REMARK INTRA:                  -0.647
REMARK UNBOUND:                -0.644
REMARK SMILES COc1cc(CNC(=O)CCCCCC(C)C)ccc1O
REMARK SMILES IDX 10 1 8 2 7 3 9 5 6 6 5 7 3 8 20 9 4 10 19 11 18 12 2 13 1 14
REMARK SMILES IDX 21 15 11 17 12 18 13 19 14 20 15 21 16 22 17 23
REMARK H PARENT 7 4 21 16
REMARK Flexibility Score: inf
ROOT
ATOM      1  C   UNL     1      77.634  85.321  68.143  1.00  0.00     0.100 C 
ENDROOT
BRANCH   1   2
ATOM      2  C   UNL     1      77.783  84.144  67.262  1.00  0.00     0.220 C 
ATOM      3  N   UNL     1      76.908  83.964  66.232  1.00  0.00    -0.352 N 
ATOM      4  H   UNL     1      76.121  84.597  66.227  1.00  0.00     0.163 HD
ATOM      5  O   UNL     1      78.741  83.356  67.455  1.00  0.00    -0.275 OA
BRANCH   3   6
ATOM      6  C   UNL     1      77.036  82.976  65.209  1.00  0.00     0.151 C 
BRANCH   6   7
ATOM      7  C   UNL     1      75.799  82.174  65.013  1.00  0.00    -0.025 A 
ATOM      8  C   UNL     1      73.474  81.657  65.624  1.00  0.00     0.160 A 
ATOM      9  C   UNL     1      73.420  80.692  64.595  1.00  0.00     0.157 A 
ATOM     10  C   UNL     1      74.668  82.378  65.838  1.00  0.00     0.056 A 
ATOM     11  C   UNL     1      74.548  80.463  63.785  1.00  0.00     0.050 A 
ATOM     12  C   UNL     1      75.726  81.201  63.988  1.00  0.00     0.009 A 
BRANCH   8  13
ATOM     13  O   UNL     1      72.393  81.881  66.436  1.00  0.00    -0.493 OA
ATOM     14  C   UNL     1      72.186  83.270  66.757  1.00  0.00     0.278 C 
ENDBRANCH   8  13
BRANCH   9  15
ATOM     15  O   UNL     1      72.278  79.992  64.382  1.00  0.00    -0.504 OA
ATOM     16  H   UNL     1      71.700  80.492  63.801  1.00  0.00     0.293 HD
ENDBRANCH   9  15
ENDBRANCH   6   7
ENDBRANCH   3   6
ENDBRANCH   1   2
BRANCH   1  17
ATOM     17  C   UNL     1      77.504  84.977  69.651  1.00  0.00     0.010 C 
BRANCH  17  18
ATOM     18  C   UNL     1      76.072  85.264  70.183  1.00  0.00     0.001 C 
BRANCH  18  19
ATOM     19  C   UNL     1      75.462  86.578  69.629  1.00  0.00     0.000 C 
BRANCH  19  20
ATOM     20  C   UNL     1      76.188  87.841  70.178  1.00  0.00     0.003 C 
BRANCH  20  21
ATOM     21  C   UNL     1      75.295  89.119  70.289  1.00  0.00    -0.017 C 
ATOM     22  C   UNL     1      74.197  88.937  71.378  1.00  0.00     0.007 C 
ATOM     23  C   UNL     1      74.642  89.521  68.935  1.00  0.00     0.007 C 
ENDBRANCH  20  21
ENDBRANCH  19  20
ENDBRANCH  18  19
ENDBRANCH  17  18
ENDBRANCH   1  17
TORSDOF 10
ENDMDL
MODEL 6
REMARK VINA RESULT:    -5.799     20.230     22.997
REMARK INTER + INTRA:          -9.662
REMARK INTER:                  -8.702
REMARK INTRA:                  -0.960
REMARK UNBOUND:                -0.644
REMARK SMILES COc1cc(CNC(=O)CCCCCC(C)C)ccc1O
REMARK SMILES IDX 10 1 8 2 7 3 9 5 6 6 5 7 3 8 20 9 4 10 19 11 18 12 2 13 1 14
REMARK SMILES IDX 21 15 11 17 12 18 13 19 14 20 15 21 16 22 17 23
REMARK H PARENT 7 4 21 16
REMARK Flexibility Score: inf
ROOT
ATOM      1  C   UNL     1      75.355  81.313  65.229  1.00  0.00     0.100 C 
ENDROOT
BRANCH   1   2
ATOM      2  C   UNL     1      76.668  81.947  65.466  1.00  0.00     0.220 C 
ATOM      3  N   UNL     1      76.824  83.278  65.219  1.00  0.00    -0.352 N 
ATOM      4  H   UNL     1      76.042  83.718  64.755  1.00  0.00     0.163 HD
ATOM      5  O   UNL     1      77.604  81.252  65.933  1.00  0.00    -0.275 OA
BRANCH   3   6
ATOM      6  C   UNL     1      77.975  84.049  65.565  1.00  0.00     0.151 C 
BRANCH   6   7
ATOM      7  C   UNL     1      77.732  84.989  66.692  1.00  0.00    -0.025 A 
ATOM      8  C   UNL     1      77.627  85.441  69.107  1.00  0.00     0.160 A 
ATOM      9  C   UNL     1      77.335  86.795  68.839  1.00  0.00     0.157 A 
ATOM     10  C   UNL     1      77.805  84.543  68.033  1.00  0.00     0.056 A 
ATOM     11  C   UNL     1      77.233  87.244  67.509  1.00  0.00     0.050 A 
ATOM     12  C   UNL     1      77.436  86.350  66.444  1.00  0.00     0.009 A 
BRANCH   8  13
ATOM     13  O   UNL     1      77.711  84.980  70.395  1.00  0.00    -0.493 OA
ATOM     14  C   UNL     1      76.535  84.276  70.839  1.00  0.00     0.278 C 
ENDBRANCH   8  13
BRANCH   9  15
ATOM     15  O   UNL     1      77.160  87.666  69.864  1.00  0.00    -0.504 OA
ATOM     16  H   UNL     1      77.985  87.766  70.344  1.00  0.00     0.293 HD
ENDBRANCH   9  15
ENDBRANCH   6   7
ENDBRANCH   3   6
ENDBRANCH   1   2
BRANCH   1  17
ATOM     17  C   UNL     1      75.061  80.994  63.738  1.00  0.00     0.010 C 
BRANCH  17  18
ATOM     18  C   UNL     1      73.566  80.634  63.514  1.00  0.00     0.001 C 
BRANCH  18  19
ATOM     19  C   UNL     1      72.622  81.864  63.562  1.00  0.00     0.000 C 
BRANCH  19  20
ATOM     20  C   UNL     1      71.518  81.717  64.649  1.00  0.00     0.003 C 
BRANCH  20  21
ATOM     21  C   UNL     1      71.900  82.277  66.058  1.00  0.00    -0.017 C 
ATOM     22  C   UNL     1      70.637  82.437  66.954  1.00  0.00     0.007 C 
ATOM     23  C   UNL     1      72.674  83.626  65.982  1.00  0.00     0.007 C 
ENDBRANCH  20  21
ENDBRANCH  19  20
ENDBRANCH  18  19
ENDBRANCH  17  18
ENDBRANCH   1  17
TORSDOF 10
ENDMDL
MODEL 7
REMARK VINA RESULT:    -5.689      7.598     10.340
REMARK INTER + INTRA:          -9.491
REMARK INTER:                  -8.737
REMARK INTRA:                  -0.755
REMARK UNBOUND:                -0.644
REMARK SMILES COc1cc(CNC(=O)CCCCCC(C)C)ccc1O
REMARK SMILES IDX 10 1 8 2 7 3 9 5 6 6 5 7 3 8 20 9 4 10 19 11 18 12 2 13 1 14
REMARK SMILES IDX 21 15 11 17 12 18 13 19 14 20 15 21 16 22 17 23
REMARK H PARENT 7 4 21 16
REMARK Flexibility Score: inf
ROOT
ATOM      1  C   UNL     1      95.502  93.443  80.245  1.00  0.00     0.100 C 
ENDROOT
BRANCH   1   2
ATOM      2  C   UNL     1      95.610  94.190  81.516  1.00  0.00     0.220 C 
ATOM      3  N   UNL     1      96.269  95.383  81.538  1.00  0.00    -0.352 N 
ATOM      4  H   UNL     1      96.761  95.613  80.686  1.00  0.00     0.163 HD
ATOM      5  O   UNL     1      95.055  93.728  82.543  1.00  0.00    -0.275 OA
BRANCH   3   6
ATOM      6  C   UNL     1      96.300  96.284  82.645  1.00  0.00     0.151 C 
BRANCH   6   7
ATOM      7  C   UNL     1      96.136  97.708  82.244  1.00  0.00    -0.025 A 
ATOM      8  C   UNL     1      96.385  99.494  80.573  1.00  0.00     0.160 A 
ATOM      9  C   UNL     1      95.764 100.404  81.456  1.00  0.00     0.157 A 
ATOM     10  C   UNL     1      96.584  98.158  80.980  1.00  0.00     0.056 A 
ATOM     11  C   UNL     1      95.340  99.973  82.727  1.00  0.00     0.050 A 
ATOM     12  C   UNL     1      95.519  98.635  83.116  1.00  0.00     0.009 A 
BRANCH   8  13
ATOM     13  O   UNL     1      96.823  99.898  79.339  1.00  0.00    -0.493 OA
ATOM     14  C   UNL     1      96.075  99.337  78.244  1.00  0.00     0.278 C 
ENDBRANCH   8  13
BRANCH   9  15
ATOM     15  O   UNL     1      95.570 101.691  81.076  1.00  0.00    -0.504 OA
ATOM     16  H   UNL     1      94.643 101.828  80.870  1.00  0.00     0.293 HD
ENDBRANCH   9  15
ENDBRANCH   6   7
ENDBRANCH   3   6
ENDBRANCH   1   2
BRANCH   1  17
ATOM     17  C   UNL     1      94.726  94.193  79.129  1.00  0.00     0.010 C 
BRANCH  17  18
ATOM     18  C   UNL     1      93.206  94.266  79.439  1.00  0.00     0.001 C 
BRANCH  18  19
ATOM     19  C   UNL     1      92.382  94.961  78.323  1.00  0.00     0.000 C 
BRANCH  19  20
ATOM     20  C   UNL     1      91.738  93.937  77.344  1.00  0.00     0.003 C 
BRANCH  20  21
ATOM     21  C   UNL     1      90.184  93.801  77.459  1.00  0.00    -0.017 C 
ATOM     22  C   UNL     1      89.500  95.200  77.430  1.00  0.00     0.007 C 
ATOM     23  C   UNL     1      89.739  93.015  78.727  1.00  0.00     0.007 C 
ENDBRANCH  20  21
ENDBRANCH  19  20
ENDBRANCH  18  19
ENDBRANCH  17  18
ENDBRANCH   1  17
TORSDOF 10
ENDMDL
MODEL 8
REMARK VINA RESULT:    -5.670      7.633     10.589
REMARK INTER + INTRA:          -9.462
REMARK INTER:                  -8.754
REMARK INTRA:                  -0.708
REMARK UNBOUND:                -0.644
REMARK SMILES COc1cc(CNC(=O)CCCCCC(C)C)ccc1O
REMARK SMILES IDX 10 1 8 2 7 3 9 5 6 6 5 7 3 8 20 9 4 10 19 11 18 12 2 13 1 14
REMARK SMILES IDX 21 15 11 17 12 18 13 19 14 20 15 21 16 22 17 23
REMARK H PARENT 7 4 21 16
REMARK Flexibility Score: inf
ROOT
ATOM      1  C   UNL     1      94.574  93.576  80.145  1.00  0.00     0.100 C 
ENDROOT
BRANCH   1   2
ATOM      2  C   UNL     1      94.964  94.336  81.351  1.00  0.00     0.220 C 
ATOM      3  N   UNL     1      95.015  95.697  81.297  1.00  0.00    -0.352 N 
ATOM      4  H   UNL     1      94.906  96.090  80.373  1.00  0.00     0.163 HD
ATOM      5  O   UNL     1      95.198  93.712  82.415  1.00  0.00    -0.275 OA
BRANCH   3   6
ATOM      6  C   UNL     1      95.204  96.558  82.421  1.00  0.00     0.151 C 
BRANCH   6   7
ATOM      7  C   UNL     1      95.436  97.977  82.038  1.00  0.00    -0.025 A 
ATOM      8  C   UNL     1      95.503 100.362  82.632  1.00  0.00     0.160 A 
ATOM      9  C   UNL     1      95.941 100.672  81.327  1.00  0.00     0.157 A 
ATOM     10  C   UNL     1      95.236  99.019  82.974  1.00  0.00     0.056 A 
ATOM     11  C   UNL     1      96.117  99.646  80.380  1.00  0.00     0.050 A 
ATOM     12  C   UNL     1      95.872  98.309  80.734  1.00  0.00     0.009 A 
BRANCH   8  13
ATOM     13  O   UNL     1      95.306 101.348  83.563  1.00  0.00    -0.493 OA
ATOM     14  C   UNL     1      93.978 101.907  83.546  1.00  0.00     0.278 C 
ENDBRANCH   8  13
BRANCH   9  15
ATOM     15  O   UNL     1      96.199 101.960  80.988  1.00  0.00    -0.504 OA
ATOM     16  H   UNL     1      96.881 101.983  80.313  1.00  0.00     0.293 HD
ENDBRANCH   9  15
ENDBRANCH   6   7
ENDBRANCH   3   6
ENDBRANCH   1   2
BRANCH   1  17
ATOM     17  C   UNL     1      93.269  94.075  79.470  1.00  0.00     0.010 C 
BRANCH  17  18
ATOM     18  C   UNL     1      93.559  94.792  78.122  1.00  0.00     0.001 C 
BRANCH  18  19
ATOM     19  C   UNL     1      92.360  94.764  77.139  1.00  0.00     0.000 C 
BRANCH  19  20
ATOM     20  C   UNL     1      91.077  95.391  77.758  1.00  0.00     0.003 C 
BRANCH  20  21
ATOM     21  C   UNL     1      89.768  94.561  77.546  1.00  0.00    -0.017 C 
ATOM     22  C   UNL     1      89.747  93.312  78.475  1.00  0.00     0.007 C 
ATOM     23  C   UNL     1      89.559  94.129  76.066  1.00  0.00     0.007 C 
ENDBRANCH  20  21
ENDBRANCH  19  20
ENDBRANCH  18  19
ENDBRANCH  17  18
ENDBRANCH   1  17
TORSDOF 10
ENDMDL
MODEL 9
REMARK VINA RESULT:    -5.583     31.050     32.590
REMARK INTER + INTRA:          -9.328
REMARK INTER:                  -8.080
REMARK INTRA:                  -1.248
REMARK UNBOUND:                -0.644
REMARK SMILES COc1cc(CNC(=O)CCCCCC(C)C)ccc1O
REMARK SMILES IDX 10 1 8 2 7 3 9 5 6 6 5 7 3 8 20 9 4 10 19 11 18 12 2 13 1 14
REMARK SMILES IDX 21 15 11 17 12 18 13 19 14 20 15 21 16 22 17 23
REMARK H PARENT 7 4 21 16
REMARK Flexibility Score: inf
ROOT
ATOM      1  C   UNL     1      63.689  82.161  74.735  1.00  0.00     0.100 C 
ENDROOT
BRANCH   1   2
ATOM      2  C   UNL     1      62.678  83.218  74.947  1.00  0.00     0.220 C 
ATOM      3  N   UNL     1      62.936  84.486  74.520  1.00  0.00    -0.352 N 
ATOM      4  H   UNL     1      63.880  84.642  74.196  1.00  0.00     0.163 HD
ATOM      5  O   UNL     1      61.583  82.915  75.481  1.00  0.00    -0.275 OA
BRANCH   3   6
ATOM      6  C   UNL     1      61.990  85.556  74.504  1.00  0.00     0.151 C 
BRANCH   6   7
ATOM      7  C   UNL     1      61.050  85.488  73.352  1.00  0.00    -0.025 A 
ATOM      8  C   UNL     1      60.590  84.911  71.007  1.00  0.00     0.160 A 
ATOM      9  C   UNL     1      59.244  85.296  71.178  1.00  0.00     0.157 A 
ATOM     10  C   UNL     1      61.489  85.026  72.089  1.00  0.00     0.056 A 
ATOM     11  C   UNL     1      58.803  85.782  72.423  1.00  0.00     0.050 A 
ATOM     12  C   UNL     1      59.697  85.872  73.503  1.00  0.00     0.009 A 
BRANCH   8  13
ATOM     13  O   UNL     1      61.044  84.454  69.797  1.00  0.00    -0.493 OA
ATOM     14  C   UNL     1      62.055  85.290  69.201  1.00  0.00     0.278 C 
ENDBRANCH   8  13
BRANCH   9  15
ATOM     15  O   UNL     1      58.372  85.191  70.144  1.00  0.00    -0.504 OA
ATOM     16  H   UNL     1      57.790  85.953  70.137  1.00  0.00     0.293 HD
ENDBRANCH   9  15
ENDBRANCH   6   7
ENDBRANCH   3   6
ENDBRANCH   1   2
BRANCH   1  17
ATOM     17  C   UNL     1      63.231  81.022  73.784  1.00  0.00     0.010 C 
BRANCH  17  18
ATOM     18  C   UNL     1      63.159  81.502  72.308  1.00  0.00     0.001 C 
BRANCH  18  19
ATOM     19  C   UNL     1      64.552  81.704  71.657  1.00  0.00     0.000 C 
BRANCH  19  20
ATOM     20  C   UNL     1      64.508  82.713  70.473  1.00  0.00     0.003 C 
BRANCH  20  21
ATOM     21  C   UNL     1      64.447  82.061  69.053  1.00  0.00    -0.017 C 
ATOM     22  C   UNL     1      65.152  82.964  67.997  1.00  0.00     0.007 C 
ATOM     23  C   UNL     1      62.994  81.741  68.596  1.00  0.00     0.007 C 
ENDBRANCH  20  21
ENDBRANCH  19  20
ENDBRANCH  18  19
ENDBRANCH  17  18
ENDBRANCH   1  17
TORSDOF 10
ENDMDL
MODEL 10
REMARK VINA RESULT:    -5.541     20.917     23.570
REMARK INTER + INTRA:          -9.261
REMARK INTER:                  -8.036
REMARK INTRA:                  -1.225
REMARK UNBOUND:                -0.644
REMARK SMILES COc1cc(CNC(=O)CCCCCC(C)C)ccc1O
REMARK SMILES IDX 10 1 8 2 7 3 9 5 6 6 5 7 3 8 20 9 4 10 19 11 18 12 2 13 1 14
REMARK SMILES IDX 21 15 11 17 12 18 13 19 14 20 15 21 16 22 17 23
REMARK H PARENT 7 4 21 16
REMARK Flexibility Score: inf
ROOT
ATOM      1  C   UNL     1      75.582  81.060  64.576  1.00  0.00     0.100 C 
ENDROOT
BRANCH   1   2
ATOM      2  C   UNL     1      76.553  82.006  65.163  1.00  0.00     0.220 C 
ATOM      3  N   UNL     1      76.331  83.347  65.054  1.00  0.00    -0.352 N 
ATOM      4  H   UNL     1      75.564  83.603  64.450  1.00  0.00     0.163 HD
ATOM      5  O   UNL     1      77.543  81.554  65.788  1.00  0.00    -0.275 OA
BRANCH   3   6
ATOM      6  C   UNL     1      77.087  84.361  65.716  1.00  0.00     0.151 C 
BRANCH   6   7
ATOM      7  C   UNL     1      76.754  84.490  67.161  1.00  0.00    -0.025 A 
ATOM      8  C   UNL     1      75.134  85.009  68.937  1.00  0.00     0.160 A 
ATOM      9  C   UNL     1      76.097  84.670  69.911  1.00  0.00     0.157 A 
ATOM     10  C   UNL     1      75.474  84.934  67.569  1.00  0.00     0.056 A 
ATOM     11  C   UNL     1      77.382  84.252  69.516  1.00  0.00     0.050 A 
ATOM     12  C   UNL     1      77.706  84.157  68.152  1.00  0.00     0.009 A 
BRANCH   8  13
ATOM     13  O   UNL     1      73.884  85.437  69.301  1.00  0.00    -0.493 OA
ATOM     14  C   UNL     1      73.707  86.863  69.204  1.00  0.00     0.278 C 
ENDBRANCH   8  13
BRANCH   9  15
ATOM     15  O   UNL     1      75.782  84.740  71.228  1.00  0.00    -0.504 OA
ATOM     16  H   UNL     1      75.250  85.523  71.389  1.00  0.00     0.293 HD
ENDBRANCH   9  15
ENDBRANCH   6   7
ENDBRANCH   3   6
ENDBRANCH   1   2
BRANCH   1  17
ATOM     17  C   UNL     1      75.002  81.507  63.207  1.00  0.00     0.010 C 
BRANCH  17  18
ATOM     18  C   UNL     1      73.611  80.868  62.938  1.00  0.00     0.001 C 
BRANCH  18  19
ATOM     19  C   UNL     1      72.881  80.414  64.230  1.00  0.00     0.000 C 
BRANCH  19  20
ATOM     20  C   UNL     1      71.788  81.428  64.675  1.00  0.00     0.003 C 
BRANCH  20  21
ATOM     21  C   UNL     1      72.119  82.226  65.978  1.00  0.00    -0.017 C 
ATOM     22  C   UNL     1      70.844  82.415  66.852  1.00  0.00     0.007 C 
ATOM     23  C   UNL     1      72.778  83.606  65.690  1.00  0.00     0.007 C 
ENDBRANCH  20  21
ENDBRANCH  19  20
ENDBRANCH  18  19
ENDBRANCH  17  18
ENDBRANCH   1  17
TORSDOF 10
ENDMDL
