MODEL 1
REMARK VINA RESULT:    -5.638      0.000      0.000
REMARK INTER + INTRA:          -9.711
REMARK INTER:                  -9.099
REMARK INTRA:                  -0.612
REMARK UNBOUND:                -0.612
REMARK SMILES CCCCCCCCC(=O)NCc1ccc(O)c(OC)c1
REMARK SMILES IDX 7 1 6 2 5 3 4 4 3 5 2 6 1 7 8 8 9 9 10 10 11 11 12 13 13 14
REMARK SMILES IDX 21 15 14 16 18 17 15 18 16 19 19 20 20 21 17 22
REMARK H PARENT 11 12 17 23
REMARK Flexibility Score: inf
ROOT
ATOM      1  C   UNL     1      96.197  82.338  83.526  1.00  0.00     0.010 C 
ENDROOT
BRANCH   1   2
ATOM      2  C   UNL     1      94.677  82.481  83.826  1.00  0.00     0.001 C 
BRANCH   2   3
ATOM      3  C   UNL     1      94.406  83.318  85.111  1.00  0.00     0.000 C 
BRANCH   3   4
ATOM      4  C   UNL     1      92.992  83.096  85.718  1.00  0.00    -0.000 C 
BRANCH   4   5
ATOM      5  C   UNL     1      92.003  82.440  84.712  1.00  0.00    -0.000 C 
BRANCH   5   6
ATOM      6  C   UNL     1      91.408  81.109  85.244  1.00  0.00    -0.003 C 
ATOM      7  C   UNL     1      91.478  79.964  84.209  1.00  0.00     0.004 C 
ENDBRANCH   5   6
ENDBRANCH   4   5
ENDBRANCH   3   4
ENDBRANCH   2   3
ENDBRANCH   1   2
BRANCH   1   8
ATOM      8  C   UNL     1      96.536  81.200  82.524  1.00  0.00     0.100 C 
BRANCH   8   9
ATOM      9  C   UNL     1      97.556  81.634  81.539  1.00  0.00     0.220 C 
ATOM     10  O   UNL     1      98.648  82.077  81.969  1.00  0.00    -0.275 OA
ATOM     11  N   UNL     1      97.318  81.524  80.199  1.00  0.00    -0.352 N 
ATOM     12  H   UNL     1      96.379  81.238  79.964  1.00  0.00     0.163 HD
BRANCH  11  13
ATOM     13  C   UNL     1      98.267  81.774  79.158  1.00  0.00     0.151 C 
BRANCH  13  14
ATOM     14  C   UNL     1      97.740  82.619  78.053  1.00  0.00    -0.025 A 
ATOM     15  C   UNL     1      98.308  82.536  76.759  1.00  0.00     0.056 A 
ATOM     16  C   UNL     1      96.672  83.519  78.273  1.00  0.00     0.009 A 
ATOM     17  C   UNL     1      97.806  83.320  75.695  1.00  0.00     0.160 A 
ATOM     18  C   UNL     1      96.167  84.301  77.219  1.00  0.00     0.050 A 
ATOM     19  C   UNL     1      96.735  84.211  75.933  1.00  0.00     0.157 A 
BRANCH  17  20
ATOM     20  O   UNL     1      98.385  83.269  74.453  1.00  0.00    -0.493 OA
ATOM     21  C   UNL     1      99.338  82.204  74.291  1.00  0.00     0.278 C 
ENDBRANCH  17  20
BRANCH  19  22
ATOM     22  O   UNL     1      96.259  84.990  74.929  1.00  0.00    -0.504 OA
ATOM     23  H   UNL     1      96.604  84.677  74.089  1.00  0.00     0.293 HD
ENDBRANCH  19  22
ENDBRANCH  13  14
ENDBRANCH  11  13
ENDBRANCH   8   9
ENDBRANCH   1   8
TORSDOF 11
ENDMDL
MODEL 2
REMARK VINA RESULT:    -5.515      2.482      8.683
REMARK INTER + INTRA:          -9.512
REMARK INTER:                  -8.344
REMARK INTRA:                  -1.168
REMARK UNBOUND:                -0.612
REMARK SMILES CCCCCCCCC(=O)NCc1ccc(O)c(OC)c1
REMARK SMILES IDX 7 1 6 2 5 3 4 4 3 5 2 6 1 7 8 8 9 9 10 10 11 11 12 13 13 14
REMARK SMILES IDX 21 15 14 16 18 17 15 18 16 19 19 20 20 21 17 22
REMARK H PARENT 11 12 17 23
REMARK Flexibility Score: inf
ROOT
ATOM      1  C   UNL     1      99.469  83.821  75.183  1.00  0.00     0.010 C 
ENDROOT
BRANCH   1   2
ATOM      2  C   UNL     1      99.829  82.461  74.517  1.00  0.00     0.001 C 
BRANCH   2   3
ATOM      3  C   UNL     1     100.390  81.433  75.544  1.00  0.00     0.000 C 
BRANCH   3   4
ATOM      4  C   UNL     1     101.251  82.076  76.668  1.00  0.00    -0.000 C 
BRANCH   4   5
ATOM      5  C   UNL     1     102.760  81.722  76.545  1.00  0.00    -0.000 C 
BRANCH   5   6
ATOM      6  C   UNL     1     103.417  81.427  77.920  1.00  0.00    -0.003 C 
ATOM      7  C   UNL     1     102.435  80.795  78.931  1.00  0.00     0.004 C 
ENDBRANCH   5   6
ENDBRANCH   4   5
ENDBRANCH   3   4
ENDBRANCH   2   3
ENDBRANCH   1   2
BRANCH   1   8
ATOM      8  C   UNL     1      98.048  84.340  74.826  1.00  0.00     0.100 C 
BRANCH   8   9
ATOM      9  C   UNL     1      97.185  84.421  76.029  1.00  0.00     0.220 C 
ATOM     10  O   UNL     1      96.157  85.138  75.977  1.00  0.00    -0.275 OA
ATOM     11  N   UNL     1      97.491  83.707  77.152  1.00  0.00    -0.352 N 
ATOM     12  H   UNL     1      98.382  83.234  77.116  1.00  0.00     0.163 HD
BRANCH  11  13
ATOM     13  C   UNL     1      96.670  83.592  78.319  1.00  0.00     0.151 C 
BRANCH  13  14
ATOM     14  C   UNL     1      97.349  82.938  79.470  1.00  0.00    -0.025 A 
ATOM     15  C   UNL     1      96.897  83.174  80.790  1.00  0.00     0.056 A 
ATOM     16  C   UNL     1      98.453  82.078  79.269  1.00  0.00     0.009 A 
ATOM     17  C   UNL     1      97.522  82.546  81.893  1.00  0.00     0.160 A 
ATOM     18  C   UNL     1      99.078  81.450  80.361  1.00  0.00     0.050 A 
ATOM     19  C   UNL     1      98.622  81.687  81.672  1.00  0.00     0.157 A 
BRANCH  17  20
ATOM     20  O   UNL     1      97.110  82.809  83.175  1.00  0.00    -0.493 OA
ATOM     21  C   UNL     1      95.689  82.697  83.371  1.00  0.00     0.278 C 
ENDBRANCH  17  20
BRANCH  19  22
ATOM     22  O   UNL     1      99.249  81.098  82.722  1.00  0.00    -0.504 OA
ATOM     23  H   UNL     1     100.126  81.476  82.825  1.00  0.00     0.293 HD
ENDBRANCH  19  22
ENDBRANCH  13  14
ENDBRANCH  11  13
ENDBRANCH   8   9
ENDBRANCH   1   8
TORSDOF 11
ENDMDL
MODEL 3
REMARK VINA RESULT:    -5.345      5.186      8.125
REMARK INTER + INTRA:          -9.238
REMARK INTER:                  -7.991
REMARK INTRA:                  -1.247
REMARK UNBOUND:                -0.612
REMARK SMILES CCCCCCCCC(=O)NCc1ccc(O)c(OC)c1
REMARK SMILES IDX 7 1 6 2 5 3 4 4 3 5 2 6 1 7 8 8 9 9 10 10 11 11 12 13 13 14
REMARK SMILES IDX 21 15 14 16 18 17 15 18 16 19 19 20 20 21 17 22
REMARK H PARENT 11 12 17 23
REMARK Flexibility Score: inf
ROOT
ATOM      1  C   UNL     1      96.535  79.321  82.653  1.00  0.00     0.010 C 
ENDROOT
BRANCH   1   2
ATOM      2  C   UNL     1      97.263  80.677  82.880  1.00  0.00     0.001 C 
BRANCH   2   3
ATOM      3  C   UNL     1      97.112  81.637  81.664  1.00  0.00     0.000 C 
BRANCH   3   4
ATOM      4  C   UNL     1      96.716  83.089  82.056  1.00  0.00    -0.000 C 
BRANCH   4   5
ATOM      5  C   UNL     1      95.735  83.138  83.262  1.00  0.00    -0.000 C 
BRANCH   5   6
ATOM      6  C   UNL     1      96.220  84.095  84.385  1.00  0.00    -0.003 C 
ATOM      7  C   UNL     1      97.311  83.466  85.280  1.00  0.00     0.004 C 
ENDBRANCH   5   6
ENDBRANCH   4   5
ENDBRANCH   3   4
ENDBRANCH   2   3
ENDBRANCH   1   2
BRANCH   1   8
ATOM      8  C   UNL     1      96.778  78.280  83.781  1.00  0.00     0.100 C 
BRANCH   8   9
ATOM      9  C   UNL     1      95.558  78.072  84.597  1.00  0.00     0.220 C 
ATOM     10  O   UNL     1      95.690  77.899  85.832  1.00  0.00    -0.275 OA
ATOM     11  N   UNL     1      94.322  78.099  84.016  1.00  0.00    -0.352 N 
ATOM     12  H   UNL     1      94.336  78.157  83.008  1.00  0.00     0.163 HD
BRANCH  11  13
ATOM     13  C   UNL     1      93.071  78.053  84.710  1.00  0.00     0.151 C 
BRANCH  13  14
ATOM     14  C   UNL     1      92.221  79.254  84.495  1.00  0.00    -0.025 A 
ATOM     15  C   UNL     1      92.758  80.550  84.681  1.00  0.00     0.056 A 
ATOM     16  C   UNL     1      90.867  79.126  84.108  1.00  0.00     0.009 A 
ATOM     17  C   UNL     1      91.967  81.702  84.464  1.00  0.00     0.160 A 
ATOM     18  C   UNL     1      90.074  80.267  83.890  1.00  0.00     0.050 A 
ATOM     19  C   UNL     1      90.617  81.554  84.074  1.00  0.00     0.157 A 
BRANCH  17  20
ATOM     20  O   UNL     1      92.478  82.956  84.686  1.00  0.00    -0.493 OA
ATOM     21  C   UNL     1      93.004  83.152  86.010  1.00  0.00     0.278 C 
ENDBRANCH  17  20
BRANCH  19  22
ATOM     22  O   UNL     1      89.836  82.649  83.887  1.00  0.00    -0.504 OA
ATOM     23  H   UNL     1      89.004  82.384  83.488  1.00  0.00     0.293 HD
ENDBRANCH  19  22
ENDBRANCH  13  14
ENDBRANCH  11  13
ENDBRANCH   8   9
ENDBRANCH   1   8
TORSDOF 11
ENDMDL
MODEL 4
REMARK VINA RESULT:    -5.212     23.126     25.526
REMARK INTER + INTRA:          -9.023
REMARK INTER:                  -8.279
REMARK INTRA:                  -0.744
REMARK UNBOUND:                -0.612
REMARK SMILES CCCCCCCCC(=O)NCc1ccc(O)c(OC)c1
REMARK SMILES IDX 7 1 6 2 5 3 4 4 3 5 2 6 1 7 8 8 9 9 10 10 11 11 12 13 13 14
REMARK SMILES IDX 21 15 14 16 18 17 15 18 16 19 19 20 20 21 17 22
REMARK H PARENT 11 12 17 23
REMARK Flexibility Score: inf
ROOT
ATOM      1  C   UNL     1      74.952  90.149  70.055  1.00  0.00     0.010 C 
ENDROOT
BRANCH   1   2
ATOM      2  C   UNL     1      75.309  89.401  68.739  1.00  0.00     0.001 C 
BRANCH   2   3
ATOM      3  C   UNL     1      76.846  89.232  68.555  1.00  0.00     0.000 C 
BRANCH   3   4
ATOM      4  C   UNL     1      77.239  88.333  67.349  1.00  0.00    -0.000 C 
BRANCH   4   5
ATOM      5  C   UNL     1      76.790  86.855  67.531  1.00  0.00    -0.000 C 
BRANCH   5   6
ATOM      6  C   UNL     1      77.328  86.227  68.845  1.00  0.00    -0.003 C 
ATOM      7  C   UNL     1      76.212  85.605  69.713  1.00  0.00     0.004 C 
ENDBRANCH   5   6
ENDBRANCH   4   5
ENDBRANCH   3   4
ENDBRANCH   2   3
ENDBRANCH   1   2
BRANCH   1   8
ATOM      8  C   UNL     1      73.602  89.707  70.684  1.00  0.00     0.100 C 
BRANCH   8   9
ATOM      9  C   UNL     1      72.956  90.823  71.416  1.00  0.00     0.220 C 
ATOM     10  O   UNL     1      71.703  90.883  71.425  1.00  0.00    -0.275 OA
ATOM     11  N   UNL     1      73.711  91.742  72.087  1.00  0.00    -0.352 N 
ATOM     12  H   UNL     1      74.706  91.650  71.942  1.00  0.00     0.163 HD
BRANCH  11  13
ATOM     13  C   UNL     1      73.208  92.775  72.940  1.00  0.00     0.151 C 
BRANCH  13  14
ATOM     14  C   UNL     1      73.568  92.600  74.372  1.00  0.00    -0.025 A 
ATOM     15  C   UNL     1      74.600  93.379  74.948  1.00  0.00     0.056 A 
ATOM     16  C   UNL     1      72.895  91.655  75.181  1.00  0.00     0.009 A 
ATOM     17  C   UNL     1      74.942  93.236  76.312  1.00  0.00     0.160 A 
ATOM     18  C   UNL     1      73.229  91.509  76.539  1.00  0.00     0.050 A 
ATOM     19  C   UNL     1      74.255  92.290  77.106  1.00  0.00     0.157 A 
BRANCH  17  20
ATOM     20  O   UNL     1      75.971  93.962  76.857  1.00  0.00    -0.493 OA
ATOM     21  C   UNL     1      76.537  94.940  75.967  1.00  0.00     0.278 C 
ENDBRANCH  17  20
BRANCH  19  22
ATOM     22  O   UNL     1      74.589  92.122  78.411  1.00  0.00    -0.504 OA
ATOM     23  H   UNL     1      75.376  92.635  78.608  1.00  0.00     0.293 HD
ENDBRANCH  19  22
ENDBRANCH  13  14
ENDBRANCH  11  13
ENDBRANCH   8   9
ENDBRANCH   1   8
TORSDOF 11
ENDMDL
MODEL 5
REMARK VINA RESULT:    -5.185      4.871      9.033
REMARK INTER + INTRA:          -8.980
REMARK INTER:                  -8.409
REMARK INTRA:                  -0.571
REMARK UNBOUND:                -0.612
REMARK SMILES CCCCCCCCC(=O)NCc1ccc(O)c(OC)c1
REMARK SMILES IDX 7 1 6 2 5 3 4 4 3 5 2 6 1 7 8 8 9 9 10 10 11 11 12 13 13 14
REMARK SMILES IDX 21 15 14 16 18 17 15 18 16 19 19 20 20 21 17 22
REMARK H PARENT 11 12 17 23
REMARK Flexibility Score: inf
ROOT
ATOM      1  C   UNL     1      96.971  82.784  84.145  1.00  0.00     0.010 C 
ENDROOT
BRANCH   1   2
ATOM      2  C   UNL     1      96.364  83.657  83.009  1.00  0.00     0.001 C 
BRANCH   2   3
ATOM      3  C   UNL     1      96.689  83.092  81.595  1.00  0.00     0.000 C 
BRANCH   3   4
ATOM      4  C   UNL     1      97.036  81.577  81.589  1.00  0.00    -0.000 C 
BRANCH   4   5
ATOM      5  C   UNL     1      97.512  81.075  80.196  1.00  0.00    -0.000 C 
BRANCH   5   6
ATOM      6  C   UNL     1      98.996  80.617  80.203  1.00  0.00    -0.003 C 
ATOM      7  C   UNL     1      99.889  81.488  81.114  1.00  0.00     0.004 C 
ENDBRANCH   5   6
ENDBRANCH   4   5
ENDBRANCH   3   4
ENDBRANCH   2   3
ENDBRANCH   1   2
BRANCH   1   8
ATOM      8  C   UNL     1      96.306  83.004  85.533  1.00  0.00     0.100 C 
BRANCH   8   9
ATOM      9  C   UNL     1      94.848  83.239  85.401  1.00  0.00     0.220 C 
ATOM     10  O   UNL     1      94.376  84.313  85.846  1.00  0.00    -0.275 OA
ATOM     11  N   UNL     1      94.050  82.319  84.784  1.00  0.00    -0.352 N 
ATOM     12  H   UNL     1      94.517  81.457  84.542  1.00  0.00     0.163 HD
BRANCH  11  13
ATOM     13  C   UNL     1      92.664  82.491  84.471  1.00  0.00     0.151 C 
BRANCH  13  14
ATOM     14  C   UNL     1      91.897  81.218  84.422  1.00  0.00    -0.025 A 
ATOM     15  C   UNL     1      90.514  81.231  84.120  1.00  0.00     0.056 A 
ATOM     16  C   UNL     1      92.528  79.978  84.677  1.00  0.00     0.009 A 
ATOM     17  C   UNL     1      89.775  80.027  84.053  1.00  0.00     0.160 A 
ATOM     18  C   UNL     1      91.799  78.778  84.611  1.00  0.00     0.050 A 
ATOM     19  C   UNL     1      90.424  78.798  84.307  1.00  0.00     0.157 A 
BRANCH  17  20
ATOM     20  O   UNL     1      88.427  80.045  83.801  1.00  0.00    -0.493 OA
ATOM     21  C   UNL     1      87.762  81.242  84.242  1.00  0.00     0.278 C 
ENDBRANCH  17  20
BRANCH  19  22
ATOM     22  O   UNL     1      89.723  77.636  84.272  1.00  0.00    -0.504 OA
ATOM     23  H   UNL     1      89.518  77.359  85.168  1.00  0.00     0.293 HD
ENDBRANCH  19  22
ENDBRANCH  13  14
ENDBRANCH  11  13
ENDBRANCH   8   9
ENDBRANCH   1   8
TORSDOF 11
ENDMDL
MODEL 6
REMARK VINA RESULT:    -5.156     24.629     26.645
REMARK INTER + INTRA:          -8.933
REMARK INTER:                  -7.363
REMARK INTRA:                  -1.570
REMARK UNBOUND:                -0.612
REMARK SMILES CCCCCCCCC(=O)NCc1ccc(O)c(OC)c1
REMARK SMILES IDX 7 1 6 2 5 3 4 4 3 5 2 6 1 7 8 8 9 9 10 10 11 11 12 13 13 14
REMARK SMILES IDX 21 15 14 16 18 17 15 18 16 19 19 20 20 21 17 22
REMARK H PARENT 11 12 17 23
REMARK Flexibility Score: inf
ROOT
ATOM      1  C   UNL     1      76.623  87.988  68.514  1.00  0.00     0.010 C 
ENDROOT
BRANCH   1   2
ATOM      2  C   UNL     1      77.211  86.615  68.948  1.00  0.00     0.001 C 
BRANCH   2   3
ATOM      3  C   UNL     1      76.107  85.625  69.422  1.00  0.00     0.000 C 
BRANCH   3   4
ATOM      4  C   UNL     1      75.998  84.343  68.549  1.00  0.00    -0.000 C 
BRANCH   4   5
ATOM      5  C   UNL     1      75.835  84.660  67.035  1.00  0.00    -0.000 C 
BRANCH   5   6
ATOM      6  C   UNL     1      77.058  84.203  66.196  1.00  0.00    -0.003 C 
ATOM      7  C   UNL     1      76.664  83.316  64.995  1.00  0.00     0.004 C 
ENDBRANCH   5   6
ENDBRANCH   4   5
ENDBRANCH   3   4
ENDBRANCH   2   3
ENDBRANCH   1   2
BRANCH   1   8
ATOM      8  C   UNL     1      76.932  88.367  67.038  1.00  0.00     0.100 C 
BRANCH   8   9
ATOM      9  C   UNL     1      75.780  88.071  66.153  1.00  0.00     0.220 C 
ATOM     10  O   UNL     1      76.010  87.766  64.958  1.00  0.00    -0.275 OA
ATOM     11  N   UNL     1      74.504  88.103  66.640  1.00  0.00    -0.352 N 
ATOM     12  H   UNL     1      74.427  88.443  67.587  1.00  0.00     0.163 HD
BRANCH  11  13
ATOM     13  C   UNL     1      73.328  87.703  65.929  1.00  0.00     0.151 C 
BRANCH  13  14
ATOM     14  C   UNL     1      72.576  86.600  66.584  1.00  0.00    -0.025 A 
ATOM     15  C   UNL     1      72.235  85.437  65.852  1.00  0.00     0.056 A 
ATOM     16  C   UNL     1      72.187  86.690  67.940  1.00  0.00     0.009 A 
ATOM     17  C   UNL     1      71.536  84.373  66.466  1.00  0.00     0.160 A 
ATOM     18  C   UNL     1      71.492  85.635  68.557  1.00  0.00     0.050 A 
ATOM     19  C   UNL     1      71.158  84.480  67.823  1.00  0.00     0.157 A 
BRANCH  17  20
ATOM     20  O   UNL     1      71.169  83.265  65.743  1.00  0.00    -0.493 OA
ATOM     21  C   UNL     1      70.201  83.529  64.713  1.00  0.00     0.278 C 
ENDBRANCH  17  20
BRANCH  19  22
ATOM     22  O   UNL     1      70.463  83.478  68.420  1.00  0.00    -0.504 OA
ATOM     23  H   UNL     1      71.060  82.948  68.953  1.00  0.00     0.293 HD
ENDBRANCH  19  22
ENDBRANCH  13  14
ENDBRANCH  11  13
ENDBRANCH   8   9
ENDBRANCH   1   8
TORSDOF 11
ENDMDL
MODEL 7
REMARK VINA RESULT:    -5.137     22.785     24.381
REMARK INTER + INTRA:          -8.902
REMARK INTER:                  -8.373
REMARK INTRA:                  -0.528
REMARK UNBOUND:                -0.612
REMARK SMILES CCCCCCCCC(=O)NCc1ccc(O)c(OC)c1
REMARK SMILES IDX 7 1 6 2 5 3 4 4 3 5 2 6 1 7 8 8 9 9 10 10 11 11 12 13 13 14
REMARK SMILES IDX 21 15 14 16 18 17 15 18 16 19 19 20 20 21 17 22
REMARK H PARENT 11 12 17 23
REMARK Flexibility Score: inf
ROOT
ATOM      1  C   UNL     1      73.567  93.241  73.086  1.00  0.00     0.010 C 
ENDROOT
BRANCH   1   2
ATOM      2  C   UNL     1      73.288  92.166  74.176  1.00  0.00     0.001 C 
BRANCH   2   3
ATOM      3  C   UNL     1      73.289  92.769  75.612  1.00  0.00     0.000 C 
BRANCH   3   4
ATOM      4  C   UNL     1      74.357  92.145  76.553  1.00  0.00    -0.000 C 
BRANCH   4   5
ATOM      5  C   UNL     1      73.934  92.184  78.050  1.00  0.00    -0.000 C 
BRANCH   5   6
ATOM      6  C   UNL     1      75.014  92.831  78.958  1.00  0.00    -0.003 C 
ATOM      7  C   UNL     1      75.647  94.093  78.332  1.00  0.00     0.004 C 
ENDBRANCH   5   6
ENDBRANCH   4   5
ENDBRANCH   3   4
ENDBRANCH   2   3
ENDBRANCH   1   2
BRANCH   1   8
ATOM      8  C   UNL     1      74.581  92.787  71.999  1.00  0.00     0.100 C 
BRANCH   8   9
ATOM      9  C   UNL     1      73.949  91.872  71.018  1.00  0.00     0.220 C 
ATOM     10  O   UNL     1      72.987  92.302  70.338  1.00  0.00    -0.275 OA
ATOM     11  N   UNL     1      74.425  90.605  70.844  1.00  0.00    -0.352 N 
ATOM     12  H   UNL     1      75.142  90.334  71.502  1.00  0.00     0.163 HD
BRANCH  11  13
ATOM     13  C   UNL     1      73.996  89.681  69.839  1.00  0.00     0.151 C 
BRANCH  13  14
ATOM     14  C   UNL     1      75.084  88.811  69.319  1.00  0.00    -0.025 A 
ATOM     15  C   UNL     1      74.954  87.402  69.368  1.00  0.00     0.056 A 
ATOM     16  C   UNL     1      76.262  89.368  68.771  1.00  0.00     0.009 A 
ATOM     17  C   UNL     1      75.973  86.562  68.862  1.00  0.00     0.160 A 
ATOM     18  C   UNL     1      77.278  88.538  68.265  1.00  0.00     0.050 A 
ATOM     19  C   UNL     1      77.141  87.138  68.315  1.00  0.00     0.157 A 
BRANCH  17  20
ATOM     20  O   UNL     1      75.864  85.197  68.949  1.00  0.00    -0.493 OA
ATOM     21  C   UNL     1      75.724  84.702  70.293  1.00  0.00     0.278 C 
ENDBRANCH  17  20
BRANCH  19  22
ATOM     22  O   UNL     1      78.140  86.345  67.848  1.00  0.00    -0.504 OA
ATOM     23  H   UNL     1      78.632  86.815  67.171  1.00  0.00     0.293 HD
ENDBRANCH  19  22
ENDBRANCH  13  14
ENDBRANCH  11  13
ENDBRANCH   8   9
ENDBRANCH   1   8
TORSDOF 11
ENDMDL
MODEL 8
REMARK VINA RESULT:    -4.968     25.288     27.020
REMARK INTER + INTRA:          -8.630
REMARK INTER:                  -8.105
REMARK INTRA:                  -0.525
REMARK UNBOUND:                -0.612
REMARK SMILES CCCCCCCCC(=O)NCc1ccc(O)c(OC)c1
REMARK SMILES IDX 7 1 6 2 5 3 4 4 3 5 2 6 1 7 8 8 9 9 10 10 11 11 12 13 13 14
REMARK SMILES IDX 21 15 14 16 18 17 15 18 16 19 19 20 20 21 17 22
REMARK H PARENT 11 12 17 23
REMARK Flexibility Score: inf
ROOT
ATOM      1  C   UNL     1      69.100  85.358  70.439  1.00  0.00     0.010 C 
ENDROOT
BRANCH   1   2
ATOM      2  C   UNL     1      67.849  85.004  71.294  1.00  0.00     0.001 C 
BRANCH   2   3
ATOM      3  C   UNL     1      67.638  86.002  72.470  1.00  0.00     0.000 C 
BRANCH   3   4
ATOM      4  C   UNL     1      67.771  85.351  73.876  1.00  0.00    -0.000 C 
BRANCH   4   5
ATOM      5  C   UNL     1      66.520  85.591  74.769  1.00  0.00    -0.000 C 
BRANCH   5   6
ATOM      6  C   UNL     1      65.433  84.500  74.577  1.00  0.00    -0.003 C 
ATOM      7  C   UNL     1      64.086  85.075  74.086  1.00  0.00     0.004 C 
ENDBRANCH   5   6
ENDBRANCH   4   5
ENDBRANCH   3   4
ENDBRANCH   2   3
ENDBRANCH   1   2
BRANCH   1   8
ATOM      8  C   UNL     1      69.920  84.119  69.980  1.00  0.00     0.100 C 
BRANCH   8   9
ATOM      9  C   UNL     1      70.512  84.331  68.638  1.00  0.00     0.220 C 
ATOM     10  O   UNL     1      69.848  83.981  67.633  1.00  0.00    -0.275 OA
ATOM     11  N   UNL     1      71.737  84.919  68.504  1.00  0.00    -0.352 N 
ATOM     12  H   UNL     1      72.220  85.081  69.376  1.00  0.00     0.163 HD
BRANCH  11  13
ATOM     13  C   UNL     1      72.350  85.304  67.270  1.00  0.00     0.151 C 
BRANCH  13  14
ATOM     14  C   UNL     1      73.807  85.012  67.205  1.00  0.00    -0.025 A 
ATOM     15  C   UNL     1      74.638  85.285  68.317  1.00  0.00     0.056 A 
ATOM     16  C   UNL     1      74.387  84.464  66.038  1.00  0.00     0.009 A 
ATOM     17  C   UNL     1      76.022  84.997  68.277  1.00  0.00     0.160 A 
ATOM     18  C   UNL     1      75.762  84.174  65.991  1.00  0.00     0.050 A 
ATOM     19  C   UNL     1      76.583  84.446  67.103  1.00  0.00     0.157 A 
BRANCH  17  20
ATOM     20  O   UNL     1      76.833  85.301  69.340  1.00  0.00    -0.493 OA
ATOM     21  C   UNL     1      76.318  84.876  70.614  1.00  0.00     0.278 C 
ENDBRANCH  17  20
BRANCH  19  22
ATOM     22  O   UNL     1      77.914  84.188  67.038  1.00  0.00    -0.504 OA
ATOM     23  H   UNL     1      78.405  84.978  67.277  1.00  0.00     0.293 HD
ENDBRANCH  19  22
ENDBRANCH  13  14
ENDBRANCH  11  13
ENDBRANCH   8   9
ENDBRANCH   1   8
TORSDOF 11
ENDMDL
MODEL 9
REMARK VINA RESULT:    -4.952     26.438     28.861
REMARK INTER + INTRA:          -8.604
REMARK INTER:                  -7.699
REMARK INTRA:                  -0.905
REMARK UNBOUND:                -0.612
REMARK SMILES CCCCCCCCC(=O)NCc1ccc(O)c(OC)c1
REMARK SMILES IDX 7 1 6 2 5 3 4 4 3 5 2 6 1 7 8 8 9 9 10 10 11 11 12 13 13 14
REMARK SMILES IDX 21 15 14 16 18 17 15 18 16 19 19 20 20 21 17 22
REMARK H PARENT 11 12 17 23
REMARK Flexibility Score: inf
ROOT
ATOM      1  C   UNL     1      73.570  85.581  67.164  1.00  0.00     0.010 C 
ENDROOT
BRANCH   1   2
ATOM      2  C   UNL     1      74.572  86.771  67.133  1.00  0.00     0.001 C 
BRANCH   2   3
ATOM      3  C   UNL     1      74.981  87.234  68.563  1.00  0.00     0.000 C 
BRANCH   3   4
ATOM      4  C   UNL     1      76.456  86.905  68.930  1.00  0.00    -0.000 C 
BRANCH   4   5
ATOM      5  C   UNL     1      76.953  85.579  68.285  1.00  0.00    -0.000 C 
BRANCH   5   6
ATOM      6  C   UNL     1      76.498  84.324  69.078  1.00  0.00    -0.003 C 
ATOM      7  C   UNL     1      76.051  84.654  70.519  1.00  0.00     0.004 C 
ENDBRANCH   5   6
ENDBRANCH   4   5
ENDBRANCH   3   4
ENDBRANCH   2   3
ENDBRANCH   1   2
BRANCH   1   8
ATOM      8  C   UNL     1      72.848  85.402  68.529  1.00  0.00     0.100 C 
BRANCH   8   9
ATOM      9  C   UNL     1      71.424  85.032  68.341  1.00  0.00     0.220 C 
ATOM     10  O   UNL     1      70.796  85.547  67.385  1.00  0.00    -0.275 OA
ATOM     11  N   UNL     1      70.825  84.132  69.175  1.00  0.00    -0.352 N 
ATOM     12  H   UNL     1      71.393  83.847  69.959  1.00  0.00     0.163 HD
BRANCH  11  13
ATOM     13  C   UNL     1      69.510  83.590  69.015  1.00  0.00     0.151 C 
BRANCH  13  14
ATOM     14  C   UNL     1      68.499  84.189  69.926  1.00  0.00    -0.025 A 
ATOM     15  C   UNL     1      67.126  84.159  69.584  1.00  0.00     0.056 A 
ATOM     16  C   UNL     1      68.886  84.798  71.142  1.00  0.00     0.009 A 
ATOM     17  C   UNL     1      66.151  84.708  70.449  1.00  0.00     0.160 A 
ATOM     18  C   UNL     1      67.922  85.345  72.007  1.00  0.00     0.050 A 
ATOM     19  C   UNL     1      66.557  85.310  71.662  1.00  0.00     0.157 A 
BRANCH  17  20
ATOM     20  O   UNL     1      64.825  84.716  70.096  1.00  0.00    -0.493 OA
ATOM     21  C   UNL     1      64.147  83.469  70.327  1.00  0.00     0.278 C 
ENDBRANCH  17  20
BRANCH  19  22
ATOM     22  O   UNL     1      65.636  85.865  72.491  1.00  0.00    -0.504 OA
ATOM     23  H   UNL     1      65.442  86.759  72.200  1.00  0.00     0.293 HD
ENDBRANCH  19  22
ENDBRANCH  13  14
ENDBRANCH  11  13
ENDBRANCH   8   9
ENDBRANCH   1   8
TORSDOF 11
ENDMDL
MODEL 10
REMARK VINA RESULT:    -4.909     24.699     26.951
REMARK INTER + INTRA:          -8.533
REMARK INTER:                  -7.215
REMARK INTRA:                  -1.319
REMARK UNBOUND:                -0.612
REMARK SMILES CCCCCCCCC(=O)NCc1ccc(O)c(OC)c1
REMARK SMILES IDX 7 1 6 2 5 3 4 4 3 5 2 6 1 7 8 8 9 9 10 10 11 11 12 13 13 14
REMARK SMILES IDX 21 15 14 16 18 17 15 18 16 19 19 20 20 21 17 22
REMARK H PARENT 11 12 17 23
REMARK Flexibility Score: inf
ROOT
ATOM      1  C   UNL     1      76.757  88.291  68.529  1.00  0.00     0.010 C 
ENDROOT
BRANCH   1   2
ATOM      2  C   UNL     1      77.507  86.936  68.373  1.00  0.00     0.001 C 
BRANCH   2   3
ATOM      3  C   UNL     1      76.528  85.732  68.251  1.00  0.00     0.000 C 
BRANCH   3   4
ATOM      4  C   UNL     1      76.236  85.307  66.784  1.00  0.00    -0.000 C 
BRANCH   4   5
ATOM      5  C   UNL     1      77.227  84.227  66.264  1.00  0.00    -0.000 C 
BRANCH   5   6
ATOM      6  C   UNL     1      76.554  83.217  65.296  1.00  0.00    -0.003 C 
ATOM      7  C   UNL     1      75.013  83.221  65.401  1.00  0.00     0.004 C 
ENDBRANCH   5   6
ENDBRANCH   4   5
ENDBRANCH   3   4
ENDBRANCH   2   3
ENDBRANCH   1   2
BRANCH   1   8
ATOM      8  C   UNL     1      76.493  89.022  67.183  1.00  0.00     0.100 C 
BRANCH   8   9
ATOM      9  C   UNL     1      75.044  89.073  66.871  1.00  0.00     0.220 C 
ATOM     10  O   UNL     1      74.692  89.499  65.746  1.00  0.00    -0.275 OA
ATOM     11  N   UNL     1      74.123  88.637  67.781  1.00  0.00    -0.352 N 
ATOM     12  H   UNL     1      74.508  88.397  68.683  1.00  0.00     0.163 HD
BRANCH  11  13
ATOM     13  C   UNL     1      72.718  88.504  67.548  1.00  0.00     0.151 C 
BRANCH  13  14
ATOM     14  C   UNL     1      72.147  87.219  68.034  1.00  0.00    -0.025 A 
ATOM     15  C   UNL     1      70.988  87.215  68.845  1.00  0.00     0.056 A 
ATOM     16  C   UNL     1      72.750  85.984  67.700  1.00  0.00     0.009 A 
ATOM     17  C   UNL     1      70.424  86.001  69.299  1.00  0.00     0.160 A 
ATOM     18  C   UNL     1      72.194  84.773  68.148  1.00  0.00     0.050 A 
ATOM     19  C   UNL     1      71.038  84.776  68.952  1.00  0.00     0.157 A 
BRANCH  17  20
ATOM     20  O   UNL     1      69.324  86.002  70.120  1.00  0.00    -0.493 OA
ATOM     21  C   UNL     1      68.077  86.202  69.433  1.00  0.00     0.278 C 
ENDBRANCH  17  20
BRANCH  19  22
ATOM     22  O   UNL     1      70.525  83.603  69.402  1.00  0.00    -0.504 OA
ATOM     23  H   UNL     1      70.017  83.186  68.702  1.00  0.00     0.293 HD
ENDBRANCH  19  22
ENDBRANCH  13  14
ENDBRANCH  11  13
ENDBRANCH   8   9
ENDBRANCH   1   8
TORSDOF 11
ENDMDL
