MODEL 1
REMARK VINA RESULT:    -5.612      0.000      0.000
REMARK INTER + INTRA:         -10.012
REMARK INTER:                  -8.729
REMARK INTRA:                  -1.283
REMARK UNBOUND:                -1.283
REMARK SMILES CCCCC/C=C/C(=O)CCc1ccc(O)c(OC)c1
REMARK SMILES IDX 6 1 7 2 8 3 9 4 10 5 11 6 12 7 17 8 20 9 15 10 14 11 13 12
REMARK SMILES IDX 18 13 19 14 16 15 5 17 4 18 3 19 2 20 1 21
REMARK H PARENT 16 16
REMARK Flexibility Score: inf
ROOT
ATOM      1  C   UNL     1      94.127  94.103  77.440  1.00  0.00    -0.023 C 
ATOM      2  C   UNL     1      93.738  93.600  78.618  1.00  0.00     0.043 C 
ENDROOT
BRANCH   2   3
ATOM      3  C   UNL     1      94.738  92.971  79.523  1.00  0.00     0.155 C 
ATOM      4  O   UNL     1      94.411  92.431  80.577  1.00  0.00    -0.295 OA
BRANCH   3   5
ATOM      5  C   UNL     1      96.191  93.076  79.102  1.00  0.00     0.085 C 
BRANCH   5   6
ATOM      6  C   UNL     1      96.994  93.929  80.085  1.00  0.00     0.044 C 
BRANCH   6   7
ATOM      7  C   UNL     1      97.192  95.348  79.606  1.00  0.00    -0.044 A 
ATOM      8  C   UNL     1      97.231  97.704  80.059  1.00  0.00     0.160 A 
ATOM      9  C   UNL     1      97.048  96.394  80.502  1.00  0.00     0.054 A 
ATOM     10  C   UNL     1      97.556  97.951  78.726  1.00  0.00     0.157 A 
ATOM     11  C   UNL     1      97.698  96.886  77.834  1.00  0.00     0.050 A 
ATOM     12  C   UNL     1      97.514  95.576  78.278  1.00  0.00     0.008 A 
BRANCH   8  13
ATOM     13  O   UNL     1      97.090  98.735  80.939  1.00  0.00    -0.493 OA
ATOM     14  C   UNL     1      96.617  98.412  82.245  1.00  0.00     0.278 C 
ENDBRANCH   8  13
BRANCH  10  15
ATOM     15  O   UNL     1      97.738  99.225  78.281  1.00  0.00    -0.504 OA
ATOM     16  H   UNL     1      97.007  99.446  77.679  1.00  0.00     0.293 HD
ENDBRANCH  10  15
ENDBRANCH   6   7
ENDBRANCH   5   6
ENDBRANCH   3   5
ENDBRANCH   2   3
BRANCH   1  17
ATOM     17  C   UNL     1      93.181  94.752  76.472  1.00  0.00     0.027 C 
BRANCH  17  18
ATOM     18  C   UNL     1      91.950  95.362  77.152  1.00  0.00     0.004 C 
BRANCH  18  19
ATOM     19  C   UNL     1      90.628  94.726  76.711  1.00  0.00     0.000 C 
BRANCH  19  20
ATOM     20  C   UNL     1      90.390  93.395  77.426  1.00  0.00    -0.003 C 
ATOM     21  C   UNL     1      90.568  92.217  76.482  1.00  0.00     0.004 C 
ENDBRANCH  19  20
ENDBRANCH  18  19
ENDBRANCH  17  18
ENDBRANCH   1  17
TORSDOF 10
ENDMDL
MODEL 2
REMARK VINA RESULT:    -5.494      1.921      2.442
REMARK INTER + INTRA:          -9.829
REMARK INTER:                  -8.847
REMARK INTRA:                  -0.982
REMARK UNBOUND:                -1.283
REMARK SMILES CCCCC/C=C/C(=O)CCc1ccc(O)c(OC)c1
REMARK SMILES IDX 6 1 7 2 8 3 9 4 10 5 11 6 12 7 17 8 20 9 15 10 14 11 13 12
REMARK SMILES IDX 18 13 19 14 16 15 5 17 4 18 3 19 2 20 1 21
REMARK H PARENT 16 16
REMARK Flexibility Score: inf
ROOT
ATOM      1  C   UNL     1      93.561  95.017  78.048  1.00  0.00    -0.023 C 
ATOM      2  C   UNL     1      93.809  93.710  78.199  1.00  0.00     0.043 C 
ENDROOT
BRANCH   2   3
ATOM      3  C   UNL     1      94.701  93.246  79.296  1.00  0.00     0.155 C 
ATOM      4  O   UNL     1      94.271  92.614  80.258  1.00  0.00    -0.295 OA
BRANCH   3   5
ATOM      5  C   UNL     1      96.162  93.639  79.191  1.00  0.00     0.085 C 
BRANCH   5   6
ATOM      6  C   UNL     1      96.846  93.604  80.559  1.00  0.00     0.044 C 
BRANCH   6   7
ATOM      7  C   UNL     1      96.976  94.972  81.185  1.00  0.00    -0.044 A 
ATOM      8  C   UNL     1      98.268  96.573  82.420  1.00  0.00     0.160 A 
ATOM      9  C   UNL     1      98.148  95.309  81.843  1.00  0.00     0.054 A 
ATOM     10  C   UNL     1      97.215  97.483  82.333  1.00  0.00     0.157 A 
ATOM     11  C   UNL     1      96.040  97.129  81.668  1.00  0.00     0.050 A 
ATOM     12  C   UNL     1      95.921  95.865  81.090  1.00  0.00     0.008 A 
BRANCH   8  13
ATOM     13  O   UNL     1      99.419  96.907  83.068  1.00  0.00    -0.493 OA
ATOM     14  C   UNL     1     100.633  96.804  82.326  1.00  0.00     0.278 C 
ENDBRANCH   8  13
BRANCH  10  15
ATOM     15  O   UNL     1      97.320  98.721  82.893  1.00  0.00    -0.504 OA
ATOM     16  H   UNL     1      97.657  99.334  82.217  1.00  0.00     0.293 HD
ENDBRANCH  10  15
ENDBRANCH   6   7
ENDBRANCH   5   6
ENDBRANCH   3   5
ENDBRANCH   2   3
BRANCH   1  17
ATOM     17  C   UNL     1      92.674  95.565  76.968  1.00  0.00     0.027 C 
BRANCH  17  18
ATOM     18  C   UNL     1      91.239  95.033  77.041  1.00  0.00     0.004 C 
BRANCH  18  19
ATOM     19  C   UNL     1      90.869  94.102  75.882  1.00  0.00     0.000 C 
BRANCH  19  20
ATOM     20  C   UNL     1      90.661  92.668  76.371  1.00  0.00    -0.003 C 
ATOM     21  C   UNL     1      90.197  92.635  77.818  1.00  0.00     0.004 C 
ENDBRANCH  19  20
ENDBRANCH  18  19
ENDBRANCH  17  18
ENDBRANCH   1  17
TORSDOF 10
ENDMDL
MODEL 3
REMARK VINA RESULT:    -5.435     12.920     14.744
REMARK INTER + INTRA:          -9.736
REMARK INTER:                  -8.847
REMARK INTRA:                  -0.889
REMARK UNBOUND:                -1.283
REMARK SMILES CCCCC/C=C/C(=O)CCc1ccc(O)c(OC)c1
REMARK SMILES IDX 6 1 7 2 8 3 9 4 10 5 11 6 12 7 17 8 20 9 15 10 14 11 13 12
REMARK SMILES IDX 18 13 19 14 16 15 5 17 4 18 3 19 2 20 1 21
REMARK H PARENT 16 16
REMARK Flexibility Score: inf
ROOT
ATOM      1  C   UNL     1      96.503  81.984  77.267  1.00  0.00    -0.023 C 
ATOM      2  C   UNL     1      97.498  82.093  78.156  1.00  0.00     0.043 C 
ENDROOT
BRANCH   2   3
ATOM      3  C   UNL     1      98.211  80.874  78.625  1.00  0.00     0.155 C 
ATOM      4  O   UNL     1      99.256  80.492  78.102  1.00  0.00    -0.295 OA
BRANCH   3   5
ATOM      5  C   UNL     1      97.554  80.096  79.748  1.00  0.00     0.085 C 
BRANCH   5   6
ATOM      6  C   UNL     1      98.114  80.507  81.110  1.00  0.00     0.044 C 
BRANCH   6   7
ATOM      7  C   UNL     1      97.067  81.105  82.020  1.00  0.00    -0.044 A 
ATOM      8  C   UNL     1      95.400  80.832  83.724  1.00  0.00     0.160 A 
ATOM      9  C   UNL     1      96.366  80.279  82.884  1.00  0.00     0.054 A 
ATOM     10  C   UNL     1      95.146  82.202  83.689  1.00  0.00     0.157 A 
ATOM     11  C   UNL     1      95.859  83.021  82.812  1.00  0.00     0.050 A 
ATOM     12  C   UNL     1      96.826  82.468  81.972  1.00  0.00     0.008 A 
BRANCH   8  13
ATOM     13  O   UNL     1      94.710  80.022  84.575  1.00  0.00    -0.493 OA
ATOM     14  C   UNL     1      95.375  79.622  85.772  1.00  0.00     0.278 C 
ENDBRANCH   8  13
BRANCH  10  15
ATOM     15  O   UNL     1      94.205  82.754  84.505  1.00  0.00    -0.504 OA
ATOM     16  H   UNL     1      93.888  83.577  84.093  1.00  0.00     0.293 HD
ENDBRANCH  10  15
ENDBRANCH   6   7
ENDBRANCH   5   6
ENDBRANCH   3   5
ENDBRANCH   2   3
BRANCH   1  17
ATOM     17  C   UNL     1      95.735  83.164  76.746  1.00  0.00     0.027 C 
BRANCH  17  18
ATOM     18  C   UNL     1      96.151  83.574  75.329  1.00  0.00     0.004 C 
BRANCH  18  19
ATOM     19  C   UNL     1      96.921  82.485  74.576  1.00  0.00     0.000 C 
BRANCH  19  20
ATOM     20  C   UNL     1      97.998  83.092  73.676  1.00  0.00    -0.003 C 
ATOM     21  C   UNL     1      99.393  82.819  74.213  1.00  0.00     0.004 C 
ENDBRANCH  19  20
ENDBRANCH  18  19
ENDBRANCH  17  18
ENDBRANCH   1  17
TORSDOF 10
ENDMDL
MODEL 4
REMARK VINA RESULT:    -5.397      2.406      3.180
REMARK INTER + INTRA:          -9.678
REMARK INTER:                  -9.020
REMARK INTRA:                  -0.658
REMARK UNBOUND:                -1.283
REMARK SMILES CCCCC/C=C/C(=O)CCc1ccc(O)c(OC)c1
REMARK SMILES IDX 6 1 7 2 8 3 9 4 10 5 11 6 12 7 17 8 20 9 15 10 14 11 13 12
REMARK SMILES IDX 18 13 19 14 16 15 5 17 4 18 3 19 2 20 1 21
REMARK H PARENT 16 16
REMARK Flexibility Score: inf
ROOT
ATOM      1  C   UNL     1      93.781  94.739  78.310  1.00  0.00    -0.023 C 
ATOM      2  C   UNL     1      94.132  93.471  78.558  1.00  0.00     0.043 C 
ENDROOT
BRANCH   2   3
ATOM      3  C   UNL     1      95.093  93.168  79.653  1.00  0.00     0.155 C 
ATOM      4  O   UNL     1      94.750  92.570  80.671  1.00  0.00    -0.295 OA
BRANCH   3   5
ATOM      5  C   UNL     1      96.508  93.681  79.472  1.00  0.00     0.085 C 
BRANCH   5   6
ATOM      6  C   UNL     1      96.685  95.060  80.110  1.00  0.00     0.044 C 
BRANCH   6   7
ATOM      7  C   UNL     1      97.609  95.041  81.304  1.00  0.00    -0.044 A 
ATOM      8  C   UNL     1      98.486  96.109  83.266  1.00  0.00     0.160 A 
ATOM      9  C   UNL     1      97.632  96.128  82.163  1.00  0.00     0.054 A 
ATOM     10  C   UNL     1      99.305  95.004  83.496  1.00  0.00     0.157 A 
ATOM     11  C   UNL     1      99.271  93.917  82.622  1.00  0.00     0.050 A 
ATOM     12  C   UNL     1      98.417  93.936  81.519  1.00  0.00     0.008 A 
BRANCH   8  13
ATOM     13  O   UNL     1      98.510  97.177  84.112  1.00  0.00    -0.493 OA
ATOM     14  C   UNL     1      97.269  97.574  84.691  1.00  0.00     0.278 C 
ENDBRANCH   8  13
BRANCH  10  15
ATOM     15  O   UNL     1     100.142  94.974  84.570  1.00  0.00    -0.504 OA
ATOM     16  H   UNL     1      99.677  94.546  85.308  1.00  0.00     0.293 HD
ENDBRANCH  10  15
ENDBRANCH   6   7
ENDBRANCH   5   6
ENDBRANCH   3   5
ENDBRANCH   2   3
BRANCH   1  17
ATOM     17  C   UNL     1      92.819  95.127  77.225  1.00  0.00     0.027 C 
BRANCH  17  18
ATOM     18  C   UNL     1      91.480  94.387  77.315  1.00  0.00     0.004 C 
BRANCH  18  19
ATOM     19  C   UNL     1      91.140  93.580  76.058  1.00  0.00     0.000 C 
BRANCH  19  20
ATOM     20  C   UNL     1      90.983  92.094  76.383  1.00  0.00    -0.003 C 
ATOM     21  C   UNL     1      90.869  91.256  75.120  1.00  0.00     0.004 C 
ENDBRANCH  19  20
ENDBRANCH  18  19
ENDBRANCH  17  18
ENDBRANCH   1  17
TORSDOF 10
ENDMDL
MODEL 5
REMARK VINA RESULT:    -5.396     23.076     25.154
REMARK INTER + INTRA:          -9.676
REMARK INTER:                  -8.278
REMARK INTRA:                  -1.398
REMARK UNBOUND:                -1.283
REMARK SMILES CCCCC/C=C/C(=O)CCc1ccc(O)c(OC)c1
REMARK SMILES IDX 6 1 7 2 8 3 9 4 10 5 11 6 12 7 17 8 20 9 15 10 14 11 13 12
REMARK SMILES IDX 18 13 19 14 16 15 5 17 4 18 3 19 2 20 1 21
REMARK H PARENT 16 16
REMARK Flexibility Score: inf
ROOT
ATOM      1  C   UNL     1      73.317  89.302  69.544  1.00  0.00    -0.023 C 
ATOM      2  C   UNL     1      73.235  88.392  68.566  1.00  0.00     0.043 C 
ENDROOT
BRANCH   2   3
ATOM      3  C   UNL     1      72.144  87.379  68.585  1.00  0.00     0.155 C 
ATOM      4  O   UNL     1      70.960  87.702  68.649  1.00  0.00    -0.295 OA
BRANCH   3   5
ATOM      5  C   UNL     1      72.572  85.924  68.575  1.00  0.00     0.085 C 
BRANCH   5   6
ATOM      6  C   UNL     1      73.842  85.713  69.400  1.00  0.00     0.044 C 
BRANCH   6   7
ATOM      7  C   UNL     1      74.995  85.184  68.580  1.00  0.00    -0.044 A 
ATOM      8  C   UNL     1      75.815  84.183  66.559  1.00  0.00     0.160 A 
ATOM      9  C   UNL     1      74.750  84.672  67.316  1.00  0.00     0.054 A 
ATOM     10  C   UNL     1      77.110  84.213  67.075  1.00  0.00     0.157 A 
ATOM     11  C   UNL     1      77.340  84.731  68.350  1.00  0.00     0.050 A 
ATOM     12  C   UNL     1      76.275  85.219  69.107  1.00  0.00     0.008 A 
BRANCH   8  13
ATOM     13  O   UNL     1      75.576  83.680  65.315  1.00  0.00    -0.493 OA
ATOM     14  C   UNL     1      75.586  84.604  64.228  1.00  0.00     0.278 C 
ENDBRANCH   8  13
BRANCH  10  15
ATOM     15  O   UNL     1      78.158  83.739  66.345  1.00  0.00    -0.504 OA
ATOM     16  H   UNL     1      77.919  82.860  66.003  1.00  0.00     0.293 HD
ENDBRANCH  10  15
ENDBRANCH   6   7
ENDBRANCH   5   6
ENDBRANCH   3   5
ENDBRANCH   2   3
BRANCH   1  17
ATOM     17  C   UNL     1      74.386  90.354  69.598  1.00  0.00     0.027 C 
BRANCH  17  18
ATOM     18  C   UNL     1      75.683  89.931  68.901  1.00  0.00     0.004 C 
BRANCH  18  19
ATOM     19  C   UNL     1      75.792  90.423  67.454  1.00  0.00     0.000 C 
BRANCH  19  20
ATOM     20  C   UNL     1      76.804  89.593  66.663  1.00  0.00    -0.003 C 
ATOM     21  C   UNL     1      76.513  88.105  66.775  1.00  0.00     0.004 C 
ENDBRANCH  19  20
ENDBRANCH  18  19
ENDBRANCH  17  18
ENDBRANCH   1  17
TORSDOF 10
ENDMDL
MODEL 6
REMARK VINA RESULT:    -5.363     11.363     14.137
REMARK INTER + INTRA:          -9.625
REMARK INTER:                  -8.466
REMARK INTRA:                  -1.159
REMARK UNBOUND:                -1.283
REMARK SMILES CCCCC/C=C/C(=O)CCc1ccc(O)c(OC)c1
REMARK SMILES IDX 6 1 7 2 8 3 9 4 10 5 11 6 12 7 17 8 20 9 15 10 14 11 13 12
REMARK SMILES IDX 18 13 19 14 16 15 5 17 4 18 3 19 2 20 1 21
REMARK H PARENT 16 16
REMARK Flexibility Score: inf
ROOT
ATOM      1  C   UNL     1      89.542  99.614  69.927  1.00  0.00    -0.023 C 
ATOM      2  C   UNL     1      89.899  98.325  69.858  1.00  0.00     0.043 C 
ENDROOT
BRANCH   2   3
ATOM      3  C   UNL     1      89.792  97.594  68.567  1.00  0.00     0.155 C 
ATOM      4  O   UNL     1      90.499  96.621  68.311  1.00  0.00    -0.295 OA
BRANCH   3   5
ATOM      5  C   UNL     1      88.801  98.143  67.559  1.00  0.00     0.085 C 
BRANCH   5   6
ATOM      6  C   UNL     1      89.490  99.060  66.546  1.00  0.00     0.044 C 
BRANCH   6   7
ATOM      7  C   UNL     1      88.847 100.423  66.456  1.00  0.00    -0.044 A 
ATOM      8  C   UNL     1      89.054 102.812  66.365  1.00  0.00     0.160 A 
ATOM      9  C   UNL     1      89.649 101.553  66.449  1.00  0.00     0.054 A 
ATOM     10  C   UNL     1      87.666 102.925  66.290  1.00  0.00     0.157 A 
ATOM     11  C   UNL     1      86.872 101.778  66.299  1.00  0.00     0.050 A 
ATOM     12  C   UNL     1      87.467 100.519  66.383  1.00  0.00     0.008 A 
BRANCH   8  13
ATOM     13  O   UNL     1      89.841 103.925  66.358  1.00  0.00    -0.493 OA
ATOM     14  C   UNL     1      90.971 103.915  65.488  1.00  0.00     0.278 C 
ENDBRANCH   8  13
BRANCH  10  15
ATOM     15  O   UNL     1      87.074 104.149  66.208  1.00  0.00    -0.504 OA
ATOM     16  H   UNL     1      86.442 104.133  65.469  1.00  0.00     0.293 HD
ENDBRANCH  10  15
ENDBRANCH   6   7
ENDBRANCH   5   6
ENDBRANCH   3   5
ENDBRANCH   2   3
BRANCH   1  17
ATOM     17  C   UNL     1      89.620 100.420  71.191  1.00  0.00     0.027 C 
BRANCH  17  18
ATOM     18  C   UNL     1      90.593 101.600  71.092  1.00  0.00     0.004 C 
BRANCH  18  19
ATOM     19  C   UNL     1      91.818 101.464  72.001  1.00  0.00     0.000 C 
BRANCH  19  20
ATOM     20  C   UNL     1      92.792 100.416  71.461  1.00  0.00    -0.003 C 
ATOM     21  C   UNL     1      93.032  99.305  72.471  1.00  0.00     0.004 C 
ENDBRANCH  19  20
ENDBRANCH  18  19
ENDBRANCH  17  18
ENDBRANCH   1  17
TORSDOF 10
ENDMDL
MODEL 7
REMARK VINA RESULT:    -5.333      1.763      3.101
REMARK INTER + INTRA:          -9.578
REMARK INTER:                  -8.362
REMARK INTRA:                  -1.216
REMARK UNBOUND:                -1.283
REMARK SMILES CCCCC/C=C/C(=O)CCc1ccc(O)c(OC)c1
REMARK SMILES IDX 6 1 7 2 8 3 9 4 10 5 11 6 12 7 17 8 20 9 15 10 14 11 13 12
REMARK SMILES IDX 18 13 19 14 16 15 5 17 4 18 3 19 2 20 1 21
REMARK H PARENT 16 16
REMARK Flexibility Score: inf
ROOT
ATOM      1  C   UNL     1      94.061  94.811  77.853  1.00  0.00    -0.023 C 
ATOM      2  C   UNL     1      93.975  93.570  78.347  1.00  0.00     0.043 C 
ENDROOT
BRANCH   2   3
ATOM      3  C   UNL     1      95.180  92.918  78.930  1.00  0.00     0.155 C 
ATOM      4  O   UNL     1      96.080  92.469  78.224  1.00  0.00    -0.295 OA
BRANCH   3   5
ATOM      5  C   UNL     1      95.215  92.791  80.440  1.00  0.00     0.085 C 
BRANCH   5   6
ATOM      6  C   UNL     1      96.540  93.301  81.010  1.00  0.00     0.044 C 
BRANCH   6   7
ATOM      7  C   UNL     1      96.724  94.789  80.825  1.00  0.00    -0.044 A 
ATOM      8  C   UNL     1      97.888  96.623  79.805  1.00  0.00     0.160 A 
ATOM      9  C   UNL     1      97.718  95.249  79.976  1.00  0.00     0.054 A 
ATOM     10  C   UNL     1      97.062  97.518  80.484  1.00  0.00     0.157 A 
ATOM     11  C   UNL     1      96.066  97.039  81.336  1.00  0.00     0.050 A 
ATOM     12  C   UNL     1      95.896  95.665  81.507  1.00  0.00     0.008 A 
BRANCH   8  13
ATOM     13  O   UNL     1      98.864  97.078  78.971  1.00  0.00    -0.493 OA
ATOM     14  C   UNL     1      98.841  96.605  77.626  1.00  0.00     0.278 C 
ENDBRANCH   8  13
BRANCH  10  15
ATOM     15  O   UNL     1      97.218  98.862  80.325  1.00  0.00    -0.504 OA
ATOM     16  H   UNL     1      96.338  99.276  80.350  1.00  0.00     0.293 HD
ENDBRANCH  10  15
ENDBRANCH   6   7
ENDBRANCH   5   6
ENDBRANCH   3   5
ENDBRANCH   2   3
BRANCH   1  17
ATOM     17  C   UNL     1      92.894  95.536  77.249  1.00  0.00     0.027 C 
BRANCH  17  18
ATOM     18  C   UNL     1      92.712  95.244  75.755  1.00  0.00     0.004 C 
BRANCH  18  19
ATOM     19  C   UNL     1      94.030  95.177  74.978  1.00  0.00     0.000 C 
BRANCH  19  20
ATOM     20  C   UNL     1      94.659  96.564  74.837  1.00  0.00    -0.003 C 
ATOM     21  C   UNL     1      93.718  97.533  74.139  1.00  0.00     0.004 C 
ENDBRANCH  19  20
ENDBRANCH  18  19
ENDBRANCH  17  18
ENDBRANCH   1  17
TORSDOF 10
ENDMDL
MODEL 8
REMARK VINA RESULT:    -5.304     22.743     24.438
REMARK INTER + INTRA:          -9.533
REMARK INTER:                  -7.916
REMARK INTRA:                  -1.617
REMARK UNBOUND:                -1.283
REMARK SMILES CCCCC/C=C/C(=O)CCc1ccc(O)c(OC)c1
REMARK SMILES IDX 6 1 7 2 8 3 9 4 10 5 11 6 12 7 17 8 20 9 15 10 14 11 13 12
REMARK SMILES IDX 18 13 19 14 16 15 5 17 4 18 3 19 2 20 1 21
REMARK H PARENT 16 16
REMARK Flexibility Score: inf
ROOT
ATOM      1  C   UNL     1      73.753  86.685  68.449  1.00  0.00    -0.023 C 
ATOM      2  C   UNL     1      74.708  86.175  69.236  1.00  0.00     0.043 C 
ENDROOT
BRANCH   2   3
ATOM      3  C   UNL     1      75.601  85.102  68.720  1.00  0.00     0.155 C 
ATOM      4  O   UNL     1      75.169  83.998  68.396  1.00  0.00    -0.295 OA
BRANCH   3   5
ATOM      5  C   UNL     1      77.082  85.424  68.665  1.00  0.00     0.085 C 
BRANCH   5   6
ATOM      6  C   UNL     1      77.530  85.731  67.235  1.00  0.00     0.044 C 
BRANCH   6   7
ATOM      7  C   UNL     1      76.976  87.036  66.714  1.00  0.00    -0.044 A 
ATOM      8  C   UNL     1      75.612  88.229  65.141  1.00  0.00     0.160 A 
ATOM      9  C   UNL     1      76.124  87.024  65.622  1.00  0.00     0.054 A 
ATOM     10  C   UNL     1      75.959  89.431  65.758  1.00  0.00     0.157 A 
ATOM     11  C   UNL     1      76.820  89.427  66.857  1.00  0.00     0.050 A 
ATOM     12  C   UNL     1      77.331  88.221  67.337  1.00  0.00     0.008 A 
BRANCH   8  13
ATOM     13  O   UNL     1      74.773  88.220  64.067  1.00  0.00    -0.493 OA
ATOM     14  C   UNL     1      73.741  87.236  64.059  1.00  0.00     0.278 C 
ENDBRANCH   8  13
BRANCH  10  15
ATOM     15  O   UNL     1      75.466  90.614  65.298  1.00  0.00    -0.504 OA
ATOM     16  H   UNL     1      74.506  90.518  65.177  1.00  0.00     0.293 HD
ENDBRANCH  10  15
ENDBRANCH   6   7
ENDBRANCH   5   6
ENDBRANCH   3   5
ENDBRANCH   2   3
BRANCH   1  17
ATOM     17  C   UNL     1      72.813  87.767  68.894  1.00  0.00     0.027 C 
BRANCH  17  18
ATOM     18  C   UNL     1      73.288  89.172  68.512  1.00  0.00     0.004 C 
BRANCH  18  19
ATOM     19  C   UNL     1      73.615  90.059  69.717  1.00  0.00     0.000 C 
BRANCH  19  20
ATOM     20  C   UNL     1      75.011  90.672  69.589  1.00  0.00    -0.003 C 
ATOM     21  C   UNL     1      75.071  92.055  70.218  1.00  0.00     0.004 C 
ENDBRANCH  19  20
ENDBRANCH  18  19
ENDBRANCH  17  18
ENDBRANCH   1  17
TORSDOF 10
ENDMDL
MODEL 9
REMARK VINA RESULT:    -5.027      9.208     11.130
REMARK INTER + INTRA:          -9.103
REMARK INTER:                  -8.389
REMARK INTRA:                  -0.714
REMARK UNBOUND:                -1.283
REMARK SMILES CCCCC/C=C/C(=O)CCc1ccc(O)c(OC)c1
REMARK SMILES IDX 6 1 7 2 8 3 9 4 10 5 11 6 12 7 17 8 20 9 15 10 14 11 13 12
REMARK SMILES IDX 18 13 19 14 16 15 5 17 4 18 3 19 2 20 1 21
REMARK H PARENT 16 16
REMARK Flexibility Score: inf
ROOT
ATOM      1  C   UNL     1      89.320  99.671  67.554  1.00  0.00    -0.023 C 
ATOM      2  C   UNL     1      89.025  98.951  68.643  1.00  0.00     0.043 C 
ENDROOT
BRANCH   2   3
ATOM      3  C   UNL     1      89.963  98.935  69.798  1.00  0.00     0.155 C 
ATOM      4  O   UNL     1      89.882  98.090  70.688  1.00  0.00    -0.295 OA
BRANCH   3   5
ATOM      5  C   UNL     1      90.992 100.047  69.849  1.00  0.00     0.085 C 
BRANCH   5   6
ATOM      6  C   UNL     1      91.552 100.222  71.262  1.00  0.00     0.044 C 
BRANCH   6   7
ATOM      7  C   UNL     1      92.886  99.540  71.454  1.00  0.00    -0.044 A 
ATOM      8  C   UNL     1      94.456  98.422  72.883  1.00  0.00     0.160 A 
ATOM      9  C   UNL     1      93.224  99.052  72.706  1.00  0.00     0.054 A 
ATOM     10  C   UNL     1      95.333  98.289  71.807  1.00  0.00     0.157 A 
ATOM     11  C   UNL     1      94.978  98.787  70.552  1.00  0.00     0.050 A 
ATOM     12  C   UNL     1      93.746  99.417  70.375  1.00  0.00     0.008 A 
BRANCH   8  13
ATOM     13  O   UNL     1      94.791  97.940  74.112  1.00  0.00    -0.493 OA
ATOM     14  C   UNL     1      93.947  96.933  74.667  1.00  0.00     0.278 C 
ENDBRANCH   8  13
BRANCH  10  15
ATOM     15  O   UNL     1      96.539  97.676  71.967  1.00  0.00    -0.504 OA
ATOM     16  H   UNL     1      96.403  96.868  72.491  1.00  0.00     0.293 HD
ENDBRANCH  10  15
ENDBRANCH   6   7
ENDBRANCH   5   6
ENDBRANCH   3   5
ENDBRANCH   2   3
BRANCH   1  17
ATOM     17  C   UNL     1      88.427  99.740  66.349  1.00  0.00     0.027 C 
BRANCH  17  18
ATOM     18  C   UNL     1      86.964 100.028  66.700  1.00  0.00     0.004 C 
BRANCH  18  19
ATOM     19  C   UNL     1      86.442 101.347  66.120  1.00  0.00     0.000 C 
BRANCH  19  20
ATOM     20  C   UNL     1      87.296 102.529  66.582  1.00  0.00    -0.003 C 
ATOM     21  C   UNL     1      86.709 103.854  66.122  1.00  0.00     0.004 C 
ENDBRANCH  19  20
ENDBRANCH  18  19
ENDBRANCH  17  18
ENDBRANCH   1  17
TORSDOF 10
ENDMDL
MODEL 10
REMARK VINA RESULT:    -4.921     27.382     31.232
REMARK INTER + INTRA:          -8.937
REMARK INTER:                  -7.513
REMARK INTRA:                  -1.424
REMARK UNBOUND:                -1.283
REMARK SMILES CCCCC/C=C/C(=O)CCc1ccc(O)c(OC)c1
REMARK SMILES IDX 6 1 7 2 8 3 9 4 10 5 11 6 12 7 17 8 20 9 15 10 14 11 13 12
REMARK SMILES IDX 18 13 19 14 16 15 5 17 4 18 3 19 2 20 1 21
REMARK H PARENT 16 16
REMARK Flexibility Score: inf
ROOT
ATOM      1  C   UNL     1      81.352  63.612  76.572  1.00  0.00    -0.023 C 
ATOM      2  C   UNL     1      82.617  63.533  76.143  1.00  0.00     0.043 C 
ENDROOT
BRANCH   2   3
ATOM      3  C   UNL     1      83.738  63.765  77.093  1.00  0.00     0.155 C 
ATOM      4  O   UNL     1      83.981  62.986  78.013  1.00  0.00    -0.295 OA
BRANCH   3   5
ATOM      5  C   UNL     1      84.534  65.042  76.902  1.00  0.00     0.085 C 
BRANCH   5   6
ATOM      6  C   UNL     1      83.662  66.278  77.124  1.00  0.00     0.044 C 
BRANCH   6   7
ATOM      7  C   UNL     1      84.335  67.558  76.687  1.00  0.00    -0.044 A 
ATOM      8  C   UNL     1      85.203  68.952  74.936  1.00  0.00     0.160 A 
ATOM      9  C   UNL     1      84.581  67.770  75.340  1.00  0.00     0.054 A 
ATOM     10  C   UNL     1      85.570  69.906  75.885  1.00  0.00     0.157 A 
ATOM     11  C   UNL     1      85.316  69.678  77.238  1.00  0.00     0.050 A 
ATOM     12  C   UNL     1      84.695  68.496  77.641  1.00  0.00     0.008 A 
BRANCH   8  13
ATOM     13  O   UNL     1      85.445  69.163  73.612  1.00  0.00    -0.493 OA
ATOM     14  C   UNL     1      84.375  68.900  72.707  1.00  0.00     0.278 C 
ENDBRANCH   8  13
BRANCH  10  15
ATOM     15  O   UNL     1      86.177  71.064  75.503  1.00  0.00    -0.504 OA
ATOM     16  H   UNL     1      87.013  71.147  75.994  1.00  0.00     0.293 HD
ENDBRANCH  10  15
ENDBRANCH   6   7
ENDBRANCH   5   6
ENDBRANCH   3   5
ENDBRANCH   2   3
BRANCH   1  17
ATOM     17  C   UNL     1      80.167  63.392  75.676  1.00  0.00     0.027 C 
BRANCH  17  18
ATOM     18  C   UNL     1      79.807  64.625  74.841  1.00  0.00     0.004 C 
BRANCH  18  19
ATOM     19  C   UNL     1      79.931  65.944  75.609  1.00  0.00     0.000 C 
BRANCH  19  20
ATOM     20  C   UNL     1      80.794  66.949  74.845  1.00  0.00    -0.003 C 
ATOM     21  C   UNL     1      81.135  66.444  73.452  1.00  0.00     0.004 C 
ENDBRANCH  19  20
ENDBRANCH  18  19
ENDBRANCH  17  18
ENDBRANCH   1  17
TORSDOF 10
ENDMDL
