MODEL 1
REMARK VINA RESULT:    -6.325      0.000      0.000
REMARK INTER + INTRA:         -10.653
REMARK INTER:                  -9.838
REMARK INTRA:                  -0.814
REMARK UNBOUND:                -0.814
REMARK SMILES COc1cc(CNC(=O)CCCCCC(C)C)ccc1O
REMARK SMILES IDX 10 1 8 2 7 3 9 5 6 6 5 7 3 8 20 9 4 10 19 11 18 12 2 13 1 14
REMARK SMILES IDX 21 15 11 17 12 18 13 19 14 20 15 21 16 22 17 23
REMARK H PARENT 7 4 21 16
REMARK Flexibility Score: inf
ROOT
ATOM      1  C   UNL     1      92.957  94.224  75.640  1.00  0.00     0.100 C 
ENDROOT
BRANCH   1   2
ATOM      2  C   UNL     1      94.373  94.237  76.061  1.00  0.00     0.220 C 
ATOM      3  N   UNL     1      94.682  94.510  77.360  1.00  0.00    -0.352 N 
ATOM      4  H   UNL     1      93.906  94.820  77.926  1.00  0.00     0.163 HD
ATOM      5  O   UNL     1      95.261  93.953  75.220  1.00  0.00    -0.275 OA
BRANCH   3   6
ATOM      6  C   UNL     1      95.982  94.387  77.938  1.00  0.00     0.151 C 
BRANCH   6   7
ATOM      7  C   UNL     1      96.046  94.878  79.341  1.00  0.00    -0.025 A 
ATOM      8  C   UNL     1      96.605  96.644  80.958  1.00  0.00     0.160 A 
ATOM      9  C   UNL     1      96.107  95.841  82.005  1.00  0.00     0.157 A 
ATOM     10  C   UNL     1      96.589  96.151  79.636  1.00  0.00     0.056 A 
ATOM     11  C   UNL     1      95.589  94.562  81.727  1.00  0.00     0.050 A 
ATOM     12  C   UNL     1      95.554  94.087  80.405  1.00  0.00     0.009 A 
BRANCH   8  13
ATOM     13  O   UNL     1      97.132  97.884  81.211  1.00  0.00    -0.493 OA
ATOM     14  C   UNL     1      96.913  98.836  80.152  1.00  0.00     0.278 C 
ENDBRANCH   8  13
BRANCH   9  15
ATOM     15  O   UNL     1      96.120  96.305  83.280  1.00  0.00    -0.504 OA
ATOM     16  H   UNL     1      95.291  96.752  83.466  1.00  0.00     0.293 HD
ENDBRANCH   9  15
ENDBRANCH   6   7
ENDBRANCH   3   6
ENDBRANCH   1   2
BRANCH   1  17
ATOM     17  C   UNL     1      91.946  94.032  76.802  1.00  0.00     0.010 C 
BRANCH  17  18
ATOM     18  C   UNL     1      90.506  94.435  76.382  1.00  0.00     0.001 C 
BRANCH  18  19
ATOM     19  C   UNL     1      89.424  93.422  76.840  1.00  0.00     0.000 C 
BRANCH  19  20
ATOM     20  C   UNL     1      90.030  92.240  77.651  1.00  0.00     0.003 C 
BRANCH  20  21
ATOM     21  C   UNL     1      89.830  90.828  77.009  1.00  0.00    -0.017 C 
ATOM     22  C   UNL     1      89.854  89.715  78.098  1.00  0.00     0.007 C 
ATOM     23  C   UNL     1      90.876  90.514  75.901  1.00  0.00     0.007 C 
ENDBRANCH  20  21
ENDBRANCH  19  20
ENDBRANCH  18  19
ENDBRANCH  17  18
ENDBRANCH   1  17
TORSDOF 10
ENDMDL
MODEL 2
REMARK VINA RESULT:    -6.061      3.196      8.679
REMARK INTER + INTRA:         -10.242
REMARK INTER:                  -9.383
REMARK INTRA:                  -0.859
REMARK UNBOUND:                -0.814
REMARK SMILES COc1cc(CNC(=O)CCCCCC(C)C)ccc1O
REMARK SMILES IDX 10 1 8 2 7 3 9 5 6 6 5 7 3 8 20 9 4 10 19 11 18 12 2 13 1 14
REMARK SMILES IDX 21 15 11 17 12 18 13 19 14 20 15 21 16 22 17 23
REMARK H PARENT 7 4 21 16
REMARK Flexibility Score: inf
ROOT
ATOM      1  C   UNL     1      95.600  94.059  75.525  1.00  0.00     0.100 C 
ENDROOT
BRANCH   1   2
ATOM      2  C   UNL     1      94.128  94.131  75.415  1.00  0.00     0.220 C 
ATOM      3  N   UNL     1      93.375  93.065  75.807  1.00  0.00    -0.352 N 
ATOM      4  H   UNL     1      93.900  92.232  76.028  1.00  0.00     0.163 HD
ATOM      5  O   UNL     1      93.600  95.192  75.002  1.00  0.00    -0.275 OA
BRANCH   3   6
ATOM      6  C   UNL     1      91.951  93.062  75.918  1.00  0.00     0.151 C 
BRANCH   6   7
ATOM      7  C   UNL     1      91.275  92.456  74.740  1.00  0.00    -0.025 A 
ATOM      8  C   UNL     1      90.490  90.471  73.519  1.00  0.00     0.160 A 
ATOM      9  C   UNL     1      89.928  91.305  72.529  1.00  0.00     0.157 A 
ATOM     10  C   UNL     1      91.176  91.051  74.607  1.00  0.00     0.056 A 
ATOM     11  C   UNL     1      90.043  92.703  72.637  1.00  0.00     0.050 A 
ATOM     12  C   UNL     1      90.706  93.275  73.736  1.00  0.00     0.009 A 
BRANCH   8  13
ATOM     13  O   UNL     1      90.406  89.107  73.422  1.00  0.00    -0.493 OA
ATOM     14  C   UNL     1      91.086  88.406  74.481  1.00  0.00     0.278 C 
ENDBRANCH   8  13
BRANCH   9  15
ATOM     15  O   UNL     1      89.268  90.758  71.477  1.00  0.00    -0.504 OA
ATOM     16  H   UNL     1      88.600  91.372  71.164  1.00  0.00     0.293 HD
ENDBRANCH   9  15
ENDBRANCH   6   7
ENDBRANCH   3   6
ENDBRANCH   1   2
BRANCH   1  17
ATOM     17  C   UNL     1      96.302  95.441  75.616  1.00  0.00     0.010 C 
BRANCH  17  18
ATOM     18  C   UNL     1      97.333  95.483  76.778  1.00  0.00     0.001 C 
BRANCH  18  19
ATOM     19  C   UNL     1      96.943  96.467  77.912  1.00  0.00     0.000 C 
BRANCH  19  20
ATOM     20  C   UNL     1      96.883  95.768  79.302  1.00  0.00     0.003 C 
BRANCH  20  21
ATOM     21  C   UNL     1      95.443  95.420  79.804  1.00  0.00    -0.017 C 
ATOM     22  C   UNL     1      95.419  95.260  81.352  1.00  0.00     0.007 C 
ATOM     23  C   UNL     1      94.859  94.146  79.126  1.00  0.00     0.007 C 
ENDBRANCH  20  21
ENDBRANCH  19  20
ENDBRANCH  18  19
ENDBRANCH  17  18
ENDBRANCH   1  17
TORSDOF 10
ENDMDL
MODEL 3
REMARK VINA RESULT:    -5.903     28.522     30.974
REMARK INTER + INTRA:          -9.995
REMARK INTER:                  -9.031
REMARK INTRA:                  -0.964
REMARK UNBOUND:                -0.814
REMARK SMILES COc1cc(CNC(=O)CCCCCC(C)C)ccc1O
REMARK SMILES IDX 10 1 8 2 7 3 9 5 6 6 5 7 3 8 20 9 4 10 19 11 18 12 2 13 1 14
REMARK SMILES IDX 21 15 11 17 12 18 13 19 14 20 15 21 16 22 17 23
REMARK H PARENT 7 4 21 16
REMARK Flexibility Score: inf
ROOT
ATOM      1  C   UNL     1      83.028  64.315  75.632  1.00  0.00     0.100 C 
ENDROOT
BRANCH   1   2
ATOM      2  C   UNL     1      84.206  63.902  76.422  1.00  0.00     0.220 C 
ATOM      3  N   UNL     1      84.060  63.625  77.748  1.00  0.00    -0.352 N 
ATOM      4  H   UNL     1      83.155  63.856  78.133  1.00  0.00     0.163 HD
ATOM      5  O   UNL     1      85.313  63.773  75.843  1.00  0.00    -0.275 OA
BRANCH   3   6
ATOM      6  C   UNL     1      85.066  63.054  78.585  1.00  0.00     0.151 C 
BRANCH   6   7
ATOM      7  C   UNL     1      85.487  63.956  79.691  1.00  0.00    -0.025 A 
ATOM      8  C   UNL     1      86.577  66.022  80.460  1.00  0.00     0.160 A 
ATOM      9  C   UNL     1      86.231  65.706  81.791  1.00  0.00     0.157 A 
ATOM     10  C   UNL     1      86.220  65.136  79.421  1.00  0.00     0.056 A 
ATOM     11  C   UNL     1      85.526  64.522  82.073  1.00  0.00     0.050 A 
ATOM     12  C   UNL     1      85.152  63.656  81.032  1.00  0.00     0.009 A 
BRANCH   8  13
ATOM     13  O   UNL     1      87.281  67.160  80.166  1.00  0.00    -0.493 OA
ATOM     14  C   UNL     1      88.683  66.932  79.929  1.00  0.00     0.278 C 
ENDBRANCH   8  13
BRANCH   9  15
ATOM     15  O   UNL     1      86.571  66.549  82.797  1.00  0.00    -0.504 OA
ATOM     16  H   UNL     1      87.320  67.085  82.527  1.00  0.00     0.293 HD
ENDBRANCH   9  15
ENDBRANCH   6   7
ENDBRANCH   3   6
ENDBRANCH   1   2
BRANCH   1  17
ATOM     17  C   UNL     1      81.833  64.820  76.484  1.00  0.00     0.010 C 
BRANCH  17  18
ATOM     18  C   UNL     1      81.627  66.352  76.331  1.00  0.00     0.001 C 
BRANCH  18  19
ATOM     19  C   UNL     1      81.794  66.853  74.872  1.00  0.00     0.000 C 
BRANCH  19  20
ATOM     20  C   UNL     1      80.517  66.611  74.017  1.00  0.00     0.003 C 
BRANCH  20  21
ATOM     21  C   UNL     1      80.616  65.424  73.004  1.00  0.00    -0.017 C 
ATOM     22  C   UNL     1      80.088  65.846  71.601  1.00  0.00     0.007 C 
ATOM     23  C   UNL     1      79.871  64.148  73.493  1.00  0.00     0.007 C 
ENDBRANCH  20  21
ENDBRANCH  19  20
ENDBRANCH  18  19
ENDBRANCH  17  18
ENDBRANCH   1  17
TORSDOF 10
ENDMDL
MODEL 4
REMARK VINA RESULT:    -5.490     24.323     27.295
REMARK INTER + INTRA:          -9.353
REMARK INTER:                  -8.631
REMARK INTRA:                  -0.722
REMARK UNBOUND:                -0.814
REMARK SMILES COc1cc(CNC(=O)CCCCCC(C)C)ccc1O
REMARK SMILES IDX 10 1 8 2 7 3 9 5 6 6 5 7 3 8 20 9 4 10 19 11 18 12 2 13 1 14
REMARK SMILES IDX 21 15 11 17 12 18 13 19 14 20 15 21 16 22 17 23
REMARK H PARENT 7 4 21 16
REMARK Flexibility Score: inf
ROOT
ATOM      1  C   UNL     1      83.889  70.133  71.634  1.00  0.00     0.100 C 
ENDROOT
BRANCH   1   2
ATOM      2  C   UNL     1      85.356  70.013  71.499  1.00  0.00     0.220 C 
ATOM      3  N   UNL     1      85.910  69.939  70.256  1.00  0.00    -0.352 N 
ATOM      4  H   UNL     1      85.247  69.839  69.501  1.00  0.00     0.163 HD
ATOM      5  O   UNL     1      86.065  70.023  72.535  1.00  0.00    -0.275 OA
BRANCH   3   6
ATOM      6  C   UNL     1      87.309  69.994  69.976  1.00  0.00     0.151 C 
BRANCH   6   7
ATOM      7  C   UNL     1      87.683  71.130  69.090  1.00  0.00    -0.025 A 
ATOM      8  C   UNL     1      89.255  72.911  68.455  1.00  0.00     0.160 A 
ATOM      9  C   UNL     1      88.428  73.249  67.363  1.00  0.00     0.157 A 
ATOM     10  C   UNL     1      88.868  71.867  69.322  1.00  0.00     0.056 A 
ATOM     11  C   UNL     1      87.233  72.541  67.139  1.00  0.00     0.050 A 
ATOM     12  C   UNL     1      86.866  71.486  67.991  1.00  0.00     0.009 A 
BRANCH   8  13
ATOM     13  O   UNL     1      90.412  73.601  68.703  1.00  0.00    -0.493 OA
ATOM     14  C   UNL     1      91.605  72.901  68.301  1.00  0.00     0.278 C 
ENDBRANCH   8  13
BRANCH   9  15
ATOM     15  O   UNL     1      88.789  74.253  66.525  1.00  0.00    -0.504 OA
ATOM     16  H   UNL     1      88.664  75.097  66.964  1.00  0.00     0.293 HD
ENDBRANCH   9  15
ENDBRANCH   6   7
ENDBRANCH   3   6
ENDBRANCH   1   2
BRANCH   1  17
ATOM     17  C   UNL     1      83.138  68.775  71.682  1.00  0.00     0.010 C 
BRANCH  17  18
ATOM     18  C   UNL     1      83.382  68.033  73.025  1.00  0.00     0.001 C 
BRANCH  18  19
ATOM     19  C   UNL     1      82.143  67.249  73.530  1.00  0.00     0.000 C 
BRANCH  19  20
ATOM     20  C   UNL     1      80.857  67.600  72.726  1.00  0.00     0.003 C 
BRANCH  20  21
ATOM     21  C   UNL     1      80.147  66.380  72.053  1.00  0.00    -0.017 C 
ATOM     22  C   UNL     1      80.159  65.140  72.995  1.00  0.00     0.007 C 
ATOM     23  C   UNL     1      80.763  66.008  70.673  1.00  0.00     0.007 C 
ENDBRANCH  20  21
ENDBRANCH  19  20
ENDBRANCH  18  19
ENDBRANCH  17  18
ENDBRANCH   1  17
TORSDOF 10
ENDMDL
MODEL 5
REMARK VINA RESULT:    -5.433      1.530      2.389
REMARK INTER + INTRA:          -9.264
REMARK INTER:                  -8.425
REMARK INTRA:                  -0.839
REMARK UNBOUND:                -0.814
REMARK SMILES COc1cc(CNC(=O)CCCCCC(C)C)ccc1O
REMARK SMILES IDX 10 1 8 2 7 3 9 5 6 6 5 7 3 8 20 9 4 10 19 11 18 12 2 13 1 14
REMARK SMILES IDX 21 15 11 17 12 18 13 19 14 20 15 21 16 22 17 23
REMARK H PARENT 7 4 21 16
REMARK Flexibility Score: inf
ROOT
ATOM      1  C   UNL     1      95.913  94.464  75.049  1.00  0.00     0.100 C 
ENDROOT
BRANCH   1   2
ATOM      2  C   UNL     1      96.531  95.632  75.711  1.00  0.00     0.220 C 
ATOM      3  N   UNL     1      96.287  95.859  77.032  1.00  0.00    -0.352 N 
ATOM      4  H   UNL     1      95.577  95.268  77.441  1.00  0.00     0.163 HD
ATOM      5  O   UNL     1      97.304  96.368  75.050  1.00  0.00    -0.275 OA
BRANCH   3   6
ATOM      6  C   UNL     1      96.949  96.838  77.834  1.00  0.00     0.151 C 
BRANCH   6   7
ATOM      7  C   UNL     1      96.696  96.670  79.290  1.00  0.00    -0.025 A 
ATOM      8  C   UNL     1      96.649  97.595  81.568  1.00  0.00     0.160 A 
ATOM      9  C   UNL     1      96.150  96.368  82.054  1.00  0.00     0.157 A 
ATOM     10  C   UNL     1      96.937  97.732  80.193  1.00  0.00     0.056 A 
ATOM     11  C   UNL     1      95.932  95.296  81.169  1.00  0.00     0.050 A 
ATOM     12  C   UNL     1      96.198  95.447  79.798  1.00  0.00     0.009 A 
BRANCH   8  13
ATOM     13  O   UNL     1      96.887  98.645  82.416  1.00  0.00    -0.493 OA
ATOM     14  C   UNL     1      96.245  99.872  82.017  1.00  0.00     0.278 C 
ENDBRANCH   8  13
BRANCH   9  15
ATOM     15  O   UNL     1      95.873  96.226  83.374  1.00  0.00    -0.504 OA
ATOM     16  H   UNL     1      96.692  96.128  83.865  1.00  0.00     0.293 HD
ENDBRANCH   9  15
ENDBRANCH   6   7
ENDBRANCH   3   6
ENDBRANCH   1   2
BRANCH   1  17
ATOM     17  C   UNL     1      94.895  93.695  75.932  1.00  0.00     0.010 C 
BRANCH  17  18
ATOM     18  C   UNL     1      93.473  93.703  75.306  1.00  0.00     0.001 C 
BRANCH  18  19
ATOM     19  C   UNL     1      92.538  94.781  75.917  1.00  0.00     0.000 C 
BRANCH  19  20
ATOM     20  C   UNL     1      91.158  94.194  76.335  1.00  0.00     0.003 C 
BRANCH  20  21
ATOM     21  C   UNL     1      91.114  92.636  76.461  1.00  0.00    -0.017 C 
ATOM     22  C   UNL     1      90.103  92.025  75.446  1.00  0.00     0.007 C 
ATOM     23  C   UNL     1      90.780  92.155  77.903  1.00  0.00     0.007 C 
ENDBRANCH  20  21
ENDBRANCH  19  20
ENDBRANCH  18  19
ENDBRANCH  17  18
ENDBRANCH   1  17
TORSDOF 10
ENDMDL
MODEL 6
REMARK VINA RESULT:    -5.431     27.603     30.309
REMARK INTER + INTRA:          -9.261
REMARK INTER:                  -8.359
REMARK INTRA:                  -0.902
REMARK UNBOUND:                -0.814
REMARK SMILES COc1cc(CNC(=O)CCCCCC(C)C)ccc1O
REMARK SMILES IDX 10 1 8 2 7 3 9 5 6 6 5 7 3 8 20 9 4 10 19 11 18 12 2 13 1 14
REMARK SMILES IDX 21 15 11 17 12 18 13 19 14 20 15 21 16 22 17 23
REMARK H PARENT 7 4 21 16
REMARK Flexibility Score: inf
ROOT
ATOM      1  C   UNL     1      80.222  65.616  72.104  1.00  0.00     0.100 C 
ENDROOT
BRANCH   1   2
ATOM      2  C   UNL     1      80.516  64.896  73.361  1.00  0.00     0.220 C 
ATOM      3  N   UNL     1      81.528  65.334  74.162  1.00  0.00    -0.352 N 
ATOM      4  H   UNL     1      82.103  66.062  73.761  1.00  0.00     0.163 HD
ATOM      5  O   UNL     1      79.798  63.919  73.686  1.00  0.00    -0.275 OA
BRANCH   3   6
ATOM      6  C   UNL     1      81.807  64.846  75.475  1.00  0.00     0.151 C 
BRANCH   6   7
ATOM      7  C   UNL     1      82.890  65.600  76.161  1.00  0.00    -0.025 A 
ATOM      8  C   UNL     1      85.028  65.631  77.375  1.00  0.00     0.160 A 
ATOM      9  C   UNL     1      84.987  67.041  77.408  1.00  0.00     0.157 A 
ATOM     10  C   UNL     1      83.971  64.919  76.768  1.00  0.00     0.056 A 
ATOM     11  C   UNL     1      83.903  67.727  76.831  1.00  0.00     0.050 A 
ATOM     12  C   UNL     1      82.866  67.014  76.207  1.00  0.00     0.009 A 
BRANCH   8  13
ATOM     13  O   UNL     1      86.065  64.942  77.949  1.00  0.00    -0.493 OA
ATOM     14  C   UNL     1      85.765  64.426  79.260  1.00  0.00     0.278 C 
ENDBRANCH   8  13
BRANCH   9  15
ATOM     15  O   UNL     1      85.997  67.734  77.991  1.00  0.00    -0.504 OA
ATOM     16  H   UNL     1      86.746  67.772  77.392  1.00  0.00     0.293 HD
ENDBRANCH   9  15
ENDBRANCH   6   7
ENDBRANCH   3   6
ENDBRANCH   1   2
BRANCH   1  17
ATOM     17  C   UNL     1      80.358  67.159  72.205  1.00  0.00     0.010 C 
BRANCH  17  18
ATOM     18  C   UNL     1      81.537  67.687  71.342  1.00  0.00     0.001 C 
BRANCH  18  19
ATOM     19  C   UNL     1      82.629  68.415  72.170  1.00  0.00     0.000 C 
BRANCH  19  20
ATOM     20  C   UNL     1      83.338  69.534  71.354  1.00  0.00     0.003 C 
BRANCH  20  21
ATOM     21  C   UNL     1      84.765  69.920  71.864  1.00  0.00    -0.017 C 
ATOM     22  C   UNL     1      85.803  69.866  70.704  1.00  0.00     0.007 C 
ATOM     23  C   UNL     1      85.243  69.033  73.050  1.00  0.00     0.007 C 
ENDBRANCH  20  21
ENDBRANCH  19  20
ENDBRANCH  18  19
ENDBRANCH  17  18
ENDBRANCH   1  17
TORSDOF 10
ENDMDL
MODEL 7
REMARK VINA RESULT:    -5.427     28.161     30.914
REMARK INTER + INTRA:          -9.255
REMARK INTER:                  -8.089
REMARK INTRA:                  -1.166
REMARK UNBOUND:                -0.814
REMARK SMILES COc1cc(CNC(=O)CCCCCC(C)C)ccc1O
REMARK SMILES IDX 10 1 8 2 7 3 9 5 6 6 5 7 3 8 20 9 4 10 19 11 18 12 2 13 1 14
REMARK SMILES IDX 21 15 11 17 12 18 13 19 14 20 15 21 16 22 17 23
REMARK H PARENT 7 4 21 16
REMARK Flexibility Score: inf
ROOT
ATOM      1  C   UNL     1      80.181  65.295  73.218  1.00  0.00     0.100 C 
ENDROOT
BRANCH   1   2
ATOM      2  C   UNL     1      80.887  64.158  73.846  1.00  0.00     0.220 C 
ATOM      3  N   UNL     1      82.219  64.263  74.114  1.00  0.00    -0.352 N 
ATOM      4  H   UNL     1      82.666  65.085  73.733  1.00  0.00     0.163 HD
ATOM      5  O   UNL     1      80.233  63.134  74.159  1.00  0.00    -0.275 OA
BRANCH   3   6
ATOM      6  C   UNL     1      82.982  63.320  74.867  1.00  0.00     0.151 C 
BRANCH   6   7
ATOM      7  C   UNL     1      83.837  63.956  75.905  1.00  0.00    -0.025 A 
ATOM      8  C   UNL     1      84.999  65.934  76.792  1.00  0.00     0.160 A 
ATOM      9  C   UNL     1      85.408  65.186  77.917  1.00  0.00     0.157 A 
ATOM     10  C   UNL     1      84.232  65.310  75.785  1.00  0.00     0.056 A 
ATOM     11  C   UNL     1      85.043  63.832  78.033  1.00  0.00     0.050 A 
ATOM     12  C   UNL     1      84.259  63.223  77.039  1.00  0.00     0.009 A 
BRANCH   8  13
ATOM     13  O   UNL     1      85.360  67.248  76.650  1.00  0.00    -0.493 OA
ATOM     14  C   UNL     1      84.277  68.175  76.855  1.00  0.00     0.278 C 
ENDBRANCH   8  13
BRANCH   9  15
ATOM     15  O   UNL     1      86.147  65.776  78.889  1.00  0.00    -0.504 OA
ATOM     16  H   UNL     1      85.823  66.666  79.043  1.00  0.00     0.293 HD
ENDBRANCH   9  15
ENDBRANCH   6   7
ENDBRANCH   3   6
ENDBRANCH   1   2
BRANCH   1  17
ATOM     17  C   UNL     1      80.553  66.682  73.809  1.00  0.00     0.010 C 
BRANCH  17  18
ATOM     18  C   UNL     1      80.531  67.792  72.722  1.00  0.00     0.001 C 
BRANCH  18  19
ATOM     19  C   UNL     1      81.196  67.361  71.388  1.00  0.00     0.000 C 
BRANCH  19  20
ATOM     20  C   UNL     1      82.741  67.552  71.412  1.00  0.00     0.003 C 
BRANCH  20  21
ATOM     21  C   UNL     1      83.240  68.791  72.224  1.00  0.00    -0.017 C 
ATOM     22  C   UNL     1      83.508  70.002  71.281  1.00  0.00     0.007 C 
ATOM     23  C   UNL     1      84.507  68.486  73.074  1.00  0.00     0.007 C 
ENDBRANCH  20  21
ENDBRANCH  19  20
ENDBRANCH  18  19
ENDBRANCH  17  18
ENDBRANCH   1  17
TORSDOF 10
ENDMDL
MODEL 8
REMARK VINA RESULT:    -5.399     10.618     12.148
REMARK INTER + INTRA:          -9.212
REMARK INTER:                  -8.781
REMARK INTRA:                  -0.430
REMARK UNBOUND:                -0.814
REMARK SMILES COc1cc(CNC(=O)CCCCCC(C)C)ccc1O
REMARK SMILES IDX 10 1 8 2 7 3 9 5 6 6 5 7 3 8 20 9 4 10 19 11 18 12 2 13 1 14
REMARK SMILES IDX 21 15 11 17 12 18 13 19 14 20 15 21 16 22 17 23
REMARK H PARENT 7 4 21 16
REMARK Flexibility Score: inf
ROOT
ATOM      1  C   UNL     1      96.829  84.331  83.925  1.00  0.00     0.100 C 
ENDROOT
BRANCH   1   2
ATOM      2  C   UNL     1      95.895  84.383  85.069  1.00  0.00     0.220 C 
ATOM      3  N   UNL     1      95.983  85.412  85.959  1.00  0.00    -0.352 N 
ATOM      4  H   UNL     1      96.788  86.010  85.839  1.00  0.00     0.163 HD
ATOM      5  O   UNL     1      95.010  83.499  85.173  1.00  0.00    -0.275 OA
BRANCH   3   6
ATOM      6  C   UNL     1      95.044  85.679  87.001  1.00  0.00     0.151 C 
BRANCH   6   7
ATOM      7  C   UNL     1      95.004  87.113  87.398  1.00  0.00    -0.025 A 
ATOM      8  C   UNL     1      94.387  88.862  89.012  1.00  0.00     0.160 A 
ATOM      9  C   UNL     1      94.988  89.834  88.185  1.00  0.00     0.157 A 
ATOM     10  C   UNL     1      94.382  87.511  88.605  1.00  0.00     0.056 A 
ATOM     11  C   UNL     1      95.585  89.453  86.970  1.00  0.00     0.050 A 
ATOM     12  C   UNL     1      95.599  88.103  86.581  1.00  0.00     0.009 A 
BRANCH   8  13
ATOM     13  O   UNL     1      93.782  89.214  90.190  1.00  0.00    -0.493 OA
ATOM     14  C   UNL     1      94.432  88.681  91.360  1.00  0.00     0.278 C 
ENDBRANCH   8  13
BRANCH   9  15
ATOM     15  O   UNL     1      94.996  91.136  88.566  1.00  0.00    -0.504 OA
ATOM     16  H   UNL     1      94.542  91.226  89.407  1.00  0.00     0.293 HD
ENDBRANCH   9  15
ENDBRANCH   6   7
ENDBRANCH   3   6
ENDBRANCH   1   2
BRANCH   1  17
ATOM     17  C   UNL     1      96.961  82.929  83.272  1.00  0.00     0.010 C 
BRANCH  17  18
ATOM     18  C   UNL     1      96.666  82.978  81.747  1.00  0.00     0.001 C 
BRANCH  18  19
ATOM     19  C   UNL     1      97.937  82.839  80.869  1.00  0.00     0.000 C 
BRANCH  19  20
ATOM     20  C   UNL     1      97.636  82.162  79.500  1.00  0.00     0.003 C 
BRANCH  20  21
ATOM     21  C   UNL     1      98.284  82.861  78.261  1.00  0.00    -0.017 C 
ATOM     22  C   UNL     1      97.207  83.200  77.188  1.00  0.00     0.007 C 
ATOM     23  C   UNL     1      99.428  82.021  77.622  1.00  0.00     0.007 C 
ENDBRANCH  20  21
ENDBRANCH  19  20
ENDBRANCH  18  19
ENDBRANCH  17  18
ENDBRANCH   1  17
TORSDOF 10
ENDMDL
MODEL 9
REMARK VINA RESULT:    -5.321     28.963     31.007
REMARK INTER + INTRA:          -9.090
REMARK INTER:                  -7.320
REMARK INTRA:                  -1.770
REMARK UNBOUND:                -0.814
REMARK SMILES COc1cc(CNC(=O)CCCCCC(C)C)ccc1O
REMARK SMILES IDX 10 1 8 2 7 3 9 5 6 6 5 7 3 8 20 9 4 10 19 11 18 12 2 13 1 14
REMARK SMILES IDX 21 15 11 17 12 18 13 19 14 20 15 21 16 22 17 23
REMARK H PARENT 7 4 21 16
REMARK Flexibility Score: inf
ROOT
ATOM      1  C   UNL     1      80.443  67.359  72.644  1.00  0.00     0.100 C 
ENDROOT
BRANCH   1   2
ATOM      2  C   UNL     1      80.603  66.634  73.922  1.00  0.00     0.220 C 
ATOM      3  N   UNL     1      81.552  67.046  74.810  1.00  0.00    -0.352 N 
ATOM      4  H   UNL     1      82.181  67.756  74.462  1.00  0.00     0.163 HD
ATOM      5  O   UNL     1      79.832  65.679  74.182  1.00  0.00    -0.275 OA
BRANCH   3   6
ATOM      6  C   UNL     1      81.700  66.553  76.142  1.00  0.00     0.151 C 
BRANCH   6   7
ATOM      7  C   UNL     1      82.905  65.698  76.318  1.00  0.00    -0.025 A 
ATOM      8  C   UNL     1      85.244  65.430  77.026  1.00  0.00     0.160 A 
ATOM      9  C   UNL     1      85.178  64.055  76.717  1.00  0.00     0.157 A 
ATOM     10  C   UNL     1      84.114  66.247  76.807  1.00  0.00     0.056 A 
ATOM     11  C   UNL     1      83.989  63.505  76.206  1.00  0.00     0.050 A 
ATOM     12  C   UNL     1      82.859  64.318  76.013  1.00  0.00     0.009 A 
BRANCH   8  13
ATOM     13  O   UNL     1      86.399  65.990  77.507  1.00  0.00    -0.493 OA
ATOM     14  C   UNL     1      86.181  67.022  78.489  1.00  0.00     0.278 C 
ENDBRANCH   8  13
BRANCH   9  15
ATOM     15  O   UNL     1      86.260  63.263  76.922  1.00  0.00    -0.504 OA
ATOM     16  H   UNL     1      86.078  62.652  77.640  1.00  0.00     0.293 HD
ENDBRANCH   9  15
ENDBRANCH   6   7
ENDBRANCH   3   6
ENDBRANCH   1   2
BRANCH   1  17
ATOM     17  C   UNL     1      80.185  66.441  71.419  1.00  0.00     0.010 C 
BRANCH  17  18
ATOM     18  C   UNL     1      81.507  66.074  70.690  1.00  0.00     0.001 C 
BRANCH  18  19
ATOM     19  C   UNL     1      82.592  67.178  70.789  1.00  0.00     0.000 C 
BRANCH  19  20
ATOM     20  C   UNL     1      83.991  66.597  71.146  1.00  0.00     0.003 C 
BRANCH  20  21
ATOM     21  C   UNL     1      84.119  66.029  72.597  1.00  0.00    -0.017 C 
ATOM     22  C   UNL     1      85.256  66.752  73.378  1.00  0.00     0.007 C 
ATOM     23  C   UNL     1      84.348  64.489  72.625  1.00  0.00     0.007 C 
ENDBRANCH  20  21
ENDBRANCH  19  20
ENDBRANCH  18  19
ENDBRANCH  17  18
ENDBRANCH   1  17
TORSDOF 10
ENDMDL
MODEL 10
REMARK VINA RESULT:    -5.306     27.866     30.558
REMARK INTER + INTRA:          -9.067
REMARK INTER:                  -8.064
REMARK INTRA:                  -1.004
REMARK UNBOUND:                -0.814
REMARK SMILES COc1cc(CNC(=O)CCCCCC(C)C)ccc1O
REMARK SMILES IDX 10 1 8 2 7 3 9 5 6 6 5 7 3 8 20 9 4 10 19 11 18 12 2 13 1 14
REMARK SMILES IDX 21 15 11 17 12 18 13 19 14 20 15 21 16 22 17 23
REMARK H PARENT 7 4 21 16
REMARK Flexibility Score: inf
ROOT
ATOM      1  C   UNL     1      81.987  64.482  74.474  1.00  0.00     0.100 C 
ENDROOT
BRANCH   1   2
ATOM      2  C   UNL     1      83.208  64.105  75.216  1.00  0.00     0.220 C 
ATOM      3  N   UNL     1      83.199  64.130  76.578  1.00  0.00    -0.352 N 
ATOM      4  H   UNL     1      82.373  64.541  76.990  1.00  0.00     0.163 HD
ATOM      5  O   UNL     1      84.219  63.729  74.573  1.00  0.00    -0.275 OA
BRANCH   3   6
ATOM      6  C   UNL     1      84.241  63.630  77.417  1.00  0.00     0.151 C 
BRANCH   6   7
ATOM      7  C   UNL     1      85.042  64.708  78.058  1.00  0.00    -0.025 A 
ATOM      8  C   UNL     1      85.898  67.013  78.064  1.00  0.00     0.160 A 
ATOM      9  C   UNL     1      86.511  66.780  79.313  1.00  0.00     0.157 A 
ATOM     10  C   UNL     1      85.184  65.971  77.436  1.00  0.00     0.056 A 
ATOM     11  C   UNL     1      86.399  65.520  79.929  1.00  0.00     0.050 A 
ATOM     12  C   UNL     1      85.665  64.493  79.310  1.00  0.00     0.009 A 
BRANCH   8  13
ATOM     13  O   UNL     1      86.012  68.227  77.438  1.00  0.00    -0.493 OA
ATOM     14  C   UNL     1      84.809  68.651  76.768  1.00  0.00     0.278 C 
ENDBRANCH   8  13
BRANCH   9  15
ATOM     15  O   UNL     1      87.202  67.775  79.925  1.00  0.00    -0.504 OA
ATOM     16  H   UNL     1      88.116  67.505  80.040  1.00  0.00     0.293 HD
ENDBRANCH   9  15
ENDBRANCH   6   7
ENDBRANCH   3   6
ENDBRANCH   1   2
BRANCH   1  17
ATOM     17  C   UNL     1      81.232  65.703  75.065  1.00  0.00     0.010 C 
BRANCH  17  18
ATOM     18  C   UNL     1      80.159  66.244  74.081  1.00  0.00     0.001 C 
BRANCH  18  19
ATOM     19  C   UNL     1      80.158  65.518  72.710  1.00  0.00     0.000 C 
BRANCH  19  20
ATOM     20  C   UNL     1      80.101  66.514  71.516  1.00  0.00     0.003 C 
BRANCH  20  21
ATOM     21  C   UNL     1      81.485  66.851  70.871  1.00  0.00    -0.017 C 
ATOM     22  C   UNL     1      82.441  65.624  70.934  1.00  0.00     0.007 C 
ATOM     23  C   UNL     1      82.167  68.092  71.517  1.00  0.00     0.007 C 
ENDBRANCH  20  21
ENDBRANCH  19  20
ENDBRANCH  18  19
ENDBRANCH  17  18
ENDBRANCH   1  17
TORSDOF 10
ENDMDL
