MODEL 1
REMARK VINA RESULT:    -6.747      0.000      0.000
REMARK INTER + INTRA:         -11.164
REMARK INTER:                 -10.494
REMARK INTRA:                  -0.670
REMARK UNBOUND:                -0.670
REMARK SMILES COc1cc(CNC(=O)CCCC/C=C/C(C)C)ccc1O
REMARK SMILES IDX 10 1 8 2 7 3 9 5 6 6 5 7 3 8 21 9 4 10 20 11 19 12 2 13 1 14
REMARK SMILES IDX 22 15 11 17 12 18 13 19 14 20 15 21 16 22 17 23 18 24
REMARK H PARENT 7 4 22 16
REMARK Flexibility Score: inf
ROOT
ATOM      1  C   UNL     1      77.548  84.420  68.407  1.00  0.00     0.100 C 
ENDROOT
BRANCH   1   2
ATOM      2  C   UNL     1      77.811  83.578  67.225  1.00  0.00     0.220 C 
ATOM      3  N   UNL     1      76.798  82.894  66.623  1.00  0.00    -0.352 N 
ATOM      4  H   UNL     1      75.894  82.996  67.063  1.00  0.00     0.163 HD
ATOM      5  O   UNL     1      78.984  83.532  66.780  1.00  0.00    -0.275 OA
BRANCH   3   6
ATOM      6  C   UNL     1      76.942  82.080  65.459  1.00  0.00     0.151 C 
BRANCH   6   7
ATOM      7  C   UNL     1      75.625  81.593  64.966  1.00  0.00    -0.025 A 
ATOM      8  C   UNL     1      73.213  81.250  65.323  1.00  0.00     0.160 A 
ATOM      9  C   UNL     1      73.101  80.689  64.034  1.00  0.00     0.157 A 
ATOM     10  C   UNL     1      74.472  81.694  65.777  1.00  0.00     0.056 A 
ATOM     11  C   UNL     1      74.245  80.564  63.221  1.00  0.00     0.050 A 
ATOM     12  C   UNL     1      75.496  81.021  63.679  1.00  0.00     0.009 A 
BRANCH   8  13
ATOM     13  O   UNL     1      72.115  81.313  66.143  1.00  0.00    -0.493 OA
ATOM     14  C   UNL     1      71.622  82.648  66.361  1.00  0.00     0.278 C 
ENDBRANCH   8  13
BRANCH   9  15
ATOM     15  O   UNL     1      71.901  80.263  63.561  1.00  0.00    -0.504 OA
ATOM     16  H   UNL     1      72.007  79.405  63.144  1.00  0.00     0.293 HD
ENDBRANCH   9  15
ENDBRANCH   6   7
ENDBRANCH   3   6
ENDBRANCH   1   2
BRANCH   1  17
ATOM     17  C   UNL     1      77.948  85.899  68.158  1.00  0.00     0.010 C 
BRANCH  17  18
ATOM     18  C   UNL     1      77.585  86.833  69.347  1.00  0.00     0.005 C 
BRANCH  18  19
ATOM     19  C   UNL     1      76.303  86.371  70.091  1.00  0.00     0.027 C 
BRANCH  19  20
ATOM     20  C   UNL     1      75.403  87.480  70.369  1.00  0.00    -0.031 C 
ATOM     21  C   UNL     1      75.784  88.770  70.419  1.00  0.00    -0.028 C 
BRANCH  21  22
ATOM     22  C   UNL     1      74.858  89.871  70.681  1.00  0.00     0.005 C 
ATOM     23  C   UNL     1      73.795  89.504  71.754  1.00  0.00     0.012 C 
ATOM     24  C   UNL     1      75.642  91.144  71.092  1.00  0.00     0.012 C 
ENDBRANCH  21  22
ENDBRANCH  19  20
ENDBRANCH  18  19
ENDBRANCH  17  18
ENDBRANCH   1  17
TORSDOF 10
ENDMDL
MODEL 2
REMARK VINA RESULT:    -6.657     21.634     26.185
REMARK INTER + INTRA:         -11.024
REMARK INTER:                 -10.302
REMARK INTRA:                  -0.721
REMARK UNBOUND:                -0.670
REMARK SMILES COc1cc(CNC(=O)CCCC/C=C/C(C)C)ccc1O
REMARK SMILES IDX 10 1 8 2 7 3 9 5 6 6 5 7 3 8 21 9 4 10 20 11 19 12 2 13 1 14
REMARK SMILES IDX 22 15 11 17 12 18 13 19 14 20 15 21 16 22 17 23 18 24
REMARK H PARENT 7 4 22 16
REMARK Flexibility Score: inf
ROOT
ATOM      1  C   UNL     1      94.559  98.276  75.632  1.00  0.00     0.100 C 
ENDROOT
BRANCH   1   2
ATOM      2  C   UNL     1      95.159  98.881  76.836  1.00  0.00     0.220 C 
ATOM      3  N   UNL     1      95.812  98.107  77.748  1.00  0.00    -0.352 N 
ATOM      4  H   UNL     1      95.822  97.118  77.538  1.00  0.00     0.163 HD
ATOM      5  O   UNL     1      95.070 100.125  76.981  1.00  0.00    -0.275 OA
BRANCH   3   6
ATOM      6  C   UNL     1      96.452  98.598  78.926  1.00  0.00     0.151 C 
BRANCH   6   7
ATOM      7  C   UNL     1      95.983  97.880  80.142  1.00  0.00    -0.025 A 
ATOM      8  C   UNL     1      95.037  95.864  81.192  1.00  0.00     0.160 A 
ATOM      9  C   UNL     1      95.102  96.490  82.455  1.00  0.00     0.157 A 
ATOM     10  C   UNL     1      95.475  96.565  80.049  1.00  0.00     0.056 A 
ATOM     11  C   UNL     1      95.588  97.808  82.560  1.00  0.00     0.050 A 
ATOM     12  C   UNL     1      96.034  98.496  81.415  1.00  0.00     0.009 A 
BRANCH   8  13
ATOM     13  O   UNL     1      94.504  94.606  81.076  1.00  0.00    -0.493 OA
ATOM     14  C   UNL     1      95.310  93.696  80.304  1.00  0.00     0.278 C 
ENDBRANCH   8  13
BRANCH   9  15
ATOM     15  O   UNL     1      94.701  95.838  83.577  1.00  0.00    -0.504 OA
ATOM     16  H   UNL     1      94.371  96.474  84.216  1.00  0.00     0.293 HD
ENDBRANCH   9  15
ENDBRANCH   6   7
ENDBRANCH   3   6
ENDBRANCH   1   2
BRANCH   1  17
ATOM     17  C   UNL     1      95.045  96.816  75.422  1.00  0.00     0.010 C 
BRANCH  17  18
ATOM     18  C   UNL     1      94.108  95.766  76.084  1.00  0.00     0.005 C 
BRANCH  18  19
ATOM     19  C   UNL     1      92.939  96.426  76.864  1.00  0.00     0.027 C 
BRANCH  19  20
ATOM     20  C   UNL     1      91.709  95.655  76.762  1.00  0.00    -0.031 C 
ATOM     21  C   UNL     1      91.095  95.069  77.806  1.00  0.00    -0.028 C 
BRANCH  21  22
ATOM     22  C   UNL     1      89.848  94.315  77.684  1.00  0.00     0.005 C 
ATOM     23  C   UNL     1      89.573  93.865  76.222  1.00  0.00     0.012 C 
ATOM     24  C   UNL     1      89.862  93.097  78.644  1.00  0.00     0.012 C 
ENDBRANCH  21  22
ENDBRANCH  19  20
ENDBRANCH  18  19
ENDBRANCH  17  18
ENDBRANCH   1  17
TORSDOF 10
ENDMDL
MODEL 3
REMARK VINA RESULT:    -6.263     25.215     27.572
REMARK INTER + INTRA:         -10.410
REMARK INTER:                  -9.609
REMARK INTRA:                  -0.802
REMARK UNBOUND:                -0.670
REMARK SMILES COc1cc(CNC(=O)CCCC/C=C/C(C)C)ccc1O
REMARK SMILES IDX 10 1 8 2 7 3 9 5 6 6 5 7 3 8 21 9 4 10 20 11 19 12 2 13 1 14
REMARK SMILES IDX 22 15 11 17 12 18 13 19 14 20 15 21 16 22 17 23 18 24
REMARK H PARENT 7 4 22 16
REMARK Flexibility Score: inf
ROOT
ATOM      1  C   UNL     1      97.519  82.560  84.448  1.00  0.00     0.100 C 
ENDROOT
BRANCH   1   2
ATOM      2  C   UNL     1      98.347  82.087  83.321  1.00  0.00     0.220 C 
ATOM      3  N   UNL     1      98.946  82.978  82.482  1.00  0.00    -0.352 N 
ATOM      4  H   UNL     1      98.755  83.950  82.685  1.00  0.00     0.163 HD
ATOM      5  O   UNL     1      98.499  80.850  83.176  1.00  0.00    -0.275 OA
BRANCH   3   6
ATOM      6  C   UNL     1      99.790  82.626  81.386  1.00  0.00     0.151 C 
BRANCH   6   7
ATOM      7  C   UNL     1      99.167  82.979  80.081  1.00  0.00    -0.025 A 
ATOM      8  C   UNL     1      99.360  83.300  77.647  1.00  0.00     0.160 A 
ATOM      9  C   UNL     1      97.990  83.631  77.582  1.00  0.00     0.157 A 
ATOM     10  C   UNL     1      99.935  82.980  78.895  1.00  0.00     0.056 A 
ATOM     11  C   UNL     1      97.216  83.653  78.759  1.00  0.00     0.050 A 
ATOM     12  C   UNL     1      97.797  83.320  79.998  1.00  0.00     0.009 A 
BRANCH   8  13
ATOM     13  O   UNL     1     100.132  83.341  76.514  1.00  0.00    -0.493 OA
ATOM     14  C   UNL     1     101.399  82.670  76.644  1.00  0.00     0.278 C 
ENDBRANCH   8  13
BRANCH   9  15
ATOM     15  O   UNL     1      97.403  83.931  76.395  1.00  0.00    -0.504 OA
ATOM     16  H   UNL     1      97.956  84.548  75.910  1.00  0.00     0.293 HD
ENDBRANCH   9  15
ENDBRANCH   6   7
ENDBRANCH   3   6
ENDBRANCH   1   2
BRANCH   1  17
ATOM     17  C   UNL     1      96.946  83.977  84.182  1.00  0.00     0.010 C 
BRANCH  17  18
ATOM     18  C   UNL     1      97.459  85.038  85.195  1.00  0.00     0.005 C 
BRANCH  18  19
ATOM     19  C   UNL     1      97.811  84.416  86.574  1.00  0.00     0.027 C 
BRANCH  19  20
ATOM     20  C   UNL     1      96.700  84.495  87.510  1.00  0.00    -0.031 C 
ATOM     21  C   UNL     1      96.202  85.646  87.997  1.00  0.00    -0.028 C 
BRANCH  21  22
ATOM     22  C   UNL     1      95.071  85.703  88.922  1.00  0.00     0.005 C 
ATOM     23  C   UNL     1      94.907  87.107  89.568  1.00  0.00     0.012 C 
ATOM     24  C   UNL     1      93.768  85.269  88.203  1.00  0.00     0.012 C 
ENDBRANCH  21  22
ENDBRANCH  19  20
ENDBRANCH  18  19
ENDBRANCH  17  18
ENDBRANCH   1  17
TORSDOF 10
ENDMDL
MODEL 4
REMARK VINA RESULT:    -6.044      2.761      6.584
REMARK INTER + INTRA:         -10.071
REMARK INTER:                  -8.294
REMARK INTRA:                  -1.777
REMARK UNBOUND:                -0.670
REMARK SMILES COc1cc(CNC(=O)CCCC/C=C/C(C)C)ccc1O
REMARK SMILES IDX 10 1 8 2 7 3 9 5 6 6 5 7 3 8 21 9 4 10 20 11 19 12 2 13 1 14
REMARK SMILES IDX 22 15 11 17 12 18 13 19 14 20 15 21 16 22 17 23 18 24
REMARK H PARENT 7 4 22 16
REMARK Flexibility Score: inf
ROOT
ATOM      1  C   UNL     1      75.782  81.284  65.247  1.00  0.00     0.100 C 
ENDROOT
BRANCH   1   2
ATOM      2  C   UNL     1      76.533  82.550  65.137  1.00  0.00     0.220 C 
ATOM      3  N   UNL     1      77.560  82.820  65.990  1.00  0.00    -0.352 N 
ATOM      4  H   UNL     1      77.733  82.111  66.689  1.00  0.00     0.163 HD
ATOM      5  O   UNL     1      76.212  83.351  64.226  1.00  0.00    -0.275 OA
BRANCH   3   6
ATOM      6  C   UNL     1      78.367  83.998  65.947  1.00  0.00     0.151 C 
BRANCH   6   7
ATOM      7  C   UNL     1      77.978  84.966  67.009  1.00  0.00    -0.025 A 
ATOM      8  C   UNL     1      77.581  85.473  69.385  1.00  0.00     0.160 A 
ATOM      9  C   UNL     1      77.258  86.804  69.048  1.00  0.00     0.157 A 
ATOM     10  C   UNL     1      77.936  84.567  68.364  1.00  0.00     0.056 A 
ATOM     11  C   UNL     1      77.276  87.210  67.699  1.00  0.00     0.050 A 
ATOM     12  C   UNL     1      77.643  86.302  66.687  1.00  0.00     0.009 A 
BRANCH   8  13
ATOM     13  O   UNL     1      77.501  85.055  70.689  1.00  0.00    -0.493 OA
ATOM     14  C   UNL     1      76.316  84.294  70.989  1.00  0.00     0.278 C 
ENDBRANCH   8  13
BRANCH   9  15
ATOM     15  O   UNL     1      76.925  87.704  70.008  1.00  0.00    -0.504 OA
ATOM     16  H   UNL     1      76.613  88.513  69.595  1.00  0.00     0.293 HD
ENDBRANCH   9  15
ENDBRANCH   6   7
ENDBRANCH   3   6
ENDBRANCH   1   2
BRANCH   1  17
ATOM     17  C   UNL     1      74.469  81.324  64.420  1.00  0.00     0.010 C 
BRANCH  17  18
ATOM     18  C   UNL     1      73.224  80.881  65.240  1.00  0.00     0.005 C 
BRANCH  18  19
ATOM     19  C   UNL     1      72.388  82.089  65.744  1.00  0.00     0.027 C 
BRANCH  19  20
ATOM     20  C   UNL     1      73.209  83.072  66.435  1.00  0.00    -0.031 C 
ATOM     21  C   UNL     1      73.306  84.365  66.073  1.00  0.00    -0.028 C 
BRANCH  21  22
ATOM     22  C   UNL     1      74.121  85.341  66.795  1.00  0.00     0.005 C 
ATOM     23  C   UNL     1      73.900  86.790  66.280  1.00  0.00     0.012 C 
ATOM     24  C   UNL     1      73.847  85.247  68.318  1.00  0.00     0.012 C 
ENDBRANCH  21  22
ENDBRANCH  19  20
ENDBRANCH  18  19
ENDBRANCH  17  18
ENDBRANCH   1  17
TORSDOF 10
ENDMDL
MODEL 5
REMARK VINA RESULT:    -5.963     22.679     27.361
REMARK INTER + INTRA:          -9.944
REMARK INTER:                  -9.042
REMARK INTRA:                  -0.902
REMARK UNBOUND:                -0.670
REMARK SMILES COc1cc(CNC(=O)CCCC/C=C/C(C)C)ccc1O
REMARK SMILES IDX 10 1 8 2 7 3 9 5 6 6 5 7 3 8 21 9 4 10 20 11 19 12 2 13 1 14
REMARK SMILES IDX 22 15 11 17 12 18 13 19 14 20 15 21 16 22 17 23 18 24
REMARK H PARENT 7 4 22 16
REMARK Flexibility Score: inf
ROOT
ATOM      1  C   UNL     1      95.541  93.814  81.311  1.00  0.00     0.100 C 
ENDROOT
BRANCH   1   2
ATOM      2  C   UNL     1      95.799  95.005  82.143  1.00  0.00     0.220 C 
ATOM      3  N   UNL     1      94.838  95.958  82.303  1.00  0.00    -0.352 N 
ATOM      4  H   UNL     1      93.980  95.787  81.798  1.00  0.00     0.163 HD
ATOM      5  O   UNL     1      96.913  95.100  82.713  1.00  0.00    -0.275 OA
BRANCH   3   6
ATOM      6  C   UNL     1      94.976  97.128  83.110  1.00  0.00     0.151 C 
BRANCH   6   7
ATOM      7  C   UNL     1      95.358  98.313  82.295  1.00  0.00    -0.025 A 
ATOM      8  C   UNL     1      96.083  99.275  80.147  1.00  0.00     0.160 A 
ATOM      9  C   UNL     1      96.070 100.564  80.719  1.00  0.00     0.157 A 
ATOM     10  C   UNL     1      95.730  98.162  80.940  1.00  0.00     0.056 A 
ATOM     11  C   UNL     1      95.720 100.727  82.074  1.00  0.00     0.050 A 
ATOM     12  C   UNL     1      95.357  99.612  82.854  1.00  0.00     0.009 A 
BRANCH   8  13
ATOM     13  O   UNL     1      96.487  99.103  78.847  1.00  0.00    -0.493 OA
ATOM     14  C   UNL     1      96.102  97.839  78.276  1.00  0.00     0.278 C 
ENDBRANCH   8  13
BRANCH   9  15
ATOM     15  O   UNL     1      96.392 101.657  79.980  1.00  0.00    -0.504 OA
ATOM     16  H   UNL     1      95.611 102.200  79.854  1.00  0.00     0.293 HD
ENDBRANCH   9  15
ENDBRANCH   6   7
ENDBRANCH   3   6
ENDBRANCH   1   2
BRANCH   1  17
ATOM     17  C   UNL     1      95.975  94.040  79.838  1.00  0.00     0.010 C 
BRANCH  17  18
ATOM     18  C   UNL     1      94.802  94.496  78.925  1.00  0.00     0.005 C 
BRANCH  18  19
ATOM     19  C   UNL     1      93.420  94.039  79.466  1.00  0.00     0.027 C 
BRANCH  19  20
ATOM     20  C   UNL     1      92.320  94.570  78.676  1.00  0.00    -0.031 C 
ATOM     21  C   UNL     1      91.271  93.841  78.254  1.00  0.00    -0.028 C 
BRANCH  21  22
ATOM     22  C   UNL     1      90.165  94.401  77.477  1.00  0.00     0.005 C 
ATOM     23  C   UNL     1      88.782  93.892  77.970  1.00  0.00     0.012 C 
ATOM     24  C   UNL     1      90.225  95.950  77.500  1.00  0.00     0.012 C 
ENDBRANCH  21  22
ENDBRANCH  19  20
ENDBRANCH  18  19
ENDBRANCH  17  18
ENDBRANCH   1  17
TORSDOF 10
ENDMDL
MODEL 6
REMARK VINA RESULT:    -5.933      2.931      7.642
REMARK INTER + INTRA:          -9.898
REMARK INTER:                  -9.125
REMARK INTRA:                  -0.773
REMARK UNBOUND:                -0.670
REMARK SMILES COc1cc(CNC(=O)CCCC/C=C/C(C)C)ccc1O
REMARK SMILES IDX 10 1 8 2 7 3 9 5 6 6 5 7 3 8 21 9 4 10 20 11 19 12 2 13 1 14
REMARK SMILES IDX 22 15 11 17 12 18 13 19 14 20 15 21 16 22 17 23 18 24
REMARK H PARENT 7 4 22 16
REMARK Flexibility Score: inf
ROOT
ATOM      1  C   UNL     1      74.417  80.982  65.117  1.00  0.00     0.100 C 
ENDROOT
BRANCH   1   2
ATOM      2  C   UNL     1      75.715  81.668  64.969  1.00  0.00     0.220 C 
ATOM      3  N   UNL     1      76.276  82.321  66.025  1.00  0.00    -0.352 N 
ATOM      4  H   UNL     1      75.727  82.310  66.874  1.00  0.00     0.163 HD
ATOM      5  O   UNL     1      76.292  81.611  63.856  1.00  0.00    -0.275 OA
BRANCH   3   6
ATOM      6  C   UNL     1      77.539  82.987  65.995  1.00  0.00     0.151 C 
BRANCH   6   7
ATOM      7  C   UNL     1      77.589  84.108  66.973  1.00  0.00    -0.025 A 
ATOM      8  C   UNL     1      77.549  84.905  69.302  1.00  0.00     0.160 A 
ATOM      9  C   UNL     1      77.703  86.232  68.852  1.00  0.00     0.157 A 
ATOM     10  C   UNL     1      77.492  83.857  68.360  1.00  0.00     0.056 A 
ATOM     11  C   UNL     1      77.782  86.500  67.471  1.00  0.00     0.050 A 
ATOM     12  C   UNL     1      77.735  85.446  66.538  1.00  0.00     0.009 A 
BRANCH   8  13
ATOM     13  O   UNL     1      77.406  84.645  70.642  1.00  0.00    -0.493 OA
ATOM     14  C   UNL     1      76.045  84.425  71.054  1.00  0.00     0.278 C 
ENDBRANCH   8  13
BRANCH   9  15
ATOM     15  O   UNL     1      77.775  87.263  69.733  1.00  0.00    -0.504 OA
ATOM     16  H   UNL     1      77.483  86.966  70.598  1.00  0.00     0.293 HD
ENDBRANCH   9  15
ENDBRANCH   6   7
ENDBRANCH   3   6
ENDBRANCH   1   2
BRANCH   1  17
ATOM     17  C   UNL     1      73.892  80.451  63.755  1.00  0.00     0.010 C 
BRANCH  17  18
ATOM     18  C   UNL     1      72.340  80.450  63.664  1.00  0.00     0.005 C 
BRANCH  18  19
ATOM     19  C   UNL     1      71.772  81.836  63.257  1.00  0.00     0.027 C 
BRANCH  19  20
ATOM     20  C   UNL     1      70.725  82.285  64.163  1.00  0.00    -0.031 C 
ATOM     21  C   UNL     1      70.954  82.851  65.362  1.00  0.00    -0.028 C 
BRANCH  21  22
ATOM     22  C   UNL     1      69.885  83.313  66.248  1.00  0.00     0.005 C 
ATOM     23  C   UNL     1      68.473  83.053  65.654  1.00  0.00     0.012 C 
ATOM     24  C   UNL     1      70.027  82.657  67.646  1.00  0.00     0.012 C 
ENDBRANCH  21  22
ENDBRANCH  19  20
ENDBRANCH  18  19
ENDBRANCH  17  18
ENDBRANCH   1  17
TORSDOF 10
ENDMDL
MODEL 7
REMARK VINA RESULT:    -5.881      2.850      6.668
REMARK INTER + INTRA:          -9.817
REMARK INTER:                  -7.938
REMARK INTRA:                  -1.878
REMARK UNBOUND:                -0.670
REMARK SMILES COc1cc(CNC(=O)CCCC/C=C/C(C)C)ccc1O
REMARK SMILES IDX 10 1 8 2 7 3 9 5 6 6 5 7 3 8 21 9 4 10 20 11 19 12 2 13 1 14
REMARK SMILES IDX 22 15 11 17 12 18 13 19 14 20 15 21 16 22 17 23 18 24
REMARK H PARENT 7 4 22 16
REMARK Flexibility Score: inf
ROOT
ATOM      1  C   UNL     1      75.751  82.691  63.095  1.00  0.00     0.100 C 
ENDROOT
BRANCH   1   2
ATOM      2  C   UNL     1      76.584  83.850  63.471  1.00  0.00     0.220 C 
ATOM      3  N   UNL     1      76.140  84.751  64.391  1.00  0.00    -0.352 N 
ATOM      4  H   UNL     1      75.215  84.568  64.755  1.00  0.00     0.163 HD
ATOM      5  O   UNL     1      77.714  83.965  62.938  1.00  0.00    -0.275 OA
BRANCH   3   6
ATOM      6  C   UNL     1      76.880  85.885  64.846  1.00  0.00     0.151 C 
BRANCH   6   7
ATOM      7  C   UNL     1      77.268  85.746  66.276  1.00  0.00    -0.025 A 
ATOM      8  C   UNL     1      77.426  86.700  68.541  1.00  0.00     0.160 A 
ATOM      9  C   UNL     1      77.984  85.493  69.011  1.00  0.00     0.157 A 
ATOM     10  C   UNL     1      77.076  86.816  67.179  1.00  0.00     0.056 A 
ATOM     11  C   UNL     1      78.199  84.425  68.118  1.00  0.00     0.050 A 
ATOM     12  C   UNL     1      77.835  84.546  66.763  1.00  0.00     0.009 A 
BRANCH   8  13
ATOM     13  O   UNL     1      77.276  87.766  69.391  1.00  0.00    -0.493 OA
ATOM     14  C   UNL     1      75.955  87.889  69.950  1.00  0.00     0.278 C 
ENDBRANCH   8  13
BRANCH   9  15
ATOM     15  O   UNL     1      78.320  85.344  70.318  1.00  0.00    -0.504 OA
ATOM     16  H   UNL     1      78.107  84.453  70.604  1.00  0.00     0.293 HD
ENDBRANCH   9  15
ENDBRANCH   6   7
ENDBRANCH   3   6
ENDBRANCH   1   2
BRANCH   1  17
ATOM     17  C   UNL     1      76.064  81.452  63.976  1.00  0.00     0.010 C 
BRANCH  17  18
ATOM     18  C   UNL     1      74.963  81.170  65.037  1.00  0.00     0.005 C 
BRANCH  18  19
ATOM     19  C   UNL     1      75.378  81.638  66.457  1.00  0.00     0.027 C 
BRANCH  19  20
ATOM     20  C   UNL     1      74.649  82.825  66.877  1.00  0.00    -0.031 C 
ATOM     21  C   UNL     1      73.493  83.238  66.324  1.00  0.00    -0.028 C 
BRANCH  21  22
ATOM     22  C   UNL     1      72.766  84.424  66.775  1.00  0.00     0.005 C 
ATOM     23  C   UNL     1      71.779  84.105  67.932  1.00  0.00     0.012 C 
ATOM     24  C   UNL     1      73.762  85.538  67.189  1.00  0.00     0.012 C 
ENDBRANCH  21  22
ENDBRANCH  19  20
ENDBRANCH  18  19
ENDBRANCH  17  18
ENDBRANCH   1  17
TORSDOF 10
ENDMDL
MODEL 8
REMARK VINA RESULT:    -5.840     25.498     28.687
REMARK INTER + INTRA:          -9.753
REMARK INTER:                  -9.053
REMARK INTRA:                  -0.700
REMARK UNBOUND:                -0.670
REMARK SMILES COc1cc(CNC(=O)CCCC/C=C/C(C)C)ccc1O
REMARK SMILES IDX 10 1 8 2 7 3 9 5 6 6 5 7 3 8 21 9 4 10 20 11 19 12 2 13 1 14
REMARK SMILES IDX 22 15 11 17 12 18 13 19 14 20 15 21 16 22 17 23 18 24
REMARK H PARENT 7 4 22 16
REMARK Flexibility Score: inf
ROOT
ATOM      1  C   UNL     1      98.544  82.135  79.774  1.00  0.00     0.100 C 
ENDROOT
BRANCH   1   2
ATOM      2  C   UNL     1      99.211  82.290  81.082  1.00  0.00     0.220 C 
ATOM      3  N   UNL     1      98.680  81.720  82.200  1.00  0.00    -0.352 N 
ATOM      4  H   UNL     1      97.810  81.226  82.055  1.00  0.00     0.163 HD
ATOM      5  O   UNL     1     100.285  82.936  81.126  1.00  0.00    -0.275 OA
BRANCH   3   6
ATOM      6  C   UNL     1      99.262  81.783  83.502  1.00  0.00     0.151 C 
BRANCH   6   7
ATOM      7  C   UNL     1      98.610  82.825  84.343  1.00  0.00    -0.025 A 
ATOM      8  C   UNL     1      98.441  84.037  86.479  1.00  0.00     0.160 A 
ATOM      9  C   UNL     1      97.392  84.819  85.953  1.00  0.00     0.157 A 
ATOM     10  C   UNL     1      99.039  83.047  85.671  1.00  0.00     0.056 A 
ATOM     11  C   UNL     1      96.941  84.595  84.637  1.00  0.00     0.050 A 
ATOM     12  C   UNL     1      97.551  83.612  83.834  1.00  0.00     0.009 A 
BRANCH   8  13
ATOM     13  O   UNL     1      98.840  84.207  87.781  1.00  0.00    -0.493 OA
ATOM     14  C   UNL     1      98.332  83.208  88.684  1.00  0.00     0.278 C 
ENDBRANCH   8  13
BRANCH   9  15
ATOM     15  O   UNL     1      96.804  85.789  86.700  1.00  0.00    -0.504 OA
ATOM     16  H   UNL     1      96.600  86.543  86.143  1.00  0.00     0.293 HD
ENDBRANCH   9  15
ENDBRANCH   6   7
ENDBRANCH   3   6
ENDBRANCH   1   2
BRANCH   1  17
ATOM     17  C   UNL     1      98.905  83.295  78.807  1.00  0.00     0.010 C 
BRANCH  17  18
ATOM     18  C   UNL     1      97.654  83.963  78.170  1.00  0.00     0.005 C 
BRANCH  18  19
ATOM     19  C   UNL     1      97.631  83.820  76.624  1.00  0.00     0.027 C 
BRANCH  19  20
ATOM     20  C   UNL     1      98.965  83.636  76.072  1.00  0.00    -0.031 C 
ATOM     21  C   UNL     1      99.771  84.643  75.690  1.00  0.00    -0.028 C 
BRANCH  21  22
ATOM     22  C   UNL     1     101.117  84.434  75.156  1.00  0.00     0.005 C 
ATOM     23  C   UNL     1     102.151  85.423  75.762  1.00  0.00     0.012 C 
ATOM     24  C   UNL     1     101.560  82.965  75.377  1.00  0.00     0.012 C 
ENDBRANCH  21  22
ENDBRANCH  19  20
ENDBRANCH  18  19
ENDBRANCH  17  18
ENDBRANCH   1  17
TORSDOF 10
ENDMDL
MODEL 9
REMARK VINA RESULT:    -5.648     25.411     27.696
REMARK INTER + INTRA:          -9.455
REMARK INTER:                  -8.867
REMARK INTRA:                  -0.588
REMARK UNBOUND:                -0.670
REMARK SMILES COc1cc(CNC(=O)CCCC/C=C/C(C)C)ccc1O
REMARK SMILES IDX 10 1 8 2 7 3 9 5 6 6 5 7 3 8 21 9 4 10 20 11 19 12 2 13 1 14
REMARK SMILES IDX 22 15 11 17 12 18 13 19 14 20 15 21 16 22 17 23 18 24
REMARK H PARENT 7 4 22 16
REMARK Flexibility Score: inf
ROOT
ATOM      1  C   UNL     1      98.065  82.570  83.501  1.00  0.00     0.100 C 
ENDROOT
BRANCH   1   2
ATOM      2  C   UNL     1      97.598  83.102  84.796  1.00  0.00     0.220 C 
ATOM      3  N   UNL     1      97.232  82.256  85.800  1.00  0.00    -0.352 N 
ATOM      4  H   UNL     1      97.287  81.273  85.570  1.00  0.00     0.163 HD
ATOM      5  O   UNL     1      97.572  84.347  84.950  1.00  0.00    -0.275 OA
BRANCH   3   6
ATOM      6  C   UNL     1      96.799  82.668  87.096  1.00  0.00     0.151 C 
BRANCH   6   7
ATOM      7  C   UNL     1      95.318  82.800  87.161  1.00  0.00    -0.025 A 
ATOM      8  C   UNL     1      93.321  84.026  87.916  1.00  0.00     0.160 A 
ATOM      9  C   UNL     1      92.495  83.077  87.277  1.00  0.00     0.157 A 
ATOM     10  C   UNL     1      94.722  83.877  87.854  1.00  0.00     0.056 A 
ATOM     11  C   UNL     1      93.075  81.986  86.599  1.00  0.00     0.050 A 
ATOM     12  C   UNL     1      94.475  81.853  86.532  1.00  0.00     0.009 A 
BRANCH   8  13
ATOM     13  O   UNL     1      92.760  85.053  88.633  1.00  0.00    -0.493 OA
ATOM     14  C   UNL     1      92.905  84.919  90.059  1.00  0.00     0.278 C 
ENDBRANCH   8  13
BRANCH   9  15
ATOM     15  O   UNL     1      91.143  83.198  87.307  1.00  0.00    -0.504 OA
ATOM     16  H   UNL     1      90.903  84.125  87.245  1.00  0.00     0.293 HD
ENDBRANCH   9  15
ENDBRANCH   6   7
ENDBRANCH   3   6
ENDBRANCH   1   2
BRANCH   1  17
ATOM     17  C   UNL     1      97.819  83.578  82.346  1.00  0.00     0.010 C 
BRANCH  17  18
ATOM     18  C   UNL     1      98.394  83.091  80.986  1.00  0.00     0.005 C 
BRANCH  18  19
ATOM     19  C   UNL     1      97.508  83.517  79.784  1.00  0.00     0.027 C 
BRANCH  19  20
ATOM     20  C   UNL     1      98.123  83.187  78.507  1.00  0.00    -0.031 C 
ATOM     21  C   UNL     1      97.752  83.721  77.329  1.00  0.00    -0.028 C 
BRANCH  21  22
ATOM     22  C   UNL     1      98.398  83.390  76.059  1.00  0.00     0.005 C 
ATOM     23  C   UNL     1      99.705  84.198  75.834  1.00  0.00     0.012 C 
ATOM     24  C   UNL     1      98.670  81.865  75.979  1.00  0.00     0.012 C 
ENDBRANCH  21  22
ENDBRANCH  19  20
ENDBRANCH  18  19
ENDBRANCH  17  18
ENDBRANCH   1  17
TORSDOF 10
ENDMDL
MODEL 10
REMARK VINA RESULT:    -5.607      1.674      2.453
REMARK INTER + INTRA:          -9.391
REMARK INTER:                  -8.512
REMARK INTRA:                  -0.879
REMARK UNBOUND:                -0.670
REMARK SMILES COc1cc(CNC(=O)CCCC/C=C/C(C)C)ccc1O
REMARK SMILES IDX 10 1 8 2 7 3 9 5 6 6 5 7 3 8 21 9 4 10 20 11 19 12 2 13 1 14
REMARK SMILES IDX 22 15 11 17 12 18 13 19 14 20 15 21 16 22 17 23 18 24
REMARK H PARENT 7 4 22 16
REMARK Flexibility Score: inf
ROOT
ATOM      1  C   UNL     1      77.528  83.991  65.383  1.00  0.00     0.100 C 
ENDROOT
BRANCH   1   2
ATOM      2  C   UNL     1      76.772  82.781  65.009  1.00  0.00     0.220 C 
ATOM      3  N   UNL     1      76.046  82.103  65.942  1.00  0.00    -0.352 N 
ATOM      4  H   UNL     1      76.096  82.481  66.878  1.00  0.00     0.163 HD
ATOM      5  O   UNL     1      76.798  82.413  63.810  1.00  0.00    -0.275 OA
BRANCH   3   6
ATOM      6  C   UNL     1      75.257  80.943  65.677  1.00  0.00     0.151 C 
BRANCH   6   7
ATOM      7  C   UNL     1      73.920  81.305  65.130  1.00  0.00    -0.025 A 
ATOM      8  C   UNL     1      71.749  82.436  65.390  1.00  0.00     0.160 A 
ATOM      9  C   UNL     1      71.376  82.021  64.095  1.00  0.00     0.157 A 
ATOM     10  C   UNL     1      73.015  82.073  65.896  1.00  0.00     0.056 A 
ATOM     11  C   UNL     1      72.261  81.238  63.328  1.00  0.00     0.050 A 
ATOM     12  C   UNL     1      73.527  80.890  63.836  1.00  0.00     0.009 A 
BRANCH   8  13
ATOM     13  O   UNL     1      70.866  83.143  66.167  1.00  0.00    -0.493 OA
ATOM     14  C   UNL     1      71.431  83.642  67.393  1.00  0.00     0.278 C 
ENDBRANCH   8  13
BRANCH   9  15
ATOM     15  O   UNL     1      70.170  82.364  63.574  1.00  0.00    -0.504 OA
ATOM     16  H   UNL     1      69.691  82.908  64.204  1.00  0.00     0.293 HD
ENDBRANCH   9  15
ENDBRANCH   6   7
ENDBRANCH   3   6
ENDBRANCH   1   2
BRANCH   1  17
ATOM     17  C   UNL     1      76.833  84.768  66.534  1.00  0.00     0.010 C 
BRANCH  17  18
ATOM     18  C   UNL     1      77.637  84.726  67.864  1.00  0.00     0.005 C 
BRANCH  18  19
ATOM     19  C   UNL     1      78.355  86.069  68.163  1.00  0.00     0.027 C 
BRANCH  19  20
ATOM     20  C   UNL     1      77.419  87.123  68.523  1.00  0.00    -0.031 C 
ATOM     21  C   UNL     1      76.776  87.192  69.703  1.00  0.00    -0.028 C 
BRANCH  21  22
ATOM     22  C   UNL     1      75.853  88.272  70.051  1.00  0.00     0.005 C 
ATOM     23  C   UNL     1      75.329  89.026  68.798  1.00  0.00     0.012 C 
ATOM     24  C   UNL     1      74.676  87.719  70.897  1.00  0.00     0.012 C 
ENDBRANCH  21  22
ENDBRANCH  19  20
ENDBRANCH  18  19
ENDBRANCH  17  18
ENDBRANCH   1  17
TORSDOF 10
ENDMDL
