MODEL 1
REMARK VINA RESULT:    -6.150      0.000      0.000
REMARK INTER + INTRA:         -11.214
REMARK INTER:                  -9.925
REMARK INTRA:                  -1.288
REMARK UNBOUND:                -1.288
REMARK SMILES COc1cc(CNC(=O)CCCCCCC(C)C)ccc1O
REMARK SMILES IDX 11 1 10 2 8 3 7 4 9 6 6 7 5 8 3 9 21 10 4 11 20 12 19 13
REMARK SMILES IDX 2 14 1 15 22 16 12 18 13 19 14 20 15 21 16 22 17 23 18 24
REMARK H PARENT 7 5 22 17
REMARK Flexibility Score: inf
ROOT
ATOM      1  C   UNL     1      93.300  97.725  76.074  1.00  0.00     0.010 C 
ENDROOT
BRANCH   1   2
ATOM      2  C   UNL     1      94.645  98.154  75.425  1.00  0.00     0.100 C 
BRANCH   2   3
ATOM      3  C   UNL     1      95.784  98.131  76.370  1.00  0.00     0.220 C 
ATOM      4  N   UNL     1      95.565  98.204  77.714  1.00  0.00    -0.352 N 
ATOM      5  H   UNL     1      94.597  98.317  77.978  1.00  0.00     0.163 HD
ATOM      6  O   UNL     1      96.946  98.017  75.908  1.00  0.00    -0.275 OA
BRANCH   4   7
ATOM      7  C   UNL     1      96.580  98.133  78.721  1.00  0.00     0.151 C 
BRANCH   7   8
ATOM      8  C   UNL     1      96.116  97.480  79.977  1.00  0.00    -0.025 A 
ATOM      9  C   UNL     1      95.775  95.448  81.320  1.00  0.00     0.160 A 
ATOM     10  C   UNL     1      95.275  96.232  82.382  1.00  0.00     0.157 A 
ATOM     11  C   UNL     1      96.174  96.075  80.121  1.00  0.00     0.056 A 
ATOM     12  C   UNL     1      95.176  97.628  82.237  1.00  0.00     0.050 A 
ATOM     13  C   UNL     1      95.603  98.250  81.047  1.00  0.00     0.009 A 
BRANCH   9  14
ATOM     14  O   UNL     1      95.839  94.087  81.437  1.00  0.00    -0.493 OA
ATOM     15  C   UNL     1      94.714  93.402  80.856  1.00  0.00     0.278 C 
ENDBRANCH   9  14
BRANCH  10  16
ATOM     16  O   UNL     1      94.882  95.656  83.549  1.00  0.00    -0.504 OA
ATOM     17  H   UNL     1      94.039  96.026  83.820  1.00  0.00     0.293 HD
ENDBRANCH  10  16
ENDBRANCH   7   8
ENDBRANCH   4   7
ENDBRANCH   2   3
ENDBRANCH   1   2
BRANCH   1  18
ATOM     18  C   UNL     1      93.083  96.186  76.013  1.00  0.00     0.001 C 
BRANCH  18  19
ATOM     19  C   UNL     1      93.608  95.430  77.266  1.00  0.00     0.000 C 
BRANCH  19  20
ATOM     20  C   UNL     1      92.602  95.516  78.448  1.00  0.00     0.000 C 
BRANCH  20  21
ATOM     21  C   UNL     1      91.789  94.214  78.690  1.00  0.00     0.003 C 
BRANCH  21  22
ATOM     22  C   UNL     1      90.773  93.862  77.555  1.00  0.00    -0.017 C 
ATOM     23  C   UNL     1      89.352  93.644  78.147  1.00  0.00     0.007 C 
ATOM     24  C   UNL     1      91.199  92.636  76.694  1.00  0.00     0.007 C 
ENDBRANCH  21  22
ENDBRANCH  20  21
ENDBRANCH  19  20
ENDBRANCH  18  19
ENDBRANCH   1  18
TORSDOF 11
ENDMDL
MODEL 2
REMARK VINA RESULT:    -5.822      1.208      2.030
REMARK INTER + INTRA:         -10.684
REMARK INTER:                  -9.382
REMARK INTRA:                  -1.302
REMARK UNBOUND:                -1.288
REMARK SMILES COc1cc(CNC(=O)CCCCCCC(C)C)ccc1O
REMARK SMILES IDX 11 1 10 2 8 3 7 4 9 6 6 7 5 8 3 9 21 10 4 11 20 12 19 13
REMARK SMILES IDX 2 14 1 15 22 16 12 18 13 19 14 20 15 21 16 22 17 23 18 24
REMARK H PARENT 7 5 22 17
REMARK Flexibility Score: inf
ROOT
ATOM      1  C   UNL     1      93.063  98.049  76.031  1.00  0.00     0.010 C 
ENDROOT
BRANCH   1   2
ATOM      2  C   UNL     1      94.445  98.360  75.394  1.00  0.00     0.100 C 
BRANCH   2   3
ATOM      3  C   UNL     1      95.584  98.039  76.283  1.00  0.00     0.220 C 
ATOM      4  N   UNL     1      95.389  97.882  77.624  1.00  0.00    -0.352 N 
ATOM      5  H   UNL     1      94.442  98.046  77.933  1.00  0.00     0.163 HD
ATOM      6  O   UNL     1      96.722  97.892  75.773  1.00  0.00    -0.275 OA
BRANCH   4   7
ATOM      7  C   UNL     1      96.400  97.516  78.569  1.00  0.00     0.151 C 
BRANCH   7   8
ATOM      8  C   UNL     1      96.031  96.333  79.394  1.00  0.00    -0.025 A 
ATOM      9  C   UNL     1      95.953  95.199  81.574  1.00  0.00     0.160 A 
ATOM     10  C   UNL     1      95.292  94.100  80.982  1.00  0.00     0.157 A 
ATOM     11  C   UNL     1      96.333  96.296  80.774  1.00  0.00     0.056 A 
ATOM     12  C   UNL     1      95.021  94.108  79.601  1.00  0.00     0.050 A 
ATOM     13  C   UNL     1      95.378  95.220  78.814  1.00  0.00     0.009 A 
BRANCH   9  14
ATOM     14  O   UNL     1      96.256  95.184  82.908  1.00  0.00    -0.493 OA
ATOM     15  C   UNL     1      97.645  95.435  83.190  1.00  0.00     0.278 C 
ENDBRANCH   9  14
BRANCH  10  16
ATOM     16  O   UNL     1      94.916  93.029  81.728  1.00  0.00    -0.504 OA
ATOM     17  H   UNL     1      95.157  92.220  81.270  1.00  0.00     0.293 HD
ENDBRANCH  10  16
ENDBRANCH   7   8
ENDBRANCH   4   7
ENDBRANCH   2   3
ENDBRANCH   1   2
BRANCH   1  18
ATOM     18  C   UNL     1      92.572  96.611  75.697  1.00  0.00     0.001 C 
BRANCH  18  19
ATOM     19  C   UNL     1      92.764  95.598  76.860  1.00  0.00     0.000 C 
BRANCH  19  20
ATOM     20  C   UNL     1      91.753  95.853  78.014  1.00  0.00     0.000 C 
BRANCH  20  21
ATOM     21  C   UNL     1      90.263  95.819  77.574  1.00  0.00     0.003 C 
BRANCH  21  22
ATOM     22  C   UNL     1      89.625  94.392  77.551  1.00  0.00    -0.017 C 
ATOM     23  C   UNL     1      90.316  93.470  78.594  1.00  0.00     0.007 C 
ATOM     24  C   UNL     1      89.634  93.725  76.144  1.00  0.00     0.007 C 
ENDBRANCH  21  22
ENDBRANCH  20  21
ENDBRANCH  19  20
ENDBRANCH  18  19
ENDBRANCH   1  18
TORSDOF 11
ENDMDL
MODEL 3
REMARK VINA RESULT:    -5.809      6.056      9.563
REMARK INTER + INTRA:         -10.663
REMARK INTER:                 -10.127
REMARK INTRA:                  -0.536
REMARK UNBOUND:                -1.288
REMARK SMILES COc1cc(CNC(=O)CCCCCCC(C)C)ccc1O
REMARK SMILES IDX 11 1 10 2 8 3 7 4 9 6 6 7 5 8 3 9 21 10 4 11 20 12 19 13
REMARK SMILES IDX 2 14 1 15 22 16 12 18 13 19 14 20 15 21 16 22 17 23 18 24
REMARK H PARENT 7 5 22 17
REMARK Flexibility Score: inf
ROOT
ATOM      1  C   UNL     1      93.836  98.402  75.332  1.00  0.00     0.010 C 
ENDROOT
BRANCH   1   2
ATOM      2  C   UNL     1      94.092  99.285  74.080  1.00  0.00     0.100 C 
BRANCH   2   3
ATOM      3  C   UNL     1      92.909 100.076  73.671  1.00  0.00     0.220 C 
ATOM      4  N   UNL     1      92.547 100.144  72.357  1.00  0.00    -0.352 N 
ATOM      5  H   UNL     1      93.166  99.661  71.723  1.00  0.00     0.163 HD
ATOM      6  O   UNL     1      92.239 100.658  74.558  1.00  0.00    -0.275 OA
BRANCH   4   7
ATOM      7  C   UNL     1      91.394 100.828  71.852  1.00  0.00     0.151 C 
BRANCH   7   8
ATOM      8  C   UNL     1      90.496  99.951  71.053  1.00  0.00    -0.025 A 
ATOM      9  C   UNL     1      89.099  99.582  69.062  1.00  0.00     0.160 A 
ATOM     10  C   UNL     1      88.817  98.270  69.500  1.00  0.00     0.157 A 
ATOM     11  C   UNL     1      89.919 100.418  69.849  1.00  0.00     0.056 A 
ATOM     12  C   UNL     1      89.353  97.807  70.715  1.00  0.00     0.050 A 
ATOM     13  C   UNL     1      90.195  98.636  71.482  1.00  0.00     0.009 A 
BRANCH   9  14
ATOM     14  O   UNL     1      88.551 100.056  67.901  1.00  0.00    -0.493 OA
ATOM     15  C   UNL     1      88.604 101.489  67.777  1.00  0.00     0.278 C 
ENDBRANCH   9  14
BRANCH  10  16
ATOM     16  O   UNL     1      88.029  97.444  68.763  1.00  0.00    -0.504 OA
ATOM     17  H   UNL     1      88.336  96.539  68.859  1.00  0.00     0.293 HD
ENDBRANCH  10  16
ENDBRANCH   7   8
ENDBRANCH   4   7
ENDBRANCH   2   3
ENDBRANCH   1   2
BRANCH   1  18
ATOM     18  C   UNL     1      94.653  97.079  75.294  1.00  0.00     0.001 C 
BRANCH  18  19
ATOM     19  C   UNL     1      94.769  96.374  76.675  1.00  0.00     0.000 C 
BRANCH  19  20
ATOM     20  C   UNL     1      93.688  95.270  76.847  1.00  0.00     0.000 C 
BRANCH  20  21
ATOM     21  C   UNL     1      92.226  95.797  76.800  1.00  0.00     0.003 C 
BRANCH  21  22
ATOM     22  C   UNL     1      91.151  94.773  77.290  1.00  0.00    -0.017 C 
ATOM     23  C   UNL     1      89.763  95.462  77.416  1.00  0.00     0.007 C 
ATOM     24  C   UNL     1      91.528  94.059  78.622  1.00  0.00     0.007 C 
ENDBRANCH  21  22
ENDBRANCH  20  21
ENDBRANCH  19  20
ENDBRANCH  18  19
ENDBRANCH   1  18
TORSDOF 11
ENDMDL
MODEL 4
REMARK VINA RESULT:    -5.761      5.244      8.660
REMARK INTER + INTRA:         -10.586
REMARK INTER:                  -9.584
REMARK INTRA:                  -1.002
REMARK UNBOUND:                -1.288
REMARK SMILES COc1cc(CNC(=O)CCCCCCC(C)C)ccc1O
REMARK SMILES IDX 11 1 10 2 8 3 7 4 9 6 6 7 5 8 3 9 21 10 4 11 20 12 19 13
REMARK SMILES IDX 2 14 1 15 22 16 12 18 13 19 14 20 15 21 16 22 17 23 18 24
REMARK H PARENT 7 5 22 17
REMARK Flexibility Score: inf
ROOT
ATOM      1  C   UNL     1      94.354  97.039  75.899  1.00  0.00     0.010 C 
ENDROOT
BRANCH   1   2
ATOM      2  C   UNL     1      93.117  97.953  75.677  1.00  0.00     0.100 C 
BRANCH   2   3
ATOM      3  C   UNL     1      93.336  98.994  74.649  1.00  0.00     0.220 C 
ATOM      4  N   UNL     1      92.299  99.429  73.876  1.00  0.00    -0.352 N 
ATOM      5  H   UNL     1      91.423  98.955  74.041  1.00  0.00     0.163 HD
ATOM      6  O   UNL     1      94.486  99.482  74.522  1.00  0.00    -0.275 OA
BRANCH   4   7
ATOM      7  C   UNL     1      92.379 100.468  72.894  1.00  0.00     0.151 C 
BRANCH   7   8
ATOM      8  C   UNL     1      91.357 100.339  71.819  1.00  0.00    -0.025 A 
ATOM      9  C   UNL     1      89.680  98.992  70.625  1.00  0.00     0.160 A 
ATOM     10  C   UNL     1      89.376 100.098  69.802  1.00  0.00     0.157 A 
ATOM     11  C   UNL     1      90.679  99.115  71.614  1.00  0.00     0.056 A 
ATOM     12  C   UNL     1      90.071 101.309  69.971  1.00  0.00     0.050 A 
ATOM     13  C   UNL     1      91.047 101.434  70.979  1.00  0.00     0.009 A 
BRANCH   9  14
ATOM     14  O   UNL     1      89.038  97.798  70.443  1.00  0.00    -0.493 OA
ATOM     15  C   UNL     1      89.801  96.839  69.688  1.00  0.00     0.278 C 
ENDBRANCH   9  14
BRANCH  10  16
ATOM     16  O   UNL     1      88.419 100.008  68.841  1.00  0.00    -0.504 OA
ATOM     17  H   UNL     1      87.878  99.231  69.000  1.00  0.00     0.293 HD
ENDBRANCH  10  16
ENDBRANCH   7   8
ENDBRANCH   4   7
ENDBRANCH   2   3
ENDBRANCH   1   2
BRANCH   1  18
ATOM     18  C   UNL     1      93.951  95.561  76.168  1.00  0.00     0.001 C 
BRANCH  18  19
ATOM     19  C   UNL     1      94.161  95.113  77.642  1.00  0.00     0.000 C 
BRANCH  19  20
ATOM     20  C   UNL     1      92.848  94.560  78.265  1.00  0.00     0.000 C 
BRANCH  20  21
ATOM     21  C   UNL     1      91.860  93.951  77.232  1.00  0.00     0.003 C 
BRANCH  21  22
ATOM     22  C   UNL     1      90.445  94.616  77.215  1.00  0.00    -0.017 C 
ATOM     23  C   UNL     1      90.536  96.100  77.669  1.00  0.00     0.007 C 
ATOM     24  C   UNL     1      89.385  93.852  78.061  1.00  0.00     0.007 C 
ENDBRANCH  21  22
ENDBRANCH  20  21
ENDBRANCH  19  20
ENDBRANCH  18  19
ENDBRANCH   1  18
TORSDOF 11
ENDMDL
MODEL 5
REMARK VINA RESULT:    -5.518     12.753     15.018
REMARK INTER + INTRA:         -10.193
REMARK INTER:                  -9.085
REMARK INTRA:                  -1.109
REMARK UNBOUND:                -1.288
REMARK SMILES COc1cc(CNC(=O)CCCCCCC(C)C)ccc1O
REMARK SMILES IDX 11 1 10 2 8 3 7 4 9 6 6 7 5 8 3 9 21 10 4 11 20 12 19 13
REMARK SMILES IDX 2 14 1 15 22 16 12 18 13 19 14 20 15 21 16 22 17 23 18 24
REMARK H PARENT 7 5 22 17
REMARK Flexibility Score: inf
ROOT
ATOM      1  C   UNL     1      97.811  82.896  78.772  1.00  0.00     0.010 C 
ENDROOT
BRANCH   1   2
ATOM      2  C   UNL     1      98.875  83.097  79.886  1.00  0.00     0.100 C 
BRANCH   2   3
ATOM      3  C   UNL     1      98.917  81.985  80.862  1.00  0.00     0.220 C 
ATOM      4  N   UNL     1      98.718  82.225  82.190  1.00  0.00    -0.352 N 
ATOM      5  H   UNL     1      98.591  83.198  82.427  1.00  0.00     0.163 HD
ATOM      6  O   UNL     1      99.115  80.820  80.438  1.00  0.00    -0.275 OA
BRANCH   4   7
ATOM      7  C   UNL     1      98.679  81.225  83.214  1.00  0.00     0.151 C 
BRANCH   7   8
ATOM      8  C   UNL     1      97.796  81.589  84.356  1.00  0.00    -0.025 A 
ATOM      9  C   UNL     1      96.532  83.282  85.615  1.00  0.00     0.160 A 
ATOM     10  C   UNL     1      96.078  82.284  86.505  1.00  0.00     0.157 A 
ATOM     11  C   UNL     1      97.401  82.931  84.560  1.00  0.00     0.056 A 
ATOM     12  C   UNL     1      96.496  80.952  86.334  1.00  0.00     0.050 A 
ATOM     13  C   UNL     1      97.340  80.604  85.262  1.00  0.00     0.009 A 
BRANCH   9  14
ATOM     14  O   UNL     1      96.164  84.588  85.795  1.00  0.00    -0.493 OA
ATOM     15  C   UNL     1      97.161  85.535  85.371  1.00  0.00     0.278 C 
ENDBRANCH   9  14
BRANCH  10  16
ATOM     16  O   UNL     1      95.242  82.594  87.530  1.00  0.00    -0.504 OA
ATOM     17  H   UNL     1      95.365  83.514  87.776  1.00  0.00     0.293 HD
ENDBRANCH  10  16
ENDBRANCH   7   8
ENDBRANCH   4   7
ENDBRANCH   2   3
ENDBRANCH   1   2
BRANCH   1  18
ATOM     18  C   UNL     1      97.457  84.227  78.050  1.00  0.00     0.001 C 
BRANCH  18  19
ATOM     19  C   UNL     1      98.090  84.362  76.637  1.00  0.00     0.000 C 
BRANCH  19  20
ATOM     20  C   UNL     1      98.518  82.980  76.068  1.00  0.00     0.000 C 
BRANCH  20  21
ATOM     21  C   UNL     1     100.034  82.864  75.748  1.00  0.00     0.003 C 
BRANCH  21  22
ATOM     22  C   UNL     1     100.974  83.548  76.794  1.00  0.00    -0.017 C 
ATOM     23  C   UNL     1     101.846  84.638  76.111  1.00  0.00     0.007 C 
ATOM     24  C   UNL     1     101.871  82.545  77.579  1.00  0.00     0.007 C 
ENDBRANCH  21  22
ENDBRANCH  20  21
ENDBRANCH  19  20
ENDBRANCH  18  19
ENDBRANCH   1  18
TORSDOF 11
ENDMDL
MODEL 6
REMARK VINA RESULT:    -5.369     12.676     14.540
REMARK INTER + INTRA:          -9.953
REMARK INTER:                  -9.303
REMARK INTRA:                  -0.650
REMARK UNBOUND:                -1.288
REMARK SMILES COc1cc(CNC(=O)CCCCCCC(C)C)ccc1O
REMARK SMILES IDX 11 1 10 2 8 3 7 4 9 6 6 7 5 8 3 9 21 10 4 11 20 12 19 13
REMARK SMILES IDX 2 14 1 15 22 16 12 18 13 19 14 20 15 21 16 22 17 23 18 24
REMARK H PARENT 7 5 22 17
REMARK Flexibility Score: inf
ROOT
ATOM      1  C   UNL     1      98.372  83.041  80.736  1.00  0.00     0.010 C 
ENDROOT
BRANCH   1   2
ATOM      2  C   UNL     1      99.085  81.765  81.264  1.00  0.00     0.100 C 
BRANCH   2   3
ATOM      3  C   UNL     1      99.097  81.671  82.741  1.00  0.00     0.220 C 
ATOM      4  N   UNL     1      99.034  82.800  83.505  1.00  0.00    -0.352 N 
ATOM      5  H   UNL     1      99.025  83.663  82.981  1.00  0.00     0.163 HD
ATOM      6  O   UNL     1      99.142  80.533  83.271  1.00  0.00    -0.275 OA
BRANCH   4   7
ATOM      7  C   UNL     1      98.980  82.828  84.935  1.00  0.00     0.151 C 
BRANCH   7   8
ATOM      8  C   UNL     1      97.767  83.511  85.463  1.00  0.00    -0.025 A 
ATOM      9  C   UNL     1      95.660  83.431  86.729  1.00  0.00     0.160 A 
ATOM     10  C   UNL     1      95.474  84.814  86.511  1.00  0.00     0.157 A 
ATOM     11  C   UNL     1      96.793  82.787  86.189  1.00  0.00     0.056 A 
ATOM     12  C   UNL     1      96.417  85.536  85.757  1.00  0.00     0.050 A 
ATOM     13  C   UNL     1      97.561  84.893  85.245  1.00  0.00     0.009 A 
BRANCH   9  14
ATOM     14  O   UNL     1      94.730  82.711  87.427  1.00  0.00    -0.493 OA
ATOM     15  C   UNL     1      93.792  82.009  86.591  1.00  0.00     0.278 C 
ENDBRANCH   9  14
BRANCH  10  16
ATOM     16  O   UNL     1      94.391  85.459  87.018  1.00  0.00    -0.504 OA
ATOM     17  H   UNL     1      94.472  85.517  87.973  1.00  0.00     0.293 HD
ENDBRANCH  10  16
ENDBRANCH   7   8
ENDBRANCH   4   7
ENDBRANCH   2   3
ENDBRANCH   1   2
BRANCH   1  18
ATOM     18  C   UNL     1      98.631  83.274  79.221  1.00  0.00     0.001 C 
BRANCH  18  19
ATOM     19  C   UNL     1      97.365  83.703  78.427  1.00  0.00     0.000 C 
BRANCH  19  20
ATOM     20  C   UNL     1      97.734  84.537  77.168  1.00  0.00     0.000 C 
BRANCH  20  21
ATOM     21  C   UNL     1      98.496  83.737  76.075  1.00  0.00     0.003 C 
BRANCH  21  22
ATOM     22  C   UNL     1     100.029  84.037  75.999  1.00  0.00    -0.017 C 
ATOM     23  C   UNL     1     100.303  85.228  75.038  1.00  0.00     0.007 C 
ATOM     24  C   UNL     1     100.888  82.802  75.595  1.00  0.00     0.007 C 
ENDBRANCH  21  22
ENDBRANCH  20  21
ENDBRANCH  19  20
ENDBRANCH  18  19
ENDBRANCH   1  18
TORSDOF 11
ENDMDL
MODEL 7
REMARK VINA RESULT:    -5.354     13.045     15.794
REMARK INTER + INTRA:          -9.929
REMARK INTER:                  -9.001
REMARK INTRA:                  -0.928
REMARK UNBOUND:                -1.288
REMARK SMILES COc1cc(CNC(=O)CCCCCCC(C)C)ccc1O
REMARK SMILES IDX 11 1 10 2 8 3 7 4 9 6 6 7 5 8 3 9 21 10 4 11 20 12 19 13
REMARK SMILES IDX 2 14 1 15 22 16 12 18 13 19 14 20 15 21 16 22 17 23 18 24
REMARK H PARENT 7 5 22 17
REMARK Flexibility Score: inf
ROOT
ATOM      1  C   UNL     1      99.759  79.861  84.092  1.00  0.00     0.010 C 
ENDROOT
BRANCH   1   2
ATOM      2  C   UNL     1      98.991  79.522  82.785  1.00  0.00     0.100 C 
BRANCH   2   3
ATOM      3  C   UNL     1      99.590  80.134  81.578  1.00  0.00     0.220 C 
ATOM      4  N   UNL     1      99.982  81.441  81.590  1.00  0.00    -0.352 N 
ATOM      5  H   UNL     1      99.787  81.931  82.451  1.00  0.00     0.163 HD
ATOM      6  O   UNL     1      99.750  79.421  80.558  1.00  0.00    -0.275 OA
BRANCH   4   7
ATOM      7  C   UNL     1     100.624  82.121  80.507  1.00  0.00     0.151 C 
BRANCH   7   8
ATOM      8  C   UNL     1      99.664  82.710  79.533  1.00  0.00    -0.025 A 
ATOM      9  C   UNL     1      99.132  83.446  77.247  1.00  0.00     0.160 A 
ATOM     10  C   UNL     1      97.826  83.789  77.660  1.00  0.00     0.157 A 
ATOM     11  C   UNL     1     100.045  82.927  78.189  1.00  0.00     0.056 A 
ATOM     12  C   UNL     1      97.447  83.614  79.003  1.00  0.00     0.050 A 
ATOM     13  C   UNL     1      98.355  83.068  79.931  1.00  0.00     0.009 A 
BRANCH   9  14
ATOM     14  O   UNL     1      99.523  83.649  75.952  1.00  0.00    -0.493 OA
ATOM     15  C   UNL     1     100.915  83.369  75.716  1.00  0.00     0.278 C 
ENDBRANCH   9  14
BRANCH  10  16
ATOM     16  O   UNL     1      96.926  84.292  76.774  1.00  0.00    -0.504 OA
ATOM     17  H   UNL     1      97.392  84.673  76.026  1.00  0.00     0.293 HD
ENDBRANCH  10  16
ENDBRANCH   7   8
ENDBRANCH   4   7
ENDBRANCH   2   3
ENDBRANCH   1   2
BRANCH   1  18
ATOM     18  C   UNL     1      98.916  80.742  85.057  1.00  0.00     0.001 C 
BRANCH  18  19
ATOM     19  C   UNL     1      97.719  81.456  84.369  1.00  0.00     0.000 C 
BRANCH  19  20
ATOM     20  C   UNL     1      98.096  82.894  83.913  1.00  0.00     0.000 C 
BRANCH  20  21
ATOM     21  C   UNL     1      97.031  83.972  84.259  1.00  0.00     0.003 C 
BRANCH  21  22
ATOM     22  C   UNL     1      97.480  85.003  85.346  1.00  0.00    -0.017 C 
ATOM     23  C   UNL     1      98.459  84.338  86.355  1.00  0.00     0.007 C 
ATOM     24  C   UNL     1      96.294  85.673  86.100  1.00  0.00     0.007 C 
ENDBRANCH  21  22
ENDBRANCH  20  21
ENDBRANCH  19  20
ENDBRANCH  18  19
ENDBRANCH   1  18
TORSDOF 11
ENDMDL
MODEL 8
REMARK VINA RESULT:    -5.340      4.423      6.169
REMARK INTER + INTRA:          -9.906
REMARK INTER:                  -9.211
REMARK INTRA:                  -0.695
REMARK UNBOUND:                -1.288
REMARK SMILES COc1cc(CNC(=O)CCCCCCC(C)C)ccc1O
REMARK SMILES IDX 11 1 10 2 8 3 7 4 9 6 6 7 5 8 3 9 21 10 4 11 20 12 19 13
REMARK SMILES IDX 2 14 1 15 22 16 12 18 13 19 14 20 15 21 16 22 17 23 18 24
REMARK H PARENT 7 5 22 17
REMARK Flexibility Score: inf
ROOT
ATOM      1  C   UNL     1      92.685 100.927  73.213  1.00  0.00     0.010 C 
ENDROOT
BRANCH   1   2
ATOM      2  C   UNL     1      92.326 100.436  74.643  1.00  0.00     0.100 C 
BRANCH   2   3
ATOM      3  C   UNL     1      93.348  99.539  75.228  1.00  0.00     0.220 C 
ATOM      4  N   UNL     1      93.021  98.264  75.587  1.00  0.00    -0.352 N 
ATOM      5  H   UNL     1      92.049  98.027  75.461  1.00  0.00     0.163 HD
ATOM      6  O   UNL     1      94.520  99.969  75.362  1.00  0.00    -0.275 OA
BRANCH   4   7
ATOM      7  C   UNL     1      93.936  97.293  76.107  1.00  0.00     0.151 C 
BRANCH   7   8
ATOM      8  C   UNL     1      93.275  96.254  76.944  1.00  0.00    -0.025 A 
ATOM      9  C   UNL     1      93.188  94.922  79.010  1.00  0.00     0.160 A 
ATOM     10  C   UNL     1      91.997  94.307  78.566  1.00  0.00     0.157 A 
ATOM     11  C   UNL     1      93.827  95.876  78.189  1.00  0.00     0.056 A 
ATOM     12  C   UNL     1      91.459  94.647  77.311  1.00  0.00     0.050 A 
ATOM     13  C   UNL     1      92.086  95.621  76.510  1.00  0.00     0.009 A 
BRANCH   9  14
ATOM     14  O   UNL     1      93.741  94.570  80.211  1.00  0.00    -0.493 OA
ATOM     15  C   UNL     1      94.913  93.744  80.089  1.00  0.00     0.278 C 
ENDBRANCH   9  14
BRANCH  10  16
ATOM     16  O   UNL     1      91.361  93.385  79.335  1.00  0.00    -0.504 OA
ATOM     17  H   UNL     1      91.731  93.398  80.221  1.00  0.00     0.293 HD
ENDBRANCH  10  16
ENDBRANCH   7   8
ENDBRANCH   4   7
ENDBRANCH   2   3
ENDBRANCH   1   2
BRANCH   1  18
ATOM     18  C   UNL     1      91.932 100.129  72.112  1.00  0.00     0.001 C 
BRANCH  18  19
ATOM     19  C   UNL     1      91.451 101.005  70.921  1.00  0.00     0.000 C 
BRANCH  19  20
ATOM     20  C   UNL     1      90.569 100.192  69.932  1.00  0.00     0.000 C 
BRANCH  20  21
ATOM     21  C   UNL     1      89.196  99.756  70.513  1.00  0.00     0.003 C 
BRANCH  21  22
ATOM     22  C   UNL     1      88.767  98.298  70.145  1.00  0.00    -0.017 C 
ATOM     23  C   UNL     1      89.888  97.290  70.524  1.00  0.00     0.007 C 
ATOM     24  C   UNL     1      88.360  98.124  68.652  1.00  0.00     0.007 C 
ENDBRANCH  21  22
ENDBRANCH  20  21
ENDBRANCH  19  20
ENDBRANCH  18  19
ENDBRANCH   1  18
TORSDOF 11
ENDMDL
MODEL 9
REMARK VINA RESULT:    -5.255     12.995     15.315
REMARK INTER + INTRA:          -9.769
REMARK INTER:                  -9.123
REMARK INTRA:                  -0.645
REMARK UNBOUND:                -1.288
REMARK SMILES COc1cc(CNC(=O)CCCCCCC(C)C)ccc1O
REMARK SMILES IDX 11 1 10 2 8 3 7 4 9 6 6 7 5 8 3 9 21 10 4 11 20 12 19 13
REMARK SMILES IDX 2 14 1 15 22 16 12 18 13 19 14 20 15 21 16 22 17 23 18 24
REMARK H PARENT 7 5 22 17
REMARK Flexibility Score: inf
ROOT
ATOM      1  C   UNL     1      98.047  83.694  85.177  1.00  0.00     0.010 C 
ENDROOT
BRANCH   1   2
ATOM      2  C   UNL     1      97.418  85.099  84.969  1.00  0.00     0.100 C 
BRANCH   2   3
ATOM      3  C   UNL     1      96.340  85.406  85.936  1.00  0.00     0.220 C 
ATOM      4  N   UNL     1      95.560  84.405  86.439  1.00  0.00    -0.352 N 
ATOM      5  H   UNL     1      95.757  83.489  86.064  1.00  0.00     0.163 HD
ATOM      6  O   UNL     1      96.178  86.597  86.299  1.00  0.00    -0.275 OA
BRANCH   4   7
ATOM      7  C   UNL     1      94.530  84.574  87.419  1.00  0.00     0.151 C 
BRANCH   7   8
ATOM      8  C   UNL     1      93.497  83.503  87.375  1.00  0.00    -0.025 A 
ATOM      9  C   UNL     1      91.256  82.679  87.965  1.00  0.00     0.160 A 
ATOM     10  C   UNL     1      91.507  81.483  87.258  1.00  0.00     0.157 A 
ATOM     11  C   UNL     1      92.259  83.670  88.034  1.00  0.00     0.056 A 
ATOM     12  C   UNL     1      92.750  81.289  86.630  1.00  0.00     0.050 A 
ATOM     13  C   UNL     1      93.736  82.294  86.678  1.00  0.00     0.009 A 
BRANCH   9  14
ATOM     14  O   UNL     1      90.065  82.863  88.613  1.00  0.00    -0.493 OA
ATOM     15  C   UNL     1      90.173  82.829  90.048  1.00  0.00     0.278 C 
ENDBRANCH   9  14
BRANCH  10  16
ATOM     16  O   UNL     1      90.560  80.511  87.176  1.00  0.00    -0.504 OA
ATOM     17  H   UNL     1      90.234  80.458  86.275  1.00  0.00     0.293 HD
ENDBRANCH  10  16
ENDBRANCH   7   8
ENDBRANCH   4   7
ENDBRANCH   2   3
ENDBRANCH   1   2
BRANCH   1  18
ATOM     18  C   UNL     1      97.957  82.816  83.897  1.00  0.00     0.001 C 
BRANCH  18  19
ATOM     19  C   UNL     1      97.512  83.599  82.629  1.00  0.00     0.000 C 
BRANCH  19  20
ATOM     20  C   UNL     1      98.290  83.133  81.367  1.00  0.00     0.000 C 
BRANCH  20  21
ATOM     21  C   UNL     1      97.597  83.491  80.023  1.00  0.00     0.003 C 
BRANCH  21  22
ATOM     22  C   UNL     1      98.268  82.864  78.757  1.00  0.00    -0.017 C 
ATOM     23  C   UNL     1      99.815  82.994  78.841  1.00  0.00     0.007 C 
ATOM     24  C   UNL     1      97.743  83.452  77.415  1.00  0.00     0.007 C 
ENDBRANCH  21  22
ENDBRANCH  20  21
ENDBRANCH  19  20
ENDBRANCH  18  19
ENDBRANCH   1  18
TORSDOF 11
ENDMDL
MODEL 10
REMARK VINA RESULT:    -5.103     18.290     21.484
REMARK INTER + INTRA:          -9.523
REMARK INTER:                  -8.681
REMARK INTRA:                  -0.842
REMARK UNBOUND:                -1.288
REMARK SMILES COc1cc(CNC(=O)CCCCCCC(C)C)ccc1O
REMARK SMILES IDX 11 1 10 2 8 3 7 4 9 6 6 7 5 8 3 9 21 10 4 11 20 12 19 13
REMARK SMILES IDX 2 14 1 15 22 16 12 18 13 19 14 20 15 21 16 22 17 23 18 24
REMARK H PARENT 7 5 22 17
REMARK Flexibility Score: inf
ROOT
ATOM      1  C   UNL     1      74.941  88.390  70.823  1.00  0.00     0.010 C 
ENDROOT
BRANCH   1   2
ATOM      2  C   UNL     1      75.503  89.814  70.558  1.00  0.00     0.100 C 
BRANCH   2   3
ATOM      3  C   UNL     1      74.764  90.877  71.275  1.00  0.00     0.220 C 
ATOM      4  N   UNL     1      73.748  90.555  72.127  1.00  0.00    -0.352 N 
ATOM      5  H   UNL     1      73.535  89.570  72.176  1.00  0.00     0.163 HD
ATOM      6  O   UNL     1      75.109  92.072  71.102  1.00  0.00    -0.275 OA
BRANCH   4   7
ATOM      7  C   UNL     1      73.004  91.490  72.916  1.00  0.00     0.151 C 
BRANCH   7   8
ATOM      8  C   UNL     1      73.521  91.627  74.305  1.00  0.00    -0.025 A 
ATOM      9  C   UNL     1      75.081  92.654  75.905  1.00  0.00     0.160 A 
ATOM     10  C   UNL     1      74.483  91.928  76.958  1.00  0.00     0.157 A 
ATOM     11  C   UNL     1      74.609  92.485  74.587  1.00  0.00     0.056 A 
ATOM     12  C   UNL     1      73.426  91.041  76.685  1.00  0.00     0.050 A 
ATOM     13  C   UNL     1      72.940  90.899  75.370  1.00  0.00     0.009 A 
BRANCH   9  14
ATOM     14  O   UNL     1      76.136  93.489  76.154  1.00  0.00    -0.493 OA
ATOM     15  C   UNL     1      77.383  93.028  75.602  1.00  0.00     0.278 C 
ENDBRANCH   9  14
BRANCH  10  16
ATOM     16  O   UNL     1      74.919  92.070  78.237  1.00  0.00    -0.504 OA
ATOM     17  H   UNL     1      74.186  92.341  78.796  1.00  0.00     0.293 HD
ENDBRANCH  10  16
ENDBRANCH   7   8
ENDBRANCH   4   7
ENDBRANCH   2   3
ENDBRANCH   1   2
BRANCH   1  18
ATOM     18  C   UNL     1      75.733  87.294  70.054  1.00  0.00     0.001 C 
BRANCH  18  19
ATOM     19  C   UNL     1      75.342  85.843  70.452  1.00  0.00     0.000 C 
BRANCH  19  20
ATOM     20  C   UNL     1      76.563  84.883  70.385  1.00  0.00     0.000 C 
BRANCH  20  21
ATOM     21  C   UNL     1      77.867  85.545  69.858  1.00  0.00     0.003 C 
BRANCH  21  22
ATOM     22  C   UNL     1      78.220  85.197  68.376  1.00  0.00    -0.017 C 
ATOM     23  C   UNL     1      77.959  86.420  67.453  1.00  0.00     0.007 C 
ATOM     24  C   UNL     1      77.478  83.939  67.835  1.00  0.00     0.007 C 
ENDBRANCH  21  22
ENDBRANCH  20  21
ENDBRANCH  19  20
ENDBRANCH  18  19
ENDBRANCH   1  18
TORSDOF 11
ENDMDL
