MODEL 1
REMARK VINA RESULT:    -6.242      0.000      0.000
REMARK INTER + INTRA:         -10.798
REMARK INTER:                 -10.074
REMARK INTRA:                  -0.725
REMARK UNBOUND:                -0.725
REMARK SMILES COc1cc(CNC(=O)CCCCCCC(C)C)ccc1O
REMARK SMILES IDX 11 1 10 2 8 3 7 4 9 6 6 7 5 8 3 9 21 10 4 11 20 12 19 13
REMARK SMILES IDX 2 14 1 15 22 16 12 18 13 19 14 20 15 21 16 22 17 23 18 24
REMARK H PARENT 7 5 22 17
REMARK Flexibility Score: inf
ROOT
ATOM      1  C   UNL     1      94.681  99.054  75.582  1.00  0.00     0.010 C 
ENDROOT
BRANCH   1   2
ATOM      2  C   UNL     1      93.241  98.897  75.021  1.00  0.00     0.100 C 
BRANCH   2   3
ATOM      3  C   UNL     1      92.987  99.727  73.822  1.00  0.00     0.220 C 
ATOM      4  N   UNL     1      91.889  99.498  73.046  1.00  0.00    -0.352 N 
ATOM      5  H   UNL     1      91.324  98.714  73.336  1.00  0.00     0.163 HD
ATOM      6  O   UNL     1      93.787 100.656  73.553  1.00  0.00    -0.275 OA
BRANCH   4   7
ATOM      7  C   UNL     1      91.511 100.270  71.901  1.00  0.00     0.151 C 
BRANCH   7   8
ATOM      8  C   UNL     1      90.535  99.573  71.019  1.00  0.00    -0.025 A 
ATOM      9  C   UNL     1      89.044  99.587  69.063  1.00  0.00     0.160 A 
ATOM     10  C   UNL     1      88.707  98.238  69.308  1.00  0.00     0.157 A 
ATOM     11  C   UNL     1      89.939 100.249  69.930  1.00  0.00     0.056 A 
ATOM     12  C   UNL     1      89.263  97.566  70.411  1.00  0.00     0.050 A 
ATOM     13  C   UNL     1      90.179  98.224  71.256  1.00  0.00     0.009 A 
BRANCH   9  14
ATOM     14  O   UNL     1      88.479 100.261  68.015  1.00  0.00    -0.493 OA
ATOM     15  C   UNL     1      89.247 101.394  67.572  1.00  0.00     0.278 C 
ENDBRANCH   9  14
BRANCH  10  16
ATOM     16  O   UNL     1      87.847  97.575  68.490  1.00  0.00    -0.504 OA
ATOM     17  H   UNL     1      87.842  97.993  67.626  1.00  0.00     0.293 HD
ENDBRANCH  10  16
ENDBRANCH   7   8
ENDBRANCH   4   7
ENDBRANCH   2   3
ENDBRANCH   1   2
BRANCH   1  18
ATOM     18  C   UNL     1      95.388  97.682  75.775  1.00  0.00     0.001 C 
BRANCH  18  19
ATOM     19  C   UNL     1      94.509  96.463  75.378  1.00  0.00     0.000 C 
BRANCH  19  20
ATOM     20  C   UNL     1      94.074  95.641  76.624  1.00  0.00     0.000 C 
BRANCH  20  21
ATOM     21  C   UNL     1      92.624  95.087  76.547  1.00  0.00     0.003 C 
BRANCH  21  22
ATOM     22  C   UNL     1      91.762  95.345  77.826  1.00  0.00    -0.017 C 
ATOM     23  C   UNL     1      91.927  94.176  78.838  1.00  0.00     0.007 C 
ATOM     24  C   UNL     1      90.255  95.595  77.524  1.00  0.00     0.007 C 
ENDBRANCH  21  22
ENDBRANCH  20  21
ENDBRANCH  19  20
ENDBRANCH  18  19
ENDBRANCH   1  18
TORSDOF 11
ENDMDL
MODEL 2
REMARK VINA RESULT:    -5.798     17.105     19.449
REMARK INTER + INTRA:         -10.082
REMARK INTER:                  -9.513
REMARK INTRA:                  -0.569
REMARK UNBOUND:                -0.725
REMARK SMILES COc1cc(CNC(=O)CCCCCCC(C)C)ccc1O
REMARK SMILES IDX 11 1 10 2 8 3 7 4 9 6 6 7 5 8 3 9 21 10 4 11 20 12 19 13
REMARK SMILES IDX 2 14 1 15 22 16 12 18 13 19 14 20 15 21 16 22 17 23 18 24
REMARK H PARENT 7 5 22 17
REMARK Flexibility Score: inf
ROOT
ATOM      1  C   UNL     1      96.730  82.717  85.690  1.00  0.00     0.010 C 
ENDROOT
BRANCH   1   2
ATOM      2  C   UNL     1      97.714  83.481  84.762  1.00  0.00     0.100 C 
BRANCH   2   3
ATOM      3  C   UNL     1      98.217  82.659  83.639  1.00  0.00     0.220 C 
ATOM      4  N   UNL     1      98.944  83.232  82.636  1.00  0.00    -0.352 N 
ATOM      5  H   UNL     1      99.054  84.232  82.715  1.00  0.00     0.163 HD
ATOM      6  O   UNL     1      97.983  81.425  83.645  1.00  0.00    -0.275 OA
BRANCH   4   7
ATOM      7  C   UNL     1      99.529  82.529  81.535  1.00  0.00     0.151 C 
BRANCH   7   8
ATOM      8  C   UNL     1      98.993  82.958  80.214  1.00  0.00    -0.025 A 
ATOM      9  C   UNL     1      99.330  83.384  77.815  1.00  0.00     0.160 A 
ATOM     10  C   UNL     1      97.968  83.732  77.683  1.00  0.00     0.157 A 
ATOM     11  C   UNL     1      99.836  83.019  79.081  1.00  0.00     0.056 A 
ATOM     12  C   UNL     1      97.128  83.714  78.811  1.00  0.00     0.050 A 
ATOM     13  C   UNL     1      97.633  83.319  80.066  1.00  0.00     0.009 A 
BRANCH   9  14
ATOM     14  O   UNL     1     100.165  83.437  76.732  1.00  0.00    -0.493 OA
ATOM     15  C   UNL     1     101.532  83.108  77.037  1.00  0.00     0.278 C 
ENDBRANCH   9  14
BRANCH  10  16
ATOM     16  O   UNL     1      97.455  84.090  76.477  1.00  0.00    -0.504 OA
ATOM     17  H   UNL     1      96.849  84.826  76.593  1.00  0.00     0.293 HD
ENDBRANCH  10  16
ENDBRANCH   7   8
ENDBRANCH   4   7
ENDBRANCH   2   3
ENDBRANCH   1   2
BRANCH   1  18
ATOM     18  C   UNL     1      96.228  83.600  86.868  1.00  0.00     0.001 C 
BRANCH  18  19
ATOM     19  C   UNL     1      94.719  83.414  87.192  1.00  0.00     0.000 C 
BRANCH  19  20
ATOM     20  C   UNL     1      94.131  82.163  86.480  1.00  0.00     0.000 C 
BRANCH  20  21
ATOM     21  C   UNL     1      92.793  81.656  87.086  1.00  0.00     0.003 C 
BRANCH  21  22
ATOM     22  C   UNL     1      91.732  81.202  86.030  1.00  0.00    -0.017 C 
ATOM     23  C   UNL     1      90.392  81.959  86.246  1.00  0.00     0.007 C 
ATOM     24  C   UNL     1      91.492  79.664  86.006  1.00  0.00     0.007 C 
ENDBRANCH  21  22
ENDBRANCH  20  21
ENDBRANCH  19  20
ENDBRANCH  18  19
ENDBRANCH   1  18
TORSDOF 11
ENDMDL
MODEL 3
REMARK VINA RESULT:    -5.731      6.136      9.932
REMARK INTER + INTRA:          -9.973
REMARK INTER:                  -9.037
REMARK INTRA:                  -0.936
REMARK UNBOUND:                -0.725
REMARK SMILES COc1cc(CNC(=O)CCCCCCC(C)C)ccc1O
REMARK SMILES IDX 11 1 10 2 8 3 7 4 9 6 6 7 5 8 3 9 21 10 4 11 20 12 19 13
REMARK SMILES IDX 2 14 1 15 22 16 12 18 13 19 14 20 15 21 16 22 17 23 18 24
REMARK H PARENT 7 5 22 17
REMARK Flexibility Score: inf
ROOT
ATOM      1  C   UNL     1      94.566  97.248  75.051  1.00  0.00     0.010 C 
ENDROOT
BRANCH   1   2
ATOM      2  C   UNL     1      94.954  98.626  75.653  1.00  0.00     0.100 C 
BRANCH   2   3
ATOM      3  C   UNL     1      96.056  98.545  76.638  1.00  0.00     0.220 C 
ATOM      4  N   UNL     1      95.786  98.528  77.975  1.00  0.00    -0.352 N 
ATOM      5  H   UNL     1      94.808  98.620  78.208  1.00  0.00     0.163 HD
ATOM      6  O   UNL     1      97.236  98.467  76.216  1.00  0.00    -0.275 OA
BRANCH   4   7
ATOM      7  C   UNL     1      96.762  98.394  79.014  1.00  0.00     0.151 C 
BRANCH   7   8
ATOM      8  C   UNL     1      96.355  97.440  80.082  1.00  0.00    -0.025 A 
ATOM      9  C   UNL     1      96.496  96.663  82.411  1.00  0.00     0.160 A 
ATOM     10  C   UNL     1      95.550  95.653  82.134  1.00  0.00     0.157 A 
ATOM     11  C   UNL     1      96.905  97.536  81.380  1.00  0.00     0.056 A 
ATOM     12  C   UNL     1      95.025  95.522  80.836  1.00  0.00     0.050 A 
ATOM     13  C   UNL     1      95.415  96.415  79.819  1.00  0.00     0.009 A 
BRANCH   9  14
ATOM     14  O   UNL     1      97.043  96.774  83.660  1.00  0.00    -0.493 OA
ATOM     15  C   UNL     1      96.366  97.720  84.508  1.00  0.00     0.278 C 
ENDBRANCH   9  14
BRANCH  10  16
ATOM     16  O   UNL     1      95.140  94.797  83.107  1.00  0.00    -0.504 OA
ATOM     17  H   UNL     1      95.188  95.236  83.960  1.00  0.00     0.293 HD
ENDBRANCH  10  16
ENDBRANCH   7   8
ENDBRANCH   4   7
ENDBRANCH   2   3
ENDBRANCH   1   2
BRANCH   1  18
ATOM     18  C   UNL     1      94.495  96.133  76.133  1.00  0.00     0.001 C 
BRANCH  18  19
ATOM     19  C   UNL     1      93.077  95.520  76.309  1.00  0.00     0.000 C 
BRANCH  19  20
ATOM     20  C   UNL     1      92.984  94.653  77.596  1.00  0.00     0.000 C 
BRANCH  20  21
ATOM     21  C   UNL     1      91.811  93.634  77.594  1.00  0.00     0.003 C 
BRANCH  21  22
ATOM     22  C   UNL     1      90.496  94.155  78.260  1.00  0.00    -0.017 C 
ATOM     23  C   UNL     1      89.616  92.963  78.731  1.00  0.00     0.007 C 
ATOM     24  C   UNL     1      89.673  95.115  77.352  1.00  0.00     0.007 C 
ENDBRANCH  21  22
ENDBRANCH  20  21
ENDBRANCH  19  20
ENDBRANCH  18  19
ENDBRANCH   1  18
TORSDOF 11
ENDMDL
MODEL 4
REMARK VINA RESULT:    -5.662     17.127     18.964
REMARK INTER + INTRA:          -9.863
REMARK INTER:                  -9.234
REMARK INTRA:                  -0.629
REMARK UNBOUND:                -0.725
REMARK SMILES COc1cc(CNC(=O)CCCCCCC(C)C)ccc1O
REMARK SMILES IDX 11 1 10 2 8 3 7 4 9 6 6 7 5 8 3 9 21 10 4 11 20 12 19 13
REMARK SMILES IDX 2 14 1 15 22 16 12 18 13 19 14 20 15 21 16 22 17 23 18 24
REMARK H PARENT 7 5 22 17
REMARK Flexibility Score: inf
ROOT
ATOM      1  C   UNL     1      96.603  83.405  85.860  1.00  0.00     0.010 C 
ENDROOT
BRANCH   1   2
ATOM      2  C   UNL     1      96.973  84.031  84.487  1.00  0.00     0.100 C 
BRANCH   2   3
ATOM      3  C   UNL     1      97.715  83.105  83.603  1.00  0.00     0.220 C 
ATOM      4  N   UNL     1      98.299  83.564  82.458  1.00  0.00    -0.352 N 
ATOM      5  H   UNL     1      98.140  84.542  82.267  1.00  0.00     0.163 HD
ATOM      6  O   UNL     1      97.815  81.900  83.941  1.00  0.00    -0.275 OA
BRANCH   4   7
ATOM      7  C   UNL     1      99.088  82.776  81.560  1.00  0.00     0.151 C 
BRANCH   7   8
ATOM      8  C   UNL     1      98.766  83.023  80.127  1.00  0.00    -0.025 A 
ATOM      9  C   UNL     1      99.432  82.995  77.760  1.00  0.00     0.160 A 
ATOM     10  C   UNL     1      98.146  83.447  77.391  1.00  0.00     0.157 A 
ATOM     11  C   UNL     1      99.737  82.805  79.124  1.00  0.00     0.056 A 
ATOM     12  C   UNL     1      97.183  83.705  78.383  1.00  0.00     0.050 A 
ATOM     13  C   UNL     1      97.485  83.485  79.741  1.00  0.00     0.009 A 
BRANCH   9  14
ATOM     14  O   UNL     1     100.388  82.779  76.805  1.00  0.00    -0.493 OA
ATOM     15  C   UNL     1     101.707  83.198  77.201  1.00  0.00     0.278 C 
ENDBRANCH   9  14
BRANCH  10  16
ATOM     16  O   UNL     1      97.824  83.641  76.085  1.00  0.00    -0.504 OA
ATOM     17  H   UNL     1      97.982  84.558  75.850  1.00  0.00     0.293 HD
ENDBRANCH  10  16
ENDBRANCH   7   8
ENDBRANCH   4   7
ENDBRANCH   2   3
ENDBRANCH   1   2
BRANCH   1  18
ATOM     18  C   UNL     1      96.949  84.348  87.047  1.00  0.00     0.001 C 
BRANCH  18  19
ATOM     19  C   UNL     1      95.826  84.443  88.119  1.00  0.00     0.000 C 
BRANCH  19  20
ATOM     20  C   UNL     1      95.051  85.787  88.019  1.00  0.00     0.000 C 
BRANCH  20  21
ATOM     21  C   UNL     1      95.958  87.049  88.044  1.00  0.00     0.003 C 
BRANCH  21  22
ATOM     22  C   UNL     1      95.574  88.103  89.133  1.00  0.00    -0.017 C 
ATOM     23  C   UNL     1      96.823  88.924  89.560  1.00  0.00     0.007 C 
ATOM     24  C   UNL     1      94.874  87.487  90.381  1.00  0.00     0.007 C 
ENDBRANCH  21  22
ENDBRANCH  20  21
ENDBRANCH  19  20
ENDBRANCH  18  19
ENDBRANCH   1  18
TORSDOF 11
ENDMDL
MODEL 5
REMARK VINA RESULT:    -5.510     18.373     20.889
REMARK INTER + INTRA:          -9.617
REMARK INTER:                  -8.873
REMARK INTRA:                  -0.744
REMARK UNBOUND:                -0.725
REMARK SMILES COc1cc(CNC(=O)CCCCCCC(C)C)ccc1O
REMARK SMILES IDX 11 1 10 2 8 3 7 4 9 6 6 7 5 8 3 9 21 10 4 11 20 12 19 13
REMARK SMILES IDX 2 14 1 15 22 16 12 18 13 19 14 20 15 21 16 22 17 23 18 24
REMARK H PARENT 7 5 22 17
REMARK Flexibility Score: inf
ROOT
ATOM      1  C   UNL     1      98.445  82.615  83.935  1.00  0.00     0.010 C 
ENDROOT
BRANCH   1   2
ATOM      2  C   UNL     1      97.346  83.709  84.029  1.00  0.00     0.100 C 
BRANCH   2   3
ATOM      3  C   UNL     1      96.911  83.983  85.417  1.00  0.00     0.220 C 
ATOM      4  N   UNL     1      95.634  83.705  85.807  1.00  0.00    -0.352 N 
ATOM      5  H   UNL     1      95.036  83.354  85.073  1.00  0.00     0.163 HD
ATOM      6  O   UNL     1      97.747  84.451  86.228  1.00  0.00    -0.275 OA
BRANCH   4   7
ATOM      7  C   UNL     1      95.119  83.872  87.132  1.00  0.00     0.151 C 
BRANCH   7   8
ATOM      8  C   UNL     1      93.728  83.365  87.290  1.00  0.00    -0.025 A 
ATOM      9  C   UNL     1      91.458  83.622  88.202  1.00  0.00     0.160 A 
ATOM     10  C   UNL     1      91.063  82.428  87.560  1.00  0.00     0.157 A 
ATOM     11  C   UNL     1      92.790  84.071  88.078  1.00  0.00     0.056 A 
ATOM     12  C   UNL     1      91.998  81.696  86.806  1.00  0.00     0.050 A 
ATOM     13  C   UNL     1      93.318  82.165  86.662  1.00  0.00     0.009 A 
BRANCH   9  14
ATOM     14  O   UNL     1      90.568  84.321  88.970  1.00  0.00    -0.493 OA
ATOM     15  C   UNL     1      90.902  84.344  90.369  1.00  0.00     0.278 C 
ENDBRANCH   9  14
BRANCH  10  16
ATOM     16  O   UNL     1      89.787  81.971  87.663  1.00  0.00    -0.504 OA
ATOM     17  H   UNL     1      89.515  81.591  86.825  1.00  0.00     0.293 HD
ENDBRANCH  10  16
ENDBRANCH   7   8
ENDBRANCH   4   7
ENDBRANCH   2   3
ENDBRANCH   1   2
BRANCH   1  18
ATOM     18  C   UNL     1      98.677  82.141  82.472  1.00  0.00     0.001 C 
BRANCH  18  19
ATOM     19  C   UNL     1     100.134  82.348  81.969  1.00  0.00     0.000 C 
BRANCH  19  20
ATOM     20  C   UNL     1     100.254  82.089  80.441  1.00  0.00     0.000 C 
BRANCH  20  21
ATOM     21  C   UNL     1      98.963  81.524  79.787  1.00  0.00     0.003 C 
BRANCH  21  22
ATOM     22  C   UNL     1      98.325  82.451  78.701  1.00  0.00    -0.017 C 
ATOM     23  C   UNL     1      99.428  83.263  77.964  1.00  0.00     0.007 C 
ATOM     24  C   UNL     1      97.227  83.404  79.258  1.00  0.00     0.007 C 
ENDBRANCH  21  22
ENDBRANCH  20  21
ENDBRANCH  19  20
ENDBRANCH  18  19
ENDBRANCH   1  18
TORSDOF 11
ENDMDL
MODEL 6
REMARK VINA RESULT:    -5.499     15.586     18.238
REMARK INTER + INTRA:          -9.600
REMARK INTER:                  -8.736
REMARK INTRA:                  -0.864
REMARK UNBOUND:                -0.725
REMARK SMILES COc1cc(CNC(=O)CCCCCCC(C)C)ccc1O
REMARK SMILES IDX 11 1 10 2 8 3 7 4 9 6 6 7 5 8 3 9 21 10 4 11 20 12 19 13
REMARK SMILES IDX 2 14 1 15 22 16 12 18 13 19 14 20 15 21 16 22 17 23 18 24
REMARK H PARENT 7 5 22 17
REMARK Flexibility Score: inf
ROOT
ATOM      1  C   UNL     1      76.183  91.940  72.030  1.00  0.00     0.010 C 
ENDROOT
BRANCH   1   2
ATOM      2  C   UNL     1      75.253  91.406  70.906  1.00  0.00     0.100 C 
BRANCH   2   3
ATOM      3  C   UNL     1      74.767  90.030  71.153  1.00  0.00     0.220 C 
ATOM      4  N   UNL     1      75.355  88.969  70.528  1.00  0.00    -0.352 N 
ATOM      5  H   UNL     1      76.087  89.215  69.879  1.00  0.00     0.163 HD
ATOM      6  O   UNL     1      73.824  89.861  71.964  1.00  0.00    -0.275 OA
BRANCH   4   7
ATOM      7  C   UNL     1      75.010  87.595  70.732  1.00  0.00     0.151 C 
BRANCH   7   8
ATOM      8  C   UNL     1      75.909  86.651  70.013  1.00  0.00    -0.025 A 
ATOM      9  C   UNL     1      77.478  86.185  68.178  1.00  0.00     0.160 A 
ATOM     10  C   UNL     1      77.658  84.871  68.662  1.00  0.00     0.157 A 
ATOM     11  C   UNL     1      76.592  87.057  68.845  1.00  0.00     0.056 A 
ATOM     12  C   UNL     1      76.953  84.442  69.801  1.00  0.00     0.050 A 
ATOM     13  C   UNL     1      76.093  85.328  70.479  1.00  0.00     0.009 A 
BRANCH   9  14
ATOM     14  O   UNL     1      78.128  86.600  67.047  1.00  0.00    -0.493 OA
ATOM     15  C   UNL     1      77.245  87.020  65.992  1.00  0.00     0.278 C 
ENDBRANCH   9  14
BRANCH  10  16
ATOM     16  O   UNL     1      78.503  84.009  68.039  1.00  0.00    -0.504 OA
ATOM     17  H   UNL     1      79.311  84.470  67.800  1.00  0.00     0.293 HD
ENDBRANCH  10  16
ENDBRANCH   7   8
ENDBRANCH   4   7
ENDBRANCH   2   3
ENDBRANCH   1   2
BRANCH   1  18
ATOM     18  C   UNL     1      76.831  93.304  71.658  1.00  0.00     0.001 C 
BRANCH  18  19
ATOM     19  C   UNL     1      78.182  93.573  72.378  1.00  0.00     0.000 C 
BRANCH  19  20
ATOM     20  C   UNL     1      78.137  94.888  73.206  1.00  0.00     0.000 C 
BRANCH  20  21
ATOM     21  C   UNL     1      77.261  94.806  74.486  1.00  0.00     0.003 C 
BRANCH  21  22
ATOM     22  C   UNL     1      77.614  93.619  75.441  1.00  0.00    -0.017 C 
ATOM     23  C   UNL     1      76.356  92.747  75.713  1.00  0.00     0.007 C 
ATOM     24  C   UNL     1      78.267  94.067  76.781  1.00  0.00     0.007 C 
ENDBRANCH  21  22
ENDBRANCH  20  21
ENDBRANCH  19  20
ENDBRANCH  18  19
ENDBRANCH   1  18
TORSDOF 11
ENDMDL
MODEL 7
REMARK VINA RESULT:    -5.478      7.483     10.984
REMARK INTER + INTRA:          -9.565
REMARK INTER:                  -8.549
REMARK INTRA:                  -1.016
REMARK UNBOUND:                -0.725
REMARK SMILES COc1cc(CNC(=O)CCCCCCC(C)C)ccc1O
REMARK SMILES IDX 11 1 10 2 8 3 7 4 9 6 6 7 5 8 3 9 21 10 4 11 20 12 19 13
REMARK SMILES IDX 2 14 1 15 22 16 12 18 13 19 14 20 15 21 16 22 17 23 18 24
REMARK H PARENT 7 5 22 17
REMARK Flexibility Score: inf
ROOT
ATOM      1  C   UNL     1      94.561  95.630  79.141  1.00  0.00     0.010 C 
ENDROOT
BRANCH   1   2
ATOM      2  C   UNL     1      95.745  94.882  79.812  1.00  0.00     0.100 C 
BRANCH   2   3
ATOM      3  C   UNL     1      96.049  95.370  81.176  1.00  0.00     0.220 C 
ATOM      4  N   UNL     1      95.069  95.936  81.939  1.00  0.00    -0.352 N 
ATOM      5  H   UNL     1      94.174  96.022  81.480  1.00  0.00     0.163 HD
ATOM      6  O   UNL     1      97.215  95.231  81.620  1.00  0.00    -0.275 OA
BRANCH   4   7
ATOM      7  C   UNL     1      95.230  96.390  83.287  1.00  0.00     0.151 C 
BRANCH   7   8
ATOM      8  C   UNL     1      95.728  97.790  83.379  1.00  0.00    -0.025 A 
ATOM      9  C   UNL     1      95.795 100.088  82.506  1.00  0.00     0.160 A 
ATOM     10  C   UNL     1      96.637 100.471  83.572  1.00  0.00     0.157 A 
ATOM     11  C   UNL     1      95.363  98.748  82.407  1.00  0.00     0.056 A 
ATOM     12  C   UNL     1      97.039  99.517  84.525  1.00  0.00     0.050 A 
ATOM     13  C   UNL     1      96.580  98.188  84.436  1.00  0.00     0.009 A 
BRANCH   9  14
ATOM     14  O   UNL     1      95.430 100.999  81.552  1.00  0.00    -0.493 OA
ATOM     15  C   UNL     1      96.162 100.873  80.320  1.00  0.00     0.278 C 
ENDBRANCH   9  14
BRANCH  10  16
ATOM     16  O   UNL     1      97.070 101.754  83.692  1.00  0.00    -0.504 OA
ATOM     17  H   UNL     1      96.532 102.325  83.138  1.00  0.00     0.293 HD
ENDBRANCH  10  16
ENDBRANCH   7   8
ENDBRANCH   4   7
ENDBRANCH   2   3
ENDBRANCH   1   2
BRANCH   1  18
ATOM     18  C   UNL     1      95.004  96.412  77.872  1.00  0.00     0.001 C 
BRANCH  18  19
ATOM     19  C   UNL     1      94.452  95.817  76.546  1.00  0.00     0.000 C 
BRANCH  19  20
ATOM     20  C   UNL     1      93.166  94.978  76.786  1.00  0.00     0.000 C 
BRANCH  20  21
ATOM     21  C   UNL     1      91.856  95.812  76.814  1.00  0.00     0.003 C 
BRANCH  21  22
ATOM     22  C   UNL     1      90.818  95.357  77.891  1.00  0.00    -0.017 C 
ATOM     23  C   UNL     1      91.320  94.083  78.627  1.00  0.00     0.007 C 
ATOM     24  C   UNL     1      89.386  95.130  77.323  1.00  0.00     0.007 C 
ENDBRANCH  21  22
ENDBRANCH  20  21
ENDBRANCH  19  20
ENDBRANCH  18  19
ENDBRANCH   1  18
TORSDOF 11
ENDMDL
MODEL 8
REMARK VINA RESULT:    -5.282     17.495     20.366
REMARK INTER + INTRA:          -9.249
REMARK INTER:                  -8.529
REMARK INTRA:                  -0.719
REMARK UNBOUND:                -0.725
REMARK SMILES COc1cc(CNC(=O)CCCCCCC(C)C)ccc1O
REMARK SMILES IDX 11 1 10 2 8 3 7 4 9 6 6 7 5 8 3 9 21 10 4 11 20 12 19 13
REMARK SMILES IDX 2 14 1 15 22 16 12 18 13 19 14 20 15 21 16 22 17 23 18 24
REMARK H PARENT 7 5 22 17
REMARK Flexibility Score: inf
ROOT
ATOM      1  C   UNL     1      98.181  83.281  80.485  1.00  0.00     0.010 C 
ENDROOT
BRANCH   1   2
ATOM      2  C   UNL     1      99.217  82.296  81.094  1.00  0.00     0.100 C 
BRANCH   2   3
ATOM      3  C   UNL     1      99.101  82.160  82.563  1.00  0.00     0.220 C 
ATOM      4  N   UNL     1      97.880  82.228  83.167  1.00  0.00    -0.352 N 
ATOM      5  H   UNL     1      97.111  82.418  82.542  1.00  0.00     0.163 HD
ATOM      6  O   UNL     1     100.144  81.956  83.233  1.00  0.00    -0.275 OA
BRANCH   4   7
ATOM      7  C   UNL     1      97.640  82.053  84.567  1.00  0.00     0.151 C 
BRANCH   7   8
ATOM      8  C   UNL     1      97.198  83.301  85.248  1.00  0.00    -0.025 A 
ATOM      9  C   UNL     1      96.022  84.417  87.097  1.00  0.00     0.160 A 
ATOM     10  C   UNL     1      96.390  85.676  86.575  1.00  0.00     0.157 A 
ATOM     11  C   UNL     1      96.412  83.242  86.421  1.00  0.00     0.056 A 
ATOM     12  C   UNL     1      97.140  85.749  85.386  1.00  0.00     0.050 A 
ATOM     13  C   UNL     1      97.551  84.571  84.732  1.00  0.00     0.009 A 
BRANCH   9  14
ATOM     14  O   UNL     1      95.259  84.335  88.230  1.00  0.00    -0.493 OA
ATOM     15  C   UNL     1      95.748  83.381  89.190  1.00  0.00     0.278 C 
ENDBRANCH   9  14
BRANCH  10  16
ATOM     16  O   UNL     1      96.027  86.824  87.204  1.00  0.00    -0.504 OA
ATOM     17  H   UNL     1      95.120  86.748  87.509  1.00  0.00     0.293 HD
ENDBRANCH  10  16
ENDBRANCH   7   8
ENDBRANCH   4   7
ENDBRANCH   2   3
ENDBRANCH   1   2
BRANCH   1  18
ATOM     18  C   UNL     1      97.732  82.852  79.059  1.00  0.00     0.001 C 
BRANCH  18  19
ATOM     19  C   UNL     1      98.817  83.073  77.968  1.00  0.00     0.000 C 
BRANCH  19  20
ATOM     20  C   UNL     1      98.294  83.976  76.815  1.00  0.00     0.000 C 
BRANCH  20  21
ATOM     21  C   UNL     1      99.386  84.404  75.796  1.00  0.00     0.003 C 
BRANCH  21  22
ATOM     22  C   UNL     1     100.784  83.740  76.022  1.00  0.00    -0.017 C 
ATOM     23  C   UNL     1     101.904  84.818  76.025  1.00  0.00     0.007 C 
ATOM     24  C   UNL     1     101.114  82.614  74.999  1.00  0.00     0.007 C 
ENDBRANCH  21  22
ENDBRANCH  20  21
ENDBRANCH  19  20
ENDBRANCH  18  19
ENDBRANCH   1  18
TORSDOF 11
ENDMDL
MODEL 9
REMARK VINA RESULT:    -5.207      3.709      5.433
REMARK INTER + INTRA:          -9.129
REMARK INTER:                  -7.854
REMARK INTRA:                  -1.275
REMARK UNBOUND:                -0.725
REMARK SMILES COc1cc(CNC(=O)CCCCCCC(C)C)ccc1O
REMARK SMILES IDX 11 1 10 2 8 3 7 4 9 6 6 7 5 8 3 9 21 10 4 11 20 12 19 13
REMARK SMILES IDX 2 14 1 15 22 16 12 18 13 19 14 20 15 21 16 22 17 23 18 24
REMARK H PARENT 7 5 22 17
REMARK Flexibility Score: inf
ROOT
ATOM      1  C   UNL     1      93.702  95.318  76.640  1.00  0.00     0.010 C 
ENDROOT
BRANCH   1   2
ATOM      2  C   UNL     1      92.926  96.631  76.346  1.00  0.00     0.100 C 
BRANCH   2   3
ATOM      3  C   UNL     1      93.780  97.703  75.786  1.00  0.00     0.220 C 
ATOM      4  N   UNL     1      95.099  97.469  75.530  1.00  0.00    -0.352 N 
ATOM      5  H   UNL     1      95.423  96.550  75.793  1.00  0.00     0.163 HD
ATOM      6  O   UNL     1      93.258  98.816  75.530  1.00  0.00    -0.275 OA
BRANCH   4   7
ATOM      7  C   UNL     1      96.005  98.406  74.937  1.00  0.00     0.151 C 
BRANCH   7   8
ATOM      8  C   UNL     1      95.946  98.418  73.450  1.00  0.00    -0.025 A 
ATOM      9  C   UNL     1      95.281  99.518  71.353  1.00  0.00     0.160 A 
ATOM     10  C   UNL     1      95.870  98.469  70.613  1.00  0.00     0.157 A 
ATOM     11  C   UNL     1      95.307  99.475  72.763  1.00  0.00     0.056 A 
ATOM     12  C   UNL     1      96.476  97.392  71.286  1.00  0.00     0.050 A 
ATOM     13  C   UNL     1      96.524  97.371  72.693  1.00  0.00     0.009 A 
BRANCH   9  14
ATOM     14  O   UNL     1      94.655 100.550  70.709  1.00  0.00    -0.493 OA
ATOM     15  C   UNL     1      93.218 100.496  70.786  1.00  0.00     0.278 C 
ENDBRANCH   9  14
BRANCH  10  16
ATOM     16  O   UNL     1      95.859  98.484  69.254  1.00  0.00    -0.504 OA
ATOM     17  H   UNL     1      96.011  97.595  68.924  1.00  0.00     0.293 HD
ENDBRANCH  10  16
ENDBRANCH   7   8
ENDBRANCH   4   7
ENDBRANCH   2   3
ENDBRANCH   1   2
BRANCH   1  18
ATOM     18  C   UNL     1      92.925  94.381  77.608  1.00  0.00     0.001 C 
BRANCH  18  19
ATOM     19  C   UNL     1      93.599  94.219  79.000  1.00  0.00     0.000 C 
BRANCH  19  20
ATOM     20  C   UNL     1      95.149  94.190  78.884  1.00  0.00     0.000 C 
BRANCH  20  21
ATOM     21  C   UNL     1      95.873  95.257  79.751  1.00  0.00     0.003 C 
BRANCH  21  22
ATOM     22  C   UNL     1      95.099  96.607  79.902  1.00  0.00    -0.017 C 
ATOM     23  C   UNL     1      95.811  97.735  79.104  1.00  0.00     0.007 C 
ATOM     24  C   UNL     1      94.881  97.041  81.382  1.00  0.00     0.007 C 
ENDBRANCH  21  22
ENDBRANCH  20  21
ENDBRANCH  19  20
ENDBRANCH  18  19
ENDBRANCH   1  18
TORSDOF 11
ENDMDL
MODEL 10
REMARK VINA RESULT:    -5.144     19.590     22.602
REMARK INTER + INTRA:          -9.026
REMARK INTER:                  -7.914
REMARK INTRA:                  -1.112
REMARK UNBOUND:                -0.725
REMARK SMILES COc1cc(CNC(=O)CCCCCCC(C)C)ccc1O
REMARK SMILES IDX 11 1 10 2 8 3 7 4 9 6 6 7 5 8 3 9 21 10 4 11 20 12 19 13
REMARK SMILES IDX 2 14 1 15 22 16 12 18 13 19 14 20 15 21 16 22 17 23 18 24
REMARK H PARENT 7 5 22 17
REMARK Flexibility Score: inf
ROOT
ATOM      1  C   UNL     1      93.107  78.498  86.554  1.00  0.00     0.010 C 
ENDROOT
BRANCH   1   2
ATOM      2  C   UNL     1      94.350  77.567  86.555  1.00  0.00     0.100 C 
BRANCH   2   3
ATOM      3  C   UNL     1      95.630  78.300  86.682  1.00  0.00     0.220 C 
ATOM      4  N   UNL     1      95.638  79.660  86.786  1.00  0.00    -0.352 N 
ATOM      5  H   UNL     1      94.728  80.092  86.724  1.00  0.00     0.163 HD
ATOM      6  O   UNL     1      96.699  77.642  86.715  1.00  0.00    -0.275 OA
BRANCH   4   7
ATOM      7  C   UNL     1      96.805  80.468  86.971  1.00  0.00     0.151 C 
BRANCH   7   8
ATOM      8  C   UNL     1      97.182  81.240  85.755  1.00  0.00    -0.025 A 
ATOM      9  C   UNL     1      97.261  83.366  84.522  1.00  0.00     0.160 A 
ATOM     10  C   UNL     1      97.938  82.728  83.460  1.00  0.00     0.157 A 
ATOM     11  C   UNL     1      96.872  82.615  85.651  1.00  0.00     0.056 A 
ATOM     12  C   UNL     1      98.218  81.351  83.535  1.00  0.00     0.050 A 
ATOM     13  C   UNL     1      97.853  80.613  84.678  1.00  0.00     0.009 A 
BRANCH   9  14
ATOM     14  O   UNL     1      96.949  84.696  84.442  1.00  0.00    -0.493 OA
ATOM     15  C   UNL     1      96.885  85.354  85.720  1.00  0.00     0.278 C 
ENDBRANCH   9  14
BRANCH  10  16
ATOM     16  O   UNL     1      98.323  83.426  82.359  1.00  0.00    -0.504 OA
ATOM     17  H   UNL     1      97.815  84.239  82.303  1.00  0.00     0.293 HD
ENDBRANCH  10  16
ENDBRANCH   7   8
ENDBRANCH   4   7
ENDBRANCH   2   3
ENDBRANCH   1   2
BRANCH   1  18
ATOM     18  C   UNL     1      92.001  78.000  85.581  1.00  0.00     0.001 C 
BRANCH  18  19
ATOM     19  C   UNL     1      91.049  79.125  85.085  1.00  0.00     0.000 C 
BRANCH  19  20
ATOM     20  C   UNL     1      91.459  80.513  85.653  1.00  0.00     0.000 C 
BRANCH  20  21
ATOM     21  C   UNL     1      90.365  81.195  86.521  1.00  0.00     0.003 C 
BRANCH  21  22
ATOM     22  C   UNL     1      90.696  81.266  88.047  1.00  0.00    -0.017 C 
ATOM     23  C   UNL     1      90.309  79.934  88.750  1.00  0.00     0.007 C 
ATOM     24  C   UNL     1      90.039  82.476  88.774  1.00  0.00     0.007 C 
ENDBRANCH  21  22
ENDBRANCH  20  21
ENDBRANCH  19  20
ENDBRANCH  18  19
ENDBRANCH   1  18
TORSDOF 11
ENDMDL
