MODEL 1
REMARK VINA RESULT:    -5.187      0.000      0.000
REMARK INTER + INTRA:         -10.487
REMARK INTER:                  -8.371
REMARK INTRA:                  -2.116
REMARK UNBOUND:                -2.116
REMARK SMILES COc1cc(CNC(=O)CCCCC/C=C/C(C)C)ccc1O
REMARK SMILES IDX 11 1 10 2 8 3 7 4 9 6 6 7 5 8 3 9 22 10 4 11 21 12 20 13
REMARK SMILES IDX 2 14 1 15 23 16 12 18 13 19 14 20 15 21 16 22 17 23 18 24
REMARK SMILES IDX 19 25
REMARK H PARENT 7 5 23 17
REMARK Flexibility Score: inf
ROOT
ATOM      1  C   UNL     1      97.445  82.030  77.399  1.00  0.00     0.010 C 
ENDROOT
BRANCH   1   2
ATOM      2  C   UNL     1      96.958  83.469  77.710  1.00  0.00     0.100 C 
BRANCH   2   3
ATOM      3  C   UNL     1      96.821  84.327  76.518  1.00  0.00     0.220 C 
ATOM      4  N   UNL     1      97.560  84.064  75.405  1.00  0.00    -0.352 N 
ATOM      5  H   UNL     1      98.227  83.312  75.510  1.00  0.00     0.163 HD
ATOM      6  O   UNL     1      95.987  85.262  76.551  1.00  0.00    -0.275 OA
BRANCH   4   7
ATOM      7  C   UNL     1      97.455  84.750  74.159  1.00  0.00     0.151 C 
BRANCH   7   8
ATOM      8  C   UNL     1      98.460  84.289  73.165  1.00  0.00    -0.025 A 
ATOM      9  C   UNL     1      99.493  82.484  71.854  1.00  0.00     0.160 A 
ATOM     10  C   UNL     1     100.413  83.407  71.310  1.00  0.00     0.157 A 
ATOM     11  C   UNL     1      98.531  82.929  72.782  1.00  0.00     0.056 A 
ATOM     12  C   UNL     1     100.340  84.764  71.670  1.00  0.00     0.050 A 
ATOM     13  C   UNL     1      99.364  85.205  72.583  1.00  0.00     0.009 A 
BRANCH   9  14
ATOM     14  O   UNL     1      99.499  81.177  71.443  1.00  0.00    -0.493 OA
ATOM     15  C   UNL     1      98.501  80.866  70.456  1.00  0.00     0.278 C 
ENDBRANCH   9  14
BRANCH  10  16
ATOM     16  O   UNL     1     101.372  83.013  70.435  1.00  0.00    -0.504 OA
ATOM     17  H   UNL     1     102.103  82.620  70.918  1.00  0.00     0.293 HD
ENDBRANCH  10  16
ENDBRANCH   7   8
ENDBRANCH   4   7
ENDBRANCH   2   3
ENDBRANCH   1   2
BRANCH   1  18
ATOM     18  C   UNL     1      98.425  81.523  78.487  1.00  0.00     0.001 C 
BRANCH  18  19
ATOM     19  C   UNL     1      99.916  81.616  78.074  1.00  0.00     0.004 C 
BRANCH  19  20
ATOM     20  C   UNL     1     100.070  81.763  76.535  1.00  0.00     0.027 C 
BRANCH  20  21
ATOM     21  C   UNL     1     101.043  82.767  76.138  1.00  0.00    -0.031 C 
ATOM     22  C   UNL     1     101.544  82.829  74.892  1.00  0.00    -0.028 C 
BRANCH  22  23
ATOM     23  C   UNL     1     102.519  83.828  74.460  1.00  0.00     0.005 C 
ATOM     24  C   UNL     1     102.111  85.234  74.975  1.00  0.00     0.012 C 
ATOM     25  C   UNL     1     103.945  83.422  74.923  1.00  0.00     0.012 C 
ENDBRANCH  22  23
ENDBRANCH  20  21
ENDBRANCH  19  20
ENDBRANCH  18  19
ENDBRANCH   1  18
TORSDOF 11
ENDMDL
MODEL 2
REMARK VINA RESULT:    -4.959     23.997     26.052
REMARK INTER + INTRA:         -10.119
REMARK INTER:                  -9.386
REMARK INTRA:                  -0.733
REMARK UNBOUND:                -2.116
REMARK SMILES COc1cc(CNC(=O)CCCCC/C=C/C(C)C)ccc1O
REMARK SMILES IDX 11 1 10 2 8 3 7 4 9 6 6 7 5 8 3 9 22 10 4 11 21 12 20 13
REMARK SMILES IDX 2 14 1 15 23 16 12 18 13 19 14 20 15 21 16 22 17 23 18 24
REMARK SMILES IDX 19 25
REMARK H PARENT 7 5 23 17
REMARK Flexibility Score: inf
ROOT
ATOM      1  C   UNL     1      74.160  89.893  70.747  1.00  0.00     0.010 C 
ENDROOT
BRANCH   1   2
ATOM      2  C   UNL     1      73.052  90.949  70.999  1.00  0.00     0.100 C 
BRANCH   2   3
ATOM      3  C   UNL     1      73.550  92.335  71.072  1.00  0.00     0.220 C 
ATOM      4  N   UNL     1      74.352  92.714  72.105  1.00  0.00    -0.352 N 
ATOM      5  H   UNL     1      74.493  92.005  72.811  1.00  0.00     0.163 HD
ATOM      6  O   UNL     1      73.249  93.125  70.146  1.00  0.00    -0.275 OA
BRANCH   4   7
ATOM      7  C   UNL     1      74.977  93.989  72.245  1.00  0.00     0.151 C 
BRANCH   7   8
ATOM      8  C   UNL     1      75.781  94.098  73.490  1.00  0.00    -0.025 A 
ATOM      9  C   UNL     1      75.959  93.947  75.938  1.00  0.00     0.160 A 
ATOM     10  C   UNL     1      77.307  94.361  75.865  1.00  0.00     0.157 A 
ATOM     11  C   UNL     1      75.205  93.828  74.753  1.00  0.00     0.056 A 
ATOM     12  C   UNL     1      77.896  94.616  74.613  1.00  0.00     0.050 A 
ATOM     13  C   UNL     1      77.142  94.476  73.433  1.00  0.00     0.009 A 
BRANCH   9  14
ATOM     14  O   UNL     1      75.402  93.612  77.144  1.00  0.00    -0.493 OA
ATOM     15  C   UNL     1      74.547  94.625  77.698  1.00  0.00     0.278 C 
ENDBRANCH   9  14
BRANCH  10  16
ATOM     16  O   UNL     1      78.059  94.515  76.983  1.00  0.00    -0.504 OA
ATOM     17  H   UNL     1      77.507  94.389  77.759  1.00  0.00     0.293 HD
ENDBRANCH  10  16
ENDBRANCH   7   8
ENDBRANCH   4   7
ENDBRANCH   2   3
ENDBRANCH   1   2
BRANCH   1  18
ATOM     18  C   UNL     1      75.030  90.277  69.523  1.00  0.00     0.001 C 
BRANCH  18  19
ATOM     19  C   UNL     1      75.275  89.104  68.540  1.00  0.00     0.004 C 
BRANCH  19  20
ATOM     20  C   UNL     1      76.794  88.831  68.352  1.00  0.00     0.027 C 
BRANCH  20  21
ATOM     21  C   UNL     1      77.147  87.423  68.416  1.00  0.00    -0.031 C 
ATOM     22  C   UNL     1      76.361  86.511  69.016  1.00  0.00    -0.028 C 
BRANCH  22  23
ATOM     23  C   UNL     1      76.684  85.089  69.093  1.00  0.00     0.005 C 
ATOM     24  C   UNL     1      75.824  84.400  70.185  1.00  0.00     0.012 C 
ATOM     25  C   UNL     1      76.512  84.424  67.700  1.00  0.00     0.012 C 
ENDBRANCH  22  23
ENDBRANCH  20  21
ENDBRANCH  19  20
ENDBRANCH  18  19
ENDBRANCH   1  18
TORSDOF 11
ENDMDL
MODEL 3
REMARK VINA RESULT:    -4.916      2.922      6.415
REMARK INTER + INTRA:         -10.049
REMARK INTER:                  -8.547
REMARK INTRA:                  -1.502
REMARK UNBOUND:                -2.116
REMARK SMILES COc1cc(CNC(=O)CCCCC/C=C/C(C)C)ccc1O
REMARK SMILES IDX 11 1 10 2 8 3 7 4 9 6 6 7 5 8 3 9 22 10 4 11 21 12 20 13
REMARK SMILES IDX 2 14 1 15 23 16 12 18 13 19 14 20 15 21 16 22 17 23 18 24
REMARK SMILES IDX 19 25
REMARK H PARENT 7 5 23 17
REMARK Flexibility Score: inf
ROOT
ATOM      1  C   UNL     1     102.774  80.316  78.912  1.00  0.00     0.010 C 
ENDROOT
BRANCH   1   2
ATOM      2  C   UNL     1     102.684  81.397  77.803  1.00  0.00     0.100 C 
BRANCH   2   3
ATOM      3  C   UNL     1     101.581  81.185  76.848  1.00  0.00     0.220 C 
ATOM      4  N   UNL     1     100.371  80.748  77.294  1.00  0.00    -0.352 N 
ATOM      5  H   UNL     1     100.341  80.524  78.280  1.00  0.00     0.163 HD
ATOM      6  O   UNL     1     101.779  81.457  75.640  1.00  0.00    -0.275 OA
BRANCH   4   7
ATOM      7  C   UNL     1      99.198  80.596  76.497  1.00  0.00     0.151 C 
BRANCH   7   8
ATOM      8  C   UNL     1      98.357  81.821  76.476  1.00  0.00    -0.025 A 
ATOM      9  C   UNL     1      97.562  83.846  75.329  1.00  0.00     0.160 A 
ATOM     10  C   UNL     1      96.793  84.185  76.463  1.00  0.00     0.157 A 
ATOM     11  C   UNL     1      98.344  82.673  75.347  1.00  0.00     0.056 A 
ATOM     12  C   UNL     1      96.784  83.336  77.585  1.00  0.00     0.050 A 
ATOM     13  C   UNL     1      97.553  82.157  77.587  1.00  0.00     0.009 A 
BRANCH   9  14
ATOM     14  O   UNL     1      97.509  84.619  74.199  1.00  0.00    -0.493 OA
ATOM     15  C   UNL     1      98.796  84.949  73.652  1.00  0.00     0.278 C 
ENDBRANCH   9  14
BRANCH  10  16
ATOM     16  O   UNL     1      96.049  85.319  76.497  1.00  0.00    -0.504 OA
ATOM     17  H   UNL     1      96.526  86.000  76.977  1.00  0.00     0.293 HD
ENDBRANCH  10  16
ENDBRANCH   7   8
ENDBRANCH   4   7
ENDBRANCH   2   3
ENDBRANCH   1   2
BRANCH   1  18
ATOM     18  C   UNL     1     102.528  80.931  80.313  1.00  0.00     0.001 C 
BRANCH  18  19
ATOM     19  C   UNL     1     101.133  80.603  80.902  1.00  0.00     0.004 C 
BRANCH  19  20
ATOM     20  C   UNL     1     100.122  81.754  80.639  1.00  0.00     0.027 C 
BRANCH  20  21
ATOM     21  C   UNL     1      98.839  81.566  81.294  1.00  0.00    -0.031 C 
ATOM     22  C   UNL     1      97.850  82.474  81.214  1.00  0.00    -0.028 C 
BRANCH  22  23
ATOM     23  C   UNL     1      96.548  82.313  81.856  1.00  0.00     0.005 C 
ATOM     24  C   UNL     1      96.494  80.970  82.633  1.00  0.00     0.012 C 
ATOM     25  C   UNL     1      96.243  83.533  82.767  1.00  0.00     0.012 C 
ENDBRANCH  22  23
ENDBRANCH  20  21
ENDBRANCH  19  20
ENDBRANCH  18  19
ENDBRANCH   1  18
TORSDOF 11
ENDMDL
MODEL 4
REMARK VINA RESULT:    -4.892     23.972     25.763
REMARK INTER + INTRA:         -10.011
REMARK INTER:                  -9.221
REMARK INTRA:                  -0.790
REMARK UNBOUND:                -2.116
REMARK SMILES COc1cc(CNC(=O)CCCCC/C=C/C(C)C)ccc1O
REMARK SMILES IDX 11 1 10 2 8 3 7 4 9 6 6 7 5 8 3 9 22 10 4 11 21 12 20 13
REMARK SMILES IDX 2 14 1 15 23 16 12 18 13 19 14 20 15 21 16 22 17 23 18 24
REMARK SMILES IDX 19 25
REMARK H PARENT 7 5 23 17
REMARK Flexibility Score: inf
ROOT
ATOM      1  C   UNL     1      74.520  93.043  72.344  1.00  0.00     0.010 C 
ENDROOT
BRANCH   1   2
ATOM      2  C   UNL     1      74.214  93.260  73.848  1.00  0.00     0.100 C 
BRANCH   2   3
ATOM      3  C   UNL     1      75.367  93.741  74.632  1.00  0.00     0.220 C 
ATOM      4  N   UNL     1      76.622  93.665  74.108  1.00  0.00    -0.352 N 
ATOM      5  H   UNL     1      76.677  93.198  73.213  1.00  0.00     0.163 HD
ATOM      6  O   UNL     1      75.152  94.251  75.757  1.00  0.00    -0.275 OA
BRANCH   4   7
ATOM      7  C   UNL     1      77.806  94.179  74.715  1.00  0.00     0.151 C 
BRANCH   7   8
ATOM      8  C   UNL     1      78.086  95.585  74.322  1.00  0.00    -0.025 A 
ATOM      9  C   UNL     1      78.697  97.243  72.612  1.00  0.00     0.160 A 
ATOM     10  C   UNL     1      78.672  98.261  73.591  1.00  0.00     0.157 A 
ATOM     11  C   UNL     1      78.413  95.914  72.986  1.00  0.00     0.056 A 
ATOM     12  C   UNL     1      78.332  97.947  74.919  1.00  0.00     0.050 A 
ATOM     13  C   UNL     1      78.031  96.621  75.280  1.00  0.00     0.009 A 
BRANCH   9  14
ATOM     14  O   UNL     1      78.941  97.551  71.299  1.00  0.00    -0.493 OA
ATOM     15  C   UNL     1      78.176  96.775  70.362  1.00  0.00     0.278 C 
ENDBRANCH   9  14
BRANCH  10  16
ATOM     16  O   UNL     1      78.966  99.547  73.278  1.00  0.00    -0.504 OA
ATOM     17  H   UNL     1      79.529  99.566  72.500  1.00  0.00     0.293 HD
ENDBRANCH  10  16
ENDBRANCH   7   8
ENDBRANCH   4   7
ENDBRANCH   2   3
ENDBRANCH   1   2
BRANCH   1  18
ATOM     18  C   UNL     1      73.760  91.810  71.791  1.00  0.00     0.001 C 
BRANCH  18  19
ATOM     19  C   UNL     1      74.594  90.955  70.804  1.00  0.00     0.004 C 
BRANCH  19  20
ATOM     20  C   UNL     1      73.839  89.658  70.399  1.00  0.00     0.027 C 
BRANCH  20  21
ATOM     21  C   UNL     1      74.613  88.774  69.544  1.00  0.00    -0.031 C 
ATOM     22  C   UNL     1      75.754  89.166  68.950  1.00  0.00    -0.028 C 
BRANCH  22  23
ATOM     23  C   UNL     1      76.557  88.301  68.089  1.00  0.00     0.005 C 
ATOM     24  C   UNL     1      77.797  89.070  67.560  1.00  0.00     0.012 C 
ATOM     25  C   UNL     1      76.947  87.003  68.847  1.00  0.00     0.012 C 
ENDBRANCH  22  23
ENDBRANCH  20  21
ENDBRANCH  19  20
ENDBRANCH  18  19
ENDBRANCH   1  18
TORSDOF 11
ENDMDL
MODEL 5
REMARK VINA RESULT:    -4.846      6.482      9.402
REMARK INTER + INTRA:          -9.937
REMARK INTER:                  -9.181
REMARK INTRA:                  -0.756
REMARK UNBOUND:                -2.116
REMARK SMILES COc1cc(CNC(=O)CCCCC/C=C/C(C)C)ccc1O
REMARK SMILES IDX 11 1 10 2 8 3 7 4 9 6 6 7 5 8 3 9 22 10 4 11 21 12 20 13
REMARK SMILES IDX 2 14 1 15 23 16 12 18 13 19 14 20 15 21 16 22 17 23 18 24
REMARK SMILES IDX 19 25
REMARK H PARENT 7 5 23 17
REMARK Flexibility Score: inf
ROOT
ATOM      1  C   UNL     1      96.077  82.420  83.954  1.00  0.00     0.010 C 
ENDROOT
BRANCH   1   2
ATOM      2  C   UNL     1      96.278  81.382  82.820  1.00  0.00     0.100 C 
BRANCH   2   3
ATOM      3  C   UNL     1      97.450  81.646  81.965  1.00  0.00     0.220 C 
ATOM      4  N   UNL     1      97.278  81.901  80.638  1.00  0.00    -0.352 N 
ATOM      5  H   UNL     1      96.324  81.816  80.313  1.00  0.00     0.163 HD
ATOM      6  O   UNL     1      98.584  81.669  82.499  1.00  0.00    -0.275 OA
BRANCH   4   7
ATOM      7  C   UNL     1      98.309  82.266  79.723  1.00  0.00     0.151 C 
BRANCH   7   8
ATOM      8  C   UNL     1      97.784  82.951  78.513  1.00  0.00    -0.025 A 
ATOM      9  C   UNL     1      98.059  83.672  76.178  1.00  0.00     0.160 A 
ATOM     10  C   UNL     1      96.798  84.306  76.226  1.00  0.00     0.157 A 
ATOM     11  C   UNL     1      98.546  83.008  77.322  1.00  0.00     0.056 A 
ATOM     12  C   UNL     1      96.025  84.241  77.399  1.00  0.00     0.050 A 
ATOM     13  C   UNL     1      96.509  83.560  78.531  1.00  0.00     0.009 A 
BRANCH   9  14
ATOM     14  O   UNL     1      98.781  83.654  75.014  1.00  0.00    -0.493 OA
ATOM     15  C   UNL     1     100.175  83.351  75.192  1.00  0.00     0.278 C 
ENDBRANCH   9  14
BRANCH  10  16
ATOM     16  O   UNL     1      96.307  84.980  75.156  1.00  0.00    -0.504 OA
ATOM     17  H   UNL     1      95.419  84.668  74.963  1.00  0.00     0.293 HD
ENDBRANCH  10  16
ENDBRANCH   7   8
ENDBRANCH   4   7
ENDBRANCH   2   3
ENDBRANCH   1   2
BRANCH   1  18
ATOM     18  C   UNL     1      94.604  82.896  84.021  1.00  0.00     0.001 C 
BRANCH  18  19
ATOM     19  C   UNL     1      93.591  81.755  84.292  1.00  0.00     0.004 C 
BRANCH  19  20
ATOM     20  C   UNL     1      92.606  82.129  85.434  1.00  0.00     0.027 C 
BRANCH  20  21
ATOM     21  C   UNL     1      93.178  83.020  86.430  1.00  0.00    -0.031 C 
ATOM     22  C   UNL     1      93.730  82.566  87.568  1.00  0.00    -0.028 C 
BRANCH  22  23
ATOM     23  C   UNL     1      94.318  83.435  88.586  1.00  0.00     0.005 C 
ATOM     24  C   UNL     1      93.355  83.574  89.795  1.00  0.00     0.012 C 
ATOM     25  C   UNL     1      95.716  82.904  89.003  1.00  0.00     0.012 C 
ENDBRANCH  22  23
ENDBRANCH  20  21
ENDBRANCH  19  20
ENDBRANCH  18  19
ENDBRANCH   1  18
TORSDOF 11
ENDMDL
MODEL 6
REMARK VINA RESULT:    -4.825     10.698     14.116
REMARK INTER + INTRA:          -9.903
REMARK INTER:                  -9.300
REMARK INTRA:                  -0.602
REMARK UNBOUND:                -2.116
REMARK SMILES COc1cc(CNC(=O)CCCCC/C=C/C(C)C)ccc1O
REMARK SMILES IDX 11 1 10 2 8 3 7 4 9 6 6 7 5 8 3 9 22 10 4 11 21 12 20 13
REMARK SMILES IDX 2 14 1 15 23 16 12 18 13 19 14 20 15 21 16 22 17 23 18 24
REMARK SMILES IDX 19 25
REMARK H PARENT 7 5 23 17
REMARK Flexibility Score: inf
ROOT
ATOM      1  C   UNL     1      91.512  75.133  80.305  1.00  0.00     0.010 C 
ENDROOT
BRANCH   1   2
ATOM      2  C   UNL     1      91.288  73.977  81.314  1.00  0.00     0.100 C 
BRANCH   2   3
ATOM      3  C   UNL     1      90.611  74.389  82.558  1.00  0.00     0.220 C 
ATOM      4  N   UNL     1      90.626  75.697  82.937  1.00  0.00    -0.352 N 
ATOM      5  H   UNL     1      91.185  76.300  82.349  1.00  0.00     0.163 HD
ATOM      6  O   UNL     1      89.998  73.518  83.219  1.00  0.00    -0.275 OA
BRANCH   4   7
ATOM      7  C   UNL     1      89.934  76.244  84.058  1.00  0.00     0.151 C 
BRANCH   7   8
ATOM      8  C   UNL     1      90.002  77.727  84.104  1.00  0.00    -0.025 A 
ATOM      9  C   UNL     1      88.886  79.919  84.067  1.00  0.00     0.160 A 
ATOM     10  C   UNL     1      90.143  80.559  84.139  1.00  0.00     0.157 A 
ATOM     11  C   UNL     1      88.826  78.511  84.042  1.00  0.00     0.056 A 
ATOM     12  C   UNL     1      91.318  79.790  84.219  1.00  0.00     0.050 A 
ATOM     13  C   UNL     1      91.248  78.384  84.212  1.00  0.00     0.009 A 
BRANCH   9  14
ATOM     14  O   UNL     1      87.732  80.657  84.078  1.00  0.00    -0.493 OA
ATOM     15  C   UNL     1      86.997  80.614  82.844  1.00  0.00     0.278 C 
ENDBRANCH   9  14
BRANCH  10  16
ATOM     16  O   UNL     1      90.247  81.911  84.137  1.00  0.00    -0.504 OA
ATOM     17  H   UNL     1      90.851  82.186  84.831  1.00  0.00     0.293 HD
ENDBRANCH  10  16
ENDBRANCH   7   8
ENDBRANCH   4   7
ENDBRANCH   2   3
ENDBRANCH   1   2
BRANCH   1  18
ATOM     18  C   UNL     1      90.470  75.086  79.159  1.00  0.00     0.001 C 
BRANCH  18  19
ATOM     19  C   UNL     1      91.098  74.921  77.752  1.00  0.00     0.004 C 
BRANCH  19  20
ATOM     20  C   UNL     1      90.772  76.137  76.840  1.00  0.00     0.027 C 
BRANCH  20  21
ATOM     21  C   UNL     1      91.209  75.969  75.464  1.00  0.00    -0.031 C 
ATOM     22  C   UNL     1      91.289  77.000  74.605  1.00  0.00    -0.028 C 
BRANCH  22  23
ATOM     23  C   UNL     1      91.729  76.866  73.218  1.00  0.00     0.005 C 
ATOM     24  C   UNL     1      92.265  78.223  72.690  1.00  0.00     0.012 C 
ATOM     25  C   UNL     1      92.781  75.729  73.097  1.00  0.00     0.012 C 
ENDBRANCH  22  23
ENDBRANCH  20  21
ENDBRANCH  19  20
ENDBRANCH  18  19
ENDBRANCH   1  18
TORSDOF 11
ENDMDL
MODEL 7
REMARK VINA RESULT:    -4.792     15.144     18.086
REMARK INTER + INTRA:          -9.849
REMARK INTER:                  -9.033
REMARK INTRA:                  -0.816
REMARK UNBOUND:                -2.116
REMARK SMILES COc1cc(CNC(=O)CCCCC/C=C/C(C)C)ccc1O
REMARK SMILES IDX 11 1 10 2 8 3 7 4 9 6 6 7 5 8 3 9 22 10 4 11 21 12 20 13
REMARK SMILES IDX 2 14 1 15 23 16 12 18 13 19 14 20 15 21 16 22 17 23 18 24
REMARK SMILES IDX 19 25
REMARK H PARENT 7 5 23 17
REMARK Flexibility Score: inf
ROOT
ATOM      1  C   UNL     1      93.100 101.171  71.697  1.00  0.00     0.010 C 
ENDROOT
BRANCH   1   2
ATOM      2  C   UNL     1      93.052  99.631  71.871  1.00  0.00     0.100 C 
BRANCH   2   3
ATOM      3  C   UNL     1      93.917  99.122  72.951  1.00  0.00     0.220 C 
ATOM      4  N   UNL     1      93.934  97.790  73.236  1.00  0.00    -0.352 N 
ATOM      5  H   UNL     1      93.270  97.238  72.709  1.00  0.00     0.163 HD
ATOM      6  O   UNL     1      94.652  99.935  73.559  1.00  0.00    -0.275 OA
BRANCH   4   7
ATOM      7  C   UNL     1      94.790  97.155  74.184  1.00  0.00     0.151 C 
BRANCH   7   8
ATOM      8  C   UNL     1      94.036  96.402  75.220  1.00  0.00    -0.025 A 
ATOM      9  C   UNL     1      92.367  94.704  75.836  1.00  0.00     0.160 A 
ATOM     10  C   UNL     1      92.564  95.007  77.201  1.00  0.00     0.157 A 
ATOM     11  C   UNL     1      93.097  95.409  74.857  1.00  0.00     0.056 A 
ATOM     12  C   UNL     1      93.508  95.981  77.575  1.00  0.00     0.050 A 
ATOM     13  C   UNL     1      94.247  96.666  76.592  1.00  0.00     0.009 A 
BRANCH   9  14
ATOM     14  O   UNL     1      91.515  93.697  75.466  1.00  0.00    -0.493 OA
ATOM     15  C   UNL     1      90.185  94.140  75.151  1.00  0.00     0.278 C 
ENDBRANCH   9  14
BRANCH  10  16
ATOM     16  O   UNL     1      91.862  94.372  78.173  1.00  0.00    -0.504 OA
ATOM     17  H   UNL     1      91.321  95.010  78.645  1.00  0.00     0.293 HD
ENDBRANCH  10  16
ENDBRANCH   7   8
ENDBRANCH   4   7
ENDBRANCH   2   3
ENDBRANCH   1   2
BRANCH   1  18
ATOM     18  C   UNL     1      91.730 101.724  71.226  1.00  0.00     0.001 C 
BRANCH  18  19
ATOM     19  C   UNL     1      90.559 100.725  71.409  1.00  0.00     0.004 C 
BRANCH  19  20
ATOM     20  C   UNL     1      90.062 100.178  70.042  1.00  0.00     0.027 C 
BRANCH  20  21
ATOM     21  C   UNL     1      90.302 101.081  68.929  1.00  0.00    -0.031 C 
ATOM     22  C   UNL     1      90.929 100.687  67.806  1.00  0.00    -0.028 C 
BRANCH  22  23
ATOM     23  C   UNL     1      91.181 101.567  66.669  1.00  0.00     0.005 C 
ATOM     24  C   UNL     1      92.705 101.665  66.391  1.00  0.00     0.012 C 
ATOM     25  C   UNL     1      90.386 101.081  65.427  1.00  0.00     0.012 C 
ENDBRANCH  22  23
ENDBRANCH  20  21
ENDBRANCH  19  20
ENDBRANCH  18  19
ENDBRANCH   1  18
TORSDOF 11
ENDMDL
MODEL 8
REMARK VINA RESULT:    -4.693     26.424     28.832
REMARK INTER + INTRA:          -9.689
REMARK INTER:                  -8.880
REMARK INTRA:                  -0.810
REMARK UNBOUND:                -2.116
REMARK SMILES COc1cc(CNC(=O)CCCCC/C=C/C(C)C)ccc1O
REMARK SMILES IDX 11 1 10 2 8 3 7 4 9 6 6 7 5 8 3 9 22 10 4 11 21 12 20 13
REMARK SMILES IDX 2 14 1 15 23 16 12 18 13 19 14 20 15 21 16 22 17 23 18 24
REMARK SMILES IDX 19 25
REMARK H PARENT 7 5 23 17
REMARK Flexibility Score: inf
ROOT
ATOM      1  C   UNL     1      74.146  83.594  64.974  1.00  0.00     0.010 C 
ENDROOT
BRANCH   1   2
ATOM      2  C   UNL     1      72.979  82.595  65.189  1.00  0.00     0.100 C 
BRANCH   2   3
ATOM      3  C   UNL     1      71.645  83.223  65.195  1.00  0.00     0.220 C 
ATOM      4  N   UNL     1      71.056  83.554  66.377  1.00  0.00    -0.352 N 
ATOM      5  H   UNL     1      71.571  83.266  67.199  1.00  0.00     0.163 HD
ATOM      6  O   UNL     1      71.100  83.474  64.094  1.00  0.00    -0.275 OA
BRANCH   4   7
ATOM      7  C   UNL     1      69.819  84.249  66.523  1.00  0.00     0.151 C 
BRANCH   7   8
ATOM      8  C   UNL     1      69.390  84.363  67.941  1.00  0.00    -0.025 A 
ATOM      9  C   UNL     1      67.629  84.259  69.654  1.00  0.00     0.160 A 
ATOM     10  C   UNL     1      68.567  84.634  70.640  1.00  0.00     0.157 A 
ATOM     11  C   UNL     1      68.044  84.135  68.313  1.00  0.00     0.056 A 
ATOM     12  C   UNL     1      69.912  84.846  70.284  1.00  0.00     0.050 A 
ATOM     13  C   UNL     1      70.323  84.701  68.946  1.00  0.00     0.009 A 
BRANCH   9  14
ATOM     14  O   UNL     1      66.338  83.965  70.004  1.00  0.00    -0.493 OA
ATOM     15  C   UNL     1      65.394  84.090  68.927  1.00  0.00     0.278 C 
ENDBRANCH   9  14
BRANCH  10  16
ATOM     16  O   UNL     1      68.202  84.792  71.937  1.00  0.00    -0.504 OA
ATOM     17  H   UNL     1      67.292  85.096  71.978  1.00  0.00     0.293 HD
ENDBRANCH  10  16
ENDBRANCH   7   8
ENDBRANCH   4   7
ENDBRANCH   2   3
ENDBRANCH   1   2
BRANCH   1  18
ATOM     18  C   UNL     1      75.497  82.981  65.421  1.00  0.00     0.001 C 
BRANCH  18  19
ATOM     19  C   UNL     1      76.725  83.859  65.073  1.00  0.00     0.004 C 
BRANCH  19  20
ATOM     20  C   UNL     1      77.706  83.963  66.274  1.00  0.00     0.027 C 
BRANCH  20  21
ATOM     21  C   UNL     1      77.068  84.360  67.517  1.00  0.00    -0.031 C 
ATOM     22  C   UNL     1      77.244  85.578  68.059  1.00  0.00    -0.028 C 
BRANCH  22  23
ATOM     23  C   UNL     1      76.613  86.009  69.304  1.00  0.00     0.005 C 
ATOM     24  C   UNL     1      75.525  87.077  69.013  1.00  0.00     0.012 C 
ATOM     25  C   UNL     1      76.046  84.784  70.071  1.00  0.00     0.012 C 
ENDBRANCH  22  23
ENDBRANCH  20  21
ENDBRANCH  19  20
ENDBRANCH  18  19
ENDBRANCH   1  18
TORSDOF 11
ENDMDL
MODEL 9
REMARK VINA RESULT:    -4.692      2.821      7.075
REMARK INTER + INTRA:          -9.688
REMARK INTER:                  -8.863
REMARK INTRA:                  -0.825
REMARK UNBOUND:                -2.116
REMARK SMILES COc1cc(CNC(=O)CCCCC/C=C/C(C)C)ccc1O
REMARK SMILES IDX 11 1 10 2 8 3 7 4 9 6 6 7 5 8 3 9 22 10 4 11 21 12 20 13
REMARK SMILES IDX 2 14 1 15 23 16 12 18 13 19 14 20 15 21 16 22 17 23 18 24
REMARK SMILES IDX 19 25
REMARK H PARENT 7 5 23 17
REMARK Flexibility Score: inf
ROOT
ATOM      1  C   UNL     1      99.514  83.713  74.617  1.00  0.00     0.010 C 
ENDROOT
BRANCH   1   2
ATOM      2  C   UNL     1      98.293  84.648  74.419  1.00  0.00     0.100 C 
BRANCH   2   3
ATOM      3  C   UNL     1      97.275  84.539  75.480  1.00  0.00     0.220 C 
ATOM      4  N   UNL     1      97.564  83.869  76.631  1.00  0.00    -0.352 N 
ATOM      5  H   UNL     1      98.468  83.418  76.640  1.00  0.00     0.163 HD
ATOM      6  O   UNL     1      96.171  85.107  75.308  1.00  0.00    -0.275 OA
BRANCH   4   7
ATOM      7  C   UNL     1      96.710  83.771  77.770  1.00  0.00     0.151 C 
BRANCH   7   8
ATOM      8  C   UNL     1      97.383  83.142  78.936  1.00  0.00    -0.025 A 
ATOM      9  C   UNL     1      99.261  81.871  79.889  1.00  0.00     0.160 A 
ATOM     10  C   UNL     1      98.635  81.898  81.155  1.00  0.00     0.157 A 
ATOM     11  C   UNL     1      98.627  82.485  78.789  1.00  0.00     0.056 A 
ATOM     12  C   UNL     1      97.405  82.563  81.316  1.00  0.00     0.050 A 
ATOM     13  C   UNL     1      96.789  83.190  80.217  1.00  0.00     0.009 A 
BRANCH   9  14
ATOM     14  O   UNL     1     100.498  81.303  79.741  1.00  0.00    -0.493 OA
ATOM     15  C   UNL     1     100.484  80.034  79.066  1.00  0.00     0.278 C 
ENDBRANCH   9  14
BRANCH  10  16
ATOM     16  O   UNL     1      99.197  81.295  82.232  1.00  0.00    -0.504 OA
ATOM     17  H   UNL     1      99.195  80.343  82.103  1.00  0.00     0.293 HD
ENDBRANCH  10  16
ENDBRANCH   7   8
ENDBRANCH   4   7
ENDBRANCH   2   3
ENDBRANCH   1   2
BRANCH   1  18
ATOM     18  C   UNL     1      99.422  82.470  73.695  1.00  0.00     0.001 C 
BRANCH  18  19
ATOM     19  C   UNL     1      98.964  82.798  72.251  1.00  0.00     0.004 C 
BRANCH  19  20
ATOM     20  C   UNL     1      98.023  81.696  71.691  1.00  0.00     0.027 C 
BRANCH  20  21
ATOM     21  C   UNL     1      98.678  80.780  70.773  1.00  0.00    -0.031 C 
ATOM     22  C   UNL     1      98.439  80.795  69.449  1.00  0.00    -0.028 C 
BRANCH  22  23
ATOM     23  C   UNL     1      99.085  79.892  68.500  1.00  0.00     0.005 C 
ATOM     24  C   UNL     1     100.617  80.134  68.484  1.00  0.00     0.012 C 
ATOM     25  C   UNL     1      98.724  78.418  68.832  1.00  0.00     0.012 C 
ENDBRANCH  22  23
ENDBRANCH  20  21
ENDBRANCH  19  20
ENDBRANCH  18  19
ENDBRANCH   1  18
TORSDOF 11
ENDMDL
MODEL 10
REMARK VINA RESULT:    -4.692      7.668     11.823
REMARK INTER + INTRA:          -9.688
REMARK INTER:                  -8.711
REMARK INTRA:                  -0.977
REMARK UNBOUND:                -2.116
REMARK SMILES COc1cc(CNC(=O)CCCCC/C=C/C(C)C)ccc1O
REMARK SMILES IDX 11 1 10 2 8 3 7 4 9 6 6 7 5 8 3 9 22 10 4 11 21 12 20 13
REMARK SMILES IDX 2 14 1 15 23 16 12 18 13 19 14 20 15 21 16 22 17 23 18 24
REMARK SMILES IDX 19 25
REMARK H PARENT 7 5 23 17
REMARK Flexibility Score: inf
ROOT
ATOM      1  C   UNL     1      97.192  80.426  84.389  1.00  0.00     0.010 C 
ENDROOT
BRANCH   1   2
ATOM      2  C   UNL     1      95.690  80.174  84.098  1.00  0.00     0.100 C 
BRANCH   2   3
ATOM      3  C   UNL     1      94.775  80.993  84.914  1.00  0.00     0.220 C 
ATOM      4  N   UNL     1      93.878  81.818  84.306  1.00  0.00    -0.352 N 
ATOM      5  H   UNL     1      93.961  81.862  83.300  1.00  0.00     0.163 HD
ATOM      6  O   UNL     1      94.821  80.874  86.162  1.00  0.00    -0.275 OA
BRANCH   4   7
ATOM      7  C   UNL     1      92.877  82.588  84.970  1.00  0.00     0.151 C 
BRANCH   7   8
ATOM      8  C   UNL     1      93.364  83.931  85.378  1.00  0.00    -0.025 A 
ATOM      9  C   UNL     1      93.302  85.848  86.917  1.00  0.00     0.160 A 
ATOM     10  C   UNL     1      94.259  86.516  86.122  1.00  0.00     0.157 A 
ATOM     11  C   UNL     1      92.856  84.567  86.535  1.00  0.00     0.056 A 
ATOM     12  C   UNL     1      94.784  85.886  84.978  1.00  0.00     0.050 A 
ATOM     13  C   UNL     1      94.347  84.598  84.615  1.00  0.00     0.009 A 
BRANCH   9  14
ATOM     14  O   UNL     1      92.850  86.416  88.079  1.00  0.00    -0.493 OA
ATOM     15  C   UNL     1      93.482  85.907  89.266  1.00  0.00     0.278 C 
ENDBRANCH   9  14
BRANCH  10  16
ATOM     16  O   UNL     1      94.693  87.761  86.439  1.00  0.00    -0.504 OA
ATOM     17  H   UNL     1      95.593  87.711  86.772  1.00  0.00     0.293 HD
ENDBRANCH  10  16
ENDBRANCH   7   8
ENDBRANCH   4   7
ENDBRANCH   2   3
ENDBRANCH   1   2
BRANCH   1  18
ATOM     18  C   UNL     1      97.685  81.725  83.700  1.00  0.00     0.001 C 
BRANCH  18  19
ATOM     19  C   UNL     1      97.155  81.903  82.255  1.00  0.00     0.004 C 
BRANCH  19  20
ATOM     20  C   UNL     1      98.306  81.813  81.214  1.00  0.00     0.027 C 
BRANCH  20  21
ATOM     21  C   UNL     1      97.867  81.990  79.841  1.00  0.00    -0.031 C 
ATOM     22  C   UNL     1      97.996  83.161  79.190  1.00  0.00    -0.028 C 
BRANCH  22  23
ATOM     23  C   UNL     1      97.570  83.370  77.809  1.00  0.00     0.005 C 
ATOM     24  C   UNL     1      97.698  82.051  77.001  1.00  0.00     0.012 C 
ATOM     25  C   UNL     1      96.128  83.946  77.773  1.00  0.00     0.012 C 
ENDBRANCH  22  23
ENDBRANCH  20  21
ENDBRANCH  19  20
ENDBRANCH  18  19
ENDBRANCH   1  18
TORSDOF 11
ENDMDL
