MODEL 1
REMARK VINA RESULT:    -5.980      0.000      0.000
REMARK INTER + INTRA:         -10.847
REMARK INTER:                  -9.651
REMARK INTRA:                  -1.196
REMARK UNBOUND:                -1.196
REMARK SMILES COc1cc(CNC(=O)CCCCC/C=C/C(C)C)ccc1O
REMARK SMILES IDX 11 1 10 2 8 3 7 4 9 6 6 7 5 8 3 9 22 10 4 11 21 12 20 13
REMARK SMILES IDX 2 14 1 15 23 16 12 18 13 19 14 20 15 21 16 22 17 23 18 24
REMARK SMILES IDX 19 25
REMARK H PARENT 7 5 23 17
REMARK Flexibility Score: inf
ROOT
ATOM      1  C   UNL     1      92.958  81.862  85.823  1.00  0.00     0.010 C 
ENDROOT
BRANCH   1   2
ATOM      2  C   UNL     1      93.296  83.300  85.351  1.00  0.00     0.100 C 
BRANCH   2   3
ATOM      3  C   UNL     1      94.688  83.470  84.894  1.00  0.00     0.220 C 
ATOM      4  N   UNL     1      94.948  83.672  83.573  1.00  0.00    -0.352 N 
ATOM      5  H   UNL     1      94.138  83.616  82.971  1.00  0.00     0.163 HD
ATOM      6  O   UNL     1      95.601  83.465  85.753  1.00  0.00    -0.275 OA
BRANCH   4   7
ATOM      7  C   UNL     1      96.230  83.946  83.012  1.00  0.00     0.151 C 
BRANCH   7   8
ATOM      8  C   UNL     1      96.649  82.927  82.015  1.00  0.00    -0.025 A 
ATOM      9  C   UNL     1      97.093  80.585  81.412  1.00  0.00     0.160 A 
ATOM     10  C   UNL     1      97.499  80.995  80.123  1.00  0.00     0.157 A 
ATOM     11  C   UNL     1      96.681  81.554  82.350  1.00  0.00     0.056 A 
ATOM     12  C   UNL     1      97.455  82.357  79.774  1.00  0.00     0.050 A 
ATOM     13  C   UNL     1      97.023  83.315  80.709  1.00  0.00     0.009 A 
BRANCH   9  14
ATOM     14  O   UNL     1      97.049  79.254  81.734  1.00  0.00    -0.493 OA
ATOM     15  C   UNL     1      96.270  78.959  82.905  1.00  0.00     0.278 C 
ENDBRANCH   9  14
BRANCH  10  16
ATOM     16  O   UNL     1      97.930  80.097  79.201  1.00  0.00    -0.504 OA
ATOM     17  H   UNL     1      97.890  80.493  78.327  1.00  0.00     0.293 HD
ENDBRANCH  10  16
ENDBRANCH   7   8
ENDBRANCH   4   7
ENDBRANCH   2   3
ENDBRANCH   1   2
BRANCH   1  18
ATOM     18  C   UNL     1      93.572  80.803  84.873  1.00  0.00     0.001 C 
BRANCH  18  19
ATOM     19  C   UNL     1      93.242  79.342  85.271  1.00  0.00     0.004 C 
BRANCH  19  20
ATOM     20  C   UNL     1      92.287  78.676  84.242  1.00  0.00     0.027 C 
BRANCH  20  21
ATOM     21  C   UNL     1      90.897  79.073  84.391  1.00  0.00    -0.031 C 
ATOM     22  C   UNL     1      90.374  80.123  83.733  1.00  0.00    -0.028 C 
BRANCH  22  23
ATOM     23  C   UNL     1      88.981  80.543  83.858  1.00  0.00     0.005 C 
ATOM     24  C   UNL     1      88.081  79.328  84.208  1.00  0.00     0.012 C 
ATOM     25  C   UNL     1      88.857  81.688  84.900  1.00  0.00     0.012 C 
ENDBRANCH  22  23
ENDBRANCH  20  21
ENDBRANCH  19  20
ENDBRANCH  18  19
ENDBRANCH   1  18
TORSDOF 11
ENDMDL
MODEL 2
REMARK VINA RESULT:    -5.832      3.460      8.410
REMARK INTER + INTRA:         -10.607
REMARK INTER:                 -10.009
REMARK INTRA:                  -0.598
REMARK UNBOUND:                -1.196
REMARK SMILES COc1cc(CNC(=O)CCCCC/C=C/C(C)C)ccc1O
REMARK SMILES IDX 11 1 10 2 8 3 7 4 9 6 6 7 5 8 3 9 22 10 4 11 21 12 20 13
REMARK SMILES IDX 2 14 1 15 23 16 12 18 13 19 14 20 15 21 16 22 17 23 18 24
REMARK SMILES IDX 19 25
REMARK H PARENT 7 5 23 17
REMARK Flexibility Score: inf
ROOT
ATOM      1  C   UNL     1      97.866  82.492  80.931  1.00  0.00     0.010 C 
ENDROOT
BRANCH   1   2
ATOM      2  C   UNL     1      96.647  83.108  81.666  1.00  0.00     0.100 C 
BRANCH   2   3
ATOM      3  C   UNL     1      96.374  82.506  82.984  1.00  0.00     0.220 C 
ATOM      4  N   UNL     1      95.106  82.505  83.479  1.00  0.00    -0.352 N 
ATOM      5  H   UNL     1      94.432  83.001  82.912  1.00  0.00     0.163 HD
ATOM      6  O   UNL     1      97.324  81.970  83.602  1.00  0.00    -0.275 OA
BRANCH   4   7
ATOM      7  C   UNL     1      94.688  81.875  84.689  1.00  0.00     0.151 C 
BRANCH   7   8
ATOM      8  C   UNL     1      93.269  81.436  84.646  1.00  0.00    -0.025 A 
ATOM      9  C   UNL     1      91.586  79.643  84.659  1.00  0.00     0.160 A 
ATOM     10  C   UNL     1      90.562  80.604  84.508  1.00  0.00     0.157 A 
ATOM     11  C   UNL     1      92.930  80.065  84.718  1.00  0.00     0.056 A 
ATOM     12  C   UNL     1      90.887  81.972  84.453  1.00  0.00     0.050 A 
ATOM     13  C   UNL     1      92.230  82.386  84.532  1.00  0.00     0.009 A 
BRANCH   9  14
ATOM     14  O   UNL     1      91.275  78.317  84.802  1.00  0.00    -0.493 OA
ATOM     15  C   UNL     1      91.903  77.459  83.835  1.00  0.00     0.278 C 
ENDBRANCH   9  14
BRANCH  10  16
ATOM     16  O   UNL     1      89.259  80.238  84.419  1.00  0.00    -0.504 OA
ATOM     17  H   UNL     1      88.823  80.402  85.260  1.00  0.00     0.293 HD
ENDBRANCH  10  16
ENDBRANCH   7   8
ENDBRANCH   4   7
ENDBRANCH   2   3
ENDBRANCH   1   2
BRANCH   1  18
ATOM     18  C   UNL     1      97.413  81.551  79.786  1.00  0.00     0.001 C 
BRANCH  18  19
ATOM     19  C   UNL     1      97.768  82.075  78.371  1.00  0.00     0.004 C 
BRANCH  19  20
ATOM     20  C   UNL     1      97.268  83.532  78.164  1.00  0.00     0.027 C 
BRANCH  20  21
ATOM     21  C   UNL     1      97.034  83.877  76.772  1.00  0.00    -0.031 C 
ATOM     22  C   UNL     1      98.040  84.111  75.911  1.00  0.00    -0.028 C 
BRANCH  22  23
ATOM     23  C   UNL     1      97.839  84.454  74.505  1.00  0.00     0.005 C 
ATOM     24  C   UNL     1      99.070  85.224  73.958  1.00  0.00     0.012 C 
ATOM     25  C   UNL     1      97.527  83.177  73.680  1.00  0.00     0.012 C 
ENDBRANCH  22  23
ENDBRANCH  20  21
ENDBRANCH  19  20
ENDBRANCH  18  19
ENDBRANCH   1  18
TORSDOF 11
ENDMDL
MODEL 3
REMARK VINA RESULT:    -5.815     17.224     19.820
REMARK INTER + INTRA:         -10.581
REMARK INTER:                  -9.686
REMARK INTRA:                  -0.895
REMARK UNBOUND:                -1.196
REMARK SMILES COc1cc(CNC(=O)CCCCC/C=C/C(C)C)ccc1O
REMARK SMILES IDX 11 1 10 2 8 3 7 4 9 6 6 7 5 8 3 9 22 10 4 11 21 12 20 13
REMARK SMILES IDX 2 14 1 15 23 16 12 18 13 19 14 20 15 21 16 22 17 23 18 24
REMARK SMILES IDX 19 25
REMARK H PARENT 7 5 23 17
REMARK Flexibility Score: inf
ROOT
ATOM      1  C   UNL     1      94.055 100.491  73.834  1.00  0.00     0.010 C 
ENDROOT
BRANCH   1   2
ATOM      2  C   UNL     1      95.210  99.725  74.527  1.00  0.00     0.100 C 
BRANCH   2   3
ATOM      3  C   UNL     1      95.226  98.278  74.242  1.00  0.00     0.220 C 
ATOM      4  N   UNL     1      94.244  97.477  74.741  1.00  0.00    -0.352 N 
ATOM      5  H   UNL     1      93.590  97.945  75.354  1.00  0.00     0.163 HD
ATOM      6  O   UNL     1      96.135  97.826  73.506  1.00  0.00    -0.275 OA
BRANCH   4   7
ATOM      7  C   UNL     1      94.086  96.087  74.464  1.00  0.00     0.151 C 
BRANCH   7   8
ATOM      8  C   UNL     1      93.186  95.409  75.433  1.00  0.00    -0.025 A 
ATOM      9  C   UNL     1      91.127  94.155  75.919  1.00  0.00     0.160 A 
ATOM     10  C   UNL     1      91.447  94.164  77.295  1.00  0.00     0.157 A 
ATOM     11  C   UNL     1      91.993  94.784  75.002  1.00  0.00     0.056 A 
ATOM     12  C   UNL     1      92.640  94.768  77.733  1.00  0.00     0.050 A 
ATOM     13  C   UNL     1      93.509  95.376  76.808  1.00  0.00     0.009 A 
BRANCH   9  14
ATOM     14  O   UNL     1      90.013  93.495  75.472  1.00  0.00    -0.493 OA
ATOM     15  C   UNL     1      90.003  93.253  74.055  1.00  0.00     0.278 C 
ENDBRANCH   9  14
BRANCH  10  16
ATOM     16  O   UNL     1      90.627  93.595  78.213  1.00  0.00    -0.504 OA
ATOM     17  H   UNL     1      89.719  93.645  77.905  1.00  0.00     0.293 HD
ENDBRANCH  10  16
ENDBRANCH   7   8
ENDBRANCH   4   7
ENDBRANCH   2   3
ENDBRANCH   1   2
BRANCH   1  18
ATOM     18  C   UNL     1      94.456 100.934  72.404  1.00  0.00     0.001 C 
BRANCH  18  19
ATOM     19  C   UNL     1      94.070  99.913  71.304  1.00  0.00     0.004 C 
BRANCH  19  20
ATOM     20  C   UNL     1      92.668  99.298  71.568  1.00  0.00     0.027 C 
BRANCH  20  21
ATOM     21  C   UNL     1      91.568 100.145  71.141  1.00  0.00    -0.031 C 
ATOM     22  C   UNL     1      90.518  99.667  70.449  1.00  0.00    -0.028 C 
BRANCH  22  23
ATOM     23  C   UNL     1      89.395 100.491  70.009  1.00  0.00     0.005 C 
ATOM     24  C   UNL     1      88.800 101.273  71.210  1.00  0.00     0.012 C 
ATOM     25  C   UNL     1      89.838 101.430  68.855  1.00  0.00     0.012 C 
ENDBRANCH  22  23
ENDBRANCH  20  21
ENDBRANCH  19  20
ENDBRANCH  18  19
ENDBRANCH   1  18
TORSDOF 11
ENDMDL
MODEL 4
REMARK VINA RESULT:    -5.747      5.207      7.453
REMARK INTER + INTRA:         -10.471
REMARK INTER:                  -9.771
REMARK INTRA:                  -0.700
REMARK UNBOUND:                -1.196
REMARK SMILES COc1cc(CNC(=O)CCCCC/C=C/C(C)C)ccc1O
REMARK SMILES IDX 11 1 10 2 8 3 7 4 9 6 6 7 5 8 3 9 22 10 4 11 21 12 20 13
REMARK SMILES IDX 2 14 1 15 23 16 12 18 13 19 14 20 15 21 16 22 17 23 18 24
REMARK SMILES IDX 19 25
REMARK H PARENT 7 5 23 17
REMARK Flexibility Score: inf
ROOT
ATOM      1  C   UNL     1      91.475  75.233  82.402  1.00  0.00     0.010 C 
ENDROOT
BRANCH   1   2
ATOM      2  C   UNL     1      90.358  75.282  83.476  1.00  0.00     0.100 C 
BRANCH   2   3
ATOM      3  C   UNL     1      90.015  76.644  83.924  1.00  0.00     0.220 C 
ATOM      4  N   UNL     1      90.981  77.601  83.988  1.00  0.00    -0.352 N 
ATOM      5  H   UNL     1      91.915  77.271  83.784  1.00  0.00     0.163 HD
ATOM      6  O   UNL     1      88.817  76.897  84.198  1.00  0.00    -0.275 OA
BRANCH   4   7
ATOM      7  C   UNL     1      90.769  78.974  84.310  1.00  0.00     0.151 C 
BRANCH   7   8
ATOM      8  C   UNL     1      92.040  79.726  84.477  1.00  0.00    -0.025 A 
ATOM      9  C   UNL     1      93.260  81.857  84.607  1.00  0.00     0.160 A 
ATOM     10  C   UNL     1      94.476  81.152  84.742  1.00  0.00     0.157 A 
ATOM     11  C   UNL     1      92.055  81.140  84.467  1.00  0.00     0.056 A 
ATOM     12  C   UNL     1      94.472  79.746  84.771  1.00  0.00     0.050 A 
ATOM     13  C   UNL     1      93.262  79.037  84.649  1.00  0.00     0.009 A 
BRANCH   9  14
ATOM     14  O   UNL     1      93.243  83.226  84.667  1.00  0.00    -0.493 OA
ATOM     15  C   UNL     1      93.007  83.754  85.982  1.00  0.00     0.278 C 
ENDBRANCH   9  14
BRANCH  10  16
ATOM     16  O   UNL     1      95.661  81.804  84.852  1.00  0.00    -0.504 OA
ATOM     17  H   UNL     1      95.807  82.334  84.064  1.00  0.00     0.293 HD
ENDBRANCH  10  16
ENDBRANCH   7   8
ENDBRANCH   4   7
ENDBRANCH   2   3
ENDBRANCH   1   2
BRANCH   1  18
ATOM     18  C   UNL     1      90.996  74.489  81.130  1.00  0.00     0.001 C 
BRANCH  18  19
ATOM     19  C   UNL     1      91.193  75.298  79.823  1.00  0.00     0.004 C 
BRANCH  19  20
ATOM     20  C   UNL     1      90.306  74.743  78.673  1.00  0.00     0.027 C 
BRANCH  20  21
ATOM     21  C   UNL     1      90.343  75.550  77.465  1.00  0.00    -0.031 C 
ATOM     22  C   UNL     1      91.371  76.369  77.179  1.00  0.00    -0.028 C 
BRANCH  22  23
ATOM     23  C   UNL     1      91.441  77.188  75.972  1.00  0.00     0.005 C 
ATOM     24  C   UNL     1      90.175  76.971  75.100  1.00  0.00     0.012 C 
ATOM     25  C   UNL     1      91.650  78.681  76.346  1.00  0.00     0.012 C 
ENDBRANCH  22  23
ENDBRANCH  20  21
ENDBRANCH  19  20
ENDBRANCH  18  19
ENDBRANCH   1  18
TORSDOF 11
ENDMDL
MODEL 5
REMARK VINA RESULT:    -5.718      2.816      5.157
REMARK INTER + INTRA:         -10.424
REMARK INTER:                  -9.541
REMARK INTRA:                  -0.883
REMARK UNBOUND:                -1.196
REMARK SMILES COc1cc(CNC(=O)CCCCC/C=C/C(C)C)ccc1O
REMARK SMILES IDX 11 1 10 2 8 3 7 4 9 6 6 7 5 8 3 9 22 10 4 11 21 12 20 13
REMARK SMILES IDX 2 14 1 15 23 16 12 18 13 19 14 20 15 21 16 22 17 23 18 24
REMARK SMILES IDX 19 25
REMARK H PARENT 7 5 23 17
REMARK Flexibility Score: inf
ROOT
ATOM      1  C   UNL     1      91.993  78.744  84.361  1.00  0.00     0.010 C 
ENDROOT
BRANCH   1   2
ATOM      2  C   UNL     1      92.310  79.359  85.749  1.00  0.00     0.100 C 
BRANCH   2   3
ATOM      3  C   UNL     1      93.477  80.260  85.753  1.00  0.00     0.220 C 
ATOM      4  N   UNL     1      93.722  81.049  86.836  1.00  0.00    -0.352 N 
ATOM      5  H   UNL     1      93.013  81.007  87.556  1.00  0.00     0.163 HD
ATOM      6  O   UNL     1      94.245  80.245  84.761  1.00  0.00    -0.275 OA
BRANCH   4   7
ATOM      7  C   UNL     1      94.861  81.889  87.010  1.00  0.00     0.151 C 
BRANCH   7   8
ATOM      8  C   UNL     1      94.680  83.232  86.401  1.00  0.00    -0.025 A 
ATOM      9  C   UNL     1      95.258  84.895  84.683  1.00  0.00     0.160 A 
ATOM     10  C   UNL     1      94.368  85.816  85.276  1.00  0.00     0.157 A 
ATOM     11  C   UNL     1      95.414  83.615  85.253  1.00  0.00     0.056 A 
ATOM     12  C   UNL     1      93.621  85.441  86.407  1.00  0.00     0.050 A 
ATOM     13  C   UNL     1      93.767  84.155  86.959  1.00  0.00     0.009 A 
BRANCH   9  14
ATOM     14  O   UNL     1      95.925  85.219  83.531  1.00  0.00    -0.493 OA
ATOM     15  C   UNL     1      96.118  84.114  82.633  1.00  0.00     0.278 C 
ENDBRANCH   9  14
BRANCH  10  16
ATOM     16  O   UNL     1      94.211  87.067  84.775  1.00  0.00    -0.504 OA
ATOM     17  H   UNL     1      93.289  87.327  84.848  1.00  0.00     0.293 HD
ENDBRANCH  10  16
ENDBRANCH   7   8
ENDBRANCH   4   7
ENDBRANCH   2   3
ENDBRANCH   1   2
BRANCH   1  18
ATOM     18  C   UNL     1      90.496  78.357  84.250  1.00  0.00     0.001 C 
BRANCH  18  19
ATOM     19  C   UNL     1      89.526  79.504  84.631  1.00  0.00     0.004 C 
BRANCH  19  20
ATOM     20  C   UNL     1      88.185  79.394  83.853  1.00  0.00     0.027 C 
BRANCH  20  21
ATOM     21  C   UNL     1      87.550  80.677  83.599  1.00  0.00    -0.031 C 
ATOM     22  C   UNL     1      88.002  81.822  84.141  1.00  0.00    -0.028 C 
BRANCH  22  23
ATOM     23  C   UNL     1      87.390  83.127  83.901  1.00  0.00     0.005 C 
ATOM     24  C   UNL     1      86.274  83.008  82.829  1.00  0.00     0.012 C 
ATOM     25  C   UNL     1      86.867  83.728  85.234  1.00  0.00     0.012 C 
ENDBRANCH  22  23
ENDBRANCH  20  21
ENDBRANCH  19  20
ENDBRANCH  18  19
ENDBRANCH   1  18
TORSDOF 11
ENDMDL
MODEL 6
REMARK VINA RESULT:    -5.697      2.576      8.029
REMARK INTER + INTRA:         -10.390
REMARK INTER:                  -9.566
REMARK INTRA:                  -0.824
REMARK UNBOUND:                -1.196
REMARK SMILES COc1cc(CNC(=O)CCCCC/C=C/C(C)C)ccc1O
REMARK SMILES IDX 11 1 10 2 8 3 7 4 9 6 6 7 5 8 3 9 22 10 4 11 21 12 20 13
REMARK SMILES IDX 2 14 1 15 23 16 12 18 13 19 14 20 15 21 16 22 17 23 18 24
REMARK SMILES IDX 19 25
REMARK H PARENT 7 5 23 17
REMARK Flexibility Score: inf
ROOT
ATOM      1  C   UNL     1      97.044  80.530  81.723  1.00  0.00     0.010 C 
ENDROOT
BRANCH   1   2
ATOM      2  C   UNL     1      97.210  79.658  82.994  1.00  0.00     0.100 C 
BRANCH   2   3
ATOM      3  C   UNL     1      95.986  78.939  83.394  1.00  0.00     0.220 C 
ATOM      4  N   UNL     1      95.185  79.453  84.367  1.00  0.00    -0.352 N 
ATOM      5  H   UNL     1      95.543  80.288  84.811  1.00  0.00     0.163 HD
ATOM      6  O   UNL     1      95.692  77.881  82.789  1.00  0.00    -0.275 OA
BRANCH   4   7
ATOM      7  C   UNL     1      93.930  78.914  84.780  1.00  0.00     0.151 C 
BRANCH   7   8
ATOM      8  C   UNL     1      92.805  79.864  84.578  1.00  0.00    -0.025 A 
ATOM      9  C   UNL     1      91.883  82.141  84.702  1.00  0.00     0.160 A 
ATOM     10  C   UNL     1      90.638  81.661  84.240  1.00  0.00     0.157 A 
ATOM     11  C   UNL     1      92.953  81.239  84.875  1.00  0.00     0.056 A 
ATOM     12  C   UNL     1      90.485  80.298  83.925  1.00  0.00     0.050 A 
ATOM     13  C   UNL     1      91.563  79.408  84.082  1.00  0.00     0.009 A 
BRANCH   9  14
ATOM     14  O   UNL     1      92.068  83.479  84.928  1.00  0.00    -0.493 OA
ATOM     15  C   UNL     1      93.049  83.774  85.936  1.00  0.00     0.278 C 
ENDBRANCH   9  14
BRANCH  10  16
ATOM     16  O   UNL     1      89.575  82.490  84.087  1.00  0.00    -0.504 OA
ATOM     17  H   UNL     1      89.096  82.251  83.290  1.00  0.00     0.293 HD
ENDBRANCH  10  16
ENDBRANCH   7   8
ENDBRANCH   4   7
ENDBRANCH   2   3
ENDBRANCH   1   2
BRANCH   1  18
ATOM     18  C   UNL     1      96.594  81.968  82.086  1.00  0.00     0.001 C 
BRANCH  18  19
ATOM     19  C   UNL     1      97.012  83.034  81.041  1.00  0.00     0.004 C 
BRANCH  19  20
ATOM     20  C   UNL     1      97.575  82.373  79.751  1.00  0.00     0.027 C 
BRANCH  20  21
ATOM     21  C   UNL     1      97.193  83.060  78.529  1.00  0.00    -0.031 C 
ATOM     22  C   UNL     1      97.903  82.951  77.392  1.00  0.00    -0.028 C 
BRANCH  22  23
ATOM     23  C   UNL     1      97.544  83.624  76.146  1.00  0.00     0.005 C 
ATOM     24  C   UNL     1      96.516  84.753  76.422  1.00  0.00     0.012 C 
ATOM     25  C   UNL     1      98.819  84.148  75.432  1.00  0.00     0.012 C 
ENDBRANCH  22  23
ENDBRANCH  20  21
ENDBRANCH  19  20
ENDBRANCH  18  19
ENDBRANCH   1  18
TORSDOF 11
ENDMDL
MODEL 7
REMARK VINA RESULT:    -5.542     23.591     26.021
REMARK INTER + INTRA:         -10.140
REMARK INTER:                  -7.900
REMARK INTRA:                  -2.240
REMARK UNBOUND:                -1.196
REMARK SMILES COc1cc(CNC(=O)CCCCC/C=C/C(C)C)ccc1O
REMARK SMILES IDX 11 1 10 2 8 3 7 4 9 6 6 7 5 8 3 9 22 10 4 11 21 12 20 13
REMARK SMILES IDX 2 14 1 15 23 16 12 18 13 19 14 20 15 21 16 22 17 23 18 24
REMARK SMILES IDX 19 25
REMARK H PARENT 7 5 23 17
REMARK Flexibility Score: inf
ROOT
ATOM      1  C   UNL     1      75.595  85.203  70.056  1.00  0.00     0.010 C 
ENDROOT
BRANCH   1   2
ATOM      2  C   UNL     1      77.118  85.423  69.858  1.00  0.00     0.100 C 
BRANCH   2   3
ATOM      3  C   UNL     1      77.460  86.195  68.649  1.00  0.00     0.220 C 
ATOM      4  N   UNL     1      77.247  87.540  68.621  1.00  0.00    -0.352 N 
ATOM      5  H   UNL     1      76.783  87.910  69.439  1.00  0.00     0.163 HD
ATOM      6  O   UNL     1      77.983  85.590  67.684  1.00  0.00    -0.275 OA
BRANCH   4   7
ATOM      7  C   UNL     1      77.620  88.416  67.559  1.00  0.00     0.151 C 
BRANCH   7   8
ATOM      8  C   UNL     1      76.465  88.814  66.713  1.00  0.00    -0.025 A 
ATOM      9  C   UNL     1      75.025  88.446  64.753  1.00  0.00     0.160 A 
ATOM     10  C   UNL     1      74.293  89.610  65.073  1.00  0.00     0.157 A 
ATOM     11  C   UNL     1      76.109  88.062  65.569  1.00  0.00     0.056 A 
ATOM     12  C   UNL     1      74.626  90.356  66.218  1.00  0.00     0.050 A 
ATOM     13  C   UNL     1      75.698  89.955  67.038  1.00  0.00     0.009 A 
BRANCH   9  14
ATOM     14  O   UNL     1      74.654  87.664  63.691  1.00  0.00    -0.493 OA
ATOM     15  C   UNL     1      73.778  86.579  64.038  1.00  0.00     0.278 C 
ENDBRANCH   9  14
BRANCH  10  16
ATOM     16  O   UNL     1      73.261  90.029  64.299  1.00  0.00    -0.504 OA
ATOM     17  H   UNL     1      73.214  90.988  64.320  1.00  0.00     0.293 HD
ENDBRANCH  10  16
ENDBRANCH   7   8
ENDBRANCH   4   7
ENDBRANCH   2   3
ENDBRANCH   1   2
BRANCH   1  18
ATOM     18  C   UNL     1      74.921  84.737  68.741  1.00  0.00     0.001 C 
BRANCH  18  19
ATOM     19  C   UNL     1      73.486  85.288  68.547  1.00  0.00     0.004 C 
BRANCH  19  20
ATOM     20  C   UNL     1      73.468  86.490  67.562  1.00  0.00     0.027 C 
BRANCH  20  21
ATOM     21  C   UNL     1      72.901  87.702  68.130  1.00  0.00    -0.031 C 
ATOM     22  C   UNL     1      73.473  88.348  69.161  1.00  0.00    -0.028 C 
BRANCH  22  23
ATOM     23  C   UNL     1      72.931  89.570  69.750  1.00  0.00     0.005 C 
ATOM     24  C   UNL     1      71.509  89.311  70.315  1.00  0.00     0.012 C 
ATOM     25  C   UNL     1      73.902  90.122  70.829  1.00  0.00     0.012 C 
ENDBRANCH  22  23
ENDBRANCH  20  21
ENDBRANCH  19  20
ENDBRANCH  18  19
ENDBRANCH   1  18
TORSDOF 11
ENDMDL
MODEL 8
REMARK VINA RESULT:    -5.529      5.857     11.196
REMARK INTER + INTRA:         -10.119
REMARK INTER:                  -8.850
REMARK INTRA:                  -1.269
REMARK UNBOUND:                -1.196
REMARK SMILES COc1cc(CNC(=O)CCCCC/C=C/C(C)C)ccc1O
REMARK SMILES IDX 11 1 10 2 8 3 7 4 9 6 6 7 5 8 3 9 22 10 4 11 21 12 20 13
REMARK SMILES IDX 2 14 1 15 23 16 12 18 13 19 14 20 15 21 16 22 17 23 18 24
REMARK SMILES IDX 19 25
REMARK H PARENT 7 5 23 17
REMARK Flexibility Score: inf
ROOT
ATOM      1  C   UNL     1      97.727  83.510  73.471  1.00  0.00     0.010 C 
ENDROOT
BRANCH   1   2
ATOM      2  C   UNL     1      98.021  84.616  74.518  1.00  0.00     0.100 C 
BRANCH   2   3
ATOM      3  C   UNL     1      97.091  84.621  75.663  1.00  0.00     0.220 C 
ATOM      4  N   UNL     1      97.246  83.713  76.666  1.00  0.00    -0.352 N 
ATOM      5  H   UNL     1      97.974  83.030  76.508  1.00  0.00     0.163 HD
ATOM      6  O   UNL     1      96.197  85.499  75.700  1.00  0.00    -0.275 OA
BRANCH   4   7
ATOM      7  C   UNL     1      96.482  83.669  77.870  1.00  0.00     0.151 C 
BRANCH   7   8
ATOM      8  C   UNL     1      97.249  83.110  79.014  1.00  0.00    -0.025 A 
ATOM      9  C   UNL     1      99.235  81.958  79.894  1.00  0.00     0.160 A 
ATOM     10  C   UNL     1      98.682  81.998  81.193  1.00  0.00     0.157 A 
ATOM     11  C   UNL     1      98.512  82.505  78.815  1.00  0.00     0.056 A 
ATOM     12  C   UNL     1      97.434  82.612  81.405  1.00  0.00     0.050 A 
ATOM     13  C   UNL     1      96.727  83.174  80.325  1.00  0.00     0.009 A 
BRANCH   9  14
ATOM     14  O   UNL     1     100.487  81.441  79.691  1.00  0.00    -0.493 OA
ATOM     15  C   UNL     1     100.708  80.942  78.361  1.00  0.00     0.278 C 
ENDBRANCH   9  14
BRANCH  10  16
ATOM     16  O   UNL     1      99.332  81.457  82.253  1.00  0.00    -0.504 OA
ATOM     17  H   UNL     1      99.352  82.092  82.974  1.00  0.00     0.293 HD
ENDBRANCH  10  16
ENDBRANCH   7   8
ENDBRANCH   4   7
ENDBRANCH   2   3
ENDBRANCH   1   2
BRANCH   1  18
ATOM     18  C   UNL     1      98.902  82.504  73.374  1.00  0.00     0.001 C 
BRANCH  18  19
ATOM     19  C   UNL     1      99.369  82.229  71.923  1.00  0.00     0.004 C 
BRANCH  19  20
ATOM     20  C   UNL     1     100.169  83.430  71.346  1.00  0.00     0.027 C 
BRANCH  20  21
ATOM     21  C   UNL     1     101.221  83.908  72.227  1.00  0.00    -0.031 C 
ATOM     22  C   UNL     1     101.283  85.185  72.645  1.00  0.00    -0.028 C 
BRANCH  22  23
ATOM     23  C   UNL     1     102.324  85.695  73.535  1.00  0.00     0.005 C 
ATOM     24  C   UNL     1     101.763  85.876  74.970  1.00  0.00     0.012 C 
ATOM     25  C   UNL     1     103.565  84.762  73.500  1.00  0.00     0.012 C 
ENDBRANCH  22  23
ENDBRANCH  20  21
ENDBRANCH  19  20
ENDBRANCH  18  19
ENDBRANCH   1  18
TORSDOF 11
ENDMDL
MODEL 9
REMARK VINA RESULT:    -5.456     14.965     17.116
REMARK INTER + INTRA:         -10.001
REMARK INTER:                  -8.868
REMARK INTRA:                  -1.133
REMARK UNBOUND:                -1.196
REMARK SMILES COc1cc(CNC(=O)CCCCC/C=C/C(C)C)ccc1O
REMARK SMILES IDX 11 1 10 2 8 3 7 4 9 6 6 7 5 8 3 9 22 10 4 11 21 12 20 13
REMARK SMILES IDX 2 14 1 15 23 16 12 18 13 19 14 20 15 21 16 22 17 23 18 24
REMARK SMILES IDX 19 25
REMARK H PARENT 7 5 23 17
REMARK Flexibility Score: inf
ROOT
ATOM      1  C   UNL     1      93.802  97.270  77.650  1.00  0.00     0.010 C 
ENDROOT
BRANCH   1   2
ATOM      2  C   UNL     1      94.436  95.939  78.129  1.00  0.00     0.100 C 
BRANCH   2   3
ATOM      3  C   UNL     1      95.674  96.111  78.912  1.00  0.00     0.220 C 
ATOM      4  N   UNL     1      95.627  96.069  80.273  1.00  0.00    -0.352 N 
ATOM      5  H   UNL     1      94.697  95.991  80.660  1.00  0.00     0.163 HD
ATOM      6  O   UNL     1      96.756  96.253  78.294  1.00  0.00    -0.275 OA
BRANCH   4   7
ATOM      7  C   UNL     1      96.756  96.125  81.144  1.00  0.00     0.151 C 
BRANCH   7   8
ATOM      8  C   UNL     1      96.937  97.464  81.761  1.00  0.00    -0.025 A 
ATOM      9  C   UNL     1      98.113  98.954  83.324  1.00  0.00     0.160 A 
ATOM     10  C   UNL     1      97.243 100.009  82.973  1.00  0.00     0.157 A 
ATOM     11  C   UNL     1      97.949  97.690  82.723  1.00  0.00     0.056 A 
ATOM     12  C   UNL     1      96.244  99.801  82.004  1.00  0.00     0.050 A 
ATOM     13  C   UNL     1      96.099  98.541  81.394  1.00  0.00     0.009 A 
BRANCH   9  14
ATOM     14  O   UNL     1      99.144  99.170  84.200  1.00  0.00    -0.493 OA
ATOM     15  C   UNL     1      99.019  98.456  85.442  1.00  0.00     0.278 C 
ENDBRANCH   9  14
BRANCH  10  16
ATOM     16  O   UNL     1      97.349 101.233  83.548  1.00  0.00    -0.504 OA
ATOM     17  H   UNL     1      98.112 101.691  83.187  1.00  0.00     0.293 HD
ENDBRANCH  10  16
ENDBRANCH   7   8
ENDBRANCH   4   7
ENDBRANCH   2   3
ENDBRANCH   1   2
BRANCH   1  18
ATOM     18  C   UNL     1      94.297  97.646  76.230  1.00  0.00     0.001 C 
BRANCH  18  19
ATOM     19  C   UNL     1      94.506  96.425  75.299  1.00  0.00     0.004 C 
BRANCH  19  20
ATOM     20  C   UNL     1      93.199  96.058  74.542  1.00  0.00     0.027 C 
BRANCH  20  21
ATOM     21  C   UNL     1      92.553  94.856  75.041  1.00  0.00    -0.031 C 
ATOM     22  C   UNL     1      91.508  94.899  75.887  1.00  0.00    -0.028 C 
BRANCH  22  23
ATOM     23  C   UNL     1      90.834  93.710  76.402  1.00  0.00     0.005 C 
ATOM     24  C   UNL     1      89.512  94.106  77.112  1.00  0.00     0.012 C 
ATOM     25  C   UNL     1      90.603  92.686  75.257  1.00  0.00     0.012 C 
ENDBRANCH  22  23
ENDBRANCH  20  21
ENDBRANCH  19  20
ENDBRANCH  18  19
ENDBRANCH   1  18
TORSDOF 11
ENDMDL
MODEL 10
REMARK VINA RESULT:    -5.392     23.162     25.710
REMARK INTER + INTRA:          -9.897
REMARK INTER:                  -8.532
REMARK INTRA:                  -1.365
REMARK UNBOUND:                -1.196
REMARK SMILES COc1cc(CNC(=O)CCCCC/C=C/C(C)C)ccc1O
REMARK SMILES IDX 11 1 10 2 8 3 7 4 9 6 6 7 5 8 3 9 22 10 4 11 21 12 20 13
REMARK SMILES IDX 2 14 1 15 23 16 12 18 13 19 14 20 15 21 16 22 17 23 18 24
REMARK SMILES IDX 19 25
REMARK H PARENT 7 5 23 17
REMARK Flexibility Score: inf
ROOT
ATOM      1  C   UNL     1      75.731  84.547  70.087  1.00  0.00     0.010 C 
ENDROOT
BRANCH   1   2
ATOM      2  C   UNL     1      77.194  85.049  69.978  1.00  0.00     0.100 C 
BRANCH   2   3
ATOM      3  C   UNL     1      77.429  85.979  68.857  1.00  0.00     0.220 C 
ATOM      4  N   UNL     1      77.052  87.283  68.968  1.00  0.00    -0.352 N 
ATOM      5  H   UNL     1      76.555  87.507  69.819  1.00  0.00     0.163 HD
ATOM      6  O   UNL     1      78.012  85.545  67.836  1.00  0.00    -0.275 OA
BRANCH   4   7
ATOM      7  C   UNL     1      77.305  88.304  68.005  1.00  0.00     0.151 C 
BRANCH   7   8
ATOM      8  C   UNL     1      76.234  89.333  67.967  1.00  0.00    -0.025 A 
ATOM      9  C   UNL     1      74.485  90.639  69.101  1.00  0.00     0.160 A 
ATOM     10  C   UNL     1      74.155  91.258  67.877  1.00  0.00     0.157 A 
ATOM     11  C   UNL     1      75.514  89.676  69.136  1.00  0.00     0.056 A 
ATOM     12  C   UNL     1      74.874  90.937  66.711  1.00  0.00     0.050 A 
ATOM     13  C   UNL     1      75.914  89.990  66.758  1.00  0.00     0.009 A 
BRANCH   9  14
ATOM     14  O   UNL     1      73.850  91.008  70.258  1.00  0.00    -0.493 OA
ATOM     15  C   UNL     1      73.142  89.938  70.906  1.00  0.00     0.278 C 
ENDBRANCH   9  14
BRANCH  10  16
ATOM     16  O   UNL     1      73.152  92.169  67.795  1.00  0.00    -0.504 OA
ATOM     17  H   UNL     1      73.053  92.612  68.642  1.00  0.00     0.293 HD
ENDBRANCH  10  16
ENDBRANCH   7   8
ENDBRANCH   4   7
ENDBRANCH   2   3
ENDBRANCH   1   2
BRANCH   1  18
ATOM     18  C   UNL     1      75.070  84.444  68.688  1.00  0.00     0.001 C 
BRANCH  18  19
ATOM     19  C   UNL     1      73.896  85.434  68.479  1.00  0.00     0.004 C 
BRANCH  19  20
ATOM     20  C   UNL     1      74.058  86.234  67.157  1.00  0.00     0.027 C 
BRANCH  20  21
ATOM     21  C   UNL     1      74.907  85.577  66.177  1.00  0.00    -0.031 C 
ATOM     22  C   UNL     1      74.495  84.511  65.468  1.00  0.00    -0.028 C 
BRANCH  22  23
ATOM     23  C   UNL     1      75.321  83.832  64.473  1.00  0.00     0.005 C 
ATOM     24  C   UNL     1      75.658  84.798  63.305  1.00  0.00     0.012 C 
ATOM     25  C   UNL     1      76.594  83.247  65.141  1.00  0.00     0.012 C 
ENDBRANCH  22  23
ENDBRANCH  20  21
ENDBRANCH  19  20
ENDBRANCH  18  19
ENDBRANCH   1  18
TORSDOF 11
ENDMDL
