MODEL 1
REMARK VINA RESULT:    -6.440      0.000      0.000
REMARK INTER + INTRA:         -10.589
REMARK INTER:                 -10.017
REMARK INTRA:                  -0.572
REMARK UNBOUND:                -0.572
REMARK SMILES COc1cc(CNC(=O)CCCC/C=C/C(C)C)ccc1O
REMARK SMILES IDX 10 1 8 2 7 3 9 5 6 6 5 7 3 8 21 9 4 10 20 11 19 12 2 13 1 14
REMARK SMILES IDX 22 15 11 17 12 18 13 19 14 20 15 21 16 22 17 23 18 24
REMARK H PARENT 7 4 22 16
REMARK Flexibility Score: inf
ROOT
ATOM      1  C   UNL     1      95.687  82.224  83.161  1.00  0.00     0.100 C 
ENDROOT
BRANCH   1   2
ATOM      2  C   UNL     1      94.867  82.211  84.388  1.00  0.00     0.220 C 
ATOM      3  N   UNL     1      93.587  81.745  84.359  1.00  0.00    -0.352 N 
ATOM      4  H   UNL     1      93.263  81.445  83.450  1.00  0.00     0.163 HD
ATOM      5  O   UNL     1      95.389  82.618  85.454  1.00  0.00    -0.275 OA
BRANCH   3   6
ATOM      6  C   UNL     1      92.724  81.661  85.493  1.00  0.00     0.151 C 
BRANCH   6   7
ATOM      7  C   UNL     1      91.524  80.828  85.207  1.00  0.00    -0.025 A 
ATOM      8  C   UNL     1      89.079  80.609  85.027  1.00  0.00     0.160 A 
ATOM      9  C   UNL     1      89.227  79.259  84.645  1.00  0.00     0.157 A 
ATOM     10  C   UNL     1      90.227  81.379  85.306  1.00  0.00     0.056 A 
ATOM     11  C   UNL     1      90.513  78.691  84.561  1.00  0.00     0.050 A 
ATOM     12  C   UNL     1      91.654  79.471  84.830  1.00  0.00     0.009 A 
BRANCH   8  13
ATOM     13  O   UNL     1      87.826  81.148  85.174  1.00  0.00    -0.493 OA
ATOM     14  C   UNL     1      87.359  81.871  84.020  1.00  0.00     0.278 C 
ENDBRANCH   8  13
BRANCH   9  15
ATOM     15  O   UNL     1      88.142  78.494  84.356  1.00  0.00    -0.504 OA
ATOM     16  H   UNL     1      88.214  78.162  83.458  1.00  0.00     0.293 HD
ENDBRANCH   9  15
ENDBRANCH   6   7
ENDBRANCH   3   6
ENDBRANCH   1   2
BRANCH   1  17
ATOM     17  C   UNL     1      96.017  80.786  82.678  1.00  0.00     0.010 C 
BRANCH  17  18
ATOM     18  C   UNL     1      96.916  80.765  81.410  1.00  0.00     0.005 C 
BRANCH  18  19
ATOM     19  C   UNL     1      96.904  82.122  80.655  1.00  0.00     0.027 C 
BRANCH  19  20
ATOM     20  C   UNL     1      97.144  81.957  79.229  1.00  0.00    -0.031 C 
ATOM     21  C   UNL     1      96.284  82.340  78.268  1.00  0.00    -0.028 C 
BRANCH  21  22
ATOM     22  C   UNL     1      96.556  82.182  76.840  1.00  0.00     0.005 C 
ATOM     23  C   UNL     1      95.999  83.365  76.000  1.00  0.00     0.012 C 
ATOM     24  C   UNL     1      98.077  82.002  76.600  1.00  0.00     0.012 C 
ENDBRANCH  21  22
ENDBRANCH  19  20
ENDBRANCH  18  19
ENDBRANCH  17  18
ENDBRANCH   1  17
TORSDOF 10
ENDMDL
MODEL 2
REMARK VINA RESULT:    -6.396     17.407     21.050
REMARK INTER + INTRA:         -10.521
REMARK INTER:                  -9.734
REMARK INTRA:                  -0.787
REMARK UNBOUND:                -0.572
REMARK SMILES COc1cc(CNC(=O)CCCC/C=C/C(C)C)ccc1O
REMARK SMILES IDX 10 1 8 2 7 3 9 5 6 6 5 7 3 8 21 9 4 10 20 11 19 12 2 13 1 14
REMARK SMILES IDX 22 15 11 17 12 18 13 19 14 20 15 21 16 22 17 23 18 24
REMARK H PARENT 7 4 22 16
REMARK Flexibility Score: inf
ROOT
ATOM      1  C   UNL     1      95.153  98.214  72.746  1.00  0.00     0.100 C 
ENDROOT
BRANCH   1   2
ATOM      2  C   UNL     1      94.073  99.196  72.532  1.00  0.00     0.220 C 
ATOM      3  N   UNL     1      93.861  99.731  71.297  1.00  0.00    -0.352 N 
ATOM      4  H   UNL     1      94.504  99.421  70.581  1.00  0.00     0.163 HD
ATOM      5  O   UNL     1      93.348  99.501  73.509  1.00  0.00    -0.275 OA
BRANCH   3   6
ATOM      6  C   UNL     1      92.825 100.662  70.979  1.00  0.00     0.151 C 
BRANCH   6   7
ATOM      7  C   UNL     1      91.674  99.992  70.315  1.00  0.00    -0.025 A 
ATOM      8  C   UNL     1      90.397  99.481  68.272  1.00  0.00     0.160 A 
ATOM      9  C   UNL     1      89.495  98.706  69.029  1.00  0.00     0.157 A 
ATOM     10  C   UNL     1      91.476 100.118  68.921  1.00  0.00     0.056 A 
ATOM     11  C   UNL     1      89.668  98.587  70.423  1.00  0.00     0.050 A 
ATOM     12  C   UNL     1      90.755  99.217  71.060  1.00  0.00     0.009 A 
BRANCH   8  13
ATOM     13  O   UNL     1      90.195  99.654  66.927  1.00  0.00    -0.493 OA
ATOM     14  C   UNL     1      90.963 100.727  66.350  1.00  0.00     0.278 C 
ENDBRANCH   8  13
BRANCH   9  15
ATOM     15  O   UNL     1      88.454  98.069  68.433  1.00  0.00    -0.504 OA
ATOM     16  H   UNL     1      88.702  97.813  67.542  1.00  0.00     0.293 HD
ENDBRANCH   9  15
ENDBRANCH   6   7
ENDBRANCH   3   6
ENDBRANCH   1   2
BRANCH   1  17
ATOM     17  C   UNL     1      95.621  98.191  74.227  1.00  0.00     0.010 C 
BRANCH  17  18
ATOM     18  C   UNL     1      95.584  96.767  74.851  1.00  0.00     0.005 C 
BRANCH  18  19
ATOM     19  C   UNL     1      94.346  95.952  74.389  1.00  0.00     0.027 C 
BRANCH  19  20
ATOM     20  C   UNL     1      93.334  95.857  75.430  1.00  0.00    -0.031 C 
ATOM     21  C   UNL     1      93.252  94.848  76.316  1.00  0.00    -0.028 C 
BRANCH  21  22
ATOM     22  C   UNL     1      92.238  94.783  77.367  1.00  0.00     0.005 C 
ATOM     23  C   UNL     1      90.796  94.927  76.804  1.00  0.00     0.012 C 
ATOM     24  C   UNL     1      92.387  93.468  78.176  1.00  0.00     0.012 C 
ENDBRANCH  21  22
ENDBRANCH  19  20
ENDBRANCH  18  19
ENDBRANCH  17  18
ENDBRANCH   1  17
TORSDOF 10
ENDMDL
MODEL 3
REMARK VINA RESULT:    -5.869     19.947     23.951
REMARK INTER + INTRA:          -9.701
REMARK INTER:                  -8.902
REMARK INTRA:                  -0.799
REMARK UNBOUND:                -0.572
REMARK SMILES COc1cc(CNC(=O)CCCC/C=C/C(C)C)ccc1O
REMARK SMILES IDX 10 1 8 2 7 3 9 5 6 6 5 7 3 8 21 9 4 10 20 11 19 12 2 13 1 14
REMARK SMILES IDX 22 15 11 17 12 18 13 19 14 20 15 21 16 22 17 23 18 24
REMARK H PARENT 7 4 22 16
REMARK Flexibility Score: inf
ROOT
ATOM      1  C   UNL     1      88.984  98.920  68.800  1.00  0.00     0.100 C 
ENDROOT
BRANCH   1   2
ATOM      2  C   UNL     1      89.784  99.137  70.021  1.00  0.00     0.220 C 
ATOM      3  N   UNL     1      90.413 100.327  70.233  1.00  0.00    -0.352 N 
ATOM      4  H   UNL     1      90.301 101.006  69.493  1.00  0.00     0.163 HD
ATOM      5  O   UNL     1      89.847  98.207  70.861  1.00  0.00    -0.275 OA
BRANCH   3   6
ATOM      6  C   UNL     1      91.182 100.647  71.393  1.00  0.00     0.151 C 
BRANCH   6   7
ATOM      7  C   UNL     1      92.518  99.992  71.360  1.00  0.00    -0.025 A 
ATOM      8  C   UNL     1      94.287  98.707  72.493  1.00  0.00     0.160 A 
ATOM      9  C   UNL     1      95.055  98.722  71.310  1.00  0.00     0.157 A 
ATOM     10  C   UNL     1      93.028  99.344  72.508  1.00  0.00     0.056 A 
ATOM     11  C   UNL     1      94.569  99.381  70.165  1.00  0.00     0.050 A 
ATOM     12  C   UNL     1      93.305 100.004  70.185  1.00  0.00     0.009 A 
BRANCH   8  13
ATOM     13  O   UNL     1      94.785  98.123  73.630  1.00  0.00    -0.493 OA
ATOM     14  C   UNL     1      93.834  97.301  74.332  1.00  0.00     0.278 C 
ENDBRANCH   8  13
BRANCH   9  15
ATOM     15  O   UNL     1      96.265  98.107  71.259  1.00  0.00    -0.504 OA
ATOM     16  H   UNL     1      96.903  98.689  70.840  1.00  0.00     0.293 HD
ENDBRANCH   9  15
ENDBRANCH   6   7
ENDBRANCH   3   6
ENDBRANCH   1   2
BRANCH   1  17
ATOM     17  C   UNL     1      89.874  98.897  67.529  1.00  0.00     0.010 C 
BRANCH  17  18
ATOM     18  C   UNL     1      89.266  99.708  66.350  1.00  0.00     0.005 C 
BRANCH  18  19
ATOM     19  C   UNL     1      87.715  99.644  66.327  1.00  0.00     0.027 C 
BRANCH  19  20
ATOM     20  C   UNL     1      87.110 100.953  66.526  1.00  0.00    -0.031 C 
ATOM     21  C   UNL     1      87.751 102.119  66.329  1.00  0.00    -0.028 C 
BRANCH  21  22
ATOM     22  C   UNL     1      87.117 103.424  66.517  1.00  0.00     0.005 C 
ATOM     23  C   UNL     1      87.978 104.585  65.946  1.00  0.00     0.012 C 
ATOM     24  C   UNL     1      85.699 103.426  65.889  1.00  0.00     0.012 C 
ENDBRANCH  21  22
ENDBRANCH  19  20
ENDBRANCH  18  19
ENDBRANCH  17  18
ENDBRANCH   1  17
TORSDOF 10
ENDMDL
MODEL 4
REMARK VINA RESULT:    -5.833      1.823      2.168
REMARK INTER + INTRA:          -9.645
REMARK INTER:                  -9.012
REMARK INTRA:                  -0.633
REMARK UNBOUND:                -0.572
REMARK SMILES COc1cc(CNC(=O)CCCC/C=C/C(C)C)ccc1O
REMARK SMILES IDX 10 1 8 2 7 3 9 5 6 6 5 7 3 8 21 9 4 10 20 11 19 12 2 13 1 14
REMARK SMILES IDX 22 15 11 17 12 18 13 19 14 20 15 21 16 22 17 23 18 24
REMARK H PARENT 7 4 22 16
REMARK Flexibility Score: inf
ROOT
ATOM      1  C   UNL     1      95.493  81.700  84.760  1.00  0.00     0.100 C 
ENDROOT
BRANCH   1   2
ATOM      2  C   UNL     1      94.195  82.051  85.367  1.00  0.00     0.220 C 
ATOM      3  N   UNL     1      93.029  81.726  84.741  1.00  0.00    -0.352 N 
ATOM      4  H   UNL     1      93.138  81.264  83.849  1.00  0.00     0.163 HD
ATOM      5  O   UNL     1      94.199  82.633  86.479  1.00  0.00    -0.275 OA
BRANCH   3   6
ATOM      6  C   UNL     1      91.725  81.992  85.258  1.00  0.00     0.151 C 
BRANCH   6   7
ATOM      7  C   UNL     1      90.768  80.905  84.913  1.00  0.00    -0.025 A 
ATOM      8  C   UNL     1      88.470  80.167  84.428  1.00  0.00     0.160 A 
ATOM      9  C   UNL     1      88.933  78.849  84.235  1.00  0.00     0.157 A 
ATOM     10  C   UNL     1      89.390  81.181  84.767  1.00  0.00     0.056 A 
ATOM     11  C   UNL     1      90.301  78.555  84.396  1.00  0.00     0.050 A 
ATOM     12  C   UNL     1      91.214  79.576  84.723  1.00  0.00     0.009 A 
BRANCH   8  13
ATOM     13  O   UNL     1      87.129  80.445  84.338  1.00  0.00    -0.493 OA
ATOM     14  C   UNL     1      86.836  81.784  83.898  1.00  0.00     0.278 C 
ENDBRANCH   8  13
BRANCH   9  15
ATOM     15  O   UNL     1      88.075  77.852  83.895  1.00  0.00    -0.504 OA
ATOM     16  H   UNL     1      87.296  77.895  84.454  1.00  0.00     0.293 HD
ENDBRANCH   9  15
ENDBRANCH   6   7
ENDBRANCH   3   6
ENDBRANCH   1   2
BRANCH   1  17
ATOM     17  C   UNL     1      95.694  82.404  83.391  1.00  0.00     0.010 C 
BRANCH  17  18
ATOM     18  C   UNL     1      96.233  81.445  82.291  1.00  0.00     0.005 C 
BRANCH  18  19
ATOM     19  C   UNL     1      96.729  82.208  81.034  1.00  0.00     0.027 C 
BRANCH  19  20
ATOM     20  C   UNL     1      97.684  81.427  80.261  1.00  0.00    -0.031 C 
ATOM     21  C   UNL     1      98.010  80.150  80.532  1.00  0.00    -0.028 C 
BRANCH  21  22
ATOM     22  C   UNL     1      98.958  79.378  79.729  1.00  0.00     0.005 C 
ATOM     23  C   UNL     1      98.305  78.794  78.445  1.00  0.00     0.012 C 
ATOM     24  C   UNL     1     100.194  80.246  79.376  1.00  0.00     0.012 C 
ENDBRANCH  21  22
ENDBRANCH  19  20
ENDBRANCH  18  19
ENDBRANCH  17  18
ENDBRANCH   1  17
TORSDOF 10
ENDMDL
MODEL 5
REMARK VINA RESULT:    -5.622      6.061      9.664
REMARK INTER + INTRA:          -9.316
REMARK INTER:                  -8.179
REMARK INTRA:                  -1.137
REMARK UNBOUND:                -0.572
REMARK SMILES COc1cc(CNC(=O)CCCC/C=C/C(C)C)ccc1O
REMARK SMILES IDX 10 1 8 2 7 3 9 5 6 6 5 7 3 8 21 9 4 10 20 11 19 12 2 13 1 14
REMARK SMILES IDX 22 15 11 17 12 18 13 19 14 20 15 21 16 22 17 23 18 24
REMARK H PARENT 7 4 22 16
REMARK Flexibility Score: inf
ROOT
ATOM      1  C   UNL     1      98.335  82.747  73.050  1.00  0.00     0.100 C 
ENDROOT
BRANCH   1   2
ATOM      2  C   UNL     1      97.383  82.510  74.152  1.00  0.00     0.220 C 
ATOM      3  N   UNL     1      97.646  82.977  75.405  1.00  0.00    -0.352 N 
ATOM      4  H   UNL     1      98.530  83.458  75.504  1.00  0.00     0.163 HD
ATOM      5  O   UNL     1      96.322  81.891  73.896  1.00  0.00    -0.275 OA
BRANCH   3   6
ATOM      6  C   UNL     1      96.779  82.829  76.529  1.00  0.00     0.151 C 
BRANCH   6   7
ATOM      7  C   UNL     1      97.411  82.017  77.604  1.00  0.00    -0.025 A 
ATOM      8  C   UNL     1      97.440  81.224  79.935  1.00  0.00     0.160 A 
ATOM      9  C   UNL     1      98.591  80.458  79.661  1.00  0.00     0.157 A 
ATOM     10  C   UNL     1      96.862  81.997  78.907  1.00  0.00     0.056 A 
ATOM     11  C   UNL     1      99.161  80.482  78.373  1.00  0.00     0.050 A 
ATOM     12  C   UNL     1      98.570  81.248  77.349  1.00  0.00     0.009 A 
BRANCH   8  13
ATOM     13  O   UNL     1      96.921  81.256  81.205  1.00  0.00    -0.493 OA
ATOM     14  C   UNL     1      96.594  82.577  81.673  1.00  0.00     0.278 C 
ENDBRANCH   8  13
BRANCH   9  15
ATOM     15  O   UNL     1      99.165  79.693  80.626  1.00  0.00    -0.504 OA
ATOM     16  H   UNL     1      99.918  80.157  80.998  1.00  0.00     0.293 HD
ENDBRANCH   9  15
ENDBRANCH   6   7
ENDBRANCH   3   6
ENDBRANCH   1   2
BRANCH   1  17
ATOM     17  C   UNL     1      99.238  83.979  73.327  1.00  0.00     0.010 C 
BRANCH  17  18
ATOM     18  C   UNL     1     100.029  84.444  72.072  1.00  0.00     0.005 C 
BRANCH  18  19
ATOM     19  C   UNL     1     101.566  84.366  72.281  1.00  0.00     0.027 C 
BRANCH  19  20
ATOM     20  C   UNL     1     101.935  83.352  73.257  1.00  0.00    -0.031 C 
ATOM     21  C   UNL     1     102.204  82.070  72.951  1.00  0.00    -0.028 C 
BRANCH  21  22
ATOM     22  C   UNL     1     102.592  81.072  73.947  1.00  0.00     0.005 C 
ATOM     23  C   UNL     1     101.473  80.818  74.995  1.00  0.00     0.012 C 
ATOM     24  C   UNL     1     103.006  79.750  73.249  1.00  0.00     0.012 C 
ENDBRANCH  21  22
ENDBRANCH  19  20
ENDBRANCH  18  19
ENDBRANCH  17  18
ENDBRANCH   1  17
TORSDOF 10
ENDMDL
MODEL 6
REMARK VINA RESULT:    -5.572     22.792     25.541
REMARK INTER + INTRA:          -9.239
REMARK INTER:                  -7.466
REMARK INTRA:                  -1.773
REMARK UNBOUND:                -0.572
REMARK SMILES COc1cc(CNC(=O)CCCC/C=C/C(C)C)ccc1O
REMARK SMILES IDX 10 1 8 2 7 3 9 5 6 6 5 7 3 8 21 9 4 10 20 11 19 12 2 13 1 14
REMARK SMILES IDX 22 15 11 17 12 18 13 19 14 20 15 21 16 22 17 23 18 24
REMARK H PARENT 7 4 22 16
REMARK Flexibility Score: inf
ROOT
ATOM      1  C   UNL     1      74.117  89.753  66.922  1.00  0.00     0.100 C 
ENDROOT
BRANCH   1   2
ATOM      2  C   UNL     1      74.314  89.079  65.624  1.00  0.00     0.220 C 
ATOM      3  N   UNL     1      74.157  87.730  65.514  1.00  0.00    -0.352 N 
ATOM      4  H   UNL     1      73.928  87.256  66.376  1.00  0.00     0.163 HD
ATOM      5  O   UNL     1      74.604  89.785  64.628  1.00  0.00    -0.275 OA
BRANCH   3   6
ATOM      6  C   UNL     1      74.293  86.989  64.301  1.00  0.00     0.151 C 
BRANCH   6   7
ATOM      7  C   UNL     1      74.861  85.636  64.547  1.00  0.00    -0.025 A 
ATOM      8  C   UNL     1      74.545  83.206  64.789  1.00  0.00     0.160 A 
ATOM      9  C   UNL     1      75.930  83.045  64.997  1.00  0.00     0.157 A 
ATOM     10  C   UNL     1      74.024  84.498  64.568  1.00  0.00     0.056 A 
ATOM     11  C   UNL     1      76.775  84.173  64.999  1.00  0.00     0.050 A 
ATOM     12  C   UNL     1      76.247  85.458  64.766  1.00  0.00     0.009 A 
BRANCH   8  13
ATOM     13  O   UNL     1      73.709  82.120  64.852  1.00  0.00    -0.493 OA
ATOM     14  C   UNL     1      72.436  82.393  65.465  1.00  0.00     0.278 C 
ENDBRANCH   8  13
BRANCH   9  15
ATOM     15  O   UNL     1      76.466  81.814  65.199  1.00  0.00    -0.504 OA
ATOM     16  H   UNL     1      76.536  81.645  66.142  1.00  0.00     0.293 HD
ENDBRANCH   9  15
ENDBRANCH   6   7
ENDBRANCH   3   6
ENDBRANCH   1   2
BRANCH   1  17
ATOM     17  C   UNL     1      75.201  89.337  67.953  1.00  0.00     0.010 C 
BRANCH  17  18
ATOM     18  C   UNL     1      76.646  89.639  67.466  1.00  0.00     0.005 C 
BRANCH  18  19
ATOM     19  C   UNL     1      77.560  88.385  67.513  1.00  0.00     0.027 C 
BRANCH  19  20
ATOM     20  C   UNL     1      76.792  87.150  67.553  1.00  0.00    -0.031 C 
ATOM     21  C   UNL     1      76.755  86.316  68.608  1.00  0.00    -0.028 C 
BRANCH  21  22
ATOM     22  C   UNL     1      75.960  85.088  68.633  1.00  0.00     0.005 C 
ATOM     23  C   UNL     1      76.031  84.368  70.008  1.00  0.00     0.012 C 
ATOM     24  C   UNL     1      74.490  85.394  68.244  1.00  0.00     0.012 C 
ENDBRANCH  21  22
ENDBRANCH  19  20
ENDBRANCH  18  19
ENDBRANCH  17  18
ENDBRANCH   1  17
TORSDOF 10
ENDMDL
MODEL 7
REMARK VINA RESULT:    -5.484     14.767     19.178
REMARK INTER + INTRA:          -9.102
REMARK INTER:                  -8.257
REMARK INTRA:                  -0.846
REMARK UNBOUND:                -0.572
REMARK SMILES COc1cc(CNC(=O)CCCC/C=C/C(C)C)ccc1O
REMARK SMILES IDX 10 1 8 2 7 3 9 5 6 6 5 7 3 8 21 9 4 10 20 11 19 12 2 13 1 14
REMARK SMILES IDX 22 15 11 17 12 18 13 19 14 20 15 21 16 22 17 23 18 24
REMARK H PARENT 7 4 22 16
REMARK Flexibility Score: inf
ROOT
ATOM      1  C   UNL     1      93.879  95.854  75.264  1.00  0.00     0.100 C 
ENDROOT
BRANCH   1   2
ATOM      2  C   UNL     1      94.434  97.074  74.646  1.00  0.00     0.220 C 
ATOM      3  N   UNL     1      95.729  97.434  74.868  1.00  0.00    -0.352 N 
ATOM      4  H   UNL     1      96.241  96.823  75.490  1.00  0.00     0.163 HD
ATOM      5  O   UNL     1      93.688  97.750  73.897  1.00  0.00    -0.275 OA
BRANCH   3   6
ATOM      6  C   UNL     1      96.369  98.574  74.293  1.00  0.00     0.151 C 
BRANCH   6   7
ATOM      7  C   UNL     1      97.333  98.181  73.230  1.00  0.00    -0.025 A 
ATOM      8  C   UNL     1      97.771  97.328  70.961  1.00  0.00     0.160 A 
ATOM      9  C   UNL     1      99.158  97.446  71.184  1.00  0.00     0.157 A 
ATOM     10  C   UNL     1      96.872  97.694  71.985  1.00  0.00     0.056 A 
ATOM     11  C   UNL     1      99.633  97.910  72.427  1.00  0.00     0.050 A 
ATOM     12  C   UNL     1      98.728  98.285  73.439  1.00  0.00     0.009 A 
BRANCH   8  13
ATOM     13  O   UNL     1      97.305  96.814  69.778  1.00  0.00    -0.493 OA
ATOM     14  C   UNL     1      96.051  97.375  69.348  1.00  0.00     0.278 C 
ENDBRANCH   8  13
BRANCH   9  15
ATOM     15  O   UNL     1     100.050  97.114  70.215  1.00  0.00    -0.504 OA
ATOM     16  H   UNL     1     100.596  96.385  70.517  1.00  0.00     0.293 HD
ENDBRANCH   9  15
ENDBRANCH   6   7
ENDBRANCH   3   6
ENDBRANCH   1   2
BRANCH   1  17
ATOM     17  C   UNL     1      94.805  95.307  76.383  1.00  0.00     0.010 C 
BRANCH  17  18
ATOM     18  C   UNL     1      94.125  95.298  77.781  1.00  0.00     0.005 C 
BRANCH  18  19
ATOM     19  C   UNL     1      93.787  93.861  78.264  1.00  0.00     0.027 C 
BRANCH  19  20
ATOM     20  C   UNL     1      92.420  93.483  77.941  1.00  0.00    -0.031 C 
ATOM     21  C   UNL     1      92.043  92.937  76.771  1.00  0.00    -0.028 C 
BRANCH  21  22
ATOM     22  C   UNL     1      90.665  92.546  76.475  1.00  0.00     0.005 C 
ATOM     23  C   UNL     1      90.590  91.234  75.645  1.00  0.00     0.012 C 
ATOM     24  C   UNL     1      89.851  92.416  77.788  1.00  0.00     0.012 C 
ENDBRANCH  21  22
ENDBRANCH  19  20
ENDBRANCH  18  19
ENDBRANCH  17  18
ENDBRANCH   1  17
TORSDOF 10
ENDMDL
MODEL 8
REMARK VINA RESULT:    -5.477      1.370      2.249
REMARK INTER + INTRA:          -9.091
REMARK INTER:                  -8.565
REMARK INTRA:                  -0.526
REMARK UNBOUND:                -0.572
REMARK SMILES COc1cc(CNC(=O)CCCC/C=C/C(C)C)ccc1O
REMARK SMILES IDX 10 1 8 2 7 3 9 5 6 6 5 7 3 8 21 9 4 10 20 11 19 12 2 13 1 14
REMARK SMILES IDX 22 15 11 17 12 18 13 19 14 20 15 21 16 22 17 23 18 24
REMARK H PARENT 7 4 22 16
REMARK Flexibility Score: inf
ROOT
ATOM      1  C   UNL     1      95.428  82.248  83.626  1.00  0.00     0.100 C 
ENDROOT
BRANCH   1   2
ATOM      2  C   UNL     1      94.605  81.852  84.785  1.00  0.00     0.220 C 
ATOM      3  N   UNL     1      93.252  81.751  84.670  1.00  0.00    -0.352 N 
ATOM      4  H   UNL     1      92.882  81.987  83.760  1.00  0.00     0.163 HD
ATOM      5  O   UNL     1      95.190  81.592  85.865  1.00  0.00    -0.275 OA
BRANCH   3   6
ATOM      6  C   UNL     1      92.372  81.346  85.720  1.00  0.00     0.151 C 
BRANCH   6   7
ATOM      7  C   UNL     1      91.318  80.420  85.223  1.00  0.00    -0.025 A 
ATOM      8  C   UNL     1      90.200  78.227  85.304  1.00  0.00     0.160 A 
ATOM      9  C   UNL     1      89.302  78.648  84.302  1.00  0.00     0.157 A 
ATOM     10  C   UNL     1      91.200  79.115  85.753  1.00  0.00     0.056 A 
ATOM     11  C   UNL     1      89.419  79.939  83.750  1.00  0.00     0.050 A 
ATOM     12  C   UNL     1      90.413  80.823  84.213  1.00  0.00     0.009 A 
BRANCH   8  13
ATOM     13  O   UNL     1      90.132  76.949  85.797  1.00  0.00    -0.493 OA
ATOM     14  C   UNL     1      91.175  76.079  85.321  1.00  0.00     0.278 C 
ENDBRANCH   8  13
BRANCH   9  15
ATOM     15  O   UNL     1      88.319  77.822  83.856  1.00  0.00    -0.504 OA
ATOM     16  H   UNL     1      87.511  78.325  83.729  1.00  0.00     0.293 HD
ENDBRANCH   9  15
ENDBRANCH   6   7
ENDBRANCH   3   6
ENDBRANCH   1   2
BRANCH   1  17
ATOM     17  C   UNL     1      95.941  81.012  82.839  1.00  0.00     0.010 C 
BRANCH  17  18
ATOM     18  C   UNL     1      97.202  81.320  81.983  1.00  0.00     0.005 C 
BRANCH  18  19
ATOM     19  C   UNL     1      96.861  82.117  80.695  1.00  0.00     0.027 C 
BRANCH  19  20
ATOM     20  C   UNL     1      97.396  81.481  79.501  1.00  0.00    -0.031 C 
ATOM     21  C   UNL     1      97.249  81.967  78.255  1.00  0.00    -0.028 C 
BRANCH  21  22
ATOM     22  C   UNL     1      97.812  81.320  77.070  1.00  0.00     0.005 C 
ATOM     23  C   UNL     1      98.079  82.330  75.919  1.00  0.00     0.012 C 
ATOM     24  C   UNL     1      99.106  80.552  77.443  1.00  0.00     0.012 C 
ENDBRANCH  21  22
ENDBRANCH  19  20
ENDBRANCH  18  19
ENDBRANCH  17  18
ENDBRANCH   1  17
TORSDOF 10
ENDMDL
MODEL 9
REMARK VINA RESULT:    -5.471     22.654     24.609
REMARK INTER + INTRA:          -9.081
REMARK INTER:                  -8.460
REMARK INTRA:                  -0.621
REMARK UNBOUND:                -0.572
REMARK SMILES COc1cc(CNC(=O)CCCC/C=C/C(C)C)ccc1O
REMARK SMILES IDX 10 1 8 2 7 3 9 5 6 6 5 7 3 8 21 9 4 10 20 11 19 12 2 13 1 14
REMARK SMILES IDX 22 15 11 17 12 18 13 19 14 20 15 21 16 22 17 23 18 24
REMARK H PARENT 7 4 22 16
REMARK Flexibility Score: inf
ROOT
ATOM      1  C   UNL     1      74.327  89.050  68.217  1.00  0.00     0.100 C 
ENDROOT
BRANCH   1   2
ATOM      2  C   UNL     1      75.387  88.044  68.421  1.00  0.00     0.220 C 
ATOM      3  N   UNL     1      75.080  86.802  68.889  1.00  0.00    -0.352 N 
ATOM      4  H   UNL     1      74.102  86.654  69.097  1.00  0.00     0.163 HD
ATOM      5  O   UNL     1      76.566  88.359  68.129  1.00  0.00    -0.275 OA
BRANCH   3   6
ATOM      6  C   UNL     1      76.025  85.750  69.090  1.00  0.00     0.151 C 
BRANCH   6   7
ATOM      7  C   UNL     1      76.116  84.862  67.899  1.00  0.00    -0.025 A 
ATOM      8  C   UNL     1      75.042  83.323  66.304  1.00  0.00     0.160 A 
ATOM      9  C   UNL     1      76.266  83.180  65.618  1.00  0.00     0.157 A 
ATOM     10  C   UNL     1      74.979  84.160  67.438  1.00  0.00     0.056 A 
ATOM     11  C   UNL     1      77.412  83.858  66.077  1.00  0.00     0.050 A 
ATOM     12  C   UNL     1      77.337  84.701  67.203  1.00  0.00     0.009 A 
BRANCH   8  13
ATOM     13  O   UNL     1      73.940  82.614  65.901  1.00  0.00    -0.493 OA
ATOM     14  C   UNL     1      72.950  83.406  65.219  1.00  0.00     0.278 C 
ENDBRANCH   8  13
BRANCH   9  15
ATOM     15  O   UNL     1      76.358  82.392  64.515  1.00  0.00    -0.504 OA
ATOM     16  H   UNL     1      76.238  82.928  63.728  1.00  0.00     0.293 HD
ENDBRANCH   9  15
ENDBRANCH   6   7
ENDBRANCH   3   6
ENDBRANCH   1   2
BRANCH   1  17
ATOM     17  C   UNL     1      74.097  89.906  69.492  1.00  0.00     0.010 C 
BRANCH  17  18
ATOM     18  C   UNL     1      75.087  91.100  69.605  1.00  0.00     0.005 C 
BRANCH  18  19
ATOM     19  C   UNL     1      74.526  92.251  70.483  1.00  0.00     0.027 C 
BRANCH  19  20
ATOM     20  C   UNL     1      75.581  92.972  71.179  1.00  0.00    -0.031 C 
ATOM     21  C   UNL     1      75.370  93.819  72.203  1.00  0.00    -0.028 C 
BRANCH  21  22
ATOM     22  C   UNL     1      76.448  94.518  72.901  1.00  0.00     0.005 C 
ATOM     23  C   UNL     1      77.546  93.546  73.414  1.00  0.00     0.012 C 
ATOM     24  C   UNL     1      77.059  95.611  71.986  1.00  0.00     0.012 C 
ENDBRANCH  21  22
ENDBRANCH  19  20
ENDBRANCH  18  19
ENDBRANCH  17  18
ENDBRANCH   1  17
TORSDOF 10
ENDMDL
MODEL 10
REMARK VINA RESULT:    -5.379      5.769      9.399
REMARK INTER + INTRA:          -8.938
REMARK INTER:                  -7.850
REMARK INTRA:                  -1.088
REMARK UNBOUND:                -0.572
REMARK SMILES COc1cc(CNC(=O)CCCC/C=C/C(C)C)ccc1O
REMARK SMILES IDX 10 1 8 2 7 3 9 5 6 6 5 7 3 8 21 9 4 10 20 11 19 12 2 13 1 14
REMARK SMILES IDX 22 15 11 17 12 18 13 19 14 20 15 21 16 22 17 23 18 24
REMARK H PARENT 7 4 22 16
REMARK Flexibility Score: inf
ROOT
ATOM      1  C   UNL     1     102.399  78.863  78.902  1.00  0.00     0.100 C 
ENDROOT
BRANCH   1   2
ATOM      2  C   UNL     1     101.849  79.459  77.669  1.00  0.00     0.220 C 
ATOM      3  N   UNL     1     100.511  79.688  77.549  1.00  0.00    -0.352 N 
ATOM      4  H   UNL     1      99.956  79.399  78.343  1.00  0.00     0.163 HD
ATOM      5  O   UNL     1     102.648  79.767  76.752  1.00  0.00    -0.275 OA
BRANCH   3   6
ATOM      6  C   UNL     1      99.884  80.287  76.415  1.00  0.00     0.151 C 
BRANCH   6   7
ATOM      7  C   UNL     1      98.651  81.027  76.798  1.00  0.00    -0.025 A 
ATOM      8  C   UNL     1      96.663  82.329  76.155  1.00  0.00     0.160 A 
ATOM      9  C   UNL     1      96.286  82.425  77.511  1.00  0.00     0.157 A 
ATOM     10  C   UNL     1      97.841  81.634  75.812  1.00  0.00     0.056 A 
ATOM     11  C   UNL     1      97.094  81.842  78.507  1.00  0.00     0.050 A 
ATOM     12  C   UNL     1      98.263  81.140  78.154  1.00  0.00     0.009 A 
BRANCH   8  13
ATOM     13  O   UNL     1      95.915  82.951  75.188  1.00  0.00    -0.493 OA
ATOM     14  C   UNL     1      96.028  84.386  75.191  1.00  0.00     0.278 C 
ENDBRANCH   8  13
BRANCH   9  15
ATOM     15  O   UNL     1      95.151  83.076  77.874  1.00  0.00    -0.504 OA
ATOM     16  H   UNL     1      94.454  82.437  78.040  1.00  0.00     0.293 HD
ENDBRANCH   9  15
ENDBRANCH   6   7
ENDBRANCH   3   6
ENDBRANCH   1   2
BRANCH   1  17
ATOM     17  C   UNL     1     102.328  79.852  80.096  1.00  0.00     0.010 C 
BRANCH  17  18
ATOM     18  C   UNL     1     101.660  79.231  81.356  1.00  0.00     0.005 C 
BRANCH  18  19
ATOM     19  C   UNL     1     100.189  78.806  81.096  1.00  0.00     0.027 C 
BRANCH  19  20
ATOM     20  C   UNL     1      99.265  79.438  82.025  1.00  0.00    -0.031 C 
ATOM     21  C   UNL     1      98.181  80.142  81.652  1.00  0.00    -0.028 C 
BRANCH  21  22
ATOM     22  C   UNL     1      97.253  80.752  82.605  1.00  0.00     0.005 C 
ATOM     23  C   UNL     1      96.785  82.162  82.150  1.00  0.00     0.012 C 
ATOM     24  C   UNL     1      96.040  79.817  82.845  1.00  0.00     0.012 C 
ENDBRANCH  21  22
ENDBRANCH  19  20
ENDBRANCH  18  19
ENDBRANCH  17  18
ENDBRANCH   1  17
TORSDOF 10
ENDMDL
