MODEL 1
REMARK VINA RESULT:    -6.260      0.000      0.000
REMARK INTER + INTRA:         -10.931
REMARK INTER:                  -9.736
REMARK INTRA:                  -1.194
REMARK UNBOUND:                -1.194
REMARK SMILES COc1cc(CNC(=O)CCCCCC(C)C)ccc1O
REMARK SMILES IDX 10 1 8 2 7 3 9 5 6 6 5 7 3 8 20 9 4 10 19 11 18 12 2 13 1 14
REMARK SMILES IDX 21 15 11 17 12 18 13 19 14 20 15 21 16 22 17 23
REMARK H PARENT 7 4 21 16
REMARK Flexibility Score: inf
ROOT
ATOM      1  C   UNL     1      89.846  92.187  77.401  1.00  0.00     0.100 C 
ENDROOT
BRANCH   1   2
ATOM      2  C   UNL     1      90.372  93.426  76.792  1.00  0.00     0.220 C 
ATOM      3  N   UNL     1      91.715  93.559  76.598  1.00  0.00    -0.352 N 
ATOM      4  H   UNL     1      92.279  92.833  77.017  1.00  0.00     0.163 HD
ATOM      5  O   UNL     1      89.565  94.315  76.426  1.00  0.00    -0.275 OA
BRANCH   3   6
ATOM      6  C   UNL     1      92.339  94.616  75.870  1.00  0.00     0.151 C 
BRANCH   6   7
ATOM      7  C   UNL     1      93.774  94.798  76.218  1.00  0.00    -0.025 A 
ATOM      8  C   UNL     1      95.628  94.555  77.816  1.00  0.00     0.160 A 
ATOM      9  C   UNL     1      96.520  95.081  76.858  1.00  0.00     0.157 A 
ATOM     10  C   UNL     1      94.259  94.434  77.497  1.00  0.00     0.056 A 
ATOM     11  C   UNL     1      96.044  95.471  75.592  1.00  0.00     0.050 A 
ATOM     12  C   UNL     1      94.684  95.325  75.272  1.00  0.00     0.009 A 
BRANCH   8  13
ATOM     13  O   UNL     1      96.067  94.187  79.061  1.00  0.00    -0.493 OA
ATOM     14  C   UNL     1      95.410  94.882  80.138  1.00  0.00     0.278 C 
ENDBRANCH   8  13
BRANCH   9  15
ATOM     15  O   UNL     1      97.838  95.204  77.155  1.00  0.00    -0.504 OA
ATOM     16  H   UNL     1      98.224  95.898  76.616  1.00  0.00     0.293 HD
ENDBRANCH   9  15
ENDBRANCH   6   7
ENDBRANCH   3   6
ENDBRANCH   1   2
BRANCH   1  17
ATOM     17  C   UNL     1      89.496  91.072  76.380  1.00  0.00     0.010 C 
BRANCH  17  18
ATOM     18  C   UNL     1      90.687  90.098  76.165  1.00  0.00     0.001 C 
BRANCH  18  19
ATOM     19  C   UNL     1      91.057  89.897  74.671  1.00  0.00     0.000 C 
BRANCH  19  20
ATOM     20  C   UNL     1      91.490  91.227  73.989  1.00  0.00     0.003 C 
BRANCH  20  21
ATOM     21  C   UNL     1      90.637  91.640  72.745  1.00  0.00    -0.017 C 
ATOM     22  C   UNL     1      89.948  93.017  72.977  1.00  0.00     0.007 C 
ATOM     23  C   UNL     1      89.575  90.570  72.359  1.00  0.00     0.007 C 
ENDBRANCH  20  21
ENDBRANCH  19  20
ENDBRANCH  18  19
ENDBRANCH  17  18
ENDBRANCH   1  17
TORSDOF 10
ENDMDL
MODEL 2
REMARK VINA RESULT:    -5.974      1.615      2.839
REMARK INTER + INTRA:         -10.487
REMARK INTER:                  -9.919
REMARK INTRA:                  -0.567
REMARK UNBOUND:                -1.194
REMARK SMILES COc1cc(CNC(=O)CCCCCC(C)C)ccc1O
REMARK SMILES IDX 10 1 8 2 7 3 9 5 6 6 5 7 3 8 20 9 4 10 19 11 18 12 2 13 1 14
REMARK SMILES IDX 21 15 11 17 12 18 13 19 14 20 15 21 16 22 17 23
REMARK H PARENT 7 4 21 16
REMARK Flexibility Score: inf
ROOT
ATOM      1  C   UNL     1      91.047  92.149  77.494  1.00  0.00     0.100 C 
ENDROOT
BRANCH   1   2
ATOM      2  C   UNL     1      91.859  93.341  77.174  1.00  0.00     0.220 C 
ATOM      3  N   UNL     1      93.193  93.339  77.457  1.00  0.00    -0.352 N 
ATOM      4  H   UNL     1      93.511  92.548  77.999  1.00  0.00     0.163 HD
ATOM      5  O   UNL     1      91.310  94.318  76.609  1.00  0.00    -0.275 OA
BRANCH   3   6
ATOM      6  C   UNL     1      94.121  94.343  77.049  1.00  0.00     0.151 C 
BRANCH   6   7
ATOM      7  C   UNL     1      95.142  94.652  78.086  1.00  0.00    -0.025 A 
ATOM      8  C   UNL     1      97.223  95.774  78.762  1.00  0.00     0.160 A 
ATOM      9  C   UNL     1      97.052  95.294  80.078  1.00  0.00     0.157 A 
ATOM     10  C   UNL     1      96.278  95.434  77.771  1.00  0.00     0.056 A 
ATOM     11  C   UNL     1      95.940  94.493  80.396  1.00  0.00     0.050 A 
ATOM     12  C   UNL     1      94.989  94.179  79.410  1.00  0.00     0.009 A 
BRANCH   8  13
ATOM     13  O   UNL     1      98.310  96.539  78.427  1.00  0.00    -0.493 OA
ATOM     14  C   UNL     1      99.000  96.084  77.247  1.00  0.00     0.278 C 
ENDBRANCH   8  13
BRANCH   9  15
ATOM     15  O   UNL     1      97.956  95.613  81.038  1.00  0.00    -0.504 OA
ATOM     16  H   UNL     1      97.729  95.161  81.854  1.00  0.00     0.293 HD
ENDBRANCH   9  15
ENDBRANCH   6   7
ENDBRANCH   3   6
ENDBRANCH   1   2
BRANCH   1  17
ATOM     17  C   UNL     1      89.546  92.279  77.120  1.00  0.00     0.010 C 
BRANCH  17  18
ATOM     18  C   UNL     1      89.013  90.991  76.434  1.00  0.00     0.001 C 
BRANCH  18  19
ATOM     19  C   UNL     1      89.515  90.815  74.977  1.00  0.00     0.000 C 
BRANCH  19  20
ATOM     20  C   UNL     1      88.351  90.525  73.985  1.00  0.00     0.003 C 
BRANCH  20  21
ATOM     21  C   UNL     1      88.608  90.986  72.513  1.00  0.00    -0.017 C 
ATOM     22  C   UNL     1      89.870  90.288  71.925  1.00  0.00     0.007 C 
ATOM     23  C   UNL     1      88.740  92.530  72.377  1.00  0.00     0.007 C 
ENDBRANCH  20  21
ENDBRANCH  19  20
ENDBRANCH  18  19
ENDBRANCH  17  18
ENDBRANCH   1  17
TORSDOF 10
ENDMDL
MODEL 3
REMARK VINA RESULT:    -5.635      2.347      3.905
REMARK INTER + INTRA:          -9.959
REMARK INTER:                  -9.534
REMARK INTRA:                  -0.425
REMARK UNBOUND:                -1.194
REMARK SMILES COc1cc(CNC(=O)CCCCCC(C)C)ccc1O
REMARK SMILES IDX 10 1 8 2 7 3 9 5 6 6 5 7 3 8 20 9 4 10 19 11 18 12 2 13 1 14
REMARK SMILES IDX 21 15 11 17 12 18 13 19 14 20 15 21 16 22 17 23
REMARK H PARENT 7 4 21 16
REMARK Flexibility Score: inf
ROOT
ATOM      1  C   UNL     1      92.177  93.163  76.723  1.00  0.00     0.100 C 
ENDROOT
BRANCH   1   2
ATOM      2  C   UNL     1      93.405  93.974  76.866  1.00  0.00     0.220 C 
ATOM      3  N   UNL     1      94.330  93.627  77.805  1.00  0.00    -0.352 N 
ATOM      4  H   UNL     1      94.039  92.898  78.440  1.00  0.00     0.163 HD
ATOM      5  O   UNL     1      93.589  94.942  76.089  1.00  0.00    -0.275 OA
BRANCH   3   6
ATOM      6  C   UNL     1      95.627  94.211  77.935  1.00  0.00     0.151 C 
BRANCH   6   7
ATOM      7  C   UNL     1      95.919  94.684  79.315  1.00  0.00    -0.025 A 
ATOM      8  C   UNL     1      96.804  96.399  80.838  1.00  0.00     0.160 A 
ATOM      9  C   UNL     1      96.415  95.615  81.944  1.00  0.00     0.157 A 
ATOM     10  C   UNL     1      96.571  95.921  79.531  1.00  0.00     0.056 A 
ATOM     11  C   UNL     1      95.790  94.371  81.741  1.00  0.00     0.050 A 
ATOM     12  C   UNL     1      95.539  93.911  80.437  1.00  0.00     0.009 A 
BRANCH   8  13
ATOM     13  O   UNL     1      97.432  97.605  81.015  1.00  0.00    -0.493 OA
ATOM     14  C   UNL     1      98.588  97.787  80.174  1.00  0.00     0.278 C 
ENDBRANCH   8  13
BRANCH   9  15
ATOM     15  O   UNL     1      96.637  96.065  83.205  1.00  0.00    -0.504 OA
ATOM     16  H   UNL     1      96.613  97.024  83.211  1.00  0.00     0.293 HD
ENDBRANCH   9  15
ENDBRANCH   6   7
ENDBRANCH   3   6
ENDBRANCH   1   2
BRANCH   1  17
ATOM     17  C   UNL     1      90.962  93.941  76.150  1.00  0.00     0.010 C 
BRANCH  17  18
ATOM     18  C   UNL     1      90.795  93.699  74.624  1.00  0.00     0.001 C 
BRANCH  18  19
ATOM     19  C   UNL     1      90.237  92.293  74.280  1.00  0.00     0.000 C 
BRANCH  19  20
ATOM     20  C   UNL     1      89.951  92.129  72.759  1.00  0.00     0.003 C 
BRANCH  20  21
ATOM     21  C   UNL     1      89.342  90.750  72.347  1.00  0.00    -0.017 C 
ATOM     22  C   UNL     1      89.891  90.292  70.964  1.00  0.00     0.007 C 
ATOM     23  C   UNL     1      87.786  90.758  72.327  1.00  0.00     0.007 C 
ENDBRANCH  20  21
ENDBRANCH  19  20
ENDBRANCH  18  19
ENDBRANCH  17  18
ENDBRANCH   1  17
TORSDOF 10
ENDMDL
MODEL 4
REMARK VINA RESULT:    -5.552     27.115     29.660
REMARK INTER + INTRA:          -9.830
REMARK INTER:                  -9.175
REMARK INTRA:                  -0.655
REMARK UNBOUND:                -1.194
REMARK SMILES COc1cc(CNC(=O)CCCCCC(C)C)ccc1O
REMARK SMILES IDX 10 1 8 2 7 3 9 5 6 6 5 7 3 8 20 9 4 10 19 11 18 12 2 13 1 14
REMARK SMILES IDX 21 15 11 17 12 18 13 19 14 20 15 21 16 22 17 23
REMARK H PARENT 7 4 21 16
REMARK Flexibility Score: inf
ROOT
ATOM      1  C   UNL     1      82.232  64.797  76.013  1.00  0.00     0.100 C 
ENDROOT
BRANCH   1   2
ATOM      2  C   UNL     1      83.582  64.650  76.597  1.00  0.00     0.220 C 
ATOM      3  N   UNL     1      83.812  63.664  77.510  1.00  0.00    -0.352 N 
ATOM      4  H   UNL     1      82.987  63.175  77.825  1.00  0.00     0.163 HD
ATOM      5  O   UNL     1      84.500  65.412  76.208  1.00  0.00    -0.275 OA
BRANCH   3   6
ATOM      6  C   UNL     1      85.095  63.300  78.020  1.00  0.00     0.151 C 
BRANCH   6   7
ATOM      7  C   UNL     1      85.433  63.988  79.295  1.00  0.00    -0.025 A 
ATOM      8  C   UNL     1      86.440  65.885  80.493  1.00  0.00     0.160 A 
ATOM      9  C   UNL     1      86.018  65.332  81.720  1.00  0.00     0.157 A 
ATOM     10  C   UNL     1      86.162  65.201  79.290  1.00  0.00     0.056 A 
ATOM     11  C   UNL     1      85.315  64.113  81.739  1.00  0.00     0.050 A 
ATOM     12  C   UNL     1      85.020  63.449  80.536  1.00  0.00     0.009 A 
BRANCH   8  13
ATOM     13  O   UNL     1      87.142  67.062  80.455  1.00  0.00    -0.493 OA
ATOM     14  C   UNL     1      87.590  67.429  79.136  1.00  0.00     0.278 C 
ENDBRANCH   8  13
BRANCH   9  15
ATOM     15  O   UNL     1      86.282  65.980  82.882  1.00  0.00    -0.504 OA
ATOM     16  H   UNL     1      85.916  65.483  83.617  1.00  0.00     0.293 HD
ENDBRANCH   9  15
ENDBRANCH   6   7
ENDBRANCH   3   6
ENDBRANCH   1   2
BRANCH   1  17
ATOM     17  C   UNL     1      82.051  64.094  74.641  1.00  0.00     0.010 C 
BRANCH  17  18
ATOM     18  C   UNL     1      80.550  63.933  74.274  1.00  0.00     0.001 C 
BRANCH  18  19
ATOM     19  C   UNL     1      80.085  64.890  73.146  1.00  0.00     0.000 C 
BRANCH  19  20
ATOM     20  C   UNL     1      80.171  66.385  73.569  1.00  0.00     0.003 C 
BRANCH  20  21
ATOM     21  C   UNL     1      80.475  67.385  72.406  1.00  0.00    -0.017 C 
ATOM     22  C   UNL     1      80.208  66.723  71.022  1.00  0.00     0.007 C 
ATOM     23  C   UNL     1      81.924  67.950  72.457  1.00  0.00     0.007 C 
ENDBRANCH  20  21
ENDBRANCH  19  20
ENDBRANCH  18  19
ENDBRANCH  17  18
ENDBRANCH   1  17
TORSDOF 10
ENDMDL
MODEL 5
REMARK VINA RESULT:    -5.517      2.413      3.854
REMARK INTER + INTRA:          -9.776
REMARK INTER:                  -8.764
REMARK INTRA:                  -1.012
REMARK UNBOUND:                -1.194
REMARK SMILES COc1cc(CNC(=O)CCCCCC(C)C)ccc1O
REMARK SMILES IDX 10 1 8 2 7 3 9 5 6 6 5 7 3 8 20 9 4 10 19 11 18 12 2 13 1 14
REMARK SMILES IDX 21 15 11 17 12 18 13 19 14 20 15 21 16 22 17 23
REMARK H PARENT 7 4 21 16
REMARK Flexibility Score: inf
ROOT
ATOM      1  C   UNL     1      93.168  93.578  75.427  1.00  0.00     0.100 C 
ENDROOT
BRANCH   1   2
ATOM      2  C   UNL     1      94.361  94.432  75.599  1.00  0.00     0.220 C 
ATOM      3  N   UNL     1      95.393  93.993  76.373  1.00  0.00    -0.352 N 
ATOM      4  H   UNL     1      95.205  93.147  76.892  1.00  0.00     0.163 HD
ATOM      5  O   UNL     1      94.416  95.530  74.992  1.00  0.00    -0.275 OA
BRANCH   3   6
ATOM      6  C   UNL     1      96.666  94.632  76.485  1.00  0.00     0.151 C 
BRANCH   6   7
ATOM      7  C   UNL     1      96.750  95.566  77.640  1.00  0.00    -0.025 A 
ATOM      8  C   UNL     1      96.743  95.962  80.067  1.00  0.00     0.160 A 
ATOM      9  C   UNL     1      96.979  97.334  79.842  1.00  0.00     0.157 A 
ATOM     10  C   UNL     1      96.612  95.090  78.966  1.00  0.00     0.056 A 
ATOM     11  C   UNL     1      97.092  97.823  78.527  1.00  0.00     0.050 A 
ATOM     12  C   UNL     1      96.985  96.945  77.435  1.00  0.00     0.009 A 
BRANCH   8  13
ATOM     13  O   UNL     1      96.610  95.469  81.339  1.00  0.00    -0.493 OA
ATOM     14  C   UNL     1      95.262  95.094  81.680  1.00  0.00     0.278 C 
ENDBRANCH   8  13
BRANCH   9  15
ATOM     15  O   UNL     1      97.105  98.182  80.894  1.00  0.00    -0.504 OA
ATOM     16  H   UNL     1      96.240  98.518  81.140  1.00  0.00     0.293 HD
ENDBRANCH   9  15
ENDBRANCH   6   7
ENDBRANCH   3   6
ENDBRANCH   1   2
BRANCH   1  17
ATOM     17  C   UNL     1      91.818  94.339  75.519  1.00  0.00     0.010 C 
BRANCH  17  18
ATOM     18  C   UNL     1      91.042  93.974  76.814  1.00  0.00     0.001 C 
BRANCH  18  19
ATOM     19  C   UNL     1      91.519  92.648  77.465  1.00  0.00     0.000 C 
BRANCH  19  20
ATOM     20  C   UNL     1      90.329  91.732  77.873  1.00  0.00     0.003 C 
BRANCH  20  21
ATOM     21  C   UNL     1      89.961  90.625  76.832  1.00  0.00    -0.017 C 
ATOM     22  C   UNL     1      91.105  90.439  75.792  1.00  0.00     0.007 C 
ATOM     23  C   UNL     1      88.616  90.904  76.102  1.00  0.00     0.007 C 
ENDBRANCH  20  21
ENDBRANCH  19  20
ENDBRANCH  18  19
ENDBRANCH  17  18
ENDBRANCH   1  17
TORSDOF 10
ENDMDL
MODEL 6
REMARK VINA RESULT:    -5.463     25.332     28.112
REMARK INTER + INTRA:          -9.691
REMARK INTER:                  -8.352
REMARK INTRA:                  -1.339
REMARK UNBOUND:                -1.194
REMARK SMILES COc1cc(CNC(=O)CCCCCC(C)C)ccc1O
REMARK SMILES IDX 10 1 8 2 7 3 9 5 6 6 5 7 3 8 20 9 4 10 19 11 18 12 2 13 1 14
REMARK SMILES IDX 21 15 11 17 12 18 13 19 14 20 15 21 16 22 17 23
REMARK H PARENT 7 4 21 16
REMARK Flexibility Score: inf
ROOT
ATOM      1  C   UNL     1      80.575  63.952  74.056  1.00  0.00     0.100 C 
ENDROOT
BRANCH   1   2
ATOM      2  C   UNL     1      81.845  64.215  74.765  1.00  0.00     0.220 C 
ATOM      3  N   UNL     1      81.936  65.290  75.598  1.00  0.00    -0.352 N 
ATOM      4  H   UNL     1      81.147  65.920  75.568  1.00  0.00     0.163 HD
ATOM      5  O   UNL     1      82.801  63.416  74.617  1.00  0.00    -0.275 OA
BRANCH   3   6
ATOM      6  C   UNL     1      83.033  65.562  76.471  1.00  0.00     0.151 C 
BRANCH   6   7
ATOM      7  C   UNL     1      83.875  66.701  76.015  1.00  0.00    -0.025 A 
ATOM      8  C   UNL     1      85.110  68.770  76.504  1.00  0.00     0.160 A 
ATOM      9  C   UNL     1      85.532  68.833  75.159  1.00  0.00     0.157 A 
ATOM     10  C   UNL     1      84.270  67.715  76.919  1.00  0.00     0.056 A 
ATOM     11  C   UNL     1      85.124  67.845  74.245  1.00  0.00     0.050 A 
ATOM     12  C   UNL     1      84.306  66.784  74.670  1.00  0.00     0.009 A 
BRANCH   8  13
ATOM     13  O   UNL     1      85.481  69.733  77.406  1.00  0.00    -0.493 OA
ATOM     14  C   UNL     1      86.583  69.347  78.249  1.00  0.00     0.278 C 
ENDBRANCH   8  13
BRANCH   9  15
ATOM     15  O   UNL     1      86.339  69.844  74.750  1.00  0.00    -0.504 OA
ATOM     16  H   UNL     1      87.207  69.742  75.147  1.00  0.00     0.293 HD
ENDBRANCH   9  15
ENDBRANCH   6   7
ENDBRANCH   3   6
ENDBRANCH   1   2
BRANCH   1  17
ATOM     17  C   UNL     1      79.861  65.227  73.533  1.00  0.00     0.010 C 
BRANCH  17  18
ATOM     18  C   UNL     1      80.302  65.577  72.085  1.00  0.00     0.001 C 
BRANCH  18  19
ATOM     19  C   UNL     1      80.326  67.102  71.799  1.00  0.00     0.000 C 
BRANCH  19  20
ATOM     20  C   UNL     1      81.679  67.755  72.206  1.00  0.00     0.003 C 
BRANCH  20  21
ATOM     21  C   UNL     1      82.603  68.158  71.011  1.00  0.00    -0.017 C 
ATOM     22  C   UNL     1      83.562  66.991  70.633  1.00  0.00     0.007 C 
ATOM     23  C   UNL     1      83.421  69.453  71.290  1.00  0.00     0.007 C 
ENDBRANCH  20  21
ENDBRANCH  19  20
ENDBRANCH  18  19
ENDBRANCH  17  18
ENDBRANCH   1  17
TORSDOF 10
ENDMDL
MODEL 7
REMARK VINA RESULT:    -5.393      3.180      7.164
REMARK INTER + INTRA:          -9.582
REMARK INTER:                  -8.957
REMARK INTRA:                  -0.624
REMARK UNBOUND:                -1.194
REMARK SMILES COc1cc(CNC(=O)CCCCCC(C)C)ccc1O
REMARK SMILES IDX 10 1 8 2 7 3 9 5 6 6 5 7 3 8 20 9 4 10 19 11 18 12 2 13 1 14
REMARK SMILES IDX 21 15 11 17 12 18 13 19 14 20 15 21 16 22 17 23
REMARK H PARENT 7 4 21 16
REMARK Flexibility Score: inf
ROOT
ATOM      1  C   UNL     1      95.858  95.532  74.991  1.00  0.00     0.100 C 
ENDROOT
BRANCH   1   2
ATOM      2  C   UNL     1      95.317  94.850  76.185  1.00  0.00     0.220 C 
ATOM      3  N   UNL     1      93.977  94.616  76.272  1.00  0.00    -0.352 N 
ATOM      4  H   UNL     1      93.421  95.055  75.552  1.00  0.00     0.163 HD
ATOM      5  O   UNL     1      96.110  94.462  77.077  1.00  0.00    -0.275 OA
BRANCH   3   6
ATOM      6  C   UNL     1      93.345  93.822  77.277  1.00  0.00     0.151 C 
BRANCH   6   7
ATOM      7  C   UNL     1      92.132  93.114  76.785  1.00  0.00    -0.025 A 
ATOM      8  C   UNL     1      90.776  92.246  74.926  1.00  0.00     0.160 A 
ATOM      9  C   UNL     1      89.856  91.709  75.851  1.00  0.00     0.157 A 
ATOM     10  C   UNL     1      91.898  92.961  75.398  1.00  0.00     0.056 A 
ATOM     11  C   UNL     1      90.066  91.878  77.232  1.00  0.00     0.050 A 
ATOM     12  C   UNL     1      91.197  92.570  77.696  1.00  0.00     0.009 A 
BRANCH   8  13
ATOM     13  O   UNL     1      90.581  92.110  73.577  1.00  0.00    -0.493 OA
ATOM     14  C   UNL     1      89.866  93.208  72.978  1.00  0.00     0.278 C 
ENDBRANCH   8  13
BRANCH   9  15
ATOM     15  O   UNL     1      88.774  91.021  75.408  1.00  0.00    -0.504 OA
ATOM     16  H   UNL     1      89.027  90.471  74.664  1.00  0.00     0.293 HD
ENDBRANCH   9  15
ENDBRANCH   6   7
ENDBRANCH   3   6
ENDBRANCH   1   2
BRANCH   1  17
ATOM     17  C   UNL     1      95.569  97.056  74.940  1.00  0.00     0.010 C 
BRANCH  17  18
ATOM     18  C   UNL     1      95.051  97.494  73.543  1.00  0.00     0.001 C 
BRANCH  18  19
ATOM     19  C   UNL     1      93.743  98.328  73.604  1.00  0.00     0.000 C 
BRANCH  19  20
ATOM     20  C   UNL     1      93.562  99.231  72.350  1.00  0.00     0.003 C 
BRANCH  20  21
ATOM     21  C   UNL     1      93.310  98.462  71.013  1.00  0.00    -0.017 C 
ATOM     22  C   UNL     1      94.551  98.551  70.077  1.00  0.00     0.007 C 
ATOM     23  C   UNL     1      92.039  98.955  70.262  1.00  0.00     0.007 C 
ENDBRANCH  20  21
ENDBRANCH  19  20
ENDBRANCH  18  19
ENDBRANCH  17  18
ENDBRANCH   1  17
TORSDOF 10
ENDMDL
MODEL 8
REMARK VINA RESULT:    -5.374     13.766     16.580
REMARK INTER + INTRA:          -9.553
REMARK INTER:                  -8.152
REMARK INTRA:                  -1.402
REMARK UNBOUND:                -1.194
REMARK SMILES COc1cc(CNC(=O)CCCCCC(C)C)ccc1O
REMARK SMILES IDX 10 1 8 2 7 3 9 5 6 6 5 7 3 8 20 9 4 10 19 11 18 12 2 13 1 14
REMARK SMILES IDX 21 15 11 17 12 18 13 19 14 20 15 21 16 22 17 23
REMARK H PARENT 7 4 21 16
REMARK Flexibility Score: inf
ROOT
ATOM      1  C   UNL     1      80.185  86.464  85.924  1.00  0.00     0.100 C 
ENDROOT
BRANCH   1   2
ATOM      2  C   UNL     1      80.322  86.995  87.296  1.00  0.00     0.220 C 
ATOM      3  N   UNL     1      79.982  88.291  87.550  1.00  0.00    -0.352 N 
ATOM      4  H   UNL     1      79.779  88.845  86.730  1.00  0.00     0.163 HD
ATOM      5  O   UNL     1      80.710  86.228  88.211  1.00  0.00    -0.275 OA
BRANCH   3   6
ATOM      6  C   UNL     1      79.901  88.880  88.848  1.00  0.00     0.151 C 
BRANCH   6   7
ATOM      7  C   UNL     1      81.143  89.599  89.242  1.00  0.00    -0.025 A 
ATOM      8  C   UNL     1      82.570  91.599  89.147  1.00  0.00     0.160 A 
ATOM      9  C   UNL     1      83.474  90.993  90.046  1.00  0.00     0.157 A 
ATOM     10  C   UNL     1      81.421  90.891  88.737  1.00  0.00     0.056 A 
ATOM     11  C   UNL     1      83.221  89.698  90.534  1.00  0.00     0.050 A 
ATOM     12  C   UNL     1      82.062  89.008  90.140  1.00  0.00     0.009 A 
BRANCH   8  13
ATOM     13  O   UNL     1      82.808  92.851  88.645  1.00  0.00    -0.493 OA
ATOM     14  C   UNL     1      82.030  93.888  89.274  1.00  0.00     0.278 C 
ENDBRANCH   8  13
BRANCH   9  15
ATOM     15  O   UNL     1      84.583  91.664  90.445  1.00  0.00    -0.504 OA
ATOM     16  H   UNL     1      84.441  92.608  90.343  1.00  0.00     0.293 HD
ENDBRANCH   9  15
ENDBRANCH   6   7
ENDBRANCH   3   6
ENDBRANCH   1   2
BRANCH   1  17
ATOM     17  C   UNL     1      81.283  86.949  84.939  1.00  0.00     0.010 C 
BRANCH  17  18
ATOM     18  C   UNL     1      80.838  88.221  84.167  1.00  0.00     0.001 C 
BRANCH  18  19
ATOM     19  C   UNL     1      81.562  89.511  84.636  1.00  0.00     0.000 C 
BRANCH  19  20
ATOM     20  C   UNL     1      83.070  89.264  84.934  1.00  0.00     0.003 C 
BRANCH  20  21
ATOM     21  C   UNL     1      83.777  90.398  85.745  1.00  0.00    -0.017 C 
ATOM     22  C   UNL     1      84.571  91.345  84.798  1.00  0.00     0.007 C 
ATOM     23  C   UNL     1      84.714  89.849  86.860  1.00  0.00     0.007 C 
ENDBRANCH  20  21
ENDBRANCH  19  20
ENDBRANCH  18  19
ENDBRANCH  17  18
ENDBRANCH   1  17
TORSDOF 10
ENDMDL
MODEL 9
REMARK VINA RESULT:    -5.327     27.256     29.428
REMARK INTER + INTRA:          -9.480
REMARK INTER:                  -7.972
REMARK INTRA:                  -1.509
REMARK UNBOUND:                -1.194
REMARK SMILES COc1cc(CNC(=O)CCCCCC(C)C)ccc1O
REMARK SMILES IDX 10 1 8 2 7 3 9 5 6 6 5 7 3 8 20 9 4 10 19 11 18 12 2 13 1 14
REMARK SMILES IDX 21 15 11 17 12 18 13 19 14 20 15 21 16 22 17 23
REMARK H PARENT 7 4 21 16
REMARK Flexibility Score: inf
ROOT
ATOM      1  C   UNL     1      82.572  68.496  72.198  1.00  0.00     0.100 C 
ENDROOT
BRANCH   1   2
ATOM      2  C   UNL     1      83.750  67.820  72.780  1.00  0.00     0.220 C 
ATOM      3  N   UNL     1      83.745  66.464  72.917  1.00  0.00    -0.352 N 
ATOM      4  H   UNL     1      82.857  66.021  72.725  1.00  0.00     0.163 HD
ATOM      5  O   UNL     1      84.751  68.507  73.097  1.00  0.00    -0.275 OA
BRANCH   3   6
ATOM      6  C   UNL     1      84.870  65.672  73.298  1.00  0.00     0.151 C 
BRANCH   6   7
ATOM      7  C   UNL     1      84.758  65.123  74.676  1.00  0.00    -0.025 A 
ATOM      8  C   UNL     1      85.080  65.369  77.102  1.00  0.00     0.160 A 
ATOM      9  C   UNL     1      84.483  64.106  77.307  1.00  0.00     0.157 A 
ATOM     10  C   UNL     1      85.230  65.861  75.788  1.00  0.00     0.056 A 
ATOM     11  C   UNL     1      84.034  63.352  76.207  1.00  0.00     0.050 A 
ATOM     12  C   UNL     1      84.165  63.859  74.902  1.00  0.00     0.009 A 
BRANCH   8  13
ATOM     13  O   UNL     1      85.541  66.110  78.158  1.00  0.00    -0.493 OA
ATOM     14  C   UNL     1      86.969  66.043  78.335  1.00  0.00     0.278 C 
ENDBRANCH   8  13
BRANCH   9  15
ATOM     15  O   UNL     1      84.336  63.623  78.566  1.00  0.00    -0.504 OA
ATOM     16  H   UNL     1      83.589  64.054  78.988  1.00  0.00     0.293 HD
ENDBRANCH   9  15
ENDBRANCH   6   7
ENDBRANCH   3   6
ENDBRANCH   1   2
BRANCH   1  17
ATOM     17  C   UNL     1      82.136  67.940  70.815  1.00  0.00     0.010 C 
BRANCH  17  18
ATOM     18  C   UNL     1      80.676  67.410  70.847  1.00  0.00     0.001 C 
BRANCH  18  19
ATOM     19  C   UNL     1      80.250  66.858  72.233  1.00  0.00     0.000 C 
BRANCH  19  20
ATOM     20  C   UNL     1      80.260  65.302  72.276  1.00  0.00     0.003 C 
BRANCH  20  21
ATOM     21  C   UNL     1      80.727  64.683  73.633  1.00  0.00    -0.017 C 
ATOM     22  C   UNL     1      79.817  63.486  74.040  1.00  0.00     0.007 C 
ATOM     23  C   UNL     1      80.784  65.726  74.786  1.00  0.00     0.007 C 
ENDBRANCH  20  21
ENDBRANCH  19  20
ENDBRANCH  18  19
ENDBRANCH  17  18
ENDBRANCH   1  17
TORSDOF 10
ENDMDL
MODEL 10
REMARK VINA RESULT:    -5.283     27.250     29.247
REMARK INTER + INTRA:          -9.412
REMARK INTER:                  -8.698
REMARK INTRA:                  -0.714
REMARK UNBOUND:                -1.194
REMARK SMILES COc1cc(CNC(=O)CCCCCC(C)C)ccc1O
REMARK SMILES IDX 10 1 8 2 7 3 9 5 6 6 5 7 3 8 20 9 4 10 19 11 18 12 2 13 1 14
REMARK SMILES IDX 21 15 11 17 12 18 13 19 14 20 15 21 16 22 17 23
REMARK H PARENT 7 4 21 16
REMARK Flexibility Score: inf
ROOT
ATOM      1  C   UNL     1      64.702  86.337  76.030  1.00  0.00     0.100 C 
ENDROOT
BRANCH   1   2
ATOM      2  C   UNL     1      65.622  86.701  77.128  1.00  0.00     0.220 C 
ATOM      3  N   UNL     1      66.020  85.743  78.013  1.00  0.00    -0.352 N 
ATOM      4  H   UNL     1      65.540  84.859  77.927  1.00  0.00     0.163 HD
ATOM      5  O   UNL     1      66.052  87.878  77.197  1.00  0.00    -0.275 OA
BRANCH   3   6
ATOM      6  C   UNL     1      67.030  85.913  79.007  1.00  0.00     0.151 C 
BRANCH   6   7
ATOM      7  C   UNL     1      66.526  85.709  80.392  1.00  0.00    -0.025 A 
ATOM      8  C   UNL     1      64.793  86.051  82.103  1.00  0.00     0.160 A 
ATOM      9  C   UNL     1      65.536  85.265  83.009  1.00  0.00     0.157 A 
ATOM     10  C   UNL     1      65.302  86.284  80.808  1.00  0.00     0.056 A 
ATOM     11  C   UNL     1      66.767  84.710  82.616  1.00  0.00     0.050 A 
ATOM     12  C   UNL     1      67.257  84.925  81.316  1.00  0.00     0.009 A 
BRANCH   8  13
ATOM     13  O   UNL     1      63.601  86.617  82.473  1.00  0.00    -0.493 OA
ATOM     14  C   UNL     1      63.502  88.020  82.162  1.00  0.00     0.278 C 
ENDBRANCH   8  13
BRANCH   9  15
ATOM     15  O   UNL     1      65.057  85.037  84.258  1.00  0.00    -0.504 OA
ATOM     16  H   UNL     1      65.719  84.572  84.775  1.00  0.00     0.293 HD
ENDBRANCH   9  15
ENDBRANCH   6   7
ENDBRANCH   3   6
ENDBRANCH   1   2
BRANCH   1  17
ATOM     17  C   UNL     1      63.839  85.077  76.311  1.00  0.00     0.010 C 
BRANCH  17  18
ATOM     18  C   UNL     1      64.232  83.895  75.383  1.00  0.00     0.001 C 
BRANCH  18  19
ATOM     19  C   UNL     1      63.410  82.606  75.645  1.00  0.00     0.000 C 
BRANCH  19  20
ATOM     20  C   UNL     1      64.236  81.315  75.373  1.00  0.00     0.003 C 
BRANCH  20  21
ATOM     21  C   UNL     1      64.903  81.244  73.961  1.00  0.00    -0.017 C 
ATOM     22  C   UNL     1      63.832  81.024  72.852  1.00  0.00     0.007 C 
ATOM     23  C   UNL     1      66.003  80.147  73.866  1.00  0.00     0.007 C 
ENDBRANCH  20  21
ENDBRANCH  19  20
ENDBRANCH  18  19
ENDBRANCH  17  18
ENDBRANCH   1  17
TORSDOF 10
ENDMDL
