MODEL 1
REMARK VINA RESULT:    -6.259      0.000      0.000
REMARK INTER + INTRA:         -10.576
REMARK INTER:                  -9.735
REMARK INTRA:                  -0.841
REMARK UNBOUND:                -0.841
REMARK SMILES COc1cc(CNC(=O)CCCC/C=C/C(C)C)ccc1O
REMARK SMILES IDX 10 1 8 2 7 3 9 5 6 6 5 7 3 8 21 9 4 10 20 11 19 12 2 13 1 14
REMARK SMILES IDX 22 15 11 17 12 18 13 19 14 20 15 21 16 22 17 23 18 24
REMARK H PARENT 7 4 22 16
REMARK Flexibility Score: inf
ROOT
ATOM      1  C   UNL     1      78.155  84.869  67.865  1.00  0.00     0.100 C 
ENDROOT
BRANCH   1   2
ATOM      2  C   UNL     1      77.860  84.062  66.666  1.00  0.00     0.220 C 
ATOM      3  N   UNL     1      77.056  84.554  65.682  1.00  0.00    -0.352 N 
ATOM      4  H   UNL     1      76.680  85.475  65.859  1.00  0.00     0.163 HD
ATOM      5  O   UNL     1      78.388  82.927  66.571  1.00  0.00    -0.275 OA
BRANCH   3   6
ATOM      6  C   UNL     1      76.736  83.868  64.471  1.00  0.00     0.151 C 
BRANCH   6   7
ATOM      7  C   UNL     1      75.628  82.895  64.671  1.00  0.00    -0.025 A 
ATOM      8  C   UNL     1      73.480  82.300  65.719  1.00  0.00     0.160 A 
ATOM      9  C   UNL     1      73.496  81.059  65.049  1.00  0.00     0.157 A 
ATOM     10  C   UNL     1      74.546  83.204  65.526  1.00  0.00     0.056 A 
ATOM     11  C   UNL     1      74.578  80.728  64.209  1.00  0.00     0.050 A 
ATOM     12  C   UNL     1      75.632  81.643  64.013  1.00  0.00     0.009 A 
BRANCH   8  13
ATOM     13  O   UNL     1      72.462  82.599  66.588  1.00  0.00    -0.493 OA
ATOM     14  C   UNL     1      71.363  83.305  65.984  1.00  0.00     0.278 C 
ENDBRANCH   8  13
BRANCH   9  15
ATOM     15  O   UNL     1      72.480  80.172  65.202  1.00  0.00    -0.504 OA
ATOM     16  H   UNL     1      71.957  80.413  65.971  1.00  0.00     0.293 HD
ENDBRANCH   9  15
ENDBRANCH   6   7
ENDBRANCH   3   6
ENDBRANCH   1   2
BRANCH   1  17
ATOM     17  C   UNL     1      77.376  84.356  69.106  1.00  0.00     0.010 C 
BRANCH  17  18
ATOM     18  C   UNL     1      77.112  85.470  70.158  1.00  0.00     0.005 C 
BRANCH  18  19
ATOM     19  C   UNL     1      77.620  86.860  69.687  1.00  0.00     0.027 C 
BRANCH  19  20
ATOM     20  C   UNL     1      76.575  87.871  69.741  1.00  0.00    -0.031 C 
ATOM     21  C   UNL     1      75.383  87.696  70.338  1.00  0.00    -0.028 C 
BRANCH  21  22
ATOM     22  C   UNL     1      74.354  88.734  70.397  1.00  0.00     0.005 C 
ATOM     23  C   UNL     1      73.650  88.788  71.781  1.00  0.00     0.012 C 
ATOM     24  C   UNL     1      74.964  90.113  70.033  1.00  0.00     0.012 C 
ENDBRANCH  21  22
ENDBRANCH  19  20
ENDBRANCH  18  19
ENDBRANCH  17  18
ENDBRANCH   1  17
TORSDOF 10
ENDMDL
MODEL 2
REMARK VINA RESULT:    -6.021     25.503     27.766
REMARK INTER + INTRA:         -10.207
REMARK INTER:                  -9.344
REMARK INTRA:                  -0.863
REMARK UNBOUND:                -0.841
REMARK SMILES COc1cc(CNC(=O)CCCC/C=C/C(C)C)ccc1O
REMARK SMILES IDX 10 1 8 2 7 3 9 5 6 6 5 7 3 8 21 9 4 10 20 11 19 12 2 13 1 14
REMARK SMILES IDX 22 15 11 17 12 18 13 19 14 20 15 21 16 22 17 23 18 24
REMARK H PARENT 7 4 22 16
REMARK Flexibility Score: inf
ROOT
ATOM      1  C   UNL     1     100.213  81.151  81.354  1.00  0.00     0.100 C 
ENDROOT
BRANCH   1   2
ATOM      2  C   UNL     1      99.816  81.146  82.775  1.00  0.00     0.220 C 
ATOM      3  N   UNL     1      98.547  80.809  83.138  1.00  0.00    -0.352 N 
ATOM      4  H   UNL     1      97.926  80.597  82.369  1.00  0.00     0.163 HD
ATOM      5  O   UNL     1     100.684  81.437  83.633  1.00  0.00    -0.275 OA
BRANCH   3   6
ATOM      6  C   UNL     1      98.073  80.743  84.483  1.00  0.00     0.151 C 
BRANCH   6   7
ATOM      7  C   UNL     1      97.332  81.977  84.863  1.00  0.00    -0.025 A 
ATOM      8  C   UNL     1      95.657  83.106  86.270  1.00  0.00     0.160 A 
ATOM      9  C   UNL     1      95.925  84.324  85.613  1.00  0.00     0.157 A 
ATOM     10  C   UNL     1      96.360  81.944  85.888  1.00  0.00     0.056 A 
ATOM     11  C   UNL     1      96.877  84.368  84.576  1.00  0.00     0.050 A 
ATOM     12  C   UNL     1      97.583  83.206  84.210  1.00  0.00     0.009 A 
BRANCH   8  13
ATOM     13  O   UNL     1      94.684  83.044  87.236  1.00  0.00    -0.493 OA
ATOM     14  C   UNL     1      93.528  82.275  86.855  1.00  0.00     0.278 C 
ENDBRANCH   8  13
BRANCH   9  15
ATOM     15  O   UNL     1      95.274  85.463  85.966  1.00  0.00    -0.504 OA
ATOM     16  H   UNL     1      94.340  85.375  85.762  1.00  0.00     0.293 HD
ENDBRANCH   9  15
ENDBRANCH   6   7
ENDBRANCH   3   6
ENDBRANCH   1   2
BRANCH   1  17
ATOM     17  C   UNL     1      99.055  81.632  80.438  1.00  0.00     0.010 C 
BRANCH  17  18
ATOM     18  C   UNL     1      98.742  83.146  80.604  1.00  0.00     0.005 C 
BRANCH  18  19
ATOM     19  C   UNL     1      97.364  83.533  80.002  1.00  0.00     0.027 C 
BRANCH  19  20
ATOM     20  C   UNL     1      97.369  83.484  78.548  1.00  0.00    -0.031 C 
ATOM     21  C   UNL     1      98.450  83.738  77.787  1.00  0.00    -0.028 C 
BRANCH  21  22
ATOM     22  C   UNL     1      98.437  83.664  76.326  1.00  0.00     0.005 C 
ATOM     23  C   UNL     1      99.666  84.370  75.690  1.00  0.00     0.012 C 
ATOM     24  C   UNL     1      98.349  82.186  75.865  1.00  0.00     0.012 C 
ENDBRANCH  21  22
ENDBRANCH  19  20
ENDBRANCH  18  19
ENDBRANCH  17  18
ENDBRANCH   1  17
TORSDOF 10
ENDMDL
MODEL 3
REMARK VINA RESULT:    -5.956      2.671      7.375
REMARK INTER + INTRA:         -10.106
REMARK INTER:                  -9.270
REMARK INTRA:                  -0.836
REMARK UNBOUND:                -0.841
REMARK SMILES COc1cc(CNC(=O)CCCC/C=C/C(C)C)ccc1O
REMARK SMILES IDX 10 1 8 2 7 3 9 5 6 6 5 7 3 8 21 9 4 10 20 11 19 12 2 13 1 14
REMARK SMILES IDX 22 15 11 17 12 18 13 19 14 20 15 21 16 22 17 23 18 24
REMARK H PARENT 7 4 22 16
REMARK Flexibility Score: inf
ROOT
ATOM      1  C   UNL     1      75.355  81.319  65.117  1.00  0.00     0.100 C 
ENDROOT
BRANCH   1   2
ATOM      2  C   UNL     1      76.626  81.995  65.442  1.00  0.00     0.220 C 
ATOM      3  N   UNL     1      76.772  83.333  65.228  1.00  0.00    -0.352 N 
ATOM      4  H   UNL     1      75.968  83.790  64.820  1.00  0.00     0.163 HD
ATOM      5  O   UNL     1      77.551  81.309  65.940  1.00  0.00    -0.275 OA
BRANCH   3   6
ATOM      6  C   UNL     1      77.946  84.085  65.538  1.00  0.00     0.151 C 
BRANCH   6   7
ATOM      7  C   UNL     1      77.710  85.028  66.665  1.00  0.00    -0.025 A 
ATOM      8  C   UNL     1      77.627  85.474  69.085  1.00  0.00     0.160 A 
ATOM      9  C   UNL     1      77.282  86.817  68.826  1.00  0.00     0.157 A 
ATOM     10  C   UNL     1      77.835  84.593  68.003  1.00  0.00     0.056 A 
ATOM     11  C   UNL     1      77.134  87.260  67.497  1.00  0.00     0.050 A 
ATOM     12  C   UNL     1      77.356  86.376  66.423  1.00  0.00     0.009 A 
BRANCH   8  13
ATOM     13  O   UNL     1      77.707  85.022  70.377  1.00  0.00    -0.493 OA
ATOM     14  C   UNL     1      76.538  84.310  70.823  1.00  0.00     0.278 C 
ENDBRANCH   8  13
BRANCH   9  15
ATOM     15  O   UNL     1      77.087  87.695  69.844  1.00  0.00    -0.504 OA
ATOM     16  H   UNL     1      77.276  87.263  70.680  1.00  0.00     0.293 HD
ENDBRANCH   9  15
ENDBRANCH   6   7
ENDBRANCH   3   6
ENDBRANCH   1   2
BRANCH   1  17
ATOM     17  C   UNL     1      75.070  81.340  63.591  1.00  0.00     0.010 C 
BRANCH  17  18
ATOM     18  C   UNL     1      73.830  80.489  63.196  1.00  0.00     0.005 C 
BRANCH  18  19
ATOM     19  C   UNL     1      72.775  80.419  64.333  1.00  0.00     0.027 C 
BRANCH  19  20
ATOM     20  C   UNL     1      71.792  81.487  64.233  1.00  0.00    -0.031 C 
ATOM     21  C   UNL     1      71.316  81.971  63.071  1.00  0.00    -0.028 C 
BRANCH  21  22
ATOM     22  C   UNL     1      70.313  83.033  62.995  1.00  0.00     0.005 C 
ATOM     23  C   UNL     1      69.296  82.968  64.168  1.00  0.00     0.012 C 
ATOM     24  C   UNL     1      71.003  84.420  62.938  1.00  0.00     0.012 C 
ENDBRANCH  21  22
ENDBRANCH  19  20
ENDBRANCH  18  19
ENDBRANCH  17  18
ENDBRANCH   1  17
TORSDOF 10
ENDMDL
MODEL 4
REMARK VINA RESULT:    -5.897     23.599     27.520
REMARK INTER + INTRA:         -10.014
REMARK INTER:                  -9.079
REMARK INTRA:                  -0.935
REMARK UNBOUND:                -0.841
REMARK SMILES COc1cc(CNC(=O)CCCC/C=C/C(C)C)ccc1O
REMARK SMILES IDX 10 1 8 2 7 3 9 5 6 6 5 7 3 8 21 9 4 10 20 11 19 12 2 13 1 14
REMARK SMILES IDX 22 15 11 17 12 18 13 19 14 20 15 21 16 22 17 23 18 24
REMARK H PARENT 7 4 22 16
REMARK Flexibility Score: inf
ROOT
ATOM      1  C   UNL     1      95.475  93.753  79.787  1.00  0.00     0.100 C 
ENDROOT
BRANCH   1   2
ATOM      2  C   UNL     1      95.709  94.085  81.206  1.00  0.00     0.220 C 
ATOM      3  N   UNL     1      96.624  95.035  81.551  1.00  0.00    -0.352 N 
ATOM      4  H   UNL     1      97.120  95.451  80.776  1.00  0.00     0.163 HD
ATOM      5  O   UNL     1      95.029  93.488  82.074  1.00  0.00    -0.275 OA
BRANCH   3   6
ATOM      6  C   UNL     1      96.901  95.450  82.889  1.00  0.00     0.151 C 
BRANCH   6   7
ATOM      7  C   UNL     1      96.428  96.839  83.139  1.00  0.00    -0.025 A 
ATOM      8  C   UNL     1      96.306  98.816  84.602  1.00  0.00     0.160 A 
ATOM      9  C   UNL     1      95.551  99.495  83.623  1.00  0.00     0.157 A 
ATOM     10  C   UNL     1      96.735  97.495  84.352  1.00  0.00     0.056 A 
ATOM     11  C   UNL     1      95.221  98.847  82.417  1.00  0.00     0.050 A 
ATOM     12  C   UNL     1      95.664  97.532  82.171  1.00  0.00     0.009 A 
BRANCH   8  13
ATOM     13  O   UNL     1      96.573  99.418  85.805  1.00  0.00    -0.493 OA
ATOM     14  C   UNL     1      97.971  99.451  86.147  1.00  0.00     0.278 C 
ENDBRANCH   8  13
BRANCH   9  15
ATOM     15  O   UNL     1      95.134 100.771  83.827  1.00  0.00    -0.504 OA
ATOM     16  H   UNL     1      94.609 100.812  84.630  1.00  0.00     0.293 HD
ENDBRANCH   9  15
ENDBRANCH   6   7
ENDBRANCH   3   6
ENDBRANCH   1   2
BRANCH   1  17
ATOM     17  C   UNL     1      94.074  94.226  79.313  1.00  0.00     0.010 C 
BRANCH  17  18
ATOM     18  C   UNL     1      94.005  95.759  79.064  1.00  0.00     0.005 C 
BRANCH  18  19
ATOM     19  C   UNL     1      92.660  96.193  78.422  1.00  0.00     0.027 C 
BRANCH  19  20
ATOM     20  C   UNL     1      91.834  95.052  78.058  1.00  0.00    -0.031 C 
ATOM     21  C   UNL     1      90.619  95.150  77.487  1.00  0.00    -0.028 C 
BRANCH  21  22
ATOM     22  C   UNL     1      89.814  93.988  77.112  1.00  0.00     0.005 C 
ATOM     23  C   UNL     1      90.632  92.938  76.311  1.00  0.00     0.012 C 
ATOM     24  C   UNL     1      89.175  93.349  78.372  1.00  0.00     0.012 C 
ENDBRANCH  21  22
ENDBRANCH  19  20
ENDBRANCH  18  19
ENDBRANCH  17  18
ENDBRANCH   1  17
TORSDOF 10
ENDMDL
MODEL 5
REMARK VINA RESULT:    -5.812      2.605      4.318
REMARK INTER + INTRA:          -9.881
REMARK INTER:                  -8.958
REMARK INTRA:                  -0.922
REMARK UNBOUND:                -0.841
REMARK SMILES COc1cc(CNC(=O)CCCC/C=C/C(C)C)ccc1O
REMARK SMILES IDX 10 1 8 2 7 3 9 5 6 6 5 7 3 8 21 9 4 10 20 11 19 12 2 13 1 14
REMARK SMILES IDX 22 15 11 17 12 18 13 19 14 20 15 21 16 22 17 23 18 24
REMARK H PARENT 7 4 22 16
REMARK Flexibility Score: inf
ROOT
ATOM      1  C   UNL     1      76.121  81.751  66.164  1.00  0.00     0.100 C 
ENDROOT
BRANCH   1   2
ATOM      2  C   UNL     1      75.061  81.303  65.240  1.00  0.00     0.220 C 
ATOM      3  N   UNL     1      73.826  80.972  65.712  1.00  0.00    -0.352 N 
ATOM      4  H   UNL     1      73.721  81.038  66.715  1.00  0.00     0.163 HD
ATOM      5  O   UNL     1      75.324  81.260  64.014  1.00  0.00    -0.275 OA
BRANCH   3   6
ATOM      6  C   UNL     1      72.727  80.559  64.900  1.00  0.00     0.151 C 
BRANCH   6   7
ATOM      7  C   UNL     1      71.757  81.669  64.687  1.00  0.00    -0.025 A 
ATOM      8  C   UNL     1      70.298  83.425  65.607  1.00  0.00     0.160 A 
ATOM      9  C   UNL     1      69.922  83.799  64.300  1.00  0.00     0.157 A 
ATOM     10  C   UNL     1      71.208  82.364  65.788  1.00  0.00     0.056 A 
ATOM     11  C   UNL     1      70.446  83.102  63.193  1.00  0.00     0.050 A 
ATOM     12  C   UNL     1      71.364  82.051  63.383  1.00  0.00     0.009 A 
BRANCH   8  13
ATOM     13  O   UNL     1      69.740  84.057  66.689  1.00  0.00    -0.493 OA
ATOM     14  C   UNL     1      69.746  83.270  67.895  1.00  0.00     0.278 C 
ENDBRANCH   8  13
BRANCH   9  15
ATOM     15  O   UNL     1      69.058  84.825  64.090  1.00  0.00    -0.504 OA
ATOM     16  H   UNL     1      69.383  85.377  63.375  1.00  0.00     0.293 HD
ENDBRANCH   9  15
ENDBRANCH   6   7
ENDBRANCH   3   6
ENDBRANCH   1   2
BRANCH   1  17
ATOM     17  C   UNL     1      77.176  82.631  65.442  1.00  0.00     0.010 C 
BRANCH  17  18
ATOM     18  C   UNL     1      77.481  83.954  66.200  1.00  0.00     0.005 C 
BRANCH  18  19
ATOM     19  C   UNL     1      78.340  83.721  67.472  1.00  0.00     0.027 C 
BRANCH  19  20
ATOM     20  C   UNL     1      77.796  84.408  68.633  1.00  0.00    -0.031 C 
ATOM     21  C   UNL     1      76.562  84.199  69.126  1.00  0.00    -0.028 C 
BRANCH  21  22
ATOM     22  C   UNL     1      76.042  84.887  70.307  1.00  0.00     0.005 C 
ATOM     23  C   UNL     1      74.695  85.608  70.025  1.00  0.00     0.012 C 
ATOM     24  C   UNL     1      75.900  83.892  71.488  1.00  0.00     0.012 C 
ENDBRANCH  21  22
ENDBRANCH  19  20
ENDBRANCH  18  19
ENDBRANCH  17  18
ENDBRANCH   1  17
TORSDOF 10
ENDMDL
MODEL 6
REMARK VINA RESULT:    -5.764     24.525     26.793
REMARK INTER + INTRA:          -9.807
REMARK INTER:                  -9.087
REMARK INTRA:                  -0.720
REMARK UNBOUND:                -0.841
REMARK SMILES COc1cc(CNC(=O)CCCC/C=C/C(C)C)ccc1O
REMARK SMILES IDX 10 1 8 2 7 3 9 5 6 6 5 7 3 8 21 9 4 10 20 11 19 12 2 13 1 14
REMARK SMILES IDX 22 15 11 17 12 18 13 19 14 20 15 21 16 22 17 23 18 24
REMARK H PARENT 7 4 22 16
REMARK Flexibility Score: inf
ROOT
ATOM      1  C   UNL     1      96.938  84.204  85.111  1.00  0.00     0.100 C 
ENDROOT
BRANCH   1   2
ATOM      2  C   UNL     1      96.325  83.476  86.239  1.00  0.00     0.220 C 
ATOM      3  N   UNL     1      95.088  82.920  86.113  1.00  0.00    -0.352 N 
ATOM      4  H   UNL     1      94.642  83.070  85.218  1.00  0.00     0.163 HD
ATOM      5  O   UNL     1      96.984  83.366  87.301  1.00  0.00    -0.275 OA
BRANCH   3   6
ATOM      6  C   UNL     1      94.422  82.170  87.130  1.00  0.00     0.151 C 
BRANCH   6   7
ATOM      7  C   UNL     1      93.024  81.841  86.741  1.00  0.00    -0.025 A 
ATOM      8  C   UNL     1      91.416  80.319  85.664  1.00  0.00     0.160 A 
ATOM      9  C   UNL     1      90.361  81.189  86.007  1.00  0.00     0.157 A 
ATOM     10  C   UNL     1      92.736  80.654  86.031  1.00  0.00     0.056 A 
ATOM     11  C   UNL     1      90.635  82.387  86.697  1.00  0.00     0.050 A 
ATOM     12  C   UNL     1      91.955  82.707  87.070  1.00  0.00     0.009 A 
BRANCH   8  13
ATOM     13  O   UNL     1      91.163  79.185  84.935  1.00  0.00    -0.493 OA
ATOM     14  C   UNL     1      91.420  77.960  85.646  1.00  0.00     0.278 C 
ENDBRANCH   8  13
BRANCH   9  15
ATOM     15  O   UNL     1      89.077  80.890  85.680  1.00  0.00    -0.504 OA
ATOM     16  H   UNL     1      88.901  81.174  84.780  1.00  0.00     0.293 HD
ENDBRANCH   9  15
ENDBRANCH   6   7
ENDBRANCH   3   6
ENDBRANCH   1   2
BRANCH   1  17
ATOM     17  C   UNL     1      97.126  83.287  83.873  1.00  0.00     0.010 C 
BRANCH  17  18
ATOM     18  C   UNL     1      98.170  82.159  84.108  1.00  0.00     0.005 C 
BRANCH  18  19
ATOM     19  C   UNL     1      99.046  81.893  82.854  1.00  0.00     0.027 C 
BRANCH  19  20
ATOM     20  C   UNL     1      98.702  82.776  81.750  1.00  0.00    -0.031 C 
ATOM     21  C   UNL     1      98.970  82.511  80.458  1.00  0.00    -0.028 C 
BRANCH  21  22
ATOM     22  C   UNL     1      98.598  83.405  79.362  1.00  0.00     0.005 C 
ATOM     23  C   UNL     1      99.095  82.886  77.984  1.00  0.00     0.012 C 
ATOM     24  C   UNL     1      97.063  83.626  79.348  1.00  0.00     0.012 C 
ENDBRANCH  21  22
ENDBRANCH  19  20
ENDBRANCH  18  19
ENDBRANCH  17  18
ENDBRANCH   1  17
TORSDOF 10
ENDMDL
MODEL 7
REMARK VINA RESULT:    -5.757      2.568      5.109
REMARK INTER + INTRA:          -9.795
REMARK INTER:                  -8.948
REMARK INTRA:                  -0.848
REMARK UNBOUND:                -0.841
REMARK SMILES COc1cc(CNC(=O)CCCC/C=C/C(C)C)ccc1O
REMARK SMILES IDX 10 1 8 2 7 3 9 5 6 6 5 7 3 8 21 9 4 10 20 11 19 12 2 13 1 14
REMARK SMILES IDX 22 15 11 17 12 18 13 19 14 20 15 21 16 22 17 23 18 24
REMARK H PARENT 7 4 22 16
REMARK Flexibility Score: inf
ROOT
ATOM      1  C   UNL     1      75.534  81.208  64.414  1.00  0.00     0.100 C 
ENDROOT
BRANCH   1   2
ATOM      2  C   UNL     1      74.062  81.145  64.496  1.00  0.00     0.220 C 
ATOM      3  N   UNL     1      73.377  82.010  65.294  1.00  0.00    -0.352 N 
ATOM      4  H   UNL     1      73.953  82.654  65.819  1.00  0.00     0.163 HD
ATOM      5  O   UNL     1      73.466  80.292  63.795  1.00  0.00    -0.275 OA
BRANCH   3   6
ATOM      6  C   UNL     1      71.955  82.053  65.420  1.00  0.00     0.151 C 
BRANCH   6   7
ATOM      7  C   UNL     1      71.535  82.810  66.630  1.00  0.00    -0.025 A 
ATOM      8  C   UNL     1      71.844  84.709  68.167  1.00  0.00     0.160 A 
ATOM      9  C   UNL     1      70.736  84.276  68.925  1.00  0.00     0.157 A 
ATOM     10  C   UNL     1      72.234  83.971  67.029  1.00  0.00     0.056 A 
ATOM     11  C   UNL     1      70.042  83.109  68.551  1.00  0.00     0.050 A 
ATOM     12  C   UNL     1      70.431  82.386  67.407  1.00  0.00     0.009 A 
BRANCH   8  13
ATOM     13  O   UNL     1      72.563  85.807  68.565  1.00  0.00    -0.493 OA
ATOM     14  C   UNL     1      73.750  85.491  69.315  1.00  0.00     0.278 C 
ENDBRANCH   8  13
BRANCH   9  15
ATOM     15  O   UNL     1      70.327  84.971  70.018  1.00  0.00    -0.504 OA
ATOM     16  H   UNL     1      70.574  85.893  69.923  1.00  0.00     0.293 HD
ENDBRANCH   9  15
ENDBRANCH   6   7
ENDBRANCH   3   6
ENDBRANCH   1   2
BRANCH   1  17
ATOM     17  C   UNL     1      76.163  81.682  65.752  1.00  0.00     0.010 C 
BRANCH  17  18
ATOM     18  C   UNL     1      77.130  82.885  65.573  1.00  0.00     0.005 C 
BRANCH  18  19
ATOM     19  C   UNL     1      77.946  83.184  66.859  1.00  0.00     0.027 C 
BRANCH  19  20
ATOM     20  C   UNL     1      78.158  84.610  67.054  1.00  0.00    -0.031 C 
ATOM     21  C   UNL     1      77.787  85.286  68.157  1.00  0.00    -0.028 C 
BRANCH  21  22
ATOM     22  C   UNL     1      78.028  86.717  68.339  1.00  0.00     0.005 C 
ATOM     23  C   UNL     1      77.649  87.544  67.080  1.00  0.00     0.012 C 
ATOM     24  C   UNL     1      77.269  87.234  69.589  1.00  0.00     0.012 C 
ENDBRANCH  21  22
ENDBRANCH  19  20
ENDBRANCH  18  19
ENDBRANCH  17  18
ENDBRANCH   1  17
TORSDOF 10
ENDMDL
MODEL 8
REMARK VINA RESULT:    -5.712     25.195     27.463
REMARK INTER + INTRA:          -9.726
REMARK INTER:                  -8.919
REMARK INTRA:                  -0.806
REMARK UNBOUND:                -0.841
REMARK SMILES COc1cc(CNC(=O)CCCC/C=C/C(C)C)ccc1O
REMARK SMILES IDX 10 1 8 2 7 3 9 5 6 6 5 7 3 8 21 9 4 10 20 11 19 12 2 13 1 14
REMARK SMILES IDX 22 15 11 17 12 18 13 19 14 20 15 21 16 22 17 23 18 24
REMARK H PARENT 7 4 22 16
REMARK Flexibility Score: inf
ROOT
ATOM      1  C   UNL     1      97.199  84.472  84.553  1.00  0.00     0.100 C 
ENDROOT
BRANCH   1   2
ATOM      2  C   UNL     1      96.728  83.687  85.710  1.00  0.00     0.220 C 
ATOM      3  N   UNL     1      95.588  82.946  85.625  1.00  0.00    -0.352 N 
ATOM      4  H   UNL     1      95.106  83.005  84.739  1.00  0.00     0.163 HD
ATOM      5  O   UNL     1      97.419  83.704  86.758  1.00  0.00    -0.275 OA
BRANCH   3   6
ATOM      6  C   UNL     1      95.066  82.128  86.674  1.00  0.00     0.151 C 
BRANCH   6   7
ATOM      7  C   UNL     1      93.829  82.713  87.258  1.00  0.00    -0.025 A 
ATOM      8  C   UNL     1      91.376  82.724  87.475  1.00  0.00     0.160 A 
ATOM      9  C   UNL     1      91.460  83.804  88.378  1.00  0.00     0.157 A 
ATOM     10  C   UNL     1      92.559  82.191  86.922  1.00  0.00     0.056 A 
ATOM     11  C   UNL     1      92.717  84.347  88.708  1.00  0.00     0.050 A 
ATOM     12  C   UNL     1      93.894  83.801  88.160  1.00  0.00     0.009 A 
BRANCH   8  13
ATOM     13  O   UNL     1      90.151  82.234  87.100  1.00  0.00    -0.493 OA
ATOM     14  C   UNL     1      89.762  81.033  87.793  1.00  0.00     0.278 C 
ENDBRANCH   8  13
BRANCH   9  15
ATOM     15  O   UNL     1      90.341  84.331  88.938  1.00  0.00    -0.504 OA
ATOM     16  H   UNL     1      89.960  83.698  89.551  1.00  0.00     0.293 HD
ENDBRANCH   9  15
ENDBRANCH   6   7
ENDBRANCH   3   6
ENDBRANCH   1   2
BRANCH   1  17
ATOM     17  C   UNL     1      97.448  83.572  83.313  1.00  0.00     0.010 C 
BRANCH  17  18
ATOM     18  C   UNL     1      98.464  82.428  83.590  1.00  0.00     0.005 C 
BRANCH  18  19
ATOM     19  C   UNL     1      99.498  82.266  82.443  1.00  0.00     0.027 C 
BRANCH  19  20
ATOM     20  C   UNL     1      99.049  82.892  81.209  1.00  0.00    -0.031 C 
ATOM     21  C   UNL     1      99.121  82.313  79.997  1.00  0.00    -0.028 C 
BRANCH  21  22
ATOM     22  C   UNL     1      98.645  82.954  78.771  1.00  0.00     0.005 C 
ATOM     23  C   UNL     1      98.610  81.972  77.568  1.00  0.00     0.012 C 
ATOM     24  C   UNL     1      97.251  83.591  79.006  1.00  0.00     0.012 C 
ENDBRANCH  21  22
ENDBRANCH  19  20
ENDBRANCH  18  19
ENDBRANCH  17  18
ENDBRANCH   1  17
TORSDOF 10
ENDMDL
MODEL 9
REMARK VINA RESULT:    -5.657     12.049     15.331
REMARK INTER + INTRA:          -9.641
REMARK INTER:                  -8.438
REMARK INTRA:                  -1.202
REMARK UNBOUND:                -0.841
REMARK SMILES COc1cc(CNC(=O)CCCC/C=C/C(C)C)ccc1O
REMARK SMILES IDX 10 1 8 2 7 3 9 5 6 6 5 7 3 8 21 9 4 10 20 11 19 12 2 13 1 14
REMARK SMILES IDX 22 15 11 17 12 18 13 19 14 20 15 21 16 22 17 23 18 24
REMARK H PARENT 7 4 22 16
REMARK Flexibility Score: inf
ROOT
ATOM      1  C   UNL     1      63.740  84.896  76.606  1.00  0.00     0.100 C 
ENDROOT
BRANCH   1   2
ATOM      2  C   UNL     1      63.337  85.867  75.570  1.00  0.00     0.220 C 
ATOM      3  N   UNL     1      62.032  85.975  75.195  1.00  0.00    -0.352 N 
ATOM      4  H   UNL     1      61.400  85.335  75.658  1.00  0.00     0.163 HD
ATOM      5  O   UNL     1      64.223  86.599  75.068  1.00  0.00    -0.275 OA
BRANCH   3   6
ATOM      6  C   UNL     1      61.535  86.901  74.229  1.00  0.00     0.151 C 
BRANCH   6   7
ATOM      7  C   UNL     1      60.786  86.211  73.144  1.00  0.00    -0.025 A 
ATOM      8  C   UNL     1      60.775  84.760  71.154  1.00  0.00     0.160 A 
ATOM      9  C   UNL     1      59.371  84.872  71.080  1.00  0.00     0.157 A 
ATOM     10  C   UNL     1      61.469  85.432  72.183  1.00  0.00     0.056 A 
ATOM     11  C   UNL     1      58.678  85.661  72.019  1.00  0.00     0.050 A 
ATOM     12  C   UNL     1      59.379  86.318  73.050  1.00  0.00     0.009 A 
BRANCH   8  13
ATOM     13  O   UNL     1      61.460  84.047  70.203  1.00  0.00    -0.493 OA
ATOM     14  C   UNL     1      62.219  84.863  69.292  1.00  0.00     0.278 C 
ENDBRANCH   8  13
BRANCH   9  15
ATOM     15  O   UNL     1      58.672  84.228  70.110  1.00  0.00    -0.504 OA
ATOM     16  H   UNL     1      57.735  84.257  70.317  1.00  0.00     0.293 HD
ENDBRANCH   9  15
ENDBRANCH   6   7
ENDBRANCH   3   6
ENDBRANCH   1   2
BRANCH   1  17
ATOM     17  C   UNL     1      63.188  83.476  76.306  1.00  0.00     0.010 C 
BRANCH  17  18
ATOM     18  C   UNL     1      63.937  82.770  75.140  1.00  0.00     0.005 C 
BRANCH  18  19
ATOM     19  C   UNL     1      62.994  81.882  74.284  1.00  0.00     0.027 C 
BRANCH  19  20
ATOM     20  C   UNL     1      63.649  81.389  73.082  1.00  0.00    -0.031 C 
ATOM     21  C   UNL     1      64.365  82.157  72.242  1.00  0.00    -0.028 C 
BRANCH  21  22
ATOM     22  C   UNL     1      65.032  81.636  71.049  1.00  0.00     0.005 C 
ATOM     23  C   UNL     1      64.126  81.709  69.788  1.00  0.00     0.012 C 
ATOM     24  C   UNL     1      66.370  82.384  70.813  1.00  0.00     0.012 C 
ENDBRANCH  21  22
ENDBRANCH  19  20
ENDBRANCH  18  19
ENDBRANCH  17  18
ENDBRANCH   1  17
TORSDOF 10
ENDMDL
MODEL 10
REMARK VINA RESULT:    -5.614     25.985     29.084
REMARK INTER + INTRA:          -9.574
REMARK INTER:                  -8.530
REMARK INTRA:                  -1.044
REMARK UNBOUND:                -0.841
REMARK SMILES COc1cc(CNC(=O)CCCC/C=C/C(C)C)ccc1O
REMARK SMILES IDX 10 1 8 2 7 3 9 5 6 6 5 7 3 8 21 9 4 10 20 11 19 12 2 13 1 14
REMARK SMILES IDX 22 15 11 17 12 18 13 19 14 20 15 21 16 22 17 23 18 24
REMARK H PARENT 7 4 22 16
REMARK Flexibility Score: inf
ROOT
ATOM      1  C   UNL     1     102.246  81.729  81.081  1.00  0.00     0.100 C 
ENDROOT
BRANCH   1   2
ATOM      2  C   UNL     1     100.983  81.241  81.668  1.00  0.00     0.220 C 
ATOM      3  N   UNL     1     100.542  81.728  82.861  1.00  0.00    -0.352 N 
ATOM      4  H   UNL     1     101.151  82.408  83.296  1.00  0.00     0.163 HD
ATOM      5  O   UNL     1     100.323  80.388  81.027  1.00  0.00    -0.275 OA
BRANCH   3   6
ATOM      6  C   UNL     1      99.322  81.346  83.497  1.00  0.00     0.151 C 
BRANCH   6   7
ATOM      7  C   UNL     1      98.694  82.493  84.208  1.00  0.00    -0.025 A 
ATOM      8  C   UNL     1      98.538  83.938  86.196  1.00  0.00     0.160 A 
ATOM      9  C   UNL     1      97.521  84.689  85.571  1.00  0.00     0.157 A 
ATOM     10  C   UNL     1      99.113  82.847  85.511  1.00  0.00     0.056 A 
ATOM     11  C   UNL     1      97.079  84.336  84.281  1.00  0.00     0.050 A 
ATOM     12  C   UNL     1      97.667  83.253  83.599  1.00  0.00     0.009 A 
BRANCH   8  13
ATOM     13  O   UNL     1      98.925  84.237  87.477  1.00  0.00    -0.493 OA
ATOM     14  C   UNL     1     100.349  84.196  87.685  1.00  0.00     0.278 C 
ENDBRANCH   8  13
BRANCH   9  15
ATOM     15  O   UNL     1      96.956  85.753  86.198  1.00  0.00    -0.504 OA
ATOM     16  H   UNL     1      97.576  86.486  86.208  1.00  0.00     0.293 HD
ENDBRANCH   9  15
ENDBRANCH   6   7
ENDBRANCH   3   6
ENDBRANCH   1   2
BRANCH   1  17
ATOM     17  C   UNL     1     102.581  80.997  79.753  1.00  0.00     0.010 C 
BRANCH  17  18
ATOM     18  C   UNL     1     102.296  81.866  78.495  1.00  0.00     0.005 C 
BRANCH  18  19
ATOM     19  C   UNL     1     101.129  81.302  77.640  1.00  0.00     0.027 C 
BRANCH  19  20
ATOM     20  C   UNL     1     100.024  82.243  77.533  1.00  0.00    -0.031 C 
ATOM     21  C   UNL     1      99.356  82.747  78.586  1.00  0.00    -0.028 C 
BRANCH  21  22
ATOM     22  C   UNL     1      98.260  83.708  78.456  1.00  0.00     0.005 C 
ATOM     23  C   UNL     1      97.688  83.756  77.013  1.00  0.00     0.012 C 
ATOM     24  C   UNL     1      97.143  83.390  79.484  1.00  0.00     0.012 C 
ENDBRANCH  21  22
ENDBRANCH  19  20
ENDBRANCH  18  19
ENDBRANCH  17  18
ENDBRANCH   1  17
TORSDOF 10
ENDMDL
