MODEL 1
REMARK VINA RESULT:    -6.077      0.000      0.000
REMARK INTER + INTRA:         -12.875
REMARK INTER:                 -10.696
REMARK INTRA:                  -2.179
REMARK UNBOUND:                -2.179
REMARK SMILES C=C(C)[C@]12C[C@@H](C)[C@@]34O[C@](Cc5ccccc5)(O[C@@H]1[C@@H]3C=C(COC(=O)Cc1ccc(O)c(OC)c1)C[C@]1(O)C(=O)C(C)=C[C@@H]41)O2
REMARK SMILES IDX 23 1 22 2 21 3 20 4 9 5 8 6 10 7 6 8 18 9 46 10 19 11 5 12
REMARK SMILES IDX 7 13 4 14 45 15 38 16 44 17 40 18 42 20 41 21 43 22 39 23
REMARK SMILES IDX 11 25 12 26 13 27 17 28 14 29 16 30 15 31 2 32 3 33 1 34
REMARK SMILES IDX 37 35 24 37 25 38 26 39 27 40 28 41 36 42 29 43 33 44 30 45
REMARK SMILES IDX 31 46 34 47 35 48 32 49
REMARK H PARENT 39 24 32 50
REMARK Flexibility Score: 90.00
ROOT
ATOM      1  C   UNL     1      97.062  82.220  85.254  1.00  0.00     0.264 C 
ENDROOT
BRANCH   1   2
ATOM      2  C   UNL     1      96.272  81.719  86.441  1.00  0.00    -0.033 C 
ATOM      3  C   UNL     1      94.926  81.804  86.420  1.00  0.00    -0.015 C 
BRANCH   3   4
ATOM      4  C   UNL     1      93.921  81.447  87.503  1.00  0.00     0.078 C 
ATOM      5  O   UNL     1      93.232  79.105  87.103  1.00  0.00    -0.319 OA
ATOM      6  C   UNL     1      93.911  79.975  88.060  1.00  0.00     0.095 C 
ATOM      7  C   UNL     1      92.030  79.646  86.524  1.00  0.00     0.289 C 
ATOM      8  C   UNL     1      93.104  79.984  89.424  1.00  0.00     0.023 C 
ATOM      9  O   UNL     1      92.285  80.884  85.865  1.00  0.00    -0.320 OA
ATOM     10  O   UNL     1      91.036  79.930  87.506  1.00  0.00    -0.313 OA
ATOM     11  C   UNL     1      92.484  81.738  87.003  1.00  0.00     0.170 C 
ATOM     12  C   UNL     1      91.954  81.037  89.401  1.00  0.00     0.049 C 
ATOM     13  C   UNL     1      92.542  78.623  89.867  1.00  0.00     0.011 C 
ATOM     14  C   UNL     1      91.400  81.239  87.990  1.00  0.00     0.122 C 
BRANCH   6  15
ATOM     15  C   UNL     1      95.358  79.407  88.143  1.00  0.00     0.086 C 
ATOM     16  C   UNL     1      96.435  80.366  88.692  1.00  0.00     0.140 CG0
ATOM     17  C   UNL     1      95.607  78.133  88.900  1.00  0.00    -0.010 C 
ATOM     18  C   UNL     1      97.361  79.426  89.434  1.00  0.00     0.190 C 
ATOM     19  G   UNL     1      97.147  81.132  87.578  1.00  0.00     0.000 G0
ATOM     20  C   UNL     1      96.737  78.101  89.613  1.00  0.00    -0.008 C 
ATOM     21  O   UNL     1      98.460  79.720  89.879  1.00  0.00    -0.291 OA
ATOM     22  C   UNL     1      97.336  77.004  90.399  1.00  0.00     0.048 C 
BRANCH  16  23
ATOM     23  O   UNL     1      95.962  81.242  89.702  1.00  0.00    -0.381 OA
ATOM     24  H   UNL     1      96.580  81.211  90.450  1.00  0.00     0.212 HD
ENDBRANCH  16  23
ENDBRANCH   6  15
BRANCH   7  25
ATOM     25  C   UNL     1      91.486  78.640  85.530  1.00  0.00     0.135 C 
BRANCH  25  26
ATOM     26  C   UNL     1      91.910  77.231  85.862  1.00  0.00    -0.040 A 
ATOM     27  C   UNL     1      91.352  76.576  86.961  1.00  0.00     0.004 A 
ATOM     28  C   UNL     1      92.858  76.582  85.072  1.00  0.00     0.004 A 
ATOM     29  C   UNL     1      91.744  75.273  87.269  1.00  0.00     0.000 A 
ATOM     30  C   UNL     1      93.250  75.279  85.380  1.00  0.00     0.000 A 
ATOM     31  C   UNL     1      92.692  74.625  86.479  1.00  0.00     0.000 A 
ENDBRANCH  25  26
ENDBRANCH   7  25
BRANCH  14  32
ATOM     32  C   UNL     1      90.182  82.103  87.970  1.00  0.00    -0.046 C 
ATOM     33  C   UNL     1      90.212  83.312  88.857  1.00  0.00     0.042 C 
ATOM     34  C   UNL     1      89.120  81.815  87.202  1.00  0.00     0.010 C 
ENDBRANCH  14  32
ENDBRANCH   3   4
BRANCH   2  35
ATOM     35  C   UNL     1      97.148  81.153  87.543  1.00  0.00     0.078 CG0
ATOM     36  G   UNL     1      96.453  80.364  88.651  1.00  0.00     0.000 G0
ENDBRANCH   2  35
ENDBRANCH   1   2
BRANCH   1  37
ATOM     37  O   UNL     1      96.673  83.544  84.960  1.00  0.00    -0.461 OA
BRANCH  37  38
ATOM     38  C   UNL     1      97.070  84.509  85.857  1.00  0.00     0.310 C 
ATOM     39  O   UNL     1      98.111  84.485  86.498  1.00  0.00    -0.252 OA
BRANCH  38  40
ATOM     40  C   UNL     1      96.024  85.597  85.924  1.00  0.00     0.158 C 
BRANCH  40  41
ATOM     41  C   UNL     1      95.294  85.629  87.242  1.00  0.00    -0.033 A 
ATOM     42  C   UNL     1      95.901  86.199  88.362  1.00  0.00     0.054 A 
ATOM     43  C   UNL     1      94.012  85.090  87.343  1.00  0.00     0.008 A 
ATOM     44  C   UNL     1      95.226  86.229  89.582  1.00  0.00     0.160 A 
ATOM     45  C   UNL     1      93.336  85.120  88.563  1.00  0.00     0.050 A 
ATOM     46  C   UNL     1      93.943  85.689  89.683  1.00  0.00     0.157 A 
BRANCH  44  47
ATOM     47  O   UNL     1      95.829  86.788  90.668  1.00  0.00    -0.493 OA
ATOM     48  C   UNL     1      95.378  88.082  91.066  1.00  0.00     0.278 C 
ENDBRANCH  44  47
BRANCH  46  49
ATOM     49  O   UNL     1      93.273  85.714  90.868  1.00  0.00    -0.504 OA
ATOM     50  H   UNL     1      93.188  84.805  91.203  1.00  0.00     0.293 HD
ENDBRANCH  46  49
ENDBRANCH  40  41
ENDBRANCH  38  40
ENDBRANCH  37  38
ENDBRANCH   1  37
TORSDOF 11
ENDMDL
MODEL 2
REMARK VINA RESULT:    -5.991     29.903     33.488
REMARK INTER + INTRA:         -12.723
REMARK INTER:                 -10.041
REMARK INTRA:                  -2.682
REMARK UNBOUND:                -2.179
REMARK SMILES C=C(C)[C@]12C[C@@H](C)[C@@]34O[C@](Cc5ccccc5)(O[C@@H]1[C@@H]3C=C(COC(=O)Cc1ccc(O)c(OC)c1)C[C@]1(O)C(=O)C(C)=C[C@@H]41)O2
REMARK SMILES IDX 23 1 22 2 21 3 20 4 9 5 8 6 10 7 6 8 18 9 46 10 19 11 5 12
REMARK SMILES IDX 7 13 4 14 45 15 38 16 44 17 40 18 42 20 41 21 43 22 39 23
REMARK SMILES IDX 11 25 12 26 13 27 17 28 14 29 16 30 15 31 2 32 3 33 1 34
REMARK SMILES IDX 37 35 24 37 25 38 26 39 27 40 28 41 36 42 29 43 33 44 30 45
REMARK SMILES IDX 31 46 34 47 35 48 32 49
REMARK H PARENT 39 24 32 50
REMARK Flexibility Score: 90.00
ROOT
ATOM      1  C   UNL     1      68.336  87.103  71.927  1.00  0.00     0.264 C 
ENDROOT
BRANCH   1   2
ATOM      2  C   UNL     1      67.701  85.817  71.452  1.00  0.00    -0.033 C 
ATOM      3  C   UNL     1      66.612  85.344  72.092  1.00  0.00    -0.015 C 
BRANCH   3   4
ATOM      4  C   UNL     1      65.844  84.053  71.863  1.00  0.00     0.078 C 
ATOM      5  O   UNL     1      64.018  84.573  70.276  1.00  0.00    -0.319 OA
ATOM      6  C   UNL     1      65.239  83.785  70.435  1.00  0.00     0.095 C 
ATOM      7  C   UNL     1      63.143  84.589  71.420  1.00  0.00     0.289 C 
ATOM      8  C   UNL     1      64.882  82.244  70.346  1.00  0.00     0.023 C 
ATOM      9  O   UNL     1      63.815  85.076  72.579  1.00  0.00    -0.320 OA
ATOM     10  O   UNL     1      62.677  83.287  71.764  1.00  0.00    -0.313 OA
ATOM     11  C   UNL     1      64.667  83.957  72.865  1.00  0.00     0.170 C 
ATOM     12  C   UNL     1      64.432  81.681  71.730  1.00  0.00     0.049 C 
ATOM     13  C   UNL     1      63.842  81.867  69.279  1.00  0.00     0.011 C 
ATOM     14  C   UNL     1      63.740  82.749  72.577  1.00  0.00     0.122 C 
BRANCH   6  15
ATOM     15  C   UNL     1      66.191  84.316  69.324  1.00  0.00     0.086 C 
ATOM     16  C   UNL     1      67.695  84.040  69.528  1.00  0.00     0.140 CG0
ATOM     17  C   UNL     1      65.952  83.913  67.895  1.00  0.00    -0.010 C 
ATOM     18  C   UNL     1      68.185  83.839  68.110  1.00  0.00     0.190 C 
ATOM     19  G   UNL     1      68.403  85.196  70.233  1.00  0.00     0.000 G0
ATOM     20  C   UNL     1      67.054  83.665  67.179  1.00  0.00    -0.008 C 
ATOM     21  O   UNL     1      69.356  83.773  67.768  1.00  0.00    -0.291 OA
ATOM     22  C   UNL     1      67.203  83.332  65.748  1.00  0.00     0.048 C 
BRANCH  16  23
ATOM     23  O   UNL     1      67.970  82.801  70.161  1.00  0.00    -0.381 OA
ATOM     24  H   UNL     1      68.498  82.257  69.553  1.00  0.00     0.212 HD
ENDBRANCH  16  23
ENDBRANCH   6  15
BRANCH   7  25
ATOM     25  C   UNL     1      61.961  85.482  71.101  1.00  0.00     0.135 C 
BRANCH  25  26
ATOM     26  C   UNL     1      62.048  86.811  71.809  1.00  0.00    -0.040 A 
ATOM     27  C   UNL     1      61.266  87.052  72.939  1.00  0.00     0.004 A 
ATOM     28  C   UNL     1      62.911  87.799  71.335  1.00  0.00     0.004 A 
ATOM     29  C   UNL     1      61.347  88.281  73.594  1.00  0.00     0.000 A 
ATOM     30  C   UNL     1      62.992  89.028  71.990  1.00  0.00     0.000 A 
ATOM     31  C   UNL     1      62.209  89.268  73.119  1.00  0.00     0.000 A 
ENDBRANCH  25  26
ENDBRANCH   7  25
BRANCH  14  32
ATOM     32  C   UNL     1      63.140  82.191  73.827  1.00  0.00    -0.046 C 
ATOM     33  C   UNL     1      63.738  82.667  75.117  1.00  0.00     0.042 C 
ATOM     34  C   UNL     1      62.125  81.315  73.796  1.00  0.00     0.010 C 
ENDBRANCH  14  32
ENDBRANCH   3   4
BRANCH   2  35
ATOM     35  C   UNL     1      68.409  85.210  70.256  1.00  0.00     0.078 CG0
ATOM     36  G   UNL     1      67.710  84.053  69.543  1.00  0.00     0.000 G0
ENDBRANCH   2  35
ENDBRANCH   1   2
BRANCH   1  37
ATOM     37  O   UNL     1      68.005  87.315  73.283  1.00  0.00    -0.461 OA
BRANCH  37  38
ATOM     38  C   UNL     1      67.473  88.545  73.594  1.00  0.00     0.310 C 
ATOM     39  O   UNL     1      67.137  89.392  72.777  1.00  0.00    -0.252 OA
BRANCH  38  40
ATOM     40  C   UNL     1      67.371  88.686  75.094  1.00  0.00     0.158 C 
BRANCH  40  41
ATOM     41  C   UNL     1      66.323  87.789  75.699  1.00  0.00    -0.033 A 
ATOM     42  C   UNL     1      66.560  87.166  76.925  1.00  0.00     0.054 A 
ATOM     43  C   UNL     1      65.115  87.580  75.034  1.00  0.00     0.008 A 
ATOM     44  C   UNL     1      65.590  86.336  77.485  1.00  0.00     0.160 A 
ATOM     45  C   UNL     1      64.144  86.750  75.594  1.00  0.00     0.050 A 
ATOM     46  C   UNL     1      64.381  86.127  76.819  1.00  0.00     0.157 A 
BRANCH  44  47
ATOM     47  O   UNL     1      65.833  85.733  78.682  1.00  0.00    -0.493 OA
ATOM     48  C   UNL     1      66.590  84.524  78.658  1.00  0.00     0.278 C 
ENDBRANCH  44  47
BRANCH  46  49
ATOM     49  O   UNL     1      63.426  85.319  77.357  1.00  0.00    -0.504 OA
ATOM     50  H   UNL     1      62.549  85.659  77.111  1.00  0.00     0.293 HD
ENDBRANCH  46  49
ENDBRANCH  40  41
ENDBRANCH  38  40
ENDBRANCH  37  38
ENDBRANCH   1  37
TORSDOF 11
ENDMDL
MODEL 3
REMARK VINA RESULT:    -5.764      2.878      6.542
REMARK INTER + INTRA:         -12.323
REMARK INTER:                 -11.354
REMARK INTRA:                  -0.969
REMARK UNBOUND:                -2.179
REMARK SMILES C=C(C)[C@]12C[C@@H](C)[C@@]34O[C@](Cc5ccccc5)(O[C@@H]1[C@@H]3C=C(COC(=O)Cc1ccc(O)c(OC)c1)C[C@]1(O)C(=O)C(C)=C[C@@H]41)O2
REMARK SMILES IDX 23 1 22 2 21 3 20 4 9 5 8 6 10 7 6 8 18 9 46 10 19 11 5 12
REMARK SMILES IDX 7 13 4 14 45 15 38 16 44 17 40 18 42 20 41 21 43 22 39 23
REMARK SMILES IDX 11 25 12 26 13 27 17 28 14 29 16 30 15 31 2 32 3 33 1 34
REMARK SMILES IDX 37 35 24 37 25 38 26 39 27 40 28 41 36 42 29 43 33 44 30 45
REMARK SMILES IDX 31 46 34 47 35 48 32 49
REMARK H PARENT 39 24 32 50
REMARK Flexibility Score: 90.00
ROOT
ATOM      1  C   UNL     1      98.291  83.473  87.429  1.00  0.00     0.264 C 
ENDROOT
BRANCH   1   2
ATOM      2  C   UNL     1      96.842  83.874  87.581  1.00  0.00    -0.033 C 
ATOM      3  C   UNL     1      95.881  82.938  87.448  1.00  0.00    -0.015 C 
BRANCH   3   4
ATOM      4  C   UNL     1      94.370  83.095  87.478  1.00  0.00     0.078 C 
ATOM      5  O   UNL     1      93.652  82.712  89.814  1.00  0.00    -0.319 OA
ATOM      6  C   UNL     1      93.708  83.723  88.761  1.00  0.00     0.095 C 
ATOM      7  C   UNL     1      93.249  81.398  89.386  1.00  0.00     0.289 C 
ATOM      8  C   UNL     1      92.234  84.160  88.376  1.00  0.00     0.023 C 
ATOM      9  O   UNL     1      94.110  80.900  88.365  1.00  0.00    -0.320 OA
ATOM     10  O   UNL     1      91.940  81.390  88.823  1.00  0.00    -0.313 OA
ATOM     11  C   UNL     1      93.693  81.719  87.262  1.00  0.00     0.170 C 
ATOM     12  C   UNL     1      91.613  83.201  87.315  1.00  0.00     0.049 C 
ATOM     13  C   UNL     1      91.262  84.314  89.557  1.00  0.00     0.011 C 
ATOM     14  C   UNL     1      92.156  81.778  87.451  1.00  0.00     0.122 C 
BRANCH   6  15
ATOM     15  C   UNL     1      94.607  84.849  89.351  1.00  0.00     0.086 C 
ATOM     16  C   UNL     1      95.253  85.808  88.330  1.00  0.00     0.140 CG0
ATOM     17  C   UNL     1      94.040  85.775  90.390  1.00  0.00    -0.010 C 
ATOM     18  C   UNL     1      95.268  87.122  89.080  1.00  0.00     0.190 C 
ATOM     19  G   UNL     1      96.653  85.354  87.918  1.00  0.00     0.000 G0
ATOM     20  C   UNL     1      94.414  87.054  90.282  1.00  0.00    -0.008 C 
ATOM     21  O   UNL     1      95.858  88.133  88.729  1.00  0.00    -0.291 OA
ATOM     22  C   UNL     1      94.125  88.208  91.158  1.00  0.00     0.048 C 
BRANCH  16  23
ATOM     23  O   UNL     1      94.441  86.073  87.198  1.00  0.00    -0.381 OA
ATOM     24  H   UNL     1      93.663  86.577  87.489  1.00  0.00     0.212 HD
ENDBRANCH  16  23
ENDBRANCH   6  15
BRANCH   7  25
ATOM     25  C   UNL     1      93.290  80.473  90.586  1.00  0.00     0.135 C 
BRANCH  25  26
ATOM     26  C   UNL     1      92.251  79.382  90.495  1.00  0.00    -0.040 A 
ATOM     27  C   UNL     1      91.094  79.455  91.271  1.00  0.00     0.004 A 
ATOM     28  C   UNL     1      92.447  78.303  89.634  1.00  0.00     0.004 A 
ATOM     29  C   UNL     1      90.133  78.446  91.186  1.00  0.00     0.000 A 
ATOM     30  C   UNL     1      91.486  77.295  89.549  1.00  0.00     0.000 A 
ATOM     31  C   UNL     1      90.330  77.367  90.326  1.00  0.00     0.000 A 
ENDBRANCH  25  26
ENDBRANCH   7  25
BRANCH  14  32
ATOM     32  C   UNL     1      91.445  80.805  86.569  1.00  0.00    -0.046 C 
ATOM     33  C   UNL     1      92.296  79.756  85.918  1.00  0.00     0.042 C 
ATOM     34  C   UNL     1      90.120  80.865  86.369  1.00  0.00     0.010 C 
ENDBRANCH  14  32
ENDBRANCH   3   4
BRANCH   2  35
ATOM     35  C   UNL     1      96.662  85.349  87.887  1.00  0.00     0.078 CG0
ATOM     36  G   UNL     1      95.275  85.806  88.336  1.00  0.00     0.000 G0
ENDBRANCH   2  35
ENDBRANCH   1   2
BRANCH   1  37
ATOM     37  O   UNL     1      98.623  83.436  86.057  1.00  0.00    -0.461 OA
BRANCH  37  38
ATOM     38  C   UNL     1      98.798  82.188  85.507  1.00  0.00     0.310 C 
ATOM     39  O   UNL     1      99.652  81.382  85.851  1.00  0.00    -0.252 OA
BRANCH  38  40
ATOM     40  C   UNL     1      97.777  81.970  84.416  1.00  0.00     0.158 C 
BRANCH  40  41
ATOM     41  C   UNL     1      98.372  82.026  83.033  1.00  0.00    -0.033 A 
ATOM     42  C   UNL     1      99.147  80.965  82.563  1.00  0.00     0.054 A 
ATOM     43  C   UNL     1      98.149  83.139  82.222  1.00  0.00     0.008 A 
ATOM     44  C   UNL     1      99.699  81.018  81.283  1.00  0.00     0.160 A 
ATOM     45  C   UNL     1      98.700  83.191  80.941  1.00  0.00     0.050 A 
ATOM     46  C   UNL     1      99.475  82.131  80.472  1.00  0.00     0.157 A 
BRANCH  44  47
ATOM     47  O   UNL     1     100.454  79.976  80.836  1.00  0.00    -0.493 OA
ATOM     48  C   UNL     1     101.092  79.167  81.823  1.00  0.00     0.278 C 
ENDBRANCH  44  47
BRANCH  46  49
ATOM     49  O   UNL     1     100.008  82.193  79.220  1.00  0.00    -0.504 OA
ATOM     50  H   UNL     1      99.839  81.352  78.763  1.00  0.00     0.293 HD
ENDBRANCH  46  49
ENDBRANCH  40  41
ENDBRANCH  38  40
ENDBRANCH  37  38
ENDBRANCH   1  37
TORSDOF 11
ENDMDL
MODEL 4
REMARK VINA RESULT:    -5.491      2.295      4.607
REMARK INTER + INTRA:         -11.842
REMARK INTER:                 -10.627
REMARK INTRA:                  -1.216
REMARK UNBOUND:                -2.179
REMARK SMILES C=C(C)[C@]12C[C@@H](C)[C@@]34O[C@](Cc5ccccc5)(O[C@@H]1[C@@H]3C=C(COC(=O)Cc1ccc(O)c(OC)c1)C[C@]1(O)C(=O)C(C)=C[C@@H]41)O2
REMARK SMILES IDX 23 1 22 2 21 3 20 4 9 5 8 6 10 7 6 8 18 9 46 10 19 11 5 12
REMARK SMILES IDX 7 13 4 14 45 15 38 16 44 17 40 18 42 20 41 21 43 22 39 23
REMARK SMILES IDX 11 25 12 26 13 27 17 28 14 29 16 30 15 31 2 32 3 33 1 34
REMARK SMILES IDX 37 35 24 37 25 38 26 39 27 40 28 41 36 42 29 43 33 44 30 45
REMARK SMILES IDX 31 46 34 47 35 48 32 49
REMARK H PARENT 39 24 32 50
REMARK Flexibility Score: 90.00
ROOT
ATOM      1  C   UNL     1      97.512  81.916  86.863  1.00  0.00     0.264 C 
ENDROOT
BRANCH   1   2
ATOM      2  C   UNL     1      96.462  81.320  87.773  1.00  0.00    -0.033 C 
ATOM      3  C   UNL     1      95.159  81.556  87.519  1.00  0.00    -0.015 C 
BRANCH   3   4
ATOM      4  C   UNL     1      93.932  81.143  88.314  1.00  0.00     0.078 C 
ATOM      5  O   UNL     1      93.170  78.978  87.390  1.00  0.00    -0.319 OA
ATOM      6  C   UNL     1      93.702  79.611  88.594  1.00  0.00     0.095 C 
ATOM      7  C   UNL     1      92.153  79.727  86.698  1.00  0.00     0.289 C 
ATOM      8  C   UNL     1      92.637  79.491  89.762  1.00  0.00     0.023 C 
ATOM      9  O   UNL     1      92.625  81.019  86.326  1.00  0.00    -0.320 OA
ATOM     10  O   UNL     1      91.004  79.957  87.510  1.00  0.00    -0.313 OA
ATOM     11  C   UNL     1      92.652  81.658  87.611  1.00  0.00     0.170 C 
ATOM     12  C   UNL     1      91.596  80.651  89.707  1.00  0.00     0.049 C 
ATOM     13  C   UNL     1      91.900  78.145  89.847  1.00  0.00     0.011 C 
ATOM     14  C   UNL     1      91.356  81.128  88.275  1.00  0.00     0.122 C 
BRANCH   6  15
ATOM     15  C   UNL     1      95.056  78.887  88.847  1.00  0.00     0.086 C 
ATOM     16  C   UNL     1      96.074  79.638  89.731  1.00  0.00     0.140 CG0
ATOM     17  C   UNL     1      95.053  77.498  89.421  1.00  0.00    -0.010 C 
ATOM     18  C   UNL     1      96.761  78.508  90.468  1.00  0.00     0.190 C 
ATOM     19  G   UNL     1      97.048  80.476  88.905  1.00  0.00     0.000 G0
ATOM     20  C   UNL     1      96.016  77.245  90.314  1.00  0.00    -0.008 C 
ATOM     21  O   UNL     1      97.770  78.617  91.148  1.00  0.00    -0.291 OA
ATOM     22  C   UNL     1      96.362  75.988  91.009  1.00  0.00     0.048 C 
BRANCH  16  23
ATOM     23  O   UNL     1      95.480  80.404  90.766  1.00  0.00    -0.381 OA
ATOM     24  H   UNL     1      94.737  80.905  90.389  1.00  0.00     0.212 HD
ENDBRANCH  16  23
ENDBRANCH   6  15
BRANCH   7  25
ATOM     25  C   UNL     1      91.750  78.953  85.459  1.00  0.00     0.135 C 
BRANCH  25  26
ATOM     26  C   UNL     1      91.979  77.470  85.621  1.00  0.00    -0.040 A 
ATOM     27  C   UNL     1      93.014  76.844  84.926  1.00  0.00     0.004 A 
ATOM     28  C   UNL     1      91.157  76.726  86.466  1.00  0.00     0.004 A 
ATOM     29  C   UNL     1      93.225  75.473  85.075  1.00  0.00     0.000 A 
ATOM     30  C   UNL     1      91.368  75.355  86.616  1.00  0.00     0.000 A 
ATOM     31  C   UNL     1      92.403  74.729  85.920  1.00  0.00     0.000 A 
ENDBRANCH  25  26
ENDBRANCH   7  25
BRANCH  14  32
ATOM     32  C   UNL     1      90.234  82.109  88.177  1.00  0.00    -0.046 C 
ATOM     33  C   UNL     1      89.016  81.651  87.430  1.00  0.00     0.042 C 
ATOM     34  C   UNL     1      90.309  83.331  88.725  1.00  0.00     0.010 C 
ENDBRANCH  14  32
ENDBRANCH   3   4
BRANCH   2  35
ATOM     35  C   UNL     1      97.052  80.490  88.898  1.00  0.00     0.078 CG0
ATOM     36  G   UNL     1      96.082  79.654  89.731  1.00  0.00     0.000 G0
ENDBRANCH   2  35
ENDBRANCH   1   2
BRANCH   1  37
ATOM     37  O   UNL     1      97.277  83.300  86.723  1.00  0.00    -0.461 OA
BRANCH  37  38
ATOM     38  C   UNL     1      97.527  83.838  85.482  1.00  0.00     0.310 C 
ATOM     39  O   UNL     1      97.972  84.959  85.279  1.00  0.00    -0.252 OA
BRANCH  38  40
ATOM     40  C   UNL     1      97.169  82.830  84.415  1.00  0.00     0.158 C 
BRANCH  40  41
ATOM     41  C   UNL     1      98.287  82.591  83.433  1.00  0.00    -0.033 A 
ATOM     42  C   UNL     1      98.119  82.927  82.089  1.00  0.00     0.054 A 
ATOM     43  C   UNL     1      99.490  82.035  83.868  1.00  0.00     0.008 A 
ATOM     44  C   UNL     1      99.154  82.705  81.180  1.00  0.00     0.160 A 
ATOM     45  C   UNL     1     100.525  81.814  82.959  1.00  0.00     0.050 A 
ATOM     46  C   UNL     1     100.357  82.148  81.616  1.00  0.00     0.157 A 
BRANCH  44  47
ATOM     47  O   UNL     1      98.978  83.037  79.871  1.00  0.00    -0.493 OA
ATOM     48  C   UNL     1      97.703  83.559  79.500  1.00  0.00     0.278 C 
ENDBRANCH  44  47
BRANCH  46  49
ATOM     49  O   UNL     1     101.375  81.929  80.738  1.00  0.00    -0.504 OA
ATOM     50  H   UNL     1     102.112  81.502  81.207  1.00  0.00     0.293 HD
ENDBRANCH  46  49
ENDBRANCH  40  41
ENDBRANCH  38  40
ENDBRANCH  37  38
ENDBRANCH   1  37
TORSDOF 11
ENDMDL
MODEL 5
REMARK VINA RESULT:    -5.456     30.918     34.044
REMARK INTER + INTRA:         -11.781
REMARK INTER:                 -10.021
REMARK INTRA:                  -1.760
REMARK UNBOUND:                -2.179
REMARK SMILES C=C(C)[C@]12C[C@@H](C)[C@@]34O[C@](Cc5ccccc5)(O[C@@H]1[C@@H]3C=C(COC(=O)Cc1ccc(O)c(OC)c1)C[C@]1(O)C(=O)C(C)=C[C@@H]41)O2
REMARK SMILES IDX 23 1 22 2 21 3 20 4 9 5 8 6 10 7 6 8 18 9 46 10 19 11 5 12
REMARK SMILES IDX 7 13 4 14 45 15 38 16 44 17 40 18 42 20 41 21 43 22 39 23
REMARK SMILES IDX 11 25 12 26 13 27 17 28 14 29 16 30 15 31 2 32 3 33 1 34
REMARK SMILES IDX 37 35 24 37 25 38 26 39 27 40 28 41 36 42 29 43 33 44 30 45
REMARK SMILES IDX 31 46 34 47 35 48 32 49
REMARK H PARENT 39 24 32 50
REMARK Flexibility Score: 90.00
ROOT
ATOM      1  C   UNL     1      68.126  87.652  72.053  1.00  0.00     0.264 C 
ENDROOT
BRANCH   1   2
ATOM      2  C   UNL     1      67.637  86.297  71.600  1.00  0.00    -0.033 C 
ATOM      3  C   UNL     1      66.433  85.857  72.017  1.00  0.00    -0.015 C 
BRANCH   3   4
ATOM      4  C   UNL     1      65.756  84.518  71.771  1.00  0.00     0.078 C 
ATOM      5  O   UNL     1      64.361  84.779  69.744  1.00  0.00    -0.319 OA
ATOM      6  C   UNL     1      65.516  84.064  70.283  1.00  0.00     0.095 C 
ATOM      7  C   UNL     1      63.236  84.893  70.636  1.00  0.00     0.289 C 
ATOM      8  C   UNL     1      65.207  82.510  70.300  1.00  0.00     0.023 C 
ATOM      9  O   UNL     1      63.604  85.536  71.853  1.00  0.00    -0.320 OA
ATOM     10  O   UNL     1      62.715  83.622  71.015  1.00  0.00    -0.313 OA
ATOM     11  C   UNL     1      64.374  84.492  72.468  1.00  0.00     0.170 C 
ATOM     12  C   UNL     1      64.444  82.093  71.594  1.00  0.00     0.049 C 
ATOM     13  C   UNL     1      64.459  81.972  69.069  1.00  0.00     0.011 C 
ATOM     14  C   UNL     1      63.556  83.223  72.116  1.00  0.00     0.122 C 
BRANCH   6  15
ATOM     15  C   UNL     1      66.702  84.500  69.374  1.00  0.00     0.086 C 
ATOM     16  C   UNL     1      68.115  84.315  69.965  1.00  0.00     0.140 CG0
ATOM     17  C   UNL     1      66.822  83.922  67.992  1.00  0.00    -0.010 C 
ATOM     18  C   UNL     1      68.937  83.969  68.742  1.00  0.00     0.190 C 
ATOM     19  G   UNL     1      68.615  85.576  70.669  1.00  0.00     0.000 G0
ATOM     20  C   UNL     1      68.068  83.639  67.597  1.00  0.00    -0.008 C 
ATOM     21  O   UNL     1      70.157  83.915  68.700  1.00  0.00    -0.291 OA
ATOM     22  C   UNL     1      68.564  83.145  66.295  1.00  0.00     0.048 C 
BRANCH  16  23
ATOM     23  O   UNL     1      68.245  83.173  70.795  1.00  0.00    -0.381 OA
ATOM     24  H   UNL     1      69.139  82.811  70.680  1.00  0.00     0.212 HD
ENDBRANCH  16  23
ENDBRANCH   6  15
BRANCH   7  25
ATOM     25  C   UNL     1      62.156  85.695  69.939  1.00  0.00     0.135 C 
BRANCH  25  26
ATOM     26  C   UNL     1      60.789  85.427  70.518  1.00  0.00    -0.040 A 
ATOM     27  C   UNL     1      59.922  84.542  69.877  1.00  0.00     0.004 A 
ATOM     28  C   UNL     1      60.394  86.061  71.695  1.00  0.00     0.004 A 
ATOM     29  C   UNL     1      58.658  84.293  70.412  1.00  0.00     0.000 A 
ATOM     30  C   UNL     1      59.129  85.812  72.231  1.00  0.00     0.000 A 
ATOM     31  C   UNL     1      58.262  84.928  71.589  1.00  0.00     0.000 A 
ENDBRANCH  25  26
ENDBRANCH   7  25
BRANCH  14  32
ATOM     32  C   UNL     1      62.679  82.790  73.246  1.00  0.00    -0.046 C 
ATOM     33  C   UNL     1      63.359  82.076  74.376  1.00  0.00     0.042 C 
ATOM     34  C   UNL     1      61.359  83.026  73.249  1.00  0.00     0.010 C 
ENDBRANCH  14  32
ENDBRANCH   3   4
BRANCH   2  35
ATOM     35  C   UNL     1      68.617  85.586  70.685  1.00  0.00     0.078 CG0
ATOM     36  G   UNL     1      68.121  84.328  69.973  1.00  0.00     0.000 G0
ENDBRANCH   2  35
ENDBRANCH   1   2
BRANCH   1  37
ATOM     37  O   UNL     1      68.007  87.747  73.456  1.00  0.00    -0.461 OA
BRANCH  37  38
ATOM     38  C   UNL     1      67.872  89.015  73.972  1.00  0.00     0.310 C 
ATOM     39  O   UNL     1      68.580  89.498  74.844  1.00  0.00    -0.252 OA
BRANCH  38  40
ATOM     40  C   UNL     1      66.716  89.713  73.295  1.00  0.00     0.158 C 
BRANCH  40  41
ATOM     41  C   UNL     1      65.564  89.982  74.228  1.00  0.00    -0.033 A 
ATOM     42  C   UNL     1      64.618  88.986  74.472  1.00  0.00     0.054 A 
ATOM     43  C   UNL     1      65.443  91.226  74.847  1.00  0.00     0.008 A 
ATOM     44  C   UNL     1      63.551  89.235  75.336  1.00  0.00     0.160 A 
ATOM     45  C   UNL     1      64.376  91.475  75.711  1.00  0.00     0.050 A 
ATOM     46  C   UNL     1      63.430  90.480  75.955  1.00  0.00     0.157 A 
BRANCH  44  47
ATOM     47  O   UNL     1      62.633  88.255  75.567  1.00  0.00    -0.493 OA
ATOM     48  C   UNL     1      63.106  86.909  75.557  1.00  0.00     0.278 C 
ENDBRANCH  44  47
BRANCH  46  49
ATOM     49  O   UNL     1      62.393  90.733  76.801  1.00  0.00    -0.504 OA
ATOM     50  H   UNL     1      61.558  90.667  76.307  1.00  0.00     0.293 HD
ENDBRANCH  46  49
ENDBRANCH  40  41
ENDBRANCH  38  40
ENDBRANCH  37  38
ENDBRANCH   1  37
TORSDOF 11
ENDMDL
MODEL 6
REMARK VINA RESULT:    -5.334     32.870     36.883
REMARK INTER + INTRA:         -11.566
REMARK INTER:                  -9.725
REMARK INTRA:                  -1.841
REMARK UNBOUND:                -2.179
REMARK SMILES C=C(C)[C@]12C[C@@H](C)[C@@]34O[C@](Cc5ccccc5)(O[C@@H]1[C@@H]3C=C(COC(=O)Cc1ccc(O)c(OC)c1)C[C@]1(O)C(=O)C(C)=C[C@@H]41)O2
REMARK SMILES IDX 23 1 22 2 21 3 20 4 9 5 8 6 10 7 6 8 18 9 46 10 19 11 5 12
REMARK SMILES IDX 7 13 4 14 45 15 38 16 44 17 40 18 42 20 41 21 43 22 39 23
REMARK SMILES IDX 11 25 12 26 13 27 17 28 14 29 16 30 15 31 2 32 3 33 1 34
REMARK SMILES IDX 37 35 24 37 25 38 26 39 27 40 28 41 36 42 29 43 33 44 30 45
REMARK SMILES IDX 31 46 34 47 35 48 32 49
REMARK H PARENT 39 24 32 50
REMARK Flexibility Score: 90.00
ROOT
ATOM      1  C   UNL     1      63.524  90.227  71.216  1.00  0.00     0.264 C 
ENDROOT
BRANCH   1   2
ATOM      2  C   UNL     1      62.608  89.104  70.787  1.00  0.00    -0.033 C 
ATOM      3  C   UNL     1      62.810  87.865  71.280  1.00  0.00    -0.015 C 
BRANCH   3   4
ATOM      4  C   UNL     1      62.088  86.568  70.953  1.00  0.00     0.078 C 
ATOM      5  O   UNL     1      60.258  86.326  72.599  1.00  0.00    -0.319 OA
ATOM      6  C   UNL     1      60.531  86.500  71.174  1.00  0.00     0.095 C 
ATOM      7  C   UNL     1      61.107  85.383  73.279  1.00  0.00     0.289 C 
ATOM      8  C   UNL     1      59.988  85.242  70.379  1.00  0.00     0.023 C 
ATOM      9  O   UNL     1      62.481  85.738  73.151  1.00  0.00    -0.320 OA
ATOM     10  O   UNL     1      60.997  84.069  72.738  1.00  0.00    -0.313 OA
ATOM     11  C   UNL     1      62.701  85.405  71.772  1.00  0.00     0.170 C 
ATOM     12  C   UNL     1      61.032  84.084  70.359  1.00  0.00     0.049 C 
ATOM     13  C   UNL     1      58.630  84.698  70.853  1.00  0.00     0.011 C 
ATOM     14  C   UNL     1      61.903  84.086  71.616  1.00  0.00     0.122 C 
BRANCH   6  15
ATOM     15  C   UNL     1      59.863  87.859  70.814  1.00  0.00     0.086 C 
ATOM     16  C   UNL     1      60.375  88.549  69.532  1.00  0.00     0.140 CG0
ATOM     17  C   UNL     1      58.368  87.931  70.676  1.00  0.00    -0.010 C 
ATOM     18  C   UNL     1      59.125  89.218  69.001  1.00  0.00     0.190 C 
ATOM     19  G   UNL     1      61.495  89.548  69.823  1.00  0.00     0.000 G0
ATOM     20  C   UNL     1      57.921  88.708  69.684  1.00  0.00    -0.008 C 
ATOM     21  O   UNL     1      59.090  90.034  68.092  1.00  0.00    -0.291 OA
ATOM     22  C   UNL     1      56.540  89.075  69.311  1.00  0.00     0.048 C 
BRANCH  16  23
ATOM     23  O   UNL     1      60.741  87.647  68.501  1.00  0.00    -0.381 OA
ATOM     24  H   UNL     1      59.938  87.391  68.018  1.00  0.00     0.212 HD
ENDBRANCH  16  23
ENDBRANCH   6  15
BRANCH   7  25
ATOM     25  C   UNL     1      60.717  85.361  74.743  1.00  0.00     0.135 C 
BRANCH  25  26
ATOM     26  C   UNL     1      61.898  85.075  75.638  1.00  0.00    -0.040 A 
ATOM     27  C   UNL     1      62.434  83.788  75.695  1.00  0.00     0.004 A 
ATOM     28  C   UNL     1      62.454  86.097  76.407  1.00  0.00     0.004 A 
ATOM     29  C   UNL     1      63.526  83.523  76.522  1.00  0.00     0.000 A 
ATOM     30  C   UNL     1      63.546  85.832  77.234  1.00  0.00     0.000 A 
ATOM     31  C   UNL     1      64.081  84.545  77.291  1.00  0.00     0.000 A 
ENDBRANCH  25  26
ENDBRANCH   7  25
BRANCH  14  32
ATOM     32  C   UNL     1      62.785  82.883  71.705  1.00  0.00    -0.046 C 
ATOM     33  C   UNL     1      63.772  82.701  70.590  1.00  0.00     0.042 C 
ATOM     34  C   UNL     1      62.700  82.015  72.724  1.00  0.00     0.010 C 
ENDBRANCH  14  32
ENDBRANCH   3   4
BRANCH   2  35
ATOM     35  C   UNL     1      61.530  89.552  69.818  1.00  0.00     0.078 CG0
ATOM     36  G   UNL     1      60.394  88.570  69.535  1.00  0.00     0.000 G0
ENDBRANCH   2  35
ENDBRANCH   1   2
BRANCH   1  37
ATOM     37  O   UNL     1      64.500  90.440  70.219  1.00  0.00    -0.461 OA
BRANCH  37  38
ATOM     38  C   UNL     1      65.749  89.922  70.471  1.00  0.00     0.310 C 
ATOM     39  O   UNL     1      66.188  89.655  71.581  1.00  0.00    -0.252 OA
BRANCH  38  40
ATOM     40  C   UNL     1      66.490  89.736  69.168  1.00  0.00     0.158 C 
BRANCH  40  41
ATOM     41  C   UNL     1      66.168  88.429  68.490  1.00  0.00    -0.033 A 
ATOM     42  C   UNL     1      66.536  87.223  69.089  1.00  0.00     0.054 A 
ATOM     43  C   UNL     1      65.502  88.424  67.265  1.00  0.00     0.008 A 
ATOM     44  C   UNL     1      66.238  86.014  68.461  1.00  0.00     0.160 A 
ATOM     45  C   UNL     1      65.203  87.215  66.637  1.00  0.00     0.050 A 
ATOM     46  C   UNL     1      65.571  86.010  67.235  1.00  0.00     0.157 A 
BRANCH  44  47
ATOM     47  O   UNL     1      66.602  84.843  69.054  1.00  0.00    -0.493 OA
ATOM     48  C   UNL     1      67.616  84.913  70.056  1.00  0.00     0.278 C 
ENDBRANCH  44  47
BRANCH  46  49
ATOM     49  O   UNL     1      65.273  84.835  66.613  1.00  0.00    -0.504 OA
ATOM     50  H   UNL     1      64.577  84.993  65.953  1.00  0.00     0.293 HD
ENDBRANCH  46  49
ENDBRANCH  40  41
ENDBRANCH  38  40
ENDBRANCH  37  38
ENDBRANCH   1  37
TORSDOF 11
ENDMDL
MODEL 7
REMARK VINA RESULT:    -5.235     28.835     32.620
REMARK INTER + INTRA:         -11.393
REMARK INTER:                 -10.946
REMARK INTRA:                  -0.447
REMARK UNBOUND:                -2.179
REMARK SMILES C=C(C)[C@]12C[C@@H](C)[C@@]34O[C@](Cc5ccccc5)(O[C@@H]1[C@@H]3C=C(COC(=O)Cc1ccc(O)c(OC)c1)C[C@]1(O)C(=O)C(C)=C[C@@H]41)O2
REMARK SMILES IDX 23 1 22 2 21 3 20 4 9 5 8 6 10 7 6 8 18 9 46 10 19 11 5 12
REMARK SMILES IDX 7 13 4 14 45 15 38 16 44 17 40 18 42 20 41 21 43 22 39 23
REMARK SMILES IDX 11 25 12 26 13 27 17 28 14 29 16 30 15 31 2 32 3 33 1 34
REMARK SMILES IDX 37 35 24 37 25 38 26 39 27 40 28 41 36 42 29 43 33 44 30 45
REMARK SMILES IDX 31 46 34 47 35 48 32 49
REMARK H PARENT 39 24 32 50
REMARK Flexibility Score: 90.00
ROOT
ATOM      1  C   UNL     1      69.503  86.844  71.256  1.00  0.00     0.264 C 
ENDROOT
BRANCH   1   2
ATOM      2  C   UNL     1      68.748  85.606  70.831  1.00  0.00    -0.033 C 
ATOM      3  C   UNL     1      67.582  85.304  71.436  1.00  0.00    -0.015 C 
BRANCH   3   4
ATOM      4  C   UNL     1      66.682  84.093  71.248  1.00  0.00     0.078 C 
ATOM      5  O   UNL     1      65.005  84.702  69.535  1.00  0.00    -0.319 OA
ATOM      6  C   UNL     1      66.119  83.796  69.809  1.00  0.00     0.095 C 
ATOM      7  C   UNL     1      64.085  84.895  70.625  1.00  0.00     0.289 C 
ATOM      8  C   UNL     1      65.592  82.301  69.799  1.00  0.00     0.023 C 
ATOM      9  O   UNL     1      64.753  85.383  71.786  1.00  0.00    -0.320 OA
ATOM     10  O   UNL     1      63.457  83.679  71.025  1.00  0.00    -0.313 OA
ATOM     11  C   UNL     1      65.456  84.198  72.189  1.00  0.00     0.170 C 
ATOM     12  C   UNL     1      65.017  81.889  71.189  1.00  0.00     0.049 C 
ATOM     13  C   UNL     1      64.567  81.970  68.702  1.00  0.00     0.011 C 
ATOM     14  C   UNL     1      64.412  83.084  71.928  1.00  0.00     0.122 C 
BRANCH   6  15
ATOM     15  C   UNL     1      67.176  84.140  68.720  1.00  0.00     0.086 C 
ATOM     16  C   UNL     1      68.628  83.719  69.026  1.00  0.00     0.140 CG0
ATOM     17  C   UNL     1      66.963  83.664  67.310  1.00  0.00    -0.010 C 
ATOM     18  C   UNL     1      69.161  83.364  67.653  1.00  0.00     0.190 C 
ATOM     19  G   UNL     1      69.426  84.839  69.692  1.00  0.00     0.000 G0
ATOM     20  C   UNL     1      68.063  83.248  66.674  1.00  0.00    -0.008 C 
ATOM     21  O   UNL     1      70.332  83.148  67.382  1.00  0.00    -0.291 OA
ATOM     22  C   UNL     1      68.243  82.798  65.279  1.00  0.00     0.048 C 
BRANCH  16  23
ATOM     23  O   UNL     1      68.733  82.506  69.753  1.00  0.00    -0.381 OA
ATOM     24  H   UNL     1      69.551  82.056  69.484  1.00  0.00     0.212 HD
ENDBRANCH  16  23
ENDBRANCH   6  15
BRANCH   7  25
ATOM     25  C   UNL     1      63.028  85.888  70.186  1.00  0.00     0.135 C 
BRANCH  25  26
ATOM     26  C   UNL     1      61.647  85.479  70.631  1.00  0.00    -0.040 A 
ATOM     27  C   UNL     1      61.316  85.500  71.987  1.00  0.00     0.004 A 
ATOM     28  C   UNL     1      60.699  85.080  69.689  1.00  0.00     0.004 A 
ATOM     29  C   UNL     1      60.038  85.121  72.399  1.00  0.00     0.000 A 
ATOM     30  C   UNL     1      59.421  84.702  70.101  1.00  0.00     0.000 A 
ATOM     31  C   UNL     1      59.091  84.722  71.457  1.00  0.00     0.000 A 
ENDBRANCH  25  26
ENDBRANCH   7  25
BRANCH  14  32
ATOM     32  C   UNL     1      63.695  82.684  73.175  1.00  0.00    -0.046 C 
ATOM     33  C   UNL     1      62.858  81.442  73.089  1.00  0.00     0.042 C 
ATOM     34  C   UNL     1      63.792  83.395  74.309  1.00  0.00     0.010 C 
ENDBRANCH  14  32
ENDBRANCH   3   4
BRANCH   2  35
ATOM     35  C   UNL     1      69.440  84.841  69.718  1.00  0.00     0.078 CG0
ATOM     36  G   UNL     1      68.639  83.740  69.025  1.00  0.00     0.000 G0
ENDBRANCH   2  35
ENDBRANCH   1   2
BRANCH   1  37
ATOM     37  O   UNL     1      70.805  86.806  70.714  1.00  0.00    -0.461 OA
BRANCH  37  38
ATOM     38  C   UNL     1      71.559  87.948  70.861  1.00  0.00     0.310 C 
ATOM     39  O   UNL     1      71.324  88.847  71.657  1.00  0.00    -0.252 OA
BRANCH  38  40
ATOM     40  C   UNL     1      72.717  87.917  69.891  1.00  0.00     0.158 C 
BRANCH  40  41
ATOM     41  C   UNL     1      73.350  89.269  69.689  1.00  0.00    -0.033 A 
ATOM     42  C   UNL     1      74.374  89.693  70.537  1.00  0.00     0.054 A 
ATOM     43  C   UNL     1      72.915  90.096  68.654  1.00  0.00     0.008 A 
ATOM     44  C   UNL     1      74.961  90.945  70.350  1.00  0.00     0.160 A 
ATOM     45  C   UNL     1      73.502  91.348  68.467  1.00  0.00     0.050 A 
ATOM     46  C   UNL     1      74.524  91.772  69.315  1.00  0.00     0.157 A 
BRANCH  44  47
ATOM     47  O   UNL     1      75.959  91.348  71.185  1.00  0.00    -0.493 OA
ATOM     48  C   UNL     1      75.667  92.426  72.072  1.00  0.00     0.278 C 
ENDBRANCH  44  47
BRANCH  46  49
ATOM     49  O   UNL     1      75.091  92.996  69.122  1.00  0.00    -0.504 OA
ATOM     50  H   UNL     1      74.506  93.530  68.559  1.00  0.00     0.293 HD
ENDBRANCH  46  49
ENDBRANCH  40  41
ENDBRANCH  38  40
ENDBRANCH  37  38
ENDBRANCH   1  37
TORSDOF 11
ENDMDL
MODEL 8
REMARK VINA RESULT:    -5.019      5.449     10.106
REMARK INTER + INTRA:         -11.013
REMARK INTER:                  -9.874
REMARK INTRA:                  -1.139
REMARK UNBOUND:                -2.179
REMARK SMILES C=C(C)[C@]12C[C@@H](C)[C@@]34O[C@](Cc5ccccc5)(O[C@@H]1[C@@H]3C=C(COC(=O)Cc1ccc(O)c(OC)c1)C[C@]1(O)C(=O)C(C)=C[C@@H]41)O2
REMARK SMILES IDX 23 1 22 2 21 3 20 4 9 5 8 6 10 7 6 8 18 9 46 10 19 11 5 12
REMARK SMILES IDX 7 13 4 14 45 15 38 16 44 17 40 18 42 20 41 21 43 22 39 23
REMARK SMILES IDX 11 25 12 26 13 27 17 28 14 29 16 30 15 31 2 32 3 33 1 34
REMARK SMILES IDX 37 35 24 37 25 38 26 39 27 40 28 41 36 42 29 43 33 44 30 45
REMARK SMILES IDX 31 46 34 47 35 48 32 49
REMARK H PARENT 39 24 32 50
REMARK Flexibility Score: 90.00
ROOT
ATOM      1  C   UNL     1      98.644  76.874  83.975  1.00  0.00     0.264 C 
ENDROOT
BRANCH   1   2
ATOM      2  C   UNL     1      99.198  78.256  83.715  1.00  0.00    -0.033 C 
ATOM      3  C   UNL     1      99.953  78.468  82.618  1.00  0.00    -0.015 C 
BRANCH   3   4
ATOM      4  C   UNL     1     100.681  79.727  82.177  1.00  0.00     0.078 C 
ATOM      5  O   UNL     1      99.143  80.963  80.685  1.00  0.00    -0.319 OA
ATOM      6  C   UNL     1      99.842  81.042  81.966  1.00  0.00     0.095 C 
ATOM      7  C   UNL     1      99.919  80.440  79.590  1.00  0.00     0.289 C 
ATOM      8  C   UNL     1     100.856  82.259  81.934  1.00  0.00     0.023 C 
ATOM      9  O   UNL     1     100.414  79.136  79.884  1.00  0.00    -0.320 OA
ATOM     10  O   UNL     1     101.069  81.235  79.314  1.00  0.00    -0.313 OA
ATOM     11  C   UNL     1     101.429  79.463  80.847  1.00  0.00     0.170 C 
ATOM     12  C   UNL     1     102.222  81.848  81.303  1.00  0.00     0.049 C 
ATOM     13  C   UNL     1     100.338  83.533  81.247  1.00  0.00     0.011 C 
ATOM     14  C   UNL     1     102.052  80.751  80.251  1.00  0.00     0.122 C 
BRANCH   6  15
ATOM     15  C   UNL     1      98.705  81.147  83.023  1.00  0.00     0.086 C 
ATOM     16  C   UNL     1      99.083  80.761  84.468  1.00  0.00     0.140 CG0
ATOM     17  C   UNL     1      97.971  82.448  83.189  1.00  0.00    -0.010 C 
ATOM     18  C   UNL     1      98.233  81.706  85.291  1.00  0.00     0.190 C 
ATOM     19  G   UNL     1      98.785  79.293  84.770  1.00  0.00     0.000 G0
ATOM     20  C   UNL     1      97.666  82.777  84.449  1.00  0.00    -0.008 C 
ATOM     21  O   UNL     1      98.066  81.640  86.499  1.00  0.00    -0.291 OA
ATOM     22  C   UNL     1      96.891  83.920  84.973  1.00  0.00     0.048 C 
BRANCH  16  23
ATOM     23  O   UNL     1     100.412  81.104  84.825  1.00  0.00    -0.381 OA
ATOM     24  H   UNL     1     100.920  80.284  84.940  1.00  0.00     0.212 HD
ENDBRANCH  16  23
ENDBRANCH   6  15
BRANCH   7  25
ATOM     25  C   UNL     1      99.033  80.386  78.362  1.00  0.00     0.135 C 
BRANCH  25  26
ATOM     26  C   UNL     1      98.646  81.763  77.884  1.00  0.00    -0.040 A 
ATOM     27  C   UNL     1      99.125  82.237  76.662  1.00  0.00     0.004 A 
ATOM     28  C   UNL     1      97.808  82.562  78.661  1.00  0.00     0.004 A 
ATOM     29  C   UNL     1      98.767  83.511  76.219  1.00  0.00     0.000 A 
ATOM     30  C   UNL     1      97.450  83.836  78.218  1.00  0.00     0.000 A 
ATOM     31  C   UNL     1      97.930  84.310  76.997  1.00  0.00     0.000 A 
ENDBRANCH  25  26
ENDBRANCH   7  25
BRANCH  14  32
ATOM     32  C   UNL     1     103.315  80.470  79.505  1.00  0.00    -0.046 C 
ATOM     33  C   UNL     1     103.651  81.416  78.391  1.00  0.00     0.042 C 
ATOM     34  C   UNL     1     104.104  79.429  79.813  1.00  0.00     0.010 C 
ENDBRANCH  14  32
ENDBRANCH   3   4
BRANCH   2  35
ATOM     35  C   UNL     1      98.801  79.265  84.775  1.00  0.00     0.078 CG0
ATOM     36  G   UNL     1      99.075  80.738  84.476  1.00  0.00     0.000 G0
ENDBRANCH   2  35
ENDBRANCH   1   2
BRANCH   1  37
ATOM     37  O   UNL     1      98.313  76.753  85.341  1.00  0.00    -0.461 OA
BRANCH  37  38
ATOM     38  C   UNL     1      97.535  75.672  85.685  1.00  0.00     0.310 C 
ATOM     39  O   UNL     1      97.747  74.927  86.632  1.00  0.00    -0.252 OA
BRANCH  38  40
ATOM     40  C   UNL     1      96.383  75.551  84.716  1.00  0.00     0.158 C 
BRANCH  40  41
ATOM     41  C   UNL     1      95.126  76.218  85.210  1.00  0.00    -0.033 A 
ATOM     42  C   UNL     1      95.210  77.309  86.077  1.00  0.00     0.054 A 
ATOM     43  C   UNL     1      93.878  75.747  84.801  1.00  0.00     0.008 A 
ATOM     44  C   UNL     1      94.046  77.927  86.535  1.00  0.00     0.160 A 
ATOM     45  C   UNL     1      92.714  76.366  85.259  1.00  0.00     0.050 A 
ATOM     46  C   UNL     1      92.798  77.455  86.126  1.00  0.00     0.157 A 
BRANCH  44  47
ATOM     47  O   UNL     1      94.140  78.990  87.381  1.00  0.00    -0.493 OA
ATOM     48  C   UNL     1      95.394  79.191  88.032  1.00  0.00     0.278 C 
ENDBRANCH  44  47
BRANCH  46  49
ATOM     49  O   UNL     1      91.655  78.051  86.565  1.00  0.00    -0.504 OA
ATOM     50  H   UNL     1      91.885  78.738  87.213  1.00  0.00     0.293 HD
ENDBRANCH  46  49
ENDBRANCH  40  41
ENDBRANCH  38  40
ENDBRANCH  37  38
ENDBRANCH   1  37
TORSDOF 11
ENDMDL
MODEL 9
REMARK VINA RESULT:    -4.908     28.720     33.144
REMARK INTER + INTRA:         -10.816
REMARK INTER:                 -10.148
REMARK INTRA:                  -0.668
REMARK UNBOUND:                -2.179
REMARK SMILES C=C(C)[C@]12C[C@@H](C)[C@@]34O[C@](Cc5ccccc5)(O[C@@H]1[C@@H]3C=C(COC(=O)Cc1ccc(O)c(OC)c1)C[C@]1(O)C(=O)C(C)=C[C@@H]41)O2
REMARK SMILES IDX 23 1 22 2 21 3 20 4 9 5 8 6 10 7 6 8 18 9 46 10 19 11 5 12
REMARK SMILES IDX 7 13 4 14 45 15 38 16 44 17 40 18 42 20 41 21 43 22 39 23
REMARK SMILES IDX 11 25 12 26 13 27 17 28 14 29 16 30 15 31 2 32 3 33 1 34
REMARK SMILES IDX 37 35 24 37 25 38 26 39 27 40 28 41 36 42 29 43 33 44 30 45
REMARK SMILES IDX 31 46 34 47 35 48 32 49
REMARK H PARENT 39 24 32 50
REMARK Flexibility Score: 90.00
ROOT
ATOM      1  C   UNL     1      67.384  84.699  71.090  1.00  0.00     0.264 C 
ENDROOT
BRANCH   1   2
ATOM      2  C   UNL     1      66.089  84.454  71.830  1.00  0.00    -0.033 C 
ATOM      3  C   UNL     1      66.036  84.682  73.158  1.00  0.00    -0.015 C 
BRANCH   3   4
ATOM      4  C   UNL     1      64.893  84.444  74.132  1.00  0.00     0.078 C 
ATOM      5  O   UNL     1      63.595  86.547  74.248  1.00  0.00    -0.319 OA
ATOM      6  C   UNL     1      63.511  85.143  73.851  1.00  0.00     0.095 C 
ATOM      7  C   UNL     1      64.268  86.795  75.497  1.00  0.00     0.289 C 
ATOM      8  C   UNL     1      62.416  84.414  74.734  1.00  0.00     0.023 C 
ATOM      9  O   UNL     1      65.597  86.278  75.480  1.00  0.00    -0.320 OA
ATOM     10  O   UNL     1      63.622  86.158  76.595  1.00  0.00    -0.313 OA
ATOM     11  C   UNL     1      65.321  84.871  75.558  1.00  0.00     0.170 C 
ATOM     12  C   UNL     1      63.012  83.915  76.086  1.00  0.00     0.049 C 
ATOM     13  C   UNL     1      61.140  85.227  75.006  1.00  0.00     0.011 C 
ATOM     14  C   UNL     1      64.149  84.816  76.570  1.00  0.00     0.122 C 
BRANCH   6  15
ATOM     15  C   UNL     1      63.217  85.189  72.323  1.00  0.00     0.086 C 
ATOM     16  C   UNL     1      63.551  83.909  71.528  1.00  0.00     0.140 CG0
ATOM     17  C   UNL     1      61.835  85.544  71.850  1.00  0.00    -0.010 C 
ATOM     18  C   UNL     1      62.469  83.892  70.469  1.00  0.00     0.190 C 
ATOM     19  G   UNL     1      64.956  83.953  70.929  1.00  0.00     0.000 G0
ATOM     20  C   UNL     1      61.397  84.852  70.792  1.00  0.00    -0.008 C 
ATOM     21  O   UNL     1      62.442  83.153  69.497  1.00  0.00    -0.291 OA
ATOM     22  C   UNL     1      60.145  84.987  70.020  1.00  0.00     0.048 C 
BRANCH  16  23
ATOM     23  O   UNL     1      63.335  82.710  72.253  1.00  0.00    -0.381 OA
ATOM     24  H   UNL     1      63.314  81.970  71.624  1.00  0.00     0.212 HD
ENDBRANCH  16  23
ENDBRANCH   6  15
BRANCH   7  25
ATOM     25  C   UNL     1      64.304  88.292  75.729  1.00  0.00     0.135 C 
BRANCH  25  26
ATOM     26  C   UNL     1      63.855  88.659  77.121  1.00  0.00    -0.040 A 
ATOM     27  C   UNL     1      64.691  88.414  78.211  1.00  0.00     0.004 A 
ATOM     28  C   UNL     1      62.605  89.244  77.320  1.00  0.00     0.004 A 
ATOM     29  C   UNL     1      64.276  88.754  79.499  1.00  0.00     0.000 A 
ATOM     30  C   UNL     1      62.190  89.583  78.608  1.00  0.00     0.000 A 
ATOM     31  C   UNL     1      63.026  89.338  79.697  1.00  0.00     0.000 A 
ENDBRANCH  25  26
ENDBRANCH   7  25
BRANCH  14  32
ATOM     32  C   UNL     1      64.613  84.466  77.946  1.00  0.00    -0.046 C 
ATOM     33  C   UNL     1      66.093  84.312  78.128  1.00  0.00     0.042 C 
ATOM     34  C   UNL     1      63.753  84.300  78.963  1.00  0.00     0.010 C 
ENDBRANCH  14  32
ENDBRANCH   3   4
BRANCH   2  35
ATOM     35  C   UNL     1      64.971  83.969  70.927  1.00  0.00     0.078 CG0
ATOM     36  G   UNL     1      63.561  83.937  71.517  1.00  0.00     0.000 G0
ENDBRANCH   2  35
ENDBRANCH   1   2
BRANCH   1  37
ATOM     37  O   UNL     1      68.220  83.570  71.226  1.00  0.00    -0.461 OA
BRANCH  37  38
ATOM     38  C   UNL     1      69.358  83.559  70.454  1.00  0.00     0.310 C 
ATOM     39  O   UNL     1      69.515  82.888  69.443  1.00  0.00    -0.252 OA
BRANCH  38  40
ATOM     40  C   UNL     1      70.379  84.501  71.047  1.00  0.00     0.158 C 
BRANCH  40  41
ATOM     41  C   UNL     1      70.843  85.554  70.073  1.00  0.00    -0.033 A 
ATOM     42  C   UNL     1      72.184  85.940  70.050  1.00  0.00     0.054 A 
ATOM     43  C   UNL     1      69.932  86.142  69.196  1.00  0.00     0.008 A 
ATOM     44  C   UNL     1      72.613  86.914  69.149  1.00  0.00     0.160 A 
ATOM     45  C   UNL     1      70.362  87.117  68.295  1.00  0.00     0.050 A 
ATOM     46  C   UNL     1      71.701  87.503  68.271  1.00  0.00     0.157 A 
BRANCH  44  47
ATOM     47  O   UNL     1      73.924  87.283  69.135  1.00  0.00    -0.493 OA
ATOM     48  C   UNL     1      74.851  86.405  69.772  1.00  0.00     0.278 C 
ENDBRANCH  44  47
BRANCH  46  49
ATOM     49  O   UNL     1      72.109  88.455  67.386  1.00  0.00    -0.504 OA
ATOM     50  H   UNL     1      71.981  89.332  67.784  1.00  0.00     0.293 HD
ENDBRANCH  46  49
ENDBRANCH  40  41
ENDBRANCH  38  40
ENDBRANCH  37  38
ENDBRANCH   1  37
TORSDOF 11
ENDMDL
MODEL 10
REMARK VINA RESULT:    -4.882      4.889      9.175
REMARK INTER + INTRA:         -10.772
REMARK INTER:                  -9.568
REMARK INTRA:                  -1.204
REMARK UNBOUND:                -2.179
REMARK SMILES C=C(C)[C@]12C[C@@H](C)[C@@]34O[C@](Cc5ccccc5)(O[C@@H]1[C@@H]3C=C(COC(=O)Cc1ccc(O)c(OC)c1)C[C@]1(O)C(=O)C(C)=C[C@@H]41)O2
REMARK SMILES IDX 23 1 22 2 21 3 20 4 9 5 8 6 10 7 6 8 18 9 46 10 19 11 5 12
REMARK SMILES IDX 7 13 4 14 45 15 38 16 44 17 40 18 42 20 41 21 43 22 39 23
REMARK SMILES IDX 11 25 12 26 13 27 17 28 14 29 16 30 15 31 2 32 3 33 1 34
REMARK SMILES IDX 37 35 24 37 25 38 26 39 27 40 28 41 36 42 29 43 33 44 30 45
REMARK SMILES IDX 31 46 34 47 35 48 32 49
REMARK H PARENT 39 24 32 50
REMARK Flexibility Score: 90.00
ROOT
ATOM      1  C   UNL     1      97.401  77.851  85.088  1.00  0.00     0.264 C 
ENDROOT
BRANCH   1   2
ATOM      2  C   UNL     1      98.217  79.027  84.604  1.00  0.00    -0.033 C 
ATOM      3  C   UNL     1      98.979  78.890  83.500  1.00  0.00    -0.015 C 
BRANCH   3   4
ATOM      4  C   UNL     1      99.938  79.882  82.861  1.00  0.00     0.078 C 
ATOM      5  O   UNL     1      98.647  81.146  81.172  1.00  0.00    -0.319 OA
ATOM      6  C   UNL     1      99.381  81.289  82.427  1.00  0.00     0.095 C 
ATOM      7  C   UNL     1      99.270  80.301  80.186  1.00  0.00     0.289 C 
ATOM      8  C   UNL     1     100.622  82.248  82.201  1.00  0.00     0.023 C 
ATOM      9  O   UNL     1      99.495  78.990  80.697  1.00  0.00    -0.320 OA
ATOM     10  O   UNL     1     100.550  80.785  79.790  1.00  0.00    -0.313 OA
ATOM     11  C   UNL     1     100.580  79.254  81.600  1.00  0.00     0.170 C 
ATOM     12  C   UNL     1     101.857  81.465  81.659  1.00  0.00     0.049 C 
ATOM     13  C   UNL     1     100.358  83.470  81.308  1.00  0.00     0.011 C 
ATOM     14  C   UNL     1     101.438  80.269  80.803  1.00  0.00     0.122 C 
BRANCH   6  15
ATOM     15  C   UNL     1      98.318  81.799  83.443  1.00  0.00     0.086 C 
ATOM     16  C   UNL     1      98.641  81.576  84.935  1.00  0.00     0.140 CG0
ATOM     17  C   UNL     1      97.879  83.235  83.391  1.00  0.00    -0.010 C 
ATOM     18  C   UNL     1      98.030  82.798  85.587  1.00  0.00     0.190 C 
ATOM     19  G   UNL     1      98.048  80.271  85.465  1.00  0.00     0.000 G0
ATOM     20  C   UNL     1      97.682  83.817  84.579  1.00  0.00    -0.008 C 
ATOM     21  O   UNL     1      97.883  82.960  86.789  1.00  0.00    -0.291 OA
ATOM     22  C   UNL     1      97.179  85.167  84.905  1.00  0.00     0.048 C 
BRANCH  16  23
ATOM     23  O   UNL     1     100.021  81.681  85.245  1.00  0.00    -0.381 OA
ATOM     24  H   UNL     1     100.272  80.918  85.791  1.00  0.00     0.212 HD
ENDBRANCH  16  23
ENDBRANCH   6  15
BRANCH   7  25
ATOM     25  C   UNL     1      98.360  80.230  78.977  1.00  0.00     0.135 C 
BRANCH  25  26
ATOM     26  C   UNL     1      98.265  81.555  78.262  1.00  0.00    -0.040 A 
ATOM     27  C   UNL     1      98.945  81.748  77.058  1.00  0.00     0.004 A 
ATOM     28  C   UNL     1      97.497  82.586  78.802  1.00  0.00     0.004 A 
ATOM     29  C   UNL     1      98.857  82.973  76.397  1.00  0.00     0.000 A 
ATOM     30  C   UNL     1      97.410  83.811  78.140  1.00  0.00     0.000 A 
ATOM     31  C   UNL     1      98.090  84.004  76.938  1.00  0.00     0.000 A 
ENDBRANCH  25  26
ENDBRANCH   7  25
BRANCH  14  32
ATOM     32  C   UNL     1     102.596  79.614  80.125  1.00  0.00    -0.046 C 
ATOM     33  C   UNL     1     103.342  80.453  79.129  1.00  0.00     0.042 C 
ATOM     34  C   UNL     1     102.951  78.348  80.390  1.00  0.00     0.010 C 
ENDBRANCH  14  32
ENDBRANCH   3   4
BRANCH   2  35
ATOM     35  C   UNL     1      98.051  80.262  85.468  1.00  0.00     0.078 CG0
ATOM     36  G   UNL     1      98.636  81.570  84.937  1.00  0.00     0.000 G0
ENDBRANCH   2  35
ENDBRANCH   1   2
BRANCH   1  37
ATOM     37  O   UNL     1      97.460  77.790  86.497  1.00  0.00    -0.461 OA
BRANCH  37  38
ATOM     38  C   UNL     1      96.271  77.549  87.146  1.00  0.00     0.310 C 
ATOM     39  O   UNL     1      96.124  76.766  88.075  1.00  0.00    -0.252 OA
BRANCH  38  40
ATOM     40  C   UNL     1      95.182  78.397  86.534  1.00  0.00     0.158 C 
BRANCH  40  41
ATOM     41  C   UNL     1      94.661  79.453  87.476  1.00  0.00    -0.033 A 
ATOM     42  C   UNL     1      93.285  79.611  87.653  1.00  0.00     0.054 A 
ATOM     43  C   UNL     1      95.552  80.270  88.170  1.00  0.00     0.008 A 
ATOM     44  C   UNL     1      92.803  80.588  88.524  1.00  0.00     0.160 A 
ATOM     45  C   UNL     1      95.070  81.247  89.041  1.00  0.00     0.050 A 
ATOM     46  C   UNL     1      93.696  81.407  89.218  1.00  0.00     0.157 A 
BRANCH  44  47
ATOM     47  O   UNL     1      91.459  80.734  88.689  1.00  0.00    -0.493 OA
ATOM     48  C   UNL     1      90.615  80.052  87.763  1.00  0.00     0.278 C 
ENDBRANCH  44  47
BRANCH  46  49
ATOM     49  O   UNL     1      93.236  82.363  90.072  1.00  0.00    -0.504 OA
ATOM     50  H   UNL     1      93.297  82.029  90.983  1.00  0.00     0.293 HD
ENDBRANCH  46  49
ENDBRANCH  40  41
ENDBRANCH  38  40
ENDBRANCH  37  38
ENDBRANCH   1  37
TORSDOF 11
ENDMDL
