MODEL 1
REMARK VINA RESULT:    -7.998      0.000      0.000
REMARK INTER + INTRA:          -9.541
REMARK INTER:                  -9.400
REMARK INTRA:                  -0.141
REMARK UNBOUND:                -0.141
REMARK SMILES O=C(/C=C/C=C/c1ccc2c(c1)OCO2)N1CCCCC1
REMARK SMILES IDX 3 1 4 2 2 3 1 4 16 5 17 6 21 7 18 8 20 9 19 10 5 11 6 12
REMARK SMILES IDX 7 13 12 14 8 15 11 16 9 17 13 18 10 19 14 20 15 21
REMARK H PARENT
REMARK Flexibility Score: inf
ROOT
ATOM      1  C   UNL     1      95.955  84.057  83.239  1.00  0.00     0.071 C 
ATOM      2  C   UNL     1      96.538  83.177  82.428  1.00  0.00     0.006 C 
ENDROOT
BRANCH   1   3
ATOM      3  C   UNL     1      95.866  83.726  84.675  1.00  0.00     0.246 C 
ATOM      4  O   UNL     1      96.649  84.293  85.439  1.00  0.00    -0.270 OA
ATOM      5  N   UNL     1      94.908  82.793  85.069  1.00  0.00    -0.339 N 
ATOM      6  C   UNL     1      94.801  82.440  86.488  1.00  0.00     0.120 C 
ATOM      7  C   UNL     1      93.989  82.065  84.182  1.00  0.00     0.120 C 
ATOM      8  C   UNL     1      93.370  82.596  86.993  1.00  0.00     0.022 C 
ATOM      9  C   UNL     1      92.542  82.194  84.659  1.00  0.00     0.022 C 
ATOM     10  C   UNL     1      92.395  81.805  86.127  1.00  0.00     0.004 C 
ENDBRANCH   1   3
BRANCH   2  11
ATOM     11  C   UNL     1      96.671  83.412  81.006  1.00  0.00     0.001 C 
ATOM     12  C   UNL     1      97.434  82.644  80.211  1.00  0.00     0.008 C 
BRANCH  12  13
ATOM     13  C   UNL     1      97.611  82.842  78.762  1.00  0.00    -0.022 A 
ATOM     14  C   UNL     1      96.794  83.748  78.100  1.00  0.00     0.058 A 
ATOM     15  C   UNL     1      98.598  82.113  78.095  1.00  0.00     0.012 A 
ATOM     16  C   UNL     1      96.998  83.899  76.744  1.00  0.00     0.166 A 
ATOM     17  C   UNL     1      98.784  82.287  76.721  1.00  0.00     0.051 A 
ATOM     18  O   UNL     1      96.304  84.732  75.920  1.00  0.00    -0.454 OA
ATOM     19  C   UNL     1      97.967  83.189  76.072  1.00  0.00     0.165 A 
ATOM     20  C   UNL     1      96.944  84.465  74.656  1.00  0.00     0.468 C 
ATOM     21  O   UNL     1      98.000  83.486  74.745  1.00  0.00    -0.454 OA
ENDBRANCH  12  13
ENDBRANCH   2  11
TORSDOF 3
ENDMDL
MODEL 2
REMARK VINA RESULT:    -7.825      3.185      9.392
REMARK INTER + INTRA:          -9.338
REMARK INTER:                  -8.951
REMARK INTRA:                  -0.387
REMARK UNBOUND:                -0.141
REMARK SMILES O=C(/C=C/C=C/c1ccc2c(c1)OCO2)N1CCCCC1
REMARK SMILES IDX 3 1 4 2 2 3 1 4 16 5 17 6 21 7 18 8 20 9 19 10 5 11 6 12
REMARK SMILES IDX 7 13 12 14 8 15 11 16 9 17 13 18 10 19 14 20 15 21
REMARK H PARENT
REMARK Flexibility Score: inf
ROOT
ATOM      1  C   UNL     1      97.548  83.933  76.818  1.00  0.00     0.071 C 
ATOM      2  C   UNL     1      96.418  83.919  77.522  1.00  0.00     0.006 C 
ENDROOT
BRANCH   1   3
ATOM      3  C   UNL     1      97.476  84.325  75.396  1.00  0.00     0.246 C 
ATOM      4  O   UNL     1      96.370  84.619  74.943  1.00  0.00    -0.270 OA
ATOM      5  N   UNL     1      98.662  84.331  74.663  1.00  0.00    -0.339 N 
ATOM      6  C   UNL     1      98.621  84.710  73.248  1.00  0.00     0.120 C 
ATOM      7  C   UNL     1      99.991  83.943  75.158  1.00  0.00     0.120 C 
ATOM      8  C   UNL     1      99.625  85.816  72.938  1.00  0.00     0.022 C 
ATOM      9  C   UNL     1     101.029  85.026  74.863  1.00  0.00     0.022 C 
ATOM     10  C   UNL     1     101.028  85.421  73.389  1.00  0.00     0.004 C 
ENDBRANCH   1   3
BRANCH   2  11
ATOM     11  C   UNL     1      96.387  83.549  78.921  1.00  0.00     0.001 C 
ATOM     12  C   UNL     1      97.470  83.102  79.578  1.00  0.00     0.008 C 
BRANCH  12  13
ATOM     13  C   UNL     1      97.492  82.704  80.996  1.00  0.00    -0.022 A 
ATOM     14  C   UNL     1      96.620  83.319  81.884  1.00  0.00     0.058 A 
ATOM     15  C   UNL     1      98.392  81.718  81.409  1.00  0.00     0.012 A 
ATOM     16  C   UNL     1      96.678  82.913  83.201  1.00  0.00     0.166 A 
ATOM     17  C   UNL     1      98.430  81.326  82.749  1.00  0.00     0.051 A 
ATOM     18  O   UNL     1      95.912  83.392  84.219  1.00  0.00    -0.454 OA
ATOM     19  C   UNL     1      97.559  81.943  83.623  1.00  0.00     0.165 A 
ATOM     20  C   UNL     1      96.409  82.615  85.327  1.00  0.00     0.468 C 
ATOM     21  O   UNL     1      97.454  81.693  84.956  1.00  0.00    -0.454 OA
ENDBRANCH  12  13
ENDBRANCH   2  11
TORSDOF 3
ENDMDL
MODEL 3
REMARK VINA RESULT:    -7.697      0.779      1.509
REMARK INTER + INTRA:          -9.188
REMARK INTER:                  -8.955
REMARK INTRA:                  -0.233
REMARK UNBOUND:                -0.141
REMARK SMILES O=C(/C=C/C=C/c1ccc2c(c1)OCO2)N1CCCCC1
REMARK SMILES IDX 3 1 4 2 2 3 1 4 16 5 17 6 21 7 18 8 20 9 19 10 5 11 6 12
REMARK SMILES IDX 7 13 12 14 8 15 11 16 9 17 13 18 10 19 14 20 15 21
REMARK H PARENT
REMARK Flexibility Score: inf
ROOT
ATOM      1  C   UNL     1      96.119  83.936  83.166  1.00  0.00     0.071 C 
ATOM      2  C   UNL     1      96.629  83.152  82.218  1.00  0.00     0.006 C 
ENDROOT
BRANCH   1   3
ATOM      3  C   UNL     1      96.107  83.431  84.553  1.00  0.00     0.246 C 
ATOM      4  O   UNL     1      97.036  83.765  85.288  1.00  0.00    -0.270 OA
ATOM      5  N   UNL     1      95.049  82.607  84.935  1.00  0.00    -0.339 N 
ATOM      6  C   UNL     1      95.013  82.085  86.305  1.00  0.00     0.120 C 
ATOM      7  C   UNL     1      93.948  82.151  84.074  1.00  0.00     0.120 C 
ATOM      8  C   UNL     1      93.678  82.383  86.979  1.00  0.00     0.022 C 
ATOM      9  C   UNL     1      92.590  82.429  84.719  1.00  0.00     0.022 C 
ATOM     10  C   UNL     1      92.514  81.871  86.137  1.00  0.00     0.004 C 
ENDBRANCH   1   3
BRANCH   2  11
ATOM     11  C   UNL     1      96.684  83.560  80.830  1.00  0.00     0.001 C 
ATOM     12  C   UNL     1      97.321  82.846  79.888  1.00  0.00     0.008 C 
BRANCH  12  13
ATOM     13  C   UNL     1      97.415  83.217  78.466  1.00  0.00    -0.022 A 
ATOM     14  C   UNL     1      98.527  82.819  77.736  1.00  0.00     0.058 A 
ATOM     15  C   UNL     1      96.382  83.962  77.890  1.00  0.00     0.012 A 
ATOM     16  C   UNL     1      98.569  83.191  76.408  1.00  0.00     0.166 A 
ATOM     17  C   UNL     1      96.451  84.325  76.544  1.00  0.00     0.051 A 
ATOM     18  O   UNL     1      99.568  82.901  75.529  1.00  0.00    -0.454 OA
ATOM     19  C   UNL     1      97.559  83.924  75.827  1.00  0.00     0.165 A 
ATOM     20  C   UNL     1      99.073  83.533  74.331  1.00  0.00     0.468 C 
ATOM     21  O   UNL     1      97.799  84.184  74.513  1.00  0.00    -0.454 OA
ENDBRANCH  12  13
ENDBRANCH   2  11
TORSDOF 3
ENDMDL
MODEL 4
REMARK VINA RESULT:    -7.476      2.903      9.062
REMARK INTER + INTRA:          -8.929
REMARK INTER:                  -8.595
REMARK INTRA:                  -0.333
REMARK UNBOUND:                -0.141
REMARK SMILES O=C(/C=C/C=C/c1ccc2c(c1)OCO2)N1CCCCC1
REMARK SMILES IDX 3 1 4 2 2 3 1 4 16 5 17 6 21 7 18 8 20 9 19 10 5 11 6 12
REMARK SMILES IDX 7 13 12 14 8 15 11 16 9 17 13 18 10 19 14 20 15 21
REMARK H PARENT
REMARK Flexibility Score: inf
ROOT
ATOM      1  C   UNL     1      97.053  82.707  78.216  1.00  0.00     0.071 C 
ATOM      2  C   UNL     1      97.646  82.792  79.405  1.00  0.00     0.006 C 
ENDROOT
BRANCH   1   3
ATOM      3  C   UNL     1      97.802  82.079  77.110  1.00  0.00     0.246 C 
ATOM      4  O   UNL     1      98.069  80.881  77.211  1.00  0.00    -0.270 OA
ATOM      5  N   UNL     1      98.162  82.883  76.030  1.00  0.00    -0.339 N 
ATOM      6  C   UNL     1      98.911  82.289  74.918  1.00  0.00     0.120 C 
ATOM      7  C   UNL     1      97.901  84.324  75.895  1.00  0.00     0.120 C 
ATOM      8  C   UNL     1      98.234  82.565  73.580  1.00  0.00     0.022 C 
ATOM      9  C   UNL     1      97.225  84.642  74.561  1.00  0.00     0.022 C 
ATOM     10  C   UNL     1      98.000  84.059  73.383  1.00  0.00     0.004 C 
ENDBRANCH   1   3
BRANCH   2  11
ATOM     11  C   UNL     1      96.993  83.391  80.550  1.00  0.00     0.001 C 
ATOM     12  C   UNL     1      96.975  82.812  81.761  1.00  0.00     0.008 C 
BRANCH  12  13
ATOM     13  C   UNL     1      96.319  83.372  82.955  1.00  0.00    -0.022 A 
ATOM     14  C   UNL     1      95.944  84.708  82.956  1.00  0.00     0.058 A 
ATOM     15  C   UNL     1      96.093  82.542  84.056  1.00  0.00     0.012 A 
ATOM     16  C   UNL     1      95.333  85.187  84.096  1.00  0.00     0.166 A 
ATOM     17  C   UNL     1      95.472  83.052  85.198  1.00  0.00     0.051 A 
ATOM     18  O   UNL     1      94.894  86.461  84.293  1.00  0.00    -0.454 OA
ATOM     19  C   UNL     1      95.103  84.381  85.188  1.00  0.00     0.165 A 
ATOM     20  C   UNL     1      94.364  86.366  85.630  1.00  0.00     0.468 C 
ATOM     21  O   UNL     1      94.493  85.049  86.205  1.00  0.00    -0.454 OA
ENDBRANCH  12  13
ENDBRANCH   2  11
TORSDOF 3
ENDMDL
MODEL 5
REMARK VINA RESULT:    -7.186     14.290     18.243
REMARK INTER + INTRA:          -8.587
REMARK INTER:                  -8.281
REMARK INTRA:                  -0.306
REMARK UNBOUND:                -0.141
REMARK SMILES O=C(/C=C/C=C/c1ccc2c(c1)OCO2)N1CCCCC1
REMARK SMILES IDX 3 1 4 2 2 3 1 4 16 5 17 6 21 7 18 8 20 9 19 10 5 11 6 12
REMARK SMILES IDX 7 13 12 14 8 15 11 16 9 17 13 18 10 19 14 20 15 21
REMARK H PARENT
REMARK Flexibility Score: inf
ROOT
ATOM      1  C   UNL     1      94.165  98.378  72.115  1.00  0.00     0.071 C 
ATOM      2  C   UNL     1      94.599  97.661  73.151  1.00  0.00     0.006 C 
ENDROOT
BRANCH   1   3
ATOM      3  C   UNL     1      95.168  98.916  71.175  1.00  0.00     0.246 C 
ATOM      4  O   UNL     1      96.321  98.494  71.269  1.00  0.00    -0.270 OA
ATOM      5  N   UNL     1      94.746  99.869  70.250  1.00  0.00    -0.339 N 
ATOM      6  C   UNL     1      95.720 100.427  69.307  1.00  0.00     0.120 C 
ATOM      7  C   UNL     1      93.391 100.430  70.138  1.00  0.00     0.120 C 
ATOM      8  C   UNL     1      95.233 100.307  67.867  1.00  0.00     0.022 C 
ATOM      9  C   UNL     1      92.868 100.332  68.705  1.00  0.00     0.022 C 
ATOM     10  C   UNL     1      93.851 100.931  67.703  1.00  0.00     0.004 C 
ENDBRANCH   1   3
BRANCH   2  11
ATOM     11  C   UNL     1      93.693  97.092  74.126  1.00  0.00     0.001 C 
ATOM     12  C   UNL     1      93.797  95.827  74.564  1.00  0.00     0.008 C 
BRANCH  12  13
ATOM     13  C   UNL     1      92.900  95.196  75.546  1.00  0.00    -0.022 A 
ATOM     14  C   UNL     1      91.945  94.290  75.105  1.00  0.00     0.058 A 
ATOM     15  C   UNL     1      93.034  95.527  76.897  1.00  0.00     0.012 A 
ATOM     16  C   UNL     1      91.128  93.726  76.062  1.00  0.00     0.166 A 
ATOM     17  C   UNL     1      92.193  94.941  77.845  1.00  0.00     0.051 A 
ATOM     18  O   UNL     1      90.136  92.822  75.833  1.00  0.00    -0.454 OA
ATOM     19  C   UNL     1      91.248  94.042  77.396  1.00  0.00     0.165 A 
ATOM     20  C   UNL     1      89.646  92.605  77.171  1.00  0.00     0.468 C 
ATOM     21  O   UNL     1      90.347  93.376  78.169  1.00  0.00    -0.454 OA
ENDBRANCH  12  13
ENDBRANCH   2  11
TORSDOF 3
ENDMDL
MODEL 6
REMARK VINA RESULT:    -7.131      4.840      9.069
REMARK INTER + INTRA:          -8.523
REMARK INTER:                  -8.107
REMARK INTRA:                  -0.416
REMARK UNBOUND:                -0.141
REMARK SMILES O=C(/C=C/C=C/c1ccc2c(c1)OCO2)N1CCCCC1
REMARK SMILES IDX 3 1 4 2 2 3 1 4 16 5 17 6 21 7 18 8 20 9 19 10 5 11 6 12
REMARK SMILES IDX 7 13 12 14 8 15 11 16 9 17 13 18 10 19 14 20 15 21
REMARK H PARENT
REMARK Flexibility Score: inf
ROOT
ATOM      1  C   UNL     1      94.602  80.824  84.837  1.00  0.00     0.071 C 
ATOM      2  C   UNL     1      93.805  79.770  84.670  1.00  0.00     0.006 C 
ENDROOT
BRANCH   1   3
ATOM      3  C   UNL     1      96.061  80.597  84.847  1.00  0.00     0.246 C 
ATOM      4  O   UNL     1      96.500  79.750  85.625  1.00  0.00    -0.270 OA
ATOM      5  N   UNL     1      96.842  81.360  83.980  1.00  0.00    -0.339 N 
ATOM      6  C   UNL     1      98.295  81.161  83.970  1.00  0.00     0.120 C 
ATOM      7  C   UNL     1      96.360  82.410  83.071  1.00  0.00     0.120 C 
ATOM      8  C   UNL     1      98.812  80.896  82.561  1.00  0.00     0.022 C 
ATOM      9  C   UNL     1      96.861  82.181  81.645  1.00  0.00     0.022 C 
ATOM     10  C   UNL     1      98.375  81.999  81.602  1.00  0.00     0.004 C 
ENDBRANCH   1   3
BRANCH   2  11
ATOM     11  C   UNL     1      92.363  79.891  84.647  1.00  0.00     0.001 C 
ATOM     12  C   UNL     1      91.735  81.026  84.298  1.00  0.00     0.008 C 
BRANCH  12  13
ATOM     13  C   UNL     1      90.274  81.206  84.266  1.00  0.00    -0.022 A 
ATOM     14  C   UNL     1      89.733  82.417  84.676  1.00  0.00     0.058 A 
ATOM     15  C   UNL     1      89.471  80.153  83.822  1.00  0.00     0.012 A 
ATOM     16  C   UNL     1      88.360  82.538  84.627  1.00  0.00     0.166 A 
ATOM     17  C   UNL     1      88.083  80.303  83.782  1.00  0.00     0.051 A 
ATOM     18  O   UNL     1      87.642  83.638  84.987  1.00  0.00    -0.454 OA
ATOM     19  C   UNL     1      87.556  81.510  84.192  1.00  0.00     0.165 A 
ATOM     20  C   UNL     1      86.298  83.186  84.728  1.00  0.00     0.468 C 
ATOM     21  O   UNL     1      86.235  81.836  84.224  1.00  0.00    -0.454 OA
ENDBRANCH  12  13
ENDBRANCH   2  11
TORSDOF 3
ENDMDL
MODEL 7
REMARK VINA RESULT:    -7.066      7.087      8.788
REMARK INTER + INTRA:          -8.447
REMARK INTER:                  -8.077
REMARK INTRA:                  -0.370
REMARK UNBOUND:                -0.141
REMARK SMILES O=C(/C=C/C=C/c1ccc2c(c1)OCO2)N1CCCCC1
REMARK SMILES IDX 3 1 4 2 2 3 1 4 16 5 17 6 21 7 18 8 20 9 19 10 5 11 6 12
REMARK SMILES IDX 7 13 12 14 8 15 11 16 9 17 13 18 10 19 14 20 15 21
REMARK H PARENT
REMARK Flexibility Score: inf
ROOT
ATOM      1  C   UNL     1      94.058  86.870  86.792  1.00  0.00     0.071 C 
ATOM      2  C   UNL     1      94.161  86.343  85.573  1.00  0.00     0.006 C 
ENDROOT
BRANCH   1   3
ATOM      3  C   UNL     1      94.312  88.317  86.947  1.00  0.00     0.246 C 
ATOM      4  O   UNL     1      94.821  88.910  85.995  1.00  0.00    -0.270 OA
ATOM      5  N   UNL     1      93.963  88.911  88.158  1.00  0.00    -0.339 N 
ATOM      6  C   UNL     1      94.208  90.345  88.343  1.00  0.00     0.120 C 
ATOM      7  C   UNL     1      93.397  88.228  89.331  1.00  0.00     0.120 C 
ATOM      8  C   UNL     1      92.947  91.071  88.800  1.00  0.00     0.022 C 
ATOM      9  C   UNL     1      92.131  88.930  89.821  1.00  0.00     0.022 C 
ATOM     10  C   UNL     1      92.364  90.420  90.050  1.00  0.00     0.004 C 
ENDBRANCH   1   3
BRANCH   2  11
ATOM     11  C   UNL     1      93.932  84.936  85.322  1.00  0.00     0.001 C 
ATOM     12  C   UNL     1      92.952  84.241  85.922  1.00  0.00     0.008 C 
BRANCH  12  13
ATOM     13  C   UNL     1      92.680  82.810  85.709  1.00  0.00    -0.022 A 
ATOM     14  C   UNL     1      91.823  82.429  84.686  1.00  0.00     0.058 A 
ATOM     15  C   UNL     1      93.293  81.872  86.545  1.00  0.00     0.012 A 
ATOM     16  C   UNL     1      91.600  81.077  84.526  1.00  0.00     0.166 A 
ATOM     17  C   UNL     1      93.050  80.509  86.360  1.00  0.00     0.051 A 
ATOM     18  O   UNL     1      90.796  80.507  83.586  1.00  0.00    -0.454 OA
ATOM     19  C   UNL     1      92.197  80.142  85.340  1.00  0.00     0.165 A 
ATOM     20  C   UNL     1      90.955  79.108  83.902  1.00  0.00     0.468 C 
ATOM     21  O   UNL     1      91.842  78.870  85.014  1.00  0.00    -0.454 OA
ENDBRANCH  12  13
ENDBRANCH   2  11
TORSDOF 3
ENDMDL
MODEL 8
REMARK VINA RESULT:    -6.987     17.852     18.792
REMARK INTER + INTRA:          -8.354
REMARK INTER:                  -8.012
REMARK INTRA:                  -0.341
REMARK UNBOUND:                -0.141
REMARK SMILES O=C(/C=C/C=C/c1ccc2c(c1)OCO2)N1CCCCC1
REMARK SMILES IDX 3 1 4 2 2 3 1 4 16 5 17 6 21 7 18 8 20 9 19 10 5 11 6 12
REMARK SMILES IDX 7 13 12 14 8 15 11 16 9 17 13 18 10 19 14 20 15 21
REMARK H PARENT
REMARK Flexibility Score: inf
ROOT
ATOM      1  C   UNL     1      86.464  69.937  71.963  1.00  0.00     0.071 C 
ATOM      2  C   UNL     1      87.581  70.080  71.253  1.00  0.00     0.006 C 
ENDROOT
BRANCH   1   3
ATOM      3  C   UNL     1      86.536  69.174  73.225  1.00  0.00     0.246 C 
ATOM      4  O   UNL     1      87.398  69.505  74.041  1.00  0.00    -0.270 OA
ATOM      5  N   UNL     1      85.630  68.131  73.406  1.00  0.00    -0.339 N 
ATOM      6  C   UNL     1      85.681  67.352  74.647  1.00  0.00     0.120 C 
ATOM      7  C   UNL     1      84.619  67.680  72.438  1.00  0.00     0.120 C 
ATOM      8  C   UNL     1      84.315  67.291  75.323  1.00  0.00     0.022 C 
ATOM      9  C   UNL     1      83.234  67.602  73.080  1.00  0.00     0.022 C 
ATOM     10  C   UNL     1      83.252  66.772  74.361  1.00  0.00     0.004 C 
ENDBRANCH   1   3
BRANCH   2  11
ATOM     11  C   UNL     1      87.610  70.810  70.003  1.00  0.00     0.001 C 
ATOM     12  C   UNL     1      88.646  71.583  69.637  1.00  0.00     0.008 C 
BRANCH  12  13
ATOM     13  C   UNL     1      88.724  72.352  68.384  1.00  0.00    -0.022 A 
ATOM     14  C   UNL     1      89.905  73.008  68.066  1.00  0.00     0.058 A 
ATOM     15  C   UNL     1      87.605  72.400  67.548  1.00  0.00     0.012 A 
ATOM     16  C   UNL     1      89.929  73.715  66.882  1.00  0.00     0.166 A 
ATOM     17  C   UNL     1      87.658  73.123  66.354  1.00  0.00     0.051 A 
ATOM     18  O   UNL     1      90.987  74.423  66.396  1.00  0.00    -0.454 OA
ATOM     19  C   UNL     1      88.836  73.771  66.048  1.00  0.00     0.165 A 
ATOM     20  C   UNL     1      90.435  74.930  65.164  1.00  0.00     0.468 C 
ATOM     21  O   UNL     1      89.071  74.520  64.936  1.00  0.00    -0.454 OA
ENDBRANCH  12  13
ENDBRANCH   2  11
TORSDOF 3
ENDMDL
MODEL 9
REMARK VINA RESULT:    -6.987      3.381      9.362
REMARK INTER + INTRA:          -8.354
REMARK INTER:                  -8.035
REMARK INTRA:                  -0.319
REMARK UNBOUND:                -0.141
REMARK SMILES O=C(/C=C/C=C/c1ccc2c(c1)OCO2)N1CCCCC1
REMARK SMILES IDX 3 1 4 2 2 3 1 4 16 5 17 6 21 7 18 8 20 9 19 10 5 11 6 12
REMARK SMILES IDX 7 13 12 14 8 15 11 16 9 17 13 18 10 19 14 20 15 21
REMARK H PARENT
REMARK Flexibility Score: inf
ROOT
ATOM      1  C   UNL     1      99.042  82.228  77.759  1.00  0.00     0.071 C 
ATOM      2  C   UNL     1      97.833  82.486  78.252  1.00  0.00     0.006 C 
ENDROOT
BRANCH   1   3
ATOM      3  C   UNL     1      99.132  81.688  76.387  1.00  0.00     0.246 C 
ATOM      4  O   UNL     1      99.147  80.463  76.258  1.00  0.00    -0.270 OA
ATOM      5  N   UNL     1      99.200  82.598  75.334  1.00  0.00    -0.339 N 
ATOM      6  C   UNL     1      99.295  82.092  73.961  1.00  0.00     0.120 C 
ATOM      7  C   UNL     1      99.230  84.064  75.452  1.00  0.00     0.120 C 
ATOM      8  C   UNL     1      98.221  82.701  73.067  1.00  0.00     0.022 C 
ATOM      9  C   UNL     1      98.167  84.713  74.566  1.00  0.00     0.022 C 
ATOM     10  C   UNL     1      98.262  84.225  73.123  1.00  0.00     0.004 C 
ENDBRANCH   1   3
BRANCH   2  11
ATOM     11  C   UNL     1      97.643  83.017  79.585  1.00  0.00     0.001 C 
ATOM     12  C   UNL     1      97.162  82.278  80.599  1.00  0.00     0.008 C 
BRANCH  12  13
ATOM     13  C   UNL     1      96.942  82.769  81.970  1.00  0.00    -0.022 A 
ATOM     14  C   UNL     1      97.495  82.070  83.035  1.00  0.00     0.058 A 
ATOM     15  C   UNL     1      96.182  83.925  82.162  1.00  0.00     0.012 A 
ATOM     16  C   UNL     1      97.262  82.568  84.300  1.00  0.00     0.166 A 
ATOM     17  C   UNL     1      95.961  84.407  83.454  1.00  0.00     0.051 A 
ATOM     18  O   UNL     1      97.714  82.029  85.466  1.00  0.00    -0.454 OA
ATOM     19  C   UNL     1      96.515  83.706  84.505  1.00  0.00     0.165 A 
ATOM     20  C   UNL     1      97.168  82.956  86.426  1.00  0.00     0.468 C 
ATOM     21  O   UNL     1      96.406  84.022  85.824  1.00  0.00    -0.454 OA
ENDBRANCH  12  13
ENDBRANCH   2  11
TORSDOF 3
ENDMDL
MODEL 10
REMARK VINA RESULT:    -6.945      5.934      8.782
REMARK INTER + INTRA:          -8.304
REMARK INTER:                  -7.944
REMARK INTRA:                  -0.360
REMARK UNBOUND:                -0.141
REMARK SMILES O=C(/C=C/C=C/c1ccc2c(c1)OCO2)N1CCCCC1
REMARK SMILES IDX 3 1 4 2 2 3 1 4 16 5 17 6 21 7 18 8 20 9 19 10 5 11 6 12
REMARK SMILES IDX 7 13 12 14 8 15 11 16 9 17 13 18 10 19 14 20 15 21
REMARK H PARENT
REMARK Flexibility Score: inf
ROOT
ATOM      1  C   UNL     1      93.280  87.929  88.593  1.00  0.00     0.071 C 
ATOM      2  C   UNL     1      92.826  86.678  88.636  1.00  0.00     0.006 C 
ENDROOT
BRANCH   1   3
ATOM      3  C   UNL     1      92.630  88.934  89.457  1.00  0.00     0.246 C 
ATOM      4  O   UNL     1      91.926  88.522  90.380  1.00  0.00    -0.270 OA
ATOM      5  N   UNL     1      92.850  90.280  89.168  1.00  0.00    -0.339 N 
ATOM      6  C   UNL     1      92.213  91.301  90.005  1.00  0.00     0.120 C 
ATOM      7  C   UNL     1      93.645  90.810  88.050  1.00  0.00     0.120 C 
ATOM      8  C   UNL     1      93.233  92.305  90.532  1.00  0.00     0.022 C 
ATOM      9  C   UNL     1      94.679  91.825  88.539  1.00  0.00     0.022 C 
ATOM     10  C   UNL     1      94.038  92.917  89.390  1.00  0.00     0.004 C 
ENDBRANCH   1   3
BRANCH   2  11
ATOM     11  C   UNL     1      93.399  85.624  87.827  1.00  0.00     0.001 C 
ATOM     12  C   UNL     1      93.281  85.589  86.490  1.00  0.00     0.008 C 
BRANCH  12  13
ATOM     13  C   UNL     1      93.835  84.537  85.620  1.00  0.00    -0.022 A 
ATOM     14  C   UNL     1      95.029  84.773  84.953  1.00  0.00     0.058 A 
ATOM     15  C   UNL     1      93.143  83.331  85.490  1.00  0.00     0.012 A 
ATOM     16  C   UNL     1      95.509  83.758  84.150  1.00  0.00     0.166 A 
ATOM     17  C   UNL     1      93.651  82.320  84.671  1.00  0.00     0.051 A 
ATOM     18  O   UNL     1      96.655  83.795  83.417  1.00  0.00    -0.454 OA
ATOM     19  C   UNL     1      94.839  82.564  84.013  1.00  0.00     0.165 A 
ATOM     20  C   UNL     1      96.631  82.490  82.803  1.00  0.00     0.468 C 
ATOM     21  O   UNL     1      95.481  81.704  83.177  1.00  0.00    -0.454 OA
ENDBRANCH  12  13
ENDBRANCH   2  11
TORSDOF 3
ENDMDL
