MODEL 1
REMARK VINA RESULT:    -7.156      0.000      0.000
REMARK INTER + INTRA:         -13.865
REMARK INTER:                 -12.594
REMARK INTRA:                  -1.271
REMARK UNBOUND:                -1.271
REMARK SMILES C=C(C)[C@]12C[C@@H](C)[C@@]34O[C@](Cc5ccccc5)(O[C@@H]1[C@@H]3C=C(COC(=O)Cc1ccc(O)c(OC)c1)C[C@]1(O)C(=O)C(C)=C[C@@H]41)O2
REMARK SMILES IDX 23 1 22 2 21 3 20 4 9 5 8 6 10 7 6 8 18 9 46 10 19 11 5 12
REMARK SMILES IDX 7 13 4 14 45 15 38 16 44 17 40 18 42 20 41 21 43 22 39 23
REMARK SMILES IDX 11 25 12 26 13 27 17 28 14 29 16 30 15 31 2 32 3 33 1 34
REMARK SMILES IDX 37 35 24 37 25 38 26 39 27 40 28 41 36 42 29 43 33 44 30 45
REMARK SMILES IDX 31 46 34 47 35 48 32 49
REMARK H PARENT 39 24 32 50
REMARK Flexibility Score: 90.00
ROOT
ATOM      1  C   UNL     1      95.688  98.373  74.511  1.00  0.00     0.264 C 
ENDROOT
BRANCH   1   2
ATOM      2  C   UNL     1      95.243  99.707  73.958  1.00  0.00    -0.033 C 
ATOM      3  C   UNL     1      94.740  99.769  72.708  1.00  0.00    -0.015 C 
BRANCH   3   4
ATOM      4  C   UNL     1      94.300 100.981  71.904  1.00  0.00     0.078 C 
ATOM      5  O   UNL     1      91.873 101.260  72.291  1.00  0.00    -0.319 OA
ATOM      6  C   UNL     1      93.169 101.902  72.496  1.00  0.00     0.095 C 
ATOM      7  C   UNL     1      91.683 100.654  70.998  1.00  0.00     0.289 C 
ATOM      8  C   UNL     1      93.204 103.274  71.705  1.00  0.00     0.023 C 
ATOM      9  O   UNL     1      92.687  99.678  70.732  1.00  0.00    -0.320 OA
ATOM     10  O   UNL     1      91.776 101.602  69.938  1.00  0.00    -0.313 OA
ATOM     11  C   UNL     1      93.816 100.535  70.502  1.00  0.00     0.170 C 
ATOM     12  C   UNL     1      93.630 103.066  70.219  1.00  0.00     0.049 C 
ATOM     13  C   UNL     1      91.907 104.098  71.755  1.00  0.00     0.011 C 
ATOM     14  C   UNL     1      93.194 101.699  69.692  1.00  0.00     0.122 C 
BRANCH   6  15
ATOM     15  C   UNL     1      93.305 102.018  74.042  1.00  0.00     0.086 C 
ATOM     16  C   UNL     1      94.735 102.210  74.587  1.00  0.00     0.140 CG0
ATOM     17  C   UNL     1      92.508 103.060  74.776  1.00  0.00    -0.010 C 
ATOM     18  C   UNL     1      94.509 103.098  75.792  1.00  0.00     0.190 C 
ATOM     19  G   UNL     1      95.396 100.882  74.954  1.00  0.00     0.000 G0
ATOM     20  C   UNL     1      93.147 103.666  75.782  1.00  0.00    -0.008 C 
ATOM     21  O   UNL     1      95.344 103.363  76.643  1.00  0.00    -0.291 OA
ATOM     22  C   UNL     1      92.659 104.664  76.756  1.00  0.00     0.048 C 
BRANCH  16  23
ATOM     23  O   UNL     1      95.570 102.988  73.745  1.00  0.00    -0.381 OA
ATOM     24  H   UNL     1      96.336 102.449  73.488  1.00  0.00     0.212 HD
ENDBRANCH  16  23
ENDBRANCH   6  15
BRANCH   7  25
ATOM     25  C   UNL     1      90.315 100.002  70.975  1.00  0.00     0.135 C 
BRANCH  25  26
ATOM     26  C   UNL     1      89.950  99.503  69.599  1.00  0.00    -0.040 A 
ATOM     27  C   UNL     1      89.217 100.316  68.734  1.00  0.00     0.004 A 
ATOM     28  C   UNL     1      90.347  98.230  69.190  1.00  0.00     0.004 A 
ATOM     29  C   UNL     1      88.879  99.856  67.461  1.00  0.00     0.000 A 
ATOM     30  C   UNL     1      90.009  97.769  67.917  1.00  0.00     0.000 A 
ATOM     31  C   UNL     1      89.275  98.583  67.053  1.00  0.00     0.000 A 
ENDBRANCH  25  26
ENDBRANCH   7  25
BRANCH  14  32
ATOM     32  C   UNL     1      93.428 101.548  68.224  1.00  0.00    -0.046 C 
ATOM     33  C   UNL     1      92.206 101.558  67.354  1.00  0.00     0.042 C 
ATOM     34  C   UNL     1      94.661 101.412  67.712  1.00  0.00     0.010 C 
ENDBRANCH  14  32
ENDBRANCH   3   4
BRANCH   2  35
ATOM     35  C   UNL     1      95.425 100.849  74.940  1.00  0.00     0.078 CG0
ATOM     36  G   UNL     1      94.751 102.177  74.601  1.00  0.00     0.000 G0
ENDBRANCH   2  35
ENDBRANCH   1   2
BRANCH   1  37
ATOM     37  O   UNL     1      95.433  97.364  73.557  1.00  0.00    -0.461 OA
BRANCH  37  38
ATOM     38  C   UNL     1      94.743  96.263  74.006  1.00  0.00     0.310 C 
ATOM     39  O   UNL     1      94.953  95.110  73.654  1.00  0.00    -0.252 OA
BRANCH  38  40
ATOM     40  C   UNL     1      93.689  96.697  74.997  1.00  0.00     0.158 C 
BRANCH  40  41
ATOM     41  C   UNL     1      93.381  95.643  76.028  1.00  0.00    -0.033 A 
ATOM     42  C   UNL     1      94.273  95.412  77.077  1.00  0.00     0.054 A 
ATOM     43  C   UNL     1      92.206  94.898  75.936  1.00  0.00     0.008 A 
ATOM     44  C   UNL     1      93.989  94.435  78.032  1.00  0.00     0.160 A 
ATOM     45  C   UNL     1      91.921  93.922  76.892  1.00  0.00     0.050 A 
ATOM     46  C   UNL     1      92.812  93.690  77.939  1.00  0.00     0.157 A 
BRANCH  44  47
ATOM     47  O   UNL     1      94.867  94.218  79.050  1.00  0.00    -0.493 OA
ATOM     48  C   UNL     1      96.252  94.407  78.763  1.00  0.00     0.278 C 
ENDBRANCH  44  47
BRANCH  46  49
ATOM     49  O   UNL     1      92.523  92.736  78.866  1.00  0.00    -0.504 OA
ATOM     50  H   UNL     1      91.565  92.575  78.867  1.00  0.00     0.293 HD
ENDBRANCH  46  49
ENDBRANCH  40  41
ENDBRANCH  38  40
ENDBRANCH  37  38
ENDBRANCH   1  37
TORSDOF 11
ENDMDL
MODEL 2
REMARK VINA RESULT:    -6.918     19.063     23.747
REMARK INTER + INTRA:         -13.446
REMARK INTER:                 -12.456
REMARK INTRA:                  -0.990
REMARK UNBOUND:                -1.271
REMARK SMILES C=C(C)[C@]12C[C@@H](C)[C@@]34O[C@](Cc5ccccc5)(O[C@@H]1[C@@H]3C=C(COC(=O)Cc1ccc(O)c(OC)c1)C[C@]1(O)C(=O)C(C)=C[C@@H]41)O2
REMARK SMILES IDX 23 1 22 2 21 3 20 4 9 5 8 6 10 7 6 8 18 9 46 10 19 11 5 12
REMARK SMILES IDX 7 13 4 14 45 15 38 16 44 17 40 18 42 20 41 21 43 22 39 23
REMARK SMILES IDX 11 25 12 26 13 27 17 28 14 29 16 30 15 31 2 32 3 33 1 34
REMARK SMILES IDX 37 35 24 37 25 38 26 39 27 40 28 41 36 42 29 43 33 44 30 45
REMARK SMILES IDX 31 46 34 47 35 48 32 49
REMARK H PARENT 39 24 32 50
REMARK Flexibility Score: 90.00
ROOT
ATOM      1  C   UNL     1      94.599  82.717  85.814  1.00  0.00     0.264 C 
ENDROOT
BRANCH   1   2
ATOM      2  C   UNL     1      93.296  82.258  86.424  1.00  0.00    -0.033 C 
ATOM      3  C   UNL     1      92.212  82.115  85.635  1.00  0.00    -0.015 C 
BRANCH   3   4
ATOM      4  C   UNL     1      90.786  81.747  86.011  1.00  0.00     0.078 C 
ATOM      5  O   UNL     1      90.596  79.290  85.797  1.00  0.00    -0.319 OA
ATOM      6  C   UNL     1      90.537  80.386  86.762  1.00  0.00     0.095 C 
ATOM      7  C   UNL     1      89.929  79.535  84.544  1.00  0.00     0.289 C 
ATOM      8  C   UNL     1      89.087  80.447  87.397  1.00  0.00     0.023 C 
ATOM      9  O   UNL     1      90.449  80.695  83.900  1.00  0.00    -0.320 OA
ATOM     10  O   UNL     1      88.535  79.780  84.712  1.00  0.00    -0.313 OA
ATOM     11  C   UNL     1      89.898  81.719  84.743  1.00  0.00     0.170 C 
ATOM     12  C   UNL     1      88.109  81.278  86.511  1.00  0.00     0.049 C 
ATOM     13  C   UNL     1      88.451  79.086  87.722  1.00  0.00     0.011 C 
ATOM     14  C   UNL     1      88.472  81.186  85.028  1.00  0.00     0.122 C 
BRANCH   6  15
ATOM     15  C   UNL     1      91.693  80.087  87.760  1.00  0.00     0.086 C 
ATOM     16  C   UNL     1      92.185  81.279  88.607  1.00  0.00     0.140 CG0
ATOM     17  C   UNL     1      91.528  78.986  88.769  1.00  0.00    -0.010 C 
ATOM     18  C   UNL     1      92.557  80.617  89.917  1.00  0.00     0.190 C 
ATOM     19  G   UNL     1      93.367  81.998  87.959  1.00  0.00     0.000 G0
ATOM     20  C   UNL     1      92.027  79.242  89.983  1.00  0.00    -0.008 C 
ATOM     21  O   UNL     1      93.168  81.149  90.831  1.00  0.00    -0.291 OA
ATOM     22  C   UNL     1      92.118  78.376  91.177  1.00  0.00     0.048 C 
BRANCH  16  23
ATOM     23  O   UNL     1      91.160  82.190  88.967  1.00  0.00    -0.381 OA
ATOM     24  H   UNL     1      90.902  82.691  88.176  1.00  0.00     0.212 HD
ENDBRANCH  16  23
ENDBRANCH   6  15
BRANCH   7  25
ATOM     25  C   UNL     1      90.126  78.324  83.656  1.00  0.00     0.135 C 
BRANCH  25  26
ATOM     26  C   UNL     1      90.377  77.070  84.456  1.00  0.00    -0.040 A 
ATOM     27  C   UNL     1      91.678  76.587  84.606  1.00  0.00     0.004 A 
ATOM     28  C   UNL     1      89.310  76.395  85.048  1.00  0.00     0.004 A 
ATOM     29  C   UNL     1      91.910  75.427  85.346  1.00  0.00     0.000 A 
ATOM     30  C   UNL     1      89.543  75.235  85.789  1.00  0.00     0.000 A 
ATOM     31  C   UNL     1      90.843  74.752  85.937  1.00  0.00     0.000 A 
ENDBRANCH  25  26
ENDBRANCH   7  25
BRANCH  14  32
ATOM     32  C   UNL     1      87.448  81.821  84.146  1.00  0.00    -0.046 C 
ATOM     33  C   UNL     1      86.043  81.317  84.292  1.00  0.00     0.042 C 
ATOM     34  C   UNL     1      87.766  82.788  83.272  1.00  0.00     0.010 C 
ENDBRANCH  14  32
ENDBRANCH   3   4
BRANCH   2  35
ATOM     35  C   UNL     1      93.395  82.003  87.916  1.00  0.00     0.078 CG0
ATOM     36  G   UNL     1      92.210  81.309  88.587  1.00  0.00     0.000 G0
ENDBRANCH   2  35
ENDBRANCH   1   2
BRANCH   1  37
ATOM     37  O   UNL     1      94.878  81.939  84.669  1.00  0.00    -0.461 OA
BRANCH  37  38
ATOM     38  C   UNL     1      96.075  82.191  84.040  1.00  0.00     0.310 C 
ATOM     39  O   UNL     1      97.179  82.046  84.546  1.00  0.00    -0.252 OA
BRANCH  38  40
ATOM     40  C   UNL     1      95.813  82.672  82.632  1.00  0.00     0.158 C 
BRANCH  40  41
ATOM     41  C   UNL     1      96.523  81.850  81.588  1.00  0.00    -0.033 A 
ATOM     42  C   UNL     1      96.882  82.429  80.370  1.00  0.00     0.054 A 
ATOM     43  C   UNL     1      96.822  80.511  81.838  1.00  0.00     0.008 A 
ATOM     44  C   UNL     1      97.539  81.668  79.403  1.00  0.00     0.160 A 
ATOM     45  C   UNL     1      97.479  79.750  80.871  1.00  0.00     0.050 A 
ATOM     46  C   UNL     1      97.838  80.328  79.654  1.00  0.00     0.157 A 
BRANCH  44  47
ATOM     47  O   UNL     1      97.884  82.244  78.218  1.00  0.00    -0.493 OA
ATOM     48  C   UNL     1      96.871  82.324  77.217  1.00  0.00     0.278 C 
ENDBRANCH  44  47
BRANCH  46  49
ATOM     49  O   UNL     1      98.480  79.575  78.718  1.00  0.00    -0.504 OA
ATOM     50  H   UNL     1      99.122  78.996  79.163  1.00  0.00     0.293 HD
ENDBRANCH  46  49
ENDBRANCH  40  41
ENDBRANCH  38  40
ENDBRANCH  37  38
ENDBRANCH   1  37
TORSDOF 11
ENDMDL
MODEL 3
REMARK VINA RESULT:    -6.793      5.973      8.282
REMARK INTER + INTRA:         -13.227
REMARK INTER:                 -12.129
REMARK INTRA:                  -1.098
REMARK UNBOUND:                -1.271
REMARK SMILES C=C(C)[C@]12C[C@@H](C)[C@@]34O[C@](Cc5ccccc5)(O[C@@H]1[C@@H]3C=C(COC(=O)Cc1ccc(O)c(OC)c1)C[C@]1(O)C(=O)C(C)=C[C@@H]41)O2
REMARK SMILES IDX 23 1 22 2 21 3 20 4 9 5 8 6 10 7 6 8 18 9 46 10 19 11 5 12
REMARK SMILES IDX 7 13 4 14 45 15 38 16 44 17 40 18 42 20 41 21 43 22 39 23
REMARK SMILES IDX 11 25 12 26 13 27 17 28 14 29 16 30 15 31 2 32 3 33 1 34
REMARK SMILES IDX 37 35 24 37 25 38 26 39 27 40 28 41 36 42 29 43 33 44 30 45
REMARK SMILES IDX 31 46 34 47 35 48 32 49
REMARK H PARENT 39 24 32 50
REMARK Flexibility Score: 90.00
ROOT
ATOM      1  C   UNL     1      95.634  95.462  80.356  1.00  0.00     0.264 C 
ENDROOT
BRANCH   1   2
ATOM      2  C   UNL     1      96.697  96.531  80.255  1.00  0.00    -0.033 C 
ATOM      3  C   UNL     1      97.587  96.481  79.243  1.00  0.00    -0.015 C 
BRANCH   3   4
ATOM      4  C   UNL     1      98.782  97.378  78.965  1.00  0.00     0.078 C 
ATOM      5  O   UNL     1      98.001  99.171  77.450  1.00  0.00    -0.319 OA
ATOM      6  C   UNL     1      98.534  98.923  78.788  1.00  0.00     0.095 C 
ATOM      7  C   UNL     1      98.634  98.433  76.388  1.00  0.00     0.289 C 
ATOM      8  C   UNL     1      99.932  99.653  78.938  1.00  0.00     0.023 C 
ATOM      9  O   UNL     1      98.561  97.028  76.619  1.00  0.00    -0.320 OA
ATOM     10  O   UNL     1     100.022  98.733  76.273  1.00  0.00    -0.313 OA
ATOM     11  C   UNL     1      99.513  96.900  77.687  1.00  0.00     0.170 C 
ATOM     12  C   UNL     1     101.099  98.772  78.394  1.00  0.00     0.049 C 
ATOM     13  C   UNL     1     100.015 101.055  78.312  1.00  0.00     0.011 C 
ATOM     14  C   UNL     1     100.639  97.869  77.249  1.00  0.00     0.122 C 
BRANCH   6  15
ATOM     15  C   UNL     1      97.415  99.416  79.750  1.00  0.00     0.086 C 
ATOM     16  C   UNL     1      97.471  98.872  81.193  1.00  0.00     0.140 CG0
ATOM     17  C   UNL     1      97.206 100.892  79.941  1.00  0.00    -0.010 C 
ATOM     18  C   UNL     1      96.954 100.043  82.002  1.00  0.00     0.190 C 
ATOM     19  G   UNL     1      96.619  97.616  81.370  1.00  0.00     0.000 G0
ATOM     20  C   UNL     1      96.917 101.273  81.189  1.00  0.00    -0.008 C 
ATOM     21  O   UNL     1      96.650 100.007  83.185  1.00  0.00    -0.291 OA
ATOM     22  C   UNL     1      96.574 102.608  81.722  1.00  0.00     0.048 C 
BRANCH  16  23
ATOM     23  O   UNL     1      98.787  98.678  81.683  1.00  0.00    -0.381 OA
ATOM     24  H   UNL     1      99.402  98.704  80.931  1.00  0.00     0.212 HD
ENDBRANCH  16  23
ENDBRANCH   6  15
BRANCH   7  25
ATOM     25  C   UNL     1      97.932  98.775  75.089  1.00  0.00     0.135 C 
BRANCH  25  26
ATOM     26  C   UNL     1      96.941  97.712  74.685  1.00  0.00    -0.040 A 
ATOM     27  C   UNL     1      96.864  97.300  73.354  1.00  0.00     0.004 A 
ATOM     28  C   UNL     1      96.103  97.139  75.641  1.00  0.00     0.004 A 
ATOM     29  C   UNL     1      95.947  96.317  72.980  1.00  0.00     0.000 A 
ATOM     30  C   UNL     1      95.187  96.156  75.267  1.00  0.00     0.000 A 
ATOM     31  C   UNL     1      95.109  95.745  73.936  1.00  0.00     0.000 A 
ENDBRANCH  25  26
ENDBRANCH   7  25
BRANCH  14  32
ATOM     32  C   UNL     1     101.774  97.152  76.592  1.00  0.00    -0.046 C 
ATOM     33  C   UNL     1     101.795  95.661  76.751  1.00  0.00     0.042 C 
ATOM     34  C   UNL     1     102.720  97.804  75.900  1.00  0.00     0.010 C 
ENDBRANCH  14  32
ENDBRANCH   3   4
BRANCH   2  35
ATOM     35  C   UNL     1      96.605  97.568  81.358  1.00  0.00     0.078 CG0
ATOM     36  G   UNL     1      97.437  98.839  81.193  1.00  0.00     0.000 G0
ENDBRANCH   2  35
ENDBRANCH   1   2
BRANCH   1  37
ATOM     37  O   UNL     1      96.083  94.293  79.705  1.00  0.00    -0.461 OA
BRANCH  37  38
ATOM     38  C   UNL     1      95.142  93.311  79.499  1.00  0.00     0.310 C 
ATOM     39  O   UNL     1      94.656  92.609  80.375  1.00  0.00    -0.252 OA
BRANCH  38  40
ATOM     40  C   UNL     1      94.804  93.237  78.029  1.00  0.00     0.158 C 
BRANCH  40  41
ATOM     41  C   UNL     1      93.440  93.792  77.710  1.00  0.00    -0.033 A 
ATOM     42  C   UNL     1      92.339  92.937  77.640  1.00  0.00     0.054 A 
ATOM     43  C   UNL     1      93.277  95.159  77.487  1.00  0.00     0.008 A 
ATOM     44  C   UNL     1      91.076  93.451  77.345  1.00  0.00     0.160 A 
ATOM     45  C   UNL     1      92.014  95.672  77.192  1.00  0.00     0.050 A 
ATOM     46  C   UNL     1      90.913  94.819  77.121  1.00  0.00     0.157 A 
BRANCH  44  47
ATOM     47  O   UNL     1      90.009  92.607  77.278  1.00  0.00    -0.493 OA
ATOM     48  C   UNL     1      90.140  91.461  76.438  1.00  0.00     0.278 C 
ENDBRANCH  44  47
BRANCH  46  49
ATOM     49  O   UNL     1      89.685  95.332  76.833  1.00  0.00    -0.504 OA
ATOM     50  H   UNL     1      89.150  94.647  76.397  1.00  0.00     0.293 HD
ENDBRANCH  46  49
ENDBRANCH  40  41
ENDBRANCH  38  40
ENDBRANCH  37  38
ENDBRANCH   1  37
TORSDOF 11
ENDMDL
MODEL 4
REMARK VINA RESULT:    -6.653     22.386     26.307
REMARK INTER + INTRA:         -12.980
REMARK INTER:                 -11.174
REMARK INTRA:                  -1.806
REMARK UNBOUND:                -1.271
REMARK SMILES C=C(C)[C@]12C[C@@H](C)[C@@]34O[C@](Cc5ccccc5)(O[C@@H]1[C@@H]3C=C(COC(=O)Cc1ccc(O)c(OC)c1)C[C@]1(O)C(=O)C(C)=C[C@@H]41)O2
REMARK SMILES IDX 23 1 22 2 21 3 20 4 9 5 8 6 10 7 6 8 18 9 46 10 19 11 5 12
REMARK SMILES IDX 7 13 4 14 45 15 38 16 44 17 40 18 42 20 41 21 43 22 39 23
REMARK SMILES IDX 11 25 12 26 13 27 17 28 14 29 16 30 15 31 2 32 3 33 1 34
REMARK SMILES IDX 37 35 24 37 25 38 26 39 27 40 28 41 36 42 29 43 33 44 30 45
REMARK SMILES IDX 31 46 34 47 35 48 32 49
REMARK H PARENT 39 24 32 50
REMARK Flexibility Score: 90.00
ROOT
ATOM      1  C   UNL     1      69.698  83.630  65.353  1.00  0.00     0.264 C 
ENDROOT
BRANCH   1   2
ATOM      2  C   UNL     1      70.365  84.392  66.475  1.00  0.00    -0.033 C 
ATOM      3  C   UNL     1      71.669  84.718  66.366  1.00  0.00    -0.015 C 
BRANCH   3   4
ATOM      4  C   UNL     1      72.579  85.403  67.372  1.00  0.00     0.078 C 
ATOM      5  O   UNL     1      72.491  87.828  66.888  1.00  0.00    -0.319 OA
ATOM      6  C   UNL     1      72.170  86.827  67.904  1.00  0.00     0.095 C 
ATOM      7  C   UNL     1      73.765  87.659  66.238  1.00  0.00     0.289 C 
ATOM      8  C   UNL     1      73.020  87.115  69.209  1.00  0.00     0.023 C 
ATOM      9  O   UNL     1      73.864  86.379  65.619  1.00  0.00    -0.320 OA
ATOM     10  O   UNL     1      74.854  87.728  67.155  1.00  0.00    -0.313 OA
ATOM     11  C   UNL     1      74.003  85.547  66.781  1.00  0.00     0.170 C 
ATOM     12  C   UNL     1      74.434  86.462  69.125  1.00  0.00     0.049 C 
ATOM     13  C   UNL     1      73.163  88.597  69.591  1.00  0.00     0.011 C 
ATOM     14  C   UNL     1      74.939  86.389  67.684  1.00  0.00     0.122 C 
BRANCH   6  15
ATOM     15  C   UNL     1      70.626  86.929  68.075  1.00  0.00     0.086 C 
ATOM     16  C   UNL     1      69.928  85.700  68.694  1.00  0.00     0.140 CG0
ATOM     17  C   UNL     1      70.045  88.084  68.841  1.00  0.00    -0.010 C 
ATOM     18  C   UNL     1      68.804  86.330  69.489  1.00  0.00     0.190 C 
ATOM     19  G   UNL     1      69.419  84.729  67.629  1.00  0.00     0.000 G0
ATOM     20  C   UNL     1      69.003  87.786  69.623  1.00  0.00    -0.008 C 
ATOM     21  O   UNL     1      67.875  85.726  70.003  1.00  0.00    -0.291 OA
ATOM     22  C   UNL     1      68.144  88.666  70.442  1.00  0.00     0.048 C 
BRANCH  16  23
ATOM     23  O   UNL     1      70.704  85.033  69.675  1.00  0.00    -0.381 OA
ATOM     24  H   UNL     1      70.951  84.160  69.329  1.00  0.00     0.212 HD
ENDBRANCH  16  23
ENDBRANCH   6  15
BRANCH   7  25
ATOM     25  C   UNL     1      73.913  88.746  65.193  1.00  0.00     0.135 C 
BRANCH  25  26
ATOM     26  C   UNL     1      73.818  90.126  65.795  1.00  0.00    -0.040 A 
ATOM     27  C   UNL     1      72.631  90.852  65.691  1.00  0.00     0.004 A 
ATOM     28  C   UNL     1      74.915  90.675  66.458  1.00  0.00     0.004 A 
ATOM     29  C   UNL     1      72.542  92.128  66.248  1.00  0.00     0.000 A 
ATOM     30  C   UNL     1      74.826  91.951  67.016  1.00  0.00     0.000 A 
ATOM     31  C   UNL     1      73.640  92.677  66.910  1.00  0.00     0.000 A 
ENDBRANCH  25  26
ENDBRANCH   7  25
BRANCH  14  32
ATOM     32  C   UNL     1      76.360  85.937  67.595  1.00  0.00    -0.046 C 
ATOM     33  C   UNL     1      76.785  84.890  68.581  1.00  0.00     0.042 C 
ATOM     34  C   UNL     1      77.209  86.439  66.686  1.00  0.00     0.010 C 
ENDBRANCH  14  32
ENDBRANCH   3   4
BRANCH   2  35
ATOM     35  C   UNL     1      69.425  84.706  67.622  1.00  0.00     0.078 CG0
ATOM     36  G   UNL     1      69.914  85.700  68.675  1.00  0.00     0.000 G0
ENDBRANCH   2  35
ENDBRANCH   1   2
BRANCH   1  37
ATOM     37  O   UNL     1      70.683  83.158  64.459  1.00  0.00    -0.461 OA
BRANCH  37  38
ATOM     38  C   UNL     1      70.326  82.090  63.670  1.00  0.00     0.310 C 
ATOM     39  O   UNL     1      69.196  81.630  63.578  1.00  0.00    -0.252 OA
BRANCH  38  40
ATOM     40  C   UNL     1      71.542  81.574  62.938  1.00  0.00     0.158 C 
BRANCH  40  41
ATOM     41  C   UNL     1      72.827  81.817  63.688  1.00  0.00    -0.033 A 
ATOM     42  C   UNL     1      73.865  82.527  63.082  1.00  0.00     0.054 A 
ATOM     43  C   UNL     1      72.978  81.333  64.987  1.00  0.00     0.008 A 
ATOM     44  C   UNL     1      75.053  82.752  63.777  1.00  0.00     0.160 A 
ATOM     45  C   UNL     1      74.167  81.558  65.681  1.00  0.00     0.050 A 
ATOM     46  C   UNL     1      75.205  82.267  65.076  1.00  0.00     0.157 A 
BRANCH  44  47
ATOM     47  O   UNL     1      76.059  83.445  63.175  1.00  0.00    -0.493 OA
ATOM     48  C   UNL     1      75.905  84.861  63.082  1.00  0.00     0.278 C 
ENDBRANCH  44  47
BRANCH  46  49
ATOM     49  O   UNL     1      76.360  82.481  65.764  1.00  0.00    -0.504 OA
ATOM     50  H   UNL     1      76.316  83.352  66.194  1.00  0.00     0.293 HD
ENDBRANCH  46  49
ENDBRANCH  40  41
ENDBRANCH  38  40
ENDBRANCH  37  38
ENDBRANCH   1  37
TORSDOF 11
ENDMDL
MODEL 5
REMARK VINA RESULT:    -6.471     19.391     23.197
REMARK INTER + INTRA:         -12.660
REMARK INTER:                 -12.017
REMARK INTRA:                  -0.642
REMARK UNBOUND:                -1.271
REMARK SMILES C=C(C)[C@]12C[C@@H](C)[C@@]34O[C@](Cc5ccccc5)(O[C@@H]1[C@@H]3C=C(COC(=O)Cc1ccc(O)c(OC)c1)C[C@]1(O)C(=O)C(C)=C[C@@H]41)O2
REMARK SMILES IDX 23 1 22 2 21 3 20 4 9 5 8 6 10 7 6 8 18 9 46 10 19 11 5 12
REMARK SMILES IDX 7 13 4 14 45 15 38 16 44 17 40 18 42 20 41 21 43 22 39 23
REMARK SMILES IDX 11 25 12 26 13 27 17 28 14 29 16 30 15 31 2 32 3 33 1 34
REMARK SMILES IDX 37 35 24 37 25 38 26 39 27 40 28 41 36 42 29 43 33 44 30 45
REMARK SMILES IDX 31 46 34 47 35 48 32 49
REMARK H PARENT 39 24 32 50
REMARK Flexibility Score: 90.00
ROOT
ATOM      1  C   UNL     1      96.294  81.053  84.224  1.00  0.00     0.264 C 
ENDROOT
BRANCH   1   2
ATOM      2  C   UNL     1      95.060  81.661  84.849  1.00  0.00    -0.033 C 
ATOM      3  C   UNL     1      93.885  81.006  84.760  1.00  0.00    -0.015 C 
BRANCH   3   4
ATOM      4  C   UNL     1      92.504  81.434  85.229  1.00  0.00     0.078 C 
ATOM      5  O   UNL     1      92.208  80.530  87.513  1.00  0.00    -0.319 OA
ATOM      6  C   UNL     1      92.304  81.775  86.753  1.00  0.00     0.095 C 
ATOM      7  C   UNL     1      91.401  79.501  86.910  1.00  0.00     0.289 C 
ATOM      8  C   UNL     1      90.945  82.578  86.891  1.00  0.00     0.023 C 
ATOM      9  O   UNL     1      91.877  79.168  85.608  1.00  0.00    -0.320 OA
ATOM     10  O   UNL     1      90.047  79.908  86.732  1.00  0.00    -0.313 OA
ATOM     11  C   UNL     1      91.467  80.337  84.883  1.00  0.00     0.170 C 
ATOM     12  C   UNL     1      89.894  82.108  85.839  1.00  0.00     0.049 C 
ATOM     13  C   UNL     1      90.309  82.564  88.290  1.00  0.00     0.011 C 
ATOM     14  C   UNL     1      90.070  80.631  85.484  1.00  0.00     0.122 C 
BRANCH   6  15
ATOM     15  C   UNL     1      93.562  82.486  87.330  1.00  0.00     0.086 C 
ATOM     16  C   UNL     1      94.199  83.570  86.437  1.00  0.00     0.140 CG0
ATOM     17  C   UNL     1      93.482  83.146  88.678  1.00  0.00    -0.010 C 
ATOM     18  C   UNL     1      94.706  84.573  87.452  1.00  0.00     0.190 C 
ATOM     19  G   UNL     1      95.318  83.011  85.559  1.00  0.00     0.000 G0
ATOM     20  C   UNL     1      94.138  84.306  88.787  1.00  0.00    -0.008 C 
ATOM     21  O   UNL     1      95.445  85.515  87.209  1.00  0.00    -0.291 OA
ATOM     22  C   UNL     1      94.343  85.176  89.963  1.00  0.00     0.048 C 
BRANCH  16  23
ATOM     23  O   UNL     1      93.261  84.308  85.671  1.00  0.00    -0.381 OA
ATOM     24  H   UNL     1      93.168  83.880  84.804  1.00  0.00     0.212 HD
ENDBRANCH  16  23
ENDBRANCH   6  15
BRANCH   7  25
ATOM     25  C   UNL     1      91.449  78.276  87.801  1.00  0.00     0.135 C 
BRANCH  25  26
ATOM     26  C   UNL     1      91.378  76.996  87.007  1.00  0.00    -0.040 A 
ATOM     27  C   UNL     1      90.199  76.250  86.991  1.00  0.00     0.004 A 
ATOM     28  C   UNL     1      92.489  76.558  86.288  1.00  0.00     0.004 A 
ATOM     29  C   UNL     1      90.133  75.065  86.256  1.00  0.00     0.000 A 
ATOM     30  C   UNL     1      92.423  75.374  85.553  1.00  0.00     0.000 A 
ATOM     31  C   UNL     1      91.245  74.628  85.538  1.00  0.00     0.000 A 
ENDBRANCH  25  26
ENDBRANCH   7  25
BRANCH  14  32
ATOM     32  C   UNL     1      88.967  80.112  84.620  1.00  0.00    -0.046 C 
ATOM     33  C   UNL     1      89.234  78.818  83.911  1.00  0.00     0.042 C 
ATOM     34  C   UNL     1      87.803  80.767  84.486  1.00  0.00     0.010 C 
ENDBRANCH  14  32
ENDBRANCH   3   4
BRANCH   2  35
ATOM     35  C   UNL     1      95.332  82.988  85.532  1.00  0.00     0.078 CG0
ATOM     36  G   UNL     1      94.226  83.556  86.421  1.00  0.00     0.000 G0
ENDBRANCH   2  35
ENDBRANCH   1   2
BRANCH   1  37
ATOM     37  O   UNL     1      95.965  79.798  83.668  1.00  0.00    -0.461 OA
BRANCH  37  38
ATOM     38  C   UNL     1      96.669  79.427  82.546  1.00  0.00     0.310 C 
ATOM     39  O   UNL     1      96.484  78.399  81.909  1.00  0.00    -0.252 OA
BRANCH  38  40
ATOM     40  C   UNL     1      97.702  80.482  82.226  1.00  0.00     0.158 C 
BRANCH  40  41
ATOM     41  C   UNL     1      97.743  80.840  80.763  1.00  0.00    -0.033 A 
ATOM     42  C   UNL     1      98.594  80.149  79.900  1.00  0.00     0.054 A 
ATOM     43  C   UNL     1      96.930  81.860  80.271  1.00  0.00     0.008 A 
ATOM     44  C   UNL     1      98.632  80.480  78.545  1.00  0.00     0.160 A 
ATOM     45  C   UNL     1      96.968  82.191  78.916  1.00  0.00     0.050 A 
ATOM     46  C   UNL     1      97.819  81.502  78.053  1.00  0.00     0.157 A 
BRANCH  44  47
ATOM     47  O   UNL     1      99.467  79.799  77.712  1.00  0.00    -0.493 OA
ATOM     48  C   UNL     1      98.921  78.676  77.021  1.00  0.00     0.278 C 
ENDBRANCH  44  47
BRANCH  46  49
ATOM     49  O   UNL     1      97.846  81.833  76.733  1.00  0.00    -0.504 OA
ATOM     50  H   UNL     1      96.934  81.923  76.410  1.00  0.00     0.293 HD
ENDBRANCH  46  49
ENDBRANCH  40  41
ENDBRANCH  38  40
ENDBRANCH  37  38
ENDBRANCH   1  37
TORSDOF 11
ENDMDL
MODEL 6
REMARK VINA RESULT:    -6.269      1.432      2.098
REMARK INTER + INTRA:         -12.305
REMARK INTER:                 -11.429
REMARK INTRA:                  -0.876
REMARK UNBOUND:                -1.271
REMARK SMILES C=C(C)[C@]12C[C@@H](C)[C@@]34O[C@](Cc5ccccc5)(O[C@@H]1[C@@H]3C=C(COC(=O)Cc1ccc(O)c(OC)c1)C[C@]1(O)C(=O)C(C)=C[C@@H]41)O2
REMARK SMILES IDX 23 1 22 2 21 3 20 4 9 5 8 6 10 7 6 8 18 9 46 10 19 11 5 12
REMARK SMILES IDX 7 13 4 14 45 15 38 16 44 17 40 18 42 20 41 21 43 22 39 23
REMARK SMILES IDX 11 25 12 26 13 27 17 28 14 29 16 30 15 31 2 32 3 33 1 34
REMARK SMILES IDX 37 35 24 37 25 38 26 39 27 40 28 41 36 42 29 43 33 44 30 45
REMARK SMILES IDX 31 46 34 47 35 48 32 49
REMARK H PARENT 39 24 32 50
REMARK Flexibility Score: 90.00
ROOT
ATOM      1  C   UNL     1      95.153 100.117  74.147  1.00  0.00     0.264 C 
ENDROOT
BRANCH   1   2
ATOM      2  C   UNL     1      94.444 101.269  73.472  1.00  0.00    -0.033 C 
ATOM      3  C   UNL     1      93.957 101.104  72.226  1.00  0.00    -0.015 C 
BRANCH   3   4
ATOM      4  C   UNL     1      93.283 102.114  71.312  1.00  0.00     0.078 C 
ATOM      5  O   UNL     1      90.850 101.948  71.728  1.00  0.00    -0.319 OA
ATOM      6  C   UNL     1      91.993 102.851  71.834  1.00  0.00     0.095 C 
ATOM      7  C   UNL     1      90.779 101.184  70.509  1.00  0.00     0.289 C 
ATOM      8  C   UNL     1      91.753 104.112  70.906  1.00  0.00     0.023 C 
ATOM      9  O   UNL     1      91.956 100.403  70.319  1.00  0.00    -0.320 OA
ATOM     10  O   UNL     1      90.679 102.015  69.355  1.00  0.00    -0.313 OA
ATOM     11  C   UNL     1      92.892 101.436  69.976  1.00  0.00     0.170 C 
ATOM     12  C   UNL     1      92.206 103.837  69.439  1.00  0.00     0.049 C 
ATOM     13  C   UNL     1      90.318 104.665  70.902  1.00  0.00     0.011 C 
ATOM     14  C   UNL     1      92.048 102.363  69.065  1.00  0.00     0.122 C 
BRANCH   6  15
ATOM     15  C   UNL     1      92.109 103.154  73.356  1.00  0.00     0.086 C 
ATOM     16  C   UNL     1      93.477 103.672  73.845  1.00  0.00     0.140 CG0
ATOM     17  C   UNL     1      91.129 104.098  73.996  1.00  0.00    -0.010 C 
ATOM     18  C   UNL     1      93.088 104.623  74.957  1.00  0.00     0.190 C 
ATOM     19  G   UNL     1      94.382 102.541  74.332  1.00  0.00     0.000 G0
ATOM     20  C   UNL     1      91.643 104.917  74.919  1.00  0.00    -0.008 C 
ATOM     21  O   UNL     1      93.859 105.131  75.756  1.00  0.00    -0.291 OA
ATOM     22  C   UNL     1      90.975 105.901  75.796  1.00  0.00     0.048 C 
BRANCH  16  23
ATOM     23  O   UNL     1      94.145 104.501  72.908  1.00  0.00    -0.381 OA
ATOM     24  H   UNL     1      93.501 104.791  72.241  1.00  0.00     0.212 HD
ENDBRANCH  16  23
ENDBRANCH   6  15
BRANCH   7  25
ATOM     25  C   UNL     1      89.568 100.276  70.586  1.00  0.00     0.135 C 
BRANCH  25  26
ATOM     26  C   UNL     1      89.451  99.386  69.374  1.00  0.00    -0.040 A 
ATOM     27  C   UNL     1      88.744  99.824  68.253  1.00  0.00     0.004 A 
ATOM     28  C   UNL     1      90.050  98.127  69.372  1.00  0.00     0.004 A 
ATOM     29  C   UNL     1      88.635  99.001  67.132  1.00  0.00     0.000 A 
ATOM     30  C   UNL     1      89.941  97.304  68.250  1.00  0.00     0.000 A 
ATOM     31  C   UNL     1      89.234  97.742  67.130  1.00  0.00     0.000 A 
ENDBRANCH  25  26
ENDBRANCH   7  25
BRANCH  14  32
ATOM     32  C   UNL     1      92.302 102.107  67.615  1.00  0.00    -0.046 C 
ATOM     33  C   UNL     1      91.111 101.713  66.794  1.00  0.00     0.042 C 
ATOM     34  C   UNL     1      93.526 102.223  67.078  1.00  0.00     0.010 C 
ENDBRANCH  14  32
ENDBRANCH   3   4
BRANCH   2  35
ATOM     35  C   UNL     1      94.368 102.511  74.340  1.00  0.00     0.078 CG0
ATOM     36  G   UNL     1      93.481 103.654  73.848  1.00  0.00     0.000 G0
ENDBRANCH   2  35
ENDBRANCH   1   2
BRANCH   1  37
ATOM     37  O   UNL     1      95.150  98.999  73.287  1.00  0.00    -0.461 OA
BRANCH  37  38
ATOM     38  C   UNL     1      94.462  97.893  73.729  1.00  0.00     0.310 C 
ATOM     39  O   UNL     1      93.271  97.871  74.008  1.00  0.00    -0.252 OA
BRANCH  38  40
ATOM     40  C   UNL     1      95.403  96.715  73.817  1.00  0.00     0.158 C 
BRANCH  40  41
ATOM     41  C   UNL     1      95.253  95.937  75.099  1.00  0.00    -0.033 A 
ATOM     42  C   UNL     1      94.392  94.840  75.153  1.00  0.00     0.054 A 
ATOM     43  C   UNL     1      95.975  96.313  76.232  1.00  0.00     0.008 A 
ATOM     44  C   UNL     1      94.253  94.120  76.340  1.00  0.00     0.160 A 
ATOM     45  C   UNL     1      95.837  95.593  77.418  1.00  0.00     0.050 A 
ATOM     46  C   UNL     1      94.976  94.497  77.473  1.00  0.00     0.157 A 
BRANCH  44  47
ATOM     47  O   UNL     1      93.409  93.052  76.380  1.00  0.00    -0.493 OA
ATOM     48  C   UNL     1      92.085  93.253  75.890  1.00  0.00     0.278 C 
ENDBRANCH  44  47
BRANCH  46  49
ATOM     49  O   UNL     1      94.849  93.801  78.637  1.00  0.00    -0.504 OA
ATOM     50  H   UNL     1      95.514  93.092  78.655  1.00  0.00     0.293 HD
ENDBRANCH  46  49
ENDBRANCH  40  41
ENDBRANCH  38  40
ENDBRANCH  37  38
ENDBRANCH   1  37
TORSDOF 11
ENDMDL
MODEL 7
REMARK VINA RESULT:    -6.152     21.024     23.685
REMARK INTER + INTRA:         -12.099
REMARK INTER:                 -10.773
REMARK INTRA:                  -1.326
REMARK UNBOUND:                -1.271
REMARK SMILES C=C(C)[C@]12C[C@@H](C)[C@@]34O[C@](Cc5ccccc5)(O[C@@H]1[C@@H]3C=C(COC(=O)Cc1ccc(O)c(OC)c1)C[C@]1(O)C(=O)C(C)=C[C@@H]41)O2
REMARK SMILES IDX 23 1 22 2 21 3 20 4 9 5 8 6 10 7 6 8 18 9 46 10 19 11 5 12
REMARK SMILES IDX 7 13 4 14 45 15 38 16 44 17 40 18 42 20 41 21 43 22 39 23
REMARK SMILES IDX 11 25 12 26 13 27 17 28 14 29 16 30 15 31 2 32 3 33 1 34
REMARK SMILES IDX 37 35 24 37 25 38 26 39 27 40 28 41 36 42 29 43 33 44 30 45
REMARK SMILES IDX 31 46 34 47 35 48 32 49
REMARK H PARENT 39 24 32 50
REMARK Flexibility Score: 90.00
ROOT
ATOM      1  C   UNL     1      95.703  82.234  83.760  1.00  0.00     0.264 C 
ENDROOT
BRANCH   1   2
ATOM      2  C   UNL     1      94.538  82.386  84.711  1.00  0.00    -0.033 C 
ATOM      3  C   UNL     1      93.451  81.606  84.551  1.00  0.00    -0.015 C 
BRANCH   3   4
ATOM      4  C   UNL     1      92.136  81.617  85.313  1.00  0.00     0.078 C 
ATOM      5  O   UNL     1      92.365  79.995  87.167  1.00  0.00    -0.319 OA
ATOM      6  C   UNL     1      92.173  81.414  86.874  1.00  0.00     0.095 C 
ATOM      7  C   UNL     1      91.593  79.088  86.358  1.00  0.00     0.289 C 
ATOM      8  C   UNL     1      90.775  81.883  87.453  1.00  0.00     0.023 C 
ATOM      9  O   UNL     1      91.863  79.275  84.971  1.00  0.00    -0.320 OA
ATOM     10  O   UNL     1      90.190  79.290  86.507  1.00  0.00    -0.313 OA
ATOM     11  C   UNL     1      91.192  80.525  84.750  1.00  0.00     0.170 C 
ATOM     12  C   UNL     1      89.616  81.599  86.448  1.00  0.00     0.049 C 
ATOM     13  C   UNL     1      90.407  81.314  88.833  1.00  0.00     0.011 C 
ATOM     14  C   UNL     1      89.901  80.366  85.590  1.00  0.00     0.122 C 
BRANCH   6  15
ATOM     15  C   UNL     1      93.421  82.110  87.491  1.00  0.00     0.086 C 
ATOM     16  C   UNL     1      93.760  83.511  86.940  1.00  0.00     0.140 CG0
ATOM     17  C   UNL     1      93.501  82.292  88.981  1.00  0.00    -0.010 C 
ATOM     18  C   UNL     1      94.314  84.216  88.160  1.00  0.00     0.190 C 
ATOM     19  G   UNL     1      94.765  83.451  85.791  1.00  0.00     0.000 G0
ATOM     20  C   UNL     1      94.024  83.453  89.389  1.00  0.00    -0.008 C 
ATOM     21  O   UNL     1      94.883  85.297  88.155  1.00  0.00    -0.291 OA
ATOM     22  C   UNL     1      94.328  83.933  90.752  1.00  0.00     0.048 C 
BRANCH  16  23
ATOM     23  O   UNL     1      92.621  84.281  86.592  1.00  0.00    -0.381 OA
ATOM     24  H   UNL     1      91.829  83.732  86.714  1.00  0.00     0.212 HD
ENDBRANCH  16  23
ENDBRANCH   6  15
BRANCH   7  25
ATOM     25  C   UNL     1      91.946  77.671  86.762  1.00  0.00     0.135 C 
BRANCH  25  26
ATOM     26  C   UNL     1      91.023  76.657  86.133  1.00  0.00    -0.040 A 
ATOM     27  C   UNL     1      91.385  76.030  84.941  1.00  0.00     0.004 A 
ATOM     28  C   UNL     1      89.808  76.346  86.744  1.00  0.00     0.004 A 
ATOM     29  C   UNL     1      90.532  75.092  84.359  1.00  0.00     0.000 A 
ATOM     30  C   UNL     1      88.955  75.408  86.162  1.00  0.00     0.000 A 
ATOM     31  C   UNL     1      89.317  74.781  84.969  1.00  0.00     0.000 A 
ENDBRANCH  25  26
ENDBRANCH   7  25
BRANCH  14  32
ATOM     32  C   UNL     1      88.731  79.967  84.751  1.00  0.00    -0.046 C 
ATOM     33  C   UNL     1      88.906  78.735  83.914  1.00  0.00     0.042 C 
ATOM     34  C   UNL     1      87.589  80.670  84.747  1.00  0.00     0.010 C 
ENDBRANCH  14  32
ENDBRANCH   3   4
BRANCH   2  35
ATOM     35  C   UNL     1      94.771  83.446  85.771  1.00  0.00     0.078 CG0
ATOM     36  G   UNL     1      93.784  83.497  86.936  1.00  0.00     0.000 G0
ENDBRANCH   2  35
ENDBRANCH   1   2
BRANCH   1  37
ATOM     37  O   UNL     1      96.804  81.687  84.455  1.00  0.00    -0.461 OA
BRANCH  37  38
ATOM     38  C   UNL     1      97.727  81.009  83.693  1.00  0.00     0.310 C 
ATOM     39  O   UNL     1      98.785  80.557  84.110  1.00  0.00    -0.252 OA
BRANCH  38  40
ATOM     40  C   UNL     1      97.233  80.910  82.269  1.00  0.00     0.158 C 
BRANCH  40  41
ATOM     41  C   UNL     1      97.217  79.496  81.749  1.00  0.00    -0.033 A 
ATOM     42  C   UNL     1      96.677  78.472  82.529  1.00  0.00     0.054 A 
ATOM     43  C   UNL     1      97.741  79.210  80.489  1.00  0.00     0.008 A 
ATOM     44  C   UNL     1      96.662  77.163  82.048  1.00  0.00     0.160 A 
ATOM     45  C   UNL     1      97.726  77.901  80.008  1.00  0.00     0.050 A 
ATOM     46  C   UNL     1      97.187  76.877  80.787  1.00  0.00     0.157 A 
BRANCH  44  47
ATOM     47  O   UNL     1      96.133  76.172  82.818  1.00  0.00    -0.493 OA
ATOM     48  C   UNL     1      94.978  76.497  83.590  1.00  0.00     0.278 C 
ENDBRANCH  44  47
BRANCH  46  49
ATOM     49  O   UNL     1      97.177  75.603  80.306  1.00  0.00    -0.504 OA
ATOM     50  H   UNL     1      96.465  75.518  79.650  1.00  0.00     0.293 HD
ENDBRANCH  46  49
ENDBRANCH  40  41
ENDBRANCH  38  40
ENDBRANCH  37  38
ENDBRANCH   1  37
TORSDOF 11
ENDMDL
MODEL 8
REMARK VINA RESULT:    -6.098      2.405      3.847
REMARK INTER + INTRA:         -12.004
REMARK INTER:                 -11.163
REMARK INTRA:                  -0.841
REMARK UNBOUND:                -1.271
REMARK SMILES C=C(C)[C@]12C[C@@H](C)[C@@]34O[C@](Cc5ccccc5)(O[C@@H]1[C@@H]3C=C(COC(=O)Cc1ccc(O)c(OC)c1)C[C@]1(O)C(=O)C(C)=C[C@@H]41)O2
REMARK SMILES IDX 23 1 22 2 21 3 20 4 9 5 8 6 10 7 6 8 18 9 46 10 19 11 5 12
REMARK SMILES IDX 7 13 4 14 45 15 38 16 44 17 40 18 42 20 41 21 43 22 39 23
REMARK SMILES IDX 11 25 12 26 13 27 17 28 14 29 16 30 15 31 2 32 3 33 1 34
REMARK SMILES IDX 37 35 24 37 25 38 26 39 27 40 28 41 36 42 29 43 33 44 30 45
REMARK SMILES IDX 31 46 34 47 35 48 32 49
REMARK H PARENT 39 24 32 50
REMARK Flexibility Score: 90.00
ROOT
ATOM      1  C   UNL     1      94.291  98.886  71.074  1.00  0.00     0.264 C 
ENDROOT
BRANCH   1   2
ATOM      2  C   UNL     1      93.823 100.275  70.708  1.00  0.00    -0.033 C 
ATOM      3  C   UNL     1      94.068 100.748  69.470  1.00  0.00    -0.015 C 
BRANCH   3   4
ATOM      4  C   UNL     1      93.774 102.121  68.886  1.00  0.00     0.078 C 
ATOM      5  O   UNL     1      91.550 101.986  67.811  1.00  0.00    -0.319 OA
ATOM      6  C   UNL     1      92.286 102.635  68.893  1.00  0.00     0.095 C 
ATOM      7  C   UNL     1      92.255 101.888  66.559  1.00  0.00     0.289 C 
ATOM      8  C   UNL     1      92.318 104.199  68.640  1.00  0.00     0.023 C 
ATOM      9  O   UNL     1      93.487 101.189  66.712  1.00  0.00    -0.320 OA
ATOM     10  O   UNL     1      92.600 103.165  66.030  1.00  0.00    -0.313 OA
ATOM     11  C   UNL     1      94.253 102.180  67.414  1.00  0.00     0.170 C 
ATOM     12  C   UNL     1      93.497 104.602  67.702  1.00  0.00     0.049 C 
ATOM     13  C   UNL     1      91.010 104.808  68.110  1.00  0.00     0.011 C 
ATOM     14  C   UNL     1      93.832 103.492  66.706  1.00  0.00     0.122 C 
BRANCH   6  15
ATOM     15  C   UNL     1      91.552 102.182  70.189  1.00  0.00     0.086 C 
ATOM     16  C   UNL     1      92.353 102.303  71.502  1.00  0.00     0.140 CG0
ATOM     17  C   UNL     1      90.222 102.791  70.533  1.00  0.00    -0.010 C 
ATOM     18  C   UNL     1      91.278 102.652  72.509  1.00  0.00     0.190 C 
ATOM     19  G   UNL     1      93.085 101.008  71.852  1.00  0.00     0.000 G0
ATOM     20  C   UNL     1      90.026 103.042  71.832  1.00  0.00    -0.008 C 
ATOM     21  O   UNL     1      91.421 102.666  73.722  1.00  0.00    -0.291 OA
ATOM     22  C   UNL     1      88.830 103.552  72.533  1.00  0.00     0.048 C 
BRANCH  16  23
ATOM     23  O   UNL     1      93.228 103.418  71.540  1.00  0.00    -0.381 OA
ATOM     24  H   UNL     1      93.009 103.953  72.321  1.00  0.00     0.212 HD
ENDBRANCH  16  23
ENDBRANCH   6  15
BRANCH   7  25
ATOM     25  C   UNL     1      91.370 101.154  65.571  1.00  0.00     0.135 C 
BRANCH  25  26
ATOM     26  C   UNL     1      90.071 100.711  66.197  1.00  0.00    -0.040 A 
ATOM     27  C   UNL     1      89.928  99.400  66.652  1.00  0.00     0.004 A 
ATOM     28  C   UNL     1      89.013 101.611  66.323  1.00  0.00     0.004 A 
ATOM     29  C   UNL     1      88.727  98.989  67.232  1.00  0.00     0.000 A 
ATOM     30  C   UNL     1      87.812 101.201  66.902  1.00  0.00     0.000 A 
ATOM     31  C   UNL     1      87.670  99.889  67.356  1.00  0.00     0.000 A 
ENDBRANCH  25  26
ENDBRANCH   7  25
BRANCH  14  32
ATOM     32  C   UNL     1      94.831 103.921  65.681  1.00  0.00    -0.046 C 
ATOM     33  C   UNL     1      94.655 105.302  65.123  1.00  0.00     0.042 C 
ATOM     34  C   UNL     1      95.829 103.118  65.282  1.00  0.00     0.010 C 
ENDBRANCH  14  32
ENDBRANCH   3   4
BRANCH   2  35
ATOM     35  C   UNL     1      93.100 100.977  71.842  1.00  0.00     0.078 CG0
ATOM     36  G   UNL     1      92.351 102.265  71.502  1.00  0.00     0.000 G0
ENDBRANCH   2  35
ENDBRANCH   1   2
BRANCH   1  37
ATOM     37  O   UNL     1      94.476  98.808  72.471  1.00  0.00    -0.461 OA
BRANCH  37  38
ATOM     38  C   UNL     1      95.680  98.297  72.897  1.00  0.00     0.310 C 
ATOM     39  O   UNL     1      96.682  98.959  73.129  1.00  0.00    -0.252 OA
BRANCH  38  40
ATOM     40  C   UNL     1      95.570  96.796  73.034  1.00  0.00     0.158 C 
BRANCH  40  41
ATOM     41  C   UNL     1      95.270  96.355  74.444  1.00  0.00    -0.033 A 
ATOM     42  C   UNL     1      94.071  95.700  74.729  1.00  0.00     0.054 A 
ATOM     43  C   UNL     1      96.191  96.600  75.462  1.00  0.00     0.008 A 
ATOM     44  C   UNL     1      93.794  95.291  76.034  1.00  0.00     0.160 A 
ATOM     45  C   UNL     1      95.913  96.191  76.767  1.00  0.00     0.050 A 
ATOM     46  C   UNL     1      94.715  95.537  77.053  1.00  0.00     0.157 A 
BRANCH  44  47
ATOM     47  O   UNL     1      92.620  94.654  76.300  1.00  0.00    -0.493 OA
ATOM     48  C   UNL     1      92.562  93.256  76.017  1.00  0.00     0.278 C 
ENDBRANCH  44  47
BRANCH  46  49
ATOM     49  O   UNL     1      94.455  95.142  78.330  1.00  0.00    -0.504 OA
ATOM     50  H   UNL     1      95.092  95.566  78.929  1.00  0.00     0.293 HD
ENDBRANCH  46  49
ENDBRANCH  40  41
ENDBRANCH  38  40
ENDBRANCH  37  38
ENDBRANCH   1  37
TORSDOF 11
ENDMDL
MODEL 9
REMARK VINA RESULT:    -6.044     18.345     21.179
REMARK INTER + INTRA:         -11.909
REMARK INTER:                 -10.930
REMARK INTRA:                  -0.979
REMARK UNBOUND:                -1.271
REMARK SMILES C=C(C)[C@]12C[C@@H](C)[C@@]34O[C@](Cc5ccccc5)(O[C@@H]1[C@@H]3C=C(COC(=O)Cc1ccc(O)c(OC)c1)C[C@]1(O)C(=O)C(C)=C[C@@H]41)O2
REMARK SMILES IDX 23 1 22 2 21 3 20 4 9 5 8 6 10 7 6 8 18 9 46 10 19 11 5 12
REMARK SMILES IDX 7 13 4 14 45 15 38 16 44 17 40 18 42 20 41 21 43 22 39 23
REMARK SMILES IDX 11 25 12 26 13 27 17 28 14 29 16 30 15 31 2 32 3 33 1 34
REMARK SMILES IDX 37 35 24 37 25 38 26 39 27 40 28 41 36 42 29 43 33 44 30 45
REMARK SMILES IDX 31 46 34 47 35 48 32 49
REMARK H PARENT 39 24 32 50
REMARK Flexibility Score: 90.00
ROOT
ATOM      1  C   UNL     1      99.934  80.459  79.377  1.00  0.00     0.264 C 
ENDROOT
BRANCH   1   2
ATOM      2  C   UNL     1     100.457  79.986  78.041  1.00  0.00    -0.033 C 
ATOM      3  C   UNL     1      99.716  80.190  76.933  1.00  0.00    -0.015 C 
BRANCH   3   4
ATOM      4  C   UNL     1      99.978  79.748  75.503  1.00  0.00     0.078 C 
ATOM      5  O   UNL     1     101.214  81.583  74.397  1.00  0.00    -0.319 OA
ATOM      6  C   UNL     1     101.325  80.188  74.818  1.00  0.00     0.095 C 
ATOM      7  C   UNL     1      99.962  81.944  73.784  1.00  0.00     0.289 C 
ATOM      8  C   UNL     1     101.537  79.272  73.542  1.00  0.00     0.023 C 
ATOM      9  O   UNL     1      98.865  81.675  74.652  1.00  0.00    -0.320 OA
ATOM     10  O   UNL     1      99.706  81.198  72.596  1.00  0.00    -0.313 OA
ATOM     11  C   UNL     1      98.834  80.241  74.582  1.00  0.00     0.170 C 
ATOM     12  C   UNL     1     100.177  78.884  72.885  1.00  0.00     0.049 C 
ATOM     13  C   UNL     1     102.479  79.841  72.470  1.00  0.00     0.011 C 
ATOM     14  C   UNL     1      99.122  79.973  73.084  1.00  0.00     0.122 C 
BRANCH   6  15
ATOM     15  C   UNL     1     102.494  80.184  75.845  1.00  0.00     0.086 C 
ATOM     16  C   UNL     1     102.531  78.995  76.828  1.00  0.00     0.140 CG0
ATOM     17  C   UNL     1     103.910  80.274  75.351  1.00  0.00    -0.010 C 
ATOM     18  C   UNL     1     104.017  78.778  77.020  1.00  0.00     0.190 C 
ATOM     19  G   UNL     1     101.811  79.306  78.138  1.00  0.00     0.000 G0
ATOM     20  C   UNL     1     104.795  79.517  76.008  1.00  0.00    -0.008 C 
ATOM     21  O   UNL     1     104.524  78.052  77.862  1.00  0.00    -0.291 OA
ATOM     22  C   UNL     1     106.261  79.416  75.854  1.00  0.00     0.048 C 
BRANCH  16  23
ATOM     23  O   UNL     1     102.081  77.773  76.267  1.00  0.00    -0.381 OA
ATOM     24  H   UNL     1     101.659  77.250  76.968  1.00  0.00     0.212 HD
ENDBRANCH  16  23
ENDBRANCH   6  15
BRANCH   7  25
ATOM     25  C   UNL     1     100.003  83.422  73.454  1.00  0.00     0.135 C 
BRANCH  25  26
ATOM     26  C   UNL     1     101.074  83.746  72.441  1.00  0.00    -0.040 A 
ATOM     27  C   UNL     1     102.417  83.742  72.821  1.00  0.00     0.004 A 
ATOM     28  C   UNL     1     100.722  84.048  71.126  1.00  0.00     0.004 A 
ATOM     29  C   UNL     1     103.407  84.041  71.885  1.00  0.00     0.000 A 
ATOM     30  C   UNL     1     101.713  84.347  70.190  1.00  0.00     0.000 A 
ATOM     31  C   UNL     1     103.055  84.344  70.570  1.00  0.00     0.000 A 
ENDBRANCH  25  26
ENDBRANCH   7  25
BRANCH  14  32
ATOM     32  C   UNL     1      97.871  79.708  72.311  1.00  0.00    -0.046 C 
ATOM     33  C   UNL     1      97.994  79.750  70.817  1.00  0.00     0.042 C 
ATOM     34  C   UNL     1      96.703  79.448  72.918  1.00  0.00     0.010 C 
ENDBRANCH  14  32
ENDBRANCH   3   4
BRANCH   2  35
ATOM     35  C   UNL     1     101.816  79.320  78.136  1.00  0.00     0.078 CG0
ATOM     36  G   UNL     1     102.534  79.004  76.825  1.00  0.00     0.000 G0
ENDBRANCH   2  35
ENDBRANCH   1   2
BRANCH   1  37
ATOM     37  O   UNL     1      99.089  79.470  79.924  1.00  0.00    -0.461 OA
BRANCH  37  38
ATOM     38  C   UNL     1      97.766  79.816  80.077  1.00  0.00     0.310 C 
ATOM     39  O   UNL     1      96.830  79.029  80.087  1.00  0.00    -0.252 OA
BRANCH  38  40
ATOM     40  C   UNL     1      97.651  81.315  80.227  1.00  0.00     0.158 C 
BRANCH  40  41
ATOM     41  C   UNL     1      97.221  81.736  81.609  1.00  0.00    -0.033 A 
ATOM     42  C   UNL     1      97.713  81.063  82.728  1.00  0.00     0.054 A 
ATOM     43  C   UNL     1      96.331  82.798  81.769  1.00  0.00     0.008 A 
ATOM     44  C   UNL     1      97.315  81.452  84.007  1.00  0.00     0.160 A 
ATOM     45  C   UNL     1      95.933  83.187  83.048  1.00  0.00     0.050 A 
ATOM     46  C   UNL     1      96.425  82.515  84.167  1.00  0.00     0.157 A 
BRANCH  44  47
ATOM     47  O   UNL     1      97.802  80.788  85.091  1.00  0.00    -0.493 OA
ATOM     48  C   UNL     1      97.247  79.503  85.368  1.00  0.00     0.278 C 
ENDBRANCH  44  47
BRANCH  46  49
ATOM     49  O   UNL     1      96.030  82.905  85.411  1.00  0.00    -0.504 OA
ATOM     50  H   UNL     1      95.167  82.503  85.609  1.00  0.00     0.293 HD
ENDBRANCH  46  49
ENDBRANCH  40  41
ENDBRANCH  38  40
ENDBRANCH  37  38
ENDBRANCH   1  37
TORSDOF 11
ENDMDL
MODEL 10
REMARK VINA RESULT:    -5.617     18.439     22.541
REMARK INTER + INTRA:         -11.158
REMARK INTER:                  -9.965
REMARK INTRA:                  -1.193
REMARK UNBOUND:                -1.271
REMARK SMILES C=C(C)[C@]12C[C@@H](C)[C@@]34O[C@](Cc5ccccc5)(O[C@@H]1[C@@H]3C=C(COC(=O)Cc1ccc(O)c(OC)c1)C[C@]1(O)C(=O)C(C)=C[C@@H]41)O2
REMARK SMILES IDX 23 1 22 2 21 3 20 4 9 5 8 6 10 7 6 8 18 9 46 10 19 11 5 12
REMARK SMILES IDX 7 13 4 14 45 15 38 16 44 17 40 18 42 20 41 21 43 22 39 23
REMARK SMILES IDX 11 25 12 26 13 27 17 28 14 29 16 30 15 31 2 32 3 33 1 34
REMARK SMILES IDX 37 35 24 37 25 38 26 39 27 40 28 41 36 42 29 43 33 44 30 45
REMARK SMILES IDX 31 46 34 47 35 48 32 49
REMARK H PARENT 39 24 32 50
REMARK Flexibility Score: 90.00
ROOT
ATOM      1  C   UNL     1      73.240  91.423  70.525  1.00  0.00     0.264 C 
ENDROOT
BRANCH   1   2
ATOM      2  C   UNL     1      74.031  90.885  69.356  1.00  0.00    -0.033 C 
ATOM      3  C   UNL     1      74.282  89.562  69.283  1.00  0.00    -0.015 C 
BRANCH   3   4
ATOM      4  C   UNL     1      75.108  88.792  68.266  1.00  0.00     0.078 C 
ATOM      5  O   UNL     1      73.552  88.037  66.497  1.00  0.00    -0.319 OA
ATOM      6  C   UNL     1      74.709  88.893  66.747  1.00  0.00     0.095 C 
ATOM      7  C   UNL     1      73.594  86.743  67.129  1.00  0.00     0.289 C 
ATOM      8  C   UNL     1      75.939  88.373  65.893  1.00  0.00     0.023 C 
ATOM      9  O   UNL     1      73.737  86.863  68.542  1.00  0.00    -0.320 OA
ATOM     10  O   UNL     1      74.706  85.965  66.694  1.00  0.00    -0.313 OA
ATOM     11  C   UNL     1      75.107  87.284  68.622  1.00  0.00     0.170 C 
ATOM     12  C   UNL     1      76.713  87.241  66.636  1.00  0.00     0.049 C 
ATOM     13  C   UNL     1      75.603  87.910  64.466  1.00  0.00     0.011 C 
ATOM     14  C   UNL     1      75.788  86.418  67.533  1.00  0.00     0.122 C 
BRANCH   6  15
ATOM     15  C   UNL     1      74.214  90.327  66.400  1.00  0.00     0.086 C 
ATOM     16  C   UNL     1      75.027  91.491  67.003  1.00  0.00     0.140 CG0
ATOM     17  C   UNL     1      74.052  90.723  64.959  1.00  0.00    -0.010 C 
ATOM     18  C   UNL     1      74.934  92.548  65.922  1.00  0.00     0.190 C 
ATOM     19  G   UNL     1      74.454  91.966  68.337  1.00  0.00     0.000 G0
ATOM     20  C   UNL     1      74.422  91.973  64.664  1.00  0.00    -0.008 C 
ATOM     21  O   UNL     1      75.280  93.714  66.040  1.00  0.00    -0.291 OA
ATOM     22  C   UNL     1      74.328  92.718  63.392  1.00  0.00     0.048 C 
BRANCH  16  23
ATOM     23  O   UNL     1      76.418  91.230  67.101  1.00  0.00    -0.381 OA
ATOM     24  H   UNL     1      76.540  90.283  67.283  1.00  0.00     0.212 HD
ENDBRANCH  16  23
ENDBRANCH   6  15
BRANCH   7  25
ATOM     25  C   UNL     1      72.307  86.013  66.804  1.00  0.00     0.135 C 
BRANCH  25  26
ATOM     26  C   UNL     1      72.483  85.033  65.671  1.00  0.00    -0.040 A 
ATOM     27  C   UNL     1      72.896  83.727  65.937  1.00  0.00     0.004 A 
ATOM     28  C   UNL     1      72.233  85.431  64.358  1.00  0.00     0.004 A 
ATOM     29  C   UNL     1      73.059  82.820  64.890  1.00  0.00     0.000 A 
ATOM     30  C   UNL     1      72.396  84.524  63.311  1.00  0.00     0.000 A 
ATOM     31  C   UNL     1      72.810  83.218  63.578  1.00  0.00     0.000 A 
ENDBRANCH  25  26
ENDBRANCH   7  25
BRANCH  14  32
ATOM     32  C   UNL     1      76.467  85.220  68.113  1.00  0.00    -0.046 C 
ATOM     33  C   UNL     1      77.565  84.617  67.288  1.00  0.00     0.042 C 
ATOM     34  C   UNL     1      76.115  84.711  69.303  1.00  0.00     0.010 C 
ENDBRANCH  14  32
ENDBRANCH   3   4
BRANCH   2  35
ATOM     35  C   UNL     1      74.450  91.963  68.374  1.00  0.00     0.078 CG0
ATOM     36  G   UNL     1      75.023  91.503  67.034  1.00  0.00     0.000 G0
ENDBRANCH   2  35
ENDBRANCH   1   2
BRANCH   1  37
ATOM     37  O   UNL     1      74.094  92.171  71.363  1.00  0.00    -0.461 OA
BRANCH  37  38
ATOM     38  C   UNL     1      73.501  93.164  72.108  1.00  0.00     0.310 C 
ATOM     39  O   UNL     1      73.180  93.063  73.284  1.00  0.00    -0.252 OA
BRANCH  38  40
ATOM     40  C   UNL     1      73.307  94.391  71.249  1.00  0.00     0.158 C 
BRANCH  40  41
ATOM     41  C   UNL     1      74.608  95.001  70.793  1.00  0.00    -0.033 A 
ATOM     42  C   UNL     1      75.562  95.393  71.733  1.00  0.00     0.054 A 
ATOM     43  C   UNL     1      74.859  95.172  69.432  1.00  0.00     0.008 A 
ATOM     44  C   UNL     1      76.766  95.957  71.311  1.00  0.00     0.160 A 
ATOM     45  C   UNL     1      76.063  95.736  69.010  1.00  0.00     0.050 A 
ATOM     46  C   UNL     1      77.016  96.129  69.949  1.00  0.00     0.157 A 
BRANCH  44  47
ATOM     47  O   UNL     1      77.689  96.336  72.238  1.00  0.00    -0.493 OA
ATOM     48  C   UNL     1      78.341  95.297  72.966  1.00  0.00     0.278 C 
ENDBRANCH  44  47
BRANCH  46  49
ATOM     49  O   UNL     1      78.188  96.678  69.525  1.00  0.00    -0.504 OA
ATOM     50  H   UNL     1      78.794  95.965  69.260  1.00  0.00     0.293 HD
ENDBRANCH  46  49
ENDBRANCH  40  41
ENDBRANCH  38  40
ENDBRANCH  37  38
ENDBRANCH   1  37
TORSDOF 11
ENDMDL
