MODEL 1
REMARK VINA RESULT:    -6.221      0.000      0.000
REMARK INTER + INTRA:         -10.295
REMARK INTER:                  -9.676
REMARK INTRA:                  -0.619
REMARK UNBOUND:                -0.619
REMARK SMILES COc1cc(CNC(=O)CCCC/C=C/C(C)C)ccc1O
REMARK SMILES IDX 10 1 8 2 7 3 9 5 6 6 5 7 3 8 21 9 4 10 20 11 19 12 2 13 1 14
REMARK SMILES IDX 22 15 11 17 12 18 13 19 14 20 15 21 16 22 17 23 18 24
REMARK H PARENT 7 4 22 16
REMARK Flexibility Score: inf
ROOT
ATOM      1  C   UNL     1      97.291  80.932  82.584  1.00  0.00     0.100 C 
ENDROOT
BRANCH   1   2
ATOM      2  C   UNL     1      98.057  80.716  81.342  1.00  0.00     0.220 C 
ATOM      3  N   UNL     1      97.809  81.472  80.236  1.00  0.00    -0.352 N 
ATOM      4  H   UNL     1      97.064  82.147  80.339  1.00  0.00     0.163 HD
ATOM      5  O   UNL     1      98.954  79.838  81.344  1.00  0.00    -0.275 OA
BRANCH   3   6
ATOM      6  C   UNL     1      98.514  81.364  78.999  1.00  0.00     0.151 C 
BRANCH   6   7
ATOM      7  C   UNL     1      97.723  81.921  77.868  1.00  0.00    -0.025 A 
ATOM      8  C   UNL     1      97.525  82.472  75.477  1.00  0.00     0.160 A 
ATOM      9  C   UNL     1      96.220  82.961  75.697  1.00  0.00     0.157 A 
ATOM     10  C   UNL     1      98.264  81.959  76.563  1.00  0.00     0.056 A 
ATOM     11  C   UNL     1      95.675  82.947  76.996  1.00  0.00     0.050 A 
ATOM     12  C   UNL     1      96.416  82.422  78.072  1.00  0.00     0.009 A 
BRANCH   8  13
ATOM     13  O   UNL     1      98.085  82.544  74.226  1.00  0.00    -0.493 OA
ATOM     14  C   UNL     1      99.483  82.886  74.228  1.00  0.00     0.278 C 
ENDBRANCH   8  13
BRANCH   9  15
ATOM     15  O   UNL     1      95.477  83.449  74.670  1.00  0.00    -0.504 OA
ATOM     16  H   UNL     1      95.086  82.721  74.182  1.00  0.00     0.293 HD
ENDBRANCH   9  15
ENDBRANCH   6   7
ENDBRANCH   3   6
ENDBRANCH   1   2
BRANCH   1  17
ATOM     17  C   UNL     1      96.341  79.741  82.885  1.00  0.00     0.010 C 
BRANCH  17  18
ATOM     18  C   UNL     1      95.272  80.077  83.963  1.00  0.00     0.005 C 
BRANCH  18  19
ATOM     19  C   UNL     1      94.940  81.593  84.013  1.00  0.00     0.027 C 
BRANCH  19  20
ATOM     20  C   UNL     1      93.730  81.863  84.775  1.00  0.00    -0.031 C 
ATOM     21  C   UNL     1      92.598  81.142  84.677  1.00  0.00    -0.028 C 
BRANCH  21  22
ATOM     22  C   UNL     1      91.399  81.420  85.467  1.00  0.00     0.005 C 
ATOM     23  C   UNL     1      90.131  81.570  84.581  1.00  0.00     0.012 C 
ATOM     24  C   UNL     1      91.197  80.319  86.540  1.00  0.00     0.012 C 
ENDBRANCH  21  22
ENDBRANCH  19  20
ENDBRANCH  18  19
ENDBRANCH  17  18
ENDBRANCH   1  17
TORSDOF 10
ENDMDL
MODEL 2
REMARK VINA RESULT:    -6.173     16.734     19.262
REMARK INTER + INTRA:         -10.219
REMARK INTER:                  -9.554
REMARK INTRA:                  -0.665
REMARK UNBOUND:                -0.619
REMARK SMILES COc1cc(CNC(=O)CCCC/C=C/C(C)C)ccc1O
REMARK SMILES IDX 10 1 8 2 7 3 9 5 6 6 5 7 3 8 21 9 4 10 20 11 19 12 2 13 1 14
REMARK SMILES IDX 22 15 11 17 12 18 13 19 14 20 15 21 16 22 17 23 18 24
REMARK H PARENT 7 4 22 16
REMARK Flexibility Score: inf
ROOT
ATOM      1  C   UNL     1      94.913  98.478  72.523  1.00  0.00     0.100 C 
ENDROOT
BRANCH   1   2
ATOM      2  C   UNL     1      93.614  99.176  72.479  1.00  0.00     0.220 C 
ATOM      3  N   UNL     1      93.034  99.482  71.285  1.00  0.00    -0.352 N 
ATOM      4  H   UNL     1      93.570  99.219  70.470  1.00  0.00     0.163 HD
ATOM      5  O   UNL     1      93.053  99.454  73.567  1.00  0.00    -0.275 OA
BRANCH   3   6
ATOM      6  C   UNL     1      91.768 100.126  71.134  1.00  0.00     0.151 C 
BRANCH   6   7
ATOM      7  C   UNL     1      90.992  99.548  70.002  1.00  0.00    -0.025 A 
ATOM      8  C   UNL     1      90.383  99.554  67.617  1.00  0.00     0.160 A 
ATOM      9  C   UNL     1      89.536  98.447  67.830  1.00  0.00     0.157 A 
ATOM     10  C   UNL     1      91.101 100.095  68.704  1.00  0.00     0.056 A 
ATOM     11  C   UNL     1      89.403  97.903  69.122  1.00  0.00     0.050 A 
ATOM     12  C   UNL     1      90.133  98.442  70.200  1.00  0.00     0.009 A 
BRANCH   8  13
ATOM     13  O   UNL     1      90.466 100.128  66.374  1.00  0.00    -0.493 OA
ATOM     14  C   UNL     1      90.279 101.555  66.373  1.00  0.00     0.278 C 
ENDBRANCH   8  13
BRANCH   9  15
ATOM     15  O   UNL     1      88.842  97.894  66.802  1.00  0.00    -0.504 OA
ATOM     16  H   UNL     1      88.954  96.940  66.815  1.00  0.00     0.293 HD
ENDBRANCH   9  15
ENDBRANCH   6   7
ENDBRANCH   3   6
ENDBRANCH   1   2
BRANCH   1  17
ATOM     17  C   UNL     1      95.503  98.456  73.959  1.00  0.00     0.010 C 
BRANCH  17  18
ATOM     18  C   UNL     1      95.613  97.021  74.546  1.00  0.00     0.005 C 
BRANCH  18  19
ATOM     19  C   UNL     1      94.340  96.174  74.277  1.00  0.00     0.027 C 
BRANCH  19  20
ATOM     20  C   UNL     1      93.478  96.096  75.447  1.00  0.00    -0.031 C 
ATOM     21  C   UNL     1      93.171  94.951  76.084  1.00  0.00    -0.028 C 
BRANCH  21  22
ATOM     22  C   UNL     1      92.317  94.898  77.271  1.00  0.00     0.005 C 
ATOM     23  C   UNL     1      90.811  95.054  76.920  1.00  0.00     0.012 C 
ATOM     24  C   UNL     1      92.569  93.584  78.055  1.00  0.00     0.012 C 
ENDBRANCH  21  22
ENDBRANCH  19  20
ENDBRANCH  18  19
ENDBRANCH  17  18
ENDBRANCH   1  17
TORSDOF 10
ENDMDL
MODEL 3
REMARK VINA RESULT:    -5.971     12.757     14.530
REMARK INTER + INTRA:          -9.906
REMARK INTER:                  -9.276
REMARK INTRA:                  -0.630
REMARK UNBOUND:                -0.619
REMARK SMILES COc1cc(CNC(=O)CCCC/C=C/C(C)C)ccc1O
REMARK SMILES IDX 10 1 8 2 7 3 9 5 6 6 5 7 3 8 21 9 4 10 20 11 19 12 2 13 1 14
REMARK SMILES IDX 22 15 11 17 12 18 13 19 14 20 15 21 16 22 17 23 18 24
REMARK H PARENT 7 4 22 16
REMARK Flexibility Score: inf
ROOT
ATOM      1  C   UNL     1      96.671  96.249  77.975  1.00  0.00     0.100 C 
ENDROOT
BRANCH   1   2
ATOM      2  C   UNL     1      95.843  95.898  76.805  1.00  0.00     0.220 C 
ATOM      3  N   UNL     1      95.017  94.815  76.842  1.00  0.00    -0.352 N 
ATOM      4  H   UNL     1      95.046  94.286  77.703  1.00  0.00     0.163 HD
ATOM      5  O   UNL     1      95.906  96.637  75.793  1.00  0.00    -0.275 OA
BRANCH   3   6
ATOM      6  C   UNL     1      94.154  94.411  75.779  1.00  0.00     0.151 C 
BRANCH   6   7
ATOM      7  C   UNL     1      92.944  93.714  76.292  1.00  0.00    -0.025 A 
ATOM      8  C   UNL     1      90.979  92.285  75.890  1.00  0.00     0.160 A 
ATOM      9  C   UNL     1      90.643  92.362  77.257  1.00  0.00     0.157 A 
ATOM     10  C   UNL     1      92.123  92.963  75.420  1.00  0.00     0.056 A 
ATOM     11  C   UNL     1      91.440  93.122  78.135  1.00  0.00     0.050 A 
ATOM     12  C   UNL     1      92.588  93.786  77.659  1.00  0.00     0.009 A 
BRANCH   8  13
ATOM     13  O   UNL     1      90.169  91.601  75.020  1.00  0.00    -0.493 OA
ATOM     14  C   UNL     1      90.816  90.495  74.362  1.00  0.00     0.278 C 
ENDBRANCH   8  13
BRANCH   9  15
ATOM     15  O   UNL     1      89.555  91.710  77.744  1.00  0.00    -0.504 OA
ATOM     16  H   UNL     1      88.796  91.890  77.185  1.00  0.00     0.293 HD
ENDBRANCH   9  15
ENDBRANCH   6   7
ENDBRANCH   3   6
ENDBRANCH   1   2
BRANCH   1  17
ATOM     17  C   UNL     1      97.376  95.001  78.572  1.00  0.00     0.010 C 
BRANCH  17  18
ATOM     18  C   UNL     1      96.481  94.223  79.577  1.00  0.00     0.005 C 
BRANCH  18  19
ATOM     19  C   UNL     1      95.577  95.166  80.416  1.00  0.00     0.027 C 
BRANCH  19  20
ATOM     20  C   UNL     1      96.342  95.945  81.377  1.00  0.00    -0.031 C 
ATOM     21  C   UNL     1      96.178  97.265  81.582  1.00  0.00    -0.028 C 
BRANCH  21  22
ATOM     22  C   UNL     1      96.946  98.025  82.568  1.00  0.00     0.005 C 
ATOM     23  C   UNL     1      96.271  99.379  82.923  1.00  0.00     0.012 C 
ATOM     24  C   UNL     1      97.175  97.171  83.842  1.00  0.00     0.012 C 
ENDBRANCH  21  22
ENDBRANCH  19  20
ENDBRANCH  18  19
ENDBRANCH  17  18
ENDBRANCH   1  17
TORSDOF 10
ENDMDL
MODEL 4
REMARK VINA RESULT:    -5.876      5.127      8.610
REMARK INTER + INTRA:          -9.758
REMARK INTER:                  -8.212
REMARK INTRA:                  -1.547
REMARK UNBOUND:                -0.619
REMARK SMILES COc1cc(CNC(=O)CCCC/C=C/C(C)C)ccc1O
REMARK SMILES IDX 10 1 8 2 7 3 9 5 6 6 5 7 3 8 21 9 4 10 20 11 19 12 2 13 1 14
REMARK SMILES IDX 22 15 11 17 12 18 13 19 14 20 15 21 16 22 17 23 18 24
REMARK H PARENT 7 4 22 16
REMARK Flexibility Score: inf
ROOT
ATOM      1  C   UNL     1     102.218  79.356  77.624  1.00  0.00     0.100 C 
ENDROOT
BRANCH   1   2
ATOM      2  C   UNL     1     100.807  79.209  78.030  1.00  0.00     0.220 C 
ATOM      3  N   UNL     1      99.930  80.238  77.866  1.00  0.00    -0.352 N 
ATOM      4  H   UNL     1     100.330  81.082  77.478  1.00  0.00     0.163 HD
ATOM      5  O   UNL     1     100.440  78.108  78.506  1.00  0.00    -0.275 OA
BRANCH   3   6
ATOM      6  C   UNL     1      98.541  80.187  78.196  1.00  0.00     0.151 C 
BRANCH   6   7
ATOM      7  C   UNL     1      97.743  81.113  77.347  1.00  0.00    -0.025 A 
ATOM      8  C   UNL     1      97.196  82.030  75.129  1.00  0.00     0.160 A 
ATOM      9  C   UNL     1      96.217  82.860  75.712  1.00  0.00     0.157 A 
ATOM     10  C   UNL     1      97.951  81.167  75.951  1.00  0.00     0.056 A 
ATOM     11  C   UNL     1      96.012  82.831  77.106  1.00  0.00     0.050 A 
ATOM     12  C   UNL     1      96.762  81.958  77.917  1.00  0.00     0.009 A 
BRANCH   8  13
ATOM     13  O   UNL     1      97.445  82.102  73.781  1.00  0.00    -0.493 OA
ATOM     14  C   UNL     1      97.242  80.861  73.080  1.00  0.00     0.278 C 
ENDBRANCH   8  13
BRANCH   9  15
ATOM     15  O   UNL     1      95.464  83.692  74.947  1.00  0.00    -0.504 OA
ATOM     16  H   UNL     1      94.790  83.184  74.489  1.00  0.00     0.293 HD
ENDBRANCH   9  15
ENDBRANCH   6   7
ENDBRANCH   3   6
ENDBRANCH   1   2
BRANCH   1  17
ATOM     17  C   UNL     1     102.348  80.078  76.256  1.00  0.00     0.010 C 
BRANCH  17  18
ATOM     18  C   UNL     1     101.836  79.218  75.066  1.00  0.00     0.005 C 
BRANCH  18  19
ATOM     19  C   UNL     1     100.924  80.025  74.103  1.00  0.00     0.027 C 
BRANCH  19  20
ATOM     20  C   UNL     1     101.069  81.461  74.287  1.00  0.00    -0.031 C 
ATOM     21  C   UNL     1     100.918  82.368  73.305  1.00  0.00    -0.028 C 
BRANCH  21  22
ATOM     22  C   UNL     1     101.048  83.809  73.518  1.00  0.00     0.005 C 
ATOM     23  C   UNL     1     102.397  84.364  72.982  1.00  0.00     0.012 C 
ATOM     24  C   UNL     1      99.850  84.556  72.877  1.00  0.00     0.012 C 
ENDBRANCH  21  22
ENDBRANCH  19  20
ENDBRANCH  18  19
ENDBRANCH  17  18
ENDBRANCH   1  17
TORSDOF 10
ENDMDL
MODEL 5
REMARK VINA RESULT:    -5.866     14.766     18.257
REMARK INTER + INTRA:          -9.742
REMARK INTER:                  -9.059
REMARK INTRA:                  -0.684
REMARK UNBOUND:                -0.619
REMARK SMILES COc1cc(CNC(=O)CCCC/C=C/C(C)C)ccc1O
REMARK SMILES IDX 10 1 8 2 7 3 9 5 6 6 5 7 3 8 21 9 4 10 20 11 19 12 2 13 1 14
REMARK SMILES IDX 22 15 11 17 12 18 13 19 14 20 15 21 16 22 17 23 18 24
REMARK H PARENT 7 4 22 16
REMARK Flexibility Score: inf
ROOT
ATOM      1  C   UNL     1      94.038  98.376  73.435  1.00  0.00     0.100 C 
ENDROOT
BRANCH   1   2
ATOM      2  C   UNL     1      94.915  97.319  73.975  1.00  0.00     0.220 C 
ATOM      3  N   UNL     1      94.982  97.095  75.317  1.00  0.00    -0.352 N 
ATOM      4  H   UNL     1      94.415  97.713  75.882  1.00  0.00     0.163 HD
ATOM      5  O   UNL     1      95.574  96.625  73.164  1.00  0.00    -0.275 OA
BRANCH   3   6
ATOM      6  C   UNL     1      95.773  96.080  75.936  1.00  0.00     0.151 C 
BRANCH   6   7
ATOM      7  C   UNL     1      94.939  95.163  76.759  1.00  0.00    -0.025 A 
ATOM      8  C   UNL     1      92.988  93.676  76.974  1.00  0.00     0.160 A 
ATOM      9  C   UNL     1      93.347  93.396  78.309  1.00  0.00     0.157 A 
ATOM     10  C   UNL     1      93.785  94.557  76.213  1.00  0.00     0.056 A 
ATOM     11  C   UNL     1      94.484  94.008  78.873  1.00  0.00     0.050 A 
ATOM     12  C   UNL     1      95.280  94.877  78.102  1.00  0.00     0.009 A 
BRANCH   8  13
ATOM     13  O   UNL     1      91.846  93.134  76.441  1.00  0.00    -0.493 OA
ATOM     14  C   UNL     1      90.871  94.110  76.028  1.00  0.00     0.278 C 
ENDBRANCH   8  13
BRANCH   9  15
ATOM     15  O   UNL     1      92.609  92.542  79.064  1.00  0.00    -0.504 OA
ATOM     16  H   UNL     1      92.932  92.553  79.968  1.00  0.00     0.293 HD
ENDBRANCH   9  15
ENDBRANCH   6   7
ENDBRANCH   3   6
ENDBRANCH   1   2
BRANCH   1  17
ATOM     17  C   UNL     1      94.388  98.714  71.961  1.00  0.00     0.010 C 
BRANCH  17  18
ATOM     18  C   UNL     1      93.511  99.857  71.377  1.00  0.00     0.005 C 
BRANCH  18  19
ATOM     19  C   UNL     1      92.010  99.695  71.742  1.00  0.00     0.027 C 
BRANCH  19  20
ATOM     20  C   UNL     1      91.174  99.538  70.562  1.00  0.00    -0.031 C 
ATOM     21  C   UNL     1      90.193  98.624  70.447  1.00  0.00    -0.028 C 
BRANCH  21  22
ATOM     22  C   UNL     1      89.351  98.497  69.258  1.00  0.00     0.005 C 
ATOM     23  C   UNL     1      89.154  99.854  68.527  1.00  0.00     0.012 C 
ATOM     24  C   UNL     1      89.938  97.431  68.297  1.00  0.00     0.012 C 
ENDBRANCH  21  22
ENDBRANCH  19  20
ENDBRANCH  18  19
ENDBRANCH  17  18
ENDBRANCH   1  17
TORSDOF 10
ENDMDL
MODEL 6
REMARK VINA RESULT:    -5.674     15.918     19.519
REMARK INTER + INTRA:          -9.443
REMARK INTER:                  -8.783
REMARK INTRA:                  -0.660
REMARK UNBOUND:                -0.619
REMARK SMILES COc1cc(CNC(=O)CCCC/C=C/C(C)C)ccc1O
REMARK SMILES IDX 10 1 8 2 7 3 9 5 6 6 5 7 3 8 21 9 4 10 20 11 19 12 2 13 1 14
REMARK SMILES IDX 22 15 11 17 12 18 13 19 14 20 15 21 16 22 17 23 18 24
REMARK H PARENT 7 4 22 16
REMARK Flexibility Score: inf
ROOT
ATOM      1  C   UNL     1      94.029  99.789  72.065  1.00  0.00     0.100 C 
ENDROOT
BRANCH   1   2
ATOM      2  C   UNL     1      94.830  98.635  72.518  1.00  0.00     0.220 C 
ATOM      3  N   UNL     1      94.808  98.250  73.825  1.00  0.00    -0.352 N 
ATOM      4  H   UNL     1      94.234  98.822  74.429  1.00  0.00     0.163 HD
ATOM      5  O   UNL     1      95.507  98.012  71.665  1.00  0.00    -0.275 OA
BRANCH   3   6
ATOM      6  C   UNL     1      95.520  97.132  74.357  1.00  0.00     0.151 C 
BRANCH   6   7
ATOM      7  C   UNL     1      94.683  96.356  75.313  1.00  0.00    -0.025 A 
ATOM      8  C   UNL     1      94.488  95.014  77.368  1.00  0.00     0.160 A 
ATOM      9  C   UNL     1      93.099  94.889  77.155  1.00  0.00     0.157 A 
ATOM     10  C   UNL     1      95.266  95.743  76.445  1.00  0.00     0.056 A 
ATOM     11  C   UNL     1      92.507  95.477  76.020  1.00  0.00     0.050 A 
ATOM     12  C   UNL     1      93.290  96.214  75.111  1.00  0.00     0.009 A 
BRANCH   8  13
ATOM     13  O   UNL     1      95.079  94.388  78.436  1.00  0.00    -0.493 OA
ATOM     14  C   UNL     1      95.709  93.136  78.106  1.00  0.00     0.278 C 
ENDBRANCH   8  13
BRANCH   9  15
ATOM     15  O   UNL     1      92.320  94.205  78.032  1.00  0.00    -0.504 OA
ATOM     16  H   UNL     1      91.854  94.824  78.598  1.00  0.00     0.293 HD
ENDBRANCH   9  15
ENDBRANCH   6   7
ENDBRANCH   3   6
ENDBRANCH   1   2
BRANCH   1  17
ATOM     17  C   UNL     1      92.506  99.507  72.175  1.00  0.00     0.010 C 
BRANCH  17  18
ATOM     18  C   UNL     1      91.817  99.353  70.790  1.00  0.00     0.005 C 
BRANCH  18  19
ATOM     19  C   UNL     1      90.272  99.473  70.882  1.00  0.00     0.027 C 
BRANCH  19  20
ATOM     20  C   UNL     1      89.675  99.836  69.606  1.00  0.00    -0.031 C 
ATOM     21  C   UNL     1      90.196  99.514  68.408  1.00  0.00    -0.028 C 
BRANCH  21  22
ATOM     22  C   UNL     1      89.567  99.873  67.137  1.00  0.00     0.005 C 
ATOM     23  C   UNL     1      90.594 100.414  66.104  1.00  0.00     0.012 C 
ATOM     24  C   UNL     1      88.791  98.660  66.561  1.00  0.00     0.012 C 
ENDBRANCH  21  22
ENDBRANCH  19  20
ENDBRANCH  18  19
ENDBRANCH  17  18
ENDBRANCH   1  17
TORSDOF 10
ENDMDL
MODEL 7
REMARK VINA RESULT:    -5.612     30.317     33.747
REMARK INTER + INTRA:          -9.347
REMARK INTER:                  -7.283
REMARK INTRA:                  -2.064
REMARK UNBOUND:                -0.619
REMARK SMILES COc1cc(CNC(=O)CCCC/C=C/C(C)C)ccc1O
REMARK SMILES IDX 10 1 8 2 7 3 9 5 6 6 5 7 3 8 21 9 4 10 20 11 19 12 2 13 1 14
REMARK SMILES IDX 22 15 11 17 12 18 13 19 14 20 15 21 16 22 17 23 18 24
REMARK H PARENT 7 4 22 16
REMARK Flexibility Score: inf
ROOT
ATOM      1  C   UNL     1      60.924  83.622  72.943  1.00  0.00     0.100 C 
ENDROOT
BRANCH   1   2
ATOM      2  C   UNL     1      61.858  84.695  72.550  1.00  0.00     0.220 C 
ATOM      3  N   UNL     1      62.244  84.834  71.251  1.00  0.00    -0.352 N 
ATOM      4  H   UNL     1      61.863  84.145  70.617  1.00  0.00     0.163 HD
ATOM      5  O   UNL     1      62.263  85.483  73.439  1.00  0.00    -0.275 OA
BRANCH   3   6
ATOM      6  C   UNL     1      63.115  85.855  70.763  1.00  0.00     0.151 C 
BRANCH   6   7
ATOM      7  C   UNL     1      64.482  85.328  70.501  1.00  0.00    -0.025 A 
ATOM      8  C   UNL     1      66.784  84.908  71.266  1.00  0.00     0.160 A 
ATOM      9  C   UNL     1      67.088  84.310  70.026  1.00  0.00     0.157 A 
ATOM     10  C   UNL     1      65.486  85.413  71.492  1.00  0.00     0.056 A 
ATOM     11  C   UNL     1      66.103  84.236  69.022  1.00  0.00     0.050 A 
ATOM     12  C   UNL     1      64.806  84.732  69.260  1.00  0.00     0.009 A 
BRANCH   8  13
ATOM     13  O   UNL     1      67.759  85.041  72.223  1.00  0.00    -0.493 OA
ATOM     14  C   UNL     1      67.310  85.677  73.433  1.00  0.00     0.278 C 
ENDBRANCH   8  13
BRANCH   9  15
ATOM     15  O   UNL     1      68.324  83.802  69.782  1.00  0.00    -0.504 OA
ATOM     16  H   UNL     1      68.987  84.476  69.952  1.00  0.00     0.293 HD
ENDBRANCH   9  15
ENDBRANCH   6   7
ENDBRANCH   3   6
ENDBRANCH   1   2
BRANCH   1  17
ATOM     17  C   UNL     1      61.641  82.506  73.750  1.00  0.00     0.010 C 
BRANCH  17  18
ATOM     18  C   UNL     1      62.081  81.307  72.865  1.00  0.00     0.005 C 
BRANCH  18  19
ATOM     19  C   UNL     1      63.492  81.511  72.251  1.00  0.00     0.027 C 
BRANCH  19  20
ATOM     20  C   UNL     1      63.447  81.626  70.802  1.00  0.00    -0.031 C 
ATOM     21  C   UNL     1      62.315  81.593  70.075  1.00  0.00    -0.028 C 
BRANCH  21  22
ATOM     22  C   UNL     1      62.291  81.730  68.619  1.00  0.00     0.005 C 
ATOM     23  C   UNL     1      61.750  83.114  68.167  1.00  0.00     0.012 C 
ATOM     24  C   UNL     1      63.704  81.470  68.034  1.00  0.00     0.012 C 
ENDBRANCH  21  22
ENDBRANCH  19  20
ENDBRANCH  18  19
ENDBRANCH  17  18
ENDBRANCH   1  17
TORSDOF 10
ENDMDL
MODEL 8
REMARK VINA RESULT:    -5.579     12.868     14.613
REMARK INTER + INTRA:          -9.295
REMARK INTER:                  -8.711
REMARK INTRA:                  -0.584
REMARK UNBOUND:                -0.619
REMARK SMILES COc1cc(CNC(=O)CCCC/C=C/C(C)C)ccc1O
REMARK SMILES IDX 10 1 8 2 7 3 9 5 6 6 5 7 3 8 21 9 4 10 20 11 19 12 2 13 1 14
REMARK SMILES IDX 22 15 11 17 12 18 13 19 14 20 15 21 16 22 17 23 18 24
REMARK H PARENT 7 4 22 16
REMARK Flexibility Score: inf
ROOT
ATOM      1  C   UNL     1      96.916  96.056  79.097  1.00  0.00     0.100 C 
ENDROOT
BRANCH   1   2
ATOM      2  C   UNL     1      96.315  95.690  77.800  1.00  0.00     0.220 C 
ATOM      3  N   UNL     1      95.551  94.568  77.683  1.00  0.00    -0.352 N 
ATOM      4  H   UNL     1      95.462  94.023  78.530  1.00  0.00     0.163 HD
ATOM      5  O   UNL     1      96.510  96.452  76.822  1.00  0.00    -0.275 OA
BRANCH   3   6
ATOM      6  C   UNL     1      94.901  94.146  76.484  1.00  0.00     0.151 C 
BRANCH   6   7
ATOM      7  C   UNL     1      93.434  94.391  76.541  1.00  0.00    -0.025 A 
ATOM      8  C   UNL     1      91.131  93.640  76.102  1.00  0.00     0.160 A 
ATOM      9  C   UNL     1      90.634  94.835  76.661  1.00  0.00     0.157 A 
ATOM     10  C   UNL     1      92.525  93.430  76.045  1.00  0.00     0.056 A 
ATOM     11  C   UNL     1      91.529  95.811  77.141  1.00  0.00     0.050 A 
ATOM     12  C   UNL     1      92.919  95.588  77.092  1.00  0.00     0.009 A 
BRANCH   8  13
ATOM     13  O   UNL     1      90.266  92.716  75.573  1.00  0.00    -0.493 OA
ATOM     14  C   UNL     1      90.250  91.459  76.273  1.00  0.00     0.278 C 
ENDBRANCH   8  13
BRANCH   9  15
ATOM     15  O   UNL     1      89.297  95.063  76.742  1.00  0.00    -0.504 OA
ATOM     16  H   UNL     1      88.923  94.526  77.444  1.00  0.00     0.293 HD
ENDBRANCH   9  15
ENDBRANCH   6   7
ENDBRANCH   3   6
ENDBRANCH   1   2
BRANCH   1  17
ATOM     17  C   UNL     1      97.823  94.922  79.647  1.00  0.00     0.010 C 
BRANCH  17  18
ATOM     18  C   UNL     1      97.264  94.276  80.946  1.00  0.00     0.005 C 
BRANCH  18  19
ATOM     19  C   UNL     1      98.364  93.549  81.765  1.00  0.00     0.027 C 
BRANCH  19  20
ATOM     20  C   UNL     1      99.373  94.470  82.266  1.00  0.00    -0.031 C 
ATOM     21  C   UNL     1      99.606  94.699  83.571  1.00  0.00    -0.028 C 
BRANCH  21  22
ATOM     22  C   UNL     1     100.639  95.615  84.053  1.00  0.00     0.005 C 
ATOM     23  C   UNL     1     100.039  96.921  84.646  1.00  0.00     0.012 C 
ATOM     24  C   UNL     1     101.546  94.903  85.090  1.00  0.00     0.012 C 
ENDBRANCH  21  22
ENDBRANCH  19  20
ENDBRANCH  18  19
ENDBRANCH  17  18
ENDBRANCH   1  17
TORSDOF 10
ENDMDL
MODEL 9
REMARK VINA RESULT:    -5.519      5.090      7.972
REMARK INTER + INTRA:          -9.202
REMARK INTER:                  -7.614
REMARK INTRA:                  -1.588
REMARK UNBOUND:                -0.619
REMARK SMILES COc1cc(CNC(=O)CCCC/C=C/C(C)C)ccc1O
REMARK SMILES IDX 10 1 8 2 7 3 9 5 6 6 5 7 3 8 21 9 4 10 20 11 19 12 2 13 1 14
REMARK SMILES IDX 22 15 11 17 12 18 13 19 14 20 15 21 16 22 17 23 18 24
REMARK H PARENT 7 4 22 16
REMARK Flexibility Score: inf
ROOT
ATOM      1  C   UNL     1     101.675  79.002  77.235  1.00  0.00     0.100 C 
ENDROOT
BRANCH   1   2
ATOM      2  C   UNL     1     100.675  79.765  78.008  1.00  0.00     0.220 C 
ATOM      3  N   UNL     1      99.402  79.906  77.542  1.00  0.00    -0.352 N 
ATOM      4  H   UNL     1      99.227  79.478  76.643  1.00  0.00     0.163 HD
ATOM      5  O   UNL     1     101.025  80.254  79.109  1.00  0.00    -0.275 OA
BRANCH   3   6
ATOM      6  C   UNL     1      98.355  80.595  78.226  1.00  0.00     0.151 C 
BRANCH   6   7
ATOM      7  C   UNL     1      97.608  81.501  77.312  1.00  0.00    -0.025 A 
ATOM      8  C   UNL     1      97.301  82.489  75.078  1.00  0.00     0.160 A 
ATOM      9  C   UNL     1      96.183  83.209  75.549  1.00  0.00     0.157 A 
ATOM     10  C   UNL     1      98.003  81.645  75.962  1.00  0.00     0.056 A 
ATOM     11  C   UNL     1      95.790  83.091  76.897  1.00  0.00     0.050 A 
ATOM     12  C   UNL     1      96.490  82.237  77.770  1.00  0.00     0.009 A 
BRANCH   8  13
ATOM     13  O   UNL     1      97.727  82.651  73.784  1.00  0.00    -0.493 OA
ATOM     14  C   UNL     1      98.826  83.570  73.639  1.00  0.00     0.278 C 
ENDBRANCH   8  13
BRANCH   9  15
ATOM     15  O   UNL     1      95.477  84.021  74.720  1.00  0.00    -0.504 OA
ATOM     16  H   UNL     1      96.074  84.437  74.094  1.00  0.00     0.293 HD
ENDBRANCH   9  15
ENDBRANCH   6   7
ENDBRANCH   3   6
ENDBRANCH   1   2
BRANCH   1  17
ATOM     17  C   UNL     1     102.410  79.902  76.205  1.00  0.00     0.010 C 
BRANCH  17  18
ATOM     18  C   UNL     1     102.032  79.570  74.734  1.00  0.00     0.005 C 
BRANCH  18  19
ATOM     19  C   UNL     1     100.999  80.570  74.150  1.00  0.00     0.027 C 
BRANCH  19  20
ATOM     20  C   UNL     1      99.977  79.901  73.359  1.00  0.00    -0.031 C 
ATOM     21  C   UNL     1      99.005  79.129  73.878  1.00  0.00    -0.028 C 
BRANCH  21  22
ATOM     22  C   UNL     1      97.975  78.482  73.065  1.00  0.00     0.005 C 
ATOM     23  C   UNL     1      97.311  77.284  73.800  1.00  0.00     0.012 C 
ATOM     24  C   UNL     1      96.910  79.519  72.624  1.00  0.00     0.012 C 
ENDBRANCH  21  22
ENDBRANCH  19  20
ENDBRANCH  18  19
ENDBRANCH  17  18
ENDBRANCH   1  17
TORSDOF 10
ENDMDL
MODEL 10
REMARK VINA RESULT:    -5.427     18.357     21.485
REMARK INTER + INTRA:          -9.059
REMARK INTER:                  -8.086
REMARK INTRA:                  -0.973
REMARK UNBOUND:                -0.619
REMARK SMILES COc1cc(CNC(=O)CCCC/C=C/C(C)C)ccc1O
REMARK SMILES IDX 10 1 8 2 7 3 9 5 6 6 5 7 3 8 21 9 4 10 20 11 19 12 2 13 1 14
REMARK SMILES IDX 22 15 11 17 12 18 13 19 14 20 15 21 16 22 17 23 18 24
REMARK H PARENT 7 4 22 16
REMARK Flexibility Score: inf
ROOT
ATOM      1  C   UNL     1      94.488 101.500  71.034  1.00  0.00     0.100 C 
ENDROOT
BRANCH   1   2
ATOM      2  C   UNL     1      93.942 101.620  69.668  1.00  0.00     0.220 C 
ATOM      3  N   UNL     1      92.692 102.122  69.465  1.00  0.00    -0.352 N 
ATOM      4  H   UNL     1      92.190 102.369  70.306  1.00  0.00     0.163 HD
ATOM      5  O   UNL     1      94.669 101.271  68.707  1.00  0.00    -0.275 OA
BRANCH   3   6
ATOM      6  C   UNL     1      92.086 102.309  68.185  1.00  0.00     0.151 C 
BRANCH   6   7
ATOM      7  C   UNL     1      91.244 101.142  67.804  1.00  0.00    -0.025 A 
ATOM      8  C   UNL     1      89.749  99.295  68.449  1.00  0.00     0.160 A 
ATOM      9  C   UNL     1      89.617  98.928  67.094  1.00  0.00     0.157 A 
ATOM     10  C   UNL     1      90.562 100.396  68.791  1.00  0.00     0.056 A 
ATOM     11  C   UNL     1      90.306  99.650  66.100  1.00  0.00     0.050 A 
ATOM     12  C   UNL     1      91.106 100.756  66.451  1.00  0.00     0.009 A 
BRANCH   8  13
ATOM     13  O   UNL     1      89.133  98.554  69.426  1.00  0.00    -0.493 OA
ATOM     14  C   UNL     1      89.858  98.503  70.668  1.00  0.00     0.278 C 
ENDBRANCH   8  13
BRANCH   9  15
ATOM     15  O   UNL     1      88.832  97.881  66.729  1.00  0.00    -0.504 OA
ATOM     16  H   UNL     1      89.253  97.399  66.014  1.00  0.00     0.293 HD
ENDBRANCH   9  15
ENDBRANCH   6   7
ENDBRANCH   3   6
ENDBRANCH   1   2
BRANCH   1  17
ATOM     17  C   UNL     1      93.428 101.863  72.108  1.00  0.00     0.010 C 
BRANCH  17  18
ATOM     18  C   UNL     1      93.294 100.781  73.216  1.00  0.00     0.005 C 
BRANCH  18  19
ATOM     19  C   UNL     1      93.005  99.371  72.633  1.00  0.00     0.027 C 
BRANCH  19  20
ATOM     20  C   UNL     1      93.980  98.385  73.076  1.00  0.00    -0.031 C 
ATOM     21  C   UNL     1      93.785  97.538  74.102  1.00  0.00    -0.028 C 
BRANCH  21  22
ATOM     22  C   UNL     1      94.772  96.541  74.518  1.00  0.00     0.005 C 
ATOM     23  C   UNL     1      94.119  95.174  74.864  1.00  0.00     0.012 C 
ATOM     24  C   UNL     1      95.858  96.374  73.424  1.00  0.00     0.012 C 
ENDBRANCH  21  22
ENDBRANCH  19  20
ENDBRANCH  18  19
ENDBRANCH  17  18
ENDBRANCH   1  17
TORSDOF 10
ENDMDL
