MODEL 1
REMARK VINA RESULT:    -7.188      0.000      0.000
REMARK INTER + INTRA:         -13.594
REMARK INTER:                 -12.230
REMARK INTRA:                  -1.364
REMARK UNBOUND:                -1.364
REMARK SMILES C=C(C)[C@]12C[C@@H](C)[C@@]34O[C@](Cc5ccccc5)(O[C@@H]1[C@@H]3C=C(COC(=O)Cc1ccc(O)cc1)C[C@]1(O)C(=O)C(C)=C[C@@H]41)O2
REMARK SMILES IDX 23 1 22 2 21 3 20 4 9 5 8 6 10 7 6 8 18 10 44 11 19 12 5 13
REMARK SMILES IDX 7 14 4 15 11 16 12 17 13 18 17 19 14 20 16 21 15 22 2 23
REMARK SMILES IDX 3 24 1 25 35 26 36 27 43 28 38 29 42 30 39 32 40 33 41 34
REMARK SMILES IDX 37 35 24 37 25 38 26 39 27 40 28 41 29 42 34 43 30 44 33 45
REMARK SMILES IDX 31 46 32 47
REMARK H PARENT 37 36 32 48
REMARK Flexibility Score: 90.00
ROOT
ATOM      1  C   UNL     1      78.463  92.759  90.919  1.00  0.00     0.264 C 
ENDROOT
BRANCH   1   2
ATOM      2  C   UNL     1      78.707  91.341  90.458  1.00  0.00    -0.033 C 
ATOM      3  C   UNL     1      79.357  91.129  89.295  1.00  0.00    -0.015 C 
BRANCH   3   4
ATOM      4  C   UNL     1      79.657  89.820  88.581  1.00  0.00     0.078 C 
ATOM      5  O   UNL     1      81.894  89.084  89.336  1.00  0.00    -0.319 OA
ATOM      6  C   UNL     1      80.479  88.720  89.349  1.00  0.00     0.095 CG0
ATOM      7  C   UNL     1      82.389  89.585  88.079  1.00  0.00     0.289 C 
ATOM      8  C   UNL     1      80.283  87.350  88.578  1.00  0.00     0.023 C 
ATOM      9  G   UNL     1      80.098  88.698  90.858  1.00  0.00     0.000 G0
ATOM     10  O   UNL     1      81.653  90.728  87.652  1.00  0.00    -0.320 OA
ATOM     11  O   UNL     1      82.263  88.631  87.027  1.00  0.00    -0.313 OA
ATOM     12  C   UNL     1      80.420  90.102  87.264  1.00  0.00     0.170 C 
ATOM     13  C   UNL     1      80.131  87.574  87.043  1.00  0.00     0.049 C 
ATOM     14  C   UNL     1      81.366  86.287  88.833  1.00  0.00     0.011 C 
ATOM     15  C   UNL     1      80.906  88.805  86.571  1.00  0.00     0.122 C 
BRANCH   7  16
ATOM     16  C   UNL     1      83.849  89.951  88.256  1.00  0.00     0.135 C 
BRANCH  16  17
ATOM     17  C   UNL     1      84.455  90.494  86.985  1.00  0.00    -0.040 A 
ATOM     18  C   UNL     1      85.302  89.694  86.219  1.00  0.00     0.004 A 
ATOM     19  C   UNL     1      84.166  91.796  86.577  1.00  0.00     0.004 A 
ATOM     20  C   UNL     1      85.862  90.196  85.043  1.00  0.00     0.000 A 
ATOM     21  C   UNL     1      84.726  92.298  85.402  1.00  0.00     0.000 A 
ATOM     22  C   UNL     1      85.573  91.498  84.636  1.00  0.00     0.000 A 
ENDBRANCH  16  17
ENDBRANCH   7  16
BRANCH  15  23
ATOM     23  C   UNL     1      80.924  88.937  85.083  1.00  0.00    -0.046 C 
ATOM     24  C   UNL     1      82.275  89.076  84.447  1.00  0.00     0.042 C 
ATOM     25  C   UNL     1      79.796  88.930  84.356  1.00  0.00     0.010 C 
ENDBRANCH  15  23
ENDBRANCH   3   4
BRANCH   2  26
ATOM     26  C   UNL     1      78.165  90.300  91.419  1.00  0.00     0.078 C 
BRANCH  26  27
ATOM     27  C   UNL     1      78.566  88.847  91.174  1.00  0.00     0.140 C 
ATOM     28  C   UNL     1      80.071  88.700  90.867  1.00  0.00     0.086 CG0
ATOM     29  C   UNL     1      78.400  87.983  92.406  1.00  0.00     0.190 C 
ATOM     30  C   UNL     1      80.493  87.543  91.728  1.00  0.00    -0.010 C 
ATOM     31  G   UNL     1      80.470  88.718  89.363  1.00  0.00     0.000 G0
ATOM     32  O   UNL     1      77.404  87.941  93.113  1.00  0.00    -0.291 OA
ATOM     33  C   UNL     1      79.588  87.134  92.622  1.00  0.00    -0.008 C 
ATOM     34  C   UNL     1      79.685  86.097  93.670  1.00  0.00     0.048 C 
BRANCH  27  35
ATOM     35  O   UNL     1      77.724  88.231  90.213  1.00  0.00    -0.381 OA
ATOM     36  H   UNL     1      78.269  87.651  89.655  1.00  0.00     0.212 HD
ENDBRANCH  27  35
ENDBRANCH  26  27
ENDBRANCH   2  26
ENDBRANCH   1   2
BRANCH   1  37
ATOM     37  O   UNL     1      79.398  93.089  91.924  1.00  0.00    -0.461 OA
BRANCH  37  38
ATOM     38  C   UNL     1      80.356  94.016  91.582  1.00  0.00     0.310 C 
ATOM     39  O   UNL     1      81.461  94.106  92.097  1.00  0.00    -0.252 OA
BRANCH  38  40
ATOM     40  C   UNL     1      79.830  94.900  90.477  1.00  0.00     0.158 C 
BRANCH  40  41
ATOM     41  C   UNL     1      80.853  95.173  89.405  1.00  0.00    -0.037 A 
ATOM     42  C   UNL     1      80.858  96.400  88.742  1.00  0.00     0.008 A 
ATOM     43  C   UNL     1      81.796  94.200  89.076  1.00  0.00     0.008 A 
ATOM     44  C   UNL     1      81.805  96.653  87.749  1.00  0.00     0.046 A 
ATOM     45  C   UNL     1      82.744  94.453  88.084  1.00  0.00     0.046 A 
ATOM     46  C   UNL     1      82.748  95.679  87.421  1.00  0.00     0.115 A 
BRANCH  46  47
ATOM     47  O   UNL     1      83.672  95.926  86.452  1.00  0.00    -0.508 OA
ATOM     48  H   UNL     1      84.396  95.282  86.535  1.00  0.00     0.293 HD
ENDBRANCH  46  47
ENDBRANCH  40  41
ENDBRANCH  38  40
ENDBRANCH  37  38
ENDBRANCH   1  37
TORSDOF 10
ENDMDL
MODEL 2
REMARK VINA RESULT:    -6.700     17.599     21.641
REMARK INTER + INTRA:         -12.765
REMARK INTER:                 -12.066
REMARK INTRA:                  -0.699
REMARK UNBOUND:                -1.364
REMARK SMILES C=C(C)[C@]12C[C@@H](C)[C@@]34O[C@](Cc5ccccc5)(O[C@@H]1[C@@H]3C=C(COC(=O)Cc1ccc(O)cc1)C[C@]1(O)C(=O)C(C)=C[C@@H]41)O2
REMARK SMILES IDX 23 1 22 2 21 3 20 4 9 5 8 6 10 7 6 8 18 10 44 11 19 12 5 13
REMARK SMILES IDX 7 14 4 15 11 16 12 17 13 18 17 19 14 20 16 21 15 22 2 23
REMARK SMILES IDX 3 24 1 25 35 26 36 27 43 28 38 29 42 30 39 32 40 33 41 34
REMARK SMILES IDX 37 35 24 37 25 38 26 39 27 40 28 41 29 42 34 43 30 44 33 45
REMARK SMILES IDX 31 46 32 47
REMARK H PARENT 37 36 32 48
REMARK Flexibility Score: 90.00
ROOT
ATOM      1  C   UNL     1      94.030  93.828  76.476  1.00  0.00     0.264 C 
ENDROOT
BRANCH   1   2
ATOM      2  C   UNL     1      95.278  94.681  76.496  1.00  0.00    -0.033 C 
ATOM      3  C   UNL     1      95.674  95.295  75.362  1.00  0.00    -0.015 C 
BRANCH   3   4
ATOM      4  C   UNL     1      96.916  96.133  75.102  1.00  0.00     0.078 C 
ATOM      5  O   UNL     1      96.289  98.492  75.498  1.00  0.00    -0.319 OA
ATOM      6  C   UNL     1      97.151  97.415  75.982  1.00  0.00     0.095 CG0
ATOM      7  C   UNL     1      96.214  98.624  74.066  1.00  0.00     0.289 C 
ATOM      8  C   UNL     1      98.667  97.842  75.812  1.00  0.00     0.023 C 
ATOM      9  G   UNL     1      96.685  97.174  77.447  1.00  0.00     0.000 G0
ATOM     10  O   UNL     1      95.765  97.416  73.458  1.00  0.00    -0.320 OA
ATOM     11  O   UNL     1      97.483  98.902  73.479  1.00  0.00    -0.313 OA
ATOM     12  C   UNL     1      96.935  96.600  73.626  1.00  0.00     0.170 C 
ATOM     13  C   UNL     1      99.196  97.518  74.381  1.00  0.00     0.049 C 
ATOM     14  C   UNL     1      98.984  99.309  76.151  1.00  0.00     0.011 C 
ATOM     15  C   UNL     1      98.083  97.598  73.335  1.00  0.00     0.122 C 
BRANCH   7  16
ATOM     16  C   UNL     1      95.251  99.749  73.742  1.00  0.00     0.135 C 
BRANCH  16  17
ATOM     17  C   UNL     1      94.558  99.539  72.419  1.00  0.00    -0.040 A 
ATOM     18  C   UNL     1      95.075 100.119  71.261  1.00  0.00     0.004 A 
ATOM     19  C   UNL     1      93.401  98.765  72.355  1.00  0.00     0.004 A 
ATOM     20  C   UNL     1      94.434  99.924  70.037  1.00  0.00     0.000 A 
ATOM     21  C   UNL     1      92.759  98.570  71.131  1.00  0.00     0.000 A 
ATOM     22  C   UNL     1      93.276  99.149  69.973  1.00  0.00     0.000 A 
ENDBRANCH  16  17
ENDBRANCH   7  16
BRANCH  15  23
ATOM     23  C   UNL     1      98.598  97.469  71.938  1.00  0.00    -0.046 C 
ATOM     24  C   UNL     1      99.860  96.676  71.768  1.00  0.00     0.042 C 
ATOM     25  C   UNL     1      97.969  98.031  70.896  1.00  0.00     0.010 C 
ENDBRANCH  15  23
ENDBRANCH   3   4
BRANCH   2  26
ATOM     26  C   UNL     1      95.940  94.735  77.859  1.00  0.00     0.078 C 
BRANCH  26  27
ATOM     27  C   UNL     1      97.054  95.762  78.054  1.00  0.00     0.140 C 
ATOM     28  C   UNL     1      96.686  97.140  77.464  1.00  0.00     0.086 CG0
ATOM     29  C   UNL     1      97.295  96.087  79.513  1.00  0.00     0.190 C 
ATOM     30  C   UNL     1      97.083  98.102  78.550  1.00  0.00    -0.010 C 
ATOM     31  G   UNL     1      97.149  97.406  76.002  1.00  0.00     0.000 G0
ATOM     32  O   UNL     1      97.435  95.266  80.407  1.00  0.00    -0.291 OA
ATOM     33  C   UNL     1      97.403  97.543  79.721  1.00  0.00    -0.008 C 
ATOM     34  C   UNL     1      97.755  98.173  81.010  1.00  0.00     0.048 C 
BRANCH  27  35
ATOM     35  O   UNL     1      98.303  95.263  77.607  1.00  0.00    -0.381 OA
ATOM     36  H   UNL     1      98.952  95.376  78.323  1.00  0.00     0.212 HD
ENDBRANCH  27  35
ENDBRANCH  26  27
ENDBRANCH   2  26
ENDBRANCH   1   2
BRANCH   1  37
ATOM     37  O   UNL     1      92.924  94.612  76.871  1.00  0.00    -0.461 OA
BRANCH  37  38
ATOM     38  C   UNL     1      91.803  94.524  76.078  1.00  0.00     0.310 C 
ATOM     39  O   UNL     1      90.664  94.780  76.441  1.00  0.00    -0.252 OA
BRANCH  38  40
ATOM     40  C   UNL     1      92.199  94.064  74.695  1.00  0.00     0.158 C 
BRANCH  40  41
ATOM     41  C   UNL     1      91.314  92.965  74.166  1.00  0.00    -0.037 A 
ATOM     42  C   UNL     1      91.613  91.632  74.448  1.00  0.00     0.008 A 
ATOM     43  C   UNL     1      90.198  93.280  73.392  1.00  0.00     0.008 A 
ATOM     44  C   UNL     1      90.795  90.614  73.957  1.00  0.00     0.046 A 
ATOM     45  C   UNL     1      89.379  92.262  72.901  1.00  0.00     0.046 A 
ATOM     46  C   UNL     1      89.677  90.930  73.184  1.00  0.00     0.115 A 
BRANCH  46  47
ATOM     47  O   UNL     1      88.880  89.937  72.704  1.00  0.00    -0.508 OA
ATOM     48  H   UNL     1      89.341  89.485  71.977  1.00  0.00     0.293 HD
ENDBRANCH  46  47
ENDBRANCH  40  41
ENDBRANCH  38  40
ENDBRANCH  37  38
ENDBRANCH   1  37
TORSDOF 10
ENDMDL
MODEL 3
REMARK VINA RESULT:    -6.641     27.216     29.478
REMARK INTER + INTRA:         -12.664
REMARK INTER:                 -12.112
REMARK INTRA:                  -0.552
REMARK UNBOUND:                -1.364
REMARK SMILES C=C(C)[C@]12C[C@@H](C)[C@@]34O[C@](Cc5ccccc5)(O[C@@H]1[C@@H]3C=C(COC(=O)Cc1ccc(O)cc1)C[C@]1(O)C(=O)C(C)=C[C@@H]41)O2
REMARK SMILES IDX 23 1 22 2 21 3 20 4 9 5 8 6 10 7 6 8 18 10 44 11 19 12 5 13
REMARK SMILES IDX 7 14 4 15 11 16 12 17 13 18 17 19 14 20 16 21 15 22 2 23
REMARK SMILES IDX 3 24 1 25 35 26 36 27 43 28 38 29 42 30 39 32 40 33 41 34
REMARK SMILES IDX 37 35 24 37 25 38 26 39 27 40 28 41 29 42 34 43 30 44 33 45
REMARK SMILES IDX 31 46 32 47
REMARK H PARENT 37 36 32 48
REMARK Flexibility Score: 90.00
ROOT
ATOM      1  C   UNL     1      84.788  70.088  71.604  1.00  0.00     0.264 C 
ENDROOT
BRANCH   1   2
ATOM      2  C   UNL     1      86.149  69.945  70.963  1.00  0.00    -0.033 C 
ATOM      3  C   UNL     1      86.268  70.097  69.628  1.00  0.00    -0.015 C 
BRANCH   3   4
ATOM      4  C   UNL     1      87.493  69.931  68.742  1.00  0.00     0.078 C 
ATOM      5  O   UNL     1      88.541  72.162  68.538  1.00  0.00    -0.319 OA
ATOM      6  C   UNL     1      88.761  70.810  69.048  1.00  0.00     0.095 CG0
ATOM      7  C   UNL     1      87.928  72.236  67.236  1.00  0.00     0.289 C 
ATOM      8  C   UNL     1      89.990  70.157  68.289  1.00  0.00     0.023 C 
ATOM      9  G   UNL     1      88.947  70.999  70.582  1.00  0.00     0.000 G0
ATOM     10  O   UNL     1      86.671  71.566  67.217  1.00  0.00    -0.320 OA
ATOM     11  O   UNL     1      88.717  71.606  66.229  1.00  0.00    -0.313 OA
ATOM     12  C   UNL     1      87.114  70.200  67.265  1.00  0.00     0.170 C 
ATOM     13  C   UNL     1      89.549  69.496  66.948  1.00  0.00     0.049 C 
ATOM     14  C   UNL     1      91.180  71.097  68.027  1.00  0.00     0.011 C 
ATOM     15  C   UNL     1      88.348  70.215  66.330  1.00  0.00     0.122 C 
BRANCH   7  16
ATOM     16  C   UNL     1      87.736  73.698  66.885  1.00  0.00     0.135 C 
BRANCH  16  17
ATOM     17  C   UNL     1      88.933  74.270  66.166  1.00  0.00    -0.040 A 
ATOM     18  C   UNL     1      88.870  74.519  64.796  1.00  0.00     0.004 A 
ATOM     19  C   UNL     1      90.101  74.550  66.874  1.00  0.00     0.004 A 
ATOM     20  C   UNL     1      89.977  75.049  64.132  1.00  0.00     0.000 A 
ATOM     21  C   UNL     1      91.208  75.080  66.210  1.00  0.00     0.000 A 
ATOM     22  C   UNL     1      91.146  75.329  64.840  1.00  0.00     0.000 A 
ENDBRANCH  16  17
ENDBRANCH   7  16
BRANCH  15  23
ATOM     23  C   UNL     1      88.022  69.714  64.961  1.00  0.00    -0.046 C 
ATOM     24  C   UNL     1      87.236  68.438  64.893  1.00  0.00     0.042 C 
ATOM     25  C   UNL     1      88.409  70.367  63.856  1.00  0.00     0.010 C 
ENDBRANCH  15  23
ENDBRANCH   3   4
BRANCH   2  26
ATOM     26  C   UNL     1      87.250  69.642  71.962  1.00  0.00     0.078 C 
BRANCH  26  27
ATOM     27  C   UNL     1      88.690  69.740  71.465  1.00  0.00     0.140 C 
ATOM     28  C   UNL     1      88.920  70.986  70.584  1.00  0.00     0.086 CG0
ATOM     29  C   UNL     1      89.680  69.952  72.591  1.00  0.00     0.190 C 
ATOM     30  C   UNL     1      90.204  71.560  71.116  1.00  0.00    -0.010 C 
ATOM     31  G   UNL     1      88.754  70.780  69.050  1.00  0.00     0.000 G0
ATOM     32  O   UNL     1      89.725  69.303  73.626  1.00  0.00    -0.291 OA
ATOM     33  C   UNL     1      90.641  71.020  72.258  1.00  0.00    -0.008 C 
ATOM     34  C   UNL     1      91.802  71.382  73.098  1.00  0.00     0.048 C 
BRANCH  27  35
ATOM     35  O   UNL     1      89.115  68.528  70.865  1.00  0.00    -0.381 OA
ATOM     36  H   UNL     1      88.714  67.788  71.351  1.00  0.00     0.212 HD
ENDBRANCH  27  35
ENDBRANCH  26  27
ENDBRANCH   2  26
ENDBRANCH   1   2
BRANCH   1  37
ATOM     37  O   UNL     1      84.780  69.403  72.839  1.00  0.00    -0.461 OA
BRANCH  37  38
ATOM     38  C   UNL     1      84.116  68.198  72.860  1.00  0.00     0.310 C 
ATOM     39  O   UNL     1      84.640  67.111  73.062  1.00  0.00    -0.252 OA
BRANCH  38  40
ATOM     40  C   UNL     1      82.647  68.427  72.598  1.00  0.00     0.158 C 
BRANCH  40  41
ATOM     41  C   UNL     1      81.801  67.216  72.897  1.00  0.00    -0.037 A 
ATOM     42  C   UNL     1      81.403  66.371  71.861  1.00  0.00     0.008 A 
ATOM     43  C   UNL     1      81.416  66.940  74.208  1.00  0.00     0.008 A 
ATOM     44  C   UNL     1      80.619  65.251  72.137  1.00  0.00     0.046 A 
ATOM     45  C   UNL     1      80.632  65.820  74.485  1.00  0.00     0.046 A 
ATOM     46  C   UNL     1      80.234  64.975  73.449  1.00  0.00     0.115 A 
BRANCH  46  47
ATOM     47  O   UNL     1      79.469  63.882  73.718  1.00  0.00    -0.508 OA
ATOM     48  H   UNL     1      79.348  63.372  72.898  1.00  0.00     0.293 HD
ENDBRANCH  46  47
ENDBRANCH  40  41
ENDBRANCH  38  40
ENDBRANCH  37  38
ENDBRANCH   1  37
TORSDOF 10
ENDMDL
MODEL 4
REMARK VINA RESULT:    -6.554     18.840     24.328
REMARK INTER + INTRA:         -12.516
REMARK INTER:                 -12.369
REMARK INTRA:                  -0.147
REMARK UNBOUND:                -1.364
REMARK SMILES C=C(C)[C@]12C[C@@H](C)[C@@]34O[C@](Cc5ccccc5)(O[C@@H]1[C@@H]3C=C(COC(=O)Cc1ccc(O)cc1)C[C@]1(O)C(=O)C(C)=C[C@@H]41)O2
REMARK SMILES IDX 23 1 22 2 21 3 20 4 9 5 8 6 10 7 6 8 18 10 44 11 19 12 5 13
REMARK SMILES IDX 7 14 4 15 11 16 12 17 13 18 17 19 14 20 16 21 15 22 2 23
REMARK SMILES IDX 3 24 1 25 35 26 36 27 43 28 38 29 42 30 39 32 40 33 41 34
REMARK SMILES IDX 37 35 24 37 25 38 26 39 27 40 28 41 29 42 34 43 30 44 33 45
REMARK SMILES IDX 31 46 32 47
REMARK H PARENT 37 36 32 48
REMARK Flexibility Score: 90.00
ROOT
ATOM      1  C   UNL     1      94.060  99.273  70.191  1.00  0.00     0.264 C 
ENDROOT
BRANCH   1   2
ATOM      2  C   UNL     1      95.397  99.100  70.874  1.00  0.00    -0.033 C 
ATOM      3  C   UNL     1      95.431  98.790  72.187  1.00  0.00    -0.015 C 
BRANCH   3   4
ATOM      4  C   UNL     1      96.628  98.639  73.112  1.00  0.00     0.078 C 
ATOM      5  O   UNL     1      97.247  96.244  73.101  1.00  0.00    -0.319 OA
ATOM      6  C   UNL     1      97.729  97.577  72.743  1.00  0.00     0.095 CG0
ATOM      7  C   UNL     1      96.578  96.154  74.374  1.00  0.00     0.289 C 
ATOM      8  C   UNL     1      99.022  97.913  73.594  1.00  0.00     0.023 C 
ATOM      9  G   UNL     1      97.940  97.512  71.202  1.00  0.00     0.000 G0
ATOM     10  O   UNL     1      95.463  97.038  74.436  1.00  0.00    -0.320 OA
ATOM     11  O   UNL     1      97.424  96.523  75.460  1.00  0.00    -0.313 OA
ATOM     12  C   UNL     1      96.146  98.297  74.543  1.00  0.00     0.170 C 
ATOM     13  C   UNL     1      98.652  98.506  74.988  1.00  0.00     0.049 C 
ATOM     14  C   UNL     1     100.011  96.749  73.781  1.00  0.00     0.011 C 
ATOM     15  C   UNL     1      97.318  97.962  75.498  1.00  0.00     0.122 C 
BRANCH   7  16
ATOM     16  C   UNL     1      96.110  94.724  74.563  1.00  0.00     0.135 C 
BRANCH  16  17
ATOM     17  C   UNL     1      95.448  94.517  75.902  1.00  0.00    -0.040 A 
ATOM     18  C   UNL     1      96.220  94.212  77.023  1.00  0.00     0.004 A 
ATOM     19  C   UNL     1      94.063  94.632  76.019  1.00  0.00     0.004 A 
ATOM     20  C   UNL     1      95.607  94.022  78.262  1.00  0.00     0.000 A 
ATOM     21  C   UNL     1      93.450  94.442  77.258  1.00  0.00     0.000 A 
ATOM     22  C   UNL     1      94.222  94.136  78.379  1.00  0.00     0.000 A 
ENDBRANCH  16  17
ENDBRANCH   7  16
BRANCH  15  23
ATOM     23  C   UNL     1      97.030  98.374  76.905  1.00  0.00    -0.046 C 
ATOM     24  C   UNL     1      96.609  99.800  77.104  1.00  0.00     0.042 C 
ATOM     25  C   UNL     1      97.143  97.519  77.932  1.00  0.00     0.010 C 
ENDBRANCH  15  23
ENDBRANCH   3   4
BRANCH   2  26
ATOM     26  C   UNL     1      96.574  99.300  69.938  1.00  0.00     0.078 C 
BRANCH  26  27
ATOM     27  C   UNL     1      97.951  98.878  70.448  1.00  0.00     0.140 C 
ATOM     28  C   UNL     1      97.909  97.524  71.188  1.00  0.00     0.086 CG0
ATOM     29  C   UNL     1      98.927  98.605  69.324  1.00  0.00     0.190 C 
ATOM     30  C   UNL     1      99.083  96.778  70.618  1.00  0.00    -0.010 C 
ATOM     31  G   UNL     1      97.724  97.592  72.732  1.00  0.00     0.000 G0
ATOM     32  O   UNL     1      99.133  99.341  68.371  1.00  0.00    -0.291 OA
ATOM     33  C   UNL     1      99.659  97.345  69.553  1.00  0.00    -0.008 C 
ATOM     34  C   UNL     1     100.764  96.861  68.699  1.00  0.00     0.048 C 
BRANCH  27  35
ATOM     35  O   UNL     1      98.570  99.916  71.189  1.00  0.00    -0.381 OA
ATOM     36  H   UNL     1      97.999 100.136  71.945  1.00  0.00     0.212 HD
ENDBRANCH  27  35
ENDBRANCH  26  27
ENDBRANCH   2  26
ENDBRANCH   1   2
BRANCH   1  37
ATOM     37  O   UNL     1      93.414 100.414  70.714  1.00  0.00    -0.461 OA
BRANCH  37  38
ATOM     38  C   UNL     1      92.127 100.636  70.280  1.00  0.00     0.310 C 
ATOM     39  O   UNL     1      91.153 100.769  71.007  1.00  0.00    -0.252 OA
BRANCH  38  40
ATOM     40  C   UNL     1      92.107 100.690  68.771  1.00  0.00     0.158 C 
BRANCH  40  41
ATOM     41  C   UNL     1      91.325  99.560  68.153  1.00  0.00    -0.037 A 
ATOM     42  C   UNL     1      91.136  98.373  68.861  1.00  0.00     0.008 A 
ATOM     43  C   UNL     1      90.791  99.700  66.872  1.00  0.00     0.008 A 
ATOM     44  C   UNL     1      90.412  97.327  68.288  1.00  0.00     0.046 A 
ATOM     45  C   UNL     1      90.067  98.654  66.299  1.00  0.00     0.046 A 
ATOM     46  C   UNL     1      89.878  97.468  67.007  1.00  0.00     0.115 A 
BRANCH  46  47
ATOM     47  O   UNL     1      89.173  96.447  66.449  1.00  0.00    -0.508 OA
ATOM     48  H   UNL     1      89.129  95.709  67.082  1.00  0.00     0.293 HD
ENDBRANCH  46  47
ENDBRANCH  40  41
ENDBRANCH  38  40
ENDBRANCH  37  38
ENDBRANCH   1  37
TORSDOF 10
ENDMDL
MODEL 5
REMARK VINA RESULT:    -6.549     25.338     29.126
REMARK INTER + INTRA:         -12.507
REMARK INTER:                 -11.183
REMARK INTRA:                  -1.324
REMARK UNBOUND:                -1.364
REMARK SMILES C=C(C)[C@]12C[C@@H](C)[C@@]34O[C@](Cc5ccccc5)(O[C@@H]1[C@@H]3C=C(COC(=O)Cc1ccc(O)cc1)C[C@]1(O)C(=O)C(C)=C[C@@H]41)O2
REMARK SMILES IDX 23 1 22 2 21 3 20 4 9 5 8 6 10 7 6 8 18 10 44 11 19 12 5 13
REMARK SMILES IDX 7 14 4 15 11 16 12 17 13 18 17 19 14 20 16 21 15 22 2 23
REMARK SMILES IDX 3 24 1 25 35 26 36 27 43 28 38 29 42 30 39 32 40 33 41 34
REMARK SMILES IDX 37 35 24 37 25 38 26 39 27 40 28 41 29 42 34 43 30 44 33 45
REMARK SMILES IDX 31 46 32 47
REMARK H PARENT 37 36 32 48
REMARK Flexibility Score: 90.00
ROOT
ATOM      1  C   UNL     1      82.060  68.170  71.688  1.00  0.00     0.264 C 
ENDROOT
BRANCH   1   2
ATOM      2  C   UNL     1      83.429  67.892  72.265  1.00  0.00    -0.033 C 
ATOM      3  C   UNL     1      84.479  67.748  71.431  1.00  0.00    -0.015 C 
BRANCH   3   4
ATOM      4  C   UNL     1      85.923  67.394  71.749  1.00  0.00     0.078 C 
ATOM      5  O   UNL     1      87.142  69.526  72.035  1.00  0.00    -0.319 OA
ATOM      6  C   UNL     1      86.719  68.318  72.742  1.00  0.00     0.095 CG0
ATOM      7  C   UNL     1      87.652  69.314  70.705  1.00  0.00     0.289 C 
ATOM      8  C   UNL     1      87.999  67.517  73.221  1.00  0.00     0.023 C 
ATOM      9  G   UNL     1      85.792  68.838  73.878  1.00  0.00     0.000 G0
ATOM     10  O   UNL     1      86.695  68.655  69.882  1.00  0.00    -0.320 OA
ATOM     11  O   UNL     1      88.809  68.480  70.695  1.00  0.00    -0.313 OA
ATOM     12  C   UNL     1      86.750  67.333  70.441  1.00  0.00     0.170 C 
ATOM     13  C   UNL     1      88.540  66.578  72.099  1.00  0.00     0.049 C 
ATOM     14  C   UNL     1      89.153  68.378  73.765  1.00  0.00     0.011 C 
ATOM     15  C   UNL     1      88.264  67.144  70.705  1.00  0.00     0.122 C 
BRANCH   7  16
ATOM     16  C   UNL     1      87.999  70.664  70.109  1.00  0.00     0.135 C 
BRANCH  16  17
ATOM     17  C   UNL     1      87.747  70.708  68.622  1.00  0.00    -0.040 A 
ATOM     18  C   UNL     1      86.828  71.616  68.097  1.00  0.00     0.004 A 
ATOM     19  C   UNL     1      88.435  69.841  67.774  1.00  0.00     0.004 A 
ATOM     20  C   UNL     1      86.596  71.657  66.722  1.00  0.00     0.000 A 
ATOM     21  C   UNL     1      88.203  69.882  66.399  1.00  0.00     0.000 A 
ATOM     22  C   UNL     1      87.284  70.789  65.873  1.00  0.00     0.000 A 
ENDBRANCH  16  17
ENDBRANCH   7  16
BRANCH  15  23
ATOM     23  C   UNL     1      88.929  66.357  69.624  1.00  0.00    -0.046 C 
ATOM     24  C   UNL     1      90.153  65.587  70.023  1.00  0.00     0.042 C 
ATOM     25  C   UNL     1      88.458  66.338  68.368  1.00  0.00     0.010 C 
ENDBRANCH  15  23
ENDBRANCH   3   4
BRANCH   2  26
ATOM     26  C   UNL     1      83.432  67.817  73.781  1.00  0.00     0.078 C 
BRANCH  26  27
ATOM     27  C   UNL     1      84.792  67.796  74.475  1.00  0.00     0.140 C 
ATOM     28  C   UNL     1      85.770  68.827  73.874  1.00  0.00     0.086 CG0
ATOM     29  C   UNL     1      84.711  68.232  75.923  1.00  0.00     0.190 C 
ATOM     30  C   UNL     1      86.368  69.489  75.083  1.00  0.00    -0.010 C 
ATOM     31  G   UNL     1      86.709  68.305  72.747  1.00  0.00     0.000 G0
ATOM     32  O   UNL     1      83.908  67.814  76.744  1.00  0.00    -0.291 OA
ATOM     33  C   UNL     1      85.778  69.198  76.246  1.00  0.00    -0.008 C 
ATOM     34  C   UNL     1      86.040  69.719  77.604  1.00  0.00     0.048 C 
BRANCH  27  35
ATOM     35  O   UNL     1      85.318  66.482  74.547  1.00  0.00    -0.381 OA
ATOM     36  H   UNL     1      85.686  66.347  75.437  1.00  0.00     0.212 HD
ENDBRANCH  27  35
ENDBRANCH  26  27
ENDBRANCH   2  26
ENDBRANCH   1   2
BRANCH   1  37
ATOM     37  O   UNL     1      81.097  67.403  72.380  1.00  0.00    -0.461 OA
BRANCH  37  38
ATOM     38  C   UNL     1      80.828  66.157  71.864  1.00  0.00     0.310 C 
ATOM     39  O   UNL     1      81.060  65.807  70.716  1.00  0.00    -0.252 OA
BRANCH  38  40
ATOM     40  C   UNL     1      80.204  65.293  72.934  1.00  0.00     0.158 C 
BRANCH  40  41
ATOM     41  C   UNL     1      81.133  65.024  74.089  1.00  0.00    -0.037 A 
ATOM     42  C   UNL     1      82.167  64.098  73.950  1.00  0.00     0.008 A 
ATOM     43  C   UNL     1      80.960  65.699  75.296  1.00  0.00     0.008 A 
ATOM     44  C   UNL     1      83.028  63.847  75.020  1.00  0.00     0.046 A 
ATOM     45  C   UNL     1      81.821  65.450  76.366  1.00  0.00     0.046 A 
ATOM     46  C   UNL     1      82.854  64.524  76.228  1.00  0.00     0.115 A 
BRANCH  46  47
ATOM     47  O   UNL     1      83.693  64.279  77.271  1.00  0.00    -0.508 OA
ATOM     48  H   UNL     1      84.534  63.933  76.925  1.00  0.00     0.293 HD
ENDBRANCH  46  47
ENDBRANCH  40  41
ENDBRANCH  38  40
ENDBRANCH  37  38
ENDBRANCH   1  37
TORSDOF 10
ENDMDL
MODEL 6
REMARK VINA RESULT:    -6.504     13.638     17.435
REMARK INTER + INTRA:         -12.430
REMARK INTER:                 -12.121
REMARK INTRA:                  -0.309
REMARK UNBOUND:                -1.364
REMARK SMILES C=C(C)[C@]12C[C@@H](C)[C@@]34O[C@](Cc5ccccc5)(O[C@@H]1[C@@H]3C=C(COC(=O)Cc1ccc(O)cc1)C[C@]1(O)C(=O)C(C)=C[C@@H]41)O2
REMARK SMILES IDX 23 1 22 2 21 3 20 4 9 5 8 6 10 7 6 8 18 10 44 11 19 12 5 13
REMARK SMILES IDX 7 14 4 15 11 16 12 17 13 18 17 19 14 20 16 21 15 22 2 23
REMARK SMILES IDX 3 24 1 25 35 26 36 27 43 28 38 29 42 30 39 32 40 33 41 34
REMARK SMILES IDX 37 35 24 37 25 38 26 39 27 40 28 41 29 42 34 43 30 44 33 45
REMARK SMILES IDX 31 46 32 47
REMARK H PARENT 37 36 32 48
REMARK Flexibility Score: 90.00
ROOT
ATOM      1  C   UNL     1      96.560  80.762  84.155  1.00  0.00     0.264 C 
ENDROOT
BRANCH   1   2
ATOM      2  C   UNL     1      95.345  81.364  84.822  1.00  0.00    -0.033 C 
ATOM      3  C   UNL     1      94.167  80.710  84.759  1.00  0.00    -0.015 C 
BRANCH   3   4
ATOM      4  C   UNL     1      92.800  81.131  85.274  1.00  0.00     0.078 C 
ATOM      5  O   UNL     1      92.553  80.166  87.538  1.00  0.00    -0.319 OA
ATOM      6  C   UNL     1      92.638  81.431  86.810  1.00  0.00     0.095 CG0
ATOM      7  C   UNL     1      91.727  79.158  86.925  1.00  0.00     0.289 C 
ATOM      8  C   UNL     1      91.288  82.237  87.001  1.00  0.00     0.023 C 
ATOM      9  G   UNL     1      93.914  82.120  87.376  1.00  0.00     0.000 G0
ATOM     10  O   UNL     1      92.169  78.858  85.605  1.00  0.00    -0.320 OA
ATOM     11  O   UNL     1      90.370  79.576  86.791  1.00  0.00    -0.313 OA
ATOM     12  C   UNL     1      91.749  80.050  84.922  1.00  0.00     0.170 C 
ATOM     13  C   UNL     1      90.209  81.801  85.963  1.00  0.00     0.049 C 
ATOM     14  C   UNL     1      90.683  82.188  88.415  1.00  0.00     0.011 C 
ATOM     15  C   UNL     1      90.368  80.334  85.563  1.00  0.00     0.122 C 
BRANCH   7  16
ATOM     16  C   UNL     1      91.787  77.909  87.783  1.00  0.00     0.135 C 
BRANCH  16  17
ATOM     17  C   UNL     1      90.883  78.005  88.986  1.00  0.00    -0.040 A 
ATOM     18  C   UNL     1      91.105  78.988  89.949  1.00  0.00     0.004 A 
ATOM     19  C   UNL     1      89.826  77.108  89.135  1.00  0.00     0.004 A 
ATOM     20  C   UNL     1      90.268  79.077  91.063  1.00  0.00     0.000 A 
ATOM     21  C   UNL     1      88.989  77.196  90.249  1.00  0.00     0.000 A 
ATOM     22  C   UNL     1      89.211  78.180  91.211  1.00  0.00     0.000 A 
ENDBRANCH  16  17
ENDBRANCH   7  16
BRANCH  15  23
ATOM     23  C   UNL     1      89.242  79.845  84.712  1.00  0.00    -0.046 C 
ATOM     24  C   UNL     1      88.169  80.845  84.396  1.00  0.00     0.042 C 
ATOM     25  C   UNL     1      89.192  78.585  84.256  1.00  0.00     0.010 C 
ENDBRANCH  15  23
ENDBRANCH   3   4
BRANCH   2  26
ATOM     26  C   UNL     1      95.636  82.684  85.511  1.00  0.00     0.078 C 
BRANCH  26  27
ATOM     27  C   UNL     1      94.566  83.229  86.456  1.00  0.00     0.140 C 
ATOM     28  C   UNL     1      93.945  82.123  87.335  1.00  0.00     0.086 CG0
ATOM     29  C   UNL     1      95.133  84.183  87.486  1.00  0.00     0.190 C 
ATOM     30  C   UNL     1      93.935  82.733  88.709  1.00  0.00    -0.010 C 
ATOM     31  G   UNL     1      92.650  81.457  86.785  1.00  0.00     0.000 G0
ATOM     32  O   UNL     1      95.880  85.120  87.247  1.00  0.00    -0.291 OA
ATOM     33  C   UNL     1      94.617  83.875  88.833  1.00  0.00    -0.008 C 
ATOM     34  C   UNL     1      94.887  84.697  90.031  1.00  0.00     0.048 C 
BRANCH  27  35
ATOM     35  O   UNL     1      93.610  84.011  85.760  1.00  0.00    -0.381 OA
ATOM     36  H   UNL     1      92.973  83.412  85.335  1.00  0.00     0.212 HD
ENDBRANCH  27  35
ENDBRANCH  26  27
ENDBRANCH   2  26
ENDBRANCH   1   2
BRANCH   1  37
ATOM     37  O   UNL     1      97.410  81.799  83.712  1.00  0.00    -0.461 OA
BRANCH  37  38
ATOM     38  C   UNL     1      97.062  82.405  82.527  1.00  0.00     0.310 C 
ATOM     39  O   UNL     1      96.770  83.586  82.402  1.00  0.00    -0.252 OA
BRANCH  38  40
ATOM     40  C   UNL     1      97.097  81.389  81.411  1.00  0.00     0.158 C 
BRANCH  40  41
ATOM     41  C   UNL     1      97.486  81.986  80.084  1.00  0.00    -0.037 A 
ATOM     42  C   UNL     1      96.502  82.303  79.147  1.00  0.00     0.008 A 
ATOM     43  C   UNL     1      98.829  82.222  79.792  1.00  0.00     0.008 A 
ATOM     44  C   UNL     1      96.863  82.855  77.917  1.00  0.00     0.046 A 
ATOM     45  C   UNL     1      99.189  82.774  78.562  1.00  0.00     0.046 A 
ATOM     46  C   UNL     1      98.207  83.091  77.625  1.00  0.00     0.115 A 
BRANCH  46  47
ATOM     47  O   UNL     1      98.558  83.629  76.426  1.00  0.00    -0.508 OA
ATOM     48  H   UNL     1      98.403  84.589  76.453  1.00  0.00     0.293 HD
ENDBRANCH  46  47
ENDBRANCH  40  41
ENDBRANCH  38  40
ENDBRANCH  37  38
ENDBRANCH   1  37
TORSDOF 10
ENDMDL
MODEL 7
REMARK VINA RESULT:    -6.418     15.671     21.272
REMARK INTER + INTRA:         -12.285
REMARK INTER:                 -11.670
REMARK INTRA:                  -0.615
REMARK UNBOUND:                -1.364
REMARK SMILES C=C(C)[C@]12C[C@@H](C)[C@@]34O[C@](Cc5ccccc5)(O[C@@H]1[C@@H]3C=C(COC(=O)Cc1ccc(O)cc1)C[C@]1(O)C(=O)C(C)=C[C@@H]41)O2
REMARK SMILES IDX 23 1 22 2 21 3 20 4 9 5 8 6 10 7 6 8 18 10 44 11 19 12 5 13
REMARK SMILES IDX 7 14 4 15 11 16 12 17 13 18 17 19 14 20 16 21 15 22 2 23
REMARK SMILES IDX 3 24 1 25 35 26 36 27 43 28 38 29 42 30 39 32 40 33 41 34
REMARK SMILES IDX 37 35 24 37 25 38 26 39 27 40 28 41 29 42 34 43 30 44 33 45
REMARK SMILES IDX 31 46 32 47
REMARK H PARENT 37 36 32 48
REMARK Flexibility Score: 90.00
ROOT
ATOM      1  C   UNL     1      95.274  93.595  76.975  1.00  0.00     0.264 C 
ENDROOT
BRANCH   1   2
ATOM      2  C   UNL     1      96.279  94.642  77.397  1.00  0.00    -0.033 C 
ATOM      3  C   UNL     1      96.902  95.376  76.452  1.00  0.00    -0.015 C 
BRANCH   3   4
ATOM      4  C   UNL     1      97.993  96.423  76.607  1.00  0.00     0.078 C 
ATOM      5  O   UNL     1      96.867  98.619  76.771  1.00  0.00    -0.319 OA
ATOM      6  C   UNL     1      97.704  97.677  77.512  1.00  0.00     0.095 CG0
ATOM      7  C   UNL     1      97.233  98.813  75.391  1.00  0.00     0.289 C 
ATOM      8  C   UNL     1      99.094  98.361  77.843  1.00  0.00     0.023 C 
ATOM      9  G   UNL     1      96.843  97.282  78.747  1.00  0.00     0.000 G0
ATOM     10  O   UNL     1      97.223  97.582  74.674  1.00  0.00    -0.320 OA
ATOM     11  O   UNL     1      98.553  99.332  75.249  1.00  0.00    -0.313 OA
ATOM     12  C   UNL     1      98.402  96.967  75.216  1.00  0.00     0.170 C 
ATOM     13  C   UNL     1     100.102  98.208  76.663  1.00  0.00     0.049 C 
ATOM     14  C   UNL     1      99.021  99.839  78.262  1.00  0.00     0.011 C 
ATOM     15  C   UNL     1      99.388  98.157  75.311  1.00  0.00     0.122 C 
BRANCH   7  16
ATOM     16  C   UNL     1      96.242  99.778  74.769  1.00  0.00     0.135 C 
BRANCH  16  17
ATOM     17  C   UNL     1      95.596  99.205  73.532  1.00  0.00    -0.040 A 
ATOM     18  C   UNL     1      96.234  99.313  72.298  1.00  0.00     0.004 A 
ATOM     19  C   UNL     1      94.358  98.569  73.625  1.00  0.00     0.004 A 
ATOM     20  C   UNL     1      95.636  98.783  71.154  1.00  0.00     0.000 A 
ATOM     21  C   UNL     1      93.760  98.039  72.481  1.00  0.00     0.000 A 
ATOM     22  C   UNL     1      94.399  98.146  71.247  1.00  0.00     0.000 A 
ENDBRANCH  16  17
ENDBRANCH   7  16
BRANCH  15  23
ATOM     23  C   UNL     1     100.338  98.193  74.159  1.00  0.00    -0.046 C 
ATOM     24  C   UNL     1     101.248  99.383  74.088  1.00  0.00     0.042 C 
ATOM     25  C   UNL     1     100.374  97.218  73.239  1.00  0.00     0.010 C 
ENDBRANCH  15  23
ENDBRANCH   3   4
BRANCH   2  26
ATOM     26  C   UNL     1      96.450  94.731  78.902  1.00  0.00     0.078 C 
BRANCH  26  27
ATOM     27  C   UNL     1      97.236  95.922  79.446  1.00  0.00     0.140 C 
ATOM     28  C   UNL     1      96.850  97.243  78.749  1.00  0.00     0.086 CG0
ATOM     29  C   UNL     1      96.917  96.214  80.897  1.00  0.00     0.190 C 
ATOM     30  C   UNL     1      96.686  98.206  79.892  1.00  0.00    -0.010 C 
ATOM     31  G   UNL     1      97.718  97.652  77.524  1.00  0.00     0.000 G0
ATOM     32  O   UNL     1      96.895  95.387  81.797  1.00  0.00    -0.291 OA
ATOM     33  C   UNL     1      96.691  97.656  81.110  1.00  0.00    -0.008 C 
ATOM     34  C   UNL     1      96.478  98.275  82.435  1.00  0.00     0.048 C 
BRANCH  27  35
ATOM     35  O   UNL     1      98.631  95.664  79.451  1.00  0.00    -0.381 OA
ATOM     36  H   UNL     1      99.095  96.494  79.653  1.00  0.00     0.212 HD
ENDBRANCH  27  35
ENDBRANCH  26  27
ENDBRANCH   2  26
ENDBRANCH   1   2
BRANCH   1  37
ATOM     37  O   UNL     1      94.707  93.965  75.736  1.00  0.00    -0.461 OA
BRANCH  37  38
ATOM     38  C   UNL     1      93.440  94.499  75.783  1.00  0.00     0.310 C 
ATOM     39  O   UNL     1      92.978  95.284  74.967  1.00  0.00    -0.252 OA
BRANCH  38  40
ATOM     40  C   UNL     1      92.713  93.966  76.995  1.00  0.00     0.158 C 
BRANCH  40  41
ATOM     41  C   UNL     1      91.820  92.795  76.676  1.00  0.00    -0.037 A 
ATOM     42  C   UNL     1      91.977  92.105  75.474  1.00  0.00     0.008 A 
ATOM     43  C   UNL     1      90.837  92.400  77.582  1.00  0.00     0.008 A 
ATOM     44  C   UNL     1      91.150  91.021  75.178  1.00  0.00     0.046 A 
ATOM     45  C   UNL     1      90.010  91.316  77.287  1.00  0.00     0.046 A 
ATOM     46  C   UNL     1      90.166  90.627  76.085  1.00  0.00     0.115 A 
BRANCH  46  47
ATOM     47  O   UNL     1      89.359  89.570  75.796  1.00  0.00    -0.508 OA
ATOM     48  H   UNL     1      88.695  89.849  75.142  1.00  0.00     0.293 HD
ENDBRANCH  46  47
ENDBRANCH  40  41
ENDBRANCH  38  40
ENDBRANCH  37  38
ENDBRANCH   1  37
TORSDOF 10
ENDMDL
MODEL 8
REMARK VINA RESULT:    -6.329     13.408     17.222
REMARK INTER + INTRA:         -12.133
REMARK INTER:                 -11.699
REMARK INTRA:                  -0.434
REMARK UNBOUND:                -1.364
REMARK SMILES C=C(C)[C@]12C[C@@H](C)[C@@]34O[C@](Cc5ccccc5)(O[C@@H]1[C@@H]3C=C(COC(=O)Cc1ccc(O)cc1)C[C@]1(O)C(=O)C(C)=C[C@@H]41)O2
REMARK SMILES IDX 23 1 22 2 21 3 20 4 9 5 8 6 10 7 6 8 18 10 44 11 19 12 5 13
REMARK SMILES IDX 7 14 4 15 11 16 12 17 13 18 17 19 14 20 16 21 15 22 2 23
REMARK SMILES IDX 3 24 1 25 35 26 36 27 43 28 38 29 42 30 39 32 40 33 41 34
REMARK SMILES IDX 37 35 24 37 25 38 26 39 27 40 28 41 29 42 34 43 30 44 33 45
REMARK SMILES IDX 31 46 32 47
REMARK H PARENT 37 36 32 48
REMARK Flexibility Score: 90.00
ROOT
ATOM      1  C   UNL     1      95.836  82.740  84.396  1.00  0.00     0.264 C 
ENDROOT
BRANCH   1   2
ATOM      2  C   UNL     1      94.565  82.780  85.214  1.00  0.00    -0.033 C 
ATOM      3  C   UNL     1      93.594  81.877  84.967  1.00  0.00    -0.015 C 
BRANCH   3   4
ATOM      4  C   UNL     1      92.212  81.752  85.588  1.00  0.00     0.078 C 
ATOM      5  O   UNL     1      92.416  80.189  87.493  1.00  0.00    -0.319 OA
ATOM      6  C   UNL     1      92.105  81.575  87.147  1.00  0.00     0.095 CG0
ATOM      7  C   UNL     1      91.836  79.194  86.629  1.00  0.00     0.289 C 
ATOM      8  C   UNL     1      90.610  81.896  87.564  1.00  0.00     0.023 C 
ATOM      9  G   UNL     1      93.197  82.411  87.875  1.00  0.00     0.000 G0
ATOM     10  O   UNL     1      92.231  79.391  85.274  1.00  0.00    -0.320 OA
ATOM     11  O   UNL     1      90.411  79.242  86.625  1.00  0.00    -0.313 OA
ATOM     12  C   UNL     1      91.457  80.557  84.954  1.00  0.00     0.170 C 
ATOM     13  C   UNL     1      89.602  81.473  86.452  1.00  0.00     0.049 C 
ATOM     14  C   UNL     1      90.159  81.307  88.912  1.00  0.00     0.011 C 
ATOM     15  C   UNL     1      90.108  80.268  85.658  1.00  0.00     0.122 C 
BRANCH   7  16
ATOM     16  C   UNL     1      92.293  77.828  87.103  1.00  0.00     0.135 C 
BRANCH  16  17
ATOM     17  C   UNL     1      92.025  76.754  86.079  1.00  0.00    -0.040 A 
ATOM     18  C   UNL     1      90.744  76.218  85.949  1.00  0.00     0.004 A 
ATOM     19  C   UNL     1      93.059  76.296  85.263  1.00  0.00     0.004 A 
ATOM     20  C   UNL     1      90.496  75.225  85.001  1.00  0.00     0.000 A 
ATOM     21  C   UNL     1      92.811  75.303  84.315  1.00  0.00     0.000 A 
ATOM     22  C   UNL     1      91.530  74.767  84.185  1.00  0.00     0.000 A 
ENDBRANCH  16  17
ENDBRANCH   7  16
BRANCH  15  23
ATOM     23  C   UNL     1      89.084  79.734  84.711  1.00  0.00    -0.046 C 
ATOM     24  C   UNL     1      87.867  80.586  84.502  1.00  0.00     0.042 C 
ATOM     25  C   UNL     1      89.242  78.559  84.083  1.00  0.00     0.010 C 
ENDBRANCH  15  23
ENDBRANCH   3   4
BRANCH   2  26
ATOM     26  C   UNL     1      94.563  83.882  86.257  1.00  0.00     0.078 C 
BRANCH  26  27
ATOM     27  C   UNL     1      93.441  83.859  87.293  1.00  0.00     0.140 C 
ATOM     28  C   UNL     1      93.200  82.445  87.862  1.00  0.00     0.086 CG0
ATOM     29  C   UNL     1      93.782  84.655  88.535  1.00  0.00     0.190 C 
ATOM     30  C   UNL     1      93.102  82.676  89.344  1.00  0.00    -0.010 C 
ATOM     31  G   UNL     1      92.109  81.596  87.148  1.00  0.00     0.000 G0
ATOM     32  O   UNL     1      94.227  85.793  88.546  1.00  0.00    -0.291 OA
ATOM     33  C   UNL     1      93.450  83.899  89.757  1.00  0.00    -0.008 C 
ATOM     34  C   UNL     1      93.553  84.447  91.125  1.00  0.00     0.048 C 
BRANCH  27  35
ATOM     35  O   UNL     1      92.268  84.486  86.801  1.00  0.00    -0.381 OA
ATOM     36  H   UNL     1      91.650  83.794  86.509  1.00  0.00     0.212 HD
ENDBRANCH  27  35
ENDBRANCH  26  27
ENDBRANCH   2  26
ENDBRANCH   1   2
BRANCH   1  37
ATOM     37  O   UNL     1      96.154  81.399  84.094  1.00  0.00    -0.461 OA
BRANCH  37  38
ATOM     38  C   UNL     1      96.877  81.190  82.941  1.00  0.00     0.310 C 
ATOM     39  O   UNL     1      97.125  80.096  82.456  1.00  0.00    -0.252 OA
BRANCH  38  40
ATOM     40  C   UNL     1      97.312  82.520  82.373  1.00  0.00     0.158 C 
BRANCH  40  41
ATOM     41  C   UNL     1      97.545  82.475  80.885  1.00  0.00    -0.037 A 
ATOM     42  C   UNL     1      98.845  82.410  80.383  1.00  0.00     0.008 A 
ATOM     43  C   UNL     1      96.461  82.498  80.008  1.00  0.00     0.008 A 
ATOM     44  C   UNL     1      99.060  82.369  79.006  1.00  0.00     0.046 A 
ATOM     45  C   UNL     1      96.675  82.456  78.630  1.00  0.00     0.046 A 
ATOM     46  C   UNL     1      97.975  82.392  78.129  1.00  0.00     0.115 A 
BRANCH  46  47
ATOM     47  O   UNL     1      98.185  82.353  76.785  1.00  0.00    -0.508 OA
ATOM     48  H   UNL     1      99.127  82.174  76.618  1.00  0.00     0.293 HD
ENDBRANCH  46  47
ENDBRANCH  40  41
ENDBRANCH  38  40
ENDBRANCH  37  38
ENDBRANCH   1  37
TORSDOF 10
ENDMDL
MODEL 9
REMARK VINA RESULT:    -6.313     13.250     17.384
REMARK INTER + INTRA:         -12.106
REMARK INTER:                  -9.925
REMARK INTRA:                  -2.181
REMARK UNBOUND:                -1.364
REMARK SMILES C=C(C)[C@]12C[C@@H](C)[C@@]34O[C@](Cc5ccccc5)(O[C@@H]1[C@@H]3C=C(COC(=O)Cc1ccc(O)cc1)C[C@]1(O)C(=O)C(C)=C[C@@H]41)O2
REMARK SMILES IDX 23 1 22 2 21 3 20 4 9 5 8 6 10 7 6 8 18 10 44 11 19 12 5 13
REMARK SMILES IDX 7 14 4 15 11 16 12 17 13 18 17 19 14 20 16 21 15 22 2 23
REMARK SMILES IDX 3 24 1 25 35 26 36 27 43 28 38 29 42 30 39 32 40 33 41 34
REMARK SMILES IDX 37 35 24 37 25 38 26 39 27 40 28 41 29 42 34 43 30 44 33 45
REMARK SMILES IDX 31 46 32 47
REMARK H PARENT 37 36 32 48
REMARK Flexibility Score: 90.00
ROOT
ATOM      1  C   UNL     1      90.652  80.707  84.237  1.00  0.00     0.264 C 
ENDROOT
BRANCH   1   2
ATOM      2  C   UNL     1      91.720  81.167  85.202  1.00  0.00    -0.033 C 
ATOM      3  C   UNL     1      93.016  80.933  84.911  1.00  0.00    -0.015 C 
BRANCH   3   4
ATOM      4  C   UNL     1      94.259  81.221  85.738  1.00  0.00     0.078 C 
ATOM      5  O   UNL     1      95.066  83.461  85.069  1.00  0.00    -0.319 OA
ATOM      6  C   UNL     1      94.526  82.702  86.195  1.00  0.00     0.095 CG0
ATOM      7  C   UNL     1      96.061  82.774  84.285  1.00  0.00     0.289 C 
ATOM      8  C   UNL     1      95.600  82.658  87.360  1.00  0.00     0.023 C 
ATOM      9  G   UNL     1      93.191  83.423  86.544  1.00  0.00     0.000 G0
ATOM     10  O   UNL     1      95.555  81.547  83.767  1.00  0.00    -0.320 OA
ATOM     11  O   UNL     1      97.210  82.423  85.054  1.00  0.00    -0.313 OA
ATOM     12  C   UNL     1      95.522  80.761  84.969  1.00  0.00     0.170 C 
ATOM     13  C   UNL     1      96.613  81.490  87.160  1.00  0.00     0.049 C 
ATOM     14  C   UNL     1      96.372  83.968  87.597  1.00  0.00     0.011 C 
ATOM     15  C   UNL     1      96.833  81.179  85.679  1.00  0.00     0.122 C 
BRANCH   7  16
ATOM     16  C   UNL     1      96.476  83.681  83.144  1.00  0.00     0.135 C 
BRANCH  16  17
ATOM     17  C   UNL     1      97.161  82.920  82.036  1.00  0.00    -0.040 A 
ATOM     18  C   UNL     1      96.545  82.792  80.792  1.00  0.00     0.004 A 
ATOM     19  C   UNL     1      98.412  82.345  82.257  1.00  0.00     0.004 A 
ATOM     20  C   UNL     1      97.179  82.089  79.768  1.00  0.00     0.000 A 
ATOM     21  C   UNL     1      99.047  81.642  81.233  1.00  0.00     0.000 A 
ATOM     22  C   UNL     1      98.430  81.514  79.989  1.00  0.00     0.000 A 
ENDBRANCH  16  17
ENDBRANCH   7  16
BRANCH  15  23
ATOM     23  C   UNL     1      97.931  80.190  85.457  1.00  0.00    -0.046 C 
ATOM     24  C   UNL     1      99.300  80.610  85.903  1.00  0.00     0.042 C 
ATOM     25  C   UNL     1      97.705  78.995  84.892  1.00  0.00     0.010 C 
ENDBRANCH  15  23
ENDBRANCH   3   4
BRANCH   2  26
ATOM     26  C   UNL     1      91.157  81.869  86.423  1.00  0.00     0.078 C 
BRANCH  26  27
ATOM     27  C   UNL     1      92.151  82.576  87.342  1.00  0.00     0.140 C 
ATOM     28  C   UNL     1      93.176  83.419  86.554  1.00  0.00     0.086 CG0
ATOM     29  C   UNL     1      91.489  83.613  88.225  1.00  0.00     0.190 C 
ATOM     30  C   UNL     1      93.207  84.722  87.303  1.00  0.00    -0.010 C 
ATOM     31  G   UNL     1      94.516  82.711  86.198  1.00  0.00     0.000 G0
ATOM     32  O   UNL     1      90.482  83.433  88.894  1.00  0.00    -0.291 OA
ATOM     33  C   UNL     1      92.255  84.873  88.228  1.00  0.00    -0.008 C 
ATOM     34  C   UNL     1      91.935  86.035  89.084  1.00  0.00     0.048 C 
BRANCH  27  35
ATOM     35  O   UNL     1      92.740  81.673  88.263  1.00  0.00    -0.381 OA
ATOM     36  H   UNL     1      93.678  81.566  88.030  1.00  0.00     0.212 HD
ENDBRANCH  27  35
ENDBRANCH  26  27
ENDBRANCH   2  26
ENDBRANCH   1   2
BRANCH   1  37
ATOM     37  O   UNL     1      90.485  79.311  84.355  1.00  0.00    -0.461 OA
BRANCH  37  38
ATOM     38  C   UNL     1      89.583  78.885  85.303  1.00  0.00     0.310 C 
ATOM     39  O   UNL     1      88.542  79.459  85.590  1.00  0.00    -0.252 OA
BRANCH  38  40
ATOM     40  C   UNL     1      90.079  77.605  85.932  1.00  0.00     0.158 C 
BRANCH  40  41
ATOM     41  C   UNL     1      91.521  77.682  86.363  1.00  0.00    -0.037 A 
ATOM     42  C   UNL     1      91.842  78.120  87.648  1.00  0.00     0.008 A 
ATOM     43  C   UNL     1      92.534  77.315  85.479  1.00  0.00     0.008 A 
ATOM     44  C   UNL     1      93.177  78.193  88.047  1.00  0.00     0.046 A 
ATOM     45  C   UNL     1      93.869  77.387  85.877  1.00  0.00     0.046 A 
ATOM     46  C   UNL     1      94.191  77.826  87.161  1.00  0.00     0.115 A 
BRANCH  46  47
ATOM     47  O   UNL     1      95.492  77.897  87.551  1.00  0.00    -0.508 OA
ATOM     48  H   UNL     1      95.576  78.564  88.254  1.00  0.00     0.293 HD
ENDBRANCH  46  47
ENDBRANCH  40  41
ENDBRANCH  38  40
ENDBRANCH  37  38
ENDBRANCH   1  37
TORSDOF 10
ENDMDL
MODEL 10
REMARK VINA RESULT:    -6.020     18.604     24.256
REMARK INTER + INTRA:         -11.607
REMARK INTER:                 -11.124
REMARK INTRA:                  -0.482
REMARK UNBOUND:                -1.364
REMARK SMILES C=C(C)[C@]12C[C@@H](C)[C@@]34O[C@](Cc5ccccc5)(O[C@@H]1[C@@H]3C=C(COC(=O)Cc1ccc(O)cc1)C[C@]1(O)C(=O)C(C)=C[C@@H]41)O2
REMARK SMILES IDX 23 1 22 2 21 3 20 4 9 5 8 6 10 7 6 8 18 10 44 11 19 12 5 13
REMARK SMILES IDX 7 14 4 15 11 16 12 17 13 18 17 19 14 20 16 21 15 22 2 23
REMARK SMILES IDX 3 24 1 25 35 26 36 27 43 28 38 29 42 30 39 32 40 33 41 34
REMARK SMILES IDX 37 35 24 37 25 38 26 39 27 40 28 41 29 42 34 43 30 44 33 45
REMARK SMILES IDX 31 46 32 47
REMARK H PARENT 37 36 32 48
REMARK Flexibility Score: 90.00
ROOT
ATOM      1  C   UNL     1      96.056  95.305  75.359  1.00  0.00     0.264 C 
ENDROOT
BRANCH   1   2
ATOM      2  C   UNL     1      96.304  96.488  74.452  1.00  0.00    -0.033 C 
ATOM      3  C   UNL     1      97.496  96.603  73.830  1.00  0.00    -0.015 C 
BRANCH   3   4
ATOM      4  C   UNL     1      98.017  97.720  72.940  1.00  0.00     0.078 C 
ATOM      5  O   UNL     1      97.491  97.086  70.608  1.00  0.00    -0.319 OA
ATOM      6  C   UNL     1      97.206  98.080  71.641  1.00  0.00     0.095 CG0
ATOM      7  C   UNL     1      98.873  96.698  70.492  1.00  0.00     0.289 C 
ATOM      8  C   UNL     1      97.699  99.503  71.148  1.00  0.00     0.023 C 
ATOM      9  G   UNL     1      95.675  97.953  71.891  1.00  0.00     0.000 G0
ATOM     10  O   UNL     1      99.372  96.184  71.723  1.00  0.00    -0.320 OA
ATOM     11  O   UNL     1      99.719  97.797  70.162  1.00  0.00    -0.313 OA
ATOM     12  C   UNL     1      99.462  97.399  72.484  1.00  0.00     0.170 C 
ATOM     13  C   UNL     1      99.211  99.725  71.460  1.00  0.00     0.049 C 
ATOM     14  C   UNL     1      97.433  99.818  69.666  1.00  0.00     0.011 C 
ATOM     15  C   UNL     1      99.992  98.410  71.439  1.00  0.00     0.122 C 
BRANCH   7  16
ATOM     16  C   UNL     1      98.979  95.638  69.413  1.00  0.00     0.135 C 
BRANCH  16  17
ATOM     17  C   UNL     1     100.304  95.694  68.693  1.00  0.00    -0.040 A 
ATOM     18  C   UNL     1     101.315  94.792  69.022  1.00  0.00     0.004 A 
ATOM     19  C   UNL     1     100.515  96.647  67.698  1.00  0.00     0.004 A 
ATOM     20  C   UNL     1     102.540  94.844  68.355  1.00  0.00     0.000 A 
ATOM     21  C   UNL     1     101.740  96.699  67.031  1.00  0.00     0.000 A 
ATOM     22  C   UNL     1     102.752  95.797  67.360  1.00  0.00     0.000 A 
ENDBRANCH  16  17
ENDBRANCH   7  16
BRANCH  15  23
ATOM     23  C   UNL     1     101.467  98.617  71.556  1.00  0.00    -0.046 C 
ATOM     24  C   UNL     1     102.322  97.845  70.595  1.00  0.00     0.042 C 
ATOM     25  C   UNL     1     101.997  99.446  72.467  1.00  0.00     0.010 C 
ENDBRANCH  15  23
ENDBRANCH   3   4
BRANCH   2  26
ATOM     26  C   UNL     1      95.115  97.425  74.355  1.00  0.00     0.078 C 
BRANCH  26  27
ATOM     27  C   UNL     1      95.157  98.495  73.267  1.00  0.00     0.140 C 
ATOM     28  C   UNL     1      95.665  97.939  71.920  1.00  0.00     0.086 CG0
ATOM     29  C   UNL     1      93.779  99.010  72.906  1.00  0.00     0.190 C 
ATOM     30  C   UNL     1      94.688  98.493  70.921  1.00  0.00    -0.010 C 
ATOM     31  G   UNL     1      97.192  98.079  71.653  1.00  0.00     0.000 G0
ATOM     32  O   UNL     1      92.929  99.375  73.704  1.00  0.00    -0.291 OA
ATOM     33  C   UNL     1      93.604  99.076  71.443  1.00  0.00    -0.008 C 
ATOM     34  C   UNL     1      92.417  99.647  70.775  1.00  0.00     0.048 C 
BRANCH  27  35
ATOM     35  O   UNL     1      95.847  99.654  73.705  1.00  0.00    -0.381 OA
ATOM     36  H   UNL     1      95.990  99.581  74.663  1.00  0.00     0.212 HD
ENDBRANCH  27  35
ENDBRANCH  26  27
ENDBRANCH   2  26
ENDBRANCH   1   2
BRANCH   1  37
ATOM     37  O   UNL     1      94.704  94.912  75.253  1.00  0.00    -0.461 OA
BRANCH  37  38
ATOM     38  C   UNL     1      94.161  94.300  76.359  1.00  0.00     0.310 C 
ATOM     39  O   UNL     1      94.794  93.677  77.200  1.00  0.00    -0.252 OA
BRANCH  38  40
ATOM     40  C   UNL     1      92.667  94.518  76.372  1.00  0.00     0.158 C 
BRANCH  40  41
ATOM     41  C   UNL     1      91.885  93.231  76.354  1.00  0.00    -0.037 A 
ATOM     42  C   UNL     1      92.049  92.330  75.301  1.00  0.00     0.008 A 
ATOM     43  C   UNL     1      90.996  92.939  77.388  1.00  0.00     0.008 A 
ATOM     44  C   UNL     1      91.324  91.138  75.283  1.00  0.00     0.046 A 
ATOM     45  C   UNL     1      90.271  91.747  77.371  1.00  0.00     0.046 A 
ATOM     46  C   UNL     1      90.435  90.847  76.319  1.00  0.00     0.115 A 
BRANCH  46  47
ATOM     47  O   UNL     1      89.728  89.684  76.301  1.00  0.00    -0.508 OA
ATOM     48  H   UNL     1      89.081  89.697  77.028  1.00  0.00     0.293 HD
ENDBRANCH  46  47
ENDBRANCH  40  41
ENDBRANCH  38  40
ENDBRANCH  37  38
ENDBRANCH   1  37
TORSDOF 10
ENDMDL
