MODEL 1
REMARK VINA RESULT:    -6.548      0.000      0.000
REMARK INTER + INTRA:         -12.364
REMARK INTER:                 -10.758
REMARK INTRA:                  -1.606
REMARK UNBOUND:                -1.606
REMARK SMILES CCCCC[C@H](O)CC(=O)CCc1ccc(O)c(OC)c1
REMARK SMILES IDX 8 1 6 2 7 3 5 5 4 6 3 7 2 8 1 9 9 10 10 11 11 12 12 13 13 14
REMARK SMILES IDX 21 15 14 16 18 17 15 18 16 19 19 20 20 21 17 22
REMARK H PARENT 7 4 17 23
REMARK Flexibility Score: inf
ROOT
ATOM      1  C   UNL     1      91.767  94.408  75.506  1.00  0.00     0.107 C 
ENDROOT
BRANCH   1   2
ATOM      2  C   UNL     1      91.870  93.611  74.203  1.00  0.00     0.121 C 
BRANCH   2   3
ATOM      3  O   UNL     1      92.783  92.528  74.370  1.00  0.00    -0.393 OA
ATOM      4  H   UNL     1      92.448  91.775  73.853  1.00  0.00     0.210 HD
ENDBRANCH   2   3
BRANCH   2   5
ATOM      5  C   UNL     1      90.519  93.063  73.727  1.00  0.00     0.032 C 
BRANCH   5   6
ATOM      6  C   UNL     1      90.672  91.756  72.940  1.00  0.00     0.003 C 
BRANCH   6   7
ATOM      7  C   UNL     1      89.369  91.286  72.285  1.00  0.00    -0.000 C 
BRANCH   7   8
ATOM      8  C   UNL     1      88.410  90.596  73.254  1.00  0.00    -0.003 C 
ATOM      9  C   UNL     1      86.997  90.546  72.694  1.00  0.00     0.004 C 
ENDBRANCH   7   8
ENDBRANCH   6   7
ENDBRANCH   5   6
ENDBRANCH   2   5
ENDBRANCH   1   2
BRANCH   1  10
ATOM     10  C   UNL     1      92.757  93.950  76.564  1.00  0.00     0.135 C 
ATOM     11  O   UNL     1      93.933  94.311  76.529  1.00  0.00    -0.300 OA
BRANCH  10  12
ATOM     12  C   UNL     1      92.207  93.071  77.677  1.00  0.00     0.080 C 
BRANCH  12  13
ATOM     13  C   UNL     1      90.719  92.747  77.527  1.00  0.00     0.043 C 
BRANCH  13  14
ATOM     14  C   UNL     1      90.415  91.276  77.683  1.00  0.00    -0.044 A 
ATOM     15  C   UNL     1      90.397  90.444  76.564  1.00  0.00     0.054 A 
ATOM     16  C   UNL     1      90.151  90.751  78.948  1.00  0.00     0.008 A 
ATOM     17  C   UNL     1      90.117  89.086  76.711  1.00  0.00     0.160 A 
ATOM     18  C   UNL     1      89.870  89.392  79.095  1.00  0.00     0.050 A 
ATOM     19  C   UNL     1      89.853  88.560  77.976  1.00  0.00     0.157 A 
BRANCH  17  20
ATOM     20  O   UNL     1      90.102  88.282  75.610  1.00  0.00    -0.493 OA
ATOM     21  C   UNL     1      91.175  88.435  74.682  1.00  0.00     0.278 C 
ENDBRANCH  17  20
BRANCH  19  22
ATOM     22  O   UNL     1      89.577  87.235  78.131  1.00  0.00    -0.504 OA
ATOM     23  H   UNL     1      88.719  87.140  78.578  1.00  0.00     0.293 HD
ENDBRANCH  19  22
ENDBRANCH  13  14
ENDBRANCH  12  13
ENDBRANCH  10  12
ENDBRANCH   1  10
TORSDOF 12
ENDMDL
MODEL 2
REMARK VINA RESULT:    -5.550      2.630      5.584
REMARK INTER + INTRA:         -10.726
REMARK INTER:                  -9.980
REMARK INTRA:                  -0.745
REMARK UNBOUND:                -1.606
REMARK SMILES CCCCC[C@H](O)CC(=O)CCc1ccc(O)c(OC)c1
REMARK SMILES IDX 8 1 6 2 7 3 5 5 4 6 3 7 2 8 1 9 9 10 10 11 11 12 12 13 13 14
REMARK SMILES IDX 21 15 14 16 18 17 15 18 16 19 19 20 20 21 17 22
REMARK H PARENT 7 4 17 23
REMARK Flexibility Score: inf
ROOT
ATOM      1  C   UNL     1      94.199  94.878  76.169  1.00  0.00     0.107 C 
ENDROOT
BRANCH   1   2
ATOM      2  C   UNL     1      95.410  93.976  76.420  1.00  0.00     0.121 C 
BRANCH   2   3
ATOM      3  O   UNL     1      96.219  93.916  75.248  1.00  0.00    -0.393 OA
ATOM      4  H   UNL     1      95.625  93.836  74.480  1.00  0.00     0.210 HD
ENDBRANCH   2   3
BRANCH   2   5
ATOM      5  C   UNL     1      96.269  94.440  77.603  1.00  0.00     0.032 C 
BRANCH   5   6
ATOM      6  C   UNL     1      95.637  94.076  78.952  1.00  0.00     0.003 C 
BRANCH   6   7
ATOM      7  C   UNL     1      95.189  95.298  79.761  1.00  0.00    -0.000 C 
BRANCH   7   8
ATOM      8  C   UNL     1      95.474  95.179  81.257  1.00  0.00    -0.003 C 
ATOM      9  C   UNL     1      95.867  93.760  81.636  1.00  0.00     0.004 C 
ENDBRANCH   7   8
ENDBRANCH   6   7
ENDBRANCH   5   6
ENDBRANCH   2   5
ENDBRANCH   1   2
BRANCH   1  10
ATOM     10  C   UNL     1      92.936  94.101  75.835  1.00  0.00     0.135 C 
ATOM     11  O   UNL     1      92.509  94.052  74.682  1.00  0.00    -0.300 OA
BRANCH  10  12
ATOM     12  C   UNL     1      92.267  93.361  76.984  1.00  0.00     0.080 C 
BRANCH  12  13
ATOM     13  C   UNL     1      90.740  93.342  76.897  1.00  0.00     0.043 C 
BRANCH  13  14
ATOM     14  C   UNL     1      90.201  92.106  76.217  1.00  0.00    -0.044 A 
ATOM     15  C   UNL     1      90.269  90.870  76.859  1.00  0.00     0.054 A 
ATOM     16  C   UNL     1      89.635  92.202  74.945  1.00  0.00     0.008 A 
ATOM     17  C   UNL     1      89.770  89.730  76.230  1.00  0.00     0.160 A 
ATOM     18  C   UNL     1      89.135  91.061  74.316  1.00  0.00     0.050 A 
ATOM     19  C   UNL     1      89.204  89.825  74.959  1.00  0.00     0.157 A 
BRANCH  17  20
ATOM     20  O   UNL     1      89.843  88.528  76.868  1.00  0.00    -0.493 OA
ATOM     21  C   UNL     1      90.991  87.723  76.604  1.00  0.00     0.278 C 
ENDBRANCH  17  20
BRANCH  19  22
ATOM     22  O   UNL     1      88.713  88.718  74.335  1.00  0.00    -0.504 OA
ATOM     23  H   UNL     1      89.193  87.935  74.656  1.00  0.00     0.293 HD
ENDBRANCH  19  22
ENDBRANCH  13  14
ENDBRANCH  12  13
ENDBRANCH  10  12
ENDBRANCH   1  10
TORSDOF 12
ENDMDL
MODEL 3
REMARK VINA RESULT:    -5.423     11.798     14.500
REMARK INTER + INTRA:         -10.516
REMARK INTER:                  -8.691
REMARK INTRA:                  -1.825
REMARK UNBOUND:                -1.606
REMARK SMILES CCCCC[C@H](O)CC(=O)CCc1ccc(O)c(OC)c1
REMARK SMILES IDX 8 1 6 2 7 3 5 5 4 6 3 7 2 8 1 9 9 10 10 11 11 12 12 13 13 14
REMARK SMILES IDX 21 15 14 16 18 17 15 18 16 19 19 20 20 21 17 22
REMARK H PARENT 7 4 17 23
REMARK Flexibility Score: inf
ROOT
ATOM      1  C   UNL     1      84.308  90.348  87.439  1.00  0.00     0.107 C 
ENDROOT
BRANCH   1   2
ATOM      2  C   UNL     1      83.309  90.965  88.421  1.00  0.00     0.121 C 
BRANCH   2   3
ATOM      3  O   UNL     1      83.715  92.291  88.755  1.00  0.00    -0.393 OA
ATOM      4  H   UNL     1      84.058  92.709  87.946  1.00  0.00     0.210 HD
ENDBRANCH   2   3
BRANCH   2   5
ATOM      5  C   UNL     1      81.875  90.999  87.877  1.00  0.00     0.032 C 
BRANCH   5   6
ATOM      6  C   UNL     1      81.171  89.645  88.025  1.00  0.00     0.003 C 
BRANCH   6   7
ATOM      7  C   UNL     1      79.926  89.702  88.917  1.00  0.00    -0.000 C 
BRANCH   7   8
ATOM      8  C   UNL     1      79.243  91.069  88.926  1.00  0.00    -0.003 C 
ATOM      9  C   UNL     1      78.849  91.482  90.336  1.00  0.00     0.004 C 
ENDBRANCH   7   8
ENDBRANCH   6   7
ENDBRANCH   5   6
ENDBRANCH   2   5
ENDBRANCH   1   2
BRANCH   1  10
ATOM     10  C   UNL     1      84.389  91.099  86.120  1.00  0.00     0.135 C 
ATOM     11  O   UNL     1      84.717  92.285  86.087  1.00  0.00    -0.300 OA
BRANCH  10  12
ATOM     12  C   UNL     1      84.089  90.301  84.861  1.00  0.00     0.080 C 
BRANCH  12  13
ATOM     13  C   UNL     1      82.653  90.460  84.358  1.00  0.00     0.043 C 
BRANCH  13  14
ATOM     14  C   UNL     1      81.823  89.210  84.532  1.00  0.00    -0.044 A 
ATOM     15  C   UNL     1      82.433  88.015  84.912  1.00  0.00     0.054 A 
ATOM     16  C   UNL     1      80.446  89.253  84.313  1.00  0.00     0.008 A 
ATOM     17  C   UNL     1      81.665  86.862  85.074  1.00  0.00     0.160 A 
ATOM     18  C   UNL     1      79.678  88.099  84.474  1.00  0.00     0.050 A 
ATOM     19  C   UNL     1      80.288  86.904  84.854  1.00  0.00     0.157 A 
BRANCH  17  20
ATOM     20  O   UNL     1      82.272  85.699  85.444  1.00  0.00    -0.493 OA
ATOM     21  C   UNL     1      82.462  85.485  86.842  1.00  0.00     0.278 C 
ENDBRANCH  17  20
BRANCH  19  22
ATOM     22  O   UNL     1      79.528  85.784  85.008  1.00  0.00    -0.504 OA
ATOM     23  H   UNL     1      79.014  85.861  85.830  1.00  0.00     0.293 HD
ENDBRANCH  19  22
ENDBRANCH  13  14
ENDBRANCH  12  13
ENDBRANCH  10  12
ENDBRANCH   1  10
TORSDOF 12
ENDMDL
MODEL 4
REMARK VINA RESULT:    -5.409      3.159      5.925
REMARK INTER + INTRA:         -10.493
REMARK INTER:                  -9.578
REMARK INTRA:                  -0.915
REMARK UNBOUND:                -1.606
REMARK SMILES CCCCC[C@H](O)CC(=O)CCc1ccc(O)c(OC)c1
REMARK SMILES IDX 8 1 6 2 7 3 5 5 4 6 3 7 2 8 1 9 9 10 10 11 11 12 12 13 13 14
REMARK SMILES IDX 21 15 14 16 18 17 15 18 16 19 19 20 20 21 17 22
REMARK H PARENT 7 4 17 23
REMARK Flexibility Score: inf
ROOT
ATOM      1  C   UNL     1      95.563  96.136  75.318  1.00  0.00     0.107 C 
ENDROOT
BRANCH   1   2
ATOM      2  C   UNL     1      96.858  96.130  76.134  1.00  0.00     0.121 C 
BRANCH   2   3
ATOM      3  O   UNL     1      97.333  97.465  76.295  1.00  0.00    -0.393 OA
ATOM      4  H   UNL     1      97.301  97.900  75.425  1.00  0.00     0.210 HD
ENDBRANCH   2   3
BRANCH   2   5
ATOM      5  C   UNL     1      96.695  95.482  77.514  1.00  0.00     0.032 C 
BRANCH   5   6
ATOM      6  C   UNL     1      96.849  96.499  78.651  1.00  0.00     0.003 C 
BRANCH   6   7
ATOM      7  C   UNL     1      96.251  96.021  79.977  1.00  0.00    -0.000 C 
BRANCH   7   8
ATOM      8  C   UNL     1      95.214  94.911  79.817  1.00  0.00    -0.003 C 
ATOM      9  C   UNL     1      95.625  93.655  80.570  1.00  0.00     0.004 C 
ENDBRANCH   7   8
ENDBRANCH   6   7
ENDBRANCH   5   6
ENDBRANCH   2   5
ENDBRANCH   1   2
BRANCH   1  10
ATOM     10  C   UNL     1      94.866  94.785  75.297  1.00  0.00     0.135 C 
ATOM     11  O   UNL     1      95.470  93.767  74.962  1.00  0.00    -0.300 OA
BRANCH  10  12
ATOM     12  C   UNL     1      93.415  94.760  75.753  1.00  0.00     0.080 C 
BRANCH  12  13
ATOM     13  C   UNL     1      93.138  93.748  76.867  1.00  0.00     0.043 C 
BRANCH  13  14
ATOM     14  C   UNL     1      91.901  92.918  76.619  1.00  0.00    -0.044 A 
ATOM     15  C   UNL     1      91.879  91.995  75.573  1.00  0.00     0.054 A 
ATOM     16  C   UNL     1      90.781  93.075  77.435  1.00  0.00     0.008 A 
ATOM     17  C   UNL     1      90.736  91.228  75.345  1.00  0.00     0.160 A 
ATOM     18  C   UNL     1      89.638  92.308  77.208  1.00  0.00     0.050 A 
ATOM     19  C   UNL     1      89.616  91.385  76.162  1.00  0.00     0.157 A 
BRANCH  17  20
ATOM     20  O   UNL     1      90.725  90.330  74.320  1.00  0.00    -0.493 OA
ATOM     21  C   UNL     1      91.396  89.091  74.538  1.00  0.00     0.278 C 
ENDBRANCH  17  20
BRANCH  19  22
ATOM     22  O   UNL     1      88.494  90.642  75.949  1.00  0.00    -0.504 OA
ATOM     23  H   UNL     1      88.139  90.351  76.807  1.00  0.00     0.293 HD
ENDBRANCH  19  22
ENDBRANCH  13  14
ENDBRANCH  12  13
ENDBRANCH  10  12
ENDBRANCH   1  10
TORSDOF 12
ENDMDL
MODEL 5
REMARK VINA RESULT:    -5.153     13.768     15.907
REMARK INTER + INTRA:         -10.072
REMARK INTER:                  -8.566
REMARK INTRA:                  -1.506
REMARK UNBOUND:                -1.606
REMARK SMILES CCCCC[C@H](O)CC(=O)CCc1ccc(O)c(OC)c1
REMARK SMILES IDX 8 1 6 2 7 3 5 5 4 6 3 7 2 8 1 9 9 10 10 11 11 12 12 13 13 14
REMARK SMILES IDX 21 15 14 16 18 17 15 18 16 19 19 20 20 21 17 22
REMARK H PARENT 7 4 17 23
REMARK Flexibility Score: inf
ROOT
ATOM      1  C   UNL     1      82.124  87.147  86.680  1.00  0.00     0.107 C 
ENDROOT
BRANCH   1   2
ATOM      2  C   UNL     1      81.999  86.279  85.425  1.00  0.00     0.121 C 
BRANCH   2   3
ATOM      3  O   UNL     1      82.705  85.055  85.612  1.00  0.00    -0.393 OA
ATOM      4  H   UNL     1      82.061  84.378  85.884  1.00  0.00     0.210 HD
ENDBRANCH   2   3
BRANCH   2   5
ATOM      5  C   UNL     1      80.544  85.971  85.051  1.00  0.00     0.032 C 
BRANCH   5   6
ATOM      6  C   UNL     1      80.160  86.566  83.691  1.00  0.00     0.003 C 
BRANCH   6   7
ATOM      7  C   UNL     1      80.337  88.087  83.623  1.00  0.00    -0.000 C 
BRANCH   7   8
ATOM      8  C   UNL     1      79.434  88.853  84.587  1.00  0.00    -0.003 C 
ATOM      9  C   UNL     1      80.122  90.100  85.119  1.00  0.00     0.004 C 
ENDBRANCH   7   8
ENDBRANCH   6   7
ENDBRANCH   5   6
ENDBRANCH   2   5
ENDBRANCH   1   2
BRANCH   1  10
ATOM     10  C   UNL     1      81.566  86.477  87.926  1.00  0.00     0.135 C 
ATOM     11  O   UNL     1      82.069  85.443  88.367  1.00  0.00    -0.300 OA
BRANCH  10  12
ATOM     12  C   UNL     1      80.399  87.172  88.610  1.00  0.00     0.080 C 
BRANCH  12  13
ATOM     13  C   UNL     1      80.349  88.680  88.357  1.00  0.00     0.043 C 
BRANCH  13  14
ATOM     14  C   UNL     1      81.488  89.428  89.008  1.00  0.00    -0.044 A 
ATOM     15  C   UNL     1      81.873  89.116  90.312  1.00  0.00     0.054 A 
ATOM     16  C   UNL     1      82.156  90.430  88.304  1.00  0.00     0.008 A 
ATOM     17  C   UNL     1      82.926  89.807  90.912  1.00  0.00     0.160 A 
ATOM     18  C   UNL     1      83.210  91.121  88.904  1.00  0.00     0.050 A 
ATOM     19  C   UNL     1      83.594  90.809  90.208  1.00  0.00     0.157 A 
BRANCH  17  20
ATOM     20  O   UNL     1      83.293  89.494  92.186  1.00  0.00    -0.493 OA
ATOM     21  C   UNL     1      83.773  88.171  92.416  1.00  0.00     0.278 C 
ENDBRANCH  17  20
BRANCH  19  22
ATOM     22  O   UNL     1      84.624  91.490  90.783  1.00  0.00    -0.504 OA
ATOM     23  H   UNL     1      85.418  91.391  90.230  1.00  0.00     0.293 HD
ENDBRANCH  19  22
ENDBRANCH  13  14
ENDBRANCH  12  13
ENDBRANCH  10  12
ENDBRANCH   1  10
TORSDOF 12
ENDMDL
MODEL 6
REMARK VINA RESULT:    -5.025     24.646     27.741
REMARK INTER + INTRA:          -9.862
REMARK INTER:                  -8.805
REMARK INTRA:                  -1.057
REMARK UNBOUND:                -1.606
REMARK SMILES CCCCC[C@H](O)CC(=O)CCc1ccc(O)c(OC)c1
REMARK SMILES IDX 8 1 6 2 7 3 5 5 4 6 3 7 2 8 1 9 9 10 10 11 11 12 12 13 13 14
REMARK SMILES IDX 21 15 14 16 18 17 15 18 16 19 19 20 20 21 17 22
REMARK H PARENT 7 4 17 23
REMARK Flexibility Score: inf
ROOT
ATOM      1  C   UNL     1      84.167  63.437  76.238  1.00  0.00     0.107 C 
ENDROOT
BRANCH   1   2
ATOM      2  C   UNL     1      85.126  62.938  77.321  1.00  0.00     0.121 C 
BRANCH   2   3
ATOM      3  O   UNL     1      86.436  63.446  77.078  1.00  0.00    -0.393 OA
ATOM      4  H   UNL     1      86.780  63.010  76.279  1.00  0.00     0.210 HD
ENDBRANCH   2   3
BRANCH   2   5
ATOM      5  C   UNL     1      84.688  63.329  78.738  1.00  0.00     0.032 C 
BRANCH   5   6
ATOM      6  C   UNL     1      85.799  64.055  79.505  1.00  0.00     0.003 C 
BRANCH   6   7
ATOM      7  C   UNL     1      85.548  64.124  81.015  1.00  0.00    -0.000 C 
BRANCH   7   8
ATOM      8  C   UNL     1      86.171  65.349  81.683  1.00  0.00    -0.003 C 
ATOM      9  C   UNL     1      85.790  65.431  83.154  1.00  0.00     0.004 C 
ENDBRANCH   7   8
ENDBRANCH   6   7
ENDBRANCH   5   6
ENDBRANCH   2   5
ENDBRANCH   1   2
BRANCH   1  10
ATOM     10  C   UNL     1      84.213  64.944  76.050  1.00  0.00     0.135 C 
ATOM     11  O   UNL     1      85.096  65.471  75.373  1.00  0.00    -0.300 OA
BRANCH  10  12
ATOM     12  C   UNL     1      83.095  65.747  76.698  1.00  0.00     0.080 C 
BRANCH  12  13
ATOM     13  C   UNL     1      81.697  65.198  76.410  1.00  0.00     0.043 C 
BRANCH  13  14
ATOM     14  C   UNL     1      81.221  65.496  75.008  1.00  0.00    -0.044 A 
ATOM     15  C   UNL     1      81.488  66.736  74.429  1.00  0.00     0.054 A 
ATOM     16  C   UNL     1      80.513  64.530  74.292  1.00  0.00     0.008 A 
ATOM     17  C   UNL     1      81.049  67.010  73.134  1.00  0.00     0.160 A 
ATOM     18  C   UNL     1      80.074  64.804  72.997  1.00  0.00     0.050 A 
ATOM     19  C   UNL     1      80.341  66.044  72.418  1.00  0.00     0.157 A 
BRANCH  17  20
ATOM     20  O   UNL     1      81.316  68.226  72.579  1.00  0.00    -0.493 OA
ATOM     21  C   UNL     1      82.687  68.548  72.353  1.00  0.00     0.278 C 
ENDBRANCH  17  20
BRANCH  19  22
ATOM     22  O   UNL     1      79.907  66.300  71.153  1.00  0.00    -0.504 OA
ATOM     23  H   UNL     1      79.519  65.490  70.781  1.00  0.00     0.293 HD
ENDBRANCH  19  22
ENDBRANCH  13  14
ENDBRANCH  12  13
ENDBRANCH  10  12
ENDBRANCH   1  10
TORSDOF 12
ENDMDL
MODEL 7
REMARK VINA RESULT:    -5.015     26.849     29.738
REMARK INTER + INTRA:          -9.846
REMARK INTER:                  -8.418
REMARK INTRA:                  -1.428
REMARK UNBOUND:                -1.606
REMARK SMILES CCCCC[C@H](O)CC(=O)CCc1ccc(O)c(OC)c1
REMARK SMILES IDX 8 1 6 2 7 3 5 5 4 6 3 7 2 8 1 9 9 10 10 11 11 12 12 13 13 14
REMARK SMILES IDX 21 15 14 16 18 17 15 18 16 19 19 20 20 21 17 22
REMARK H PARENT 7 4 17 23
REMARK Flexibility Score: inf
ROOT
ATOM      1  C   UNL     1      65.007  82.648  74.268  1.00  0.00     0.107 C 
ENDROOT
BRANCH   1   2
ATOM      2  C   UNL     1      64.791  84.008  74.936  1.00  0.00     0.121 C 
BRANCH   2   3
ATOM      3  O   UNL     1      65.749  84.944  74.447  1.00  0.00    -0.393 OA
ATOM      4  H   UNL     1      65.763  85.702  75.057  1.00  0.00     0.210 HD
ENDBRANCH   2   3
BRANCH   2   5
ATOM      5  C   UNL     1      63.381  84.567  74.716  1.00  0.00     0.032 C 
BRANCH   5   6
ATOM      6  C   UNL     1      62.546  84.549  76.003  1.00  0.00     0.003 C 
BRANCH   6   7
ATOM      7  C   UNL     1      62.739  85.799  76.868  1.00  0.00    -0.000 C 
BRANCH   7   8
ATOM      8  C   UNL     1      61.554  86.762  76.825  1.00  0.00    -0.003 C 
ATOM      9  C   UNL     1      60.263  86.037  76.475  1.00  0.00     0.004 C 
ENDBRANCH   7   8
ENDBRANCH   6   7
ENDBRANCH   5   6
ENDBRANCH   2   5
ENDBRANCH   1   2
BRANCH   1  10
ATOM     10  C   UNL     1      64.245  81.522  74.949  1.00  0.00     0.135 C 
ATOM     11  O   UNL     1      64.294  81.373  76.170  1.00  0.00    -0.300 OA
BRANCH  10  12
ATOM     12  C   UNL     1      63.395  80.634  74.053  1.00  0.00     0.080 C 
BRANCH  12  13
ATOM     13  C   UNL     1      62.035  81.239  73.699  1.00  0.00     0.043 C 
BRANCH  13  14
ATOM     14  C   UNL     1      62.027  81.938  72.361  1.00  0.00    -0.044 A 
ATOM     15  C   UNL     1      61.223  83.061  72.165  1.00  0.00     0.054 A 
ATOM     16  C   UNL     1      62.825  81.460  71.321  1.00  0.00     0.008 A 
ATOM     17  C   UNL     1      61.218  83.706  70.928  1.00  0.00     0.160 A 
ATOM     18  C   UNL     1      62.820  82.106  70.084  1.00  0.00     0.050 A 
ATOM     19  C   UNL     1      62.016  83.228  69.888  1.00  0.00     0.157 A 
BRANCH  17  20
ATOM     20  O   UNL     1      60.428  84.802  70.748  1.00  0.00    -0.493 OA
ATOM     21  C   UNL     1      59.147  84.787  71.374  1.00  0.00     0.278 C 
ENDBRANCH  17  20
BRANCH  19  22
ATOM     22  O   UNL     1      62.019  83.850  68.676  1.00  0.00    -0.504 OA
ATOM     23  H   UNL     1      61.630  83.254  68.013  1.00  0.00     0.293 HD
ENDBRANCH  19  22
ENDBRANCH  13  14
ENDBRANCH  12  13
ENDBRANCH  10  12
ENDBRANCH   1  10
TORSDOF 12
ENDMDL
MODEL 8
REMARK VINA RESULT:    -5.004     14.106     15.264
REMARK INTER + INTRA:          -9.828
REMARK INTER:                  -8.873
REMARK INTRA:                  -0.955
REMARK UNBOUND:                -1.606
REMARK SMILES CCCCC[C@H](O)CC(=O)CCc1ccc(O)c(OC)c1
REMARK SMILES IDX 8 1 6 2 7 3 5 5 4 6 3 7 2 8 1 9 9 10 10 11 11 12 12 13 13 14
REMARK SMILES IDX 21 15 14 16 18 17 15 18 16 19 19 20 20 21 17 22
REMARK H PARENT 7 4 17 23
REMARK Flexibility Score: inf
ROOT
ATOM      1  C   UNL     1      81.552  92.654  89.864  1.00  0.00     0.107 C 
ENDROOT
BRANCH   1   2
ATOM      2  C   UNL     1      82.873  93.407  89.686  1.00  0.00     0.121 C 
BRANCH   2   3
ATOM      3  O   UNL     1      83.939  92.655  90.261  1.00  0.00    -0.393 OA
ATOM      4  H   UNL     1      83.549  92.000  90.867  1.00  0.00     0.210 HD
ENDBRANCH   2   3
BRANCH   2   5
ATOM      5  C   UNL     1      83.200  93.705  88.218  1.00  0.00     0.032 C 
BRANCH   5   6
ATOM      6  C   UNL     1      83.827  95.093  88.038  1.00  0.00     0.003 C 
BRANCH   6   7
ATOM      7  C   UNL     1      83.064  95.979  87.048  1.00  0.00    -0.000 C 
BRANCH   7   8
ATOM      8  C   UNL     1      81.790  96.590  87.629  1.00  0.00    -0.003 C 
ATOM      9  C   UNL     1      81.016  97.367  86.575  1.00  0.00     0.004 C 
ENDBRANCH   7   8
ENDBRANCH   6   7
ENDBRANCH   5   6
ENDBRANCH   2   5
ENDBRANCH   1   2
BRANCH   1  10
ATOM     10  C   UNL     1      81.623  91.208  89.401  1.00  0.00     0.135 C 
ATOM     11  O   UNL     1      82.327  90.389  89.991  1.00  0.00    -0.300 OA
BRANCH  10  12
ATOM     12  C   UNL     1      80.752  90.829  88.214  1.00  0.00     0.080 C 
BRANCH  12  13
ATOM     13  C   UNL     1      81.543  90.553  86.934  1.00  0.00     0.043 C 
BRANCH  13  14
ATOM     14  C   UNL     1      80.993  89.394  86.136  1.00  0.00    -0.044 A 
ATOM     15  C   UNL     1      81.343  88.087  86.473  1.00  0.00     0.054 A 
ATOM     16  C   UNL     1      80.134  89.632  85.063  1.00  0.00     0.008 A 
ATOM     17  C   UNL     1      80.834  87.017  85.736  1.00  0.00     0.160 A 
ATOM     18  C   UNL     1      79.625  88.563  84.326  1.00  0.00     0.050 A 
ATOM     19  C   UNL     1      79.975  87.255  84.663  1.00  0.00     0.157 A 
BRANCH  17  20
ATOM     20  O   UNL     1      81.184  85.744  86.074  1.00  0.00    -0.493 OA
ATOM     21  C   UNL     1      82.578  85.461  86.176  1.00  0.00     0.278 C 
ENDBRANCH  17  20
BRANCH  19  22
ATOM     22  O   UNL     1      79.472  86.219  83.936  1.00  0.00    -0.504 OA
ATOM     23  H   UNL     1      80.165  85.546  83.822  1.00  0.00     0.293 HD
ENDBRANCH  19  22
ENDBRANCH  13  14
ENDBRANCH  12  13
ENDBRANCH  10  12
ENDBRANCH   1  10
TORSDOF 12
ENDMDL
MODEL 9
REMARK VINA RESULT:    -4.944     24.738     27.456
REMARK INTER + INTRA:          -9.729
REMARK INTER:                  -8.968
REMARK INTRA:                  -0.761
REMARK UNBOUND:                -1.606
REMARK SMILES CCCCC[C@H](O)CC(=O)CCc1ccc(O)c(OC)c1
REMARK SMILES IDX 8 1 6 2 7 3 5 5 4 6 3 7 2 8 1 9 9 10 10 11 11 12 12 13 13 14
REMARK SMILES IDX 21 15 14 16 18 17 15 18 16 19 19 20 20 21 17 22
REMARK H PARENT 7 4 17 23
REMARK Flexibility Score: inf
ROOT
ATOM      1  C   UNL     1      62.862  84.325  75.486  1.00  0.00     0.107 C 
ENDROOT
BRANCH   1   2
ATOM      2  C   UNL     1      62.664  82.812  75.603  1.00  0.00     0.121 C 
BRANCH   2   3
ATOM      3  O   UNL     1      61.582  82.533  76.489  1.00  0.00    -0.393 OA
ATOM      4  H   UNL     1      60.828  83.087  76.221  1.00  0.00     0.210 HD
ENDBRANCH   2   3
BRANCH   2   5
ATOM      5  C   UNL     1      62.399  82.135  74.253  1.00  0.00     0.032 C 
BRANCH   5   6
ATOM      6  C   UNL     1      63.072  80.760  74.155  1.00  0.00     0.003 C 
BRANCH   6   7
ATOM      7  C   UNL     1      64.063  80.651  72.992  1.00  0.00    -0.000 C 
BRANCH   7   8
ATOM      8  C   UNL     1      65.521  80.549  73.438  1.00  0.00    -0.003 C 
ATOM      9  C   UNL     1      65.631  80.436  74.951  1.00  0.00     0.004 C 
ENDBRANCH   7   8
ENDBRANCH   6   7
ENDBRANCH   5   6
ENDBRANCH   2   5
ENDBRANCH   1   2
BRANCH   1  10
ATOM     10  C   UNL     1      64.273  84.712  75.074  1.00  0.00     0.135 C 
ATOM     11  O   UNL     1      64.636  84.620  73.901  1.00  0.00    -0.300 OA
BRANCH  10  12
ATOM     12  C   UNL     1      65.179  85.254  76.168  1.00  0.00     0.080 C 
BRANCH  12  13
ATOM     13  C   UNL     1      64.464  86.171  77.161  1.00  0.00     0.043 C 
BRANCH  13  14
ATOM     14  C   UNL     1      65.168  86.265  78.494  1.00  0.00    -0.044 A 
ATOM     15  C   UNL     1      64.510  86.813  79.594  1.00  0.00     0.054 A 
ATOM     16  C   UNL     1      66.478  85.802  78.624  1.00  0.00     0.008 A 
ATOM     17  C   UNL     1      65.161  86.898  80.825  1.00  0.00     0.160 A 
ATOM     18  C   UNL     1      67.129  85.887  79.854  1.00  0.00     0.050 A 
ATOM     19  C   UNL     1      66.471  86.436  80.955  1.00  0.00     0.157 A 
BRANCH  17  20
ATOM     20  O   UNL     1      64.508  87.437  81.893  1.00  0.00    -0.493 OA
ATOM     21  C   UNL     1      63.495  86.639  82.503  1.00  0.00     0.278 C 
ENDBRANCH  17  20
BRANCH  19  22
ATOM     22  O   UNL     1      67.117  86.514  82.151  1.00  0.00    -0.504 OA
ATOM     23  H   UNL     1      67.232  87.450  82.389  1.00  0.00     0.293 HD
ENDBRANCH  19  22
ENDBRANCH  13  14
ENDBRANCH  12  13
ENDBRANCH  10  12
ENDBRANCH   1  10
TORSDOF 12
ENDMDL
MODEL 10
REMARK VINA RESULT:    -4.829     12.366     15.171
REMARK INTER + INTRA:          -9.540
REMARK INTER:                  -8.278
REMARK INTRA:                  -1.262
REMARK UNBOUND:                -1.606
REMARK SMILES CCCCC[C@H](O)CC(=O)CCc1ccc(O)c(OC)c1
REMARK SMILES IDX 8 1 6 2 7 3 5 5 4 6 3 7 2 8 1 9 9 10 10 11 11 12 12 13 13 14
REMARK SMILES IDX 21 15 14 16 18 17 15 18 16 19 19 20 20 21 17 22
REMARK H PARENT 7 4 17 23
REMARK Flexibility Score: inf
ROOT
ATOM      1  C   UNL     1      83.677  90.354  88.361  1.00  0.00     0.107 C 
ENDROOT
BRANCH   1   2
ATOM      2  C   UNL     1      82.300  89.692  88.454  1.00  0.00     0.121 C 
BRANCH   2   3
ATOM      3  O   UNL     1      82.436  88.277  88.350  1.00  0.00    -0.393 OA
ATOM      4  H   UNL     1      83.115  87.995  88.987  1.00  0.00     0.210 HD
ENDBRANCH   2   3
BRANCH   2   5
ATOM      5  C   UNL     1      81.557  90.034  89.751  1.00  0.00     0.032 C 
BRANCH   5   6
ATOM      6  C   UNL     1      81.316  88.794  90.621  1.00  0.00     0.003 C 
BRANCH   6   7
ATOM      7  C   UNL     1      82.080  88.827  91.949  1.00  0.00    -0.000 C 
BRANCH   7   8
ATOM      8  C   UNL     1      83.593  88.692  91.788  1.00  0.00    -0.003 C 
ATOM      9  C   UNL     1      84.328  89.829  92.482  1.00  0.00     0.004 C 
ENDBRANCH   7   8
ENDBRANCH   6   7
ENDBRANCH   5   6
ENDBRANCH   2   5
ENDBRANCH   1   2
BRANCH   1  10
ATOM     10  C   UNL     1      83.871  91.149  87.080  1.00  0.00     0.135 C 
ATOM     11  O   UNL     1      83.878  92.380  87.094  1.00  0.00    -0.300 OA
BRANCH  10  12
ATOM     12  C   UNL     1      84.098  90.347  85.808  1.00  0.00     0.080 C 
BRANCH  12  13
ATOM     13  C   UNL     1      83.003  90.539  84.757  1.00  0.00     0.043 C 
BRANCH  13  14
ATOM     14  C   UNL     1      82.040  89.377  84.686  1.00  0.00    -0.044 A 
ATOM     15  C   UNL     1      82.499  88.077  84.895  1.00  0.00     0.054 A 
ATOM     16  C   UNL     1      80.691  89.606  84.412  1.00  0.00     0.008 A 
ATOM     17  C   UNL     1      81.608  87.005  84.830  1.00  0.00     0.160 A 
ATOM     18  C   UNL     1      79.801  88.534  84.347  1.00  0.00     0.050 A 
ATOM     19  C   UNL     1      80.260  87.234  84.556  1.00  0.00     0.157 A 
BRANCH  17  20
ATOM     20  O   UNL     1      82.068  85.739  85.035  1.00  0.00    -0.493 OA
ATOM     21  C   UNL     1      82.543  85.426  86.343  1.00  0.00     0.278 C 
ENDBRANCH  17  20
BRANCH  19  22
ATOM     22  O   UNL     1      79.381  86.195  84.490  1.00  0.00    -0.504 OA
ATOM     23  H   UNL     1      78.492  86.544  84.305  1.00  0.00     0.293 HD
ENDBRANCH  19  22
ENDBRANCH  13  14
ENDBRANCH  12  13
ENDBRANCH  10  12
ENDBRANCH   1  10
TORSDOF 12
ENDMDL
