MODEL 1
REMARK VINA RESULT:    -6.077      0.000      0.000
REMARK INTER + INTRA:         -10.962
REMARK INTER:                  -9.807
REMARK INTRA:                  -1.154
REMARK UNBOUND:                -1.154
REMARK SMILES CCCCCCCCC(=O)NCc1ccc(O)c(OC)c1
REMARK SMILES IDX 7 1 6 2 5 3 4 4 3 5 2 6 1 7 8 8 9 9 10 10 11 11 12 13 13 14
REMARK SMILES IDX 21 15 14 16 18 17 15 18 16 19 19 20 20 21 17 22
REMARK H PARENT 11 12 17 23
REMARK Flexibility Score: inf
ROOT
ATOM      1  C   UNL     1      94.588  95.708  75.294  1.00  0.00     0.010 C 
ENDROOT
BRANCH   1   2
ATOM      2  C   UNL     1      93.121  96.219  75.371  1.00  0.00     0.001 C 
BRANCH   2   3
ATOM      3  C   UNL     1      92.483  95.971  76.770  1.00  0.00     0.000 C 
BRANCH   3   4
ATOM      4  C   UNL     1      93.242  94.918  77.626  1.00  0.00    -0.000 C 
BRANCH   4   5
ATOM      5  C   UNL     1      92.342  93.718  78.037  1.00  0.00    -0.000 C 
BRANCH   5   6
ATOM      6  C   UNL     1      90.987  93.701  77.279  1.00  0.00    -0.003 C 
ATOM      7  C   UNL     1      90.036  92.591  77.775  1.00  0.00     0.004 C 
ENDBRANCH   5   6
ENDBRANCH   4   5
ENDBRANCH   3   4
ENDBRANCH   2   3
ENDBRANCH   1   2
BRANCH   1   8
ATOM      8  C   UNL     1      95.590  96.754  74.729  1.00  0.00     0.100 C 
BRANCH   8   9
ATOM      9  C   UNL     1      96.550  97.197  75.768  1.00  0.00     0.220 C 
ATOM     10  O   UNL     1      96.914  98.398  75.769  1.00  0.00    -0.275 OA
ATOM     11  N   UNL     1      97.002  96.323  76.714  1.00  0.00    -0.352 N 
ATOM     12  H   UNL     1      96.715  95.366  76.569  1.00  0.00     0.163 HD
BRANCH  11  13
ATOM     13  C   UNL     1      97.813  96.659  77.844  1.00  0.00     0.151 C 
BRANCH  13  14
ATOM     14  C   UNL     1      97.161  96.389  79.154  1.00  0.00    -0.025 A 
ATOM     15  C   UNL     1      96.700  95.087  79.465  1.00  0.00     0.056 A 
ATOM     16  C   UNL     1      96.988  97.420  80.106  1.00  0.00     0.009 A 
ATOM     17  C   UNL     1      96.095  94.811  80.713  1.00  0.00     0.160 A 
ATOM     18  C   UNL     1      96.387  97.152  81.349  1.00  0.00     0.050 A 
ATOM     19  C   UNL     1      95.934  95.854  81.653  1.00  0.00     0.157 A 
BRANCH  17  20
ATOM     20  O   UNL     1      95.611  93.559  80.996  1.00  0.00    -0.493 OA
ATOM     21  C   UNL     1      95.409  92.730  79.837  1.00  0.00     0.278 C 
ENDBRANCH  17  20
BRANCH  19  22
ATOM     22  O   UNL     1      95.330  95.611  82.845  1.00  0.00    -0.504 OA
ATOM     23  H   UNL     1      95.251  96.432  83.336  1.00  0.00     0.293 HD
ENDBRANCH  19  22
ENDBRANCH  13  14
ENDBRANCH  11  13
ENDBRANCH   8   9
ENDBRANCH   1   8
TORSDOF 11
ENDMDL
MODEL 2
REMARK VINA RESULT:    -5.476      1.040      2.235
REMARK INTER + INTRA:          -9.992
REMARK INTER:                  -8.931
REMARK INTRA:                  -1.061
REMARK UNBOUND:                -1.154
REMARK SMILES CCCCCCCCC(=O)NCc1ccc(O)c(OC)c1
REMARK SMILES IDX 7 1 6 2 5 3 4 4 3 5 2 6 1 7 8 8 9 9 10 10 11 11 12 13 13 14
REMARK SMILES IDX 21 15 14 16 18 17 15 18 16 19 19 20 20 21 17 22
REMARK H PARENT 11 12 17 23
REMARK Flexibility Score: inf
ROOT
ATOM      1  C   UNL     1      95.028  95.562  74.440  1.00  0.00     0.010 C 
ENDROOT
BRANCH   1   2
ATOM      2  C   UNL     1      93.635  95.072  74.930  1.00  0.00     0.001 C 
BRANCH   2   3
ATOM      3  C   UNL     1      93.539  95.029  76.484  1.00  0.00     0.000 C 
BRANCH   3   4
ATOM      4  C   UNL     1      92.272  95.728  77.053  1.00  0.00    -0.000 C 
BRANCH   4   5
ATOM      5  C   UNL     1      90.961  94.960  76.717  1.00  0.00    -0.000 C 
BRANCH   5   6
ATOM      6  C   UNL     1      91.142  93.420  76.777  1.00  0.00    -0.003 C 
ATOM      7  C   UNL     1      90.229  92.749  77.827  1.00  0.00     0.004 C 
ENDBRANCH   5   6
ENDBRANCH   4   5
ENDBRANCH   3   4
ENDBRANCH   2   3
ENDBRANCH   1   2
BRANCH   1   8
ATOM      8  C   UNL     1      95.194  97.108  74.460  1.00  0.00     0.100 C 
BRANCH   8   9
ATOM      9  C   UNL     1      96.191  97.531  75.472  1.00  0.00     0.220 C 
ATOM     10  O   UNL     1      96.550  98.733  75.488  1.00  0.00    -0.275 OA
ATOM     11  N   UNL     1      96.682  96.636  76.379  1.00  0.00    -0.352 N 
ATOM     12  H   UNL     1      96.394  95.681  76.221  1.00  0.00     0.163 HD
BRANCH  11  13
ATOM     13  C   UNL     1      97.534  96.949  77.485  1.00  0.00     0.151 C 
BRANCH  13  14
ATOM     14  C   UNL     1      96.979  96.546  78.805  1.00  0.00    -0.025 A 
ATOM     15  C   UNL     1      97.256  97.317  79.959  1.00  0.00     0.056 A 
ATOM     16  C   UNL     1      96.172  95.392  78.933  1.00  0.00     0.009 A 
ATOM     17  C   UNL     1      96.721  96.957  81.217  1.00  0.00     0.160 A 
ATOM     18  C   UNL     1      95.636  95.029  80.181  1.00  0.00     0.050 A 
ATOM     19  C   UNL     1      95.913  95.802  81.325  1.00  0.00     0.157 A 
BRANCH  17  20
ATOM     20  O   UNL     1      97.025  97.682  82.342  1.00  0.00    -0.493 OA
ATOM     21  C   UNL     1      96.367  98.959  82.416  1.00  0.00     0.278 C 
ENDBRANCH  17  20
BRANCH  19  22
ATOM     22  O   UNL     1      95.414  95.428  82.530  1.00  0.00    -0.504 OA
ATOM     23  H   UNL     1      94.771  96.078  82.826  1.00  0.00     0.293 HD
ENDBRANCH  19  22
ENDBRANCH  13  14
ENDBRANCH  11  13
ENDBRANCH   8   9
ENDBRANCH   1   8
TORSDOF 11
ENDMDL
MODEL 3
REMARK VINA RESULT:    -5.320      3.302      7.500
REMARK INTER + INTRA:          -9.740
REMARK INTER:                  -9.049
REMARK INTRA:                  -0.691
REMARK UNBOUND:                -1.154
REMARK SMILES CCCCCCCCC(=O)NCc1ccc(O)c(OC)c1
REMARK SMILES IDX 7 1 6 2 5 3 4 4 3 5 2 6 1 7 8 8 9 9 10 10 11 11 12 13 13 14
REMARK SMILES IDX 21 15 14 16 18 17 15 18 16 19 19 20 20 21 17 22
REMARK H PARENT 11 12 17 23
REMARK Flexibility Score: inf
ROOT
ATOM      1  C   UNL     1      96.312  96.705  80.871  1.00  0.00     0.010 C 
ENDROOT
BRANCH   1   2
ATOM      2  C   UNL     1      97.462  97.670  81.280  1.00  0.00     0.001 C 
BRANCH   2   3
ATOM      3  C   UNL     1      97.705  97.680  82.818  1.00  0.00     0.000 C 
BRANCH   3   4
ATOM      4  C   UNL     1      99.176  97.381  83.223  1.00  0.00    -0.000 C 
BRANCH   4   5
ATOM      5  C   UNL     1      99.344  95.984  83.885  1.00  0.00    -0.000 C 
BRANCH   5   6
ATOM      6  C   UNL     1     100.236  96.029  85.155  1.00  0.00    -0.003 C 
ATOM      7  C   UNL     1     101.399  95.014  85.108  1.00  0.00     0.004 C 
ENDBRANCH   5   6
ENDBRANCH   4   5
ENDBRANCH   3   4
ENDBRANCH   2   3
ENDBRANCH   1   2
BRANCH   1   8
ATOM      8  C   UNL     1      96.320  95.355  81.642  1.00  0.00     0.100 C 
BRANCH   8   9
ATOM      9  C   UNL     1      95.824  94.246  80.792  1.00  0.00     0.220 C 
ATOM     10  O   UNL     1      95.742  93.101  81.297  1.00  0.00    -0.275 OA
ATOM     11  N   UNL     1      95.439  94.478  79.503  1.00  0.00    -0.352 N 
ATOM     12  H   UNL     1      95.628  95.413  79.173  1.00  0.00     0.163 HD
BRANCH  11  13
ATOM     13  C   UNL     1      94.816  93.528  78.633  1.00  0.00     0.151 C 
BRANCH  13  14
ATOM     14  C   UNL     1      93.500  93.973  78.101  1.00  0.00    -0.025 A 
ATOM     15  C   UNL     1      92.391  93.093  78.115  1.00  0.00     0.056 A 
ATOM     16  C   UNL     1      93.332  95.274  77.571  1.00  0.00     0.009 A 
ATOM     17  C   UNL     1      91.130  93.508  77.629  1.00  0.00     0.160 A 
ATOM     18  C   UNL     1      92.080  95.692  77.087  1.00  0.00     0.050 A 
ATOM     19  C   UNL     1      90.980  94.812  77.107  1.00  0.00     0.157 A 
BRANCH  17  20
ATOM     20  O   UNL     1      90.068  92.639  77.605  1.00  0.00    -0.493 OA
ATOM     21  C   UNL     1      90.107  91.691  76.524  1.00  0.00     0.278 C 
ENDBRANCH  17  20
BRANCH  19  22
ATOM     22  O   UNL     1      89.783  95.217  76.613  1.00  0.00    -0.504 OA
ATOM     23  H   UNL     1      89.114  94.559  76.816  1.00  0.00     0.293 HD
ENDBRANCH  19  22
ENDBRANCH  13  14
ENDBRANCH  11  13
ENDBRANCH   8   9
ENDBRANCH   1   8
TORSDOF 11
ENDMDL
MODEL 4
REMARK VINA RESULT:    -5.269     12.989     15.279
REMARK INTER + INTRA:          -9.658
REMARK INTER:                  -8.965
REMARK INTRA:                  -0.693
REMARK UNBOUND:                -1.154
REMARK SMILES CCCCCCCCC(=O)NCc1ccc(O)c(OC)c1
REMARK SMILES IDX 7 1 6 2 5 3 4 4 3 5 2 6 1 7 8 8 9 9 10 10 11 11 12 13 13 14
REMARK SMILES IDX 21 15 14 16 18 17 15 18 16 19 19 20 20 21 17 22
REMARK H PARENT 11 12 17 23
REMARK Flexibility Score: inf
ROOT
ATOM      1  C   UNL     1      96.702  81.204  77.290  1.00  0.00     0.010 C 
ENDROOT
BRANCH   1   2
ATOM      2  C   UNL     1      97.627  81.141  78.540  1.00  0.00     0.001 C 
BRANCH   2   3
ATOM      3  C   UNL     1      97.124  82.061  79.692  1.00  0.00     0.000 C 
BRANCH   3   4
ATOM      4  C   UNL     1      97.443  81.518  81.113  1.00  0.00    -0.000 C 
BRANCH   4   5
ATOM      5  C   UNL     1      96.418  81.993  82.181  1.00  0.00    -0.000 C 
BRANCH   5   6
ATOM      6  C   UNL     1      95.915  80.832  83.082  1.00  0.00    -0.003 C 
ATOM      7  C   UNL     1      96.278  79.439  82.523  1.00  0.00     0.004 C 
ENDBRANCH   5   6
ENDBRANCH   4   5
ENDBRANCH   3   4
ENDBRANCH   2   3
ENDBRANCH   1   2
BRANCH   1   8
ATOM      8  C   UNL     1      95.932  82.546  77.144  1.00  0.00     0.100 C 
BRANCH   8   9
ATOM      9  C   UNL     1      96.302  83.247  75.891  1.00  0.00     0.220 C 
ATOM     10  O   UNL     1      95.591  84.210  75.515  1.00  0.00    -0.275 OA
ATOM     11  N   UNL     1      97.408  82.869  75.185  1.00  0.00    -0.352 N 
ATOM     12  H   UNL     1      97.856  82.031  75.528  1.00  0.00     0.163 HD
BRANCH  11  13
ATOM     13  C   UNL     1      97.946  83.549  74.047  1.00  0.00     0.151 C 
BRANCH  13  14
ATOM     14  C   UNL     1      99.291  83.064  73.637  1.00  0.00    -0.025 A 
ATOM     15  C   UNL     1      99.798  83.372  72.352  1.00  0.00     0.056 A 
ATOM     16  C   UNL     1     100.083  82.288  74.515  1.00  0.00     0.009 A 
ATOM     17  C   UNL     1     101.082  82.932  71.954  1.00  0.00     0.160 A 
ATOM     18  C   UNL     1     101.360  81.848  74.126  1.00  0.00     0.050 A 
ATOM     19  C   UNL     1     101.860  82.160  72.847  1.00  0.00     0.157 A 
BRANCH  17  20
ATOM     20  O   UNL     1     101.554  83.195  70.693  1.00  0.00    -0.493 OA
ATOM     21  C   UNL     1     101.076  82.288  69.684  1.00  0.00     0.278 C 
ENDBRANCH  17  20
BRANCH  19  22
ATOM     22  O   UNL     1     103.083  81.708  72.470  1.00  0.00    -0.504 OA
ATOM     23  H   UNL     1     103.227  81.910  71.543  1.00  0.00     0.293 HD
ENDBRANCH  19  22
ENDBRANCH  13  14
ENDBRANCH  11  13
ENDBRANCH   8   9
ENDBRANCH   1   8
TORSDOF 11
ENDMDL
MODEL 5
REMARK VINA RESULT:    -5.219     14.360     17.064
REMARK INTER + INTRA:          -9.578
REMARK INTER:                  -9.009
REMARK INTRA:                  -0.568
REMARK UNBOUND:                -1.154
REMARK SMILES CCCCCCCCC(=O)NCc1ccc(O)c(OC)c1
REMARK SMILES IDX 7 1 6 2 5 3 4 4 3 5 2 6 1 7 8 8 9 9 10 10 11 11 12 13 13 14
REMARK SMILES IDX 21 15 14 16 18 17 15 18 16 19 19 20 20 21 17 22
REMARK H PARENT 11 12 17 23
REMARK Flexibility Score: inf
ROOT
ATOM      1  C   UNL     1      95.737  80.407  84.446  1.00  0.00     0.010 C 
ENDROOT
BRANCH   1   2
ATOM      2  C   UNL     1      96.808  80.162  83.344  1.00  0.00     0.001 C 
BRANCH   2   3
ATOM      3  C   UNL     1      96.315  80.606  81.935  1.00  0.00     0.000 C 
BRANCH   3   4
ATOM      4  C   UNL     1      97.116  81.796  81.337  1.00  0.00    -0.000 C 
BRANCH   4   5
ATOM      5  C   UNL     1      97.775  81.450  79.971  1.00  0.00    -0.000 C 
BRANCH   5   6
ATOM      6  C   UNL     1      97.006  82.058  78.768  1.00  0.00    -0.003 C 
ATOM      7  C   UNL     1      97.642  81.699  77.406  1.00  0.00     0.004 C 
ENDBRANCH   5   6
ENDBRANCH   4   5
ENDBRANCH   3   4
ENDBRANCH   2   3
ENDBRANCH   1   2
BRANCH   1   8
ATOM      8  C   UNL     1      95.514  81.908  84.785  1.00  0.00     0.100 C 
BRANCH   8   9
ATOM      9  C   UNL     1      94.172  82.135  85.373  1.00  0.00     0.220 C 
ATOM     10  O   UNL     1      94.093  82.785  86.443  1.00  0.00    -0.275 OA
ATOM     11  N   UNL     1      93.052  81.671  84.745  1.00  0.00    -0.352 N 
ATOM     12  H   UNL     1      93.235  81.089  83.940  1.00  0.00     0.163 HD
BRANCH  11  13
ATOM     13  C   UNL     1      91.702  81.944  85.133  1.00  0.00     0.151 C 
BRANCH  13  14
ATOM     14  C   UNL     1      90.750  80.847  84.814  1.00  0.00    -0.025 A 
ATOM     15  C   UNL     1      89.379  81.131  84.607  1.00  0.00     0.056 A 
ATOM     16  C   UNL     1      91.192  79.507  84.715  1.00  0.00     0.009 A 
ATOM     17  C   UNL     1      88.466  80.101  84.285  1.00  0.00     0.160 A 
ATOM     18  C   UNL     1      90.289  78.478  84.394  1.00  0.00     0.050 A 
ATOM     19  C   UNL     1      88.926  78.769  84.187  1.00  0.00     0.157 A 
BRANCH  17  20
ATOM     20  O   UNL     1      87.130  80.372  84.126  1.00  0.00    -0.493 OA
ATOM     21  C   UNL     1      86.830  81.767  83.943  1.00  0.00     0.278 C 
ENDBRANCH  17  20
BRANCH  19  22
ATOM     22  O   UNL     1      88.057  77.764  83.905  1.00  0.00    -0.504 OA
ATOM     23  H   UNL     1      87.412  77.692  84.612  1.00  0.00     0.293 HD
ENDBRANCH  19  22
ENDBRANCH  13  14
ENDBRANCH  11  13
ENDBRANCH   8   9
ENDBRANCH   1   8
TORSDOF 11
ENDMDL
MODEL 6
REMARK VINA RESULT:    -5.216     10.870     14.729
REMARK INTER + INTRA:          -9.572
REMARK INTER:                  -8.214
REMARK INTRA:                  -1.358
REMARK UNBOUND:                -1.154
REMARK SMILES CCCCCCCCC(=O)NCc1ccc(O)c(OC)c1
REMARK SMILES IDX 7 1 6 2 5 3 4 4 3 5 2 6 1 7 8 8 9 9 10 10 11 11 12 13 13 14
REMARK SMILES IDX 21 15 14 16 18 17 15 18 16 19 19 20 20 21 17 22
REMARK H PARENT 11 12 17 23
REMARK Flexibility Score: inf
ROOT
ATOM      1  C   UNL     1      89.563  98.670  70.238  1.00  0.00     0.010 C 
ENDROOT
BRANCH   1   2
ATOM      2  C   UNL     1      90.301 100.038  70.172  1.00  0.00     0.001 C 
BRANCH   2   3
ATOM      3  C   UNL     1      91.799  99.921  70.581  1.00  0.00     0.000 C 
BRANCH   3   4
ATOM      4  C   UNL     1      92.755 100.786  69.713  1.00  0.00    -0.000 C 
BRANCH   4   5
ATOM      5  C   UNL     1      92.106 101.240  68.374  1.00  0.00    -0.000 C 
BRANCH   5   6
ATOM      6  C   UNL     1      93.159 101.647  67.309  1.00  0.00    -0.003 C 
ATOM      7  C   UNL     1      93.900 102.955  67.666  1.00  0.00     0.004 C 
ENDBRANCH   5   6
ENDBRANCH   4   5
ENDBRANCH   3   4
ENDBRANCH   2   3
ENDBRANCH   1   2
BRANCH   1   8
ATOM      8  C   UNL     1      89.785  97.774  68.987  1.00  0.00     0.100 C 
BRANCH   8   9
ATOM      9  C   UNL     1      89.412  98.485  67.741  1.00  0.00     0.220 C 
ATOM     10  O   UNL     1      90.249  98.530  66.808  1.00  0.00    -0.275 OA
ATOM     11  N   UNL     1      88.176  99.049  67.608  1.00  0.00    -0.352 N 
ATOM     12  H   UNL     1      87.615  99.030  68.447  1.00  0.00     0.163 HD
BRANCH  11  13
ATOM     13  C   UNL     1      87.649  99.635  66.413  1.00  0.00     0.151 C 
BRANCH  13  14
ATOM     14  C   UNL     1      87.720 101.121  66.390  1.00  0.00    -0.025 A 
ATOM     15  C   UNL     1      88.969 101.776  66.505  1.00  0.00     0.056 A 
ATOM     16  C   UNL     1      86.549 101.902  66.259  1.00  0.00     0.009 A 
ATOM     17  C   UNL     1      89.054 103.187  66.467  1.00  0.00     0.160 A 
ATOM     18  C   UNL     1      86.626 103.306  66.219  1.00  0.00     0.050 A 
ATOM     19  C   UNL     1      87.873 103.951  66.331  1.00  0.00     0.157 A 
BRANCH  17  20
ATOM     20  O   UNL     1      90.261 103.821  66.621  1.00  0.00    -0.493 OA
ATOM     21  C   UNL     1      91.037 103.911  65.413  1.00  0.00     0.278 C 
ENDBRANCH  17  20
BRANCH  19  22
ATOM     22  O   UNL     1      87.934 105.307  66.320  1.00  0.00    -0.504 OA
ATOM     23  H   UNL     1      88.535 105.595  65.628  1.00  0.00     0.293 HD
ENDBRANCH  19  22
ENDBRANCH  13  14
ENDBRANCH  11  13
ENDBRANCH   8   9
ENDBRANCH   1   8
TORSDOF 11
ENDMDL
MODEL 7
REMARK VINA RESULT:    -5.176     13.616     16.262
REMARK INTER + INTRA:          -9.507
REMARK INTER:                  -8.705
REMARK INTRA:                  -0.802
REMARK UNBOUND:                -1.154
REMARK SMILES CCCCCCCCC(=O)NCc1ccc(O)c(OC)c1
REMARK SMILES IDX 7 1 6 2 5 3 4 4 3 5 2 6 1 7 8 8 9 9 10 10 11 11 12 13 13 14
REMARK SMILES IDX 21 15 14 16 18 17 15 18 16 19 19 20 20 21 17 22
REMARK H PARENT 11 12 17 23
REMARK Flexibility Score: inf
ROOT
ATOM      1  C   UNL     1      97.754  81.674  78.268  1.00  0.00     0.010 C 
ENDROOT
BRANCH   1   2
ATOM      2  C   UNL     1      97.458  80.197  78.657  1.00  0.00     0.001 C 
BRANCH   2   3
ATOM      3  C   UNL     1      97.538  79.966  80.195  1.00  0.00     0.000 C 
BRANCH   3   4
ATOM      4  C   UNL     1      97.810  81.261  81.010  1.00  0.00    -0.000 C 
BRANCH   4   5
ATOM      5  C   UNL     1      96.621  81.647  81.936  1.00  0.00    -0.000 C 
BRANCH   5   6
ATOM      6  C   UNL     1      96.049  80.429  82.710  1.00  0.00    -0.003 C 
ATOM      7  C   UNL     1      95.238  80.839  83.959  1.00  0.00     0.004 C 
ENDBRANCH   5   6
ENDBRANCH   4   5
ENDBRANCH   3   4
ENDBRANCH   2   3
ENDBRANCH   1   2
BRANCH   1   8
ATOM      8  C   UNL     1      96.501  82.464  77.796  1.00  0.00     0.100 C 
BRANCH   8   9
ATOM      9  C   UNL     1      96.567  82.764  76.345  1.00  0.00     0.220 C 
ATOM     10  O   UNL     1      95.547  83.238  75.789  1.00  0.00    -0.275 OA
ATOM     11  N   UNL     1      97.720  82.553  75.645  1.00  0.00    -0.352 N 
ATOM     12  H   UNL     1      98.447  82.089  76.168  1.00  0.00     0.163 HD
BRANCH  11  13
ATOM     13  C   UNL     1      97.952  82.932  74.284  1.00  0.00     0.151 C 
BRANCH  13  14
ATOM     14  C   UNL     1      97.909  81.793  73.328  1.00  0.00    -0.025 A 
ATOM     15  C   UNL     1      99.064  81.437  72.592  1.00  0.00     0.056 A 
ATOM     16  C   UNL     1      96.721  81.051  73.134  1.00  0.00     0.009 A 
ATOM     17  C   UNL     1      99.043  80.347  71.692  1.00  0.00     0.160 A 
ATOM     18  C   UNL     1      96.694  79.965  72.241  1.00  0.00     0.050 A 
ATOM     19  C   UNL     1      97.848  79.615  71.514  1.00  0.00     0.157 A 
BRANCH  17  20
ATOM     20  O   UNL     1     100.152  80.030  70.948  1.00  0.00    -0.493 OA
ATOM     21  C   UNL     1     101.214  79.421  71.704  1.00  0.00     0.278 C 
ENDBRANCH  17  20
BRANCH  19  22
ATOM     22  O   UNL     1      97.804  78.582  70.634  1.00  0.00    -0.504 OA
ATOM     23  H   UNL     1      97.812  78.924  69.738  1.00  0.00     0.293 HD
ENDBRANCH  19  22
ENDBRANCH  13  14
ENDBRANCH  11  13
ENDBRANCH   8   9
ENDBRANCH   1   8
TORSDOF 11
ENDMDL
MODEL 8
REMARK VINA RESULT:    -5.004     14.483     17.219
REMARK INTER + INTRA:          -9.230
REMARK INTER:                  -8.605
REMARK INTRA:                  -0.625
REMARK UNBOUND:                -1.154
REMARK SMILES CCCCCCCCC(=O)NCc1ccc(O)c(OC)c1
REMARK SMILES IDX 7 1 6 2 5 3 4 4 3 5 2 6 1 7 8 8 9 9 10 10 11 11 12 13 13 14
REMARK SMILES IDX 21 15 14 16 18 17 15 18 16 19 19 20 20 21 17 22
REMARK H PARENT 11 12 17 23
REMARK Flexibility Score: inf
ROOT
ATOM      1  C   UNL     1      95.867  80.466  82.880  1.00  0.00     0.010 C 
ENDROOT
BRANCH   1   2
ATOM      2  C   UNL     1      96.883  80.615  81.711  1.00  0.00     0.001 C 
BRANCH   2   3
ATOM      3  C   UNL     1      96.881  82.051  81.108  1.00  0.00     0.000 C 
BRANCH   3   4
ATOM      4  C   UNL     1      96.889  82.078  79.554  1.00  0.00    -0.000 C 
BRANCH   4   5
ATOM      5  C   UNL     1      98.141  81.382  78.948  1.00  0.00    -0.000 C 
BRANCH   5   6
ATOM      6  C   UNL     1      97.774  80.347  77.850  1.00  0.00    -0.003 C 
ATOM      7  C   UNL     1      96.624  80.824  76.936  1.00  0.00     0.004 C 
ENDBRANCH   5   6
ENDBRANCH   4   5
ENDBRANCH   3   4
ENDBRANCH   2   3
ENDBRANCH   1   2
BRANCH   1   8
ATOM      8  C   UNL     1      95.532  81.804  83.597  1.00  0.00     0.100 C 
BRANCH   8   9
ATOM      9  C   UNL     1      94.500  81.611  84.644  1.00  0.00     0.220 C 
ATOM     10  O   UNL     1      94.875  81.497  85.835  1.00  0.00    -0.275 OA
ATOM     11  N   UNL     1      93.175  81.588  84.316  1.00  0.00    -0.352 N 
ATOM     12  H   UNL     1      92.990  81.601  83.324  1.00  0.00     0.163 HD
BRANCH  11  13
ATOM     13  C   UNL     1      92.085  81.551  85.243  1.00  0.00     0.151 C 
BRANCH  13  14
ATOM     14  C   UNL     1      91.024  80.572  84.885  1.00  0.00    -0.025 A 
ATOM     15  C   UNL     1      91.327  79.191  84.807  1.00  0.00     0.056 A 
ATOM     16  C   UNL     1      89.704  80.998  84.614  1.00  0.00     0.009 A 
ATOM     17  C   UNL     1      90.325  78.247  84.485  1.00  0.00     0.160 A 
ATOM     18  C   UNL     1      88.703  80.063  84.294  1.00  0.00     0.050 A 
ATOM     19  C   UNL     1      89.009  78.691  84.221  1.00  0.00     0.157 A 
BRANCH  17  20
ATOM     20  O   UNL     1      90.629  76.914  84.369  1.00  0.00    -0.493 OA
ATOM     21  C   UNL     1      91.372  76.381  85.479  1.00  0.00     0.278 C 
ENDBRANCH  17  20
BRANCH  19  22
ATOM     22  O   UNL     1      88.042  77.799  83.885  1.00  0.00    -0.504 OA
ATOM     23  H   UNL     1      88.201  77.475  82.995  1.00  0.00     0.293 HD
ENDBRANCH  19  22
ENDBRANCH  13  14
ENDBRANCH  11  13
ENDBRANCH   8   9
ENDBRANCH   1   8
TORSDOF 11
ENDMDL
MODEL 9
REMARK VINA RESULT:    -4.971      1.372      2.463
REMARK INTER + INTRA:          -9.177
REMARK INTER:                  -7.650
REMARK INTRA:                  -1.527
REMARK UNBOUND:                -1.154
REMARK SMILES CCCCCCCCC(=O)NCc1ccc(O)c(OC)c1
REMARK SMILES IDX 7 1 6 2 5 3 4 4 3 5 2 6 1 7 8 8 9 9 10 10 11 11 12 13 13 14
REMARK SMILES IDX 21 15 14 16 18 17 15 18 16 19 19 20 20 21 17 22
REMARK H PARENT 11 12 17 23
REMARK Flexibility Score: inf
ROOT
ATOM      1  C   UNL     1      94.843  95.661  75.077  1.00  0.00     0.010 C 
ENDROOT
BRANCH   1   2
ATOM      2  C   UNL     1      93.334  95.827  75.420  1.00  0.00     0.001 C 
BRANCH   2   3
ATOM      3  C   UNL     1      92.705  94.508  75.960  1.00  0.00     0.000 C 
BRANCH   3   4
ATOM      4  C   UNL     1      92.446  94.519  77.493  1.00  0.00    -0.000 C 
BRANCH   4   5
ATOM      5  C   UNL     1      93.758  94.618  78.322  1.00  0.00    -0.000 C 
BRANCH   5   6
ATOM      6  C   UNL     1      94.381  93.228  78.620  1.00  0.00    -0.003 C 
ATOM      7  C   UNL     1      95.794  93.061  78.019  1.00  0.00     0.004 C 
ENDBRANCH   5   6
ENDBRANCH   4   5
ENDBRANCH   3   4
ENDBRANCH   2   3
ENDBRANCH   1   2
BRANCH   1   8
ATOM      8  C   UNL     1      95.494  96.936  74.471  1.00  0.00     0.100 C 
BRANCH   8   9
ATOM      9  C   UNL     1      96.495  97.523  75.396  1.00  0.00     0.220 C 
ATOM     10  O   UNL     1      96.586  98.772  75.459  1.00  0.00    -0.275 OA
ATOM     11  N   UNL     1      97.273  96.718  76.177  1.00  0.00    -0.352 N 
ATOM     12  H   UNL     1      97.179  95.731  75.984  1.00  0.00     0.163 HD
BRANCH  11  13
ATOM     13  C   UNL     1      98.168  97.161  77.202  1.00  0.00     0.151 C 
BRANCH  13  14
ATOM     14  C   UNL     1      98.115  96.341  78.442  1.00  0.00    -0.025 A 
ATOM     15  C   UNL     1      96.953  96.347  79.251  1.00  0.00     0.056 A 
ATOM     16  C   UNL     1      99.216  95.547  78.836  1.00  0.00     0.009 A 
ATOM     17  C   UNL     1      96.881  95.560  80.423  1.00  0.00     0.160 A 
ATOM     18  C   UNL     1      99.151  94.761  80.000  1.00  0.00     0.050 A 
ATOM     19  C   UNL     1      97.991  94.770  80.799  1.00  0.00     0.157 A 
BRANCH  17  20
ATOM     20  O   UNL     1      95.771  95.600  81.228  1.00  0.00    -0.493 OA
ATOM     21  C   UNL     1      95.676  96.782  82.042  1.00  0.00     0.278 C 
ENDBRANCH  17  20
BRANCH  19  22
ATOM     22  O   UNL     1      97.948  94.029  81.936  1.00  0.00    -0.504 OA
ATOM     23  H   UNL     1      97.796  94.605  82.688  1.00  0.00     0.293 HD
ENDBRANCH  19  22
ENDBRANCH  13  14
ENDBRANCH  11  13
ENDBRANCH   8   9
ENDBRANCH   1   8
TORSDOF 11
ENDMDL
MODEL 10
REMARK VINA RESULT:    -4.949     13.178     15.723
REMARK INTER + INTRA:          -9.141
REMARK INTER:                  -8.368
REMARK INTRA:                  -0.773
REMARK UNBOUND:                -1.154
REMARK SMILES CCCCCCCCC(=O)NCc1ccc(O)c(OC)c1
REMARK SMILES IDX 7 1 6 2 5 3 4 4 3 5 2 6 1 7 8 8 9 9 10 10 11 11 12 13 13 14
REMARK SMILES IDX 21 15 14 16 18 17 15 18 16 19 19 20 20 21 17 22
REMARK H PARENT 11 12 17 23
REMARK Flexibility Score: inf
ROOT
ATOM      1  C   UNL     1      97.894  81.074  77.632  1.00  0.00     0.010 C 
ENDROOT
BRANCH   1   2
ATOM      2  C   UNL     1      97.507  79.653  78.135  1.00  0.00     0.001 C 
BRANCH   2   3
ATOM      3  C   UNL     1      98.122  79.335  79.530  1.00  0.00     0.000 C 
BRANCH   3   4
ATOM      4  C   UNL     1      98.652  80.588  80.282  1.00  0.00    -0.000 C 
BRANCH   4   5
ATOM      5  C   UNL     1      97.814  80.927  81.548  1.00  0.00    -0.000 C 
BRANCH   5   6
ATOM      6  C   UNL     1      96.683  79.896  81.807  1.00  0.00    -0.003 C 
ATOM      7  C   UNL     1      95.921  80.160  83.124  1.00  0.00     0.004 C 
ENDBRANCH   5   6
ENDBRANCH   4   5
ENDBRANCH   3   4
ENDBRANCH   2   3
ENDBRANCH   1   2
BRANCH   1   8
ATOM      8  C   UNL     1      96.748  82.117  77.750  1.00  0.00     0.100 C 
BRANCH   8   9
ATOM      9  C   UNL     1      96.563  82.862  76.481  1.00  0.00     0.220 C 
ATOM     10  O   UNL     1      95.525  83.553  76.343  1.00  0.00    -0.275 OA
ATOM     11  N   UNL     1      97.516  82.817  75.505  1.00  0.00    -0.352 N 
ATOM     12  H   UNL     1      98.266  82.165  75.683  1.00  0.00     0.163 HD
BRANCH  11  13
ATOM     13  C   UNL     1      97.521  83.596  74.305  1.00  0.00     0.151 C 
BRANCH  13  14
ATOM     14  C   UNL     1      98.617  83.244  73.363  1.00  0.00    -0.025 A 
ATOM     15  C   UNL     1      98.874  81.889  73.044  1.00  0.00     0.056 A 
ATOM     16  C   UNL     1      99.421  84.248  72.776  1.00  0.00     0.009 A 
ATOM     17  C   UNL     1      99.902  81.541  72.138  1.00  0.00     0.160 A 
ATOM     18  C   UNL     1     100.444  83.908  71.873  1.00  0.00     0.050 A 
ATOM     19  C   UNL     1     100.692  82.558  71.557  1.00  0.00     0.157 A 
BRANCH  17  20
ATOM     20  O   UNL     1     100.177  80.225  71.862  1.00  0.00    -0.493 OA
ATOM     21  C   UNL     1      99.012  79.384  71.782  1.00  0.00     0.278 C 
ENDBRANCH  17  20
BRANCH  19  22
ATOM     22  O   UNL     1     101.700  82.238  70.705  1.00  0.00    -0.504 OA
ATOM     23  H   UNL     1     102.428  81.855  71.201  1.00  0.00     0.293 HD
ENDBRANCH  19  22
ENDBRANCH  13  14
ENDBRANCH  11  13
ENDBRANCH   8   9
ENDBRANCH   1   8
TORSDOF 11
ENDMDL
