MODEL 1
REMARK VINA RESULT:    -5.943      0.000      0.000
REMARK INTER + INTRA:         -11.673
REMARK INTER:                  -9.939
REMARK INTRA:                  -1.734
REMARK UNBOUND:                -1.734
REMARK SMILES COc1cc(CNC(=O)CCCCCCCC(C)C)ccc1O
REMARK SMILES IDX 11 1 10 2 8 3 9 4 7 5 6 7 5 8 4 9 20 10 3 11 21 12 22 13
REMARK SMILES IDX 2 14 1 15 23 16 12 18 13 19 14 20 15 21 16 22 17 23 18 24
REMARK SMILES IDX 19 25
REMARK H PARENT 7 6 23 17
REMARK Flexibility Score: inf
ROOT
ATOM      1  C   UNL     1      77.070  87.173  66.716  1.00  0.00     0.010 C 
ENDROOT
BRANCH   1   2
ATOM      2  C   UNL     1      77.507  85.868  67.379  1.00  0.00     0.100 C 
BRANCH   2   3
ATOM      3  C   UNL     1      77.355  84.671  66.456  1.00  0.00     0.220 C 
ATOM      4  O   UNL     1      77.903  83.591  66.657  1.00  0.00    -0.275 OA
ATOM      5  N   UNL     1      76.536  84.962  65.375  1.00  0.00    -0.352 N 
ATOM      6  H   UNL     1      76.133  85.891  65.286  1.00  0.00     0.163 HD
BRANCH   5   7
ATOM      7  C   UNL     1      76.232  83.999  64.341  1.00  0.00     0.151 C 
BRANCH   7   8
ATOM      8  C   UNL     1      74.980  83.228  64.642  1.00  0.00    -0.025 A 
ATOM      9  C   UNL     1      73.742  83.781  64.336  1.00  0.00     0.056 A 
ATOM     10  C   UNL     1      75.071  81.970  65.224  1.00  0.00     0.009 A 
ATOM     11  C   UNL     1      72.578  83.064  64.616  1.00  0.00     0.160 A 
ATOM     12  C   UNL     1      73.907  81.254  65.505  1.00  0.00     0.050 A 
ATOM     13  C   UNL     1      72.660  81.801  65.201  1.00  0.00     0.157 A 
BRANCH  11  14
ATOM     14  O   UNL     1      71.366  83.609  64.315  1.00  0.00    -0.493 OA
ATOM     15  C   UNL     1      70.637  84.200  65.389  1.00  0.00     0.278 C 
ENDBRANCH  11  14
BRANCH  13  16
ATOM     16  O   UNL     1      71.531  81.091  65.479  1.00  0.00    -0.504 OA
ATOM     17  H   UNL     1      70.756  81.610  65.204  1.00  0.00     0.293 HD
ENDBRANCH  13  16
ENDBRANCH   7   8
ENDBRANCH   5   7
ENDBRANCH   2   3
ENDBRANCH   1   2
BRANCH   1  18
ATOM     18  C   UNL     1      77.523  88.424  67.473  1.00  0.00     0.001 C 
BRANCH  18  19
ATOM     19  C   UNL     1      76.418  89.429  67.818  1.00  0.00     0.000 C 
BRANCH  19  20
ATOM     20  C   UNL     1      75.008  88.891  67.555  1.00  0.00     0.000 C 
BRANCH  20  21
ATOM     21  C   UNL     1      74.083  88.985  68.773  1.00  0.00     0.000 C 
BRANCH  21  22
ATOM     22  C   UNL     1      73.430  87.649  69.142  1.00  0.00     0.003 C 
BRANCH  22  23
ATOM     23  C   UNL     1      74.186  86.423  68.594  1.00  0.00    -0.017 C 
ATOM     24  C   UNL     1      73.347  85.738  67.513  1.00  0.00     0.007 C 
ATOM     25  C   UNL     1      74.538  85.415  69.688  1.00  0.00     0.007 C 
ENDBRANCH  22  23
ENDBRANCH  21  22
ENDBRANCH  20  21
ENDBRANCH  19  20
ENDBRANCH  18  19
ENDBRANCH   1  18
TORSDOF 12
ENDMDL
MODEL 2
REMARK VINA RESULT:    -5.920      1.959      4.211
REMARK INTER + INTRA:         -11.633
REMARK INTER:                 -10.073
REMARK INTRA:                  -1.561
REMARK UNBOUND:                -1.734
REMARK SMILES COc1cc(CNC(=O)CCCCCCCC(C)C)ccc1O
REMARK SMILES IDX 11 1 10 2 8 3 9 4 7 5 6 7 5 8 4 9 20 10 3 11 21 12 22 13
REMARK SMILES IDX 2 14 1 15 23 16 12 18 13 19 14 20 15 21 16 22 17 23 18 24
REMARK SMILES IDX 19 25
REMARK H PARENT 7 6 23 17
REMARK Flexibility Score: inf
ROOT
ATOM      1  C   UNL     1      74.309  85.438  69.595  1.00  0.00     0.010 C 
ENDROOT
BRANCH   1   2
ATOM      2  C   UNL     1      74.240  86.850  69.018  1.00  0.00     0.100 C 
BRANCH   2   3
ATOM      3  C   UNL     1      73.305  86.943  67.824  1.00  0.00     0.220 C 
ATOM      4  O   UNL     1      73.184  87.955  67.139  1.00  0.00    -0.275 OA
ATOM      5  N   UNL     1      72.615  85.756  67.623  1.00  0.00    -0.352 N 
ATOM      6  H   UNL     1      72.772  84.972  68.251  1.00  0.00     0.163 HD
BRANCH   5   7
ATOM      7  C   UNL     1      71.655  85.578  66.559  1.00  0.00     0.151 C 
BRANCH   7   8
ATOM      8  C   UNL     1      71.596  84.154  66.088  1.00  0.00    -0.025 A 
ATOM      9  C   UNL     1      72.772  83.487  65.766  1.00  0.00     0.056 A 
ATOM     10  C   UNL     1      70.366  83.518  65.977  1.00  0.00     0.009 A 
ATOM     11  C   UNL     1      72.717  82.164  65.328  1.00  0.00     0.160 A 
ATOM     12  C   UNL     1      70.311  82.194  65.539  1.00  0.00     0.050 A 
ATOM     13  C   UNL     1      71.486  81.517  65.214  1.00  0.00     0.157 A 
BRANCH  11  14
ATOM     14  O   UNL     1      73.872  81.513  65.014  1.00  0.00    -0.493 OA
ATOM     15  C   UNL     1      74.619  82.018  63.908  1.00  0.00     0.278 C 
ENDBRANCH  11  14
BRANCH  13  16
ATOM     16  O   UNL     1      71.420  80.225  64.789  1.00  0.00    -0.504 OA
ATOM     17  H   UNL     1      70.579  79.837  65.086  1.00  0.00     0.293 HD
ENDBRANCH  13  16
ENDBRANCH   7   8
ENDBRANCH   5   7
ENDBRANCH   2   3
ENDBRANCH   1   2
BRANCH   1  18
ATOM     18  C   UNL     1      75.661  84.754  69.374  1.00  0.00     0.001 C 
BRANCH  18  19
ATOM     19  C   UNL     1      76.822  85.682  69.005  1.00  0.00     0.000 C 
BRANCH  19  20
ATOM     20  C   UNL     1      77.253  85.559  67.541  1.00  0.00     0.000 C 
BRANCH  20  21
ATOM     21  C   UNL     1      77.106  86.863  66.750  1.00  0.00     0.000 C 
BRANCH  21  22
ATOM     22  C   UNL     1      77.518  88.105  67.547  1.00  0.00     0.003 C 
BRANCH  22  23
ATOM     23  C   UNL     1      76.881  89.408  67.026  1.00  0.00    -0.017 C 
ATOM     24  C   UNL     1      75.877  89.940  68.052  1.00  0.00     0.007 C 
ATOM     25  C   UNL     1      76.186  89.222  65.676  1.00  0.00     0.007 C 
ENDBRANCH  22  23
ENDBRANCH  21  22
ENDBRANCH  20  21
ENDBRANCH  19  20
ENDBRANCH  18  19
ENDBRANCH   1  18
TORSDOF 12
ENDMDL
MODEL 3
REMARK VINA RESULT:    -5.604     20.155     22.806
REMARK INTER + INTRA:         -11.105
REMARK INTER:                 -10.796
REMARK INTRA:                  -0.309
REMARK UNBOUND:                -1.734
REMARK SMILES COc1cc(CNC(=O)CCCCCCCC(C)C)ccc1O
REMARK SMILES IDX 11 1 10 2 8 3 9 4 7 5 6 7 5 8 4 9 20 10 3 11 21 12 22 13
REMARK SMILES IDX 2 14 1 15 23 16 12 18 13 19 14 20 15 21 16 22 17 23 18 24
REMARK SMILES IDX 19 25
REMARK H PARENT 7 6 23 17
REMARK Flexibility Score: inf
ROOT
ATOM      1  C   UNL     1      92.065 100.030  70.826  1.00  0.00     0.010 C 
ENDROOT
BRANCH   1   2
ATOM      2  C   UNL     1      92.453  99.906  72.298  1.00  0.00     0.100 C 
BRANCH   2   3
ATOM      3  C   UNL     1      93.662  99.009  72.505  1.00  0.00     0.220 C 
ATOM      4  O   UNL     1      94.546  98.866  71.665  1.00  0.00    -0.275 OA
ATOM      5  N   UNL     1      93.626  98.383  73.742  1.00  0.00    -0.352 N 
ATOM      6  H   UNL     1      92.845  98.555  74.369  1.00  0.00     0.163 HD
BRANCH   5   7
ATOM      7  C   UNL     1      94.653  97.469  74.187  1.00  0.00     0.151 C 
BRANCH   7   8
ATOM      8  C   UNL     1      94.081  96.310  74.949  1.00  0.00    -0.025 A 
ATOM      9  C   UNL     1      92.916  96.480  75.688  1.00  0.00     0.056 A 
ATOM     10  C   UNL     1      94.721  95.077  74.908  1.00  0.00     0.009 A 
ATOM     11  C   UNL     1      92.385  95.403  76.397  1.00  0.00     0.160 A 
ATOM     12  C   UNL     1      94.190  94.000  75.617  1.00  0.00     0.050 A 
ATOM     13  C   UNL     1      93.022  94.162  76.362  1.00  0.00     0.157 A 
BRANCH  11  14
ATOM     14  O   UNL     1      91.243  95.574  77.121  1.00  0.00    -0.493 OA
ATOM     15  C   UNL     1      90.114  94.788  76.745  1.00  0.00     0.278 C 
ENDBRANCH  11  14
BRANCH  13  16
ATOM     16  O   UNL     1      92.512  93.102  77.049  1.00  0.00    -0.504 OA
ATOM     17  H   UNL     1      92.647  93.248  78.001  1.00  0.00     0.293 HD
ENDBRANCH  13  16
ENDBRANCH   7   8
ENDBRANCH   5   7
ENDBRANCH   2   3
ENDBRANCH   1   2
BRANCH   1  18
ATOM     18  C   UNL     1      90.865  99.163  70.435  1.00  0.00     0.001 C 
BRANCH  18  19
ATOM     19  C   UNL     1      89.848  99.820  69.496  1.00  0.00     0.000 C 
BRANCH  19  20
ATOM     20  C   UNL     1      89.001  98.809  68.719  1.00  0.00     0.000 C 
BRANCH  20  21
ATOM     21  C   UNL     1      89.202  98.882  67.202  1.00  0.00     0.000 C 
BRANCH  21  22
ATOM     22  C   UNL     1      88.998 100.290  66.631  1.00  0.00     0.003 C 
BRANCH  22  23
ATOM     23  C   UNL     1      87.623 100.897  66.971  1.00  0.00    -0.017 C 
ATOM     24  C   UNL     1      86.514 100.061  66.326  1.00  0.00     0.007 C 
ATOM     25  C   UNL     1      87.497 102.352  66.519  1.00  0.00     0.007 C 
ENDBRANCH  22  23
ENDBRANCH  21  22
ENDBRANCH  20  21
ENDBRANCH  19  20
ENDBRANCH  18  19
ENDBRANCH   1  18
TORSDOF 12
ENDMDL
MODEL 4
REMARK VINA RESULT:    -5.600     23.698     25.758
REMARK INTER + INTRA:         -11.099
REMARK INTER:                 -10.507
REMARK INTRA:                  -0.593
REMARK UNBOUND:                -1.734
REMARK SMILES COc1cc(CNC(=O)CCCCCCCC(C)C)ccc1O
REMARK SMILES IDX 11 1 10 2 8 3 9 4 7 5 6 7 5 8 4 9 20 10 3 11 21 12 22 13
REMARK SMILES IDX 2 14 1 15 23 16 12 18 13 19 14 20 15 21 16 22 17 23 18 24
REMARK SMILES IDX 19 25
REMARK H PARENT 7 6 23 17
REMARK Flexibility Score: inf
ROOT
ATOM      1  C   UNL     1      95.881  81.390  83.682  1.00  0.00     0.010 C 
ENDROOT
BRANCH   1   2
ATOM      2  C   UNL     1      96.293  82.204  82.457  1.00  0.00     0.100 C 
BRANCH   2   3
ATOM      3  C   UNL     1      96.858  81.333  81.347  1.00  0.00     0.220 C 
ATOM      4  O   UNL     1      96.719  80.114  81.310  1.00  0.00    -0.275 OA
ATOM      5  N   UNL     1      97.545  82.087  80.407  1.00  0.00    -0.352 N 
ATOM      6  H   UNL     1      97.618  83.094  80.528  1.00  0.00     0.163 HD
BRANCH   5   7
ATOM      7  C   UNL     1      98.188  81.503  79.252  1.00  0.00     0.151 C 
BRANCH   7   8
ATOM      8  C   UNL     1      97.579  81.985  77.968  1.00  0.00    -0.025 A 
ATOM      9  C   UNL     1      98.306  81.897  76.786  1.00  0.00     0.056 A 
ATOM     10  C   UNL     1      96.294  82.515  77.973  1.00  0.00     0.009 A 
ATOM     11  C   UNL     1      97.740  82.344  75.593  1.00  0.00     0.160 A 
ATOM     12  C   UNL     1      95.729  82.963  76.779  1.00  0.00     0.050 A 
ATOM     13  C   UNL     1      96.451  82.878  75.589  1.00  0.00     0.157 A 
BRANCH  11  14
ATOM     14  O   UNL     1      98.456  82.257  74.437  1.00  0.00    -0.493 OA
ATOM     15  C   UNL     1      99.828  82.643  74.494  1.00  0.00     0.278 C 
ENDBRANCH  11  14
BRANCH  13  16
ATOM     16  O   UNL     1      95.887  83.318  74.430  1.00  0.00    -0.504 OA
ATOM     17  H   UNL     1      95.030  83.731  74.631  1.00  0.00     0.293 HD
ENDBRANCH  13  16
ENDBRANCH   7   8
ENDBRANCH   5   7
ENDBRANCH   2   3
ENDBRANCH   1   2
BRANCH   1  18
ATOM     18  C   UNL     1      94.573  81.867  84.319  1.00  0.00     0.001 C 
BRANCH  18  19
ATOM     19  C   UNL     1      93.703  80.773  84.947  1.00  0.00     0.000 C 
BRANCH  19  20
ATOM     20  C   UNL     1      92.211  80.942  84.647  1.00  0.00     0.000 C 
BRANCH  20  21
ATOM     21  C   UNL     1      91.519  81.970  85.549  1.00  0.00     0.000 C 
BRANCH  21  22
ATOM     22  C   UNL     1      89.991  81.935  85.447  1.00  0.00     0.003 C 
BRANCH  22  23
ATOM     23  C   UNL     1      89.343  80.832  86.307  1.00  0.00    -0.017 C 
ATOM     24  C   UNL     1      87.920  80.559  85.812  1.00  0.00     0.007 C 
ATOM     25  C   UNL     1      89.309  81.192  87.793  1.00  0.00     0.007 C 
ENDBRANCH  22  23
ENDBRANCH  21  22
ENDBRANCH  20  21
ENDBRANCH  19  20
ENDBRANCH  18  19
ENDBRANCH   1  18
TORSDOF 12
ENDMDL
MODEL 5
REMARK VINA RESULT:    -5.265     23.337     27.239
REMARK INTER + INTRA:         -10.539
REMARK INTER:                  -9.397
REMARK INTRA:                  -1.142
REMARK UNBOUND:                -1.734
REMARK SMILES COc1cc(CNC(=O)CCCCCCCC(C)C)ccc1O
REMARK SMILES IDX 11 1 10 2 8 3 9 4 7 5 6 7 5 8 4 9 20 10 3 11 21 12 22 13
REMARK SMILES IDX 2 14 1 15 23 16 12 18 13 19 14 20 15 21 16 22 17 23 18 24
REMARK SMILES IDX 19 25
REMARK H PARENT 7 6 23 17
REMARK Flexibility Score: inf
ROOT
ATOM      1  C   UNL     1      96.566  96.819  74.542  1.00  0.00     0.010 C 
ENDROOT
BRANCH   1   2
ATOM      2  C   UNL     1      96.625  97.459  75.928  1.00  0.00     0.100 C 
BRANCH   2   3
ATOM      3  C   UNL     1      97.393  96.608  76.926  1.00  0.00     0.220 C 
ATOM      4  O   UNL     1      98.593  96.747  77.147  1.00  0.00    -0.275 OA
ATOM      5  N   UNL     1      96.572  95.669  77.533  1.00  0.00    -0.352 N 
ATOM      6  H   UNL     1      95.590  95.621  77.277  1.00  0.00     0.163 HD
BRANCH   5   7
ATOM      7  C   UNL     1      97.054  94.728  78.517  1.00  0.00     0.151 C 
BRANCH   7   8
ATOM      8  C   UNL     1      96.994  95.290  79.908  1.00  0.00    -0.025 A 
ATOM      9  C   UNL     1      98.089  95.153  80.753  1.00  0.00     0.056 A 
ATOM     10  C   UNL     1      95.843  95.940  80.337  1.00  0.00     0.009 A 
ATOM     11  C   UNL     1      98.032  95.675  82.045  1.00  0.00     0.160 A 
ATOM     12  C   UNL     1      95.787  96.462  81.630  1.00  0.00     0.050 A 
ATOM     13  C   UNL     1      96.881  96.329  82.484  1.00  0.00     0.157 A 
BRANCH  11  14
ATOM     14  O   UNL     1      99.108  95.539  82.870  1.00  0.00    -0.493 OA
ATOM     15  C   UNL     1     100.146  96.511  82.748  1.00  0.00     0.278 C 
ENDBRANCH  11  14
BRANCH  13  16
ATOM     16  O   UNL     1      96.814  96.844  83.743  1.00  0.00    -0.504 OA
ATOM     17  H   UNL     1      95.893  96.801  84.054  1.00  0.00     0.293 HD
ENDBRANCH  13  16
ENDBRANCH   7   8
ENDBRANCH   5   7
ENDBRANCH   2   3
ENDBRANCH   1   2
BRANCH   1  18
ATOM     18  C   UNL     1      95.145  96.708  73.982  1.00  0.00     0.001 C 
BRANCH  18  19
ATOM     19  C   UNL     1      94.220  95.726  74.707  1.00  0.00     0.000 C 
BRANCH  19  20
ATOM     20  C   UNL     1      93.143  96.417  75.548  1.00  0.00     0.000 C 
BRANCH  20  21
ATOM     21  C   UNL     1      92.617  95.551  76.698  1.00  0.00     0.000 C 
BRANCH  21  22
ATOM     22  C   UNL     1      91.686  94.427  76.233  1.00  0.00     0.003 C 
BRANCH  22  23
ATOM     23  C   UNL     1      91.723  93.183  77.143  1.00  0.00    -0.017 C 
ATOM     24  C   UNL     1      90.329  92.921  77.718  1.00  0.00     0.007 C 
ATOM     25  C   UNL     1      92.732  93.322  78.284  1.00  0.00     0.007 C 
ENDBRANCH  22  23
ENDBRANCH  21  22
ENDBRANCH  20  21
ENDBRANCH  19  20
ENDBRANCH  18  19
ENDBRANCH   1  18
TORSDOF 12
ENDMDL
MODEL 6
REMARK VINA RESULT:    -5.259     24.029     26.840
REMARK INTER + INTRA:         -10.528
REMARK INTER:                  -9.757
REMARK INTRA:                  -0.771
REMARK UNBOUND:                -1.734
REMARK SMILES COc1cc(CNC(=O)CCCCCCCC(C)C)ccc1O
REMARK SMILES IDX 11 1 10 2 8 3 9 4 7 5 6 7 5 8 4 9 20 10 3 11 21 12 22 13
REMARK SMILES IDX 2 14 1 15 23 16 12 18 13 19 14 20 15 21 16 22 17 23 18 24
REMARK SMILES IDX 19 25
REMARK H PARENT 7 6 23 17
REMARK Flexibility Score: inf
ROOT
ATOM      1  C   UNL     1      97.716  81.729  77.708  1.00  0.00     0.010 C 
ENDROOT
BRANCH   1   2
ATOM      2  C   UNL     1      96.402  82.445  77.402  1.00  0.00     0.100 C 
BRANCH   2   3
ATOM      3  C   UNL     1      96.426  83.149  76.056  1.00  0.00     0.220 C 
ATOM      4  O   UNL     1      95.557  83.935  75.691  1.00  0.00    -0.275 OA
ATOM      5  N   UNL     1      97.536  82.782  75.309  1.00  0.00    -0.352 N 
ATOM      6  H   UNL     1      98.199  82.112  75.690  1.00  0.00     0.163 HD
BRANCH   5   7
ATOM      7  C   UNL     1      97.795  83.301  73.985  1.00  0.00     0.151 C 
BRANCH   7   8
ATOM      8  C   UNL     1      99.256  83.260  73.643  1.00  0.00    -0.025 A 
ATOM      9  C   UNL     1     100.019  82.159  74.014  1.00  0.00     0.056 A 
ATOM     10  C   UNL     1      99.831  84.325  72.960  1.00  0.00     0.009 A 
ATOM     11  C   UNL     1     101.377  82.122  73.696  1.00  0.00     0.160 A 
ATOM     12  C   UNL     1     101.190  84.288  72.643  1.00  0.00     0.050 A 
ATOM     13  C   UNL     1     101.963  83.187  73.011  1.00  0.00     0.157 A 
BRANCH  11  14
ATOM     14  O   UNL     1     102.122  81.041  74.061  1.00  0.00    -0.493 OA
ATOM     15  C   UNL     1     101.873  80.491  75.354  1.00  0.00     0.278 C 
ENDBRANCH  11  14
BRANCH  13  16
ATOM     16  O   UNL     1     103.287  83.162  72.694  1.00  0.00    -0.504 OA
ATOM     17  H   UNL     1     103.661  84.050  72.828  1.00  0.00     0.293 HD
ENDBRANCH  13  16
ENDBRANCH   7   8
ENDBRANCH   5   7
ENDBRANCH   2   3
ENDBRANCH   1   2
BRANCH   1  18
ATOM     18  C   UNL     1      97.850  81.297  79.171  1.00  0.00     0.001 C 
BRANCH  18  19
ATOM     19  C   UNL     1      97.001  82.083  80.176  1.00  0.00     0.000 C 
BRANCH  19  20
ATOM     20  C   UNL     1      96.906  81.407  81.546  1.00  0.00     0.000 C 
BRANCH  20  21
ATOM     21  C   UNL     1      96.963  82.393  82.718  1.00  0.00     0.000 C 
BRANCH  21  22
ATOM     22  C   UNL     1      95.632  82.523  83.467  1.00  0.00     0.003 C 
BRANCH  22  23
ATOM     23  C   UNL     1      95.080  81.178  83.977  1.00  0.00    -0.017 C 
ATOM     24  C   UNL     1      93.696  81.387  84.596  1.00  0.00     0.007 C 
ATOM     25  C   UNL     1      96.005  80.515  84.999  1.00  0.00     0.007 C 
ENDBRANCH  22  23
ENDBRANCH  21  22
ENDBRANCH  20  21
ENDBRANCH  19  20
ENDBRANCH  18  19
ENDBRANCH   1  18
TORSDOF 12
ENDMDL
MODEL 7
REMARK VINA RESULT:    -5.070      7.621     11.781
REMARK INTER + INTRA:         -10.212
REMARK INTER:                  -9.547
REMARK INTRA:                  -0.665
REMARK UNBOUND:                -1.734
REMARK SMILES COc1cc(CNC(=O)CCCCCCCC(C)C)ccc1O
REMARK SMILES IDX 11 1 10 2 8 3 9 4 7 5 6 7 5 8 4 9 20 10 3 11 21 12 22 13
REMARK SMILES IDX 2 14 1 15 23 16 12 18 13 19 14 20 15 21 16 22 17 23 18 24
REMARK SMILES IDX 19 25
REMARK H PARENT 7 6 23 17
REMARK Flexibility Score: inf
ROOT
ATOM      1  C   UNL     1      73.967  91.203  68.791  1.00  0.00     0.010 C 
ENDROOT
BRANCH   1   2
ATOM      2  C   UNL     1      74.528  91.569  70.164  1.00  0.00     0.100 C 
BRANCH   2   3
ATOM      3  C   UNL     1      75.044  92.997  70.216  1.00  0.00     0.220 C 
ATOM      4  O   UNL     1      75.033  93.753  69.249  1.00  0.00    -0.275 OA
ATOM      5  N   UNL     1      75.527  93.319  71.476  1.00  0.00    -0.352 N 
ATOM      6  H   UNL     1      75.506  92.621  72.215  1.00  0.00     0.163 HD
BRANCH   5   7
ATOM      7  C   UNL     1      76.084  94.613  71.794  1.00  0.00     0.151 C 
BRANCH   7   8
ATOM      8  C   UNL     1      76.837  94.597  73.092  1.00  0.00    -0.025 A 
ATOM      9  C   UNL     1      77.711  95.634  73.394  1.00  0.00     0.056 A 
ATOM     10  C   UNL     1      76.654  93.543  73.979  1.00  0.00     0.009 A 
ATOM     11  C   UNL     1      78.411  95.618  74.600  1.00  0.00     0.160 A 
ATOM     12  C   UNL     1      77.355  93.527  75.186  1.00  0.00     0.050 A 
ATOM     13  C   UNL     1      78.233  94.564  75.496  1.00  0.00     0.157 A 
BRANCH  11  14
ATOM     14  O   UNL     1      79.267  96.638  74.892  1.00  0.00    -0.493 OA
ATOM     15  C   UNL     1      78.685  97.876  75.297  1.00  0.00     0.278 C 
ENDBRANCH  11  14
BRANCH  13  16
ATOM     16  O   UNL     1      78.911  94.538  76.678  1.00  0.00    -0.504 OA
ATOM     17  H   UNL     1      78.304  94.789  77.396  1.00  0.00     0.293 HD
ENDBRANCH  13  16
ENDBRANCH   7   8
ENDBRANCH   5   7
ENDBRANCH   2   3
ENDBRANCH   1   2
BRANCH   1  18
ATOM     18  C   UNL     1      74.551  89.908  68.219  1.00  0.00     0.001 C 
BRANCH  18  19
ATOM     19  C   UNL     1      76.050  89.693  68.458  1.00  0.00     0.000 C 
BRANCH  19  20
ATOM     20  C   UNL     1      76.802  89.235  67.205  1.00  0.00     0.000 C 
BRANCH  20  21
ATOM     21  C   UNL     1      77.370  87.816  67.319  1.00  0.00     0.000 C 
BRANCH  21  22
ATOM     22  C   UNL     1      76.472  86.866  68.118  1.00  0.00     0.003 C 
BRANCH  22  23
ATOM     23  C   UNL     1      77.147  85.521  68.454  1.00  0.00    -0.017 C 
ATOM     24  C   UNL     1      77.392  84.729  67.167  1.00  0.00     0.007 C 
ATOM     25  C   UNL     1      76.321  84.679  69.427  1.00  0.00     0.007 C 
ENDBRANCH  22  23
ENDBRANCH  21  22
ENDBRANCH  20  21
ENDBRANCH  19  20
ENDBRANCH  18  19
ENDBRANCH   1  18
TORSDOF 12
ENDMDL
MODEL 8
REMARK VINA RESULT:    -5.044     22.369     26.232
REMARK INTER + INTRA:         -10.170
REMARK INTER:                  -9.147
REMARK INTRA:                  -1.023
REMARK UNBOUND:                -1.734
REMARK SMILES COc1cc(CNC(=O)CCCCCCCC(C)C)ccc1O
REMARK SMILES IDX 11 1 10 2 8 3 9 4 7 5 6 7 5 8 4 9 20 10 3 11 21 12 22 13
REMARK SMILES IDX 2 14 1 15 23 16 12 18 13 19 14 20 15 21 16 22 17 23 18 24
REMARK SMILES IDX 19 25
REMARK H PARENT 7 6 23 17
REMARK Flexibility Score: inf
ROOT
ATOM      1  C   UNL     1      95.379  96.006  73.771  1.00  0.00     0.010 C 
ENDROOT
BRANCH   1   2
ATOM      2  C   UNL     1      96.379  97.010  73.201  1.00  0.00     0.100 C 
BRANCH   2   3
ATOM      3  C   UNL     1      97.082  97.807  74.287  1.00  0.00     0.220 C 
ATOM      4  O   UNL     1      97.042  99.033  74.357  1.00  0.00    -0.275 OA
ATOM      5  N   UNL     1      97.766  96.979  75.165  1.00  0.00    -0.352 N 
ATOM      6  H   UNL     1      97.751  95.973  75.021  1.00  0.00     0.163 HD
BRANCH   5   7
ATOM      7  C   UNL     1      98.526  97.483  76.286  1.00  0.00     0.151 C 
BRANCH   7   8
ATOM      8  C   UNL     1      98.428  96.581  77.481  1.00  0.00    -0.025 A 
ATOM      9  C   UNL     1      97.226  95.945  77.766  1.00  0.00     0.056 A 
ATOM     10  C   UNL     1      99.541  96.392  78.291  1.00  0.00     0.009 A 
ATOM     11  C   UNL     1      97.135  95.107  78.878  1.00  0.00     0.160 A 
ATOM     12  C   UNL     1      99.450  95.554  79.404  1.00  0.00     0.050 A 
ATOM     13  C   UNL     1      98.247  94.912  79.697  1.00  0.00     0.157 A 
BRANCH  11  14
ATOM     14  O   UNL     1      95.955  94.486  79.154  1.00  0.00    -0.493 OA
ATOM     15  C   UNL     1      95.841  93.114  78.779  1.00  0.00     0.278 C 
ENDBRANCH  11  14
BRANCH  13  16
ATOM     16  O   UNL     1      98.172  94.095  80.785  1.00  0.00    -0.504 OA
ATOM     17  H   UNL     1      98.040  93.179  80.484  1.00  0.00     0.293 HD
ENDBRANCH  13  16
ENDBRANCH   7   8
ENDBRANCH   5   7
ENDBRANCH   2   3
ENDBRANCH   1   2
BRANCH   1  18
ATOM     18  C   UNL     1      94.431  96.612  74.810  1.00  0.00     0.001 C 
BRANCH  18  19
ATOM     19  C   UNL     1      93.332  95.679  75.331  1.00  0.00     0.000 C 
BRANCH  19  20
ATOM     20  C   UNL     1      92.201  96.419  76.050  1.00  0.00     0.000 C 
BRANCH  20  21
ATOM     21  C   UNL     1      91.558  95.603  77.176  1.00  0.00     0.000 C 
BRANCH  21  22
ATOM     22  C   UNL     1      90.599  94.520  76.670  1.00  0.00     0.003 C 
BRANCH  22  23
ATOM     23  C   UNL     1      90.913  93.115  77.221  1.00  0.00    -0.017 C 
ATOM     24  C   UNL     1      92.191  93.164  78.063  1.00  0.00     0.007 C 
ATOM     25  C   UNL     1      91.067  92.072  76.113  1.00  0.00     0.007 C 
ENDBRANCH  22  23
ENDBRANCH  21  22
ENDBRANCH  20  21
ENDBRANCH  19  20
ENDBRANCH  18  19
ENDBRANCH   1  18
TORSDOF 12
ENDMDL
MODEL 9
REMARK VINA RESULT:    -4.982     23.416     25.893
REMARK INTER + INTRA:         -10.066
REMARK INTER:                  -9.394
REMARK INTRA:                  -0.672
REMARK UNBOUND:                -1.734
REMARK SMILES COc1cc(CNC(=O)CCCCCCCC(C)C)ccc1O
REMARK SMILES IDX 11 1 10 2 8 3 9 4 7 5 6 7 5 8 4 9 20 10 3 11 21 12 22 13
REMARK SMILES IDX 2 14 1 15 23 16 12 18 13 19 14 20 15 21 16 22 17 23 18 24
REMARK SMILES IDX 19 25
REMARK H PARENT 7 6 23 17
REMARK Flexibility Score: inf
ROOT
ATOM      1  C   UNL     1      95.316  81.198  85.297  1.00  0.00     0.010 C 
ENDROOT
BRANCH   1   2
ATOM      2  C   UNL     1      94.898  82.038  86.502  1.00  0.00     0.100 C 
BRANCH   2   3
ATOM      3  C   UNL     1      93.581  82.761  86.275  1.00  0.00     0.220 C 
ATOM      4  O   UNL     1      93.455  83.978  86.370  1.00  0.00    -0.275 OA
ATOM      5  N   UNL     1      92.561  81.875  85.959  1.00  0.00    -0.352 N 
ATOM      6  H   UNL     1      92.758  80.879  85.914  1.00  0.00     0.163 HD
BRANCH   5   7
ATOM      7  C   UNL     1      91.205  82.301  85.703  1.00  0.00     0.151 C 
BRANCH   7   8
ATOM      8  C   UNL     1      90.364  81.190  85.144  1.00  0.00    -0.025 A 
ATOM      9  C   UNL     1      89.031  81.428  84.830  1.00  0.00     0.056 A 
ATOM     10  C   UNL     1      90.927  79.935  84.946  1.00  0.00     0.009 A 
ATOM     11  C   UNL     1      88.250  80.396  84.310  1.00  0.00     0.160 A 
ATOM     12  C   UNL     1      90.145  78.903  84.427  1.00  0.00     0.050 A 
ATOM     13  C   UNL     1      88.807  79.132  84.109  1.00  0.00     0.157 A 
BRANCH  11  14
ATOM     14  O   UNL     1      86.943  80.632  84.004  1.00  0.00    -0.493 OA
ATOM     15  C   UNL     1      86.183  81.385  84.949  1.00  0.00     0.278 C 
ENDBRANCH  11  14
BRANCH  13  16
ATOM     16  O   UNL     1      88.054  78.117  83.602  1.00  0.00    -0.504 OA
ATOM     17  H   UNL     1      87.316  77.936  84.209  1.00  0.00     0.293 HD
ENDBRANCH  13  16
ENDBRANCH   7   8
ENDBRANCH   5   7
ENDBRANCH   2   3
ENDBRANCH   1   2
BRANCH   1  18
ATOM     18  C   UNL     1      95.122  81.914  83.958  1.00  0.00     0.001 C 
BRANCH  18  19
ATOM     19  C   UNL     1      95.958  83.181  83.754  1.00  0.00     0.000 C 
BRANCH  19  20
ATOM     20  C   UNL     1      96.913  83.090  82.561  1.00  0.00     0.000 C 
BRANCH  20  21
ATOM     21  C   UNL     1      96.675  81.858  81.681  1.00  0.00     0.000 C 
BRANCH  21  22
ATOM     22  C   UNL     1      96.797  82.151  80.182  1.00  0.00     0.003 C 
BRANCH  22  23
ATOM     23  C   UNL     1      97.550  81.055  79.402  1.00  0.00    -0.017 C 
ATOM     24  C   UNL     1      98.819  80.660  80.160  1.00  0.00     0.007 C 
ATOM     25  C   UNL     1      97.914  81.492  77.982  1.00  0.00     0.007 C 
ENDBRANCH  22  23
ENDBRANCH  21  22
ENDBRANCH  20  21
ENDBRANCH  19  20
ENDBRANCH  18  19
ENDBRANCH   1  18
TORSDOF 12
ENDMDL
MODEL 10
REMARK VINA RESULT:    -4.966     23.740     26.484
REMARK INTER + INTRA:         -10.038
REMARK INTER:                  -9.214
REMARK INTRA:                  -0.824
REMARK UNBOUND:                -1.734
REMARK SMILES COc1cc(CNC(=O)CCCCCCCC(C)C)ccc1O
REMARK SMILES IDX 11 1 10 2 8 3 9 4 7 5 6 7 5 8 4 9 20 10 3 11 21 12 22 13
REMARK SMILES IDX 2 14 1 15 23 16 12 18 13 19 14 20 15 21 16 22 17 23 18 24
REMARK SMILES IDX 19 25
REMARK H PARENT 7 6 23 17
REMARK Flexibility Score: inf
ROOT
ATOM      1  C   UNL     1      97.425  81.682  77.898  1.00  0.00     0.010 C 
ENDROOT
BRANCH   1   2
ATOM      2  C   UNL     1      96.156  82.455  77.545  1.00  0.00     0.100 C 
BRANCH   2   3
ATOM      3  C   UNL     1      96.145  82.919  76.098  1.00  0.00     0.220 C 
ATOM      4  O   UNL     1      95.649  83.982  75.735  1.00  0.00    -0.275 OA
ATOM      5  N   UNL     1      96.751  81.994  75.262  1.00  0.00    -0.352 N 
ATOM      6  H   UNL     1      97.125  81.133  75.652  1.00  0.00     0.163 HD
BRANCH   5   7
ATOM      7  C   UNL     1      96.868  82.187  73.834  1.00  0.00     0.151 C 
BRANCH   7   8
ATOM      8  C   UNL     1      98.275  82.508  73.424  1.00  0.00    -0.025 A 
ATOM      9  C   UNL     1      99.123  81.485  73.015  1.00  0.00     0.056 A 
ATOM     10  C   UNL     1      98.717  83.825  73.457  1.00  0.00     0.009 A 
ATOM     11  C   UNL     1     100.431  81.784  72.634  1.00  0.00     0.160 A 
ATOM     12  C   UNL     1     100.026  84.123  73.077  1.00  0.00     0.050 A 
ATOM     13  C   UNL     1     100.883  83.103  72.665  1.00  0.00     0.157 A 
BRANCH  11  14
ATOM     14  O   UNL     1     101.259  80.778  72.235  1.00  0.00    -0.493 OA
ATOM     15  C   UNL     1     101.101  80.301  70.899  1.00  0.00     0.278 C 
ENDBRANCH  11  14
BRANCH  13  16
ATOM     16  O   UNL     1     102.158  83.407  72.295  1.00  0.00    -0.504 OA
ATOM     17  H   UNL     1     102.178  84.315  71.948  1.00  0.00     0.293 HD
ENDBRANCH  13  16
ENDBRANCH   7   8
ENDBRANCH   5   7
ENDBRANCH   2   3
ENDBRANCH   1   2
BRANCH   1  18
ATOM     18  C   UNL     1      97.681  81.584  79.405  1.00  0.00     0.001 C 
BRANCH  18  19
ATOM     19  C   UNL     1      96.739  82.404  80.293  1.00  0.00     0.000 C 
BRANCH  19  20
ATOM     20  C   UNL     1      96.635  81.866  81.723  1.00  0.00     0.000 C 
BRANCH  20  21
ATOM     21  C   UNL     1      96.654  80.335  81.802  1.00  0.00     0.000 C 
BRANCH  21  22
ATOM     22  C   UNL     1      95.991  79.786  83.069  1.00  0.00     0.003 C 
BRANCH  22  23
ATOM     23  C   UNL     1      96.539  78.412  83.502  1.00  0.00    -0.017 C 
ATOM     24  C   UNL     1      97.989  78.558  83.971  1.00  0.00     0.007 C 
ATOM     25  C   UNL     1      96.463  77.371  82.385  1.00  0.00     0.007 C 
ENDBRANCH  22  23
ENDBRANCH  21  22
ENDBRANCH  20  21
ENDBRANCH  19  20
ENDBRANCH  18  19
ENDBRANCH   1  18
TORSDOF 12
ENDMDL
