MODEL 1
REMARK VINA RESULT:    -5.732      0.000      0.000
REMARK INTER + INTRA:         -10.182
REMARK INTER:                  -9.418
REMARK INTRA:                  -0.764
REMARK UNBOUND:                -0.764
REMARK SMILES CCCCC[C@H](O)CC(=O)CCc1ccc(O)c(OC)c1
REMARK SMILES IDX 8 1 6 2 7 3 5 5 4 6 3 7 2 8 1 9 9 10 10 11 11 12 12 13 13 14
REMARK SMILES IDX 21 15 14 16 18 17 15 18 16 19 19 20 20 21 17 22
REMARK H PARENT 7 4 17 23
REMARK Flexibility Score: inf
ROOT
ATOM      1  C   UNL     1      92.601  99.543  74.207  1.00  0.00     0.107 C 
ENDROOT
BRANCH   1   2
ATOM      2  C   UNL     1      93.564  98.611  74.947  1.00  0.00     0.121 C 
BRANCH   2   3
ATOM      3  O   UNL     1      94.433  99.376  75.779  1.00  0.00    -0.393 OA
ATOM      4  H   UNL     1      94.143 100.304  75.740  1.00  0.00     0.210 HD
ENDBRANCH   2   3
BRANCH   2   5
ATOM      5  C   UNL     1      92.845  97.559  75.800  1.00  0.00     0.032 C 
BRANCH   5   6
ATOM      6  C   UNL     1      93.717  96.321  76.043  1.00  0.00     0.003 C 
BRANCH   6   7
ATOM      7  C   UNL     1      93.539  95.720  77.441  1.00  0.00    -0.000 C 
BRANCH   7   8
ATOM      8  C   UNL     1      92.100  95.768  77.951  1.00  0.00    -0.003 C 
ATOM      9  C   UNL     1      91.235  94.719  77.269  1.00  0.00     0.004 C 
ENDBRANCH   7   8
ENDBRANCH   6   7
ENDBRANCH   5   6
ENDBRANCH   2   5
ENDBRANCH   1   2
BRANCH   1  10
ATOM     10  C   UNL     1      93.186 100.107  72.923  1.00  0.00     0.135 C 
ATOM     11  O   UNL     1      94.350 100.506  72.880  1.00  0.00    -0.300 OA
BRANCH  10  12
ATOM     12  C   UNL     1      92.279 100.106  71.702  1.00  0.00     0.080 C 
BRANCH  12  13
ATOM     13  C   UNL     1      90.855  99.630  71.995  1.00  0.00     0.043 C 
BRANCH  13  14
ATOM     14  C   UNL     1      90.202  98.956  70.812  1.00  0.00    -0.044 A 
ATOM     15  C   UNL     1      89.890  99.696  69.671  1.00  0.00     0.054 A 
ATOM     16  C   UNL     1      89.911  97.592  70.860  1.00  0.00     0.008 A 
ATOM     17  C   UNL     1      89.287  99.072  68.579  1.00  0.00     0.160 A 
ATOM     18  C   UNL     1      89.308  96.968  69.767  1.00  0.00     0.050 A 
ATOM     19  C   UNL     1      88.996  97.708  68.627  1.00  0.00     0.157 A 
BRANCH  17  20
ATOM     20  O   UNL     1      88.986  99.805  67.471  1.00  0.00    -0.493 OA
ATOM     21  C   UNL     1      89.610 101.082  67.350  1.00  0.00     0.278 C 
ENDBRANCH  17  20
BRANCH  19  22
ATOM     22  O   UNL     1      88.407  97.088  67.567  1.00  0.00    -0.504 OA
ATOM     23  H   UNL     1      87.608  96.626  67.874  1.00  0.00     0.293 HD
ENDBRANCH  19  22
ENDBRANCH  13  14
ENDBRANCH  12  13
ENDBRANCH  10  12
ENDBRANCH   1  10
TORSDOF 12
ENDMDL
MODEL 2
REMARK VINA RESULT:    -5.675     16.560     20.215
REMARK INTER + INTRA:         -10.089
REMARK INTER:                  -9.180
REMARK INTRA:                  -0.909
REMARK UNBOUND:                -0.764
REMARK SMILES CCCCC[C@H](O)CC(=O)CCc1ccc(O)c(OC)c1
REMARK SMILES IDX 8 1 6 2 7 3 5 5 4 6 3 7 2 8 1 9 9 10 10 11 11 12 12 13 13 14
REMARK SMILES IDX 21 15 14 16 18 17 15 18 16 19 19 20 20 21 17 22
REMARK H PARENT 7 4 17 23
REMARK Flexibility Score: inf
ROOT
ATOM      1  C   UNL     1      98.369  81.978  78.372  1.00  0.00     0.107 C 
ENDROOT
BRANCH   1   2
ATOM      2  C   UNL     1      98.738  82.624  77.035  1.00  0.00     0.121 C 
BRANCH   2   3
ATOM      3  O   UNL     1      97.582  83.220  76.450  1.00  0.00    -0.393 OA
ATOM      4  H   UNL     1      96.920  82.518  76.320  1.00  0.00     0.210 HD
ENDBRANCH   2   3
BRANCH   2   5
ATOM      5  C   UNL     1      99.840  83.683  77.164  1.00  0.00     0.032 C 
BRANCH   5   6
ATOM      6  C   UNL     1     100.968  83.467  76.148  1.00  0.00     0.003 C 
BRANCH   6   7
ATOM      7  C   UNL     1     100.639  84.005  74.752  1.00  0.00    -0.000 C 
BRANCH   7   8
ATOM      8  C   UNL     1     100.501  85.526  74.699  1.00  0.00    -0.003 C 
ATOM      9  C   UNL     1     101.163  86.100  73.456  1.00  0.00     0.004 C 
ENDBRANCH   7   8
ENDBRANCH   6   7
ENDBRANCH   5   6
ENDBRANCH   2   5
ENDBRANCH   1   2
BRANCH   1  10
ATOM     10  C   UNL     1      97.969  82.990  79.433  1.00  0.00     0.135 C 
ATOM     11  O   UNL     1      96.894  83.586  79.366  1.00  0.00    -0.300 OA
BRANCH  10  12
ATOM     12  C   UNL     1      98.939  83.187  80.588  1.00  0.00     0.080 C 
BRANCH  12  13
ATOM     13  C   UNL     1      99.112  81.945  81.464  1.00  0.00     0.043 C 
BRANCH  13  14
ATOM     14  C   UNL     1      98.378  82.043  82.781  1.00  0.00    -0.044 A 
ATOM     15  C   UNL     1      97.784  83.246  83.161  1.00  0.00     0.054 A 
ATOM     16  C   UNL     1      98.295  80.929  83.617  1.00  0.00     0.008 A 
ATOM     17  C   UNL     1      97.106  83.335  84.377  1.00  0.00     0.160 A 
ATOM     18  C   UNL     1      97.617  81.017  84.832  1.00  0.00     0.050 A 
ATOM     19  C   UNL     1      97.023  82.220  85.213  1.00  0.00     0.157 A 
BRANCH  17  20
ATOM     20  O   UNL     1      96.530  84.515  84.738  1.00  0.00    -0.493 OA
ATOM     21  C   UNL     1      97.382  85.501  85.319  1.00  0.00     0.278 C 
ENDBRANCH  17  20
BRANCH  19  22
ATOM     22  O   UNL     1      96.363  82.295  86.402  1.00  0.00    -0.504 OA
ATOM     23  H   UNL     1      96.128  83.222  86.576  1.00  0.00     0.293 HD
ENDBRANCH  19  22
ENDBRANCH  13  14
ENDBRANCH  12  13
ENDBRANCH  10  12
ENDBRANCH   1  10
TORSDOF 12
ENDMDL
MODEL 3
REMARK VINA RESULT:    -5.672     16.898     18.770
REMARK INTER + INTRA:         -10.083
REMARK INTER:                  -8.982
REMARK INTRA:                  -1.101
REMARK UNBOUND:                -0.764
REMARK SMILES CCCCC[C@H](O)CC(=O)CCc1ccc(O)c(OC)c1
REMARK SMILES IDX 8 1 6 2 7 3 5 5 4 6 3 7 2 8 1 9 9 10 10 11 11 12 12 13 13 14
REMARK SMILES IDX 21 15 14 16 18 17 15 18 16 19 19 20 20 21 17 22
REMARK H PARENT 7 4 17 23
REMARK Flexibility Score: inf
ROOT
ATOM      1  C   UNL     1      98.307  82.202  79.109  1.00  0.00     0.107 C 
ENDROOT
BRANCH   1   2
ATOM      2  C   UNL     1      99.394  82.314  80.180  1.00  0.00     0.121 C 
BRANCH   2   3
ATOM      3  O   UNL     1      99.338  83.601  80.793  1.00  0.00    -0.393 OA
ATOM      4  H   UNL     1     100.138  83.706  81.338  1.00  0.00     0.210 HD
ENDBRANCH   2   3
BRANCH   2   5
ATOM      5  C   UNL     1      99.283  81.234  81.263  1.00  0.00     0.032 C 
BRANCH   5   6
ATOM      6  C   UNL     1      99.322  81.829  82.676  1.00  0.00     0.003 C 
BRANCH   6   7
ATOM      7  C   UNL     1      98.237  81.267  83.601  1.00  0.00    -0.000 C 
BRANCH   7   8
ATOM      8  C   UNL     1      97.544  82.331  84.449  1.00  0.00    -0.003 C 
ATOM      9  C   UNL     1      97.406  83.642  83.690  1.00  0.00     0.004 C 
ENDBRANCH   7   8
ENDBRANCH   6   7
ENDBRANCH   5   6
ENDBRANCH   2   5
ENDBRANCH   1   2
BRANCH   1  10
ATOM     10  C   UNL     1      97.427  83.438  79.021  1.00  0.00     0.135 C 
ATOM     11  O   UNL     1      96.694  83.761  79.956  1.00  0.00    -0.300 OA
BRANCH  10  12
ATOM     12  C   UNL     1      97.537  84.265  77.749  1.00  0.00     0.080 C 
BRANCH  12  13
ATOM     13  C   UNL     1      97.766  83.428  76.489  1.00  0.00     0.043 C 
BRANCH  13  14
ATOM     14  C   UNL     1      99.135  83.630  75.885  1.00  0.00    -0.044 A 
ATOM     15  C   UNL     1      99.949  82.530  75.616  1.00  0.00     0.054 A 
ATOM     16  C   UNL     1      99.585  84.919  75.595  1.00  0.00     0.008 A 
ATOM     17  C   UNL     1     101.213  82.718  75.057  1.00  0.00     0.160 A 
ATOM     18  C   UNL     1     100.849  85.107  75.036  1.00  0.00     0.050 A 
ATOM     19  C   UNL     1     101.663  84.007  74.767  1.00  0.00     0.157 A 
BRANCH  17  20
ATOM     20  O   UNL     1     101.999  81.636  74.799  1.00  0.00    -0.493 OA
ATOM     21  C   UNL     1     101.679  80.862  73.644  1.00  0.00     0.278 C 
ENDBRANCH  17  20
BRANCH  19  22
ATOM     22  O   UNL     1     102.895  84.203  74.221  1.00  0.00    -0.504 OA
ATOM     23  H   UNL     1     103.007  83.600  73.466  1.00  0.00     0.293 HD
ENDBRANCH  19  22
ENDBRANCH  13  14
ENDBRANCH  12  13
ENDBRANCH  10  12
ENDBRANCH   1  10
TORSDOF 12
ENDMDL
MODEL 4
REMARK VINA RESULT:    -5.517     20.319     24.236
REMARK INTER + INTRA:          -9.829
REMARK INTER:                  -8.633
REMARK INTRA:                  -1.197
REMARK UNBOUND:                -0.764
REMARK SMILES CCCCC[C@H](O)CC(=O)CCc1ccc(O)c(OC)c1
REMARK SMILES IDX 8 1 6 2 7 3 5 5 4 6 3 7 2 8 1 9 9 10 10 11 11 12 12 13 13 14
REMARK SMILES IDX 21 15 14 16 18 17 15 18 16 19 19 20 20 21 17 22
REMARK H PARENT 7 4 17 23
REMARK Flexibility Score: inf
ROOT
ATOM      1  C   UNL     1      74.292  82.063  64.372  1.00  0.00     0.107 C 
ENDROOT
BRANCH   1   2
ATOM      2  C   UNL     1      73.443  80.793  64.273  1.00  0.00     0.121 C 
BRANCH   2   3
ATOM      3  O   UNL     1      72.806  80.539  65.523  1.00  0.00    -0.393 OA
ATOM      4  H   UNL     1      73.314  79.845  65.980  1.00  0.00     0.210 HD
ENDBRANCH   2   3
BRANCH   2   5
ATOM      5  C   UNL     1      72.380  80.866  63.171  1.00  0.00     0.032 C 
BRANCH   5   6
ATOM      6  C   UNL     1      71.753  82.262  63.066  1.00  0.00     0.003 C 
BRANCH   6   7
ATOM      7  C   UNL     1      70.298  82.311  63.545  1.00  0.00    -0.000 C 
BRANCH   7   8
ATOM      8  C   UNL     1      70.032  83.398  64.585  1.00  0.00    -0.003 C 
ATOM      9  C   UNL     1      70.381  82.922  65.987  1.00  0.00     0.004 C 
ENDBRANCH   7   8
ENDBRANCH   6   7
ENDBRANCH   5   6
ENDBRANCH   2   5
ENDBRANCH   1   2
BRANCH   1  10
ATOM     10  C   UNL     1      74.644  82.434  65.803  1.00  0.00     0.135 C 
ATOM     11  O   UNL     1      73.897  83.146  66.474  1.00  0.00    -0.300 OA
BRANCH  10  12
ATOM     12  C   UNL     1      75.930  81.846  66.364  1.00  0.00     0.080 C 
BRANCH  12  13
ATOM     13  C   UNL     1      77.177  82.669  66.036  1.00  0.00     0.043 C 
BRANCH  13  14
ATOM     14  C   UNL     1      77.391  83.823  66.986  1.00  0.00    -0.044 A 
ATOM     15  C   UNL     1      77.226  83.637  68.359  1.00  0.00     0.054 A 
ATOM     16  C   UNL     1      77.755  85.076  66.491  1.00  0.00     0.008 A 
ATOM     17  C   UNL     1      77.425  84.703  69.236  1.00  0.00     0.160 A 
ATOM     18  C   UNL     1      77.954  86.142  67.368  1.00  0.00     0.050 A 
ATOM     19  C   UNL     1      77.789  85.956  68.740  1.00  0.00     0.157 A 
BRANCH  17  20
ATOM     20  O   UNL     1      77.260  84.509  70.574  1.00  0.00    -0.493 OA
ATOM     21  C   UNL     1      75.921  84.450  71.060  1.00  0.00     0.278 C 
ENDBRANCH  17  20
BRANCH  19  22
ATOM     22  O   UNL     1      77.986  87.004  69.587  1.00  0.00    -0.504 OA
ATOM     23  H   UNL     1      78.177  87.802  69.064  1.00  0.00     0.293 HD
ENDBRANCH  19  22
ENDBRANCH  13  14
ENDBRANCH  12  13
ENDBRANCH  10  12
ENDBRANCH   1  10
TORSDOF 12
ENDMDL
MODEL 5
REMARK VINA RESULT:    -5.404     16.927     20.864
REMARK INTER + INTRA:          -9.644
REMARK INTER:                  -8.766
REMARK INTRA:                  -0.878
REMARK UNBOUND:                -0.764
REMARK SMILES CCCCC[C@H](O)CC(=O)CCc1ccc(O)c(OC)c1
REMARK SMILES IDX 8 1 6 2 7 3 5 5 4 6 3 7 2 8 1 9 9 10 10 11 11 12 12 13 13 14
REMARK SMILES IDX 21 15 14 16 18 17 15 18 16 19 19 20 20 21 17 22
REMARK H PARENT 7 4 17 23
REMARK Flexibility Score: inf
ROOT
ATOM      1  C   UNL     1      98.415  83.327  78.526  1.00  0.00     0.107 C 
ENDROOT
BRANCH   1   2
ATOM      2  C   UNL     1      97.626  83.790  77.299  1.00  0.00     0.121 C 
BRANCH   2   3
ATOM      3  O   UNL     1      97.689  85.210  77.190  1.00  0.00    -0.393 OA
ATOM      4  H   UNL     1      98.462  85.433  76.642  1.00  0.00     0.210 HD
ENDBRANCH   2   3
BRANCH   2   5
ATOM      5  C   UNL     1      98.125  83.161  75.992  1.00  0.00     0.032 C 
BRANCH   5   6
ATOM      6  C   UNL     1      99.607  82.775  76.068  1.00  0.00     0.003 C 
BRANCH   6   7
ATOM      7  C   UNL     1     100.546  83.869  75.550  1.00  0.00    -0.000 C 
BRANCH   7   8
ATOM      8  C   UNL     1     101.751  84.119  76.454  1.00  0.00    -0.003 C 
ATOM      9  C   UNL     1     102.157  82.857  77.200  1.00  0.00     0.004 C 
ENDBRANCH   7   8
ENDBRANCH   6   7
ENDBRANCH   5   6
ENDBRANCH   2   5
ENDBRANCH   1   2
BRANCH   1  10
ATOM     10  C   UNL     1      97.637  83.471  79.824  1.00  0.00     0.135 C 
ATOM     11  O   UNL     1      96.451  83.800  79.817  1.00  0.00    -0.300 OA
BRANCH  10  12
ATOM     12  C   UNL     1      98.385  83.144  81.107  1.00  0.00     0.080 C 
BRANCH  12  13
ATOM     13  C   UNL     1      97.602  83.481  82.378  1.00  0.00     0.043 C 
BRANCH  13  14
ATOM     14  C   UNL     1      98.265  82.968  83.634  1.00  0.00    -0.044 A 
ATOM     15  C   UNL     1      97.751  83.313  84.884  1.00  0.00     0.054 A 
ATOM     16  C   UNL     1      99.391  82.150  83.544  1.00  0.00     0.008 A 
ATOM     17  C   UNL     1      98.364  82.838  86.044  1.00  0.00     0.160 A 
ATOM     18  C   UNL     1     100.004  81.675  84.704  1.00  0.00     0.050 A 
ATOM     19  C   UNL     1      99.490  82.019  85.954  1.00  0.00     0.157 A 
BRANCH  17  20
ATOM     20  O   UNL     1      97.854  83.182  87.260  1.00  0.00    -0.493 OA
ATOM     21  C   UNL     1      96.685  82.487  87.692  1.00  0.00     0.278 C 
ENDBRANCH  17  20
BRANCH  19  22
ATOM     22  O   UNL     1     100.097  81.550  87.080  1.00  0.00    -0.504 OA
ATOM     23  H   UNL     1      99.814  82.087  87.840  1.00  0.00     0.293 HD
ENDBRANCH  19  22
ENDBRANCH  13  14
ENDBRANCH  12  13
ENDBRANCH  10  12
ENDBRANCH   1  10
TORSDOF 12
ENDMDL
MODEL 6
REMARK VINA RESULT:    -5.367     19.299     21.758
REMARK INTER + INTRA:          -9.582
REMARK INTER:                  -8.393
REMARK INTRA:                  -1.189
REMARK UNBOUND:                -0.764
REMARK SMILES CCCCC[C@H](O)CC(=O)CCc1ccc(O)c(OC)c1
REMARK SMILES IDX 8 1 6 2 7 3 5 5 4 6 3 7 2 8 1 9 9 10 10 11 11 12 12 13 13 14
REMARK SMILES IDX 21 15 14 16 18 17 15 18 16 19 19 20 20 21 17 22
REMARK H PARENT 7 4 17 23
REMARK Flexibility Score: inf
ROOT
ATOM      1  C   UNL     1      77.721  85.318  66.713  1.00  0.00     0.107 C 
ENDROOT
BRANCH   1   2
ATOM      2  C   UNL     1      76.864  85.032  65.478  1.00  0.00     0.121 C 
BRANCH   2   3
ATOM      3  O   UNL     1      76.656  86.236  64.743  1.00  0.00    -0.393 OA
ATOM      4  H   UNL     1      77.259  86.226  63.979  1.00  0.00     0.210 HD
ENDBRANCH   2   3
BRANCH   2   5
ATOM      5  C   UNL     1      77.479  83.975  64.552  1.00  0.00     0.032 C 
BRANCH   5   6
ATOM      6  C   UNL     1      76.513  82.817  64.276  1.00  0.00     0.003 C 
BRANCH   6   7
ATOM      7  C   UNL     1      76.658  81.657  65.267  1.00  0.00    -0.000 C 
BRANCH   7   8
ATOM      8  C   UNL     1      75.463  81.500  66.205  1.00  0.00    -0.003 C 
ATOM      9  C   UNL     1      74.185  81.215  65.432  1.00  0.00     0.004 C 
ENDBRANCH   7   8
ENDBRANCH   6   7
ENDBRANCH   5   6
ENDBRANCH   2   5
ENDBRANCH   1   2
BRANCH   1  10
ATOM     10  C   UNL     1      77.859  84.117  67.634  1.00  0.00     0.135 C 
ATOM     11  O   UNL     1      78.831  83.365  67.552  1.00  0.00    -0.300 OA
BRANCH  10  12
ATOM     12  C   UNL     1      76.767  83.927  68.676  1.00  0.00     0.080 C 
BRANCH  12  13
ATOM     13  C   UNL     1      76.906  84.851  69.887  1.00  0.00     0.043 C 
BRANCH  13  14
ATOM     14  C   UNL     1      76.041  86.086  69.791  1.00  0.00    -0.044 A 
ATOM     15  C   UNL     1      74.696  85.970  69.441  1.00  0.00     0.054 A 
ATOM     16  C   UNL     1      76.588  87.342  70.054  1.00  0.00     0.008 A 
ATOM     17  C   UNL     1      73.898  87.111  69.354  1.00  0.00     0.160 A 
ATOM     18  C   UNL     1      75.790  88.483  69.966  1.00  0.00     0.050 A 
ATOM     19  C   UNL     1      74.445  88.367  69.616  1.00  0.00     0.157 A 
BRANCH  17  20
ATOM     20  O   UNL     1      72.585  86.985  69.011  1.00  0.00    -0.493 OA
ATOM     21  C   UNL     1      71.704  86.457  70.000  1.00  0.00     0.278 C 
ENDBRANCH  17  20
BRANCH  19  22
ATOM     22  O   UNL     1      73.676  89.488  69.534  1.00  0.00    -0.504 OA
ATOM     23  H   UNL     1      73.026  89.375  68.820  1.00  0.00     0.293 HD
ENDBRANCH  19  22
ENDBRANCH  13  14
ENDBRANCH  12  13
ENDBRANCH  10  12
ENDBRANCH   1  10
TORSDOF 12
ENDMDL
MODEL 7
REMARK VINA RESULT:    -5.309     16.808     19.223
REMARK INTER + INTRA:          -9.487
REMARK INTER:                  -8.245
REMARK INTRA:                  -1.242
REMARK UNBOUND:                -0.764
REMARK SMILES CCCCC[C@H](O)CC(=O)CCc1ccc(O)c(OC)c1
REMARK SMILES IDX 8 1 6 2 7 3 5 5 4 6 3 7 2 8 1 9 9 10 10 11 11 12 12 13 13 14
REMARK SMILES IDX 21 15 14 16 18 17 15 18 16 19 19 20 20 21 17 22
REMARK H PARENT 7 4 17 23
REMARK Flexibility Score: inf
ROOT
ATOM      1  C   UNL     1      98.340  82.375  79.134  1.00  0.00     0.107 C 
ENDROOT
BRANCH   1   2
ATOM      2  C   UNL     1      99.603  82.805  79.886  1.00  0.00     0.121 C 
BRANCH   2   3
ATOM      3  O   UNL     1      99.247  83.608  81.008  1.00  0.00    -0.393 OA
ATOM      4  H   UNL     1      99.096  83.014  81.764  1.00  0.00     0.210 HD
ENDBRANCH   2   3
BRANCH   2   5
ATOM      5  C   UNL     1     100.451  81.619  80.362  1.00  0.00     0.032 C 
BRANCH   5   6
ATOM      6  C   UNL     1     100.928  81.796  81.808  1.00  0.00     0.003 C 
BRANCH   6   7
ATOM      7  C   UNL     1     102.449  81.938  81.932  1.00  0.00    -0.000 C 
BRANCH   7   8
ATOM      8  C   UNL     1     103.214  81.409  80.721  1.00  0.00    -0.003 C 
ATOM      9  C   UNL     1     103.940  80.113  81.046  1.00  0.00     0.004 C 
ENDBRANCH   7   8
ENDBRANCH   6   7
ENDBRANCH   5   6
ENDBRANCH   2   5
ENDBRANCH   1   2
BRANCH   1  10
ATOM     10  C   UNL     1      97.407  83.534  78.825  1.00  0.00     0.135 C 
ATOM     11  O   UNL     1      96.513  83.853  79.609  1.00  0.00    -0.300 OA
BRANCH  10  12
ATOM     12  C   UNL     1      97.668  84.294  77.534  1.00  0.00     0.080 C 
BRANCH  12  13
ATOM     13  C   UNL     1      98.336  83.449  76.447  1.00  0.00     0.043 C 
BRANCH  13  14
ATOM     14  C   UNL     1      99.726  83.924  76.098  1.00  0.00    -0.044 A 
ATOM     15  C   UNL     1     100.839  83.204  76.530  1.00  0.00     0.054 A 
ATOM     16  C   UNL     1      99.896  85.085  75.342  1.00  0.00     0.008 A 
ATOM     17  C   UNL     1     102.123  83.644  76.206  1.00  0.00     0.160 A 
ATOM     18  C   UNL     1     101.179  85.525  75.018  1.00  0.00     0.050 A 
ATOM     19  C   UNL     1     102.293  84.804  75.450  1.00  0.00     0.157 A 
BRANCH  17  20
ATOM     20  O   UNL     1     103.203  82.932  76.634  1.00  0.00    -0.493 OA
ATOM     21  C   UNL     1     103.511  81.733  75.926  1.00  0.00     0.278 C 
ENDBRANCH  17  20
BRANCH  19  22
ATOM     22  O   UNL     1     103.541  85.243  75.127  1.00  0.00    -0.504 OA
ATOM     23  H   UNL     1     103.810  85.929  75.763  1.00  0.00     0.293 HD
ENDBRANCH  19  22
ENDBRANCH  13  14
ENDBRANCH  12  13
ENDBRANCH  10  12
ENDBRANCH   1  10
TORSDOF 12
ENDMDL
MODEL 8
REMARK VINA RESULT:    -5.212     17.520     20.579
REMARK INTER + INTRA:          -9.328
REMARK INTER:                  -7.702
REMARK INTRA:                  -1.627
REMARK UNBOUND:                -0.764
REMARK SMILES CCCCC[C@H](O)CC(=O)CCc1ccc(O)c(OC)c1
REMARK SMILES IDX 8 1 6 2 7 3 5 5 4 6 3 7 2 8 1 9 9 10 10 11 11 12 12 13 13 14
REMARK SMILES IDX 21 15 14 16 18 17 15 18 16 19 19 20 20 21 17 22
REMARK H PARENT 7 4 17 23
REMARK Flexibility Score: inf
ROOT
ATOM      1  C   UNL     1     101.691  79.664  82.178  1.00  0.00     0.107 C 
ENDROOT
BRANCH   1   2
ATOM      2  C   UNL     1     100.614  78.896  82.948  1.00  0.00     0.121 C 
BRANCH   2   3
ATOM      3  O   UNL     1     100.798  79.082  84.350  1.00  0.00    -0.393 OA
ATOM      4  H   UNL     1     101.749  78.996  84.539  1.00  0.00     0.210 HD
ENDBRANCH   2   3
BRANCH   2   5
ATOM      5  C   UNL     1      99.189  79.315  82.567  1.00  0.00     0.032 C 
BRANCH   5   6
ATOM      6  C   UNL     1      98.460  80.003  83.727  1.00  0.00     0.003 C 
BRANCH   6   7
ATOM      7  C   UNL     1      98.229  81.500  83.496  1.00  0.00    -0.000 C 
BRANCH   7   8
ATOM      8  C   UNL     1      97.408  82.170  84.596  1.00  0.00    -0.003 C 
ATOM      9  C   UNL     1      97.315  83.673  84.382  1.00  0.00     0.004 C 
ENDBRANCH   7   8
ENDBRANCH   6   7
ENDBRANCH   5   6
ENDBRANCH   2   5
ENDBRANCH   1   2
BRANCH   1  10
ATOM     10  C   UNL     1     101.823  81.112  82.622  1.00  0.00     0.135 C 
ATOM     11  O   UNL     1     102.323  81.397  83.710  1.00  0.00    -0.300 OA
BRANCH  10  12
ATOM     12  C   UNL     1     101.351  82.173  81.639  1.00  0.00     0.080 C 
BRANCH  12  13
ATOM     13  C   UNL     1     101.239  81.670  80.198  1.00  0.00     0.043 C 
BRANCH  13  14
ATOM     14  C   UNL     1     100.124  82.332  79.425  1.00  0.00    -0.044 A 
ATOM     15  C   UNL     1     100.304  82.656  78.080  1.00  0.00     0.054 A 
ATOM     16  C   UNL     1      98.914  82.620  80.057  1.00  0.00     0.008 A 
ATOM     17  C   UNL     1      99.272  83.268  77.367  1.00  0.00     0.160 A 
ATOM     18  C   UNL     1      97.882  83.231  79.343  1.00  0.00     0.050 A 
ATOM     19  C   UNL     1      98.062  83.555  77.999  1.00  0.00     0.157 A 
BRANCH  17  20
ATOM     20  O   UNL     1      99.459  83.580  76.054  1.00  0.00    -0.493 OA
ATOM     21  C   UNL     1     100.648  83.091  75.435  1.00  0.00     0.278 C 
ENDBRANCH  17  20
BRANCH  19  22
ATOM     22  O   UNL     1      97.048  84.152  77.313  1.00  0.00    -0.504 OA
ATOM     23  H   UNL     1      97.423  84.670  76.580  1.00  0.00     0.293 HD
ENDBRANCH  19  22
ENDBRANCH  13  14
ENDBRANCH  12  13
ENDBRANCH  10  12
ENDBRANCH   1  10
TORSDOF 12
ENDMDL
MODEL 9
REMARK VINA RESULT:    -5.200     19.827     21.446
REMARK INTER + INTRA:          -9.309
REMARK INTER:                  -8.332
REMARK INTRA:                  -0.977
REMARK UNBOUND:                -0.764
REMARK SMILES CCCCC[C@H](O)CC(=O)CCc1ccc(O)c(OC)c1
REMARK SMILES IDX 8 1 6 2 7 3 5 5 4 6 3 7 2 8 1 9 9 10 10 11 11 12 12 13 13 14
REMARK SMILES IDX 21 15 14 16 18 17 15 18 16 19 19 20 20 21 17 22
REMARK H PARENT 7 4 17 23
REMARK Flexibility Score: inf
ROOT
ATOM      1  C   UNL     1      94.768  87.380  89.905  1.00  0.00     0.107 C 
ENDROOT
BRANCH   1   2
ATOM      2  C   UNL     1      95.937  88.367  89.880  1.00  0.00     0.121 C 
BRANCH   2   3
ATOM      3  O   UNL     1      97.006  87.832  89.103  1.00  0.00    -0.393 OA
ATOM      4  H   UNL     1      96.934  86.862  89.127  1.00  0.00     0.210 HD
ENDBRANCH   2   3
BRANCH   2   5
ATOM      5  C   UNL     1      95.549  89.743  89.326  1.00  0.00     0.032 C 
BRANCH   5   6
ATOM      6  C   UNL     1      95.118  90.711  90.434  1.00  0.00     0.003 C 
BRANCH   6   7
ATOM      7  C   UNL     1      93.972  91.639  90.017  1.00  0.00    -0.000 C 
BRANCH   7   8
ATOM      8  C   UNL     1      92.717  91.486  90.874  1.00  0.00    -0.003 C 
ATOM      9  C   UNL     1      92.476  90.031  91.248  1.00  0.00     0.004 C 
ENDBRANCH   7   8
ENDBRANCH   6   7
ENDBRANCH   5   6
ENDBRANCH   2   5
ENDBRANCH   1   2
BRANCH   1  10
ATOM     10  C   UNL     1      95.118  86.027  89.307  1.00  0.00     0.135 C 
ATOM     11  O   UNL     1      95.950  85.295  89.842  1.00  0.00    -0.300 OA
BRANCH  10  12
ATOM     12  C   UNL     1      94.358  85.618  88.054  1.00  0.00     0.080 C 
BRANCH  12  13
ATOM     13  C   UNL     1      94.364  84.110  87.796  1.00  0.00     0.043 C 
BRANCH  13  14
ATOM     14  C   UNL     1      92.978  83.511  87.756  1.00  0.00    -0.044 A 
ATOM     15  C   UNL     1      92.679  82.505  86.837  1.00  0.00     0.054 A 
ATOM     16  C   UNL     1      91.997  83.965  88.638  1.00  0.00     0.008 A 
ATOM     17  C   UNL     1      91.399  81.952  86.801  1.00  0.00     0.160 A 
ATOM     18  C   UNL     1      90.717  83.412  88.602  1.00  0.00     0.050 A 
ATOM     19  C   UNL     1      90.418  82.406  87.684  1.00  0.00     0.157 A 
BRANCH  17  20
ATOM     20  O   UNL     1      91.119  80.971  85.899  1.00  0.00    -0.493 OA
ATOM     21  C   UNL     1      91.563  79.653  86.217  1.00  0.00     0.278 C 
ENDBRANCH  17  20
BRANCH  19  22
ATOM     22  O   UNL     1      89.165  81.874  87.658  1.00  0.00    -0.504 OA
ATOM     23  H   UNL     1      89.218  80.953  87.349  1.00  0.00     0.293 HD
ENDBRANCH  19  22
ENDBRANCH  13  14
ENDBRANCH  12  13
ENDBRANCH  10  12
ENDBRANCH   1  10
TORSDOF 12
ENDMDL
MODEL 10
REMARK VINA RESULT:    -5.199     18.759     21.710
REMARK INTER + INTRA:          -9.306
REMARK INTER:                  -7.026
REMARK INTRA:                  -2.281
REMARK UNBOUND:                -0.764
REMARK SMILES CCCCC[C@H](O)CC(=O)CCc1ccc(O)c(OC)c1
REMARK SMILES IDX 8 1 6 2 7 3 5 5 4 6 3 7 2 8 1 9 9 10 10 11 11 12 12 13 13 14
REMARK SMILES IDX 21 15 14 16 18 17 15 18 16 19 19 20 20 21 17 22
REMARK H PARENT 7 4 17 23
REMARK Flexibility Score: inf
ROOT
ATOM      1  C   UNL     1      77.202  87.073  69.674  1.00  0.00     0.107 C 
ENDROOT
BRANCH   1   2
ATOM      2  C   UNL     1      78.047  86.579  68.498  1.00  0.00     0.121 C 
BRANCH   2   3
ATOM      3  O   UNL     1      78.817  85.447  68.897  1.00  0.00    -0.393 OA
ATOM      4  H   UNL     1      78.893  85.466  69.867  1.00  0.00     0.210 HD
ENDBRANCH   2   3
BRANCH   2   5
ATOM      5  C   UNL     1      77.208  86.210  67.268  1.00  0.00     0.032 C 
BRANCH   5   6
ATOM      6  C   UNL     1      77.123  87.364  66.262  1.00  0.00     0.003 C 
BRANCH   6   7
ATOM      7  C   UNL     1      76.854  86.898  64.827  1.00  0.00    -0.000 C 
BRANCH   7   8
ATOM      8  C   UNL     1      77.019  85.393  64.631  1.00  0.00    -0.003 C 
ATOM      9  C   UNL     1      76.727  84.985  63.195  1.00  0.00     0.004 C 
ENDBRANCH   7   8
ENDBRANCH   6   7
ENDBRANCH   5   6
ENDBRANCH   2   5
ENDBRANCH   1   2
BRANCH   1  10
ATOM     10  C   UNL     1      76.130  86.081  70.095  1.00  0.00     0.135 C 
ATOM     11  O   UNL     1      76.427  84.941  70.452  1.00  0.00    -0.300 OA
BRANCH  10  12
ATOM     12  C   UNL     1      74.695  86.586  70.094  1.00  0.00     0.080 C 
BRANCH  12  13
ATOM     13  C   UNL     1      73.690  85.581  69.526  1.00  0.00     0.043 C 
BRANCH  13  14
ATOM     14  C   UNL     1      73.600  85.622  68.019  1.00  0.00    -0.044 A 
ATOM     15  C   UNL     1      73.725  84.445  67.281  1.00  0.00     0.054 A 
ATOM     16  C   UNL     1      73.391  86.837  67.366  1.00  0.00     0.008 A 
ATOM     17  C   UNL     1      73.640  84.484  65.889  1.00  0.00     0.160 A 
ATOM     18  C   UNL     1      73.307  86.876  65.974  1.00  0.00     0.050 A 
ATOM     19  C   UNL     1      73.432  85.699  65.236  1.00  0.00     0.157 A 
BRANCH  17  20
ATOM     20  O   UNL     1      73.764  83.329  65.178  1.00  0.00    -0.493 OA
ATOM     21  C   UNL     1      73.796  82.111  65.921  1.00  0.00     0.278 C 
ENDBRANCH  17  20
BRANCH  19  22
ATOM     22  O   UNL     1      73.348  85.750  63.877  1.00  0.00    -0.504 OA
ATOM     23  H   UNL     1      74.033  86.351  63.539  1.00  0.00     0.293 HD
ENDBRANCH  19  22
ENDBRANCH  13  14
ENDBRANCH  12  13
ENDBRANCH  10  12
ENDBRANCH   1  10
TORSDOF 12
ENDMDL
