MODEL 1
REMARK VINA RESULT:    -5.940      0.000      0.000
REMARK INTER + INTRA:         -10.919
REMARK INTER:                  -9.760
REMARK INTRA:                  -1.160
REMARK UNBOUND:                -1.160
REMARK SMILES CCCCC[C@H](O)CC(=O)CCc1ccc(O)c(OC)c1
REMARK SMILES IDX 8 1 6 2 7 3 5 5 4 6 3 7 2 8 1 9 9 10 10 11 11 12 12 13 13 14
REMARK SMILES IDX 21 15 14 16 18 17 15 18 16 19 19 20 20 21 17 22
REMARK H PARENT 7 4 17 23
REMARK Flexibility Score: inf
ROOT
ATOM      1  C   UNL     1      94.062  95.073  76.470  1.00  0.00     0.107 C 
ENDROOT
BRANCH   1   2
ATOM      2  C   UNL     1      92.806  94.694  77.258  1.00  0.00     0.121 C 
BRANCH   2   3
ATOM      3  O   UNL     1      93.110  94.629  78.650  1.00  0.00    -0.393 OA
ATOM      4  H   UNL     1      93.961  94.168  78.748  1.00  0.00     0.210 HD
ENDBRANCH   2   3
BRANCH   2   5
ATOM      5  C   UNL     1      91.643  95.669  77.040  1.00  0.00     0.032 C 
BRANCH   5   6
ATOM      6  C   UNL     1      90.380  94.957  76.540  1.00  0.00     0.003 C 
BRANCH   6   7
ATOM      7  C   UNL     1      89.916  93.826  77.463  1.00  0.00    -0.000 C 
BRANCH   7   8
ATOM      8  C   UNL     1      89.857  92.462  76.778  1.00  0.00    -0.003 C 
ATOM      9  C   UNL     1      90.441  92.521  75.375  1.00  0.00     0.004 C 
ENDBRANCH   7   8
ENDBRANCH   6   7
ENDBRANCH   5   6
ENDBRANCH   2   5
ENDBRANCH   1   2
BRANCH   1  10
ATOM     10  C   UNL     1      94.509  96.505  76.715  1.00  0.00     0.135 C 
ATOM     11  O   UNL     1      94.882  96.870  77.830  1.00  0.00    -0.300 OA
BRANCH  10  12
ATOM     12  C   UNL     1      94.513  97.434  75.511  1.00  0.00     0.080 C 
BRANCH  12  13
ATOM     13  C   UNL     1      93.990  96.782  74.230  1.00  0.00     0.043 C 
BRANCH  13  14
ATOM     14  C   UNL     1      94.497  97.452  72.975  1.00  0.00    -0.044 A 
ATOM     15  C   UNL     1      93.766  98.488  72.393  1.00  0.00     0.054 A 
ATOM     16  C   UNL     1      95.696  97.034  72.398  1.00  0.00     0.008 A 
ATOM     17  C   UNL     1      94.236  99.106  71.234  1.00  0.00     0.160 A 
ATOM     18  C   UNL     1      96.166  97.653  71.239  1.00  0.00     0.050 A 
ATOM     19  C   UNL     1      95.435  98.689  70.657  1.00  0.00     0.157 A 
BRANCH  17  20
ATOM     20  O   UNL     1      93.513 100.117  70.674  1.00  0.00    -0.493 OA
ATOM     21  C   UNL     1      93.029 101.131  71.553  1.00  0.00     0.278 C 
ENDBRANCH  17  20
BRANCH  19  22
ATOM     22  O   UNL     1      95.904  99.285  69.526  1.00  0.00    -0.504 OA
ATOM     23  H   UNL     1      95.981 100.242  69.681  1.00  0.00     0.293 HD
ENDBRANCH  19  22
ENDBRANCH  13  14
ENDBRANCH  12  13
ENDBRANCH  10  12
ENDBRANCH   1  10
TORSDOF 12
ENDMDL
MODEL 2
REMARK VINA RESULT:    -5.856     29.255     33.609
REMARK INTER + INTRA:         -10.782
REMARK INTER:                  -9.870
REMARK INTRA:                  -0.912
REMARK UNBOUND:                -1.160
REMARK SMILES CCCCC[C@H](O)CC(=O)CCc1ccc(O)c(OC)c1
REMARK SMILES IDX 8 1 6 2 7 3 5 5 4 6 3 7 2 8 1 9 9 10 10 11 11 12 12 13 13 14
REMARK SMILES IDX 21 15 14 16 18 17 15 18 16 19 19 20 20 21 17 22
REMARK H PARENT 7 4 17 23
REMARK Flexibility Score: inf
ROOT
ATOM      1  C   UNL     1      79.135  65.396  70.188  1.00  0.00     0.107 C 
ENDROOT
BRANCH   1   2
ATOM      2  C   UNL     1      79.221  64.355  69.069  1.00  0.00     0.121 C 
BRANCH   2   3
ATOM      3  O   UNL     1      80.164  63.346  69.419  1.00  0.00    -0.393 OA
ATOM      4  H   UNL     1      80.487  62.941  68.595  1.00  0.00     0.210 HD
ENDBRANCH   2   3
BRANCH   2   5
ATOM      5  C   UNL     1      77.871  63.698  68.756  1.00  0.00     0.032 C 
BRANCH   5   6
ATOM      6  C   UNL     1      77.438  63.933  67.304  1.00  0.00     0.003 C 
BRANCH   6   7
ATOM      7  C   UNL     1      76.673  65.245  67.103  1.00  0.00    -0.000 C 
BRANCH   7   8
ATOM      8  C   UNL     1      75.808  65.638  68.299  1.00  0.00    -0.003 C 
ATOM      9  C   UNL     1      74.423  65.015  68.209  1.00  0.00     0.004 C 
ENDBRANCH   7   8
ENDBRANCH   6   7
ENDBRANCH   5   6
ENDBRANCH   2   5
ENDBRANCH   1   2
BRANCH   1  10
ATOM     10  C   UNL     1      80.497  65.808  70.724  1.00  0.00     0.135 C 
ATOM     11  O   UNL     1      81.433  66.043  69.961  1.00  0.00    -0.300 OA
BRANCH  10  12
ATOM     12  C   UNL     1      80.619  65.954  72.233  1.00  0.00     0.080 C 
BRANCH  12  13
ATOM     13  C   UNL     1      81.822  65.217  72.827  1.00  0.00     0.043 C 
BRANCH  13  14
ATOM     14  C   UNL     1      82.806  66.140  73.504  1.00  0.00    -0.044 A 
ATOM     15  C   UNL     1      83.357  67.211  72.800  1.00  0.00     0.054 A 
ATOM     16  C   UNL     1      83.165  65.922  74.834  1.00  0.00     0.008 A 
ATOM     17  C   UNL     1      84.266  68.064  73.427  1.00  0.00     0.160 A 
ATOM     18  C   UNL     1      84.074  66.774  75.461  1.00  0.00     0.050 A 
ATOM     19  C   UNL     1      84.625  67.845  74.757  1.00  0.00     0.157 A 
BRANCH  17  20
ATOM     20  O   UNL     1      84.797  69.106  72.729  1.00  0.00    -0.493 OA
ATOM     21  C   UNL     1      86.016  68.863  72.028  1.00  0.00     0.278 C 
ENDBRANCH  17  20
BRANCH  19  22
ATOM     22  O   UNL     1      85.511  68.671  75.380  1.00  0.00    -0.504 OA
ATOM     23  H   UNL     1      85.020  69.363  75.855  1.00  0.00     0.293 HD
ENDBRANCH  19  22
ENDBRANCH  13  14
ENDBRANCH  12  13
ENDBRANCH  10  12
ENDBRANCH   1  10
TORSDOF 12
ENDMDL
MODEL 3
REMARK VINA RESULT:    -5.851      1.962      2.748
REMARK INTER + INTRA:         -10.773
REMARK INTER:                  -9.499
REMARK INTRA:                  -1.273
REMARK UNBOUND:                -1.160
REMARK SMILES CCCCC[C@H](O)CC(=O)CCc1ccc(O)c(OC)c1
REMARK SMILES IDX 8 1 6 2 7 3 5 5 4 6 3 7 2 8 1 9 9 10 10 11 11 12 12 13 13 14
REMARK SMILES IDX 21 15 14 16 18 17 15 18 16 19 19 20 20 21 17 22
REMARK H PARENT 7 4 17 23
REMARK Flexibility Score: inf
ROOT
ATOM      1  C   UNL     1      93.636  94.824  76.370  1.00  0.00     0.107 C 
ENDROOT
BRANCH   1   2
ATOM      2  C   UNL     1      92.369  94.550  77.184  1.00  0.00     0.121 C 
BRANCH   2   3
ATOM      3  O   UNL     1      92.668  94.604  78.577  1.00  0.00    -0.393 OA
ATOM      4  H   UNL     1      92.297  95.432  78.929  1.00  0.00     0.210 HD
ENDBRANCH   2   3
BRANCH   2   5
ATOM      5  C   UNL     1      91.232  95.531  76.874  1.00  0.00     0.032 C 
BRANCH   5   6
ATOM      6  C   UNL     1      89.947  94.808  76.448  1.00  0.00     0.003 C 
BRANCH   6   7
ATOM      7  C   UNL     1      90.032  93.285  76.593  1.00  0.00    -0.000 C 
BRANCH   7   8
ATOM      8  C   UNL     1      90.162  92.550  75.260  1.00  0.00    -0.003 C 
ATOM      9  C   UNL     1      90.005  93.502  74.084  1.00  0.00     0.004 C 
ENDBRANCH   7   8
ENDBRANCH   6   7
ENDBRANCH   5   6
ENDBRANCH   2   5
ENDBRANCH   1   2
BRANCH   1  10
ATOM     10  C   UNL     1      94.791  95.329  77.218  1.00  0.00     0.135 C 
ATOM     11  O   UNL     1      95.448  94.557  77.916  1.00  0.00    -0.300 OA
BRANCH  10  12
ATOM     12  C   UNL     1      95.112  96.812  77.120  1.00  0.00     0.080 C 
BRANCH  12  13
ATOM     13  C   UNL     1      94.378  97.526  75.983  1.00  0.00     0.043 C 
BRANCH  13  14
ATOM     14  C   UNL     1      95.168  97.560  74.697  1.00  0.00    -0.044 A 
ATOM     15  C   UNL     1      96.415  98.183  74.660  1.00  0.00     0.054 A 
ATOM     16  C   UNL     1      94.649  96.967  73.545  1.00  0.00     0.008 A 
ATOM     17  C   UNL     1      97.144  98.212  73.471  1.00  0.00     0.160 A 
ATOM     18  C   UNL     1      95.378  96.996  72.356  1.00  0.00     0.050 A 
ATOM     19  C   UNL     1      96.626  97.619  72.319  1.00  0.00     0.157 A 
BRANCH  17  20
ATOM     20  O   UNL     1      98.361  98.824  73.446  1.00  0.00    -0.493 OA
ATOM     21  C   UNL     1      99.449  98.128  74.053  1.00  0.00     0.278 C 
ENDBRANCH  17  20
BRANCH  19  22
ATOM     22  O   UNL     1      97.328  97.642  71.153  1.00  0.00    -0.504 OA
ATOM     23  H   UNL     1      97.072  98.430  70.643  1.00  0.00     0.293 HD
ENDBRANCH  19  22
ENDBRANCH  13  14
ENDBRANCH  12  13
ENDBRANCH  10  12
ENDBRANCH   1  10
TORSDOF 12
ENDMDL
MODEL 4
REMARK VINA RESULT:    -5.749      4.997      7.439
REMARK INTER + INTRA:         -10.606
REMARK INTER:                  -9.626
REMARK INTRA:                  -0.980
REMARK UNBOUND:                -1.160
REMARK SMILES CCCCC[C@H](O)CC(=O)CCc1ccc(O)c(OC)c1
REMARK SMILES IDX 8 1 6 2 7 3 5 5 4 6 3 7 2 8 1 9 9 10 10 11 11 12 12 13 13 14
REMARK SMILES IDX 21 15 14 16 18 17 15 18 16 19 19 20 20 21 17 22
REMARK H PARENT 7 4 17 23
REMARK Flexibility Score: inf
ROOT
ATOM      1  C   UNL     1      93.559  94.862  76.648  1.00  0.00     0.107 C 
ENDROOT
BRANCH   1   2
ATOM      2  C   UNL     1      92.134  94.327  76.808  1.00  0.00     0.121 C 
BRANCH   2   3
ATOM      3  O   UNL     1      91.794  94.262  78.191  1.00  0.00    -0.393 OA
ATOM      4  H   UNL     1      91.172  94.987  78.378  1.00  0.00     0.210 HD
ENDBRANCH   2   3
BRANCH   2   5
ATOM      5  C   UNL     1      91.089  95.173  76.070  1.00  0.00     0.032 C 
BRANCH   5   6
ATOM      6  C   UNL     1      89.960  94.315  75.486  1.00  0.00     0.003 C 
BRANCH   6   7
ATOM      7  C   UNL     1      90.386  93.508  74.255  1.00  0.00    -0.000 C 
BRANCH   7   8
ATOM      8  C   UNL     1      90.429  92.000  74.497  1.00  0.00    -0.003 C 
ATOM      9  C   UNL     1      89.762  91.630  75.813  1.00  0.00     0.004 C 
ENDBRANCH   7   8
ENDBRANCH   6   7
ENDBRANCH   5   6
ENDBRANCH   2   5
ENDBRANCH   1   2
BRANCH   1  10
ATOM     10  C   UNL     1      94.117  95.461  77.928  1.00  0.00     0.135 C 
ATOM     11  O   UNL     1      94.488  94.741  78.855  1.00  0.00    -0.300 OA
BRANCH  10  12
ATOM     12  C   UNL     1      94.232  96.977  77.978  1.00  0.00     0.080 C 
BRANCH  12  13
ATOM     13  C   UNL     1      95.659  97.479  78.201  1.00  0.00     0.043 C 
BRANCH  13  14
ATOM     14  C   UNL     1      95.958  97.791  79.649  1.00  0.00    -0.044 A 
ATOM     15  C   UNL     1      96.706  96.897  80.415  1.00  0.00     0.054 A 
ATOM     16  C   UNL     1      95.485  98.973  80.219  1.00  0.00     0.008 A 
ATOM     17  C   UNL     1      96.982  97.187  81.751  1.00  0.00     0.160 A 
ATOM     18  C   UNL     1      95.760  99.262  81.555  1.00  0.00     0.050 A 
ATOM     19  C   UNL     1      96.509  98.369  82.322  1.00  0.00     0.157 A 
BRANCH  17  20
ATOM     20  O   UNL     1      97.714  96.306  82.490  1.00  0.00    -0.493 OA
ATOM     21  C   UNL     1      99.132  96.366  82.352  1.00  0.00     0.278 C 
ENDBRANCH  17  20
BRANCH  19  22
ATOM     22  O   UNL     1      96.772  98.662  83.625  1.00  0.00    -0.504 OA
ATOM     23  H   UNL     1      97.568  99.218  83.671  1.00  0.00     0.293 HD
ENDBRANCH  19  22
ENDBRANCH  13  14
ENDBRANCH  12  13
ENDBRANCH  10  12
ENDBRANCH   1  10
TORSDOF 12
ENDMDL
MODEL 5
REMARK VINA RESULT:    -5.642      3.633      6.576
REMARK INTER + INTRA:         -10.430
REMARK INTER:                  -9.530
REMARK INTRA:                  -0.901
REMARK UNBOUND:                -1.160
REMARK SMILES CCCCC[C@H](O)CC(=O)CCc1ccc(O)c(OC)c1
REMARK SMILES IDX 8 1 6 2 7 3 5 5 4 6 3 7 2 8 1 9 9 10 10 11 11 12 12 13 13 14
REMARK SMILES IDX 21 15 14 16 18 17 15 18 16 19 19 20 20 21 17 22
REMARK H PARENT 7 4 17 23
REMARK Flexibility Score: inf
ROOT
ATOM      1  C   UNL     1      93.330  94.704  76.129  1.00  0.00     0.107 C 
ENDROOT
BRANCH   1   2
ATOM      2  C   UNL     1      91.817  94.536  76.292  1.00  0.00     0.121 C 
BRANCH   2   3
ATOM      3  O   UNL     1      91.200  95.816  76.413  1.00  0.00    -0.393 OA
ATOM      4  H   UNL     1      90.700  95.984  75.595  1.00  0.00     0.210 HD
ENDBRANCH   2   3
BRANCH   2   5
ATOM      5  C   UNL     1      91.169  93.772  75.131  1.00  0.00     0.032 C 
BRANCH   5   6
ATOM      6  C   UNL     1      90.446  92.506  75.607  1.00  0.00     0.003 C 
BRANCH   6   7
ATOM      7  C   UNL     1      90.227  91.477  74.492  1.00  0.00    -0.000 C 
BRANCH   7   8
ATOM      8  C   UNL     1      89.295  90.334  74.889  1.00  0.00    -0.003 C 
ATOM      9  C   UNL     1      90.066  89.043  75.115  1.00  0.00     0.004 C 
ENDBRANCH   7   8
ENDBRANCH   6   7
ENDBRANCH   5   6
ENDBRANCH   2   5
ENDBRANCH   1   2
BRANCH   1  10
ATOM     10  C   UNL     1      93.715  96.006  75.446  1.00  0.00     0.135 C 
ATOM     11  O   UNL     1      93.243  96.310  74.350  1.00  0.00    -0.300 OA
BRANCH  10  12
ATOM     12  C   UNL     1      94.666  96.918  76.205  1.00  0.00     0.080 C 
BRANCH  12  13
ATOM     13  C   UNL     1      94.090  97.453  77.517  1.00  0.00     0.043 C 
BRANCH  13  14
ATOM     14  C   UNL     1      94.990  97.203  78.704  1.00  0.00    -0.044 A 
ATOM     15  C   UNL     1      95.439  98.274  79.477  1.00  0.00     0.054 A 
ATOM     16  C   UNL     1      95.370  95.900  79.028  1.00  0.00     0.008 A 
ATOM     17  C   UNL     1      96.270  98.041  80.574  1.00  0.00     0.160 A 
ATOM     18  C   UNL     1      96.201  95.668  80.124  1.00  0.00     0.050 A 
ATOM     19  C   UNL     1      96.650  96.738  80.897  1.00  0.00     0.157 A 
BRANCH  17  20
ATOM     20  O   UNL     1      96.703  99.095  81.321  1.00  0.00    -0.493 OA
ATOM     21  C   UNL     1      97.783  99.862  80.793  1.00  0.00     0.278 C 
ENDBRANCH  17  20
BRANCH  19  22
ATOM     22  O   UNL     1      97.461  96.499  81.965  1.00  0.00    -0.504 OA
ATOM     23  H   UNL     1      96.910  96.295  82.741  1.00  0.00     0.293 HD
ENDBRANCH  19  22
ENDBRANCH  13  14
ENDBRANCH  12  13
ENDBRANCH  10  12
ENDBRANCH   1  10
TORSDOF 12
ENDMDL
MODEL 6
REMARK VINA RESULT:    -5.597     15.361     18.933
REMARK INTER + INTRA:         -10.356
REMARK INTER:                  -8.964
REMARK INTRA:                  -1.392
REMARK UNBOUND:                -1.160
REMARK SMILES CCCCC[C@H](O)CC(=O)CCc1ccc(O)c(OC)c1
REMARK SMILES IDX 8 1 6 2 7 3 5 5 4 6 3 7 2 8 1 9 9 10 10 11 11 12 12 13 13 14
REMARK SMILES IDX 21 15 14 16 18 17 15 18 16 19 19 20 20 21 17 22
REMARK H PARENT 7 4 17 23
REMARK Flexibility Score: inf
ROOT
ATOM      1  C   UNL     1      95.631  83.661  83.335  1.00  0.00     0.107 C 
ENDROOT
BRANCH   1   2
ATOM      2  C   UNL     1      96.789  82.710  83.024  1.00  0.00     0.121 C 
BRANCH   2   3
ATOM      3  O   UNL     1      97.597  82.536  84.185  1.00  0.00    -0.393 OA
ATOM      4  H   UNL     1      98.258  81.849  83.988  1.00  0.00     0.210 HD
ENDBRANCH   2   3
BRANCH   2   5
ATOM      5  C   UNL     1      96.322  81.338  82.523  1.00  0.00     0.032 C 
BRANCH   5   6
ATOM      6  C   UNL     1      97.117  80.870  81.298  1.00  0.00     0.003 C 
BRANCH   6   7
ATOM      7  C   UNL     1      97.917  81.992  80.629  1.00  0.00    -0.000 C 
BRANCH   7   8
ATOM      8  C   UNL     1      97.546  82.220  79.165  1.00  0.00    -0.003 C 
ATOM      9  C   UNL     1      96.743  83.500  78.989  1.00  0.00     0.004 C 
ENDBRANCH   7   8
ENDBRANCH   6   7
ENDBRANCH   5   6
ENDBRANCH   2   5
ENDBRANCH   1   2
BRANCH   1  10
ATOM     10  C   UNL     1      95.361  83.804  84.824  1.00  0.00     0.135 C 
ATOM     11  O   UNL     1      95.934  84.666  85.491  1.00  0.00    -0.300 OA
BRANCH  10  12
ATOM     12  C   UNL     1      94.326  82.864  85.423  1.00  0.00     0.080 C 
BRANCH  12  13
ATOM     13  C   UNL     1      93.020  82.802  84.629  1.00  0.00     0.043 C 
BRANCH  13  14
ATOM     14  C   UNL     1      92.460  81.404  84.518  1.00  0.00    -0.044 A 
ATOM     15  C   UNL     1      91.099  81.214  84.281  1.00  0.00     0.054 A 
ATOM     16  C   UNL     1      93.306  80.302  84.654  1.00  0.00     0.008 A 
ATOM     17  C   UNL     1      90.583  79.921  84.178  1.00  0.00     0.160 A 
ATOM     18  C   UNL     1      92.790  79.010  84.551  1.00  0.00     0.050 A 
ATOM     19  C   UNL     1      91.429  78.820  84.313  1.00  0.00     0.157 A 
BRANCH  17  20
ATOM     20  O   UNL     1      89.252  79.748  83.947  1.00  0.00    -0.493 OA
ATOM     21  C   UNL     1      88.441  80.921  83.919  1.00  0.00     0.278 C 
ENDBRANCH  17  20
BRANCH  19  22
ATOM     22  O   UNL     1      90.937  77.553  84.215  1.00  0.00    -0.504 OA
ATOM     23  H   UNL     1      91.594  76.930  84.569  1.00  0.00     0.293 HD
ENDBRANCH  19  22
ENDBRANCH  13  14
ENDBRANCH  12  13
ENDBRANCH  10  12
ENDBRANCH   1  10
TORSDOF 12
ENDMDL
MODEL 7
REMARK VINA RESULT:    -5.596     16.736     19.103
REMARK INTER + INTRA:         -10.354
REMARK INTER:                  -9.094
REMARK INTRA:                  -1.260
REMARK UNBOUND:                -1.160
REMARK SMILES CCCCC[C@H](O)CC(=O)CCc1ccc(O)c(OC)c1
REMARK SMILES IDX 8 1 6 2 7 3 5 5 4 6 3 7 2 8 1 9 9 10 10 11 11 12 12 13 13 14
REMARK SMILES IDX 21 15 14 16 18 17 15 18 16 19 19 20 20 21 17 22
REMARK H PARENT 7 4 17 23
REMARK Flexibility Score: inf
ROOT
ATOM      1  C   UNL     1      90.270  79.793  83.820  1.00  0.00     0.107 C 
ENDROOT
BRANCH   1   2
ATOM      2  C   UNL     1      89.827  78.614  84.689  1.00  0.00     0.121 C 
BRANCH   2   3
ATOM      3  O   UNL     1      88.406  78.494  84.655  1.00  0.00    -0.393 OA
ATOM      4  H   UNL     1      88.190  77.552  84.538  1.00  0.00     0.210 HD
ENDBRANCH   2   3
BRANCH   2   5
ATOM      5  C   UNL     1      90.456  77.283  84.260  1.00  0.00     0.032 C 
BRANCH   5   6
ATOM      6  C   UNL     1      91.794  77.484  83.538  1.00  0.00     0.003 C 
BRANCH   6   7
ATOM      7  C   UNL     1      92.796  76.353  83.792  1.00  0.00    -0.000 C 
BRANCH   7   8
ATOM      8  C   UNL     1      94.066  76.811  84.508  1.00  0.00    -0.003 C 
ATOM      9  C   UNL     1      93.967  78.266  84.937  1.00  0.00     0.004 C 
ENDBRANCH   7   8
ENDBRANCH   6   7
ENDBRANCH   5   6
ENDBRANCH   2   5
ENDBRANCH   1   2
BRANCH   1  10
ATOM     10  C   UNL     1      89.930  81.143  84.431  1.00  0.00     0.135 C 
ATOM     11  O   UNL     1      88.775  81.417  84.758  1.00  0.00    -0.300 OA
BRANCH  10  12
ATOM     12  C   UNL     1      91.089  82.103  84.653  1.00  0.00     0.080 C 
BRANCH  12  13
ATOM     13  C   UNL     1      92.452  81.517  84.280  1.00  0.00     0.043 C 
BRANCH  13  14
ATOM     14  C   UNL     1      93.589  82.493  84.472  1.00  0.00    -0.044 A 
ATOM     15  C   UNL     1      93.423  83.603  85.301  1.00  0.00     0.054 A 
ATOM     16  C   UNL     1      94.804  82.284  83.820  1.00  0.00     0.008 A 
ATOM     17  C   UNL     1      94.474  84.503  85.478  1.00  0.00     0.160 A 
ATOM     18  C   UNL     1      95.855  83.184  83.997  1.00  0.00     0.050 A 
ATOM     19  C   UNL     1      95.689  84.294  84.825  1.00  0.00     0.157 A 
BRANCH  17  20
ATOM     20  O   UNL     1      94.300  85.584  86.289  1.00  0.00    -0.493 OA
ATOM     21  C   UNL     1      93.393  85.436  87.380  1.00  0.00     0.278 C 
ENDBRANCH  17  20
BRANCH  19  22
ATOM     22  O   UNL     1      96.722  85.166  84.990  1.00  0.00    -0.504 OA
ATOM     23  H   UNL     1      97.260  84.881  85.749  1.00  0.00     0.293 HD
ENDBRANCH  19  22
ENDBRANCH  13  14
ENDBRANCH  12  13
ENDBRANCH  10  12
ENDBRANCH   1  10
TORSDOF 12
ENDMDL
MODEL 8
REMARK VINA RESULT:    -5.568     13.002     16.570
REMARK INTER + INTRA:         -10.308
REMARK INTER:                  -9.374
REMARK INTRA:                  -0.935
REMARK UNBOUND:                -1.160
REMARK SMILES CCCCC[C@H](O)CC(=O)CCc1ccc(O)c(OC)c1
REMARK SMILES IDX 8 1 6 2 7 3 5 5 4 6 3 7 2 8 1 9 9 10 10 11 11 12 12 13 13 14
REMARK SMILES IDX 21 15 14 16 18 17 15 18 16 19 19 20 20 21 17 22
REMARK H PARENT 7 4 17 23
REMARK Flexibility Score: inf
ROOT
ATOM      1  C   UNL     1      97.818  83.574  76.420  1.00  0.00     0.107 C 
ENDROOT
BRANCH   1   2
ATOM      2  C   UNL     1      97.097  84.341  75.309  1.00  0.00     0.121 C 
BRANCH   2   3
ATOM      3  O   UNL     1      96.961  85.711  75.678  1.00  0.00    -0.393 OA
ATOM      4  H   UNL     1      96.320  85.761  76.408  1.00  0.00     0.210 HD
ENDBRANCH   2   3
BRANCH   2   5
ATOM      5  C   UNL     1      97.812  84.250  73.956  1.00  0.00     0.032 C 
BRANCH   5   6
ATOM      6  C   UNL     1      98.966  85.254  73.845  1.00  0.00     0.003 C 
BRANCH   6   7
ATOM      7  C   UNL     1     100.309  84.599  73.507  1.00  0.00    -0.000 C 
BRANCH   7   8
ATOM      8  C   UNL     1     101.314  84.635  74.657  1.00  0.00    -0.003 C 
ATOM      9  C   UNL     1     101.349  83.310  75.403  1.00  0.00     0.004 C 
ENDBRANCH   7   8
ENDBRANCH   6   7
ENDBRANCH   5   6
ENDBRANCH   2   5
ENDBRANCH   1   2
BRANCH   1  10
ATOM     10  C   UNL     1      96.980  83.418  77.678  1.00  0.00     0.135 C 
ATOM     11  O   UNL     1      95.972  84.103  77.856  1.00  0.00    -0.300 OA
BRANCH  10  12
ATOM     12  C   UNL     1      97.425  82.352  78.667  1.00  0.00     0.080 C 
BRANCH  12  13
ATOM     13  C   UNL     1      98.013  82.919  79.960  1.00  0.00     0.043 C 
BRANCH  13  14
ATOM     14  C   UNL     1      97.220  82.539  81.188  1.00  0.00    -0.044 A 
ATOM     15  C   UNL     1      96.665  83.532  81.995  1.00  0.00     0.054 A 
ATOM     16  C   UNL     1      97.044  81.194  81.515  1.00  0.00     0.008 A 
ATOM     17  C   UNL     1      95.932  83.180  83.129  1.00  0.00     0.160 A 
ATOM     18  C   UNL     1      96.311  80.842  82.649  1.00  0.00     0.050 A 
ATOM     19  C   UNL     1      95.756  81.835  83.455  1.00  0.00     0.157 A 
BRANCH  17  20
ATOM     20  O   UNL     1      95.394  84.158  83.909  1.00  0.00    -0.493 OA
ATOM     21  C   UNL     1      95.887  85.483  83.719  1.00  0.00     0.278 C 
ENDBRANCH  17  20
BRANCH  19  22
ATOM     22  O   UNL     1      95.042  81.479  84.560  1.00  0.00    -0.504 OA
ATOM     23  H   UNL     1      94.197  81.088  84.278  1.00  0.00     0.293 HD
ENDBRANCH  19  22
ENDBRANCH  13  14
ENDBRANCH  12  13
ENDBRANCH  10  12
ENDBRANCH   1  10
TORSDOF 12
ENDMDL
MODEL 9
REMARK VINA RESULT:    -5.496     15.840     18.797
REMARK INTER + INTRA:         -10.190
REMARK INTER:                  -9.669
REMARK INTRA:                  -0.521
REMARK UNBOUND:                -1.160
REMARK SMILES CCCCC[C@H](O)CC(=O)CCc1ccc(O)c(OC)c1
REMARK SMILES IDX 8 1 6 2 7 3 5 5 4 6 3 7 2 8 1 9 9 10 10 11 11 12 12 13 13 14
REMARK SMILES IDX 21 15 14 16 18 17 15 18 16 19 19 20 20 21 17 22
REMARK H PARENT 7 4 17 23
REMARK Flexibility Score: inf
ROOT
ATOM      1  C   UNL     1      94.552  81.346  84.950  1.00  0.00     0.107 C 
ENDROOT
BRANCH   1   2
ATOM      2  C   UNL     1      95.715  82.137  84.346  1.00  0.00     0.121 C 
BRANCH   2   3
ATOM      3  O   UNL     1      96.937  81.753  84.972  1.00  0.00    -0.393 OA
ATOM      4  H   UNL     1      97.159  80.855  84.667  1.00  0.00     0.210 HD
ENDBRANCH   2   3
BRANCH   2   5
ATOM      5  C   UNL     1      95.845  81.950  82.830  1.00  0.00     0.032 C 
BRANCH   5   6
ATOM      6  C   UNL     1      97.253  82.288  82.325  1.00  0.00     0.003 C 
BRANCH   6   7
ATOM      7  C   UNL     1      97.417  82.099  80.813  1.00  0.00    -0.000 C 
BRANCH   7   8
ATOM      8  C   UNL     1      96.979  83.312  79.994  1.00  0.00    -0.003 C 
ATOM      9  C   UNL     1      97.677  83.349  78.643  1.00  0.00     0.004 C 
ENDBRANCH   7   8
ENDBRANCH   6   7
ENDBRANCH   5   6
ENDBRANCH   2   5
ENDBRANCH   1   2
BRANCH   1  10
ATOM     10  C   UNL     1      93.689  82.177  85.886  1.00  0.00     0.135 C 
ATOM     11  O   UNL     1      94.192  83.023  86.625  1.00  0.00    -0.300 OA
BRANCH  10  12
ATOM     12  C   UNL     1      92.189  81.938  85.823  1.00  0.00     0.080 C 
BRANCH  12  13
ATOM     13  C   UNL     1      91.738  81.186  84.569  1.00  0.00     0.043 C 
BRANCH  13  14
ATOM     14  C   UNL     1      90.245  81.245  84.347  1.00  0.00    -0.044 A 
ATOM     15  C   UNL     1      89.571  82.461  84.458  1.00  0.00     0.054 A 
ATOM     16  C   UNL     1      89.541  80.083  84.032  1.00  0.00     0.008 A 
ATOM     17  C   UNL     1      88.192  82.515  84.253  1.00  0.00     0.160 A 
ATOM     18  C   UNL     1      88.162  80.137  83.826  1.00  0.00     0.050 A 
ATOM     19  C   UNL     1      87.488  81.353  83.937  1.00  0.00     0.157 A 
BRANCH  17  20
ATOM     20  O   UNL     1      87.544  83.708  84.365  1.00  0.00    -0.493 OA
ATOM     21  C   UNL     1      87.008  84.037  85.645  1.00  0.00     0.278 C 
ENDBRANCH  17  20
BRANCH  19  22
ATOM     22  O   UNL     1      86.142  81.392  83.734  1.00  0.00    -0.504 OA
ATOM     23  H   UNL     1      85.748  80.565  84.061  1.00  0.00     0.293 HD
ENDBRANCH  19  22
ENDBRANCH  13  14
ENDBRANCH  12  13
ENDBRANCH  10  12
ENDBRANCH   1  10
TORSDOF 12
ENDMDL
MODEL 10
REMARK VINA RESULT:    -5.490     16.305     19.686
REMARK INTER + INTRA:         -10.180
REMARK INTER:                  -8.381
REMARK INTRA:                  -1.799
REMARK UNBOUND:                -1.160
REMARK SMILES CCCCC[C@H](O)CC(=O)CCc1ccc(O)c(OC)c1
REMARK SMILES IDX 8 1 6 2 7 3 5 5 4 6 3 7 2 8 1 9 9 10 10 11 11 12 12 13 13 14
REMARK SMILES IDX 21 15 14 16 18 17 15 18 16 19 19 20 20 21 17 22
REMARK H PARENT 7 4 17 23
REMARK Flexibility Score: inf
ROOT
ATOM      1  C   UNL     1      89.904  79.377  83.873  1.00  0.00     0.107 C 
ENDROOT
BRANCH   1   2
ATOM      2  C   UNL     1      89.380  78.095  84.524  1.00  0.00     0.121 C 
BRANCH   2   3
ATOM      3  O   UNL     1      88.114  77.752  83.966  1.00  0.00    -0.393 OA
ATOM      4  H   UNL     1      88.178  77.850  83.000  1.00  0.00     0.210 HD
ENDBRANCH   2   3
BRANCH   2   5
ATOM      5  C   UNL     1      90.339  76.908  84.368  1.00  0.00     0.032 C 
BRANCH   5   6
ATOM      6  C   UNL     1      91.565  77.265  83.518  1.00  0.00     0.003 C 
BRANCH   6   7
ATOM      7  C   UNL     1      92.876  77.255  84.311  1.00  0.00    -0.000 C 
BRANCH   7   8
ATOM      8  C   UNL     1      93.573  78.614  84.356  1.00  0.00    -0.003 C 
ATOM      9  C   UNL     1      94.216  78.862  85.713  1.00  0.00     0.004 C 
ENDBRANCH   7   8
ENDBRANCH   6   7
ENDBRANCH   5   6
ENDBRANCH   2   5
ENDBRANCH   1   2
BRANCH   1  10
ATOM     10  C   UNL     1      89.237  80.633  84.410  1.00  0.00     0.135 C 
ATOM     11  O   UNL     1      88.032  80.652  84.661  1.00  0.00    -0.300 OA
BRANCH  10  12
ATOM     12  C   UNL     1      90.140  81.832  84.659  1.00  0.00     0.080 C 
BRANCH  12  13
ATOM     13  C   UNL     1      91.493  81.740  83.950  1.00  0.00     0.043 C 
BRANCH  13  14
ATOM     14  C   UNL     1      92.649  82.164  84.825  1.00  0.00    -0.044 A 
ATOM     15  C   UNL     1      93.836  82.611  84.245  1.00  0.00     0.054 A 
ATOM     16  C   UNL     1      92.529  82.108  86.214  1.00  0.00     0.008 A 
ATOM     17  C   UNL     1      94.903  83.003  85.054  1.00  0.00     0.160 A 
ATOM     18  C   UNL     1      93.596  82.500  87.023  1.00  0.00     0.050 A 
ATOM     19  C   UNL     1      94.783  82.947  86.442  1.00  0.00     0.157 A 
BRANCH  17  20
ATOM     20  O   UNL     1      96.057  83.437  84.475  1.00  0.00    -0.493 OA
ATOM     21  C   UNL     1      96.060  84.764  83.951  1.00  0.00     0.278 C 
ENDBRANCH  17  20
BRANCH  19  22
ATOM     22  O   UNL     1      95.818  83.327  87.242  1.00  0.00    -0.504 OA
ATOM     23  H   UNL     1      96.207  84.146  86.889  1.00  0.00     0.293 HD
ENDBRANCH  19  22
ENDBRANCH  13  14
ENDBRANCH  12  13
ENDBRANCH  10  12
ENDBRANCH   1  10
TORSDOF 12
ENDMDL
