MODEL 1
REMARK VINA RESULT:    -7.443      0.000      0.000
REMARK INTER + INTRA:         -13.413
REMARK INTER:                 -12.665
REMARK INTRA:                  -0.747
REMARK UNBOUND:                -0.747
REMARK SMILES C=C(C)[C@]12C[C@@H](C)[C@@]34O[C@](Cc5ccccc5)(O[C@@H]1[C@@H]3C=C(COC(=O)Cc1ccc(O)cc1)C[C@]1(O)C(=O)C(C)=C[C@@H]41)O2
REMARK SMILES IDX 23 1 22 2 21 3 20 4 9 5 8 6 10 7 6 8 18 10 44 11 19 12 5 13
REMARK SMILES IDX 7 14 4 15 11 16 12 17 13 18 17 19 14 20 16 21 15 22 2 23
REMARK SMILES IDX 3 24 1 25 35 26 36 27 43 28 38 29 42 30 39 32 40 33 41 34
REMARK SMILES IDX 37 35 24 37 25 38 26 39 27 40 28 41 29 42 34 43 30 44 33 45
REMARK SMILES IDX 31 46 32 47
REMARK H PARENT 37 36 32 48
REMARK Flexibility Score: 90.00
ROOT
ATOM      1  C   UNL     1      95.650  98.183  73.552  1.00  0.00     0.264 C 
ENDROOT
BRANCH   1   2
ATOM      2  C   UNL     1      95.095  99.516  73.107  1.00  0.00    -0.033 C 
ATOM      3  C   UNL     1      94.515  99.617  71.893  1.00  0.00    -0.015 C 
BRANCH   3   4
ATOM      4  C   UNL     1      93.956 100.843  71.189  1.00  0.00     0.078 C 
ATOM      5  O   UNL     1      91.542 100.940  71.719  1.00  0.00    -0.319 OA
ATOM      6  C   UNL     1      92.806 101.652  71.895  1.00  0.00     0.095 CG0
ATOM      7  C   UNL     1      91.319 100.400  70.402  1.00  0.00     0.289 C 
ATOM      8  C   UNL     1      92.713 103.067  71.189  1.00  0.00     0.023 C 
ATOM      9  G   UNL     1      93.020 101.687  73.436  1.00  0.00     0.000 G0
ATOM     10  O   UNL     1      92.364  99.508  70.024  1.00  0.00    -0.320 OA
ATOM     11  O   UNL     1      91.294 101.412  69.398  1.00  0.00    -0.313 OA
ATOM     12  C   UNL     1      93.424 100.449  69.789  1.00  0.00     0.170 C 
ATOM     13  C   UNL     1      93.066 102.975  69.673  1.00  0.00     0.049 C 
ATOM     14  C   UNL     1      91.372 103.802  71.356  1.00  0.00     0.011 C 
ATOM     15  C   UNL     1      92.687 101.615  69.085  1.00  0.00     0.122 C 
BRANCH   7  16
ATOM     16  C   UNL     1      89.994  99.663  70.409  1.00  0.00     0.135 C 
BRANCH  16  17
ATOM     17  C   UNL     1      89.434  99.491  69.019  1.00  0.00    -0.040 A 
ATOM     18  C   UNL     1      88.612 100.475  68.471  1.00  0.00     0.004 A 
ATOM     19  C   UNL     1      89.739  98.346  68.283  1.00  0.00     0.004 A 
ATOM     20  C   UNL     1      88.095 100.315  67.185  1.00  0.00     0.000 A 
ATOM     21  C   UNL     1      89.222  98.187  66.997  1.00  0.00     0.000 A 
ATOM     22  C   UNL     1      88.400  99.171  66.449  1.00  0.00     0.000 A 
ENDBRANCH  16  17
ENDBRANCH   7  16
BRANCH  15  23
ATOM     23  C   UNL     1      92.848 101.567  67.601  1.00  0.00    -0.046 C 
ATOM     24  C   UNL     1      94.185 101.988  67.066  1.00  0.00     0.042 C 
ATOM     25  C   UNL     1      91.855 101.169  66.792  1.00  0.00     0.010 C 
ENDBRANCH  15  23
ENDBRANCH   3   4
BRANCH   2  26
ATOM     26  C   UNL     1      95.269 100.610  74.144  1.00  0.00     0.078 C 
BRANCH  26  27
ATOM     27  C   UNL     1      94.502 101.912  73.921  1.00  0.00     0.140 C 
ATOM     28  C   UNL     1      93.052 101.663  73.454  1.00  0.00     0.086 CG0
ATOM     29  C   UNL     1      94.301 102.694  75.202  1.00  0.00     0.190 C 
ATOM     30  C   UNL     1      92.243 102.594  74.314  1.00  0.00    -0.010 C 
ATOM     31  G   UNL     1      92.820 101.650  71.915  1.00  0.00     0.000 G0
ATOM     32  O   UNL     1      95.174 102.953  76.017  1.00  0.00    -0.291 OA
ATOM     33  C   UNL     1      92.909 103.166  75.322  1.00  0.00    -0.008 C 
ATOM     34  C   UNL     1      92.425 104.056  76.397  1.00  0.00     0.048 C 
BRANCH  27  35
ATOM     35  O   UNL     1      95.226 102.804  73.090  1.00  0.00    -0.381 OA
ATOM     36  H   UNL     1      96.173 102.604  73.177  1.00  0.00     0.212 HD
ENDBRANCH  27  35
ENDBRANCH  26  27
ENDBRANCH   2  26
ENDBRANCH   1   2
BRANCH   1  37
ATOM     37  O   UNL     1      94.584  97.280  73.758  1.00  0.00    -0.461 OA
BRANCH  37  38
ATOM     38  C   UNL     1      94.887  96.131  74.452  1.00  0.00     0.310 C 
ATOM     39  O   UNL     1      94.936  95.009  73.966  1.00  0.00    -0.252 OA
BRANCH  38  40
ATOM     40  C   UNL     1      95.149  96.471  75.899  1.00  0.00     0.158 C 
BRANCH  40  41
ATOM     41  C   UNL     1      94.636  95.422  76.851  1.00  0.00    -0.037 A 
ATOM     42  C   UNL     1      95.532  94.679  77.620  1.00  0.00     0.008 A 
ATOM     43  C   UNL     1      93.265  95.192  76.964  1.00  0.00     0.008 A 
ATOM     44  C   UNL     1      95.057  93.707  78.501  1.00  0.00     0.046 A 
ATOM     45  C   UNL     1      92.789  94.220  77.845  1.00  0.00     0.046 A 
ATOM     46  C   UNL     1      93.686  93.478  78.613  1.00  0.00     0.115 A 
BRANCH  46  47
ATOM     47  O   UNL     1      93.223  92.529  79.472  1.00  0.00    -0.508 OA
ATOM     48  H   UNL     1      92.415  92.860  79.903  1.00  0.00     0.293 HD
ENDBRANCH  46  47
ENDBRANCH  40  41
ENDBRANCH  38  40
ENDBRANCH  37  38
ENDBRANCH   1  37
TORSDOF 10
ENDMDL
MODEL 2
REMARK VINA RESULT:    -6.881     17.847     23.152
REMARK INTER + INTRA:         -12.455
REMARK INTER:                 -10.515
REMARK INTRA:                  -1.940
REMARK UNBOUND:                -0.747
REMARK SMILES C=C(C)[C@]12C[C@@H](C)[C@@]34O[C@](Cc5ccccc5)(O[C@@H]1[C@@H]3C=C(COC(=O)Cc1ccc(O)cc1)C[C@]1(O)C(=O)C(C)=C[C@@H]41)O2
REMARK SMILES IDX 23 1 22 2 21 3 20 4 9 5 8 6 10 7 6 8 18 10 44 11 19 12 5 13
REMARK SMILES IDX 7 14 4 15 11 16 12 17 13 18 17 19 14 20 16 21 15 22 2 23
REMARK SMILES IDX 3 24 1 25 35 26 36 27 43 28 38 29 42 30 39 32 40 33 41 34
REMARK SMILES IDX 37 35 24 37 25 38 26 39 27 40 28 41 29 42 34 43 30 44 33 45
REMARK SMILES IDX 31 46 32 47
REMARK H PARENT 37 36 32 48
REMARK Flexibility Score: 90.00
ROOT
ATOM      1  C   UNL     1     100.490  81.606  75.046  1.00  0.00     0.264 C 
ENDROOT
BRANCH   1   2
ATOM      2  C   UNL     1     100.375  80.317  75.827  1.00  0.00    -0.033 C 
ATOM      3  C   UNL     1     100.335  80.365  77.175  1.00  0.00    -0.015 C 
BRANCH   3   4
ATOM      4  C   UNL     1     100.298  79.224  78.180  1.00  0.00     0.078 C 
ATOM      5  O   UNL     1      97.918  78.788  78.688  1.00  0.00    -0.319 OA
ATOM      6  C   UNL     1      99.115  78.192  78.097  1.00  0.00     0.095 CG0
ATOM      7  C   UNL     1      98.134  79.518  79.911  1.00  0.00     0.289 C 
ATOM      8  C   UNL     1      99.533  76.915  78.937  1.00  0.00     0.023 C 
ATOM      9  G   UNL     1      98.721  77.918  76.617  1.00  0.00     0.000 G0
ATOM     10  O   UNL     1      99.083  80.565  79.729  1.00  0.00    -0.320 OA
ATOM     11  O   UNL     1      98.663  78.694  80.948  1.00  0.00    -0.313 OA
ATOM     12  C   UNL     1     100.290  79.793  79.620  1.00  0.00     0.170 C 
ATOM     13  C   UNL     1     100.422  77.300  80.159  1.00  0.00     0.049 C 
ATOM     14  C   UNL     1      98.371  76.027  79.413  1.00  0.00     0.011 C 
ATOM     15  C   UNL     1     100.082  78.694  80.690  1.00  0.00     0.122 C 
BRANCH   7  16
ATOM     16  C   UNL     1      96.807  80.100  80.357  1.00  0.00     0.135 C 
BRANCH  16  17
ATOM     17  C   UNL     1      96.822  80.495  81.813  1.00  0.00    -0.040 A 
ATOM     18  C   UNL     1      96.233  79.665  82.766  1.00  0.00     0.004 A 
ATOM     19  C   UNL     1      97.425  81.689  82.204  1.00  0.00     0.004 A 
ATOM     20  C   UNL     1      96.247  80.030  84.113  1.00  0.00     0.000 A 
ATOM     21  C   UNL     1      97.440  82.054  83.551  1.00  0.00     0.000 A 
ATOM     22  C   UNL     1      96.851  81.225  84.504  1.00  0.00     0.000 A 
ENDBRANCH  16  17
ENDBRANCH   7  16
BRANCH  15  23
ATOM     23  C   UNL     1     100.792  79.011  81.966  1.00  0.00    -0.046 C 
ATOM     24  C   UNL     1      99.935  79.103  83.194  1.00  0.00     0.042 C 
ATOM     25  C   UNL     1     102.118  79.202  82.011  1.00  0.00     0.010 C 
ENDBRANCH  15  23
ENDBRANCH   3   4
BRANCH   2  26
ATOM     26  C   UNL     1     100.309  79.088  74.941  1.00  0.00     0.078 C 
BRANCH  26  27
ATOM     27  C   UNL     1      99.912  77.770  75.603  1.00  0.00     0.140 C 
ATOM     28  C   UNL     1      98.747  77.946  76.599  1.00  0.00     0.086 CG0
ATOM     29  C   UNL     1      99.347  76.771  74.616  1.00  0.00     0.190 C 
ATOM     30  C   UNL     1      97.823  76.809  76.261  1.00  0.00    -0.010 C 
ATOM     31  G   UNL     1      99.145  78.190  78.084  1.00  0.00     0.000 G0
ATOM     32  O   UNL     1      99.855  76.469  73.546  1.00  0.00    -0.291 OA
ATOM     33  C   UNL     1      98.117  76.148  75.137  1.00  0.00    -0.008 C 
ATOM     34  C   UNL     1      97.395  75.048  74.465  1.00  0.00     0.048 C 
BRANCH  27  35
ATOM     35  O   UNL     1     101.038  77.105  76.151  1.00  0.00    -0.381 OA
ATOM     36  H   UNL     1     101.633  77.773  76.532  1.00  0.00     0.212 HD
ENDBRANCH  27  35
ENDBRANCH  26  27
ENDBRANCH   2  26
ENDBRANCH   1   2
BRANCH   1  37
ATOM     37  O   UNL     1     100.214  81.353  73.685  1.00  0.00    -0.461 OA
BRANCH  37  38
ATOM     38  C   UNL     1      99.219  82.113  73.115  1.00  0.00     0.310 C 
ATOM     39  O   UNL     1      99.390  83.180  72.543  1.00  0.00    -0.252 OA
BRANCH  38  40
ATOM     40  C   UNL     1      97.888  81.425  73.306  1.00  0.00     0.158 C 
BRANCH  40  41
ATOM     41  C   UNL     1      97.155  81.894  74.536  1.00  0.00    -0.037 A 
ATOM     42  C   UNL     1      96.616  83.179  74.579  1.00  0.00     0.008 A 
ATOM     43  C   UNL     1      97.016  81.043  75.632  1.00  0.00     0.008 A 
ATOM     44  C   UNL     1      95.938  83.614  75.718  1.00  0.00     0.046 A 
ATOM     45  C   UNL     1      96.338  81.477  76.771  1.00  0.00     0.046 A 
ATOM     46  C   UNL     1      95.799  82.762  76.814  1.00  0.00     0.115 A 
BRANCH  46  47
ATOM     47  O   UNL     1      95.138  83.186  77.926  1.00  0.00    -0.508 OA
ATOM     48  H   UNL     1      95.751  83.699  78.481  1.00  0.00     0.293 HD
ENDBRANCH  46  47
ENDBRANCH  40  41
ENDBRANCH  38  40
ENDBRANCH  37  38
ENDBRANCH   1  37
TORSDOF 10
ENDMDL
MODEL 3
REMARK VINA RESULT:    -6.842     18.086     21.889
REMARK INTER + INTRA:         -12.388
REMARK INTER:                 -10.957
REMARK INTRA:                  -1.431
REMARK UNBOUND:                -0.747
REMARK SMILES C=C(C)[C@]12C[C@@H](C)[C@@]34O[C@](Cc5ccccc5)(O[C@@H]1[C@@H]3C=C(COC(=O)Cc1ccc(O)cc1)C[C@]1(O)C(=O)C(C)=C[C@@H]41)O2
REMARK SMILES IDX 23 1 22 2 21 3 20 4 9 5 8 6 10 7 6 8 18 10 44 11 19 12 5 13
REMARK SMILES IDX 7 14 4 15 11 16 12 17 13 18 17 19 14 20 16 21 15 22 2 23
REMARK SMILES IDX 3 24 1 25 35 26 36 27 43 28 38 29 42 30 39 32 40 33 41 34
REMARK SMILES IDX 37 35 24 37 25 38 26 39 27 40 28 41 29 42 34 43 30 44 33 45
REMARK SMILES IDX 31 46 32 47
REMARK H PARENT 37 36 32 48
REMARK Flexibility Score: 90.00
ROOT
ATOM      1  C   UNL     1     100.314  79.879  78.779  1.00  0.00     0.264 C 
ENDROOT
BRANCH   1   2
ATOM      2  C   UNL     1     100.901  79.346  77.493  1.00  0.00    -0.033 C 
ATOM      3  C   UNL     1     100.075  79.016  76.479  1.00  0.00    -0.015 C 
BRANCH   3   4
ATOM      4  C   UNL     1     100.403  78.396  75.129  1.00  0.00     0.078 C 
ATOM      5  O   UNL     1     100.708  80.261  73.535  1.00  0.00    -0.319 OA
ATOM      6  C   UNL     1     101.406  79.152  74.182  1.00  0.00     0.095 CG0
ATOM      7  C   UNL     1      99.381  79.961  73.061  1.00  0.00     0.289 C 
ATOM      8  C   UNL     1     101.892  78.124  73.080  1.00  0.00     0.023 C 
ATOM      9  G   UNL     1     102.537  79.833  75.006  1.00  0.00     0.000 G0
ATOM     10  O   UNL     1      98.547  79.496  74.119  1.00  0.00    -0.320 OA
ATOM     11  O   UNL     1      99.376  78.925  72.082  1.00  0.00    -0.313 OA
ATOM     12  C   UNL     1      99.101  78.186  74.317  1.00  0.00     0.170 C 
ATOM     13  C   UNL     1     100.770  77.103  72.715  1.00  0.00     0.049 C 
ATOM     14  C   UNL     1     102.449  78.751  71.790  1.00  0.00     0.011 C 
ATOM     15  C   UNL     1      99.377  77.715  72.868  1.00  0.00     0.122 C 
BRANCH   7  16
ATOM     16  C   UNL     1      98.794  81.224  72.463  1.00  0.00     0.135 C 
BRANCH  16  17
ATOM     17  C   UNL     1      99.771  82.373  72.495  1.00  0.00    -0.040 A 
ATOM     18  C   UNL     1      99.916  83.133  73.655  1.00  0.00     0.004 A 
ATOM     19  C   UNL     1     100.528  82.675  71.364  1.00  0.00     0.004 A 
ATOM     20  C   UNL     1     100.820  84.196  73.684  1.00  0.00     0.000 A 
ATOM     21  C   UNL     1     101.432  83.737  71.393  1.00  0.00     0.000 A 
ATOM     22  C   UNL     1     101.577  84.497  72.553  1.00  0.00     0.000 A 
ENDBRANCH  16  17
ENDBRANCH   7  16
BRANCH  15  23
ATOM     23  C   UNL     1      98.297  76.820  72.353  1.00  0.00    -0.046 C 
ATOM     24  C   UNL     1      97.990  75.609  73.183  1.00  0.00     0.042 C 
ATOM     25  C   UNL     1      97.640  77.084  71.214  1.00  0.00     0.010 C 
ENDBRANCH  15  23
ENDBRANCH   3   4
BRANCH   2  26
ATOM     26  C   UNL     1     102.416  79.260  77.520  1.00  0.00     0.078 C 
BRANCH  26  27
ATOM     27  C   UNL     1     103.122  78.974  76.196  1.00  0.00     0.140 C 
ATOM     28  C   UNL     1     102.552  79.816  75.036  1.00  0.00     0.086 CG0
ATOM     29  C   UNL     1     104.578  79.389  76.214  1.00  0.00     0.190 C 
ATOM     30  C   UNL     1     103.781  80.332  74.341  1.00  0.00    -0.010 C 
ATOM     31  G   UNL     1     101.422  79.150  74.196  1.00  0.00     0.000 G0
ATOM     32  O   UNL     1     105.382  79.112  77.091  1.00  0.00    -0.291 OA
ATOM     33  C   UNL     1     104.931  80.133  74.991  1.00  0.00    -0.008 C 
ATOM     34  C   UNL     1     106.302  80.570  74.653  1.00  0.00     0.048 C 
BRANCH  27  35
ATOM     35  O   UNL     1     103.170  77.583  75.924  1.00  0.00    -0.381 OA
ATOM     36  H   UNL     1     103.308  77.111  76.763  1.00  0.00     0.212 HD
ENDBRANCH  27  35
ENDBRANCH  26  27
ENDBRANCH   2  26
ENDBRANCH   1   2
BRANCH   1  37
ATOM     37  O   UNL     1      99.006  79.374  78.940  1.00  0.00    -0.461 OA
BRANCH  37  38
ATOM     38  C   UNL     1      98.162  80.114  79.735  1.00  0.00     0.310 C 
ATOM     39  O   UNL     1      97.384  79.650  80.557  1.00  0.00    -0.252 OA
BRANCH  38  40
ATOM     40  C   UNL     1      98.346  81.583  79.435  1.00  0.00     0.158 C 
BRANCH  40  41
ATOM     41  C   UNL     1      97.591  82.032  78.211  1.00  0.00    -0.037 A 
ATOM     42  C   UNL     1      96.263  82.445  78.323  1.00  0.00     0.008 A 
ATOM     43  C   UNL     1      98.219  82.035  76.966  1.00  0.00     0.008 A 
ATOM     44  C   UNL     1      95.563  82.860  77.190  1.00  0.00     0.046 A 
ATOM     45  C   UNL     1      97.520  82.451  75.832  1.00  0.00     0.046 A 
ATOM     46  C   UNL     1      96.192  82.863  75.944  1.00  0.00     0.115 A 
BRANCH  46  47
ATOM     47  O   UNL     1      95.509  83.267  74.839  1.00  0.00    -0.508 OA
ATOM     48  H   UNL     1      95.231  82.483  74.335  1.00  0.00     0.293 HD
ENDBRANCH  46  47
ENDBRANCH  40  41
ENDBRANCH  38  40
ENDBRANCH  37  38
ENDBRANCH   1  37
TORSDOF 10
ENDMDL
MODEL 4
REMARK VINA RESULT:    -6.826     18.475     23.699
REMARK INTER + INTRA:         -12.362
REMARK INTER:                 -11.832
REMARK INTRA:                  -0.530
REMARK UNBOUND:                -0.747
REMARK SMILES C=C(C)[C@]12C[C@@H](C)[C@@]34O[C@](Cc5ccccc5)(O[C@@H]1[C@@H]3C=C(COC(=O)Cc1ccc(O)cc1)C[C@]1(O)C(=O)C(C)=C[C@@H]41)O2
REMARK SMILES IDX 23 1 22 2 21 3 20 4 9 5 8 6 10 7 6 8 18 10 44 11 19 12 5 13
REMARK SMILES IDX 7 14 4 15 11 16 12 17 13 18 17 19 14 20 16 21 15 22 2 23
REMARK SMILES IDX 3 24 1 25 35 26 36 27 43 28 38 29 42 30 39 32 40 33 41 34
REMARK SMILES IDX 37 35 24 37 25 38 26 39 27 40 28 41 29 42 34 43 30 44 33 45
REMARK SMILES IDX 31 46 32 47
REMARK H PARENT 37 36 32 48
REMARK Flexibility Score: 90.00
ROOT
ATOM      1  C   UNL     1      97.354  80.919  80.925  1.00  0.00     0.264 C 
ENDROOT
BRANCH   1   2
ATOM      2  C   UNL     1      97.318  80.745  82.426  1.00  0.00    -0.033 C 
ATOM      3  C   UNL     1      96.255  81.207  83.117  1.00  0.00    -0.015 C 
BRANCH   3   4
ATOM      4  C   UNL     1      96.014  81.226  84.618  1.00  0.00     0.078 C 
ATOM      5  O   UNL     1      94.800  79.145  85.178  1.00  0.00    -0.319 OA
ATOM      6  C   UNL     1      96.055  79.861  85.399  1.00  0.00     0.095 CG0
ATOM      7  C   UNL     1      93.611  79.956  85.237  1.00  0.00     0.289 C 
ATOM      8  C   UNL     1      96.203  80.196  86.941  1.00  0.00     0.023 C 
ATOM      9  G   UNL     1      97.147  78.920  84.812  1.00  0.00     0.000 G0
ATOM     10  O   UNL     1      93.664  81.021  84.292  1.00  0.00    -0.320 OA
ATOM     11  O   UNL     1      93.440  80.577  86.509  1.00  0.00    -0.313 OA
ATOM     12  C   UNL     1      94.638  81.868  84.922  1.00  0.00     0.170 C 
ATOM     13  C   UNL     1      95.471  81.522  87.311  1.00  0.00     0.049 C 
ATOM     14  C   UNL     1      95.758  79.082  87.905  1.00  0.00     0.011 C 
ATOM     15  C   UNL     1      94.254  81.765  86.418  1.00  0.00     0.122 C 
BRANCH   7  16
ATOM     16  C   UNL     1      92.417  79.069  84.944  1.00  0.00     0.135 C 
BRANCH  16  17
ATOM     17  C   UNL     1      91.112  79.744  85.286  1.00  0.00    -0.040 A 
ATOM     18  C   UNL     1      90.417  79.376  86.438  1.00  0.00     0.004 A 
ATOM     19  C   UNL     1      90.602  80.737  84.450  1.00  0.00     0.004 A 
ATOM     20  C   UNL     1      89.211  80.002  86.755  1.00  0.00     0.000 A 
ATOM     21  C   UNL     1      89.395  81.362  84.767  1.00  0.00     0.000 A 
ATOM     22  C   UNL     1      88.700  80.994  85.918  1.00  0.00     0.000 A 
ENDBRANCH  16  17
ENDBRANCH   7  16
BRANCH  15  23
ATOM     23  C   UNL     1      93.435  82.931  86.869  1.00  0.00    -0.046 C 
ATOM     24  C   UNL     1      92.099  82.609  87.470  1.00  0.00     0.042 C 
ATOM     25  C   UNL     1      93.869  84.194  86.743  1.00  0.00     0.010 C 
ENDBRANCH  15  23
ENDBRANCH   3   4
BRANCH   2  26
ATOM     26  C   UNL     1      98.540  80.033  82.973  1.00  0.00     0.078 C 
BRANCH  26  27
ATOM     27  C   UNL     1      98.497  79.596  84.436  1.00  0.00     0.140 C 
ATOM     28  C   UNL     1      97.155  78.931  84.807  1.00  0.00     0.086 CG0
ATOM     29  C   UNL     1      99.498  78.503  84.745  1.00  0.00     0.190 C 
ATOM     30  C   UNL     1      97.572  77.708  85.575  1.00  0.00    -0.010 C 
ATOM     31  G   UNL     1      96.065  79.870  85.400  1.00  0.00     0.000 G0
ATOM     32  O   UNL     1     100.680  78.517  84.433  1.00  0.00    -0.291 OA
ATOM     33  C   UNL     1      98.877  77.424  85.536  1.00  0.00    -0.008 C 
ATOM     34  C   UNL     1      99.619  76.276  86.097  1.00  0.00     0.048 C 
BRANCH  27  35
ATOM     35  O   UNL     1      98.871  80.653  85.304  1.00  0.00    -0.381 OA
ATOM     36  H   UNL     1      98.155  80.791  85.946  1.00  0.00     0.212 HD
ENDBRANCH  27  35
ENDBRANCH  26  27
ENDBRANCH   2  26
ENDBRANCH   1   2
BRANCH   1  37
ATOM     37  O   UNL     1      97.093  79.677  80.306  1.00  0.00    -0.461 OA
BRANCH  37  38
ATOM     38  C   UNL     1      97.808  79.406  79.162  1.00  0.00     0.310 C 
ATOM     39  O   UNL     1      97.816  78.333  78.576  1.00  0.00    -0.252 OA
BRANCH  38  40
ATOM     40  C   UNL     1      98.576  80.637  78.745  1.00  0.00     0.158 C 
BRANCH  40  41
ATOM     41  C   UNL     1      97.921  81.384  77.613  1.00  0.00    -0.037 A 
ATOM     42  C   UNL     1      98.606  81.574  76.413  1.00  0.00     0.008 A 
ATOM     43  C   UNL     1      96.629  81.887  77.764  1.00  0.00     0.008 A 
ATOM     44  C   UNL     1      97.999  82.267  75.365  1.00  0.00     0.046 A 
ATOM     45  C   UNL     1      96.021  82.579  76.716  1.00  0.00     0.046 A 
ATOM     46  C   UNL     1      96.706  82.769  75.517  1.00  0.00     0.115 A 
BRANCH  46  47
ATOM     47  O   UNL     1      96.115  83.445  74.495  1.00  0.00    -0.508 OA
ATOM     48  H   UNL     1      96.237  82.942  73.671  1.00  0.00     0.293 HD
ENDBRANCH  46  47
ENDBRANCH  40  41
ENDBRANCH  38  40
ENDBRANCH  37  38
ENDBRANCH   1  37
TORSDOF 10
ENDMDL
MODEL 5
REMARK VINA RESULT:    -6.677     20.356     23.819
REMARK INTER + INTRA:         -12.108
REMARK INTER:                 -11.918
REMARK INTRA:                  -0.190
REMARK UNBOUND:                -0.747
REMARK SMILES C=C(C)[C@]12C[C@@H](C)[C@@]34O[C@](Cc5ccccc5)(O[C@@H]1[C@@H]3C=C(COC(=O)Cc1ccc(O)cc1)C[C@]1(O)C(=O)C(C)=C[C@@H]41)O2
REMARK SMILES IDX 23 1 22 2 21 3 20 4 9 5 8 6 10 7 6 8 18 10 44 11 19 12 5 13
REMARK SMILES IDX 7 14 4 15 11 16 12 17 13 18 17 19 14 20 16 21 15 22 2 23
REMARK SMILES IDX 3 24 1 25 35 26 36 27 43 28 38 29 42 30 39 32 40 33 41 34
REMARK SMILES IDX 37 35 24 37 25 38 26 39 27 40 28 41 29 42 34 43 30 44 33 45
REMARK SMILES IDX 31 46 32 47
REMARK H PARENT 37 36 32 48
REMARK Flexibility Score: 90.00
ROOT
ATOM      1  C   UNL     1      96.314  81.139  84.659  1.00  0.00     0.264 C 
ENDROOT
BRANCH   1   2
ATOM      2  C   UNL     1      94.993  81.643  85.192  1.00  0.00    -0.033 C 
ATOM      3  C   UNL     1      93.880  80.905  85.001  1.00  0.00    -0.015 C 
BRANCH   3   4
ATOM      4  C   UNL     1      92.438  81.220  85.366  1.00  0.00     0.078 C 
ATOM      5  O   UNL     1      92.039  80.267  87.613  1.00  0.00    -0.319 OA
ATOM      6  C   UNL     1      92.097  81.525  86.870  1.00  0.00     0.095 CG0
ATOM      7  C   UNL     1      91.363  79.187  86.941  1.00  0.00     0.289 C 
ATOM      8  C   UNL     1      90.674  82.220  86.908  1.00  0.00     0.023 C 
ATOM      9  G   UNL     1      93.249  82.323  87.548  1.00  0.00     0.000 G0
ATOM     10  O   UNL     1      91.962  78.907  85.679  1.00  0.00    -0.320 OA
ATOM     11  O   UNL     1      89.999  79.491  86.662  1.00  0.00    -0.313 OA
ATOM     12  C   UNL     1      91.519  80.051  84.932  1.00  0.00     0.170 C 
ATOM     13  C   UNL     1      89.745  81.684  85.775  1.00  0.00     0.049 C 
ATOM     14  C   UNL     1      89.933  82.141  88.254  1.00  0.00     0.011 C 
ATOM     15  C   UNL     1      90.062  80.230  85.425  1.00  0.00     0.122 C 
BRANCH   7  16
ATOM     16  C   UNL     1      91.435  77.959  87.827  1.00  0.00     0.135 C 
BRANCH  16  17
ATOM     17  C   UNL     1      91.552  76.687  87.024  1.00  0.00    -0.040 A 
ATOM     18  C   UNL     1      92.808  76.202  86.663  1.00  0.00     0.004 A 
ATOM     19  C   UNL     1      90.401  75.997  86.642  1.00  0.00     0.004 A 
ATOM     20  C   UNL     1      92.915  75.026  85.920  1.00  0.00     0.000 A 
ATOM     21  C   UNL     1      90.509  74.821  85.900  1.00  0.00     0.000 A 
ATOM     22  C   UNL     1      91.765  74.336  85.539  1.00  0.00     0.000 A 
ENDBRANCH  16  17
ENDBRANCH   7  16
BRANCH  15  23
ATOM     23  C   UNL     1      89.072  79.640  84.474  1.00  0.00    -0.046 C 
ATOM     24  C   UNL     1      89.561  78.499  83.632  1.00  0.00     0.042 C 
ATOM     25  C   UNL     1      87.817  80.103  84.379  1.00  0.00     0.010 C 
ENDBRANCH  15  23
ENDBRANCH   3   4
BRANCH   2  26
ATOM     26  C   UNL     1      95.110  82.974  85.912  1.00  0.00     0.078 C 
BRANCH  26  27
ATOM     27  C   UNL     1      93.881  83.465  86.674  1.00  0.00     0.140 C 
ATOM     28  C   UNL     1      93.248  82.355  87.539  1.00  0.00     0.086 CG0
ATOM     29  C   UNL     1      94.221  84.523  87.702  1.00  0.00     0.190 C 
ATOM     30  C   UNL     1      93.003  83.035  88.857  1.00  0.00    -0.010 C 
ATOM     31  G   UNL     1      92.101  81.539  86.876  1.00  0.00     0.000 G0
ATOM     32  O   UNL     1      94.907  85.513  87.498  1.00  0.00    -0.291 OA
ATOM     33  C   UNL     1      93.560  84.242  88.991  1.00  0.00    -0.008 C 
ATOM     34  C   UNL     1      93.597  85.150  90.156  1.00  0.00     0.048 C 
BRANCH  27  35
ATOM     35  O   UNL     1      92.961  84.113  85.812  1.00  0.00    -0.381 OA
ATOM     36  H   UNL     1      93.211  83.917  84.893  1.00  0.00     0.212 HD
ENDBRANCH  27  35
ENDBRANCH  26  27
ENDBRANCH   2  26
ENDBRANCH   1   2
BRANCH   1  37
ATOM     37  O   UNL     1      97.088  82.234  84.218  1.00  0.00    -0.461 OA
BRANCH  37  38
ATOM     38  C   UNL     1      96.698  82.815  83.033  1.00  0.00     0.310 C 
ATOM     39  O   UNL     1      96.751  84.011  82.785  1.00  0.00    -0.252 OA
BRANCH  38  40
ATOM     40  C   UNL     1      96.197  81.747  82.090  1.00  0.00     0.158 C 
BRANCH  40  41
ATOM     41  C   UNL     1      97.225  81.336  81.067  1.00  0.00    -0.037 A 
ATOM     42  C   UNL     1      97.213  81.911  79.796  1.00  0.00     0.008 A 
ATOM     43  C   UNL     1      98.188  80.381  81.391  1.00  0.00     0.008 A 
ATOM     44  C   UNL     1      98.164  81.530  78.849  1.00  0.00     0.046 A 
ATOM     45  C   UNL     1      99.140  80.000  80.444  1.00  0.00     0.046 A 
ATOM     46  C   UNL     1      99.127  80.574  79.174  1.00  0.00     0.115 A 
BRANCH  46  47
ATOM     47  O   UNL     1     100.055  80.203  78.250  1.00  0.00    -0.508 OA
ATOM     48  H   UNL     1     100.931  80.512  78.539  1.00  0.00     0.293 HD
ENDBRANCH  46  47
ENDBRANCH  40  41
ENDBRANCH  38  40
ENDBRANCH  37  38
ENDBRANCH   1  37
TORSDOF 10
ENDMDL
MODEL 6
REMARK VINA RESULT:    -6.421     17.356     21.478
REMARK INTER + INTRA:         -11.673
REMARK INTER:                 -10.092
REMARK INTRA:                  -1.582
REMARK UNBOUND:                -0.747
REMARK SMILES C=C(C)[C@]12C[C@@H](C)[C@@]34O[C@](Cc5ccccc5)(O[C@@H]1[C@@H]3C=C(COC(=O)Cc1ccc(O)cc1)C[C@]1(O)C(=O)C(C)=C[C@@H]41)O2
REMARK SMILES IDX 23 1 22 2 21 3 20 4 9 5 8 6 10 7 6 8 18 10 44 11 19 12 5 13
REMARK SMILES IDX 7 14 4 15 11 16 12 17 13 18 17 19 14 20 16 21 15 22 2 23
REMARK SMILES IDX 3 24 1 25 35 26 36 27 43 28 38 29 42 30 39 32 40 33 41 34
REMARK SMILES IDX 37 35 24 37 25 38 26 39 27 40 28 41 29 42 34 43 30 44 33 45
REMARK SMILES IDX 31 46 32 47
REMARK H PARENT 37 36 32 48
REMARK Flexibility Score: 90.00
ROOT
ATOM      1  C   UNL     1     100.052  84.536  72.381  1.00  0.00     0.264 C 
ENDROOT
BRANCH   1   2
ATOM      2  C   UNL     1      99.183  83.394  72.855  1.00  0.00    -0.033 C 
ATOM      3  C   UNL     1      99.441  82.144  72.418  1.00  0.00    -0.015 C 
BRANCH   3   4
ATOM      4  C   UNL     1      98.680  80.854  72.681  1.00  0.00     0.078 C 
ATOM      5  O   UNL     1      99.730  79.788  74.650  1.00  0.00    -0.319 OA
ATOM      6  C   UNL     1      98.487  80.390  74.171  1.00  0.00     0.095 CG0
ATOM      7  C   UNL     1     100.387  78.909  73.717  1.00  0.00     0.289 C 
ATOM      8  C   UNL     1      97.337  79.300  74.188  1.00  0.00     0.023 C 
ATOM      9  G   UNL     1      98.263  81.613  75.107  1.00  0.00     0.000 G0
ATOM     10  O   UNL     1     100.684  79.579  72.495  1.00  0.00    -0.320 OA
ATOM     11  O   UNL     1      99.574  77.794  73.358  1.00  0.00    -0.313 OA
ATOM     12  C   UNL     1      99.364  79.680  71.937  1.00  0.00     0.170 C 
ATOM     13  C   UNL     1      97.336  78.448  72.883  1.00  0.00     0.049 C 
ATOM     14  C   UNL     1      97.332  78.363  75.409  1.00  0.00     0.011 C 
ATOM     15  C   UNL     1      98.742  78.308  72.297  1.00  0.00     0.122 C 
BRANCH   7  16
ATOM     16  C   UNL     1     101.670  78.413  74.355  1.00  0.00     0.135 C 
BRANCH  16  17
ATOM     17  C   UNL     1     101.591  78.416  75.861  1.00  0.00    -0.040 A 
ATOM     18  C   UNL     1     100.877  77.418  76.524  1.00  0.00     0.004 A 
ATOM     19  C   UNL     1     102.233  79.416  76.590  1.00  0.00     0.004 A 
ATOM     20  C   UNL     1     100.804  77.421  77.918  1.00  0.00     0.000 A 
ATOM     21  C   UNL     1     102.161  79.418  77.984  1.00  0.00     0.000 A 
ATOM     22  C   UNL     1     101.446  78.421  78.647  1.00  0.00     0.000 A 
ENDBRANCH  16  17
ENDBRANCH   7  16
BRANCH  15  23
ATOM     23  C   UNL     1      98.795  77.350  71.152  1.00  0.00    -0.046 C 
ATOM     24  C   UNL     1      99.921  76.359  71.170  1.00  0.00     0.042 C 
ATOM     25  C   UNL     1      97.888  77.375  70.165  1.00  0.00     0.010 C 
ENDBRANCH  15  23
ENDBRANCH   3   4
BRANCH   2  26
ATOM     26  C   UNL     1      98.091  83.834  73.812  1.00  0.00     0.078 C 
BRANCH  26  27
ATOM     27  C   UNL     1      97.311  82.737  74.533  1.00  0.00     0.140 C 
ATOM     28  C   UNL     1      98.235  81.639  75.098  1.00  0.00     0.086 CG0
ATOM     29  C   UNL     1      96.610  83.244  75.775  1.00  0.00     0.190 C 
ATOM     30  C   UNL     1      97.716  81.429  76.494  1.00  0.00    -0.010 C 
ATOM     31  G   UNL     1      98.475  80.405  74.180  1.00  0.00     0.000 G0
ATOM     32  O   UNL     1      95.914  84.247  75.836  1.00  0.00    -0.291 OA
ATOM     33  C   UNL     1      96.824  82.331  76.914  1.00  0.00    -0.008 C 
ATOM     34  C   UNL     1      96.174  82.484  78.232  1.00  0.00     0.048 C 
BRANCH  27  35
ATOM     35  O   UNL     1      96.254  82.238  73.729  1.00  0.00    -0.381 OA
ATOM     36  H   UNL     1      96.033  81.343  74.035  1.00  0.00     0.212 HD
ENDBRANCH  27  35
ENDBRANCH  26  27
ENDBRANCH   2  26
ENDBRANCH   1   2
BRANCH   1  37
ATOM     37  O   UNL     1     101.409  84.205  72.585  1.00  0.00    -0.461 OA
BRANCH  37  38
ATOM     38  C   UNL     1     102.230  84.299  71.485  1.00  0.00     0.310 C 
ATOM     39  O   UNL     1     102.557  85.344  70.940  1.00  0.00    -0.252 OA
BRANCH  38  40
ATOM     40  C   UNL     1     102.661  82.917  71.058  1.00  0.00     0.158 C 
BRANCH  40  41
ATOM     41  C   UNL     1     103.768  82.356  71.912  1.00  0.00    -0.037 A 
ATOM     42  C   UNL     1     103.486  81.377  72.865  1.00  0.00     0.008 A 
ATOM     43  C   UNL     1     105.075  82.816  71.753  1.00  0.00     0.008 A 
ATOM     44  C   UNL     1     104.510  80.858  73.657  1.00  0.00     0.046 A 
ATOM     45  C   UNL     1     106.100  82.297  72.544  1.00  0.00     0.046 A 
ATOM     46  C   UNL     1     105.818  81.319  73.497  1.00  0.00     0.115 A 
BRANCH  46  47
ATOM     47  O   UNL     1     106.817  80.813  74.270  1.00  0.00    -0.508 OA
ATOM     48  H   UNL     1     106.481  80.682  75.174  1.00  0.00     0.293 HD
ENDBRANCH  46  47
ENDBRANCH  40  41
ENDBRANCH  38  40
ENDBRANCH  37  38
ENDBRANCH   1  37
TORSDOF 10
ENDMDL
MODEL 7
REMARK VINA RESULT:    -6.219      1.614      2.231
REMARK INTER + INTRA:         -11.329
REMARK INTER:                 -10.969
REMARK INTRA:                  -0.360
REMARK UNBOUND:                -0.747
REMARK SMILES C=C(C)[C@]12C[C@@H](C)[C@@]34O[C@](Cc5ccccc5)(O[C@@H]1[C@@H]3C=C(COC(=O)Cc1ccc(O)cc1)C[C@]1(O)C(=O)C(C)=C[C@@H]41)O2
REMARK SMILES IDX 23 1 22 2 21 3 20 4 9 5 8 6 10 7 6 8 18 10 44 11 19 12 5 13
REMARK SMILES IDX 7 14 4 15 11 16 12 17 13 18 17 19 14 20 16 21 15 22 2 23
REMARK SMILES IDX 3 24 1 25 35 26 36 27 43 28 38 29 42 30 39 32 40 33 41 34
REMARK SMILES IDX 37 35 24 37 25 38 26 39 27 40 28 41 29 42 34 43 30 44 33 45
REMARK SMILES IDX 31 46 32 47
REMARK H PARENT 37 36 32 48
REMARK Flexibility Score: 90.00
ROOT
ATOM      1  C   UNL     1      95.416 100.794  73.768  1.00  0.00     0.264 C 
ENDROOT
BRANCH   1   2
ATOM      2  C   UNL     1      94.345 101.794  73.401  1.00  0.00    -0.033 C 
ATOM      3  C   UNL     1      93.751 101.710  72.192  1.00  0.00    -0.015 C 
BRANCH   3   4
ATOM      4  C   UNL     1      92.714 102.625  71.560  1.00  0.00     0.078 C 
ATOM      5  O   UNL     1      90.493 101.699  72.128  1.00  0.00    -0.319 OA
ATOM      6  C   UNL     1      91.359 102.860  72.322  1.00  0.00     0.095 CG0
ATOM      7  C   UNL     1      90.466 101.170  70.788  1.00  0.00     0.289 C 
ATOM      8  C   UNL     1      90.670 104.140  71.691  1.00  0.00     0.023 C 
ATOM      9  G   UNL     1      91.592 102.917  73.860  1.00  0.00     0.000 G0
ATOM     10  O   UNL     1      91.771 100.803  70.350  1.00  0.00    -0.320 OA
ATOM     11  O   UNL     1      89.994 102.122  69.838  1.00  0.00    -0.313 OA
ATOM     12  C   UNL     1      92.344 102.105  70.149  1.00  0.00     0.170 C 
ATOM     13  C   UNL     1      90.978 104.263  70.168  1.00  0.00     0.049 C 
ATOM     14  C   UNL     1      89.151 104.251  71.915  1.00  0.00     0.011 C 
ATOM     15  C   UNL     1      91.171 102.893  69.517  1.00  0.00     0.122 C 
BRANCH   7  16
ATOM     16  C   UNL     1      89.561  99.954  70.776  1.00  0.00     0.135 C 
BRANCH  16  17
ATOM     17  C   UNL     1      89.428  99.360  69.396  1.00  0.00    -0.040 A 
ATOM     18  C   UNL     1      88.632  99.989  68.440  1.00  0.00     0.004 A 
ATOM     19  C   UNL     1      90.101  98.181  69.078  1.00  0.00     0.004 A 
ATOM     20  C   UNL     1      88.510  99.440  67.163  1.00  0.00     0.000 A 
ATOM     21  C   UNL     1      89.979  97.632  67.801  1.00  0.00     0.000 A 
ATOM     22  C   UNL     1      89.183  98.261  66.844  1.00  0.00     0.000 A 
ENDBRANCH  16  17
ENDBRANCH   7  16
BRANCH  15  23
ATOM     23  C   UNL     1      91.287 102.975  68.029  1.00  0.00    -0.046 C 
ATOM     24  C   UNL     1      91.553 101.684  67.314  1.00  0.00     0.042 C 
ATOM     25  C   UNL     1      91.161 104.137  67.372  1.00  0.00     0.010 C 
ENDBRANCH  15  23
ENDBRANCH   3   4
BRANCH   2  26
ATOM     26  C   UNL     1      94.067 102.801  74.501  1.00  0.00     0.078 C 
BRANCH  26  27
ATOM     27  C   UNL     1      92.845 103.701  74.332  1.00  0.00     0.140 C 
ATOM     28  C   UNL     1      91.602 102.915  73.863  1.00  0.00     0.086 CG0
ATOM     29  C   UNL     1      92.377 104.297  75.643  1.00  0.00     0.190 C 
ATOM     30  C   UNL     1      90.509 103.422  74.762  1.00  0.00    -0.010 C 
ATOM     31  G   UNL     1      91.364 102.862  72.326  1.00  0.00     0.000 G0
ATOM     32  O   UNL     1      93.093 104.853  76.462  1.00  0.00    -0.291 OA
ATOM     33  C   UNL     1      90.914 104.177  75.787  1.00  0.00    -0.008 C 
ATOM     34  C   UNL     1      90.140 104.768  76.898  1.00  0.00     0.048 C 
BRANCH  27  35
ATOM     35  O   UNL     1      93.141 104.833  73.532  1.00  0.00    -0.381 OA
ATOM     36  H   UNL     1      92.934 104.618  72.606  1.00  0.00     0.212 HD
ENDBRANCH  27  35
ENDBRANCH  26  27
ENDBRANCH   2  26
ENDBRANCH   1   2
BRANCH   1  37
ATOM     37  O   UNL     1      94.808  99.603  74.219  1.00  0.00    -0.461 OA
BRANCH  37  38
ATOM     38  C   UNL     1      94.966  98.497  73.416  1.00  0.00     0.310 C 
ATOM     39  O   UNL     1      94.572  98.406  72.261  1.00  0.00    -0.252 OA
BRANCH  38  40
ATOM     40  C   UNL     1      95.699  97.420  74.179  1.00  0.00     0.158 C 
BRANCH  40  41
ATOM     41  C   UNL     1      94.771  96.456  74.871  1.00  0.00    -0.037 A 
ATOM     42  C   UNL     1      95.268  95.259  75.389  1.00  0.00     0.008 A 
ATOM     43  C   UNL     1      93.416  96.758  74.995  1.00  0.00     0.008 A 
ATOM     44  C   UNL     1      94.409  94.365  76.029  1.00  0.00     0.046 A 
ATOM     45  C   UNL     1      92.556  95.865  75.635  1.00  0.00     0.046 A 
ATOM     46  C   UNL     1      93.053  94.669  76.152  1.00  0.00     0.115 A 
BRANCH  46  47
ATOM     47  O   UNL     1      92.215  93.796  76.776  1.00  0.00    -0.508 OA
ATOM     48  H   UNL     1      91.664  94.287  77.410  1.00  0.00     0.293 HD
ENDBRANCH  46  47
ENDBRANCH  40  41
ENDBRANCH  38  40
ENDBRANCH  37  38
ENDBRANCH   1  37
TORSDOF 10
ENDMDL
MODEL 8
REMARK VINA RESULT:    -5.989     31.902     34.949
REMARK INTER + INTRA:         -10.938
REMARK INTER:                 -10.368
REMARK INTRA:                  -0.570
REMARK UNBOUND:                -0.747
REMARK SMILES C=C(C)[C@]12C[C@@H](C)[C@@]34O[C@](Cc5ccccc5)(O[C@@H]1[C@@H]3C=C(COC(=O)Cc1ccc(O)cc1)C[C@]1(O)C(=O)C(C)=C[C@@H]41)O2
REMARK SMILES IDX 23 1 22 2 21 3 20 4 9 5 8 6 10 7 6 8 18 10 44 11 19 12 5 13
REMARK SMILES IDX 7 14 4 15 11 16 12 17 13 18 17 19 14 20 16 21 15 22 2 23
REMARK SMILES IDX 3 24 1 25 35 26 36 27 43 28 38 29 42 30 39 32 40 33 41 34
REMARK SMILES IDX 37 35 24 37 25 38 26 39 27 40 28 41 29 42 34 43 30 44 33 45
REMARK SMILES IDX 31 46 32 47
REMARK H PARENT 37 36 32 48
REMARK Flexibility Score: 90.00
ROOT
ATOM      1  C   UNL     1      60.225  87.070  76.753  1.00  0.00     0.264 C 
ENDROOT
BRANCH   1   2
ATOM      2  C   UNL     1      61.436  86.657  75.948  1.00  0.00    -0.033 C 
ATOM      3  C   UNL     1      61.294  85.746  74.964  1.00  0.00    -0.015 C 
BRANCH   3   4
ATOM      4  C   UNL     1      62.351  85.115  74.073  1.00  0.00     0.078 C 
ATOM      5  O   UNL     1      62.499  86.506  72.034  1.00  0.00    -0.319 OA
ATOM      6  C   UNL     1      63.257  86.060  73.201  1.00  0.00     0.095 CG0
ATOM      7  C   UNL     1      61.713  85.488  71.385  1.00  0.00     0.289 C 
ATOM      8  C   UNL     1      64.509  85.216  72.722  1.00  0.00     0.023 C 
ATOM      9  G   UNL     1      63.590  87.371  73.971  1.00  0.00     0.000 G0
ATOM     10  O   UNL     1      60.787  84.894  72.290  1.00  0.00    -0.320 OA
ATOM     11  O   UNL     1      62.513  84.416  70.894  1.00  0.00    -0.313 OA
ATOM     12  C   UNL     1      61.686  84.115  73.094  1.00  0.00     0.170 C 
ATOM     13  C   UNL     1      64.136  83.720  72.489  1.00  0.00     0.049 C 
ATOM     14  C   UNL     1      65.236  85.759  71.479  1.00  0.00     0.011 C 
ATOM     15  C   UNL     1      62.681  83.562  72.045  1.00  0.00     0.122 C 
BRANCH   7  16
ATOM     16  C   UNL     1      60.965  86.129  70.232  1.00  0.00     0.135 C 
BRANCH  16  17
ATOM     17  C   UNL     1      59.485  86.230  70.505  1.00  0.00    -0.040 A 
ATOM     18  C   UNL     1      58.645  85.159  70.203  1.00  0.00     0.004 A 
ATOM     19  C   UNL     1      58.957  87.397  71.058  1.00  0.00     0.004 A 
ATOM     20  C   UNL     1      57.275  85.254  70.455  1.00  0.00     0.000 A 
ATOM     21  C   UNL     1      57.588  87.491  71.310  1.00  0.00     0.000 A 
ATOM     22  C   UNL     1      56.748  86.420  71.009  1.00  0.00     0.000 A 
ENDBRANCH  16  17
ENDBRANCH   7  16
BRANCH  15  23
ATOM     23  C   UNL     1      62.353  82.161  71.643  1.00  0.00    -0.046 C 
ATOM     24  C   UNL     1      61.685  81.313  72.685  1.00  0.00     0.042 C 
ATOM     25  C   UNL     1      62.639  81.688  70.421  1.00  0.00     0.010 C 
ENDBRANCH  15  23
ENDBRANCH   3   4
BRANCH   2  26
ATOM     26  C   UNL     1      62.706  87.367  76.377  1.00  0.00     0.078 C 
BRANCH  26  27
ATOM     27  C   UNL     1      63.938  87.190  75.491  1.00  0.00     0.140 C 
ATOM     28  C   UNL     1      63.609  87.362  73.993  1.00  0.00     0.086 CG0
ATOM     29  C   UNL     1      64.978  88.265  75.721  1.00  0.00     0.190 C 
ATOM     30  C   UNL     1      64.711  88.255  73.494  1.00  0.00    -0.010 C 
ATOM     31  G   UNL     1      63.269  86.060  73.212  1.00  0.00     0.000 G0
ATOM     32  O   UNL     1      65.398  88.623  76.812  1.00  0.00    -0.291 OA
ATOM     33  C   UNL     1      65.479  88.801  74.441  1.00  0.00    -0.008 C 
ATOM     34  C   UNL     1      66.584  89.775  74.326  1.00  0.00     0.048 C 
BRANCH  27  35
ATOM     35  O   UNL     1      64.624  85.986  75.792  1.00  0.00    -0.381 OA
ATOM     36  H   UNL     1      65.411  86.205  76.318  1.00  0.00     0.212 HD
ENDBRANCH  27  35
ENDBRANCH  26  27
ENDBRANCH   2  26
ENDBRANCH   1   2
BRANCH   1  37
ATOM     37  O   UNL     1      59.762  88.321  76.290  1.00  0.00    -0.461 OA
BRANCH  37  38
ATOM     38  C   UNL     1      58.608  88.301  75.540  1.00  0.00     0.310 C 
ATOM     39  O   UNL     1      58.444  88.902  74.488  1.00  0.00    -0.252 OA
BRANCH  38  40
ATOM     40  C   UNL     1      57.582  87.424  76.217  1.00  0.00     0.158 C 
BRANCH  40  41
ATOM     41  C   UNL     1      57.021  88.039  77.473  1.00  0.00    -0.037 A 
ATOM     42  C   UNL     1      56.209  89.171  77.393  1.00  0.00     0.008 A 
ATOM     43  C   UNL     1      57.312  87.477  78.715  1.00  0.00     0.008 A 
ATOM     44  C   UNL     1      55.690  89.741  78.556  1.00  0.00     0.046 A 
ATOM     45  C   UNL     1      56.793  88.047  79.879  1.00  0.00     0.046 A 
ATOM     46  C   UNL     1      55.982  89.178  79.799  1.00  0.00     0.115 A 
BRANCH  46  47
ATOM     47  O   UNL     1      55.476  89.735  80.933  1.00  0.00    -0.508 OA
ATOM     48  H   UNL     1      56.174  89.760  81.611  1.00  0.00     0.293 HD
ENDBRANCH  46  47
ENDBRANCH  40  41
ENDBRANCH  38  40
ENDBRANCH  37  38
ENDBRANCH   1  37
TORSDOF 10
ENDMDL
MODEL 9
REMARK VINA RESULT:    -5.914      2.851      9.142
REMARK INTER + INTRA:         -10.810
REMARK INTER:                 -10.354
REMARK INTRA:                  -0.456
REMARK UNBOUND:                -0.747
REMARK SMILES C=C(C)[C@]12C[C@@H](C)[C@@]34O[C@](Cc5ccccc5)(O[C@@H]1[C@@H]3C=C(COC(=O)Cc1ccc(O)cc1)C[C@]1(O)C(=O)C(C)=C[C@@H]41)O2
REMARK SMILES IDX 23 1 22 2 21 3 20 4 9 5 8 6 10 7 6 8 18 10 44 11 19 12 5 13
REMARK SMILES IDX 7 14 4 15 11 16 12 17 13 18 17 19 14 20 16 21 15 22 2 23
REMARK SMILES IDX 3 24 1 25 35 26 36 27 43 28 38 29 42 30 39 32 40 33 41 34
REMARK SMILES IDX 37 35 24 37 25 38 26 39 27 40 28 41 29 42 34 43 30 44 33 45
REMARK SMILES IDX 31 46 32 47
REMARK H PARENT 37 36 32 48
REMARK Flexibility Score: 90.00
ROOT
ATOM      1  C   UNL     1      92.418  99.994  71.558  1.00  0.00     0.264 C 
ENDROOT
BRANCH   1   2
ATOM      2  C   UNL     1      93.917 100.179  71.590  1.00  0.00    -0.033 C 
ATOM      3  C   UNL     1      94.568 100.084  72.768  1.00  0.00    -0.015 C 
BRANCH   3   4
ATOM      4  C   UNL     1      96.041 100.300  73.078  1.00  0.00     0.078 C 
ATOM      5  O   UNL     1      97.140  98.090  72.934  1.00  0.00    -0.319 OA
ATOM      6  C   UNL     1      97.102  99.417  72.324  1.00  0.00     0.095 CG0
ATOM      7  C   UNL     1      97.104  98.073  74.374  1.00  0.00     0.289 C 
ATOM      8  C   UNL     1      98.514 100.114  72.496  1.00  0.00     0.023 C 
ATOM      9  G   UNL     1      96.660  99.156  70.854  1.00  0.00     0.000 G0
ATOM     10  O   UNL     1      95.944  98.735  74.870  1.00  0.00    -0.320 OA
ATOM     11  O   UNL     1      98.214  98.756  74.952  1.00  0.00    -0.313 OA
ATOM     12  C   UNL     1      96.295 100.099  74.592  1.00  0.00     0.170 C 
ATOM     13  C   UNL     1      98.632 100.835  73.873  1.00  0.00     0.049 C 
ATOM     14  C   UNL     1      99.733  99.196  72.295  1.00  0.00     0.011 C 
ATOM     15  C   UNL     1      97.801 100.138  74.951  1.00  0.00     0.122 C 
BRANCH   7  16
ATOM     16  C   UNL     1      97.107  96.628  74.832  1.00  0.00     0.135 C 
BRANCH  16  17
ATOM     17  C   UNL     1      95.739  96.173  75.276  1.00  0.00    -0.040 A 
ATOM     18  C   UNL     1      95.449  96.056  76.635  1.00  0.00     0.004 A 
ATOM     19  C   UNL     1      94.765  95.868  74.326  1.00  0.00     0.004 A 
ATOM     20  C   UNL     1      94.184  95.635  77.045  1.00  0.00     0.000 A 
ATOM     21  C   UNL     1      93.499  95.447  74.736  1.00  0.00     0.000 A 
ATOM     22  C   UNL     1      93.209  95.331  76.095  1.00  0.00     0.000 A 
ENDBRANCH  16  17
ENDBRANCH   7  16
BRANCH  15  23
ATOM     23  C   UNL     1      98.039 100.701  76.314  1.00  0.00    -0.046 C 
ATOM     24  C   UNL     1      96.998 101.651  76.829  1.00  0.00     0.042 C 
ATOM     25  C   UNL     1      99.122 100.377  77.036  1.00  0.00     0.010 C 
ENDBRANCH  15  23
ENDBRANCH   3   4
BRANCH   2  26
ATOM     26  C   UNL     1      94.513 100.453  70.222  1.00  0.00     0.078 C 
BRANCH  26  27
ATOM     27  C   UNL     1      96.035 100.391  70.099  1.00  0.00     0.140 C 
ATOM     28  C   UNL     1      96.631  99.176  70.840  1.00  0.00     0.086 CG0
ATOM     29  C   UNL     1      96.491 100.158  68.674  1.00  0.00     0.190 C 
ATOM     30  C   UNL     1      97.605  98.605  69.848  1.00  0.00    -0.010 C 
ATOM     31  G   UNL     1      97.092  99.427  72.305  1.00  0.00     0.000 G0
ATOM     32  O   UNL     1      96.100 100.776  67.695  1.00  0.00    -0.291 OA
ATOM     33  C   UNL     1      97.533  99.115  68.615  1.00  0.00    -0.008 C 
ATOM     34  C   UNL     1      98.265  98.744  67.387  1.00  0.00     0.048 C 
BRANCH  27  35
ATOM     35  O   UNL     1      96.634 101.627  70.449  1.00  0.00    -0.381 OA
ATOM     36  H   UNL     1      97.101 101.973  69.669  1.00  0.00     0.212 HD
ENDBRANCH  27  35
ENDBRANCH  26  27
ENDBRANCH   2  26
ENDBRANCH   1   2
BRANCH   1  37
ATOM     37  O   UNL     1      91.974 100.018  70.218  1.00  0.00    -0.461 OA
BRANCH  37  38
ATOM     38  C   UNL     1      90.871 100.798  69.958  1.00  0.00     0.310 C 
ATOM     39  O   UNL     1      90.036 101.134  70.787  1.00  0.00    -0.252 OA
BRANCH  38  40
ATOM     40  C   UNL     1      90.852 101.173  68.495  1.00  0.00     0.158 C 
BRANCH  40  41
ATOM     41  C   UNL     1      89.572 100.782  67.805  1.00  0.00    -0.037 A 
ATOM     42  C   UNL     1      89.250  99.435  67.641  1.00  0.00     0.008 A 
ATOM     43  C   UNL     1      88.707 101.767  67.328  1.00  0.00     0.008 A 
ATOM     44  C   UNL     1      88.064  99.073  67.001  1.00  0.00     0.046 A 
ATOM     45  C   UNL     1      87.521 101.406  66.688  1.00  0.00     0.046 A 
ATOM     46  C   UNL     1      87.200 100.059  66.524  1.00  0.00     0.115 A 
BRANCH  46  47
ATOM     47  O   UNL     1      86.044  99.706  65.899  1.00  0.00    -0.508 OA
ATOM     48  H   UNL     1      86.150  98.817  65.518  1.00  0.00     0.293 HD
ENDBRANCH  46  47
ENDBRANCH  40  41
ENDBRANCH  38  40
ENDBRANCH  37  38
ENDBRANCH   1  37
TORSDOF 10
ENDMDL
MODEL 10
REMARK VINA RESULT:    -5.695     30.514     34.034
REMARK INTER + INTRA:         -10.438
REMARK INTER:                  -9.304
REMARK INTRA:                  -1.133
REMARK UNBOUND:                -0.747
REMARK SMILES C=C(C)[C@]12C[C@@H](C)[C@@]34O[C@](Cc5ccccc5)(O[C@@H]1[C@@H]3C=C(COC(=O)Cc1ccc(O)cc1)C[C@]1(O)C(=O)C(C)=C[C@@H]41)O2
REMARK SMILES IDX 23 1 22 2 21 3 20 4 9 5 8 6 10 7 6 8 18 10 44 11 19 12 5 13
REMARK SMILES IDX 7 14 4 15 11 16 12 17 13 18 17 19 14 20 16 21 15 22 2 23
REMARK SMILES IDX 3 24 1 25 35 26 36 27 43 28 38 29 42 30 39 32 40 33 41 34
REMARK SMILES IDX 37 35 24 37 25 38 26 39 27 40 28 41 29 42 34 43 30 44 33 45
REMARK SMILES IDX 31 46 32 47
REMARK H PARENT 37 36 32 48
REMARK Flexibility Score: 90.00
ROOT
ATOM      1  C   UNL     1      63.903  88.906  69.948  1.00  0.00     0.264 C 
ENDROOT
BRANCH   1   2
ATOM      2  C   UNL     1      63.533  87.651  70.705  1.00  0.00    -0.033 C 
ATOM      3  C   UNL     1      62.685  87.738  71.751  1.00  0.00    -0.015 C 
BRANCH   3   4
ATOM      4  C   UNL     1      62.221  86.653  72.709  1.00  0.00     0.078 C 
ATOM      5  O   UNL     1      60.134  85.711  71.775  1.00  0.00    -0.319 OA
ATOM      6  C   UNL     1      61.517  85.379  72.113  1.00  0.00     0.095 CG0
ATOM      7  C   UNL     1      59.437  86.511  72.749  1.00  0.00     0.289 C 
ATOM      8  C   UNL     1      61.527  84.257  73.232  1.00  0.00     0.023 C 
ATOM      9  G   UNL     1      62.162  84.974  70.755  1.00  0.00     0.000 G0
ATOM     10  O   UNL     1      60.120  87.737  72.995  1.00  0.00    -0.320 OA
ATOM     11  O   UNL     1      59.342  85.862  74.015  1.00  0.00    -0.313 OA
ATOM     12  C   UNL     1      61.243  87.253  73.749  1.00  0.00     0.170 C 
ATOM     13  C   UNL     1      61.407  84.873  74.660  1.00  0.00     0.049 C 
ATOM     14  C   UNL     1      60.475  83.147  73.066  1.00  0.00     0.011 C 
ATOM     15  C   UNL     1      60.599  86.171  74.651  1.00  0.00     0.122 C 
BRANCH   7  16
ATOM     16  C   UNL     1      58.045  86.796  72.222  1.00  0.00     0.135 C 
BRANCH  16  17
ATOM     17  C   UNL     1      57.110  87.256  73.312  1.00  0.00    -0.040 A 
ATOM     18  C   UNL     1      57.007  88.613  73.615  1.00  0.00     0.004 A 
ATOM     19  C   UNL     1      56.348  86.323  74.015  1.00  0.00     0.004 A 
ATOM     20  C   UNL     1      56.141  89.039  74.623  1.00  0.00     0.000 A 
ATOM     21  C   UNL     1      55.482  86.749  75.023  1.00  0.00     0.000 A 
ATOM     22  C   UNL     1      55.379  88.106  75.327  1.00  0.00     0.000 A 
ENDBRANCH  16  17
ENDBRANCH   7  16
BRANCH  15  23
ATOM     23  C   UNL     1      60.318  86.682  76.026  1.00  0.00    -0.046 C 
ATOM     24  C   UNL     1      61.348  87.601  76.615  1.00  0.00     0.042 C 
ATOM     25  C   UNL     1      59.209  86.339  76.697  1.00  0.00     0.010 C 
ENDBRANCH  15  23
ENDBRANCH   3   4
BRANCH   2  26
ATOM     26  C   UNL     1      64.195  86.404  70.150  1.00  0.00     0.078 C 
BRANCH  26  27
ATOM     27  C   UNL     1      63.714  85.059  70.690  1.00  0.00     0.140 C 
ATOM     28  C   UNL     1      62.175  84.975  70.758  1.00  0.00     0.086 CG0
ATOM     29  C   UNL     1      64.062  83.907  69.771  1.00  0.00     0.190 C 
ATOM     30  C   UNL     1      61.871  83.626  70.166  1.00  0.00    -0.010 C 
ATOM     31  G   UNL     1      61.525  85.377  72.114  1.00  0.00     0.000 G0
ATOM     32  O   UNL     1      65.163  83.698  69.283  1.00  0.00    -0.291 OA
ATOM     33  C   UNL     1      62.904  83.013  69.579  1.00  0.00    -0.008 C 
ATOM     34  C   UNL     1      62.956  81.737  68.836  1.00  0.00     0.048 C 
BRANCH  27  35
ATOM     35  O   UNL     1      64.359  84.727  71.908  1.00  0.00    -0.381 OA
ATOM     36  H   UNL     1      63.679  84.604  72.592  1.00  0.00     0.212 HD
ENDBRANCH  27  35
ENDBRANCH  26  27
ENDBRANCH   2  26
ENDBRANCH   1   2
BRANCH   1  37
ATOM     37  O   UNL     1      65.203  89.309  70.321  1.00  0.00    -0.461 OA
BRANCH  37  38
ATOM     38  C   UNL     1      66.128  89.395  69.306  1.00  0.00     0.310 C 
ATOM     39  O   UNL     1      65.858  89.524  68.120  1.00  0.00    -0.252 OA
BRANCH  38  40
ATOM     40  C   UNL     1      67.520  89.307  69.883  1.00  0.00     0.158 C 
BRANCH  40  41
ATOM     41  C   UNL     1      68.013  87.889  70.014  1.00  0.00    -0.037 A 
ATOM     42  C   UNL     1      68.628  87.261  68.931  1.00  0.00     0.008 A 
ATOM     43  C   UNL     1      67.853  87.203  71.218  1.00  0.00     0.008 A 
ATOM     44  C   UNL     1      69.083  85.947  69.053  1.00  0.00     0.046 A 
ATOM     45  C   UNL     1      68.308  85.890  71.340  1.00  0.00     0.046 A 
ATOM     46  C   UNL     1      68.923  85.262  70.258  1.00  0.00     0.115 A 
BRANCH  46  47
ATOM     47  O   UNL     1      69.367  83.981  70.376  1.00  0.00    -0.508 OA
ATOM     48  H   UNL     1      69.918  83.766  69.603  1.00  0.00     0.293 HD
ENDBRANCH  46  47
ENDBRANCH  40  41
ENDBRANCH  38  40
ENDBRANCH  37  38
ENDBRANCH   1  37
TORSDOF 10
ENDMDL
