MODEL 1
REMARK VINA RESULT:    -6.229      0.000      0.000
REMARK INTER + INTRA:         -10.401
REMARK INTER:                  -9.688
REMARK INTRA:                  -0.713
REMARK UNBOUND:                -0.713
REMARK SMILES COc1cc(CNC(=O)CCCC/C=C/C(C)C)ccc1O
REMARK SMILES IDX 10 1 8 2 7 3 9 5 6 6 5 7 3 8 21 9 4 10 20 11 19 12 2 13 1 14
REMARK SMILES IDX 22 15 11 17 12 18 13 19 14 20 15 21 16 22 17 23 18 24
REMARK H PARENT 7 4 22 16
REMARK Flexibility Score: inf
ROOT
ATOM      1  C   UNL     1      96.460  79.943  82.209  1.00  0.00     0.100 C 
ENDROOT
BRANCH   1   2
ATOM      2  C   UNL     1      97.238  79.898  80.956  1.00  0.00     0.220 C 
ATOM      3  N   UNL     1      97.608  81.051  80.331  1.00  0.00    -0.352 N 
ATOM      4  H   UNL     1      97.289  81.900  80.777  1.00  0.00     0.163 HD
ATOM      5  O   UNL     1      97.565  78.775  80.502  1.00  0.00    -0.275 OA
BRANCH   3   6
ATOM      6  C   UNL     1      98.386  81.116  79.135  1.00  0.00     0.151 C 
BRANCH   6   7
ATOM      7  C   UNL     1      97.643  81.791  78.036  1.00  0.00    -0.025 A 
ATOM      8  C   UNL     1      97.549  82.595  75.711  1.00  0.00     0.160 A 
ATOM      9  C   UNL     1      96.234  83.058  75.923  1.00  0.00     0.157 A 
ATOM     10  C   UNL     1      98.241  81.968  76.768  1.00  0.00     0.056 A 
ATOM     11  C   UNL     1      95.632  82.906  77.188  1.00  0.00     0.050 A 
ATOM     12  C   UNL     1      96.326  82.269  78.234  1.00  0.00     0.009 A 
BRANCH   8  13
ATOM     13  O   UNL     1      98.163  82.799  74.501  1.00  0.00    -0.493 OA
ATOM     14  C   UNL     1      99.498  82.267  74.423  1.00  0.00     0.278 C 
ENDBRANCH   8  13
BRANCH   9  15
ATOM     15  O   UNL     1      95.535  83.653  74.923  1.00  0.00    -0.504 OA
ATOM     16  H   UNL     1      94.628  83.793  75.204  1.00  0.00     0.293 HD
ENDBRANCH   9  15
ENDBRANCH   6   7
ENDBRANCH   3   6
ENDBRANCH   1   2
BRANCH   1  17
ATOM     17  C   UNL     1      96.434  81.371  82.817  1.00  0.00     0.010 C 
BRANCH  17  18
ATOM     18  C   UNL     1      96.013  81.385  84.313  1.00  0.00     0.005 C 
BRANCH  18  19
ATOM     19  C   UNL     1      94.708  82.190  84.553  1.00  0.00     0.027 C 
BRANCH  19  20
ATOM     20  C   UNL     1      93.530  81.336  84.557  1.00  0.00    -0.031 C 
ATOM     21  C   UNL     1      92.468  81.516  85.363  1.00  0.00    -0.028 C 
BRANCH  21  22
ATOM     22  C   UNL     1      91.286  80.655  85.336  1.00  0.00     0.005 C 
ATOM     23  C   UNL     1      90.222  81.147  84.316  1.00  0.00     0.012 C 
ATOM     24  C   UNL     1      91.696  79.189  85.043  1.00  0.00     0.012 C 
ENDBRANCH  21  22
ENDBRANCH  19  20
ENDBRANCH  18  19
ENDBRANCH  17  18
ENDBRANCH   1  17
TORSDOF 10
ENDMDL
MODEL 2
REMARK VINA RESULT:    -6.196     24.057     26.205
REMARK INTER + INTRA:         -10.351
REMARK INTER:                  -9.468
REMARK INTRA:                  -0.883
REMARK UNBOUND:                -0.713
REMARK SMILES COc1cc(CNC(=O)CCCC/C=C/C(C)C)ccc1O
REMARK SMILES IDX 10 1 8 2 7 3 9 5 6 6 5 7 3 8 21 9 4 10 20 11 19 12 2 13 1 14
REMARK SMILES IDX 22 15 11 17 12 18 13 19 14 20 15 21 16 22 17 23 18 24
REMARK H PARENT 7 4 22 16
REMARK Flexibility Score: inf
ROOT
ATOM      1  C   UNL     1      77.317  85.955  67.335  1.00  0.00     0.100 C 
ENDROOT
BRANCH   1   2
ATOM      2  C   UNL     1      77.267  84.842  66.367  1.00  0.00     0.220 C 
ATOM      3  N   UNL     1      76.429  84.896  65.294  1.00  0.00    -0.352 N 
ATOM      4  H   UNL     1      75.853  85.725  65.244  1.00  0.00     0.163 HD
ATOM      5  O   UNL     1      78.032  83.864  66.549  1.00  0.00    -0.275 OA
BRANCH   3   6
ATOM      6  C   UNL     1      76.328  83.889  64.286  1.00  0.00     0.151 C 
BRANCH   6   7
ATOM      7  C   UNL     1      75.135  83.024  64.495  1.00  0.00    -0.025 A 
ATOM      8  C   UNL     1      72.894  82.283  63.794  1.00  0.00     0.160 A 
ATOM      9  C   UNL     1      72.861  81.368  64.866  1.00  0.00     0.157 A 
ATOM     10  C   UNL     1      74.029  83.103  63.619  1.00  0.00     0.056 A 
ATOM     11  C   UNL     1      73.948  81.291  65.758  1.00  0.00     0.050 A 
ATOM     12  C   UNL     1      75.082  82.106  65.569  1.00  0.00     0.009 A 
BRANCH   8  13
ATOM     13  O   UNL     1      71.811  82.408  62.961  1.00  0.00    -0.493 OA
ATOM     14  C   UNL     1      70.979  83.547  63.248  1.00  0.00     0.278 C 
ENDBRANCH   8  13
BRANCH   9  15
ATOM     15  O   UNL     1      71.789  80.555  65.054  1.00  0.00    -0.504 OA
ATOM     16  H   UNL     1      71.537  80.158  64.217  1.00  0.00     0.293 HD
ENDBRANCH   9  15
ENDBRANCH   6   7
ENDBRANCH   3   6
ENDBRANCH   1   2
BRANCH   1  17
ATOM     17  C   UNL     1      77.032  87.320  66.652  1.00  0.00     0.010 C 
BRANCH  17  18
ATOM     18  C   UNL     1      77.488  88.533  67.512  1.00  0.00     0.005 C 
BRANCH  18  19
ATOM     19  C   UNL     1      76.291  89.388  68.009  1.00  0.00     0.027 C 
BRANCH  19  20
ATOM     20  C   UNL     1      75.224  88.567  68.562  1.00  0.00    -0.031 C 
ATOM     21  C   UNL     1      73.931  88.935  68.602  1.00  0.00    -0.028 C 
BRANCH  21  22
ATOM     22  C   UNL     1      72.871  88.085  69.145  1.00  0.00     0.005 C 
ATOM     23  C   UNL     1      71.453  88.619  68.801  1.00  0.00     0.012 C 
ATOM     24  C   UNL     1      73.048  86.626  68.650  1.00  0.00     0.012 C 
ENDBRANCH  21  22
ENDBRANCH  19  20
ENDBRANCH  18  19
ENDBRANCH  17  18
ENDBRANCH   1  17
TORSDOF 10
ENDMDL
MODEL 3
REMARK VINA RESULT:    -6.183     20.504     23.631
REMARK INTER + INTRA:         -10.330
REMARK INTER:                  -9.433
REMARK INTRA:                  -0.897
REMARK UNBOUND:                -0.713
REMARK SMILES COc1cc(CNC(=O)CCCC/C=C/C(C)C)ccc1O
REMARK SMILES IDX 10 1 8 2 7 3 9 5 6 6 5 7 3 8 21 9 4 10 20 11 19 12 2 13 1 14
REMARK SMILES IDX 22 15 11 17 12 18 13 19 14 20 15 21 16 22 17 23 18 24
REMARK H PARENT 7 4 22 16
REMARK Flexibility Score: inf
ROOT
ATOM      1  C   UNL     1      89.552  97.854  69.195  1.00  0.00     0.100 C 
ENDROOT
BRANCH   1   2
ATOM      2  C   UNL     1      89.202  98.376  67.860  1.00  0.00     0.220 C 
ATOM      3  N   UNL     1      88.056  99.090  67.675  1.00  0.00    -0.352 N 
ATOM      4  H   UNL     1      87.484  99.199  68.501  1.00  0.00     0.163 HD
ATOM      5  O   UNL     1      89.999  98.164  66.914  1.00  0.00    -0.275 OA
BRANCH   3   6
ATOM      6  C   UNL     1      87.645  99.664  66.434  1.00  0.00     0.151 C 
BRANCH   6   7
ATOM      7  C   UNL     1      87.905 101.129  66.396  1.00  0.00    -0.025 A 
ATOM      8  C   UNL     1      89.492 103.010  66.441  1.00  0.00     0.160 A 
ATOM      9  C   UNL     1      88.421 103.918  66.306  1.00  0.00     0.157 A 
ATOM     10  C   UNL     1      89.224 101.626  66.487  1.00  0.00     0.056 A 
ATOM     11  C   UNL     1      87.099 103.437  66.234  1.00  0.00     0.050 A 
ATOM     12  C   UNL     1      86.842 102.053  66.269  1.00  0.00     0.009 A 
BRANCH   8  13
ATOM     13  O   UNL     1      90.775 103.476  66.577  1.00  0.00    -0.493 OA
ATOM     14  C   UNL     1      91.588 103.310  65.401  1.00  0.00     0.278 C 
ENDBRANCH   8  13
BRANCH   9  15
ATOM     15  O   UNL     1      88.645 105.256  66.245  1.00  0.00    -0.504 OA
ATOM     16  H   UNL     1      88.093 105.703  66.890  1.00  0.00     0.293 HD
ENDBRANCH   9  15
ENDBRANCH   6   7
ENDBRANCH   3   6
ENDBRANCH   1   2
BRANCH   1  17
ATOM     17  C   UNL     1      89.775  99.000  70.218  1.00  0.00     0.010 C 
BRANCH  17  18
ATOM     18  C   UNL     1      91.158  99.693  70.058  1.00  0.00     0.005 C 
BRANCH  18  19
ATOM     19  C   UNL     1      91.413 100.762  71.154  1.00  0.00     0.027 C 
BRANCH  19  20
ATOM     20  C   UNL     1      92.570 100.439  71.975  1.00  0.00    -0.031 C 
ATOM     21  C   UNL     1      92.905  99.192  72.352  1.00  0.00    -0.028 C 
BRANCH  21  22
ATOM     22  C   UNL     1      94.085  98.888  73.161  1.00  0.00     0.005 C 
ATOM     23  C   UNL     1      94.618 100.136  73.918  1.00  0.00     0.012 C 
ATOM     24  C   UNL     1      93.775  97.733  74.148  1.00  0.00     0.012 C 
ENDBRANCH  21  22
ENDBRANCH  19  20
ENDBRANCH  18  19
ENDBRANCH  17  18
ENDBRANCH   1  17
TORSDOF 10
ENDMDL
MODEL 4
REMARK VINA RESULT:    -6.135     19.579     22.648
REMARK INTER + INTRA:         -10.256
REMARK INTER:                  -9.474
REMARK INTRA:                  -0.781
REMARK UNBOUND:                -0.713
REMARK SMILES COc1cc(CNC(=O)CCCC/C=C/C(C)C)ccc1O
REMARK SMILES IDX 10 1 8 2 7 3 9 5 6 6 5 7 3 8 21 9 4 10 20 11 19 12 2 13 1 14
REMARK SMILES IDX 22 15 11 17 12 18 13 19 14 20 15 21 16 22 17 23 18 24
REMARK H PARENT 7 4 22 16
REMARK Flexibility Score: inf
ROOT
ATOM      1  C   UNL     1      90.546  98.893  70.781  1.00  0.00     0.100 C 
ENDROOT
BRANCH   1   2
ATOM      2  C   UNL     1      90.000  98.714  69.422  1.00  0.00     0.220 C 
ATOM      3  N   UNL     1      90.495  99.435  68.377  1.00  0.00    -0.352 N 
ATOM      4  H   UNL     1      91.223 100.093  68.620  1.00  0.00     0.163 HD
ATOM      5  O   UNL     1      89.090  97.866  69.256  1.00  0.00    -0.275 OA
BRANCH   3   6
ATOM      6  C   UNL     1      90.059  99.313  67.023  1.00  0.00     0.151 C 
BRANCH   6   7
ATOM      7  C   UNL     1      88.922 100.228  66.730  1.00  0.00    -0.025 A 
ATOM      8  C   UNL     1      88.074 102.499  66.300  1.00  0.00     0.160 A 
ATOM      9  C   UNL     1      86.769 101.984  66.153  1.00  0.00     0.157 A 
ATOM     10  C   UNL     1      89.136 101.618  66.590  1.00  0.00     0.056 A 
ATOM     11  C   UNL     1      86.537 100.603  66.310  1.00  0.00     0.050 A 
ATOM     12  C   UNL     1      87.606  99.730  66.587  1.00  0.00     0.009 A 
BRANCH   8  13
ATOM     13  O   UNL     1      88.294 103.850  66.214  1.00  0.00    -0.493 OA
ATOM     14  C   UNL     1      88.169 104.547  67.467  1.00  0.00     0.278 C 
ENDBRANCH   8  13
BRANCH   9  15
ATOM     15  O   UNL     1      85.726 102.804  65.861  1.00  0.00    -0.504 OA
ATOM     16  H   UNL     1      84.925 102.459  66.263  1.00  0.00     0.293 HD
ENDBRANCH   9  15
ENDBRANCH   6   7
ENDBRANCH   3   6
ENDBRANCH   1   2
BRANCH   1  17
ATOM     17  C   UNL     1      92.043  99.302  70.748  1.00  0.00     0.010 C 
BRANCH  17  18
ATOM     18  C   UNL     1      92.483 100.090  72.014  1.00  0.00     0.005 C 
BRANCH  18  19
ATOM     19  C   UNL     1      94.022 100.070  72.217  1.00  0.00     0.027 C 
BRANCH  19  20
ATOM     20  C   UNL     1      94.481  98.815  72.793  1.00  0.00    -0.031 C 
ATOM     21  C   UNL     1      94.026  98.303  73.951  1.00  0.00    -0.028 C 
BRANCH  21  22
ATOM     22  C   UNL     1      94.488  97.029  74.501  1.00  0.00     0.005 C 
ATOM     23  C   UNL     1      93.325  96.187  75.095  1.00  0.00     0.012 C 
ATOM     24  C   UNL     1      95.257  96.225  73.421  1.00  0.00     0.012 C 
ENDBRANCH  21  22
ENDBRANCH  19  20
ENDBRANCH  18  19
ENDBRANCH  17  18
ENDBRANCH   1  17
TORSDOF 10
ENDMDL
MODEL 5
REMARK VINA RESULT:    -6.110     23.960     26.202
REMARK INTER + INTRA:         -10.217
REMARK INTER:                  -9.355
REMARK INTRA:                  -0.862
REMARK UNBOUND:                -0.713
REMARK SMILES COc1cc(CNC(=O)CCCC/C=C/C(C)C)ccc1O
REMARK SMILES IDX 10 1 8 2 7 3 9 5 6 6 5 7 3 8 21 9 4 10 20 11 19 12 2 13 1 14
REMARK SMILES IDX 22 15 11 17 12 18 13 19 14 20 15 21 16 22 17 23 18 24
REMARK H PARENT 7 4 22 16
REMARK Flexibility Score: inf
ROOT
ATOM      1  C   UNL     1      77.319  85.912  67.454  1.00  0.00     0.100 C 
ENDROOT
BRANCH   1   2
ATOM      2  C   UNL     1      77.152  84.753  66.556  1.00  0.00     0.220 C 
ATOM      3  N   UNL     1      76.185  84.756  65.596  1.00  0.00    -0.352 N 
ATOM      4  H   UNL     1      75.604  85.583  65.579  1.00  0.00     0.163 HD
ATOM      5  O   UNL     1      77.938  83.784  66.687  1.00  0.00    -0.275 OA
BRANCH   3   6
ATOM      6  C   UNL     1      75.962  83.702  64.659  1.00  0.00     0.151 C 
BRANCH   6   7
ATOM      7  C   UNL     1      74.636  83.059  64.865  1.00  0.00    -0.025 A 
ATOM      8  C   UNL     1      72.280  83.215  65.563  1.00  0.00     0.160 A 
ATOM      9  C   UNL     1      72.095  81.853  65.244  1.00  0.00     0.157 A 
ATOM     10  C   UNL     1      73.548  83.803  65.372  1.00  0.00     0.056 A 
ATOM     11  C   UNL     1      73.176  81.093  64.756  1.00  0.00     0.050 A 
ATOM     12  C   UNL     1      74.435  81.693  64.558  1.00  0.00     0.009 A 
BRANCH   8  13
ATOM     13  O   UNL     1      71.248  83.942  66.100  1.00  0.00    -0.493 OA
ATOM     14  C   UNL     1      71.651  85.204  66.664  1.00  0.00     0.278 C 
ENDBRANCH   8  13
BRANCH   9  15
ATOM     15  O   UNL     1      70.884  81.259  65.404  1.00  0.00    -0.504 OA
ATOM     16  H   UNL     1      70.221  81.928  65.593  1.00  0.00     0.293 HD
ENDBRANCH   9  15
ENDBRANCH   6   7
ENDBRANCH   3   6
ENDBRANCH   1   2
BRANCH   1  17
ATOM     17  C   UNL     1      76.258  87.011  67.175  1.00  0.00     0.010 C 
BRANCH  17  18
ATOM     18  C   UNL     1      76.809  88.175  66.303  1.00  0.00     0.005 C 
BRANCH  18  19
ATOM     19  C   UNL     1      76.821  89.528  67.065  1.00  0.00     0.027 C 
BRANCH  19  20
ATOM     20  C   UNL     1      75.909  89.526  68.199  1.00  0.00    -0.031 C 
ATOM     21  C   UNL     1      75.427  90.638  68.783  1.00  0.00    -0.028 C 
BRANCH  21  22
ATOM     22  C   UNL     1      74.495  90.612  69.910  1.00  0.00     0.005 C 
ATOM     23  C   UNL     1      73.879  92.010  70.197  1.00  0.00     0.012 C 
ATOM     24  C   UNL     1      73.385  89.558  69.664  1.00  0.00     0.012 C 
ENDBRANCH  21  22
ENDBRANCH  19  20
ENDBRANCH  18  19
ENDBRANCH  17  18
ENDBRANCH   1  17
TORSDOF 10
ENDMDL
MODEL 6
REMARK VINA RESULT:    -5.947      2.553      9.210
REMARK INTER + INTRA:          -9.964
REMARK INTER:                  -9.110
REMARK INTRA:                  -0.853
REMARK UNBOUND:                -0.713
REMARK SMILES COc1cc(CNC(=O)CCCC/C=C/C(C)C)ccc1O
REMARK SMILES IDX 10 1 8 2 7 3 9 5 6 6 5 7 3 8 21 9 4 10 20 11 19 12 2 13 1 14
REMARK SMILES IDX 22 15 11 17 12 18 13 19 14 20 15 21 16 22 17 23 18 24
REMARK H PARENT 7 4 22 16
REMARK Flexibility Score: inf
ROOT
ATOM      1  C   UNL     1      97.194  81.310  77.550  1.00  0.00     0.100 C 
ENDROOT
BRANCH   1   2
ATOM      2  C   UNL     1      97.623  81.650  78.921  1.00  0.00     0.220 C 
ATOM      3  N   UNL     1      96.706  81.996  79.867  1.00  0.00    -0.352 N 
ATOM      4  H   UNL     1      95.748  82.019  79.544  1.00  0.00     0.163 HD
ATOM      5  O   UNL     1      98.847  81.588  79.191  1.00  0.00    -0.275 OA
BRANCH   3   6
ATOM      6  C   UNL     1      97.014  82.310  81.225  1.00  0.00     0.151 C 
BRANCH   6   7
ATOM      7  C   UNL     1      96.452  81.298  82.161  1.00  0.00    -0.025 A 
ATOM      8  C   UNL     1      95.142  80.756  84.174  1.00  0.00     0.160 A 
ATOM      9  C   UNL     1      95.358  79.381  83.945  1.00  0.00     0.157 A 
ATOM     10  C   UNL     1      95.692  81.700  83.283  1.00  0.00     0.056 A 
ATOM     11  C   UNL     1      96.129  78.965  82.842  1.00  0.00     0.050 A 
ATOM     12  C   UNL     1      96.665  79.915  81.950  1.00  0.00     0.009 A 
BRANCH   8  13
ATOM     13  O   UNL     1      94.447  81.167  85.283  1.00  0.00    -0.493 OA
ATOM     14  C   UNL     1      94.473  82.591  85.497  1.00  0.00     0.278 C 
ENDBRANCH   8  13
BRANCH   9  15
ATOM     15  O   UNL     1      94.831  78.445  84.776  1.00  0.00    -0.504 OA
ATOM     16  H   UNL     1      95.521  78.095  85.344  1.00  0.00     0.293 HD
ENDBRANCH   9  15
ENDBRANCH   6   7
ENDBRANCH   3   6
ENDBRANCH   1   2
BRANCH   1  17
ATOM     17  C   UNL     1      95.835  81.971  77.195  1.00  0.00     0.010 C 
BRANCH  17  18
ATOM     18  C   UNL     1      95.992  83.405  76.615  1.00  0.00     0.005 C 
BRANCH  18  19
ATOM     19  C   UNL     1      95.914  83.426  75.064  1.00  0.00     0.027 C 
BRANCH  19  20
ATOM     20  C   UNL     1      97.219  83.622  74.453  1.00  0.00    -0.031 C 
ATOM     21  C   UNL     1      97.989  82.626  73.978  1.00  0.00    -0.028 C 
BRANCH  21  22
ATOM     22  C   UNL     1      99.291  82.848  73.348  1.00  0.00     0.005 C 
ATOM     23  C   UNL     1      99.406  84.263  72.717  1.00  0.00     0.012 C 
ATOM     24  C   UNL     1     100.429  82.605  74.373  1.00  0.00     0.012 C 
ENDBRANCH  21  22
ENDBRANCH  19  20
ENDBRANCH  18  19
ENDBRANCH  17  18
ENDBRANCH   1  17
TORSDOF 10
ENDMDL
MODEL 7
REMARK VINA RESULT:    -5.927     25.382     28.040
REMARK INTER + INTRA:          -9.932
REMARK INTER:                  -8.585
REMARK INTRA:                  -1.347
REMARK UNBOUND:                -0.713
REMARK SMILES COc1cc(CNC(=O)CCCC/C=C/C(C)C)ccc1O
REMARK SMILES IDX 10 1 8 2 7 3 9 5 6 6 5 7 3 8 21 9 4 10 20 11 19 12 2 13 1 14
REMARK SMILES IDX 22 15 11 17 12 18 13 19 14 20 15 21 16 22 17 23 18 24
REMARK H PARENT 7 4 22 16
REMARK Flexibility Score: inf
ROOT
ATOM      1  C   UNL     1      73.167  81.318  64.855  1.00  0.00     0.100 C 
ENDROOT
BRANCH   1   2
ATOM      2  C   UNL     1      71.873  81.998  65.056  1.00  0.00     0.220 C 
ATOM      3  N   UNL     1      71.814  83.356  65.153  1.00  0.00    -0.352 N 
ATOM      4  H   UNL     1      72.707  83.827  65.102  1.00  0.00     0.163 HD
ATOM      5  O   UNL     1      70.836  81.294  65.109  1.00  0.00    -0.275 OA
BRANCH   3   6
ATOM      6  C   UNL     1      70.612  84.110  65.316  1.00  0.00     0.151 C 
BRANCH   6   7
ATOM      7  C   UNL     1      70.325  84.377  66.752  1.00  0.00    -0.025 A 
ATOM      8  C   UNL     1      68.902  84.049  68.735  1.00  0.00     0.160 A 
ATOM      9  C   UNL     1      69.772  84.860  69.493  1.00  0.00     0.157 A 
ATOM     10  C   UNL     1      69.185  83.818  67.372  1.00  0.00     0.056 A 
ATOM     11  C   UNL     1      70.901  85.440  68.884  1.00  0.00     0.050 A 
ATOM     12  C   UNL     1      71.182  85.193  67.526  1.00  0.00     0.009 A 
BRANCH   8  13
ATOM     13  O   UNL     1      67.766  83.536  69.307  1.00  0.00    -0.493 OA
ATOM     14  C   UNL     1      66.572  84.286  69.017  1.00  0.00     0.278 C 
ENDBRANCH   8  13
BRANCH   9  15
ATOM     15  O   UNL     1      69.535  85.092  70.810  1.00  0.00    -0.504 OA
ATOM     16  H   UNL     1      70.369  85.219  71.268  1.00  0.00     0.293 HD
ENDBRANCH   9  15
ENDBRANCH   6   7
ENDBRANCH   3   6
ENDBRANCH   1   2
BRANCH   1  17
ATOM     17  C   UNL     1      74.184  81.680  65.971  1.00  0.00     0.010 C 
BRANCH  17  18
ATOM     18  C   UNL     1      75.517  82.251  65.412  1.00  0.00     0.005 C 
BRANCH  18  19
ATOM     19  C   UNL     1      75.529  83.803  65.382  1.00  0.00     0.027 C 
BRANCH  19  20
ATOM     20  C   UNL     1      75.923  84.373  66.661  1.00  0.00    -0.031 C 
ATOM     21  C   UNL     1      75.072  84.959  67.523  1.00  0.00    -0.028 C 
BRANCH  21  22
ATOM     22  C   UNL     1      75.489  85.508  68.813  1.00  0.00     0.005 C 
ATOM     23  C   UNL     1      74.857  84.743  70.010  1.00  0.00     0.012 C 
ATOM     24  C   UNL     1      77.036  85.518  68.917  1.00  0.00     0.012 C 
ENDBRANCH  21  22
ENDBRANCH  19  20
ENDBRANCH  18  19
ENDBRANCH  17  18
ENDBRANCH   1  17
TORSDOF 10
ENDMDL
MODEL 8
REMARK VINA RESULT:    -5.898      3.987      9.527
REMARK INTER + INTRA:          -9.886
REMARK INTER:                  -9.331
REMARK INTRA:                  -0.555
REMARK UNBOUND:                -0.713
REMARK SMILES COc1cc(CNC(=O)CCCC/C=C/C(C)C)ccc1O
REMARK SMILES IDX 10 1 8 2 7 3 9 5 6 6 5 7 3 8 21 9 4 10 20 11 19 12 2 13 1 14
REMARK SMILES IDX 22 15 11 17 12 18 13 19 14 20 15 21 16 22 17 23 18 24
REMARK H PARENT 7 4 22 16
REMARK Flexibility Score: inf
ROOT
ATOM      1  C   UNL     1      95.891  82.288  83.615  1.00  0.00     0.100 C 
ENDROOT
BRANCH   1   2
ATOM      2  C   UNL     1      94.784  82.415  84.582  1.00  0.00     0.220 C 
ATOM      3  N   UNL     1      93.752  81.525  84.572  1.00  0.00    -0.352 N 
ATOM      4  H   UNL     1      93.806  80.817  83.853  1.00  0.00     0.163 HD
ATOM      5  O   UNL     1      94.835  83.346  85.422  1.00  0.00    -0.275 OA
BRANCH   3   6
ATOM      6  C   UNL     1      92.653  81.541  85.484  1.00  0.00     0.151 C 
BRANCH   6   7
ATOM      7  C   UNL     1      91.556  80.642  85.033  1.00  0.00    -0.025 A 
ATOM      8  C   UNL     1      89.214  80.319  84.344  1.00  0.00     0.160 A 
ATOM      9  C   UNL     1      89.458  78.943  84.155  1.00  0.00     0.157 A 
ATOM     10  C   UNL     1      90.263  81.154  84.783  1.00  0.00     0.056 A 
ATOM     11  C   UNL     1      90.737  78.414  84.419  1.00  0.00     0.050 A 
ATOM     12  C   UNL     1      91.782  79.258  84.845  1.00  0.00     0.009 A 
BRANCH   8  13
ATOM     13  O   UNL     1      87.954  80.827  84.152  1.00  0.00    -0.493 OA
ATOM     14  C   UNL     1      87.167  80.915  85.354  1.00  0.00     0.278 C 
ENDBRANCH   8  13
BRANCH   9  15
ATOM     15  O   UNL     1      88.474  78.115  83.720  1.00  0.00    -0.504 OA
ATOM     16  H   UNL     1      88.760  77.669  82.920  1.00  0.00     0.293 HD
ENDBRANCH   9  15
ENDBRANCH   6   7
ENDBRANCH   3   6
ENDBRANCH   1   2
BRANCH   1  17
ATOM     17  C   UNL     1      95.807  80.958  82.819  1.00  0.00     0.010 C 
BRANCH  17  18
ATOM     18  C   UNL     1      96.889  80.848  81.708  1.00  0.00     0.005 C 
BRANCH  18  19
ATOM     19  C   UNL     1      96.805  82.012  80.685  1.00  0.00     0.027 C 
BRANCH  19  20
ATOM     20  C   UNL     1      97.568  81.735  79.477  1.00  0.00    -0.031 C 
ATOM     21  C   UNL     1      97.194  82.119  78.242  1.00  0.00    -0.028 C 
BRANCH  21  22
ATOM     22  C   UNL     1      97.987  81.846  77.044  1.00  0.00     0.005 C 
ATOM     23  C   UNL     1      98.446  80.364  76.965  1.00  0.00     0.012 C 
ATOM     24  C   UNL     1      97.192  82.247  75.773  1.00  0.00     0.012 C 
ENDBRANCH  21  22
ENDBRANCH  19  20
ENDBRANCH  18  19
ENDBRANCH  17  18
ENDBRANCH   1  17
TORSDOF 10
ENDMDL
MODEL 9
REMARK VINA RESULT:    -5.790     23.942     26.015
REMARK INTER + INTRA:          -9.720
REMARK INTER:                  -8.141
REMARK INTRA:                  -1.579
REMARK UNBOUND:                -0.713
REMARK SMILES COc1cc(CNC(=O)CCCC/C=C/C(C)C)ccc1O
REMARK SMILES IDX 10 1 8 2 7 3 9 5 6 6 5 7 3 8 21 9 4 10 20 11 19 12 2 13 1 14
REMARK SMILES IDX 22 15 11 17 12 18 13 19 14 20 15 21 16 22 17 23 18 24
REMARK H PARENT 7 4 22 16
REMARK Flexibility Score: inf
ROOT
ATOM      1  C   UNL     1      75.774  89.452  65.645  1.00  0.00     0.100 C 
ENDROOT
BRANCH   1   2
ATOM      2  C   UNL     1      75.710  88.443  64.571  1.00  0.00     0.220 C 
ATOM      3  N   UNL     1      75.993  87.136  64.832  1.00  0.00    -0.352 N 
ATOM      4  H   UNL     1      76.263  86.940  65.786  1.00  0.00     0.163 HD
ATOM      5  O   UNL     1      75.366  88.820  63.424  1.00  0.00    -0.275 OA
BRANCH   3   6
ATOM      6  C   UNL     1      75.929  86.080  63.872  1.00  0.00     0.151 C 
BRANCH   6   7
ATOM      7  C   UNL     1      75.429  84.818  64.481  1.00  0.00    -0.025 A 
ATOM      8  C   UNL     1      73.644  83.569  65.628  1.00  0.00     0.160 A 
ATOM      9  C   UNL     1      74.452  82.413  65.629  1.00  0.00     0.157 A 
ATOM     10  C   UNL     1      74.140  84.759  65.057  1.00  0.00     0.056 A 
ATOM     11  C   UNL     1      75.747  82.461  65.075  1.00  0.00     0.050 A 
ATOM     12  C   UNL     1      76.229  83.651  64.497  1.00  0.00     0.009 A 
BRANCH   8  13
ATOM     13  O   UNL     1      72.409  83.545  66.224  1.00  0.00    -0.493 OA
ATOM     14  C   UNL     1      71.310  83.503  65.295  1.00  0.00     0.278 C 
ENDBRANCH   8  13
BRANCH   9  15
ATOM     15  O   UNL     1      74.000  81.247  66.159  1.00  0.00    -0.504 OA
ATOM     16  H   UNL     1      74.716  80.805  66.619  1.00  0.00     0.293 HD
ENDBRANCH   9  15
ENDBRANCH   6   7
ENDBRANCH   3   6
ENDBRANCH   1   2
BRANCH   1  17
ATOM     17  C   UNL     1      76.712  89.002  66.798  1.00  0.00     0.010 C 
BRANCH  17  18
ATOM     18  C   UNL     1      76.129  89.310  68.206  1.00  0.00     0.005 C 
BRANCH  18  19
ATOM     19  C   UNL     1      74.633  88.914  68.326  1.00  0.00     0.027 C 
BRANCH  19  20
ATOM     20  C   UNL     1      74.455  87.474  68.440  1.00  0.00    -0.031 C 
ATOM     21  C   UNL     1      75.466  86.595  68.564  1.00  0.00    -0.028 C 
BRANCH  21  22
ATOM     22  C   UNL     1      75.263  85.152  68.696  1.00  0.00     0.005 C 
ATOM     23  C   UNL     1      76.494  84.337  68.210  1.00  0.00     0.012 C 
ATOM     24  C   UNL     1      74.906  84.794  70.162  1.00  0.00     0.012 C 
ENDBRANCH  21  22
ENDBRANCH  19  20
ENDBRANCH  18  19
ENDBRANCH  17  18
ENDBRANCH   1  17
TORSDOF 10
ENDMDL
MODEL 10
REMARK VINA RESULT:    -5.646      5.501     10.299
REMARK INTER + INTRA:          -9.496
REMARK INTER:                  -8.894
REMARK INTRA:                  -0.602
REMARK UNBOUND:                -0.713
REMARK SMILES COc1cc(CNC(=O)CCCC/C=C/C(C)C)ccc1O
REMARK SMILES IDX 10 1 8 2 7 3 9 5 6 6 5 7 3 8 21 9 4 10 20 11 19 12 2 13 1 14
REMARK SMILES IDX 22 15 11 17 12 18 13 19 14 20 15 21 16 22 17 23 18 24
REMARK H PARENT 7 4 22 16
REMARK Flexibility Score: inf
ROOT
ATOM      1  C   UNL     1      95.770  82.065  83.454  1.00  0.00     0.100 C 
ENDROOT
BRANCH   1   2
ATOM      2  C   UNL     1      94.769  82.240  84.524  1.00  0.00     0.220 C 
ATOM      3  N   UNL     1      94.937  83.198  85.478  1.00  0.00    -0.352 N 
ATOM      4  H   UNL     1      95.790  83.735  85.397  1.00  0.00     0.163 HD
ATOM      5  O   UNL     1      93.756  81.500  84.513  1.00  0.00    -0.275 OA
BRANCH   3   6
ATOM      6  C   UNL     1      94.015  83.468  86.533  1.00  0.00     0.151 C 
BRANCH   6   7
ATOM      7  C   UNL     1      94.402  84.684  87.300  1.00  0.00    -0.025 A 
ATOM      8  C   UNL     1      93.980  86.265  89.140  1.00  0.00     0.160 A 
ATOM      9  C   UNL     1      95.137  86.988  88.785  1.00  0.00     0.157 A 
ATOM     10  C   UNL     1      93.622  85.122  88.394  1.00  0.00     0.056 A 
ATOM     11  C   UNL     1      95.914  86.574  87.686  1.00  0.00     0.050 A 
ATOM     12  C   UNL     1      95.556  85.425  86.954  1.00  0.00     0.009 A 
BRANCH   8  13
ATOM     13  O   UNL     1      93.184  86.701  90.168  1.00  0.00    -0.493 OA
ATOM     14  C   UNL     1      93.470  86.082  91.436  1.00  0.00     0.278 C 
ENDBRANCH   8  13
BRANCH   9  15
ATOM     15  O   UNL     1      95.517  88.084  89.491  1.00  0.00    -0.504 OA
ATOM     16  H   UNL     1      96.375  87.927  89.892  1.00  0.00     0.293 HD
ENDBRANCH   9  15
ENDBRANCH   6   7
ENDBRANCH   3   6
ENDBRANCH   1   2
BRANCH   1  17
ATOM     17  C   UNL     1      95.971  80.567  83.097  1.00  0.00     0.010 C 
BRANCH  17  18
ATOM     18  C   UNL     1      96.628  80.360  81.703  1.00  0.00     0.005 C 
BRANCH  18  19
ATOM     19  C   UNL     1      97.414  81.613  81.229  1.00  0.00     0.027 C 
BRANCH  19  20
ATOM     20  C   UNL     1      96.981  82.065  79.915  1.00  0.00    -0.031 C 
ATOM     21  C   UNL     1      97.474  81.598  78.754  1.00  0.00    -0.028 C 
BRANCH  21  22
ATOM     22  C   UNL     1      97.010  82.054  77.444  1.00  0.00     0.005 C 
ATOM     23  C   UNL     1      96.938  80.897  76.409  1.00  0.00     0.012 C 
ATOM     24  C   UNL     1      95.637  82.762  77.578  1.00  0.00     0.012 C 
ENDBRANCH  21  22
ENDBRANCH  19  20
ENDBRANCH  18  19
ENDBRANCH  17  18
ENDBRANCH   1  17
TORSDOF 10
ENDMDL
