MODEL 1
REMARK VINA RESULT:    -5.882      0.000      0.000
REMARK INTER + INTRA:         -10.892
REMARK INTER:                  -9.492
REMARK INTRA:                  -1.400
REMARK UNBOUND:                -1.400
REMARK SMILES COc1cc(CNC(=O)CCCCCCC(C)C)ccc1O
REMARK SMILES IDX 11 1 10 2 8 3 7 4 9 6 6 7 5 8 3 9 21 10 4 11 20 12 19 13
REMARK SMILES IDX 2 14 1 15 22 16 12 18 13 19 14 20 15 21 16 22 17 23 18 24
REMARK H PARENT 7 5 22 17
REMARK Flexibility Score: inf
ROOT
ATOM      1  C   UNL     1      94.970  97.496  74.404  1.00  0.00     0.010 C 
ENDROOT
BRANCH   1   2
ATOM      2  C   UNL     1      96.243  98.331  74.716  1.00  0.00     0.100 C 
BRANCH   2   3
ATOM      3  C   UNL     1      97.257  97.582  75.492  1.00  0.00     0.220 C 
ATOM      4  N   UNL     1      96.978  97.153  76.757  1.00  0.00    -0.352 N 
ATOM      5  H   UNL     1      96.071  97.426  77.104  1.00  0.00     0.163 HD
ATOM      6  O   UNL     1      98.364  97.333  74.954  1.00  0.00    -0.275 OA
BRANCH   4   7
ATOM      7  C   UNL     1      97.855  96.374  77.577  1.00  0.00     0.151 C 
BRANCH   7   8
ATOM      8  C   UNL     1      97.137  95.399  78.443  1.00  0.00    -0.025 A 
ATOM      9  C   UNL     1      97.074  93.972  80.446  1.00  0.00     0.160 A 
ATOM     10  C   UNL     1      95.758  93.574  80.123  1.00  0.00     0.157 A 
ATOM     11  C   UNL     1      97.759  94.865  79.595  1.00  0.00     0.056 A 
ATOM     12  C   UNL     1      95.143  94.068  78.959  1.00  0.00     0.050 A 
ATOM     13  C   UNL     1      95.822  94.982  78.130  1.00  0.00     0.009 A 
BRANCH   9  14
ATOM     14  O   UNL     1      97.697  93.467  81.554  1.00  0.00    -0.493 OA
ATOM     15  C   UNL     1      98.727  94.322  82.082  1.00  0.00     0.278 C 
ENDBRANCH   9  14
BRANCH  10  16
ATOM     16  O   UNL     1      95.075  92.714  80.924  1.00  0.00    -0.504 OA
ATOM     17  H   UNL     1      95.692  92.252  81.496  1.00  0.00     0.293 HD
ENDBRANCH  10  16
ENDBRANCH   7   8
ENDBRANCH   4   7
ENDBRANCH   2   3
ENDBRANCH   1   2
BRANCH   1  18
ATOM     18  C   UNL     1      95.315  96.091  73.835  1.00  0.00     0.001 C 
BRANCH  18  19
ATOM     19  C   UNL     1      94.630  94.921  74.597  1.00  0.00     0.000 C 
BRANCH  19  20
ATOM     20  C   UNL     1      93.492  95.432  75.525  1.00  0.00     0.000 C 
BRANCH  20  21
ATOM     21  C   UNL     1      92.347  94.406  75.752  1.00  0.00     0.003 C 
BRANCH  21  22
ATOM     22  C   UNL     1      91.608  94.549  77.123  1.00  0.00    -0.017 C 
ATOM     23  C   UNL     1      91.851  93.293  78.005  1.00  0.00     0.007 C 
ATOM     24  C   UNL     1      90.083  94.832  76.985  1.00  0.00     0.007 C 
ENDBRANCH  21  22
ENDBRANCH  20  21
ENDBRANCH  19  20
ENDBRANCH  18  19
ENDBRANCH   1  18
TORSDOF 11
ENDMDL
MODEL 2
REMARK VINA RESULT:    -5.741      1.491      2.227
REMARK INTER + INTRA:         -10.665
REMARK INTER:                  -9.943
REMARK INTRA:                  -0.723
REMARK UNBOUND:                -1.400
REMARK SMILES COc1cc(CNC(=O)CCCCCCC(C)C)ccc1O
REMARK SMILES IDX 11 1 10 2 8 3 7 4 9 6 6 7 5 8 3 9 21 10 4 11 20 12 19 13
REMARK SMILES IDX 2 14 1 15 22 16 12 18 13 19 14 20 15 21 16 22 17 23 18 24
REMARK H PARENT 7 5 22 17
REMARK Flexibility Score: inf
ROOT
ATOM      1  C   UNL     1      94.409  96.450  74.611  1.00  0.00     0.010 C 
ENDROOT
BRANCH   1   2
ATOM      2  C   UNL     1      95.743  97.016  74.049  1.00  0.00     0.100 C 
BRANCH   2   3
ATOM      3  C   UNL     1      96.755  97.277  75.096  1.00  0.00     0.220 C 
ATOM      4  N   UNL     1      96.611  96.742  76.343  1.00  0.00    -0.352 N 
ATOM      5  H   UNL     1      95.760  96.216  76.479  1.00  0.00     0.163 HD
ATOM      6  O   UNL     1      97.756  97.976  74.804  1.00  0.00    -0.275 OA
BRANCH   4   7
ATOM      7  C   UNL     1      97.551  96.877  77.414  1.00  0.00     0.151 C 
BRANCH   7   8
ATOM      8  C   UNL     1      96.979  96.528  78.744  1.00  0.00    -0.025 A 
ATOM      9  C   UNL     1      95.744  94.966  80.187  1.00  0.00     0.160 A 
ATOM     10  C   UNL     1      95.925  95.835  81.285  1.00  0.00     0.157 A 
ATOM     11  C   UNL     1      96.255  95.328  78.923  1.00  0.00     0.056 A 
ATOM     12  C   UNL     1      96.610  97.051  81.111  1.00  0.00     0.050 A 
ATOM     13  C   UNL     1      97.143  97.392  79.852  1.00  0.00     0.009 A 
BRANCH   9  14
ATOM     14  O   UNL     1      95.045  93.800  80.337  1.00  0.00    -0.493 OA
ATOM     15  C   UNL     1      95.777  92.629  79.931  1.00  0.00     0.278 C 
ENDBRANCH   9  14
BRANCH  10  16
ATOM     16  O   UNL     1      95.441  95.514  82.514  1.00  0.00    -0.504 OA
ATOM     17  H   UNL     1      96.173  95.299  83.099  1.00  0.00     0.293 HD
ENDBRANCH  10  16
ENDBRANCH   7   8
ENDBRANCH   4   7
ENDBRANCH   2   3
ENDBRANCH   1   2
BRANCH   1  18
ATOM     18  C   UNL     1      94.427  94.898  74.712  1.00  0.00     0.001 C 
BRANCH  18  19
ATOM     19  C   UNL     1      93.437  94.328  75.766  1.00  0.00     0.000 C 
BRANCH  19  20
ATOM     20  C   UNL     1      92.220  95.273  75.978  1.00  0.00     0.000 C 
BRANCH  20  21
ATOM     21  C   UNL     1      91.211  94.782  77.053  1.00  0.00     0.003 C 
BRANCH  21  22
ATOM     22  C   UNL     1      91.355  93.273  77.438  1.00  0.00    -0.017 C 
ATOM     23  C   UNL     1      89.961  92.653  77.737  1.00  0.00     0.007 C 
ATOM     24  C   UNL     1      92.329  93.022  78.627  1.00  0.00     0.007 C 
ENDBRANCH  21  22
ENDBRANCH  20  21
ENDBRANCH  19  20
ENDBRANCH  18  19
ENDBRANCH   1  18
TORSDOF 11
ENDMDL
MODEL 3
REMARK VINA RESULT:    -5.527     13.761     16.349
REMARK INTER + INTRA:         -10.319
REMARK INTER:                  -9.782
REMARK INTRA:                  -0.537
REMARK UNBOUND:                -1.400
REMARK SMILES COc1cc(CNC(=O)CCCCCCC(C)C)ccc1O
REMARK SMILES IDX 11 1 10 2 8 3 7 4 9 6 6 7 5 8 3 9 21 10 4 11 20 12 19 13
REMARK SMILES IDX 2 14 1 15 22 16 12 18 13 19 14 20 15 21 16 22 17 23 18 24
REMARK H PARENT 7 5 22 17
REMARK Flexibility Score: inf
ROOT
ATOM      1  C   UNL     1      96.364  81.278  82.024  1.00  0.00     0.010 C 
ENDROOT
BRANCH   1   2
ATOM      2  C   UNL     1      95.762  82.246  83.080  1.00  0.00     0.100 C 
BRANCH   2   3
ATOM      3  C   UNL     1      95.065  81.549  84.184  1.00  0.00     0.220 C 
ATOM      4  N   UNL     1      93.742  81.782  84.419  1.00  0.00    -0.352 N 
ATOM      5  H   UNL     1      93.324  82.479  83.821  1.00  0.00     0.163 HD
ATOM      6  O   UNL     1      95.711  80.725  84.877  1.00  0.00    -0.275 OA
BRANCH   4   7
ATOM      7  C   UNL     1      92.952  81.126  85.417  1.00  0.00     0.151 C 
BRANCH   7   8
ATOM      8  C   UNL     1      91.566  80.826  84.964  1.00  0.00    -0.025 A 
ATOM      9  C   UNL     1      89.877  79.208  84.204  1.00  0.00     0.160 A 
ATOM     10  C   UNL     1      88.914  80.239  84.143  1.00  0.00     0.157 A 
ATOM     11  C   UNL     1      91.198  79.512  84.596  1.00  0.00     0.056 A 
ATOM     12  C   UNL     1      89.278  81.557  84.469  1.00  0.00     0.050 A 
ATOM     13  C   UNL     1      90.591  81.849  84.887  1.00  0.00     0.009 A 
BRANCH   9  14
ATOM     14  O   UNL     1      89.543  77.929  83.851  1.00  0.00    -0.493 OA
ATOM     15  C   UNL     1      89.557  77.001  84.951  1.00  0.00     0.278 C 
ENDBRANCH   9  14
BRANCH  10  16
ATOM     16  O   UNL     1      87.635  79.975  83.767  1.00  0.00    -0.504 OA
ATOM     17  H   UNL     1      87.101  79.806  84.548  1.00  0.00     0.293 HD
ENDBRANCH  10  16
ENDBRANCH   7   8
ENDBRANCH   4   7
ENDBRANCH   2   3
ENDBRANCH   1   2
BRANCH   1  18
ATOM     18  C   UNL     1      96.822  82.022  80.738  1.00  0.00     0.001 C 
BRANCH  18  19
ATOM     19  C   UNL     1      98.016  81.342  80.011  1.00  0.00     0.000 C 
BRANCH  19  20
ATOM     20  C   UNL     1      97.815  81.328  78.470  1.00  0.00     0.000 C 
BRANCH  20  21
ATOM     21  C   UNL     1      96.639  82.214  77.973  1.00  0.00     0.003 C 
BRANCH  21  22
ATOM     22  C   UNL     1      96.523  82.328  76.417  1.00  0.00    -0.017 C 
ATOM     23  C   UNL     1      97.887  82.004  75.745  1.00  0.00     0.007 C 
ATOM     24  C   UNL     1      95.988  83.706  75.929  1.00  0.00     0.007 C 
ENDBRANCH  21  22
ENDBRANCH  20  21
ENDBRANCH  19  20
ENDBRANCH  18  19
ENDBRANCH   1  18
TORSDOF 11
ENDMDL
MODEL 4
REMARK VINA RESULT:    -5.476     14.197     17.000
REMARK INTER + INTRA:         -10.238
REMARK INTER:                  -9.634
REMARK INTRA:                  -0.604
REMARK UNBOUND:                -1.400
REMARK SMILES COc1cc(CNC(=O)CCCCCCC(C)C)ccc1O
REMARK SMILES IDX 11 1 10 2 8 3 7 4 9 6 6 7 5 8 3 9 21 10 4 11 20 12 19 13
REMARK SMILES IDX 2 14 1 15 22 16 12 18 13 19 14 20 15 21 16 22 17 23 18 24
REMARK H PARENT 7 5 22 17
REMARK Flexibility Score: inf
ROOT
ATOM      1  C   UNL     1      95.853  80.280  83.326  1.00  0.00     0.010 C 
ENDROOT
BRANCH   1   2
ATOM      2  C   UNL     1      95.510  81.758  83.662  1.00  0.00     0.100 C 
BRANCH   2   3
ATOM      3  C   UNL     1      94.411  81.894  84.644  1.00  0.00     0.220 C 
ATOM      4  N   UNL     1      93.321  81.077  84.577  1.00  0.00    -0.352 N 
ATOM      5  H   UNL     1      93.324  80.434  83.798  1.00  0.00     0.163 HD
ATOM      6  O   UNL     1      94.517  82.758  85.549  1.00  0.00    -0.275 OA
BRANCH   4   7
ATOM      7  C   UNL     1      92.229  81.078  85.502  1.00  0.00     0.151 C 
BRANCH   7   8
ATOM      8  C   UNL     1      91.117  80.173  85.099  1.00  0.00    -0.025 A 
ATOM      9  C   UNL     1      88.714  79.771  84.764  1.00  0.00     0.160 A 
ATOM     10  C   UNL     1      88.996  78.471  84.291  1.00  0.00     0.157 A 
ATOM     11  C   UNL     1      89.774  80.604  85.181  1.00  0.00     0.056 A 
ATOM     12  C   UNL     1      90.326  78.016  84.241  1.00  0.00     0.050 A 
ATOM     13  C   UNL     1      91.381  78.864  84.632  1.00  0.00     0.009 A 
BRANCH   9  14
ATOM     14  O   UNL     1      87.421  80.209  84.853  1.00  0.00    -0.493 OA
ATOM     15  C   UNL     1      87.168  81.422  84.122  1.00  0.00     0.278 C 
ENDBRANCH   9  14
BRANCH  10  16
ATOM     16  O   UNL     1      87.995  77.646  83.884  1.00  0.00    -0.504 OA
ATOM     17  H   UNL     1      87.189  78.155  83.768  1.00  0.00     0.293 HD
ENDBRANCH  10  16
ENDBRANCH   7   8
ENDBRANCH   4   7
ENDBRANCH   2   3
ENDBRANCH   1   2
BRANCH   1  18
ATOM     18  C   UNL     1      96.470  80.129  81.907  1.00  0.00     0.001 C 
BRANCH  18  19
ATOM     19  C   UNL     1      97.435  81.284  81.517  1.00  0.00     0.000 C 
BRANCH  19  20
ATOM     20  C   UNL     1      96.982  81.990  80.208  1.00  0.00     0.000 C 
BRANCH  20  21
ATOM     21  C   UNL     1      97.990  81.862  79.032  1.00  0.00     0.003 C 
BRANCH  21  22
ATOM     22  C   UNL     1      97.392  81.240  77.728  1.00  0.00    -0.017 C 
ATOM     23  C   UNL     1      98.458  81.223  76.596  1.00  0.00     0.007 C 
ATOM     24  C   UNL     1      96.091  81.942  77.241  1.00  0.00     0.007 C 
ENDBRANCH  21  22
ENDBRANCH  20  21
ENDBRANCH  19  20
ENDBRANCH  18  19
ENDBRANCH   1  18
TORSDOF 11
ENDMDL
MODEL 5
REMARK VINA RESULT:    -5.475      4.521      6.378
REMARK INTER + INTRA:         -10.236
REMARK INTER:                  -9.608
REMARK INTRA:                  -0.628
REMARK UNBOUND:                -1.400
REMARK SMILES COc1cc(CNC(=O)CCCCCCC(C)C)ccc1O
REMARK SMILES IDX 11 1 10 2 8 3 7 4 9 6 6 7 5 8 3 9 21 10 4 11 20 12 19 13
REMARK SMILES IDX 2 14 1 15 22 16 12 18 13 19 14 20 15 21 16 22 17 23 18 24
REMARK H PARENT 7 5 22 17
REMARK Flexibility Score: inf
ROOT
ATOM      1  C   UNL     1      92.915  99.074  72.569  1.00  0.00     0.010 C 
ENDROOT
BRANCH   1   2
ATOM      2  C   UNL     1      94.130  99.048  73.537  1.00  0.00     0.100 C 
BRANCH   2   3
ATOM      3  C   UNL     1      94.763  97.714  73.644  1.00  0.00     0.220 C 
ATOM      4  N   UNL     1      94.130  96.702  74.304  1.00  0.00    -0.352 N 
ATOM      5  H   UNL     1      93.251  96.960  74.728  1.00  0.00     0.163 HD
ATOM      6  O   UNL     1      95.878  97.531  73.096  1.00  0.00    -0.275 OA
BRANCH   4   7
ATOM      7  C   UNL     1      94.616  95.360  74.422  1.00  0.00     0.151 C 
BRANCH   7   8
ATOM      8  C   UNL     1      94.162  94.679  75.665  1.00  0.00    -0.025 A 
ATOM      9  C   UNL     1      92.593  93.177  76.819  1.00  0.00     0.160 A 
ATOM     10  C   UNL     1      93.316  93.341  78.020  1.00  0.00     0.157 A 
ATOM     11  C   UNL     1      93.010  93.861  75.657  1.00  0.00     0.056 A 
ATOM     12  C   UNL     1      94.442  94.183  78.050  1.00  0.00     0.050 A 
ATOM     13  C   UNL     1      94.870  94.839  76.880  1.00  0.00     0.009 A 
BRANCH   9  14
ATOM     14  O   UNL     1      91.473  92.391  76.788  1.00  0.00    -0.493 OA
ATOM     15  C   UNL     1      91.190  91.836  75.491  1.00  0.00     0.278 C 
ENDBRANCH   9  14
BRANCH  10  16
ATOM     16  O   UNL     1      92.937  92.696  79.155  1.00  0.00    -0.504 OA
ATOM     17  H   UNL     1      93.475  92.999  79.890  1.00  0.00     0.293 HD
ENDBRANCH  10  16
ENDBRANCH   7   8
ENDBRANCH   4   7
ENDBRANCH   2   3
ENDBRANCH   1   2
BRANCH   1  18
ATOM     18  C   UNL     1      93.208  99.894  71.281  1.00  0.00     0.001 C 
BRANCH  18  19
ATOM     19  C   UNL     1      92.196  99.636  70.130  1.00  0.00     0.000 C 
BRANCH  19  20
ATOM     20  C   UNL     1      90.745 100.003  70.551  1.00  0.00     0.000 C 
BRANCH  20  21
ATOM     21  C   UNL     1      89.643  99.383  69.648  1.00  0.00     0.003 C 
BRANCH  21  22
ATOM     22  C   UNL     1      90.175  98.720  68.335  1.00  0.00    -0.017 C 
ATOM     23  C   UNL     1      90.003  99.688  67.130  1.00  0.00     0.007 C 
ATOM     24  C   UNL     1      89.524  97.341  68.023  1.00  0.00     0.007 C 
ENDBRANCH  21  22
ENDBRANCH  20  21
ENDBRANCH  19  20
ENDBRANCH  18  19
ENDBRANCH   1  18
TORSDOF 11
ENDMDL
MODEL 6
REMARK VINA RESULT:    -5.464      1.929      2.172
REMARK INTER + INTRA:         -10.218
REMARK INTER:                  -9.819
REMARK INTRA:                  -0.399
REMARK UNBOUND:                -1.400
REMARK SMILES COc1cc(CNC(=O)CCCCCCC(C)C)ccc1O
REMARK SMILES IDX 11 1 10 2 8 3 7 4 9 6 6 7 5 8 3 9 21 10 4 11 20 12 19 13
REMARK SMILES IDX 2 14 1 15 22 16 12 18 13 19 14 20 15 21 16 22 17 23 18 24
REMARK H PARENT 7 5 22 17
REMARK Flexibility Score: inf
ROOT
ATOM      1  C   UNL     1      93.983  96.358  74.539  1.00  0.00     0.010 C 
ENDROOT
BRANCH   1   2
ATOM      2  C   UNL     1      95.264  97.197  74.274  1.00  0.00     0.100 C 
BRANCH   2   3
ATOM      3  C   UNL     1      96.061  97.450  75.495  1.00  0.00     0.220 C 
ATOM      4  N   UNL     1      96.295  96.443  76.386  1.00  0.00    -0.352 N 
ATOM      5  H   UNL     1      95.850  95.566  76.157  1.00  0.00     0.163 HD
ATOM      6  O   UNL     1      96.534  98.598  75.678  1.00  0.00    -0.275 OA
BRANCH   4   7
ATOM      7  C   UNL     1      97.097  96.555  77.567  1.00  0.00     0.151 C 
BRANCH   7   8
ATOM      8  C   UNL     1      96.714  95.584  78.630  1.00  0.00    -0.025 A 
ATOM      9  C   UNL     1      95.981  95.127  80.932  1.00  0.00     0.160 A 
ATOM     10  C   UNL     1      95.942  93.744  80.647  1.00  0.00     0.157 A 
ATOM     11  C   UNL     1      96.384  96.033  79.929  1.00  0.00     0.056 A 
ATOM     12  C   UNL     1      96.306  93.282  79.369  1.00  0.00     0.050 A 
ATOM     13  C   UNL     1      96.680  94.195  78.364  1.00  0.00     0.009 A 
BRANCH   9  14
ATOM     14  O   UNL     1      95.666  95.583  82.183  1.00  0.00    -0.493 OA
ATOM     15  C   UNL     1      96.434  96.730  82.591  1.00  0.00     0.278 C 
ENDBRANCH   9  14
BRANCH  10  16
ATOM     16  O   UNL     1      95.559  92.848  81.595  1.00  0.00    -0.504 OA
ATOM     17  H   UNL     1      94.696  92.494  81.369  1.00  0.00     0.293 HD
ENDBRANCH  10  16
ENDBRANCH   7   8
ENDBRANCH   4   7
ENDBRANCH   2   3
ENDBRANCH   1   2
BRANCH   1  18
ATOM     18  C   UNL     1      94.315  94.896  74.953  1.00  0.00     0.001 C 
BRANCH  18  19
ATOM     19  C   UNL     1      93.440  94.362  76.122  1.00  0.00     0.000 C 
BRANCH  19  20
ATOM     20  C   UNL     1      92.601  93.127  75.691  1.00  0.00     0.000 C 
BRANCH  20  21
ATOM     21  C   UNL     1      91.147  93.121  76.239  1.00  0.00     0.003 C 
BRANCH  21  22
ATOM     22  C   UNL     1      90.271  91.922  75.748  1.00  0.00    -0.017 C 
ATOM     23  C   UNL     1      89.598  91.211  76.955  1.00  0.00     0.007 C 
ATOM     24  C   UNL     1      91.051  90.895  74.876  1.00  0.00     0.007 C 
ENDBRANCH  21  22
ENDBRANCH  20  21
ENDBRANCH  19  20
ENDBRANCH  18  19
ENDBRANCH   1  18
TORSDOF 11
ENDMDL
MODEL 7
REMARK VINA RESULT:    -5.332     13.978     16.634
REMARK INTER + INTRA:         -10.005
REMARK INTER:                  -9.406
REMARK INTRA:                  -0.599
REMARK UNBOUND:                -1.400
REMARK SMILES COc1cc(CNC(=O)CCCCCCC(C)C)ccc1O
REMARK SMILES IDX 11 1 10 2 8 3 7 4 9 6 6 7 5 8 3 9 21 10 4 11 20 12 19 13
REMARK SMILES IDX 2 14 1 15 22 16 12 18 13 19 14 20 15 21 16 22 17 23 18 24
REMARK H PARENT 7 5 22 17
REMARK Flexibility Score: inf
ROOT
ATOM      1  C   UNL     1      95.896  79.929  83.475  1.00  0.00     0.010 C 
ENDROOT
BRANCH   1   2
ATOM      2  C   UNL     1      95.309  81.368  83.470  1.00  0.00     0.100 C 
BRANCH   2   3
ATOM      3  C   UNL     1      94.666  81.741  84.750  1.00  0.00     0.220 C 
ATOM      4  N   UNL     1      93.396  82.240  84.763  1.00  0.00    -0.352 N 
ATOM      5  H   UNL     1      92.983  82.365  83.850  1.00  0.00     0.163 HD
ATOM      6  O   UNL     1      95.302  81.565  85.818  1.00  0.00    -0.275 OA
BRANCH   4   7
ATOM      7  C   UNL     1      92.654  82.580  85.939  1.00  0.00     0.151 C 
BRANCH   7   8
ATOM      8  C   UNL     1      91.330  81.903  86.013  1.00  0.00    -0.025 A 
ATOM      9  C   UNL     1      89.509  80.928  87.347  1.00  0.00     0.160 A 
ATOM     10  C   UNL     1      88.787  80.653  86.164  1.00  0.00     0.157 A 
ATOM     11  C   UNL     1      90.780  81.532  87.261  1.00  0.00     0.056 A 
ATOM     12  C   UNL     1      89.340  80.982  84.914  1.00  0.00     0.050 A 
ATOM     13  C   UNL     1      90.598  81.612  84.837  1.00  0.00     0.009 A 
BRANCH   9  14
ATOM     14  O   UNL     1      88.997  80.576  88.566  1.00  0.00    -0.493 OA
ATOM     15  C   UNL     1      89.629  81.241  89.674  1.00  0.00     0.278 C 
ENDBRANCH   9  14
BRANCH  10  16
ATOM     16  O   UNL     1      87.561  80.070  86.217  1.00  0.00    -0.504 OA
ATOM     17  H   UNL     1      87.232  80.096  87.119  1.00  0.00     0.293 HD
ENDBRANCH  10  16
ENDBRANCH   7   8
ENDBRANCH   4   7
ENDBRANCH   2   3
ENDBRANCH   1   2
BRANCH   1  18
ATOM     18  C   UNL     1      96.736  79.633  82.200  1.00  0.00     0.001 C 
BRANCH  18  19
ATOM     19  C   UNL     1      97.393  80.897  81.576  1.00  0.00     0.000 C 
BRANCH  19  20
ATOM     20  C   UNL     1      97.477  80.792  80.027  1.00  0.00     0.000 C 
BRANCH  20  21
ATOM     21  C   UNL     1      97.035  82.078  79.277  1.00  0.00     0.003 C 
BRANCH  21  22
ATOM     22  C   UNL     1      96.999  81.942  77.719  1.00  0.00    -0.017 C 
ATOM     23  C   UNL     1      95.847  82.802  77.125  1.00  0.00     0.007 C 
ATOM     24  C   UNL     1      96.892  80.471  77.222  1.00  0.00     0.007 C 
ENDBRANCH  21  22
ENDBRANCH  20  21
ENDBRANCH  19  20
ENDBRANCH  18  19
ENDBRANCH   1  18
TORSDOF 11
ENDMDL
MODEL 8
REMARK VINA RESULT:    -5.206     13.142     15.237
REMARK INTER + INTRA:          -9.802
REMARK INTER:                  -9.107
REMARK INTRA:                  -0.695
REMARK UNBOUND:                -1.400
REMARK SMILES COc1cc(CNC(=O)CCCCCCC(C)C)ccc1O
REMARK SMILES IDX 11 1 10 2 8 3 7 4 9 6 6 7 5 8 3 9 21 10 4 11 20 12 19 13
REMARK SMILES IDX 2 14 1 15 22 16 12 18 13 19 14 20 15 21 16 22 17 23 18 24
REMARK H PARENT 7 5 22 17
REMARK Flexibility Score: inf
ROOT
ATOM      1  C   UNL     1      96.217  80.366  83.363  1.00  0.00     0.010 C 
ENDROOT
BRANCH   1   2
ATOM      2  C   UNL     1      95.294  81.616  83.374  1.00  0.00     0.100 C 
BRANCH   2   3
ATOM      3  C   UNL     1      95.646  82.594  84.427  1.00  0.00     0.220 C 
ATOM      4  N   UNL     1      94.848  83.677  84.657  1.00  0.00    -0.352 N 
ATOM      5  H   UNL     1      94.060  83.759  84.032  1.00  0.00     0.163 HD
ATOM      6  O   UNL     1      96.676  82.392  85.117  1.00  0.00    -0.275 OA
BRANCH   4   7
ATOM      7  C   UNL     1      95.056  84.654  85.682  1.00  0.00     0.151 C 
BRANCH   7   8
ATOM      8  C   UNL     1      94.029  84.603  86.758  1.00  0.00    -0.025 A 
ATOM      9  C   UNL     1      91.843  83.830  87.581  1.00  0.00     0.160 A 
ATOM     10  C   UNL     1      92.084  84.464  88.820  1.00  0.00     0.157 A 
ATOM     11  C   UNL     1      92.808  83.920  86.555  1.00  0.00     0.056 A 
ATOM     12  C   UNL     1      93.278  85.179  89.021  1.00  0.00     0.050 A 
ATOM     13  C   UNL     1      94.249  85.240  88.002  1.00  0.00     0.009 A 
BRANCH   9  14
ATOM     14  O   UNL     1      90.668  83.165  87.361  1.00  0.00    -0.493 OA
ATOM     15  C   UNL     1      90.805  81.733  87.354  1.00  0.00     0.278 C 
ENDBRANCH   9  14
BRANCH  10  16
ATOM     16  O   UNL     1      91.172  84.395  89.825  1.00  0.00    -0.504 OA
ATOM     17  H   UNL     1      91.424  85.000  90.527  1.00  0.00     0.293 HD
ENDBRANCH  10  16
ENDBRANCH   7   8
ENDBRANCH   4   7
ENDBRANCH   2   3
ENDBRANCH   1   2
BRANCH   1  18
ATOM     18  C   UNL     1      96.714  80.016  81.932  1.00  0.00     0.001 C 
BRANCH  18  19
ATOM     19  C   UNL     1      97.084  81.259  81.076  1.00  0.00     0.000 C 
BRANCH  19  20
ATOM     20  C   UNL     1      97.487  80.858  79.629  1.00  0.00     0.000 C 
BRANCH  20  21
ATOM     21  C   UNL     1      97.751  82.062  78.684  1.00  0.00     0.003 C 
BRANCH  21  22
ATOM     22  C   UNL     1      97.027  81.975  77.300  1.00  0.00    -0.017 C 
ATOM     23  C   UNL     1      95.683  82.754  77.340  1.00  0.00     0.007 C 
ATOM     24  C   UNL     1      96.797  80.516  76.806  1.00  0.00     0.007 C 
ENDBRANCH  21  22
ENDBRANCH  20  21
ENDBRANCH  19  20
ENDBRANCH  18  19
ENDBRANCH   1  18
TORSDOF 11
ENDMDL
MODEL 9
REMARK VINA RESULT:    -5.182     13.238     15.689
REMARK INTER + INTRA:          -9.764
REMARK INTER:                  -9.144
REMARK INTRA:                  -0.619
REMARK UNBOUND:                -1.400
REMARK SMILES COc1cc(CNC(=O)CCCCCCC(C)C)ccc1O
REMARK SMILES IDX 11 1 10 2 8 3 7 4 9 6 6 7 5 8 3 9 21 10 4 11 20 12 19 13
REMARK SMILES IDX 2 14 1 15 22 16 12 18 13 19 14 20 15 21 16 22 17 23 18 24
REMARK H PARENT 7 5 22 17
REMARK Flexibility Score: inf
ROOT
ATOM      1  C   UNL     1      97.160  82.087  81.968  1.00  0.00     0.010 C 
ENDROOT
BRANCH   1   2
ATOM      2  C   UNL     1      96.460  83.171  82.833  1.00  0.00     0.100 C 
BRANCH   2   3
ATOM      3  C   UNL     1      95.918  82.644  84.106  1.00  0.00     0.220 C 
ATOM      4  N   UNL     1      94.654  82.969  84.503  1.00  0.00    -0.352 N 
ATOM      5  H   UNL     1      94.171  83.610  83.891  1.00  0.00     0.163 HD
ATOM      6  O   UNL     1      96.635  81.876  84.793  1.00  0.00    -0.275 OA
BRANCH   4   7
ATOM      7  C   UNL     1      94.005  82.474  85.680  1.00  0.00     0.151 C 
BRANCH   7   8
ATOM      8  C   UNL     1      93.086  81.335  85.408  1.00  0.00    -0.025 A 
ATOM      9  C   UNL     1      90.896  80.496  84.666  1.00  0.00     0.160 A 
ATOM     10  C   UNL     1      91.341  79.168  84.846  1.00  0.00     0.157 A 
ATOM     11  C   UNL     1      91.763  81.568  84.966  1.00  0.00     0.056 A 
ATOM     12  C   UNL     1      92.642  78.925  85.323  1.00  0.00     0.050 A 
ATOM     13  C   UNL     1      93.513  79.999  85.592  1.00  0.00     0.009 A 
BRANCH   9  14
ATOM     14  O   UNL     1      89.620  80.745  84.241  1.00  0.00    -0.493 OA
ATOM     15  C   UNL     1      88.762  81.284  85.263  1.00  0.00     0.278 C 
ENDBRANCH   9  14
BRANCH  10  16
ATOM     16  O   UNL     1      90.527  78.117  84.567  1.00  0.00    -0.504 OA
ATOM     17  H   UNL     1      89.652  78.287  84.924  1.00  0.00     0.293 HD
ENDBRANCH  10  16
ENDBRANCH   7   8
ENDBRANCH   4   7
ENDBRANCH   2   3
ENDBRANCH   1   2
BRANCH   1  18
ATOM     18  C   UNL     1      96.663  82.102  80.494  1.00  0.00     0.001 C 
BRANCH  18  19
ATOM     19  C   UNL     1      97.732  81.630  79.468  1.00  0.00     0.000 C 
BRANCH  19  20
ATOM     20  C   UNL     1      97.090  81.262  78.101  1.00  0.00     0.000 C 
BRANCH  20  21
ATOM     21  C   UNL     1      96.354  82.440  77.406  1.00  0.00     0.003 C 
BRANCH  21  22
ATOM     22  C   UNL     1      96.592  82.536  75.863  1.00  0.00    -0.017 C 
ATOM     23  C   UNL     1      98.103  82.382  75.536  1.00  0.00     0.007 C 
ATOM     24  C   UNL     1      96.024  83.836  75.222  1.00  0.00     0.007 C 
ENDBRANCH  21  22
ENDBRANCH  20  21
ENDBRANCH  19  20
ENDBRANCH  18  19
ENDBRANCH   1  18
TORSDOF 11
ENDMDL
MODEL 10
REMARK VINA RESULT:    -5.080     23.153     27.036
REMARK INTER + INTRA:          -9.599
REMARK INTER:                  -8.344
REMARK INTRA:                  -1.255
REMARK UNBOUND:                -1.400
REMARK SMILES COc1cc(CNC(=O)CCCCCCC(C)C)ccc1O
REMARK SMILES IDX 11 1 10 2 8 3 7 4 9 6 6 7 5 8 3 9 21 10 4 11 20 12 19 13
REMARK SMILES IDX 2 14 1 15 22 16 12 18 13 19 14 20 15 21 16 22 17 23 18 24
REMARK H PARENT 7 5 22 17
REMARK Flexibility Score: inf
ROOT
ATOM      1  C   UNL     1      69.405  84.480  66.008  1.00  0.00     0.010 C 
ENDROOT
BRANCH   1   2
ATOM      2  C   UNL     1      69.636  84.017  67.473  1.00  0.00     0.100 C 
BRANCH   2   3
ATOM      3  C   UNL     1      70.366  85.010  68.293  1.00  0.00     0.220 C 
ATOM      4  N   UNL     1      71.566  85.503  67.871  1.00  0.00    -0.352 N 
ATOM      5  H   UNL     1      71.906  85.104  67.009  1.00  0.00     0.163 HD
ATOM      6  O   UNL     1      69.845  85.404  69.365  1.00  0.00    -0.275 OA
BRANCH   4   7
ATOM      7  C   UNL     1      72.331  86.506  68.548  1.00  0.00     0.151 C 
BRANCH   7   8
ATOM      8  C   UNL     1      73.801  86.293  68.444  1.00  0.00    -0.025 A 
ATOM      9  C   UNL     1      75.959  86.821  67.389  1.00  0.00     0.160 A 
ATOM     10  C   UNL     1      76.609  85.926  68.267  1.00  0.00     0.157 A 
ATOM     11  C   UNL     1      74.560  86.983  67.471  1.00  0.00     0.056 A 
ATOM     12  C   UNL     1      75.859  85.205  69.213  1.00  0.00     0.050 A 
ATOM     13  C   UNL     1      74.467  85.394  69.309  1.00  0.00     0.009 A 
BRANCH   9  14
ATOM     14  O   UNL     1      76.674  87.498  66.439  1.00  0.00    -0.493 OA
ATOM     15  C   UNL     1      76.865  88.892  66.741  1.00  0.00     0.278 C 
ENDBRANCH   9  14
BRANCH  10  16
ATOM     16  O   UNL     1      77.955  85.749  68.209  1.00  0.00    -0.504 OA
ATOM     17  H   UNL     1      78.311  85.711  69.100  1.00  0.00     0.293 HD
ENDBRANCH  10  16
ENDBRANCH   7   8
ENDBRANCH   4   7
ENDBRANCH   2   3
ENDBRANCH   1   2
BRANCH   1  18
ATOM     18  C   UNL     1      69.938  83.447  64.975  1.00  0.00     0.001 C 
BRANCH  18  19
ATOM     19  C   UNL     1      70.665  82.233  65.620  1.00  0.00     0.000 C 
BRANCH  19  20
ATOM     20  C   UNL     1      71.789  81.683  64.698  1.00  0.00     0.000 C 
BRANCH  20  21
ATOM     21  C   UNL     1      73.147  81.451  65.417  1.00  0.00     0.003 C 
BRANCH  21  22
ATOM     22  C   UNL     1      74.283  82.440  64.997  1.00  0.00    -0.017 C 
ATOM     23  C   UNL     1      75.552  81.655  64.560  1.00  0.00     0.007 C 
ATOM     24  C   UNL     1      74.640  83.485  66.094  1.00  0.00     0.007 C 
ENDBRANCH  21  22
ENDBRANCH  20  21
ENDBRANCH  19  20
ENDBRANCH  18  19
ENDBRANCH   1  18
TORSDOF 11
ENDMDL
