MODEL 1
REMARK VINA RESULT:    -6.001      0.000      0.000
REMARK INTER + INTRA:         -10.448
REMARK INTER:                  -9.334
REMARK INTRA:                  -1.115
REMARK UNBOUND:                -1.115
REMARK SMILES COc1cc(CNC(=O)CCCCCC(C)C)ccc1O
REMARK SMILES IDX 10 1 8 2 7 3 9 5 6 6 5 7 3 8 20 9 4 10 19 11 18 12 2 13 1 14
REMARK SMILES IDX 21 15 11 17 12 18 13 19 14 20 15 21 16 22 17 23
REMARK H PARENT 7 4 21 16
REMARK Flexibility Score: inf
ROOT
ATOM      1  C   UNL     1      77.289  85.449  66.019  1.00  0.00     0.100 C 
ENDROOT
BRANCH   1   2
ATOM      2  C   UNL     1      77.349  84.121  65.374  1.00  0.00     0.220 C 
ATOM      3  N   UNL     1      77.115  83.004  66.118  1.00  0.00    -0.352 N 
ATOM      4  H   UNL     1      77.043  83.163  67.113  1.00  0.00     0.163 HD
ATOM      5  O   UNL     1      77.574  84.053  64.141  1.00  0.00    -0.275 OA
BRANCH   3   6
ATOM      6  C   UNL     1      76.971  81.683  65.595  1.00  0.00     0.151 C 
BRANCH   6   7
ATOM      7  C   UNL     1      75.602  81.403  65.083  1.00  0.00    -0.025 A 
ATOM      8  C   UNL     1      73.164  81.409  65.402  1.00  0.00     0.160 A 
ATOM      9  C   UNL     1      72.992  80.933  64.085  1.00  0.00     0.157 A 
ATOM     10  C   UNL     1      74.467  81.623  65.899  1.00  0.00     0.056 A 
ATOM     11  C   UNL     1      74.115  80.686  63.274  1.00  0.00     0.050 A 
ATOM     12  C   UNL     1      75.409  80.924  63.766  1.00  0.00     0.009 A 
BRANCH   8  13
ATOM     13  O   UNL     1      72.084  81.638  66.215  1.00  0.00    -0.493 OA
ATOM     14  C   UNL     1      71.897  83.025  66.557  1.00  0.00     0.278 C 
ENDBRANCH   8  13
BRANCH   9  15
ATOM     15  O   UNL     1      71.744  80.723  63.598  1.00  0.00    -0.504 OA
ATOM     16  H   UNL     1      71.113  80.724  64.322  1.00  0.00     0.293 HD
ENDBRANCH   9  15
ENDBRANCH   6   7
ENDBRANCH   3   6
ENDBRANCH   1   2
BRANCH   1  17
ATOM     17  C   UNL     1      77.905  85.495  67.443  1.00  0.00     0.010 C 
BRANCH  17  18
ATOM     18  C   UNL     1      77.754  86.901  68.087  1.00  0.00     0.001 C 
BRANCH  18  19
ATOM     19  C   UNL     1      77.531  86.856  69.622  1.00  0.00     0.000 C 
BRANCH  19  20
ATOM     20  C   UNL     1      76.057  87.166  70.012  1.00  0.00     0.003 C 
BRANCH  20  21
ATOM     21  C   UNL     1      75.163  85.909  70.268  1.00  0.00    -0.017 C 
ATOM     22  C   UNL     1      76.022  84.708  70.760  1.00  0.00     0.007 C 
ATOM     23  C   UNL     1      74.331  85.495  69.019  1.00  0.00     0.007 C 
ENDBRANCH  20  21
ENDBRANCH  19  20
ENDBRANCH  18  19
ENDBRANCH  17  18
ENDBRANCH   1  17
TORSDOF 10
ENDMDL
MODEL 2
REMARK VINA RESULT:    -5.852     25.366     27.728
REMARK INTER + INTRA:         -10.216
REMARK INTER:                  -9.312
REMARK INTRA:                  -0.904
REMARK UNBOUND:                -1.115
REMARK SMILES COc1cc(CNC(=O)CCCCCC(C)C)ccc1O
REMARK SMILES IDX 10 1 8 2 7 3 9 5 6 6 5 7 3 8 20 9 4 10 19 11 18 12 2 13 1 14
REMARK SMILES IDX 21 15 11 17 12 18 13 19 14 20 15 21 16 22 17 23
REMARK H PARENT 7 4 21 16
REMARK Flexibility Score: inf
ROOT
ATOM      1  C   UNL     1      98.824  82.711  84.661  1.00  0.00     0.100 C 
ENDROOT
BRANCH   1   2
ATOM      2  C   UNL     1      99.099  82.135  83.328  1.00  0.00     0.220 C 
ATOM      3  N   UNL     1      99.714  82.900  82.382  1.00  0.00    -0.352 N 
ATOM      4  H   UNL     1      99.821  83.874  82.627  1.00  0.00     0.163 HD
ATOM      5  O   UNL     1      98.798  80.936  83.108  1.00  0.00    -0.275 OA
BRANCH   3   6
ATOM      6  C   UNL     1     100.191  82.424  81.123  1.00  0.00     0.151 C 
BRANCH   6   7
ATOM      7  C   UNL     1      99.354  82.866  79.976  1.00  0.00    -0.025 A 
ATOM      8  C   UNL     1      99.112  83.365  77.580  1.00  0.00     0.160 A 
ATOM      9  C   UNL     1      97.743  83.642  77.778  1.00  0.00     0.157 A 
ATOM     10  C   UNL     1      99.913  82.997  78.682  1.00  0.00     0.056 A 
ATOM     11  C   UNL     1      97.183  83.541  79.065  1.00  0.00     0.050 A 
ATOM     12  C   UNL     1      97.980  83.151  80.154  1.00  0.00     0.009 A 
BRANCH   8  13
ATOM     13  O   UNL     1      99.681  83.476  76.339  1.00  0.00    -0.493 OA
ATOM     14  C   UNL     1      99.902  82.212  75.684  1.00  0.00     0.278 C 
ENDBRANCH   8  13
BRANCH   9  15
ATOM     15  O   UNL     1      96.965  83.999  76.726  1.00  0.00    -0.504 OA
ATOM     16  H   UNL     1      97.454  84.594  76.153  1.00  0.00     0.293 HD
ENDBRANCH   9  15
ENDBRANCH   6   7
ENDBRANCH   3   6
ENDBRANCH   1   2
BRANCH   1  17
ATOM     17  C   UNL     1      97.316  82.896  84.978  1.00  0.00     0.010 C 
BRANCH  17  18
ATOM     18  C   UNL     1      96.793  84.274  84.488  1.00  0.00     0.001 C 
BRANCH  18  19
ATOM     19  C   UNL     1      96.984  85.410  85.528  1.00  0.00     0.000 C 
BRANCH  19  20
ATOM     20  C   UNL     1      95.642  85.825  86.199  1.00  0.00     0.003 C 
BRANCH  20  21
ATOM     21  C   UNL     1      95.312  85.078  87.532  1.00  0.00    -0.017 C 
ATOM     22  C   UNL     1      96.614  84.745  88.319  1.00  0.00     0.007 C 
ATOM     23  C   UNL     1      94.477  83.784  87.309  1.00  0.00     0.007 C 
ENDBRANCH  20  21
ENDBRANCH  19  20
ENDBRANCH  18  19
ENDBRANCH  17  18
ENDBRANCH   1  17
TORSDOF 10
ENDMDL
MODEL 3
REMARK VINA RESULT:    -5.732     20.556     22.941
REMARK INTER + INTRA:         -10.030
REMARK INTER:                  -9.436
REMARK INTRA:                  -0.594
REMARK UNBOUND:                -1.115
REMARK SMILES COc1cc(CNC(=O)CCCCCC(C)C)ccc1O
REMARK SMILES IDX 10 1 8 2 7 3 9 5 6 6 5 7 3 8 20 9 4 10 19 11 18 12 2 13 1 14
REMARK SMILES IDX 21 15 11 17 12 18 13 19 14 20 15 21 16 22 17 23
REMARK H PARENT 7 4 21 16
REMARK Flexibility Score: inf
ROOT
ATOM      1  C   UNL     1      93.984  99.484  74.307  1.00  0.00     0.100 C 
ENDROOT
BRANCH   1   2
ATOM      2  C   UNL     1      93.442 100.033  73.047  1.00  0.00     0.220 C 
ATOM      3  N   UNL     1      92.092 100.134  72.887  1.00  0.00    -0.352 N 
ATOM      4  H   UNL     1      91.544  99.693  73.612  1.00  0.00     0.163 HD
ATOM      5  O   UNL     1      94.239 100.434  72.164  1.00  0.00    -0.275 OA
BRANCH   3   6
ATOM      6  C   UNL     1      91.440 100.799  71.804  1.00  0.00     0.151 C 
BRANCH   6   7
ATOM      7  C   UNL     1      90.532  99.908  71.033  1.00  0.00    -0.025 A 
ATOM      8  C   UNL     1      89.074  99.512  69.093  1.00  0.00     0.160 A 
ATOM      9  C   UNL     1      88.855  98.189  69.530  1.00  0.00     0.157 A 
ATOM     10  C   UNL     1      89.896 100.369  69.856  1.00  0.00     0.056 A 
ATOM     11  C   UNL     1      89.461  97.728  70.714  1.00  0.00     0.050 A 
ATOM     12  C   UNL     1      90.297  98.579  71.457  1.00  0.00     0.009 A 
BRANCH   8  13
ATOM     13  O   UNL     1      88.478  99.986  67.954  1.00  0.00    -0.493 OA
ATOM     14  C   UNL     1      89.072 101.196  67.446  1.00  0.00     0.278 C 
ENDBRANCH   8  13
BRANCH   9  15
ATOM     15  O   UNL     1      88.065  97.358  68.805  1.00  0.00    -0.504 OA
ATOM     16  H   UNL     1      88.539  96.543  68.624  1.00  0.00     0.293 HD
ENDBRANCH   9  15
ENDBRANCH   6   7
ENDBRANCH   3   6
ENDBRANCH   1   2
BRANCH   1  17
ATOM     17  C   UNL     1      92.910  98.897  75.262  1.00  0.00     0.010 C 
BRANCH  17  18
ATOM     18  C   UNL     1      93.334  97.508  75.815  1.00  0.00     0.001 C 
BRANCH  18  19
ATOM     19  C   UNL     1      92.151  96.690  76.397  1.00  0.00     0.000 C 
BRANCH  19  20
ATOM     20  C   UNL     1      92.627  95.388  77.104  1.00  0.00     0.003 C 
BRANCH  20  21
ATOM     21  C   UNL     1      91.488  94.530  77.745  1.00  0.00    -0.017 C 
ATOM     22  C   UNL     1      91.470  93.093  77.145  1.00  0.00     0.007 C 
ATOM     23  C   UNL     1      90.084  95.186  77.602  1.00  0.00     0.007 C 
ENDBRANCH  20  21
ENDBRANCH  19  20
ENDBRANCH  18  19
ENDBRANCH  17  18
ENDBRANCH   1  17
TORSDOF 10
ENDMDL
MODEL 4
REMARK VINA RESULT:    -5.483      1.870      2.455
REMARK INTER + INTRA:          -9.644
REMARK INTER:                  -8.890
REMARK INTRA:                  -0.754
REMARK UNBOUND:                -1.115
REMARK SMILES COc1cc(CNC(=O)CCCCCC(C)C)ccc1O
REMARK SMILES IDX 10 1 8 2 7 3 9 5 6 6 5 7 3 8 20 9 4 10 19 11 18 12 2 13 1 14
REMARK SMILES IDX 21 15 11 17 12 18 13 19 14 20 15 21 16 22 17 23
REMARK H PARENT 7 4 21 16
REMARK Flexibility Score: inf
ROOT
ATOM      1  C   UNL     1      77.907  86.954  67.361  1.00  0.00     0.100 C 
ENDROOT
BRANCH   1   2
ATOM      2  C   UNL     1      78.005  85.496  67.581  1.00  0.00     0.220 C 
ATOM      3  N   UNL     1      77.395  84.645  66.709  1.00  0.00    -0.352 N 
ATOM      4  H   UNL     1      76.794  85.090  66.030  1.00  0.00     0.163 HD
ATOM      5  O   UNL     1      78.686  85.070  68.546  1.00  0.00    -0.275 OA
BRANCH   3   6
ATOM      6  C   UNL     1      77.551  83.225  66.701  1.00  0.00     0.151 C 
BRANCH   6   7
ATOM      7  C   UNL     1      76.395  82.514  66.091  1.00  0.00    -0.025 A 
ATOM      8  C   UNL     1      73.980  82.059  65.995  1.00  0.00     0.160 A 
ATOM      9  C   UNL     1      74.186  81.212  64.886  1.00  0.00     0.157 A 
ATOM     10  C   UNL     1      75.087  82.690  66.602  1.00  0.00     0.056 A 
ATOM     11  C   UNL     1      75.485  81.009  64.386  1.00  0.00     0.050 A 
ATOM     12  C   UNL     1      76.581  81.659  64.980  1.00  0.00     0.009 A 
BRANCH   8  13
ATOM     13  O   UNL     1      72.725  82.255  66.510  1.00  0.00    -0.493 OA
ATOM     14  C   UNL     1      72.455  83.620  66.883  1.00  0.00     0.278 C 
ENDBRANCH   8  13
BRANCH   9  15
ATOM     15  O   UNL     1      73.129  80.599  64.297  1.00  0.00    -0.504 OA
ATOM     16  H   UNL     1      73.169  79.656  64.469  1.00  0.00     0.293 HD
ENDBRANCH   9  15
ENDBRANCH   6   7
ENDBRANCH   3   6
ENDBRANCH   1   2
BRANCH   1  17
ATOM     17  C   UNL     1      76.525  87.429  66.837  1.00  0.00     0.010 C 
BRANCH  17  18
ATOM     18  C   UNL     1      75.723  88.179  67.936  1.00  0.00     0.001 C 
BRANCH  18  19
ATOM     19  C   UNL     1      76.356  88.063  69.348  1.00  0.00     0.000 C 
BRANCH  19  20
ATOM     20  C   UNL     1      75.406  87.364  70.363  1.00  0.00     0.003 C 
BRANCH  20  21
ATOM     21  C   UNL     1      74.426  88.320  71.117  1.00  0.00    -0.017 C 
ATOM     22  C   UNL     1      72.982  88.197  70.546  1.00  0.00     0.007 C 
ATOM     23  C   UNL     1      74.887  89.807  71.085  1.00  0.00     0.007 C 
ENDBRANCH  20  21
ENDBRANCH  19  20
ENDBRANCH  18  19
ENDBRANCH  17  18
ENDBRANCH   1  17
TORSDOF 10
ENDMDL
MODEL 5
REMARK VINA RESULT:    -5.459     24.084     26.871
REMARK INTER + INTRA:          -9.605
REMARK INTER:                  -8.262
REMARK INTRA:                  -1.343
REMARK UNBOUND:                -1.115
REMARK SMILES COc1cc(CNC(=O)CCCCCC(C)C)ccc1O
REMARK SMILES IDX 10 1 8 2 7 3 9 5 6 6 5 7 3 8 20 9 4 10 19 11 18 12 2 13 1 14
REMARK SMILES IDX 21 15 11 17 12 18 13 19 14 20 15 21 16 22 17 23
REMARK H PARENT 7 4 21 16
REMARK Flexibility Score: inf
ROOT
ATOM      1  C   UNL     1      95.887  94.431  82.330  1.00  0.00     0.100 C 
ENDROOT
BRANCH   1   2
ATOM      2  C   UNL     1      95.044  93.770  81.311  1.00  0.00     0.220 C 
ATOM      3  N   UNL     1      94.174  94.518  80.575  1.00  0.00    -0.352 N 
ATOM      4  H   UNL     1      94.074  95.476  80.879  1.00  0.00     0.163 HD
ATOM      5  O   UNL     1      95.177  92.538  81.116  1.00  0.00    -0.275 OA
BRANCH   3   6
ATOM      6  C   UNL     1      93.432  94.046  79.451  1.00  0.00     0.151 C 
BRANCH   6   7
ATOM      7  C   UNL     1      93.311  95.055  78.364  1.00  0.00    -0.025 A 
ATOM      8  C   UNL     1      94.334  96.383  76.564  1.00  0.00     0.160 A 
ATOM      9  C   UNL     1      93.070  96.927  76.251  1.00  0.00     0.157 A 
ATOM     10  C   UNL     1      94.450  95.465  77.630  1.00  0.00     0.056 A 
ATOM     11  C   UNL     1      91.936  96.547  76.992  1.00  0.00     0.050 A 
ATOM     12  C   UNL     1      92.054  95.614  78.037  1.00  0.00     0.009 A 
BRANCH   8  13
ATOM     13  O   UNL     1      95.454  96.754  75.868  1.00  0.00    -0.493 OA
ATOM     14  C   UNL     1      96.103  97.928  76.393  1.00  0.00     0.278 C 
ENDBRANCH   8  13
BRANCH   9  15
ATOM     15  O   UNL     1      92.948  97.812  75.230  1.00  0.00    -0.504 OA
ATOM     16  H   UNL     1      93.524  97.549  74.508  1.00  0.00     0.293 HD
ENDBRANCH   9  15
ENDBRANCH   6   7
ENDBRANCH   3   6
ENDBRANCH   1   2
BRANCH   1  17
ATOM     17  C   UNL     1      96.220  95.915  82.018  1.00  0.00     0.010 C 
BRANCH  17  18
ATOM     18  C   UNL     1      97.386  96.038  80.999  1.00  0.00     0.001 C 
BRANCH  18  19
ATOM     19  C   UNL     1      97.075  96.998  79.820  1.00  0.00     0.000 C 
BRANCH  19  20
ATOM     20  C   UNL     1      95.901  97.967  80.145  1.00  0.00     0.003 C 
BRANCH  20  21
ATOM     21  C   UNL     1      96.333  99.366  80.693  1.00  0.00    -0.017 C 
ATOM     22  C   UNL     1      95.742  99.613  82.112  1.00  0.00     0.007 C 
ATOM     23  C   UNL     1      95.943 100.535  79.741  1.00  0.00     0.007 C 
ENDBRANCH  20  21
ENDBRANCH  19  20
ENDBRANCH  18  19
ENDBRANCH  17  18
ENDBRANCH   1  17
TORSDOF 10
ENDMDL
MODEL 6
REMARK VINA RESULT:    -5.248     23.677     27.375
REMARK INTER + INTRA:          -9.277
REMARK INTER:                  -8.497
REMARK INTRA:                  -0.780
REMARK UNBOUND:                -1.115
REMARK SMILES COc1cc(CNC(=O)CCCCCC(C)C)ccc1O
REMARK SMILES IDX 10 1 8 2 7 3 9 5 6 6 5 7 3 8 20 9 4 10 19 11 18 12 2 13 1 14
REMARK SMILES IDX 21 15 11 17 12 18 13 19 14 20 15 21 16 22 17 23
REMARK H PARENT 7 4 21 16
REMARK Flexibility Score: inf
ROOT
ATOM      1  C   UNL     1      95.586  96.175  82.753  1.00  0.00     0.100 C 
ENDROOT
BRANCH   1   2
ATOM      2  C   UNL     1      95.650  95.257  81.597  1.00  0.00     0.220 C 
ATOM      3  N   UNL     1      94.557  94.508  81.275  1.00  0.00    -0.352 N 
ATOM      4  H   UNL     1      93.806  94.542  81.950  1.00  0.00     0.163 HD
ATOM      5  O   UNL     1      96.698  95.217  80.908  1.00  0.00    -0.275 OA
BRANCH   3   6
ATOM      6  C   UNL     1      94.421  93.717  80.094  1.00  0.00     0.151 C 
BRANCH   6   7
ATOM      7  C   UNL     1      93.925  94.493  78.926  1.00  0.00    -0.025 A 
ATOM      8  C   UNL     1      92.132  95.752  77.808  1.00  0.00     0.160 A 
ATOM      9  C   UNL     1      93.000  96.026  76.730  1.00  0.00     0.157 A 
ATOM     10  C   UNL     1      92.594  94.971  78.890  1.00  0.00     0.056 A 
ATOM     11  C   UNL     1      94.318  95.532  76.743  1.00  0.00     0.050 A 
ATOM     12  C   UNL     1      94.779  94.776  77.834  1.00  0.00     0.009 A 
BRANCH   8  13
ATOM     13  O   UNL     1      90.840  96.206  77.806  1.00  0.00    -0.493 OA
ATOM     14  C   UNL     1      89.873  95.209  77.425  1.00  0.00     0.278 C 
ENDBRANCH   8  13
BRANCH   9  15
ATOM     15  O   UNL     1      92.566  96.773  75.684  1.00  0.00    -0.504 OA
ATOM     16  H   UNL     1      92.310  96.195  74.962  1.00  0.00     0.293 HD
ENDBRANCH   9  15
ENDBRANCH   6   7
ENDBRANCH   3   6
ENDBRANCH   1   2
BRANCH   1  17
ATOM     17  C   UNL     1      94.809  97.491  82.480  1.00  0.00     0.010 C 
BRANCH  17  18
ATOM     18  C   UNL     1      95.659  98.742  82.836  1.00  0.00     0.001 C 
BRANCH  18  19
ATOM     19  C   UNL     1      96.725  98.472  83.931  1.00  0.00     0.000 C 
BRANCH  19  20
ATOM     20  C   UNL     1      96.238  98.903  85.345  1.00  0.00     0.003 C 
BRANCH  20  21
ATOM     21  C   UNL     1      96.677  97.958  86.510  1.00  0.00    -0.017 C 
ATOM     22  C   UNL     1      95.861  98.255  87.803  1.00  0.00     0.007 C 
ATOM     23  C   UNL     1      98.202  98.037  86.812  1.00  0.00     0.007 C 
ENDBRANCH  20  21
ENDBRANCH  19  20
ENDBRANCH  18  19
ENDBRANCH  17  18
ENDBRANCH   1  17
TORSDOF 10
ENDMDL
MODEL 7
REMARK VINA RESULT:    -5.208     23.708     27.112
REMARK INTER + INTRA:          -9.215
REMARK INTER:                  -7.745
REMARK INTRA:                  -1.470
REMARK UNBOUND:                -1.115
REMARK SMILES COc1cc(CNC(=O)CCCCCC(C)C)ccc1O
REMARK SMILES IDX 10 1 8 2 7 3 9 5 6 6 5 7 3 8 20 9 4 10 19 11 18 12 2 13 1 14
REMARK SMILES IDX 21 15 11 17 12 18 13 19 14 20 15 21 16 22 17 23
REMARK H PARENT 7 4 21 16
REMARK Flexibility Score: inf
ROOT
ATOM      1  C   UNL     1      96.659  96.226  82.577  1.00  0.00     0.100 C 
ENDROOT
BRANCH   1   2
ATOM      2  C   UNL     1      96.705  95.387  81.361  1.00  0.00     0.220 C 
ATOM      3  N   UNL     1      95.791  94.389  81.201  1.00  0.00    -0.352 N 
ATOM      4  H   UNL     1      95.214  94.208  82.010  1.00  0.00     0.163 HD
ATOM      5  O   UNL     1      97.562  95.640  80.479  1.00  0.00    -0.275 OA
BRANCH   3   6
ATOM      6  C   UNL     1      95.612  93.622  80.010  1.00  0.00     0.151 C 
BRANCH   6   7
ATOM      7  C   UNL     1      94.513  94.132  79.147  1.00  0.00    -0.025 A 
ATOM      8  C   UNL     1      93.749  95.119  77.028  1.00  0.00     0.160 A 
ATOM      9  C   UNL     1      92.413  95.041  77.476  1.00  0.00     0.157 A 
ATOM     10  C   UNL     1      94.791  94.682  77.873  1.00  0.00     0.056 A 
ATOM     11  C   UNL     1      92.127  94.520  78.751  1.00  0.00     0.050 A 
ATOM     12  C   UNL     1      93.167  94.064  79.578  1.00  0.00     0.009 A 
BRANCH   8  13
ATOM     13  O   UNL     1      94.050  95.641  75.797  1.00  0.00    -0.493 OA
ATOM     14  C   UNL     1      95.013  96.712  75.839  1.00  0.00     0.278 C 
ENDBRANCH   8  13
BRANCH   9  15
ATOM     15  O   UNL     1      91.404  95.461  76.672  1.00  0.00    -0.504 OA
ATOM     16  H   UNL     1      91.555  95.147  75.778  1.00  0.00     0.293 HD
ENDBRANCH   9  15
ENDBRANCH   6   7
ENDBRANCH   3   6
ENDBRANCH   1   2
BRANCH   1  17
ATOM     17  C   UNL     1      95.225  96.580  83.053  1.00  0.00     0.010 C 
BRANCH  17  18
ATOM     18  C   UNL     1      94.747  97.939  82.470  1.00  0.00     0.001 C 
BRANCH  18  19
ATOM     19  C   UNL     1      95.841  99.039  82.496  1.00  0.00     0.000 C 
BRANCH  19  20
ATOM     20  C   UNL     1      95.792  99.947  81.233  1.00  0.00     0.003 C 
BRANCH  20  21
ATOM     21  C   UNL     1      96.796  99.554  80.100  1.00  0.00    -0.017 C 
ATOM     22  C   UNL     1      96.171  98.492  79.148  1.00  0.00     0.007 C 
ATOM     23  C   UNL     1      98.159  99.042  80.650  1.00  0.00     0.007 C 
ENDBRANCH  20  21
ENDBRANCH  19  20
ENDBRANCH  18  19
ENDBRANCH  17  18
ENDBRANCH   1  17
TORSDOF 10
ENDMDL
MODEL 8
REMARK VINA RESULT:    -5.188     23.047     26.842
REMARK INTER + INTRA:          -9.184
REMARK INTER:                  -7.745
REMARK INTRA:                  -1.439
REMARK UNBOUND:                -1.115
REMARK SMILES COc1cc(CNC(=O)CCCCCC(C)C)ccc1O
REMARK SMILES IDX 10 1 8 2 7 3 9 5 6 6 5 7 3 8 20 9 4 10 19 11 18 12 2 13 1 14
REMARK SMILES IDX 21 15 11 17 12 18 13 19 14 20 15 21 16 22 17 23
REMARK H PARENT 7 4 21 16
REMARK Flexibility Score: inf
ROOT
ATOM      1  C   UNL     1      96.426  96.175  82.742  1.00  0.00     0.100 C 
ENDROOT
BRANCH   1   2
ATOM      2  C   UNL     1      96.360  95.174  81.657  1.00  0.00     0.220 C 
ATOM      3  N   UNL     1      95.274  94.356  81.566  1.00  0.00    -0.352 N 
ATOM      4  H   UNL     1      94.635  94.409  82.346  1.00  0.00     0.163 HD
ATOM      5  O   UNL     1      97.290  95.126  80.815  1.00  0.00    -0.275 OA
BRANCH   3   6
ATOM      6  C   UNL     1      95.001  93.471  80.479  1.00  0.00     0.151 C 
BRANCH   6   7
ATOM      7  C   UNL     1      94.272  94.127  79.360  1.00  0.00    -0.025 A 
ATOM      8  C   UNL     1      92.160  94.772  78.278  1.00  0.00     0.160 A 
ATOM      9  C   UNL     1      92.884  95.434  77.264  1.00  0.00     0.157 A 
ATOM     10  C   UNL     1      92.858  94.107  79.309  1.00  0.00     0.056 A 
ATOM     11  C   UNL     1      94.290  95.438  77.291  1.00  0.00     0.050 A 
ATOM     12  C   UNL     1      94.979  94.795  78.333  1.00  0.00     0.009 A 
BRANCH   8  13
ATOM     13  O   UNL     1      90.790  94.739  78.260  1.00  0.00    -0.493 OA
ATOM     14  C   UNL     1      90.235  93.438  78.532  1.00  0.00     0.278 C 
ENDBRANCH   8  13
BRANCH   9  15
ATOM     15  O   UNL     1      92.222  96.075  76.268  1.00  0.00    -0.504 OA
ATOM     16  H   UNL     1      92.677  95.928  75.436  1.00  0.00     0.293 HD
ENDBRANCH   9  15
ENDBRANCH   6   7
ENDBRANCH   3   6
ENDBRANCH   1   2
BRANCH   1  17
ATOM     17  C   UNL     1      95.045  96.735  83.178  1.00  0.00     0.010 C 
BRANCH  17  18
ATOM     18  C   UNL     1      94.721  98.078  82.467  1.00  0.00     0.001 C 
BRANCH  18  19
ATOM     19  C   UNL     1      95.949  99.018  82.337  1.00  0.00     0.000 C 
BRANCH  19  20
ATOM     20  C   UNL     1      96.004  99.725  80.952  1.00  0.00     0.003 C 
BRANCH  20  21
ATOM     21  C   UNL     1      97.031  99.118  79.942  1.00  0.00    -0.017 C 
ATOM     22  C   UNL     1      96.356  98.039  79.044  1.00  0.00     0.007 C 
ATOM     23  C   UNL     1      98.287  98.521  80.641  1.00  0.00     0.007 C 
ENDBRANCH  20  21
ENDBRANCH  19  20
ENDBRANCH  18  19
ENDBRANCH  17  18
ENDBRANCH   1  17
TORSDOF 10
ENDMDL
MODEL 9
REMARK VINA RESULT:    -5.111     15.257     18.604
REMARK INTER + INTRA:          -9.064
REMARK INTER:                  -8.355
REMARK INTRA:                  -0.709
REMARK UNBOUND:                -1.115
REMARK SMILES COc1cc(CNC(=O)CCCCCC(C)C)ccc1O
REMARK SMILES IDX 10 1 8 2 7 3 9 5 6 6 5 7 3 8 20 9 4 10 19 11 18 12 2 13 1 14
REMARK SMILES IDX 21 15 11 17 12 18 13 19 14 20 15 21 16 22 17 23
REMARK H PARENT 7 4 21 16
REMARK Flexibility Score: inf
ROOT
ATOM      1  C   UNL     1      57.929  88.181  70.623  1.00  0.00     0.100 C 
ENDROOT
BRANCH   1   2
ATOM      2  C   UNL     1      59.006  87.170  70.590  1.00  0.00     0.220 C 
ATOM      3  N   UNL     1      58.964  86.118  71.457  1.00  0.00    -0.352 N 
ATOM      4  H   UNL     1      58.247  86.180  72.165  1.00  0.00     0.163 HD
ATOM      5  O   UNL     1      59.918  87.279  69.734  1.00  0.00    -0.275 OA
BRANCH   3   6
ATOM      6  C   UNL     1      59.835  84.988  71.420  1.00  0.00     0.151 C 
BRANCH   6   7
ATOM      7  C   UNL     1      60.400  84.642  72.752  1.00  0.00    -0.025 A 
ATOM      8  C   UNL     1      61.542  83.047  74.236  1.00  0.00     0.160 A 
ATOM      9  C   UNL     1      61.535  84.007  75.270  1.00  0.00     0.157 A 
ATOM     10  C   UNL     1      60.958  83.363  72.990  1.00  0.00     0.056 A 
ATOM     11  C   UNL     1      60.959  85.272  75.052  1.00  0.00     0.050 A 
ATOM     12  C   UNL     1      60.401  85.590  73.803  1.00  0.00     0.009 A 
BRANCH   8  13
ATOM     13  O   UNL     1      62.080  81.802  74.433  1.00  0.00    -0.493 OA
ATOM     14  C   UNL     1      63.196  81.508  73.570  1.00  0.00     0.278 C 
ENDBRANCH   8  13
BRANCH   9  15
ATOM     15  O   UNL     1      62.091  83.712  76.471  1.00  0.00    -0.504 OA
ATOM     16  H   UNL     1      62.803  83.080  76.348  1.00  0.00     0.293 HD
ENDBRANCH   9  15
ENDBRANCH   6   7
ENDBRANCH   3   6
ENDBRANCH   1   2
BRANCH   1  17
ATOM     17  C   UNL     1      57.555  88.760  69.232  1.00  0.00     0.010 C 
BRANCH  17  18
ATOM     18  C   UNL     1      56.132  89.383  69.235  1.00  0.00     0.001 C 
BRANCH  18  19
ATOM     19  C   UNL     1      55.720  89.987  67.867  1.00  0.00     0.000 C 
BRANCH  19  20
ATOM     20  C   UNL     1      54.374  89.406  67.347  1.00  0.00     0.003 C 
BRANCH  20  21
ATOM     21  C   UNL     1      54.512  88.262  66.291  1.00  0.00    -0.017 C 
ATOM     22  C   UNL     1      54.399  86.864  66.967  1.00  0.00     0.007 C 
ATOM     23  C   UNL     1      55.832  88.353  65.471  1.00  0.00     0.007 C 
ENDBRANCH  20  21
ENDBRANCH  19  20
ENDBRANCH  18  19
ENDBRANCH  17  18
ENDBRANCH   1  17
TORSDOF 10
ENDMDL
MODEL 10
REMARK VINA RESULT:    -4.985      4.395      8.254
REMARK INTER + INTRA:          -8.868
REMARK INTER:                  -8.264
REMARK INTRA:                  -0.603
REMARK UNBOUND:                -1.115
REMARK SMILES COc1cc(CNC(=O)CCCCCC(C)C)ccc1O
REMARK SMILES IDX 10 1 8 2 7 3 9 5 6 6 5 7 3 8 20 9 4 10 19 11 18 12 2 13 1 14
REMARK SMILES IDX 21 15 11 17 12 18 13 19 14 20 15 21 16 22 17 23
REMARK H PARENT 7 4 21 16
REMARK Flexibility Score: inf
ROOT
ATOM      1  C   UNL     1      77.353  85.486  67.558  1.00  0.00     0.100 C 
ENDROOT
BRANCH   1   2
ATOM      2  C   UNL     1      76.915  85.775  68.939  1.00  0.00     0.220 C 
ATOM      3  N   UNL     1      75.697  86.348  69.150  1.00  0.00    -0.352 N 
ATOM      4  H   UNL     1      75.225  86.662  68.314  1.00  0.00     0.163 HD
ATOM      5  O   UNL     1      77.659  85.445  69.895  1.00  0.00    -0.275 OA
BRANCH   3   6
ATOM      6  C   UNL     1      75.079  86.522  70.425  1.00  0.00     0.151 C 
BRANCH   6   7
ATOM      7  C   UNL     1      74.871  87.950  70.784  1.00  0.00    -0.025 A 
ATOM      8  C   UNL     1      73.590  89.689  71.960  1.00  0.00     0.160 A 
ATOM      9  C   UNL     1      74.513  90.662  71.523  1.00  0.00     0.157 A 
ATOM     10  C   UNL     1      73.764  88.343  71.573  1.00  0.00     0.056 A 
ATOM     11  C   UNL     1      75.603  90.287  70.716  1.00  0.00     0.050 A 
ATOM     12  C   UNL     1      75.784  88.941  70.354  1.00  0.00     0.009 A 
BRANCH   8  13
ATOM     13  O   UNL     1      72.511  90.036  72.730  1.00  0.00    -0.493 OA
ATOM     14  C   UNL     1      71.247  89.914  72.049  1.00  0.00     0.278 C 
ENDBRANCH   8  13
BRANCH   9  15
ATOM     15  O   UNL     1      74.353  91.959  71.888  1.00  0.00    -0.504 OA
ATOM     16  H   UNL     1      74.145  92.486  71.113  1.00  0.00     0.293 HD
ENDBRANCH   9  15
ENDBRANCH   6   7
ENDBRANCH   3   6
ENDBRANCH   1   2
BRANCH   1  17
ATOM     17  C   UNL     1      78.067  84.118  67.387  1.00  0.00     0.010 C 
BRANCH  17  18
ATOM     18  C   UNL     1      77.871  83.545  65.956  1.00  0.00     0.001 C 
BRANCH  18  19
ATOM     19  C   UNL     1      77.240  82.128  65.941  1.00  0.00     0.000 C 
BRANCH  19  20
ATOM     20  C   UNL     1      75.700  82.166  66.161  1.00  0.00     0.003 C 
BRANCH  20  21
ATOM     21  C   UNL     1      74.843  81.910  64.879  1.00  0.00    -0.017 C 
ATOM     22  C   UNL     1      73.550  81.114  65.225  1.00  0.00     0.007 C 
ATOM     23  C   UNL     1      75.637  81.177  63.758  1.00  0.00     0.007 C 
ENDBRANCH  20  21
ENDBRANCH  19  20
ENDBRANCH  18  19
ENDBRANCH  17  18
ENDBRANCH   1  17
TORSDOF 10
ENDMDL
