MODEL 1
REMARK VINA RESULT:    -5.581      0.000      0.000
REMARK INTER + INTRA:         -10.740
REMARK INTER:                  -9.170
REMARK INTRA:                  -1.570
REMARK UNBOUND:                -1.570
REMARK SMILES CCCCC[C@H](O)CC(=O)CCc1ccc(O)c(OC)c1
REMARK SMILES IDX 8 1 6 2 7 3 5 5 4 6 3 7 2 8 1 9 9 10 10 11 11 12 12 13 13 14
REMARK SMILES IDX 21 15 14 16 18 17 15 18 16 19 19 20 20 21 17 22
REMARK H PARENT 7 4 17 23
REMARK Flexibility Score: inf
ROOT
ATOM      1  C   UNL     1      96.146  95.177  82.090  1.00  0.00     0.107 C 
ENDROOT
BRANCH   1   2
ATOM      2  C   UNL     1      95.447  96.207  82.980  1.00  0.00     0.121 C 
BRANCH   2   3
ATOM      3  O   UNL     1      96.395  96.809  83.859  1.00  0.00    -0.393 OA
ATOM      4  H   UNL     1      96.370  96.322  84.701  1.00  0.00     0.210 HD
ENDBRANCH   2   3
BRANCH   2   5
ATOM      5  C   UNL     1      94.732  97.304  82.181  1.00  0.00     0.032 C 
BRANCH   5   6
ATOM      6  C   UNL     1      95.281  97.428  80.754  1.00  0.00     0.003 C 
BRANCH   6   7
ATOM      7  C   UNL     1      96.508  98.340  80.654  1.00  0.00    -0.000 C 
BRANCH   7   8
ATOM      8  C   UNL     1      97.555  97.849  79.655  1.00  0.00    -0.003 C 
ATOM      9  C   UNL     1      98.789  97.313  80.364  1.00  0.00     0.004 C 
ENDBRANCH   7   8
ENDBRANCH   6   7
ENDBRANCH   5   6
ENDBRANCH   2   5
ENDBRANCH   1   2
BRANCH   1  10
ATOM     10  C   UNL     1      95.403  93.853  82.015  1.00  0.00     0.135 C 
ATOM     11  O   UNL     1      94.793  93.414  82.990  1.00  0.00    -0.300 OA
BRANCH  10  12
ATOM     12  C   UNL     1      95.418  93.137  80.674  1.00  0.00     0.080 C 
BRANCH  12  13
ATOM     13  C   UNL     1      95.702  94.060  79.487  1.00  0.00     0.043 C 
BRANCH  13  14
ATOM     14  C   UNL     1      94.449  94.508  78.773  1.00  0.00    -0.044 A 
ATOM     15  C   UNL     1      94.544  95.248  77.595  1.00  0.00     0.054 A 
ATOM     16  C   UNL     1      93.196  94.181  79.292  1.00  0.00     0.008 A 
ATOM     17  C   UNL     1      93.386  95.661  76.935  1.00  0.00     0.160 A 
ATOM     18  C   UNL     1      92.038  94.593  78.633  1.00  0.00     0.050 A 
ATOM     19  C   UNL     1      92.133  95.334  77.455  1.00  0.00     0.157 A 
BRANCH  17  20
ATOM     20  O   UNL     1      93.491  96.384  75.786  1.00  0.00    -0.493 OA
ATOM     21  C   UNL     1      94.806  96.601  75.275  1.00  0.00     0.278 C 
ENDBRANCH  17  20
BRANCH  19  22
ATOM     22  O   UNL     1      90.995  95.731  76.820  1.00  0.00    -0.504 OA
ATOM     23  H   UNL     1      90.605  96.477  77.307  1.00  0.00     0.293 HD
ENDBRANCH  19  22
ENDBRANCH  13  14
ENDBRANCH  12  13
ENDBRANCH  10  12
ENDBRANCH   1  10
TORSDOF 12
ENDMDL
MODEL 2
REMARK VINA RESULT:    -5.426      2.296      7.017
REMARK INTER + INTRA:         -10.485
REMARK INTER:                  -9.449
REMARK INTRA:                  -1.036
REMARK UNBOUND:                -1.570
REMARK SMILES CCCCC[C@H](O)CC(=O)CCc1ccc(O)c(OC)c1
REMARK SMILES IDX 8 1 6 2 7 3 5 5 4 6 3 7 2 8 1 9 9 10 10 11 11 12 12 13 13 14
REMARK SMILES IDX 21 15 14 16 18 17 15 18 16 19 19 20 20 21 17 22
REMARK H PARENT 7 4 17 23
REMARK Flexibility Score: inf
ROOT
ATOM      1  C   UNL     1      95.032  94.269  79.418  1.00  0.00     0.107 C 
ENDROOT
BRANCH   1   2
ATOM      2  C   UNL     1      93.557  94.203  79.013  1.00  0.00     0.121 C 
BRANCH   2   3
ATOM      3  O   UNL     1      92.791  93.633  80.072  1.00  0.00    -0.393 OA
ATOM      4  H   UNL     1      92.064  94.247  80.277  1.00  0.00     0.210 HD
ENDBRANCH   2   3
BRANCH   2   5
ATOM      5  C   UNL     1      92.973  95.573  78.648  1.00  0.00     0.032 C 
BRANCH   5   6
ATOM      6  C   UNL     1      92.105  95.511  77.385  1.00  0.00     0.003 C 
BRANCH   6   7
ATOM      7  C   UNL     1      90.671  96.000  77.610  1.00  0.00    -0.000 C 
BRANCH   7   8
ATOM      8  C   UNL     1      89.609  94.950  77.289  1.00  0.00    -0.003 C 
ATOM      9  C   UNL     1      89.775  93.711  78.155  1.00  0.00     0.004 C 
ENDBRANCH   7   8
ENDBRANCH   6   7
ENDBRANCH   5   6
ENDBRANCH   2   5
ENDBRANCH   1   2
BRANCH   1  10
ATOM     10  C   UNL     1      95.284  93.773  80.833  1.00  0.00     0.135 C 
ATOM     11  O   UNL     1      95.154  92.583  81.118  1.00  0.00    -0.300 OA
BRANCH  10  12
ATOM     12  C   UNL     1      95.745  94.809  81.847  1.00  0.00     0.080 C 
BRANCH  12  13
ATOM     13  C   UNL     1      95.431  96.250  81.440  1.00  0.00     0.043 C 
BRANCH  13  14
ATOM     14  C   UNL     1      95.722  97.250  82.534  1.00  0.00    -0.044 A 
ATOM     15  C   UNL     1      96.460  96.865  83.653  1.00  0.00     0.054 A 
ATOM     16  C   UNL     1      95.253  98.559  82.423  1.00  0.00     0.008 A 
ATOM     17  C   UNL     1      96.728  97.791  84.662  1.00  0.00     0.160 A 
ATOM     18  C   UNL     1      95.521  99.485  83.432  1.00  0.00     0.050 A 
ATOM     19  C   UNL     1      96.259  99.100  84.551  1.00  0.00     0.157 A 
BRANCH  17  20
ATOM     20  O   UNL     1      97.449  97.403  85.751  1.00  0.00    -0.493 OA
ATOM     21  C   UNL     1      98.751  96.870  85.511  1.00  0.00     0.278 C 
ENDBRANCH  17  20
BRANCH  19  22
ATOM     22  O   UNL     1      96.515 100.012  85.530  1.00  0.00    -0.504 OA
ATOM     23  H   UNL     1      96.983  99.571  86.260  1.00  0.00     0.293 HD
ENDBRANCH  19  22
ENDBRANCH  13  14
ENDBRANCH  12  13
ENDBRANCH  10  12
ENDBRANCH   1  10
TORSDOF 12
ENDMDL
MODEL 3
REMARK VINA RESULT:    -5.198      2.214      5.102
REMARK INTER + INTRA:         -10.110
REMARK INTER:                  -8.491
REMARK INTRA:                  -1.619
REMARK UNBOUND:                -1.570
REMARK SMILES CCCCC[C@H](O)CC(=O)CCc1ccc(O)c(OC)c1
REMARK SMILES IDX 8 1 6 2 7 3 5 5 4 6 3 7 2 8 1 9 9 10 10 11 11 12 12 13 13 14
REMARK SMILES IDX 21 15 14 16 18 17 15 18 16 19 19 20 20 21 17 22
REMARK H PARENT 7 4 17 23
REMARK Flexibility Score: inf
ROOT
ATOM      1  C   UNL     1      95.316  93.803  79.799  1.00  0.00     0.107 C 
ENDROOT
BRANCH   1   2
ATOM      2  C   UNL     1      93.894  94.077  79.302  1.00  0.00     0.121 C 
BRANCH   2   3
ATOM      3  O   UNL     1      92.948  93.531  80.219  1.00  0.00    -0.393 OA
ATOM      4  H   UNL     1      93.426  93.292  81.032  1.00  0.00     0.210 HD
ENDBRANCH   2   3
BRANCH   2   5
ATOM      5  C   UNL     1      93.604  95.571  79.108  1.00  0.00     0.032 C 
BRANCH   5   6
ATOM      6  C   UNL     1      92.891  95.851  77.779  1.00  0.00     0.003 C 
BRANCH   6   7
ATOM      7  C   UNL     1      92.631  94.588  76.952  1.00  0.00    -0.000 C 
BRANCH   7   8
ATOM      8  C   UNL     1      91.155  94.206  76.865  1.00  0.00    -0.003 C 
ATOM      9  C   UNL     1      90.279  95.203  77.608  1.00  0.00     0.004 C 
ENDBRANCH   7   8
ENDBRANCH   6   7
ENDBRANCH   5   6
ENDBRANCH   2   5
ENDBRANCH   1   2
BRANCH   1  10
ATOM     10  C   UNL     1      95.484  94.049  81.289  1.00  0.00     0.135 C 
ATOM     11  O   UNL     1      94.909  93.342  82.116  1.00  0.00    -0.300 OA
BRANCH  10  12
ATOM     12  C   UNL     1      96.427  95.173  81.692  1.00  0.00     0.080 C 
BRANCH  12  13
ATOM     13  C   UNL     1      97.168  95.806  80.513  1.00  0.00     0.043 C 
BRANCH  13  14
ATOM     14  C   UNL     1      96.747  97.232  80.247  1.00  0.00    -0.044 A 
ATOM     15  C   UNL     1      96.598  97.682  78.936  1.00  0.00     0.054 A 
ATOM     16  C   UNL     1      96.508  98.099  81.314  1.00  0.00     0.008 A 
ATOM     17  C   UNL     1      96.208  98.999  78.691  1.00  0.00     0.160 A 
ATOM     18  C   UNL     1      96.119  99.416  81.070  1.00  0.00     0.050 A 
ATOM     19  C   UNL     1      95.969  99.866  79.758  1.00  0.00     0.157 A 
BRANCH  17  20
ATOM     20  O   UNL     1      96.066  99.428  77.406  1.00  0.00    -0.493 OA
ATOM     21  C   UNL     1      95.110  98.744  76.597  1.00  0.00     0.278 C 
ENDBRANCH  17  20
BRANCH  19  22
ATOM     22  O   UNL     1      95.588 101.154  79.532  1.00  0.00    -0.504 OA
ATOM     23  H   UNL     1      96.382 101.702  79.407  1.00  0.00     0.293 HD
ENDBRANCH  19  22
ENDBRANCH  13  14
ENDBRANCH  12  13
ENDBRANCH  10  12
ENDBRANCH   1  10
TORSDOF 12
ENDMDL
MODEL 4
REMARK VINA RESULT:    -5.162     24.051     27.851
REMARK INTER + INTRA:         -10.052
REMARK INTER:                  -8.944
REMARK INTRA:                  -1.108
REMARK UNBOUND:                -1.570
REMARK SMILES CCCCC[C@H](O)CC(=O)CCc1ccc(O)c(OC)c1
REMARK SMILES IDX 8 1 6 2 7 3 5 5 4 6 3 7 2 8 1 9 9 10 10 11 11 12 12 13 13 14
REMARK SMILES IDX 21 15 14 16 18 17 15 18 16 19 19 20 20 21 17 22
REMARK H PARENT 7 4 17 23
REMARK Flexibility Score: inf
ROOT
ATOM      1  C   UNL     1      73.883  81.822  64.619  1.00  0.00     0.107 C 
ENDROOT
BRANCH   1   2
ATOM      2  C   UNL     1      73.064  80.551  64.377  1.00  0.00     0.121 C 
BRANCH   2   3
ATOM      3  O   UNL     1      72.383  80.179  65.572  1.00  0.00    -0.393 OA
ATOM      4  H   UNL     1      71.695  80.846  65.743  1.00  0.00     0.210 HD
ENDBRANCH   2   3
BRANCH   2   5
ATOM      5  C   UNL     1      72.045  80.702  63.241  1.00  0.00     0.032 C 
BRANCH   5   6
ATOM      6  C   UNL     1      71.608  82.159  63.048  1.00  0.00     0.003 C 
BRANCH   6   7
ATOM      7  C   UNL     1      70.239  82.468  63.663  1.00  0.00    -0.000 C 
BRANCH   7   8
ATOM      8  C   UNL     1      70.278  83.568  64.722  1.00  0.00    -0.003 C 
ATOM      9  C   UNL     1      70.435  82.988  66.119  1.00  0.00     0.004 C 
ENDBRANCH   7   8
ENDBRANCH   6   7
ENDBRANCH   5   6
ENDBRANCH   2   5
ENDBRANCH   1   2
BRANCH   1  10
ATOM     10  C   UNL     1      75.195  81.557  65.339  1.00  0.00     0.135 C 
ATOM     11  O   UNL     1      75.211  81.035  66.454  1.00  0.00    -0.300 OA
BRANCH  10  12
ATOM     12  C   UNL     1      76.468  81.925  64.593  1.00  0.00     0.080 C 
BRANCH  12  13
ATOM     13  C   UNL     1      76.673  83.433  64.435  1.00  0.00     0.043 C 
BRANCH  13  14
ATOM     14  C   UNL     1      77.227  84.089  65.677  1.00  0.00    -0.044 A 
ATOM     15  C   UNL     1      77.149  85.473  65.829  1.00  0.00     0.054 A 
ATOM     16  C   UNL     1      77.817  83.310  66.673  1.00  0.00     0.008 A 
ATOM     17  C   UNL     1      77.660  86.078  66.978  1.00  0.00     0.160 A 
ATOM     18  C   UNL     1      78.328  83.915  67.821  1.00  0.00     0.050 A 
ATOM     19  C   UNL     1      78.250  85.299  67.973  1.00  0.00     0.157 A 
BRANCH  17  20
ATOM     20  O   UNL     1      77.578  87.431  67.115  1.00  0.00    -0.493 OA
ATOM     21  C   UNL     1      76.277  88.012  67.047  1.00  0.00     0.278 C 
ENDBRANCH  17  20
BRANCH  19  22
ATOM     22  O   UNL     1      78.753  85.878  69.099  1.00  0.00    -0.504 OA
ATOM     23  H   UNL     1      78.532  85.323  69.866  1.00  0.00     0.293 HD
ENDBRANCH  19  22
ENDBRANCH  13  14
ENDBRANCH  12  13
ENDBRANCH  10  12
ENDBRANCH   1  10
TORSDOF 12
ENDMDL
MODEL 5
REMARK VINA RESULT:    -5.076     22.529     25.921
REMARK INTER + INTRA:          -9.910
REMARK INTER:                  -7.979
REMARK INTRA:                  -1.931
REMARK UNBOUND:                -1.570
REMARK SMILES CCCCC[C@H](O)CC(=O)CCc1ccc(O)c(OC)c1
REMARK SMILES IDX 8 1 6 2 7 3 5 5 4 6 3 7 2 8 1 9 9 10 10 11 11 12 12 13 13 14
REMARK SMILES IDX 21 15 14 16 18 17 15 18 16 19 19 20 20 21 17 22
REMARK H PARENT 7 4 17 23
REMARK Flexibility Score: inf
ROOT
ATOM      1  C   UNL     1      76.309  87.016  69.903  1.00  0.00     0.107 C 
ENDROOT
BRANCH   1   2
ATOM      2  C   UNL     1      77.722  86.761  69.371  1.00  0.00     0.121 C 
BRANCH   2   3
ATOM      3  O   UNL     1      78.319  85.680  70.083  1.00  0.00    -0.393 OA
ATOM      4  H   UNL     1      79.161  85.997  70.454  1.00  0.00     0.210 HD
ENDBRANCH   2   3
BRANCH   2   5
ATOM      5  C   UNL     1      77.751  86.454  67.869  1.00  0.00     0.032 C 
BRANCH   5   6
ATOM      6  C   UNL     1      77.163  87.598  67.034  1.00  0.00     0.003 C 
BRANCH   6   7
ATOM      7  C   UNL     1      77.359  87.413  65.526  1.00  0.00    -0.000 C 
BRANCH   7   8
ATOM      8  C   UNL     1      76.128  86.857  64.813  1.00  0.00    -0.003 C 
ATOM      9  C   UNL     1      76.455  85.580  64.055  1.00  0.00     0.004 C 
ENDBRANCH   7   8
ENDBRANCH   6   7
ENDBRANCH   5   6
ENDBRANCH   2   5
ENDBRANCH   1   2
BRANCH   1  10
ATOM     10  C   UNL     1      75.471  85.752  69.996  1.00  0.00     0.135 C 
ATOM     11  O   UNL     1      75.875  84.769  70.616  1.00  0.00    -0.300 OA
BRANCH  10  12
ATOM     12  C   UNL     1      74.105  85.789  69.327  1.00  0.00     0.080 C 
BRANCH  12  13
ATOM     13  C   UNL     1      74.169  85.808  67.799  1.00  0.00     0.043 C 
BRANCH  13  14
ATOM     14  C   UNL     1      74.165  84.426  67.189  1.00  0.00    -0.044 A 
ATOM     15  C   UNL     1      72.963  83.841  66.792  1.00  0.00     0.054 A 
ATOM     16  C   UNL     1      75.366  83.735  67.023  1.00  0.00     0.008 A 
ATOM     17  C   UNL     1      72.961  82.565  66.228  1.00  0.00     0.160 A 
ATOM     18  C   UNL     1      75.364  82.459  66.459  1.00  0.00     0.050 A 
ATOM     19  C   UNL     1      74.161  81.874  66.062  1.00  0.00     0.157 A 
BRANCH  17  20
ATOM     20  O   UNL     1      71.780  82.004  65.845  1.00  0.00    -0.493 OA
ATOM     21  C   UNL     1      71.039  82.683  64.832  1.00  0.00     0.278 C 
ENDBRANCH  17  20
BRANCH  19  22
ATOM     22  O   UNL     1      74.172  80.628  65.513  1.00  0.00    -0.504 OA
ATOM     23  H   UNL     1      74.004  80.701  64.557  1.00  0.00     0.293 HD
ENDBRANCH  19  22
ENDBRANCH  13  14
ENDBRANCH  12  13
ENDBRANCH  10  12
ENDBRANCH   1  10
TORSDOF 12
ENDMDL
MODEL 6
REMARK VINA RESULT:    -5.061      1.822      2.338
REMARK INTER + INTRA:          -9.886
REMARK INTER:                  -8.793
REMARK INTRA:                  -1.093
REMARK UNBOUND:                -1.570
REMARK SMILES CCCCC[C@H](O)CC(=O)CCc1ccc(O)c(OC)c1
REMARK SMILES IDX 8 1 6 2 7 3 5 5 4 6 3 7 2 8 1 9 9 10 10 11 11 12 12 13 13 14
REMARK SMILES IDX 21 15 14 16 18 17 15 18 16 19 19 20 20 21 17 22
REMARK H PARENT 7 4 17 23
REMARK Flexibility Score: inf
ROOT
ATOM      1  C   UNL     1      95.662  96.416  81.500  1.00  0.00     0.107 C 
ENDROOT
BRANCH   1   2
ATOM      2  C   UNL     1      94.773  97.052  82.572  1.00  0.00     0.121 C 
BRANCH   2   3
ATOM      3  O   UNL     1      94.788  96.249  83.750  1.00  0.00    -0.393 OA
ATOM      4  H   UNL     1      94.809  96.848  84.517  1.00  0.00     0.210 HD
ENDBRANCH   2   3
BRANCH   2   5
ATOM      5  C   UNL     1      95.195  98.482  82.930  1.00  0.00     0.032 C 
BRANCH   5   6
ATOM      6  C   UNL     1      95.832  99.211  81.741  1.00  0.00     0.003 C 
BRANCH   6   7
ATOM      7  C   UNL     1      95.813 100.736  81.883  1.00  0.00    -0.000 C 
BRANCH   7   8
ATOM      8  C   UNL     1      94.702 101.252  82.795  1.00  0.00    -0.003 C 
ATOM      9  C   UNL     1      95.026 102.638  83.333  1.00  0.00     0.004 C 
ENDBRANCH   7   8
ENDBRANCH   6   7
ENDBRANCH   5   6
ENDBRANCH   2   5
ENDBRANCH   1   2
BRANCH   1  10
ATOM     10  C   UNL     1      96.168  95.036  81.887  1.00  0.00     0.135 C 
ATOM     11  O   UNL     1      97.103  94.903  82.676  1.00  0.00    -0.300 OA
BRANCH  10  12
ATOM     12  C   UNL     1      95.432  93.848  81.287  1.00  0.00     0.080 C 
BRANCH  12  13
ATOM     13  C   UNL     1      95.635  93.697  79.778  1.00  0.00     0.043 C 
BRANCH  13  14
ATOM     14  C   UNL     1      94.449  94.169  78.971  1.00  0.00    -0.044 A 
ATOM     15  C   UNL     1      94.645  94.758  77.722  1.00  0.00     0.054 A 
ATOM     16  C   UNL     1      93.157  94.015  79.475  1.00  0.00     0.008 A 
ATOM     17  C   UNL     1      93.549  95.192  76.977  1.00  0.00     0.160 A 
ATOM     18  C   UNL     1      92.061  94.450  78.730  1.00  0.00     0.050 A 
ATOM     19  C   UNL     1      92.257  95.039  77.481  1.00  0.00     0.157 A 
BRANCH  17  20
ATOM     20  O   UNL     1      93.752  95.767  75.758  1.00  0.00    -0.493 OA
ATOM     21  C   UNL     1      94.143  97.139  75.746  1.00  0.00     0.278 C 
ENDBRANCH  17  20
BRANCH  19  22
ATOM     22  O   UNL     1      91.179  95.460  76.763  1.00  0.00    -0.504 OA
ATOM     23  H   UNL     1      91.254  96.418  76.611  1.00  0.00     0.293 HD
ENDBRANCH  19  22
ENDBRANCH  13  14
ENDBRANCH  12  13
ENDBRANCH  10  12
ENDBRANCH   1  10
TORSDOF 12
ENDMDL
MODEL 7
REMARK VINA RESULT:    -4.978     11.788     14.460
REMARK INTER + INTRA:          -9.749
REMARK INTER:                  -9.146
REMARK INTRA:                  -0.602
REMARK UNBOUND:                -1.570
REMARK SMILES CCCCC[C@H](O)CC(=O)CCc1ccc(O)c(OC)c1
REMARK SMILES IDX 8 1 6 2 7 3 5 5 4 6 3 7 2 8 1 9 9 10 10 11 11 12 12 13 13 14
REMARK SMILES IDX 21 15 14 16 18 17 15 18 16 19 19 20 20 21 17 22
REMARK H PARENT 7 4 17 23
REMARK Flexibility Score: inf
ROOT
ATOM      1  C   UNL     1      99.283  83.182  78.704  1.00  0.00     0.107 C 
ENDROOT
BRANCH   1   2
ATOM      2  C   UNL     1      98.265  83.162  77.561  1.00  0.00     0.121 C 
BRANCH   2   3
ATOM      3  O   UNL     1      97.059  83.797  77.977  1.00  0.00    -0.393 OA
ATOM      4  H   UNL     1      97.227  84.755  78.020  1.00  0.00     0.210 HD
ENDBRANCH   2   3
BRANCH   2   5
ATOM      5  C   UNL     1      98.781  83.841  76.286  1.00  0.00     0.032 C 
BRANCH   5   6
ATOM      6  C   UNL     1     100.232  83.455  75.974  1.00  0.00     0.003 C 
BRANCH   6   7
ATOM      7  C   UNL     1     101.124  84.659  75.656  1.00  0.00    -0.000 C 
BRANCH   7   8
ATOM      8  C   UNL     1     101.303  84.911  74.160  1.00  0.00    -0.003 C 
ATOM      9  C   UNL     1     100.627  86.204  73.731  1.00  0.00     0.004 C 
ENDBRANCH   7   8
ENDBRANCH   6   7
ENDBRANCH   5   6
ENDBRANCH   2   5
ENDBRANCH   1   2
BRANCH   1  10
ATOM     10  C   UNL     1      98.966  82.180  79.802  1.00  0.00     0.135 C 
ATOM     11  O   UNL     1      98.923  80.973  79.564  1.00  0.00    -0.300 OA
BRANCH  10  12
ATOM     12  C   UNL     1      98.753  82.743  81.199  1.00  0.00     0.080 C 
BRANCH  12  13
ATOM     13  C   UNL     1      98.987  81.723  82.315  1.00  0.00     0.043 C 
BRANCH  13  14
ATOM     14  C   UNL     1      98.132  81.974  83.535  1.00  0.00    -0.044 A 
ATOM     15  C   UNL     1      97.617  83.247  83.776  1.00  0.00     0.054 A 
ATOM     16  C   UNL     1      97.858  80.931  84.419  1.00  0.00     0.008 A 
ATOM     17  C   UNL     1      96.827  83.477  84.902  1.00  0.00     0.160 A 
ATOM     18  C   UNL     1      97.068  81.160  85.546  1.00  0.00     0.050 A 
ATOM     19  C   UNL     1      96.553  82.434  85.787  1.00  0.00     0.157 A 
BRANCH  17  20
ATOM     20  O   UNL     1      96.330  84.725  85.128  1.00  0.00    -0.493 OA
ATOM     21  C   UNL     1      97.270  85.750  85.444  1.00  0.00     0.278 C 
ENDBRANCH  17  20
BRANCH  19  22
ATOM     22  O   UNL     1      95.782  82.646  86.890  1.00  0.00    -0.504 OA
ATOM     23  H   UNL     1      95.835  83.586  87.137  1.00  0.00     0.293 HD
ENDBRANCH  19  22
ENDBRANCH  13  14
ENDBRANCH  12  13
ENDBRANCH  10  12
ENDBRANCH   1  10
TORSDOF 12
ENDMDL
MODEL 8
REMARK VINA RESULT:    -4.973     22.611     26.166
REMARK INTER + INTRA:          -9.741
REMARK INTER:                  -8.888
REMARK INTRA:                  -0.853
REMARK UNBOUND:                -1.570
REMARK SMILES CCCCC[C@H](O)CC(=O)CCc1ccc(O)c(OC)c1
REMARK SMILES IDX 8 1 6 2 7 3 5 5 4 6 3 7 2 8 1 9 9 10 10 11 11 12 12 13 13 14
REMARK SMILES IDX 21 15 14 16 18 17 15 18 16 19 19 20 20 21 17 22
REMARK H PARENT 7 4 17 23
REMARK Flexibility Score: inf
ROOT
ATOM      1  C   UNL     1      76.400  83.492  67.232  1.00  0.00     0.107 C 
ENDROOT
BRANCH   1   2
ATOM      2  C   UNL     1      76.893  83.068  65.846  1.00  0.00     0.121 C 
BRANCH   2   3
ATOM      3  O   UNL     1      77.756  81.940  65.965  1.00  0.00    -0.393 OA
ATOM      4  H   UNL     1      78.189  81.804  65.103  1.00  0.00     0.210 HD
ENDBRANCH   2   3
BRANCH   2   5
ATOM      5  C   UNL     1      75.751  82.731  64.880  1.00  0.00     0.032 C 
BRANCH   5   6
ATOM      6  C   UNL     1      74.868  81.593  65.407  1.00  0.00     0.003 C 
BRANCH   6   7
ATOM      7  C   UNL     1      74.214  80.768  64.293  1.00  0.00    -0.000 C 
BRANCH   7   8
ATOM      8  C   UNL     1      72.751  80.425  64.565  1.00  0.00    -0.003 C 
ATOM      9  C   UNL     1      72.140  79.647  63.409  1.00  0.00     0.004 C 
ENDBRANCH   7   8
ENDBRANCH   6   7
ENDBRANCH   5   6
ENDBRANCH   2   5
ENDBRANCH   1   2
BRANCH   1  10
ATOM     10  C   UNL     1      77.520  83.974  68.140  1.00  0.00     0.135 C 
ATOM     11  O   UNL     1      78.680  84.039  67.735  1.00  0.00    -0.300 OA
BRANCH  10  12
ATOM     12  C   UNL     1      77.121  84.409  69.542  1.00  0.00     0.080 C 
BRANCH  12  13
ATOM     13  C   UNL     1      77.445  85.872  69.849  1.00  0.00     0.043 C 
BRANCH  13  14
ATOM     14  C   UNL     1      76.237  86.775  69.771  1.00  0.00    -0.044 A 
ATOM     15  C   UNL     1      75.005  86.260  69.366  1.00  0.00     0.054 A 
ATOM     16  C   UNL     1      76.353  88.124  70.106  1.00  0.00     0.008 A 
ATOM     17  C   UNL     1      73.890  87.094  69.296  1.00  0.00     0.160 A 
ATOM     18  C   UNL     1      75.237  88.959  70.036  1.00  0.00     0.050 A 
ATOM     19  C   UNL     1      74.006  88.444  69.631  1.00  0.00     0.157 A 
BRANCH  17  20
ATOM     20  O   UNL     1      72.693  86.580  68.898  1.00  0.00    -0.493 OA
ATOM     21  C   UNL     1      72.157  85.510  69.675  1.00  0.00     0.278 C 
ENDBRANCH  17  20
BRANCH  19  22
ATOM     22  O   UNL     1      72.924  89.268  69.566  1.00  0.00    -0.504 OA
ATOM     23  H   UNL     1      73.210  90.143  69.251  1.00  0.00     0.293 HD
ENDBRANCH  19  22
ENDBRANCH  13  14
ENDBRANCH  12  13
ENDBRANCH  10  12
ENDBRANCH   1  10
TORSDOF 12
ENDMDL
MODEL 9
REMARK VINA RESULT:    -4.934     12.547     14.621
REMARK INTER + INTRA:          -9.677
REMARK INTER:                  -7.735
REMARK INTRA:                  -1.942
REMARK UNBOUND:                -1.570
REMARK SMILES CCCCC[C@H](O)CC(=O)CCc1ccc(O)c(OC)c1
REMARK SMILES IDX 8 1 6 2 7 3 5 5 4 6 3 7 2 8 1 9 9 10 10 11 11 12 12 13 13 14
REMARK SMILES IDX 21 15 14 16 18 17 15 18 16 19 19 20 20 21 17 22
REMARK H PARENT 7 4 17 23
REMARK Flexibility Score: inf
ROOT
ATOM      1  C   UNL     1      98.317  82.476  79.410  1.00  0.00     0.107 C 
ENDROOT
BRANCH   1   2
ATOM      2  C   UNL     1      99.603  83.002  80.052  1.00  0.00     0.121 C 
BRANCH   2   3
ATOM      3  O   UNL     1      99.314  83.547  81.337  1.00  0.00    -0.393 OA
ATOM      4  H   UNL     1     100.005  83.244  81.951  1.00  0.00     0.210 HD
ENDBRANCH   2   3
BRANCH   2   5
ATOM      5  C   UNL     1     100.687  81.927  80.192  1.00  0.00     0.032 C 
BRANCH   5   6
ATOM      6  C   UNL     1     101.153  81.398  78.830  1.00  0.00     0.003 C 
BRANCH   6   7
ATOM      7  C   UNL     1     102.413  82.095  78.307  1.00  0.00    -0.000 C 
BRANCH   7   8
ATOM      8  C   UNL     1     103.470  81.130  77.773  1.00  0.00    -0.003 C 
ATOM      9  C   UNL     1     102.880  79.755  77.504  1.00  0.00     0.004 C 
ENDBRANCH   7   8
ENDBRANCH   6   7
ENDBRANCH   5   6
ENDBRANCH   2   5
ENDBRANCH   1   2
BRANCH   1  10
ATOM     10  C   UNL     1      97.338  83.580  79.045  1.00  0.00     0.135 C 
ATOM     11  O   UNL     1      96.429  83.899  79.811  1.00  0.00    -0.300 OA
BRANCH  10  12
ATOM     12  C   UNL     1      97.572  84.288  77.719  1.00  0.00     0.080 C 
BRANCH  12  13
ATOM     13  C   UNL     1      97.472  83.366  76.503  1.00  0.00     0.043 C 
BRANCH  13  14
ATOM     14  C   UNL     1      98.819  82.983  75.938  1.00  0.00    -0.044 A 
ATOM     15  C   UNL     1      99.777  83.965  75.691  1.00  0.00     0.054 A 
ATOM     16  C   UNL     1      99.104  81.645  75.663  1.00  0.00     0.008 A 
ATOM     17  C   UNL     1     101.021  83.610  75.170  1.00  0.00     0.160 A 
ATOM     18  C   UNL     1     100.348  81.290  75.141  1.00  0.00     0.050 A 
ATOM     19  C   UNL     1     101.306  82.272  74.894  1.00  0.00     0.157 A 
BRANCH  17  20
ATOM     20  O   UNL     1     101.949  84.579  74.932  1.00  0.00    -0.493 OA
ATOM     21  C   UNL     1     101.583  85.620  74.028  1.00  0.00     0.278 C 
ENDBRANCH  17  20
BRANCH  19  22
ATOM     22  O   UNL     1     102.518  81.913  74.385  1.00  0.00    -0.504 OA
ATOM     23  H   UNL     1     102.507  82.043  73.421  1.00  0.00     0.293 HD
ENDBRANCH  19  22
ENDBRANCH  13  14
ENDBRANCH  12  13
ENDBRANCH  10  12
ENDBRANCH   1  10
TORSDOF 12
ENDMDL
MODEL 10
REMARK VINA RESULT:    -4.895     23.043     26.929
REMARK INTER + INTRA:          -9.613
REMARK INTER:                  -8.696
REMARK INTRA:                  -0.917
REMARK UNBOUND:                -1.570
REMARK SMILES CCCCC[C@H](O)CC(=O)CCc1ccc(O)c(OC)c1
REMARK SMILES IDX 8 1 6 2 7 3 5 5 4 6 3 7 2 8 1 9 9 10 10 11 11 12 12 13 13 14
REMARK SMILES IDX 21 15 14 16 18 17 15 18 16 19 19 20 20 21 17 22
REMARK H PARENT 7 4 17 23
REMARK Flexibility Score: inf
ROOT
ATOM      1  C   UNL     1      75.235  81.621  65.286  1.00  0.00     0.107 C 
ENDROOT
BRANCH   1   2
ATOM      2  C   UNL     1      74.827  81.545  63.813  1.00  0.00     0.121 C 
BRANCH   2   3
ATOM      3  O   UNL     1      75.987  81.409  62.996  1.00  0.00    -0.393 OA
ATOM      4  H   UNL     1      76.726  81.848  63.453  1.00  0.00     0.210 HD
ENDBRANCH   2   3
BRANCH   2   5
ATOM      5  C   UNL     1      73.862  80.391  63.516  1.00  0.00     0.032 C 
BRANCH   5   6
ATOM      6  C   UNL     1      72.396  80.808  63.681  1.00  0.00     0.003 C 
BRANCH   6   7
ATOM      7  C   UNL     1      72.045  82.100  62.938  1.00  0.00    -0.000 C 
BRANCH   7   8
ATOM      8  C   UNL     1      71.373  83.151  63.820  1.00  0.00    -0.003 C 
ATOM      9  C   UNL     1      72.306  84.320  64.098  1.00  0.00     0.004 C 
ENDBRANCH   7   8
ENDBRANCH   6   7
ENDBRANCH   5   6
ENDBRANCH   2   5
ENDBRANCH   1   2
BRANCH   1  10
ATOM     10  C   UNL     1      76.672  82.075  65.483  1.00  0.00     0.135 C 
ATOM     11  O   UNL     1      77.552  81.272  65.794  1.00  0.00    -0.300 OA
BRANCH  10  12
ATOM     12  C   UNL     1      76.963  83.547  65.233  1.00  0.00     0.080 C 
BRANCH  12  13
ATOM     13  C   UNL     1      78.190  84.067  65.982  1.00  0.00     0.043 C 
BRANCH  13  14
ATOM     14  C   UNL     1      77.843  85.040  67.085  1.00  0.00    -0.044 A 
ATOM     15  C   UNL     1      77.790  84.604  68.409  1.00  0.00     0.054 A 
ATOM     16  C   UNL     1      77.574  86.374  66.778  1.00  0.00     0.008 A 
ATOM     17  C   UNL     1      77.470  85.503  69.426  1.00  0.00     0.160 A 
ATOM     18  C   UNL     1      77.253  87.273  67.795  1.00  0.00     0.050 A 
ATOM     19  C   UNL     1      77.201  86.837  69.119  1.00  0.00     0.157 A 
BRANCH  17  20
ATOM     20  O   UNL     1      77.422  85.066  70.715  1.00  0.00    -0.493 OA
ATOM     21  C   UNL     1      76.291  84.282  71.092  1.00  0.00     0.278 C 
ENDBRANCH  17  20
BRANCH  19  22
ATOM     22  O   UNL     1      76.887  87.724  70.104  1.00  0.00    -0.504 OA
ATOM     23  H   UNL     1      77.508  87.610  70.843  1.00  0.00     0.293 HD
ENDBRANCH  19  22
ENDBRANCH  13  14
ENDBRANCH  12  13
ENDBRANCH  10  12
ENDBRANCH   1  10
TORSDOF 12
ENDMDL
