MODEL 1
REMARK VINA RESULT:    -5.903      0.000      0.000
REMARK INTER + INTRA:         -10.198
REMARK INTER:                  -9.527
REMARK INTRA:                  -0.671
REMARK UNBOUND:                -0.671
REMARK SMILES COc1cc(CNC(=O)CCCCCCC(C)C)ccc1O
REMARK SMILES IDX 11 1 10 2 8 3 7 4 9 6 6 7 5 8 3 9 21 10 4 11 20 12 19 13
REMARK SMILES IDX 2 14 1 15 22 16 12 18 13 19 14 20 15 21 16 22 17 23 18 24
REMARK H PARENT 7 5 22 17
REMARK Flexibility Score: inf
ROOT
ATOM      1  C   UNL     1      82.386  64.376  74.759  1.00  0.00     0.010 C 
ENDROOT
BRANCH   1   2
ATOM      2  C   UNL     1      82.475  64.771  76.259  1.00  0.00     0.100 C 
BRANCH   2   3
ATOM      3  C   UNL     1      83.810  64.529  76.850  1.00  0.00     0.220 C 
ATOM      4  N   UNL     1      83.971  63.599  77.835  1.00  0.00    -0.352 N 
ATOM      5  H   UNL     1      83.117  63.151  78.134  1.00  0.00     0.163 HD
ATOM      6  O   UNL     1      84.790  65.179  76.408  1.00  0.00    -0.275 OA
BRANCH   4   7
ATOM      7  C   UNL     1      85.218  63.241  78.438  1.00  0.00     0.151 C 
BRANCH   7   8
ATOM      8  C   UNL     1      85.549  64.062  79.635  1.00  0.00    -0.025 A 
ATOM      9  C   UNL     1      86.654  66.018  80.637  1.00  0.00     0.160 A 
ATOM     10  C   UNL     1      86.148  65.657  81.905  1.00  0.00     0.157 A 
ATOM     11  C   UNL     1      86.367  65.209  79.517  1.00  0.00     0.056 A 
ATOM     12  C   UNL     1      85.365  64.496  82.042  1.00  0.00     0.050 A 
ATOM     13  C   UNL     1      85.058  63.709  80.914  1.00  0.00     0.009 A 
BRANCH   9  14
ATOM     14  O   UNL     1      87.448  67.123  80.499  1.00  0.00    -0.493 OA
ATOM     15  C   UNL     1      87.153  67.908  79.330  1.00  0.00     0.278 C 
ENDBRANCH   9  14
BRANCH  10  16
ATOM     16  O   UNL     1      86.409  66.416  83.001  1.00  0.00    -0.504 OA
ATOM     17  H   UNL     1      85.642  66.419  83.578  1.00  0.00     0.293 HD
ENDBRANCH  10  16
ENDBRANCH   7   8
ENDBRANCH   4   7
ENDBRANCH   2   3
ENDBRANCH   1   2
BRANCH   1  18
ATOM     18  C   UNL     1      80.962  63.893  74.363  1.00  0.00     0.001 C 
BRANCH  18  19
ATOM     19  C   UNL     1      80.275  64.783  73.289  1.00  0.00     0.000 C 
BRANCH  19  20
ATOM     20  C   UNL     1      79.988  66.213  73.830  1.00  0.00     0.000 C 
BRANCH  20  21
ATOM     21  C   UNL     1      80.593  67.354  72.966  1.00  0.00     0.003 C 
BRANCH  21  22
ATOM     22  C   UNL     1      81.026  66.921  71.527  1.00  0.00    -0.017 C 
ATOM     23  C   UNL     1      82.033  67.944  70.931  1.00  0.00     0.007 C 
ATOM     24  C   UNL     1      79.831  66.703  70.554  1.00  0.00     0.007 C 
ENDBRANCH  21  22
ENDBRANCH  20  21
ENDBRANCH  19  20
ENDBRANCH  18  19
ENDBRANCH   1  18
TORSDOF 11
ENDMDL
MODEL 2
REMARK VINA RESULT:    -5.606     26.116     28.914
REMARK INTER + INTRA:          -9.718
REMARK INTER:                  -9.064
REMARK INTRA:                  -0.654
REMARK UNBOUND:                -0.671
REMARK SMILES COc1cc(CNC(=O)CCCCCCC(C)C)ccc1O
REMARK SMILES IDX 11 1 10 2 8 3 7 4 9 6 6 7 5 8 3 9 21 10 4 11 20 12 19 13
REMARK SMILES IDX 2 14 1 15 22 16 12 18 13 19 14 20 15 21 16 22 17 23 18 24
REMARK H PARENT 7 5 22 17
REMARK Flexibility Score: inf
ROOT
ATOM      1  C   UNL     1      83.304  93.891  88.903  1.00  0.00     0.010 C 
ENDROOT
BRANCH   1   2
ATOM      2  C   UNL     1      82.357  92.673  88.717  1.00  0.00     0.100 C 
BRANCH   2   3
ATOM      3  C   UNL     1      82.997  91.537  88.017  1.00  0.00     0.220 C 
ATOM      4  N   UNL     1      82.680  91.259  86.720  1.00  0.00    -0.352 N 
ATOM      5  H   UNL     1      81.966  91.853  86.325  1.00  0.00     0.163 HD
ATOM      6  O   UNL     1      83.851  90.854  88.635  1.00  0.00    -0.275 OA
BRANCH   4   7
ATOM      7  C   UNL     1      83.275  90.227  85.926  1.00  0.00     0.151 C 
BRANCH   7   8
ATOM      8  C   UNL     1      82.293  89.212  85.453  1.00  0.00    -0.025 A 
ATOM      9  C   UNL     1      81.653  86.861  85.119  1.00  0.00     0.160 A 
ATOM     10  C   UNL     1      80.410  87.272  84.592  1.00  0.00     0.157 A 
ATOM     11  C   UNL     1      82.591  87.833  85.527  1.00  0.00     0.056 A 
ATOM     12  C   UNL     1      80.117  88.643  84.477  1.00  0.00     0.050 A 
ATOM     13  C   UNL     1      81.046  89.607  84.913  1.00  0.00     0.009 A 
BRANCH   9  14
ATOM     14  O   UNL     1      81.964  85.531  85.199  1.00  0.00    -0.493 OA
ATOM     15  C   UNL     1      82.620  85.162  86.426  1.00  0.00     0.278 C 
ENDBRANCH   9  14
BRANCH  10  16
ATOM     16  O   UNL     1      79.488  86.358  84.190  1.00  0.00    -0.504 OA
ATOM     17  H   UNL     1      79.701  85.502  84.567  1.00  0.00     0.293 HD
ENDBRANCH  10  16
ENDBRANCH   7   8
ENDBRANCH   4   7
ENDBRANCH   2   3
ENDBRANCH   1   2
BRANCH   1  18
ATOM     18  C   UNL     1      83.826  94.442  87.546  1.00  0.00     0.001 C 
BRANCH  18  19
ATOM     19  C   UNL     1      83.374  95.898  87.245  1.00  0.00     0.000 C 
BRANCH  19  20
ATOM     20  C   UNL     1      82.044  96.246  87.971  1.00  0.00     0.000 C 
BRANCH  20  21
ATOM     21  C   UNL     1      81.871  97.756  88.295  1.00  0.00     0.003 C 
BRANCH  21  22
ATOM     22  C   UNL     1      80.622  98.424  87.634  1.00  0.00    -0.017 C 
ATOM     23  C   UNL     1      80.394  97.856  86.205  1.00  0.00     0.007 C 
ATOM     24  C   UNL     1      80.689  99.979  87.598  1.00  0.00     0.007 C 
ENDBRANCH  21  22
ENDBRANCH  20  21
ENDBRANCH  19  20
ENDBRANCH  18  19
ENDBRANCH   1  18
TORSDOF 11
ENDMDL
MODEL 3
REMARK VINA RESULT:    -5.585     24.904     27.272
REMARK INTER + INTRA:          -9.684
REMARK INTER:                  -8.185
REMARK INTRA:                  -1.498
REMARK UNBOUND:                -0.671
REMARK SMILES COc1cc(CNC(=O)CCCCCCC(C)C)ccc1O
REMARK SMILES IDX 11 1 10 2 8 3 7 4 9 6 6 7 5 8 3 9 21 10 4 11 20 12 19 13
REMARK SMILES IDX 2 14 1 15 22 16 12 18 13 19 14 20 15 21 16 22 17 23 18 24
REMARK H PARENT 7 5 22 17
REMARK Flexibility Score: inf
ROOT
ATOM      1  C   UNL     1      79.991  87.052  87.280  1.00  0.00     0.010 C 
ENDROOT
BRANCH   1   2
ATOM      2  C   UNL     1      79.906  86.936  88.828  1.00  0.00     0.100 C 
BRANCH   2   3
ATOM      3  C   UNL     1      79.868  88.248  89.512  1.00  0.00     0.220 C 
ATOM      4  N   UNL     1      81.028  88.890  89.835  1.00  0.00    -0.352 N 
ATOM      5  H   UNL     1      81.869  88.380  89.610  1.00  0.00     0.163 HD
ATOM      6  O   UNL     1      78.751  88.763  89.763  1.00  0.00    -0.275 OA
BRANCH   4   7
ATOM      7  C   UNL     1      81.114  90.184  90.442  1.00  0.00     0.151 C 
BRANCH   7   8
ATOM      8  C   UNL     1      81.842  91.177  89.606  1.00  0.00    -0.025 A 
ATOM      9  C   UNL     1      82.566  93.492  89.196  1.00  0.00     0.160 A 
ATOM     10  C   UNL     1      83.264  93.071  88.042  1.00  0.00     0.157 A 
ATOM     11  C   UNL     1      81.846  92.547  89.957  1.00  0.00     0.056 A 
ATOM     12  C   UNL     1      83.234  91.717  87.661  1.00  0.00     0.050 A 
ATOM     13  C   UNL     1      82.538  90.774  88.442  1.00  0.00     0.009 A 
BRANCH   9  14
ATOM     14  O   UNL     1      82.555  94.812  89.553  1.00  0.00    -0.493 OA
ATOM     15  C   UNL     1      81.325  95.489  89.237  1.00  0.00     0.278 C 
ENDBRANCH   9  14
BRANCH  10  16
ATOM     16  O   UNL     1      83.964  93.959  87.289  1.00  0.00    -0.504 OA
ATOM     17  H   UNL     1      83.730  94.853  87.550  1.00  0.00     0.293 HD
ENDBRANCH  10  16
ENDBRANCH   7   8
ENDBRANCH   4   7
ENDBRANCH   2   3
ENDBRANCH   1   2
BRANCH   1  18
ATOM     18  C   UNL     1      81.052  86.090  86.676  1.00  0.00     0.001 C 
BRANCH  18  19
ATOM     19  C   UNL     1      80.841  85.793  85.165  1.00  0.00     0.000 C 
BRANCH  19  20
ATOM     20  C   UNL     1      79.949  86.872  84.489  1.00  0.00     0.000 C 
BRANCH  20  21
ATOM     21  C   UNL     1      80.722  87.846  83.558  1.00  0.00     0.003 C 
BRANCH  21  22
ATOM     22  C   UNL     1      81.017  89.248  84.184  1.00  0.00    -0.017 C 
ATOM     23  C   UNL     1      82.342  89.212  84.997  1.00  0.00     0.007 C 
ATOM     24  C   UNL     1      79.855  89.799  85.062  1.00  0.00     0.007 C 
ENDBRANCH  21  22
ENDBRANCH  20  21
ENDBRANCH  19  20
ENDBRANCH  18  19
ENDBRANCH   1  18
TORSDOF 11
ENDMDL
MODEL 4
REMARK VINA RESULT:    -5.568     23.185     25.752
REMARK INTER + INTRA:          -9.656
REMARK INTER:                  -8.346
REMARK INTRA:                  -1.310
REMARK UNBOUND:                -0.671
REMARK SMILES COc1cc(CNC(=O)CCCCCCC(C)C)ccc1O
REMARK SMILES IDX 11 1 10 2 8 3 7 4 9 6 6 7 5 8 3 9 21 10 4 11 20 12 19 13
REMARK SMILES IDX 2 14 1 15 22 16 12 18 13 19 14 20 15 21 16 22 17 23 18 24
REMARK H PARENT 7 5 22 17
REMARK Flexibility Score: inf
ROOT
ATOM      1  C   UNL     1      74.297  89.237  69.004  1.00  0.00     0.010 C 
ENDROOT
BRANCH   1   2
ATOM      2  C   UNL     1      73.053  88.315  68.868  1.00  0.00     0.100 C 
BRANCH   2   3
ATOM      3  C   UNL     1      73.373  86.979  68.318  1.00  0.00     0.220 C 
ATOM      4  N   UNL     1      74.243  86.155  68.971  1.00  0.00    -0.352 N 
ATOM      5  H   UNL     1      74.657  86.553  69.800  1.00  0.00     0.163 HD
ATOM      6  O   UNL     1      72.810  86.615  67.257  1.00  0.00    -0.275 OA
BRANCH   4   7
ATOM      7  C   UNL     1      74.582  84.824  68.566  1.00  0.00     0.151 C 
BRANCH   7   8
ATOM      8  C   UNL     1      75.772  84.768  67.674  1.00  0.00    -0.025 A 
ATOM      9  C   UNL     1      76.922  83.826  65.715  1.00  0.00     0.160 A 
ATOM     10  C   UNL     1      78.019  84.685  65.942  1.00  0.00     0.157 A 
ATOM     11  C   UNL     1      75.817  83.860  66.591  1.00  0.00     0.056 A 
ATOM     12  C   UNL     1      78.003  85.565  67.040  1.00  0.00     0.050 A 
ATOM     13  C   UNL     1      76.884  85.615  67.894  1.00  0.00     0.009 A 
BRANCH   9  14
ATOM     14  O   UNL     1      76.945  82.938  64.673  1.00  0.00    -0.493 OA
ATOM     15  C   UNL     1      76.287  83.419  63.487  1.00  0.00     0.278 C 
ENDBRANCH   9  14
BRANCH  10  16
ATOM     16  O   UNL     1      79.097  84.672  65.115  1.00  0.00    -0.504 OA
ATOM     17  H   UNL     1      78.819  84.422  64.231  1.00  0.00     0.293 HD
ENDBRANCH  10  16
ENDBRANCH   7   8
ENDBRANCH   4   7
ENDBRANCH   2   3
ENDBRANCH   1   2
BRANCH   1  18
ATOM     18  C   UNL     1      75.044  89.418  67.652  1.00  0.00     0.001 C 
BRANCH  18  19
ATOM     19  C   UNL     1      75.167  90.900  67.199  1.00  0.00     0.000 C 
BRANCH  19  20
ATOM     20  C   UNL     1      75.220  91.022  65.650  1.00  0.00     0.000 C 
BRANCH  20  21
ATOM     21  C   UNL     1      76.651  90.922  65.051  1.00  0.00     0.003 C 
BRANCH  21  22
ATOM     22  C   UNL     1      76.979  89.551  64.375  1.00  0.00    -0.017 C 
ATOM     23  C   UNL     1      77.932  88.715  65.275  1.00  0.00     0.007 C 
ATOM     24  C   UNL     1      77.564  89.686  62.939  1.00  0.00     0.007 C 
ENDBRANCH  21  22
ENDBRANCH  20  21
ENDBRANCH  19  20
ENDBRANCH  18  19
ENDBRANCH   1  18
TORSDOF 11
ENDMDL
MODEL 5
REMARK VINA RESULT:    -5.557      3.532      5.834
REMARK INTER + INTRA:          -9.640
REMARK INTER:                  -8.091
REMARK INTRA:                  -1.549
REMARK UNBOUND:                -0.671
REMARK SMILES COc1cc(CNC(=O)CCCCCCC(C)C)ccc1O
REMARK SMILES IDX 11 1 10 2 8 3 7 4 9 6 6 7 5 8 3 9 21 10 4 11 20 12 19 13
REMARK SMILES IDX 2 14 1 15 22 16 12 18 13 19 14 20 15 21 16 22 17 23 18 24
REMARK H PARENT 7 5 22 17
REMARK Flexibility Score: inf
ROOT
ATOM      1  C   UNL     1      82.476  66.608  70.800  1.00  0.00     0.010 C 
ENDROOT
BRANCH   1   2
ATOM      2  C   UNL     1      82.188  68.070  71.239  1.00  0.00     0.100 C 
BRANCH   2   3
ATOM      3  C   UNL     1      83.408  68.820  71.613  1.00  0.00     0.220 C 
ATOM      4  N   UNL     1      84.429  68.194  72.266  1.00  0.00    -0.352 N 
ATOM      5  H   UNL     1      84.251  67.227  72.496  1.00  0.00     0.163 HD
ATOM      6  O   UNL     1      83.491  70.032  71.294  1.00  0.00    -0.275 OA
BRANCH   4   7
ATOM      7  C   UNL     1      85.675  68.800  72.625  1.00  0.00     0.151 C 
BRANCH   7   8
ATOM      8  C   UNL     1      85.797  69.070  74.084  1.00  0.00    -0.025 A 
ATOM      9  C   UNL     1      85.300  68.454  76.413  1.00  0.00     0.160 A 
ATOM     10  C   UNL     1      86.063  69.552  76.868  1.00  0.00     0.157 A 
ATOM     11  C   UNL     1      85.158  68.233  75.027  1.00  0.00     0.056 A 
ATOM     12  C   UNL     1      86.672  70.415  75.939  1.00  0.00     0.050 A 
ATOM     13  C   UNL     1      86.550  70.171  74.557  1.00  0.00     0.009 A 
BRANCH   9  14
ATOM     14  O   UNL     1      84.671  67.632  77.307  1.00  0.00    -0.493 OA
ATOM     15  C   UNL     1      85.393  66.419  77.588  1.00  0.00     0.278 C 
ENDBRANCH   9  14
BRANCH  10  16
ATOM     16  O   UNL     1      86.216  69.790  78.197  1.00  0.00    -0.504 OA
ATOM     17  H   UNL     1      87.002  70.322  78.338  1.00  0.00     0.293 HD
ENDBRANCH  10  16
ENDBRANCH   7   8
ENDBRANCH   4   7
ENDBRANCH   2   3
ENDBRANCH   1   2
BRANCH   1  18
ATOM     18  C   UNL     1      81.324  65.639  71.192  1.00  0.00     0.001 C 
BRANCH  18  19
ATOM     19  C   UNL     1      80.194  66.313  72.021  1.00  0.00     0.000 C 
BRANCH  19  20
ATOM     20  C   UNL     1      80.075  65.688  73.440  1.00  0.00     0.000 C 
BRANCH  20  21
ATOM     21  C   UNL     1      81.277  64.788  73.842  1.00  0.00     0.003 C 
BRANCH  21  22
ATOM     22  C   UNL     1      82.326  65.482  74.772  1.00  0.00    -0.017 C 
ATOM     23  C   UNL     1      83.646  64.663  74.807  1.00  0.00     0.007 C 
ATOM     24  C   UNL     1      81.806  65.742  76.217  1.00  0.00     0.007 C 
ENDBRANCH  21  22
ENDBRANCH  20  21
ENDBRANCH  19  20
ENDBRANCH  18  19
ENDBRANCH   1  18
TORSDOF 11
ENDMDL
MODEL 6
REMARK VINA RESULT:    -5.553      3.240      5.455
REMARK INTER + INTRA:          -9.633
REMARK INTER:                  -7.638
REMARK INTRA:                  -1.995
REMARK UNBOUND:                -0.671
REMARK SMILES COc1cc(CNC(=O)CCCCCCC(C)C)ccc1O
REMARK SMILES IDX 11 1 10 2 8 3 7 4 9 6 6 7 5 8 3 9 21 10 4 11 20 12 19 13
REMARK SMILES IDX 2 14 1 15 22 16 12 18 13 19 14 20 15 21 16 22 17 23 18 24
REMARK H PARENT 7 5 22 17
REMARK Flexibility Score: inf
ROOT
ATOM      1  C   UNL     1      80.775  65.718  71.788  1.00  0.00     0.010 C 
ENDROOT
BRANCH   1   2
ATOM      2  C   UNL     1      80.965  67.260  71.801  1.00  0.00     0.100 C 
BRANCH   2   3
ATOM      3  C   UNL     1      82.380  67.674  71.935  1.00  0.00     0.220 C 
ATOM      4  N   UNL     1      83.338  66.759  72.262  1.00  0.00    -0.352 N 
ATOM      5  H   UNL     1      82.989  65.829  72.438  1.00  0.00     0.163 HD
ATOM      6  O   UNL     1      82.679  68.874  71.717  1.00  0.00    -0.275 OA
BRANCH   4   7
ATOM      7  C   UNL     1      84.740  67.031  72.362  1.00  0.00     0.151 C 
BRANCH   7   8
ATOM      8  C   UNL     1      85.295  66.755  73.715  1.00  0.00    -0.025 A 
ATOM      9  C   UNL     1      85.474  67.327  76.101  1.00  0.00     0.160 A 
ATOM     10  C   UNL     1      86.315  66.212  76.307  1.00  0.00     0.157 A 
ATOM     11  C   UNL     1      84.987  67.600  74.805  1.00  0.00     0.056 A 
ATOM     12  C   UNL     1      86.662  65.386  75.222  1.00  0.00     0.050 A 
ATOM     13  C   UNL     1      86.148  65.648  73.937  1.00  0.00     0.009 A 
BRANCH   9  14
ATOM     14  O   UNL     1      85.163  68.159  77.141  1.00  0.00    -0.493 OA
ATOM     15  C   UNL     1      85.533  69.532  76.916  1.00  0.00     0.278 C 
ENDBRANCH   9  14
BRANCH  10  16
ATOM     16  O   UNL     1      86.801  65.925  77.544  1.00  0.00    -0.504 OA
ATOM     17  H   UNL     1      86.512  66.598  78.164  1.00  0.00     0.293 HD
ENDBRANCH  10  16
ENDBRANCH   7   8
ENDBRANCH   4   7
ENDBRANCH   2   3
ENDBRANCH   1   2
BRANCH   1  18
ATOM     18  C   UNL     1      80.227  65.183  73.141  1.00  0.00     0.001 C 
BRANCH  18  19
ATOM     19  C   UNL     1      80.060  66.282  74.229  1.00  0.00     0.000 C 
BRANCH  19  20
ATOM     20  C   UNL     1      81.324  66.393  75.128  1.00  0.00     0.000 C 
BRANCH  20  21
ATOM     21  C   UNL     1      81.596  65.137  76.002  1.00  0.00     0.003 C 
BRANCH  21  22
ATOM     22  C   UNL     1      83.048  64.569  75.890  1.00  0.00    -0.017 C 
ATOM     23  C   UNL     1      83.148  63.561  74.711  1.00  0.00     0.007 C 
ATOM     24  C   UNL     1      83.569  63.921  77.207  1.00  0.00     0.007 C 
ENDBRANCH  21  22
ENDBRANCH  20  21
ENDBRANCH  19  20
ENDBRANCH  18  19
ENDBRANCH   1  18
TORSDOF 11
ENDMDL
MODEL 7
REMARK VINA RESULT:    -5.534      2.429      3.628
REMARK INTER + INTRA:          -9.602
REMARK INTER:                  -8.345
REMARK INTRA:                  -1.258
REMARK UNBOUND:                -0.671
REMARK SMILES COc1cc(CNC(=O)CCCCCCC(C)C)ccc1O
REMARK SMILES IDX 11 1 10 2 8 3 7 4 9 6 6 7 5 8 3 9 21 10 4 11 20 12 19 13
REMARK SMILES IDX 2 14 1 15 22 16 12 18 13 19 14 20 15 21 16 22 17 23 18 24
REMARK H PARENT 7 5 22 17
REMARK Flexibility Score: inf
ROOT
ATOM      1  C   UNL     1      81.282  65.403  73.315  1.00  0.00     0.010 C 
ENDROOT
BRANCH   1   2
ATOM      2  C   UNL     1      80.959  65.914  74.747  1.00  0.00     0.100 C 
BRANCH   2   3
ATOM      3  C   UNL     1      81.987  65.544  75.746  1.00  0.00     0.220 C 
ATOM      4  N   UNL     1      83.312  65.624  75.432  1.00  0.00    -0.352 N 
ATOM      5  H   UNL     1      83.505  65.903  74.481  1.00  0.00     0.163 HD
ATOM      6  O   UNL     1      81.613  65.182  76.888  1.00  0.00    -0.275 OA
BRANCH   4   7
ATOM      7  C   UNL     1      84.392  65.349  76.332  1.00  0.00     0.151 C 
BRANCH   7   8
ATOM      8  C   UNL     1      84.958  66.574  76.961  1.00  0.00    -0.025 A 
ATOM      9  C   UNL     1      86.394  67.628  78.656  1.00  0.00     0.160 A 
ATOM     10  C   UNL     1      86.075  68.902  78.138  1.00  0.00     0.157 A 
ATOM     11  C   UNL     1      85.819  66.477  78.077  1.00  0.00     0.056 A 
ATOM     12  C   UNL     1      85.188  69.014  77.051  1.00  0.00     0.050 A 
ATOM     13  C   UNL     1      84.641  67.859  76.459  1.00  0.00     0.009 A 
BRANCH   9  14
ATOM     14  O   UNL     1      87.224  67.510  79.738  1.00  0.00    -0.493 OA
ATOM     15  C   UNL     1      88.546  67.050  79.406  1.00  0.00     0.278 C 
ENDBRANCH   9  14
BRANCH  10  16
ATOM     16  O   UNL     1      86.613  70.028  78.677  1.00  0.00    -0.504 OA
ATOM     17  H   UNL     1      87.431  70.241  78.221  1.00  0.00     0.293 HD
ENDBRANCH  10  16
ENDBRANCH   7   8
ENDBRANCH   4   7
ENDBRANCH   2   3
ENDBRANCH   1   2
BRANCH   1  18
ATOM     18  C   UNL     1      80.085  65.592  72.340  1.00  0.00     0.001 C 
BRANCH  18  19
ATOM     19  C   UNL     1      80.329  66.673  71.251  1.00  0.00     0.000 C 
BRANCH  19  20
ATOM     20  C   UNL     1      81.842  66.830  70.928  1.00  0.00     0.000 C 
BRANCH  20  21
ATOM     21  C   UNL     1      82.307  68.301  70.750  1.00  0.00     0.003 C 
BRANCH  21  22
ATOM     22  C   UNL     1      83.053  68.902  71.986  1.00  0.00    -0.017 C 
ATOM     23  C   UNL     1      83.851  70.172  71.575  1.00  0.00     0.007 C 
ATOM     24  C   UNL     1      83.982  67.885  72.711  1.00  0.00     0.007 C 
ENDBRANCH  21  22
ENDBRANCH  20  21
ENDBRANCH  19  20
ENDBRANCH  18  19
ENDBRANCH   1  18
TORSDOF 11
ENDMDL
MODEL 8
REMARK VINA RESULT:    -5.530      2.942      4.675
REMARK INTER + INTRA:          -9.596
REMARK INTER:                  -7.646
REMARK INTRA:                  -1.950
REMARK UNBOUND:                -0.671
REMARK SMILES COc1cc(CNC(=O)CCCCCCC(C)C)ccc1O
REMARK SMILES IDX 11 1 10 2 8 3 7 4 9 6 6 7 5 8 3 9 21 10 4 11 20 12 19 13
REMARK SMILES IDX 2 14 1 15 22 16 12 18 13 19 14 20 15 21 16 22 17 23 18 24
REMARK H PARENT 7 5 22 17
REMARK Flexibility Score: inf
ROOT
ATOM      1  C   UNL     1      80.190  66.327  71.321  1.00  0.00     0.010 C 
ENDROOT
BRANCH   1   2
ATOM      2  C   UNL     1      80.564  67.209  72.544  1.00  0.00     0.100 C 
BRANCH   2   3
ATOM      3  C   UNL     1      80.581  66.461  73.821  1.00  0.00     0.220 C 
ATOM      4  N   UNL     1      81.332  66.906  74.870  1.00  0.00    -0.352 N 
ATOM      5  H   UNL     1      81.880  67.731  74.676  1.00  0.00     0.163 HD
ATOM      6  O   UNL     1      79.875  65.428  73.923  1.00  0.00    -0.275 OA
BRANCH   4   7
ATOM      7  C   UNL     1      81.381  66.300  76.166  1.00  0.00     0.151 C 
BRANCH   7   8
ATOM      8  C   UNL     1      82.750  65.864  76.558  1.00  0.00    -0.025 A 
ATOM      9  C   UNL     1      85.086  66.411  77.096  1.00  0.00     0.160 A 
ATOM     10  C   UNL     1      85.350  65.046  77.347  1.00  0.00     0.157 A 
ATOM     11  C   UNL     1      83.796  66.806  76.686  1.00  0.00     0.056 A 
ATOM     12  C   UNL     1      84.327  64.094  77.184  1.00  0.00     0.050 A 
ATOM     13  C   UNL     1      83.034  64.500  76.803  1.00  0.00     0.009 A 
BRANCH   9  14
ATOM     14  O   UNL     1      86.084  67.340  77.213  1.00  0.00    -0.493 OA
ATOM     15  C   UNL     1      85.616  68.700  77.182  1.00  0.00     0.278 C 
ENDBRANCH   9  14
BRANCH  10  16
ATOM     16  O   UNL     1      86.584  64.636  77.741  1.00  0.00    -0.504 OA
ATOM     17  H   UNL     1      86.733  63.736  77.442  1.00  0.00     0.293 HD
ENDBRANCH  10  16
ENDBRANCH   7   8
ENDBRANCH   4   7
ENDBRANCH   2   3
ENDBRANCH   1   2
BRANCH   1  18
ATOM     18  C   UNL     1      81.436  65.934  70.477  1.00  0.00     0.001 C 
BRANCH  18  19
ATOM     19  C   UNL     1      82.544  67.024  70.452  1.00  0.00     0.000 C 
BRANCH  19  20
ATOM     20  C   UNL     1      83.962  66.402  70.595  1.00  0.00     0.000 C 
BRANCH  20  21
ATOM     21  C   UNL     1      84.009  65.117  71.468  1.00  0.00     0.003 C 
BRANCH  21  22
ATOM     22  C   UNL     1      84.210  65.377  72.997  1.00  0.00    -0.017 C 
ATOM     23  C   UNL     1      84.660  66.844  73.245  1.00  0.00     0.007 C 
ATOM     24  C   UNL     1      85.198  64.382  73.675  1.00  0.00     0.007 C 
ENDBRANCH  21  22
ENDBRANCH  20  21
ENDBRANCH  19  20
ENDBRANCH  18  19
ENDBRANCH   1  18
TORSDOF 11
ENDMDL
MODEL 9
REMARK VINA RESULT:    -5.493     25.074     27.726
REMARK INTER + INTRA:          -9.536
REMARK INTER:                  -7.628
REMARK INTRA:                  -1.908
REMARK UNBOUND:                -0.671
REMARK SMILES COc1cc(CNC(=O)CCCCCCC(C)C)ccc1O
REMARK SMILES IDX 11 1 10 2 8 3 7 4 9 6 6 7 5 8 3 9 21 10 4 11 20 12 19 13
REMARK SMILES IDX 2 14 1 15 22 16 12 18 13 19 14 20 15 21 16 22 17 23 18 24
REMARK H PARENT 7 5 22 17
REMARK Flexibility Score: inf
ROOT
ATOM      1  C   UNL     1      81.549  87.352  86.736  1.00  0.00     0.010 C 
ENDROOT
BRANCH   1   2
ATOM      2  C   UNL     1      81.205  86.816  88.153  1.00  0.00     0.100 C 
BRANCH   2   3
ATOM      3  C   UNL     1      81.563  87.758  89.238  1.00  0.00     0.220 C 
ATOM      4  N   UNL     1      82.780  88.375  89.240  1.00  0.00    -0.352 N 
ATOM      5  H   UNL     1      83.393  88.099  88.488  1.00  0.00     0.163 HD
ATOM      6  O   UNL     1      80.717  87.991  90.136  1.00  0.00    -0.275 OA
BRANCH   4   7
ATOM      7  C   UNL     1      83.212  89.344  90.201  1.00  0.00     0.151 C 
BRANCH   7   8
ATOM      8  C   UNL     1      83.121  90.745  89.704  1.00  0.00    -0.025 A 
ATOM      9  C   UNL     1      83.356  93.162  90.092  1.00  0.00     0.160 A 
ATOM     10  C   UNL     1      82.992  93.415  88.751  1.00  0.00     0.157 A 
ATOM     11  C   UNL     1      83.400  91.832  90.562  1.00  0.00     0.056 A 
ATOM     12  C   UNL     1      82.674  92.342  87.898  1.00  0.00     0.050 A 
ATOM     13  C   UNL     1      82.748  91.016  88.366  1.00  0.00     0.009 A 
BRANCH   9  14
ATOM     14  O   UNL     1      83.629  94.199  90.941  1.00  0.00    -0.493 OA
ATOM     15  C   UNL     1      84.623  93.890  91.935  1.00  0.00     0.278 C 
ENDBRANCH   9  14
BRANCH  10  16
ATOM     16  O   UNL     1      82.940  94.685  88.271  1.00  0.00    -0.504 OA
ATOM     17  H   UNL     1      82.566  94.677  87.387  1.00  0.00     0.293 HD
ENDBRANCH  10  16
ENDBRANCH   7   8
ENDBRANCH   4   7
ENDBRANCH   2   3
ENDBRANCH   1   2
BRANCH   1  18
ATOM     18  C   UNL     1      80.590  88.493  86.291  1.00  0.00     0.001 C 
BRANCH  18  19
ATOM     19  C   UNL     1      81.016  89.188  84.967  1.00  0.00     0.000 C 
BRANCH  19  20
ATOM     20  C   UNL     1      82.551  89.094  84.740  1.00  0.00     0.000 C 
BRANCH  20  21
ATOM     21  C   UNL     1      83.273  90.469  84.696  1.00  0.00     0.003 C 
BRANCH  21  22
ATOM     22  C   UNL     1      84.806  90.408  84.998  1.00  0.00    -0.017 C 
ATOM     23  C   UNL     1      85.095  89.394  86.140  1.00  0.00     0.007 C 
ATOM     24  C   UNL     1      85.434  91.794  85.328  1.00  0.00     0.007 C 
ENDBRANCH  21  22
ENDBRANCH  20  21
ENDBRANCH  19  20
ENDBRANCH  18  19
ENDBRANCH   1  18
TORSDOF 11
ENDMDL
MODEL 10
REMARK VINA RESULT:    -5.481      3.795      4.549
REMARK INTER + INTRA:          -9.517
REMARK INTER:                  -7.325
REMARK INTRA:                  -2.191
REMARK UNBOUND:                -0.671
REMARK SMILES COc1cc(CNC(=O)CCCCCCC(C)C)ccc1O
REMARK SMILES IDX 11 1 10 2 8 3 7 4 9 6 6 7 5 8 3 9 21 10 4 11 20 12 19 13
REMARK SMILES IDX 2 14 1 15 22 16 12 18 13 19 14 20 15 21 16 22 17 23 18 24
REMARK H PARENT 7 5 22 17
REMARK Flexibility Score: inf
ROOT
ATOM      1  C   UNL     1      80.158  65.215  72.860  1.00  0.00     0.010 C 
ENDROOT
BRANCH   1   2
ATOM      2  C   UNL     1      80.235  64.105  73.944  1.00  0.00     0.100 C 
BRANCH   2   3
ATOM      3  C   UNL     1      81.511  64.107  74.694  1.00  0.00     0.220 C 
ATOM      4  N   UNL     1      81.622  64.804  75.862  1.00  0.00    -0.352 N 
ATOM      5  H   UNL     1      80.799  65.327  76.120  1.00  0.00     0.163 HD
ATOM      6  O   UNL     1      82.473  63.437  74.246  1.00  0.00    -0.275 OA
BRANCH   4   7
ATOM      7  C   UNL     1      82.783  64.832  76.699  1.00  0.00     0.151 C 
BRANCH   7   8
ATOM      8  C   UNL     1      83.723  65.937  76.363  1.00  0.00    -0.025 A 
ATOM      9  C   UNL     1      85.735  66.740  75.200  1.00  0.00     0.160 A 
ATOM     10  C   UNL     1      85.494  68.046  75.680  1.00  0.00     0.157 A 
ATOM     11  C   UNL     1      84.860  65.694  75.559  1.00  0.00     0.056 A 
ATOM     12  C   UNL     1      84.388  68.292  76.513  1.00  0.00     0.050 A 
ATOM     13  C   UNL     1      83.502  67.249  76.844  1.00  0.00     0.009 A 
BRANCH   9  14
ATOM     14  O   UNL     1      86.831  66.482  74.421  1.00  0.00    -0.493 OA
ATOM     15  C   UNL     1      87.924  65.883  75.140  1.00  0.00     0.278 C 
ENDBRANCH   9  14
BRANCH  10  16
ATOM     16  O   UNL     1      86.322  69.073  75.351  1.00  0.00    -0.504 OA
ATOM     17  H   UNL     1      86.686  68.922  74.476  1.00  0.00     0.293 HD
ENDBRANCH  10  16
ENDBRANCH   7   8
ENDBRANCH   4   7
ENDBRANCH   2   3
ENDBRANCH   1   2
BRANCH   1  18
ATOM     18  C   UNL     1      80.237  66.641  73.474  1.00  0.00     0.001 C 
BRANCH  18  19
ATOM     19  C   UNL     1      81.157  67.614  72.683  1.00  0.00     0.000 C 
BRANCH  19  20
ATOM     20  C   UNL     1      82.615  67.587  73.222  1.00  0.00     0.000 C 
BRANCH  20  21
ATOM     21  C   UNL     1      83.672  67.136  72.176  1.00  0.00     0.003 C 
BRANCH  21  22
ATOM     22  C   UNL     1      83.483  65.677  71.647  1.00  0.00    -0.017 C 
ATOM     23  C   UNL     1      84.758  64.830  71.920  1.00  0.00     0.007 C 
ATOM     24  C   UNL     1      83.091  65.603  70.142  1.00  0.00     0.007 C 
ENDBRANCH  21  22
ENDBRANCH  20  21
ENDBRANCH  19  20
ENDBRANCH  18  19
ENDBRANCH   1  18
TORSDOF 11
ENDMDL
