MODEL 1
REMARK VINA RESULT:    -6.361      0.000      0.000
REMARK INTER + INTRA:         -11.041
REMARK INTER:                 -10.266
REMARK INTRA:                  -0.774
REMARK UNBOUND:                -0.774
REMARK SMILES CCCCCCCCC(=O)NCc1ccc(O)c(OC)c1
REMARK SMILES IDX 7 1 6 2 5 3 4 4 3 5 2 6 1 7 8 8 9 9 10 10 11 11 12 13 13 14
REMARK SMILES IDX 21 15 14 16 18 17 15 18 16 19 19 20 20 21 17 22
REMARK H PARENT 11 12 17 23
REMARK Flexibility Score: inf
ROOT
ATOM      1  C   UNL     1      90.684  95.255  76.815  1.00  0.00     0.010 C 
ENDROOT
BRANCH   1   2
ATOM      2  C   UNL     1      89.923  94.202  75.958  1.00  0.00     0.001 C 
BRANCH   2   3
ATOM      3  C   UNL     1      90.891  93.211  75.248  1.00  0.00     0.000 C 
BRANCH   3   4
ATOM      4  C   UNL     1      90.320  92.612  73.931  1.00  0.00    -0.000 C 
BRANCH   4   5
ATOM      5  C   UNL     1      90.541  91.076  73.824  1.00  0.00    -0.000 C 
BRANCH   5   6
ATOM      6  C   UNL     1      89.382  90.263  74.461  1.00  0.00    -0.003 C 
ATOM      7  C   UNL     1      89.881  89.156  75.417  1.00  0.00     0.004 C 
ENDBRANCH   5   6
ENDBRANCH   4   5
ENDBRANCH   3   4
ENDBRANCH   2   3
ENDBRANCH   1   2
BRANCH   1   8
ATOM      8  C   UNL     1      91.813  94.651  77.696  1.00  0.00     0.100 C 
BRANCH   8   9
ATOM      9  C   UNL     1      92.995  95.545  77.746  1.00  0.00     0.220 C 
ATOM     10  O   UNL     1      94.021  95.142  78.345  1.00  0.00    -0.275 OA
ATOM     11  N   UNL     1      92.971  96.762  77.128  1.00  0.00    -0.352 N 
ATOM     12  H   UNL     1      92.071  97.022  76.752  1.00  0.00     0.163 HD
BRANCH  11  13
ATOM     13  C   UNL     1      94.085  97.649  76.984  1.00  0.00     0.151 C 
BRANCH  13  14
ATOM     14  C   UNL     1      94.747  97.571  75.654  1.00  0.00    -0.025 A 
ATOM     15  C   UNL     1      96.003  98.191  75.447  1.00  0.00     0.056 A 
ATOM     16  C   UNL     1      94.139  96.885  74.578  1.00  0.00     0.009 A 
ATOM     17  C   UNL     1      96.653  98.111  74.194  1.00  0.00     0.160 A 
ATOM     18  C   UNL     1      94.781  96.801  73.330  1.00  0.00     0.050 A 
ATOM     19  C   UNL     1      96.031  97.418  73.131  1.00  0.00     0.157 A 
BRANCH  17  20
ATOM     20  O   UNL     1      97.849  98.748  73.982  1.00  0.00    -0.493 OA
ATOM     21  C   UNL     1      98.756  98.683  75.097  1.00  0.00     0.278 C 
ENDBRANCH  17  20
BRANCH  19  22
ATOM     22  O   UNL     1      96.629  97.354  71.914  1.00  0.00    -0.504 OA
ATOM     23  H   UNL     1      96.573  98.211  71.485  1.00  0.00     0.293 HD
ENDBRANCH  19  22
ENDBRANCH  13  14
ENDBRANCH  11  13
ENDBRANCH   8   9
ENDBRANCH   1   8
TORSDOF 11
ENDMDL
MODEL 2
REMARK VINA RESULT:    -6.339      3.594      5.095
REMARK INTER + INTRA:         -11.004
REMARK INTER:                 -10.403
REMARK INTRA:                  -0.601
REMARK UNBOUND:                -0.774
REMARK SMILES CCCCCCCCC(=O)NCc1ccc(O)c(OC)c1
REMARK SMILES IDX 7 1 6 2 5 3 4 4 3 5 2 6 1 7 8 8 9 9 10 10 11 11 12 13 13 14
REMARK SMILES IDX 21 15 14 16 18 17 15 18 16 19 19 20 20 21 17 22
REMARK H PARENT 11 12 17 23
REMARK Flexibility Score: inf
ROOT
ATOM      1  C   UNL     1      90.674  95.410  76.819  1.00  0.00     0.010 C 
ENDROOT
BRANCH   1   2
ATOM      2  C   UNL     1      89.930  94.464  75.833  1.00  0.00     0.001 C 
BRANCH   2   3
ATOM      3  C   UNL     1      90.914  93.636  74.955  1.00  0.00     0.000 C 
BRANCH   3   4
ATOM      4  C   UNL     1      90.209  92.705  73.929  1.00  0.00    -0.000 C 
BRANCH   4   5
ATOM      5  C   UNL     1      90.554  91.204  74.144  1.00  0.00    -0.000 C 
BRANCH   5   6
ATOM      6  C   UNL     1      89.457  90.449  74.943  1.00  0.00    -0.003 C 
ATOM      7  C   UNL     1      89.793  88.957  75.160  1.00  0.00     0.004 C 
ENDBRANCH   5   6
ENDBRANCH   4   5
ENDBRANCH   3   4
ENDBRANCH   2   3
ENDBRANCH   1   2
BRANCH   1   8
ATOM      8  C   UNL     1      91.846  94.730  77.580  1.00  0.00     0.100 C 
BRANCH   8   9
ATOM      9  C   UNL     1      93.065  95.574  77.557  1.00  0.00     0.220 C 
ATOM     10  O   UNL     1      92.948  96.782  77.241  1.00  0.00    -0.275 OA
ATOM     11  N   UNL     1      94.279  95.049  77.900  1.00  0.00    -0.352 N 
ATOM     12  H   UNL     1      94.274  94.051  78.052  1.00  0.00     0.163 HD
BRANCH  11  13
ATOM     13  C   UNL     1      95.495  95.787  78.053  1.00  0.00     0.151 C 
BRANCH  13  14
ATOM     14  C   UNL     1      96.058  95.741  79.429  1.00  0.00    -0.025 A 
ATOM     15  C   UNL     1      97.157  96.562  79.777  1.00  0.00     0.056 A 
ATOM     16  C   UNL     1      95.512  94.880  80.408  1.00  0.00     0.009 A 
ATOM     17  C   UNL     1      97.691  96.542  81.086  1.00  0.00     0.160 A 
ATOM     18  C   UNL     1      96.038  94.855  81.712  1.00  0.00     0.050 A 
ATOM     19  C   UNL     1      97.130  95.677  82.053  1.00  0.00     0.157 A 
BRANCH  17  20
ATOM     20  O   UNL     1      98.783  97.307  81.410  1.00  0.00    -0.493 OA
ATOM     21  C   UNL     1      98.482  98.694  81.643  1.00  0.00     0.278 C 
ENDBRANCH  17  20
BRANCH  19  22
ATOM     22  O   UNL     1      97.648  95.626  83.306  1.00  0.00    -0.504 OA
ATOM     23  H   UNL     1      97.079  95.093  83.867  1.00  0.00     0.293 HD
ENDBRANCH  19  22
ENDBRANCH  13  14
ENDBRANCH  11  13
ENDBRANCH   8   9
ENDBRANCH   1   8
TORSDOF 11
ENDMDL
MODEL 3
REMARK VINA RESULT:    -5.547      3.077      4.132
REMARK INTER + INTRA:          -9.727
REMARK INTER:                  -9.028
REMARK INTRA:                  -0.698
REMARK UNBOUND:                -0.774
REMARK SMILES CCCCCCCCC(=O)NCc1ccc(O)c(OC)c1
REMARK SMILES IDX 7 1 6 2 5 3 4 4 3 5 2 6 1 7 8 8 9 9 10 10 11 11 12 13 13 14
REMARK SMILES IDX 21 15 14 16 18 17 15 18 16 19 19 20 20 21 17 22
REMARK H PARENT 11 12 17 23
REMARK Flexibility Score: inf
ROOT
ATOM      1  C   UNL     1      93.429  95.491  77.183  1.00  0.00     0.010 C 
ENDROOT
BRANCH   1   2
ATOM      2  C   UNL     1      92.196  94.871  77.903  1.00  0.00     0.001 C 
BRANCH   2   3
ATOM      3  C   UNL     1      91.121  94.364  76.897  1.00  0.00     0.000 C 
BRANCH   3   4
ATOM      4  C   UNL     1      90.085  93.389  77.526  1.00  0.00    -0.000 C 
BRANCH   4   5
ATOM      5  C   UNL     1      89.790  92.160  76.620  1.00  0.00    -0.000 C 
BRANCH   5   6
ATOM      6  C   UNL     1      90.331  92.341  75.176  1.00  0.00    -0.003 C 
ATOM      7  C   UNL     1      90.392  91.014  74.387  1.00  0.00     0.004 C 
ENDBRANCH   5   6
ENDBRANCH   4   5
ENDBRANCH   3   4
ENDBRANCH   2   3
ENDBRANCH   1   2
BRANCH   1   8
ATOM      8  C   UNL     1      93.390  95.352  75.636  1.00  0.00     0.100 C 
BRANCH   8   9
ATOM      9  C   UNL     1      94.263  96.357  74.981  1.00  0.00     0.220 C 
ATOM     10  O   UNL     1      94.905  97.151  75.709  1.00  0.00    -0.275 OA
ATOM     11  N   UNL     1      94.383  96.391  73.622  1.00  0.00    -0.352 N 
ATOM     12  H   UNL     1      93.759  95.767  73.132  1.00  0.00     0.163 HD
BRANCH  11  13
ATOM     13  C   UNL     1      95.294  97.212  72.884  1.00  0.00     0.151 C 
BRANCH  13  14
ATOM     14  C   UNL     1      94.628  98.232  72.031  1.00  0.00    -0.025 A 
ATOM     15  C   UNL     1      95.219  98.636  70.810  1.00  0.00     0.056 A 
ATOM     16  C   UNL     1      93.402  98.818  72.422  1.00  0.00     0.009 A 
ATOM     17  C   UNL     1      94.589  99.593  69.981  1.00  0.00     0.160 A 
ATOM     18  C   UNL     1      92.769  99.769  71.602  1.00  0.00     0.050 A 
ATOM     19  C   UNL     1      93.362 100.164  70.387  1.00  0.00     0.157 A 
BRANCH  17  20
ATOM     20  O   UNL     1      95.184 100.014  68.818  1.00  0.00    -0.493 OA
ATOM     21  C   UNL     1      95.303  98.991  67.814  1.00  0.00     0.278 C 
ENDBRANCH  17  20
BRANCH  19  22
ATOM     22  O   UNL     1      92.757 101.103  69.615  1.00  0.00    -0.504 OA
ATOM     23  H   UNL     1      91.858 101.241  69.923  1.00  0.00     0.293 HD
ENDBRANCH  19  22
ENDBRANCH  13  14
ENDBRANCH  11  13
ENDBRANCH   8   9
ENDBRANCH   1   8
TORSDOF 11
ENDMDL
MODEL 4
REMARK VINA RESULT:    -5.498      1.803      2.405
REMARK INTER + INTRA:          -9.648
REMARK INTER:                  -8.950
REMARK INTRA:                  -0.697
REMARK UNBOUND:                -0.774
REMARK SMILES CCCCCCCCC(=O)NCc1ccc(O)c(OC)c1
REMARK SMILES IDX 7 1 6 2 5 3 4 4 3 5 2 6 1 7 8 8 9 9 10 10 11 11 12 13 13 14
REMARK SMILES IDX 21 15 14 16 18 17 15 18 16 19 19 20 20 21 17 22
REMARK H PARENT 11 12 17 23
REMARK Flexibility Score: inf
ROOT
ATOM      1  C   UNL     1      92.871  95.158  77.688  1.00  0.00     0.010 C 
ENDROOT
BRANCH   1   2
ATOM      2  C   UNL     1      91.496  94.472  77.933  1.00  0.00     0.001 C 
BRANCH   2   3
ATOM      3  C   UNL     1      91.058  93.584  76.731  1.00  0.00     0.000 C 
BRANCH   3   4
ATOM      4  C   UNL     1      89.839  92.669  77.039  1.00  0.00    -0.000 C 
BRANCH   4   5
ATOM      5  C   UNL     1      89.743  91.453  76.075  1.00  0.00    -0.000 C 
BRANCH   5   6
ATOM      6  C   UNL     1      90.101  91.824  74.610  1.00  0.00    -0.003 C 
ATOM      7  C   UNL     1      90.637  90.622  73.801  1.00  0.00     0.004 C 
ENDBRANCH   5   6
ENDBRANCH   4   5
ENDBRANCH   3   4
ENDBRANCH   2   3
ENDBRANCH   1   2
BRANCH   1   8
ATOM      8  C   UNL     1      93.584  94.693  76.388  1.00  0.00     0.100 C 
BRANCH   8   9
ATOM      9  C   UNL     1      93.654  95.787  75.389  1.00  0.00     0.220 C 
ATOM     10  O   UNL     1      92.811  95.800  74.461  1.00  0.00    -0.275 OA
ATOM     11  N   UNL     1      94.598  96.768  75.501  1.00  0.00    -0.352 N 
ATOM     12  H   UNL     1      95.277  96.612  76.231  1.00  0.00     0.163 HD
BRANCH  11  13
ATOM     13  C   UNL     1      94.680  97.944  74.690  1.00  0.00     0.151 C 
BRANCH  13  14
ATOM     14  C   UNL     1      95.611  97.815  73.537  1.00  0.00    -0.025 A 
ATOM     15  C   UNL     1      96.959  98.228  73.661  1.00  0.00     0.056 A 
ATOM     16  C   UNL     1      95.170  97.286  72.302  1.00  0.00     0.009 A 
ATOM     17  C   UNL     1      97.860  98.096  72.579  1.00  0.00     0.160 A 
ATOM     18  C   UNL     1      96.062  97.151  71.223  1.00  0.00     0.050 A 
ATOM     19  C   UNL     1      97.402  97.561  71.354  1.00  0.00     0.157 A 
BRANCH  17  20
ATOM     20  O   UNL     1      99.156  98.536  72.688  1.00  0.00    -0.493 OA
ATOM     21  C   UNL     1      99.952  97.794  73.629  1.00  0.00     0.278 C 
ENDBRANCH  17  20
BRANCH  19  22
ATOM     22  O   UNL     1      98.248  97.452  70.298  1.00  0.00    -0.504 OA
ATOM     23  H   UNL     1      97.847  96.900  69.622  1.00  0.00     0.293 HD
ENDBRANCH  19  22
ENDBRANCH  13  14
ENDBRANCH  11  13
ENDBRANCH   8   9
ENDBRANCH   1   8
TORSDOF 11
ENDMDL
MODEL 5
REMARK VINA RESULT:    -5.450     12.215     14.933
REMARK INTER + INTRA:          -9.570
REMARK INTER:                  -8.576
REMARK INTRA:                  -0.994
REMARK UNBOUND:                -0.774
REMARK SMILES CCCCCCCCC(=O)NCc1ccc(O)c(OC)c1
REMARK SMILES IDX 7 1 6 2 5 3 4 4 3 5 2 6 1 7 8 8 9 9 10 10 11 11 12 13 13 14
REMARK SMILES IDX 21 15 14 16 18 17 15 18 16 19 19 20 20 21 17 22
REMARK H PARENT 11 12 17 23
REMARK Flexibility Score: inf
ROOT
ATOM      1  C   UNL     1      98.334  83.382  73.406  1.00  0.00     0.010 C 
ENDROOT
BRANCH   1   2
ATOM      2  C   UNL     1      99.358  83.452  72.237  1.00  0.00     0.001 C 
BRANCH   2   3
ATOM      3  C   UNL     1      99.850  84.905  71.971  1.00  0.00     0.000 C 
BRANCH   3   4
ATOM      4  C   UNL     1     101.334  84.991  71.514  1.00  0.00    -0.000 C 
BRANCH   4   5
ATOM      5  C   UNL     1     102.330  84.996  72.708  1.00  0.00    -0.000 C 
BRANCH   5   6
ATOM      6  C   UNL     1     101.719  85.623  73.991  1.00  0.00    -0.003 C 
ATOM      7  C   UNL     1     101.768  84.671  75.206  1.00  0.00     0.004 C 
ENDBRANCH   5   6
ENDBRANCH   4   5
ENDBRANCH   3   4
ENDBRANCH   2   3
ENDBRANCH   1   2
BRANCH   1   8
ATOM      8  C   UNL     1      98.197  84.710  74.203  1.00  0.00     0.100 C 
BRANCH   8   9
ATOM      9  C   UNL     1      97.261  84.561  75.344  1.00  0.00     0.220 C 
ATOM     10  O   UNL     1      96.139  85.116  75.269  1.00  0.00    -0.275 OA
ATOM     11  N   UNL     1      97.608  83.813  76.432  1.00  0.00    -0.352 N 
ATOM     12  H   UNL     1      98.562  83.484  76.426  1.00  0.00     0.163 HD
BRANCH  11  13
ATOM     13  C   UNL     1      96.747  83.479  77.525  1.00  0.00     0.151 C 
BRANCH  13  14
ATOM     14  C   UNL     1      97.465  82.957  78.718  1.00  0.00    -0.025 A 
ATOM     15  C   UNL     1      96.896  83.092  80.007  1.00  0.00     0.056 A 
ATOM     16  C   UNL     1      98.723  82.324  78.591  1.00  0.00     0.009 A 
ATOM     17  C   UNL     1      97.559  82.586  81.149  1.00  0.00     0.160 A 
ATOM     18  C   UNL     1      99.386  81.818  79.722  1.00  0.00     0.050 A 
ATOM     19  C   UNL     1      98.813  81.953  81.001  1.00  0.00     0.157 A 
BRANCH  17  20
ATOM     20  O   UNL     1      97.025  82.755  82.402  1.00  0.00    -0.493 OA
ATOM     21  C   UNL     1      96.123  83.870  82.512  1.00  0.00     0.278 C 
ENDBRANCH  17  20
BRANCH  19  22
ATOM     22  O   UNL     1      99.475  81.485  82.091  1.00  0.00    -0.504 OA
ATOM     23  H   UNL     1     100.292  81.065  81.813  1.00  0.00     0.293 HD
ENDBRANCH  19  22
ENDBRANCH  13  14
ENDBRANCH  11  13
ENDBRANCH   8   9
ENDBRANCH   1   8
TORSDOF 11
ENDMDL
MODEL 6
REMARK VINA RESULT:    -5.380      3.869      5.062
REMARK INTER + INTRA:          -9.456
REMARK INTER:                  -8.752
REMARK INTRA:                  -0.704
REMARK UNBOUND:                -0.774
REMARK SMILES CCCCCCCCC(=O)NCc1ccc(O)c(OC)c1
REMARK SMILES IDX 7 1 6 2 5 3 4 4 3 5 2 6 1 7 8 8 9 9 10 10 11 11 12 13 13 14
REMARK SMILES IDX 21 15 14 16 18 17 15 18 16 19 19 20 20 21 17 22
REMARK H PARENT 11 12 17 23
REMARK Flexibility Score: inf
ROOT
ATOM      1  C   UNL     1      94.386  95.737  76.907  1.00  0.00     0.010 C 
ENDROOT
BRANCH   1   2
ATOM      2  C   UNL     1      93.224  95.472  77.907  1.00  0.00     0.001 C 
BRANCH   2   3
ATOM      3  C   UNL     1      91.844  95.373  77.194  1.00  0.00     0.000 C 
BRANCH   3   4
ATOM      4  C   UNL     1      91.038  94.095  77.561  1.00  0.00    -0.000 C 
BRANCH   4   5
ATOM      5  C   UNL     1      90.588  93.289  76.309  1.00  0.00    -0.000 C 
BRANCH   5   6
ATOM      6  C   UNL     1      89.681  92.082  76.672  1.00  0.00    -0.003 C 
ATOM      7  C   UNL     1      89.622  91.018  75.553  1.00  0.00     0.004 C 
ENDBRANCH   5   6
ENDBRANCH   4   5
ENDBRANCH   3   4
ENDBRANCH   2   3
ENDBRANCH   1   2
BRANCH   1   8
ATOM      8  C   UNL     1      93.946  95.734  75.416  1.00  0.00     0.100 C 
BRANCH   8   9
ATOM      9  C   UNL     1      94.447  96.935  74.704  1.00  0.00     0.220 C 
ATOM     10  O   UNL     1      95.282  97.667  75.286  1.00  0.00    -0.275 OA
ATOM     11  N   UNL     1      94.026  97.214  73.435  1.00  0.00    -0.352 N 
ATOM     12  H   UNL     1      93.291  96.611  73.097  1.00  0.00     0.163 HD
BRANCH  11  13
ATOM     13  C   UNL     1      94.537  98.254  72.595  1.00  0.00     0.151 C 
BRANCH  13  14
ATOM     14  C   UNL     1      93.671  99.461  72.539  1.00  0.00    -0.025 A 
ATOM     15  C   UNL     1      92.727  99.613  71.495  1.00  0.00     0.056 A 
ATOM     16  C   UNL     1      93.774 100.477  73.518  1.00  0.00     0.009 A 
ATOM     17  C   UNL     1      91.885 100.747  71.438  1.00  0.00     0.160 A 
ATOM     18  C   UNL     1      92.939 101.606  73.468  1.00  0.00     0.050 A 
ATOM     19  C   UNL     1      92.000 101.749  72.428  1.00  0.00     0.157 A 
BRANCH  17  20
ATOM     20  O   UNL     1      91.000 100.912  70.402  1.00  0.00    -0.493 OA
ATOM     21  C   UNL     1      89.832 100.078  70.487  1.00  0.00     0.278 C 
ENDBRANCH  17  20
BRANCH  19  22
ATOM     22  O   UNL     1      91.217 102.857  72.372  1.00  0.00    -0.504 OA
ATOM     23  H   UNL     1      90.419 102.660  71.876  1.00  0.00     0.293 HD
ENDBRANCH  19  22
ENDBRANCH  13  14
ENDBRANCH  11  13
ENDBRANCH   8   9
ENDBRANCH   1   8
TORSDOF 11
ENDMDL
MODEL 7
REMARK VINA RESULT:    -5.245      2.770      8.234
REMARK INTER + INTRA:          -9.239
REMARK INTER:                  -8.295
REMARK INTRA:                  -0.944
REMARK UNBOUND:                -0.774
REMARK SMILES CCCCCCCCC(=O)NCc1ccc(O)c(OC)c1
REMARK SMILES IDX 7 1 6 2 5 3 4 4 3 5 2 6 1 7 8 8 9 9 10 10 11 11 12 13 13 14
REMARK SMILES IDX 21 15 14 16 18 17 15 18 16 19 19 20 20 21 17 22
REMARK H PARENT 11 12 17 23
REMARK Flexibility Score: inf
ROOT
ATOM      1  C   UNL     1      95.389  98.209  70.674  1.00  0.00     0.010 C 
ENDROOT
BRANCH   1   2
ATOM      2  C   UNL     1      96.483  98.489  69.604  1.00  0.00     0.001 C 
BRANCH   2   3
ATOM      3  C   UNL     1      97.546  97.353  69.537  1.00  0.00     0.000 C 
BRANCH   3   4
ATOM      4  C   UNL     1      99.013  97.864  69.591  1.00  0.00    -0.000 C 
BRANCH   4   5
ATOM      5  C   UNL     1      99.749  97.441  70.894  1.00  0.00    -0.000 C 
BRANCH   5   6
ATOM      6  C   UNL     1      99.489  98.422  72.069  1.00  0.00    -0.003 C 
ATOM      7  C   UNL     1      99.700  97.769  73.453  1.00  0.00     0.004 C 
ENDBRANCH   5   6
ENDBRANCH   4   5
ENDBRANCH   3   4
ENDBRANCH   2   3
ENDBRANCH   1   2
BRANCH   1   8
ATOM      8  C   UNL     1      95.725  97.024  71.623  1.00  0.00     0.100 C 
BRANCH   8   9
ATOM      9  C   UNL     1      95.518  97.395  73.043  1.00  0.00     0.220 C 
ATOM     10  O   UNL     1      96.257  98.278  73.542  1.00  0.00    -0.275 OA
ATOM     11  N   UNL     1      94.528  96.807  73.777  1.00  0.00    -0.352 N 
ATOM     12  H   UNL     1      94.052  96.052  73.306  1.00  0.00     0.163 HD
BRANCH  11  13
ATOM     13  C   UNL     1      94.139  97.177  75.104  1.00  0.00     0.151 C 
BRANCH  13  14
ATOM     14  C   UNL     1      93.291  96.163  75.786  1.00  0.00    -0.025 A 
ATOM     15  C   UNL     1      92.622  95.170  75.032  1.00  0.00     0.056 A 
ATOM     16  C   UNL     1      93.135  96.173  77.192  1.00  0.00     0.009 A 
ATOM     17  C   UNL     1      91.827  94.189  75.668  1.00  0.00     0.160 A 
ATOM     18  C   UNL     1      92.346  95.200  77.830  1.00  0.00     0.050 A 
ATOM     19  C   UNL     1      91.686  94.213  77.074  1.00  0.00     0.157 A 
BRANCH  17  20
ATOM     20  O   UNL     1      91.145  93.253  74.932  1.00  0.00    -0.493 OA
ATOM     21  C   UNL     1      89.916  93.734  74.361  1.00  0.00     0.278 C 
ENDBRANCH  17  20
BRANCH  19  22
ATOM     22  O   UNL     1      90.904  93.295  77.698  1.00  0.00    -0.504 OA
ATOM     23  H   UNL     1      91.348  92.982  78.490  1.00  0.00     0.293 HD
ENDBRANCH  19  22
ENDBRANCH  13  14
ENDBRANCH  11  13
ENDBRANCH   8   9
ENDBRANCH   1   8
TORSDOF 11
ENDMDL
MODEL 8
REMARK VINA RESULT:    -5.176      4.827      6.324
REMARK INTER + INTRA:          -9.127
REMARK INTER:                  -8.344
REMARK INTRA:                  -0.783
REMARK UNBOUND:                -0.774
REMARK SMILES CCCCCCCCC(=O)NCc1ccc(O)c(OC)c1
REMARK SMILES IDX 7 1 6 2 5 3 4 4 3 5 2 6 1 7 8 8 9 9 10 10 11 11 12 13 13 14
REMARK SMILES IDX 21 15 14 16 18 17 15 18 16 19 19 20 20 21 17 22
REMARK H PARENT 11 12 17 23
REMARK Flexibility Score: inf
ROOT
ATOM      1  C   UNL     1      95.310  97.511  76.251  1.00  0.00     0.010 C 
ENDROOT
BRANCH   1   2
ATOM      2  C   UNL     1      94.247  97.473  77.387  1.00  0.00     0.001 C 
BRANCH   2   3
ATOM      3  C   UNL     1      92.839  97.063  76.863  1.00  0.00     0.000 C 
BRANCH   3   4
ATOM      4  C   UNL     1      92.479  95.575  77.132  1.00  0.00    -0.000 C 
BRANCH   4   5
ATOM      5  C   UNL     1      92.437  94.722  75.833  1.00  0.00    -0.000 C 
BRANCH   5   6
ATOM      6  C   UNL     1      90.989  94.374  75.394  1.00  0.00    -0.003 C 
ATOM      7  C   UNL     1      89.931  94.777  76.445  1.00  0.00     0.004 C 
ENDBRANCH   5   6
ENDBRANCH   4   5
ENDBRANCH   3   4
ENDBRANCH   2   3
ENDBRANCH   1   2
BRANCH   1   8
ATOM      8  C   UNL     1      94.706  97.423  74.821  1.00  0.00     0.100 C 
BRANCH   8   9
ATOM      9  C   UNL     1      94.480  98.771  74.247  1.00  0.00     0.220 C 
ATOM     10  O   UNL     1      94.978  99.760  74.835  1.00  0.00    -0.275 OA
ATOM     11  N   UNL     1      93.770  98.922  73.090  1.00  0.00    -0.352 N 
ATOM     12  H   UNL     1      93.342  98.073  72.749  1.00  0.00     0.163 HD
BRANCH  11  13
ATOM     13  C   UNL     1      93.604 100.144  72.365  1.00  0.00     0.151 C 
BRANCH  13  14
ATOM     14  C   UNL     1      92.198 100.418  71.962  1.00  0.00    -0.025 A 
ATOM     15  C   UNL     1      91.451 101.422  72.622  1.00  0.00     0.056 A 
ATOM     16  C   UNL     1      91.585  99.683  70.921  1.00  0.00     0.009 A 
ATOM     17  C   UNL     1      90.119 101.705  72.239  1.00  0.00     0.160 A 
ATOM     18  C   UNL     1      90.261  99.961  70.534  1.00  0.00     0.050 A 
ATOM     19  C   UNL     1      89.524 100.963  71.194  1.00  0.00     0.157 A 
BRANCH  17  20
ATOM     20  O   UNL     1      89.382 102.649  72.908  1.00  0.00    -0.493 OA
ATOM     21  C   UNL     1      89.319 102.447  74.331  1.00  0.00     0.278 C 
ENDBRANCH  17  20
BRANCH  19  22
ATOM     22  O   UNL     1      88.238 101.204  70.831  1.00  0.00    -0.504 OA
ATOM     23  H   UNL     1      87.973 100.577  70.154  1.00  0.00     0.293 HD
ENDBRANCH  19  22
ENDBRANCH  13  14
ENDBRANCH  11  13
ENDBRANCH   8   9
ENDBRANCH   1   8
TORSDOF 11
ENDMDL
MODEL 9
REMARK VINA RESULT:    -4.985     36.222     39.142
REMARK INTER + INTRA:          -8.819
REMARK INTER:                  -8.226
REMARK INTRA:                  -0.593
REMARK UNBOUND:                -0.774
REMARK SMILES CCCCCCCCC(=O)NCc1ccc(O)c(OC)c1
REMARK SMILES IDX 7 1 6 2 5 3 4 4 3 5 2 6 1 7 8 8 9 9 10 10 11 11 12 13 13 14
REMARK SMILES IDX 21 15 14 16 18 17 15 18 16 19 19 20 20 21 17 22
REMARK H PARENT 11 12 17 23
REMARK Flexibility Score: inf
ROOT
ATOM      1  C   UNL     1      53.063  89.759  78.701  1.00  0.00     0.010 C 
ENDROOT
BRANCH   1   2
ATOM      2  C   UNL     1      51.994  89.304  77.666  1.00  0.00     0.001 C 
BRANCH   2   3
ATOM      3  C   UNL     1      51.379  90.505  76.888  1.00  0.00     0.000 C 
BRANCH   3   4
ATOM      4  C   UNL     1      52.034  90.754  75.500  1.00  0.00    -0.000 C 
BRANCH   4   5
ATOM      5  C   UNL     1      52.071  92.261  75.116  1.00  0.00    -0.000 C 
BRANCH   5   6
ATOM      6  C   UNL     1      53.247  92.604  74.163  1.00  0.00    -0.003 C 
ATOM      7  C   UNL     1      52.787  93.335  72.882  1.00  0.00     0.004 C 
ENDBRANCH   5   6
ENDBRANCH   4   5
ENDBRANCH   3   4
ENDBRANCH   2   3
ENDBRANCH   1   2
BRANCH   1   8
ATOM      8  C   UNL     1      53.442  91.263  78.594  1.00  0.00     0.100 C 
BRANCH   8   9
ATOM      9  C   UNL     1      54.626  91.582  79.427  1.00  0.00     0.220 C 
ATOM     10  O   UNL     1      55.488  92.365  78.962  1.00  0.00    -0.275 OA
ATOM     11  N   UNL     1      54.755  91.055  80.681  1.00  0.00    -0.352 N 
ATOM     12  H   UNL     1      54.052  90.371  80.920  1.00  0.00     0.163 HD
BRANCH  11  13
ATOM     13  C   UNL     1      55.771  91.394  81.629  1.00  0.00     0.151 C 
BRANCH  13  14
ATOM     14  C   UNL     1      56.813  90.345  81.795  1.00  0.00    -0.025 A 
ATOM     15  C   UNL     1      56.952  89.668  83.030  1.00  0.00     0.056 A 
ATOM     16  C   UNL     1      57.682  90.010  80.731  1.00  0.00     0.009 A 
ATOM     17  C   UNL     1      57.927  88.657  83.196  1.00  0.00     0.160 A 
ATOM     18  C   UNL     1      58.652  89.005  80.890  1.00  0.00     0.050 A 
ATOM     19  C   UNL     1      58.783  88.333  82.120  1.00  0.00     0.157 A 
BRANCH  17  20
ATOM     20  O   UNL     1      58.088  88.031  84.407  1.00  0.00    -0.493 OA
ATOM     21  C   UNL     1      57.547  88.760  85.523  1.00  0.00     0.278 C 
ENDBRANCH  17  20
BRANCH  19  22
ATOM     22  O   UNL     1      59.742  87.383  82.272  1.00  0.00    -0.504 OA
ATOM     23  H   UNL     1      59.352  86.514  82.154  1.00  0.00     0.293 HD
ENDBRANCH  19  22
ENDBRANCH  13  14
ENDBRANCH  11  13
ENDBRANCH   8   9
ENDBRANCH   1   8
TORSDOF 11
ENDMDL
MODEL 10
REMARK VINA RESULT:    -4.972     17.997     20.402
REMARK INTER + INTRA:          -8.799
REMARK INTER:                  -8.314
REMARK INTRA:                  -0.485
REMARK UNBOUND:                -0.774
REMARK SMILES CCCCCCCCC(=O)NCc1ccc(O)c(OC)c1
REMARK SMILES IDX 7 1 6 2 5 3 4 4 3 5 2 6 1 7 8 8 9 9 10 10 11 11 12 13 13 14
REMARK SMILES IDX 21 15 14 16 18 17 15 18 16 19 19 20 20 21 17 22
REMARK H PARENT 11 12 17 23
REMARK Flexibility Score: inf
ROOT
ATOM      1  C   UNL     1      91.119  73.749  79.301  1.00  0.00     0.010 C 
ENDROOT
BRANCH   1   2
ATOM      2  C   UNL     1      90.391  75.085  78.976  1.00  0.00     0.001 C 
BRANCH   2   3
ATOM      3  C   UNL     1      91.118  75.896  77.864  1.00  0.00     0.000 C 
BRANCH   3   4
ATOM      4  C   UNL     1      90.863  75.358  76.427  1.00  0.00    -0.000 C 
BRANCH   4   5
ATOM      5  C   UNL     1      89.974  76.311  75.579  1.00  0.00    -0.000 C 
BRANCH   5   6
ATOM      6  C   UNL     1      90.360  77.804  75.759  1.00  0.00    -0.003 C 
ATOM      7  C   UNL     1      91.645  78.189  74.992  1.00  0.00     0.004 C 
ENDBRANCH   5   6
ENDBRANCH   4   5
ENDBRANCH   3   4
ENDBRANCH   2   3
ENDBRANCH   1   2
BRANCH   1   8
ATOM      8  C   UNL     1      91.730  73.696  80.730  1.00  0.00     0.100 C 
BRANCH   8   9
ATOM      9  C   UNL     1      90.816  74.298  81.730  1.00  0.00     0.220 C 
ATOM     10  O   UNL     1      89.653  73.836  81.827  1.00  0.00    -0.275 OA
ATOM     11  N   UNL     1      91.244  75.309  82.542  1.00  0.00    -0.352 N 
ATOM     12  H   UNL     1      92.164  75.660  82.320  1.00  0.00     0.163 HD
BRANCH  11  13
ATOM     13  C   UNL     1      90.510  75.872  83.633  1.00  0.00     0.151 C 
BRANCH  13  14
ATOM     14  C   UNL     1      90.889  77.275  83.952  1.00  0.00    -0.025 A 
ATOM     15  C   UNL     1      89.895  78.278  84.045  1.00  0.00     0.056 A 
ATOM     16  C   UNL     1      92.241  77.631  84.164  1.00  0.00     0.009 A 
ATOM     17  C   UNL     1      90.239  79.612  84.365  1.00  0.00     0.160 A 
ATOM     18  C   UNL     1      92.590  78.956  84.484  1.00  0.00     0.050 A 
ATOM     19  C   UNL     1      91.595  79.949  84.577  1.00  0.00     0.157 A 
BRANCH  17  20
ATOM     20  O   UNL     1      89.280  80.591  84.413  1.00  0.00    -0.493 OA
ATOM     21  C   UNL     1      88.018  80.208  83.837  1.00  0.00     0.278 C 
ENDBRANCH  17  20
BRANCH  19  22
ATOM     22  O   UNL     1      91.945  81.230  84.859  1.00  0.00    -0.504 OA
ATOM     23  H   UNL     1      91.524  81.822  84.231  1.00  0.00     0.293 HD
ENDBRANCH  19  22
ENDBRANCH  13  14
ENDBRANCH  11  13
ENDBRANCH   8   9
ENDBRANCH   1   8
TORSDOF 11
ENDMDL
