MODEL 1
REMARK VINA RESULT:    -6.689      0.000      0.000
REMARK INTER + INTRA:         -11.500
REMARK INTER:                 -10.991
REMARK INTRA:                  -0.509
REMARK UNBOUND:                -0.509
REMARK SMILES CCCCC[C@H](O)CC(=O)CCc1ccc(O)c(OC)c1
REMARK SMILES IDX 8 1 6 2 7 3 5 5 4 6 3 7 2 8 1 9 9 10 10 11 11 12 12 13 13 14
REMARK SMILES IDX 21 15 14 16 18 17 15 18 16 19 19 20 20 21 17 22
REMARK H PARENT 7 4 17 23
REMARK Flexibility Score: inf
ROOT
ATOM      1  C   UNL     1      94.573  82.371  85.014  1.00  0.00     0.107 C 
ENDROOT
BRANCH   1   2
ATOM      2  C   UNL     1      95.258  83.203  83.927  1.00  0.00     0.121 C 
BRANCH   2   3
ATOM      3  O   UNL     1      95.973  84.283  84.523  1.00  0.00    -0.393 OA
ATOM      4  H   UNL     1      96.923  84.080  84.464  1.00  0.00     0.210 HD
ENDBRANCH   2   3
BRANCH   2   5
ATOM      5  C   UNL     1      96.218  82.381  83.059  1.00  0.00     0.032 C 
BRANCH   5   6
ATOM      6  C   UNL     1      96.815  83.210  81.915  1.00  0.00     0.003 C 
BRANCH   6   7
ATOM      7  C   UNL     1      97.058  82.398  80.639  1.00  0.00    -0.000 C 
BRANCH   7   8
ATOM      8  C   UNL     1      97.662  83.216  79.499  1.00  0.00    -0.003 C 
ATOM      9  C   UNL     1      96.641  83.474  78.401  1.00  0.00     0.004 C 
ENDBRANCH   7   8
ENDBRANCH   6   7
ENDBRANCH   5   6
ENDBRANCH   2   5
ENDBRANCH   1   2
BRANCH   1  10
ATOM     10  C   UNL     1      93.103  82.715  85.189  1.00  0.00     0.135 C 
ATOM     11  O   UNL     1      92.745  83.574  85.996  1.00  0.00    -0.300 OA
BRANCH  10  12
ATOM     12  C   UNL     1      92.118  81.982  84.291  1.00  0.00     0.080 C 
BRANCH  12  13
ATOM     13  C   UNL     1      91.122  81.108  85.055  1.00  0.00     0.043 C 
BRANCH  13  14
ATOM     14  C   UNL     1      89.701  81.267  84.568  1.00  0.00    -0.044 A 
ATOM     15  C   UNL     1      89.039  82.484  84.731  1.00  0.00     0.054 A 
ATOM     16  C   UNL     1      89.051  80.196  83.955  1.00  0.00     0.008 A 
ATOM     17  C   UNL     1      87.727  82.630  84.280  1.00  0.00     0.160 A 
ATOM     18  C   UNL     1      87.739  80.342  83.504  1.00  0.00     0.050 A 
ATOM     19  C   UNL     1      87.077  81.559  83.667  1.00  0.00     0.157 A 
BRANCH  17  20
ATOM     20  O   UNL     1      87.091  83.823  84.446  1.00  0.00    -0.493 OA
ATOM     21  C   UNL     1      86.508  84.075  85.723  1.00  0.00     0.278 C 
ENDBRANCH  17  20
BRANCH  19  22
ATOM     22  O   UNL     1      85.796  81.689  83.223  1.00  0.00    -0.504 OA
ATOM     23  H   UNL     1      85.596  80.958  82.613  1.00  0.00     0.293 HD
ENDBRANCH  19  22
ENDBRANCH  13  14
ENDBRANCH  12  13
ENDBRANCH  10  12
ENDBRANCH   1  10
TORSDOF 12
ENDMDL
MODEL 2
REMARK VINA RESULT:    -6.370      2.407      8.354
REMARK INTER + INTRA:         -10.976
REMARK INTER:                 -10.047
REMARK INTRA:                  -0.929
REMARK UNBOUND:                -0.509
REMARK SMILES CCCCC[C@H](O)CC(=O)CCc1ccc(O)c(OC)c1
REMARK SMILES IDX 8 1 6 2 7 3 5 5 4 6 3 7 2 8 1 9 9 10 10 11 11 12 12 13 13 14
REMARK SMILES IDX 21 15 14 16 18 17 15 18 16 19 19 20 20 21 17 22
REMARK H PARENT 7 4 17 23
REMARK Flexibility Score: inf
ROOT
ATOM      1  C   UNL     1      94.756  82.890  85.487  1.00  0.00     0.107 C 
ENDROOT
BRANCH   1   2
ATOM      2  C   UNL     1      93.231  82.960  85.372  1.00  0.00     0.121 C 
BRANCH   2   3
ATOM      3  O   UNL     1      92.826  84.303  85.120  1.00  0.00    -0.393 OA
ATOM      4  H   UNL     1      91.869  84.362  85.288  1.00  0.00     0.210 HD
ENDBRANCH   2   3
BRANCH   2   5
ATOM      5  C   UNL     1      92.669  82.048  84.275  1.00  0.00     0.032 C 
BRANCH   5   6
ATOM      6  C   UNL     1      91.139  81.969  84.318  1.00  0.00     0.003 C 
BRANCH   6   7
ATOM      7  C   UNL     1      90.597  80.556  84.083  1.00  0.00    -0.000 C 
BRANCH   7   8
ATOM      8  C   UNL     1      89.076  80.497  83.950  1.00  0.00    -0.003 C 
ATOM      9  C   UNL     1      88.415  81.689  84.623  1.00  0.00     0.004 C 
ENDBRANCH   7   8
ENDBRANCH   6   7
ENDBRANCH   5   6
ENDBRANCH   2   5
ENDBRANCH   1   2
BRANCH   1  10
ATOM     10  C   UNL     1      95.459  84.039  84.782  1.00  0.00     0.135 C 
ATOM     11  O   UNL     1      95.555  85.144  85.316  1.00  0.00    -0.300 OA
BRANCH  10  12
ATOM     12  C   UNL     1      96.067  83.735  83.422  1.00  0.00     0.080 C 
BRANCH  12  13
ATOM     13  C   UNL     1      96.123  82.242  83.093  1.00  0.00     0.043 C 
BRANCH  13  14
ATOM     14  C   UNL     1      96.725  81.957  81.738  1.00  0.00    -0.044 A 
ATOM     15  C   UNL     1      96.852  82.982  80.801  1.00  0.00     0.054 A 
ATOM     16  C   UNL     1      97.155  80.667  81.424  1.00  0.00     0.008 A 
ATOM     17  C   UNL     1      97.409  82.717  79.549  1.00  0.00     0.160 A 
ATOM     18  C   UNL     1      97.712  80.402  80.172  1.00  0.00     0.050 A 
ATOM     19  C   UNL     1      97.838  81.427  79.235  1.00  0.00     0.157 A 
BRANCH  17  20
ATOM     20  O   UNL     1      97.527  83.726  78.642  1.00  0.00    -0.493 OA
ATOM     21  C   UNL     1      96.431  83.930  77.752  1.00  0.00     0.278 C 
ENDBRANCH  17  20
BRANCH  19  22
ATOM     22  O   UNL     1      98.384  81.157  78.017  1.00  0.00    -0.504 OA
ATOM     23  H   UNL     1      98.988  80.399  78.101  1.00  0.00     0.293 HD
ENDBRANCH  19  22
ENDBRANCH  13  14
ENDBRANCH  12  13
ENDBRANCH  10  12
ENDBRANCH   1  10
TORSDOF 12
ENDMDL
MODEL 3
REMARK VINA RESULT:    -6.177      1.634      2.191
REMARK INTER + INTRA:         -10.659
REMARK INTER:                  -9.934
REMARK INTRA:                  -0.724
REMARK UNBOUND:                -0.509
REMARK SMILES CCCCC[C@H](O)CC(=O)CCc1ccc(O)c(OC)c1
REMARK SMILES IDX 8 1 6 2 7 3 5 5 4 6 3 7 2 8 1 9 9 10 10 11 11 12 12 13 13 14
REMARK SMILES IDX 21 15 14 16 18 17 15 18 16 19 19 20 20 21 17 22
REMARK H PARENT 7 4 17 23
REMARK Flexibility Score: inf
ROOT
ATOM      1  C   UNL     1      94.144  85.370  85.881  1.00  0.00     0.107 C 
ENDROOT
BRANCH   1   2
ATOM      2  C   UNL     1      94.875  85.649  84.566  1.00  0.00     0.121 C 
BRANCH   2   3
ATOM      3  O   UNL     1      95.367  86.987  84.561  1.00  0.00    -0.393 OA
ATOM      4  H   UNL     1      96.339  86.947  84.599  1.00  0.00     0.210 HD
ENDBRANCH   2   3
BRANCH   2   5
ATOM      5  C   UNL     1      96.037  84.683  84.308  1.00  0.00     0.032 C 
BRANCH   5   6
ATOM      6  C   UNL     1      95.950  84.033  82.922  1.00  0.00     0.003 C 
BRANCH   6   7
ATOM      7  C   UNL     1      96.030  82.504  82.962  1.00  0.00    -0.000 C 
BRANCH   7   8
ATOM      8  C   UNL     1      97.030  81.917  81.968  1.00  0.00    -0.003 C 
ATOM      9  C   UNL     1      97.075  82.727  80.682  1.00  0.00     0.004 C 
ENDBRANCH   7   8
ENDBRANCH   6   7
ENDBRANCH   5   6
ENDBRANCH   2   5
ENDBRANCH   1   2
BRANCH   1  10
ATOM     10  C   UNL     1      93.852  83.894  86.098  1.00  0.00     0.135 C 
ATOM     11  O   UNL     1      94.690  83.152  86.610  1.00  0.00    -0.300 OA
BRANCH  10  12
ATOM     12  C   UNL     1      92.468  83.407  85.696  1.00  0.00     0.080 C 
BRANCH  12  13
ATOM     13  C   UNL     1      92.486  82.351  84.589  1.00  0.00     0.043 C 
BRANCH  13  14
ATOM     14  C   UNL     1      91.164  81.640  84.428  1.00  0.00    -0.044 A 
ATOM     15  C   UNL     1      89.975  82.296  84.745  1.00  0.00     0.054 A 
ATOM     16  C   UNL     1      91.132  80.325  83.961  1.00  0.00     0.008 A 
ATOM     17  C   UNL     1      88.754  81.638  84.595  1.00  0.00     0.160 A 
ATOM     18  C   UNL     1      89.911  79.667  83.810  1.00  0.00     0.050 A 
ATOM     19  C   UNL     1      88.722  80.324  84.128  1.00  0.00     0.157 A 
BRANCH  17  20
ATOM     20  O   UNL     1      87.599  82.289  84.909  1.00  0.00    -0.493 OA
ATOM     21  C   UNL     1      87.660  83.712  84.994  1.00  0.00     0.278 C 
ENDBRANCH  17  20
BRANCH  19  22
ATOM     22  O   UNL     1      87.536  79.671  83.977  1.00  0.00    -0.504 OA
ATOM     23  H   UNL     1      87.475  78.967  84.645  1.00  0.00     0.293 HD
ENDBRANCH  19  22
ENDBRANCH  13  14
ENDBRANCH  12  13
ENDBRANCH  10  12
ENDBRANCH   1  10
TORSDOF 12
ENDMDL
MODEL 4
REMARK VINA RESULT:    -6.093     14.391     17.908
REMARK INTER + INTRA:         -10.520
REMARK INTER:                  -9.213
REMARK INTRA:                  -1.307
REMARK UNBOUND:                -0.509
REMARK SMILES CCCCC[C@H](O)CC(=O)CCc1ccc(O)c(OC)c1
REMARK SMILES IDX 8 1 6 2 7 3 5 5 4 6 3 7 2 8 1 9 9 10 10 11 11 12 12 13 13 14
REMARK SMILES IDX 21 15 14 16 18 17 15 18 16 19 19 20 20 21 17 22
REMARK H PARENT 7 4 17 23
REMARK Flexibility Score: inf
ROOT
ATOM      1  C   UNL     1      95.845  95.893  78.378  1.00  0.00     0.107 C 
ENDROOT
BRANCH   1   2
ATOM      2  C   UNL     1      94.811  94.906  77.831  1.00  0.00     0.121 C 
BRANCH   2   3
ATOM      3  O   UNL     1      95.279  93.570  78.004  1.00  0.00    -0.393 OA
ATOM      4  H   UNL     1      96.128  93.489  77.535  1.00  0.00     0.210 HD
ENDBRANCH   2   3
BRANCH   2   5
ATOM      5  C   UNL     1      93.435  95.048  78.495  1.00  0.00     0.032 C 
BRANCH   5   6
ATOM      6  C   UNL     1      92.293  94.701  77.533  1.00  0.00     0.003 C 
BRANCH   6   7
ATOM      7  C   UNL     1      92.684  94.825  76.056  1.00  0.00    -0.000 C 
BRANCH   7   8
ATOM      8  C   UNL     1      91.507  94.665  75.096  1.00  0.00    -0.003 C 
ATOM      9  C   UNL     1      90.253  94.209  75.826  1.00  0.00     0.004 C 
ENDBRANCH   7   8
ENDBRANCH   6   7
ENDBRANCH   5   6
ENDBRANCH   2   5
ENDBRANCH   1   2
BRANCH   1  10
ATOM     10  C   UNL     1      95.269  97.275  78.639  1.00  0.00     0.135 C 
ATOM     11  O   UNL     1      95.194  97.724  79.783  1.00  0.00    -0.300 OA
BRANCH  10  12
ATOM     12  C   UNL     1      94.840  98.077  77.419  1.00  0.00     0.080 C 
BRANCH  12  13
ATOM     13  C   UNL     1      96.010  98.570  76.566  1.00  0.00     0.043 C 
BRANCH  13  14
ATOM     14  C   UNL     1      95.955  98.070  75.142  1.00  0.00    -0.044 A 
ATOM     15  C   UNL     1      97.022  98.312  74.276  1.00  0.00     0.054 A 
ATOM     16  C   UNL     1      94.838  97.366  74.692  1.00  0.00     0.008 A 
ATOM     17  C   UNL     1      96.971  97.849  72.961  1.00  0.00     0.160 A 
ATOM     18  C   UNL     1      94.787  96.903  73.377  1.00  0.00     0.050 A 
ATOM     19  C   UNL     1      95.854  97.145  72.512  1.00  0.00     0.157 A 
BRANCH  17  20
ATOM     20  O   UNL     1      98.019  98.092  72.125  1.00  0.00    -0.493 OA
ATOM     21  C   UNL     1      98.047  99.360  71.472  1.00  0.00     0.278 C 
ENDBRANCH  17  20
BRANCH  19  22
ATOM     22  O   UNL     1      95.793  96.688  71.230  1.00  0.00    -0.504 OA
ATOM     23  H   UNL     1      94.994  97.045  70.804  1.00  0.00     0.293 HD
ENDBRANCH  19  22
ENDBRANCH  13  14
ENDBRANCH  12  13
ENDBRANCH  10  12
ENDBRANCH   1  10
TORSDOF 12
ENDMDL
MODEL 5
REMARK VINA RESULT:    -6.083      5.539     10.032
REMARK INTER + INTRA:         -10.504
REMARK INTER:                  -9.555
REMARK INTRA:                  -0.948
REMARK UNBOUND:                -0.509
REMARK SMILES CCCCC[C@H](O)CC(=O)CCc1ccc(O)c(OC)c1
REMARK SMILES IDX 8 1 6 2 7 3 5 5 4 6 3 7 2 8 1 9 9 10 10 11 11 12 12 13 13 14
REMARK SMILES IDX 21 15 14 16 18 17 15 18 16 19 19 20 20 21 17 22
REMARK H PARENT 7 4 17 23
REMARK Flexibility Score: inf
ROOT
ATOM      1  C   UNL     1      96.713  81.953  81.608  1.00  0.00     0.107 C 
ENDROOT
BRANCH   1   2
ATOM      2  C   UNL     1      96.437  82.600  82.968  1.00  0.00     0.121 C 
BRANCH   2   3
ATOM      3  O   UNL     1      97.537  82.369  83.845  1.00  0.00    -0.393 OA
ATOM      4  H   UNL     1      97.759  81.422  83.800  1.00  0.00     0.210 HD
ENDBRANCH   2   3
BRANCH   2   5
ATOM      5  C   UNL     1      96.175  84.108  82.873  1.00  0.00     0.032 C 
BRANCH   5   6
ATOM      6  C   UNL     1      95.982  84.747  84.253  1.00  0.00     0.003 C 
BRANCH   6   7
ATOM      7  C   UNL     1      95.170  86.046  84.212  1.00  0.00    -0.000 C 
BRANCH   7   8
ATOM      8  C   UNL     1      94.222  86.214  85.398  1.00  0.00    -0.003 C 
ATOM      9  C   UNL     1      93.484  84.920  85.705  1.00  0.00     0.004 C 
ENDBRANCH   7   8
ENDBRANCH   6   7
ENDBRANCH   5   6
ENDBRANCH   2   5
ENDBRANCH   1   2
BRANCH   1  10
ATOM     10  C   UNL     1      98.093  82.281  81.061  1.00  0.00     0.135 C 
ATOM     11  O   UNL     1      99.103  81.770  81.545  1.00  0.00    -0.300 OA
BRANCH  10  12
ATOM     12  C   UNL     1      98.148  83.228  79.872  1.00  0.00     0.080 C 
BRANCH  12  13
ATOM     13  C   UNL     1      96.841  83.297  79.080  1.00  0.00     0.043 C 
BRANCH  13  14
ATOM     14  C   UNL     1      97.054  83.542  77.605  1.00  0.00    -0.044 A 
ATOM     15  C   UNL     1      97.924  82.727  76.881  1.00  0.00     0.054 A 
ATOM     16  C   UNL     1      96.381  84.584  76.968  1.00  0.00     0.008 A 
ATOM     17  C   UNL     1      98.120  82.954  75.519  1.00  0.00     0.160 A 
ATOM     18  C   UNL     1      96.576  84.811  75.605  1.00  0.00     0.050 A 
ATOM     19  C   UNL     1      97.446  83.996  74.881  1.00  0.00     0.157 A 
BRANCH  17  20
ATOM     20  O   UNL     1      98.972  82.152  74.822  1.00  0.00    -0.493 OA
ATOM     21  C   UNL     1     100.355  82.223  75.164  1.00  0.00     0.278 C 
ENDBRANCH  17  20
BRANCH  19  22
ATOM     22  O   UNL     1      97.629  84.228  73.551  1.00  0.00    -0.504 OA
ATOM     23  H   UNL     1      98.489  83.862  73.281  1.00  0.00     0.293 HD
ENDBRANCH  19  22
ENDBRANCH  13  14
ENDBRANCH  12  13
ENDBRANCH  10  12
ENDBRANCH   1  10
TORSDOF 12
ENDMDL
MODEL 6
REMARK VINA RESULT:    -5.762      2.755      4.385
REMARK INTER + INTRA:          -9.976
REMARK INTER:                  -9.320
REMARK INTRA:                  -0.657
REMARK UNBOUND:                -0.509
REMARK SMILES CCCCC[C@H](O)CC(=O)CCc1ccc(O)c(OC)c1
REMARK SMILES IDX 8 1 6 2 7 3 5 5 4 6 3 7 2 8 1 9 9 10 10 11 11 12 12 13 13 14
REMARK SMILES IDX 21 15 14 16 18 17 15 18 16 19 19 20 20 21 17 22
REMARK H PARENT 7 4 17 23
REMARK Flexibility Score: inf
ROOT
ATOM      1  C   UNL     1      96.422  82.889  82.784  1.00  0.00     0.107 C 
ENDROOT
BRANCH   1   2
ATOM      2  C   UNL     1      97.155  81.751  82.069  1.00  0.00     0.121 C 
BRANCH   2   3
ATOM      3  O   UNL     1      96.596  80.498  82.458  1.00  0.00    -0.393 OA
ATOM      4  H   UNL     1      97.219  79.799  82.192  1.00  0.00     0.210 HD
ENDBRANCH   2   3
BRANCH   2   5
ATOM      5  C   UNL     1      97.107  81.873  80.542  1.00  0.00     0.032 C 
BRANCH   5   6
ATOM      6  C   UNL     1      97.350  83.312  80.070  1.00  0.00     0.003 C 
BRANCH   6   7
ATOM      7  C   UNL     1      97.619  83.419  78.565  1.00  0.00    -0.000 C 
BRANCH   7   8
ATOM      8  C   UNL     1      96.367  83.712  77.740  1.00  0.00    -0.003 C 
ATOM      9  C   UNL     1      96.720  84.357  76.408  1.00  0.00     0.004 C 
ENDBRANCH   7   8
ENDBRANCH   6   7
ENDBRANCH   5   6
ENDBRANCH   2   5
ENDBRANCH   1   2
BRANCH   1  10
ATOM     10  C   UNL     1      96.482  82.778  84.299  1.00  0.00     0.135 C 
ATOM     11  O   UNL     1      97.459  83.190  84.925  1.00  0.00    -0.300 OA
BRANCH  10  12
ATOM     12  C   UNL     1      95.265  82.180  84.988  1.00  0.00     0.080 C 
BRANCH  12  13
ATOM     13  C   UNL     1      93.933  82.706  84.448  1.00  0.00     0.043 C 
BRANCH  13  14
ATOM     14  C   UNL     1      92.841  81.663  84.449  1.00  0.00    -0.044 A 
ATOM     15  C   UNL     1      93.167  80.312  84.576  1.00  0.00     0.054 A 
ATOM     16  C   UNL     1      91.507  82.050  84.324  1.00  0.00     0.008 A 
ATOM     17  C   UNL     1      92.157  79.349  84.577  1.00  0.00     0.160 A 
ATOM     18  C   UNL     1      90.497  81.088  84.325  1.00  0.00     0.050 A 
ATOM     19  C   UNL     1      90.823  79.737  84.452  1.00  0.00     0.157 A 
BRANCH  17  20
ATOM     20  O   UNL     1      92.487  78.033  84.701  1.00  0.00    -0.493 OA
ATOM     21  C   UNL     1      93.875  77.706  84.660  1.00  0.00     0.278 C 
ENDBRANCH  17  20
BRANCH  19  22
ATOM     22  O   UNL     1      89.828  78.807  84.452  1.00  0.00    -0.504 OA
ATOM     23  H   UNL     1      89.387  78.815  85.319  1.00  0.00     0.293 HD
ENDBRANCH  19  22
ENDBRANCH  13  14
ENDBRANCH  12  13
ENDBRANCH  10  12
ENDBRANCH   1  10
TORSDOF 12
ENDMDL
MODEL 7
REMARK VINA RESULT:    -5.698      4.210      6.842
REMARK INTER + INTRA:          -9.872
REMARK INTER:                  -9.340
REMARK INTRA:                  -0.532
REMARK UNBOUND:                -0.509
REMARK SMILES CCCCC[C@H](O)CC(=O)CCc1ccc(O)c(OC)c1
REMARK SMILES IDX 8 1 6 2 7 3 5 5 4 6 3 7 2 8 1 9 9 10 10 11 11 12 12 13 13 14
REMARK SMILES IDX 21 15 14 16 18 17 15 18 16 19 19 20 20 21 17 22
REMARK H PARENT 7 4 17 23
REMARK Flexibility Score: inf
ROOT
ATOM      1  C   UNL     1      97.562  83.505  79.313  1.00  0.00     0.107 C 
ENDROOT
BRANCH   1   2
ATOM      2  C   UNL     1      96.625  83.125  78.164  1.00  0.00     0.121 C 
BRANCH   2   3
ATOM      3  O   UNL     1      95.755  84.216  77.869  1.00  0.00    -0.393 OA
ATOM      4  H   UNL     1      96.191  84.771  77.199  1.00  0.00     0.210 HD
ENDBRANCH   2   3
BRANCH   2   5
ATOM      5  C   UNL     1      97.373  82.717  76.890  1.00  0.00     0.032 C 
BRANCH   5   6
ATOM      6  C   UNL     1      97.880  83.933  76.104  1.00  0.00     0.003 C 
BRANCH   6   7
ATOM      7  C   UNL     1      97.098  84.189  74.812  1.00  0.00    -0.000 C 
BRANCH   7   8
ATOM      8  C   UNL     1      97.943  84.047  73.547  1.00  0.00    -0.003 C 
ATOM      9  C   UNL     1      99.037  85.102  73.490  1.00  0.00     0.004 C 
ENDBRANCH   7   8
ENDBRANCH   6   7
ENDBRANCH   5   6
ENDBRANCH   2   5
ENDBRANCH   1   2
BRANCH   1  10
ATOM     10  C   UNL     1      97.945  82.321  80.186  1.00  0.00     0.135 C 
ATOM     11  O   UNL     1      99.007  81.724  80.012  1.00  0.00    -0.300 OA
BRANCH  10  12
ATOM     12  C   UNL     1      96.975  81.952  81.299  1.00  0.00     0.080 C 
BRANCH  12  13
ATOM     13  C   UNL     1      97.322  82.580  82.650  1.00  0.00     0.043 C 
BRANCH  13  14
ATOM     14  C   UNL     1      96.109  82.839  83.511  1.00  0.00    -0.044 A 
ATOM     15  C   UNL     1      96.008  84.027  84.235  1.00  0.00     0.054 A 
ATOM     16  C   UNL     1      95.090  81.889  83.583  1.00  0.00     0.008 A 
ATOM     17  C   UNL     1      94.886  84.266  85.029  1.00  0.00     0.160 A 
ATOM     18  C   UNL     1      93.968  82.128  84.378  1.00  0.00     0.050 A 
ATOM     19  C   UNL     1      93.867  83.316  85.101  1.00  0.00     0.157 A 
BRANCH  17  20
ATOM     20  O   UNL     1      94.799  85.430  85.731  1.00  0.00    -0.493 OA
ATOM     21  C   UNL     1      94.308  86.573  85.033  1.00  0.00     0.278 C 
ENDBRANCH  17  20
BRANCH  19  22
ATOM     22  O   UNL     1      92.767  83.538  85.873  1.00  0.00    -0.504 OA
ATOM     23  H   UNL     1      92.826  84.429  86.260  1.00  0.00     0.293 HD
ENDBRANCH  19  22
ENDBRANCH  13  14
ENDBRANCH  12  13
ENDBRANCH  10  12
ENDBRANCH   1  10
TORSDOF 12
ENDMDL
MODEL 8
REMARK VINA RESULT:    -5.687      5.006      9.779
REMARK INTER + INTRA:          -9.852
REMARK INTER:                  -8.836
REMARK INTRA:                  -1.016
REMARK UNBOUND:                -0.509
REMARK SMILES CCCCC[C@H](O)CC(=O)CCc1ccc(O)c(OC)c1
REMARK SMILES IDX 8 1 6 2 7 3 5 5 4 6 3 7 2 8 1 9 9 10 10 11 11 12 12 13 13 14
REMARK SMILES IDX 21 15 14 16 18 17 15 18 16 19 19 20 20 21 17 22
REMARK H PARENT 7 4 17 23
REMARK Flexibility Score: inf
ROOT
ATOM      1  C   UNL     1      97.678  80.884  81.897  1.00  0.00     0.107 C 
ENDROOT
BRANCH   1   2
ATOM      2  C   UNL     1      97.099  81.465  83.190  1.00  0.00     0.121 C 
BRANCH   2   3
ATOM      3  O   UNL     1      98.035  81.304  84.254  1.00  0.00    -0.393 OA
ATOM      4  H   UNL     1      98.870  81.723  83.981  1.00  0.00     0.210 HD
ENDBRANCH   2   3
BRANCH   2   5
ATOM      5  C   UNL     1      96.724  82.947  83.067  1.00  0.00     0.032 C 
BRANCH   5   6
ATOM      6  C   UNL     1      95.292  83.220  83.543  1.00  0.00     0.003 C 
BRANCH   6   7
ATOM      7  C   UNL     1      94.609  81.991  84.150  1.00  0.00    -0.000 C 
BRANCH   7   8
ATOM      8  C   UNL     1      93.096  82.141  84.298  1.00  0.00    -0.003 C 
ATOM      9  C   UNL     1      92.735  82.866  85.586  1.00  0.00     0.004 C 
ENDBRANCH   7   8
ENDBRANCH   6   7
ENDBRANCH   5   6
ENDBRANCH   2   5
ENDBRANCH   1   2
BRANCH   1  10
ATOM     10  C   UNL     1      99.077  81.392  81.590  1.00  0.00     0.135 C 
ATOM     11  O   UNL     1     100.047  81.007  82.243  1.00  0.00    -0.300 OA
BRANCH  10  12
ATOM     12  C   UNL     1      99.213  82.352  80.419  1.00  0.00     0.080 C 
BRANCH  12  13
ATOM     13  C   UNL     1      98.960  81.701  79.058  1.00  0.00     0.043 C 
BRANCH  13  14
ATOM     14  C   UNL     1      98.219  82.603  78.099  1.00  0.00    -0.044 A 
ATOM     15  C   UNL     1      98.774  82.904  76.855  1.00  0.00     0.054 A 
ATOM     16  C   UNL     1      96.980  83.133  78.458  1.00  0.00     0.008 A 
ATOM     17  C   UNL     1      98.088  83.736  75.970  1.00  0.00     0.160 A 
ATOM     18  C   UNL     1      96.294  83.966  77.573  1.00  0.00     0.050 A 
ATOM     19  C   UNL     1      96.849  84.267  76.329  1.00  0.00     0.157 A 
BRANCH  17  20
ATOM     20  O   UNL     1      98.640  84.025  74.758  1.00  0.00    -0.493 OA
ATOM     21  C   UNL     1      99.717  83.197  74.323  1.00  0.00     0.278 C 
ENDBRANCH  17  20
BRANCH  19  22
ATOM     22  O   UNL     1      96.170  85.081  75.473  1.00  0.00    -0.504 OA
ATOM     23  H   UNL     1      95.544  85.624  75.982  1.00  0.00     0.293 HD
ENDBRANCH  19  22
ENDBRANCH  13  14
ENDBRANCH  12  13
ENDBRANCH  10  12
ENDBRANCH   1  10
TORSDOF 12
ENDMDL
MODEL 9
REMARK VINA RESULT:    -5.630      3.224      8.029
REMARK INTER + INTRA:          -9.760
REMARK INTER:                  -8.647
REMARK INTRA:                  -1.112
REMARK UNBOUND:                -0.509
REMARK SMILES CCCCC[C@H](O)CC(=O)CCc1ccc(O)c(OC)c1
REMARK SMILES IDX 8 1 6 2 7 3 5 5 4 6 3 7 2 8 1 9 9 10 10 11 11 12 12 13 13 14
REMARK SMILES IDX 21 15 14 16 18 17 15 18 16 19 19 20 20 21 17 22
REMARK H PARENT 7 4 17 23
REMARK Flexibility Score: inf
ROOT
ATOM      1  C   UNL     1      94.339  84.874  85.971  1.00  0.00     0.107 C 
ENDROOT
BRANCH   1   2
ATOM      2  C   UNL     1      94.017  83.386  85.815  1.00  0.00     0.121 C 
BRANCH   2   3
ATOM      3  O   UNL     1      94.132  82.731  87.076  1.00  0.00    -0.393 OA
ATOM      4  H   UNL     1      95.077  82.567  87.240  1.00  0.00     0.210 HD
ENDBRANCH   2   3
BRANCH   2   5
ATOM      5  C   UNL     1      92.618  83.132  85.240  1.00  0.00     0.032 C 
BRANCH   5   6
ATOM      6  C   UNL     1      92.567  81.858  84.388  1.00  0.00     0.003 C 
BRANCH   6   7
ATOM      7  C   UNL     1      91.414  80.921  84.765  1.00  0.00    -0.000 C 
BRANCH   7   8
ATOM      8  C   UNL     1      90.547  80.509  83.577  1.00  0.00    -0.003 C 
ATOM      9  C   UNL     1      89.108  80.262  84.001  1.00  0.00     0.004 C 
ENDBRANCH   7   8
ENDBRANCH   6   7
ENDBRANCH   5   6
ENDBRANCH   2   5
ENDBRANCH   1   2
BRANCH   1  10
ATOM     10  C   UNL     1      95.144  85.434  84.810  1.00  0.00     0.135 C 
ATOM     11  O   UNL     1      94.958  86.582  84.406  1.00  0.00    -0.300 OA
BRANCH  10  12
ATOM     12  C   UNL     1      96.208  84.524  84.216  1.00  0.00     0.080 C 
BRANCH  12  13
ATOM     13  C   UNL     1      96.039  84.278  82.715  1.00  0.00     0.043 C 
BRANCH  13  14
ATOM     14  C   UNL     1      96.371  82.863  82.306  1.00  0.00    -0.044 A 
ATOM     15  C   UNL     1      96.998  82.619  81.084  1.00  0.00     0.054 A 
ATOM     16  C   UNL     1      96.050  81.800  83.151  1.00  0.00     0.008 A 
ATOM     17  C   UNL     1      97.305  81.311  80.708  1.00  0.00     0.160 A 
ATOM     18  C   UNL     1      96.357  80.492  82.774  1.00  0.00     0.050 A 
ATOM     19  C   UNL     1      96.984  80.248  81.552  1.00  0.00     0.157 A 
BRANCH  17  20
ATOM     20  O   UNL     1      97.917  81.085  79.512  1.00  0.00    -0.493 OA
ATOM     21  C   UNL     1      99.317  81.345  79.441  1.00  0.00     0.278 C 
ENDBRANCH  17  20
BRANCH  19  22
ATOM     22  O   UNL     1      97.278  78.967  81.196  1.00  0.00    -0.504 OA
ATOM     23  H   UNL     1      96.483  78.417  81.303  1.00  0.00     0.293 HD
ENDBRANCH  19  22
ENDBRANCH  13  14
ENDBRANCH  12  13
ENDBRANCH  10  12
ENDBRANCH   1  10
TORSDOF 12
ENDMDL
MODEL 10
REMARK VINA RESULT:    -5.596      6.514     10.171
REMARK INTER + INTRA:          -9.703
REMARK INTER:                  -8.655
REMARK INTRA:                  -1.048
REMARK UNBOUND:                -0.509
REMARK SMILES CCCCC[C@H](O)CC(=O)CCc1ccc(O)c(OC)c1
REMARK SMILES IDX 8 1 6 2 7 3 5 5 4 6 3 7 2 8 1 9 9 10 10 11 11 12 12 13 13 14
REMARK SMILES IDX 21 15 14 16 18 17 15 18 16 19 19 20 20 21 17 22
REMARK H PARENT 7 4 17 23
REMARK Flexibility Score: inf
ROOT
ATOM      1  C   UNL     1      97.009  81.156  80.911  1.00  0.00     0.107 C 
ENDROOT
BRANCH   1   2
ATOM      2  C   UNL     1      97.100  79.868  81.733  1.00  0.00     0.121 C 
BRANCH   2   3
ATOM      3  O   UNL     1      98.370  79.255  81.531  1.00  0.00    -0.393 OA
ATOM      4  H   UNL     1      98.405  78.453  82.083  1.00  0.00     0.210 HD
ENDBRANCH   2   3
BRANCH   2   5
ATOM      5  C   UNL     1      96.883  80.098  83.234  1.00  0.00     0.032 C 
BRANCH   5   6
ATOM      6  C   UNL     1      95.632  80.940  83.513  1.00  0.00     0.003 C 
BRANCH   6   7
ATOM      7  C   UNL     1      95.886  82.102  84.480  1.00  0.00    -0.000 C 
BRANCH   7   8
ATOM      8  C   UNL     1      96.786  83.192  83.903  1.00  0.00    -0.003 C 
ATOM      9  C   UNL     1      96.009  84.125  82.987  1.00  0.00     0.004 C 
ENDBRANCH   7   8
ENDBRANCH   6   7
ENDBRANCH   5   6
ENDBRANCH   2   5
ENDBRANCH   1   2
BRANCH   1  10
ATOM     10  C   UNL     1      98.312  81.938  80.883  1.00  0.00     0.135 C 
ATOM     11  O   UNL     1      99.192  81.731  81.718  1.00  0.00    -0.300 OA
BRANCH  10  12
ATOM     12  C   UNL     1      98.480  82.943  79.754  1.00  0.00     0.080 C 
BRANCH  12  13
ATOM     13  C   UNL     1      97.173  83.289  79.038  1.00  0.00     0.043 C 
BRANCH  13  14
ATOM     14  C   UNL     1      97.374  83.679  77.593  1.00  0.00    -0.044 A 
ATOM     15  C   UNL     1      98.526  83.279  76.917  1.00  0.00     0.054 A 
ATOM     16  C   UNL     1      96.407  84.441  76.936  1.00  0.00     0.008 A 
ATOM     17  C   UNL     1      98.711  83.640  75.582  1.00  0.00     0.160 A 
ATOM     18  C   UNL     1      96.592  84.801  75.601  1.00  0.00     0.050 A 
ATOM     19  C   UNL     1      97.744  84.401  74.924  1.00  0.00     0.157 A 
BRANCH  17  20
ATOM     20  O   UNL     1      99.840  83.244  74.931  1.00  0.00    -0.493 OA
ATOM     21  C   UNL     1     101.023  84.007  75.162  1.00  0.00     0.278 C 
ENDBRANCH  17  20
BRANCH  19  22
ATOM     22  O   UNL     1      97.913  84.759  73.621  1.00  0.00    -0.504 OA
ATOM     23  H   UNL     1      97.663  84.011  73.052  1.00  0.00     0.293 HD
ENDBRANCH  19  22
ENDBRANCH  13  14
ENDBRANCH  12  13
ENDBRANCH  10  12
ENDBRANCH   1  10
TORSDOF 12
ENDMDL
