MODEL 1
REMARK VINA RESULT:    -7.388      0.000      0.000
REMARK INTER + INTRA:          -9.015
REMARK INTER:                  -8.684
REMARK INTRA:                  -0.331
REMARK UNBOUND:                -0.331
REMARK SMILES O=C(/C=C/C=C/c1ccc2c(c1)OCO2)N1CCCCC1
REMARK SMILES IDX 3 1 4 2 2 3 1 4 16 5 17 6 21 7 18 8 20 9 19 10 5 11 6 12
REMARK SMILES IDX 7 13 12 14 8 15 11 16 9 17 13 18 10 19 14 20 15 21
REMARK H PARENT
REMARK Flexibility Score: inf
ROOT
ATOM      1  C   UNL     1      96.042  82.263  82.878  1.00  0.00     0.071 C 
ATOM      2  C   UNL     1      96.824  81.817  81.897  1.00  0.00     0.006 C 
ENDROOT
BRANCH   1   3
ATOM      3  C   UNL     1      96.278  81.750  84.242  1.00  0.00     0.246 C 
ATOM      4  O   UNL     1      97.437  81.751  84.658  1.00  0.00    -0.270 OA
ATOM      5  N   UNL     1      95.176  81.295  84.964  1.00  0.00    -0.339 N 
ATOM      6  C   UNL     1      95.380  80.774  86.320  1.00  0.00     0.120 C 
ATOM      7  C   UNL     1      93.787  81.237  84.486  1.00  0.00     0.120 C 
ATOM      8  C   UNL     1      94.462  81.463  87.324  1.00  0.00     0.022 C 
ATOM      9  C   UNL     1      92.834  81.914  85.470  1.00  0.00     0.022 C 
ATOM     10  C   UNL     1      93.004  81.371  86.885  1.00  0.00     0.004 C 
ENDBRANCH   1   3
BRANCH   2  11
ATOM     11  C   UNL     1      96.670  82.261  80.528  1.00  0.00     0.001 C 
ATOM     12  C   UNL     1      97.242  81.629  79.490  1.00  0.00     0.008 C 
BRANCH  12  13
ATOM     13  C   UNL     1      97.125  82.041  78.081  1.00  0.00    -0.022 A 
ATOM     14  C   UNL     1      98.187  81.808  77.218  1.00  0.00     0.058 A 
ATOM     15  C   UNL     1      95.946  82.657  77.651  1.00  0.00     0.012 A 
ATOM     16  C   UNL     1      98.030  82.212  75.909  1.00  0.00     0.166 A 
ATOM     17  C   UNL     1      95.814  83.056  76.319  1.00  0.00     0.051 A 
ATOM     18  O   UNL     1      98.951  82.075  74.915  1.00  0.00    -0.454 OA
ATOM     19  C   UNL     1      96.875  82.819  75.470  1.00  0.00     0.165 A 
ATOM     20  C   UNL     1      98.246  82.663  73.803  1.00  0.00     0.468 C 
ATOM     21  O   UNL     1      96.928  83.138  74.148  1.00  0.00    -0.454 OA
ENDBRANCH  12  13
ENDBRANCH   2  11
TORSDOF 3
ENDMDL
MODEL 2
REMARK VINA RESULT:    -7.240      2.855      9.230
REMARK INTER + INTRA:          -8.840
REMARK INTER:                  -8.487
REMARK INTRA:                  -0.353
REMARK UNBOUND:                -0.331
REMARK SMILES O=C(/C=C/C=C/c1ccc2c(c1)OCO2)N1CCCCC1
REMARK SMILES IDX 3 1 4 2 2 3 1 4 16 5 17 6 21 7 18 8 20 9 19 10 5 11 6 12
REMARK SMILES IDX 7 13 12 14 8 15 11 16 9 17 13 18 10 19 14 20 15 21
REMARK H PARENT
REMARK Flexibility Score: inf
ROOT
ATOM      1  C   UNL     1      97.403  81.384  78.673  1.00  0.00     0.071 C 
ATOM      2  C   UNL     1      97.841  81.071  79.891  1.00  0.00     0.006 C 
ENDROOT
BRANCH   1   3
ATOM      3  C   UNL     1      98.332  81.222  77.537  1.00  0.00     0.246 C 
ATOM      4  O   UNL     1      99.283  80.454  77.685  1.00  0.00    -0.270 OA
ATOM      5  N   UNL     1      98.074  81.952  76.378  1.00  0.00    -0.339 N 
ATOM      6  C   UNL     1      98.982  81.816  75.235  1.00  0.00     0.120 C 
ATOM      7  C   UNL     1      96.976  82.910  76.181  1.00  0.00     0.120 C 
ATOM      8  C   UNL     1      98.223  81.471  73.958  1.00  0.00     0.022 C 
ATOM      9  C   UNL     1      96.192  82.599  74.906  1.00  0.00     0.022 C 
ATOM     10  C   UNL     1      97.111  82.480  73.693  1.00  0.00     0.004 C 
ENDBRANCH   1   3
BRANCH   2  11
ATOM     11  C   UNL     1      97.005  81.196  81.066  1.00  0.00     0.001 C 
ATOM     12  C   UNL     1      96.907  82.335  81.769  1.00  0.00     0.008 C 
BRANCH  12  13
ATOM     13  C   UNL     1      96.079  82.515  82.974  1.00  0.00    -0.022 A 
ATOM     14  C   UNL     1      95.964  83.781  83.533  1.00  0.00     0.058 A 
ATOM     15  C   UNL     1      95.432  81.405  83.523  1.00  0.00     0.012 A 
ATOM     16  C   UNL     1      95.178  83.899  84.660  1.00  0.00     0.166 A 
ATOM     17  C   UNL     1      94.642  81.553  84.665  1.00  0.00     0.051 A 
ATOM     18  O   UNL     1      94.942  85.047  85.352  1.00  0.00    -0.454 OA
ATOM     19  C   UNL     1      94.534  82.815  85.212  1.00  0.00     0.165 A 
ATOM     20  C   UNL     1      94.077  84.564  86.400  1.00  0.00     0.468 C 
ATOM     21  O   UNL     1      93.814  83.148  86.317  1.00  0.00    -0.454 OA
ENDBRANCH  12  13
ENDBRANCH   2  11
TORSDOF 3
ENDMDL
MODEL 3
REMARK VINA RESULT:    -7.171     14.098     17.757
REMARK INTER + INTRA:          -8.760
REMARK INTER:                  -8.434
REMARK INTRA:                  -0.325
REMARK UNBOUND:                -0.331
REMARK SMILES O=C(/C=C/C=C/c1ccc2c(c1)OCO2)N1CCCCC1
REMARK SMILES IDX 3 1 4 2 2 3 1 4 16 5 17 6 21 7 18 8 20 9 19 10 5 11 6 12
REMARK SMILES IDX 7 13 12 14 8 15 11 16 9 17 13 18 10 19 14 20 15 21
REMARK H PARENT
REMARK Flexibility Score: inf
ROOT
ATOM      1  C   UNL     1      96.346  97.607  73.505  1.00  0.00     0.071 C 
ATOM      2  C   UNL     1      95.804  96.392  73.546  1.00  0.00     0.006 C 
ENDROOT
BRANCH   1   3
ATOM      3  C   UNL     1      97.592  97.787  72.733  1.00  0.00     0.246 C 
ATOM      4  O   UNL     1      98.658  97.635  73.330  1.00  0.00    -0.270 OA
ATOM      5  N   UNL     1      97.478  98.121  71.384  1.00  0.00    -0.339 N 
ATOM      6  C   UNL     1      98.697  98.311  70.593  1.00  0.00     0.120 C 
ATOM      7  C   UNL     1      96.225  98.355  70.650  1.00  0.00     0.120 C 
ATOM      8  C   UNL     1      98.678  97.460  69.328  1.00  0.00     0.022 C 
ATOM      9  C   UNL     1      96.170  97.520  69.370  1.00  0.00     0.022 C 
ATOM     10  C   UNL     1      97.416  97.721  68.512  1.00  0.00     0.004 C 
ENDBRANCH   1   3
BRANCH   2  11
ATOM     11  C   UNL     1      94.585  96.117  74.276  1.00  0.00     0.001 C 
ATOM     12  C   UNL     1      94.390  94.979  74.962  1.00  0.00     0.008 C 
BRANCH  12  13
ATOM     13  C   UNL     1      93.168  94.645  75.714  1.00  0.00    -0.022 A 
ATOM     14  C   UNL     1      92.716  93.333  75.720  1.00  0.00     0.058 A 
ATOM     15  C   UNL     1      92.498  95.660  76.402  1.00  0.00     0.012 A 
ATOM     16  C   UNL     1      91.568  93.069  76.439  1.00  0.00     0.166 A 
ATOM     17  C   UNL     1      91.338  95.365  77.121  1.00  0.00     0.051 A 
ATOM     18  O   UNL     1      90.967  91.854  76.567  1.00  0.00    -0.454 OA
ATOM     19  C   UNL     1      90.897  94.058  77.121  1.00  0.00     0.165 A 
ATOM     20  C   UNL     1      89.844  92.190  77.405  1.00  0.00     0.468 C 
ATOM     21  O   UNL     1      89.793  93.587  77.761  1.00  0.00    -0.454 OA
ENDBRANCH  12  13
ENDBRANCH   2  11
TORSDOF 3
ENDMDL
MODEL 4
REMARK VINA RESULT:    -6.989     16.471     19.880
REMARK INTER + INTRA:          -8.545
REMARK INTER:                  -8.165
REMARK INTRA:                  -0.380
REMARK UNBOUND:                -0.331
REMARK SMILES O=C(/C=C/C=C/c1ccc2c(c1)OCO2)N1CCCCC1
REMARK SMILES IDX 3 1 4 2 2 3 1 4 16 5 17 6 21 7 18 8 20 9 19 10 5 11 6 12
REMARK SMILES IDX 7 13 12 14 8 15 11 16 9 17 13 18 10 19 14 20 15 21
REMARK H PARENT
REMARK Flexibility Score: inf
ROOT
ATOM      1  C   UNL     1      92.228  99.258  71.357  1.00  0.00     0.071 C 
ATOM      2  C   UNL     1      92.952  99.878  72.287  1.00  0.00     0.006 C 
ENDROOT
BRANCH   1   3
ATOM      3  C   UNL     1      91.747 100.050  70.209  1.00  0.00     0.246 C 
ATOM      4  O   UNL     1      92.313 101.119  69.977  1.00  0.00    -0.270 OA
ATOM      5  N   UNL     1      90.682  99.540  69.468  1.00  0.00    -0.339 N 
ATOM      6  C   UNL     1      90.178 100.307  68.325  1.00  0.00     0.120 C 
ATOM      7  C   UNL     1      89.953  98.292  69.740  1.00  0.00     0.120 C 
ATOM      8  C   UNL     1      90.129  99.456  67.061  1.00  0.00     0.022 C 
ATOM      9  C   UNL     1      89.879  97.411  68.493  1.00  0.00     0.022 C 
ATOM     10  C   UNL     1      89.330  98.177  67.293  1.00  0.00     0.004 C 
ENDBRANCH   1   3
BRANCH   2  11
ATOM     11  C   UNL     1      93.468  99.186  73.449  1.00  0.00     0.001 C 
ATOM     12  C   UNL     1      93.663  97.858  73.477  1.00  0.00     0.008 C 
BRANCH  12  13
ATOM     13  C   UNL     1      94.176  97.104  74.633  1.00  0.00    -0.022 A 
ATOM     14  C   UNL     1      93.306  96.300  75.356  1.00  0.00     0.058 A 
ATOM     15  C   UNL     1      95.528  97.218  74.970  1.00  0.00     0.012 A 
ATOM     16  C   UNL     1      93.834  95.613  76.430  1.00  0.00     0.166 A 
ATOM     17  C   UNL     1      96.036  96.511  76.062  1.00  0.00     0.051 A 
ATOM     18  O   UNL     1      93.147  94.780  77.260  1.00  0.00    -0.454 OA
ATOM     19  C   UNL     1      95.162  95.715  76.774  1.00  0.00     0.165 A 
ATOM     20  C   UNL     1      94.193  94.370  78.164  1.00  0.00     0.468 C 
ATOM     21  O   UNL     1      95.475  94.959  77.861  1.00  0.00    -0.454 OA
ENDBRANCH  12  13
ENDBRANCH   2  11
TORSDOF 3
ENDMDL
MODEL 5
REMARK VINA RESULT:    -6.953      2.927      9.461
REMARK INTER + INTRA:          -8.503
REMARK INTER:                  -8.377
REMARK INTRA:                  -0.126
REMARK UNBOUND:                -0.331
REMARK SMILES O=C(/C=C/C=C/c1ccc2c(c1)OCO2)N1CCCCC1
REMARK SMILES IDX 3 1 4 2 2 3 1 4 16 5 17 6 21 7 18 8 20 9 19 10 5 11 6 12
REMARK SMILES IDX 7 13 12 14 8 15 11 16 9 17 13 18 10 19 14 20 15 21
REMARK H PARENT
REMARK Flexibility Score: inf
ROOT
ATOM      1  C   UNL     1      96.376  82.086  77.401  1.00  0.00     0.071 C 
ATOM      2  C   UNL     1      97.436  82.121  78.207  1.00  0.00     0.006 C 
ENDROOT
BRANCH   1   3
ATOM      3  C   UNL     1      96.439  82.845  76.136  1.00  0.00     0.246 C 
ATOM      4  O   UNL     1      95.682  83.808  76.013  1.00  0.00    -0.270 OA
ATOM      5  N   UNL     1      97.347  82.420  75.167  1.00  0.00    -0.339 N 
ATOM      6  C   UNL     1      97.428  83.151  73.899  1.00  0.00     0.120 C 
ATOM      7  C   UNL     1      98.234  81.251  75.261  1.00  0.00     0.120 C 
ATOM      8  C   UNL     1      98.861  83.569  73.588  1.00  0.00     0.022 C 
ATOM      9  C   UNL     1      99.682  81.629  74.952  1.00  0.00     0.022 C 
ATOM     10  C   UNL     1      99.801  82.367  73.622  1.00  0.00     0.004 C 
ENDBRANCH   1   3
BRANCH   2  11
ATOM     11  C   UNL     1      97.468  81.410  79.467  1.00  0.00     0.001 C 
ATOM     12  C   UNL     1      96.682  81.735  80.505  1.00  0.00     0.008 C 
BRANCH  12  13
ATOM     13  C   UNL     1      96.680  81.052  81.810  1.00  0.00    -0.022 A 
ATOM     14  C   UNL     1      96.668  81.812  82.971  1.00  0.00     0.058 A 
ATOM     15  C   UNL     1      96.690  79.655  81.843  1.00  0.00     0.012 A 
ATOM     16  C   UNL     1      96.667  81.127  84.168  1.00  0.00     0.166 A 
ATOM     17  C   UNL     1      96.688  78.987  83.069  1.00  0.00     0.051 A 
ATOM     18  O   UNL     1      96.657  81.687  85.409  1.00  0.00    -0.454 OA
ATOM     19  C   UNL     1      96.676  79.751  84.217  1.00  0.00     0.165 A 
ATOM     20  C   UNL     1      96.662  80.511  86.243  1.00  0.00     0.468 C 
ATOM     21  O   UNL     1      96.674  79.279  85.493  1.00  0.00    -0.454 OA
ENDBRANCH  12  13
ENDBRANCH   2  11
TORSDOF 3
ENDMDL
MODEL 6
REMARK VINA RESULT:    -6.908      2.116      2.353
REMARK INTER + INTRA:          -8.450
REMARK INTER:                  -8.015
REMARK INTRA:                  -0.435
REMARK UNBOUND:                -0.331
REMARK SMILES O=C(/C=C/C=C/c1ccc2c(c1)OCO2)N1CCCCC1
REMARK SMILES IDX 3 1 4 2 2 3 1 4 16 5 17 6 21 7 18 8 20 9 19 10 5 11 6 12
REMARK SMILES IDX 7 13 12 14 8 15 11 16 9 17 13 18 10 19 14 20 15 21
REMARK H PARENT
REMARK Flexibility Score: inf
ROOT
ATOM      1  C   UNL     1      97.807  81.074  82.150  1.00  0.00     0.071 C 
ATOM      2  C   UNL     1      96.823  81.886  81.768  1.00  0.00     0.006 C 
ENDROOT
BRANCH   1   3
ATOM      3  C   UNL     1      97.928  80.757  83.587  1.00  0.00     0.246 C 
ATOM      4  O   UNL     1      98.382  81.631  84.326  1.00  0.00    -0.270 OA
ATOM      5  N   UNL     1      97.524  79.491  84.009  1.00  0.00    -0.339 N 
ATOM      6  C   UNL     1      97.637  79.146  85.429  1.00  0.00     0.120 C 
ATOM      7  C   UNL     1      97.020  78.409  83.151  1.00  0.00     0.120 C 
ATOM      8  C   UNL     1      96.314  78.627  85.983  1.00  0.00     0.022 C 
ATOM      9  C   UNL     1      95.694  77.859  83.676  1.00  0.00     0.022 C 
ATOM     10  C   UNL     1      95.790  77.464  85.147  1.00  0.00     0.004 C 
ENDBRANCH   1   3
BRANCH   2  11
ATOM     11  C   UNL     1      96.625  82.255  80.382  1.00  0.00     0.001 C 
ATOM     12  C   UNL     1      97.341  81.723  79.379  1.00  0.00     0.008 C 
BRANCH  12  13
ATOM     13  C   UNL     1      97.187  82.068  77.955  1.00  0.00    -0.022 A 
ATOM     14  C   UNL     1      98.212  81.763  77.071  1.00  0.00     0.058 A 
ATOM     15  C   UNL     1      96.010  82.693  77.534  1.00  0.00     0.012 A 
ATOM     16  C   UNL     1      98.021  82.105  75.748  1.00  0.00     0.166 A 
ATOM     17  C   UNL     1      95.843  83.029  76.188  1.00  0.00     0.051 A 
ATOM     18  O   UNL     1      98.903  81.894  74.733  1.00  0.00    -0.454 OA
ATOM     19  C   UNL     1      96.868  82.721  75.318  1.00  0.00     0.165 A 
ATOM     20  C   UNL     1      98.175  82.445  73.617  1.00  0.00     0.468 C 
ATOM     21  O   UNL     1      96.883  82.972  73.981  1.00  0.00    -0.454 OA
ENDBRANCH  12  13
ENDBRANCH   2  11
TORSDOF 3
ENDMDL
MODEL 7
REMARK VINA RESULT:    -6.787     24.169     26.356
REMARK INTER + INTRA:          -8.309
REMARK INTER:                  -7.925
REMARK INTRA:                  -0.384
REMARK UNBOUND:                -0.331
REMARK SMILES O=C(/C=C/C=C/c1ccc2c(c1)OCO2)N1CCCCC1
REMARK SMILES IDX 3 1 4 2 2 3 1 4 16 5 17 6 21 7 18 8 20 9 19 10 5 11 6 12
REMARK SMILES IDX 7 13 12 14 8 15 11 16 9 17 13 18 10 19 14 20 15 21
REMARK H PARENT
REMARK Flexibility Score: inf
ROOT
ATOM      1  C   UNL     1      76.583  85.798  66.289  1.00  0.00     0.071 C 
ATOM      2  C   UNL     1      77.119  86.297  67.401  1.00  0.00     0.006 C 
ENDROOT
BRANCH   1   3
ATOM      3  C   UNL     1      76.818  84.372  65.984  1.00  0.00     0.246 C 
ATOM      4  O   UNL     1      77.906  83.894  66.306  1.00  0.00    -0.270 OA
ATOM      5  N   UNL     1      75.797  83.667  65.349  1.00  0.00    -0.339 N 
ATOM      6  C   UNL     1      76.004  82.251  65.029  1.00  0.00     0.120 C 
ATOM      7  C   UNL     1      74.505  84.215  64.910  1.00  0.00     0.120 C 
ATOM      8  C   UNL     1      74.870  81.387  65.569  1.00  0.00     0.022 C 
ATOM      9  C   UNL     1      73.341  83.371  65.430  1.00  0.00     0.022 C 
ATOM     10  C   UNL     1      73.516  81.895  65.085  1.00  0.00     0.004 C 
ENDBRANCH   1   3
BRANCH   2  11
ATOM     11  C   UNL     1      76.944  87.682  67.785  1.00  0.00     0.001 C 
ATOM     12  C   UNL     1      75.778  88.332  67.647  1.00  0.00     0.008 C 
BRANCH  12  13
ATOM     13  C   UNL     1      75.548  89.740  68.013  1.00  0.00    -0.022 A 
ATOM     14  C   UNL     1      75.629  90.716  67.028  1.00  0.00     0.058 A 
ATOM     15  C   UNL     1      75.254  90.056  69.342  1.00  0.00     0.012 A 
ATOM     16  C   UNL     1      75.405  92.020  67.420  1.00  0.00     0.166 A 
ATOM     17  C   UNL     1      75.032  91.385  69.710  1.00  0.00     0.051 A 
ATOM     18  O   UNL     1      75.440  93.113  66.609  1.00  0.00    -0.454 OA
ATOM     19  C   UNL     1      75.115  92.346  68.724  1.00  0.00     0.165 A 
ATOM     20  C   UNL     1      75.139  94.163  67.551  1.00  0.00     0.468 C 
ATOM     21  O   UNL     1      74.932  93.684  68.895  1.00  0.00    -0.454 OA
ENDBRANCH  12  13
ENDBRANCH   2  11
TORSDOF 3
ENDMDL
MODEL 8
REMARK VINA RESULT:    -6.692     24.497     26.669
REMARK INTER + INTRA:          -8.197
REMARK INTER:                  -7.827
REMARK INTRA:                  -0.370
REMARK UNBOUND:                -0.331
REMARK SMILES O=C(/C=C/C=C/c1ccc2c(c1)OCO2)N1CCCCC1
REMARK SMILES IDX 3 1 4 2 2 3 1 4 16 5 17 6 21 7 18 8 20 9 19 10 5 11 6 12
REMARK SMILES IDX 7 13 12 14 8 15 11 16 9 17 13 18 10 19 14 20 15 21
REMARK H PARENT
REMARK Flexibility Score: inf
ROOT
ATOM      1  C   UNL     1      76.651  85.629  66.550  1.00  0.00     0.071 C 
ATOM      2  C   UNL     1      76.193  85.823  67.785  1.00  0.00     0.006 C 
ENDROOT
BRANCH   1   3
ATOM      3  C   UNL     1      76.846  84.239  66.092  1.00  0.00     0.246 C 
ATOM      4  O   UNL     1      77.931  83.708  66.333  1.00  0.00    -0.270 OA
ATOM      5  N   UNL     1      75.795  83.624  65.415  1.00  0.00    -0.339 N 
ATOM      6  C   UNL     1      75.961  82.246  64.943  1.00  0.00     0.120 C 
ATOM      7  C   UNL     1      74.505  84.240  65.070  1.00  0.00     0.120 C 
ATOM      8  C   UNL     1      74.823  81.352  65.422  1.00  0.00     0.022 C 
ATOM      9  C   UNL     1      73.335  83.370  65.531  1.00  0.00     0.022 C 
ATOM     10  C   UNL     1      73.468  81.934  65.030  1.00  0.00     0.004 C 
ENDBRANCH   1   3
BRANCH   2  11
ATOM     11  C   UNL     1      75.969  87.148  68.324  1.00  0.00     0.001 C 
ATOM     12  C   UNL     1      74.742  87.641  68.553  1.00  0.00     0.008 C 
BRANCH  12  13
ATOM     13  C   UNL     1      74.458  88.983  69.091  1.00  0.00    -0.022 A 
ATOM     14  C   UNL     1      73.218  89.232  69.663  1.00  0.00     0.058 A 
ATOM     15  C   UNL     1      75.445  89.968  69.010  1.00  0.00     0.012 A 
ATOM     16  C   UNL     1      72.999  90.504  70.153  1.00  0.00     0.166 A 
ATOM     17  C   UNL     1      75.197  91.246  69.514  1.00  0.00     0.051 A 
ATOM     18  O   UNL     1      71.856  90.945  70.746  1.00  0.00    -0.454 OA
ATOM     19  C   UNL     1      73.962  91.484  70.081  1.00  0.00     0.165 A 
ATOM     20  C   UNL     1      72.207  92.312  71.038  1.00  0.00     0.468 C 
ATOM     21  O   UNL     1      73.543  92.661  70.619  1.00  0.00    -0.454 OA
ENDBRANCH  12  13
ENDBRANCH   2  11
TORSDOF 3
ENDMDL
MODEL 9
REMARK VINA RESULT:    -6.351      8.600     10.341
REMARK INTER + INTRA:          -7.796
REMARK INTER:                  -7.406
REMARK INTRA:                  -0.389
REMARK UNBOUND:                -0.331
REMARK SMILES O=C(/C=C/C=C/c1ccc2c(c1)OCO2)N1CCCCC1
REMARK SMILES IDX 3 1 4 2 2 3 1 4 16 5 17 6 21 7 18 8 20 9 19 10 5 11 6 12
REMARK SMILES IDX 7 13 12 14 8 15 11 16 9 17 13 18 10 19 14 20 15 21
REMARK H PARENT
REMARK Flexibility Score: inf
ROOT
ATOM      1  C   UNL     1      94.103  85.404  88.115  1.00  0.00     0.071 C 
ATOM      2  C   UNL     1      94.091  84.818  86.919  1.00  0.00     0.006 C 
ENDROOT
BRANCH   1   3
ATOM      3  C   UNL     1      95.235  86.293  88.441  1.00  0.00     0.246 C 
ATOM      4  O   UNL     1      96.317  86.058  87.903  1.00  0.00    -0.270 OA
ATOM      5  N   UNL     1      95.006  87.334  89.339  1.00  0.00    -0.339 N 
ATOM      6  C   UNL     1      96.112  88.231  89.687  1.00  0.00     0.120 C 
ATOM      7  C   UNL     1      93.742  87.619  90.036  1.00  0.00     0.120 C 
ATOM      8  C   UNL     1      95.731  89.693  89.480  1.00  0.00     0.022 C 
ATOM      9  C   UNL     1      93.327  89.079  89.855  1.00  0.00     0.022 C 
ATOM     10  C   UNL     1      94.452  90.036  90.237  1.00  0.00     0.004 C 
ENDBRANCH   1   3
BRANCH   2  11
ATOM     11  C   UNL     1      93.024  83.930  86.508  1.00  0.00     0.001 C 
ATOM     12  C   UNL     1      92.144  83.403  87.374  1.00  0.00     0.008 C 
BRANCH  12  13
ATOM     13  C   UNL     1      91.047  82.489  87.012  1.00  0.00    -0.022 A 
ATOM     14  C   UNL     1      90.934  82.056  85.698  1.00  0.00     0.058 A 
ATOM     15  C   UNL     1      90.148  82.083  88.002  1.00  0.00     0.012 A 
ATOM     16  C   UNL     1      89.891  81.201  85.408  1.00  0.00     0.166 A 
ATOM     17  C   UNL     1      89.101  81.217  87.680  1.00  0.00     0.051 A 
ATOM     18  O   UNL     1      89.611  80.669  84.186  1.00  0.00    -0.454 OA
ATOM     19  C   UNL     1      88.999  80.792  86.372  1.00  0.00     0.165 A 
ATOM     20  C   UNL     1      88.443  79.880  84.490  1.00  0.00     0.468 C 
ATOM     21  O   UNL     1      88.049  79.953  85.876  1.00  0.00    -0.454 OA
ENDBRANCH  12  13
ENDBRANCH   2  11
TORSDOF 3
ENDMDL
MODEL 10
REMARK VINA RESULT:    -6.121      1.972      2.966
REMARK INTER + INTRA:          -7.525
REMARK INTER:                  -7.223
REMARK INTRA:                  -0.302
REMARK UNBOUND:                -0.331
REMARK SMILES O=C(/C=C/C=C/c1ccc2c(c1)OCO2)N1CCCCC1
REMARK SMILES IDX 3 1 4 2 2 3 1 4 16 5 17 6 21 7 18 8 20 9 19 10 5 11 6 12
REMARK SMILES IDX 7 13 12 14 8 15 11 16 9 17 13 18 10 19 14 20 15 21
REMARK H PARENT
REMARK Flexibility Score: inf
ROOT
ATOM      1  C   UNL     1      96.304  81.119  84.684  1.00  0.00     0.071 C 
ATOM      2  C   UNL     1      95.654  80.647  83.622  1.00  0.00     0.006 C 
ENDROOT
BRANCH   1   3
ATOM      3  C   UNL     1      95.560  81.251  85.952  1.00  0.00     0.246 C 
ATOM      4  O   UNL     1      95.598  80.301  86.735  1.00  0.00    -0.270 OA
ATOM      5  N   UNL     1      94.862  82.437  86.176  1.00  0.00    -0.339 N 
ATOM      6  C   UNL     1      94.110  82.595  87.424  1.00  0.00     0.120 C 
ATOM      7  C   UNL     1      94.758  83.572  85.247  1.00  0.00     0.120 C 
ATOM      8  C   UNL     1      94.490  83.883  88.144  1.00  0.00     0.022 C 
ATOM      9  C   UNL     1      95.128  84.885  85.934  1.00  0.00     0.022 C 
ATOM     10  C   UNL     1      94.338  85.090  87.224  1.00  0.00     0.004 C 
ENDBRANCH   1   3
BRANCH   2  11
ATOM     11  C   UNL     1      96.297  80.482  82.336  1.00  0.00     0.001 C 
ATOM     12  C   UNL     1      96.772  81.517  81.623  1.00  0.00     0.008 C 
BRANCH  12  13
ATOM     13  C   UNL     1      97.427  81.406  80.308  1.00  0.00    -0.022 A 
ATOM     14  C   UNL     1      96.902  82.108  79.231  1.00  0.00     0.058 A 
ATOM     15  C   UNL     1      98.559  80.598  80.181  1.00  0.00     0.012 A 
ATOM     16  C   UNL     1      97.550  81.973  78.021  1.00  0.00     0.166 A 
ATOM     17  C   UNL     1      99.196  80.480  78.944  1.00  0.00     0.051 A 
ATOM     18  O   UNL     1      97.193  82.574  76.853  1.00  0.00    -0.454 OA
ATOM     19  C   UNL     1      98.666  81.181  77.880  1.00  0.00     0.165 A 
ATOM     20  C   UNL     1      98.209  82.072  75.962  1.00  0.00     0.468 C 
ATOM     21  O   UNL     1      99.148  81.187  76.608  1.00  0.00    -0.454 OA
ENDBRANCH  12  13
ENDBRANCH   2  11
TORSDOF 3
ENDMDL
