MODEL 1
REMARK VINA RESULT:    -6.301      0.000      0.000
REMARK INTER + INTRA:         -11.787
REMARK INTER:                 -10.352
REMARK INTRA:                  -1.435
REMARK UNBOUND:                -1.435
REMARK SMILES CCCCC[C@H](O)CC(=O)CCc1ccc(O)c(OC)c1
REMARK SMILES IDX 8 1 6 2 7 3 5 5 4 6 3 7 2 8 1 9 9 10 10 11 11 12 12 13 13 14
REMARK SMILES IDX 21 15 14 16 18 17 15 18 16 19 19 20 20 21 17 22
REMARK H PARENT 7 4 17 23
REMARK Flexibility Score: inf
ROOT
ATOM      1  C   UNL     1      96.632  94.286  80.591  1.00  0.00     0.107 C 
ENDROOT
BRANCH   1   2
ATOM      2  C   UNL     1      95.868  95.537  81.030  1.00  0.00     0.121 C 
BRANCH   2   3
ATOM      3  O   UNL     1      95.567  95.456  82.422  1.00  0.00    -0.393 OA
ATOM      4  H   UNL     1      96.296  94.980  82.856  1.00  0.00     0.210 HD
ENDBRANCH   2   3
BRANCH   2   5
ATOM      5  C   UNL     1      96.634  96.837  80.755  1.00  0.00     0.032 C 
BRANCH   5   6
ATOM      6  C   UNL     1      97.359  96.802  79.404  1.00  0.00     0.003 C 
BRANCH   6   7
ATOM      7  C   UNL     1      97.480  98.181  78.745  1.00  0.00    -0.000 C 
BRANCH   7   8
ATOM      8  C   UNL     1      97.734  98.120  77.240  1.00  0.00    -0.003 C 
ATOM      9  C   UNL     1      97.010  96.944  76.603  1.00  0.00     0.004 C 
ENDBRANCH   7   8
ENDBRANCH   6   7
ENDBRANCH   5   6
ENDBRANCH   2   5
ENDBRANCH   1   2
BRANCH   1  10
ATOM     10  C   UNL     1      95.726  93.092  80.339  1.00  0.00     0.135 C 
ATOM     11  O   UNL     1      95.190  92.496  81.273  1.00  0.00    -0.300 OA
BRANCH  10  12
ATOM     12  C   UNL     1      95.489  92.711  78.886  1.00  0.00     0.080 C 
BRANCH  12  13
ATOM     13  C   UNL     1      95.344  93.912  77.950  1.00  0.00     0.043 C 
BRANCH  13  14
ATOM     14  C   UNL     1      93.905  94.259  77.650  1.00  0.00    -0.044 A 
ATOM     15  C   UNL     1      92.908  93.296  77.807  1.00  0.00     0.054 A 
ATOM     16  C   UNL     1      93.574  95.542  77.215  1.00  0.00     0.008 A 
ATOM     17  C   UNL     1      91.579  93.618  77.530  1.00  0.00     0.160 A 
ATOM     18  C   UNL     1      92.245  95.864  76.937  1.00  0.00     0.050 A 
ATOM     19  C   UNL     1      91.248  94.901  77.095  1.00  0.00     0.157 A 
BRANCH  17  20
ATOM     20  O   UNL     1      90.614  92.669  77.686  1.00  0.00    -0.493 OA
ATOM     21  C   UNL     1      90.384  91.791  76.586  1.00  0.00     0.278 C 
ENDBRANCH  17  20
BRANCH  19  22
ATOM     22  O   UNL     1      89.954  95.227  76.821  1.00  0.00    -0.504 OA
ATOM     23  H   UNL     1      89.570  94.543  76.246  1.00  0.00     0.293 HD
ENDBRANCH  19  22
ENDBRANCH  13  14
ENDBRANCH  12  13
ENDBRANCH  10  12
ENDBRANCH   1  10
TORSDOF 12
ENDMDL
MODEL 2
REMARK VINA RESULT:    -6.103      1.542      2.742
REMARK INTER + INTRA:         -11.462
REMARK INTER:                 -10.582
REMARK INTRA:                  -0.881
REMARK UNBOUND:                -1.435
REMARK SMILES CCCCC[C@H](O)CC(=O)CCc1ccc(O)c(OC)c1
REMARK SMILES IDX 8 1 6 2 7 3 5 5 4 6 3 7 2 8 1 9 9 10 10 11 11 12 12 13 13 14
REMARK SMILES IDX 21 15 14 16 18 17 15 18 16 19 19 20 20 21 17 22
REMARK H PARENT 7 4 17 23
REMARK Flexibility Score: inf
ROOT
ATOM      1  C   UNL     1      96.691  94.450  80.805  1.00  0.00     0.107 C 
ENDROOT
BRANCH   1   2
ATOM      2  C   UNL     1      95.895  95.663  81.292  1.00  0.00     0.121 C 
BRANCH   2   3
ATOM      3  O   UNL     1      95.464  95.450  82.635  1.00  0.00    -0.393 OA
ATOM      4  H   UNL     1      94.607  94.990  82.603  1.00  0.00     0.210 HD
ENDBRANCH   2   3
BRANCH   2   5
ATOM      5  C   UNL     1      96.691  96.972  81.219  1.00  0.00     0.032 C 
BRANCH   5   6
ATOM      6  C   UNL     1      96.131  98.041  82.165  1.00  0.00     0.003 C 
BRANCH   6   7
ATOM      7  C   UNL     1      97.144  98.516  83.211  1.00  0.00    -0.000 C 
BRANCH   7   8
ATOM      8  C   UNL     1      96.927  97.906  84.595  1.00  0.00    -0.003 C 
ATOM      9  C   UNL     1      98.024  96.911  84.940  1.00  0.00     0.004 C 
ENDBRANCH   7   8
ENDBRANCH   6   7
ENDBRANCH   5   6
ENDBRANCH   2   5
ENDBRANCH   1   2
BRANCH   1  10
ATOM     10  C   UNL     1      95.849  93.188  80.700  1.00  0.00     0.135 C 
ATOM     11  O   UNL     1      95.560  92.535  81.703  1.00  0.00    -0.300 OA
BRANCH  10  12
ATOM     12  C   UNL     1      95.355  92.811  79.312  1.00  0.00     0.080 C 
BRANCH  12  13
ATOM     13  C   UNL     1      95.241  94.000  78.356  1.00  0.00     0.043 C 
BRANCH  13  14
ATOM     14  C   UNL     1      93.820  94.286  77.933  1.00  0.00    -0.044 A 
ATOM     15  C   UNL     1      92.833  93.315  78.101  1.00  0.00     0.054 A 
ATOM     16  C   UNL     1      93.494  95.522  77.373  1.00  0.00     0.008 A 
ATOM     17  C   UNL     1      91.520  93.580  77.711  1.00  0.00     0.160 A 
ATOM     18  C   UNL     1      92.182  95.787  76.983  1.00  0.00     0.050 A 
ATOM     19  C   UNL     1      91.195  94.816  77.151  1.00  0.00     0.157 A 
BRANCH  17  20
ATOM     20  O   UNL     1      90.565  92.623  77.879  1.00  0.00    -0.493 OA
ATOM     21  C   UNL     1      90.241  91.823  76.744  1.00  0.00     0.278 C 
ENDBRANCH  17  20
BRANCH  19  22
ATOM     22  O   UNL     1      89.917  95.086  76.766  1.00  0.00    -0.504 OA
ATOM     23  H   UNL     1      89.570  94.329  76.265  1.00  0.00     0.293 HD
ENDBRANCH  19  22
ENDBRANCH  13  14
ENDBRANCH  12  13
ENDBRANCH  10  12
ENDBRANCH   1  10
TORSDOF 12
ENDMDL
MODEL 3
REMARK VINA RESULT:    -5.595     12.596     14.433
REMARK INTER + INTRA:         -10.628
REMARK INTER:                  -9.708
REMARK INTRA:                  -0.920
REMARK UNBOUND:                -1.435
REMARK SMILES CCCCC[C@H](O)CC(=O)CCc1ccc(O)c(OC)c1
REMARK SMILES IDX 8 1 6 2 7 3 5 5 4 6 3 7 2 8 1 9 9 10 10 11 11 12 12 13 13 14
REMARK SMILES IDX 21 15 14 16 18 17 15 18 16 19 19 20 20 21 17 22
REMARK H PARENT 7 4 17 23
REMARK Flexibility Score: inf
ROOT
ATOM      1  C   UNL     1      97.451  81.861  76.272  1.00  0.00     0.107 C 
ENDROOT
BRANCH   1   2
ATOM      2  C   UNL     1      96.607  82.648  75.265  1.00  0.00     0.121 C 
BRANCH   2   3
ATOM      3  O   UNL     1      96.679  84.041  75.559  1.00  0.00    -0.393 OA
ATOM      4  H   UNL     1      97.034  84.493  74.774  1.00  0.00     0.210 HD
ENDBRANCH   2   3
BRANCH   2   5
ATOM      5  C   UNL     1      97.036  82.416  73.811  1.00  0.00     0.032 C 
BRANCH   5   6
ATOM      6  C   UNL     1      98.309  81.565  73.715  1.00  0.00     0.003 C 
BRANCH   6   7
ATOM      7  C   UNL     1      99.497  82.319  73.109  1.00  0.00    -0.000 C 
BRANCH   7   8
ATOM      8  C   UNL     1     100.478  82.855  74.150  1.00  0.00    -0.003 C 
ATOM      9  C   UNL     1     101.014  84.223  73.755  1.00  0.00     0.004 C 
ENDBRANCH   7   8
ENDBRANCH   6   7
ENDBRANCH   5   6
ENDBRANCH   2   5
ENDBRANCH   1   2
BRANCH   1  10
ATOM     10  C   UNL     1      97.018  82.081  77.712  1.00  0.00     0.135 C 
ATOM     11  O   UNL     1      95.894  82.506  77.977  1.00  0.00    -0.300 OA
BRANCH  10  12
ATOM     12  C   UNL     1      98.024  81.709  78.791  1.00  0.00     0.080 C 
BRANCH  12  13
ATOM     13  C   UNL     1      97.474  80.734  79.834  1.00  0.00     0.043 C 
BRANCH  13  14
ATOM     14  C   UNL     1      97.268  81.370  81.188  1.00  0.00    -0.044 A 
ATOM     15  C   UNL     1      97.947  80.876  82.301  1.00  0.00     0.054 A 
ATOM     16  C   UNL     1      96.399  82.452  81.324  1.00  0.00     0.008 A 
ATOM     17  C   UNL     1      97.757  81.465  83.552  1.00  0.00     0.160 A 
ATOM     18  C   UNL     1      96.208  83.042  82.574  1.00  0.00     0.050 A 
ATOM     19  C   UNL     1      96.887  82.547  83.688  1.00  0.00     0.157 A 
BRANCH  17  20
ATOM     20  O   UNL     1      98.425  80.973  84.632  1.00  0.00    -0.493 OA
ATOM     21  C   UNL     1      97.921  79.772  85.214  1.00  0.00     0.278 C 
ENDBRANCH  17  20
BRANCH  19  22
ATOM     22  O   UNL     1      96.693  83.131  84.903  1.00  0.00    -0.504 OA
ATOM     23  H   UNL     1      96.029  83.835  84.814  1.00  0.00     0.293 HD
ENDBRANCH  19  22
ENDBRANCH  13  14
ENDBRANCH  12  13
ENDBRANCH  10  12
ENDBRANCH   1  10
TORSDOF 12
ENDMDL
MODEL 4
REMARK VINA RESULT:    -5.491      2.194      3.477
REMARK INTER + INTRA:         -10.457
REMARK INTER:                  -9.324
REMARK INTRA:                  -1.133
REMARK UNBOUND:                -1.435
REMARK SMILES CCCCC[C@H](O)CC(=O)CCc1ccc(O)c(OC)c1
REMARK SMILES IDX 8 1 6 2 7 3 5 5 4 6 3 7 2 8 1 9 9 10 10 11 11 12 12 13 13 14
REMARK SMILES IDX 21 15 14 16 18 17 15 18 16 19 19 20 20 21 17 22
REMARK H PARENT 7 4 17 23
REMARK Flexibility Score: inf
ROOT
ATOM      1  C   UNL     1      96.886  94.335  80.935  1.00  0.00     0.107 C 
ENDROOT
BRANCH   1   2
ATOM      2  C   UNL     1      96.165  95.621  81.349  1.00  0.00     0.121 C 
BRANCH   2   3
ATOM      3  O   UNL     1      95.436  95.400  82.554  1.00  0.00    -0.393 OA
ATOM      4  H   UNL     1      94.881  94.611  82.425  1.00  0.00     0.210 HD
ENDBRANCH   2   3
BRANCH   2   5
ATOM      5  C   UNL     1      97.119  96.806  81.546  1.00  0.00     0.032 C 
BRANCH   5   6
ATOM      6  C   UNL     1      97.032  97.814  80.394  1.00  0.00     0.003 C 
BRANCH   6   7
ATOM      7  C   UNL     1      97.191  99.269  80.847  1.00  0.00    -0.000 C 
BRANCH   7   8
ATOM      8  C   UNL     1      96.774  99.507  82.297  1.00  0.00    -0.003 C 
ATOM      9  C   UNL     1      95.433 100.219  82.379  1.00  0.00     0.004 C 
ENDBRANCH   7   8
ENDBRANCH   6   7
ENDBRANCH   5   6
ENDBRANCH   2   5
ENDBRANCH   1   2
BRANCH   1  10
ATOM     10  C   UNL     1      95.939  93.168  80.708  1.00  0.00     0.135 C 
ATOM     11  O   UNL     1      95.533  92.490  81.652  1.00  0.00    -0.300 OA
BRANCH  10  12
ATOM     12  C   UNL     1      95.492  92.921  79.276  1.00  0.00     0.080 C 
BRANCH  12  13
ATOM     13  C   UNL     1      94.026  93.273  79.019  1.00  0.00     0.043 C 
BRANCH  13  14
ATOM     14  C   UNL     1      93.845  94.284  77.911  1.00  0.00    -0.044 A 
ATOM     15  C   UNL     1      94.960  94.853  77.297  1.00  0.00     0.054 A 
ATOM     16  C   UNL     1      92.561  94.647  77.503  1.00  0.00     0.008 A 
ATOM     17  C   UNL     1      94.791  95.786  76.274  1.00  0.00     0.160 A 
ATOM     18  C   UNL     1      92.392  95.580  76.479  1.00  0.00     0.050 A 
ATOM     19  C   UNL     1      93.508  96.149  75.865  1.00  0.00     0.157 A 
BRANCH  17  20
ATOM     20  O   UNL     1      95.888  96.336  75.681  1.00  0.00    -0.493 OA
ATOM     21  C   UNL     1      96.898  96.855  76.544  1.00  0.00     0.278 C 
ENDBRANCH  17  20
BRANCH  19  22
ATOM     22  O   UNL     1      93.331  97.059  74.867  1.00  0.00    -0.504 OA
ATOM     23  H   UNL     1      93.068  96.592  74.055  1.00  0.00     0.293 HD
ENDBRANCH  19  22
ENDBRANCH  13  14
ENDBRANCH  12  13
ENDBRANCH  10  12
ENDBRANCH   1  10
TORSDOF 12
ENDMDL
MODEL 5
REMARK VINA RESULT:    -5.479     22.055     24.108
REMARK INTER + INTRA:         -10.437
REMARK INTER:                  -8.093
REMARK INTRA:                  -2.344
REMARK UNBOUND:                -1.435
REMARK SMILES CCCCC[C@H](O)CC(=O)CCc1ccc(O)c(OC)c1
REMARK SMILES IDX 8 1 6 2 7 3 5 5 4 6 3 7 2 8 1 9 9 10 10 11 11 12 12 13 13 14
REMARK SMILES IDX 21 15 14 16 18 17 15 18 16 19 19 20 20 21 17 22
REMARK H PARENT 7 4 17 23
REMARK Flexibility Score: inf
ROOT
ATOM      1  C   UNL     1      72.990  88.622  67.578  1.00  0.00     0.107 C 
ENDROOT
BRANCH   1   2
ATOM      2  C   UNL     1      73.439  89.872  68.338  1.00  0.00     0.121 C 
BRANCH   2   3
ATOM      3  O   UNL     1      73.411  89.621  69.741  1.00  0.00    -0.393 OA
ATOM      4  H   UNL     1      73.624  88.681  69.879  1.00  0.00     0.210 HD
ENDBRANCH   2   3
BRANCH   2   5
ATOM      5  C   UNL     1      74.841  90.347  67.938  1.00  0.00     0.032 C 
BRANCH   5   6
ATOM      6  C   UNL     1      75.943  89.488  68.571  1.00  0.00     0.003 C 
BRANCH   6   7
ATOM      7  C   UNL     1      76.948  88.943  67.552  1.00  0.00    -0.000 C 
BRANCH   7   8
ATOM      8  C   UNL     1      76.460  89.025  66.106  1.00  0.00    -0.003 C 
ATOM      9  C   UNL     1      76.109  87.649  65.561  1.00  0.00     0.004 C 
ENDBRANCH   7   8
ENDBRANCH   6   7
ENDBRANCH   5   6
ENDBRANCH   2   5
ENDBRANCH   1   2
BRANCH   1  10
ATOM     10  C   UNL     1      72.184  87.660  68.436  1.00  0.00     0.135 C 
ATOM     11  O   UNL     1      71.136  88.018  68.973  1.00  0.00    -0.300 OA
BRANCH  10  12
ATOM     12  C   UNL     1      72.715  86.240  68.551  1.00  0.00     0.080 C 
BRANCH  12  13
ATOM     13  C   UNL     1      74.044  86.140  69.302  1.00  0.00     0.043 C 
BRANCH  13  14
ATOM     14  C   UNL     1      75.127  85.457  68.501  1.00  0.00    -0.044 A 
ATOM     15  C   UNL     1      74.791  84.691  67.385  1.00  0.00     0.054 A 
ATOM     16  C   UNL     1      76.464  85.592  68.878  1.00  0.00     0.008 A 
ATOM     17  C   UNL     1      75.792  84.061  66.645  1.00  0.00     0.160 A 
ATOM     18  C   UNL     1      77.465  84.962  68.138  1.00  0.00     0.050 A 
ATOM     19  C   UNL     1      77.129  84.197  67.022  1.00  0.00     0.157 A 
BRANCH  17  20
ATOM     20  O   UNL     1      75.452  83.315  65.557  1.00  0.00    -0.493 OA
ATOM     21  C   UNL     1      74.594  82.198  65.780  1.00  0.00     0.278 C 
ENDBRANCH  17  20
BRANCH  19  22
ATOM     22  O   UNL     1      78.115  83.586  66.308  1.00  0.00    -0.504 OA
ATOM     23  H   UNL     1      78.979  83.873  66.651  1.00  0.00     0.293 HD
ENDBRANCH  19  22
ENDBRANCH  13  14
ENDBRANCH  12  13
ENDBRANCH  10  12
ENDBRANCH   1  10
TORSDOF 12
ENDMDL
MODEL 6
REMARK VINA RESULT:    -5.457     22.006     25.151
REMARK INTER + INTRA:         -10.401
REMARK INTER:                  -9.246
REMARK INTRA:                  -1.155
REMARK UNBOUND:                -1.435
REMARK SMILES CCCCC[C@H](O)CC(=O)CCc1ccc(O)c(OC)c1
REMARK SMILES IDX 8 1 6 2 7 3 5 5 4 6 3 7 2 8 1 9 9 10 10 11 11 12 12 13 13 14
REMARK SMILES IDX 21 15 14 16 18 17 15 18 16 19 19 20 20 21 17 22
REMARK H PARENT 7 4 17 23
REMARK Flexibility Score: inf
ROOT
ATOM      1  C   UNL     1      76.613  84.545  65.236  1.00  0.00     0.107 C 
ENDROOT
BRANCH   1   2
ATOM      2  C   UNL     1      75.608  83.465  64.827  1.00  0.00     0.121 C 
BRANCH   2   3
ATOM      3  O   UNL     1      76.302  82.293  64.407  1.00  0.00    -0.393 OA
ATOM      4  H   UNL     1      76.739  82.493  63.561  1.00  0.00     0.210 HD
ENDBRANCH   2   3
BRANCH   2   5
ATOM      5  C   UNL     1      74.631  83.098  65.950  1.00  0.00     0.032 C 
BRANCH   5   6
ATOM      6  C   UNL     1      74.207  81.626  65.888  1.00  0.00     0.003 C 
BRANCH   6   7
ATOM      7  C   UNL     1      72.865  81.410  65.183  1.00  0.00    -0.000 C 
BRANCH   7   8
ATOM      8  C   UNL     1      71.887  82.570  65.359  1.00  0.00    -0.003 C 
ATOM      9  C   UNL     1      70.456  82.074  65.492  1.00  0.00     0.004 C 
ENDBRANCH   7   8
ENDBRANCH   6   7
ENDBRANCH   5   6
ENDBRANCH   2   5
ENDBRANCH   1   2
BRANCH   1  10
ATOM     10  C   UNL     1      77.354  84.212  66.520  1.00  0.00     0.135 C 
ATOM     11  O   UNL     1      78.004  83.171  66.625  1.00  0.00    -0.300 OA
BRANCH  10  12
ATOM     12  C   UNL     1      77.286  85.245  67.634  1.00  0.00     0.080 C 
BRANCH  12  13
ATOM     13  C   UNL     1      77.394  86.689  67.141  1.00  0.00     0.043 C 
BRANCH  13  14
ATOM     14  C   UNL     1      76.386  87.612  67.784  1.00  0.00    -0.044 A 
ATOM     15  C   UNL     1      75.132  87.126  68.155  1.00  0.00     0.054 A 
ATOM     16  C   UNL     1      76.709  88.951  68.006  1.00  0.00     0.008 A 
ATOM     17  C   UNL     1      74.202  87.978  68.750  1.00  0.00     0.160 A 
ATOM     18  C   UNL     1      75.779  89.804  68.601  1.00  0.00     0.050 A 
ATOM     19  C   UNL     1      74.525  89.317  68.972  1.00  0.00     0.157 A 
BRANCH  17  20
ATOM     20  O   UNL     1      72.981  87.492  69.107  1.00  0.00    -0.493 OA
ATOM     21  C   UNL     1      72.575  86.260  68.515  1.00  0.00     0.278 C 
ENDBRANCH  17  20
BRANCH  19  22
ATOM     22  O   UNL     1      73.625  90.159  69.552  1.00  0.00    -0.504 OA
ATOM     23  H   UNL     1      73.349  89.788  70.407  1.00  0.00     0.293 HD
ENDBRANCH  19  22
ENDBRANCH  13  14
ENDBRANCH  12  13
ENDBRANCH  10  12
ENDBRANCH   1  10
TORSDOF 12
ENDMDL
MODEL 7
REMARK VINA RESULT:    -5.385     11.076     13.705
REMARK INTER + INTRA:         -10.282
REMARK INTER:                  -8.948
REMARK INTRA:                  -1.334
REMARK UNBOUND:                -1.435
REMARK SMILES CCCCC[C@H](O)CC(=O)CCc1ccc(O)c(OC)c1
REMARK SMILES IDX 8 1 6 2 7 3 5 5 4 6 3 7 2 8 1 9 9 10 10 11 11 12 12 13 13 14
REMARK SMILES IDX 21 15 14 16 18 17 15 18 16 19 19 20 20 21 17 22
REMARK H PARENT 7 4 17 23
REMARK Flexibility Score: inf
ROOT
ATOM      1  C   UNL     1      90.305  98.967  68.644  1.00  0.00     0.107 C 
ENDROOT
BRANCH   1   2
ATOM      2  C   UNL     1      89.469  99.249  69.895  1.00  0.00     0.121 C 
BRANCH   2   3
ATOM      3  O   UNL     1      89.549  98.141  70.789  1.00  0.00    -0.393 OA
ATOM      4  H   UNL     1      90.115  98.403  71.537  1.00  0.00     0.210 HD
ENDBRANCH   2   3
BRANCH   2   5
ATOM      5  C   UNL     1      89.900 100.523  70.630  1.00  0.00     0.032 C 
BRANCH   5   6
ATOM      6  C   UNL     1      91.405 100.785  70.496  1.00  0.00     0.003 C 
BRANCH   6   7
ATOM      7  C   UNL     1      92.172 100.608  71.810  1.00  0.00    -0.000 C 
BRANCH   7   8
ATOM      8  C   UNL     1      93.103  99.397  71.817  1.00  0.00    -0.003 C 
ATOM      9  C   UNL     1      93.950  99.343  70.555  1.00  0.00     0.004 C 
ENDBRANCH   7   8
ENDBRANCH   6   7
ENDBRANCH   5   6
ENDBRANCH   2   5
ENDBRANCH   1   2
BRANCH   1  10
ATOM     10  C   UNL     1      89.562  98.143  67.605  1.00  0.00     0.135 C 
ATOM     11  O   UNL     1      89.304  96.956  67.805  1.00  0.00    -0.300 OA
BRANCH  10  12
ATOM     12  C   UNL     1      89.123  98.871  66.344  1.00  0.00     0.080 C 
BRANCH  12  13
ATOM     13  C   UNL     1      87.787  99.602  66.489  1.00  0.00     0.043 C 
BRANCH  13  14
ATOM     14  C   UNL     1      87.920 101.103  66.397  1.00  0.00    -0.044 A 
ATOM     15  C   UNL     1      89.179 101.698  66.477  1.00  0.00     0.054 A 
ATOM     16  C   UNL     1      86.783 101.895  66.232  1.00  0.00     0.008 A 
ATOM     17  C   UNL     1      89.300 103.085  66.391  1.00  0.00     0.160 A 
ATOM     18  C   UNL     1      86.904 103.282  66.146  1.00  0.00     0.050 A 
ATOM     19  C   UNL     1      88.163 103.877  66.226  1.00  0.00     0.157 A 
BRANCH  17  20
ATOM     20  O   UNL     1      90.535 103.656  66.472  1.00  0.00    -0.493 OA
ATOM     21  C   UNL     1      91.379 103.538  65.328  1.00  0.00     0.278 C 
ENDBRANCH  17  20
BRANCH  19  22
ATOM     22  O   UNL     1      88.269 105.232  66.141  1.00  0.00    -0.504 OA
ATOM     23  H   UNL     1      87.377 105.620  66.129  1.00  0.00     0.293 HD
ENDBRANCH  19  22
ENDBRANCH  13  14
ENDBRANCH  12  13
ENDBRANCH  10  12
ENDBRANCH   1  10
TORSDOF 12
ENDMDL
MODEL 8
REMARK VINA RESULT:    -5.318     10.335     13.278
REMARK INTER + INTRA:         -10.172
REMARK INTER:                  -8.187
REMARK INTRA:                  -1.986
REMARK UNBOUND:                -1.435
REMARK SMILES CCCCC[C@H](O)CC(=O)CCc1ccc(O)c(OC)c1
REMARK SMILES IDX 8 1 6 2 7 3 5 5 4 6 3 7 2 8 1 9 9 10 10 11 11 12 12 13 13 14
REMARK SMILES IDX 21 15 14 16 18 17 15 18 16 19 19 20 20 21 17 22
REMARK H PARENT 7 4 17 23
REMARK Flexibility Score: inf
ROOT
ATOM      1  C   UNL     1      88.145  99.389  67.965  1.00  0.00     0.107 C 
ENDROOT
BRANCH   1   2
ATOM      2  C   UNL     1      87.716 100.126  66.694  1.00  0.00     0.121 C 
BRANCH   2   3
ATOM      3  O   UNL     1      86.416  99.693  66.300  1.00  0.00    -0.393 OA
ATOM      4  H   UNL     1      85.994  99.278  67.072  1.00  0.00     0.210 HD
ENDBRANCH   2   3
BRANCH   2   5
ATOM      5  C   UNL     1      87.712 101.651  66.857  1.00  0.00     0.032 C 
BRANCH   5   6
ATOM      6  C   UNL     1      89.023 102.286  66.376  1.00  0.00     0.003 C 
BRANCH   6   7
ATOM      7  C   UNL     1      90.086 102.388  67.475  1.00  0.00    -0.000 C 
BRANCH   7   8
ATOM      8  C   UNL     1      91.238 101.400  67.305  1.00  0.00    -0.003 C 
ATOM      9  C   UNL     1      91.330 100.896  65.873  1.00  0.00     0.004 C 
ENDBRANCH   7   8
ENDBRANCH   6   7
ENDBRANCH   5   6
ENDBRANCH   2   5
ENDBRANCH   1   2
BRANCH   1  10
ATOM     10  C   UNL     1      89.253  98.377  67.722  1.00  0.00     0.135 C 
ATOM     11  O   UNL     1      89.464  97.930  66.595  1.00  0.00    -0.300 OA
BRANCH  10  12
ATOM     12  C   UNL     1      90.100  97.990  68.924  1.00  0.00     0.080 C 
BRANCH  12  13
ATOM     13  C   UNL     1      89.681  98.686  70.221  1.00  0.00     0.043 C 
BRANCH  13  14
ATOM     14  C   UNL     1      90.628  99.787  70.634  1.00  0.00    -0.044 A 
ATOM     15  C   UNL     1      90.125 101.010  71.079  1.00  0.00     0.054 A 
ATOM     16  C   UNL     1      92.006  99.581  70.571  1.00  0.00     0.008 A 
ATOM     17  C   UNL     1      91.001 102.026  71.462  1.00  0.00     0.160 A 
ATOM     18  C   UNL     1      92.882 100.597  70.954  1.00  0.00     0.050 A 
ATOM     19  C   UNL     1      92.379 101.820  71.399  1.00  0.00     0.157 A 
BRANCH  17  20
ATOM     20  O   UNL     1      90.498 103.216  71.894  1.00  0.00    -0.493 OA
ATOM     21  C   UNL     1      89.763 103.991  70.948  1.00  0.00     0.278 C 
ENDBRANCH  17  20
BRANCH  19  22
ATOM     22  O   UNL     1      93.244 102.804  71.770  1.00  0.00    -0.504 OA
ATOM     23  H   UNL     1      93.216 103.516  71.108  1.00  0.00     0.293 HD
ENDBRANCH  19  22
ENDBRANCH  13  14
ENDBRANCH  12  13
ENDBRANCH  10  12
ENDBRANCH   1  10
TORSDOF 12
ENDMDL
MODEL 9
REMARK VINA RESULT:    -5.299     21.952     23.649
REMARK INTER + INTRA:         -10.142
REMARK INTER:                  -8.358
REMARK INTRA:                  -1.784
REMARK UNBOUND:                -1.435
REMARK SMILES CCCCC[C@H](O)CC(=O)CCc1ccc(O)c(OC)c1
REMARK SMILES IDX 8 1 6 2 7 3 5 5 4 6 3 7 2 8 1 9 9 10 10 11 11 12 12 13 13 14
REMARK SMILES IDX 21 15 14 16 18 17 15 18 16 19 19 20 20 21 17 22
REMARK H PARENT 7 4 17 23
REMARK Flexibility Score: inf
ROOT
ATOM      1  C   UNL     1      75.184  87.258  65.960  1.00  0.00     0.107 C 
ENDROOT
BRANCH   1   2
ATOM      2  C   UNL     1      75.811  85.912  65.590  1.00  0.00     0.121 C 
BRANCH   2   3
ATOM      3  O   UNL     1      76.077  85.872  64.190  1.00  0.00    -0.393 OA
ATOM      4  H   UNL     1      75.231  85.984  63.722  1.00  0.00     0.210 HD
ENDBRANCH   2   3
BRANCH   2   5
ATOM      5  C   UNL     1      77.105  85.621  66.359  1.00  0.00     0.032 C 
BRANCH   5   6
ATOM      6  C   UNL     1      76.899  84.572  67.458  1.00  0.00     0.003 C 
BRANCH   6   7
ATOM      7  C   UNL     1      76.815  85.174  68.864  1.00  0.00    -0.000 C 
BRANCH   7   8
ATOM      8  C   UNL     1      75.619  84.676  69.672  1.00  0.00    -0.003 C 
ATOM      9  C   UNL     1      74.392  85.545  69.440  1.00  0.00     0.004 C 
ENDBRANCH   7   8
ENDBRANCH   6   7
ENDBRANCH   5   6
ENDBRANCH   2   5
ENDBRANCH   1   2
BRANCH   1  10
ATOM     10  C   UNL     1      76.097  88.439  65.676  1.00  0.00     0.135 C 
ATOM     11  O   UNL     1      76.387  88.752  64.521  1.00  0.00    -0.300 OA
BRANCH  10  12
ATOM     12  C   UNL     1      76.587  89.228  66.880  1.00  0.00     0.080 C 
BRANCH  12  13
ATOM     13  C   UNL     1      76.110  88.664  68.220  1.00  0.00     0.043 C 
BRANCH  13  14
ATOM     14  C   UNL     1      75.177  89.597  68.956  1.00  0.00    -0.044 A 
ATOM     15  C   UNL     1      73.887  89.178  69.284  1.00  0.00     0.054 A 
ATOM     16  C   UNL     1      75.605  90.877  69.307  1.00  0.00     0.008 A 
ATOM     17  C   UNL     1      73.027  90.040  69.964  1.00  0.00     0.160 A 
ATOM     18  C   UNL     1      74.745  91.739  69.988  1.00  0.00     0.050 A 
ATOM     19  C   UNL     1      73.455  91.320  70.316  1.00  0.00     0.157 A 
BRANCH  17  20
ATOM     20  O   UNL     1      71.769  89.620  70.278  1.00  0.00    -0.493 OA
ATOM     21  C   UNL     1      70.993  89.053  69.225  1.00  0.00     0.278 C 
ENDBRANCH  17  20
BRANCH  19  22
ATOM     22  O   UNL     1      72.624  92.170  70.980  1.00  0.00    -0.504 OA
ATOM     23  H   UNL     1      71.741  91.768  71.039  1.00  0.00     0.293 HD
ENDBRANCH  19  22
ENDBRANCH  13  14
ENDBRANCH  12  13
ENDBRANCH  10  12
ENDBRANCH   1  10
TORSDOF 12
ENDMDL
MODEL 10
REMARK VINA RESULT:    -5.271      9.484     12.662
REMARK INTER + INTRA:         -10.096
REMARK INTER:                  -8.184
REMARK INTRA:                  -1.912
REMARK UNBOUND:                -1.435
REMARK SMILES CCCCC[C@H](O)CC(=O)CCc1ccc(O)c(OC)c1
REMARK SMILES IDX 8 1 6 2 7 3 5 5 4 6 3 7 2 8 1 9 9 10 10 11 11 12 12 13 13 14
REMARK SMILES IDX 21 15 14 16 18 17 15 18 16 19 19 20 20 21 17 22
REMARK H PARENT 7 4 17 23
REMARK Flexibility Score: inf
ROOT
ATOM      1  C   UNL     1      88.406  99.410  68.047  1.00  0.00     0.107 C 
ENDROOT
BRANCH   1   2
ATOM      2  C   UNL     1      88.111  99.979  66.657  1.00  0.00     0.121 C 
BRANCH   2   3
ATOM      3  O   UNL     1      86.820  99.557  66.226  1.00  0.00    -0.393 OA
ATOM      4  H   UNL     1      86.173  99.856  66.888  1.00  0.00     0.210 HD
ENDBRANCH   2   3
BRANCH   2   5
ATOM      5  C   UNL     1      88.185 101.510  66.607  1.00  0.00     0.032 C 
BRANCH   5   6
ATOM      6  C   UNL     1      89.614 102.010  66.363  1.00  0.00     0.003 C 
BRANCH   6   7
ATOM      7  C   UNL     1      90.424 102.187  67.652  1.00  0.00    -0.000 C 
BRANCH   7   8
ATOM      8  C   UNL     1      91.614 101.235  67.762  1.00  0.00    -0.003 C 
ATOM      9  C   UNL     1      92.845 101.948  68.299  1.00  0.00     0.004 C 
ENDBRANCH   7   8
ENDBRANCH   6   7
ENDBRANCH   5   6
ENDBRANCH   2   5
ENDBRANCH   1   2
BRANCH   1  10
ATOM     10  C   UNL     1      89.265  98.157  68.009  1.00  0.00     0.135 C 
ATOM     11  O   UNL     1      89.134  97.327  67.108  1.00  0.00    -0.300 OA
BRANCH  10  12
ATOM     12  C   UNL     1      90.311  98.013  69.104  1.00  0.00     0.080 C 
BRANCH  12  13
ATOM     13  C   UNL     1      89.828  98.475  70.480  1.00  0.00     0.043 C 
BRANCH  13  14
ATOM     14  C   UNL     1      90.586  99.673  71.001  1.00  0.00    -0.044 A 
ATOM     15  C   UNL     1      91.927  99.546  71.365  1.00  0.00     0.054 A 
ATOM     16  C   UNL     1      89.945 100.906  71.119  1.00  0.00     0.008 A 
ATOM     17  C   UNL     1      92.626 100.653  71.846  1.00  0.00     0.160 A 
ATOM     18  C   UNL     1      90.644 102.013  71.600  1.00  0.00     0.050 A 
ATOM     19  C   UNL     1      91.984 101.886  71.964  1.00  0.00     0.157 A 
BRANCH  17  20
ATOM     20  O   UNL     1      93.934 100.517  72.200  1.00  0.00    -0.493 OA
ATOM     21  C   UNL     1      94.263  99.433  73.067  1.00  0.00     0.278 C 
ENDBRANCH  17  20
BRANCH  19  22
ATOM     22  O   UNL     1      92.656 102.974  72.432  1.00  0.00    -0.504 OA
ATOM     23  H   UNL     1      92.827 102.857  73.383  1.00  0.00     0.293 HD
ENDBRANCH  19  22
ENDBRANCH  13  14
ENDBRANCH  12  13
ENDBRANCH  10  12
ENDBRANCH   1  10
TORSDOF 12
ENDMDL
