MODEL 1
REMARK VINA RESULT:    -5.997      0.000      0.000
REMARK INTER + INTRA:         -10.689
REMARK INTER:                  -9.679
REMARK INTRA:                  -1.010
REMARK UNBOUND:                -1.010
REMARK SMILES COc1cc(CNC(=O)CCCCCCC(C)C)ccc1O
REMARK SMILES IDX 11 1 10 2 8 3 7 4 9 6 6 7 5 8 3 9 21 10 4 11 20 12 19 13
REMARK SMILES IDX 2 14 1 15 22 16 12 18 13 19 14 20 15 21 16 22 17 23 18 24
REMARK H PARENT 7 5 22 17
REMARK Flexibility Score: inf
ROOT
ATOM      1  C   UNL     1      75.776  81.409  63.349  1.00  0.00     0.010 C 
ENDROOT
BRANCH   1   2
ATOM      2  C   UNL     1      76.029  81.573  64.873  1.00  0.00     0.100 C 
BRANCH   2   3
ATOM      3  C   UNL     1      76.951  82.685  65.197  1.00  0.00     0.220 C 
ATOM      4  N   UNL     1      77.531  82.762  66.430  1.00  0.00    -0.352 N 
ATOM      5  H   UNL     1      77.242  82.044  67.077  1.00  0.00     0.163 HD
ATOM      6  O   UNL     1      77.205  83.534  64.308  1.00  0.00    -0.275 OA
BRANCH   4   7
ATOM      7  C   UNL     1      78.479  83.754  66.836  1.00  0.00     0.151 C 
BRANCH   7   8
ATOM      8  C   UNL     1      77.873  84.852  67.639  1.00  0.00    -0.025 A 
ATOM      9  C   UNL     1      76.609  85.599  69.612  1.00  0.00     0.160 A 
ATOM     10  C   UNL     1      76.752  86.941  69.198  1.00  0.00     0.157 A 
ATOM     11  C   UNL     1      77.153  84.565  68.821  1.00  0.00     0.056 A 
ATOM     12  C   UNL     1      77.433  87.236  68.003  1.00  0.00     0.050 A 
ATOM     13  C   UNL     1      77.999  86.201  67.233  1.00  0.00     0.009 A 
BRANCH   9  14
ATOM     14  O   UNL     1      75.915  85.298  70.752  1.00  0.00    -0.493 OA
ATOM     15  C   UNL     1      76.172  83.974  71.255  1.00  0.00     0.278 C 
ENDBRANCH   9  14
BRANCH  10  16
ATOM     16  O   UNL     1      76.237  87.957  69.939  1.00  0.00    -0.504 OA
ATOM     17  H   UNL     1      76.666  88.780  69.694  1.00  0.00     0.293 HD
ENDBRANCH  10  16
ENDBRANCH   7   8
ENDBRANCH   4   7
ENDBRANCH   2   3
ENDBRANCH   1   2
BRANCH   1  18
ATOM     18  C   UNL     1      74.268  81.528  62.987  1.00  0.00     0.001 C 
BRANCH  18  19
ATOM     19  C   UNL     1      73.521  80.165  62.960  1.00  0.00     0.000 C 
BRANCH  19  20
ATOM     20  C   UNL     1      72.204  80.219  63.783  1.00  0.00     0.000 C 
BRANCH  20  21
ATOM     21  C   UNL     1      72.359  80.852  65.194  1.00  0.00     0.003 C 
BRANCH  21  22
ATOM     22  C   UNL     1      71.508  82.144  65.423  1.00  0.00    -0.017 C 
ATOM     23  C   UNL     1      72.335  83.410  65.064  1.00  0.00     0.007 C 
ATOM     24  C   UNL     1      70.928  82.263  66.863  1.00  0.00     0.007 C 
ENDBRANCH  21  22
ENDBRANCH  20  21
ENDBRANCH  19  20
ENDBRANCH  18  19
ENDBRANCH   1  18
TORSDOF 11
ENDMDL
MODEL 2
REMARK VINA RESULT:    -5.797      2.773      7.472
REMARK INTER + INTRA:         -10.365
REMARK INTER:                  -9.726
REMARK INTRA:                  -0.639
REMARK UNBOUND:                -1.010
REMARK SMILES COc1cc(CNC(=O)CCCCCCC(C)C)ccc1O
REMARK SMILES IDX 11 1 10 2 8 3 7 4 9 6 6 7 5 8 3 9 21 10 4 11 20 12 19 13
REMARK SMILES IDX 2 14 1 15 22 16 12 18 13 19 14 20 15 21 16 22 17 23 18 24
REMARK H PARENT 7 5 22 17
REMARK Flexibility Score: inf
ROOT
ATOM      1  C   UNL     1      77.203  86.217  66.996  1.00  0.00     0.010 C 
ENDROOT
BRANCH   1   2
ATOM      2  C   UNL     1      77.785  85.082  67.883  1.00  0.00     0.100 C 
BRANCH   2   3
ATOM      3  C   UNL     1      77.902  83.788  67.175  1.00  0.00     0.220 C 
ATOM      4  N   UNL     1      76.854  83.302  66.449  1.00  0.00    -0.352 N 
ATOM      5  H   UNL     1      76.019  83.869  66.483  1.00  0.00     0.163 HD
ATOM      6  O   UNL     1      78.990  83.164  67.238  1.00  0.00    -0.275 OA
BRANCH   4   7
ATOM      7  C   UNL     1      76.871  82.096  65.678  1.00  0.00     0.151 C 
BRANCH   7   8
ATOM      8  C   UNL     1      75.522  81.687  65.199  1.00  0.00    -0.025 A 
ATOM      9  C   UNL     1      73.077  81.685  65.466  1.00  0.00     0.160 A 
ATOM     10  C   UNL     1      72.945  80.949  64.269  1.00  0.00     0.157 A 
ATOM     11  C   UNL     1      74.363  82.032  65.931  1.00  0.00     0.056 A 
ATOM     12  C   UNL     1      74.093  80.566  63.552  1.00  0.00     0.050 A 
ATOM     13  C   UNL     1      75.372  80.940  64.007  1.00  0.00     0.009 A 
BRANCH   9  14
ATOM     14  O   UNL     1      71.970  82.029  66.192  1.00  0.00    -0.493 OA
ATOM     15  C   UNL     1      72.072  83.313  66.834  1.00  0.00     0.278 C 
ENDBRANCH   9  14
BRANCH  10  16
ATOM     16  O   UNL     1      71.719  80.600  63.798  1.00  0.00    -0.504 OA
ATOM     17  H   UNL     1      71.275  81.379  63.455  1.00  0.00     0.293 HD
ENDBRANCH  10  16
ENDBRANCH   7   8
ENDBRANCH   4   7
ENDBRANCH   2   3
ENDBRANCH   1   2
BRANCH   1  18
ATOM     18  C   UNL     1      77.010  87.541  67.788  1.00  0.00     0.001 C 
BRANCH  18  19
ATOM     19  C   UNL     1      77.186  87.383  69.325  1.00  0.00     0.000 C 
BRANCH  19  20
ATOM     20  C   UNL     1      75.898  87.794  70.093  1.00  0.00     0.000 C 
BRANCH  20  21
ATOM     21  C   UNL     1      75.828  89.303  70.458  1.00  0.00     0.003 C 
BRANCH  21  22
ATOM     22  C   UNL     1      74.549  89.721  71.255  1.00  0.00    -0.017 C 
ATOM     23  C   UNL     1      73.668  88.477  71.560  1.00  0.00     0.007 C 
ATOM     24  C   UNL     1      73.707  90.826  70.551  1.00  0.00     0.007 C 
ENDBRANCH  21  22
ENDBRANCH  20  21
ENDBRANCH  19  20
ENDBRANCH  18  19
ENDBRANCH   1  18
TORSDOF 11
ENDMDL
MODEL 3
REMARK VINA RESULT:    -5.585      2.647      6.516
REMARK INTER + INTRA:         -10.023
REMARK INTER:                  -8.379
REMARK INTRA:                  -1.644
REMARK UNBOUND:                -1.010
REMARK SMILES COc1cc(CNC(=O)CCCCCCC(C)C)ccc1O
REMARK SMILES IDX 11 1 10 2 8 3 7 4 9 6 6 7 5 8 3 9 21 10 4 11 20 12 19 13
REMARK SMILES IDX 2 14 1 15 22 16 12 18 13 19 14 20 15 21 16 22 17 23 18 24
REMARK H PARENT 7 5 22 17
REMARK Flexibility Score: inf
ROOT
ATOM      1  C   UNL     1      78.001  86.626  68.033  1.00  0.00     0.010 C 
ENDROOT
BRANCH   1   2
ATOM      2  C   UNL     1      77.730  87.280  66.650  1.00  0.00     0.100 C 
BRANCH   2   3
ATOM      3  C   UNL     1      76.384  86.978  66.114  1.00  0.00     0.220 C 
ATOM      4  N   UNL     1      75.351  86.698  66.962  1.00  0.00    -0.352 N 
ATOM      5  H   UNL     1      75.603  86.676  67.939  1.00  0.00     0.163 HD
ATOM      6  O   UNL     1      76.210  87.008  64.871  1.00  0.00    -0.275 OA
BRANCH   4   7
ATOM      7  C   UNL     1      73.999  86.449  66.562  1.00  0.00     0.151 C 
BRANCH   7   8
ATOM      8  C   UNL     1      73.699  85.002  66.379  1.00  0.00    -0.025 A 
ATOM      9  C   UNL     1      74.405  82.649  66.497  1.00  0.00     0.160 A 
ATOM     10  C   UNL     1      73.121  82.241  66.073  1.00  0.00     0.157 A 
ATOM     11  C   UNL     1      74.689  84.025  66.628  1.00  0.00     0.056 A 
ATOM     12  C   UNL     1      72.139  83.206  65.784  1.00  0.00     0.050 A 
ATOM     13  C   UNL     1      72.421  84.576  65.945  1.00  0.00     0.009 A 
BRANCH   9  14
ATOM     14  O   UNL     1      75.379  81.720  66.743  1.00  0.00    -0.493 OA
ATOM     15  C   UNL     1      76.412  81.685  65.742  1.00  0.00     0.278 C 
ENDBRANCH   9  14
BRANCH  10  16
ATOM     16  O   UNL     1      72.819  80.923  65.937  1.00  0.00    -0.504 OA
ATOM     17  H   UNL     1      72.829  80.502  66.800  1.00  0.00     0.293 HD
ENDBRANCH  10  16
ENDBRANCH   7   8
ENDBRANCH   4   7
ENDBRANCH   2   3
ENDBRANCH   1   2
BRANCH   1  18
ATOM     18  C   UNL     1      78.090  85.076  67.942  1.00  0.00     0.001 C 
BRANCH  18  19
ATOM     19  C   UNL     1      77.328  84.337  69.078  1.00  0.00     0.000 C 
BRANCH  19  20
ATOM     20  C   UNL     1      76.842  85.324  70.177  1.00  0.00     0.000 C 
BRANCH  20  21
ATOM     21  C   UNL     1      75.298  85.486  70.250  1.00  0.00     0.003 C 
BRANCH  21  22
ATOM     22  C   UNL     1      74.813  86.916  70.654  1.00  0.00    -0.017 C 
ATOM     23  C   UNL     1      73.396  87.192  70.077  1.00  0.00     0.007 C 
ATOM     24  C   UNL     1      75.798  88.050  70.243  1.00  0.00     0.007 C 
ENDBRANCH  21  22
ENDBRANCH  20  21
ENDBRANCH  19  20
ENDBRANCH  18  19
ENDBRANCH   1  18
TORSDOF 11
ENDMDL
MODEL 4
REMARK VINA RESULT:    -5.579     25.095     27.339
REMARK INTER + INTRA:         -10.015
REMARK INTER:                  -9.482
REMARK INTRA:                  -0.532
REMARK UNBOUND:                -1.010
REMARK SMILES COc1cc(CNC(=O)CCCCCCC(C)C)ccc1O
REMARK SMILES IDX 11 1 10 2 8 3 7 4 9 6 6 7 5 8 3 9 21 10 4 11 20 12 19 13
REMARK SMILES IDX 2 14 1 15 22 16 12 18 13 19 14 20 15 21 16 22 17 23 18 24
REMARK H PARENT 7 5 22 17
REMARK Flexibility Score: inf
ROOT
ATOM      1  C   UNL     1      97.925  83.625  85.000  1.00  0.00     0.010 C 
ENDROOT
BRANCH   1   2
ATOM      2  C   UNL     1      96.563  84.344  85.199  1.00  0.00     0.100 C 
BRANCH   2   3
ATOM      3  C   UNL     1      95.909  84.012  86.484  1.00  0.00     0.220 C 
ATOM      4  N   UNL     1      94.595  83.646  86.515  1.00  0.00    -0.352 N 
ATOM      5  H   UNL     1      94.130  83.670  85.619  1.00  0.00     0.163 HD
ATOM      6  O   UNL     1      96.593  84.051  87.536  1.00  0.00    -0.275 OA
BRANCH   4   7
ATOM      7  C   UNL     1      93.874  83.248  87.686  1.00  0.00     0.151 C 
BRANCH   7   8
ATOM      8  C   UNL     1      92.563  82.612  87.381  1.00  0.00    -0.025 A 
ATOM      9  C   UNL     1      91.244  80.935  86.158  1.00  0.00     0.160 A 
ATOM     10  C   UNL     1      90.076  81.364  86.827  1.00  0.00     0.157 A 
ATOM     11  C   UNL     1      92.473  81.574  86.426  1.00  0.00     0.056 A 
ATOM     12  C   UNL     1      90.147  82.422  87.750  1.00  0.00     0.050 A 
ATOM     13  C   UNL     1      91.382  83.035  88.035  1.00  0.00     0.009 A 
BRANCH   9  14
ATOM     14  O   UNL     1      91.179  79.933  85.229  1.00  0.00    -0.493 OA
ATOM     15  C   UNL     1      91.769  78.696  85.668  1.00  0.00     0.278 C 
ENDBRANCH   9  14
BRANCH  10  16
ATOM     16  O   UNL     1      88.878  80.768  86.587  1.00  0.00    -0.504 OA
ATOM     17  H   UNL     1      88.885  80.378  85.710  1.00  0.00     0.293 HD
ENDBRANCH  10  16
ENDBRANCH   7   8
ENDBRANCH   4   7
ENDBRANCH   2   3
ENDBRANCH   1   2
BRANCH   1  18
ATOM     18  C   UNL     1      97.818  82.426  84.015  1.00  0.00     0.001 C 
BRANCH  18  19
ATOM     19  C   UNL     1      98.881  82.449  82.881  1.00  0.00     0.000 C 
BRANCH  19  20
ATOM     20  C   UNL     1      98.315  83.080  81.578  1.00  0.00     0.000 C 
BRANCH  20  21
ATOM     21  C   UNL     1      99.349  83.195  80.424  1.00  0.00     0.003 C 
BRANCH  21  22
ATOM     22  C   UNL     1      98.775  82.886  79.003  1.00  0.00    -0.017 C 
ATOM     23  C   UNL     1      99.837  83.191  77.909  1.00  0.00     0.007 C 
ATOM     24  C   UNL     1      97.443  83.629  78.691  1.00  0.00     0.007 C 
ENDBRANCH  21  22
ENDBRANCH  20  21
ENDBRANCH  19  20
ENDBRANCH  18  19
ENDBRANCH   1  18
TORSDOF 11
ENDMDL
MODEL 5
REMARK VINA RESULT:    -5.558     12.489     15.570
REMARK INTER + INTRA:          -9.980
REMARK INTER:                  -8.460
REMARK INTRA:                  -1.520
REMARK UNBOUND:                -1.010
REMARK SMILES COc1cc(CNC(=O)CCCCCCC(C)C)ccc1O
REMARK SMILES IDX 11 1 10 2 8 3 7 4 9 6 6 7 5 8 3 9 21 10 4 11 20 12 19 13
REMARK SMILES IDX 2 14 1 15 22 16 12 18 13 19 14 20 15 21 16 22 17 23 18 24
REMARK H PARENT 7 5 22 17
REMARK Flexibility Score: inf
ROOT
ATOM      1  C   UNL     1      65.107  82.667  71.408  1.00  0.00     0.010 C 
ENDROOT
BRANCH   1   2
ATOM      2  C   UNL     1      64.488  81.653  70.405  1.00  0.00     0.100 C 
BRANCH   2   3
ATOM      3  C   UNL     1      63.347  82.208  69.642  1.00  0.00     0.220 C 
ATOM      4  N   UNL     1      62.714  83.337  70.073  1.00  0.00    -0.352 N 
ATOM      5  H   UNL     1      63.060  83.707  70.946  1.00  0.00     0.163 HD
ATOM      6  O   UNL     1      62.995  81.632  68.584  1.00  0.00    -0.275 OA
BRANCH   4   7
ATOM      7  C   UNL     1      61.642  83.994  69.389  1.00  0.00     0.151 C 
BRANCH   7   8
ATOM      8  C   UNL     1      60.777  84.801  70.293  1.00  0.00    -0.025 A 
ATOM      9  C   UNL     1      60.491  86.694  71.837  1.00  0.00     0.160 A 
ATOM     10  C   UNL     1      59.124  86.370  71.984  1.00  0.00     0.157 A 
ATOM     11  C   UNL     1      61.309  85.897  71.009  1.00  0.00     0.056 A 
ATOM     12  C   UNL     1      58.591  85.258  71.307  1.00  0.00     0.050 A 
ATOM     13  C   UNL     1      59.408  84.485  70.459  1.00  0.00     0.009 A 
BRANCH   9  14
ATOM     14  O   UNL     1      61.028  87.749  72.522  1.00  0.00    -0.493 OA
ATOM     15  C   UNL     1      61.160  88.946  71.733  1.00  0.00     0.278 C 
ENDBRANCH   9  14
BRANCH  10  16
ATOM     16  O   UNL     1      58.313  87.119  72.776  1.00  0.00    -0.504 OA
ATOM     17  H   UNL     1      58.831  87.802  73.209  1.00  0.00     0.293 HD
ENDBRANCH  10  16
ENDBRANCH   7   8
ENDBRANCH   4   7
ENDBRANCH   2   3
ENDBRANCH   1   2
BRANCH   1  18
ATOM     18  C   UNL     1      64.390  82.638  72.788  1.00  0.00     0.001 C 
BRANCH  18  19
ATOM     19  C   UNL     1      63.750  81.264  73.134  1.00  0.00     0.000 C 
BRANCH  19  20
ATOM     20  C   UNL     1      62.295  81.427  73.657  1.00  0.00     0.000 C 
BRANCH  20  21
ATOM     21  C   UNL     1      61.771  82.890  73.640  1.00  0.00     0.003 C 
BRANCH  21  22
ATOM     22  C   UNL     1      61.512  83.505  75.054  1.00  0.00    -0.017 C 
ATOM     23  C   UNL     1      60.902  84.929  74.924  1.00  0.00     0.007 C 
ATOM     24  C   UNL     1      62.776  83.535  75.963  1.00  0.00     0.007 C 
ENDBRANCH  21  22
ENDBRANCH  20  21
ENDBRANCH  19  20
ENDBRANCH  18  19
ENDBRANCH   1  18
TORSDOF 11
ENDMDL
MODEL 6
REMARK VINA RESULT:    -5.485      2.446      4.150
REMARK INTER + INTRA:          -9.863
REMARK INTER:                  -7.750
REMARK INTRA:                  -2.113
REMARK UNBOUND:                -1.010
REMARK SMILES COc1cc(CNC(=O)CCCCCCC(C)C)ccc1O
REMARK SMILES IDX 11 1 10 2 8 3 7 4 9 6 6 7 5 8 3 9 21 10 4 11 20 12 19 13
REMARK SMILES IDX 2 14 1 15 22 16 12 18 13 19 14 20 15 21 16 22 17 23 18 24
REMARK H PARENT 7 5 22 17
REMARK Flexibility Score: inf
ROOT
ATOM      1  C   UNL     1      72.399  80.909  64.779  1.00  0.00     0.010 C 
ENDROOT
BRANCH   1   2
ATOM      2  C   UNL     1      72.114  82.436  64.772  1.00  0.00     0.100 C 
BRANCH   2   3
ATOM      3  C   UNL     1      72.255  83.063  66.105  1.00  0.00     0.220 C 
ATOM      4  N   UNL     1      73.086  84.131  66.280  1.00  0.00    -0.352 N 
ATOM      5  H   UNL     1      73.601  84.403  65.456  1.00  0.00     0.163 HD
ATOM      6  O   UNL     1      71.578  82.608  67.059  1.00  0.00    -0.275 OA
BRANCH   4   7
ATOM      7  C   UNL     1      73.259  84.852  67.504  1.00  0.00     0.151 C 
BRANCH   7   8
ATOM      8  C   UNL     1      74.681  85.180  67.797  1.00  0.00    -0.025 A 
ATOM      9  C   UNL     1      76.735  86.421  67.257  1.00  0.00     0.160 A 
ATOM     10  C   UNL     1      77.379  85.844  68.373  1.00  0.00     0.157 A 
ATOM     11  C   UNL     1      75.399  86.071  66.967  1.00  0.00     0.056 A 
ATOM     12  C   UNL     1      76.688  84.926  69.183  1.00  0.00     0.050 A 
ATOM     13  C   UNL     1      75.345  84.604  68.905  1.00  0.00     0.009 A 
BRANCH   9  14
ATOM     14  O   UNL     1      77.411  87.285  66.439  1.00  0.00    -0.493 OA
ATOM     15  C   UNL     1      77.039  87.182  65.053  1.00  0.00     0.278 C 
ENDBRANCH   9  14
BRANCH  10  16
ATOM     16  O   UNL     1      78.666  86.162  68.675  1.00  0.00    -0.504 OA
ATOM     17  H   UNL     1      78.873  87.028  68.317  1.00  0.00     0.293 HD
ENDBRANCH  10  16
ENDBRANCH   7   8
ENDBRANCH   4   7
ENDBRANCH   2   3
ENDBRANCH   1   2
BRANCH   1  18
ATOM     18  C   UNL     1      73.491  80.511  63.745  1.00  0.00     0.001 C 
BRANCH  18  19
ATOM     19  C   UNL     1      74.057  81.713  62.938  1.00  0.00     0.000 C 
BRANCH  19  20
ATOM     20  C   UNL     1      75.611  81.736  62.960  1.00  0.00     0.000 C 
BRANCH  20  21
ATOM     21  C   UNL     1      76.237  81.237  64.291  1.00  0.00     0.003 C 
BRANCH  21  22
ATOM     22  C   UNL     1      76.022  82.194  65.510  1.00  0.00    -0.017 C 
ATOM     23  C   UNL     1      77.322  82.990  65.812  1.00  0.00     0.007 C 
ATOM     24  C   UNL     1      75.516  81.469  66.792  1.00  0.00     0.007 C 
ENDBRANCH  21  22
ENDBRANCH  20  21
ENDBRANCH  19  20
ENDBRANCH  18  19
ENDBRANCH   1  18
TORSDOF 11
ENDMDL
MODEL 7
REMARK VINA RESULT:    -5.402     25.712     28.528
REMARK INTER + INTRA:          -9.728
REMARK INTER:                  -7.618
REMARK INTRA:                  -2.110
REMARK UNBOUND:                -1.010
REMARK SMILES COc1cc(CNC(=O)CCCCCCC(C)C)ccc1O
REMARK SMILES IDX 11 1 10 2 8 3 7 4 9 6 6 7 5 8 3 9 21 10 4 11 20 12 19 13
REMARK SMILES IDX 2 14 1 15 22 16 12 18 13 19 14 20 15 21 16 22 17 23 18 24
REMARK H PARENT 7 5 22 17
REMARK Flexibility Score: inf
ROOT
ATOM      1  C   UNL     1     103.866  81.310  80.504  1.00  0.00     0.010 C 
ENDROOT
BRANCH   1   2
ATOM      2  C   UNL     1     103.244  80.704  81.793  1.00  0.00     0.100 C 
BRANCH   2   3
ATOM      3  C   UNL     1     101.992  81.375  82.210  1.00  0.00     0.220 C 
ATOM      4  N   UNL     1     101.178  81.954  81.281  1.00  0.00    -0.352 N 
ATOM      5  H   UNL     1     101.527  81.917  80.334  1.00  0.00     0.163 HD
ATOM      6  O   UNL     1     101.688  81.377  83.428  1.00  0.00    -0.275 OA
BRANCH   4   7
ATOM      7  C   UNL     1      99.920  82.578  81.559  1.00  0.00     0.151 C 
BRANCH   7   8
ATOM      8  C   UNL     1      99.163  82.945  80.330  1.00  0.00    -0.025 A 
ATOM      9  C   UNL     1      99.099  83.316  77.900  1.00  0.00     0.160 A 
ATOM     10  C   UNL     1      97.718  83.601  77.978  1.00  0.00     0.157 A 
ATOM     11  C   UNL     1      99.813  83.009  79.077  1.00  0.00     0.056 A 
ATOM     12  C   UNL     1      97.068  83.579  79.225  1.00  0.00     0.050 A 
ATOM     13  C   UNL     1      97.781  83.243  80.392  1.00  0.00     0.009 A 
BRANCH   9  14
ATOM     14  O   UNL     1      99.749  83.373  76.697  1.00  0.00    -0.493 OA
ATOM     15  C   UNL     1     101.104  83.847  76.793  1.00  0.00     0.278 C 
ENDBRANCH   9  14
BRANCH  10  16
ATOM     16  O   UNL     1      97.005  83.901  76.861  1.00  0.00    -0.504 OA
ATOM     17  H   UNL     1      97.581  84.320  76.217  1.00  0.00     0.293 HD
ENDBRANCH  10  16
ENDBRANCH   7   8
ENDBRANCH   4   7
ENDBRANCH   2   3
ENDBRANCH   1   2
BRANCH   1  18
ATOM     18  C   UNL     1     103.712  80.366  79.278  1.00  0.00     0.001 C 
BRANCH  18  19
ATOM     19  C   UNL     1     102.672  80.859  78.234  1.00  0.00     0.000 C 
BRANCH  19  20
ATOM     20  C   UNL     1     101.555  79.804  77.996  1.00  0.00     0.000 C 
BRANCH  20  21
ATOM     21  C   UNL     1     101.256  78.905  79.228  1.00  0.00     0.003 C 
BRANCH  21  22
ATOM     22  C   UNL     1      99.735  78.706  79.534  1.00  0.00    -0.017 C 
ATOM     23  C   UNL     1      98.873  79.624  78.623  1.00  0.00     0.007 C 
ATOM     24  C   UNL     1      99.365  78.921  81.031  1.00  0.00     0.007 C 
ENDBRANCH  21  22
ENDBRANCH  20  21
ENDBRANCH  19  20
ENDBRANCH  18  19
ENDBRANCH   1  18
TORSDOF 11
ENDMDL
MODEL 8
REMARK VINA RESULT:    -5.341     24.669     27.177
REMARK INTER + INTRA:          -9.630
REMARK INTER:                  -9.070
REMARK INTRA:                  -0.560
REMARK UNBOUND:                -1.010
REMARK SMILES COc1cc(CNC(=O)CCCCCCC(C)C)ccc1O
REMARK SMILES IDX 11 1 10 2 8 3 7 4 9 6 6 7 5 8 3 9 21 10 4 11 20 12 19 13
REMARK SMILES IDX 2 14 1 15 22 16 12 18 13 19 14 20 15 21 16 22 17 23 18 24
REMARK H PARENT 7 5 22 17
REMARK Flexibility Score: inf
ROOT
ATOM      1  C   UNL     1      98.023  82.973  83.200  1.00  0.00     0.010 C 
ENDROOT
BRANCH   1   2
ATOM      2  C   UNL     1      97.189  83.979  84.040  1.00  0.00     0.100 C 
BRANCH   2   3
ATOM      3  C   UNL     1      96.833  83.466  85.382  1.00  0.00     0.220 C 
ATOM      4  N   UNL     1      95.528  83.426  85.781  1.00  0.00    -0.352 N 
ATOM      5  H   UNL     1      94.873  83.807  85.115  1.00  0.00     0.163 HD
ATOM      6  O   UNL     1      97.751  83.049  86.130  1.00  0.00    -0.275 OA
BRANCH   4   7
ATOM      7  C   UNL     1      95.061  82.900  87.027  1.00  0.00     0.151 C 
BRANCH   7   8
ATOM      8  C   UNL     1      94.212  81.687  86.870  1.00  0.00    -0.025 A 
ATOM      9  C   UNL     1      92.042  80.662  86.330  1.00  0.00     0.160 A 
ATOM     10  C   UNL     1      92.597  79.379  86.526  1.00  0.00     0.157 A 
ATOM     11  C   UNL     1      92.847  81.805  86.521  1.00  0.00     0.056 A 
ATOM     12  C   UNL     1      93.944  79.250  86.912  1.00  0.00     0.050 A 
ATOM     13  C   UNL     1      94.749  80.394  87.073  1.00  0.00     0.009 A 
BRANCH   9  14
ATOM     14  O   UNL     1      90.723  80.801  85.993  1.00  0.00    -0.493 OA
ATOM     15  C   UNL     1      90.236  82.151  86.099  1.00  0.00     0.278 C 
ENDBRANCH   9  14
BRANCH  10  16
ATOM     16  O   UNL     1      91.845  78.261  86.350  1.00  0.00    -0.504 OA
ATOM     17  H   UNL     1      92.030  77.884  85.486  1.00  0.00     0.293 HD
ENDBRANCH  10  16
ENDBRANCH   7   8
ENDBRANCH   4   7
ENDBRANCH   2   3
ENDBRANCH   1   2
BRANCH   1  18
ATOM     18  C   UNL     1      98.030  83.336  81.688  1.00  0.00     0.001 C 
BRANCH  18  19
ATOM     19  C   UNL     1      99.287  82.826  80.927  1.00  0.00     0.000 C 
BRANCH  19  20
ATOM     20  C   UNL     1      98.905  82.162  79.574  1.00  0.00     0.000 C 
BRANCH  20  21
ATOM     21  C   UNL     1      97.787  82.905  78.792  1.00  0.00     0.003 C 
BRANCH  21  22
ATOM     22  C   UNL     1      98.257  83.568  77.456  1.00  0.00    -0.017 C 
ATOM     23  C   UNL     1      97.464  84.879  77.191  1.00  0.00     0.007 C 
ATOM     24  C   UNL     1      98.171  82.620  76.224  1.00  0.00     0.007 C 
ENDBRANCH  21  22
ENDBRANCH  20  21
ENDBRANCH  19  20
ENDBRANCH  18  19
ENDBRANCH   1  18
TORSDOF 11
ENDMDL
MODEL 9
REMARK VINA RESULT:    -5.337      2.913      6.601
REMARK INTER + INTRA:          -9.624
REMARK INTER:                  -7.762
REMARK INTRA:                  -1.862
REMARK UNBOUND:                -1.010
REMARK SMILES COc1cc(CNC(=O)CCCCCCC(C)C)ccc1O
REMARK SMILES IDX 11 1 10 2 8 3 7 4 9 6 6 7 5 8 3 9 21 10 4 11 20 12 19 13
REMARK SMILES IDX 2 14 1 15 22 16 12 18 13 19 14 20 15 21 16 22 17 23 18 24
REMARK H PARENT 7 5 22 17
REMARK Flexibility Score: inf
ROOT
ATOM      1  C   UNL     1      77.925  86.638  68.504  1.00  0.00     0.010 C 
ENDROOT
BRANCH   1   2
ATOM      2  C   UNL     1      77.942  87.357  67.127  1.00  0.00     0.100 C 
BRANCH   2   3
ATOM      3  C   UNL     1      76.741  87.081  66.307  1.00  0.00     0.220 C 
ATOM      4  N   UNL     1      75.568  86.719  66.903  1.00  0.00    -0.352 N 
ATOM      5  H   UNL     1      75.618  86.622  67.907  1.00  0.00     0.163 HD
ATOM      6  O   UNL     1      76.821  87.209  65.061  1.00  0.00    -0.275 OA
BRANCH   4   7
ATOM      7  C   UNL     1      74.332  86.485  66.220  1.00  0.00     0.151 C 
BRANCH   7   8
ATOM      8  C   UNL     1      73.930  85.051  66.211  1.00  0.00    -0.025 A 
ATOM      9  C   UNL     1      72.176  83.331  66.317  1.00  0.00     0.160 A 
ATOM     10  C   UNL     1      73.151  82.323  66.151  1.00  0.00     0.157 A 
ATOM     11  C   UNL     1      72.574  84.684  66.364  1.00  0.00     0.056 A 
ATOM     12  C   UNL     1      74.508  82.674  66.037  1.00  0.00     0.050 A 
ATOM     13  C   UNL     1      74.895  84.028  66.056  1.00  0.00     0.009 A 
BRANCH   9  14
ATOM     14  O   UNL     1      70.857  82.998  66.468  1.00  0.00    -0.493 OA
ATOM     15  C   UNL     1      70.088  83.111  65.257  1.00  0.00     0.278 C 
ENDBRANCH   9  14
BRANCH  10  16
ATOM     16  O   UNL     1      72.796  81.012  66.103  1.00  0.00    -0.504 OA
ATOM     17  H   UNL     1      71.925  80.903  66.492  1.00  0.00     0.293 HD
ENDBRANCH  10  16
ENDBRANCH   7   8
ENDBRANCH   4   7
ENDBRANCH   2   3
ENDBRANCH   1   2
BRANCH   1  18
ATOM     18  C   UNL     1      78.099  85.099  68.364  1.00  0.00     0.001 C 
BRANCH  18  19
ATOM     19  C   UNL     1      77.045  84.275  69.156  1.00  0.00     0.000 C 
BRANCH  19  20
ATOM     20  C   UNL     1      76.349  85.135  70.248  1.00  0.00     0.000 C 
BRANCH  20  21
ATOM     21  C   UNL     1      74.816  85.299  70.049  1.00  0.00     0.003 C 
BRANCH  21  22
ATOM     22  C   UNL     1      74.253  86.699  70.461  1.00  0.00    -0.017 C 
ATOM     23  C   UNL     1      73.039  87.080  69.569  1.00  0.00     0.007 C 
ATOM     24  C   UNL     1      75.321  87.832  70.443  1.00  0.00     0.007 C 
ENDBRANCH  21  22
ENDBRANCH  20  21
ENDBRANCH  19  20
ENDBRANCH  18  19
ENDBRANCH   1  18
TORSDOF 11
ENDMDL
MODEL 10
REMARK VINA RESULT:    -5.330     11.671     14.957
REMARK INTER + INTRA:          -9.611
REMARK INTER:                  -7.761
REMARK INTRA:                  -1.850
REMARK UNBOUND:                -1.010
REMARK SMILES COc1cc(CNC(=O)CCCCCCC(C)C)ccc1O
REMARK SMILES IDX 11 1 10 2 8 3 7 4 9 6 6 7 5 8 3 9 21 10 4 11 20 12 19 13
REMARK SMILES IDX 2 14 1 15 22 16 12 18 13 19 14 20 15 21 16 22 17 23 18 24
REMARK H PARENT 7 5 22 17
REMARK Flexibility Score: inf
ROOT
ATOM      1  C   UNL     1      60.573  86.276  73.398  1.00  0.00     0.010 C 
ENDROOT
BRANCH   1   2
ATOM      2  C   UNL     1      60.291  85.279  74.556  1.00  0.00     0.100 C 
BRANCH   2   3
ATOM      3  C   UNL     1      61.409  84.342  74.806  1.00  0.00     0.220 C 
ATOM      4  N   UNL     1      61.566  83.233  74.026  1.00  0.00    -0.352 N 
ATOM      5  H   UNL     1      60.849  83.105  73.327  1.00  0.00     0.163 HD
ATOM      6  O   UNL     1      62.217  84.602  75.730  1.00  0.00    -0.275 OA
BRANCH   4   7
ATOM      7  C   UNL     1      62.638  82.291  74.136  1.00  0.00     0.151 C 
BRANCH   7   8
ATOM      8  C   UNL     1      63.686  82.470  73.094  1.00  0.00    -0.025 A 
ATOM      9  C   UNL     1      65.479  83.820  72.087  1.00  0.00     0.160 A 
ATOM     10  C   UNL     1      65.717  82.801  71.140  1.00  0.00     0.157 A 
ATOM     11  C   UNL     1      64.455  83.656  73.044  1.00  0.00     0.056 A 
ATOM     12  C   UNL     1      64.933  81.633  71.155  1.00  0.00     0.050 A 
ATOM     13  C   UNL     1      63.932  81.463  72.131  1.00  0.00     0.009 A 
BRANCH   9  14
ATOM     14  O   UNL     1      66.209  84.977  72.056  1.00  0.00    -0.493 OA
ATOM     15  C   UNL     1      65.570  86.084  72.717  1.00  0.00     0.278 C 
ENDBRANCH   9  14
BRANCH  10  16
ATOM     16  O   UNL     1      66.695  82.933  70.206  1.00  0.00    -0.504 OA
ATOM     17  H   UNL     1      67.537  83.082  70.644  1.00  0.00     0.293 HD
ENDBRANCH  10  16
ENDBRANCH   7   8
ENDBRANCH   4   7
ENDBRANCH   2   3
ENDBRANCH   1   2
BRANCH   1  18
ATOM     18  C   UNL     1      59.359  86.417  72.436  1.00  0.00     0.001 C 
BRANCH  18  19
ATOM     19  C   UNL     1      58.805  85.058  71.923  1.00  0.00     0.000 C 
BRANCH  19  20
ATOM     20  C   UNL     1      59.351  84.715  70.508  1.00  0.00     0.000 C 
BRANCH  20  21
ATOM     21  C   UNL     1      60.248  85.821  69.886  1.00  0.00     0.003 C 
BRANCH  21  22
ATOM     22  C   UNL     1      61.732  85.395  69.644  1.00  0.00    -0.017 C 
ATOM     23  C   UNL     1      61.951  83.918  70.077  1.00  0.00     0.007 C 
ATOM     24  C   UNL     1      62.771  86.325  70.336  1.00  0.00     0.007 C 
ENDBRANCH  21  22
ENDBRANCH  20  21
ENDBRANCH  19  20
ENDBRANCH  18  19
ENDBRANCH   1  18
TORSDOF 11
ENDMDL
