MODEL 1
REMARK VINA RESULT:    -6.527      0.000      0.000
REMARK INTER + INTRA:         -12.248
REMARK INTER:                 -10.915
REMARK INTRA:                  -1.333
REMARK UNBOUND:                -1.333
REMARK SMILES COc1cc(CNC(=O)CCCCCCCC(C)C)ccc1O
REMARK SMILES IDX 11 1 10 2 8 3 9 4 7 5 6 7 5 8 4 9 20 10 3 11 21 12 22 13
REMARK SMILES IDX 2 14 1 15 23 16 12 18 13 19 14 20 15 21 16 22 17 23 18 24
REMARK SMILES IDX 19 25
REMARK H PARENT 7 6 23 17
REMARK Flexibility Score: inf
ROOT
ATOM      1  C   UNL     1      90.704  94.048  76.795  1.00  0.00     0.010 C 
ENDROOT
BRANCH   1   2
ATOM      2  C   UNL     1      91.217  93.967  75.359  1.00  0.00     0.100 C 
BRANCH   2   3
ATOM      3  C   UNL     1      92.681  93.563  75.290  1.00  0.00     0.220 C 
ATOM      4  O   UNL     1      93.124  92.777  74.457  1.00  0.00    -0.275 OA
ATOM      5  N   UNL     1      93.428  94.184  76.279  1.00  0.00    -0.352 N 
ATOM      6  H   UNL     1      92.971  94.813  76.933  1.00  0.00     0.163 HD
BRANCH   5   7
ATOM      7  C   UNL     1      94.847  93.966  76.441  1.00  0.00     0.151 C 
BRANCH   7   8
ATOM      8  C   UNL     1      95.398  94.710  77.623  1.00  0.00    -0.025 A 
ATOM      9  C   UNL     1      94.956  94.393  78.902  1.00  0.00     0.056 A 
ATOM     10  C   UNL     1      96.343  95.710  77.426  1.00  0.00     0.009 A 
ATOM     11  C   UNL     1      95.468  95.084  80.000  1.00  0.00     0.160 A 
ATOM     12  C   UNL     1      96.854  96.402  78.525  1.00  0.00     0.050 A 
ATOM     13  C   UNL     1      96.417  96.090  79.812  1.00  0.00     0.157 A 
BRANCH  11  14
ATOM     14  O   UNL     1      95.032  94.770  81.253  1.00  0.00    -0.493 OA
ATOM     15  C   UNL     1      95.672  93.674  81.905  1.00  0.00     0.278 C 
ENDBRANCH  11  14
BRANCH  13  16
ATOM     16  O   UNL     1      96.924  96.772  80.876  1.00  0.00    -0.504 OA
ATOM     17  H   UNL     1      97.837  96.477  81.035  1.00  0.00     0.293 HD
ENDBRANCH  13  16
ENDBRANCH   7   8
ENDBRANCH   5   7
ENDBRANCH   2   3
ENDBRANCH   1   2
BRANCH   1  18
ATOM     18  C   UNL     1      89.880  92.828  77.218  1.00  0.00     0.001 C 
BRANCH  18  19
ATOM     19  C   UNL     1      90.649  91.506  77.306  1.00  0.00     0.000 C 
BRANCH  19  20
ATOM     20  C   UNL     1      89.881  90.319  76.719  1.00  0.00     0.000 C 
BRANCH  20  21
ATOM     21  C   UNL     1      88.725  90.734  75.803  1.00  0.00     0.000 C 
BRANCH  21  22
ATOM     22  C   UNL     1      88.925  90.310  74.344  1.00  0.00     0.003 C 
BRANCH  22  23
ATOM     23  C   UNL     1      89.115  91.498  73.380  1.00  0.00    -0.017 C 
ATOM     24  C   UNL     1      87.981  91.517  72.352  1.00  0.00     0.007 C 
ATOM     25  C   UNL     1      90.463  91.457  72.658  1.00  0.00     0.007 C 
ENDBRANCH  22  23
ENDBRANCH  21  22
ENDBRANCH  20  21
ENDBRANCH  19  20
ENDBRANCH  18  19
ENDBRANCH   1  18
TORSDOF 12
ENDMDL
MODEL 2
REMARK VINA RESULT:    -6.502      3.541      6.256
REMARK INTER + INTRA:         -12.206
REMARK INTER:                 -11.056
REMARK INTRA:                  -1.150
REMARK UNBOUND:                -1.333
REMARK SMILES COc1cc(CNC(=O)CCCCCCCC(C)C)ccc1O
REMARK SMILES IDX 11 1 10 2 8 3 9 4 7 5 6 7 5 8 4 9 20 10 3 11 21 12 22 13
REMARK SMILES IDX 2 14 1 15 23 16 12 18 13 19 14 20 15 21 16 22 17 23 18 24
REMARK SMILES IDX 19 25
REMARK H PARENT 7 6 23 17
REMARK Flexibility Score: inf
ROOT
ATOM      1  C   UNL     1      93.148  93.241  74.645  1.00  0.00     0.010 C 
ENDROOT
BRANCH   1   2
ATOM      2  C   UNL     1      92.518  94.300  75.546  1.00  0.00     0.100 C 
BRANCH   2   3
ATOM      3  C   UNL     1      91.791  93.691  76.734  1.00  0.00     0.220 C 
ATOM      4  O   UNL     1      92.349  93.396  77.787  1.00  0.00    -0.275 OA
ATOM      5  N   UNL     1      90.442  93.511  76.468  1.00  0.00    -0.352 N 
ATOM      6  H   UNL     1      90.069  93.776  75.560  1.00  0.00     0.163 HD
BRANCH   5   7
ATOM      7  C   UNL     1      89.523  92.941  77.427  1.00  0.00     0.151 C 
BRANCH   7   8
ATOM      8  C   UNL     1      89.781  91.479  77.649  1.00  0.00    -0.025 A 
ATOM      9  C   UNL     1      89.767  90.606  76.568  1.00  0.00     0.056 A 
ATOM     10  C   UNL     1      90.029  91.014  78.935  1.00  0.00     0.009 A 
ATOM     11  C   UNL     1      90.006  89.247  76.776  1.00  0.00     0.160 A 
ATOM     12  C   UNL     1      90.267  89.654  79.142  1.00  0.00     0.050 A 
ATOM     13  C   UNL     1      90.256  88.771  78.063  1.00  0.00     0.157 A 
BRANCH  11  14
ATOM     14  O   UNL     1      89.991  88.394  75.713  1.00  0.00    -0.493 OA
ATOM     15  C   UNL     1      91.240  88.135  75.073  1.00  0.00     0.278 C 
ENDBRANCH  11  14
BRANCH  13  16
ATOM     16  O   UNL     1      90.491  87.447  78.278  1.00  0.00    -0.504 OA
ATOM     17  H   UNL     1      91.399  87.237  77.999  1.00  0.00     0.293 HD
ENDBRANCH  13  16
ENDBRANCH   7   8
ENDBRANCH   5   7
ENDBRANCH   2   3
ENDBRANCH   1   2
BRANCH   1  18
ATOM     18  C   UNL     1      92.445  91.883  74.715  1.00  0.00     0.001 C 
BRANCH  18  19
ATOM     19  C   UNL     1      91.757  91.424  73.425  1.00  0.00     0.000 C 
BRANCH  19  20
ATOM     20  C   UNL     1      90.626  92.355  72.978  1.00  0.00     0.000 C 
BRANCH  20  21
ATOM     21  C   UNL     1      90.116  92.060  71.563  1.00  0.00     0.000 C 
BRANCH  21  22
ATOM     22  C   UNL     1      89.616  90.622  71.387  1.00  0.00     0.003 C 
BRANCH  22  23
ATOM     23  C   UNL     1      88.204  90.388  71.959  1.00  0.00    -0.017 C 
ATOM     24  C   UNL     1      87.403  91.691  71.908  1.00  0.00     0.007 C 
ATOM     25  C   UNL     1      88.233  89.858  73.393  1.00  0.00     0.007 C 
ENDBRANCH  22  23
ENDBRANCH  21  22
ENDBRANCH  20  21
ENDBRANCH  19  20
ENDBRANCH  18  19
ENDBRANCH   1  18
TORSDOF 12
ENDMDL
MODEL 3
REMARK VINA RESULT:    -6.464      2.884      8.694
REMARK INTER + INTRA:         -12.142
REMARK INTER:                 -10.990
REMARK INTRA:                  -1.152
REMARK UNBOUND:                -1.333
REMARK SMILES COc1cc(CNC(=O)CCCCCCCC(C)C)ccc1O
REMARK SMILES IDX 11 1 10 2 8 3 9 4 7 5 6 7 5 8 4 9 20 10 3 11 21 12 22 13
REMARK SMILES IDX 2 14 1 15 23 16 12 18 13 19 14 20 15 21 16 22 17 23 18 24
REMARK SMILES IDX 19 25
REMARK H PARENT 7 6 23 17
REMARK Flexibility Score: inf
ROOT
ATOM      1  C   UNL     1      93.427  93.698  76.743  1.00  0.00     0.010 C 
ENDROOT
BRANCH   1   2
ATOM      2  C   UNL     1      92.178  94.572  76.649  1.00  0.00     0.100 C 
BRANCH   2   3
ATOM      3  C   UNL     1      90.900  93.779  76.868  1.00  0.00     0.220 C 
ATOM      4  O   UNL     1      89.800  94.152  76.471  1.00  0.00    -0.275 OA
ATOM      5  N   UNL     1      91.141  92.607  77.568  1.00  0.00    -0.352 N 
ATOM      6  H   UNL     1      92.087  92.386  77.867  1.00  0.00     0.163 HD
BRANCH   5   7
ATOM      7  C   UNL     1      90.095  91.673  77.917  1.00  0.00     0.151 C 
BRANCH   7   8
ATOM      8  C   UNL     1      90.190  90.402  77.125  1.00  0.00    -0.025 A 
ATOM      9  C   UNL     1      90.533  90.454  75.779  1.00  0.00     0.056 A 
ATOM     10  C   UNL     1      89.935  89.185  77.745  1.00  0.00     0.009 A 
ATOM     11  C   UNL     1      90.621  89.272  75.043  1.00  0.00     0.160 A 
ATOM     12  C   UNL     1      90.023  88.003  77.009  1.00  0.00     0.050 A 
ATOM     13  C   UNL     1      90.366  88.046  75.658  1.00  0.00     0.157 A 
BRANCH  11  14
ATOM     14  O   UNL     1      90.957  89.328  73.724  1.00  0.00    -0.493 OA
ATOM     15  C   UNL     1      89.999  89.902  72.835  1.00  0.00     0.278 C 
ENDBRANCH  11  14
BRANCH  13  16
ATOM     16  O   UNL     1      90.450  86.886  74.950  1.00  0.00    -0.504 OA
ATOM     17  H   UNL     1      90.773  87.084  74.054  1.00  0.00     0.293 HD
ENDBRANCH  13  16
ENDBRANCH   7   8
ENDBRANCH   5   7
ENDBRANCH   2   3
ENDBRANCH   1   2
BRANCH   1  18
ATOM     18  C   UNL     1      94.490  94.253  77.696  1.00  0.00     0.001 C 
BRANCH  18  19
ATOM     19  C   UNL     1      95.940  94.135  77.216  1.00  0.00     0.000 C 
BRANCH  19  20
ATOM     20  C   UNL     1      96.729  95.440  77.346  1.00  0.00     0.000 C 
BRANCH  20  21
ATOM     21  C   UNL     1      96.548  96.129  78.704  1.00  0.00     0.000 C 
BRANCH  21  22
ATOM     22  C   UNL     1      97.376  95.490  79.823  1.00  0.00     0.003 C 
BRANCH  22  23
ATOM     23  C   UNL     1      96.609  95.355  81.153  1.00  0.00    -0.017 C 
ATOM     24  C   UNL     1      95.775  94.071  81.141  1.00  0.00     0.007 C 
ATOM     25  C   UNL     1      95.702  96.554  81.432  1.00  0.00     0.007 C 
ENDBRANCH  22  23
ENDBRANCH  21  22
ENDBRANCH  20  21
ENDBRANCH  19  20
ENDBRANCH  18  19
ENDBRANCH   1  18
TORSDOF 12
ENDMDL
MODEL 4
REMARK VINA RESULT:    -6.032      1.644      3.101
REMARK INTER + INTRA:         -11.420
REMARK INTER:                 -10.547
REMARK INTRA:                  -0.873
REMARK UNBOUND:                -1.333
REMARK SMILES COc1cc(CNC(=O)CCCCCCCC(C)C)ccc1O
REMARK SMILES IDX 11 1 10 2 8 3 9 4 7 5 6 7 5 8 4 9 20 10 3 11 21 12 22 13
REMARK SMILES IDX 2 14 1 15 23 16 12 18 13 19 14 20 15 21 16 22 17 23 18 24
REMARK SMILES IDX 19 25
REMARK H PARENT 7 6 23 17
REMARK Flexibility Score: inf
ROOT
ATOM      1  C   UNL     1      92.060  93.445  74.598  1.00  0.00     0.010 C 
ENDROOT
BRANCH   1   2
ATOM      2  C   UNL     1      92.369  93.934  76.012  1.00  0.00     0.100 C 
BRANCH   2   3
ATOM      3  C   UNL     1      93.848  94.213  76.217  1.00  0.00     0.220 C 
ATOM      4  O   UNL     1      94.547  94.788  75.388  1.00  0.00    -0.275 OA
ATOM      5  N   UNL     1      94.293  93.732  77.440  1.00  0.00    -0.352 N 
ATOM      6  H   UNL     1      93.641  93.257  78.059  1.00  0.00     0.163 HD
BRANCH   5   7
ATOM      7  C   UNL     1      95.663  93.859  77.881  1.00  0.00     0.151 C 
BRANCH   7   8
ATOM      8  C   UNL     1      95.757  94.458  79.254  1.00  0.00    -0.025 A 
ATOM      9  C   UNL     1      96.060  95.807  79.397  1.00  0.00     0.056 A 
ATOM     10  C   UNL     1      95.541  93.657  80.369  1.00  0.00     0.009 A 
ATOM     11  C   UNL     1      96.148  96.363  80.673  1.00  0.00     0.160 A 
ATOM     12  C   UNL     1      95.630  94.213  81.645  1.00  0.00     0.050 A 
ATOM     13  C   UNL     1      95.933  95.566  81.798  1.00  0.00     0.157 A 
BRANCH  11  14
ATOM     14  O   UNL     1      96.446  97.685  80.809  1.00  0.00    -0.493 OA
ATOM     15  C   UNL     1      97.663  98.139  80.218  1.00  0.00     0.278 C 
ENDBRANCH  11  14
BRANCH  13  16
ATOM     16  O   UNL     1      96.016  96.098  83.049  1.00  0.00    -0.504 OA
ATOM     17  H   UNL     1      96.354  97.007  82.985  1.00  0.00     0.293 HD
ENDBRANCH  13  16
ENDBRANCH   7   8
ENDBRANCH   5   7
ENDBRANCH   2   3
ENDBRANCH   1   2
BRANCH   1  18
ATOM     18  C   UNL     1      90.618  92.963  74.420  1.00  0.00     0.001 C 
BRANCH  18  19
ATOM     19  C   UNL     1      90.094  92.951  72.980  1.00  0.00     0.000 C 
BRANCH  19  20
ATOM     20  C   UNL     1      89.237  91.724  72.659  1.00  0.00     0.000 C 
BRANCH  20  21
ATOM     21  C   UNL     1      89.158  90.716  73.811  1.00  0.00     0.000 C 
BRANCH  21  22
ATOM     22  C   UNL     1      89.998  89.457  73.574  1.00  0.00     0.003 C 
BRANCH  22  23
ATOM     23  C   UNL     1      90.191  88.600  74.841  1.00  0.00    -0.017 C 
ATOM     24  C   UNL     1      90.635  89.490  76.005  1.00  0.00     0.007 C 
ATOM     25  C   UNL     1      91.206  87.475  74.638  1.00  0.00     0.007 C 
ENDBRANCH  22  23
ENDBRANCH  21  22
ENDBRANCH  20  21
ENDBRANCH  19  20
ENDBRANCH  18  19
ENDBRANCH   1  18
TORSDOF 12
ENDMDL
MODEL 5
REMARK VINA RESULT:    -5.976     14.716     17.227
REMARK INTER + INTRA:         -11.327
REMARK INTER:                  -9.263
REMARK INTRA:                  -2.064
REMARK UNBOUND:                -1.333
REMARK SMILES COc1cc(CNC(=O)CCCCCCCC(C)C)ccc1O
REMARK SMILES IDX 11 1 10 2 8 3 9 4 7 5 6 7 5 8 4 9 20 10 3 11 21 12 22 13
REMARK SMILES IDX 2 14 1 15 23 16 12 18 13 19 14 20 15 21 16 22 17 23 18 24
REMARK SMILES IDX 19 25
REMARK H PARENT 7 6 23 17
REMARK Flexibility Score: inf
ROOT
ATOM      1  C   UNL     1      80.761  87.053  83.576  1.00  0.00     0.010 C 
ENDROOT
BRANCH   1   2
ATOM      2  C   UNL     1      81.044  85.835  84.453  1.00  0.00     0.100 C 
BRANCH   2   3
ATOM      3  C   UNL     1      81.871  86.184  85.679  1.00  0.00     0.220 C 
ATOM      4  O   UNL     1      83.018  86.615  85.617  1.00  0.00    -0.275 OA
ATOM      5  N   UNL     1      81.169  85.944  86.851  1.00  0.00    -0.352 N 
ATOM      6  H   UNL     1      80.224  85.574  86.804  1.00  0.00     0.163 HD
BRANCH   5   7
ATOM      7  C   UNL     1      81.729  86.184  88.162  1.00  0.00     0.151 C 
BRANCH   7   8
ATOM      8  C   UNL     1      80.885  87.128  88.968  1.00  0.00    -0.025 A 
ATOM      9  C   UNL     1      81.498  88.083  89.771  1.00  0.00     0.056 A 
ATOM     10  C   UNL     1      79.500  87.038  88.903  1.00  0.00     0.009 A 
ATOM     11  C   UNL     1      80.714  88.960  90.521  1.00  0.00     0.160 A 
ATOM     12  C   UNL     1      78.716  87.916  89.653  1.00  0.00     0.050 A 
ATOM     13  C   UNL     1      79.323  88.876  90.462  1.00  0.00     0.157 A 
BRANCH  11  14
ATOM     14  O   UNL     1      81.318  89.894  91.307  1.00  0.00    -0.493 OA
ATOM     15  C   UNL     1      81.906  89.434  92.523  1.00  0.00     0.278 C 
ENDBRANCH  11  14
BRANCH  13  16
ATOM     16  O   UNL     1      78.546  89.728  91.188  1.00  0.00    -0.504 OA
ATOM     17  H   UNL     1      79.028  90.563  91.318  1.00  0.00     0.293 HD
ENDBRANCH  13  16
ENDBRANCH   7   8
ENDBRANCH   5   7
ENDBRANCH   2   3
ENDBRANCH   1   2
BRANCH   1  18
ATOM     18  C   UNL     1      79.709  87.997  84.163  1.00  0.00     0.001 C 
BRANCH  18  19
ATOM     19  C   UNL     1      80.220  89.373  84.600  1.00  0.00     0.000 C 
BRANCH  19  20
ATOM     20  C   UNL     1      80.450  89.481  86.110  1.00  0.00     0.000 C 
BRANCH  20  21
ATOM     21  C   UNL     1      81.894  89.837  86.484  1.00  0.00     0.000 C 
BRANCH  21  22
ATOM     22  C   UNL     1      82.796  90.067  85.266  1.00  0.00     0.003 C 
BRANCH  22  23
ATOM     23  C   UNL     1      84.275  90.295  85.633  1.00  0.00    -0.017 C 
ATOM     24  C   UNL     1      84.455  90.187  87.149  1.00  0.00     0.007 C 
ATOM     25  C   UNL     1      84.798  91.648  85.148  1.00  0.00     0.007 C 
ENDBRANCH  22  23
ENDBRANCH  21  22
ENDBRANCH  20  21
ENDBRANCH  19  20
ENDBRANCH  18  19
ENDBRANCH   1  18
TORSDOF 12
ENDMDL
MODEL 6
REMARK VINA RESULT:    -5.767      3.656      8.354
REMARK INTER + INTRA:         -10.977
REMARK INTER:                 -10.124
REMARK INTRA:                  -0.853
REMARK UNBOUND:                -1.333
REMARK SMILES COc1cc(CNC(=O)CCCCCCCC(C)C)ccc1O
REMARK SMILES IDX 11 1 10 2 8 3 9 4 7 5 6 7 5 8 4 9 20 10 3 11 21 12 22 13
REMARK SMILES IDX 2 14 1 15 23 16 12 18 13 19 14 20 15 21 16 22 17 23 18 24
REMARK SMILES IDX 19 25
REMARK H PARENT 7 6 23 17
REMARK Flexibility Score: inf
ROOT
ATOM      1  C   UNL     1      94.098  93.955  75.316  1.00  0.00     0.010 C 
ENDROOT
BRANCH   1   2
ATOM      2  C   UNL     1      93.506  93.697  76.700  1.00  0.00     0.100 C 
BRANCH   2   3
ATOM      3  C   UNL     1      92.016  93.400  76.646  1.00  0.00     0.220 C 
ATOM      4  O   UNL     1      91.257  93.912  75.828  1.00  0.00    -0.275 OA
ATOM      5  N   UNL     1      91.640  92.499  77.630  1.00  0.00    -0.352 N 
ATOM      6  H   UNL     1      92.339  92.135  78.272  1.00  0.00     0.163 HD
BRANCH   5   7
ATOM      7  C   UNL     1      90.276  92.053  77.804  1.00  0.00     0.151 C 
BRANCH   7   8
ATOM      8  C   UNL     1      89.991  90.803  77.025  1.00  0.00    -0.025 A 
ATOM      9  C   UNL     1      89.418  90.895  75.762  1.00  0.00     0.056 A 
ATOM     10  C   UNL     1      90.302  89.565  77.574  1.00  0.00     0.009 A 
ATOM     11  C   UNL     1      89.153  89.733  75.038  1.00  0.00     0.160 A 
ATOM     12  C   UNL     1      90.036  88.402  76.850  1.00  0.00     0.050 A 
ATOM     13  C   UNL     1      89.461  88.486  75.582  1.00  0.00     0.157 A 
BRANCH  11  14
ATOM     14  O   UNL     1      88.591  89.828  73.801  1.00  0.00    -0.493 OA
ATOM     15  C   UNL     1      89.331  90.533  72.805  1.00  0.00     0.278 C 
ENDBRANCH  11  14
BRANCH  13  16
ATOM     16  O   UNL     1      89.207  87.344  74.885  1.00  0.00    -0.504 OA
ATOM     17  H   UNL     1      88.308  87.039  75.094  1.00  0.00     0.293 HD
ENDBRANCH  13  16
ENDBRANCH   7   8
ENDBRANCH   5   7
ENDBRANCH   2   3
ENDBRANCH   1   2
BRANCH   1  18
ATOM     18  C   UNL     1      95.574  94.362  75.351  1.00  0.00     0.001 C 
BRANCH  18  19
ATOM     19  C   UNL     1      95.876  95.802  74.922  1.00  0.00     0.000 C 
BRANCH  19  20
ATOM     20  C   UNL     1      94.623  96.675  74.809  1.00  0.00     0.000 C 
BRANCH  20  21
ATOM     21  C   UNL     1      94.837  97.944  73.976  1.00  0.00     0.000 C 
BRANCH  21  22
ATOM     22  C   UNL     1      94.169  97.884  72.598  1.00  0.00     0.003 C 
BRANCH  22  23
ATOM     23  C   UNL     1      95.021  98.507  71.475  1.00  0.00    -0.017 C 
ATOM     24  C   UNL     1      94.687  97.836  70.140  1.00  0.00     0.007 C 
ATOM     25  C   UNL     1      96.521  98.393  71.746  1.00  0.00     0.007 C 
ENDBRANCH  22  23
ENDBRANCH  21  22
ENDBRANCH  20  21
ENDBRANCH  19  20
ENDBRANCH  18  19
ENDBRANCH   1  18
TORSDOF 12
ENDMDL
MODEL 7
REMARK VINA RESULT:    -5.656     14.162     16.577
REMARK INTER + INTRA:         -10.791
REMARK INTER:                  -8.778
REMARK INTRA:                  -2.013
REMARK UNBOUND:                -1.333
REMARK SMILES COc1cc(CNC(=O)CCCCCCCC(C)C)ccc1O
REMARK SMILES IDX 11 1 10 2 8 3 9 4 7 5 6 7 5 8 4 9 20 10 3 11 21 12 22 13
REMARK SMILES IDX 2 14 1 15 23 16 12 18 13 19 14 20 15 21 16 22 17 23 18 24
REMARK SMILES IDX 19 25
REMARK H PARENT 7 6 23 17
REMARK Flexibility Score: inf
ROOT
ATOM      1  C   UNL     1      80.481  86.232  84.259  1.00  0.00     0.010 C 
ENDROOT
BRANCH   1   2
ATOM      2  C   UNL     1      80.208  85.899  85.724  1.00  0.00     0.100 C 
BRANCH   2   3
ATOM      3  C   UNL     1      81.294  86.425  86.649  1.00  0.00     0.220 C 
ATOM      4  O   UNL     1      82.483  86.453  86.344  1.00  0.00    -0.275 OA
ATOM      5  N   UNL     1      80.770  86.851  87.860  1.00  0.00    -0.352 N 
ATOM      6  H   UNL     1      79.770  86.778  88.027  1.00  0.00     0.163 HD
BRANCH   5   7
ATOM      7  C   UNL     1      81.589  87.388  88.922  1.00  0.00     0.151 C 
BRANCH   7   8
ATOM      8  C   UNL     1      81.452  88.878  89.038  1.00  0.00    -0.025 A 
ATOM      9  C   UNL     1      80.197  89.465  88.919  1.00  0.00     0.056 A 
ATOM     10  C   UNL     1      82.581  89.656  89.262  1.00  0.00     0.009 A 
ATOM     11  C   UNL     1      80.070  90.850  89.026  1.00  0.00     0.160 A 
ATOM     12  C   UNL     1      82.454  91.042  89.368  1.00  0.00     0.050 A 
ATOM     13  C   UNL     1      81.199  91.639  89.250  1.00  0.00     0.157 A 
BRANCH  11  14
ATOM     14  O   UNL     1      78.839  91.421  88.908  1.00  0.00    -0.493 OA
ATOM     15  C   UNL     1      77.988  91.367  90.052  1.00  0.00     0.278 C 
ENDBRANCH  11  14
BRANCH  13  16
ATOM     16  O   UNL     1      81.087  92.992  89.357  1.00  0.00    -0.504 OA
ATOM     17  H   UNL     1      81.765  93.411  88.799  1.00  0.00     0.293 HD
ENDBRANCH  13  16
ENDBRANCH   7   8
ENDBRANCH   5   7
ENDBRANCH   2   3
ENDBRANCH   1   2
BRANCH   1  18
ATOM     18  C   UNL     1      79.912  87.586  83.825  1.00  0.00     0.001 C 
BRANCH  18  19
ATOM     19  C   UNL     1      80.894  88.762  83.866  1.00  0.00     0.000 C 
BRANCH  19  20
ATOM     20  C   UNL     1      80.545  89.804  84.932  1.00  0.00     0.000 C 
BRANCH  20  21
ATOM     21  C   UNL     1      81.750  90.246  85.770  1.00  0.00     0.000 C 
BRANCH  21  22
ATOM     22  C   UNL     1      83.066  90.250  84.984  1.00  0.00     0.003 C 
BRANCH  22  23
ATOM     23  C   UNL     1      84.265  90.774  85.798  1.00  0.00    -0.017 C 
ATOM     24  C   UNL     1      84.985  91.871  85.010  1.00  0.00     0.007 C 
ATOM     25  C   UNL     1      85.256  89.667  86.160  1.00  0.00     0.007 C 
ENDBRANCH  22  23
ENDBRANCH  21  22
ENDBRANCH  20  21
ENDBRANCH  19  20
ENDBRANCH  18  19
ENDBRANCH   1  18
TORSDOF 12
ENDMDL
MODEL 8
REMARK VINA RESULT:    -5.520     16.554     20.526
REMARK INTER + INTRA:         -10.564
REMARK INTER:                  -9.553
REMARK INTRA:                  -1.010
REMARK UNBOUND:                -1.333
REMARK SMILES COc1cc(CNC(=O)CCCCCCCC(C)C)ccc1O
REMARK SMILES IDX 11 1 10 2 8 3 9 4 7 5 6 7 5 8 4 9 20 10 3 11 21 12 22 13
REMARK SMILES IDX 2 14 1 15 23 16 12 18 13 19 14 20 15 21 16 22 17 23 18 24
REMARK SMILES IDX 19 25
REMARK H PARENT 7 6 23 17
REMARK Flexibility Score: inf
ROOT
ATOM      1  C   UNL     1      76.058  92.435  65.262  1.00  0.00     0.010 C 
ENDROOT
BRANCH   1   2
ATOM      2  C   UNL     1      75.948  92.089  63.778  1.00  0.00     0.100 C 
BRANCH   2   3
ATOM      3  C   UNL     1      75.797  90.595  63.543  1.00  0.00     0.220 C 
ATOM      4  O   UNL     1      74.712  90.020  63.535  1.00  0.00    -0.275 OA
ATOM      5  N   UNL     1      77.026  89.982  63.350  1.00  0.00    -0.352 N 
ATOM      6  H   UNL     1      77.876  90.539  63.385  1.00  0.00     0.163 HD
BRANCH   5   7
ATOM      7  C   UNL     1      77.166  88.564  63.113  1.00  0.00     0.151 C 
BRANCH   7   8
ATOM      8  C   UNL     1      77.592  87.828  64.350  1.00  0.00    -0.025 A 
ATOM      9  C   UNL     1      77.711  86.443  64.319  1.00  0.00     0.056 A 
ATOM     10  C   UNL     1      77.863  88.538  65.513  1.00  0.00     0.009 A 
ATOM     11  C   UNL     1      78.107  85.759  65.469  1.00  0.00     0.160 A 
ATOM     12  C   UNL     1      78.258  87.853  66.663  1.00  0.00     0.050 A 
ATOM     13  C   UNL     1      78.380  86.464  66.641  1.00  0.00     0.157 A 
BRANCH  11  14
ATOM     14  O   UNL     1      78.222  84.402  65.435  1.00  0.00    -0.493 OA
ATOM     15  C   UNL     1      77.010  83.649  65.449  1.00  0.00     0.278 C 
ENDBRANCH  11  14
BRANCH  13  16
ATOM     16  O   UNL     1      78.768  85.808  67.770  1.00  0.00    -0.504 OA
ATOM     17  H   UNL     1      79.729  85.665  67.738  1.00  0.00     0.293 HD
ENDBRANCH  13  16
ENDBRANCH   7   8
ENDBRANCH   5   7
ENDBRANCH   2   3
ENDBRANCH   1   2
BRANCH   1  18
ATOM     18  C   UNL     1      77.008  93.601  65.548  1.00  0.00     0.001 C 
BRANCH  18  19
ATOM     19  C   UNL     1      78.084  93.856  64.487  1.00  0.00     0.000 C 
BRANCH  19  20
ATOM     20  C   UNL     1      79.208  94.775  64.974  1.00  0.00     0.000 C 
BRANCH  20  21
ATOM     21  C   UNL     1      78.771  95.737  66.084  1.00  0.00     0.000 C 
BRANCH  21  22
ATOM     22  C   UNL     1      79.650  95.656  67.337  1.00  0.00     0.003 C 
BRANCH  22  23
ATOM     23  C   UNL     1      78.923  96.088  68.626  1.00  0.00    -0.017 C 
ATOM     24  C   UNL     1      79.848  95.898  69.830  1.00  0.00     0.007 C 
ATOM     25  C   UNL     1      77.621  95.317  68.851  1.00  0.00     0.007 C 
ENDBRANCH  22  23
ENDBRANCH  21  22
ENDBRANCH  20  21
ENDBRANCH  19  20
ENDBRANCH  18  19
ENDBRANCH   1  18
TORSDOF 12
ENDMDL
MODEL 9
REMARK VINA RESULT:    -5.425     25.415     28.091
REMARK INTER + INTRA:         -10.406
REMARK INTER:                  -8.039
REMARK INTRA:                  -2.366
REMARK UNBOUND:                -1.333
REMARK SMILES COc1cc(CNC(=O)CCCCCCCC(C)C)ccc1O
REMARK SMILES IDX 11 1 10 2 8 3 9 4 7 5 6 7 5 8 4 9 20 10 3 11 21 12 22 13
REMARK SMILES IDX 2 14 1 15 23 16 12 18 13 19 14 20 15 21 16 22 17 23 18 24
REMARK SMILES IDX 19 25
REMARK H PARENT 7 6 23 17
REMARK Flexibility Score: inf
ROOT
ATOM      1  C   UNL     1      80.614  65.406  72.957  1.00  0.00     0.010 C 
ENDROOT
BRANCH   1   2
ATOM      2  C   UNL     1      80.242  66.220  74.195  1.00  0.00     0.100 C 
BRANCH   2   3
ATOM      3  C   UNL     1      81.360  66.252  75.224  1.00  0.00     0.220 C 
ATOM      4  O   UNL     1      81.330  66.957  76.229  1.00  0.00    -0.275 OA
ATOM      5  N   UNL     1      82.398  65.402  74.874  1.00  0.00    -0.352 N 
ATOM      6  H   UNL     1      82.339  64.864  74.014  1.00  0.00     0.163 HD
BRANCH   5   7
ATOM      7  C   UNL     1      83.590  65.250  75.677  1.00  0.00     0.151 C 
BRANCH   7   8
ATOM      8  C   UNL     1      84.648  66.247  75.306  1.00  0.00    -0.025 A 
ATOM      9  C   UNL     1      84.704  67.469  75.965  1.00  0.00     0.056 A 
ATOM     10  C   UNL     1      85.562  65.938  74.305  1.00  0.00     0.009 A 
ATOM     11  C   UNL     1      85.688  68.395  75.620  1.00  0.00     0.160 A 
ATOM     12  C   UNL     1      86.545  66.865  73.959  1.00  0.00     0.050 A 
ATOM     13  C   UNL     1      86.609  68.094  74.616  1.00  0.00     0.157 A 
BRANCH  11  14
ATOM     14  O   UNL     1      85.739  69.592  76.268  1.00  0.00    -0.493 OA
ATOM     15  C   UNL     1      86.209  69.579  77.616  1.00  0.00     0.278 C 
ENDBRANCH  11  14
BRANCH  13  16
ATOM     16  O   UNL     1      87.574  68.990  74.270  1.00  0.00    -0.504 OA
ATOM     17  H   UNL     1      87.682  69.633  74.991  1.00  0.00     0.293 HD
ENDBRANCH  13  16
ENDBRANCH   7   8
ENDBRANCH   5   7
ENDBRANCH   2   3
ENDBRANCH   1   2
BRANCH   1  18
ATOM     18  C   UNL     1      80.184  66.064  71.643  1.00  0.00     0.001 C 
BRANCH  18  19
ATOM     19  C   UNL     1      81.236  66.951  70.968  1.00  0.00     0.000 C 
BRANCH  19  20
ATOM     20  C   UNL     1      82.568  66.234  70.730  1.00  0.00     0.000 C 
BRANCH  20  21
ATOM     21  C   UNL     1      83.781  67.014  71.248  1.00  0.00     0.000 C 
BRANCH  21  22
ATOM     22  C   UNL     1      83.409  68.140  72.219  1.00  0.00     0.003 C 
BRANCH  22  23
ATOM     23  C   UNL     1      84.106  69.478  71.904  1.00  0.00    -0.017 C 
ATOM     24  C   UNL     1      83.250  70.290  70.928  1.00  0.00     0.007 C 
ATOM     25  C   UNL     1      85.507  69.286  71.322  1.00  0.00     0.007 C 
ENDBRANCH  22  23
ENDBRANCH  21  22
ENDBRANCH  20  21
ENDBRANCH  19  20
ENDBRANCH  18  19
ENDBRANCH   1  18
TORSDOF 12
ENDMDL
MODEL 10
REMARK VINA RESULT:    -5.415     14.694     16.834
REMARK INTER + INTRA:         -10.389
REMARK INTER:                  -8.326
REMARK INTRA:                  -2.062
REMARK UNBOUND:                -1.333
REMARK SMILES COc1cc(CNC(=O)CCCCCCCC(C)C)ccc1O
REMARK SMILES IDX 11 1 10 2 8 3 9 4 7 5 6 7 5 8 4 9 20 10 3 11 21 12 22 13
REMARK SMILES IDX 2 14 1 15 23 16 12 18 13 19 14 20 15 21 16 22 17 23 18 24
REMARK SMILES IDX 19 25
REMARK H PARENT 7 6 23 17
REMARK Flexibility Score: inf
ROOT
ATOM      1  C   UNL     1      80.818  86.469  86.963  1.00  0.00     0.010 C 
ENDROOT
BRANCH   1   2
ATOM      2  C   UNL     1      79.825  87.116  87.926  1.00  0.00     0.100 C 
BRANCH   2   3
ATOM      3  C   UNL     1      80.504  87.690  89.158  1.00  0.00     0.220 C 
ATOM      4  O   UNL     1      81.570  87.269  89.598  1.00  0.00    -0.275 OA
ATOM      5  N   UNL     1      79.767  88.727  89.710  1.00  0.00    -0.352 N 
ATOM      6  H   UNL     1      78.887  89.001  89.282  1.00  0.00     0.163 HD
BRANCH   5   7
ATOM      7  C   UNL     1      80.185  89.442  90.895  1.00  0.00     0.151 C 
BRANCH   7   8
ATOM      8  C   UNL     1      81.148  90.547  90.573  1.00  0.00    -0.025 A 
ATOM      9  C   UNL     1      82.455  90.478  91.040  1.00  0.00     0.056 A 
ATOM     10  C   UNL     1      80.723  91.628  89.810  1.00  0.00     0.009 A 
ATOM     11  C   UNL     1      83.350  91.506  90.741  1.00  0.00     0.160 A 
ATOM     12  C   UNL     1      81.618  92.656  89.511  1.00  0.00     0.050 A 
ATOM     13  C   UNL     1      82.931  92.595  89.977  1.00  0.00     0.157 A 
BRANCH  11  14
ATOM     14  O   UNL     1      84.630  91.435  91.202  1.00  0.00    -0.493 OA
ATOM     15  C   UNL     1      84.849  91.797  92.565  1.00  0.00     0.278 C 
ENDBRANCH  11  14
BRANCH  13  16
ATOM     16  O   UNL     1      83.796  93.604  89.677  1.00  0.00    -0.504 OA
ATOM     17  H   UNL     1      83.364  94.456  89.860  1.00  0.00     0.293 HD
ENDBRANCH  13  16
ENDBRANCH   7   8
ENDBRANCH   5   7
ENDBRANCH   2   3
ENDBRANCH   1   2
BRANCH   1  18
ATOM     18  C   UNL     1      80.181  86.001  85.652  1.00  0.00     0.001 C 
BRANCH  18  19
ATOM     19  C   UNL     1      80.433  86.897  84.434  1.00  0.00     0.000 C 
BRANCH  19  20
ATOM     20  C   UNL     1      79.429  88.046  84.311  1.00  0.00     0.000 C 
BRANCH  20  21
ATOM     21  C   UNL     1      79.996  89.401  84.749  1.00  0.00     0.000 C 
BRANCH  21  22
ATOM     22  C   UNL     1      81.426  89.647  84.259  1.00  0.00     0.003 C 
BRANCH  22  23
ATOM     23  C   UNL     1      82.422  89.949  85.396  1.00  0.00    -0.017 C 
ATOM     24  C   UNL     1      83.423  88.799  85.526  1.00  0.00     0.007 C 
ATOM     25  C   UNL     1      81.726  90.179  86.739  1.00  0.00     0.007 C 
ENDBRANCH  22  23
ENDBRANCH  21  22
ENDBRANCH  20  21
ENDBRANCH  19  20
ENDBRANCH  18  19
ENDBRANCH   1  18
TORSDOF 12
ENDMDL
