MODEL 1
REMARK VINA RESULT:    -6.513      0.000      0.000
REMARK INTER + INTRA:         -11.150
REMARK INTER:                 -10.511
REMARK INTRA:                  -0.639
REMARK UNBOUND:                -0.639
REMARK SMILES COc1cc(CNC(=O)CCCCCCC(C)C)ccc1O
REMARK SMILES IDX 11 1 10 2 8 3 7 4 9 6 6 7 5 8 3 9 21 10 4 11 20 12 19 13
REMARK SMILES IDX 2 14 1 15 22 16 12 18 13 19 14 20 15 21 16 22 17 23 18 24
REMARK H PARENT 7 5 22 17
REMARK Flexibility Score: inf
ROOT
ATOM      1  C   UNL     1      96.298  83.604  82.775  1.00  0.00     0.010 C 
ENDROOT
BRANCH   1   2
ATOM      2  C   UNL     1      96.434  83.941  84.285  1.00  0.00     0.100 C 
BRANCH   2   3
ATOM      3  C   UNL     1      95.146  83.895  85.013  1.00  0.00     0.220 C 
ATOM      4  N   UNL     1      94.039  83.359  84.422  1.00  0.00    -0.352 N 
ATOM      5  H   UNL     1      94.176  83.056  83.469  1.00  0.00     0.163 HD
ATOM      6  O   UNL     1      95.103  84.336  86.188  1.00  0.00    -0.275 OA
BRANCH   4   7
ATOM      7  C   UNL     1      92.760  83.209  85.047  1.00  0.00     0.151 C 
BRANCH   7   8
ATOM      8  C   UNL     1      92.138  81.880  84.798  1.00  0.00    -0.025 A 
ATOM      9  C   UNL     1      90.228  80.532  84.032  1.00  0.00     0.160 A 
ATOM     10  C   UNL     1      90.961  79.350  84.278  1.00  0.00     0.157 A 
ATOM     11  C   UNL     1      90.814  81.785  84.311  1.00  0.00     0.056 A 
ATOM     12  C   UNL     1      92.265  79.431  84.799  1.00  0.00     0.050 A 
ATOM     13  C   UNL     1      92.855  80.685  85.047  1.00  0.00     0.009 A 
BRANCH   9  14
ATOM     14  O   UNL     1      88.945  80.464  83.563  1.00  0.00    -0.493 OA
ATOM     15  C   UNL     1      87.966  81.000  84.472  1.00  0.00     0.278 C 
ENDBRANCH   9  14
BRANCH  10  16
ATOM     16  O   UNL     1      90.421  78.130  84.020  1.00  0.00    -0.504 OA
ATOM     17  H   UNL     1      90.496  77.939  83.082  1.00  0.00     0.293 HD
ENDBRANCH  10  16
ENDBRANCH   7   8
ENDBRANCH   4   7
ENDBRANCH   2   3
ENDBRANCH   1   2
BRANCH   1  18
ATOM     18  C   UNL     1      97.247  82.449  82.344  1.00  0.00     0.001 C 
BRANCH  18  19
ATOM     19  C   UNL     1      97.081  82.023  80.858  1.00  0.00     0.000 C 
BRANCH  19  20
ATOM     20  C   UNL     1      97.298  83.222  79.892  1.00  0.00     0.000 C 
BRANCH  20  21
ATOM     21  C   UNL     1      98.197  82.897  78.666  1.00  0.00     0.003 C 
BRANCH  21  22
ATOM     22  C   UNL     1      97.521  83.149  77.279  1.00  0.00    -0.017 C 
ATOM     23  C   UNL     1      98.559  83.698  76.260  1.00  0.00     0.007 C 
ATOM     24  C   UNL     1      96.278  84.085  77.350  1.00  0.00     0.007 C 
ENDBRANCH  21  22
ENDBRANCH  20  21
ENDBRANCH  19  20
ENDBRANCH  18  19
ENDBRANCH   1  18
TORSDOF 11
ENDMDL
MODEL 2
REMARK VINA RESULT:    -6.009     13.764     16.507
REMARK INTER + INTRA:         -10.337
REMARK INTER:                  -9.559
REMARK INTRA:                  -0.778
REMARK UNBOUND:                -0.639
REMARK SMILES COc1cc(CNC(=O)CCCCCCC(C)C)ccc1O
REMARK SMILES IDX 11 1 10 2 8 3 7 4 9 6 6 7 5 8 3 9 21 10 4 11 20 12 19 13
REMARK SMILES IDX 2 14 1 15 22 16 12 18 13 19 14 20 15 21 16 22 17 23 18 24
REMARK H PARENT 7 5 22 17
REMARK Flexibility Score: inf
ROOT
ATOM      1  C   UNL     1      93.769  95.839  75.188  1.00  0.00     0.010 C 
ENDROOT
BRANCH   1   2
ATOM      2  C   UNL     1      93.705  97.222  75.893  1.00  0.00     0.100 C 
BRANCH   2   3
ATOM      3  C   UNL     1      94.988  97.624  76.511  1.00  0.00     0.220 C 
ATOM      4  N   UNL     1      95.508  96.907  77.548  1.00  0.00    -0.352 N 
ATOM      5  H   UNL     1      94.930  96.141  77.862  1.00  0.00     0.163 HD
ATOM      6  O   UNL     1      95.595  98.619  76.044  1.00  0.00    -0.275 OA
BRANCH   4   7
ATOM      7  C   UNL     1      96.764  97.165  78.184  1.00  0.00     0.151 C 
BRANCH   7   8
ATOM      8  C   UNL     1      96.625  97.618  79.596  1.00  0.00    -0.025 A 
ATOM      9  C   UNL     1      97.347  97.520  81.944  1.00  0.00     0.160 A 
ATOM     10  C   UNL     1      96.396  98.508  82.280  1.00  0.00     0.157 A 
ATOM     11  C   UNL     1      97.442  97.070  80.611  1.00  0.00     0.056 A 
ATOM     12  C   UNL     1      95.551  99.034  81.286  1.00  0.00     0.050 A 
ATOM     13  C   UNL     1      95.671  98.601  79.951  1.00  0.00     0.009 A 
BRANCH   9  14
ATOM     14  O   UNL     1      98.147  96.974  82.911  1.00  0.00    -0.493 OA
ATOM     15  C   UNL     1      98.097  95.537  82.962  1.00  0.00     0.278 C 
ENDBRANCH   9  14
BRANCH  10  16
ATOM     16  O   UNL     1      96.283  98.960  83.557  1.00  0.00    -0.504 OA
ATOM     17  H   UNL     1      95.641  98.423  84.029  1.00  0.00     0.293 HD
ENDBRANCH  10  16
ENDBRANCH   7   8
ENDBRANCH   4   7
ENDBRANCH   2   3
ENDBRANCH   1   2
BRANCH   1  18
ATOM     18  C   UNL     1      92.752  94.827  75.787  1.00  0.00     0.001 C 
BRANCH  18  19
ATOM     19  C   UNL     1      91.632  95.492  76.636  1.00  0.00     0.000 C 
BRANCH  19  20
ATOM     20  C   UNL     1      90.244  94.849  76.357  1.00  0.00     0.000 C 
BRANCH  20  21
ATOM     21  C   UNL     1      90.207  93.932  75.103  1.00  0.00     0.003 C 
BRANCH  21  22
ATOM     22  C   UNL     1      90.317  92.403  75.412  1.00  0.00    -0.017 C 
ATOM     23  C   UNL     1      89.707  91.568  74.251  1.00  0.00     0.007 C 
ATOM     24  C   UNL     1      89.680  91.993  76.772  1.00  0.00     0.007 C 
ENDBRANCH  21  22
ENDBRANCH  20  21
ENDBRANCH  19  20
ENDBRANCH  18  19
ENDBRANCH   1  18
TORSDOF 11
ENDMDL
MODEL 3
REMARK VINA RESULT:    -5.938      5.932      7.641
REMARK INTER + INTRA:         -10.222
REMARK INTER:                  -9.350
REMARK INTRA:                  -0.872
REMARK UNBOUND:                -0.639
REMARK SMILES COc1cc(CNC(=O)CCCCCCC(C)C)ccc1O
REMARK SMILES IDX 11 1 10 2 8 3 7 4 9 6 6 7 5 8 3 9 21 10 4 11 20 12 19 13
REMARK SMILES IDX 2 14 1 15 22 16 12 18 13 19 14 20 15 21 16 22 17 23 18 24
REMARK H PARENT 7 5 22 17
REMARK Flexibility Score: inf
ROOT
ATOM      1  C   UNL     1      91.075  77.454  83.935  1.00  0.00     0.010 C 
ENDROOT
BRANCH   1   2
ATOM      2  C   UNL     1      92.272  78.202  84.585  1.00  0.00     0.100 C 
BRANCH   2   3
ATOM      3  C   UNL     1      91.981  79.621  84.887  1.00  0.00     0.220 C 
ATOM      4  N   UNL     1      90.692  80.067  84.925  1.00  0.00    -0.352 N 
ATOM      5  H   UNL     1      89.999  79.372  84.691  1.00  0.00     0.163 HD
ATOM      6  O   UNL     1      92.940  80.393  85.131  1.00  0.00    -0.275 OA
BRANCH   4   7
ATOM      7  C   UNL     1      90.288  81.399  85.262  1.00  0.00     0.151 C 
BRANCH   7   8
ATOM      8  C   UNL     1      88.990  81.791  84.648  1.00  0.00    -0.025 A 
ATOM      9  C   UNL     1      87.108  83.364  84.470  1.00  0.00     0.160 A 
ATOM     10  C   UNL     1      86.538  82.570  83.451  1.00  0.00     0.157 A 
ATOM     11  C   UNL     1      88.318  82.959  85.073  1.00  0.00     0.056 A 
ATOM     12  C   UNL     1      87.178  81.384  83.047  1.00  0.00     0.050 A 
ATOM     13  C   UNL     1      88.401  81.002  83.632  1.00  0.00     0.009 A 
BRANCH   9  14
ATOM     14  O   UNL     1      86.473  84.498  84.898  1.00  0.00    -0.493 OA
ATOM     15  C   UNL     1      86.043  84.439  86.270  1.00  0.00     0.278 C 
ENDBRANCH   9  14
BRANCH  10  16
ATOM     16  O   UNL     1      85.373  82.934  82.854  1.00  0.00    -0.504 OA
ATOM     17  H   UNL     1      84.698  83.066  83.524  1.00  0.00     0.293 HD
ENDBRANCH  10  16
ENDBRANCH   7   8
ENDBRANCH   4   7
ENDBRANCH   2   3
ENDBRANCH   1   2
BRANCH   1  18
ATOM     18  C   UNL     1      91.325  75.923  83.833  1.00  0.00     0.001 C 
BRANCH  18  19
ATOM     19  C   UNL     1      91.794  75.457  82.426  1.00  0.00     0.000 C 
BRANCH  19  20
ATOM     20  C   UNL     1      93.344  75.481  82.302  1.00  0.00     0.000 C 
BRANCH  20  21
ATOM     21  C   UNL     1      94.093  75.079  83.603  1.00  0.00     0.003 C 
BRANCH  21  22
ATOM     22  C   UNL     1      93.875  73.595  84.046  1.00  0.00    -0.017 C 
ATOM     23  C   UNL     1      93.834  73.491  85.597  1.00  0.00     0.007 C 
ATOM     24  C   UNL     1      94.928  72.607  83.462  1.00  0.00     0.007 C 
ENDBRANCH  21  22
ENDBRANCH  20  21
ENDBRANCH  19  20
ENDBRANCH  18  19
ENDBRANCH   1  18
TORSDOF 11
ENDMDL
MODEL 4
REMARK VINA RESULT:    -5.752     23.037     25.808
REMARK INTER + INTRA:          -9.921
REMARK INTER:                  -8.523
REMARK INTRA:                  -1.399
REMARK UNBOUND:                -0.639
REMARK SMILES COc1cc(CNC(=O)CCCCCCC(C)C)ccc1O
REMARK SMILES IDX 11 1 10 2 8 3 7 4 9 6 6 7 5 8 3 9 21 10 4 11 20 12 19 13
REMARK SMILES IDX 2 14 1 15 22 16 12 18 13 19 14 20 15 21 16 22 17 23 18 24
REMARK H PARENT 7 5 22 17
REMARK Flexibility Score: inf
ROOT
ATOM      1  C   UNL     1      75.193  90.204  68.283  1.00  0.00     0.010 C 
ENDROOT
BRANCH   1   2
ATOM      2  C   UNL     1      74.862  89.446  69.598  1.00  0.00     0.100 C 
BRANCH   2   3
ATOM      3  C   UNL     1      73.409  89.287  69.831  1.00  0.00     0.220 C 
ATOM      4  N   UNL     1      72.584  88.911  68.812  1.00  0.00    -0.352 N 
ATOM      5  H   UNL     1      73.041  88.803  67.918  1.00  0.00     0.163 HD
ATOM      6  O   UNL     1      72.960  89.481  70.988  1.00  0.00    -0.275 OA
BRANCH   4   7
ATOM      7  C   UNL     1      71.178  88.670  68.932  1.00  0.00     0.151 C 
BRANCH   7   8
ATOM      8  C   UNL     1      70.830  87.223  68.952  1.00  0.00    -0.025 A 
ATOM      9  C   UNL     1      71.019  84.973  67.976  1.00  0.00     0.160 A 
ATOM     10  C   UNL     1      70.208  84.454  69.009  1.00  0.00     0.157 A 
ATOM     11  C   UNL     1      71.308  86.354  67.945  1.00  0.00     0.056 A 
ATOM     12  C   UNL     1      69.694  85.316  69.995  1.00  0.00     0.050 A 
ATOM     13  C   UNL     1      70.011  86.688  69.975  1.00  0.00     0.009 A 
BRANCH   9  14
ATOM     14  O   UNL     1      71.491  84.151  66.990  1.00  0.00    -0.493 OA
ATOM     15  C   UNL     1      70.651  84.103  65.822  1.00  0.00     0.278 C 
ENDBRANCH   9  14
BRANCH  10  16
ATOM     16  O   UNL     1      69.912  83.129  69.063  1.00  0.00    -0.504 OA
ATOM     17  H   UNL     1      70.625  82.660  69.503  1.00  0.00     0.293 HD
ENDBRANCH  10  16
ENDBRANCH   7   8
ENDBRANCH   4   7
ENDBRANCH   2   3
ENDBRANCH   1   2
BRANCH   1  18
ATOM     18  C   UNL     1      76.053  89.346  67.311  1.00  0.00     0.001 C 
BRANCH  18  19
ATOM     19  C   UNL     1      77.315  88.726  67.974  1.00  0.00     0.000 C 
BRANCH  19  20
ATOM     20  C   UNL     1      77.357  87.183  67.791  1.00  0.00     0.000 C 
BRANCH  20  21
ATOM     21  C   UNL     1      77.122  86.379  69.100  1.00  0.00     0.003 C 
BRANCH  21  22
ATOM     22  C   UNL     1      76.056  85.241  68.981  1.00  0.00    -0.017 C 
ATOM     23  C   UNL     1      74.689  85.822  68.521  1.00  0.00     0.007 C 
ATOM     24  C   UNL     1      75.883  84.408  70.285  1.00  0.00     0.007 C 
ENDBRANCH  21  22
ENDBRANCH  20  21
ENDBRANCH  19  20
ENDBRANCH  18  19
ENDBRANCH   1  18
TORSDOF 11
ENDMDL
MODEL 5
REMARK VINA RESULT:    -5.710     22.189     24.110
REMARK INTER + INTRA:          -9.854
REMARK INTER:                  -9.116
REMARK INTRA:                  -0.738
REMARK UNBOUND:                -0.639
REMARK SMILES COc1cc(CNC(=O)CCCCCCC(C)C)ccc1O
REMARK SMILES IDX 11 1 10 2 8 3 7 4 9 6 6 7 5 8 3 9 21 10 4 11 20 12 19 13
REMARK SMILES IDX 2 14 1 15 22 16 12 18 13 19 14 20 15 21 16 22 17 23 18 24
REMARK H PARENT 7 5 22 17
REMARK Flexibility Score: inf
ROOT
ATOM      1  C   UNL     1      74.294  92.919  71.786  1.00  0.00     0.010 C 
ENDROOT
BRANCH   1   2
ATOM      2  C   UNL     1      73.409  91.768  72.341  1.00  0.00     0.100 C 
BRANCH   2   3
ATOM      3  C   UNL     1      72.996  90.796  71.305  1.00  0.00     0.220 C 
ATOM      4  N   UNL     1      73.932  90.173  70.532  1.00  0.00    -0.352 N 
ATOM      5  H   UNL     1      74.883  90.467  70.703  1.00  0.00     0.163 HD
ATOM      6  O   UNL     1      71.774  90.541  71.172  1.00  0.00    -0.275 OA
BRANCH   4   7
ATOM      7  C   UNL     1      73.656  89.176  69.542  1.00  0.00     0.151 C 
BRANCH   7   8
ATOM      8  C   UNL     1      74.852  88.370  69.172  1.00  0.00    -0.025 A 
ATOM      9  C   UNL     1      75.917  86.183  68.813  1.00  0.00     0.160 A 
ATOM     10  C   UNL     1      77.113  86.826  68.426  1.00  0.00     0.157 A 
ATOM     11  C   UNL     1      74.804  86.958  69.200  1.00  0.00     0.056 A 
ATOM     12  C   UNL     1      77.185  88.231  68.432  1.00  0.00     0.050 A 
ATOM     13  C   UNL     1      76.061  88.999  68.791  1.00  0.00     0.009 A 
BRANCH   9  14
ATOM     14  O   UNL     1      75.849  84.816  68.849  1.00  0.00    -0.493 OA
ATOM     15  C   UNL     1      75.858  84.270  70.181  1.00  0.00     0.278 C 
ENDBRANCH   9  14
BRANCH  10  16
ATOM     16  O   UNL     1      78.202  86.105  68.049  1.00  0.00    -0.504 OA
ATOM     17  H   UNL     1      78.033  85.693  67.199  1.00  0.00     0.293 HD
ENDBRANCH  10  16
ENDBRANCH   7   8
ENDBRANCH   4   7
ENDBRANCH   2   3
ENDBRANCH   1   2
BRANCH   1  18
ATOM     18  C   UNL     1      75.350  93.399  72.821  1.00  0.00     0.001 C 
BRANCH  18  19
ATOM     19  C   UNL     1      74.779  93.598  74.253  1.00  0.00     0.000 C 
BRANCH  19  20
ATOM     20  C   UNL     1      75.913  93.727  75.309  1.00  0.00     0.000 C 
BRANCH  20  21
ATOM     21  C   UNL     1      77.347  93.603  74.722  1.00  0.00     0.003 C 
BRANCH  21  22
ATOM     22  C   UNL     1      78.326  94.744  75.152  1.00  0.00    -0.017 C 
ATOM     23  C   UNL     1      77.886  95.354  76.512  1.00  0.00     0.007 C 
ATOM     24  C   UNL     1      78.493  95.862  74.081  1.00  0.00     0.007 C 
ENDBRANCH  21  22
ENDBRANCH  20  21
ENDBRANCH  19  20
ENDBRANCH  18  19
ENDBRANCH   1  18
TORSDOF 11
ENDMDL
MODEL 6
REMARK VINA RESULT:    -5.656      5.900     11.105
REMARK INTER + INTRA:          -9.767
REMARK INTER:                  -9.288
REMARK INTRA:                  -0.479
REMARK UNBOUND:                -0.639
REMARK SMILES COc1cc(CNC(=O)CCCCCCC(C)C)ccc1O
REMARK SMILES IDX 11 1 10 2 8 3 7 4 9 6 6 7 5 8 3 9 21 10 4 11 20 12 19 13
REMARK SMILES IDX 2 14 1 15 22 16 12 18 13 19 14 20 15 21 16 22 17 23 18 24
REMARK H PARENT 7 5 22 17
REMARK Flexibility Score: inf
ROOT
ATOM      1  C   UNL     1      97.003  83.033  80.170  1.00  0.00     0.010 C 
ENDROOT
BRANCH   1   2
ATOM      2  C   UNL     1      97.903  83.121  78.907  1.00  0.00     0.100 C 
BRANCH   2   3
ATOM      3  C   UNL     1      97.227  83.747  77.749  1.00  0.00     0.220 C 
ATOM      4  N   UNL     1      97.922  84.008  76.604  1.00  0.00    -0.352 N 
ATOM      5  H   UNL     1      98.905  83.783  76.647  1.00  0.00     0.163 HD
ATOM      6  O   UNL     1      96.002  84.007  77.836  1.00  0.00    -0.275 OA
BRANCH   4   7
ATOM      7  C   UNL     1      97.362  84.555  75.405  1.00  0.00     0.151 C 
BRANCH   7   8
ATOM      8  C   UNL     1      98.244  84.389  74.217  1.00  0.00    -0.025 A 
ATOM      9  C   UNL     1      99.027  83.036  72.318  1.00  0.00     0.160 A 
ATOM     10  C   UNL     1      99.890  84.082  71.926  1.00  0.00     0.157 A 
ATOM     11  C   UNL     1      98.226  83.190  73.469  1.00  0.00     0.056 A 
ATOM     12  C   UNL     1      99.947  85.265  72.684  1.00  0.00     0.050 A 
ATOM     13  C   UNL     1      99.123  85.423  73.816  1.00  0.00     0.009 A 
BRANCH   9  14
ATOM     14  O   UNL     1      98.993  81.865  71.610  1.00  0.00    -0.493 OA
ATOM     15  C   UNL     1      99.621  80.761  72.286  1.00  0.00     0.278 C 
ENDBRANCH   9  14
BRANCH  10  16
ATOM     16  O   UNL     1     100.675  83.960  70.823  1.00  0.00    -0.504 OA
ATOM     17  H   UNL     1     101.558  83.692  71.087  1.00  0.00     0.293 HD
ENDBRANCH  10  16
ENDBRANCH   7   8
ENDBRANCH   4   7
ENDBRANCH   2   3
ENDBRANCH   1   2
BRANCH   1  18
ATOM     18  C   UNL     1      97.660  82.195  81.303  1.00  0.00     0.001 C 
BRANCH  18  19
ATOM     19  C   UNL     1      96.723  81.109  81.903  1.00  0.00     0.000 C 
BRANCH  19  20
ATOM     20  C   UNL     1      96.227  81.503  83.323  1.00  0.00     0.000 C 
BRANCH  20  21
ATOM     21  C   UNL     1      95.594  82.920  83.406  1.00  0.00     0.003 C 
BRANCH  21  22
ATOM     22  C   UNL     1      94.444  83.058  84.456  1.00  0.00    -0.017 C 
ATOM     23  C   UNL     1      95.012  82.966  85.900  1.00  0.00     0.007 C 
ATOM     24  C   UNL     1      93.291  82.030  84.258  1.00  0.00     0.007 C 
ENDBRANCH  21  22
ENDBRANCH  20  21
ENDBRANCH  19  20
ENDBRANCH  18  19
ENDBRANCH   1  18
TORSDOF 11
ENDMDL
MODEL 7
REMARK VINA RESULT:    -5.575      4.453      9.450
REMARK INTER + INTRA:          -9.635
REMARK INTER:                  -9.023
REMARK INTRA:                  -0.613
REMARK UNBOUND:                -0.639
REMARK SMILES COc1cc(CNC(=O)CCCCCCC(C)C)ccc1O
REMARK SMILES IDX 11 1 10 2 8 3 7 4 9 6 6 7 5 8 3 9 21 10 4 11 20 12 19 13
REMARK SMILES IDX 2 14 1 15 22 16 12 18 13 19 14 20 15 21 16 22 17 23 18 24
REMARK H PARENT 7 5 22 17
REMARK Flexibility Score: inf
ROOT
ATOM      1  C   UNL     1      96.466  81.200  82.542  1.00  0.00     0.010 C 
ENDROOT
BRANCH   1   2
ATOM      2  C   UNL     1      97.908  81.530  82.068  1.00  0.00     0.100 C 
BRANCH   2   3
ATOM      3  C   UNL     1      98.136  81.232  80.636  1.00  0.00     0.220 C 
ATOM      4  N   UNL     1      98.844  82.099  79.856  1.00  0.00    -0.352 N 
ATOM      5  H   UNL     1      99.140  82.942  80.325  1.00  0.00     0.163 HD
ATOM      6  O   UNL     1      97.686  80.158  80.166  1.00  0.00    -0.275 OA
BRANCH   4   7
ATOM      7  C   UNL     1      99.176  81.889  78.479  1.00  0.00     0.151 C 
BRANCH   7   8
ATOM      8  C   UNL     1      98.373  82.729  77.549  1.00  0.00    -0.025 A 
ATOM      9  C   UNL     1      97.952  83.593  75.284  1.00  0.00     0.160 A 
ATOM     10  C   UNL     1      96.822  84.293  75.759  1.00  0.00     0.157 A 
ATOM     11  C   UNL     1      98.729  82.833  76.185  1.00  0.00     0.056 A 
ATOM     12  C   UNL     1      96.481  84.230  77.122  1.00  0.00     0.050 A 
ATOM     13  C   UNL     1      97.243  83.445  78.010  1.00  0.00     0.009 A 
BRANCH   9  14
ATOM     14  O   UNL     1      98.316  83.679  73.968  1.00  0.00    -0.493 OA
ATOM     15  C   UNL     1      99.331  82.734  73.584  1.00  0.00     0.278 C 
ENDBRANCH   9  14
BRANCH  10  16
ATOM     16  O   UNL     1      96.057  85.034  74.915  1.00  0.00    -0.504 OA
ATOM     17  H   UNL     1      95.498  84.451  74.396  1.00  0.00     0.293 HD
ENDBRANCH  10  16
ENDBRANCH   7   8
ENDBRANCH   4   7
ENDBRANCH   2   3
ENDBRANCH   1   2
BRANCH   1  18
ATOM     18  C   UNL     1      96.451  80.158  83.697  1.00  0.00     0.001 C 
BRANCH  18  19
ATOM     19  C   UNL     1      95.028  79.653  84.068  1.00  0.00     0.000 C 
BRANCH  19  20
ATOM     20  C   UNL     1      94.289  80.657  84.997  1.00  0.00     0.000 C 
BRANCH  20  21
ATOM     21  C   UNL     1      93.141  81.441  84.303  1.00  0.00     0.003 C 
BRANCH  21  22
ATOM     22  C   UNL     1      91.703  81.016  84.747  1.00  0.00    -0.017 C 
ATOM     23  C   UNL     1      91.395  79.566  84.278  1.00  0.00     0.007 C 
ATOM     24  C   UNL     1      90.587  81.992  84.269  1.00  0.00     0.007 C 
ENDBRANCH  21  22
ENDBRANCH  20  21
ENDBRANCH  19  20
ENDBRANCH  18  19
ENDBRANCH   1  18
TORSDOF 11
ENDMDL
MODEL 8
REMARK VINA RESULT:    -5.485      4.946     10.223
REMARK INTER + INTRA:          -9.491
REMARK INTER:                  -8.855
REMARK INTRA:                  -0.637
REMARK UNBOUND:                -0.639
REMARK SMILES COc1cc(CNC(=O)CCCCCCC(C)C)ccc1O
REMARK SMILES IDX 11 1 10 2 8 3 7 4 9 6 6 7 5 8 3 9 21 10 4 11 20 12 19 13
REMARK SMILES IDX 2 14 1 15 22 16 12 18 13 19 14 20 15 21 16 22 17 23 18 24
REMARK H PARENT 7 5 22 17
REMARK Flexibility Score: inf
ROOT
ATOM      1  C   UNL     1      97.062  81.836  81.490  1.00  0.00     0.010 C 
ENDROOT
BRANCH   1   2
ATOM      2  C   UNL     1      97.447  81.609  80.002  1.00  0.00     0.100 C 
BRANCH   2   3
ATOM      3  C   UNL     1      97.418  82.849  79.195  1.00  0.00     0.220 C 
ATOM      4  N   UNL     1      96.869  82.845  77.946  1.00  0.00    -0.352 N 
ATOM      5  H   UNL     1      96.544  81.942  77.631  1.00  0.00     0.163 HD
ATOM      6  O   UNL     1      97.885  83.902  79.692  1.00  0.00    -0.275 OA
BRANCH   4   7
ATOM      7  C   UNL     1      96.733  83.991  77.099  1.00  0.00     0.151 C 
BRANCH   7   8
ATOM      8  C   UNL     1      97.611  83.941  75.898  1.00  0.00    -0.025 A 
ATOM      9  C   UNL     1      99.785  83.428  74.869  1.00  0.00     0.160 A 
ATOM     10  C   UNL     1      99.277  83.800  73.606  1.00  0.00     0.157 A 
ATOM     11  C   UNL     1      98.955  83.519  76.007  1.00  0.00     0.056 A 
ATOM     12  C   UNL     1      97.952  84.259  73.491  1.00  0.00     0.050 A 
ATOM     13  C   UNL     1      97.121  84.319  74.626  1.00  0.00     0.009 A 
BRANCH   9  14
ATOM     14  O   UNL     1     101.084  83.018  74.999  1.00  0.00    -0.493 OA
ATOM     15  C   UNL     1     101.331  82.239  76.183  1.00  0.00     0.278 C 
ENDBRANCH   9  14
BRANCH  10  16
ATOM     16  O   UNL     1     100.054  83.725  72.493  1.00  0.00    -0.504 OA
ATOM     17  H   UNL     1     100.123  82.809  72.214  1.00  0.00     0.293 HD
ENDBRANCH  10  16
ENDBRANCH   7   8
ENDBRANCH   4   7
ENDBRANCH   2   3
ENDBRANCH   1   2
BRANCH   1  18
ATOM     18  C   UNL     1      97.058  80.511  82.305  1.00  0.00     0.001 C 
BRANCH  18  19
ATOM     19  C   UNL     1      95.842  80.368  83.262  1.00  0.00     0.000 C 
BRANCH  19  20
ATOM     20  C   UNL     1      95.709  81.597  84.205  1.00  0.00     0.000 C 
BRANCH  20  21
ATOM     21  C   UNL     1      94.482  82.502  83.904  1.00  0.00     0.003 C 
BRANCH  21  22
ATOM     22  C   UNL     1      93.329  82.405  84.956  1.00  0.00    -0.017 C 
ATOM     23  C   UNL     1      93.764  81.524  86.160  1.00  0.00     0.007 C 
ATOM     24  C   UNL     1      91.983  81.892  84.364  1.00  0.00     0.007 C 
ENDBRANCH  21  22
ENDBRANCH  20  21
ENDBRANCH  19  20
ENDBRANCH  18  19
ENDBRANCH   1  18
TORSDOF 11
ENDMDL
MODEL 9
REMARK VINA RESULT:    -5.444     13.260     14.729
REMARK INTER + INTRA:          -9.424
REMARK INTER:                  -8.800
REMARK INTRA:                  -0.624
REMARK UNBOUND:                -0.639
REMARK SMILES COc1cc(CNC(=O)CCCCCCC(C)C)ccc1O
REMARK SMILES IDX 11 1 10 2 8 3 7 4 9 6 6 7 5 8 3 9 21 10 4 11 20 12 19 13
REMARK SMILES IDX 2 14 1 15 22 16 12 18 13 19 14 20 15 21 16 22 17 23 18 24
REMARK H PARENT 7 5 22 17
REMARK Flexibility Score: inf
ROOT
ATOM      1  C   UNL     1      95.493  95.180  79.284  1.00  0.00     0.010 C 
ENDROOT
BRANCH   1   2
ATOM      2  C   UNL     1      95.430  96.398  78.322  1.00  0.00     0.100 C 
BRANCH   2   3
ATOM      3  C   UNL     1      94.450  96.228  77.226  1.00  0.00     0.220 C 
ATOM      4  N   UNL     1      93.119  96.424  77.455  1.00  0.00    -0.352 N 
ATOM      5  H   UNL     1      92.884  96.641  78.413  1.00  0.00     0.163 HD
ATOM      6  O   UNL     1      94.872  95.926  76.083  1.00  0.00    -0.275 OA
BRANCH   4   7
ATOM      7  C   UNL     1      92.090  96.346  76.464  1.00  0.00     0.151 C 
BRANCH   7   8
ATOM      8  C   UNL     1      91.343  95.058  76.494  1.00  0.00    -0.025 A 
ATOM      9  C   UNL     1      90.250  93.202  75.307  1.00  0.00     0.160 A 
ATOM     10  C   UNL     1      89.959  92.581  76.541  1.00  0.00     0.157 A 
ATOM     11  C   UNL     1      90.922  94.443  75.293  1.00  0.00     0.056 A 
ATOM     12  C   UNL     1      90.339  93.202  77.744  1.00  0.00     0.050 A 
ATOM     13  C   UNL     1      91.036  94.427  77.722  1.00  0.00     0.009 A 
BRANCH   9  14
ATOM     14  O   UNL     1      89.850  92.625  74.132  1.00  0.00    -0.493 OA
ATOM     15  C   UNL     1      90.708  91.559  73.688  1.00  0.00     0.278 C 
ENDBRANCH   9  14
BRANCH  10  16
ATOM     16  O   UNL     1      89.312  91.387  76.584  1.00  0.00    -0.504 OA
ATOM     17  H   UNL     1      88.786  91.280  75.789  1.00  0.00     0.293 HD
ENDBRANCH  10  16
ENDBRANCH   7   8
ENDBRANCH   4   7
ENDBRANCH   2   3
ENDBRANCH   1   2
BRANCH   1  18
ATOM     18  C   UNL     1      96.301  95.493  80.576  1.00  0.00     0.001 C 
BRANCH  18  19
ATOM     19  C   UNL     1      97.012  96.875  80.550  1.00  0.00     0.000 C 
BRANCH  19  20
ATOM     20  C   UNL     1      98.557  96.724  80.647  1.00  0.00     0.000 C 
BRANCH  20  21
ATOM     21  C   UNL     1      99.295  96.843  79.284  1.00  0.00     0.003 C 
BRANCH  21  22
ATOM     22  C   UNL     1     100.853  96.746  79.378  1.00  0.00    -0.017 C 
ATOM     23  C   UNL     1     101.496  98.153  79.219  1.00  0.00     0.007 C 
ATOM     24  C   UNL     1     101.479  95.743  78.366  1.00  0.00     0.007 C 
ENDBRANCH  21  22
ENDBRANCH  20  21
ENDBRANCH  19  20
ENDBRANCH  18  19
ENDBRANCH   1  18
TORSDOF 11
ENDMDL
MODEL 10
REMARK VINA RESULT:    -5.443     17.001     20.154
REMARK INTER + INTRA:          -9.423
REMARK INTER:                  -8.680
REMARK INTRA:                  -0.743
REMARK UNBOUND:                -0.639
REMARK SMILES COc1cc(CNC(=O)CCCCCCC(C)C)ccc1O
REMARK SMILES IDX 11 1 10 2 8 3 7 4 9 6 6 7 5 8 3 9 21 10 4 11 20 12 19 13
REMARK SMILES IDX 2 14 1 15 22 16 12 18 13 19 14 20 15 21 16 22 17 23 18 24
REMARK H PARENT 7 5 22 17
REMARK Flexibility Score: inf
ROOT
ATOM      1  C   UNL     1      94.665  97.907  75.766  1.00  0.00     0.010 C 
ENDROOT
BRANCH   1   2
ATOM      2  C   UNL     1      94.585  97.440  74.286  1.00  0.00     0.100 C 
BRANCH   2   3
ATOM      3  C   UNL     1      94.468  98.559  73.325  1.00  0.00     0.220 C 
ATOM      4  N   UNL     1      93.443  98.590  72.425  1.00  0.00    -0.352 N 
ATOM      5  H   UNL     1      92.833  97.786  72.453  1.00  0.00     0.163 HD
ATOM      6  O   UNL     1      95.314  99.485  73.374  1.00  0.00    -0.275 OA
BRANCH   4   7
ATOM      7  C   UNL     1      93.196  99.645  71.490  1.00  0.00     0.151 C 
BRANCH   7   8
ATOM      8  C   UNL     1      92.143 100.596  71.943  1.00  0.00    -0.025 A 
ATOM      9  C   UNL     1      89.869 101.510  71.739  1.00  0.00     0.160 A 
ATOM     10  C   UNL     1      90.116 102.373  72.829  1.00  0.00     0.157 A 
ATOM     11  C   UNL     1      90.889 100.643  71.293  1.00  0.00     0.056 A 
ATOM     12  C   UNL     1      91.374 102.363  73.459  1.00  0.00     0.050 A 
ATOM     13  C   UNL     1      92.377 101.474  73.027  1.00  0.00     0.009 A 
BRANCH   9  14
ATOM     14  O   UNL     1      88.663 101.540  71.094  1.00  0.00    -0.493 OA
ATOM     15  C   UNL     1      88.724 101.091  69.728  1.00  0.00     0.278 C 
ENDBRANCH   9  14
BRANCH  10  16
ATOM     16  O   UNL     1      89.153 103.220  73.278  1.00  0.00    -0.504 OA
ATOM     17  H   UNL     1      89.562 104.030  73.595  1.00  0.00     0.293 HD
ENDBRANCH  10  16
ENDBRANCH   7   8
ENDBRANCH   4   7
ENDBRANCH   2   3
ENDBRANCH   1   2
BRANCH   1  18
ATOM     18  C   UNL     1      95.002  96.737  76.733  1.00  0.00     0.001 C 
BRANCH  18  19
ATOM     19  C   UNL     1      94.053  96.646  77.961  1.00  0.00     0.000 C 
BRANCH  19  20
ATOM     20  C   UNL     1      93.144  95.386  77.890  1.00  0.00     0.000 C 
BRANCH  20  21
ATOM     21  C   UNL     1      91.846  95.583  77.059  1.00  0.00     0.003 C 
BRANCH  21  22
ATOM     22  C   UNL     1      91.111  94.257  76.678  1.00  0.00    -0.017 C 
ATOM     23  C   UNL     1      90.192  94.480  75.444  1.00  0.00     0.007 C 
ATOM     24  C   UNL     1      90.304  93.629  77.852  1.00  0.00     0.007 C 
ENDBRANCH  21  22
ENDBRANCH  20  21
ENDBRANCH  19  20
ENDBRANCH  18  19
ENDBRANCH   1  18
TORSDOF 11
ENDMDL
