MODEL 1
REMARK VINA RESULT:    -5.791      0.000      0.000
REMARK INTER + INTRA:         -10.180
REMARK INTER:                  -9.345
REMARK INTRA:                  -0.835
REMARK UNBOUND:                -0.835
REMARK SMILES CCCCCCCCC(=O)NCc1ccc(O)c(OC)c1
REMARK SMILES IDX 7 1 6 2 5 3 4 4 3 5 2 6 1 7 8 8 9 9 10 10 11 11 12 13 13 14
REMARK SMILES IDX 21 15 14 16 18 17 15 18 16 19 19 20 20 21 17 22
REMARK H PARENT 11 12 17 23
REMARK Flexibility Score: inf
ROOT
ATOM      1  C   UNL     1      96.804  81.718  77.880  1.00  0.00     0.010 C 
ENDROOT
BRANCH   1   2
ATOM      2  C   UNL     1      97.501  82.041  79.233  1.00  0.00     0.001 C 
BRANCH   2   3
ATOM      3  C   UNL     1      97.987  80.756  79.967  1.00  0.00     0.000 C 
BRANCH   3   4
ATOM      4  C   UNL     1      97.893  80.845  81.517  1.00  0.00    -0.000 C 
BRANCH   4   5
ATOM      5  C   UNL     1      96.488  80.451  82.056  1.00  0.00    -0.000 C 
BRANCH   5   6
ATOM      6  C   UNL     1      95.900  81.518  83.019  1.00  0.00    -0.003 C 
ATOM      7  C   UNL     1      96.267  82.962  82.612  1.00  0.00     0.004 C 
ENDBRANCH   5   6
ENDBRANCH   4   5
ENDBRANCH   3   4
ENDBRANCH   2   3
ENDBRANCH   1   2
BRANCH   1   8
ATOM      8  C   UNL     1      95.794  82.805  77.417  1.00  0.00     0.100 C 
BRANCH   8   9
ATOM      9  C   UNL     1      96.015  83.178  75.999  1.00  0.00     0.220 C 
ATOM     10  O   UNL     1      95.605  84.297  75.608  1.00  0.00    -0.275 OA
ATOM     11  N   UNL     1      96.674  82.333  75.154  1.00  0.00    -0.352 N 
ATOM     12  H   UNL     1      96.882  81.427  75.548  1.00  0.00     0.163 HD
BRANCH  11  13
ATOM     13  C   UNL     1      97.071  82.634  73.812  1.00  0.00     0.151 C 
BRANCH  13  14
ATOM     14  C   UNL     1      98.535  82.843  73.651  1.00  0.00    -0.025 A 
ATOM     15  C   UNL     1      99.452  81.936  74.232  1.00  0.00     0.056 A 
ATOM     16  C   UNL     1      99.035  83.946  72.922  1.00  0.00     0.009 A 
ATOM     17  C   UNL     1     100.846  82.112  74.073  1.00  0.00     0.160 A 
ATOM     18  C   UNL     1     100.420  84.126  72.758  1.00  0.00     0.050 A 
ATOM     19  C   UNL     1     101.327  83.218  73.337  1.00  0.00     0.157 A 
BRANCH  17  20
ATOM     20  O   UNL     1     101.734  81.255  74.673  1.00  0.00    -0.493 OA
ATOM     21  C   UNL     1     101.143  80.387  75.656  1.00  0.00     0.278 C 
ENDBRANCH  17  20
BRANCH  19  22
ATOM     22  O   UNL     1     102.663  83.416  73.197  1.00  0.00    -0.504 OA
ATOM     23  H   UNL     1     103.139  82.688  73.604  1.00  0.00     0.293 HD
ENDBRANCH  19  22
ENDBRANCH  13  14
ENDBRANCH  11  13
ENDBRANCH   8   9
ENDBRANCH   1   8
TORSDOF 11
ENDMDL
MODEL 2
REMARK VINA RESULT:    -5.758     19.333     22.167
REMARK INTER + INTRA:         -10.127
REMARK INTER:                  -8.252
REMARK INTRA:                  -1.875
REMARK UNBOUND:                -0.835
REMARK SMILES CCCCCCCCC(=O)NCc1ccc(O)c(OC)c1
REMARK SMILES IDX 7 1 6 2 5 3 4 4 3 5 2 6 1 7 8 8 9 9 10 10 11 11 12 13 13 14
REMARK SMILES IDX 21 15 14 16 18 17 15 18 16 19 19 20 20 21 17 22
REMARK H PARENT 11 12 17 23
REMARK Flexibility Score: inf
ROOT
ATOM      1  C   UNL     1      87.310 101.220  66.720  1.00  0.00     0.010 C 
ENDROOT
BRANCH   1   2
ATOM      2  C   UNL     1      88.605 102.021  66.400  1.00  0.00     0.001 C 
BRANCH   2   3
ATOM      3  C   UNL     1      89.441 102.325  67.679  1.00  0.00     0.000 C 
BRANCH   3   4
ATOM      4  C   UNL     1      90.968 102.447  67.414  1.00  0.00    -0.000 C 
BRANCH   4   5
ATOM      5  C   UNL     1      91.556 101.196  66.701  1.00  0.00    -0.000 C 
BRANCH   5   6
ATOM      6  C   UNL     1      92.023 101.501  65.252  1.00  0.00    -0.003 C 
ATOM      7  C   UNL     1      92.137 103.014  64.964  1.00  0.00     0.004 C 
ENDBRANCH   5   6
ENDBRANCH   4   5
ENDBRANCH   3   4
ENDBRANCH   2   3
ENDBRANCH   1   2
BRANCH   1   8
ATOM      8  C   UNL     1      87.360  99.735  66.265  1.00  0.00     0.100 C 
BRANCH   8   9
ATOM      9  C   UNL     1      88.453  98.999  66.945  1.00  0.00     0.220 C 
ATOM     10  O   UNL     1      89.426  98.608  66.256  1.00  0.00    -0.275 OA
ATOM     11  N   UNL     1      88.410  98.781  68.292  1.00  0.00    -0.352 N 
ATOM     12  H   UNL     1      87.546  99.060  68.733  1.00  0.00     0.163 HD
BRANCH  11  13
ATOM     13  C   UNL     1      89.461  98.213  69.081  1.00  0.00     0.151 C 
BRANCH  13  14
ATOM     14  C   UNL     1      90.257  99.218  69.835  1.00  0.00    -0.025 A 
ATOM     15  C   UNL     1      91.668  99.241  69.717  1.00  0.00     0.056 A 
ATOM     16  C   UNL     1      89.627 100.160  70.680  1.00  0.00     0.009 A 
ATOM     17  C   UNL     1      92.437 100.202  70.414  1.00  0.00     0.160 A 
ATOM     18  C   UNL     1      90.386 101.118  71.375  1.00  0.00     0.050 A 
ATOM     19  C   UNL     1      91.789 101.138  71.251  1.00  0.00     0.157 A 
BRANCH  17  20
ATOM     20  O   UNL     1      93.807 100.196  70.332  1.00  0.00    -0.493 OA
ATOM     21  C   UNL     1      94.434  99.111  71.037  1.00  0.00     0.278 C 
ENDBRANCH  17  20
BRANCH  19  22
ATOM     22  O   UNL     1      92.515 102.049  71.948  1.00  0.00    -0.504 OA
ATOM     23  H   UNL     1      93.449 101.924  71.761  1.00  0.00     0.293 HD
ENDBRANCH  19  22
ENDBRANCH  13  14
ENDBRANCH  11  13
ENDBRANCH   8   9
ENDBRANCH   1   8
TORSDOF 11
ENDMDL
MODEL 3
REMARK VINA RESULT:    -5.656      0.884      2.100
REMARK INTER + INTRA:          -9.963
REMARK INTER:                  -9.246
REMARK INTRA:                  -0.717
REMARK UNBOUND:                -0.835
REMARK SMILES CCCCCCCCC(=O)NCc1ccc(O)c(OC)c1
REMARK SMILES IDX 7 1 6 2 5 3 4 4 3 5 2 6 1 7 8 8 9 9 10 10 11 11 12 13 13 14
REMARK SMILES IDX 21 15 14 16 18 17 15 18 16 19 19 20 20 21 17 22
REMARK H PARENT 11 12 17 23
REMARK Flexibility Score: inf
ROOT
ATOM      1  C   UNL     1      97.228  81.928  77.923  1.00  0.00     0.010 C 
ENDROOT
BRANCH   1   2
ATOM      2  C   UNL     1      97.307  82.082  79.469  1.00  0.00     0.001 C 
BRANCH   2   3
ATOM      3  C   UNL     1      97.409  80.707  80.193  1.00  0.00     0.000 C 
BRANCH   3   4
ATOM      4  C   UNL     1      97.596  80.822  81.733  1.00  0.00    -0.000 C 
BRANCH   4   5
ATOM      5  C   UNL     1      96.272  80.596  82.517  1.00  0.00    -0.000 C 
BRANCH   5   6
ATOM      6  C   UNL     1      95.709  81.908  83.127  1.00  0.00    -0.003 C 
ATOM      7  C   UNL     1      96.694  83.093  83.014  1.00  0.00     0.004 C 
ENDBRANCH   5   6
ENDBRANCH   4   5
ENDBRANCH   3   4
ENDBRANCH   2   3
ENDBRANCH   1   2
BRANCH   1   8
ATOM      8  C   UNL     1      95.914  82.480  77.302  1.00  0.00     0.100 C 
BRANCH   8   9
ATOM      9  C   UNL     1      96.145  83.015  75.938  1.00  0.00     0.220 C 
ATOM     10  O   UNL     1      95.555  84.070  75.605  1.00  0.00    -0.275 OA
ATOM     11  N   UNL     1      97.003  82.385  75.082  1.00  0.00    -0.352 N 
ATOM     12  H   UNL     1      97.355  81.501  75.419  1.00  0.00     0.163 HD
BRANCH  11  13
ATOM     13  C   UNL     1      97.415  82.875  73.802  1.00  0.00     0.151 C 
BRANCH  13  14
ATOM     14  C   UNL     1      98.889  82.862  73.600  1.00  0.00    -0.025 A 
ATOM     15  C   UNL     1      99.496  83.796  72.727  1.00  0.00     0.056 A 
ATOM     16  C   UNL     1      99.706  81.921  74.268  1.00  0.00     0.009 A 
ATOM     17  C   UNL     1     100.897  83.807  72.538  1.00  0.00     0.160 A 
ATOM     18  C   UNL     1     101.100  81.927  74.085  1.00  0.00     0.050 A 
ATOM     19  C   UNL     1     101.698  82.861  73.217  1.00  0.00     0.157 A 
BRANCH  17  20
ATOM     20  O   UNL     1     101.479  84.685  71.659  1.00  0.00    -0.493 OA
ATOM     21  C   UNL     1     101.380  84.291  70.279  1.00  0.00     0.278 C 
ENDBRANCH  17  20
BRANCH  19  22
ATOM     22  O   UNL     1     103.042  82.841  73.026  1.00  0.00    -0.504 OA
ATOM     23  H   UNL     1     103.288  82.035  72.566  1.00  0.00     0.293 HD
ENDBRANCH  19  22
ENDBRANCH  13  14
ENDBRANCH  11  13
ENDBRANCH   8   9
ENDBRANCH   1   8
TORSDOF 11
ENDMDL
MODEL 4
REMARK VINA RESULT:    -5.599      2.449      4.707
REMARK INTER + INTRA:          -9.870
REMARK INTER:                  -9.034
REMARK INTRA:                  -0.837
REMARK UNBOUND:                -0.835
REMARK SMILES CCCCCCCCC(=O)NCc1ccc(O)c(OC)c1
REMARK SMILES IDX 7 1 6 2 5 3 4 4 3 5 2 6 1 7 8 8 9 9 10 10 11 11 12 13 13 14
REMARK SMILES IDX 21 15 14 16 18 17 15 18 16 19 19 20 20 21 17 22
REMARK H PARENT 11 12 17 23
REMARK Flexibility Score: inf
ROOT
ATOM      1  C   UNL     1      97.699  81.015  81.843  1.00  0.00     0.010 C 
ENDROOT
BRANCH   1   2
ATOM      2  C   UNL     1      96.624  82.092  81.518  1.00  0.00     0.001 C 
BRANCH   2   3
ATOM      3  C   UNL     1      95.964  82.673  82.803  1.00  0.00     0.000 C 
BRANCH   3   4
ATOM      4  C   UNL     1      96.627  82.185  84.123  1.00  0.00    -0.000 C 
BRANCH   4   5
ATOM      5  C   UNL     1      95.619  81.483  85.077  1.00  0.00    -0.000 C 
BRANCH   5   6
ATOM      6  C   UNL     1      94.236  82.188  85.105  1.00  0.00    -0.003 C 
ATOM      7  C   UNL     1      93.061  81.211  84.876  1.00  0.00     0.004 C 
ENDBRANCH   5   6
ENDBRANCH   4   5
ENDBRANCH   3   4
ENDBRANCH   2   3
ENDBRANCH   1   2
BRANCH   1   8
ATOM      8  C   UNL     1      97.374  79.608  81.269  1.00  0.00     0.100 C 
BRANCH   8   9
ATOM      9  C   UNL     1      97.778  79.499  79.846  1.00  0.00     0.220 C 
ATOM     10  O   UNL     1      97.421  78.483  79.202  1.00  0.00    -0.275 OA
ATOM     11  N   UNL     1      98.496  80.496  79.250  1.00  0.00    -0.352 N 
ATOM     12  H   UNL     1      98.804  81.223  79.880  1.00  0.00     0.163 HD
BRANCH  11  13
ATOM     13  C   UNL     1      98.823  80.574  77.859  1.00  0.00     0.151 C 
BRANCH  13  14
ATOM     14  C   UNL     1      97.947  81.495  77.087  1.00  0.00    -0.025 A 
ATOM     15  C   UNL     1      98.357  81.972  75.819  1.00  0.00     0.056 A 
ATOM     16  C   UNL     1      96.698  81.912  77.601  1.00  0.00     0.009 A 
ATOM     17  C   UNL     1      97.527  82.834  75.066  1.00  0.00     0.160 A 
ATOM     18  C   UNL     1      95.867  82.768  76.856  1.00  0.00     0.050 A 
ATOM     19  C   UNL     1      96.280  83.237  75.594  1.00  0.00     0.157 A 
BRANCH  17  20
ATOM     20  O   UNL     1      97.945  83.329  73.856  1.00  0.00    -0.493 OA
ATOM     21  C   UNL     1      98.612  82.364  73.023  1.00  0.00     0.278 C 
ENDBRANCH  17  20
BRANCH  19  22
ATOM     22  O   UNL     1      95.484  84.085  74.895  1.00  0.00    -0.504 OA
ATOM     23  H   UNL     1      95.935  84.359  74.093  1.00  0.00     0.293 HD
ENDBRANCH  19  22
ENDBRANCH  13  14
ENDBRANCH  11  13
ENDBRANCH   8   9
ENDBRANCH   1   8
TORSDOF 11
ENDMDL
MODEL 5
REMARK VINA RESULT:    -5.561     23.709     26.709
REMARK INTER + INTRA:          -9.810
REMARK INTER:                  -8.514
REMARK INTRA:                  -1.296
REMARK UNBOUND:                -0.835
REMARK SMILES CCCCCCCCC(=O)NCc1ccc(O)c(OC)c1
REMARK SMILES IDX 7 1 6 2 5 3 4 4 3 5 2 6 1 7 8 8 9 9 10 10 11 11 12 13 13 14
REMARK SMILES IDX 21 15 14 16 18 17 15 18 16 19 19 20 20 21 17 22
REMARK H PARENT 11 12 17 23
REMARK Flexibility Score: inf
ROOT
ATOM      1  C   UNL     1      76.192  86.292  67.872  1.00  0.00     0.010 C 
ENDROOT
BRANCH   1   2
ATOM      2  C   UNL     1      76.341  87.776  68.316  1.00  0.00     0.001 C 
BRANCH   2   3
ATOM      3  C   UNL     1      77.285  88.580  67.375  1.00  0.00     0.000 C 
BRANCH   3   4
ATOM      4  C   UNL     1      76.534  89.474  66.347  1.00  0.00    -0.000 C 
BRANCH   4   5
ATOM      5  C   UNL     1      76.391  88.796  64.954  1.00  0.00    -0.000 C 
BRANCH   5   6
ATOM      6  C   UNL     1      74.915  88.717  64.479  1.00  0.00    -0.003 C 
ATOM      7  C   UNL     1      74.560  87.352  63.850  1.00  0.00     0.004 C 
ENDBRANCH   5   6
ENDBRANCH   4   5
ENDBRANCH   3   4
ENDBRANCH   2   3
ENDBRANCH   1   2
BRANCH   1   8
ATOM      8  C   UNL     1      77.541  85.598  67.533  1.00  0.00     0.100 C 
BRANCH   8   9
ATOM      9  C   UNL     1      77.369  84.566  66.482  1.00  0.00     0.220 C 
ATOM     10  O   UNL     1      77.934  83.457  66.639  1.00  0.00    -0.275 OA
ATOM     11  N   UNL     1      76.588  84.812  65.389  1.00  0.00    -0.352 N 
ATOM     12  H   UNL     1      76.253  85.762  65.321  1.00  0.00     0.163 HD
BRANCH  11  13
ATOM     13  C   UNL     1      76.231  83.857  64.385  1.00  0.00     0.151 C 
BRANCH  13  14
ATOM     14  C   UNL     1      74.976  83.116  64.679  1.00  0.00    -0.025 A 
ATOM     15  C   UNL     1      73.725  83.772  64.593  1.00  0.00     0.056 A 
ATOM     16  C   UNL     1      75.007  81.753  65.052  1.00  0.00     0.009 A 
ATOM     17  C   UNL     1      72.522  83.076  64.853  1.00  0.00     0.160 A 
ATOM     18  C   UNL     1      73.814  81.055  65.311  1.00  0.00     0.050 A 
ATOM     19  C   UNL     1      72.572  81.713  65.220  1.00  0.00     0.157 A 
BRANCH  17  20
ATOM     20  O   UNL     1      71.313  83.725  64.810  1.00  0.00    -0.493 OA
ATOM     21  C   UNL     1      71.080  84.611  65.918  1.00  0.00     0.278 C 
ENDBRANCH  17  20
BRANCH  19  22
ATOM     22  O   UNL     1      71.428  81.037  65.499  1.00  0.00    -0.504 OA
ATOM     23  H   UNL     1      71.175  81.199  66.411  1.00  0.00     0.293 HD
ENDBRANCH  19  22
ENDBRANCH  13  14
ENDBRANCH  11  13
ENDBRANCH   8   9
ENDBRANCH   1   8
TORSDOF 11
ENDMDL
MODEL 6
REMARK VINA RESULT:    -5.463      5.016     10.749
REMARK INTER + INTRA:          -9.651
REMARK INTER:                  -8.969
REMARK INTRA:                  -0.682
REMARK UNBOUND:                -0.835
REMARK SMILES CCCCCCCCC(=O)NCc1ccc(O)c(OC)c1
REMARK SMILES IDX 7 1 6 2 5 3 4 4 3 5 2 6 1 7 8 8 9 9 10 10 11 11 12 13 13 14
REMARK SMILES IDX 21 15 14 16 18 17 15 18 16 19 19 20 20 21 17 22
REMARK H PARENT 11 12 17 23
REMARK Flexibility Score: inf
ROOT
ATOM      1  C   UNL     1      97.727  81.047  80.572  1.00  0.00     0.010 C 
ENDROOT
BRANCH   1   2
ATOM      2  C   UNL     1      97.743  80.695  79.057  1.00  0.00     0.001 C 
BRANCH   2   3
ATOM      3  C   UNL     1      97.548  81.952  78.158  1.00  0.00     0.000 C 
BRANCH   3   4
ATOM      4  C   UNL     1      96.373  81.825  77.148  1.00  0.00    -0.000 C 
BRANCH   4   5
ATOM      5  C   UNL     1      95.898  83.202  76.605  1.00  0.00    -0.000 C 
BRANCH   5   6
ATOM      6  C   UNL     1      95.976  83.291  75.057  1.00  0.00    -0.003 C 
ATOM      7  C   UNL     1      97.401  83.051  74.513  1.00  0.00     0.004 C 
ENDBRANCH   5   6
ENDBRANCH   4   5
ENDBRANCH   3   4
ENDBRANCH   2   3
ENDBRANCH   1   2
BRANCH   1   8
ATOM      8  C   UNL     1      96.695  82.145  80.952  1.00  0.00     0.100 C 
BRANCH   8   9
ATOM      9  C   UNL     1      96.684  82.393  82.414  1.00  0.00     0.220 C 
ATOM     10  O   UNL     1      96.914  83.556  82.823  1.00  0.00    -0.275 OA
ATOM     11  N   UNL     1      96.400  81.381  83.287  1.00  0.00    -0.352 N 
ATOM     12  H   UNL     1      96.317  80.471  82.858  1.00  0.00     0.163 HD
BRANCH  11  13
ATOM     13  C   UNL     1      96.221  81.522  84.700  1.00  0.00     0.151 C 
BRANCH  13  14
ATOM     14  C   UNL     1      94.832  81.876  85.097  1.00  0.00    -0.025 A 
ATOM     15  C   UNL     1      94.583  83.052  85.845  1.00  0.00     0.056 A 
ATOM     16  C   UNL     1      93.741  81.050  84.741  1.00  0.00     0.009 A 
ATOM     17  C   UNL     1      93.267  83.410  86.215  1.00  0.00     0.160 A 
ATOM     18  C   UNL     1      92.429  81.402  85.105  1.00  0.00     0.050 A 
ATOM     19  C   UNL     1      92.188  82.574  85.847  1.00  0.00     0.157 A 
BRANCH  17  20
ATOM     20  O   UNL     1      93.032  84.528  86.977  1.00  0.00    -0.493 OA
ATOM     21  C   UNL     1      94.025  84.770  87.988  1.00  0.00     0.278 C 
ENDBRANCH  17  20
BRANCH  19  22
ATOM     22  O   UNL     1      90.921  82.891  86.217  1.00  0.00    -0.504 OA
ATOM     23  H   UNL     1      90.397  83.079  85.435  1.00  0.00     0.293 HD
ENDBRANCH  19  22
ENDBRANCH  13  14
ENDBRANCH  11  13
ENDBRANCH   8   9
ENDBRANCH   1   8
TORSDOF 11
ENDMDL
MODEL 7
REMARK VINA RESULT:    -5.463     23.803     26.631
REMARK INTER + INTRA:          -9.651
REMARK INTER:                  -8.707
REMARK INTRA:                  -0.944
REMARK UNBOUND:                -0.835
REMARK SMILES CCCCCCCCC(=O)NCc1ccc(O)c(OC)c1
REMARK SMILES IDX 7 1 6 2 5 3 4 4 3 5 2 6 1 7 8 8 9 9 10 10 11 11 12 13 13 14
REMARK SMILES IDX 21 15 14 16 18 17 15 18 16 19 19 20 20 21 17 22
REMARK H PARENT 11 12 17 23
REMARK Flexibility Score: inf
ROOT
ATOM      1  C   UNL     1      76.050  84.751  69.260  1.00  0.00     0.010 C 
ENDROOT
BRANCH   1   2
ATOM      2  C   UNL     1      74.781  85.650  69.207  1.00  0.00     0.001 C 
BRANCH   2   3
ATOM      3  C   UNL     1      75.129  87.146  68.949  1.00  0.00     0.000 C 
BRANCH   3   4
ATOM      4  C   UNL     1      74.166  87.851  67.952  1.00  0.00    -0.000 C 
BRANCH   4   5
ATOM      5  C   UNL     1      74.691  89.240  67.491  1.00  0.00    -0.000 C 
BRANCH   5   6
ATOM      6  C   UNL     1      75.669  89.877  68.515  1.00  0.00    -0.003 C 
ATOM      7  C   UNL     1      74.946  90.700  69.604  1.00  0.00     0.004 C 
ENDBRANCH   5   6
ENDBRANCH   4   5
ENDBRANCH   3   4
ENDBRANCH   2   3
ENDBRANCH   1   2
BRANCH   1   8
ATOM      8  C   UNL     1      77.170  85.185  68.273  1.00  0.00     0.100 C 
BRANCH   8   9
ATOM      9  C   UNL     1      76.996  84.547  66.946  1.00  0.00     0.220 C 
ATOM     10  O   UNL     1      77.725  83.567  66.656  1.00  0.00    -0.275 OA
ATOM     11  N   UNL     1      76.045  85.000  66.077  1.00  0.00    -0.352 N 
ATOM     12  H   UNL     1      75.577  85.844  66.374  1.00  0.00     0.163 HD
BRANCH  11  13
ATOM     13  C   UNL     1      75.687  84.386  64.835  1.00  0.00     0.151 C 
BRANCH  13  14
ATOM     14  C   UNL     1      74.584  83.394  64.951  1.00  0.00    -0.025 A 
ATOM     15  C   UNL     1      73.235  83.823  64.933  1.00  0.00     0.056 A 
ATOM     16  C   UNL     1      74.859  82.014  65.084  1.00  0.00     0.009 A 
ATOM     17  C   UNL     1      72.177  82.891  65.025  1.00  0.00     0.160 A 
ATOM     18  C   UNL     1      73.811  81.081  65.174  1.00  0.00     0.050 A 
ATOM     19  C   UNL     1      72.471  81.515  65.153  1.00  0.00     0.157 A 
BRANCH  17  20
ATOM     20  O   UNL     1      70.871  83.312  65.050  1.00  0.00    -0.493 OA
ATOM     21  C   UNL     1      70.479  83.941  66.283  1.00  0.00     0.278 C 
ENDBRANCH  17  20
BRANCH  19  22
ATOM     22  O   UNL     1      71.466  80.609  65.269  1.00  0.00    -0.504 OA
ATOM     23  H   UNL     1      71.837  79.740  65.442  1.00  0.00     0.293 HD
ENDBRANCH  19  22
ENDBRANCH  13  14
ENDBRANCH  11  13
ENDBRANCH   8   9
ENDBRANCH   1   8
TORSDOF 11
ENDMDL
MODEL 8
REMARK VINA RESULT:    -5.405      5.671     11.324
REMARK INTER + INTRA:          -9.558
REMARK INTER:                  -8.770
REMARK INTRA:                  -0.788
REMARK UNBOUND:                -0.835
REMARK SMILES CCCCCCCCC(=O)NCc1ccc(O)c(OC)c1
REMARK SMILES IDX 7 1 6 2 5 3 4 4 3 5 2 6 1 7 8 8 9 9 10 10 11 11 12 13 13 14
REMARK SMILES IDX 21 15 14 16 18 17 15 18 16 19 19 20 20 21 17 22
REMARK H PARENT 11 12 17 23
REMARK Flexibility Score: inf
ROOT
ATOM      1  C   UNL     1      96.452  80.956  82.086  1.00  0.00     0.010 C 
ENDROOT
BRANCH   1   2
ATOM      2  C   UNL     1      97.236  80.182  80.987  1.00  0.00     0.001 C 
BRANCH   2   3
ATOM      3  C   UNL     1      98.018  81.138  80.038  1.00  0.00     0.000 C 
BRANCH   3   4
ATOM      4  C   UNL     1      98.061  80.657  78.560  1.00  0.00    -0.000 C 
BRANCH   4   5
ATOM      5  C   UNL     1      97.908  81.825  77.544  1.00  0.00    -0.000 C 
BRANCH   5   6
ATOM      6  C   UNL     1      96.525  81.824  76.839  1.00  0.00    -0.003 C 
ATOM      7  C   UNL     1      95.586  82.935  77.357  1.00  0.00     0.004 C 
ENDBRANCH   5   6
ENDBRANCH   4   5
ENDBRANCH   3   4
ENDBRANCH   2   3
ENDBRANCH   1   2
BRANCH   1   8
ATOM      8  C   UNL     1      96.610  82.500  82.002  1.00  0.00     0.100 C 
BRANCH   8   9
ATOM      9  C   UNL     1      96.130  83.159  83.241  1.00  0.00     0.220 C 
ATOM     10  O   UNL     1      96.023  84.409  83.246  1.00  0.00    -0.275 OA
ATOM     11  N   UNL     1      95.788  82.417  84.334  1.00  0.00    -0.352 N 
ATOM     12  H   UNL     1      95.994  81.432  84.252  1.00  0.00     0.163 HD
BRANCH  11  13
ATOM     13  C   UNL     1      95.183  82.919  85.530  1.00  0.00     0.151 C 
BRANCH  13  14
ATOM     14  C   UNL     1      93.741  82.578  85.664  1.00  0.00    -0.025 A 
ATOM     15  C   UNL     1      92.913  83.317  86.542  1.00  0.00     0.056 A 
ATOM     16  C   UNL     1      93.175  81.514  84.925  1.00  0.00     0.009 A 
ATOM     17  C   UNL     1      91.537  83.015  86.667  1.00  0.00     0.160 A 
ATOM     18  C   UNL     1      91.807  81.209  85.044  1.00  0.00     0.050 A 
ATOM     19  C   UNL     1      90.988  81.950  85.917  1.00  0.00     0.157 A 
BRANCH  17  20
ATOM     20  O   UNL     1      90.745  83.704  87.550  1.00  0.00    -0.493 OA
ATOM     21  C   UNL     1      91.212  83.670  88.910  1.00  0.00     0.278 C 
ENDBRANCH  17  20
BRANCH  19  22
ATOM     22  O   UNL     1      89.675  81.631  86.046  1.00  0.00    -0.504 OA
ATOM     23  H   UNL     1      89.160  82.128  85.406  1.00  0.00     0.293 HD
ENDBRANCH  19  22
ENDBRANCH  13  14
ENDBRANCH  11  13
ENDBRANCH   8   9
ENDBRANCH   1   8
TORSDOF 11
ENDMDL
MODEL 9
REMARK VINA RESULT:    -5.371      3.981      8.562
REMARK INTER + INTRA:          -9.503
REMARK INTER:                  -8.387
REMARK INTRA:                  -1.116
REMARK UNBOUND:                -0.835
REMARK SMILES CCCCCCCCC(=O)NCc1ccc(O)c(OC)c1
REMARK SMILES IDX 7 1 6 2 5 3 4 4 3 5 2 6 1 7 8 8 9 9 10 10 11 11 12 13 13 14
REMARK SMILES IDX 21 15 14 16 18 17 15 18 16 19 19 20 20 21 17 22
REMARK H PARENT 11 12 17 23
REMARK Flexibility Score: inf
ROOT
ATOM      1  C   UNL     1      97.428  78.477  77.597  1.00  0.00     0.010 C 
ENDROOT
BRANCH   1   2
ATOM      2  C   UNL     1      97.485  79.825  76.822  1.00  0.00     0.001 C 
BRANCH   2   3
ATOM      3  C   UNL     1      96.678  80.950  77.536  1.00  0.00     0.000 C 
BRANCH   3   4
ATOM      4  C   UNL     1      97.078  82.386  77.093  1.00  0.00    -0.000 C 
BRANCH   4   5
ATOM      5  C   UNL     1      95.869  83.208  76.561  1.00  0.00    -0.000 C 
BRANCH   5   6
ATOM      6  C   UNL     1      96.133  83.815  75.157  1.00  0.00    -0.003 C 
ATOM      7  C   UNL     1      97.006  82.905  74.264  1.00  0.00     0.004 C 
ENDBRANCH   5   6
ENDBRANCH   4   5
ENDBRANCH   3   4
ENDBRANCH   2   3
ENDBRANCH   1   2
BRANCH   1   8
ATOM      8  C   UNL     1      98.752  78.115  78.327  1.00  0.00     0.100 C 
BRANCH   8   9
ATOM      9  C   UNL     1      98.587  78.165  79.800  1.00  0.00     0.220 C 
ATOM     10  O   UNL     1      99.613  78.082  80.517  1.00  0.00    -0.275 OA
ATOM     11  N   UNL     1      97.350  78.327  80.354  1.00  0.00    -0.352 N 
ATOM     12  H   UNL     1      96.588  78.295  79.693  1.00  0.00     0.163 HD
BRANCH  11  13
ATOM     13  C   UNL     1      97.077  78.530  81.744  1.00  0.00     0.151 C 
BRANCH  13  14
ATOM     14  C   UNL     1      96.671  79.921  82.080  1.00  0.00    -0.025 A 
ATOM     15  C   UNL     1      95.897  80.177  83.238  1.00  0.00     0.056 A 
ATOM     16  C   UNL     1      97.044  81.006  81.255  1.00  0.00     0.009 A 
ATOM     17  C   UNL     1      95.519  81.496  83.579  1.00  0.00     0.160 A 
ATOM     18  C   UNL     1      96.672  82.321  81.589  1.00  0.00     0.050 A 
ATOM     19  C   UNL     1      95.904  82.569  82.744  1.00  0.00     0.157 A 
BRANCH  17  20
ATOM     20  O   UNL     1      94.733  81.738  84.678  1.00  0.00    -0.493 OA
ATOM     21  C   UNL     1      95.377  81.461  85.934  1.00  0.00     0.278 C 
ENDBRANCH  17  20
BRANCH  19  22
ATOM     22  O   UNL     1      95.526  83.838  83.044  1.00  0.00    -0.504 OA
ATOM     23  H   UNL     1      95.448  84.348  82.234  1.00  0.00     0.293 HD
ENDBRANCH  19  22
ENDBRANCH  13  14
ENDBRANCH  11  13
ENDBRANCH   8   9
ENDBRANCH   1   8
TORSDOF 11
ENDMDL
MODEL 10
REMARK VINA RESULT:    -5.236      2.092      2.735
REMARK INTER + INTRA:          -9.285
REMARK INTER:                  -8.711
REMARK INTRA:                  -0.574
REMARK UNBOUND:                -0.835
REMARK SMILES CCCCCCCCC(=O)NCc1ccc(O)c(OC)c1
REMARK SMILES IDX 7 1 6 2 5 3 4 4 3 5 2 6 1 7 8 8 9 9 10 10 11 11 12 13 13 14
REMARK SMILES IDX 21 15 14 16 18 17 15 18 16 19 19 20 20 21 17 22
REMARK H PARENT 11 12 17 23
REMARK Flexibility Score: inf
ROOT
ATOM      1  C   UNL     1      97.968  80.990  79.141  1.00  0.00     0.010 C 
ENDROOT
BRANCH   1   2
ATOM      2  C   UNL     1      98.129  80.954  80.688  1.00  0.00     0.001 C 
BRANCH   2   3
ATOM      3  C   UNL     1      96.764  81.094  81.425  1.00  0.00     0.000 C 
BRANCH   3   4
ATOM      4  C   UNL     1      96.586  82.451  82.163  1.00  0.00    -0.000 C 
BRANCH   4   5
ATOM      5  C   UNL     1      96.330  82.276  83.687  1.00  0.00    -0.000 C 
BRANCH   5   6
ATOM      6  C   UNL     1      94.873  81.841  84.001  1.00  0.00    -0.003 C 
ATOM      7  C   UNL     1      94.773  80.373  84.472  1.00  0.00     0.004 C 
ENDBRANCH   5   6
ENDBRANCH   4   5
ENDBRANCH   3   4
ENDBRANCH   2   3
ENDBRANCH   1   2
BRANCH   1   8
ATOM      8  C   UNL     1      97.044  82.130  78.630  1.00  0.00     0.100 C 
BRANCH   8   9
ATOM      9  C   UNL     1      96.734  81.969  77.189  1.00  0.00     0.220 C 
ATOM     10  O   UNL     1      96.433  80.826  76.769  1.00  0.00    -0.275 OA
ATOM     11  N   UNL     1      96.748  83.048  76.352  1.00  0.00    -0.352 N 
ATOM     12  H   UNL     1      97.087  83.900  76.774  1.00  0.00     0.163 HD
BRANCH  11  13
ATOM     13  C   UNL     1      96.334  83.048  74.982  1.00  0.00     0.151 C 
BRANCH  13  14
ATOM     14  C   UNL     1      97.401  82.638  74.031  1.00  0.00    -0.025 A 
ATOM     15  C   UNL     1      97.379  81.349  73.448  1.00  0.00     0.056 A 
ATOM     16  C   UNL     1      98.453  83.521  73.695  1.00  0.00     0.009 A 
ATOM     17  C   UNL     1      98.377  80.952  72.528  1.00  0.00     0.160 A 
ATOM     18  C   UNL     1      99.448  83.133  72.781  1.00  0.00     0.050 A 
ATOM     19  C   UNL     1      99.419  81.849  72.202  1.00  0.00     0.157 A 
BRANCH  17  20
ATOM     20  O   UNL     1      98.378  79.687  71.997  1.00  0.00    -0.493 OA
ATOM     21  C   UNL     1      97.231  79.391  71.181  1.00  0.00     0.278 C 
ENDBRANCH  17  20
BRANCH  19  22
ATOM     22  O   UNL     1     100.399  81.474  71.341  1.00  0.00    -0.504 OA
ATOM     23  H   UNL     1     100.321  81.976  70.527  1.00  0.00     0.293 HD
ENDBRANCH  19  22
ENDBRANCH  13  14
ENDBRANCH  11  13
ENDBRANCH   8   9
ENDBRANCH   1   8
TORSDOF 11
ENDMDL
