MODEL 1
REMARK VINA RESULT:    -8.059      0.000      0.000
REMARK INTER + INTRA:          -9.854
REMARK INTER:                  -9.472
REMARK INTRA:                  -0.382
REMARK UNBOUND:                -0.382
REMARK SMILES O=C(/C=C/C=C/c1ccc2c(c1)OCO2)N1CCCCC1
REMARK SMILES IDX 3 1 4 2 2 3 1 4 16 5 17 6 21 7 18 8 20 9 19 10 5 11 6 12
REMARK SMILES IDX 7 13 12 14 8 15 11 16 9 17 13 18 10 19 14 20 15 21
REMARK H PARENT
REMARK Flexibility Score: inf
ROOT
ATOM      1  C   UNL     1      91.011  91.967  75.934  1.00  0.00     0.071 C 
ATOM      2  C   UNL     1      91.014  92.627  77.090  1.00  0.00     0.006 C 
ENDROOT
BRANCH   1   3
ATOM      3  C   UNL     1      89.745  91.350  75.490  1.00  0.00     0.246 C 
ATOM      4  O   UNL     1      88.804  91.346  76.285  1.00  0.00    -0.270 OA
ATOM      5  N   UNL     1      89.701  90.810  74.205  1.00  0.00    -0.339 N 
ATOM      6  C   UNL     1      88.459  90.186  73.738  1.00  0.00     0.120 C 
ATOM      7  C   UNL     1      90.814  90.756  73.247  1.00  0.00     0.120 C 
ATOM      8  C   UNL     1      88.012  90.766  72.401  1.00  0.00     0.022 C 
ATOM      9  C   UNL     1      90.404  91.327  71.889  1.00  0.00     0.022 C 
ATOM     10  C   UNL     1      89.128  90.674  71.365  1.00  0.00     0.004 C 
ENDBRANCH   1   3
BRANCH   2  11
ATOM     11  C   UNL     1      92.206  93.264  77.609  1.00  0.00     0.001 C 
ATOM     12  C   UNL     1      93.227  93.644  76.824  1.00  0.00     0.008 C 
BRANCH  12  13
ATOM     13  C   UNL     1      94.463  94.288  77.299  1.00  0.00    -0.022 A 
ATOM     14  C   UNL     1      94.703  94.365  78.664  1.00  0.00     0.058 A 
ATOM     15  C   UNL     1      95.361  94.804  76.361  1.00  0.00     0.012 A 
ATOM     16  C   UNL     1      95.875  94.977  79.060  1.00  0.00     0.166 A 
ATOM     17  C   UNL     1      96.540  95.419  76.790  1.00  0.00     0.051 A 
ATOM     18  O   UNL     1      96.289  95.152  80.345  1.00  0.00    -0.454 OA
ATOM     19  C   UNL     1      96.769  95.490  78.148  1.00  0.00     0.165 A 
ATOM     20  C   UNL     1      97.544  95.832  80.139  1.00  0.00     0.468 C 
ATOM     21  O   UNL     1      97.855  96.050  78.748  1.00  0.00    -0.454 OA
ENDBRANCH  12  13
ENDBRANCH   2  11
TORSDOF 3
ENDMDL
MODEL 2
REMARK VINA RESULT:    -7.890      2.803      9.081
REMARK INTER + INTRA:          -9.656
REMARK INTER:                  -9.235
REMARK INTRA:                  -0.422
REMARK UNBOUND:                -0.382
REMARK SMILES O=C(/C=C/C=C/c1ccc2c(c1)OCO2)N1CCCCC1
REMARK SMILES IDX 3 1 4 2 2 3 1 4 16 5 17 6 21 7 18 8 20 9 19 10 5 11 6 12
REMARK SMILES IDX 7 13 12 14 8 15 11 16 9 17 13 18 10 19 14 20 15 21
REMARK H PARENT
REMARK Flexibility Score: inf
ROOT
ATOM      1  C   UNL     1      94.892  94.303  75.786  1.00  0.00     0.071 C 
ATOM      2  C   UNL     1      93.754  94.934  75.502  1.00  0.00     0.006 C 
ENDROOT
BRANCH   1   3
ATOM      3  C   UNL     1      96.026  95.106  76.283  1.00  0.00     0.246 C 
ATOM      4  O   UNL     1      96.643  95.788  75.464  1.00  0.00    -0.270 OA
ATOM      5  N   UNL     1      96.326  95.034  77.642  1.00  0.00    -0.339 N 
ATOM      6  C   UNL     1      97.451  95.817  78.165  1.00  0.00     0.120 C 
ATOM      7  C   UNL     1      95.643  94.199  78.641  1.00  0.00     0.120 C 
ATOM      8  C   UNL     1      97.028  96.677  79.350  1.00  0.00     0.022 C 
ATOM      9  C   UNL     1      95.206  95.026  79.849  1.00  0.00     0.022 C 
ATOM     10  C   UNL     1      96.365  95.830  80.432  1.00  0.00     0.004 C 
ENDBRANCH   1   3
BRANCH   2  11
ATOM     11  C   UNL     1      92.587  94.233  75.009  1.00  0.00     0.001 C 
ATOM     12  C   UNL     1      92.550  92.899  74.860  1.00  0.00     0.008 C 
BRANCH  12  13
ATOM     13  C   UNL     1      91.395  92.138  74.356  1.00  0.00    -0.022 A 
ATOM     14  C   UNL     1      90.499  92.759  73.496  1.00  0.00     0.058 A 
ATOM     15  C   UNL     1      91.232  90.809  74.758  1.00  0.00     0.012 A 
ATOM     16  C   UNL     1      89.433  92.004  73.051  1.00  0.00     0.166 A 
ATOM     17  C   UNL     1      90.143  90.069  74.292  1.00  0.00     0.051 A 
ATOM     18  O   UNL     1      88.451  92.429  72.209  1.00  0.00    -0.454 OA
ATOM     19  C   UNL     1      89.260  90.695  73.438  1.00  0.00     0.165 A 
ATOM     20  C   UNL     1      87.641  91.241  72.110  1.00  0.00     0.468 C 
ATOM     21  O   UNL     1      88.148  90.136  72.887  1.00  0.00    -0.454 OA
ENDBRANCH  12  13
ENDBRANCH   2  11
TORSDOF 3
ENDMDL
MODEL 3
REMARK VINA RESULT:    -7.393      2.718      9.153
REMARK INTER + INTRA:          -9.072
REMARK INTER:                  -8.851
REMARK INTRA:                  -0.221
REMARK UNBOUND:                -0.382
REMARK SMILES O=C(/C=C/C=C/c1ccc2c(c1)OCO2)N1CCCCC1
REMARK SMILES IDX 3 1 4 2 2 3 1 4 16 5 17 6 21 7 18 8 20 9 19 10 5 11 6 12
REMARK SMILES IDX 7 13 12 14 8 15 11 16 9 17 13 18 10 19 14 20 15 21
REMARK H PARENT
REMARK Flexibility Score: inf
ROOT
ATOM      1  C   UNL     1      95.530  94.508  77.358  1.00  0.00     0.071 C 
ATOM      2  C   UNL     1      94.210  94.514  77.533  1.00  0.00     0.006 C 
ENDROOT
BRANCH   1   3
ATOM      3  C   UNL     1      96.308  95.638  77.905  1.00  0.00     0.246 C 
ATOM      4  O   UNL     1      96.688  96.502  77.114  1.00  0.00    -0.270 OA
ATOM      5  N   UNL     1      96.565  95.647  79.275  1.00  0.00    -0.339 N 
ATOM      6  C   UNL     1      97.341  96.753  79.846  1.00  0.00     0.120 C 
ATOM      7  C   UNL     1      96.169  94.612  80.241  1.00  0.00     0.120 C 
ATOM      8  C   UNL     1      96.610  97.399  81.018  1.00  0.00     0.022 C 
ATOM      9  C   UNL     1      95.434  95.221  81.435  1.00  0.00     0.022 C 
ATOM     10  C   UNL     1      96.233  96.358  82.067  1.00  0.00     0.004 C 
ENDBRANCH   1   3
BRANCH   2  11
ATOM     11  C   UNL     1      93.363  93.452  77.034  1.00  0.00     0.001 C 
ATOM     12  C   UNL     1      92.048  93.614  76.812  1.00  0.00     0.008 C 
BRANCH  12  13
ATOM     13  C   UNL     1      91.140  92.568  76.314  1.00  0.00    -0.022 A 
ATOM     14  C   UNL     1      91.513  91.823  75.203  1.00  0.00     0.058 A 
ATOM     15  C   UNL     1      89.928  92.352  76.974  1.00  0.00     0.012 A 
ATOM     16  C   UNL     1      90.629  90.854  74.774  1.00  0.00     0.166 A 
ATOM     17  C   UNL     1      89.052  91.364  76.518  1.00  0.00     0.051 A 
ATOM     18  O   UNL     1      90.809  90.025  73.709  1.00  0.00    -0.454 OA
ATOM     19  C   UNL     1      89.432  90.630  75.414  1.00  0.00     0.165 A 
ATOM     20  C   UNL     1      89.591  89.255  73.751  1.00  0.00     0.468 C 
ATOM     21  O   UNL     1      88.712  89.633  74.830  1.00  0.00    -0.454 OA
ENDBRANCH  12  13
ENDBRANCH   2  11
TORSDOF 3
ENDMDL
MODEL 4
REMARK VINA RESULT:    -7.328      2.681      9.048
REMARK INTER + INTRA:          -8.995
REMARK INTER:                  -8.668
REMARK INTRA:                  -0.327
REMARK UNBOUND:                -0.382
REMARK SMILES O=C(/C=C/C=C/c1ccc2c(c1)OCO2)N1CCCCC1
REMARK SMILES IDX 3 1 4 2 2 3 1 4 16 5 17 6 21 7 18 8 20 9 19 10 5 11 6 12
REMARK SMILES IDX 7 13 12 14 8 15 11 16 9 17 13 18 10 19 14 20 15 21
REMARK H PARENT
REMARK Flexibility Score: inf
ROOT
ATOM      1  C   UNL     1      94.696  93.976  77.954  1.00  0.00     0.071 C 
ATOM      2  C   UNL     1      93.497  94.322  77.489  1.00  0.00     0.006 C 
ENDROOT
BRANCH   1   3
ATOM      3  C   UNL     1      95.287  94.795  79.031  1.00  0.00     0.246 C 
ATOM      4  O   UNL     1      94.863  94.622  80.175  1.00  0.00    -0.270 OA
ATOM      5  N   UNL     1      96.278  95.711  78.682  1.00  0.00    -0.339 N 
ATOM      6  C   UNL     1      96.879  96.542  79.729  1.00  0.00     0.120 C 
ATOM      7  C   UNL     1      96.777  95.977  77.324  1.00  0.00     0.120 C 
ATOM      8  C   UNL     1      98.401  96.444  79.714  1.00  0.00     0.022 C 
ATOM      9  C   UNL     1      98.302  95.891  77.268  1.00  0.00     0.022 C 
ATOM     10  C   UNL     1      98.956  96.770  78.331  1.00  0.00     0.004 C 
ENDBRANCH   1   3
BRANCH   2  11
ATOM     11  C   UNL     1      92.838  93.582  76.435  1.00  0.00     0.001 C 
ATOM     12  C   UNL     1      91.643  92.990  76.600  1.00  0.00     0.008 C 
BRANCH  12  13
ATOM     13  C   UNL     1      90.933  92.220  75.566  1.00  0.00    -0.022 A 
ATOM     14  C   UNL     1      91.407  92.242  74.261  1.00  0.00     0.058 A 
ATOM     15  C   UNL     1      89.799  91.486  75.926  1.00  0.00     0.012 A 
ATOM     16  C   UNL     1      90.708  91.504  73.328  1.00  0.00     0.166 A 
ATOM     17  C   UNL     1      89.111  90.748  74.961  1.00  0.00     0.051 A 
ATOM     18  O   UNL     1      91.011  91.398  72.005  1.00  0.00    -0.454 OA
ATOM     19  C   UNL     1      89.590  90.777  73.668  1.00  0.00     0.165 A 
ATOM     20  C   UNL     1      89.958  90.523  71.551  1.00  0.00     0.468 C 
ATOM     21  O   UNL     1      89.053  90.125  72.602  1.00  0.00    -0.454 OA
ENDBRANCH  12  13
ENDBRANCH   2  11
TORSDOF 3
ENDMDL
MODEL 5
REMARK VINA RESULT:    -7.078      3.251      8.524
REMARK INTER + INTRA:          -8.702
REMARK INTER:                  -8.312
REMARK INTRA:                  -0.390
REMARK UNBOUND:                -0.382
REMARK SMILES O=C(/C=C/C=C/c1ccc2c(c1)OCO2)N1CCCCC1
REMARK SMILES IDX 3 1 4 2 2 3 1 4 16 5 17 6 21 7 18 8 20 9 19 10 5 11 6 12
REMARK SMILES IDX 7 13 12 14 8 15 11 16 9 17 13 18 10 19 14 20 15 21
REMARK H PARENT
REMARK Flexibility Score: inf
ROOT
ATOM      1  C   UNL     1      95.815  95.451  75.850  1.00  0.00     0.071 C 
ATOM      2  C   UNL     1      95.581  94.636  76.877  1.00  0.00     0.006 C 
ENDROOT
BRANCH   1   3
ATOM      3  C   UNL     1      97.094  96.189  75.826  1.00  0.00     0.246 C 
ATOM      4  O   UNL     1      97.697  96.316  76.893  1.00  0.00    -0.270 OA
ATOM      5  N   UNL     1      97.529  96.695  74.603  1.00  0.00    -0.339 N 
ATOM      6  C   UNL     1      98.792  97.437  74.549  1.00  0.00     0.120 C 
ATOM      7  C   UNL     1      96.816  96.602  73.320  1.00  0.00     0.120 C 
ATOM      8  C   UNL     1      99.725  96.872  73.484  1.00  0.00     0.022 C 
ATOM      9  C   UNL     1      97.721  96.042  72.223  1.00  0.00     0.022 C 
ATOM     10  C   UNL     1      99.033  96.814  72.126  1.00  0.00     0.004 C 
ENDBRANCH   1   3
BRANCH   2  11
ATOM     11  C   UNL     1      94.357  93.870  76.988  1.00  0.00     0.001 C 
ATOM     12  C   UNL     1      93.393  93.902  76.054  1.00  0.00     0.008 C 
BRANCH  12  13
ATOM     13  C   UNL     1      92.128  93.151  76.121  1.00  0.00    -0.022 A 
ATOM     14  C   UNL     1      91.871  92.174  75.169  1.00  0.00     0.058 A 
ATOM     15  C   UNL     1      91.220  93.444  77.142  1.00  0.00     0.012 A 
ATOM     16  C   UNL     1      90.672  91.498  75.273  1.00  0.00     0.166 A 
ATOM     17  C   UNL     1      90.014  92.744  77.224  1.00  0.00     0.051 A 
ATOM     18  O   UNL     1      90.237  90.512  74.442  1.00  0.00    -0.454 OA
ATOM     19  C   UNL     1      89.769  91.775  76.273  1.00  0.00     0.165 A 
ATOM     20  C   UNL     1      88.959  90.199  75.031  1.00  0.00     0.468 C 
ATOM     21  O   UNL     1      88.655  90.997  76.194  1.00  0.00    -0.454 OA
ENDBRANCH  12  13
ENDBRANCH   2  11
TORSDOF 3
ENDMDL
MODEL 6
REMARK VINA RESULT:    -6.997      4.278      8.028
REMARK INTER + INTRA:          -8.606
REMARK INTER:                  -8.222
REMARK INTRA:                  -0.384
REMARK UNBOUND:                -0.382
REMARK SMILES O=C(/C=C/C=C/c1ccc2c(c1)OCO2)N1CCCCC1
REMARK SMILES IDX 3 1 4 2 2 3 1 4 16 5 17 6 21 7 18 8 20 9 19 10 5 11 6 12
REMARK SMILES IDX 7 13 12 14 8 15 11 16 9 17 13 18 10 19 14 20 15 21
REMARK H PARENT
REMARK Flexibility Score: inf
ROOT
ATOM      1  C   UNL     1      94.489  96.625  74.521  1.00  0.00     0.071 C 
ATOM      2  C   UNL     1      95.013  95.678  75.296  1.00  0.00     0.006 C 
ENDROOT
BRANCH   1   3
ATOM      3  C   UNL     1      95.398  97.647  73.963  1.00  0.00     0.246 C 
ATOM      4  O   UNL     1      96.503  97.775  74.491  1.00  0.00    -0.270 OA
ATOM      5  N   UNL     1      94.943  98.399  72.881  1.00  0.00    -0.339 N 
ATOM      6  C   UNL     1      95.820  99.424  72.308  1.00  0.00     0.120 C 
ATOM      7  C   UNL     1      93.616  98.305  72.254  1.00  0.00     0.120 C 
ATOM      8  C   UNL     1      95.977  99.245  70.802  1.00  0.00     0.022 C 
ATOM      9  C   UNL     1      93.731  98.128  70.740  1.00  0.00     0.022 C 
ATOM     10  C   UNL     1      94.617  99.200  70.112  1.00  0.00     0.004 C 
ENDBRANCH   1   3
BRANCH   2  11
ATOM     11  C   UNL     1      94.204  94.635  75.890  1.00  0.00     0.001 C 
ATOM     12  C   UNL     1      93.087  94.164  75.311  1.00  0.00     0.008 C 
BRANCH  12  13
ATOM     13  C   UNL     1      92.224  93.111  75.874  1.00  0.00    -0.022 A 
ATOM     14  C   UNL     1      91.950  91.984  75.112  1.00  0.00     0.058 A 
ATOM     15  C   UNL     1      91.705  93.277  77.160  1.00  0.00     0.012 A 
ATOM     16  C   UNL     1      91.137  91.026  75.683  1.00  0.00     0.166 A 
ATOM     17  C   UNL     1      90.884  92.291  77.713  1.00  0.00     0.051 A 
ATOM     18  O   UNL     1      90.751  89.857  75.100  1.00  0.00    -0.454 OA
ATOM     19  C   UNL     1      90.618  91.175  76.948  1.00  0.00     0.165 A 
ATOM     20  C   UNL     1      89.933  89.288  76.142  1.00  0.00     0.468 C 
ATOM     21  O   UNL     1      89.844  90.119  77.318  1.00  0.00    -0.454 OA
ENDBRANCH  12  13
ENDBRANCH   2  11
TORSDOF 3
ENDMDL
MODEL 7
REMARK VINA RESULT:    -6.938     21.842     25.544
REMARK INTER + INTRA:          -8.537
REMARK INTER:                  -8.209
REMARK INTRA:                  -0.329
REMARK UNBOUND:                -0.382
REMARK SMILES O=C(/C=C/C=C/c1ccc2c(c1)OCO2)N1CCCCC1
REMARK SMILES IDX 3 1 4 2 2 3 1 4 16 5 17 6 21 7 18 8 20 9 19 10 5 11 6 12
REMARK SMILES IDX 7 13 12 14 8 15 11 16 9 17 13 18 10 19 14 20 15 21
REMARK H PARENT
REMARK Flexibility Score: inf
ROOT
ATOM      1  C   UNL     1      83.965  68.964  71.893  1.00  0.00     0.071 C 
ATOM      2  C   UNL     1      85.245  69.068  71.541  1.00  0.00     0.006 C 
ENDROOT
BRANCH   1   3
ATOM      3  C   UNL     1      83.592  67.904  72.850  1.00  0.00     0.246 C 
ATOM      4  O   UNL     1      84.120  67.928  73.962  1.00  0.00    -0.270 OA
ATOM      5  N   UNL     1      82.672  66.944  72.430  1.00  0.00    -0.339 N 
ATOM      6  C   UNL     1      82.285  65.875  73.356  1.00  0.00     0.120 C 
ATOM      7  C   UNL     1      82.055  66.856  71.098  1.00  0.00     0.120 C 
ATOM      8  C   UNL     1      80.770  65.782  73.499  1.00  0.00     0.022 C 
ATOM      9  C   UNL     1      80.533  66.757  71.199  1.00  0.00     0.022 C 
ATOM     10  C   UNL     1      80.101  65.633  72.136  1.00  0.00     0.004 C 
ENDBRANCH   1   3
BRANCH   2  11
ATOM     11  C   UNL     1      85.707  70.075  70.609  1.00  0.00     0.001 C 
ATOM     12  C   UNL     1      86.971  70.122  70.159  1.00  0.00     0.008 C 
BRANCH  12  13
ATOM     13  C   UNL     1      87.496  71.127  69.220  1.00  0.00    -0.022 A 
ATOM     14  C   UNL     1      88.703  71.753  69.504  1.00  0.00     0.058 A 
ATOM     15  C   UNL     1      86.764  71.425  68.067  1.00  0.00     0.012 A 
ATOM     16  C   UNL     1      89.153  72.687  68.593  1.00  0.00     0.166 A 
ATOM     17  C   UNL     1      87.244  72.375  67.162  1.00  0.00     0.051 A 
ATOM     18  O   UNL     1      90.305  73.406  68.691  1.00  0.00    -0.454 OA
ATOM     19  C   UNL     1      88.443  72.990  67.454  1.00  0.00     0.165 A 
ATOM     20  C   UNL     1      90.241  74.194  67.485  1.00  0.00     0.468 C 
ATOM     21  O   UNL     1      89.062  73.935  66.695  1.00  0.00    -0.454 OA
ENDBRANCH  12  13
ENDBRANCH   2  11
TORSDOF 3
ENDMDL
MODEL 8
REMARK VINA RESULT:    -6.780      6.331      7.392
REMARK INTER + INTRA:          -8.352
REMARK INTER:                  -7.971
REMARK INTRA:                  -0.380
REMARK UNBOUND:                -0.382
REMARK SMILES O=C(/C=C/C=C/c1ccc2c(c1)OCO2)N1CCCCC1
REMARK SMILES IDX 3 1 4 2 2 3 1 4 16 5 17 6 21 7 18 8 20 9 19 10 5 11 6 12
REMARK SMILES IDX 7 13 12 14 8 15 11 16 9 17 13 18 10 19 14 20 15 21
REMARK H PARENT
REMARK Flexibility Score: inf
ROOT
ATOM      1  C   UNL     1      93.157  98.600  70.607  1.00  0.00     0.071 C 
ATOM      2  C   UNL     1      94.195  99.019  71.329  1.00  0.00     0.006 C 
ENDROOT
BRANCH   1   3
ATOM      3  C   UNL     1      92.719  99.435  69.471  1.00  0.00     0.246 C 
ATOM      4  O   UNL     1      93.486 100.318  69.085  1.00  0.00    -0.270 OA
ATOM      5  N   UNL     1      91.468  99.171  68.915  1.00  0.00    -0.339 N 
ATOM      6  C   UNL     1      91.003  99.987  67.789  1.00  0.00     0.120 C 
ATOM      7  C   UNL     1      90.508  98.157  69.377  1.00  0.00     0.120 C 
ATOM      8  C   UNL     1      90.570  99.118  66.613  1.00  0.00     0.022 C 
ATOM      9  C   UNL     1      90.046  97.267  68.224  1.00  0.00     0.022 C 
ATOM     10  C   UNL     1      89.531  98.090  67.047  1.00  0.00     0.004 C 
ENDBRANCH   1   3
BRANCH   2  11
ATOM     11  C   UNL     1      94.697  98.270  72.461  1.00  0.00     0.001 C 
ATOM     12  C   UNL     1      93.925  97.445  73.186  1.00  0.00     0.008 C 
BRANCH  12  13
ATOM     13  C   UNL     1      94.382  96.667  74.351  1.00  0.00    -0.022 A 
ATOM     14  C   UNL     1      95.578  97.011  74.966  1.00  0.00     0.058 A 
ATOM     15  C   UNL     1      93.597  95.604  74.805  1.00  0.00     0.012 A 
ATOM     16  C   UNL     1      95.963  96.253  76.052  1.00  0.00     0.166 A 
ATOM     17  C   UNL     1      94.012  94.853  75.907  1.00  0.00     0.051 A 
ATOM     18  O   UNL     1      97.097  96.428  76.786  1.00  0.00    -0.454 OA
ATOM     19  C   UNL     1      95.201  95.203  76.511  1.00  0.00     0.165 A 
ATOM     20  C   UNL     1      96.962  95.371  77.758  1.00  0.00     0.468 C 
ATOM     21  O   UNL     1      95.761  94.589  77.589  1.00  0.00    -0.454 OA
ENDBRANCH  12  13
ENDBRANCH   2  11
TORSDOF 3
ENDMDL
MODEL 9
REMARK VINA RESULT:    -6.770     12.297     13.126
REMARK INTER + INTRA:          -8.340
REMARK INTER:                  -7.922
REMARK INTRA:                  -0.418
REMARK UNBOUND:                -0.382
REMARK SMILES O=C(/C=C/C=C/c1ccc2c(c1)OCO2)N1CCCCC1
REMARK SMILES IDX 3 1 4 2 2 3 1 4 16 5 17 6 21 7 18 8 20 9 19 10 5 11 6 12
REMARK SMILES IDX 7 13 12 14 8 15 11 16 9 17 13 18 10 19 14 20 15 21
REMARK H PARENT
REMARK Flexibility Score: inf
ROOT
ATOM      1  C   UNL     1      98.724  82.444  79.875  1.00  0.00     0.071 C 
ATOM      2  C   UNL     1      97.851  81.582  80.393  1.00  0.00     0.006 C 
ENDROOT
BRANCH   1   3
ATOM      3  C   UNL     1      99.493  82.023  78.687  1.00  0.00     0.246 C 
ATOM      4  O   UNL     1     100.508  81.350  78.874  1.00  0.00    -0.270 OA
ATOM      5  N   UNL     1      99.024  82.420  77.436  1.00  0.00    -0.339 N 
ATOM      6  C   UNL     1      99.769  82.023  76.238  1.00  0.00     0.120 C 
ATOM      7  C   UNL     1      97.845  83.260  77.176  1.00  0.00     0.120 C 
ATOM      8  C   UNL     1      98.864  81.335  75.221  1.00  0.00     0.022 C 
ATOM      9  C   UNL     1      96.913  82.605  76.157  1.00  0.00     0.022 C 
ATOM     10  C   UNL     1      97.658  82.206  74.886  1.00  0.00     0.004 C 
ENDBRANCH   1   3
BRANCH   2  11
ATOM     11  C   UNL     1      97.052  81.902  81.557  1.00  0.00     0.001 C 
ATOM     12  C   UNL     1      97.195  83.047  82.244  1.00  0.00     0.008 C 
BRANCH  12  13
ATOM     13  C   UNL     1      96.416  83.419  83.437  1.00  0.00    -0.022 A 
ATOM     14  C   UNL     1      96.310  84.759  83.783  1.00  0.00     0.058 A 
ATOM     15  C   UNL     1      95.804  82.412  84.187  1.00  0.00     0.012 A 
ATOM     16  C   UNL     1      95.569  85.058  84.909  1.00  0.00     0.166 A 
ATOM     17  C   UNL     1      95.060  82.743  85.322  1.00  0.00     0.051 A 
ATOM     18  O   UNL     1      95.348  86.304  85.411  1.00  0.00    -0.454 OA
ATOM     19  C   UNL     1      94.961  84.077  85.658  1.00  0.00     0.165 A 
ATOM     20  C   UNL     1      94.533  85.996  86.560  1.00  0.00     0.468 C 
ATOM     21  O   UNL     1      94.283  84.585  86.723  1.00  0.00    -0.454 OA
ENDBRANCH  12  13
ENDBRANCH   2  11
TORSDOF 3
ENDMDL
MODEL 10
REMARK VINA RESULT:    -6.727      2.964      9.296
REMARK INTER + INTRA:          -8.288
REMARK INTER:                  -7.974
REMARK INTRA:                  -0.314
REMARK UNBOUND:                -0.382
REMARK SMILES O=C(/C=C/C=C/c1ccc2c(c1)OCO2)N1CCCCC1
REMARK SMILES IDX 3 1 4 2 2 3 1 4 16 5 17 6 21 7 18 8 20 9 19 10 5 11 6 12
REMARK SMILES IDX 7 13 12 14 8 15 11 16 9 17 13 18 10 19 14 20 15 21
REMARK H PARENT
REMARK Flexibility Score: inf
ROOT
ATOM      1  C   UNL     1      95.915  95.181  78.108  1.00  0.00     0.071 C 
ATOM      2  C   UNL     1      94.935  94.314  78.358  1.00  0.00     0.006 C 
ENDROOT
BRANCH   1   3
ATOM      3  C   UNL     1      96.745  95.638  79.241  1.00  0.00     0.246 C 
ATOM      4  O   UNL     1      96.299  95.470  80.376  1.00  0.00    -0.270 OA
ATOM      5  N   UNL     1      97.972  96.231  78.949  1.00  0.00    -0.339 N 
ATOM      6  C   UNL     1      98.816  96.699  80.052  1.00  0.00     0.120 C 
ATOM      7  C   UNL     1      98.516  96.488  77.607  1.00  0.00     0.120 C 
ATOM      8  C   UNL     1     100.228  96.130  79.954  1.00  0.00     0.022 C 
ATOM      9  C   UNL     1      99.934  95.935  77.470  1.00  0.00     0.022 C 
ATOM     10  C   UNL     1     100.844  96.429  78.591  1.00  0.00     0.004 C 
ENDBRANCH   1   3
BRANCH   2  11
ATOM     11  C   UNL     1      94.069  93.810  77.314  1.00  0.00     0.001 C 
ATOM     12  C   UNL     1      92.736  93.727  77.454  1.00  0.00     0.008 C 
BRANCH  12  13
ATOM     13  C   UNL     1      91.810  93.216  76.429  1.00  0.00    -0.022 A 
ATOM     14  C   UNL     1      90.991  92.138  76.737  1.00  0.00     0.058 A 
ATOM     15  C   UNL     1      91.782  93.830  75.174  1.00  0.00     0.012 A 
ATOM     16  C   UNL     1      90.140  91.695  75.744  1.00  0.00     0.166 A 
ATOM     17  C   UNL     1      90.911  93.360  74.188  1.00  0.00     0.051 A 
ATOM     18  O   UNL     1      89.265  90.658  75.848  1.00  0.00    -0.454 OA
ATOM     19  C   UNL     1      90.101  92.290  74.504  1.00  0.00     0.165 A 
ATOM     20  C   UNL     1      88.671  90.667  74.534  1.00  0.00     0.468 C 
ATOM     21  O   UNL     1      89.197  91.700  73.676  1.00  0.00    -0.454 OA
ENDBRANCH  12  13
ENDBRANCH   2  11
TORSDOF 3
ENDMDL
