MODEL 1
REMARK VINA RESULT:    -6.013      0.000      0.000
REMARK INTER + INTRA:         -10.664
REMARK INTER:                  -9.704
REMARK INTRA:                  -0.960
REMARK UNBOUND:                -0.960
REMARK SMILES CCCCCCCCC(=O)NCc1ccc(O)c(OC)c1
REMARK SMILES IDX 7 1 6 2 5 3 4 4 3 5 2 6 1 7 8 8 9 9 10 10 11 11 12 13 13 14
REMARK SMILES IDX 21 15 14 16 18 17 15 18 16 19 19 20 20 21 17 22
REMARK H PARENT 11 12 17 23
REMARK Flexibility Score: inf
ROOT
ATOM      1  C   UNL     1      93.677  96.450  74.862  1.00  0.00     0.010 C 
ENDROOT
BRANCH   1   2
ATOM      2  C   UNL     1      93.293  95.144  75.616  1.00  0.00     0.001 C 
BRANCH   2   3
ATOM      3  C   UNL     1      92.530  95.433  76.943  1.00  0.00     0.000 C 
BRANCH   3   4
ATOM      4  C   UNL     1      91.443  94.374  77.284  1.00  0.00    -0.000 C 
BRANCH   4   5
ATOM      5  C   UNL     1      90.906  93.637  76.024  1.00  0.00    -0.000 C 
BRANCH   5   6
ATOM      6  C   UNL     1      91.164  92.107  76.074  1.00  0.00    -0.003 C 
ATOM      7  C   UNL     1      90.294  91.319  75.071  1.00  0.00     0.004 C 
ENDBRANCH   5   6
ENDBRANCH   4   5
ENDBRANCH   3   4
ENDBRANCH   2   3
ENDBRANCH   1   2
BRANCH   1   8
ATOM      8  C   UNL     1      95.149  96.477  74.362  1.00  0.00     0.100 C 
BRANCH   8   9
ATOM      9  C   UNL     1      96.047  97.103  75.361  1.00  0.00     0.220 C 
ATOM     10  O   UNL     1      96.263  98.336  75.279  1.00  0.00    -0.275 OA
ATOM     11  N   UNL     1      96.600  96.356  76.362  1.00  0.00    -0.352 N 
ATOM     12  H   UNL     1      96.431  95.363  76.284  1.00  0.00     0.163 HD
BRANCH  11  13
ATOM     13  C   UNL     1      97.363  96.864  77.460  1.00  0.00     0.151 C 
BRANCH  13  14
ATOM     14  C   UNL     1      96.848  96.450  78.793  1.00  0.00    -0.025 A 
ATOM     15  C   UNL     1      96.279  95.166  78.969  1.00  0.00     0.056 A 
ATOM     16  C   UNL     1      96.913  97.326  79.901  1.00  0.00     0.009 A 
ATOM     17  C   UNL     1      95.801  94.752  80.234  1.00  0.00     0.160 A 
ATOM     18  C   UNL     1      96.440  96.920  81.162  1.00  0.00     0.050 A 
ATOM     19  C   UNL     1      95.878  95.640  81.331  1.00  0.00     0.157 A 
BRANCH  17  20
ATOM     20  O   UNL     1      95.211  93.523  80.393  1.00  0.00    -0.493 OA
ATOM     21  C   UNL     1      94.310  93.161  79.333  1.00  0.00     0.278 C 
ENDBRANCH  17  20
BRANCH  19  22
ATOM     22  O   UNL     1      95.399  95.267  82.545  1.00  0.00    -0.504 OA
ATOM     23  H   UNL     1      95.643  95.925  83.201  1.00  0.00     0.293 HD
ENDBRANCH  19  22
ENDBRANCH  13  14
ENDBRANCH  11  13
ENDBRANCH   8   9
ENDBRANCH   1   8
TORSDOF 11
ENDMDL
MODEL 2
REMARK VINA RESULT:    -5.619     13.110     15.522
REMARK INTER + INTRA:         -10.029
REMARK INTER:                  -9.377
REMARK INTRA:                  -0.652
REMARK UNBOUND:                -0.960
REMARK SMILES CCCCCCCCC(=O)NCc1ccc(O)c(OC)c1
REMARK SMILES IDX 7 1 6 2 5 3 4 4 3 5 2 6 1 7 8 8 9 9 10 10 11 11 12 13 13 14
REMARK SMILES IDX 21 15 14 16 18 17 15 18 16 19 19 20 20 21 17 22
REMARK H PARENT 11 12 17 23
REMARK Flexibility Score: inf
ROOT
ATOM      1  C   UNL     1      95.979  79.734  83.331  1.00  0.00     0.010 C 
ENDROOT
BRANCH   1   2
ATOM      2  C   UNL     1      94.826  79.970  84.348  1.00  0.00     0.001 C 
BRANCH   2   3
ATOM      3  C   UNL     1      94.339  81.449  84.353  1.00  0.00     0.000 C 
BRANCH   3   4
ATOM      4  C   UNL     1      92.945  81.648  85.012  1.00  0.00    -0.000 C 
BRANCH   4   5
ATOM      5  C   UNL     1      92.331  80.316  85.530  1.00  0.00    -0.000 C 
BRANCH   5   6
ATOM      6  C   UNL     1      90.780  80.309  85.464  1.00  0.00    -0.003 C 
ATOM      7  C   UNL     1      90.236  80.736  84.082  1.00  0.00     0.004 C 
ENDBRANCH   5   6
ENDBRANCH   4   5
ENDBRANCH   3   4
ENDBRANCH   2   3
ENDBRANCH   1   2
BRANCH   1   8
ATOM      8  C   UNL     1      96.326  80.982  82.472  1.00  0.00     0.100 C 
BRANCH   8   9
ATOM      9  C   UNL     1      97.089  80.606  81.257  1.00  0.00     0.220 C 
ATOM     10  O   UNL     1      97.100  79.401  80.910  1.00  0.00    -0.275 OA
ATOM     11  N   UNL     1      97.736  81.558  80.522  1.00  0.00    -0.352 N 
ATOM     12  H   UNL     1      97.735  82.478  80.937  1.00  0.00     0.163 HD
BRANCH  11  13
ATOM     13  C   UNL     1      98.382  81.345  79.263  1.00  0.00     0.151 C 
BRANCH  13  14
ATOM     14  C   UNL     1      97.612  81.856  78.098  1.00  0.00    -0.025 A 
ATOM     15  C   UNL     1      98.138  81.738  76.789  1.00  0.00     0.056 A 
ATOM     16  C   UNL     1      96.350  82.470  78.274  1.00  0.00     0.009 A 
ATOM     17  C   UNL     1      97.410  82.204  75.670  1.00  0.00     0.160 A 
ATOM     18  C   UNL     1      95.620  82.934  77.165  1.00  0.00     0.050 A 
ATOM     19  C   UNL     1      96.148  82.810  75.865  1.00  0.00     0.157 A 
BRANCH  17  20
ATOM     20  O   UNL     1      97.940  82.126  74.407  1.00  0.00    -0.493 OA
ATOM     21  C   UNL     1      98.791  83.232  74.057  1.00  0.00     0.278 C 
ENDBRANCH  17  20
BRANCH  19  22
ATOM     22  O   UNL     1      95.448  83.286  74.804  1.00  0.00    -0.504 OA
ATOM     23  H   UNL     1      95.887  83.029  73.990  1.00  0.00     0.293 HD
ENDBRANCH  19  22
ENDBRANCH  13  14
ENDBRANCH  11  13
ENDBRANCH   8   9
ENDBRANCH   1   8
TORSDOF 11
ENDMDL
MODEL 3
REMARK VINA RESULT:    -5.585     14.110     16.904
REMARK INTER + INTRA:          -9.974
REMARK INTER:                  -9.280
REMARK INTRA:                  -0.694
REMARK UNBOUND:                -0.960
REMARK SMILES CCCCCCCCC(=O)NCc1ccc(O)c(OC)c1
REMARK SMILES IDX 7 1 6 2 5 3 4 4 3 5 2 6 1 7 8 8 9 9 10 10 11 11 12 13 13 14
REMARK SMILES IDX 21 15 14 16 18 17 15 18 16 19 19 20 20 21 17 22
REMARK H PARENT 11 12 17 23
REMARK Flexibility Score: inf
ROOT
ATOM      1  C   UNL     1      95.643  80.284  83.463  1.00  0.00     0.010 C 
ENDROOT
BRANCH   1   2
ATOM      2  C   UNL     1      96.400  79.976  82.139  1.00  0.00     0.001 C 
BRANCH   2   3
ATOM      3  C   UNL     1      97.596  80.945  81.906  1.00  0.00     0.000 C 
BRANCH   3   4
ATOM      4  C   UNL     1      97.942  81.164  80.406  1.00  0.00    -0.000 C 
BRANCH   4   5
ATOM      5  C   UNL     1      96.942  82.119  79.693  1.00  0.00    -0.000 C 
BRANCH   5   6
ATOM      6  C   UNL     1      97.060  82.060  78.147  1.00  0.00    -0.003 C 
ATOM      7  C   UNL     1      97.249  80.623  77.614  1.00  0.00     0.004 C 
ENDBRANCH   5   6
ENDBRANCH   4   5
ENDBRANCH   3   4
ENDBRANCH   2   3
ENDBRANCH   1   2
BRANCH   1   8
ATOM      8  C   UNL     1      95.588  81.796  83.820  1.00  0.00     0.100 C 
BRANCH   8   9
ATOM      9  C   UNL     1      94.378  82.120  84.612  1.00  0.00     0.220 C 
ATOM     10  O   UNL     1      94.422  83.102  85.392  1.00  0.00    -0.275 OA
ATOM     11  N   UNL     1      93.237  81.382  84.471  1.00  0.00    -0.352 N 
ATOM     12  H   UNL     1      93.338  80.566  83.886  1.00  0.00     0.163 HD
BRANCH  11  13
ATOM     13  C   UNL     1      91.971  81.678  85.068  1.00  0.00     0.151 C 
BRANCH  13  14
ATOM     14  C   UNL     1      90.924  80.658  84.795  1.00  0.00    -0.025 A 
ATOM     15  C   UNL     1      89.555  81.014  84.833  1.00  0.00     0.056 A 
ATOM     16  C   UNL     1      91.273  79.320  84.498  1.00  0.00     0.009 A 
ATOM     17  C   UNL     1      88.549  80.059  84.558  1.00  0.00     0.160 A 
ATOM     18  C   UNL     1      90.278  78.366  84.222  1.00  0.00     0.050 A 
ATOM     19  C   UNL     1      88.918  78.728  84.259  1.00  0.00     0.157 A 
BRANCH  17  20
ATOM     20  O   UNL     1      87.222  80.396  84.636  1.00  0.00    -0.493 OA
ATOM     21  C   UNL     1      86.876  81.596  83.922  1.00  0.00     0.278 C 
ENDBRANCH  17  20
BRANCH  19  22
ATOM     22  O   UNL     1      87.963  77.793  84.019  1.00  0.00    -0.504 OA
ATOM     23  H   UNL     1      87.644  77.439  84.853  1.00  0.00     0.293 HD
ENDBRANCH  19  22
ENDBRANCH  13  14
ENDBRANCH  11  13
ENDBRANCH   8   9
ENDBRANCH   1   8
TORSDOF 11
ENDMDL
MODEL 4
REMARK VINA RESULT:    -5.506      8.778     11.868
REMARK INTER + INTRA:          -9.846
REMARK INTER:                  -7.841
REMARK INTRA:                  -2.004
REMARK UNBOUND:                -0.960
REMARK SMILES CCCCCCCCC(=O)NCc1ccc(O)c(OC)c1
REMARK SMILES IDX 7 1 6 2 5 3 4 4 3 5 2 6 1 7 8 8 9 9 10 10 11 11 12 13 13 14
REMARK SMILES IDX 21 15 14 16 18 17 15 18 16 19 19 20 20 21 17 22
REMARK H PARENT 11 12 17 23
REMARK Flexibility Score: inf
ROOT
ATOM      1  C   UNL     1      87.154 101.043  66.941  1.00  0.00     0.010 C 
ENDROOT
BRANCH   1   2
ATOM      2  C   UNL     1      87.892 102.249  66.291  1.00  0.00     0.001 C 
BRANCH   2   3
ATOM      3  C   UNL     1      88.929 102.895  67.257  1.00  0.00     0.000 C 
BRANCH   3   4
ATOM      4  C   UNL     1      90.364 102.986  66.666  1.00  0.00    -0.000 C 
BRANCH   4   5
ATOM      5  C   UNL     1      91.055 101.598  66.550  1.00  0.00    -0.000 C 
BRANCH   5   6
ATOM      6  C   UNL     1      92.187 101.407  67.594  1.00  0.00    -0.003 C 
ATOM      7  C   UNL     1      92.484 102.691  68.399  1.00  0.00     0.004 C 
ENDBRANCH   5   6
ENDBRANCH   4   5
ENDBRANCH   3   4
ENDBRANCH   2   3
ENDBRANCH   1   2
BRANCH   1   8
ATOM      8  C   UNL     1      87.478  99.675  66.278  1.00  0.00     0.100 C 
BRANCH   8   9
ATOM      9  C   UNL     1      88.568  98.971  66.996  1.00  0.00     0.220 C 
ATOM     10  O   UNL     1      89.543  98.549  66.330  1.00  0.00    -0.275 OA
ATOM     11  N   UNL     1      88.518  98.816  68.351  1.00  0.00    -0.352 N 
ATOM     12  H   UNL     1      87.651  99.114  68.774  1.00  0.00     0.163 HD
BRANCH  11  13
ATOM     13  C   UNL     1      89.565  98.285  69.170  1.00  0.00     0.151 C 
BRANCH  13  14
ATOM     14  C   UNL     1      90.237  99.303  70.021  1.00  0.00    -0.025 A 
ATOM     15  C   UNL     1      91.534  99.058  70.534  1.00  0.00     0.056 A 
ATOM     16  C   UNL     1      89.599 100.525  70.335  1.00  0.00     0.009 A 
ATOM     17  C   UNL     1      92.193 100.023  71.330  1.00  0.00     0.160 A 
ATOM     18  C   UNL     1      90.249 101.489  71.125  1.00  0.00     0.050 A 
ATOM     19  C   UNL     1      91.540 101.241  71.630  1.00  0.00     0.157 A 
BRANCH  17  20
ATOM     20  O   UNL     1      93.431  99.767  71.861  1.00  0.00    -0.493 OA
ATOM     21  C   UNL     1      93.404  98.994  73.074  1.00  0.00     0.278 C 
ENDBRANCH  17  20
BRANCH  19  22
ATOM     22  O   UNL     1      92.148 102.167  72.414  1.00  0.00    -0.504 OA
ATOM     23  H   UNL     1      91.735 102.174  73.280  1.00  0.00     0.293 HD
ENDBRANCH  19  22
ENDBRANCH  13  14
ENDBRANCH  11  13
ENDBRANCH   8   9
ENDBRANCH   1   8
TORSDOF 11
ENDMDL
MODEL 5
REMARK VINA RESULT:    -5.412     12.811     15.109
REMARK INTER + INTRA:          -9.694
REMARK INTER:                  -8.976
REMARK INTRA:                  -0.718
REMARK UNBOUND:                -0.960
REMARK SMILES CCCCCCCCC(=O)NCc1ccc(O)c(OC)c1
REMARK SMILES IDX 7 1 6 2 5 3 4 4 3 5 2 6 1 7 8 8 9 9 10 10 11 11 12 13 13 14
REMARK SMILES IDX 21 15 14 16 18 17 15 18 16 19 19 20 20 21 17 22
REMARK H PARENT 11 12 17 23
REMARK Flexibility Score: inf
ROOT
ATOM      1  C   UNL     1      97.304  81.567  77.768  1.00  0.00     0.010 C 
ENDROOT
BRANCH   1   2
ATOM      2  C   UNL     1      97.818  81.727  79.228  1.00  0.00     0.001 C 
BRANCH   2   3
ATOM      3  C   UNL     1      97.438  80.512  80.124  1.00  0.00     0.000 C 
BRANCH   3   4
ATOM      4  C   UNL     1      96.970  80.908  81.553  1.00  0.00    -0.000 C 
BRANCH   4   5
ATOM      5  C   UNL     1      96.539  82.399  81.651  1.00  0.00    -0.000 C 
BRANCH   5   6
ATOM      6  C   UNL     1      95.947  82.758  83.041  1.00  0.00    -0.003 C 
ATOM      7  C   UNL     1      95.243  81.563  83.720  1.00  0.00     0.004 C 
ENDBRANCH   5   6
ENDBRANCH   4   5
ENDBRANCH   3   4
ENDBRANCH   2   3
ENDBRANCH   1   2
BRANCH   1   8
ATOM      8  C   UNL     1      96.018  82.384  77.461  1.00  0.00     0.100 C 
BRANCH   8   9
ATOM      9  C   UNL     1      96.111  83.062  76.146  1.00  0.00     0.220 C 
ATOM     10  O   UNL     1      95.531  84.166  76.003  1.00  0.00    -0.275 OA
ATOM     11  N   UNL     1      96.835  82.509  75.129  1.00  0.00    -0.352 N 
ATOM     12  H   UNL     1      97.186  81.582  75.323  1.00  0.00     0.163 HD
BRANCH  11  13
ATOM     13  C   UNL     1      97.116  83.128  73.870  1.00  0.00     0.151 C 
BRANCH  13  14
ATOM     14  C   UNL     1      98.532  82.988  73.434  1.00  0.00    -0.025 A 
ATOM     15  C   UNL     1      99.161  81.720  73.454  1.00  0.00     0.056 A 
ATOM     16  C   UNL     1      99.272  84.111  72.998  1.00  0.00     0.009 A 
ATOM     17  C   UNL     1     100.500  81.569  73.026  1.00  0.00     0.160 A 
ATOM     18  C   UNL     1     100.604  83.967  72.570  1.00  0.00     0.050 A 
ATOM     19  C   UNL     1     101.223  82.702  72.590  1.00  0.00     0.157 A 
BRANCH  17  20
ATOM     20  O   UNL     1     101.122  80.347  73.086  1.00  0.00    -0.493 OA
ATOM     21  C   UNL     1     100.824  79.480  71.978  1.00  0.00     0.278 C 
ENDBRANCH  17  20
BRANCH  19  22
ATOM     22  O   UNL     1     102.518  82.578  72.201  1.00  0.00    -0.504 OA
ATOM     23  H   UNL     1     102.961  83.426  72.288  1.00  0.00     0.293 HD
ENDBRANCH  19  22
ENDBRANCH  13  14
ENDBRANCH  11  13
ENDBRANCH   8   9
ENDBRANCH   1   8
TORSDOF 11
ENDMDL
MODEL 6
REMARK VINA RESULT:    -5.382      5.984      9.721
REMARK INTER + INTRA:          -9.646
REMARK INTER:                  -9.128
REMARK INTRA:                  -0.518
REMARK UNBOUND:                -0.960
REMARK SMILES CCCCCCCCC(=O)NCc1ccc(O)c(OC)c1
REMARK SMILES IDX 7 1 6 2 5 3 4 4 3 5 2 6 1 7 8 8 9 9 10 10 11 11 12 13 13 14
REMARK SMILES IDX 21 15 14 16 18 17 15 18 16 19 19 20 20 21 17 22
REMARK H PARENT 11 12 17 23
REMARK Flexibility Score: inf
ROOT
ATOM      1  C   UNL     1      94.666  97.579  74.487  1.00  0.00     0.010 C 
ENDROOT
BRANCH   1   2
ATOM      2  C   UNL     1      93.464  96.629  74.751  1.00  0.00     0.001 C 
BRANCH   2   3
ATOM      3  C   UNL     1      93.811  95.510  75.778  1.00  0.00     0.000 C 
BRANCH   3   4
ATOM      4  C   UNL     1      92.920  95.530  77.052  1.00  0.00    -0.000 C 
BRANCH   4   5
ATOM      5  C   UNL     1      93.179  94.312  77.984  1.00  0.00    -0.000 C 
BRANCH   5   6
ATOM      6  C   UNL     1      91.975  93.333  78.033  1.00  0.00    -0.003 C 
ATOM      7  C   UNL     1      90.730  93.875  77.297  1.00  0.00     0.004 C 
ENDBRANCH   5   6
ENDBRANCH   4   5
ENDBRANCH   3   4
ENDBRANCH   2   3
ENDBRANCH   1   2
BRANCH   1   8
ATOM      8  C   UNL     1      94.833  97.984  72.995  1.00  0.00     0.100 C 
BRANCH   8   9
ATOM      9  C   UNL     1      93.993  99.157  72.657  1.00  0.00     0.220 C 
ATOM     10  O   UNL     1      94.424 100.300  72.941  1.00  0.00    -0.275 OA
ATOM     11  N   UNL     1      92.793  98.992  72.026  1.00  0.00    -0.352 N 
ATOM     12  H   UNL     1      92.504  98.031  71.923  1.00  0.00     0.163 HD
BRANCH  11  13
ATOM     13  C   UNL     1      91.962 100.043  71.523  1.00  0.00     0.151 C 
BRANCH  13  14
ATOM     14  C   UNL     1      91.054  99.618  70.424  1.00  0.00    -0.025 A 
ATOM     15  C   UNL     1      90.978 100.375  69.230  1.00  0.00     0.056 A 
ATOM     16  C   UNL     1      90.252  98.461  70.551  1.00  0.00     0.009 A 
ATOM     17  C   UNL     1      90.132  99.974  68.170  1.00  0.00     0.160 A 
ATOM     18  C   UNL     1      89.410  98.056  69.500  1.00  0.00     0.050 A 
ATOM     19  C   UNL     1      89.341  98.812  68.314  1.00  0.00     0.157 A 
BRANCH  17  20
ATOM     20  O   UNL     1      90.028 100.732  67.031  1.00  0.00    -0.493 OA
ATOM     21  C   UNL     1      91.069 100.492  66.068  1.00  0.00     0.278 C 
ENDBRANCH  17  20
BRANCH  19  22
ATOM     22  O   UNL     1      88.504  98.428  67.316  1.00  0.00    -0.504 OA
ATOM     23  H   UNL     1      88.992  98.383  66.490  1.00  0.00     0.293 HD
ENDBRANCH  19  22
ENDBRANCH  13  14
ENDBRANCH  11  13
ENDBRANCH   8   9
ENDBRANCH   1   8
TORSDOF 11
ENDMDL
MODEL 7
REMARK VINA RESULT:    -5.143     34.422     38.129
REMARK INTER + INTRA:          -9.260
REMARK INTER:                  -8.710
REMARK INTRA:                  -0.550
REMARK UNBOUND:                -0.960
REMARK SMILES CCCCCCCCC(=O)NCc1ccc(O)c(OC)c1
REMARK SMILES IDX 7 1 6 2 5 3 4 4 3 5 2 6 1 7 8 8 9 9 10 10 11 11 12 13 13 14
REMARK SMILES IDX 21 15 14 16 18 17 15 18 16 19 19 20 20 21 17 22
REMARK H PARENT 11 12 17 23
REMARK Flexibility Score: inf
ROOT
ATOM      1  C   UNL     1      57.583  87.236  70.433  1.00  0.00     0.010 C 
ENDROOT
BRANCH   1   2
ATOM      2  C   UNL     1      56.351  88.153  70.679  1.00  0.00     0.001 C 
BRANCH   2   3
ATOM      3  C   UNL     1      55.518  88.382  69.383  1.00  0.00     0.000 C 
BRANCH   3   4
ATOM      4  C   UNL     1      54.695  89.701  69.391  1.00  0.00    -0.000 C 
BRANCH   4   5
ATOM      5  C   UNL     1      53.260  89.516  68.822  1.00  0.00    -0.000 C 
BRANCH   5   6
ATOM      6  C   UNL     1      53.235  88.644  67.538  1.00  0.00    -0.003 C 
ATOM      7  C   UNL     1      53.230  89.485  66.242  1.00  0.00     0.004 C 
ENDBRANCH   5   6
ENDBRANCH   4   5
ENDBRANCH   3   4
ENDBRANCH   2   3
ENDBRANCH   1   2
BRANCH   1   8
ATOM      8  C   UNL     1      57.236  85.724  70.350  1.00  0.00     0.100 C 
BRANCH   8   9
ATOM      9  C   UNL     1      57.711  84.994  71.551  1.00  0.00     0.220 C 
ATOM     10  O   UNL     1      56.906  84.239  72.146  1.00  0.00    -0.275 OA
ATOM     11  N   UNL     1      59.003  85.124  71.975  1.00  0.00    -0.352 N 
ATOM     12  H   UNL     1      59.538  85.821  71.477  1.00  0.00     0.163 HD
BRANCH  11  13
ATOM     13  C   UNL     1      59.617  84.371  73.026  1.00  0.00     0.151 C 
BRANCH  13  14
ATOM     14  C   UNL     1      60.788  83.567  72.585  1.00  0.00    -0.025 A 
ATOM     15  C   UNL     1      61.716  84.107  71.663  1.00  0.00     0.056 A 
ATOM     16  C   UNL     1      60.993  82.255  73.071  1.00  0.00     0.009 A 
ATOM     17  C   UNL     1      62.843  83.361  71.248  1.00  0.00     0.160 A 
ATOM     18  C   UNL     1      62.112  81.508  72.663  1.00  0.00     0.050 A 
ATOM     19  C   UNL     1      63.034  82.053  71.748  1.00  0.00     0.157 A 
BRANCH  17  20
ATOM     20  O   UNL     1      63.719  83.870  70.323  1.00  0.00    -0.493 OA
ATOM     21  C   UNL     1      63.222  85.016  69.609  1.00  0.00     0.278 C 
ENDBRANCH  17  20
BRANCH  19  22
ATOM     22  O   UNL     1      64.096  81.314  71.338  1.00  0.00    -0.504 OA
ATOM     23  H   UNL     1      64.603  81.031  72.104  1.00  0.00     0.293 HD
ENDBRANCH  19  22
ENDBRANCH  13  14
ENDBRANCH  11  13
ENDBRANCH   8   9
ENDBRANCH   1   8
TORSDOF 11
ENDMDL
MODEL 8
REMARK VINA RESULT:    -5.111     23.361     27.137
REMARK INTER + INTRA:          -9.209
REMARK INTER:                  -8.486
REMARK INTRA:                  -0.723
REMARK UNBOUND:                -0.960
REMARK SMILES CCCCCCCCC(=O)NCc1ccc(O)c(OC)c1
REMARK SMILES IDX 7 1 6 2 5 3 4 4 3 5 2 6 1 7 8 8 9 9 10 10 11 11 12 13 13 14
REMARK SMILES IDX 21 15 14 16 18 17 15 18 16 19 19 20 20 21 17 22
REMARK H PARENT 11 12 17 23
REMARK Flexibility Score: inf
ROOT
ATOM      1  C   UNL     1      70.217  83.629  65.464  1.00  0.00     0.010 C 
ENDROOT
BRANCH   1   2
ATOM      2  C   UNL     1      70.195  84.373  66.830  1.00  0.00     0.001 C 
BRANCH   2   3
ATOM      3  C   UNL     1      68.770  84.408  67.458  1.00  0.00     0.000 C 
BRANCH   3   4
ATOM      4  C   UNL     1      68.720  83.898  68.926  1.00  0.00    -0.000 C 
BRANCH   4   5
ATOM      5  C   UNL     1      69.424  84.863  69.922  1.00  0.00    -0.000 C 
BRANCH   5   6
ATOM      6  C   UNL     1      68.448  85.442  70.981  1.00  0.00    -0.003 C 
ATOM      7  C   UNL     1      68.295  86.976  70.883  1.00  0.00     0.004 C 
ENDBRANCH   5   6
ENDBRANCH   4   5
ENDBRANCH   3   4
ENDBRANCH   2   3
ENDBRANCH   1   2
BRANCH   1   8
ATOM      8  C   UNL     1      70.458  82.099  65.584  1.00  0.00     0.100 C 
BRANCH   8   9
ATOM      9  C   UNL     1      71.847  81.739  65.211  1.00  0.00     0.220 C 
ATOM     10  O   UNL     1      72.028  80.727  64.493  1.00  0.00    -0.275 OA
ATOM     11  N   UNL     1      72.897  82.512  65.618  1.00  0.00    -0.352 N 
ATOM     12  H   UNL     1      72.648  83.250  66.261  1.00  0.00     0.163 HD
BRANCH  11  13
ATOM     13  C   UNL     1      74.259  82.353  65.210  1.00  0.00     0.151 C 
BRANCH  13  14
ATOM     14  C   UNL     1      75.215  83.214  65.957  1.00  0.00    -0.025 A 
ATOM     15  C   UNL     1      74.738  84.159  66.897  1.00  0.00     0.056 A 
ATOM     16  C   UNL     1      76.609  83.110  65.742  1.00  0.00     0.009 A 
ATOM     17  C   UNL     1      75.635  84.972  67.627  1.00  0.00     0.160 A 
ATOM     18  C   UNL     1      77.506  83.915  66.465  1.00  0.00     0.050 A 
ATOM     19  C   UNL     1      77.025  84.850  67.401  1.00  0.00     0.157 A 
BRANCH  17  20
ATOM     20  O   UNL     1      75.169  85.916  68.507  1.00  0.00    -0.493 OA
ATOM     21  C   UNL     1      74.393  85.378  69.592  1.00  0.00     0.278 C 
ENDBRANCH  17  20
BRANCH  19  22
ATOM     22  O   UNL     1      77.898  85.642  68.075  1.00  0.00    -0.504 OA
ATOM     23  H   UNL     1      77.685  85.630  69.011  1.00  0.00     0.293 HD
ENDBRANCH  19  22
ENDBRANCH  13  14
ENDBRANCH  11  13
ENDBRANCH   8   9
ENDBRANCH   1   8
TORSDOF 11
ENDMDL
MODEL 9
REMARK VINA RESULT:    -4.873     14.076     16.086
REMARK INTER + INTRA:          -8.825
REMARK INTER:                  -8.291
REMARK INTRA:                  -0.534
REMARK UNBOUND:                -0.960
REMARK SMILES CCCCCCCCC(=O)NCc1ccc(O)c(OC)c1
REMARK SMILES IDX 7 1 6 2 5 3 4 4 3 5 2 6 1 7 8 8 9 9 10 10 11 11 12 13 13 14
REMARK SMILES IDX 21 15 14 16 18 17 15 18 16 19 19 20 20 21 17 22
REMARK H PARENT 11 12 17 23
REMARK Flexibility Score: inf
ROOT
ATOM      1  C   UNL     1      95.548  81.246  83.912  1.00  0.00     0.010 C 
ENDROOT
BRANCH   1   2
ATOM      2  C   UNL     1      95.986  80.747  82.505  1.00  0.00     0.001 C 
BRANCH   2   3
ATOM      3  C   UNL     1      97.455  81.142  82.171  1.00  0.00     0.000 C 
BRANCH   3   4
ATOM      4  C   UNL     1      97.820  80.984  80.668  1.00  0.00    -0.000 C 
BRANCH   4   5
ATOM      5  C   UNL     1      97.099  82.023  79.763  1.00  0.00    -0.000 C 
BRANCH   5   6
ATOM      6  C   UNL     1      97.614  81.998  78.299  1.00  0.00    -0.003 C 
ATOM      7  C   UNL     1      96.558  81.475  77.300  1.00  0.00     0.004 C 
ENDBRANCH   5   6
ENDBRANCH   4   5
ENDBRANCH   3   4
ENDBRANCH   2   3
ENDBRANCH   1   2
BRANCH   1   8
ATOM      8  C   UNL     1      95.598  82.791  84.076  1.00  0.00     0.100 C 
BRANCH   8   9
ATOM      9  C   UNL     1      94.957  83.220  85.342  1.00  0.00     0.220 C 
ATOM     10  O   UNL     1      95.695  83.590  86.287  1.00  0.00    -0.275 OA
ATOM     11  N   UNL     1      93.597  83.238  85.459  1.00  0.00    -0.352 N 
ATOM     12  H   UNL     1      93.105  82.840  84.673  1.00  0.00     0.163 HD
BRANCH  11  13
ATOM     13  C   UNL     1      92.861  83.762  86.569  1.00  0.00     0.151 C 
BRANCH  13  14
ATOM     14  C   UNL     1      91.738  82.892  87.010  1.00  0.00    -0.025 A 
ATOM     15  C   UNL     1      90.976  82.175  86.057  1.00  0.00     0.056 A 
ATOM     16  C   UNL     1      91.409  82.767  88.380  1.00  0.00     0.009 A 
ATOM     17  C   UNL     1      89.917  81.331  86.462  1.00  0.00     0.160 A 
ATOM     18  C   UNL     1      90.358  81.928  88.789  1.00  0.00     0.050 A 
ATOM     19  C   UNL     1      89.605  81.216  87.835  1.00  0.00     0.157 A 
BRANCH  17  20
ATOM     20  O   UNL     1      89.152  80.670  85.533  1.00  0.00    -0.493 OA
ATOM     21  C   UNL     1      89.843  80.369  84.308  1.00  0.00     0.278 C 
ENDBRANCH  17  20
BRANCH  19  22
ATOM     22  O   UNL     1      88.574  80.430  88.239  1.00  0.00    -0.504 OA
ATOM     23  H   UNL     1      87.752  80.920  88.169  1.00  0.00     0.293 HD
ENDBRANCH  19  22
ENDBRANCH  13  14
ENDBRANCH  11  13
ENDBRANCH   8   9
ENDBRANCH   1   8
TORSDOF 11
ENDMDL
MODEL 10
REMARK VINA RESULT:    -4.861     12.973     14.612
REMARK INTER + INTRA:          -8.805
REMARK INTER:                  -8.290
REMARK INTRA:                  -0.515
REMARK UNBOUND:                -0.960
REMARK SMILES CCCCCCCCC(=O)NCc1ccc(O)c(OC)c1
REMARK SMILES IDX 7 1 6 2 5 3 4 4 3 5 2 6 1 7 8 8 9 9 10 10 11 11 12 13 13 14
REMARK SMILES IDX 21 15 14 16 18 17 15 18 16 19 19 20 20 21 17 22
REMARK H PARENT 11 12 17 23
REMARK Flexibility Score: inf
ROOT
ATOM      1  C   UNL     1     101.361  83.817  69.603  1.00  0.00     0.010 C 
ENDROOT
BRANCH   1   2
ATOM      2  C   UNL     1     100.837  84.878  68.593  1.00  0.00     0.001 C 
BRANCH   2   3
ATOM      3  C   UNL     1     100.942  84.391  67.118  1.00  0.00     0.000 C 
BRANCH   3   4
ATOM      4  C   UNL     1     100.064  85.203  66.125  1.00  0.00    -0.000 C 
BRANCH   4   5
ATOM      5  C   UNL     1      98.682  84.538  65.865  1.00  0.00    -0.000 C 
BRANCH   5   6
ATOM      6  C   UNL     1      97.575  85.575  65.535  1.00  0.00    -0.003 C 
ATOM      7  C   UNL     1      97.558  86.768  66.516  1.00  0.00     0.004 C 
ENDBRANCH   5   6
ENDBRANCH   4   5
ENDBRANCH   3   4
ENDBRANCH   2   3
ENDBRANCH   1   2
BRANCH   1   8
ATOM      8  C   UNL     1     101.181  84.222  71.093  1.00  0.00     0.100 C 
BRANCH   8   9
ATOM      9  C   UNL     1     100.905  83.040  71.944  1.00  0.00     0.220 C 
ATOM     10  O   UNL     1     101.714  82.082  71.913  1.00  0.00    -0.275 OA
ATOM     11  N   UNL     1      99.812  83.014  72.762  1.00  0.00    -0.352 N 
ATOM     12  H   UNL     1      99.184  83.795  72.645  1.00  0.00     0.163 HD
BRANCH  11  13
ATOM     13  C   UNL     1      99.515  82.001  73.728  1.00  0.00     0.151 C 
BRANCH  13  14
ATOM     14  C   UNL     1      98.381  82.342  74.629  1.00  0.00    -0.025 A 
ATOM     15  C   UNL     1      98.257  81.708  75.888  1.00  0.00     0.056 A 
ATOM     16  C   UNL     1      97.411  83.297  74.246  1.00  0.00     0.009 A 
ATOM     17  C   UNL     1      97.195  82.035  76.762  1.00  0.00     0.160 A 
ATOM     18  C   UNL     1      96.354  83.628  75.112  1.00  0.00     0.050 A 
ATOM     19  C   UNL     1      96.237  82.995  76.364  1.00  0.00     0.157 A 
BRANCH  17  20
ATOM     20  O   UNL     1      97.052  81.389  77.964  1.00  0.00    -0.493 OA
ATOM     21  C   UNL     1      98.052  81.732  78.939  1.00  0.00     0.278 C 
ENDBRANCH  17  20
BRANCH  19  22
ATOM     22  O   UNL     1      95.197  83.301  77.181  1.00  0.00    -0.504 OA
ATOM     23  H   UNL     1      94.394  82.899  76.841  1.00  0.00     0.293 HD
ENDBRANCH  19  22
ENDBRANCH  13  14
ENDBRANCH  11  13
ENDBRANCH   8   9
ENDBRANCH   1   8
TORSDOF 11
ENDMDL
