MODEL 1
REMARK VINA RESULT:    -7.078      0.000      0.000
REMARK INTER + INTRA:         -11.731
REMARK INTER:                 -11.010
REMARK INTRA:                  -0.721
REMARK UNBOUND:                -0.721
REMARK SMILES COc1cc(CNC(=O)CCCC/C=C/C(C)C)ccc1O
REMARK SMILES IDX 10 1 8 2 7 3 9 5 6 6 5 7 3 8 21 9 4 10 20 11 19 12 2 13 1 14
REMARK SMILES IDX 22 15 11 17 12 18 13 19 14 20 15 21 16 22 17 23 18 24
REMARK H PARENT 7 4 22 16
REMARK Flexibility Score: inf
ROOT
ATOM      1  C   UNL     1      93.106  83.402  85.502  1.00  0.00     0.100 C 
ENDROOT
BRANCH   1   2
ATOM      2  C   UNL     1      92.354  82.278  84.913  1.00  0.00     0.220 C 
ATOM      3  N   UNL     1      91.087  81.999  85.330  1.00  0.00    -0.352 N 
ATOM      4  H   UNL     1      90.740  82.597  86.067  1.00  0.00     0.163 HD
ATOM      5  O   UNL     1      92.905  81.607  84.007  1.00  0.00    -0.275 OA
BRANCH   3   6
ATOM      6  C   UNL     1      90.266  80.956  84.803  1.00  0.00     0.151 C 
BRANCH   6   7
ATOM      7  C   UNL     1      88.967  81.483  84.302  1.00  0.00    -0.025 A 
ATOM      8  C   UNL     1      87.264  83.261  84.264  1.00  0.00     0.160 A 
ATOM      9  C   UNL     1      86.503  82.513  83.343  1.00  0.00     0.157 A 
ATOM     10  C   UNL     1      88.487  82.739  84.737  1.00  0.00     0.056 A 
ATOM     11  C   UNL     1      86.960  81.250  82.916  1.00  0.00     0.050 A 
ATOM     12  C   UNL     1      88.187  80.743  83.384  1.00  0.00     0.009 A 
BRANCH   8  13
ATOM     13  O   UNL     1      86.792  84.461  84.733  1.00  0.00    -0.493 OA
ATOM     14  C   UNL     1      86.199  84.386  86.042  1.00  0.00     0.278 C 
ENDBRANCH   8  13
BRANCH   9  15
ATOM     15  O   UNL     1      85.328  82.992  82.858  1.00  0.00    -0.504 OA
ATOM     16  H   UNL     1      85.503  83.712  82.247  1.00  0.00     0.293 HD
ENDBRANCH   9  15
ENDBRANCH   6   7
ENDBRANCH   3   6
ENDBRANCH   1   2
BRANCH   1  17
ATOM     17  C   UNL     1      94.565  82.998  85.845  1.00  0.00     0.010 C 
BRANCH  17  18
ATOM     18  C   UNL     1      95.607  84.066  85.408  1.00  0.00     0.005 C 
BRANCH  18  19
ATOM     19  C   UNL     1      95.555  84.353  83.883  1.00  0.00     0.027 C 
BRANCH  19  20
ATOM     20  C   UNL     1      96.511  83.544  83.141  1.00  0.00    -0.031 C 
ATOM     21  C   UNL     1      96.408  83.267  81.829  1.00  0.00    -0.028 C 
BRANCH  21  22
ATOM     22  C   UNL     1      97.392  82.467  81.099  1.00  0.00     0.005 C 
ATOM     23  C   UNL     1      97.057  80.950  81.128  1.00  0.00     0.012 C 
ATOM     24  C   UNL     1      97.521  82.977  79.640  1.00  0.00     0.012 C 
ENDBRANCH  21  22
ENDBRANCH  19  20
ENDBRANCH  18  19
ENDBRANCH  17  18
ENDBRANCH   1  17
TORSDOF 10
ENDMDL
MODEL 2
REMARK VINA RESULT:    -6.951      1.374      2.061
REMARK INTER + INTRA:         -11.533
REMARK INTER:                 -11.035
REMARK INTRA:                  -0.498
REMARK UNBOUND:                -0.721
REMARK SMILES COc1cc(CNC(=O)CCCC/C=C/C(C)C)ccc1O
REMARK SMILES IDX 10 1 8 2 7 3 9 5 6 6 5 7 3 8 21 9 4 10 20 11 19 12 2 13 1 14
REMARK SMILES IDX 22 15 11 17 12 18 13 19 14 20 15 21 16 22 17 23 18 24
REMARK H PARENT 7 4 22 16
REMARK Flexibility Score: inf
ROOT
ATOM      1  C   UNL     1      94.242  81.528  83.901  1.00  0.00     0.100 C 
ENDROOT
BRANCH   1   2
ATOM      2  C   UNL     1      93.187  82.061  84.786  1.00  0.00     0.220 C 
ATOM      3  N   UNL     1      91.927  81.543  84.749  1.00  0.00    -0.352 N 
ATOM      4  H   UNL     1      91.788  80.809  84.069  1.00  0.00     0.163 HD
ATOM      5  O   UNL     1      93.492  82.981  85.582  1.00  0.00    -0.275 OA
BRANCH   3   6
ATOM      6  C   UNL     1      90.848  81.966  85.583  1.00  0.00     0.151 C 
BRANCH   6   7
ATOM      7  C   UNL     1      89.534  81.795  84.905  1.00  0.00    -0.025 A 
ATOM      8  C   UNL     1      87.254  82.603  84.447  1.00  0.00     0.160 A 
ATOM      9  C   UNL     1      87.030  81.494  83.604  1.00  0.00     0.157 A 
ATOM     10  C   UNL     1      88.502  82.741  85.090  1.00  0.00     0.056 A 
ATOM     11  C   UNL     1      88.043  80.532  83.425  1.00  0.00     0.050 A 
ATOM     12  C   UNL     1      89.290  80.685  84.063  1.00  0.00     0.009 A 
BRANCH   8  13
ATOM     13  O   UNL     1      86.248  83.507  84.676  1.00  0.00    -0.493 OA
ATOM     14  C   UNL     1      86.358  84.201  85.932  1.00  0.00     0.278 C 
ENDBRANCH   8  13
BRANCH   9  15
ATOM     15  O   UNL     1      85.844  81.338  82.960  1.00  0.00    -0.504 OA
ATOM     16  H   UNL     1      85.230  80.868  83.528  1.00  0.00     0.293 HD
ENDBRANCH   9  15
ENDBRANCH   6   7
ENDBRANCH   3   6
ENDBRANCH   1   2
BRANCH   1  17
ATOM     17  C   UNL     1      95.469  82.477  83.837  1.00  0.00     0.010 C 
BRANCH  17  18
ATOM     18  C   UNL     1      96.417  82.160  82.646  1.00  0.00     0.005 C 
BRANCH  18  19
ATOM     19  C   UNL     1      96.689  83.406  81.760  1.00  0.00     0.027 C 
BRANCH  19  20
ATOM     20  C   UNL     1      96.743  83.070  80.345  1.00  0.00    -0.031 C 
ATOM     21  C   UNL     1      97.721  83.467  79.511  1.00  0.00    -0.028 C 
BRANCH  21  22
ATOM     22  C   UNL     1      97.766  83.101  78.096  1.00  0.00     0.005 C 
ATOM     23  C   UNL     1      97.651  81.566  77.880  1.00  0.00     0.012 C 
ATOM     24  C   UNL     1      96.661  83.854  77.311  1.00  0.00     0.012 C 
ENDBRANCH  21  22
ENDBRANCH  19  20
ENDBRANCH  18  19
ENDBRANCH  17  18
ENDBRANCH   1  17
TORSDOF 10
ENDMDL
MODEL 3
REMARK VINA RESULT:    -6.604      5.849      7.474
REMARK INTER + INTRA:         -10.992
REMARK INTER:                 -10.379
REMARK INTRA:                  -0.613
REMARK UNBOUND:                -0.721
REMARK SMILES COc1cc(CNC(=O)CCCC/C=C/C(C)C)ccc1O
REMARK SMILES IDX 10 1 8 2 7 3 9 5 6 6 5 7 3 8 21 9 4 10 20 11 19 12 2 13 1 14
REMARK SMILES IDX 22 15 11 17 12 18 13 19 14 20 15 21 16 22 17 23 18 24
REMARK H PARENT 7 4 22 16
REMARK Flexibility Score: inf
ROOT
ATOM      1  C   UNL     1      92.106  74.977  82.015  1.00  0.00     0.100 C 
ENDROOT
BRANCH   1   2
ATOM      2  C   UNL     1      91.574  75.635  83.224  1.00  0.00     0.220 C 
ATOM      3  N   UNL     1      90.324  76.178  83.223  1.00  0.00    -0.352 N 
ATOM      4  H   UNL     1      89.831  76.110  82.343  1.00  0.00     0.163 HD
ATOM      5  O   UNL     1      92.294  75.656  84.252  1.00  0.00    -0.275 OA
BRANCH   3   6
ATOM      6  C   UNL     1      89.707  76.806  84.347  1.00  0.00     0.151 C 
BRANCH   6   7
ATOM      7  C   UNL     1      89.755  78.290  84.238  1.00  0.00    -0.025 A 
ATOM      8  C   UNL     1      88.596  80.462  84.225  1.00  0.00     0.160 A 
ATOM      9  C   UNL     1      89.831  81.121  84.053  1.00  0.00     0.157 A 
ATOM     10  C   UNL     1      88.569  79.054  84.313  1.00  0.00     0.056 A 
ATOM     11  C   UNL     1      91.019  80.371  83.957  1.00  0.00     0.050 A 
ATOM     12  C   UNL     1      90.984  78.966  84.058  1.00  0.00     0.009 A 
BRANCH   8  13
ATOM     13  O   UNL     1      87.429  81.183  84.253  1.00  0.00    -0.493 OA
ATOM     14  C   UNL     1      86.783  81.304  82.972  1.00  0.00     0.278 C 
ENDBRANCH   8  13
BRANCH   9  15
ATOM     15  O   UNL     1      89.892  82.476  83.977  1.00  0.00    -0.504 OA
ATOM     16  H   UNL     1      89.964  82.843  84.861  1.00  0.00     0.293 HD
ENDBRANCH   9  15
ENDBRANCH   6   7
ENDBRANCH   3   6
ENDBRANCH   1   2
BRANCH   1  17
ATOM     17  C   UNL     1      91.048  74.923  80.880  1.00  0.00     0.010 C 
BRANCH  17  18
ATOM     18  C   UNL     1      91.684  74.821  79.465  1.00  0.00     0.005 C 
BRANCH  18  19
ATOM     19  C   UNL     1      90.637  74.999  78.333  1.00  0.00     0.027 C 
BRANCH  19  20
ATOM     20  C   UNL     1      91.027  76.031  77.384  1.00  0.00    -0.031 C 
ATOM     21  C   UNL     1      90.175  76.651  76.548  1.00  0.00    -0.028 C 
BRANCH  21  22
ATOM     22  C   UNL     1      90.587  77.700  75.616  1.00  0.00     0.005 C 
ATOM     23  C   UNL     1      91.705  78.606  76.203  1.00  0.00     0.012 C 
ATOM     24  C   UNL     1      91.033  77.075  74.268  1.00  0.00     0.012 C 
ENDBRANCH  21  22
ENDBRANCH  19  20
ENDBRANCH  18  19
ENDBRANCH  17  18
ENDBRANCH   1  17
TORSDOF 10
ENDMDL
MODEL 4
REMARK VINA RESULT:    -6.058      4.195      8.319
REMARK INTER + INTRA:         -10.144
REMARK INTER:                  -9.225
REMARK INTRA:                  -0.919
REMARK UNBOUND:                -0.721
REMARK SMILES COc1cc(CNC(=O)CCCC/C=C/C(C)C)ccc1O
REMARK SMILES IDX 10 1 8 2 7 3 9 5 6 6 5 7 3 8 21 9 4 10 20 11 19 12 2 13 1 14
REMARK SMILES IDX 22 15 11 17 12 18 13 19 14 20 15 21 16 22 17 23 18 24
REMARK H PARENT 7 4 22 16
REMARK Flexibility Score: inf
ROOT
ATOM      1  C   UNL     1      93.185  84.027  85.935  1.00  0.00     0.100 C 
ENDROOT
BRANCH   1   2
ATOM      2  C   UNL     1      94.521  84.218  85.338  1.00  0.00     0.220 C 
ATOM      3  N   UNL     1      94.716  84.023  84.003  1.00  0.00    -0.352 N 
ATOM      4  H   UNL     1      93.897  83.723  83.492  1.00  0.00     0.163 HD
ATOM      5  O   UNL     1      95.457  84.587  86.087  1.00  0.00    -0.275 OA
BRANCH   3   6
ATOM      6  C   UNL     1      95.958  84.212  83.325  1.00  0.00     0.151 C 
BRANCH   6   7
ATOM      7  C   UNL     1      96.344  83.004  82.545  1.00  0.00    -0.025 A 
ATOM      8  C   UNL     1      97.197  81.994  80.468  1.00  0.00     0.160 A 
ATOM      9  C   UNL     1      97.103  80.713  81.051  1.00  0.00     0.157 A 
ATOM     10  C   UNL     1      96.815  83.125  81.219  1.00  0.00     0.056 A 
ATOM     11  C   UNL     1      96.616  80.575  82.366  1.00  0.00     0.050 A 
ATOM     12  C   UNL     1      96.249  81.711  83.112  1.00  0.00     0.009 A 
BRANCH   8  13
ATOM     13  O   UNL     1      97.607  82.128  79.166  1.00  0.00    -0.493 OA
ATOM     14  C   UNL     1      97.403  83.444  78.619  1.00  0.00     0.278 C 
ENDBRANCH   8  13
BRANCH   9  15
ATOM     15  O   UNL     1      97.474  79.604  80.361  1.00  0.00    -0.504 OA
ATOM     16  H   UNL     1      97.079  79.624  79.486  1.00  0.00     0.293 HD
ENDBRANCH   9  15
ENDBRANCH   6   7
ENDBRANCH   3   6
ENDBRANCH   1   2
BRANCH   1  17
ATOM     17  C   UNL     1      92.884  82.527  86.197  1.00  0.00     0.010 C 
BRANCH  17  18
ATOM     18  C   UNL     1      91.767  81.964  85.274  1.00  0.00     0.005 C 
BRANCH  18  19
ATOM     19  C   UNL     1      92.304  80.901  84.278  1.00  0.00     0.027 C 
BRANCH  19  20
ATOM     20  C   UNL     1      91.437  79.734  84.203  1.00  0.00    -0.031 C 
ATOM     21  C   UNL     1      91.809  78.492  84.561  1.00  0.00    -0.028 C 
BRANCH  21  22
ATOM     22  C   UNL     1      90.914  77.337  84.496  1.00  0.00     0.005 C 
ATOM     23  C   UNL     1      89.420  77.753  84.398  1.00  0.00     0.012 C 
ATOM     24  C   UNL     1      91.311  76.418  83.311  1.00  0.00     0.012 C 
ENDBRANCH  21  22
ENDBRANCH  19  20
ENDBRANCH  18  19
ENDBRANCH  17  18
ENDBRANCH   1  17
TORSDOF 10
ENDMDL
MODEL 5
REMARK VINA RESULT:    -6.031      3.054      5.335
REMARK INTER + INTRA:         -10.102
REMARK INTER:                  -9.468
REMARK INTRA:                  -0.634
REMARK UNBOUND:                -0.721
REMARK SMILES COc1cc(CNC(=O)CCCC/C=C/C(C)C)ccc1O
REMARK SMILES IDX 10 1 8 2 7 3 9 5 6 6 5 7 3 8 21 9 4 10 20 11 19 12 2 13 1 14
REMARK SMILES IDX 22 15 11 17 12 18 13 19 14 20 15 21 16 22 17 23 18 24
REMARK H PARENT 7 4 22 16
REMARK Flexibility Score: inf
ROOT
ATOM      1  C   UNL     1      97.561  81.521  83.347  1.00  0.00     0.100 C 
ENDROOT
BRANCH   1   2
ATOM      2  C   UNL     1      96.438  82.389  83.752  1.00  0.00     0.220 C 
ATOM      3  N   UNL     1      95.213  81.855  84.017  1.00  0.00    -0.352 N 
ATOM      4  H   UNL     1      95.147  80.855  83.891  1.00  0.00     0.163 HD
ATOM      5  O   UNL     1      96.652  83.620  83.866  1.00  0.00    -0.275 OA
BRANCH   3   6
ATOM      6  C   UNL     1      94.073  82.602  84.445  1.00  0.00     0.151 C 
BRANCH   6   7
ATOM      7  C   UNL     1      92.839  81.770  84.437  1.00  0.00    -0.025 A 
ATOM      8  C   UNL     1      91.766  79.556  84.355  1.00  0.00     0.160 A 
ATOM      9  C   UNL     1      90.498  80.167  84.439  1.00  0.00     0.157 A 
ATOM     10  C   UNL     1      92.923  80.362  84.353  1.00  0.00     0.056 A 
ATOM     11  C   UNL     1      90.397  81.570  84.504  1.00  0.00     0.050 A 
ATOM     12  C   UNL     1      91.559  82.367  84.513  1.00  0.00     0.009 A 
BRANCH   8  13
ATOM     13  O   UNL     1      91.866  78.194  84.226  1.00  0.00    -0.493 OA
ATOM     14  C   UNL     1      93.151  77.662  84.597  1.00  0.00     0.278 C 
ENDBRANCH   8  13
BRANCH   9  15
ATOM     15  O   UNL     1      89.364  79.419  84.457  1.00  0.00    -0.504 OA
ATOM     16  H   UNL     1      88.629  79.941  84.128  1.00  0.00     0.293 HD
ENDBRANCH   9  15
ENDBRANCH   6   7
ENDBRANCH   3   6
ENDBRANCH   1   2
BRANCH   1  17
ATOM     17  C   UNL     1      98.160  81.959  81.984  1.00  0.00     0.010 C 
BRANCH  17  18
ATOM     18  C   UNL     1      97.143  81.852  80.813  1.00  0.00     0.005 C 
BRANCH  18  19
ATOM     19  C   UNL     1      97.053  83.163  79.987  1.00  0.00     0.027 C 
BRANCH  19  20
ATOM     20  C   UNL     1      97.275  82.932  78.568  1.00  0.00    -0.031 C 
ATOM     21  C   UNL     1      97.167  83.882  77.621  1.00  0.00    -0.028 C 
BRANCH  21  22
ATOM     22  C   UNL     1      97.414  83.631  76.201  1.00  0.00     0.005 C 
ATOM     23  C   UNL     1      96.743  84.695  75.289  1.00  0.00     0.012 C 
ATOM     24  C   UNL     1      98.939  83.552  75.928  1.00  0.00     0.012 C 
ENDBRANCH  21  22
ENDBRANCH  19  20
ENDBRANCH  18  19
ENDBRANCH  17  18
ENDBRANCH   1  17
TORSDOF 10
ENDMDL
MODEL 6
REMARK VINA RESULT:    -6.008      3.416      5.794
REMARK INTER + INTRA:         -10.066
REMARK INTER:                  -9.324
REMARK INTRA:                  -0.742
REMARK UNBOUND:                -0.721
REMARK SMILES COc1cc(CNC(=O)CCCC/C=C/C(C)C)ccc1O
REMARK SMILES IDX 10 1 8 2 7 3 9 5 6 6 5 7 3 8 21 9 4 10 20 11 19 12 2 13 1 14
REMARK SMILES IDX 22 15 11 17 12 18 13 19 14 20 15 21 16 22 17 23 18 24
REMARK H PARENT 7 4 22 16
REMARK Flexibility Score: inf
ROOT
ATOM      1  C   UNL     1      92.850  82.882  85.920  1.00  0.00     0.100 C 
ENDROOT
BRANCH   1   2
ATOM      2  C   UNL     1      92.111  81.923  85.077  1.00  0.00     0.220 C 
ATOM      3  N   UNL     1      90.944  81.373  85.514  1.00  0.00    -0.352 N 
ATOM      4  H   UNL     1      90.661  81.656  86.443  1.00  0.00     0.163 HD
ATOM      5  O   UNL     1      92.576  81.652  83.943  1.00  0.00    -0.275 OA
BRANCH   3   6
ATOM      6  C   UNL     1      90.139  80.463  84.764  1.00  0.00     0.151 C 
BRANCH   6   7
ATOM      7  C   UNL     1      88.903  81.117  84.255  1.00  0.00    -0.025 A 
ATOM      8  C   UNL     1      87.364  83.039  84.240  1.00  0.00     0.160 A 
ATOM      9  C   UNL     1      86.560  82.388  83.281  1.00  0.00     0.157 A 
ATOM     10  C   UNL     1      88.525  82.398  84.719  1.00  0.00     0.056 A 
ATOM     11  C   UNL     1      86.913  81.104  82.824  1.00  0.00     0.050 A 
ATOM     12  C   UNL     1      88.081  80.476  83.299  1.00  0.00     0.009 A 
BRANCH   8  13
ATOM     13  O   UNL     1      86.989  84.261  84.737  1.00  0.00    -0.493 OA
ATOM     14  C   UNL     1      86.465  84.214  86.077  1.00  0.00     0.278 C 
ENDBRANCH   8  13
BRANCH   9  15
ATOM     15  O   UNL     1      85.443  82.984  82.790  1.00  0.00    -0.504 OA
ATOM     16  H   UNL     1      84.844  82.314  82.453  1.00  0.00     0.293 HD
ENDBRANCH   9  15
ENDBRANCH   6   7
ENDBRANCH   3   6
ENDBRANCH   1   2
BRANCH   1  17
ATOM     17  C   UNL     1      94.167  82.268  86.466  1.00  0.00     0.010 C 
BRANCH  17  18
ATOM     18  C   UNL     1      93.929  81.258  87.624  1.00  0.00     0.005 C 
BRANCH  18  19
ATOM     19  C   UNL     1      92.954  81.810  88.698  1.00  0.00     0.027 C 
BRANCH  19  20
ATOM     20  C   UNL     1      92.713  80.849  89.764  1.00  0.00    -0.031 C 
ATOM     21  C   UNL     1      92.925  81.098  91.069  1.00  0.00    -0.028 C 
BRANCH  21  22
ATOM     22  C   UNL     1      92.658  80.123  92.126  1.00  0.00     0.005 C 
ATOM     23  C   UNL     1      93.938  79.355  92.557  1.00  0.00     0.012 C 
ATOM     24  C   UNL     1      91.995  80.820  93.343  1.00  0.00     0.012 C 
ENDBRANCH  21  22
ENDBRANCH  19  20
ENDBRANCH  18  19
ENDBRANCH  17  18
ENDBRANCH   1  17
TORSDOF 10
ENDMDL
MODEL 7
REMARK VINA RESULT:    -5.870      4.119      8.075
REMARK INTER + INTRA:          -9.851
REMARK INTER:                  -8.931
REMARK INTRA:                  -0.920
REMARK UNBOUND:                -0.721
REMARK SMILES COc1cc(CNC(=O)CCCC/C=C/C(C)C)ccc1O
REMARK SMILES IDX 10 1 8 2 7 3 9 5 6 6 5 7 3 8 21 9 4 10 20 11 19 12 2 13 1 14
REMARK SMILES IDX 22 15 11 17 12 18 13 19 14 20 15 21 16 22 17 23 18 24
REMARK H PARENT 7 4 22 16
REMARK Flexibility Score: inf
ROOT
ATOM      1  C   UNL     1      93.306  83.943  85.686  1.00  0.00     0.100 C 
ENDROOT
BRANCH   1   2
ATOM      2  C   UNL     1      94.634  84.140  85.072  1.00  0.00     0.220 C 
ATOM      3  N   UNL     1      94.819  83.918  83.741  1.00  0.00    -0.352 N 
ATOM      4  H   UNL     1      94.000  83.597  83.244  1.00  0.00     0.163 HD
ATOM      5  O   UNL     1      95.572  84.537  85.805  1.00  0.00    -0.275 OA
BRANCH   3   6
ATOM      6  C   UNL     1      96.052  84.109  83.046  1.00  0.00     0.151 C 
BRANCH   6   7
ATOM      7  C   UNL     1      96.452  82.888  82.296  1.00  0.00    -0.025 A 
ATOM      8  C   UNL     1      96.599  80.434  82.146  1.00  0.00     0.160 A 
ATOM      9  C   UNL     1      97.190  80.547  80.870  1.00  0.00     0.157 A 
ATOM     10  C   UNL     1      96.238  81.604  82.847  1.00  0.00     0.056 A 
ATOM     11  C   UNL     1      97.427  81.821  80.316  1.00  0.00     0.050 A 
ATOM     12  C   UNL     1      97.052  82.983  81.019  1.00  0.00     0.009 A 
BRANCH   8  13
ATOM     13  O   UNL     1      96.427  79.199  82.717  1.00  0.00    -0.493 OA
ATOM     14  C   UNL     1      97.410  78.872  83.716  1.00  0.00     0.278 C 
ENDBRANCH   8  13
BRANCH   9  15
ATOM     15  O   UNL     1      97.537  79.441  80.164  1.00  0.00    -0.504 OA
ATOM     16  H   UNL     1      98.384  79.114  80.475  1.00  0.00     0.293 HD
ENDBRANCH   9  15
ENDBRANCH   6   7
ENDBRANCH   3   6
ENDBRANCH   1   2
BRANCH   1  17
ATOM     17  C   UNL     1      92.894  82.447  85.692  1.00  0.00     0.010 C 
BRANCH  17  18
ATOM     18  C   UNL     1      92.182  82.011  84.380  1.00  0.00     0.005 C 
BRANCH  18  19
ATOM     19  C   UNL     1      91.131  80.894  84.621  1.00  0.00     0.027 C 
BRANCH  19  20
ATOM     20  C   UNL     1      91.746  79.579  84.734  1.00  0.00    -0.031 C 
ATOM     21  C   UNL     1      91.458  78.539  83.931  1.00  0.00    -0.028 C 
BRANCH  21  22
ATOM     22  C   UNL     1      92.103  77.232  84.049  1.00  0.00     0.005 C 
ATOM     23  C   UNL     1      91.734  76.284  82.875  1.00  0.00     0.012 C 
ATOM     24  C   UNL     1      93.641  77.401  84.162  1.00  0.00     0.012 C 
ENDBRANCH  21  22
ENDBRANCH  19  20
ENDBRANCH  18  19
ENDBRANCH  17  18
ENDBRANCH   1  17
TORSDOF 10
ENDMDL
MODEL 8
REMARK VINA RESULT:    -5.735      3.786      9.201
REMARK INTER + INTRA:          -9.641
REMARK INTER:                  -9.034
REMARK INTRA:                  -0.607
REMARK UNBOUND:                -0.721
REMARK SMILES COc1cc(CNC(=O)CCCC/C=C/C(C)C)ccc1O
REMARK SMILES IDX 10 1 8 2 7 3 9 5 6 6 5 7 3 8 21 9 4 10 20 11 19 12 2 13 1 14
REMARK SMILES IDX 22 15 11 17 12 18 13 19 14 20 15 21 16 22 17 23 18 24
REMARK H PARENT 7 4 22 16
REMARK Flexibility Score: inf
ROOT
ATOM      1  C   UNL     1      95.658  82.584  85.375  1.00  0.00     0.100 C 
ENDROOT
BRANCH   1   2
ATOM      2  C   UNL     1      96.161  83.407  84.257  1.00  0.00     0.220 C 
ATOM      3  N   UNL     1      96.047  82.971  82.972  1.00  0.00    -0.352 N 
ATOM      4  H   UNL     1      95.625  82.058  82.867  1.00  0.00     0.163 HD
ATOM      5  O   UNL     1      96.671  84.522  84.526  1.00  0.00    -0.275 OA
BRANCH   3   6
ATOM      6  C   UNL     1      96.471  83.703  81.822  1.00  0.00     0.151 C 
BRANCH   6   7
ATOM      7  C   UNL     1      96.910  82.795  80.727  1.00  0.00    -0.025 A 
ATOM      8  C   UNL     1      97.321  82.391  78.333  1.00  0.00     0.160 A 
ATOM      9  C   UNL     1      97.760  81.084  78.629  1.00  0.00     0.157 A 
ATOM     10  C   UNL     1      96.898  83.232  79.383  1.00  0.00     0.056 A 
ATOM     11  C   UNL     1      97.759  80.627  79.961  1.00  0.00     0.050 A 
ATOM     12  C   UNL     1      97.346  81.479  81.005  1.00  0.00     0.009 A 
BRANCH   8  13
ATOM     13  O   UNL     1      97.257  82.817  77.031  1.00  0.00    -0.493 OA
ATOM     14  C   UNL     1      98.391  83.600  76.614  1.00  0.00     0.278 C 
ENDBRANCH   8  13
BRANCH   9  15
ATOM     15  O   UNL     1      98.186  80.252  77.643  1.00  0.00    -0.504 OA
ATOM     16  H   UNL     1      97.630  79.471  77.619  1.00  0.00     0.293 HD
ENDBRANCH   9  15
ENDBRANCH   6   7
ENDBRANCH   3   6
ENDBRANCH   1   2
BRANCH   1  17
ATOM     17  C   UNL     1      94.735  81.441  84.873  1.00  0.00     0.010 C 
BRANCH  17  18
ATOM     18  C   UNL     1      93.224  81.767  85.037  1.00  0.00     0.005 C 
BRANCH  18  19
ATOM     19  C   UNL     1      92.312  80.656  84.451  1.00  0.00     0.027 C 
BRANCH  19  20
ATOM     20  C   UNL     1      90.919  80.832  84.833  1.00  0.00    -0.031 C 
ATOM     21  C   UNL     1      89.893  80.844  83.963  1.00  0.00    -0.028 C 
BRANCH  21  22
ATOM     22  C   UNL     1      88.497  81.003  84.371  1.00  0.00     0.005 C 
ATOM     23  C   UNL     1      88.132  82.487  84.657  1.00  0.00     0.012 C 
ATOM     24  C   UNL     1      87.553  80.398  83.300  1.00  0.00     0.012 C 
ENDBRANCH  21  22
ENDBRANCH  19  20
ENDBRANCH  18  19
ENDBRANCH  17  18
ENDBRANCH   1  17
TORSDOF 10
ENDMDL
MODEL 9
REMARK VINA RESULT:    -5.732     17.390     19.521
REMARK INTER + INTRA:          -9.637
REMARK INTER:                  -8.642
REMARK INTRA:                  -0.995
REMARK UNBOUND:                -0.721
REMARK SMILES COc1cc(CNC(=O)CCCC/C=C/C(C)C)ccc1O
REMARK SMILES IDX 10 1 8 2 7 3 9 5 6 6 5 7 3 8 21 9 4 10 20 11 19 12 2 13 1 14
REMARK SMILES IDX 22 15 11 17 12 18 13 19 14 20 15 21 16 22 17 23 18 24
REMARK H PARENT 7 4 22 16
REMARK Flexibility Score: inf
ROOT
ATOM      1  C   UNL     1      95.568  97.974  76.274  1.00  0.00     0.100 C 
ENDROOT
BRANCH   1   2
ATOM      2  C   UNL     1      95.903  97.843  74.843  1.00  0.00     0.220 C 
ATOM      3  N   UNL     1      95.072  97.170  73.998  1.00  0.00    -0.352 N 
ATOM      4  H   UNL     1      94.254  96.768  74.434  1.00  0.00     0.163 HD
ATOM      5  O   UNL     1      96.955  98.385  74.428  1.00  0.00    -0.275 OA
BRANCH   3   6
ATOM      6  C   UNL     1      95.288  97.014  72.595  1.00  0.00     0.151 C 
BRANCH   6   7
ATOM      7  C   UNL     1      94.638  98.104  71.817  1.00  0.00    -0.025 A 
ATOM      8  C   UNL     1      94.587  99.570  69.839  1.00  0.00     0.160 A 
ATOM      9  C   UNL     1      93.401 100.168  70.312  1.00  0.00     0.157 A 
ATOM     10  C   UNL     1      95.195  98.546  70.596  1.00  0.00     0.056 A 
ATOM     11  C   UNL     1      92.844  99.751  71.537  1.00  0.00     0.050 A 
ATOM     12  C   UNL     1      93.452  98.720  72.281  1.00  0.00     0.009 A 
BRANCH   8  13
ATOM     13  O   UNL     1      95.169 100.017  68.680  1.00  0.00    -0.493 OA
ATOM     14  C   UNL     1      96.501  99.517  68.461  1.00  0.00     0.278 C 
ENDBRANCH   8  13
BRANCH   9  15
ATOM     15  O   UNL     1      92.784 101.147  69.601  1.00  0.00    -0.504 OA
ATOM     16  H   UNL     1      91.835 101.002  69.613  1.00  0.00     0.293 HD
ENDBRANCH   9  15
ENDBRANCH   6   7
ENDBRANCH   3   6
ENDBRANCH   1   2
BRANCH   1  17
ATOM     17  C   UNL     1      94.044  97.822  76.522  1.00  0.00     0.010 C 
BRANCH  17  18
ATOM     18  C   UNL     1      93.706  96.704  77.548  1.00  0.00     0.005 C 
BRANCH  18  19
ATOM     19  C   UNL     1      93.738  95.288  76.910  1.00  0.00     0.027 C 
BRANCH  19  20
ATOM     20  C   UNL     1      92.402  94.771  76.659  1.00  0.00    -0.031 C 
ATOM     21  C   UNL     1      91.671  95.061  75.567  1.00  0.00    -0.028 C 
BRANCH  21  22
ATOM     22  C   UNL     1      90.337  94.513  75.326  1.00  0.00     0.005 C 
ATOM     23  C   UNL     1      90.386  93.136  74.608  1.00  0.00     0.012 C 
ATOM     24  C   UNL     1      89.549  94.415  76.658  1.00  0.00     0.012 C 
ENDBRANCH  21  22
ENDBRANCH  19  20
ENDBRANCH  18  19
ENDBRANCH  17  18
ENDBRANCH   1  17
TORSDOF 10
ENDMDL
MODEL 10
REMARK VINA RESULT:    -5.621      3.217      8.916
REMARK INTER + INTRA:          -9.464
REMARK INTER:                  -8.572
REMARK INTRA:                  -0.892
REMARK UNBOUND:                -0.721
REMARK SMILES COc1cc(CNC(=O)CCCC/C=C/C(C)C)ccc1O
REMARK SMILES IDX 10 1 8 2 7 3 9 5 6 6 5 7 3 8 21 9 4 10 20 11 19 12 2 13 1 14
REMARK SMILES IDX 22 15 11 17 12 18 13 19 14 20 15 21 16 22 17 23 18 24
REMARK H PARENT 7 4 22 16
REMARK Flexibility Score: inf
ROOT
ATOM      1  C   UNL     1      93.020  82.388  85.930  1.00  0.00     0.100 C 
ENDROOT
BRANCH   1   2
ATOM      2  C   UNL     1      94.202  83.150  85.483  1.00  0.00     0.220 C 
ATOM      3  N   UNL     1      94.466  83.301  84.155  1.00  0.00    -0.352 N 
ATOM      4  H   UNL     1      93.815  82.840  83.535  1.00  0.00     0.163 HD
ATOM      5  O   UNL     1      94.937  83.669  86.358  1.00  0.00    -0.275 OA
BRANCH   3   6
ATOM      6  C   UNL     1      95.563  84.044  83.621  1.00  0.00     0.151 C 
BRANCH   6   7
ATOM      7  C   UNL     1      96.543  83.156  82.938  1.00  0.00    -0.025 A 
ATOM      8  C   UNL     1      98.273  81.407  83.053  1.00  0.00     0.160 A 
ATOM      9  C   UNL     1      98.402  81.442  81.649  1.00  0.00     0.157 A 
ATOM     10  C   UNL     1      97.347  82.265  83.684  1.00  0.00     0.056 A 
ATOM     11  C   UNL     1      97.621  82.339  80.894  1.00  0.00     0.050 A 
ATOM     12  C   UNL     1      96.691  83.183  81.531  1.00  0.00     0.009 A 
BRANCH   8  13
ATOM     13  O   UNL     1      99.077  80.583  83.798  1.00  0.00    -0.493 OA
ATOM     14  C   UNL     1      98.411  79.963  84.913  1.00  0.00     0.278 C 
ENDBRANCH   8  13
BRANCH   9  15
ATOM     15  O   UNL     1      99.275  80.620  81.010  1.00  0.00    -0.504 OA
ATOM     16  H   UNL     1      98.846  79.782  80.821  1.00  0.00     0.293 HD
ENDBRANCH   9  15
ENDBRANCH   6   7
ENDBRANCH   3   6
ENDBRANCH   1   2
BRANCH   1  17
ATOM     17  C   UNL     1      93.233  80.858  85.776  1.00  0.00     0.010 C 
BRANCH  17  18
ATOM     18  C   UNL     1      92.229  80.205  84.784  1.00  0.00     0.005 C 
BRANCH  18  19
ATOM     19  C   UNL     1      91.425  81.259  83.977  1.00  0.00     0.027 C 
BRANCH  19  20
ATOM     20  C   UNL     1      90.016  80.912  83.875  1.00  0.00    -0.031 C 
ATOM     21  C   UNL     1      89.019  81.625  84.431  1.00  0.00    -0.028 C 
BRANCH  21  22
ATOM     22  C   UNL     1      87.607  81.268  84.300  1.00  0.00     0.005 C 
ATOM     23  C   UNL     1      86.703  82.512  84.076  1.00  0.00     0.012 C 
ATOM     24  C   UNL     1      87.419  80.235  83.158  1.00  0.00     0.012 C 
ENDBRANCH  21  22
ENDBRANCH  19  20
ENDBRANCH  18  19
ENDBRANCH  17  18
ENDBRANCH   1  17
TORSDOF 10
ENDMDL
