MODEL 1
REMARK VINA RESULT:    -6.692      0.000      0.000
REMARK INTER + INTRA:         -11.464
REMARK INTER:                 -10.800
REMARK INTRA:                  -0.664
REMARK UNBOUND:                -0.664
REMARK SMILES COc1cc(CNC(=O)CCCCC/C=C/C(C)C)ccc1O
REMARK SMILES IDX 11 1 10 2 8 3 7 4 9 6 6 7 5 8 3 9 22 10 4 11 21 12 20 13
REMARK SMILES IDX 2 14 1 15 23 16 12 18 13 19 14 20 15 21 16 22 17 23 18 24
REMARK SMILES IDX 19 25
REMARK H PARENT 7 5 23 17
REMARK Flexibility Score: inf
ROOT
ATOM      1  C   UNL     1      93.424  85.406  88.002  1.00  0.00     0.010 C 
ENDROOT
BRANCH   1   2
ATOM      2  C   UNL     1      93.021  85.218  86.517  1.00  0.00     0.100 C 
BRANCH   2   3
ATOM      3  C   UNL     1      93.115  83.826  86.040  1.00  0.00     0.220 C 
ATOM      4  N   UNL     1      92.368  83.421  84.976  1.00  0.00    -0.352 N 
ATOM      5  H   UNL     1      91.725  84.117  84.623  1.00  0.00     0.163 HD
ATOM      6  O   UNL     1      93.921  83.054  86.611  1.00  0.00    -0.275 OA
BRANCH   4   7
ATOM      7  C   UNL     1      92.434  82.138  84.356  1.00  0.00     0.151 C 
BRANCH   7   8
ATOM      8  C   UNL     1      91.111  81.465  84.292  1.00  0.00    -0.025 A 
ATOM      9  C   UNL     1      88.665  81.534  84.536  1.00  0.00     0.160 A 
ATOM     10  C   UNL     1      88.595  80.160  84.221  1.00  0.00     0.157 A 
ATOM     11  C   UNL     1      89.920  82.173  84.577  1.00  0.00     0.056 A 
ATOM     12  C   UNL     1      89.771  79.449  83.919  1.00  0.00     0.050 A 
ATOM     13  C   UNL     1      91.019  80.099  83.944  1.00  0.00     0.009 A 
BRANCH   9  14
ATOM     14  O   UNL     1      87.519  82.256  84.745  1.00  0.00    -0.493 OA
ATOM     15  C   UNL     1      87.746  83.599  85.203  1.00  0.00     0.278 C 
ENDBRANCH   9  14
BRANCH  10  16
ATOM     16  O   UNL     1      87.409  79.501  84.198  1.00  0.00    -0.504 OA
ATOM     17  H   UNL     1      86.692  80.136  84.127  1.00  0.00     0.293 HD
ENDBRANCH  10  16
ENDBRANCH   7   8
ENDBRANCH   4   7
ENDBRANCH   2   3
ENDBRANCH   1   2
BRANCH   1  18
ATOM     18  C   UNL     1      93.520  86.908  88.370  1.00  0.00     0.001 C 
BRANCH  18  19
ATOM     19  C   UNL     1      92.984  87.238  89.786  1.00  0.00     0.004 C 
BRANCH  19  20
ATOM     20  C   UNL     1      91.811  88.257  89.725  1.00  0.00     0.027 C 
BRANCH  20  21
ATOM     21  C   UNL     1      92.205  89.620  90.042  1.00  0.00    -0.031 C 
ATOM     22  C   UNL     1      92.791  90.427  89.140  1.00  0.00    -0.028 C 
BRANCH  22  23
ATOM     23  C   UNL     1      93.193  91.802  89.425  1.00  0.00     0.005 C 
ATOM     24  C   UNL     1      93.313  92.021  90.957  1.00  0.00     0.012 C 
ATOM     25  C   UNL     1      94.510  92.143  88.676  1.00  0.00     0.012 C 
ENDBRANCH  22  23
ENDBRANCH  20  21
ENDBRANCH  19  20
ENDBRANCH  18  19
ENDBRANCH   1  18
TORSDOF 11
ENDMDL
MODEL 2
REMARK VINA RESULT:    -6.248     20.829     24.445
REMARK INTER + INTRA:         -10.747
REMARK INTER:                 -10.047
REMARK INTRA:                  -0.700
REMARK UNBOUND:                -0.664
REMARK SMILES COc1cc(CNC(=O)CCCCC/C=C/C(C)C)ccc1O
REMARK SMILES IDX 11 1 10 2 8 3 7 4 9 6 6 7 5 8 3 9 22 10 4 11 21 12 20 13
REMARK SMILES IDX 2 14 1 15 23 16 12 18 13 19 14 20 15 21 16 22 17 23 18 24
REMARK SMILES IDX 19 25
REMARK H PARENT 7 5 23 17
REMARK Flexibility Score: inf
ROOT
ATOM      1  C   UNL     1      74.258  90.231  69.423  1.00  0.00     0.010 C 
ENDROOT
BRANCH   1   2
ATOM      2  C   UNL     1      73.748  90.354  70.882  1.00  0.00     0.100 C 
BRANCH   2   3
ATOM      3  C   UNL     1      73.606  91.744  71.353  1.00  0.00     0.220 C 
ATOM      4  N   UNL     1      74.674  92.386  71.903  1.00  0.00    -0.352 N 
ATOM      5  H   UNL     1      75.498  91.812  72.016  1.00  0.00     0.163 HD
ATOM      6  O   UNL     1      72.502  92.317  71.195  1.00  0.00    -0.275 OA
BRANCH   4   7
ATOM      7  C   UNL     1      74.701  93.754  72.308  1.00  0.00     0.151 C 
BRANCH   7   8
ATOM      8  C   UNL     1      75.740  94.025  73.335  1.00  0.00    -0.025 A 
ATOM      9  C   UNL     1      77.933  94.946  73.964  1.00  0.00     0.160 A 
ATOM     10  C   UNL     1      77.742  94.493  75.287  1.00  0.00     0.157 A 
ATOM     11  C   UNL     1      76.936  94.701  72.997  1.00  0.00     0.056 A 
ATOM     12  C   UNL     1      76.549  93.835  75.639  1.00  0.00     0.050 A 
ATOM     13  C   UNL     1      75.551  93.612  74.672  1.00  0.00     0.009 A 
BRANCH   9  14
ATOM     14  O   UNL     1      79.051  95.664  73.632  1.00  0.00    -0.493 OA
ATOM     15  C   UNL     1      78.837  97.083  73.559  1.00  0.00     0.278 C 
ENDBRANCH   9  14
BRANCH  10  16
ATOM     16  O   UNL     1      78.688  94.683  76.241  1.00  0.00    -0.504 OA
ATOM     17  H   UNL     1      79.520  94.919  75.822  1.00  0.00     0.293 HD
ENDBRANCH  10  16
ENDBRANCH   7   8
ENDBRANCH   4   7
ENDBRANCH   2   3
ENDBRANCH   1   2
BRANCH   1  18
ATOM     18  C   UNL     1      75.677  89.609  69.378  1.00  0.00     0.001 C 
BRANCH  18  19
ATOM     19  C   UNL     1      76.284  89.543  67.953  1.00  0.00     0.004 C 
BRANCH  19  20
ATOM     20  C   UNL     1      77.382  88.448  67.854  1.00  0.00     0.027 C 
BRANCH  20  21
ATOM     21  C   UNL     1      76.866  87.093  67.946  1.00  0.00    -0.031 C 
ATOM     22  C   UNL     1      77.200  86.262  68.950  1.00  0.00    -0.028 C 
BRANCH  22  23
ATOM     23  C   UNL     1      76.695  84.898  69.074  1.00  0.00     0.005 C 
ATOM     24  C   UNL     1      75.975  84.712  70.436  1.00  0.00     0.012 C 
ATOM     25  C   UNL     1      75.775  84.554  67.870  1.00  0.00     0.012 C 
ENDBRANCH  22  23
ENDBRANCH  20  21
ENDBRANCH  19  20
ENDBRANCH  18  19
ENDBRANCH   1  18
TORSDOF 11
ENDMDL
MODEL 3
REMARK VINA RESULT:    -6.138      7.440     11.170
REMARK INTER + INTRA:         -10.569
REMARK INTER:                  -9.563
REMARK INTRA:                  -1.006
REMARK UNBOUND:                -0.664
REMARK SMILES COc1cc(CNC(=O)CCCCC/C=C/C(C)C)ccc1O
REMARK SMILES IDX 11 1 10 2 8 3 7 4 9 6 6 7 5 8 3 9 22 10 4 11 21 12 20 13
REMARK SMILES IDX 2 14 1 15 23 16 12 18 13 19 14 20 15 21 16 22 17 23 18 24
REMARK SMILES IDX 19 25
REMARK H PARENT 7 5 23 17
REMARK Flexibility Score: inf
ROOT
ATOM      1  C   UNL     1      97.804  80.771  78.119  1.00  0.00     0.010 C 
ENDROOT
BRANCH   1   2
ATOM      2  C   UNL     1      98.519  79.771  79.064  1.00  0.00     0.100 C 
BRANCH   2   3
ATOM      3  C   UNL     1      97.751  79.440  80.279  1.00  0.00     0.220 C 
ATOM      4  N   UNL     1      97.432  80.422  81.168  1.00  0.00    -0.352 N 
ATOM      5  H   UNL     1      97.824  81.328  80.953  1.00  0.00     0.163 HD
ATOM      6  O   UNL     1      97.374  78.256  80.442  1.00  0.00    -0.275 OA
BRANCH   4   7
ATOM      7  C   UNL     1      96.617  80.258  82.327  1.00  0.00     0.151 C 
BRANCH   7   8
ATOM      8  C   UNL     1      96.134  81.553  82.874  1.00  0.00    -0.025 A 
ATOM      9  C   UNL     1      94.707  82.815  84.430  1.00  0.00     0.160 A 
ATOM     10  C   UNL     1      95.177  84.026  83.876  1.00  0.00     0.157 A 
ATOM     11  C   UNL     1      95.181  81.590  83.919  1.00  0.00     0.056 A 
ATOM     12  C   UNL     1      96.137  84.002  82.848  1.00  0.00     0.050 A 
ATOM     13  C   UNL     1      96.620  82.774  82.357  1.00  0.00     0.009 A 
BRANCH   9  14
ATOM     14  O   UNL     1      93.839  82.829  85.489  1.00  0.00    -0.493 OA
ATOM     15  C   UNL     1      92.907  81.735  85.499  1.00  0.00     0.278 C 
ENDBRANCH   9  14
BRANCH  10  16
ATOM     16  O   UNL     1      94.724  85.226  84.319  1.00  0.00    -0.504 OA
ATOM     17  H   UNL     1      94.397  85.132  85.217  1.00  0.00     0.293 HD
ENDBRANCH  10  16
ENDBRANCH   7   8
ENDBRANCH   4   7
ENDBRANCH   2   3
ENDBRANCH   1   2
BRANCH   1  18
ATOM     18  C   UNL     1      98.447  82.179  78.203  1.00  0.00     0.001 C 
BRANCH  18  19
ATOM     19  C   UNL     1      97.481  83.276  78.716  1.00  0.00     0.004 C 
BRANCH  19  20
ATOM     20  C   UNL     1      96.516  83.751  77.594  1.00  0.00     0.027 C 
BRANCH  20  21
ATOM     21  C   UNL     1      97.079  83.653  76.258  1.00  0.00    -0.031 C 
ATOM     22  C   UNL     1      97.079  84.688  75.400  1.00  0.00    -0.028 C 
BRANCH  22  23
ATOM     23  C   UNL     1      97.641  84.622  74.053  1.00  0.00     0.005 C 
ATOM     24  C   UNL     1      99.095  85.164  74.051  1.00  0.00     0.012 C 
ATOM     25  C   UNL     1      97.551  83.173  73.503  1.00  0.00     0.012 C 
ENDBRANCH  22  23
ENDBRANCH  20  21
ENDBRANCH  19  20
ENDBRANCH  18  19
ENDBRANCH   1  18
TORSDOF 11
ENDMDL
MODEL 4
REMARK VINA RESULT:    -5.912     11.628     14.804
REMARK INTER + INTRA:         -10.205
REMARK INTER:                  -8.094
REMARK INTRA:                  -2.111
REMARK UNBOUND:                -0.664
REMARK SMILES COc1cc(CNC(=O)CCCCC/C=C/C(C)C)ccc1O
REMARK SMILES IDX 11 1 10 2 8 3 7 4 9 6 6 7 5 8 3 9 22 10 4 11 21 12 20 13
REMARK SMILES IDX 2 14 1 15 23 16 12 18 13 19 14 20 15 21 16 22 17 23 18 24
REMARK SMILES IDX 19 25
REMARK H PARENT 7 5 23 17
REMARK Flexibility Score: inf
ROOT
ATOM      1  C   UNL     1      97.501  82.339  79.718  1.00  0.00     0.010 C 
ENDROOT
BRANCH   1   2
ATOM      2  C   UNL     1      97.802  83.540  78.785  1.00  0.00     0.100 C 
BRANCH   2   3
ATOM      3  C   UNL     1      97.176  83.438  77.454  1.00  0.00     0.220 C 
ATOM      4  N   UNL     1      97.072  84.544  76.667  1.00  0.00    -0.352 N 
ATOM      5  H   UNL     1      97.380  85.402  77.103  1.00  0.00     0.163 HD
ATOM      6  O   UNL     1      96.789  82.311  77.063  1.00  0.00    -0.275 OA
BRANCH   4   7
ATOM      7  C   UNL     1      96.579  84.567  75.328  1.00  0.00     0.151 C 
BRANCH   7   8
ATOM      8  C   UNL     1      97.637  84.281  74.325  1.00  0.00    -0.025 A 
ATOM      9  C   UNL     1      99.676  84.947  73.121  1.00  0.00     0.160 A 
ATOM     10  C   UNL     1      99.621  83.752  72.370  1.00  0.00     0.157 A 
ATOM     11  C   UNL     1      98.680  85.206  74.085  1.00  0.00     0.056 A 
ATOM     12  C   UNL     1      98.598  82.818  72.612  1.00  0.00     0.050 A 
ATOM     13  C   UNL     1      97.619  83.075  73.590  1.00  0.00     0.009 A 
BRANCH   9  14
ATOM     14  O   UNL     1     100.716  85.823  72.955  1.00  0.00    -0.493 OA
ATOM     15  C   UNL     1     101.631  85.864  74.062  1.00  0.00     0.278 C 
ENDBRANCH   9  14
BRANCH  10  16
ATOM     16  O   UNL     1     100.544  83.479  71.414  1.00  0.00    -0.504 OA
ATOM     17  H   UNL     1     101.375  83.902  71.641  1.00  0.00     0.293 HD
ENDBRANCH  10  16
ENDBRANCH   7   8
ENDBRANCH   4   7
ENDBRANCH   2   3
ENDBRANCH   1   2
BRANCH   1  18
ATOM     18  C   UNL     1      98.727  81.997  80.603  1.00  0.00     0.001 C 
BRANCH  18  19
ATOM     19  C   UNL     1      99.985  81.588  79.795  1.00  0.00     0.004 C 
BRANCH  19  20
ATOM     20  C   UNL     1      99.688  80.389  78.852  1.00  0.00     0.027 C 
BRANCH  20  21
ATOM     21  C   UNL     1      99.934  80.674  77.449  1.00  0.00    -0.031 C 
ATOM     22  C   UNL     1     100.481  81.831  77.036  1.00  0.00    -0.028 C 
BRANCH  22  23
ATOM     23  C   UNL     1     100.747  82.145  75.634  1.00  0.00     0.005 C 
ATOM     24  C   UNL     1     102.136  82.820  75.488  1.00  0.00     0.012 C 
ATOM     25  C   UNL     1     100.618  80.866  74.763  1.00  0.00     0.012 C 
ENDBRANCH  22  23
ENDBRANCH  20  21
ENDBRANCH  19  20
ENDBRANCH  18  19
ENDBRANCH   1  18
TORSDOF 11
ENDMDL
MODEL 5
REMARK VINA RESULT:    -5.805      1.551      2.244
REMARK INTER + INTRA:         -10.032
REMARK INTER:                  -9.423
REMARK INTRA:                  -0.608
REMARK UNBOUND:                -0.664
REMARK SMILES COc1cc(CNC(=O)CCCCC/C=C/C(C)C)ccc1O
REMARK SMILES IDX 11 1 10 2 8 3 7 4 9 6 6 7 5 8 3 9 22 10 4 11 21 12 20 13
REMARK SMILES IDX 2 14 1 15 23 16 12 18 13 19 14 20 15 21 16 22 17 23 18 24
REMARK SMILES IDX 19 25
REMARK H PARENT 7 5 23 17
REMARK Flexibility Score: inf
ROOT
ATOM      1  C   UNL     1      93.935  86.671  88.522  1.00  0.00     0.010 C 
ENDROOT
BRANCH   1   2
ATOM      2  C   UNL     1      92.949  85.675  87.858  1.00  0.00     0.100 C 
BRANCH   2   3
ATOM      3  C   UNL     1      93.505  84.969  86.689  1.00  0.00     0.220 C 
ATOM      4  N   UNL     1      92.860  83.882  86.183  1.00  0.00    -0.352 N 
ATOM      5  H   UNL     1      92.052  83.586  86.714  1.00  0.00     0.163 HD
ATOM      6  O   UNL     1      94.550  85.420  86.162  1.00  0.00    -0.275 OA
BRANCH   4   7
ATOM      7  C   UNL     1      93.234  83.169  85.005  1.00  0.00     0.151 C 
BRANCH   7   8
ATOM      8  C   UNL     1      92.433  81.933  84.806  1.00  0.00    -0.025 A 
ATOM      9  C   UNL     1      90.315  80.831  84.216  1.00  0.00     0.160 A 
ATOM     10  C   UNL     1      90.897  79.572  84.481  1.00  0.00     0.157 A 
ATOM     11  C   UNL     1      91.083  82.001  84.389  1.00  0.00     0.056 A 
ATOM     12  C   UNL     1      92.243  79.492  84.881  1.00  0.00     0.050 A 
ATOM     13  C   UNL     1      93.009  80.663  85.032  1.00  0.00     0.009 A 
BRANCH   9  14
ATOM     14  O   UNL     1      89.032  80.916  83.743  1.00  0.00    -0.493 OA
ATOM     15  C   UNL     1      88.113  81.552  84.646  1.00  0.00     0.278 C 
ENDBRANCH   9  14
BRANCH  10  16
ATOM     16  O   UNL     1      90.183  78.426  84.355  1.00  0.00    -0.504 OA
ATOM     17  H   UNL     1      89.263  78.639  84.181  1.00  0.00     0.293 HD
ENDBRANCH  10  16
ENDBRANCH   7   8
ENDBRANCH   4   7
ENDBRANCH   2   3
ENDBRANCH   1   2
BRANCH   1  18
ATOM     18  C   UNL     1      93.483  88.137  88.299  1.00  0.00     0.001 C 
BRANCH  18  19
ATOM     19  C   UNL     1      94.658  89.138  88.164  1.00  0.00     0.004 C 
BRANCH  19  20
ATOM     20  C   UNL     1      94.166  90.527  87.672  1.00  0.00     0.027 C 
BRANCH  20  21
ATOM     21  C   UNL     1      93.360  91.241  88.648  1.00  0.00    -0.031 C 
ATOM     22  C   UNL     1      93.892  92.119  89.516  1.00  0.00    -0.028 C 
BRANCH  22  23
ATOM     23  C   UNL     1      93.109  92.856  90.505  1.00  0.00     0.005 C 
ATOM     24  C   UNL     1      93.100  94.370  90.164  1.00  0.00     0.012 C 
ATOM     25  C   UNL     1      91.677  92.265  90.604  1.00  0.00     0.012 C 
ENDBRANCH  22  23
ENDBRANCH  20  21
ENDBRANCH  19  20
ENDBRANCH  18  19
ENDBRANCH   1  18
TORSDOF 11
ENDMDL
MODEL 6
REMARK VINA RESULT:    -5.706     24.531     28.865
REMARK INTER + INTRA:          -9.872
REMARK INTER:                  -9.042
REMARK INTRA:                  -0.831
REMARK UNBOUND:                -0.664
REMARK SMILES COc1cc(CNC(=O)CCCCC/C=C/C(C)C)ccc1O
REMARK SMILES IDX 11 1 10 2 8 3 7 4 9 6 6 7 5 8 3 9 22 10 4 11 21 12 20 13
REMARK SMILES IDX 2 14 1 15 23 16 12 18 13 19 14 20 15 21 16 22 17 23 18 24
REMARK SMILES IDX 19 25
REMARK H PARENT 7 5 23 17
REMARK Flexibility Score: inf
ROOT
ATOM      1  C   UNL     1      69.831  84.228  70.071  1.00  0.00     0.010 C 
ENDROOT
BRANCH   1   2
ATOM      2  C   UNL     1      70.791  85.158  69.285  1.00  0.00     0.100 C 
BRANCH   2   3
ATOM      3  C   UNL     1      71.170  84.644  67.956  1.00  0.00     0.220 C 
ATOM      4  N   UNL     1      72.214  85.205  67.284  1.00  0.00    -0.352 N 
ATOM      5  H   UNL     1      72.621  86.012  67.737  1.00  0.00     0.163 HD
ATOM      6  O   UNL     1      70.538  83.665  67.493  1.00  0.00    -0.275 OA
BRANCH   4   7
ATOM      7  C   UNL     1      72.744  84.745  66.042  1.00  0.00     0.151 C 
BRANCH   7   8
ATOM      8  C   UNL     1      74.198  84.447  66.116  1.00  0.00    -0.025 A 
ATOM      9  C   UNL     1      76.336  84.524  67.330  1.00  0.00     0.160 A 
ATOM     10  C   UNL     1      76.983  83.925  66.228  1.00  0.00     0.157 A 
ATOM     11  C   UNL     1      74.952  84.789  67.263  1.00  0.00     0.056 A 
ATOM     12  C   UNL     1      76.239  83.565  65.089  1.00  0.00     0.050 A 
ATOM     13  C   UNL     1      74.855  83.815  65.037  1.00  0.00     0.009 A 
BRANCH   9  14
ATOM     14  O   UNL     1      77.032  84.798  68.477  1.00  0.00    -0.493 OA
ATOM     15  C   UNL     1      77.163  86.200  68.765  1.00  0.00     0.278 C 
ENDBRANCH   9  14
BRANCH  10  16
ATOM     16  O   UNL     1      78.317  83.680  66.242  1.00  0.00    -0.504 OA
ATOM     17  H   UNL     1      78.795  84.508  66.157  1.00  0.00     0.293 HD
ENDBRANCH  10  16
ENDBRANCH   7   8
ENDBRANCH   4   7
ENDBRANCH   2   3
ENDBRANCH   1   2
BRANCH   1  18
ATOM     18  C   UNL     1      68.588  85.006  70.575  1.00  0.00     0.001 C 
BRANCH  18  19
ATOM     19  C   UNL     1      67.393  84.978  69.589  1.00  0.00     0.004 C 
BRANCH  19  20
ATOM     20  C   UNL     1      67.235  83.579  68.930  1.00  0.00     0.027 C 
BRANCH  20  21
ATOM     21  C   UNL     1      65.954  82.949  69.198  1.00  0.00    -0.031 C 
ATOM     22  C   UNL     1      65.467  81.957  68.431  1.00  0.00    -0.028 C 
BRANCH  22  23
ATOM     23  C   UNL     1      64.186  81.299  68.677  1.00  0.00     0.005 C 
ATOM     24  C   UNL     1      63.387  82.066  69.764  1.00  0.00     0.012 C 
ATOM     25  C   UNL     1      63.392  81.157  67.350  1.00  0.00     0.012 C 
ENDBRANCH  22  23
ENDBRANCH  20  21
ENDBRANCH  19  20
ENDBRANCH  18  19
ENDBRANCH   1  18
TORSDOF 11
ENDMDL
MODEL 7
REMARK VINA RESULT:    -5.603      4.391      5.581
REMARK INTER + INTRA:          -9.706
REMARK INTER:                  -8.340
REMARK INTRA:                  -1.366
REMARK UNBOUND:                -0.664
REMARK SMILES COc1cc(CNC(=O)CCCCC/C=C/C(C)C)ccc1O
REMARK SMILES IDX 11 1 10 2 8 3 7 4 9 6 6 7 5 8 3 9 22 10 4 11 21 12 20 13
REMARK SMILES IDX 2 14 1 15 23 16 12 18 13 19 14 20 15 21 16 22 17 23 18 24
REMARK SMILES IDX 19 25
REMARK H PARENT 7 5 23 17
REMARK Flexibility Score: inf
ROOT
ATOM      1  C   UNL     1      93.790  85.216  91.755  1.00  0.00     0.010 C 
ENDROOT
BRANCH   1   2
ATOM      2  C   UNL     1      93.038  83.862  91.837  1.00  0.00     0.100 C 
BRANCH   2   3
ATOM      3  C   UNL     1      92.914  83.165  90.543  1.00  0.00     0.220 C 
ATOM      4  N   UNL     1      93.621  83.604  89.466  1.00  0.00    -0.352 N 
ATOM      5  H   UNL     1      94.144  84.454  89.623  1.00  0.00     0.163 HD
ATOM      6  O   UNL     1      92.182  82.149  90.482  1.00  0.00    -0.275 OA
BRANCH   4   7
ATOM      7  C   UNL     1      93.669  82.969  88.189  1.00  0.00     0.151 C 
BRANCH   7   8
ATOM      8  C   UNL     1      94.091  83.893  87.105  1.00  0.00    -0.025 A 
ATOM      9  C   UNL     1      95.571  84.438  85.218  1.00  0.00     0.160 A 
ATOM     10  C   UNL     1      94.925  85.685  85.073  1.00  0.00     0.157 A 
ATOM     11  C   UNL     1      95.156  83.557  86.237  1.00  0.00     0.056 A 
ATOM     12  C   UNL     1      93.854  86.023  85.920  1.00  0.00     0.050 A 
ATOM     13  C   UNL     1      93.433  85.129  86.922  1.00  0.00     0.009 A 
BRANCH   9  14
ATOM     14  O   UNL     1      96.556  84.063  84.344  1.00  0.00    -0.493 OA
ATOM     15  C   UNL     1      96.068  83.510  83.110  1.00  0.00     0.278 C 
ENDBRANCH   9  14
BRANCH  10  16
ATOM     16  O   UNL     1      95.313  86.574  84.124  1.00  0.00    -0.504 OA
ATOM     17  H   UNL     1      95.676  87.356  84.548  1.00  0.00     0.293 HD
ENDBRANCH  10  16
ENDBRANCH   7   8
ENDBRANCH   4   7
ENDBRANCH   2   3
ENDBRANCH   1   2
BRANCH   1  18
ATOM     18  C   UNL     1      92.836  86.404  92.040  1.00  0.00     0.001 C 
BRANCH  18  19
ATOM     19  C   UNL     1      92.589  87.314  90.811  1.00  0.00     0.004 C 
BRANCH  19  20
ATOM     20  C   UNL     1      93.762  87.225  89.795  1.00  0.00     0.027 C 
BRANCH  20  21
ATOM     21  C   UNL     1      94.005  88.463  89.073  1.00  0.00    -0.031 C 
ATOM     22  C   UNL     1      93.148  89.499  89.113  1.00  0.00    -0.028 C 
BRANCH  22  23
ATOM     23  C   UNL     1      93.366  90.757  88.404  1.00  0.00     0.005 C 
ATOM     24  C   UNL     1      93.714  91.887  89.409  1.00  0.00     0.012 C 
ATOM     25  C   UNL     1      94.459  90.578  87.316  1.00  0.00     0.012 C 
ENDBRANCH  22  23
ENDBRANCH  20  21
ENDBRANCH  19  20
ENDBRANCH  18  19
ENDBRANCH   1  18
TORSDOF 11
ENDMDL
MODEL 8
REMARK VINA RESULT:    -5.493     13.247     16.020
REMARK INTER + INTRA:          -9.529
REMARK INTER:                  -7.380
REMARK INTRA:                  -2.149
REMARK UNBOUND:                -0.664
REMARK SMILES COc1cc(CNC(=O)CCCCC/C=C/C(C)C)ccc1O
REMARK SMILES IDX 11 1 10 2 8 3 7 4 9 6 6 7 5 8 3 9 22 10 4 11 21 12 20 13
REMARK SMILES IDX 2 14 1 15 23 16 12 18 13 19 14 20 15 21 16 22 17 23 18 24
REMARK SMILES IDX 19 25
REMARK H PARENT 7 5 23 17
REMARK Flexibility Score: inf
ROOT
ATOM      1  C   UNL     1      98.998  81.764  78.388  1.00  0.00     0.010 C 
ENDROOT
BRANCH   1   2
ATOM      2  C   UNL     1      97.629  81.931  77.678  1.00  0.00     0.100 C 
BRANCH   2   3
ATOM      3  C   UNL     1      97.520  83.158  76.867  1.00  0.00     0.220 C 
ATOM      4  N   UNL     1      97.668  83.091  75.514  1.00  0.00    -0.352 N 
ATOM      5  H   UNL     1      97.924  82.179  75.163  1.00  0.00     0.163 HD
ATOM      6  O   UNL     1      97.250  84.235  77.448  1.00  0.00    -0.275 OA
BRANCH   4   7
ATOM      7  C   UNL     1      97.492  84.177  74.606  1.00  0.00     0.151 C 
BRANCH   7   8
ATOM      8  C   UNL     1      98.442  84.128  73.465  1.00  0.00    -0.025 A 
ATOM      9  C   UNL     1      99.530  82.885  71.643  1.00  0.00     0.160 A 
ATOM     10  C   UNL     1     100.296  84.026  71.322  1.00  0.00     0.157 A 
ATOM     11  C   UNL     1      98.617  82.941  72.715  1.00  0.00     0.056 A 
ATOM     12  C   UNL     1     100.119  85.217  72.050  1.00  0.00     0.050 A 
ATOM     13  C   UNL     1      99.191  85.271  73.107  1.00  0.00     0.009 A 
BRANCH   9  14
ATOM     14  O   UNL     1      99.631  81.748  70.885  1.00  0.00    -0.493 OA
ATOM     15  C   UNL     1      98.431  80.957  70.849  1.00  0.00     0.278 C 
ENDBRANCH   9  14
BRANCH  10  16
ATOM     16  O   UNL     1     101.206  84.005  70.316  1.00  0.00    -0.504 OA
ATOM     17  H   UNL     1     101.067  84.763  69.744  1.00  0.00     0.293 HD
ENDBRANCH  10  16
ENDBRANCH   7   8
ENDBRANCH   4   7
ENDBRANCH   2   3
ENDBRANCH   1   2
BRANCH   1  18
ATOM     18  C   UNL     1     100.013  81.026  77.477  1.00  0.00     0.001 C 
BRANCH  18  19
ATOM     19  C   UNL     1     101.105  81.952  76.885  1.00  0.00     0.004 C 
BRANCH  19  20
ATOM     20  C   UNL     1     101.169  81.835  75.336  1.00  0.00     0.027 C 
BRANCH  20  21
ATOM     21  C   UNL     1     101.731  83.005  74.684  1.00  0.00    -0.031 C 
ATOM     22  C   UNL     1     102.794  83.664  75.181  1.00  0.00    -0.028 C 
BRANCH  22  23
ATOM     23  C   UNL     1     103.385  84.839  74.547  1.00  0.00     0.005 C 
ATOM     24  C   UNL     1     103.602  84.582  73.032  1.00  0.00     0.012 C 
ATOM     25  C   UNL     1     102.507  86.092  74.813  1.00  0.00     0.012 C 
ENDBRANCH  22  23
ENDBRANCH  20  21
ENDBRANCH  19  20
ENDBRANCH  18  19
ENDBRANCH   1  18
TORSDOF 11
ENDMDL
MODEL 9
REMARK VINA RESULT:    -5.489     15.985     18.702
REMARK INTER + INTRA:          -9.522
REMARK INTER:                  -8.462
REMARK INTRA:                  -1.060
REMARK UNBOUND:                -0.664
REMARK SMILES COc1cc(CNC(=O)CCCCC/C=C/C(C)C)ccc1O
REMARK SMILES IDX 11 1 10 2 8 3 7 4 9 6 6 7 5 8 3 9 22 10 4 11 21 12 20 13
REMARK SMILES IDX 2 14 1 15 23 16 12 18 13 19 14 20 15 21 16 22 17 23 18 24
REMARK SMILES IDX 19 25
REMARK H PARENT 7 5 23 17
REMARK Flexibility Score: inf
ROOT
ATOM      1  C   UNL     1      95.550  97.842  78.784  1.00  0.00     0.010 C 
ENDROOT
BRANCH   1   2
ATOM      2  C   UNL     1      95.155  98.381  77.385  1.00  0.00     0.100 C 
BRANCH   2   3
ATOM      3  C   UNL     1      96.304  98.727  76.528  1.00  0.00     0.220 C 
ATOM      4  N   UNL     1      96.511  98.051  75.364  1.00  0.00    -0.352 N 
ATOM      5  H   UNL     1      95.874  97.282  75.205  1.00  0.00     0.163 HD
ATOM      6  O   UNL     1      97.045  99.675  76.880  1.00  0.00    -0.275 OA
BRANCH   4   7
ATOM      7  C   UNL     1      97.521  98.346  74.401  1.00  0.00     0.151 C 
BRANCH   7   8
ATOM      8  C   UNL     1      97.119  97.976  73.019  1.00  0.00    -0.025 A 
ATOM      9  C   UNL     1      97.670  97.685  70.640  1.00  0.00     0.160 A 
ATOM     10  C   UNL     1      96.332  97.319  70.376  1.00  0.00     0.157 A 
ATOM     11  C   UNL     1      98.051  98.018  71.956  1.00  0.00     0.056 A 
ATOM     12  C   UNL     1      95.401  97.257  71.428  1.00  0.00     0.050 A 
ATOM     13  C   UNL     1      95.794  97.573  72.742  1.00  0.00     0.009 A 
BRANCH   9  14
ATOM     14  O   UNL     1      98.605  97.663  69.639  1.00  0.00    -0.493 OA
ATOM     15  C   UNL     1      99.048  98.965  69.221  1.00  0.00     0.278 C 
ENDBRANCH   9  14
BRANCH  10  16
ATOM     16  O   UNL     1      95.919  97.019  69.119  1.00  0.00    -0.504 OA
ATOM     17  H   UNL     1      95.798  97.830  68.620  1.00  0.00     0.293 HD
ENDBRANCH  10  16
ENDBRANCH   7   8
ENDBRANCH   4   7
ENDBRANCH   2   3
ENDBRANCH   1   2
BRANCH   1  18
ATOM     18  C   UNL     1      96.255  96.466  78.674  1.00  0.00     0.001 C 
BRANCH  18  19
ATOM     19  C   UNL     1      95.993  95.533  79.884  1.00  0.00     0.004 C 
BRANCH  19  20
ATOM     20  C   UNL     1      94.879  94.495  79.569  1.00  0.00     0.027 C 
BRANCH  20  21
ATOM     21  C   UNL     1      94.151  94.774  78.342  1.00  0.00    -0.031 C 
ATOM     22  C   UNL     1      92.808  94.816  78.298  1.00  0.00    -0.028 C 
BRANCH  22  23
ATOM     23  C   UNL     1      92.047  95.098  77.083  1.00  0.00     0.005 C 
ATOM     24  C   UNL     1      90.621  94.495  77.190  1.00  0.00     0.012 C 
ATOM     25  C   UNL     1      92.022  96.627  76.809  1.00  0.00     0.012 C 
ENDBRANCH  22  23
ENDBRANCH  20  21
ENDBRANCH  19  20
ENDBRANCH  18  19
ENDBRANCH   1  18
TORSDOF 11
ENDMDL
MODEL 10
REMARK VINA RESULT:    -5.382      5.886      9.963
REMARK INTER + INTRA:          -9.350
REMARK INTER:                  -8.405
REMARK INTRA:                  -0.945
REMARK UNBOUND:                -0.664
REMARK SMILES COc1cc(CNC(=O)CCCCC/C=C/C(C)C)ccc1O
REMARK SMILES IDX 11 1 10 2 8 3 7 4 9 6 6 7 5 8 3 9 22 10 4 11 21 12 20 13
REMARK SMILES IDX 2 14 1 15 23 16 12 18 13 19 14 20 15 21 16 22 17 23 18 24
REMARK SMILES IDX 19 25
REMARK H PARENT 7 5 23 17
REMARK Flexibility Score: inf
ROOT
ATOM      1  C   UNL     1      90.448  94.519  92.044  1.00  0.00     0.010 C 
ENDROOT
BRANCH   1   2
ATOM      2  C   UNL     1      91.571  93.555  92.506  1.00  0.00     0.100 C 
BRANCH   2   3
ATOM      3  C   UNL     1      91.415  92.173  92.016  1.00  0.00     0.220 C 
ATOM      4  N   UNL     1      92.229  91.709  91.027  1.00  0.00    -0.352 N 
ATOM      5  H   UNL     1      92.856  92.399  90.639  1.00  0.00     0.163 HD
ATOM      6  O   UNL     1      90.553  91.442  92.558  1.00  0.00    -0.275 OA
BRANCH   4   7
ATOM      7  C   UNL     1      92.250  90.372  90.530  1.00  0.00     0.151 C 
BRANCH   7   8
ATOM      8  C   UNL     1      93.102  90.224  89.321  1.00  0.00    -0.025 A 
ATOM      9  C   UNL     1      94.203  88.801  87.645  1.00  0.00     0.160 A 
ATOM     10  C   UNL     1      94.773  89.947  87.048  1.00  0.00     0.157 A 
ATOM     11  C   UNL     1      93.381  88.947  88.780  1.00  0.00     0.056 A 
ATOM     12  C   UNL     1      94.489  91.223  87.567  1.00  0.00     0.050 A 
ATOM     13  C   UNL     1      93.651  91.362  88.689  1.00  0.00     0.009 A 
BRANCH   9  14
ATOM     14  O   UNL     1      94.402  87.563  87.095  1.00  0.00    -0.493 OA
ATOM     15  C   UNL     1      93.524  86.546  87.605  1.00  0.00     0.278 C 
ENDBRANCH   9  14
BRANCH  10  16
ATOM     16  O   UNL     1      95.592  89.847  85.971  1.00  0.00    -0.504 OA
ATOM     17  H   UNL     1      95.900  90.722  85.722  1.00  0.00     0.293 HD
ENDBRANCH  10  16
ENDBRANCH   7   8
ENDBRANCH   4   7
ENDBRANCH   2   3
ENDBRANCH   1   2
BRANCH   1  18
ATOM     18  C   UNL     1      90.814  95.202  90.701  1.00  0.00     0.001 C 
BRANCH  18  19
ATOM     19  C   UNL     1      92.337  95.234  90.414  1.00  0.00     0.004 C 
BRANCH  19  20
ATOM     20  C   UNL     1      92.945  96.629  90.733  1.00  0.00     0.027 C 
BRANCH  20  21
ATOM     21  C   UNL     1      91.952  97.680  90.876  1.00  0.00    -0.031 C 
ATOM     22  C   UNL     1      91.721  98.587  89.911  1.00  0.00    -0.028 C 
BRANCH  22  23
ATOM     23  C   UNL     1      90.728  99.652  90.021  1.00  0.00     0.005 C 
ATOM     24  C   UNL     1      89.564  99.408  89.024  1.00  0.00     0.012 C 
ATOM     25  C   UNL     1      90.231  99.773  91.488  1.00  0.00     0.012 C 
ENDBRANCH  22  23
ENDBRANCH  20  21
ENDBRANCH  19  20
ENDBRANCH  18  19
ENDBRANCH   1  18
TORSDOF 11
ENDMDL
