MODEL 1
REMARK VINA RESULT:    -7.019      0.000      0.000
REMARK INTER + INTRA:         -13.458
REMARK INTER:                 -12.353
REMARK INTRA:                  -1.105
REMARK UNBOUND:                -1.105
REMARK SMILES C=C(C)[C@]12C[C@@H](C)[C@@]34O[C@](Cc5ccccc5)(O[C@@H]1[C@@H]3C=C(COC(=O)Cc1ccc(O)c(OC)c1)C[C@]1(O)C(=O)C(C)=C[C@@H]41)O2
REMARK SMILES IDX 23 1 22 2 21 3 20 4 9 5 8 6 10 7 6 8 18 9 46 10 19 11 5 12
REMARK SMILES IDX 7 13 4 14 45 15 38 16 44 17 40 18 42 20 41 21 43 22 39 23
REMARK SMILES IDX 11 25 12 26 13 27 17 28 14 29 16 30 15 31 2 32 3 33 1 34
REMARK SMILES IDX 37 35 24 37 25 38 26 39 27 40 28 41 36 42 29 43 33 44 30 45
REMARK SMILES IDX 31 46 34 47 35 48 32 49
REMARK H PARENT 39 24 32 50
REMARK Flexibility Score: 90.00
ROOT
ATOM      1  C   UNL     1      84.188  90.042  87.087  1.00  0.00     0.264 C 
ENDROOT
BRANCH   1   2
ATOM      2  C   UNL     1      83.506  89.931  88.430  1.00  0.00    -0.033 C 
ATOM      3  C   UNL     1      83.944  90.687  89.457  1.00  0.00    -0.015 C 
BRANCH   3   4
ATOM      4  C   UNL     1      83.486  90.706  90.906  1.00  0.00     0.078 C 
ATOM      5  O   UNL     1      81.739  92.448  91.087  1.00  0.00    -0.319 OA
ATOM      6  C   UNL     1      81.971  91.011  91.209  1.00  0.00     0.095 C 
ATOM      7  C   UNL     1      82.755  93.288  91.667  1.00  0.00     0.289 C 
ATOM      8  C   UNL     1      81.678  90.557  92.699  1.00  0.00     0.023 C 
ATOM      9  O   UNL     1      84.035  93.016  91.102  1.00  0.00    -0.320 OA
ATOM     10  O   UNL     1      82.900  93.073  93.068  1.00  0.00    -0.313 OA
ATOM     11  C   UNL     1      84.312  91.743  91.706  1.00  0.00     0.170 C 
ATOM     12  C   UNL     1      82.927  90.757  93.612  1.00  0.00     0.049 C 
ATOM     13  C   UNL     1      80.452  91.209  93.358  1.00  0.00     0.011 C 
ATOM     14  C   UNL     1      83.783  91.936  93.150  1.00  0.00     0.122 C 
BRANCH   6  15
ATOM     15  C   UNL     1      81.053  90.376  90.124  1.00  0.00     0.086 C 
ATOM     16  C   UNL     1      81.413  88.942  89.682  1.00  0.00     0.140 CG0
ATOM     17  C   UNL     1      79.571  90.306  90.363  1.00  0.00    -0.010 C 
ATOM     18  C   UNL     1      80.054  88.336  89.403  1.00  0.00     0.190 C 
ATOM     19  G   UNL     1      82.324  88.928  88.456  1.00  0.00     0.000 G0
ATOM     20  C   UNL     1      78.976  89.184  89.944  1.00  0.00    -0.008 C 
ATOM     21  O   UNL     1      79.857  87.264  88.851  1.00  0.00    -0.291 OA
ATOM     22  C   UNL     1      77.547  88.810  89.938  1.00  0.00     0.048 C 
BRANCH  16  23
ATOM     23  O   UNL     1      81.936  88.135  90.725  1.00  0.00    -0.381 OA
ATOM     24  H   UNL     1      81.210  87.901  91.326  1.00  0.00     0.212 HD
ENDBRANCH  16  23
ENDBRANCH   6  15
BRANCH   7  25
ATOM     25  C   UNL     1      82.380  94.734  91.412  1.00  0.00     0.135 C 
BRANCH  25  26
ATOM     26  C   UNL     1      82.707  95.163  90.003  1.00  0.00    -0.040 A 
ATOM     27  C   UNL     1      81.681  95.511  89.125  1.00  0.00     0.004 A 
ATOM     28  C   UNL     1      84.035  95.213  89.580  1.00  0.00     0.004 A 
ATOM     29  C   UNL     1      81.983  95.908  87.822  1.00  0.00     0.000 A 
ATOM     30  C   UNL     1      84.337  95.610  88.276  1.00  0.00     0.000 A 
ATOM     31  C   UNL     1      83.310  95.957  87.398  1.00  0.00     0.000 A 
ENDBRANCH  25  26
ENDBRANCH   7  25
BRANCH  14  32
ATOM     32  C   UNL     1      84.881  92.260  94.110  1.00  0.00    -0.046 C 
ATOM     33  C   UNL     1      86.014  91.280  94.177  1.00  0.00     0.042 C 
ATOM     34  C   UNL     1      84.854  93.365  94.871  1.00  0.00     0.010 C 
ENDBRANCH  14  32
ENDBRANCH   3   4
BRANCH   2  35
ATOM     35  C   UNL     1      82.358  88.939  88.434  1.00  0.00     0.078 CG0
ATOM     36  G   UNL     1      81.435  88.943  89.652  1.00  0.00     0.000 G0
ENDBRANCH   2  35
ENDBRANCH   1   2
BRANCH   1  37
ATOM     37  O   UNL     1      83.333  90.707  86.182  1.00  0.00    -0.461 OA
BRANCH  37  38
ATOM     38  C   UNL     1      83.527  90.433  84.848  1.00  0.00     0.310 C 
ATOM     39  O   UNL     1      84.618  90.318  84.306  1.00  0.00    -0.252 OA
BRANCH  38  40
ATOM     40  C   UNL     1      82.189  90.297  84.162  1.00  0.00     0.158 C 
BRANCH  40  41
ATOM     41  C   UNL     1      81.488  89.004  84.491  1.00  0.00    -0.033 A 
ATOM     42  C   UNL     1      82.230  87.889  84.883  1.00  0.00     0.054 A 
ATOM     43  C   UNL     1      80.098  88.922  84.405  1.00  0.00     0.008 A 
ATOM     44  C   UNL     1      81.581  86.692  85.187  1.00  0.00     0.160 A 
ATOM     45  C   UNL     1      79.450  87.725  84.710  1.00  0.00     0.050 A 
ATOM     46  C   UNL     1      80.190  86.610  85.101  1.00  0.00     0.157 A 
BRANCH  44  47
ATOM     47  O   UNL     1      82.315  85.610  85.568  1.00  0.00    -0.493 OA
ATOM     48  C   UNL     1      82.552  85.446  86.965  1.00  0.00     0.278 C 
ENDBRANCH  44  47
BRANCH  46  49
ATOM     49  O   UNL     1      79.546  85.448  85.397  1.00  0.00    -0.504 OA
ATOM     50  H   UNL     1      80.138  84.700  85.207  1.00  0.00     0.293 HD
ENDBRANCH  46  49
ENDBRANCH  40  41
ENDBRANCH  38  40
ENDBRANCH  37  38
ENDBRANCH   1  37
TORSDOF 11
ENDMDL
MODEL 2
REMARK VINA RESULT:    -6.901     27.129     29.412
REMARK INTER + INTRA:         -13.251
REMARK INTER:                 -12.193
REMARK INTRA:                  -1.058
REMARK UNBOUND:                -1.105
REMARK SMILES C=C(C)[C@]12C[C@@H](C)[C@@]34O[C@](Cc5ccccc5)(O[C@@H]1[C@@H]3C=C(COC(=O)Cc1ccc(O)c(OC)c1)C[C@]1(O)C(=O)C(C)=C[C@@H]41)O2
REMARK SMILES IDX 23 1 22 2 21 3 20 4 9 5 8 6 10 7 6 8 18 9 46 10 19 11 5 12
REMARK SMILES IDX 7 13 4 14 45 15 38 16 44 17 40 18 42 20 41 21 43 22 39 23
REMARK SMILES IDX 11 25 12 26 13 27 17 28 14 29 16 30 15 31 2 32 3 33 1 34
REMARK SMILES IDX 37 35 24 37 25 38 26 39 27 40 28 41 36 42 29 43 33 44 30 45
REMARK SMILES IDX 31 46 34 47 35 48 32 49
REMARK H PARENT 39 24 32 50
REMARK Flexibility Score: 90.00
ROOT
ATOM      1  C   UNL     1      85.307  70.103  71.904  1.00  0.00     0.264 C 
ENDROOT
BRANCH   1   2
ATOM      2  C   UNL     1      86.639  70.024  71.196  1.00  0.00    -0.033 C 
ATOM      3  C   UNL     1      86.681  70.163  69.855  1.00  0.00    -0.015 C 
BRANCH   3   4
ATOM      4  C   UNL     1      87.867  70.049  68.911  1.00  0.00     0.078 C 
ATOM      5  O   UNL     1      88.801  72.324  68.650  1.00  0.00    -0.319 OA
ATOM      6  C   UNL     1      89.108  70.987  69.151  1.00  0.00     0.095 C 
ATOM      7  C   UNL     1      88.123  72.366  67.380  1.00  0.00     0.289 C 
ATOM      8  C   UNL     1      90.327  70.388  68.334  1.00  0.00     0.023 C 
ATOM      9  O   UNL     1      86.898  71.638  67.424  1.00  0.00    -0.320 OA
ATOM     10  O   UNL     1      88.888  71.768  66.337  1.00  0.00    -0.313 OA
ATOM     11  C   UNL     1      87.404  70.295  67.454  1.00  0.00     0.170 C 
ATOM     12  C   UNL     1      89.850  69.701  67.018  1.00  0.00     0.049 C 
ATOM     13  C   UNL     1      91.456  71.380  68.012  1.00  0.00     0.011 C 
ATOM     14  C   UNL     1      88.590  70.362  66.458  1.00  0.00     0.122 C 
BRANCH   6  15
ATOM     15  C   UNL     1      89.360  71.191  70.673  1.00  0.00     0.086 C 
ATOM     16  C   UNL     1      89.240  69.931  71.557  1.00  0.00     0.140 CG0
ATOM     17  C   UNL     1      90.648  71.816  71.130  1.00  0.00    -0.010 C 
ATOM     18  C   UNL     1      90.287  70.180  72.622  1.00  0.00     0.190 C 
ATOM     19  G   UNL     1      87.837  69.768  72.141  1.00  0.00     0.000 G0
ATOM     20  C   UNL     1      91.179  71.289  72.237  1.00  0.00    -0.008 C 
ATOM     21  O   UNL     1      90.424  69.527  73.646  1.00  0.00    -0.291 OA
ATOM     22  C   UNL     1      92.373  71.697  73.007  1.00  0.00     0.048 C 
BRANCH  16  23
ATOM     23  O   UNL     1      89.678  68.741  70.922  1.00  0.00    -0.381 OA
ATOM     24  H   UNL     1      89.372  68.755  70.000  1.00  0.00     0.212 HD
ENDBRANCH  16  23
ENDBRANCH   6  15
BRANCH   7  25
ATOM     25  C   UNL     1      87.845  73.815  67.037  1.00  0.00     0.135 C 
BRANCH  25  26
ATOM     26  C   UNL     1      88.941  74.417  66.193  1.00  0.00    -0.040 A 
ATOM     27  C   UNL     1      90.134  74.826  66.788  1.00  0.00     0.004 A 
ATOM     28  C   UNL     1      88.762  74.562  64.817  1.00  0.00     0.004 A 
ATOM     29  C   UNL     1      91.149  75.382  66.008  1.00  0.00     0.000 A 
ATOM     30  C   UNL     1      89.777  75.118  64.037  1.00  0.00     0.000 A 
ATOM     31  C   UNL     1      90.970  75.528  64.633  1.00  0.00     0.000 A 
ENDBRANCH  25  26
ENDBRANCH   7  25
BRANCH  14  32
ATOM     32  C   UNL     1      88.219  69.842  65.108  1.00  0.00    -0.046 C 
ATOM     33  C   UNL     1      87.745  68.420  65.053  1.00  0.00     0.042 C 
ATOM     34  C   UNL     1      88.305  70.603  64.006  1.00  0.00     0.010 C 
ENDBRANCH  14  32
ENDBRANCH   3   4
BRANCH   2  35
ATOM     35  C   UNL     1      87.803  69.796  72.141  1.00  0.00     0.078 CG0
ATOM     36  G   UNL     1      89.210  69.944  71.565  1.00  0.00     0.000 G0
ENDBRANCH   2  35
ENDBRANCH   1   2
BRANCH   1  37
ATOM     37  O   UNL     1      84.306  69.543  71.081  1.00  0.00    -0.461 OA
BRANCH  37  38
ATOM     38  C   UNL     1      83.749  68.364  71.517  1.00  0.00     0.310 C 
ATOM     39  O   UNL     1      84.296  67.271  71.476  1.00  0.00    -0.252 OA
BRANCH  38  40
ATOM     40  C   UNL     1      82.361  68.629  72.053  1.00  0.00     0.158 C 
BRANCH  40  41
ATOM     41  C   UNL     1      81.672  67.381  72.541  1.00  0.00    -0.033 A 
ATOM     42  C   UNL     1      81.921  66.906  73.830  1.00  0.00     0.054 A 
ATOM     43  C   UNL     1      80.784  66.702  71.707  1.00  0.00     0.008 A 
ATOM     44  C   UNL     1      81.283  65.751  74.282  1.00  0.00     0.160 A 
ATOM     45  C   UNL     1      80.146  65.547  72.160  1.00  0.00     0.050 A 
ATOM     46  C   UNL     1      80.395  65.071  73.447  1.00  0.00     0.157 A 
BRANCH  44  47
ATOM     47  O   UNL     1      81.535  65.296  75.541  1.00  0.00    -0.493 OA
ATOM     48  C   UNL     1      82.902  65.107  75.901  1.00  0.00     0.278 C 
ENDBRANCH  44  47
BRANCH  46  49
ATOM     49  O   UNL     1      79.765  63.943  73.878  1.00  0.00    -0.504 OA
ATOM     50  H   UNL     1      80.245  63.587  74.645  1.00  0.00     0.293 HD
ENDBRANCH  46  49
ENDBRANCH  40  41
ENDBRANCH  38  40
ENDBRANCH  37  38
ENDBRANCH   1  37
TORSDOF 11
ENDMDL
MODEL 3
REMARK VINA RESULT:    -6.451     20.830     25.616
REMARK INTER + INTRA:         -12.458
REMARK INTER:                  -9.954
REMARK INTRA:                  -2.504
REMARK UNBOUND:                -1.105
REMARK SMILES C=C(C)[C@]12C[C@@H](C)[C@@]34O[C@](Cc5ccccc5)(O[C@@H]1[C@@H]3C=C(COC(=O)Cc1ccc(O)c(OC)c1)C[C@]1(O)C(=O)C(C)=C[C@@H]41)O2
REMARK SMILES IDX 23 1 22 2 21 3 20 4 9 5 8 6 10 7 6 8 18 9 46 10 19 11 5 12
REMARK SMILES IDX 7 13 4 14 45 15 38 16 44 17 40 18 42 20 41 21 43 22 39 23
REMARK SMILES IDX 11 25 12 26 13 27 17 28 14 29 16 30 15 31 2 32 3 33 1 34
REMARK SMILES IDX 37 35 24 37 25 38 26 39 27 40 28 41 36 42 29 43 33 44 30 45
REMARK SMILES IDX 31 46 34 47 35 48 32 49
REMARK H PARENT 39 24 32 50
REMARK Flexibility Score: 90.00
ROOT
ATOM      1  C   UNL     1      67.018  86.679  71.804  1.00  0.00     0.264 C 
ENDROOT
BRANCH   1   2
ATOM      2  C   UNL     1      65.811  86.744  72.710  1.00  0.00    -0.033 C 
ATOM      3  C   UNL     1      64.622  86.298  72.257  1.00  0.00    -0.015 C 
BRANCH   3   4
ATOM      4  C   UNL     1      63.261  86.324  72.933  1.00  0.00     0.078 C 
ATOM      5  O   UNL     1      63.010  84.174  74.130  1.00  0.00    -0.319 OA
ATOM      6  C   UNL     1      63.106  85.618  74.331  1.00  0.00     0.095 C 
ATOM      7  C   UNL     1      62.172  83.759  73.035  1.00  0.00     0.289 C 
ATOM      8  C   UNL     1      61.764  86.145  74.989  1.00  0.00     0.023 C 
ATOM      9  O   UNL     1      62.607  84.331  71.804  1.00  0.00    -0.320 OA
ATOM     10  O   UNL     1      60.820  84.180  73.198  1.00  0.00    -0.313 OA
ATOM     11  C   UNL     1      62.198  85.693  72.000  1.00  0.00     0.170 C 
ATOM     12  C   UNL     1      60.679  86.446  73.910  1.00  0.00     0.049 C 
ATOM     13  C   UNL     1      61.164  85.242  76.079  1.00  0.00     0.011 C 
ATOM     14  C   UNL     1      60.822  85.532  72.693  1.00  0.00     0.122 C 
BRANCH   6  15
ATOM     15  C   UNL     1      64.390  85.806  75.190  1.00  0.00     0.086 C 
ATOM     16  C   UNL     1      65.030  87.209  75.158  1.00  0.00     0.140 CG0
ATOM     17  C   UNL     1      64.352  85.472  76.655  1.00  0.00    -0.010 C 
ATOM     18  C   UNL     1      65.577  87.350  76.562  1.00  0.00     0.190 C 
ATOM     19  G   UNL     1      66.119  87.323  74.091  1.00  0.00     0.000 G0
ATOM     20  C   UNL     1      65.032  86.305  77.450  1.00  0.00    -0.008 C 
ATOM     21  O   UNL     1      66.330  88.234  76.944  1.00  0.00    -0.291 OA
ATOM     22  C   UNL     1      65.280  86.243  78.905  1.00  0.00     0.048 C 
BRANCH  16  23
ATOM     23  O   UNL     1      64.091  88.266  75.053  1.00  0.00    -0.381 OA
ATOM     24  H   UNL     1      64.279  88.915  75.751  1.00  0.00     0.212 HD
ENDBRANCH  16  23
ENDBRANCH   6  15
BRANCH   7  25
ATOM     25  C   UNL     1      62.223  82.247  72.943  1.00  0.00     0.135 C 
BRANCH  25  26
ATOM     26  C   UNL     1      63.426  81.678  73.653  1.00  0.00    -0.040 A 
ATOM     27  C   UNL     1      63.637  81.960  75.003  1.00  0.00     0.004 A 
ATOM     28  C   UNL     1      64.327  80.869  72.960  1.00  0.00     0.004 A 
ATOM     29  C   UNL     1      64.750  81.434  75.659  1.00  0.00     0.000 A 
ATOM     30  C   UNL     1      65.440  80.343  73.617  1.00  0.00     0.000 A 
ATOM     31  C   UNL     1      65.651  80.626  74.967  1.00  0.00     0.000 A 
ENDBRANCH  25  26
ENDBRANCH   7  25
BRANCH  14  32
ATOM     32  C   UNL     1      59.688  85.676  71.730  1.00  0.00    -0.046 C 
ATOM     33  C   UNL     1      59.690  86.915  70.886  1.00  0.00     0.042 C 
ATOM     34  C   UNL     1      58.724  84.749  71.627  1.00  0.00     0.010 C 
ENDBRANCH  14  32
ENDBRANCH   3   4
BRANCH   2  35
ATOM     35  C   UNL     1      66.124  87.324  74.076  1.00  0.00     0.078 CG0
ATOM     36  G   UNL     1      65.038  87.216  75.146  1.00  0.00     0.000 G0
ENDBRANCH   2  35
ENDBRANCH   1   2
BRANCH   1  37
ATOM     37  O   UNL     1      67.281  87.964  71.284  1.00  0.00    -0.461 OA
BRANCH  37  38
ATOM     38  C   UNL     1      66.657  88.281  70.100  1.00  0.00     0.310 C 
ATOM     39  O   UNL     1      66.569  87.539  69.131  1.00  0.00    -0.252 OA
BRANCH  38  40
ATOM     40  C   UNL     1      66.099  89.683  70.183  1.00  0.00     0.158 C 
BRANCH  40  41
ATOM     41  C   UNL     1      64.705  89.728  70.752  1.00  0.00    -0.033 A 
ATOM     42  C   UNL     1      64.496  90.195  72.050  1.00  0.00     0.054 A 
ATOM     43  C   UNL     1      63.623  89.303  69.981  1.00  0.00     0.008 A 
ATOM     44  C   UNL     1      63.205  90.236  72.577  1.00  0.00     0.160 A 
ATOM     45  C   UNL     1      62.331  89.345  70.508  1.00  0.00     0.050 A 
ATOM     46  C   UNL     1      62.122  89.811  71.806  1.00  0.00     0.157 A 
BRANCH  44  47
ATOM     47  O   UNL     1      63.014  90.694  73.846  1.00  0.00    -0.493 OA
ATOM     48  C   UNL     1      63.114  92.102  74.049  1.00  0.00     0.278 C 
ENDBRANCH  44  47
BRANCH  46  49
ATOM     49  O   UNL     1      60.858  89.848  72.309  1.00  0.00    -0.504 OA
ATOM     50  H   UNL     1      60.875  89.541  73.231  1.00  0.00     0.293 HD
ENDBRANCH  46  49
ENDBRANCH  40  41
ENDBRANCH  38  40
ENDBRANCH  37  38
ENDBRANCH   1  37
TORSDOF 11
ENDMDL
MODEL 4
REMARK VINA RESULT:    -6.445     20.176     25.130
REMARK INTER + INTRA:         -12.449
REMARK INTER:                 -12.099
REMARK INTRA:                  -0.350
REMARK UNBOUND:                -1.105
REMARK SMILES C=C(C)[C@]12C[C@@H](C)[C@@]34O[C@](Cc5ccccc5)(O[C@@H]1[C@@H]3C=C(COC(=O)Cc1ccc(O)c(OC)c1)C[C@]1(O)C(=O)C(C)=C[C@@H]41)O2
REMARK SMILES IDX 23 1 22 2 21 3 20 4 9 5 8 6 10 7 6 8 18 9 46 10 19 11 5 12
REMARK SMILES IDX 7 13 4 14 45 15 38 16 44 17 40 18 42 20 41 21 43 22 39 23
REMARK SMILES IDX 11 25 12 26 13 27 17 28 14 29 16 30 15 31 2 32 3 33 1 34
REMARK SMILES IDX 37 35 24 37 25 38 26 39 27 40 28 41 36 42 29 43 33 44 30 45
REMARK SMILES IDX 31 46 34 47 35 48 32 49
REMARK H PARENT 39 24 32 50
REMARK Flexibility Score: 90.00
ROOT
ATOM      1  C   UNL     1      66.441  87.088  70.816  1.00  0.00     0.264 C 
ENDROOT
BRANCH   1   2
ATOM      2  C   UNL     1      65.567  87.157  72.046  1.00  0.00    -0.033 C 
ATOM      3  C   UNL     1      64.260  86.841  71.945  1.00  0.00    -0.015 C 
BRANCH   3   4
ATOM      4  C   UNL     1      63.168  86.902  73.001  1.00  0.00     0.078 C 
ATOM      5  O   UNL     1      63.086  84.680  74.083  1.00  0.00    -0.319 OA
ATOM      6  C   UNL     1      63.369  86.091  74.335  1.00  0.00     0.095 C 
ATOM      7  C   UNL     1      61.927  84.419  73.269  1.00  0.00     0.289 C 
ATOM      8  C   UNL     1      62.336  86.651  75.398  1.00  0.00     0.023 C 
ATOM      9  O   UNL     1      62.030  85.063  72.002  1.00  0.00    -0.320 OA
ATOM     10  O   UNL     1      60.729  84.917  73.857  1.00  0.00    -0.313 OA
ATOM     11  C   UNL     1      61.824  86.428  72.395  1.00  0.00     0.170 C 
ATOM     12  C   UNL     1      61.012  87.118  74.717  1.00  0.00     0.049 C 
ATOM     13  C   UNL     1      62.005  85.701  76.560  1.00  0.00     0.011 C 
ATOM     14  C   UNL     1      60.705  86.303  73.460  1.00  0.00     0.122 C 
BRANCH   6  15
ATOM     15  C   UNL     1      64.861  86.115  74.775  1.00  0.00     0.086 C 
ATOM     16  C   UNL     1      65.589  87.469  74.639  1.00  0.00     0.140 CG0
ATOM     17  C   UNL     1      65.228  85.660  76.160  1.00  0.00    -0.010 C 
ATOM     18  C   UNL     1      66.537  87.450  75.819  1.00  0.00     0.190 C 
ATOM     19  G   UNL     1      66.319  87.599  73.303  1.00  0.00     0.000 G0
ATOM     20  C   UNL     1      66.186  86.372  76.762  1.00  0.00    -0.008 C 
ATOM     21  O   UNL     1      67.446  88.243  76.009  1.00  0.00    -0.291 OA
ATOM     22  C   UNL     1      66.845  86.167  78.068  1.00  0.00     0.048 C 
BRANCH  16  23
ATOM     23  O   UNL     1      64.761  88.593  74.888  1.00  0.00    -0.381 OA
ATOM     24  H   UNL     1      64.537  89.004  74.036  1.00  0.00     0.212 HD
ENDBRANCH  16  23
ENDBRANCH   6  15
BRANCH   7  25
ATOM     25  C   UNL     1      61.810  82.921  73.074  1.00  0.00     0.135 C 
BRANCH  25  26
ATOM     26  C   UNL     1      62.992  82.182  73.651  1.00  0.00    -0.040 A 
ATOM     27  C   UNL     1      63.304  82.315  75.004  1.00  0.00     0.004 A 
ATOM     28  C   UNL     1      63.771  81.364  72.833  1.00  0.00     0.004 A 
ATOM     29  C   UNL     1      64.396  81.631  75.539  1.00  0.00     0.000 A 
ATOM     30  C   UNL     1      64.864  80.680  73.367  1.00  0.00     0.000 A 
ATOM     31  C   UNL     1      65.176  80.815  74.720  1.00  0.00     0.000 A 
ENDBRANCH  25  26
ENDBRANCH   7  25
BRANCH  14  32
ATOM     32  C   UNL     1      59.356  86.608  72.894  1.00  0.00    -0.046 C 
ATOM     33  C   UNL     1      58.398  87.312  73.808  1.00  0.00     0.042 C 
ATOM     34  C   UNL     1      59.020  86.270  71.640  1.00  0.00     0.010 C 
ENDBRANCH  14  32
ENDBRANCH   3   4
BRANCH   2  35
ATOM     35  C   UNL     1      66.322  87.586  73.290  1.00  0.00     0.078 CG0
ATOM     36  G   UNL     1      65.589  87.478  74.626  1.00  0.00     0.000 G0
ENDBRANCH   2  35
ENDBRANCH   1   2
BRANCH   1  37
ATOM     37  O   UNL     1      67.773  86.828  71.203  1.00  0.00    -0.461 OA
BRANCH  37  38
ATOM     38  C   UNL     1      68.705  86.794  70.192  1.00  0.00     0.310 C 
ATOM     39  O   UNL     1      68.998  87.740  69.475  1.00  0.00    -0.252 OA
BRANCH  38  40
ATOM     40  C   UNL     1      69.305  85.410  70.106  1.00  0.00     0.158 C 
BRANCH  40  41
ATOM     41  C   UNL     1      69.834  85.083  68.733  1.00  0.00    -0.033 A 
ATOM     42  C   UNL     1      71.138  85.436  68.386  1.00  0.00     0.054 A 
ATOM     43  C   UNL     1      69.020  84.426  67.811  1.00  0.00     0.008 A 
ATOM     44  C   UNL     1      71.628  85.133  67.115  1.00  0.00     0.160 A 
ATOM     45  C   UNL     1      69.509  84.123  66.540  1.00  0.00     0.050 A 
ATOM     46  C   UNL     1      70.812  84.477  66.192  1.00  0.00     0.157 A 
BRANCH  44  47
ATOM     47  O   UNL     1      72.902  85.483  66.788  1.00  0.00    -0.493 OA
ATOM     48  C   UNL     1      73.243  86.865  66.893  1.00  0.00     0.278 C 
ENDBRANCH  44  47
BRANCH  46  49
ATOM     49  O   UNL     1      71.280  84.175  64.949  1.00  0.00    -0.504 OA
ATOM     50  H   UNL     1      72.050  84.735  64.755  1.00  0.00     0.293 HD
ENDBRANCH  46  49
ENDBRANCH  40  41
ENDBRANCH  38  40
ENDBRANCH  37  38
ENDBRANCH   1  37
TORSDOF 11
ENDMDL
MODEL 5
REMARK VINA RESULT:    -6.312     16.127     19.650
REMARK INTER + INTRA:         -12.214
REMARK INTER:                 -11.462
REMARK INTRA:                  -0.753
REMARK UNBOUND:                -1.105
REMARK SMILES C=C(C)[C@]12C[C@@H](C)[C@@]34O[C@](Cc5ccccc5)(O[C@@H]1[C@@H]3C=C(COC(=O)Cc1ccc(O)c(OC)c1)C[C@]1(O)C(=O)C(C)=C[C@@H]41)O2
REMARK SMILES IDX 23 1 22 2 21 3 20 4 9 5 8 6 10 7 6 8 18 9 46 10 19 11 5 12
REMARK SMILES IDX 7 13 4 14 45 15 38 16 44 17 40 18 42 20 41 21 43 22 39 23
REMARK SMILES IDX 11 25 12 26 13 27 17 28 14 29 16 30 15 31 2 32 3 33 1 34
REMARK SMILES IDX 37 35 24 37 25 38 26 39 27 40 28 41 36 42 29 43 33 44 30 45
REMARK SMILES IDX 31 46 34 47 35 48 32 49
REMARK H PARENT 39 24 32 50
REMARK Flexibility Score: 90.00
ROOT
ATOM      1  C   UNL     1      95.725  82.194  87.969  1.00  0.00     0.264 C 
ENDROOT
BRANCH   1   2
ATOM      2  C   UNL     1      96.978  81.588  87.382  1.00  0.00    -0.033 C 
ATOM      3  C   UNL     1      96.951  81.112  86.121  1.00  0.00    -0.015 C 
BRANCH   3   4
ATOM      4  C   UNL     1      98.038  80.395  85.337  1.00  0.00     0.078 C 
ATOM      5  O   UNL     1      99.302  82.130  84.106  1.00  0.00    -0.319 OA
ATOM      6  C   UNL     1      99.426  81.115  85.151  1.00  0.00     0.095 C 
ATOM      7  C   UNL     1      98.556  81.728  82.942  1.00  0.00     0.289 C 
ATOM      8  C   UNL     1     100.477  80.021  84.695  1.00  0.00     0.023 C 
ATOM      9  O   UNL     1      97.237  81.315  83.290  1.00  0.00    -0.320 OA
ATOM     10  O   UNL     1      99.146  80.613  82.279  1.00  0.00    -0.313 OA
ATOM     11  C   UNL     1      97.525  80.055  83.916  1.00  0.00     0.170 C 
ATOM     12  C   UNL     1      99.810  78.920  83.813  1.00  0.00     0.049 C 
ATOM     13  C   UNL     1     101.726  80.562  83.980  1.00  0.00     0.011 C 
ATOM     14  C   UNL     1      98.637  79.476  83.006  1.00  0.00     0.122 C 
BRANCH   6  15
ATOM     15  C   UNL     1      99.807  81.918  86.428  1.00  0.00     0.086 C 
ATOM     16  C   UNL     1      99.534  81.219  87.777  1.00  0.00     0.140 CG0
ATOM     17  C   UNL     1     101.209  82.437  86.581  1.00  0.00    -0.010 C 
ATOM     18  C   UNL     1     100.675  81.716  88.638  1.00  0.00     0.190 C 
ATOM     19  G   UNL     1      98.166  81.584  88.350  1.00  0.00     0.000 G0
ATOM     20  C   UNL     1     101.715  82.364  87.816  1.00  0.00    -0.008 C 
ATOM     21  O   UNL     1     100.767  81.567  89.847  1.00  0.00    -0.291 OA
ATOM     22  C   UNL     1     103.008  82.846  88.345  1.00  0.00     0.048 C 
BRANCH  16  23
ATOM     23  O   UNL     1      99.723  79.814  87.743  1.00  0.00    -0.381 OA
ATOM     24  H   UNL     1      99.108  79.406  88.375  1.00  0.00     0.212 HD
ENDBRANCH  16  23
ENDBRANCH   6  15
BRANCH   7  25
ATOM     25  C   UNL     1      98.489  82.905  81.990  1.00  0.00     0.135 C 
BRANCH  25  26
ATOM     26  C   UNL     1      98.206  82.472  80.573  1.00  0.00    -0.040 A 
ATOM     27  C   UNL     1      99.256  82.085  79.740  1.00  0.00     0.004 A 
ATOM     28  C   UNL     1      96.896  82.455  80.097  1.00  0.00     0.004 A 
ATOM     29  C   UNL     1      98.995  81.684  78.429  1.00  0.00     0.000 A 
ATOM     30  C   UNL     1      96.635  82.054  78.786  1.00  0.00     0.000 A 
ATOM     31  C   UNL     1      97.685  81.668  77.953  1.00  0.00     0.000 A 
ENDBRANCH  25  26
ENDBRANCH   7  25
BRANCH  14  32
ATOM     32  C   UNL     1      98.099  78.490  82.021  1.00  0.00    -0.046 C 
ATOM     33  C   UNL     1      97.498  77.241  82.594  1.00  0.00     0.042 C 
ATOM     34  C   UNL     1      98.152  78.708  80.698  1.00  0.00     0.010 C 
ENDBRANCH  14  32
ENDBRANCH   3   4
BRANCH   2  35
ATOM     35  C   UNL     1      98.153  81.606  88.340  1.00  0.00     0.078 CG0
ATOM     36  G   UNL     1      99.524  81.242  87.772  1.00  0.00     0.000 G0
ENDBRANCH   2  35
ENDBRANCH   1   2
BRANCH   1  37
ATOM     37  O   UNL     1      95.035  82.906  86.964  1.00  0.00    -0.461 OA
BRANCH  37  38
ATOM     38  C   UNL     1      95.375  84.230  86.815  1.00  0.00     0.310 C 
ATOM     39  O   UNL     1      96.478  84.639  86.477  1.00  0.00    -0.252 OA
BRANCH  38  40
ATOM     40  C   UNL     1      94.179  85.097  87.131  1.00  0.00     0.158 C 
BRANCH  40  41
ATOM     41  C   UNL     1      94.561  86.486  87.576  1.00  0.00    -0.033 A 
ATOM     42  C   UNL     1      94.275  86.904  88.876  1.00  0.00     0.054 A 
ATOM     43  C   UNL     1      95.200  87.352  86.690  1.00  0.00     0.008 A 
ATOM     44  C   UNL     1      94.628  88.189  89.289  1.00  0.00     0.160 A 
ATOM     45  C   UNL     1      95.553  88.637  87.102  1.00  0.00     0.050 A 
ATOM     46  C   UNL     1      95.267  89.056  88.401  1.00  0.00     0.157 A 
BRANCH  44  47
ATOM     47  O   UNL     1      94.343  88.586  90.560  1.00  0.00    -0.493 OA
ATOM     48  C   UNL     1      93.102  89.261  90.766  1.00  0.00     0.278 C 
ENDBRANCH  44  47
BRANCH  46  49
ATOM     49  O   UNL     1      95.617  90.312  88.793  1.00  0.00    -0.504 OA
ATOM     50  H   UNL     1      95.103  90.552  89.582  1.00  0.00     0.293 HD
ENDBRANCH  46  49
ENDBRANCH  40  41
ENDBRANCH  38  40
ENDBRANCH  37  38
ENDBRANCH   1  37
TORSDOF 11
ENDMDL
MODEL 6
REMARK VINA RESULT:    -6.202      2.257      3.317
REMARK INTER + INTRA:         -12.021
REMARK INTER:                 -10.810
REMARK INTRA:                  -1.211
REMARK UNBOUND:                -1.105
REMARK SMILES C=C(C)[C@]12C[C@@H](C)[C@@]34O[C@](Cc5ccccc5)(O[C@@H]1[C@@H]3C=C(COC(=O)Cc1ccc(O)c(OC)c1)C[C@]1(O)C(=O)C(C)=C[C@@H]41)O2
REMARK SMILES IDX 23 1 22 2 21 3 20 4 9 5 8 6 10 7 6 8 18 9 46 10 19 11 5 12
REMARK SMILES IDX 7 13 4 14 45 15 38 16 44 17 40 18 42 20 41 21 43 22 39 23
REMARK SMILES IDX 11 25 12 26 13 27 17 28 14 29 16 30 15 31 2 32 3 33 1 34
REMARK SMILES IDX 37 35 24 37 25 38 26 39 27 40 28 41 36 42 29 43 33 44 30 45
REMARK SMILES IDX 31 46 34 47 35 48 32 49
REMARK H PARENT 39 24 32 50
REMARK Flexibility Score: 90.00
ROOT
ATOM      1  C   UNL     1      83.747  90.820  87.952  1.00  0.00     0.264 C 
ENDROOT
BRANCH   1   2
ATOM      2  C   UNL     1      83.092  91.636  89.042  1.00  0.00    -0.033 C 
ATOM      3  C   UNL     1      83.705  92.749  89.492  1.00  0.00    -0.015 C 
BRANCH   3   4
ATOM      4  C   UNL     1      83.299  93.687  90.617  1.00  0.00     0.078 C 
ATOM      5  O   UNL     1      81.951  95.493  89.598  1.00  0.00    -0.319 OA
ATOM      6  C   UNL     1      81.887  94.379  90.541  1.00  0.00     0.095 C 
ATOM      7  C   UNL     1      83.132  96.311  89.689  1.00  0.00     0.289 C 
ATOM      8  C   UNL     1      81.547  94.936  91.986  1.00  0.00     0.023 C 
ATOM      9  O   UNL     1      84.314  95.535  89.509  1.00  0.00    -0.320 OA
ATOM     10  O   UNL     1      83.267  96.927  90.967  1.00  0.00    -0.313 OA
ATOM     11  C   UNL     1      84.340  94.824  90.756  1.00  0.00     0.170 C 
ATOM     12  C   UNL     1      82.834  95.397  92.737  1.00  0.00     0.049 C 
ATOM     13  C   UNL     1      80.499  96.059  92.031  1.00  0.00     0.011 C 
ATOM     14  C   UNL     1      83.901  95.910  91.770  1.00  0.00     0.122 C 
BRANCH   6  15
ATOM     15  C   UNL     1      80.830  93.413  89.931  1.00  0.00     0.086 C 
ATOM     16  C   UNL     1      80.879  91.953  90.426  1.00  0.00     0.140 CG0
ATOM     17  C   UNL     1      79.372  93.765  90.022  1.00  0.00    -0.010 C 
ATOM     18  C   UNL     1      79.418  91.556  90.413  1.00  0.00     0.190 C 
ATOM     19  G   UNL     1      81.734  91.066  89.522  1.00  0.00     0.000 G0
ATOM     20  C   UNL     1      78.549  92.739  90.264  1.00  0.00    -0.008 C 
ATOM     21  O   UNL     1      78.991  90.420  90.557  1.00  0.00    -0.291 OA
ATOM     22  C   UNL     1      77.074  92.698  90.335  1.00  0.00     0.048 C 
BRANCH  16  23
ATOM     23  O   UNL     1      81.254  91.820  91.787  1.00  0.00    -0.381 OA
ATOM     24  H   UNL     1      81.223  90.878  92.023  1.00  0.00     0.212 HD
ENDBRANCH  16  23
ENDBRANCH   6  15
BRANCH   7  25
ATOM     25  C   UNL     1      83.054  97.381  88.618  1.00  0.00     0.135 C 
BRANCH  25  26
ATOM     26  C   UNL     1      81.635  97.635  88.175  1.00  0.00    -0.040 A 
ATOM     27  C   UNL     1      80.750  98.304  89.021  1.00  0.00     0.004 A 
ATOM     28  C   UNL     1      81.207  97.202  86.920  1.00  0.00     0.004 A 
ATOM     29  C   UNL     1      79.436  98.539  88.612  1.00  0.00     0.000 A 
ATOM     30  C   UNL     1      79.894  97.437  86.511  1.00  0.00     0.000 A 
ATOM     31  C   UNL     1      79.009  98.106  87.358  1.00  0.00     0.000 A 
ENDBRANCH  25  26
ENDBRANCH   7  25
BRANCH  14  32
ATOM     32  C   UNL     1      85.067  96.525  92.474  1.00  0.00    -0.046 C 
ATOM     33  C   UNL     1      84.840  97.883  93.068  1.00  0.00     0.042 C 
ATOM     34  C   UNL     1      86.249  95.898  92.569  1.00  0.00     0.010 C 
ENDBRANCH  14  32
ENDBRANCH   3   4
BRANCH   2  35
ATOM     35  C   UNL     1      81.762  91.063  89.496  1.00  0.00     0.078 CG0
ATOM     36  G   UNL     1      80.891  91.942  90.391  1.00  0.00     0.000 G0
ENDBRANCH   2  35
ENDBRANCH   1   2
BRANCH   1  37
ATOM     37  O   UNL     1      83.309  91.286  86.693  1.00  0.00    -0.461 OA
BRANCH  37  38
ATOM     38  C   UNL     1      84.165  91.078  85.637  1.00  0.00     0.310 C 
ATOM     39  O   UNL     1      84.683  91.962  84.968  1.00  0.00    -0.252 OA
BRANCH  38  40
ATOM     40  C   UNL     1      84.363  89.595  85.432  1.00  0.00     0.158 C 
BRANCH  40  41
ATOM     41  C   UNL     1      83.078  88.864  85.142  1.00  0.00    -0.033 A 
ATOM     42  C   UNL     1      82.849  87.606  85.701  1.00  0.00     0.054 A 
ATOM     43  C   UNL     1      82.116  89.445  84.315  1.00  0.00     0.008 A 
ATOM     44  C   UNL     1      81.659  86.930  85.433  1.00  0.00     0.160 A 
ATOM     45  C   UNL     1      80.926  88.769  84.047  1.00  0.00     0.050 A 
ATOM     46  C   UNL     1      80.697  87.511  84.605  1.00  0.00     0.157 A 
BRANCH  44  47
ATOM     47  O   UNL     1      81.447  85.703  85.984  1.00  0.00    -0.493 OA
ATOM     48  C   UNL     1      82.445  85.212  86.878  1.00  0.00     0.278 C 
ENDBRANCH  44  47
BRANCH  46  49
ATOM     49  O   UNL     1      79.531  86.861  84.337  1.00  0.00    -0.504 OA
ATOM     50  H   UNL     1      78.809  87.510  84.295  1.00  0.00     0.293 HD
ENDBRANCH  46  49
ENDBRANCH  40  41
ENDBRANCH  38  40
ENDBRANCH  37  38
ENDBRANCH   1  37
TORSDOF 11
ENDMDL
MODEL 7
REMARK VINA RESULT:    -6.088     23.076     27.780
REMARK INTER + INTRA:         -11.820
REMARK INTER:                 -11.130
REMARK INTRA:                  -0.690
REMARK UNBOUND:                -1.105
REMARK SMILES C=C(C)[C@]12C[C@@H](C)[C@@]34O[C@](Cc5ccccc5)(O[C@@H]1[C@@H]3C=C(COC(=O)Cc1ccc(O)c(OC)c1)C[C@]1(O)C(=O)C(C)=C[C@@H]41)O2
REMARK SMILES IDX 23 1 22 2 21 3 20 4 9 5 8 6 10 7 6 8 18 9 46 10 19 11 5 12
REMARK SMILES IDX 7 13 4 14 45 15 38 16 44 17 40 18 42 20 41 21 43 22 39 23
REMARK SMILES IDX 11 25 12 26 13 27 17 28 14 29 16 30 15 31 2 32 3 33 1 34
REMARK SMILES IDX 37 35 24 37 25 38 26 39 27 40 28 41 36 42 29 43 33 44 30 45
REMARK SMILES IDX 31 46 34 47 35 48 32 49
REMARK H PARENT 39 24 32 50
REMARK Flexibility Score: 90.00
ROOT
ATOM      1  C   UNL     1      59.645  87.607  70.628  1.00  0.00     0.264 C 
ENDROOT
BRANCH   1   2
ATOM      2  C   UNL     1      60.000  87.307  72.066  1.00  0.00    -0.033 C 
ATOM      3  C   UNL     1      60.726  86.208  72.350  1.00  0.00    -0.015 C 
BRANCH   3   4
ATOM      4  C   UNL     1      61.143  85.650  73.701  1.00  0.00     0.078 C 
ATOM      5  O   UNL     1      63.379  86.579  74.206  1.00  0.00    -0.319 OA
ATOM      6  C   UNL     1      61.991  86.566  74.660  1.00  0.00     0.095 C 
ATOM      7  C   UNL     1      63.909  85.302  73.803  1.00  0.00     0.289 C 
ATOM      8  C   UNL     1      61.922  85.935  76.112  1.00  0.00     0.023 C 
ATOM      9  O   UNL     1      63.127  84.723  72.762  1.00  0.00    -0.320 OA
ATOM     10  O   UNL     1      63.897  84.352  74.866  1.00  0.00    -0.313 OA
ATOM     11  C   UNL     1      61.956  84.347  73.504  1.00  0.00     0.170 C 
ATOM     12  C   UNL     1      61.836  84.379  76.055  1.00  0.00     0.049 C 
ATOM     13  C   UNL     1      63.053  86.350  77.067  1.00  0.00     0.011 C 
ATOM     14  C   UNL     1      62.558  83.817  74.830  1.00  0.00     0.122 C 
BRANCH   6  15
ATOM     15  C   UNL     1      61.533  88.050  74.554  1.00  0.00     0.086 C 
ATOM     16  C   UNL     1      60.010  88.289  74.507  1.00  0.00     0.140 CG0
ATOM     17  C   UNL     1      62.012  89.043  75.574  1.00  0.00    -0.010 C 
ATOM     18  C   UNL     1      59.863  89.602  75.248  1.00  0.00     0.190 C 
ATOM     19  G   UNL     1      59.481  88.363  73.076  1.00  0.00     0.000 G0
ATOM     20  C   UNL     1      61.106  89.946  75.964  1.00  0.00    -0.008 C 
ATOM     21  O   UNL     1      58.846  90.276  75.300  1.00  0.00    -0.291 OA
ATOM     22  C   UNL     1      61.245  91.103  76.873  1.00  0.00     0.048 C 
BRANCH  16  23
ATOM     23  O   UNL     1      59.261  87.374  75.289  1.00  0.00    -0.381 OA
ATOM     24  H   UNL     1      58.421  87.197  74.834  1.00  0.00     0.212 HD
ENDBRANCH  16  23
ENDBRANCH   6  15
BRANCH   7  25
ATOM     25  C   UNL     1      65.331  85.506  73.323  1.00  0.00     0.135 C 
BRANCH  25  26
ATOM     26  C   UNL     1      66.068  86.525  74.155  1.00  0.00    -0.040 A 
ATOM     27  C   UNL     1      66.058  87.869  73.781  1.00  0.00     0.004 A 
ATOM     28  C   UNL     1      66.758  86.125  75.299  1.00  0.00     0.004 A 
ATOM     29  C   UNL     1      66.740  88.813  74.551  1.00  0.00     0.000 A 
ATOM     30  C   UNL     1      67.439  87.068  76.069  1.00  0.00     0.000 A 
ATOM     31  C   UNL     1      67.430  88.412  75.695  1.00  0.00     0.000 A 
ENDBRANCH  25  26
ENDBRANCH   7  25
BRANCH  14  32
ATOM     32  C   UNL     1      62.647  82.326  74.849  1.00  0.00    -0.046 C 
ATOM     33  C   UNL     1      61.868  81.602  73.791  1.00  0.00     0.042 C 
ATOM     34  C   UNL     1      63.382  81.671  75.760  1.00  0.00     0.010 C 
ENDBRANCH  14  32
ENDBRANCH   3   4
BRANCH   2  35
ATOM     35  C   UNL     1      59.469  88.344  73.038  1.00  0.00     0.078 CG0
ATOM     36  G   UNL     1      59.993  88.290  74.472  1.00  0.00     0.000 G0
ENDBRANCH   2  35
ENDBRANCH   1   2
BRANCH   1  37
ATOM     37  O   UNL     1      59.807  88.988  70.385  1.00  0.00    -0.461 OA
BRANCH  37  38
ATOM     38  C   UNL     1      58.812  89.598  69.657  1.00  0.00     0.310 C 
ATOM     39  O   UNL     1      58.783  90.786  69.365  1.00  0.00    -0.252 OA
BRANCH  38  40
ATOM     40  C   UNL     1      57.767  88.576  69.276  1.00  0.00     0.158 C 
BRANCH  40  41
ATOM     41  C   UNL     1      56.637  89.164  68.470  1.00  0.00    -0.033 A 
ATOM     42  C   UNL     1      55.946  90.279  68.947  1.00  0.00     0.054 A 
ATOM     43  C   UNL     1      56.281  88.594  67.248  1.00  0.00     0.008 A 
ATOM     44  C   UNL     1      54.900  90.823  68.202  1.00  0.00     0.160 A 
ATOM     45  C   UNL     1      55.235  89.138  66.502  1.00  0.00     0.050 A 
ATOM     46  C   UNL     1      54.545  90.252  66.979  1.00  0.00     0.157 A 
BRANCH  44  47
ATOM     47  O   UNL     1      54.233  91.911  68.678  1.00  0.00    -0.493 OA
ATOM     48  C   UNL     1      54.851  92.636  69.740  1.00  0.00     0.278 C 
ENDBRANCH  44  47
BRANCH  46  49
ATOM     49  O   UNL     1      53.526  90.775  66.242  1.00  0.00    -0.504 OA
ATOM     50  H   UNL     1      53.331  90.176  65.501  1.00  0.00     0.293 HD
ENDBRANCH  46  49
ENDBRANCH  40  41
ENDBRANCH  38  40
ENDBRANCH  37  38
ENDBRANCH   1  37
TORSDOF 11
ENDMDL
MODEL 8
REMARK VINA RESULT:    -6.039     12.952     15.976
REMARK INTER + INTRA:         -11.733
REMARK INTER:                 -10.823
REMARK INTRA:                  -0.910
REMARK UNBOUND:                -1.105
REMARK SMILES C=C(C)[C@]12C[C@@H](C)[C@@]34O[C@](Cc5ccccc5)(O[C@@H]1[C@@H]3C=C(COC(=O)Cc1ccc(O)c(OC)c1)C[C@]1(O)C(=O)C(C)=C[C@@H]41)O2
REMARK SMILES IDX 23 1 22 2 21 3 20 4 9 5 8 6 10 7 6 8 18 9 46 10 19 11 5 12
REMARK SMILES IDX 7 13 4 14 45 15 38 16 44 17 40 18 42 20 41 21 43 22 39 23
REMARK SMILES IDX 11 25 12 26 13 27 17 28 14 29 16 30 15 31 2 32 3 33 1 34
REMARK SMILES IDX 37 35 24 37 25 38 26 39 27 40 28 41 36 42 29 43 33 44 30 45
REMARK SMILES IDX 31 46 34 47 35 48 32 49
REMARK H PARENT 39 24 32 50
REMARK Flexibility Score: 90.00
ROOT
ATOM      1  C   UNL     1      96.493  81.303  85.822  1.00  0.00     0.264 C 
ENDROOT
BRANCH   1   2
ATOM      2  C   UNL     1      95.258  82.129  86.095  1.00  0.00    -0.033 C 
ATOM      3  C   UNL     1      94.135  81.516  86.519  1.00  0.00    -0.015 C 
BRANCH   3   4
ATOM      4  C   UNL     1      92.758  82.102  86.787  1.00  0.00     0.078 C 
ATOM      5  O   UNL     1      92.684  82.704  89.185  1.00  0.00    -0.319 OA
ATOM      6  C   UNL     1      92.631  83.267  87.838  1.00  0.00     0.095 C 
ATOM      7  C   UNL     1      91.925  81.496  89.378  1.00  0.00     0.289 C 
ATOM      8  C   UNL     1      91.225  83.963  87.616  1.00  0.00     0.023 C 
ATOM      9  O   UNL     1      92.339  80.475  88.475  1.00  0.00    -0.320 OA
ATOM     10  O   UNL     1      90.534  81.686  89.132  1.00  0.00    -0.313 OA
ATOM     11  C   UNL     1      91.791  80.985  87.249  1.00  0.00     0.170 C 
ATOM     12  C   UNL     1      90.148  82.937  87.145  1.00  0.00     0.049 C 
ATOM     13  C   UNL     1      90.685  84.757  88.817  1.00  0.00     0.011 C 
ATOM     14  C   UNL     1      90.417  81.539  87.702  1.00  0.00     0.122 C 
BRANCH   6  15
ATOM     15  C   UNL     1      93.864  84.214  87.764  1.00  0.00     0.086 C 
ATOM     16  C   UNL     1      94.353  84.585  86.348  1.00  0.00     0.140 CG0
ATOM     17  C   UNL     1      93.821  85.537  88.476  1.00  0.00    -0.010 C 
ATOM     18  C   UNL     1      94.843  86.005  86.534  1.00  0.00     0.190 C 
ATOM     19  G   UNL     1      95.453  83.646  85.853  1.00  0.00     0.000 G0
ATOM     20  C   UNL     1      94.388  86.557  87.824  1.00  0.00    -0.008 C 
ATOM     21  O   UNL     1      95.487  86.645  85.716  1.00  0.00    -0.291 OA
ATOM     22  C   UNL     1      94.600  87.957  88.247  1.00  0.00     0.048 C 
BRANCH  16  23
ATOM     23  O   UNL     1      93.310  84.709  85.395  1.00  0.00    -0.381 OA
ATOM     24  H   UNL     1      93.048  83.818  85.110  1.00  0.00     0.212 HD
ENDBRANCH  16  23
ENDBRANCH   6  15
BRANCH   7  25
ATOM     25  C   UNL     1      92.127  81.030  90.806  1.00  0.00     0.135 C 
BRANCH  25  26
ATOM     26  C   UNL     1      92.088  82.176  91.786  1.00  0.00    -0.040 A 
ATOM     27  C   UNL     1      93.277  82.713  92.279  1.00  0.00     0.004 A 
ATOM     28  C   UNL     1      90.863  82.700  92.197  1.00  0.00     0.004 A 
ATOM     29  C   UNL     1      93.241  83.773  93.185  1.00  0.00     0.000 A 
ATOM     30  C   UNL     1      90.827  83.761  93.104  1.00  0.00     0.000 A 
ATOM     31  C   UNL     1      92.016  84.297  93.597  1.00  0.00     0.000 A 
ENDBRANCH  25  26
ENDBRANCH   7  25
BRANCH  14  32
ATOM     32  C   UNL     1      89.305  80.583  87.417  1.00  0.00    -0.046 C 
ATOM     33  C   UNL     1      88.187  80.551  88.416  1.00  0.00     0.042 C 
ATOM     34  C   UNL     1      89.306  79.798  86.329  1.00  0.00     0.010 C 
ENDBRANCH  14  32
ENDBRANCH   3   4
BRANCH   2  35
ATOM     35  C   UNL     1      95.468  83.611  85.848  1.00  0.00     0.078 CG0
ATOM     36  G   UNL     1      94.378  84.563  86.338  1.00  0.00     0.000 G0
ENDBRANCH   2  35
ENDBRANCH   1   2
BRANCH   1  37
ATOM     37  O   UNL     1      96.697  81.214  84.428  1.00  0.00    -0.461 OA
BRANCH  37  38
ATOM     38  C   UNL     1      97.632  80.297  84.007  1.00  0.00     0.310 C 
ATOM     39  O   UNL     1      98.617  79.955  84.646  1.00  0.00    -0.252 OA
BRANCH  38  40
ATOM     40  C   UNL     1      97.252  79.782  82.639  1.00  0.00     0.158 C 
BRANCH  40  41
ATOM     41  C   UNL     1      97.705  80.688  81.523  1.00  0.00    -0.033 A 
ATOM     42  C   UNL     1      98.737  80.285  80.673  1.00  0.00     0.054 A 
ATOM     43  C   UNL     1      97.094  81.927  81.339  1.00  0.00     0.008 A 
ATOM     44  C   UNL     1      99.156  81.124  79.640  1.00  0.00     0.160 A 
ATOM     45  C   UNL     1      97.513  82.766  80.306  1.00  0.00     0.050 A 
ATOM     46  C   UNL     1      98.544  82.365  79.457  1.00  0.00     0.157 A 
BRANCH  44  47
ATOM     47  O   UNL     1     100.164  80.721  78.818  1.00  0.00    -0.493 OA
ATOM     48  C   UNL     1     100.360  79.315  78.673  1.00  0.00     0.278 C 
ENDBRANCH  44  47
BRANCH  46  49
ATOM     49  O   UNL     1      98.945  83.191  78.451  1.00  0.00    -0.504 OA
ATOM     50  H   UNL     1      98.673  82.809  77.600  1.00  0.00     0.293 HD
ENDBRANCH  46  49
ENDBRANCH  40  41
ENDBRANCH  38  40
ENDBRANCH  37  38
ENDBRANCH   1  37
TORSDOF 11
ENDMDL
MODEL 9
REMARK VINA RESULT:    -5.830     14.178     17.721
REMARK INTER + INTRA:         -11.365
REMARK INTER:                 -10.222
REMARK INTRA:                  -1.144
REMARK UNBOUND:                -1.105
REMARK SMILES C=C(C)[C@]12C[C@@H](C)[C@@]34O[C@](Cc5ccccc5)(O[C@@H]1[C@@H]3C=C(COC(=O)Cc1ccc(O)c(OC)c1)C[C@]1(O)C(=O)C(C)=C[C@@H]41)O2
REMARK SMILES IDX 23 1 22 2 21 3 20 4 9 5 8 6 10 7 6 8 18 9 46 10 19 11 5 12
REMARK SMILES IDX 7 13 4 14 45 15 38 16 44 17 40 18 42 20 41 21 43 22 39 23
REMARK SMILES IDX 11 25 12 26 13 27 17 28 14 29 16 30 15 31 2 32 3 33 1 34
REMARK SMILES IDX 37 35 24 37 25 38 26 39 27 40 28 41 36 42 29 43 33 44 30 45
REMARK SMILES IDX 31 46 34 47 35 48 32 49
REMARK H PARENT 39 24 32 50
REMARK Flexibility Score: 90.00
ROOT
ATOM      1  C   UNL     1      94.660  84.687  90.259  1.00  0.00     0.264 C 
ENDROOT
BRANCH   1   2
ATOM      2  C   UNL     1      95.437  83.445  89.892  1.00  0.00    -0.033 C 
ATOM      3  C   UNL     1      95.343  82.953  88.640  1.00  0.00    -0.015 C 
BRANCH   3   4
ATOM      4  C   UNL     1      95.953  81.693  88.050  1.00  0.00     0.078 C 
ATOM      5  O   UNL     1      98.115  82.344  87.040  1.00  0.00    -0.319 OA
ATOM      6  C   UNL     1      97.518  81.527  88.094  1.00  0.00     0.095 C 
ATOM      7  C   UNL     1      97.438  82.303  85.769  1.00  0.00     0.289 C 
ATOM      8  C   UNL     1      97.847  80.001  87.822  1.00  0.00     0.023 C 
ATOM      9  O   UNL     1      96.076  82.703  85.896  1.00  0.00    -0.320 OA
ATOM     10  O   UNL     1      97.404  80.989  85.217  1.00  0.00    -0.313 OA
ATOM     11  C   UNL     1      95.537  81.553  86.565  1.00  0.00     0.170 C 
ATOM     12  C   UNL     1      96.813  79.359  86.846  1.00  0.00     0.049 C 
ATOM     13  C   UNL     1      99.271  79.711  87.322  1.00  0.00     0.011 C 
ATOM     14  C   UNL     1      96.261  80.382  85.854  1.00  0.00     0.122 C 
BRANCH   6  15
ATOM     15  C   UNL     1      98.098  82.112  89.414  1.00  0.00     0.086 C 
ATOM     16  C   UNL     1      97.311  81.792  90.702  1.00  0.00     0.140 CG0
ATOM     17  C   UNL     1      99.521  81.810  89.791  1.00  0.00    -0.010 C 
ATOM     18  C   UNL     1      98.411  81.676  91.736  1.00  0.00     0.190 C 
ATOM     19  G   UNL     1      96.298  82.884  91.045  1.00  0.00     0.000 G0
ATOM     20  C   UNL     1      99.735  81.588  91.092  1.00  0.00    -0.008 C 
ATOM     21  O   UNL     1      98.243  81.611  92.944  1.00  0.00    -0.291 OA
ATOM     22  C   UNL     1     100.997  81.348  91.822  1.00  0.00     0.048 C 
BRANCH  16  23
ATOM     23  O   UNL     1      96.708  80.509  90.704  1.00  0.00    -0.381 OA
ATOM     24  H   UNL     1      97.292  79.896  91.180  1.00  0.00     0.212 HD
ENDBRANCH  16  23
ENDBRANCH   6  15
BRANCH   7  25
ATOM     25  C   UNL     1      98.159  83.234  84.816  1.00  0.00     0.135 C 
BRANCH  25  26
ATOM     26  C   UNL     1      97.986  82.815  83.377  1.00  0.00    -0.040 A 
ATOM     27  C   UNL     1      98.963  82.038  82.754  1.00  0.00     0.004 A 
ATOM     28  C   UNL     1      96.848  83.203  82.670  1.00  0.00     0.004 A 
ATOM     29  C   UNL     1      98.802  81.650  81.424  1.00  0.00     0.000 A 
ATOM     30  C   UNL     1      96.688  82.815  81.339  1.00  0.00     0.000 A 
ATOM     31  C   UNL     1      97.665  82.039  80.717  1.00  0.00     0.000 A 
ENDBRANCH  25  26
ENDBRANCH   7  25
BRANCH  14  32
ATOM     32  C   UNL     1      95.411  79.756  84.797  1.00  0.00    -0.046 C 
ATOM     33  C   UNL     1      93.935  79.734  85.060  1.00  0.00     0.042 C 
ATOM     34  C   UNL     1      95.938  79.242  83.675  1.00  0.00     0.010 C 
ENDBRANCH  14  32
ENDBRANCH   3   4
BRANCH   2  35
ATOM     35  C   UNL     1      96.264  82.899  91.041  1.00  0.00     0.078 CG0
ATOM     36  G   UNL     1      97.308  81.834  90.708  1.00  0.00     0.000 G0
ENDBRANCH   2  35
ENDBRANCH   1   2
BRANCH   1  37
ATOM     37  O   UNL     1      94.922  85.699  89.310  1.00  0.00    -0.461 OA
BRANCH  37  38
ATOM     38  C   UNL     1      93.853  86.110  88.549  1.00  0.00     0.310 C 
ATOM     39  O   UNL     1      93.687  85.841  87.367  1.00  0.00    -0.252 OA
BRANCH  38  40
ATOM     40  C   UNL     1      92.919  86.941  89.397  1.00  0.00     0.158 C 
BRANCH  40  41
ATOM     41  C   UNL     1      93.313  88.395  89.454  1.00  0.00    -0.033 A 
ATOM     42  C   UNL     1      92.916  89.183  90.534  1.00  0.00     0.054 A 
ATOM     43  C   UNL     1      94.076  88.951  88.427  1.00  0.00     0.008 A 
ATOM     44  C   UNL     1      93.281  90.529  90.587  1.00  0.00     0.160 A 
ATOM     45  C   UNL     1      94.442  90.296  88.480  1.00  0.00     0.050 A 
ATOM     46  C   UNL     1      94.044  91.085  89.559  1.00  0.00     0.157 A 
BRANCH  44  47
ATOM     47  O   UNL     1      92.886  91.289  91.646  1.00  0.00    -0.493 OA
ATOM     48  C   UNL     1      93.525  91.039  92.897  1.00  0.00     0.278 C 
ENDBRANCH  44  47
BRANCH  46  49
ATOM     49  O   UNL     1      94.407  92.397  89.600  1.00  0.00    -0.504 OA
ATOM     50  H   UNL     1      95.377  92.456  89.638  1.00  0.00     0.293 HD
ENDBRANCH  46  49
ENDBRANCH  40  41
ENDBRANCH  38  40
ENDBRANCH  37  38
ENDBRANCH   1  37
TORSDOF 11
ENDMDL
MODEL 10
REMARK VINA RESULT:    -5.670     23.995     28.530
REMARK INTER + INTRA:         -11.085
REMARK INTER:                  -9.704
REMARK INTRA:                  -1.381
REMARK UNBOUND:                -1.105
REMARK SMILES C=C(C)[C@]12C[C@@H](C)[C@@]34O[C@](Cc5ccccc5)(O[C@@H]1[C@@H]3C=C(COC(=O)Cc1ccc(O)c(OC)c1)C[C@]1(O)C(=O)C(C)=C[C@@H]41)O2
REMARK SMILES IDX 23 1 22 2 21 3 20 4 9 5 8 6 10 7 6 8 18 9 46 10 19 11 5 12
REMARK SMILES IDX 7 13 4 14 45 15 38 16 44 17 40 18 42 20 41 21 43 22 39 23
REMARK SMILES IDX 11 25 12 26 13 27 17 28 14 29 16 30 15 31 2 32 3 33 1 34
REMARK SMILES IDX 37 35 24 37 25 38 26 39 27 40 28 41 36 42 29 43 33 44 30 45
REMARK SMILES IDX 31 46 34 47 35 48 32 49
REMARK H PARENT 39 24 32 50
REMARK Flexibility Score: 90.00
ROOT
ATOM      1  C   UNL     1      85.741  67.228  78.216  1.00  0.00     0.264 C 
ENDROOT
BRANCH   1   2
ATOM      2  C   UNL     1      85.567  66.440  76.939  1.00  0.00    -0.033 C 
ATOM      3  C   UNL     1      84.530  66.723  76.125  1.00  0.00    -0.015 C 
BRANCH   3   4
ATOM      4  C   UNL     1      84.095  66.036  74.841  1.00  0.00     0.078 C 
ATOM      5  O   UNL     1      85.188  67.238  72.975  1.00  0.00    -0.319 OA
ATOM      6  C   UNL     1      85.125  65.946  73.654  1.00  0.00     0.095 C 
ATOM      7  C   UNL     1      83.918  67.882  72.757  1.00  0.00     0.289 C 
ATOM      8  C   UNL     1      84.596  64.847  72.642  1.00  0.00     0.023 C 
ATOM      9  O   UNL     1      83.222  68.081  73.985  1.00  0.00    -0.320 OA
ATOM     10  O   UNL     1      83.048  67.100  71.943  1.00  0.00    -0.313 OA
ATOM     11  C   UNL     1      82.831  66.729  74.275  1.00  0.00     0.170 C 
ATOM     12  C   UNL     1      83.037  64.813  72.600  1.00  0.00     0.049 C 
ATOM     13  C   UNL     1      85.144  64.951  71.209  1.00  0.00     0.011 C 
ATOM     14  C   UNL     1      82.433  66.189  72.879  1.00  0.00     0.122 C 
BRANCH   6  15
ATOM     15  C   UNL     1      86.568  65.719  74.192  1.00  0.00     0.086 C 
ATOM     16  C   UNL     1      86.713  64.701  75.342  1.00  0.00     0.140 CG0
ATOM     17  C   UNL     1      87.657  65.323  73.235  1.00  0.00    -0.010 C 
ATOM     18  C   UNL     1      88.063  64.078  75.057  1.00  0.00     0.190 C 
ATOM     19  G   UNL     1      86.655  65.369  76.715  1.00  0.00     0.000 G0
ATOM     20  C   UNL     1      88.529  64.423  73.701  1.00  0.00    -0.008 C 
ATOM     21  O   UNL     1      88.677  63.342  75.815  1.00  0.00    -0.291 OA
ATOM     22  C   UNL     1      89.752  63.874  73.081  1.00  0.00     0.048 C 
BRANCH  16  23
ATOM     23  O   UNL     1      85.812  63.610  75.259  1.00  0.00    -0.381 OA
ATOM     24  H   UNL     1      85.282  63.710  74.451  1.00  0.00     0.212 HD
ENDBRANCH  16  23
ENDBRANCH   6  15
BRANCH   7  25
ATOM     25  C   UNL     1      84.171  69.218  72.089  1.00  0.00     0.135 C 
BRANCH  25  26
ATOM     26  C   UNL     1      85.644  69.518  71.964  1.00  0.00    -0.040 A 
ATOM     27  C   UNL     1      86.423  69.676  73.111  1.00  0.00     0.004 A 
ATOM     28  C   UNL     1      86.228  69.635  70.703  1.00  0.00     0.004 A 
ATOM     29  C   UNL     1      87.785  69.954  72.996  1.00  0.00     0.000 A 
ATOM     30  C   UNL     1      87.590  69.912  70.588  1.00  0.00     0.000 A 
ATOM     31  C   UNL     1      88.368  70.072  71.735  1.00  0.00     0.000 A 
ENDBRANCH  25  26
ENDBRANCH   7  25
BRANCH  14  32
ATOM     32  C   UNL     1      80.955  66.222  72.665  1.00  0.00    -0.046 C 
ATOM     33  C   UNL     1      80.130  65.412  73.620  1.00  0.00     0.042 C 
ATOM     34  C   UNL     1      80.397  66.935  71.675  1.00  0.00     0.010 C 
ENDBRANCH  14  32
ENDBRANCH   3   4
BRANCH   2  35
ATOM     35  C   UNL     1      86.643  65.390  76.736  1.00  0.00     0.078 CG0
ATOM     36  G   UNL     1      86.705  64.707  75.371  1.00  0.00     0.000 G0
ENDBRANCH   2  35
ENDBRANCH   1   2
BRANCH   1  37
ATOM     37  O   UNL     1      86.935  67.976  78.143  1.00  0.00    -0.461 OA
BRANCH  37  38
ATOM     38  C   UNL     1      86.801  69.344  78.197  1.00  0.00     0.310 C 
ATOM     39  O   UNL     1      85.950  69.990  77.601  1.00  0.00    -0.252 OA
BRANCH  38  40
ATOM     40  C   UNL     1      87.864  69.920  79.103  1.00  0.00     0.158 C 
BRANCH  40  41
ATOM     41  C   UNL     1      89.065  70.430  78.350  1.00  0.00    -0.033 A 
ATOM     42  C   UNL     1      89.190  70.177  76.983  1.00  0.00     0.054 A 
ATOM     43  C   UNL     1      90.051  71.156  79.017  1.00  0.00     0.008 A 
ATOM     44  C   UNL     1      90.302  70.650  76.285  1.00  0.00     0.160 A 
ATOM     45  C   UNL     1      91.163  71.629  78.320  1.00  0.00     0.050 A 
ATOM     46  C   UNL     1      91.289  71.376  76.954  1.00  0.00     0.157 A 
BRANCH  44  47
ATOM     47  O   UNL     1      90.413  70.396  74.952  1.00  0.00    -0.493 OA
ATOM     48  C   UNL     1      90.994  69.148  74.576  1.00  0.00     0.278 C 
ENDBRANCH  44  47
BRANCH  46  49
ATOM     49  O   UNL     1      92.378  71.843  76.283  1.00  0.00    -0.504 OA
ATOM     50  H   UNL     1      92.596  72.730  76.614  1.00  0.00     0.293 HD
ENDBRANCH  46  49
ENDBRANCH  40  41
ENDBRANCH  38  40
ENDBRANCH  37  38
ENDBRANCH   1  37
TORSDOF 11
ENDMDL
