MODEL 1
REMARK VINA RESULT:    -6.196      0.000      0.000
REMARK INTER + INTRA:         -10.524
REMARK INTER:                  -9.637
REMARK INTRA:                  -0.887
REMARK UNBOUND:                -0.887
REMARK SMILES COc1cc(CNC(=O)CCCCCC(C)C)ccc1O
REMARK SMILES IDX 10 1 8 2 7 3 9 5 6 6 5 7 3 8 20 9 4 10 19 11 18 12 2 13 1 14
REMARK SMILES IDX 21 15 11 17 12 18 13 19 14 20 15 21 16 22 17 23
REMARK H PARENT 7 4 21 16
REMARK Flexibility Score: inf
ROOT
ATOM      1  C   UNL     1      95.840  94.485  75.327  1.00  0.00     0.100 C 
ENDROOT
BRANCH   1   2
ATOM      2  C   UNL     1      94.385  94.585  75.561  1.00  0.00     0.220 C 
ATOM      3  N   UNL     1      93.802  93.789  76.502  1.00  0.00    -0.352 N 
ATOM      4  H   UNL     1      94.405  93.077  76.889  1.00  0.00     0.163 HD
ATOM      5  O   UNL     1      93.721  95.433  74.917  1.00  0.00    -0.275 OA
BRANCH   3   6
ATOM      6  C   UNL     1      92.451  93.901  76.950  1.00  0.00     0.151 C 
BRANCH   6   7
ATOM      7  C   UNL     1      91.687  92.630  76.825  1.00  0.00    -0.025 A 
ATOM      8  C   UNL     1      91.058  90.638  75.527  1.00  0.00     0.160 A 
ATOM      9  C   UNL     1      90.285  90.177  76.613  1.00  0.00     0.157 A 
ATOM     10  C   UNL     1      91.739  91.870  75.632  1.00  0.00     0.056 A 
ATOM     11  C   UNL     1      90.205  90.937  77.794  1.00  0.00     0.050 A 
ATOM     12  C   UNL     1      90.904  92.151  77.902  1.00  0.00     0.009 A 
BRANCH   8  13
ATOM     13  O   UNL     1      91.134  89.923  74.361  1.00  0.00    -0.493 OA
ATOM     14  C   UNL     1      90.322  90.456  73.297  1.00  0.00     0.278 C 
ENDBRANCH   8  13
BRANCH   9  15
ATOM     15  O   UNL     1      89.625  88.995  76.521  1.00  0.00    -0.504 OA
ATOM     16  H   UNL     1      90.252  88.272  76.597  1.00  0.00     0.293 HD
ENDBRANCH   9  15
ENDBRANCH   6   7
ENDBRANCH   3   6
ENDBRANCH   1   2
BRANCH   1  17
ATOM     17  C   UNL     1      96.701  94.560  76.617  1.00  0.00     0.010 C 
BRANCH  17  18
ATOM     18  C   UNL     1      96.867  96.024  77.110  1.00  0.00     0.001 C 
BRANCH  18  19
ATOM     19  C   UNL     1      96.691  96.182  78.643  1.00  0.00     0.000 C 
BRANCH  19  20
ATOM     20  C   UNL     1      95.997  94.946  79.286  1.00  0.00     0.003 C 
BRANCH  20  21
ATOM     21  C   UNL     1      96.660  94.427  80.603  1.00  0.00    -0.017 C 
ATOM     22  C   UNL     1      95.583  94.130  81.688  1.00  0.00     0.007 C 
ATOM     23  C   UNL     1      97.730  95.406  81.167  1.00  0.00     0.007 C 
ENDBRANCH  20  21
ENDBRANCH  19  20
ENDBRANCH  18  19
ENDBRANCH  17  18
ENDBRANCH   1  17
TORSDOF 10
ENDMDL
MODEL 2
REMARK VINA RESULT:    -6.051      1.373      2.305
REMARK INTER + INTRA:         -10.299
REMARK INTER:                  -9.102
REMARK INTRA:                  -1.196
REMARK UNBOUND:                -0.887
REMARK SMILES COc1cc(CNC(=O)CCCCCC(C)C)ccc1O
REMARK SMILES IDX 10 1 8 2 7 3 9 5 6 6 5 7 3 8 20 9 4 10 19 11 18 12 2 13 1 14
REMARK SMILES IDX 21 15 11 17 12 18 13 19 14 20 15 21 16 22 17 23
REMARK H PARENT 7 4 21 16
REMARK Flexibility Score: inf
ROOT
ATOM      1  C   UNL     1      95.856  94.283  75.608  1.00  0.00     0.100 C 
ENDROOT
BRANCH   1   2
ATOM      2  C   UNL     1      94.425  94.427  75.269  1.00  0.00     0.220 C 
ATOM      3  N   UNL     1      93.689  93.315  74.983  1.00  0.00    -0.352 N 
ATOM      4  H   UNL     1      94.224  92.463  74.895  1.00  0.00     0.163 HD
ATOM      5  O   UNL     1      93.905  95.569  75.293  1.00  0.00    -0.275 OA
BRANCH   3   6
ATOM      6  C   UNL     1      92.272  93.290  74.811  1.00  0.00     0.151 C 
BRANCH   6   7
ATOM      7  C   UNL     1      91.586  92.359  75.747  1.00  0.00    -0.025 A 
ATOM      8  C   UNL     1      90.621  90.150  76.231  1.00  0.00     0.160 A 
ATOM      9  C   UNL     1      90.341  90.564  77.551  1.00  0.00     0.157 A 
ATOM     10  C   UNL     1      91.224  91.055  75.333  1.00  0.00     0.056 A 
ATOM     11  C   UNL     1      90.672  91.867  77.965  1.00  0.00     0.050 A 
ATOM     12  C   UNL     1      91.295  92.756  77.073  1.00  0.00     0.009 A 
BRANCH   8  13
ATOM     13  O   UNL     1      90.288  88.892  75.802  1.00  0.00    -0.493 OA
ATOM     14  C   UNL     1      90.672  88.621  74.440  1.00  0.00     0.278 C 
ENDBRANCH   8  13
BRANCH   9  15
ATOM     15  O   UNL     1      89.759  89.702  78.422  1.00  0.00    -0.504 OA
ATOM     16  H   UNL     1      89.107  90.171  78.949  1.00  0.00     0.293 HD
ENDBRANCH   9  15
ENDBRANCH   6   7
ENDBRANCH   3   6
ENDBRANCH   1   2
BRANCH   1  17
ATOM     17  C   UNL     1      96.133  93.367  76.831  1.00  0.00     0.010 C 
BRANCH  17  18
ATOM     18  C   UNL     1      95.531  93.957  78.136  1.00  0.00     0.001 C 
BRANCH  18  19
ATOM     19  C   UNL     1      96.535  94.826  78.939  1.00  0.00     0.000 C 
BRANCH  19  20
ATOM     20  C   UNL     1      96.377  96.344  78.632  1.00  0.00     0.003 C 
BRANCH  20  21
ATOM     21  C   UNL     1      97.577  96.991  77.868  1.00  0.00    -0.017 C 
ATOM     22  C   UNL     1      97.085  97.750  76.600  1.00  0.00     0.007 C 
ATOM     23  C   UNL     1      98.674  95.957  77.479  1.00  0.00     0.007 C 
ENDBRANCH  20  21
ENDBRANCH  19  20
ENDBRANCH  18  19
ENDBRANCH  17  18
ENDBRANCH   1  17
TORSDOF 10
ENDMDL
MODEL 3
REMARK VINA RESULT:    -5.984      1.518      2.450
REMARK INTER + INTRA:         -10.195
REMARK INTER:                  -9.519
REMARK INTRA:                  -0.676
REMARK UNBOUND:                -0.887
REMARK SMILES COc1cc(CNC(=O)CCCCCC(C)C)ccc1O
REMARK SMILES IDX 10 1 8 2 7 3 9 5 6 6 5 7 3 8 20 9 4 10 19 11 18 12 2 13 1 14
REMARK SMILES IDX 21 15 11 17 12 18 13 19 14 20 15 21 16 22 17 23
REMARK H PARENT 7 4 21 16
REMARK Flexibility Score: inf
ROOT
ATOM      1  C   UNL     1      95.770  94.379  75.788  1.00  0.00     0.100 C 
ENDROOT
BRANCH   1   2
ATOM      2  C   UNL     1      94.391  94.433  75.258  1.00  0.00     0.220 C 
ATOM      3  N   UNL     1      93.759  93.274  74.919  1.00  0.00    -0.352 N 
ATOM      4  H   UNL     1      94.343  92.451  74.934  1.00  0.00     0.163 HD
ATOM      5  O   UNL     1      93.816  95.545  75.170  1.00  0.00    -0.275 OA
BRANCH   3   6
ATOM      6  C   UNL     1      92.381  93.164  74.562  1.00  0.00     0.151 C 
BRANCH   6   7
ATOM      7  C   UNL     1      91.760  91.889  75.011  1.00  0.00    -0.025 A 
ATOM      8  C   UNL     1      90.358  90.644  76.602  1.00  0.00     0.160 A 
ATOM      9  C   UNL     1      90.524  89.475  75.831  1.00  0.00     0.157 A 
ATOM     10  C   UNL     1      90.992  91.839  76.198  1.00  0.00     0.056 A 
ATOM     11  C   UNL     1      91.308  89.507  74.663  1.00  0.00     0.050 A 
ATOM     12  C   UNL     1      91.917  90.705  74.253  1.00  0.00     0.009 A 
BRANCH   8  13
ATOM     13  O   UNL     1      89.615  90.630  77.753  1.00  0.00    -0.493 OA
ATOM     14  C   UNL     1      90.376  90.921  78.941  1.00  0.00     0.278 C 
ENDBRANCH   8  13
BRANCH   9  15
ATOM     15  O   UNL     1      89.921  88.321  76.211  1.00  0.00    -0.504 OA
ATOM     16  H   UNL     1      90.486  87.852  76.829  1.00  0.00     0.293 HD
ENDBRANCH   9  15
ENDBRANCH   6   7
ENDBRANCH   3   6
ENDBRANCH   1   2
BRANCH   1  17
ATOM     17  C   UNL     1      95.895  93.685  77.171  1.00  0.00     0.010 C 
BRANCH  17  18
ATOM     18  C   UNL     1      94.832  94.212  78.174  1.00  0.00     0.001 C 
BRANCH  18  19
ATOM     19  C   UNL     1      95.319  94.207  79.647  1.00  0.00     0.000 C 
BRANCH  19  20
ATOM     20  C   UNL     1      95.250  95.621  80.294  1.00  0.00     0.003 C 
BRANCH  20  21
ATOM     21  C   UNL     1      96.547  96.067  81.045  1.00  0.00    -0.017 C 
ATOM     22  C   UNL     1      97.639  94.959  80.975  1.00  0.00     0.007 C 
ATOM     23  C   UNL     1      96.282  96.463  82.527  1.00  0.00     0.007 C 
ENDBRANCH  20  21
ENDBRANCH  19  20
ENDBRANCH  18  19
ENDBRANCH  17  18
ENDBRANCH   1  17
TORSDOF 10
ENDMDL
MODEL 4
REMARK VINA RESULT:    -5.620      1.235      2.041
REMARK INTER + INTRA:          -9.628
REMARK INTER:                  -8.839
REMARK INTRA:                  -0.788
REMARK UNBOUND:                -0.887
REMARK SMILES COc1cc(CNC(=O)CCCCCC(C)C)ccc1O
REMARK SMILES IDX 10 1 8 2 7 3 9 5 6 6 5 7 3 8 20 9 4 10 19 11 18 12 2 13 1 14
REMARK SMILES IDX 21 15 11 17 12 18 13 19 14 20 15 21 16 22 17 23
REMARK H PARENT 7 4 21 16
REMARK Flexibility Score: inf
ROOT
ATOM      1  C   UNL     1      95.920  95.073  75.071  1.00  0.00     0.100 C 
ENDROOT
BRANCH   1   2
ATOM      2  C   UNL     1      94.468  95.073  75.345  1.00  0.00     0.220 C 
ATOM      3  N   UNL     1      93.950  94.158  76.213  1.00  0.00    -0.352 N 
ATOM      4  H   UNL     1      94.598  93.444  76.513  1.00  0.00     0.163 HD
ATOM      5  O   UNL     1      93.746  95.945  74.804  1.00  0.00    -0.275 OA
BRANCH   3   6
ATOM      6  C   UNL     1      92.607  94.153  76.698  1.00  0.00     0.151 C 
BRANCH   6   7
ATOM      7  C   UNL     1      91.723  93.210  75.962  1.00  0.00    -0.025 A 
ATOM      8  C   UNL     1      90.684  90.992  75.743  1.00  0.00     0.160 A 
ATOM      9  C   UNL     1      89.988  91.434  74.598  1.00  0.00     0.157 A 
ATOM     10  C   UNL     1      91.561  91.876  76.406  1.00  0.00     0.056 A 
ATOM     11  C   UNL     1      90.162  92.750  74.132  1.00  0.00     0.050 A 
ATOM     12  C   UNL     1      91.018  93.633  74.811  1.00  0.00     0.009 A 
BRANCH   8  13
ATOM     13  O   UNL     1      90.544  89.709  76.202  1.00  0.00    -0.493 OA
ATOM     14  C   UNL     1      89.809  89.609  77.437  1.00  0.00     0.278 C 
ENDBRANCH   8  13
BRANCH   9  15
ATOM     15  O   UNL     1      89.144  90.591  73.952  1.00  0.00    -0.504 OA
ATOM     16  H   UNL     1      88.247  90.735  74.263  1.00  0.00     0.293 HD
ENDBRANCH   9  15
ENDBRANCH   6   7
ENDBRANCH   3   6
ENDBRANCH   1   2
BRANCH   1  17
ATOM     17  C   UNL     1      96.806  94.837  76.324  1.00  0.00     0.010 C 
BRANCH  17  18
ATOM     18  C   UNL     1      96.690  96.010  77.337  1.00  0.00     0.001 C 
BRANCH  18  19
ATOM     19  C   UNL     1      97.830  96.030  78.389  1.00  0.00     0.000 C 
BRANCH  19  20
ATOM     20  C   UNL     1      97.306  95.758  79.829  1.00  0.00     0.003 C 
BRANCH  20  21
ATOM     21  C   UNL     1      95.806  95.325  79.915  1.00  0.00    -0.017 C 
ATOM     22  C   UNL     1      95.174  95.777  81.265  1.00  0.00     0.007 C 
ATOM     23  C   UNL     1      95.606  93.794  79.718  1.00  0.00     0.007 C 
ENDBRANCH  20  21
ENDBRANCH  19  20
ENDBRANCH  18  19
ENDBRANCH  17  18
ENDBRANCH   1  17
TORSDOF 10
ENDMDL
MODEL 5
REMARK VINA RESULT:    -5.486     10.958     13.352
REMARK INTER + INTRA:          -9.419
REMARK INTER:                  -8.800
REMARK INTRA:                  -0.619
REMARK UNBOUND:                -0.887
REMARK SMILES COc1cc(CNC(=O)CCCCCC(C)C)ccc1O
REMARK SMILES IDX 10 1 8 2 7 3 9 5 6 6 5 7 3 8 20 9 4 10 19 11 18 12 2 13 1 14
REMARK SMILES IDX 21 15 11 17 12 18 13 19 14 20 15 21 16 22 17 23
REMARK H PARENT 7 4 21 16
REMARK Flexibility Score: inf
ROOT
ATOM      1  C   UNL     1      97.406  83.426  83.743  1.00  0.00     0.100 C 
ENDROOT
BRANCH   1   2
ATOM      2  C   UNL     1      96.550  84.626  83.853  1.00  0.00     0.220 C 
ATOM      3  N   UNL     1      95.315  84.518  84.418  1.00  0.00    -0.352 N 
ATOM      4  H   UNL     1      95.016  83.573  84.608  1.00  0.00     0.163 HD
ATOM      5  O   UNL     1      96.998  85.731  83.460  1.00  0.00    -0.275 OA
BRANCH   3   6
ATOM      6  C   UNL     1      94.461  85.616  84.743  1.00  0.00     0.151 C 
BRANCH   6   7
ATOM      7  C   UNL     1      94.299  85.816  86.208  1.00  0.00    -0.025 A 
ATOM      8  C   UNL     1      94.859  87.034  88.269  1.00  0.00     0.160 A 
ATOM      9  C   UNL     1      93.939  86.241  88.986  1.00  0.00     0.157 A 
ATOM     10  C   UNL     1      95.047  86.805  86.890  1.00  0.00     0.056 A 
ATOM     11  C   UNL     1      93.208  85.237  88.324  1.00  0.00     0.050 A 
ATOM     12  C   UNL     1      93.382  85.029  86.945  1.00  0.00     0.009 A 
BRANCH   8  13
ATOM     13  O   UNL     1      95.595  88.004  88.899  1.00  0.00    -0.493 OA
ATOM     14  C   UNL     1      95.606  89.267  88.208  1.00  0.00     0.278 C 
ENDBRANCH   8  13
BRANCH   9  15
ATOM     15  O   UNL     1      93.752  86.452  90.313  1.00  0.00    -0.504 OA
ATOM     16  H   UNL     1      92.879  86.144  90.567  1.00  0.00     0.293 HD
ENDBRANCH   9  15
ENDBRANCH   6   7
ENDBRANCH   3   6
ENDBRANCH   1   2
BRANCH   1  17
ATOM     17  C   UNL     1      97.106  82.540  82.504  1.00  0.00     0.010 C 
BRANCH  17  18
ATOM     18  C   UNL     1      98.355  82.385  81.595  1.00  0.00     0.001 C 
BRANCH  18  19
ATOM     19  C   UNL     1      98.102  82.803  80.122  1.00  0.00     0.000 C 
BRANCH  19  20
ATOM     20  C   UNL     1      96.654  82.472  79.658  1.00  0.00     0.003 C 
BRANCH  20  21
ATOM     21  C   UNL     1      96.509  82.129  78.139  1.00  0.00    -0.017 C 
ATOM     22  C   UNL     1      97.133  80.737  77.823  1.00  0.00     0.007 C 
ATOM     23  C   UNL     1      97.128  83.215  77.213  1.00  0.00     0.007 C 
ENDBRANCH  20  21
ENDBRANCH  19  20
ENDBRANCH  18  19
ENDBRANCH  17  18
ENDBRANCH   1  17
TORSDOF 10
ENDMDL
MODEL 6
REMARK VINA RESULT:    -5.422     13.551     16.604
REMARK INTER + INTRA:          -9.321
REMARK INTER:                  -8.830
REMARK INTRA:                  -0.491
REMARK UNBOUND:                -0.887
REMARK SMILES COc1cc(CNC(=O)CCCCCC(C)C)ccc1O
REMARK SMILES IDX 10 1 8 2 7 3 9 5 6 6 5 7 3 8 20 9 4 10 19 11 18 12 2 13 1 14
REMARK SMILES IDX 21 15 11 17 12 18 13 19 14 20 15 21 16 22 17 23
REMARK H PARENT 7 4 21 16
REMARK Flexibility Score: inf
ROOT
ATOM      1  C   UNL     1      84.722  89.949  86.607  1.00  0.00     0.100 C 
ENDROOT
BRANCH   1   2
ATOM      2  C   UNL     1      84.071  90.563  87.783  1.00  0.00     0.220 C 
ATOM      3  N   UNL     1      83.782  91.895  87.769  1.00  0.00    -0.352 N 
ATOM      4  H   UNL     1      84.164  92.404  86.985  1.00  0.00     0.163 HD
ATOM      5  O   UNL     1      83.759  89.834  88.756  1.00  0.00    -0.275 OA
BRANCH   3   6
ATOM      6  C   UNL     1      83.007  92.578  88.755  1.00  0.00     0.151 C 
BRANCH   6   7
ATOM      7  C   UNL     1      82.847  94.030  88.470  1.00  0.00    -0.025 A 
ATOM      8  C   UNL     1      81.801  96.198  88.969  1.00  0.00     0.160 A 
ATOM      9  C   UNL     1      82.592  96.807  87.972  1.00  0.00     0.157 A 
ATOM     10  C   UNL     1      81.920  94.811  89.199  1.00  0.00     0.056 A 
ATOM     11  C   UNL     1      83.498  96.034  87.223  1.00  0.00     0.050 A 
ATOM     12  C   UNL     1      83.629  94.658  87.473  1.00  0.00     0.009 A 
BRANCH   8  13
ATOM     13  O   UNL     1      80.899  96.929  89.697  1.00  0.00    -0.493 OA
ATOM     14  C   UNL     1      79.555  96.876  89.180  1.00  0.00     0.278 C 
ENDBRANCH   8  13
BRANCH   9  15
ATOM     15  O   UNL     1      82.484  98.140  87.742  1.00  0.00    -0.504 OA
ATOM     16  H   UNL     1      82.844  98.624  88.489  1.00  0.00     0.293 HD
ENDBRANCH   9  15
ENDBRANCH   6   7
ENDBRANCH   3   6
ENDBRANCH   1   2
BRANCH   1  17
ATOM     17  C   UNL     1      84.598  90.781  85.302  1.00  0.00     0.010 C 
BRANCH  17  18
ATOM     18  C   UNL     1      83.368  90.345  84.460  1.00  0.00     0.001 C 
BRANCH  18  19
ATOM     19  C   UNL     1      82.286  89.603  85.287  1.00  0.00     0.000 C 
BRANCH  19  20
ATOM     20  C   UNL     1      81.971  88.191  84.713  1.00  0.00     0.003 C 
BRANCH  20  21
ATOM     21  C   UNL     1      80.452  87.893  84.491  1.00  0.00    -0.017 C 
ATOM     22  C   UNL     1      80.208  87.266  83.087  1.00  0.00     0.007 C 
ATOM     23  C   UNL     1      79.556  89.152  84.676  1.00  0.00     0.007 C 
ENDBRANCH  20  21
ENDBRANCH  19  20
ENDBRANCH  18  19
ENDBRANCH  17  18
ENDBRANCH   1  17
TORSDOF 10
ENDMDL
MODEL 7
REMARK VINA RESULT:    -5.410     14.353     17.295
REMARK INTER + INTRA:          -9.302
REMARK INTER:                  -7.887
REMARK INTRA:                  -1.414
REMARK UNBOUND:                -0.887
REMARK SMILES COc1cc(CNC(=O)CCCCCC(C)C)ccc1O
REMARK SMILES IDX 10 1 8 2 7 3 9 5 6 6 5 7 3 8 20 9 4 10 19 11 18 12 2 13 1 14
REMARK SMILES IDX 21 15 11 17 12 18 13 19 14 20 15 21 16 22 17 23
REMARK H PARENT 7 4 21 16
REMARK Flexibility Score: inf
ROOT
ATOM      1  C   UNL     1      80.557  86.866  87.449  1.00  0.00     0.100 C 
ENDROOT
BRANCH   1   2
ATOM      2  C   UNL     1      81.293  87.569  88.520  1.00  0.00     0.220 C 
ATOM      3  N   UNL     1      82.286  88.442  88.188  1.00  0.00    -0.352 N 
ATOM      4  H   UNL     1      82.540  88.445  87.210  1.00  0.00     0.163 HD
ATOM      5  O   UNL     1      80.958  87.379  89.714  1.00  0.00    -0.275 OA
BRANCH   3   6
ATOM      6  C   UNL     1      82.955  89.311  89.102  1.00  0.00     0.151 C 
BRANCH   6   7
ATOM      7  C   UNL     1      83.097  90.701  88.589  1.00  0.00    -0.025 A 
ATOM      8  C   UNL     1      82.658  93.110  88.810  1.00  0.00     0.160 A 
ATOM      9  C   UNL     1      83.423  93.354  87.650  1.00  0.00     0.157 A 
ATOM     10  C   UNL     1      82.484  91.785  89.262  1.00  0.00     0.056 A 
ATOM     11  C   UNL     1      84.015  92.281  86.958  1.00  0.00     0.050 A 
ATOM     12  C   UNL     1      83.858  90.965  87.427  1.00  0.00     0.009 A 
BRANCH   8  13
ATOM     13  O   UNL     1      82.057  94.139  89.487  1.00  0.00    -0.493 OA
ATOM     14  C   UNL     1      82.762  94.543  90.677  1.00  0.00     0.278 C 
ENDBRANCH   8  13
BRANCH   9  15
ATOM     15  O   UNL     1      83.594  94.624  87.206  1.00  0.00    -0.504 OA
ATOM     16  H   UNL     1      84.004  95.152  87.896  1.00  0.00     0.293 HD
ENDBRANCH   9  15
ENDBRANCH   6   7
ENDBRANCH   3   6
ENDBRANCH   1   2
BRANCH   1  17
ATOM     17  C   UNL     1      81.426  85.886  86.614  1.00  0.00     0.010 C 
BRANCH  17  18
ATOM     18  C   UNL     1      81.085  85.966  85.101  1.00  0.00     0.001 C 
BRANCH  18  19
ATOM     19  C   UNL     1      79.977  87.001  84.772  1.00  0.00     0.000 C 
BRANCH  19  20
ATOM     20  C   UNL     1      80.435  88.034  83.701  1.00  0.00     0.003 C 
BRANCH  20  21
ATOM     21  C   UNL     1      81.003  89.373  84.276  1.00  0.00    -0.017 C 
ATOM     22  C   UNL     1      82.496  89.212  84.686  1.00  0.00     0.007 C 
ATOM     23  C   UNL     1      80.174  89.915  85.476  1.00  0.00     0.007 C 
ENDBRANCH  20  21
ENDBRANCH  19  20
ENDBRANCH  18  19
ENDBRANCH  17  18
ENDBRANCH   1  17
TORSDOF 10
ENDMDL
MODEL 8
REMARK VINA RESULT:    -5.349     11.770     13.329
REMARK INTER + INTRA:          -9.206
REMARK INTER:                  -8.508
REMARK INTRA:                  -0.698
REMARK UNBOUND:                -0.887
REMARK SMILES COc1cc(CNC(=O)CCCCCC(C)C)ccc1O
REMARK SMILES IDX 10 1 8 2 7 3 9 5 6 6 5 7 3 8 20 9 4 10 19 11 18 12 2 13 1 14
REMARK SMILES IDX 21 15 11 17 12 18 13 19 14 20 15 21 16 22 17 23
REMARK H PARENT 7 4 21 16
REMARK Flexibility Score: inf
ROOT
ATOM      1  C   UNL     1      98.038  83.418  84.294  1.00  0.00     0.100 C 
ENDROOT
BRANCH   1   2
ATOM      2  C   UNL     1      98.610  82.544  83.250  1.00  0.00     0.220 C 
ATOM      3  N   UNL     1      98.626  82.969  81.955  1.00  0.00    -0.352 N 
ATOM      4  H   UNL     1      98.113  83.821  81.781  1.00  0.00     0.163 HD
ATOM      5  O   UNL     1      99.109  81.442  83.585  1.00  0.00    -0.275 OA
BRANCH   3   6
ATOM      6  C   UNL     1      99.298  82.309  80.881  1.00  0.00     0.151 C 
BRANCH   6   7
ATOM      7  C   UNL     1      98.593  82.448  79.578  1.00  0.00    -0.025 A 
ATOM      8  C   UNL     1      98.660  82.650  77.129  1.00  0.00     0.160 A 
ATOM      9  C   UNL     1      97.250  82.645  77.091  1.00  0.00     0.157 A 
ATOM     10  C   UNL     1      99.323  82.571  78.372  1.00  0.00     0.056 A 
ATOM     11  C   UNL     1      96.514  82.549  78.287  1.00  0.00     0.050 A 
ATOM     12  C   UNL     1      97.180  82.446  79.520  1.00  0.00     0.009 A 
BRANCH   8  13
ATOM     13  O   UNL     1      99.395  82.762  75.978  1.00  0.00    -0.493 OA
ATOM     14  C   UNL     1     100.818  82.672  76.184  1.00  0.00     0.278 C 
ENDBRANCH   8  13
BRANCH   9  15
ATOM     15  O   UNL     1      96.603  82.723  75.901  1.00  0.00    -0.504 OA
ATOM     16  H   UNL     1      96.505  83.644  75.650  1.00  0.00     0.293 HD
ENDBRANCH   9  15
ENDBRANCH   6   7
ENDBRANCH   3   6
ENDBRANCH   1   2
BRANCH   1  17
ATOM     17  C   UNL     1      96.486  83.445  84.325  1.00  0.00     0.010 C 
BRANCH  17  18
ATOM     18  C   UNL     1      95.878  82.203  83.616  1.00  0.00     0.001 C 
BRANCH  18  19
ATOM     19  C   UNL     1      95.076  81.279  84.571  1.00  0.00     0.000 C 
BRANCH  19  20
ATOM     20  C   UNL     1      94.675  82.002  85.889  1.00  0.00     0.003 C 
BRANCH  20  21
ATOM     21  C   UNL     1      93.135  82.132  86.129  1.00  0.00    -0.017 C 
ATOM     22  C   UNL     1      92.336  81.416  85.001  1.00  0.00     0.007 C 
ATOM     23  C   UNL     1      92.667  83.611  86.259  1.00  0.00     0.007 C 
ENDBRANCH  20  21
ENDBRANCH  19  20
ENDBRANCH  18  19
ENDBRANCH  17  18
ENDBRANCH   1  17
TORSDOF 10
ENDMDL
MODEL 9
REMARK VINA RESULT:    -5.296      4.354      9.035
REMARK INTER + INTRA:          -9.124
REMARK INTER:                  -8.261
REMARK INTRA:                  -0.863
REMARK UNBOUND:                -0.887
REMARK SMILES COc1cc(CNC(=O)CCCCCC(C)C)ccc1O
REMARK SMILES IDX 10 1 8 2 7 3 9 5 6 6 5 7 3 8 20 9 4 10 19 11 18 12 2 13 1 14
REMARK SMILES IDX 21 15 11 17 12 18 13 19 14 20 15 21 16 22 17 23
REMARK H PARENT 7 4 21 16
REMARK Flexibility Score: inf
ROOT
ATOM      1  C   UNL     1      95.944  95.044  77.787  1.00  0.00     0.100 C 
ENDROOT
BRANCH   1   2
ATOM      2  C   UNL     1      95.808  94.758  79.230  1.00  0.00     0.220 C 
ATOM      3  N   UNL     1      96.764  95.203  80.094  1.00  0.00    -0.352 N 
ATOM      4  H   UNL     1      97.585  95.594  79.654  1.00  0.00     0.163 HD
ATOM      5  O   UNL     1      94.790  94.147  79.637  1.00  0.00    -0.275 OA
BRANCH   3   6
ATOM      6  C   UNL     1      96.674  95.150  81.518  1.00  0.00     0.151 C 
BRANCH   6   7
ATOM      7  C   UNL     1      96.529  96.492  82.144  1.00  0.00    -0.025 A 
ATOM      8  C   UNL     1      96.271  97.892  84.149  1.00  0.00     0.160 A 
ATOM      9  C   UNL     1      96.321  99.050  83.344  1.00  0.00     0.157 A 
ATOM     10  C   UNL     1      96.357  96.620  83.543  1.00  0.00     0.056 A 
ATOM     11  C   UNL     1      96.466  98.932  81.950  1.00  0.00     0.050 A 
ATOM     12  C   UNL     1      96.575  97.664  81.354  1.00  0.00     0.009 A 
BRANCH   8  13
ATOM     13  O   UNL     1      96.111  97.984  85.507  1.00  0.00    -0.493 OA
ATOM     14  C   UNL     1      97.295  97.650  86.257  1.00  0.00     0.278 C 
ENDBRANCH   8  13
BRANCH   9  15
ATOM     15  O   UNL     1      96.238 100.277  83.917  1.00  0.00    -0.504 OA
ATOM     16  H   UNL     1      96.444 100.949  83.264  1.00  0.00     0.293 HD
ENDBRANCH   9  15
ENDBRANCH   6   7
ENDBRANCH   3   6
ENDBRANCH   1   2
BRANCH   1  17
ATOM     17  C   UNL     1      96.074  93.780  76.895  1.00  0.00     0.010 C 
BRANCH  17  18
ATOM     18  C   UNL     1      95.628  94.062  75.434  1.00  0.00     0.001 C 
BRANCH  18  19
ATOM     19  C   UNL     1      94.630  95.243  75.311  1.00  0.00     0.000 C 
BRANCH  19  20
ATOM     20  C   UNL     1      93.163  94.758  75.128  1.00  0.00     0.003 C 
BRANCH  20  21
ATOM     21  C   UNL     1      92.900  93.277  75.554  1.00  0.00    -0.017 C 
ATOM     22  C   UNL     1      92.093  92.519  74.458  1.00  0.00     0.007 C 
ATOM     23  C   UNL     1      92.175  93.161  76.926  1.00  0.00     0.007 C 
ENDBRANCH  20  21
ENDBRANCH  19  20
ENDBRANCH  18  19
ENDBRANCH  17  18
ENDBRANCH   1  17
TORSDOF 10
ENDMDL
MODEL 10
REMARK VINA RESULT:    -5.202     26.095     29.538
REMARK INTER + INTRA:          -8.978
REMARK INTER:                  -7.223
REMARK INTRA:                  -1.755
REMARK UNBOUND:                -0.887
REMARK SMILES COc1cc(CNC(=O)CCCCCC(C)C)ccc1O
REMARK SMILES IDX 10 1 8 2 7 3 9 5 6 6 5 7 3 8 20 9 4 10 19 11 18 12 2 13 1 14
REMARK SMILES IDX 21 15 11 17 12 18 13 19 14 20 15 21 16 22 17 23
REMARK H PARENT 7 4 21 16
REMARK Flexibility Score: inf
ROOT
ATOM      1  C   UNL     1      80.186  65.875  72.026  1.00  0.00     0.100 C 
ENDROOT
BRANCH   1   2
ATOM      2  C   UNL     1      80.408  65.410  73.411  1.00  0.00     0.220 C 
ATOM      3  N   UNL     1      80.997  66.246  74.311  1.00  0.00    -0.352 N 
ATOM      4  H   UNL     1      81.367  67.100  73.919  1.00  0.00     0.163 HD
ATOM      5  O   UNL     1      80.009  64.266  73.740  1.00  0.00    -0.275 OA
BRANCH   3   6
ATOM      6  C   UNL     1      81.115  65.995  75.712  1.00  0.00     0.151 C 
BRANCH   6   7
ATOM      7  C   UNL     1      82.527  65.901  76.172  1.00  0.00    -0.025 A 
ATOM      8  C   UNL     1      84.547  66.964  77.085  1.00  0.00     0.160 A 
ATOM      9  C   UNL     1      85.193  65.710  77.111  1.00  0.00     0.157 A 
ATOM     10  C   UNL     1      83.226  67.055  76.598  1.00  0.00     0.056 A 
ATOM     11  C   UNL     1      84.516  64.560  76.665  1.00  0.00     0.050 A 
ATOM     12  C   UNL     1      83.192  64.653  76.204  1.00  0.00     0.009 A 
BRANCH   8  13
ATOM     13  O   UNL     1      85.195  68.099  77.497  1.00  0.00    -0.493 OA
ATOM     14  C   UNL     1      85.532  68.999  76.423  1.00  0.00     0.278 C 
ENDBRANCH   8  13
BRANCH   9  15
ATOM     15  O   UNL     1      86.464  65.612  77.575  1.00  0.00    -0.504 OA
ATOM     16  H   UNL     1      86.954  64.988  77.036  1.00  0.00     0.293 HD
ENDBRANCH   9  15
ENDBRANCH   6   7
ENDBRANCH   3   6
ENDBRANCH   1   2
BRANCH   1  17
ATOM     17  C   UNL     1      80.416  67.396  71.818  1.00  0.00     0.010 C 
BRANCH  17  18
ATOM     18  C   UNL     1      81.544  67.669  70.786  1.00  0.00     0.001 C 
BRANCH  18  19
ATOM     19  C   UNL     1      82.967  67.625  71.403  1.00  0.00     0.000 C 
BRANCH  19  20
ATOM     20  C   UNL     1      83.564  66.188  71.404  1.00  0.00     0.003 C 
BRANCH  20  21
ATOM     21  C   UNL     1      84.185  65.732  72.764  1.00  0.00    -0.017 C 
ATOM     22  C   UNL     1      85.036  66.873  73.396  1.00  0.00     0.007 C 
ATOM     23  C   UNL     1      85.040  64.437  72.635  1.00  0.00     0.007 C 
ENDBRANCH  20  21
ENDBRANCH  19  20
ENDBRANCH  18  19
ENDBRANCH  17  18
ENDBRANCH   1  17
TORSDOF 10
ENDMDL
