MODEL 1
REMARK VINA RESULT:    -5.880      0.000      0.000
REMARK INTER + INTRA:         -13.357
REMARK INTER:                 -10.348
REMARK INTRA:                  -3.009
REMARK UNBOUND:                -3.009
REMARK SMILES C=C(C)[C@]12C[C@@H](C)[C@@]34O[C@](Cc5ccccc5)(O[C@@H]1[C@@H]3C=C(COC(=O)Cc1ccc(O)c(OC)c1)C[C@]1(O)C(=O)C(C)=C[C@@H]41)O2
REMARK SMILES IDX 23 1 22 2 21 3 20 4 9 5 8 6 10 7 6 8 18 9 46 10 19 11 5 12
REMARK SMILES IDX 7 13 4 14 45 15 38 16 44 17 40 18 42 20 41 21 43 22 39 23
REMARK SMILES IDX 11 25 12 26 13 27 17 28 14 29 16 30 15 31 2 32 3 33 1 34
REMARK SMILES IDX 37 35 24 37 25 38 26 39 27 40 28 41 36 42 29 43 33 44 30 45
REMARK SMILES IDX 31 46 34 47 35 48 32 49
REMARK H PARENT 39 24 32 50
REMARK Flexibility Score: 90.00
ROOT
ATOM      1  C   UNL     1     105.531  81.498  76.531  1.00  0.00     0.264 C 
ENDROOT
BRANCH   1   2
ATOM      2  C   UNL     1     104.087  81.091  76.350  1.00  0.00    -0.033 C 
ATOM      3  C   UNL     1     103.119  81.812  76.949  1.00  0.00    -0.015 C 
BRANCH   3   4
ATOM      4  C   UNL     1     101.619  81.569  76.987  1.00  0.00     0.078 C 
ATOM      5  O   UNL     1     100.640  82.811  75.084  1.00  0.00    -0.319 OA
ATOM      6  C   UNL     1     100.842  81.468  75.621  1.00  0.00     0.095 C 
ATOM      7  C   UNL     1     100.244  83.807  76.046  1.00  0.00     0.289 C 
ATOM      8  C   UNL     1      99.434  80.806  75.918  1.00  0.00     0.023 C 
ATOM      9  O   UNL     1     101.194  83.911  77.104  1.00  0.00    -0.320 OA
ATOM     10  O   UNL     1      99.004  83.490  76.673  1.00  0.00    -0.313 OA
ATOM     11  C   UNL     1     100.925  82.687  77.805  1.00  0.00     0.170 C 
ATOM     12  C   UNL     1      98.901  81.205  77.328  1.00  0.00     0.049 C 
ATOM     13  C   UNL     1      98.345  81.071  74.866  1.00  0.00     0.011 C 
ATOM     14  C   UNL     1      99.380  82.597  77.741  1.00  0.00     0.122 C 
BRANCH   6  15
ATOM     15  C   UNL     1     101.707  80.746  74.547  1.00  0.00     0.086 C 
ATOM     16  C   UNL     1     102.488  79.504  75.025  1.00  0.00     0.140 CG0
ATOM     17  C   UNL     1     101.062  80.283  73.271  1.00  0.00    -0.010 C 
ATOM     18  C   UNL     1     102.463  78.612  73.802  1.00  0.00     0.190 C 
ATOM     19  G   UNL     1     103.909  79.852  75.467  1.00  0.00     0.000 G0
ATOM     20  C   UNL     1     101.485  79.101  72.812  1.00  0.00    -0.008 C 
ATOM     21  O   UNL     1     103.119  77.592  73.656  1.00  0.00    -0.291 OA
ATOM     22  C   UNL     1     101.140  78.385  71.566  1.00  0.00     0.048 C 
BRANCH  16  23
ATOM     23  O   UNL     1     101.810  78.745  76.012  1.00  0.00    -0.381 OA
ATOM     24  H   UNL     1     102.233  77.872  76.072  1.00  0.00     0.212 HD
ENDBRANCH  16  23
ENDBRANCH   6  15
BRANCH   7  25
ATOM     25  C   UNL     1     100.125  85.138  75.333  1.00  0.00     0.135 C 
BRANCH  25  26
ATOM     26  C   UNL     1     101.342  85.441  74.494  1.00  0.00    -0.040 A 
ATOM     27  C   UNL     1     102.615  85.355  75.057  1.00  0.00     0.004 A 
ATOM     28  C   UNL     1     101.194  85.805  73.156  1.00  0.00     0.004 A 
ATOM     29  C   UNL     1     103.741  85.635  74.282  1.00  0.00     0.000 A 
ATOM     30  C   UNL     1     102.320  86.084  72.381  1.00  0.00     0.000 A 
ATOM     31  C   UNL     1     103.593  85.999  72.945  1.00  0.00     0.000 A 
ENDBRANCH  25  26
ENDBRANCH   7  25
BRANCH  14  32
ATOM     32  C   UNL     1      98.738  83.075  79.002  1.00  0.00    -0.046 C 
ATOM     33  C   UNL     1      97.290  83.455  78.906  1.00  0.00     0.042 C 
ATOM     34  C   UNL     1      99.416  83.159  80.157  1.00  0.00     0.010 C 
ENDBRANCH  14  32
ENDBRANCH   3   4
BRANCH   2  35
ATOM     35  C   UNL     1     103.921  79.868  75.467  1.00  0.00     0.078 CG0
ATOM     36  G   UNL     1     102.500  79.504  75.040  1.00  0.00     0.000 G0
ENDBRANCH   2  35
ENDBRANCH   1   2
BRANCH   1  37
ATOM     37  O   UNL     1     105.787  81.711  77.903  1.00  0.00    -0.461 OA
BRANCH  37  38
ATOM     38  C   UNL     1     106.376  80.669  78.581  1.00  0.00     0.310 C 
ATOM     39  O   UNL     1     107.192  79.892  78.104  1.00  0.00    -0.252 OA
BRANCH  38  40
ATOM     40  C   UNL     1     105.859  80.634  80.000  1.00  0.00     0.158 C 
BRANCH  40  41
ATOM     41  C   UNL     1     104.377  80.371  80.080  1.00  0.00    -0.033 A 
ATOM     42  C   UNL     1     103.841  79.220  79.501  1.00  0.00     0.054 A 
ATOM     43  C   UNL     1     103.542  81.278  80.732  1.00  0.00     0.008 A 
ATOM     44  C   UNL     1     102.470  78.976  79.575  1.00  0.00     0.160 A 
ATOM     45  C   UNL     1     102.170  81.034  80.806  1.00  0.00     0.050 A 
ATOM     46  C   UNL     1     101.634  79.884  80.228  1.00  0.00     0.157 A 
BRANCH  44  47
ATOM     47  O   UNL     1     101.958  77.849  79.007  1.00  0.00    -0.493 OA
ATOM     48  C   UNL     1     102.852  76.752  78.824  1.00  0.00     0.278 C 
ENDBRANCH  44  47
BRANCH  46  49
ATOM     49  O   UNL     1     100.294  79.656  80.307  1.00  0.00    -0.504 OA
ATOM     50  H   UNL     1      99.895  79.803  79.433  1.00  0.00     0.293 HD
ENDBRANCH  46  49
ENDBRANCH  40  41
ENDBRANCH  38  40
ENDBRANCH  37  38
ENDBRANCH   1  37
TORSDOF 11
ENDMDL
MODEL 2
REMARK VINA RESULT:    -4.932     19.109     22.809
REMARK INTER + INTRA:         -11.688
REMARK INTER:                 -10.583
REMARK INTRA:                  -1.105
REMARK UNBOUND:                -3.009
REMARK SMILES C=C(C)[C@]12C[C@@H](C)[C@@]34O[C@](Cc5ccccc5)(O[C@@H]1[C@@H]3C=C(COC(=O)Cc1ccc(O)c(OC)c1)C[C@]1(O)C(=O)C(C)=C[C@@H]41)O2
REMARK SMILES IDX 23 1 22 2 21 3 20 4 9 5 8 6 10 7 6 8 18 9 46 10 19 11 5 12
REMARK SMILES IDX 7 13 4 14 45 15 38 16 44 17 40 18 42 20 41 21 43 22 39 23
REMARK SMILES IDX 11 25 12 26 13 27 17 28 14 29 16 30 15 31 2 32 3 33 1 34
REMARK SMILES IDX 37 35 24 37 25 38 26 39 27 40 28 41 36 42 29 43 33 44 30 45
REMARK SMILES IDX 31 46 34 47 35 48 32 49
REMARK H PARENT 39 24 32 50
REMARK Flexibility Score: 90.00
ROOT
ATOM      1  C   UNL     1      91.595  94.407  91.570  1.00  0.00     0.264 C 
ENDROOT
BRANCH   1   2
ATOM      2  C   UNL     1      91.879  95.883  91.718  1.00  0.00    -0.033 C 
ATOM      3  C   UNL     1      93.100  96.356  91.394  1.00  0.00    -0.015 C 
BRANCH   3   4
ATOM      4  C   UNL     1      93.654  97.765  91.524  1.00  0.00     0.078 C 
ATOM      5  O   UNL     1      93.236  98.905  89.369  1.00  0.00    -0.319 OA
ATOM      6  C   UNL     1      92.901  98.937  90.791  1.00  0.00     0.095 C 
ATOM      7  C   UNL     1      94.623  98.663  89.067  1.00  0.00     0.289 C 
ATOM      8  C   UNL     1      93.409 100.300  91.418  1.00  0.00     0.023 C 
ATOM      9  O   UNL     1      95.069  97.434  89.636  1.00  0.00    -0.320 OA
ATOM     10  O   UNL     1      95.477  99.669  89.606  1.00  0.00    -0.313 OA
ATOM     11  C   UNL     1      95.119  97.802  91.023  1.00  0.00     0.170 C 
ATOM     12  C   UNL     1      94.904 100.208  91.852  1.00  0.00     0.049 C 
ATOM     13  C   UNL     1      93.207 101.546  90.540  1.00  0.00     0.011 C 
ATOM     14  C   UNL     1      95.691  99.240  90.967  1.00  0.00     0.122 C 
BRANCH   6  15
ATOM     15  C   UNL     1      91.361  98.714  90.832  1.00  0.00     0.086 C 
ATOM     16  C   UNL     1      90.783  98.211  92.171  1.00  0.00     0.140 CG0
ATOM     17  C   UNL     1      90.443  99.843  90.457  1.00  0.00    -0.010 C 
ATOM     18  C   UNL     1      89.429  98.888  92.216  1.00  0.00     0.190 C 
ATOM     19  G   UNL     1      90.677  96.688  92.219  1.00  0.00     0.000 G0
ATOM     20  C   UNL     1      89.335  99.951  91.198  1.00  0.00    -0.008 C 
ATOM     21  O   UNL     1      88.539  98.638  93.015  1.00  0.00    -0.291 OA
ATOM     22  C   UNL     1      88.188 100.873  91.066  1.00  0.00     0.048 C 
BRANCH  16  23
ATOM     23  O   UNL     1      91.453  98.719  93.313  1.00  0.00    -0.381 OA
ATOM     24  H   UNL     1      91.596  97.988  93.936  1.00  0.00     0.212 HD
ENDBRANCH  16  23
ENDBRANCH   6  15
BRANCH   7  25
ATOM     25  C   UNL     1      94.782  98.618  87.561  1.00  0.00     0.135 C 
BRANCH  25  26
ATOM     26  C   UNL     1      96.145  99.090  87.122  1.00  0.00    -0.040 A 
ATOM     27  C   UNL     1      96.319 100.399  86.672  1.00  0.00     0.004 A 
ATOM     28  C   UNL     1      97.233  98.219  87.167  1.00  0.00     0.004 A 
ATOM     29  C   UNL     1      97.580 100.836  86.266  1.00  0.00     0.000 A 
ATOM     30  C   UNL     1      98.495  98.656  86.761  1.00  0.00     0.000 A 
ATOM     31  C   UNL     1      98.667  99.965  86.310  1.00  0.00     0.000 A 
ENDBRANCH  25  26
ENDBRANCH   7  25
BRANCH  14  32
ATOM     32  C   UNL     1      97.158  99.272  91.245  1.00  0.00    -0.046 C 
ATOM     33  C   UNL     1      97.629  98.459  92.414  1.00  0.00     0.042 C 
ATOM     34  C   UNL     1      98.008  99.988  90.492  1.00  0.00     0.010 C 
ENDBRANCH  14  32
ENDBRANCH   3   4
BRANCH   2  35
ATOM     35  C   UNL     1      90.687  96.670  92.230  1.00  0.00     0.078 CG0
ATOM     36  G   UNL     1      90.765  98.193  92.141  1.00  0.00     0.000 G0
ENDBRANCH   2  35
ENDBRANCH   1   2
BRANCH   1  37
ATOM     37  O   UNL     1      92.754  93.753  91.099  1.00  0.00    -0.461 OA
BRANCH  37  38
ATOM     38  C   UNL     1      93.060  92.552  91.695  1.00  0.00     0.310 C 
ATOM     39  O   UNL     1      93.664  92.426  92.751  1.00  0.00    -0.252 OA
BRANCH  38  40
ATOM     40  C   UNL     1      92.536  91.419  90.845  1.00  0.00     0.158 C 
BRANCH  40  41
ATOM     41  C   UNL     1      93.435  90.210  90.858  1.00  0.00    -0.033 A 
ATOM     42  C   UNL     1      94.642  90.231  90.157  1.00  0.00     0.054 A 
ATOM     43  C   UNL     1      93.062  89.070  91.569  1.00  0.00     0.008 A 
ATOM     44  C   UNL     1      95.474  89.112  90.168  1.00  0.00     0.160 A 
ATOM     45  C   UNL     1      93.895  87.951  91.580  1.00  0.00     0.050 A 
ATOM     46  C   UNL     1      95.100  87.971  90.880  1.00  0.00     0.157 A 
BRANCH  44  47
ATOM     47  O   UNL     1      96.649  89.144  89.480  1.00  0.00    -0.493 OA
ATOM     48  C   UNL     1      97.821  89.496  90.215  1.00  0.00     0.278 C 
ENDBRANCH  44  47
BRANCH  46  49
ATOM     49  O   UNL     1      95.906  86.873  90.899  1.00  0.00    -0.504 OA
ATOM     50  H   UNL     1      96.638  87.006  90.274  1.00  0.00     0.293 HD
ENDBRANCH  46  49
ENDBRANCH  40  41
ENDBRANCH  38  40
ENDBRANCH  37  38
ENDBRANCH   1  37
TORSDOF 11
ENDMDL
MODEL 3
REMARK VINA RESULT:    -4.505      7.313     11.762
REMARK INTER + INTRA:         -10.937
REMARK INTER:                  -9.708
REMARK INTRA:                  -1.229
REMARK UNBOUND:                -3.009
REMARK SMILES C=C(C)[C@]12C[C@@H](C)[C@@]34O[C@](Cc5ccccc5)(O[C@@H]1[C@@H]3C=C(COC(=O)Cc1ccc(O)c(OC)c1)C[C@]1(O)C(=O)C(C)=C[C@@H]41)O2
REMARK SMILES IDX 23 1 22 2 21 3 20 4 9 5 8 6 10 7 6 8 18 9 46 10 19 11 5 12
REMARK SMILES IDX 7 13 4 14 45 15 38 16 44 17 40 18 42 20 41 21 43 22 39 23
REMARK SMILES IDX 11 25 12 26 13 27 17 28 14 29 16 30 15 31 2 32 3 33 1 34
REMARK SMILES IDX 37 35 24 37 25 38 26 39 27 40 28 41 36 42 29 43 33 44 30 45
REMARK SMILES IDX 31 46 34 47 35 48 32 49
REMARK H PARENT 39 24 32 50
REMARK Flexibility Score: 90.00
ROOT
ATOM      1  C   UNL     1     101.947  80.131  84.398  1.00  0.00     0.264 C 
ENDROOT
BRANCH   1   2
ATOM      2  C   UNL     1     101.385  80.885  85.580  1.00  0.00    -0.033 C 
ATOM      3  C   UNL     1     100.226  81.560  85.442  1.00  0.00    -0.015 C 
BRANCH   3   4
ATOM      4  C   UNL     1      99.501  82.447  86.440  1.00  0.00     0.078 C 
ATOM      5  O   UNL     1      97.886  81.008  87.642  1.00  0.00    -0.319 OA
ATOM      6  C   UNL     1      99.082  81.828  87.826  1.00  0.00     0.095 C 
ATOM      7  C   UNL     1      96.874  81.578  86.791  1.00  0.00     0.289 C 
ATOM      8  C   UNL     1      98.749  83.027  88.806  1.00  0.00     0.023 C 
ATOM      9  O   UNL     1      97.391  81.869  85.495  1.00  0.00    -0.320 OA
ATOM     10  O   UNL     1      96.377  82.815  87.294  1.00  0.00    -0.313 OA
ATOM     11  C   UNL     1      98.207  83.010  85.801  1.00  0.00     0.170 C 
ATOM     12  C   UNL     1      98.132  84.237  88.040  1.00  0.00     0.049 C 
ATOM     13  C   UNL     1      97.854  82.671  90.005  1.00  0.00     0.011 C 
ATOM     14  C   UNL     1      97.332  83.785  86.818  1.00  0.00     0.122 C 
BRANCH   6  15
ATOM     15  C   UNL     1     100.163  80.830  88.333  1.00  0.00     0.086 C 
ATOM     16  C   UNL     1     101.631  81.272  88.162  1.00  0.00     0.140 CG0
ATOM     17  C   UNL     1     100.108  80.344  89.755  1.00  0.00    -0.010 C 
ATOM     18  C   UNL     1     102.296  80.675  89.384  1.00  0.00     0.190 C 
ATOM     19  G   UNL     1     102.239  80.762  86.856  1.00  0.00     0.000 G0
ATOM     20  C   UNL     1     101.291  80.220  90.364  1.00  0.00    -0.008 C 
ATOM     21  O   UNL     1     103.501  80.614  89.576  1.00  0.00    -0.291 OA
ATOM     22  C   UNL     1     101.621  79.701  91.707  1.00  0.00     0.048 C 
BRANCH  16  23
ATOM     23  O   UNL     1     101.831  82.667  88.316  1.00  0.00    -0.381 OA
ATOM     24  H   UNL     1     100.967  83.108  88.274  1.00  0.00     0.212 HD
ENDBRANCH  16  23
ENDBRANCH   6  15
BRANCH   7  25
ATOM     25  C   UNL     1      95.735  80.584  86.676  1.00  0.00     0.135 C 
BRANCH  25  26
ATOM     26  C   UNL     1      94.458  81.116  87.276  1.00  0.00    -0.040 A 
ATOM     27  C   UNL     1      94.236  81.010  88.650  1.00  0.00     0.004 A 
ATOM     28  C   UNL     1      93.499  81.715  86.460  1.00  0.00     0.004 A 
ATOM     29  C   UNL     1      93.055  81.502  89.206  1.00  0.00     0.000 A 
ATOM     30  C   UNL     1      92.318  82.207  87.016  1.00  0.00     0.000 A 
ATOM     31  C   UNL     1      92.097  82.100  88.389  1.00  0.00     0.000 A 
ENDBRANCH  25  26
ENDBRANCH   7  25
BRANCH  14  32
ATOM     32  C   UNL     1      96.583  84.906  86.174  1.00  0.00    -0.046 C 
ATOM     33  C   UNL     1      95.253  85.247  86.778  1.00  0.00     0.042 C 
ATOM     34  C   UNL     1      97.072  85.571  85.117  1.00  0.00     0.010 C 
ENDBRANCH  14  32
ENDBRANCH   3   4
BRANCH   2  35
ATOM     35  C   UNL     1     102.245  80.766  86.824  1.00  0.00     0.078 CG0
ATOM     36  G   UNL     1     101.633  81.237  88.143  1.00  0.00     0.000 G0
ENDBRANCH   2  35
ENDBRANCH   1   2
BRANCH   1  37
ATOM     37  O   UNL     1     101.664  80.843  83.212  1.00  0.00    -0.461 OA
BRANCH  37  38
ATOM     38  C   UNL     1     102.048  80.243  82.036  1.00  0.00     0.310 C 
ATOM     39  O   UNL     1     102.281  79.050  81.899  1.00  0.00    -0.252 OA
BRANCH  38  40
ATOM     40  C   UNL     1     102.137  81.284  80.944  1.00  0.00     0.158 C 
BRANCH  40  41
ATOM     41  C   UNL     1     100.788  81.695  80.413  1.00  0.00    -0.033 A 
ATOM     42  C   UNL     1     100.233  81.023  79.323  1.00  0.00     0.054 A 
ATOM     43  C   UNL     1     100.095  82.747  81.010  1.00  0.00     0.008 A 
ATOM     44  C   UNL     1      98.985  81.404  78.831  1.00  0.00     0.160 A 
ATOM     45  C   UNL     1      98.846  83.129  80.518  1.00  0.00     0.050 A 
ATOM     46  C   UNL     1      98.291  82.458  79.429  1.00  0.00     0.157 A 
BRANCH  44  47
ATOM     47  O   UNL     1      98.454  80.741  77.767  1.00  0.00    -0.493 OA
ATOM     48  C   UNL     1      98.980  81.056  76.478  1.00  0.00     0.278 C 
ENDBRANCH  44  47
BRANCH  46  49
ATOM     49  O   UNL     1      97.071  82.838  78.958  1.00  0.00    -0.504 OA
ATOM     50  H   UNL     1      96.635  82.069  78.553  1.00  0.00     0.293 HD
ENDBRANCH  46  49
ENDBRANCH  40  41
ENDBRANCH  38  40
ENDBRANCH  37  38
ENDBRANCH   1  37
TORSDOF 11
ENDMDL
MODEL 4
REMARK VINA RESULT:    -4.164      2.712      6.728
REMARK INTER + INTRA:         -10.338
REMARK INTER:                  -8.038
REMARK INTRA:                  -2.300
REMARK UNBOUND:                -3.009
REMARK SMILES C=C(C)[C@]12C[C@@H](C)[C@@]34O[C@](Cc5ccccc5)(O[C@@H]1[C@@H]3C=C(COC(=O)Cc1ccc(O)c(OC)c1)C[C@]1(O)C(=O)C(C)=C[C@@H]41)O2
REMARK SMILES IDX 23 1 22 2 21 3 20 4 9 5 8 6 10 7 6 8 18 9 46 10 19 11 5 12
REMARK SMILES IDX 7 13 4 14 45 15 38 16 44 17 40 18 42 20 41 21 43 22 39 23
REMARK SMILES IDX 11 25 12 26 13 27 17 28 14 29 16 30 15 31 2 32 3 33 1 34
REMARK SMILES IDX 37 35 24 37 25 38 26 39 27 40 28 41 36 42 29 43 33 44 30 45
REMARK SMILES IDX 31 46 34 47 35 48 32 49
REMARK H PARENT 39 24 32 50
REMARK Flexibility Score: 90.00
ROOT
ATOM      1  C   UNL     1     105.386  80.818  78.740  1.00  0.00     0.264 C 
ENDROOT
BRANCH   1   2
ATOM      2  C   UNL     1     104.207  81.063  79.653  1.00  0.00    -0.033 C 
ATOM      3  C   UNL     1     103.007  81.358  79.115  1.00  0.00    -0.015 C 
BRANCH   3   4
ATOM      4  C   UNL     1     101.702  81.718  79.807  1.00  0.00     0.078 C 
ATOM      5  O   UNL     1     100.435  79.613  80.096  1.00  0.00    -0.319 OA
ATOM      6  C   UNL     1     101.090  80.692  80.832  1.00  0.00     0.095 C 
ATOM      7  C   UNL     1      99.650  80.028  78.962  1.00  0.00     0.289 C 
ATOM      8  C   UNL     1     100.011  81.464  81.698  1.00  0.00     0.023 C 
ATOM      9  O   UNL     1     100.439  80.762  78.028  1.00  0.00    -0.320 OA
ATOM     10  O   UNL     1      98.584  80.898  79.332  1.00  0.00    -0.313 OA
ATOM     11  C   UNL     1     100.604  81.992  78.750  1.00  0.00     0.170 C 
ATOM     12  C   UNL     1      99.296  82.572  80.865  1.00  0.00     0.049 C 
ATOM     13  C   UNL     1      98.957  80.578  82.382  1.00  0.00     0.011 C 
ATOM     14  C   UNL     1      99.207  82.198  79.385  1.00  0.00     0.122 C 
BRANCH   6  15
ATOM     15  C   UNL     1     102.214  79.983  81.641  1.00  0.00     0.086 C 
ATOM     16  C   UNL     1     103.362  80.884  82.143  1.00  0.00     0.140 CG0
ATOM     17  C   UNL     1     101.850  79.172  82.853  1.00  0.00    -0.010 C 
ATOM     18  C   UNL     1     103.727  80.241  83.465  1.00  0.00     0.190 C 
ATOM     19  G   UNL     1     104.536  80.920  81.166  1.00  0.00     0.000 G0
ATOM     20  C   UNL     1     102.695  79.274  83.885  1.00  0.00    -0.008 C 
ATOM     21  O   UNL     1     104.712  80.510  84.135  1.00  0.00    -0.291 OA
ATOM     22  C   UNL     1     102.700  78.571  85.184  1.00  0.00     0.048 C 
BRANCH  16  23
ATOM     23  O   UNL     1     102.949  82.191  82.505  1.00  0.00    -0.381 OA
ATOM     24  H   UNL     1     103.402  82.439  83.328  1.00  0.00     0.212 HD
ENDBRANCH  16  23
ENDBRANCH   6  15
BRANCH   7  25
ATOM     25  C   UNL     1      99.086  78.790  78.295  1.00  0.00     0.135 C 
BRANCH  25  26
ATOM     26  C   UNL     1      99.692  78.556  76.933  1.00  0.00    -0.040 A 
ATOM     27  C   UNL     1      99.006  78.957  75.786  1.00  0.00     0.004 A 
ATOM     28  C   UNL     1     100.938  77.939  76.821  1.00  0.00     0.004 A 
ATOM     29  C   UNL     1      99.566  78.740  74.527  1.00  0.00     0.000 A 
ATOM     30  C   UNL     1     101.498  77.723  75.561  1.00  0.00     0.000 A 
ATOM     31  C   UNL     1     100.812  78.123  74.415  1.00  0.00     0.000 A 
ENDBRANCH  25  26
ENDBRANCH   7  25
BRANCH  14  32
ATOM     32  C   UNL     1      98.369  83.154  78.601  1.00  0.00    -0.046 C 
ATOM     33  C   UNL     1      97.109  83.628  79.263  1.00  0.00     0.042 C 
ATOM     34  C   UNL     1      98.722  83.566  77.374  1.00  0.00     0.010 C 
ENDBRANCH  14  32
ENDBRANCH   3   4
BRANCH   2  35
ATOM     35  C   UNL     1     104.556  80.929  81.124  1.00  0.00     0.078 CG0
ATOM     36  G   UNL     1     103.395  80.879  82.115  1.00  0.00     0.000 G0
ENDBRANCH   2  35
ENDBRANCH   1   2
BRANCH   1  37
ATOM     37  O   UNL     1     105.248  81.606  77.578  1.00  0.00    -0.461 OA
BRANCH  37  38
ATOM     38  C   UNL     1     105.385  80.949  76.377  1.00  0.00     0.310 C 
ATOM     39  O   UNL     1     106.395  80.951  75.686  1.00  0.00    -0.252 OA
BRANCH  38  40
ATOM     40  C   UNL     1     104.099  80.228  76.047  1.00  0.00     0.158 C 
BRANCH  40  41
ATOM     41  C   UNL     1     103.526  80.629  74.712  1.00  0.00    -0.033 A 
ATOM     42  C   UNL     1     104.175  80.256  73.534  1.00  0.00     0.054 A 
ATOM     43  C   UNL     1     102.348  81.372  74.654  1.00  0.00     0.008 A 
ATOM     44  C   UNL     1     103.645  80.627  72.298  1.00  0.00     0.160 A 
ATOM     45  C   UNL     1     101.817  81.743  73.418  1.00  0.00     0.050 A 
ATOM     46  C   UNL     1     102.465  81.372  72.241  1.00  0.00     0.157 A 
BRANCH  44  47
ATOM     47  O   UNL     1     104.287  80.258  71.156  1.00  0.00    -0.493 OA
ATOM     48  C   UNL     1     104.066  78.928  70.689  1.00  0.00     0.278 C 
ENDBRANCH  44  47
BRANCH  46  49
ATOM     49  O   UNL     1     101.938  81.739  71.040  1.00  0.00    -0.504 OA
ATOM     50  H   UNL     1     102.371  81.229  70.335  1.00  0.00     0.293 HD
ENDBRANCH  46  49
ENDBRANCH  40  41
ENDBRANCH  38  40
ENDBRANCH  37  38
ENDBRANCH   1  37
TORSDOF 11
ENDMDL
MODEL 5
REMARK VINA RESULT:    -4.157      6.475     10.999
REMARK INTER + INTRA:         -10.324
REMARK INTER:                  -9.193
REMARK INTRA:                  -1.131
REMARK UNBOUND:                -3.009
REMARK SMILES C=C(C)[C@]12C[C@@H](C)[C@@]34O[C@](Cc5ccccc5)(O[C@@H]1[C@@H]3C=C(COC(=O)Cc1ccc(O)c(OC)c1)C[C@]1(O)C(=O)C(C)=C[C@@H]41)O2
REMARK SMILES IDX 23 1 22 2 21 3 20 4 9 5 8 6 10 7 6 8 18 9 46 10 19 11 5 12
REMARK SMILES IDX 7 13 4 14 45 15 38 16 44 17 40 18 42 20 41 21 43 22 39 23
REMARK SMILES IDX 11 25 12 26 13 27 17 28 14 29 16 30 15 31 2 32 3 33 1 34
REMARK SMILES IDX 37 35 24 37 25 38 26 39 27 40 28 41 36 42 29 43 33 44 30 45
REMARK SMILES IDX 31 46 34 47 35 48 32 49
REMARK H PARENT 39 24 32 50
REMARK Flexibility Score: 90.00
ROOT
ATOM      1  C   UNL     1      97.123  83.204  84.883  1.00  0.00     0.264 C 
ENDROOT
BRANCH   1   2
ATOM      2  C   UNL     1      98.247  82.856  83.935  1.00  0.00    -0.033 C 
ATOM      3  C   UNL     1      99.345  82.238  84.413  1.00  0.00    -0.015 C 
BRANCH   3   4
ATOM      4  C   UNL     1     100.628  81.855  83.693  1.00  0.00     0.078 C 
ATOM      5  O   UNL     1     100.334  79.538  82.880  1.00  0.00    -0.319 OA
ATOM      6  C   UNL     1     100.528  80.915  82.434  1.00  0.00     0.095 C 
ATOM      7  C   UNL     1     101.145  79.132  83.998  1.00  0.00     0.289 C 
ATOM      8  C   UNL     1     101.898  81.022  81.645  1.00  0.00     0.023 C 
ATOM      9  O   UNL     1     100.931  79.977  85.126  1.00  0.00    -0.320 OA
ATOM     10  O   UNL     1     102.539  79.215  83.714  1.00  0.00    -0.313 OA
ATOM     11  C   UNL     1     101.601  81.166  84.681  1.00  0.00     0.170 C 
ATOM     12  C   UNL     1     103.099  81.249  82.614  1.00  0.00     0.049 C 
ATOM     13  C   UNL     1     102.213  79.846  80.707  1.00  0.00     0.011 C 
ATOM     14  C   UNL     1     102.858  80.597  83.976  1.00  0.00     0.122 C 
BRANCH   6  15
ATOM     15  C   UNL     1      99.251  81.239  81.604  1.00  0.00     0.086 C 
ATOM     16  C   UNL     1      98.924  82.734  81.415  1.00  0.00     0.140 CG0
ATOM     17  C   UNL     1      99.110  80.672  80.219  1.00  0.00    -0.010 C 
ATOM     18  C   UNL     1      98.316  82.762  80.029  1.00  0.00     0.190 C 
ATOM     19  G   UNL     1      97.965  83.255  82.485  1.00  0.00     0.000 G0
ATOM     20  C   UNL     1      98.563  81.494  79.317  1.00  0.00    -0.008 C 
ATOM     21  O   UNL     1      97.739  83.716  79.528  1.00  0.00    -0.291 OA
ATOM     22  C   UNL     1      98.201  81.252  77.906  1.00  0.00     0.048 C 
BRANCH  16  23
ATOM     23  O   UNL     1     100.069  83.562  81.300  1.00  0.00    -0.381 OA
ATOM     24  H   UNL     1     100.461  83.669  82.182  1.00  0.00     0.212 HD
ENDBRANCH  16  23
ENDBRANCH   6  15
BRANCH   7  25
ATOM     25  C   UNL     1     100.785  77.703  84.353  1.00  0.00     0.135 C 
BRANCH  25  26
ATOM     26  C   UNL     1     101.985  76.918  84.823  1.00  0.00    -0.040 A 
ATOM     27  C   UNL     1     102.765  76.219  83.901  1.00  0.00     0.004 A 
ATOM     28  C   UNL     1     102.315  76.893  86.177  1.00  0.00     0.004 A 
ATOM     29  C   UNL     1     103.874  75.493  84.335  1.00  0.00     0.000 A 
ATOM     30  C   UNL     1     103.425  76.167  86.611  1.00  0.00     0.000 A 
ATOM     31  C   UNL     1     104.204  75.467  85.689  1.00  0.00     0.000 A 
ENDBRANCH  25  26
ENDBRANCH   7  25
BRANCH  14  32
ATOM     32  C   UNL     1     104.064  80.644  84.856  1.00  0.00    -0.046 C 
ATOM     33  C   UNL     1     104.883  79.389  84.924  1.00  0.00     0.042 C 
ATOM     34  C   UNL     1     104.396  81.745  85.547  1.00  0.00     0.010 C 
ENDBRANCH  14  32
ENDBRANCH   3   4
BRANCH   2  35
ATOM     35  C   UNL     1      97.964  83.265  82.502  1.00  0.00     0.078 CG0
ATOM     36  G   UNL     1      98.918  82.748  81.426  1.00  0.00     0.000 G0
ENDBRANCH   2  35
ENDBRANCH   1   2
BRANCH   1  37
ATOM     37  O   UNL     1      97.646  83.384  86.181  1.00  0.00    -0.461 OA
BRANCH  37  38
ATOM     38  C   UNL     1      96.891  84.147  87.041  1.00  0.00     0.310 C 
ATOM     39  O   UNL     1      97.242  84.503  88.158  1.00  0.00    -0.252 OA
BRANCH  38  40
ATOM     40  C   UNL     1      95.567  84.476  86.393  1.00  0.00     0.158 C 
BRANCH  40  41
ATOM     41  C   UNL     1      94.393  84.259  87.313  1.00  0.00    -0.033 A 
ATOM     42  C   UNL     1      93.690  83.054  87.275  1.00  0.00     0.054 A 
ATOM     43  C   UNL     1      94.009  85.262  88.202  1.00  0.00     0.008 A 
ATOM     44  C   UNL     1      92.603  82.853  88.126  1.00  0.00     0.160 A 
ATOM     45  C   UNL     1      92.922  85.062  89.054  1.00  0.00     0.050 A 
ATOM     46  C   UNL     1      92.219  83.858  89.015  1.00  0.00     0.157 A 
BRANCH  44  47
ATOM     47  O   UNL     1      91.925  81.673  88.079  1.00  0.00    -0.493 OA
ATOM     48  C   UNL     1      91.690  81.111  86.789  1.00  0.00     0.278 C 
ENDBRANCH  44  47
BRANCH  46  49
ATOM     49  O   UNL     1      91.160  83.673  89.852  1.00  0.00    -0.504 OA
ATOM     50  H   UNL     1      91.484  83.329  90.701  1.00  0.00     0.293 HD
ENDBRANCH  46  49
ENDBRANCH  40  41
ENDBRANCH  38  40
ENDBRANCH  37  38
ENDBRANCH   1  37
TORSDOF 11
ENDMDL
MODEL 6
REMARK VINA RESULT:    -3.881     21.070     24.866
REMARK INTER + INTRA:          -9.839
REMARK INTER:                  -8.916
REMARK INTRA:                  -0.923
REMARK UNBOUND:                -3.009
REMARK SMILES C=C(C)[C@]12C[C@@H](C)[C@@]34O[C@](Cc5ccccc5)(O[C@@H]1[C@@H]3C=C(COC(=O)Cc1ccc(O)c(OC)c1)C[C@]1(O)C(=O)C(C)=C[C@@H]41)O2
REMARK SMILES IDX 23 1 22 2 21 3 20 4 9 5 8 6 10 7 6 8 18 9 46 10 19 11 5 12
REMARK SMILES IDX 7 13 4 14 45 15 38 16 44 17 40 18 42 20 41 21 43 22 39 23
REMARK SMILES IDX 11 25 12 26 13 27 17 28 14 29 16 30 15 31 2 32 3 33 1 34
REMARK SMILES IDX 37 35 24 37 25 38 26 39 27 40 28 41 36 42 29 43 33 44 30 45
REMARK SMILES IDX 31 46 34 47 35 48 32 49
REMARK H PARENT 39 24 32 50
REMARK Flexibility Score: 90.00
ROOT
ATOM      1  C   UNL     1      93.049  94.962  92.759  1.00  0.00     0.264 C 
ENDROOT
BRANCH   1   2
ATOM      2  C   UNL     1      92.306  96.192  92.291  1.00  0.00    -0.033 C 
ATOM      3  C   UNL     1      91.228  96.613  92.982  1.00  0.00    -0.015 C 
BRANCH   3   4
ATOM      4  C   UNL     1      90.276  97.759  92.680  1.00  0.00     0.078 C 
ATOM      5  O   UNL     1      91.136  99.745  93.877  1.00  0.00    -0.319 OA
ATOM      6  C   UNL     1      90.870  99.210  92.544  1.00  0.00     0.095 C 
ATOM      7  C   UNL     1      90.113  99.493  94.858  1.00  0.00     0.289 C 
ATOM      8  C   UNL     1      89.780 100.110  91.827  1.00  0.00     0.023 C 
ATOM      9  O   UNL     1      89.868  98.097  95.002  1.00  0.00    -0.320 OA
ATOM     10  O   UNL     1      88.861 100.068  94.493  1.00  0.00    -0.313 OA
ATOM     11  C   UNL     1      89.179  97.833  93.770  1.00  0.00     0.170 C 
ATOM     12  C   UNL     1      88.334  99.668  92.208  1.00  0.00     0.049 C 
ATOM     13  C   UNL     1      89.927 101.624  92.046  1.00  0.00     0.011 C 
ATOM     14  C   UNL     1      88.275  99.082  93.619  1.00  0.00     0.122 C 
BRANCH   6  15
ATOM     15  C   UNL     1      92.265  99.173  91.854  1.00  0.00     0.086 C 
ATOM     16  C   UNL     1      92.396  98.236  90.636  1.00  0.00     0.140 CG0
ATOM     17  C   UNL     1      92.885 100.456  91.377  1.00  0.00    -0.010 C 
ATOM     18  C   UNL     1      93.366  98.988  89.749  1.00  0.00     0.190 C 
ATOM     19  G   UNL     1      92.913  96.852  91.026  1.00  0.00     0.000 G0
ATOM     20  C   UNL     1      93.535 100.379  90.211  1.00  0.00    -0.008 C 
ATOM     21  O   UNL     1      93.907  98.539  88.750  1.00  0.00    -0.291 OA
ATOM     22  C   UNL     1      94.321 101.401  89.490  1.00  0.00     0.048 C 
BRANCH  16  23
ATOM     23  O   UNL     1      91.219  98.147  89.851  1.00  0.00    -0.381 OA
ATOM     24  H   UNL     1      90.762  99.003  89.885  1.00  0.00     0.212 HD
ENDBRANCH  16  23
ENDBRANCH   6  15
BRANCH   7  25
ATOM     25  C   UNL     1      90.569 100.073  96.182  1.00  0.00     0.135 C 
BRANCH  25  26
ATOM     26  C   UNL     1      91.916 100.744  96.070  1.00  0.00    -0.040 A 
ATOM     27  C   UNL     1      91.993 102.124  95.878  1.00  0.00     0.004 A 
ATOM     28  C   UNL     1      93.083  99.986  96.161  1.00  0.00     0.004 A 
ATOM     29  C   UNL     1      93.238 102.745  95.776  1.00  0.00     0.000 A 
ATOM     30  C   UNL     1      94.328 100.608  96.058  1.00  0.00     0.000 A 
ATOM     31  C   UNL     1      94.405 101.987  95.865  1.00  0.00     0.000 A 
ENDBRANCH  25  26
ENDBRANCH   7  25
BRANCH  14  32
ATOM     32  C   UNL     1      86.876  98.821  94.074  1.00  0.00    -0.046 C 
ATOM     33  C   UNL     1      85.946  99.997  94.064  1.00  0.00     0.042 C 
ATOM     34  C   UNL     1      86.474  97.603  94.469  1.00  0.00     0.010 C 
ENDBRANCH  14  32
ENDBRANCH   3   4
BRANCH   2  35
ATOM     35  C   UNL     1      92.913  96.817  91.049  1.00  0.00     0.078 CG0
ATOM     36  G   UNL     1      92.407  98.201  90.644  1.00  0.00     0.000 G0
ENDBRANCH   2  35
ENDBRANCH   1   2
BRANCH   1  37
ATOM     37  O   UNL     1      92.655  93.853  91.980  1.00  0.00    -0.461 OA
BRANCH  37  38
ATOM     38  C   UNL     1      92.775  92.619  92.574  1.00  0.00     0.310 C 
ATOM     39  O   UNL     1      93.185  92.423  93.710  1.00  0.00    -0.252 OA
BRANCH  38  40
ATOM     40  C   UNL     1      92.323  91.548  91.609  1.00  0.00     0.158 C 
BRANCH  40  41
ATOM     41  C   UNL     1      93.471  90.840  90.937  1.00  0.00    -0.033 A 
ATOM     42  C   UNL     1      93.909  89.606  91.421  1.00  0.00     0.054 A 
ATOM     43  C   UNL     1      94.096  91.416  89.831  1.00  0.00     0.008 A 
ATOM     44  C   UNL     1      94.972  88.951  90.799  1.00  0.00     0.160 A 
ATOM     45  C   UNL     1      95.158  90.761  89.209  1.00  0.00     0.050 A 
ATOM     46  C   UNL     1      95.597  89.528  89.693  1.00  0.00     0.157 A 
BRANCH  44  47
ATOM     47  O   UNL     1      95.390  87.747  91.281  1.00  0.00    -0.493 OA
ATOM     48  C   UNL     1      95.320  87.555  92.693  1.00  0.00     0.278 C 
ENDBRANCH  44  47
BRANCH  46  49
ATOM     49  O   UNL     1      96.634  88.897  89.077  1.00  0.00    -0.504 OA
ATOM     50  H   UNL     1      97.318  88.694  89.737  1.00  0.00     0.293 HD
ENDBRANCH  46  49
ENDBRANCH  40  41
ENDBRANCH  38  40
ENDBRANCH  37  38
ENDBRANCH   1  37
TORSDOF 11
ENDMDL
MODEL 7
REMARK VINA RESULT:    -3.839     28.224     31.792
REMARK INTER + INTRA:          -9.765
REMARK INTER:                  -7.619
REMARK INTRA:                  -2.146
REMARK UNBOUND:                -3.009
REMARK SMILES C=C(C)[C@]12C[C@@H](C)[C@@]34O[C@](Cc5ccccc5)(O[C@@H]1[C@@H]3C=C(COC(=O)Cc1ccc(O)c(OC)c1)C[C@]1(O)C(=O)C(C)=C[C@@H]41)O2
REMARK SMILES IDX 23 1 22 2 21 3 20 4 9 5 8 6 10 7 6 8 18 9 46 10 19 11 5 12
REMARK SMILES IDX 7 13 4 14 45 15 38 16 44 17 40 18 42 20 41 21 43 22 39 23
REMARK SMILES IDX 11 25 12 26 13 27 17 28 14 29 16 30 15 31 2 32 3 33 1 34
REMARK SMILES IDX 37 35 24 37 25 38 26 39 27 40 28 41 36 42 29 43 33 44 30 45
REMARK SMILES IDX 31 46 34 47 35 48 32 49
REMARK H PARENT 39 24 32 50
REMARK Flexibility Score: 90.00
ROOT
ATOM      1  C   UNL     1      75.040  64.527  89.173  1.00  0.00     0.264 C 
ENDROOT
BRANCH   1   2
ATOM      2  C   UNL     1      76.489  64.693  88.777  1.00  0.00    -0.033 C 
ATOM      3  C   UNL     1      76.797  64.929  87.486  1.00  0.00    -0.015 C 
BRANCH   3   4
ATOM      4  C   UNL     1      78.160  65.054  86.827  1.00  0.00     0.078 C 
ATOM      5  O   UNL     1      78.750  67.457  86.842  1.00  0.00    -0.319 OA
ATOM      6  C   UNL     1      79.153  66.153  87.362  1.00  0.00     0.095 C 
ATOM      7  C   UNL     1      78.363  67.474  85.455  1.00  0.00     0.289 C 
ATOM      8  C   UNL     1      80.599  65.798  86.821  1.00  0.00     0.023 C 
ATOM      9  O   UNL     1      77.291  66.568  85.205  1.00  0.00    -0.320 OA
ATOM     10  O   UNL     1      79.421  67.065  84.593  1.00  0.00    -0.313 OA
ATOM     11  C   UNL     1      77.989  65.318  85.310  1.00  0.00     0.170 C 
ATOM     12  C   UNL     1      80.534  65.129  85.414  1.00  0.00     0.049 C 
ATOM     13  C   UNL     1      81.596  66.967  86.786  1.00  0.00     0.011 C 
ATOM     14  C   UNL     1      79.334  65.625  84.606  1.00  0.00     0.122 C 
BRANCH   6  15
ATOM     15  C   UNL     1      79.034  66.297  88.907  1.00  0.00     0.086 C 
ATOM     16  C   UNL     1      78.921  64.982  89.707  1.00  0.00     0.140 CG0
ATOM     17  C   UNL     1      80.080  67.073  89.657  1.00  0.00    -0.010 C 
ATOM     18  C   UNL     1      79.661  65.313  90.985  1.00  0.00     0.190 C 
ATOM     19  G   UNL     1      77.468  64.583  89.958  1.00  0.00     0.000 G0
ATOM     20  C   UNL     1      80.434  66.561  90.841  1.00  0.00    -0.008 C 
ATOM     21  O   UNL     1      79.672  64.626  91.995  1.00  0.00    -0.291 OA
ATOM     22  C   UNL     1      81.355  67.089  91.869  1.00  0.00     0.048 C 
BRANCH  16  23
ATOM     23  O   UNL     1      79.664  63.909  89.153  1.00  0.00    -0.381 OA
ATOM     24  H   UNL     1      79.317  63.077  89.515  1.00  0.00     0.212 HD
ENDBRANCH  16  23
ENDBRANCH   6  15
BRANCH   7  25
ATOM     25  C   UNL     1      77.935  68.884  85.098  1.00  0.00     0.135 C 
BRANCH  25  26
ATOM     26  C   UNL     1      77.309  69.598  86.269  1.00  0.00    -0.040 A 
ATOM     27  C   UNL     1      78.079  70.454  87.057  1.00  0.00     0.004 A 
ATOM     28  C   UNL     1      75.959  69.405  86.564  1.00  0.00     0.004 A 
ATOM     29  C   UNL     1      77.500  71.115  88.141  1.00  0.00     0.000 A 
ATOM     30  C   UNL     1      75.380  70.066  87.648  1.00  0.00     0.000 A 
ATOM     31  C   UNL     1      76.151  70.921  88.435  1.00  0.00     0.000 A 
ENDBRANCH  25  26
ENDBRANCH   7  25
BRANCH  14  32
ATOM     32  C   UNL     1      79.352  65.140  83.193  1.00  0.00    -0.046 C 
ATOM     33  C   UNL     1      79.136  66.179  82.133  1.00  0.00     0.042 C 
ATOM     34  C   UNL     1      79.551  63.848  82.890  1.00  0.00     0.010 C 
ENDBRANCH  14  32
ENDBRANCH   3   4
BRANCH   2  35
ATOM     35  C   UNL     1      77.444  64.571  89.950  1.00  0.00     0.078 CG0
ATOM     36  G   UNL     1      78.894  64.993  89.717  1.00  0.00     0.000 G0
ENDBRANCH   2  35
ENDBRANCH   1   2
BRANCH   1  37
ATOM     37  O   UNL     1      74.266  64.284  88.019  1.00  0.00    -0.461 OA
BRANCH  37  38
ATOM     38  C   UNL     1      73.013  64.853  87.996  1.00  0.00     0.310 C 
ATOM     39  O   UNL     1      71.964  64.249  88.175  1.00  0.00    -0.252 OA
BRANCH  38  40
ATOM     40  C   UNL     1      73.136  66.332  87.716  1.00  0.00     0.158 C 
BRANCH  40  41
ATOM     41  C   UNL     1      72.955  66.672  86.259  1.00  0.00    -0.033 A 
ATOM     42  C   UNL     1      71.675  66.710  85.705  1.00  0.00     0.054 A 
ATOM     43  C   UNL     1      74.067  66.949  85.465  1.00  0.00     0.008 A 
ATOM     44  C   UNL     1      71.508  67.025  84.356  1.00  0.00     0.160 A 
ATOM     45  C   UNL     1      73.901  67.263  84.116  1.00  0.00     0.050 A 
ATOM     46  C   UNL     1      72.622  67.301  83.561  1.00  0.00     0.157 A 
BRANCH  44  47
ATOM     47  O   UNL     1      70.254  67.059  83.827  1.00  0.00    -0.493 OA
ATOM     48  C   UNL     1      69.403  65.947  84.103  1.00  0.00     0.278 C 
ENDBRANCH  44  47
BRANCH  46  49
ATOM     49  O   UNL     1      72.471  67.611  82.244  1.00  0.00    -0.504 OA
ATOM     50  H   UNL     1      72.959  68.429  82.053  1.00  0.00     0.293 HD
ENDBRANCH  46  49
ENDBRANCH  40  41
ENDBRANCH  38  40
ENDBRANCH  37  38
ENDBRANCH   1  37
TORSDOF 11
ENDMDL
MODEL 8
REMARK VINA RESULT:    -3.830     19.529     23.411
REMARK INTER + INTRA:          -9.750
REMARK INTER:                  -8.853
REMARK INTRA:                  -0.897
REMARK UNBOUND:                -3.009
REMARK SMILES C=C(C)[C@]12C[C@@H](C)[C@@]34O[C@](Cc5ccccc5)(O[C@@H]1[C@@H]3C=C(COC(=O)Cc1ccc(O)c(OC)c1)C[C@]1(O)C(=O)C(C)=C[C@@H]41)O2
REMARK SMILES IDX 23 1 22 2 21 3 20 4 9 5 8 6 10 7 6 8 18 9 46 10 19 11 5 12
REMARK SMILES IDX 7 13 4 14 45 15 38 16 44 17 40 18 42 20 41 21 43 22 39 23
REMARK SMILES IDX 11 25 12 26 13 27 17 28 14 29 16 30 15 31 2 32 3 33 1 34
REMARK SMILES IDX 37 35 24 37 25 38 26 39 27 40 28 41 36 42 29 43 33 44 30 45
REMARK SMILES IDX 31 46 34 47 35 48 32 49
REMARK H PARENT 39 24 32 50
REMARK Flexibility Score: 90.00
ROOT
ATOM      1  C   UNL     1      94.803 100.998  74.608  1.00  0.00     0.264 C 
ENDROOT
BRANCH   1   2
ATOM      2  C   UNL     1      93.875 102.186  74.501  1.00  0.00    -0.033 C 
ATOM      3  C   UNL     1      93.678 102.764  73.299  1.00  0.00    -0.015 C 
BRANCH   3   4
ATOM      4  C   UNL     1      92.867 103.999  72.944  1.00  0.00     0.078 C 
ATOM      5  O   UNL     1      90.603 103.219  72.324  1.00  0.00    -0.319 OA
ATOM      6  C   UNL     1      91.335 104.018  73.304  1.00  0.00     0.095 C 
ATOM      7  C   UNL     1      91.005 103.405  70.954  1.00  0.00     0.289 C 
ATOM      8  C   UNL     1      90.842 105.522  73.228  1.00  0.00     0.023 C 
ATOM      9  O   UNL     1      92.392 103.123  70.780  1.00  0.00    -0.320 OA
ATOM     10  O   UNL     1      90.827 104.749  70.515  1.00  0.00    -0.313 OA
ATOM     11  C   UNL     1      92.965 104.272  71.422  1.00  0.00     0.170 C 
ATOM     12  C   UNL     1      91.606 106.318  72.125  1.00  0.00     0.049 C 
ATOM     13  C   UNL     1      89.328 105.712  73.039  1.00  0.00     0.011 C 
ATOM     14  C   UNL     1      92.025 105.415  70.964  1.00  0.00     0.122 C 
BRANCH   6  15
ATOM     15  C   UNL     1      91.078 103.299  74.660  1.00  0.00     0.086 C 
ATOM     16  C   UNL     1      92.084 103.600  75.791  1.00  0.00     0.140 CG0
ATOM     17  C   UNL     1      89.742 103.448  75.332  1.00  0.00    -0.010 C 
ATOM     18  C   UNL     1      91.210 103.550  77.027  1.00  0.00     0.190 C 
ATOM     19  G   UNL     1      93.222 102.582  75.838  1.00  0.00     0.000 G0
ATOM     20  C   UNL     1      89.781 103.564  76.664  1.00  0.00    -0.008 C 
ATOM     21  O   UNL     1      91.614 103.551  78.180  1.00  0.00    -0.291 OA
ATOM     22  C   UNL     1      88.678 103.643  77.644  1.00  0.00     0.048 C 
BRANCH  16  23
ATOM     23  O   UNL     1      92.579 104.929  75.779  1.00  0.00    -0.381 OA
ATOM     24  H   UNL     1      91.834 105.533  75.620  1.00  0.00     0.212 HD
ENDBRANCH  16  23
ENDBRANCH   6  15
BRANCH   7  25
ATOM     25  C   UNL     1      90.181 102.475  70.086  1.00  0.00     0.135 C 
BRANCH  25  26
ATOM     26  C   UNL     1      90.477 102.661  68.619  1.00  0.00    -0.040 A 
ATOM     27  C   UNL     1      91.372 101.807  67.974  1.00  0.00     0.004 A 
ATOM     28  C   UNL     1      89.856 103.686  67.906  1.00  0.00     0.004 A 
ATOM     29  C   UNL     1      91.646 101.978  66.617  1.00  0.00     0.000 A 
ATOM     30  C   UNL     1      90.129 103.858  66.548  1.00  0.00     0.000 A 
ATOM     31  C   UNL     1      91.025 103.003  65.905  1.00  0.00     0.000 A 
ENDBRANCH  25  26
ENDBRANCH   7  25
BRANCH  14  32
ATOM     32  C   UNL     1      92.595 106.184  69.816  1.00  0.00    -0.046 C 
ATOM     33  C   UNL     1      94.088 106.162  69.681  1.00  0.00     0.042 C 
ATOM     34  C   UNL     1      91.815 106.855  68.955  1.00  0.00     0.010 C 
ENDBRANCH  14  32
ENDBRANCH   3   4
BRANCH   2  35
ATOM     35  C   UNL     1      93.256 102.578  75.830  1.00  0.00     0.078 CG0
ATOM     36  G   UNL     1      92.090 103.565  75.794  1.00  0.00     0.000 G0
ENDBRANCH   2  35
ENDBRANCH   1   2
BRANCH   1  37
ATOM     37  O   UNL     1      94.049  99.841  74.898  1.00  0.00    -0.461 OA
BRANCH  37  38
ATOM     38  C   UNL     1      94.542  99.027  75.891  1.00  0.00     0.310 C 
ATOM     39  O   UNL     1      94.925  99.411  76.988  1.00  0.00    -0.252 OA
BRANCH  38  40
ATOM     40  C   UNL     1      94.536  97.593  75.418  1.00  0.00     0.158 C 
BRANCH  40  41
ATOM     41  C   UNL     1      93.866  96.656  76.389  1.00  0.00    -0.033 A 
ATOM     42  C   UNL     1      94.629  95.963  77.330  1.00  0.00     0.054 A 
ATOM     43  C   UNL     1      92.483  96.481  76.348  1.00  0.00     0.008 A 
ATOM     44  C   UNL     1      94.008  95.096  78.229  1.00  0.00     0.160 A 
ATOM     45  C   UNL     1      91.862  95.613  77.247  1.00  0.00     0.050 A 
ATOM     46  C   UNL     1      92.624  94.921  78.187  1.00  0.00     0.157 A 
BRANCH  44  47
ATOM     47  O   UNL     1      94.764  94.425  79.143  1.00  0.00    -0.493 OA
ATOM     48  C   UNL     1      96.043  94.974  79.454  1.00  0.00     0.278 C 
ENDBRANCH  44  47
BRANCH  46  49
ATOM     49  O   UNL     1      92.007  94.077  79.061  1.00  0.00    -0.504 OA
ATOM     50  H   UNL     1      91.500  94.602  79.703  1.00  0.00     0.293 HD
ENDBRANCH  46  49
ENDBRANCH  40  41
ENDBRANCH  38  40
ENDBRANCH  37  38
ENDBRANCH   1  37
TORSDOF 11
ENDMDL
MODEL 9
REMARK VINA RESULT:    -3.808     20.077     23.717
REMARK INTER + INTRA:          -9.711
REMARK INTER:                  -8.701
REMARK INTRA:                  -1.009
REMARK UNBOUND:                -3.009
REMARK SMILES C=C(C)[C@]12C[C@@H](C)[C@@]34O[C@](Cc5ccccc5)(O[C@@H]1[C@@H]3C=C(COC(=O)Cc1ccc(O)c(OC)c1)C[C@]1(O)C(=O)C(C)=C[C@@H]41)O2
REMARK SMILES IDX 23 1 22 2 21 3 20 4 9 5 8 6 10 7 6 8 18 9 46 10 19 11 5 12
REMARK SMILES IDX 7 13 4 14 45 15 38 16 44 17 40 18 42 20 41 21 43 22 39 23
REMARK SMILES IDX 11 25 12 26 13 27 17 28 14 29 16 30 15 31 2 32 3 33 1 34
REMARK SMILES IDX 37 35 24 37 25 38 26 39 27 40 28 41 36 42 29 43 33 44 30 45
REMARK SMILES IDX 31 46 34 47 35 48 32 49
REMARK H PARENT 39 24 32 50
REMARK Flexibility Score: 90.00
ROOT
ATOM      1  C   UNL     1      92.822  96.092  92.930  1.00  0.00     0.264 C 
ENDROOT
BRANCH   1   2
ATOM      2  C   UNL     1      93.878  97.113  92.578  1.00  0.00    -0.033 C 
ATOM      3  C   UNL     1      93.990  97.534  91.302  1.00  0.00    -0.015 C 
BRANCH   3   4
ATOM      4  C   UNL     1      95.005  98.482  90.685  1.00  0.00     0.078 C 
ATOM      5  O   UNL     1      94.019 100.749  90.773  1.00  0.00    -0.319 OA
ATOM      6  C   UNL     1      95.125  99.937  91.274  1.00  0.00     0.095 C 
ATOM      7  C   UNL     1      93.712 100.579  89.376  1.00  0.00     0.289 C 
ATOM      8  C   UNL     1      96.496 100.548  90.765  1.00  0.00     0.023 C 
ATOM      9  O   UNL     1      93.410  99.219  89.076  1.00  0.00    -0.320 OA
ATOM     10  O   UNL     1      94.809 100.924  88.535  1.00  0.00    -0.313 OA
ATOM     11  C   UNL     1      94.721  98.642  89.170  1.00  0.00     0.170 C 
ATOM     12  C   UNL     1      96.860 100.027  89.341  1.00  0.00     0.049 C 
ATOM     13  C   UNL     1      96.582 102.083  90.785  1.00  0.00     0.011 C 
ATOM     14  C   UNL     1      95.611  99.726  88.512  1.00  0.00     0.122 C 
BRANCH   6  15
ATOM     15  C   UNL     1      94.931  99.925  92.818  1.00  0.00     0.086 C 
ATOM     16  C   UNL     1      95.635  98.786  93.583  1.00  0.00     0.140 CG0
ATOM     17  C   UNL     1      95.282 101.150  93.614  1.00  0.00    -0.010 C 
ATOM     18  C   UNL     1      96.011  99.453  94.889  1.00  0.00     0.190 C 
ATOM     19  G   UNL     1      94.723  97.576  93.785  1.00  0.00     0.000 G0
ATOM     20  C   UNL     1      95.865 100.918  94.795  1.00  0.00    -0.008 C 
ATOM     21  O   UNL     1      96.429  98.880  95.883  1.00  0.00    -0.291 OA
ATOM     22  C   UNL     1      96.266 101.860  95.860  1.00  0.00     0.048 C 
BRANCH  16  23
ATOM     23  O   UNL     1      96.883  98.406  93.026  1.00  0.00    -0.381 OA
ATOM     24  H   UNL     1      96.844  97.461  92.802  1.00  0.00     0.212 HD
ENDBRANCH  16  23
ENDBRANCH   6  15
BRANCH   7  25
ATOM     25  C   UNL     1      92.522 101.454  89.040  1.00  0.00     0.135 C 
BRANCH  25  26
ATOM     26  C   UNL     1      92.824 102.412  87.915  1.00  0.00    -0.040 A 
ATOM     27  C   UNL     1      93.388 103.658  88.193  1.00  0.00     0.004 A 
ATOM     28  C   UNL     1      92.541 102.053  86.598  1.00  0.00     0.004 A 
ATOM     29  C   UNL     1      93.668 104.544  87.153  1.00  0.00     0.000 A 
ATOM     30  C   UNL     1      92.821 102.940  85.557  1.00  0.00     0.000 A 
ATOM     31  C   UNL     1      93.385 104.185  85.836  1.00  0.00     0.000 A 
ENDBRANCH  25  26
ENDBRANCH   7  25
BRANCH  14  32
ATOM     32  C   UNL     1      95.931  99.401  87.089  1.00  0.00    -0.046 C 
ATOM     33  C   UNL     1      96.400  98.002  86.819  1.00  0.00     0.042 C 
ATOM     34  C   UNL     1      95.805 100.308  86.109  1.00  0.00     0.010 C 
ENDBRANCH  14  32
ENDBRANCH   3   4
BRANCH   2  35
ATOM     35  C   UNL     1      94.703  97.551  93.774  1.00  0.00     0.078 CG0
ATOM     36  G   UNL     1      95.634  98.747  93.580  1.00  0.00     0.000 G0
ENDBRANCH   2  35
ENDBRANCH   1   2
BRANCH   1  37
ATOM     37  O   UNL     1      93.128  94.867  92.299  1.00  0.00    -0.461 OA
BRANCH  37  38
ATOM     38  C   UNL     1      92.400  93.774  92.706  1.00  0.00     0.310 C 
ATOM     39  O   UNL     1      92.178  93.471  93.870  1.00  0.00    -0.252 OA
BRANCH  38  40
ATOM     40  C   UNL     1      91.919  93.008  91.496  1.00  0.00     0.158 C 
BRANCH  40  41
ATOM     41  C   UNL     1      92.865  91.911  91.080  1.00  0.00    -0.033 A 
ATOM     42  C   UNL     1      92.608  90.591  91.452  1.00  0.00     0.054 A 
ATOM     43  C   UNL     1      93.997  92.214  90.324  1.00  0.00     0.008 A 
ATOM     44  C   UNL     1      93.483  89.575  91.068  1.00  0.00     0.160 A 
ATOM     45  C   UNL     1      94.872  91.198  89.940  1.00  0.00     0.050 A 
ATOM     46  C   UNL     1      94.616  89.879  90.311  1.00  0.00     0.157 A 
BRANCH  44  47
ATOM     47  O   UNL     1      93.222  88.290  91.437  1.00  0.00    -0.493 OA
ATOM     48  C   UNL     1      93.634  87.895  92.745  1.00  0.00     0.278 C 
ENDBRANCH  44  47
BRANCH  46  49
ATOM     49  O   UNL     1      95.477  88.895  89.929  1.00  0.00    -0.504 OA
ATOM     50  H   UNL     1      96.218  88.862  90.557  1.00  0.00     0.293 HD
ENDBRANCH  46  49
ENDBRANCH  40  41
ENDBRANCH  38  40
ENDBRANCH  37  38
ENDBRANCH   1  37
TORSDOF 11
ENDMDL
MODEL 10
REMARK VINA RESULT:    -3.765     27.609     31.062
REMARK INTER + INTRA:          -9.634
REMARK INTER:                  -7.415
REMARK INTRA:                  -2.219
REMARK UNBOUND:                -3.009
REMARK SMILES C=C(C)[C@]12C[C@@H](C)[C@@]34O[C@](Cc5ccccc5)(O[C@@H]1[C@@H]3C=C(COC(=O)Cc1ccc(O)c(OC)c1)C[C@]1(O)C(=O)C(C)=C[C@@H]41)O2
REMARK SMILES IDX 23 1 22 2 21 3 20 4 9 5 8 6 10 7 6 8 18 9 46 10 19 11 5 12
REMARK SMILES IDX 7 13 4 14 45 15 38 16 44 17 40 18 42 20 41 21 43 22 39 23
REMARK SMILES IDX 11 25 12 26 13 27 17 28 14 29 16 30 15 31 2 32 3 33 1 34
REMARK SMILES IDX 37 35 24 37 25 38 26 39 27 40 28 41 36 42 29 43 33 44 30 45
REMARK SMILES IDX 31 46 34 47 35 48 32 49
REMARK H PARENT 39 24 32 50
REMARK Flexibility Score: 90.00
ROOT
ATOM      1  C   UNL     1      76.922  67.950  90.878  1.00  0.00     0.264 C 
ENDROOT
BRANCH   1   2
ATOM      2  C   UNL     1      75.749  68.843  90.547  1.00  0.00    -0.033 C 
ATOM      3  C   UNL     1      75.710  70.093  91.050  1.00  0.00    -0.015 C 
BRANCH   3   4
ATOM      4  C   UNL     1      74.620  71.147  90.932  1.00  0.00     0.078 C 
ATOM      5  O   UNL     1      75.159  72.521  88.947  1.00  0.00    -0.319 OA
ATOM      6  C   UNL     1      74.167  71.598  89.493  1.00  0.00     0.095 C 
ATOM      7  C   UNL     1      75.656  73.509  89.870  1.00  0.00     0.289 C 
ATOM      8  C   UNL     1      72.779  72.347  89.640  1.00  0.00     0.023 C 
ATOM      9  O   UNL     1      76.235  72.896  91.020  1.00  0.00    -0.320 OA
ATOM     10  O   UNL     1      74.623  74.356  90.364  1.00  0.00    -0.313 OA
ATOM     11  C   UNL     1      75.048  72.432  91.682  1.00  0.00     0.170 C 
ATOM     12  C   UNL     1      72.688  73.121  90.991  1.00  0.00     0.049 C 
ATOM     13  C   UNL     1      72.413  73.292  88.484  1.00  0.00     0.011 C 
ATOM     14  C   UNL     1      74.061  73.605  91.460  1.00  0.00     0.122 C 
BRANCH   6  15
ATOM     15  C   UNL     1      74.176  70.392  88.509  1.00  0.00     0.086 C 
ATOM     16  C   UNL     1      73.619  69.062  89.058  1.00  0.00     0.140 CG0
ATOM     17  C   UNL     1      73.501  70.528  87.173  1.00  0.00    -0.010 C 
ATOM     18  C   UNL     1      72.969  68.451  87.835  1.00  0.00     0.190 C 
ATOM     19  G   UNL     1      74.718  68.175  89.642  1.00  0.00     0.000 G0
ATOM     20  C   UNL     1      72.838  69.445  86.753  1.00  0.00    -0.008 C 
ATOM     21  O   UNL     1      72.554  67.305  87.752  1.00  0.00    -0.291 OA
ATOM     22  C   UNL     1      72.138  69.193  85.477  1.00  0.00     0.048 C 
BRANCH  16  23
ATOM     23  O   UNL     1      72.545  69.222  89.969  1.00  0.00    -0.381 OA
ATOM     24  H   UNL     1      71.717  69.269  89.462  1.00  0.00     0.212 HD
ENDBRANCH  16  23
ENDBRANCH   6  15
BRANCH   7  25
ATOM     25  C   UNL     1      76.699  74.345  89.156  1.00  0.00     0.135 C 
BRANCH  25  26
ATOM     26  C   UNL     1      77.843  74.719  90.065  1.00  0.00    -0.040 A 
ATOM     27  C   UNL     1      79.082  74.096  89.920  1.00  0.00     0.004 A 
ATOM     28  C   UNL     1      77.663  75.690  91.051  1.00  0.00     0.004 A 
ATOM     29  C   UNL     1      80.141  74.442  90.760  1.00  0.00     0.000 A 
ATOM     30  C   UNL     1      78.721  76.036  91.891  1.00  0.00     0.000 A 
ATOM     31  C   UNL     1      79.960  75.411  91.746  1.00  0.00     0.000 A 
ENDBRANCH  25  26
ENDBRANCH   7  25
BRANCH  14  32
ATOM     32  C   UNL     1      73.978  74.502  92.652  1.00  0.00    -0.046 C 
ATOM     33  C   UNL     1      73.575  73.853  93.942  1.00  0.00     0.042 C 
ATOM     34  C   UNL     1      74.248  75.814  92.573  1.00  0.00     0.010 C 
ENDBRANCH  14  32
ENDBRANCH   3   4
BRANCH   2  35
ATOM     35  C   UNL     1      74.730  68.175  89.643  1.00  0.00     0.078 CG0
ATOM     36  G   UNL     1      73.631  69.060  89.055  1.00  0.00     0.000 G0
ENDBRANCH   2  35
ENDBRANCH   1   2
BRANCH   1  37
ATOM     37  O   UNL     1      77.976  68.211  89.976  1.00  0.00    -0.461 OA
BRANCH  37  38
ATOM     38  C   UNL     1      78.969  69.050  90.427  1.00  0.00     0.310 C 
ATOM     39  O   UNL     1      79.597  68.900  91.466  1.00  0.00    -0.252 OA
BRANCH  38  40
ATOM     40  C   UNL     1      79.160  70.179  89.442  1.00  0.00     0.158 C 
BRANCH  40  41
ATOM     41  C   UNL     1      78.743  69.814  88.040  1.00  0.00    -0.033 A 
ATOM     42  C   UNL     1      79.511  68.918  87.296  1.00  0.00     0.054 A 
ATOM     43  C   UNL     1      77.590  70.371  87.488  1.00  0.00     0.008 A 
ATOM     44  C   UNL     1      79.126  68.580  85.998  1.00  0.00     0.160 A 
ATOM     45  C   UNL     1      77.205  70.034  86.191  1.00  0.00     0.050 A 
ATOM     46  C   UNL     1      77.972  69.139  85.446  1.00  0.00     0.157 A 
BRANCH  44  47
ATOM     47  O   UNL     1      79.883  67.705  85.281  1.00  0.00    -0.493 OA
ATOM     48  C   UNL     1      79.501  66.331  85.322  1.00  0.00     0.278 C 
ENDBRANCH  44  47
BRANCH  46  49
ATOM     49  O   UNL     1      77.585  68.815  84.180  1.00  0.00    -0.504 OA
ATOM     50  H   UNL     1      77.213  67.918  84.183  1.00  0.00     0.293 HD
ENDBRANCH  46  49
ENDBRANCH  40  41
ENDBRANCH  38  40
ENDBRANCH  37  38
ENDBRANCH   1  37
TORSDOF 11
ENDMDL
