MODEL 1
REMARK VINA RESULT:    -5.954      0.000      0.000
REMARK INTER + INTRA:          -9.972
REMARK INTER:                  -9.261
REMARK INTRA:                  -0.711
REMARK UNBOUND:                -0.711
REMARK SMILES COc1cc(CNC(=O)CCCCCC(C)C)ccc1O
REMARK SMILES IDX 10 1 8 2 7 3 9 5 6 6 5 7 3 8 20 9 4 10 19 11 18 12 2 13 1 14
REMARK SMILES IDX 21 15 11 17 12 18 13 19 14 20 15 21 16 22 17 23
REMARK H PARENT 7 4 21 16
REMARK Flexibility Score: inf
ROOT
ATOM      1  C   UNL     1      92.853  95.045  77.524  1.00  0.00     0.100 C 
ENDROOT
BRANCH   1   2
ATOM      2  C   UNL     1      93.796  94.768  76.420  1.00  0.00     0.220 C 
ATOM      3  N   UNL     1      94.133  95.771  75.560  1.00  0.00    -0.352 N 
ATOM      4  H   UNL     1      93.597  96.620  75.666  1.00  0.00     0.163 HD
ATOM      5  O   UNL     1      94.302  93.623  76.324  1.00  0.00    -0.275 OA
BRANCH   3   6
ATOM      6  C   UNL     1      95.155  95.691  74.566  1.00  0.00     0.151 C 
BRANCH   6   7
ATOM      7  C   UNL     1      95.049  96.757  73.533  1.00  0.00    -0.025 A 
ATOM      8  C   UNL     1      94.047  98.854  72.728  1.00  0.00     0.160 A 
ATOM      9  C   UNL     1      94.896  98.823  71.601  1.00  0.00     0.157 A 
ATOM     10  C   UNL     1      94.116  97.812  73.677  1.00  0.00     0.056 A 
ATOM     11  C   UNL     1      95.808  97.766  71.434  1.00  0.00     0.050 A 
ATOM     12  C   UNL     1      95.889  96.744  72.395  1.00  0.00     0.009 A 
BRANCH   8  13
ATOM     13  O   UNL     1      93.138  99.864  72.899  1.00  0.00    -0.493 OA
ATOM     14  C   UNL     1      93.625 100.956  73.702  1.00  0.00     0.278 C 
ENDBRANCH   8  13
BRANCH   9  15
ATOM     15  O   UNL     1      94.836  99.819  70.681  1.00  0.00    -0.504 OA
ATOM     16  H   UNL     1      93.920 100.066  70.535  1.00  0.00     0.293 HD
ENDBRANCH   9  15
ENDBRANCH   6   7
ENDBRANCH   3   6
ENDBRANCH   1   2
BRANCH   1  17
ATOM     17  C   UNL     1      91.356  94.923  77.129  1.00  0.00     0.010 C 
BRANCH  17  18
ATOM     18  C   UNL     1      90.844  93.463  77.273  1.00  0.00     0.001 C 
BRANCH  18  19
ATOM     19  C   UNL     1      90.376  92.840  75.932  1.00  0.00     0.000 C 
BRANCH  19  20
ATOM     20  C   UNL     1      91.371  91.767  75.402  1.00  0.00     0.003 C 
BRANCH  20  21
ATOM     21  C   UNL     1      90.802  90.833  74.285  1.00  0.00    -0.017 C 
ATOM     22  C   UNL     1      89.345  91.236  73.912  1.00  0.00     0.007 C 
ATOM     23  C   UNL     1      90.856  89.326  74.672  1.00  0.00     0.007 C 
ENDBRANCH  20  21
ENDBRANCH  19  20
ENDBRANCH  18  19
ENDBRANCH  17  18
ENDBRANCH   1  17
TORSDOF 10
ENDMDL
MODEL 2
REMARK VINA RESULT:    -5.936     14.089     16.911
REMARK INTER + INTRA:          -9.944
REMARK INTER:                  -9.144
REMARK INTRA:                  -0.800
REMARK UNBOUND:                -0.711
REMARK SMILES COc1cc(CNC(=O)CCCCCC(C)C)ccc1O
REMARK SMILES IDX 10 1 8 2 7 3 9 5 6 6 5 7 3 8 20 9 4 10 19 11 18 12 2 13 1 14
REMARK SMILES IDX 21 15 11 17 12 18 13 19 14 20 15 21 16 22 17 23
REMARK H PARENT 7 4 21 16
REMARK Flexibility Score: inf
ROOT
ATOM      1  C   UNL     1      96.753  80.968  76.501  1.00  0.00     0.100 C 
ENDROOT
BRANCH   1   2
ATOM      2  C   UNL     1      97.234  80.156  77.637  1.00  0.00     0.220 C 
ATOM      3  N   UNL     1      97.584  80.774  78.801  1.00  0.00    -0.352 N 
ATOM      4  H   UNL     1      97.612  81.782  78.755  1.00  0.00     0.163 HD
ATOM      5  O   UNL     1      97.271  78.907  77.521  1.00  0.00    -0.275 OA
BRANCH   3   6
ATOM      6  C   UNL     1      97.897  80.106  80.024  1.00  0.00     0.151 C 
BRANCH   6   7
ATOM      7  C   UNL     1      97.562  80.909  81.230  1.00  0.00    -0.025 A 
ATOM      8  C   UNL     1      97.803  81.340  83.639  1.00  0.00     0.160 A 
ATOM      9  C   UNL     1      96.978  82.478  83.516  1.00  0.00     0.157 A 
ATOM     10  C   UNL     1      98.075  80.553  82.500  1.00  0.00     0.056 A 
ATOM     11  C   UNL     1      96.441  82.826  82.263  1.00  0.00     0.050 A 
ATOM     12  C   UNL     1      96.735  82.052  81.128  1.00  0.00     0.009 A 
BRANCH   8  13
ATOM     13  O   UNL     1      98.320  80.973  84.854  1.00  0.00    -0.493 OA
ATOM     14  C   UNL     1      99.512  80.170  84.760  1.00  0.00     0.278 C 
ENDBRANCH   8  13
BRANCH   9  15
ATOM     15  O   UNL     1      96.708  83.241  84.605  1.00  0.00    -0.504 OA
ATOM     16  H   UNL     1      96.059  83.909  84.376  1.00  0.00     0.293 HD
ENDBRANCH   9  15
ENDBRANCH   6   7
ENDBRANCH   3   6
ENDBRANCH   1   2
BRANCH   1  17
ATOM     17  C   UNL     1      96.423  82.441  76.863  1.00  0.00     0.010 C 
BRANCH  17  18
ATOM     18  C   UNL     1      95.917  83.236  75.627  1.00  0.00     0.001 C 
BRANCH  18  19
ATOM     19  C   UNL     1      96.644  82.855  74.311  1.00  0.00     0.000 C 
BRANCH  19  20
ATOM     20  C   UNL     1      98.034  83.543  74.186  1.00  0.00     0.003 C 
BRANCH  20  21
ATOM     21  C   UNL     1      99.151  82.663  73.535  1.00  0.00    -0.017 C 
ATOM     22  C   UNL     1     100.296  82.377  74.550  1.00  0.00     0.007 C 
ATOM     23  C   UNL     1      99.734  83.291  72.235  1.00  0.00     0.007 C 
ENDBRANCH  20  21
ENDBRANCH  19  20
ENDBRANCH  18  19
ENDBRANCH  17  18
ENDBRANCH   1  17
TORSDOF 10
ENDMDL
MODEL 3
REMARK VINA RESULT:    -5.874     13.804     16.703
REMARK INTER + INTRA:          -9.848
REMARK INTER:                  -9.079
REMARK INTRA:                  -0.769
REMARK UNBOUND:                -0.711
REMARK SMILES COc1cc(CNC(=O)CCCCCC(C)C)ccc1O
REMARK SMILES IDX 10 1 8 2 7 3 9 5 6 6 5 7 3 8 20 9 4 10 19 11 18 12 2 13 1 14
REMARK SMILES IDX 21 15 11 17 12 18 13 19 14 20 15 21 16 22 17 23
REMARK H PARENT 7 4 21 16
REMARK Flexibility Score: inf
ROOT
ATOM      1  C   UNL     1      97.724  80.623  78.017  1.00  0.00     0.100 C 
ENDROOT
BRANCH   1   2
ATOM      2  C   UNL     1      97.704  80.085  79.393  1.00  0.00     0.220 C 
ATOM      3  N   UNL     1      97.109  80.805  80.385  1.00  0.00    -0.352 N 
ATOM      4  H   UNL     1      96.832  81.741  80.123  1.00  0.00     0.163 HD
ATOM      5  O   UNL     1      98.200  78.952  79.611  1.00  0.00    -0.275 OA
BRANCH   3   6
ATOM      6  C   UNL     1      96.866  80.334  81.710  1.00  0.00     0.151 C 
BRANCH   6   7
ATOM      7  C   UNL     1      96.275  81.370  82.600  1.00  0.00    -0.025 A 
ATOM      8  C   UNL     1      94.947  81.976  84.579  1.00  0.00     0.160 A 
ATOM      9  C   UNL     1      95.206  83.341  84.332  1.00  0.00     0.157 A 
ATOM     10  C   UNL     1      95.467  81.001  83.701  1.00  0.00     0.056 A 
ATOM     11  C   UNL     1      95.986  83.721  83.224  1.00  0.00     0.050 A 
ATOM     12  C   UNL     1      96.521  82.744  82.368  1.00  0.00     0.009 A 
BRANCH   8  13
ATOM     13  O   UNL     1      94.174  81.587  85.641  1.00  0.00    -0.493 OA
ATOM     14  C   UNL     1      94.931  81.240  86.816  1.00  0.00     0.278 C 
ENDBRANCH   8  13
BRANCH   9  15
ATOM     15  O   UNL     1      94.709  84.287  85.168  1.00  0.00    -0.504 OA
ATOM     16  H   UNL     1      94.323  83.863  85.938  1.00  0.00     0.293 HD
ENDBRANCH   9  15
ENDBRANCH   6   7
ENDBRANCH   3   6
ENDBRANCH   1   2
BRANCH   1  17
ATOM     17  C   UNL     1      97.234  82.091  77.898  1.00  0.00     0.010 C 
BRANCH  17  18
ATOM     18  C   UNL     1      96.039  82.218  76.913  1.00  0.00     0.001 C 
BRANCH  18  19
ATOM     19  C   UNL     1      95.953  83.605  76.224  1.00  0.00     0.000 C 
BRANCH  19  20
ATOM     20  C   UNL     1      96.245  83.524  74.698  1.00  0.00     0.003 C 
BRANCH  20  21
ATOM     21  C   UNL     1      97.379  82.526  74.295  1.00  0.00    -0.017 C 
ATOM     22  C   UNL     1      98.531  83.265  73.552  1.00  0.00     0.007 C 
ATOM     23  C   UNL     1      96.861  81.339  73.431  1.00  0.00     0.007 C 
ENDBRANCH  20  21
ENDBRANCH  19  20
ENDBRANCH  18  19
ENDBRANCH  17  18
ENDBRANCH   1  17
TORSDOF 10
ENDMDL
MODEL 4
REMARK VINA RESULT:    -5.817     12.974     16.154
REMARK INTER + INTRA:          -9.759
REMARK INTER:                  -9.005
REMARK INTRA:                  -0.754
REMARK UNBOUND:                -0.711
REMARK SMILES COc1cc(CNC(=O)CCCCCC(C)C)ccc1O
REMARK SMILES IDX 10 1 8 2 7 3 9 5 6 6 5 7 3 8 20 9 4 10 19 11 18 12 2 13 1 14
REMARK SMILES IDX 21 15 11 17 12 18 13 19 14 20 15 21 16 22 17 23
REMARK H PARENT 7 4 21 16
REMARK Flexibility Score: inf
ROOT
ATOM      1  C   UNL     1      96.562  82.670  74.173  1.00  0.00     0.100 C 
ENDROOT
BRANCH   1   2
ATOM      2  C   UNL     1      96.202  83.170  75.516  1.00  0.00     0.220 C 
ATOM      3  N   UNL     1      96.165  82.302  76.566  1.00  0.00    -0.352 N 
ATOM      4  H   UNL     1      96.263  81.329  76.316  1.00  0.00     0.163 HD
ATOM      5  O   UNL     1      95.978  84.396  75.669  1.00  0.00    -0.275 OA
BRANCH   3   6
ATOM      6  C   UNL     1      96.005  82.675  77.935  1.00  0.00     0.151 C 
BRANCH   6   7
ATOM      7  C   UNL     1      96.904  81.927  78.854  1.00  0.00    -0.025 A 
ATOM      8  C   UNL     1      97.629  81.359  81.134  1.00  0.00     0.160 A 
ATOM      9  C   UNL     1      98.571  80.451  80.606  1.00  0.00     0.157 A 
ATOM     10  C   UNL     1      96.814  82.104  80.255  1.00  0.00     0.056 A 
ATOM     11  C   UNL     1      98.687  80.286  79.214  1.00  0.00     0.050 A 
ATOM     12  C   UNL     1      97.856  81.014  78.344  1.00  0.00     0.009 A 
BRANCH   8  13
ATOM     13  O   UNL     1      97.514  81.548  82.486  1.00  0.00    -0.493 OA
ATOM     14  C   UNL     1      96.872  82.786  82.848  1.00  0.00     0.278 C 
ENDBRANCH   8  13
BRANCH   9  15
ATOM     15  O   UNL     1      99.360  79.731  81.442  1.00  0.00    -0.504 OA
ATOM     16  H   UNL     1     100.014  79.250  80.931  1.00  0.00     0.293 HD
ENDBRANCH   9  15
ENDBRANCH   6   7
ENDBRANCH   3   6
ENDBRANCH   1   2
BRANCH   1  17
ATOM     17  C   UNL     1      97.876  81.845  74.130  1.00  0.00     0.010 C 
BRANCH  17  18
ATOM     18  C   UNL     1      98.858  82.386  73.055  1.00  0.00     0.001 C 
BRANCH  18  19
ATOM     19  C   UNL     1      99.533  83.725  73.454  1.00  0.00     0.000 C 
BRANCH  19  20
ATOM     20  C   UNL     1      99.792  84.643  72.225  1.00  0.00     0.003 C 
BRANCH  20  21
ATOM     21  C   UNL     1     101.248  84.589  71.656  1.00  0.00    -0.017 C 
ATOM     22  C   UNL     1     101.324  83.652  70.414  1.00  0.00     0.007 C 
ATOM     23  C   UNL     1     102.296  84.152  72.719  1.00  0.00     0.007 C 
ENDBRANCH  20  21
ENDBRANCH  19  20
ENDBRANCH  18  19
ENDBRANCH  17  18
ENDBRANCH   1  17
TORSDOF 10
ENDMDL
MODEL 5
REMARK VINA RESULT:    -5.708     13.617     15.987
REMARK INTER + INTRA:          -9.589
REMARK INTER:                  -9.060
REMARK INTRA:                  -0.529
REMARK UNBOUND:                -0.711
REMARK SMILES COc1cc(CNC(=O)CCCCCC(C)C)ccc1O
REMARK SMILES IDX 10 1 8 2 7 3 9 5 6 6 5 7 3 8 20 9 4 10 19 11 18 12 2 13 1 14
REMARK SMILES IDX 21 15 11 17 12 18 13 19 14 20 15 21 16 22 17 23
REMARK H PARENT 7 4 21 16
REMARK Flexibility Score: inf
ROOT
ATOM      1  C   UNL     1      96.978  78.879  81.582  1.00  0.00     0.100 C 
ENDROOT
BRANCH   1   2
ATOM      2  C   UNL     1      97.981  79.639  80.808  1.00  0.00     0.220 C 
ATOM      3  N   UNL     1      97.688  80.032  79.536  1.00  0.00    -0.352 N 
ATOM      4  H   UNL     1      96.832  79.651  79.160  1.00  0.00     0.163 HD
ATOM      5  O   UNL     1      99.069  79.943  81.355  1.00  0.00    -0.275 OA
BRANCH   3   6
ATOM      6  C   UNL     1      98.487  80.911  78.743  1.00  0.00     0.151 C 
BRANCH   6   7
ATOM      7  C   UNL     1      97.695  81.676  77.742  1.00  0.00    -0.025 A 
ATOM      8  C   UNL     1      97.389  82.505  75.447  1.00  0.00     0.160 A 
ATOM      9  C   UNL     1      96.155  83.077  75.821  1.00  0.00     0.157 A 
ATOM     10  C   UNL     1      98.160  81.824  76.414  1.00  0.00     0.056 A 
ATOM     11  C   UNL     1      95.696  82.959  77.146  1.00  0.00     0.050 A 
ATOM     12  C   UNL     1      96.457  82.259  78.098  1.00  0.00     0.009 A 
BRANCH   8  13
ATOM     13  O   UNL     1      97.864  82.625  74.168  1.00  0.00    -0.493 OA
ATOM     14  C   UNL     1      99.272  82.919  74.095  1.00  0.00     0.278 C 
ENDBRANCH   8  13
BRANCH   9  15
ATOM     15  O   UNL     1      95.407  83.735  74.900  1.00  0.00    -0.504 OA
ATOM     16  H   UNL     1      94.904  84.428  75.332  1.00  0.00     0.293 HD
ENDBRANCH   9  15
ENDBRANCH   6   7
ENDBRANCH   3   6
ENDBRANCH   1   2
BRANCH   1  17
ATOM     17  C   UNL     1      96.550  79.557  82.912  1.00  0.00     0.010 C 
BRANCH  17  18
ATOM     18  C   UNL     1      96.043  81.007  82.677  1.00  0.00     0.001 C 
BRANCH  18  19
ATOM     19  C   UNL     1      95.154  81.543  83.831  1.00  0.00     0.000 C 
BRANCH  19  20
ATOM     20  C   UNL     1      95.796  82.766  84.548  1.00  0.00     0.003 C 
BRANCH  20  21
ATOM     21  C   UNL     1      94.860  83.505  85.559  1.00  0.00    -0.017 C 
ATOM     22  C   UNL     1      94.974  85.049  85.395  1.00  0.00     0.007 C 
ATOM     23  C   UNL     1      95.130  83.104  87.038  1.00  0.00     0.007 C 
ENDBRANCH  20  21
ENDBRANCH  19  20
ENDBRANCH  18  19
ENDBRANCH  17  18
ENDBRANCH   1  17
TORSDOF 10
ENDMDL
MODEL 6
REMARK VINA RESULT:    -5.556     21.822     26.146
REMARK INTER + INTRA:          -9.352
REMARK INTER:                  -8.393
REMARK INTRA:                  -0.960
REMARK UNBOUND:                -0.711
REMARK SMILES COc1cc(CNC(=O)CCCCCC(C)C)ccc1O
REMARK SMILES IDX 10 1 8 2 7 3 9 5 6 6 5 7 3 8 20 9 4 10 19 11 18 12 2 13 1 14
REMARK SMILES IDX 21 15 11 17 12 18 13 19 14 20 15 21 16 22 17 23
REMARK H PARENT 7 4 21 16
REMARK Flexibility Score: inf
ROOT
ATOM      1  C   UNL     1      75.097  81.955  65.623  1.00  0.00     0.100 C 
ENDROOT
BRANCH   1   2
ATOM      2  C   UNL     1      74.001  81.545  64.720  1.00  0.00     0.220 C 
ATOM      3  N   UNL     1      72.827  81.100  65.252  1.00  0.00    -0.352 N 
ATOM      4  H   UNL     1      72.841  80.957  66.251  1.00  0.00     0.163 HD
ATOM      5  O   UNL     1      74.160  81.655  63.480  1.00  0.00    -0.275 OA
BRANCH   3   6
ATOM      6  C   UNL     1      71.636  80.838  64.509  1.00  0.00     0.151 C 
BRANCH   6   7
ATOM      7  C   UNL     1      70.599  81.891  64.679  1.00  0.00    -0.025 A 
ATOM      8  C   UNL     1      69.645  83.757  65.965  1.00  0.00     0.160 A 
ATOM      9  C   UNL     1      68.663  83.940  64.968  1.00  0.00     0.157 A 
ATOM     10  C   UNL     1      70.595  82.723  65.823  1.00  0.00     0.056 A 
ATOM     11  C   UNL     1      68.642  83.101  63.839  1.00  0.00     0.050 A 
ATOM     12  C   UNL     1      69.605  82.089  63.692  1.00  0.00     0.009 A 
BRANCH   8  13
ATOM     13  O   UNL     1      69.671  84.551  67.082  1.00  0.00    -0.493 OA
ATOM     14  C   UNL     1      69.010  83.971  68.223  1.00  0.00     0.278 C 
ENDBRANCH   8  13
BRANCH   9  15
ATOM     15  O   UNL     1      67.744  84.930  65.096  1.00  0.00    -0.504 OA
ATOM     16  H   UNL     1      67.536  85.286  64.230  1.00  0.00     0.293 HD
ENDBRANCH   9  15
ENDBRANCH   6   7
ENDBRANCH   3   6
ENDBRANCH   1   2
BRANCH   1  17
ATOM     17  C   UNL     1      75.258  83.491  65.774  1.00  0.00     0.010 C 
BRANCH  17  18
ATOM     18  C   UNL     1      76.730  83.938  65.552  1.00  0.00     0.001 C 
BRANCH  18  19
ATOM     19  C   UNL     1      77.442  84.384  66.857  1.00  0.00     0.000 C 
BRANCH  19  20
ATOM     20  C   UNL     1      76.507  84.291  68.098  1.00  0.00     0.003 C 
BRANCH  20  21
ATOM     21  C   UNL     1      76.263  85.644  68.843  1.00  0.00    -0.017 C 
ATOM     22  C   UNL     1      74.743  85.882  69.079  1.00  0.00     0.007 C 
ATOM     23  C   UNL     1      76.885  86.863  68.101  1.00  0.00     0.007 C 
ENDBRANCH  20  21
ENDBRANCH  19  20
ENDBRANCH  18  19
ENDBRANCH  17  18
ENDBRANCH   1  17
TORSDOF 10
ENDMDL
MODEL 7
REMARK VINA RESULT:    -5.512      5.783      7.821
REMARK INTER + INTRA:          -9.285
REMARK INTER:                  -8.538
REMARK INTRA:                  -0.747
REMARK UNBOUND:                -0.711
REMARK SMILES COc1cc(CNC(=O)CCCCCC(C)C)ccc1O
REMARK SMILES IDX 10 1 8 2 7 3 9 5 6 6 5 7 3 8 20 9 4 10 19 11 18 12 2 13 1 14
REMARK SMILES IDX 21 15 11 17 12 18 13 19 14 20 15 21 16 22 17 23
REMARK H PARENT 7 4 21 16
REMARK Flexibility Score: inf
ROOT
ATOM      1  C   UNL     1      95.644  92.663  78.666  1.00  0.00     0.100 C 
ENDROOT
BRANCH   1   2
ATOM      2  C   UNL     1      95.995  92.951  80.072  1.00  0.00     0.220 C 
ATOM      3  N   UNL     1      97.115  93.678  80.346  1.00  0.00    -0.352 N 
ATOM      4  H   UNL     1      97.709  93.860  79.550  1.00  0.00     0.163 HD
ATOM      5  O   UNL     1      95.230  92.555  80.984  1.00  0.00    -0.275 OA
BRANCH   3   6
ATOM      6  C   UNL     1      97.477  94.173  81.636  1.00  0.00     0.151 C 
BRANCH   6   7
ATOM      7  C   UNL     1      97.464  95.659  81.716  1.00  0.00    -0.025 A 
ATOM      8  C   UNL     1      98.266  97.747  82.738  1.00  0.00     0.160 A 
ATOM      9  C   UNL     1      97.490  98.490  81.824  1.00  0.00     0.157 A 
ATOM     10  C   UNL     1      98.234  96.337  82.690  1.00  0.00     0.056 A 
ATOM     11  C   UNL     1      96.700  97.826  80.867  1.00  0.00     0.050 A 
ATOM     12  C   UNL     1      96.691  96.422  80.810  1.00  0.00     0.009 A 
BRANCH   8  13
ATOM     13  O   UNL     1      99.027  98.374  83.690  1.00  0.00    -0.493 OA
ATOM     14  C   UNL     1     100.278  97.714  83.962  1.00  0.00     0.278 C 
ENDBRANCH   8  13
BRANCH   9  15
ATOM     15  O   UNL     1      97.512  99.846  81.862  1.00  0.00    -0.504 OA
ATOM     16  H   UNL     1      98.247 100.139  82.405  1.00  0.00     0.293 HD
ENDBRANCH   9  15
ENDBRANCH   6   7
ENDBRANCH   3   6
ENDBRANCH   1   2
BRANCH   1  17
ATOM     17  C   UNL     1      95.783  93.879  77.711  1.00  0.00     0.010 C 
BRANCH  17  18
ATOM     18  C   UNL     1      94.450  94.183  76.973  1.00  0.00     0.001 C 
BRANCH  18  19
ATOM     19  C   UNL     1      93.286  94.552  77.931  1.00  0.00     0.000 C 
BRANCH  19  20
ATOM     20  C   UNL     1      92.305  93.364  78.149  1.00  0.00     0.003 C 
BRANCH  20  21
ATOM     21  C   UNL     1      91.070  93.343  77.191  1.00  0.00    -0.017 C 
ATOM     22  C   UNL     1      90.553  94.787  76.920  1.00  0.00     0.007 C 
ATOM     23  C   UNL     1      89.909  92.451  77.721  1.00  0.00     0.007 C 
ENDBRANCH  20  21
ENDBRANCH  19  20
ENDBRANCH  18  19
ENDBRANCH  17  18
ENDBRANCH   1  17
TORSDOF 10
ENDMDL
MODEL 8
REMARK VINA RESULT:    -5.426      5.360      8.395
REMARK INTER + INTRA:          -9.150
REMARK INTER:                  -8.228
REMARK INTRA:                  -0.923
REMARK UNBOUND:                -0.711
REMARK SMILES COc1cc(CNC(=O)CCCCCC(C)C)ccc1O
REMARK SMILES IDX 10 1 8 2 7 3 9 5 6 6 5 7 3 8 20 9 4 10 19 11 18 12 2 13 1 14
REMARK SMILES IDX 21 15 11 17 12 18 13 19 14 20 15 21 16 22 17 23
REMARK H PARENT 7 4 21 16
REMARK Flexibility Score: inf
ROOT
ATOM      1  C   UNL     1      89.499  98.944  69.696  1.00  0.00     0.100 C 
ENDROOT
BRANCH   1   2
ATOM      2  C   UNL     1      90.420  99.820  70.450  1.00  0.00     0.220 C 
ATOM      3  N   UNL     1      91.402  99.260  71.212  1.00  0.00    -0.352 N 
ATOM      4  H   UNL     1      91.344  98.257  71.310  1.00  0.00     0.163 HD
ATOM      5  O   UNL     1      90.305 101.065  70.338  1.00  0.00    -0.275 OA
BRANCH   3   6
ATOM      6  C   UNL     1      92.459  99.980  71.847  1.00  0.00     0.151 C 
BRANCH   6   7
ATOM      7  C   UNL     1      93.783  99.314  71.713  1.00  0.00    -0.025 A 
ATOM      8  C   UNL     1      95.705  98.165  72.729  1.00  0.00     0.160 A 
ATOM      9  C   UNL     1      96.272  97.986  71.449  1.00  0.00     0.157 A 
ATOM     10  C   UNL     1      94.474  98.844  72.854  1.00  0.00     0.056 A 
ATOM     11  C   UNL     1      95.605  98.472  70.309  1.00  0.00     0.050 A 
ATOM     12  C   UNL     1      94.368  99.126  70.439  1.00  0.00     0.009 A 
BRANCH   8  13
ATOM     13  O   UNL     1      96.347  97.716  73.853  1.00  0.00    -0.493 OA
ATOM     14  C   UNL     1      95.805  96.491  74.383  1.00  0.00     0.278 C 
ENDBRANCH   8  13
BRANCH   9  15
ATOM     15  O   UNL     1      97.456  97.337  71.317  1.00  0.00    -0.504 OA
ATOM     16  H   UNL     1      98.163  97.978  71.214  1.00  0.00     0.293 HD
ENDBRANCH   9  15
ENDBRANCH   6   7
ENDBRANCH   3   6
ENDBRANCH   1   2
BRANCH   1  17
ATOM     17  C   UNL     1      90.184  98.096  68.591  1.00  0.00     0.010 C 
BRANCH  17  18
ATOM     18  C   UNL     1      89.197  97.744  67.444  1.00  0.00     0.001 C 
BRANCH  18  19
ATOM     19  C   UNL     1      89.072  98.860  66.374  1.00  0.00     0.000 C 
BRANCH  19  20
ATOM     20  C   UNL     1      87.772  99.698  66.547  1.00  0.00     0.003 C 
BRANCH  20  21
ATOM     21  C   UNL     1      87.997 101.185  66.975  1.00  0.00    -0.017 C 
ATOM     22  C   UNL     1      87.014 102.133  66.228  1.00  0.00     0.007 C 
ATOM     23  C   UNL     1      89.464 101.660  66.761  1.00  0.00     0.007 C 
ENDBRANCH  20  21
ENDBRANCH  19  20
ENDBRANCH  18  19
ENDBRANCH  17  18
ENDBRANCH   1  17
TORSDOF 10
ENDMDL
MODEL 9
REMARK VINA RESULT:    -5.402     24.854     29.437
REMARK INTER + INTRA:          -9.113
REMARK INTER:                  -7.702
REMARK INTRA:                  -1.412
REMARK UNBOUND:                -0.711
REMARK SMILES COc1cc(CNC(=O)CCCCCC(C)C)ccc1O
REMARK SMILES IDX 10 1 8 2 7 3 9 5 6 6 5 7 3 8 20 9 4 10 19 11 18 12 2 13 1 14
REMARK SMILES IDX 21 15 11 17 12 18 13 19 14 20 15 21 16 22 17 23
REMARK H PARENT 7 4 21 16
REMARK Flexibility Score: inf
ROOT
ATOM      1  C   UNL     1      82.245  65.369  76.435  1.00  0.00     0.100 C 
ENDROOT
BRANCH   1   2
ATOM      2  C   UNL     1      83.528  65.911  75.940  1.00  0.00     0.220 C 
ATOM      3  N   UNL     1      83.684  67.260  75.823  1.00  0.00    -0.352 N 
ATOM      4  H   UNL     1      82.841  67.799  75.965  1.00  0.00     0.163 HD
ATOM      5  O   UNL     1      84.463  65.117  75.677  1.00  0.00    -0.275 OA
BRANCH   3   6
ATOM      6  C   UNL     1      84.914  67.922  75.527  1.00  0.00     0.151 C 
BRANCH   6   7
ATOM      7  C   UNL     1      84.829  68.805  74.333  1.00  0.00    -0.025 A 
ATOM      8  C   UNL     1      85.497  70.849  73.140  1.00  0.00     0.160 A 
ATOM      9  C   UNL     1      84.720  70.453  72.031  1.00  0.00     0.157 A 
ATOM     10  C   UNL     1      85.532  70.032  74.290  1.00  0.00     0.056 A 
ATOM     11  C   UNL     1      83.996  69.248  72.072  1.00  0.00     0.050 A 
ATOM     12  C   UNL     1      84.054  68.427  73.211  1.00  0.00     0.009 A 
BRANCH   8  13
ATOM     13  O   UNL     1      86.194  72.029  73.127  1.00  0.00    -0.493 OA
ATOM     14  C   UNL     1      87.023  72.227  74.289  1.00  0.00     0.278 C 
ENDBRANCH   8  13
BRANCH   9  15
ATOM     15  O   UNL     1      84.678  71.232  70.921  1.00  0.00    -0.504 OA
ATOM     16  H   UNL     1      84.310  70.730  70.191  1.00  0.00     0.293 HD
ENDBRANCH   9  15
ENDBRANCH   6   7
ENDBRANCH   3   6
ENDBRANCH   1   2
BRANCH   1  17
ATOM     17  C   UNL     1      81.034  66.321  76.245  1.00  0.00     0.010 C 
BRANCH  17  18
ATOM     18  C   UNL     1      79.912  65.659  75.399  1.00  0.00     0.001 C 
BRANCH  18  19
ATOM     19  C   UNL     1      80.385  65.211  73.991  1.00  0.00     0.000 C 
BRANCH  19  20
ATOM     20  C   UNL     1      80.736  66.419  73.075  1.00  0.00     0.003 C 
BRANCH  20  21
ATOM     21  C   UNL     1      81.700  66.091  71.890  1.00  0.00    -0.017 C 
ATOM     22  C   UNL     1      80.918  65.482  70.689  1.00  0.00     0.007 C 
ATOM     23  C   UNL     1      82.866  65.146  72.302  1.00  0.00     0.007 C 
ENDBRANCH  20  21
ENDBRANCH  19  20
ENDBRANCH  18  19
ENDBRANCH  17  18
ENDBRANCH   1  17
TORSDOF 10
ENDMDL
MODEL 10
REMARK VINA RESULT:    -5.306      6.014      8.297
REMARK INTER + INTRA:          -8.964
REMARK INTER:                  -8.280
REMARK INTRA:                  -0.684
REMARK UNBOUND:                -0.711
REMARK SMILES COc1cc(CNC(=O)CCCCCC(C)C)ccc1O
REMARK SMILES IDX 10 1 8 2 7 3 9 5 6 6 5 7 3 8 20 9 4 10 19 11 18 12 2 13 1 14
REMARK SMILES IDX 21 15 11 17 12 18 13 19 14 20 15 21 16 22 17 23
REMARK H PARENT 7 4 21 16
REMARK Flexibility Score: inf
ROOT
ATOM      1  C   UNL     1      95.490  92.919  78.306  1.00  0.00     0.100 C 
ENDROOT
BRANCH   1   2
ATOM      2  C   UNL     1      95.518  93.357  79.717  1.00  0.00     0.220 C 
ATOM      3  N   UNL     1      96.015  94.588  80.026  1.00  0.00    -0.352 N 
ATOM      4  H   UNL     1      96.460  95.071  79.259  1.00  0.00     0.163 HD
ATOM      5  O   UNL     1      95.044  92.600  80.599  1.00  0.00    -0.275 OA
BRANCH   3   6
ATOM      6  C   UNL     1      95.945  95.203  81.313  1.00  0.00     0.151 C 
BRANCH   6   7
ATOM      7  C   UNL     1      97.283  95.456  81.913  1.00  0.00    -0.025 A 
ATOM      8  C   UNL     1      98.806  96.899  83.196  1.00  0.00     0.160 A 
ATOM      9  C   UNL     1      99.809  95.910  83.113  1.00  0.00     0.157 A 
ATOM     10  C   UNL     1      97.556  96.673  82.580  1.00  0.00     0.056 A 
ATOM     11  C   UNL     1      99.557  94.707  82.428  1.00  0.00     0.050 A 
ATOM     12  C   UNL     1      98.303  94.479  81.838  1.00  0.00     0.009 A 
BRANCH   8  13
ATOM     13  O   UNL     1      99.037  98.085  83.841  1.00  0.00    -0.493 OA
ATOM     14  C   UNL     1      98.135  98.338  84.936  1.00  0.00     0.278 C 
ENDBRANCH   8  13
BRANCH   9  15
ATOM     15  O   UNL     1     101.014  96.117  83.700  1.00  0.00    -0.504 OA
ATOM     16  H   UNL     1     101.503  96.778  83.204  1.00  0.00     0.293 HD
ENDBRANCH   9  15
ENDBRANCH   6   7
ENDBRANCH   3   6
ENDBRANCH   1   2
BRANCH   1  17
ATOM     17  C   UNL     1      95.177  94.052  77.292  1.00  0.00     0.010 C 
BRANCH  17  18
ATOM     18  C   UNL     1      93.925  93.724  76.434  1.00  0.00     0.001 C 
BRANCH  18  19
ATOM     19  C   UNL     1      92.786  94.768  76.581  1.00  0.00     0.000 C 
BRANCH  19  20
ATOM     20  C   UNL     1      91.386  94.157  76.282  1.00  0.00     0.003 C 
BRANCH  20  21
ATOM     21  C   UNL     1      91.175  92.700  76.808  1.00  0.00    -0.017 C 
ATOM     22  C   UNL     1      90.902  91.719  75.631  1.00  0.00     0.007 C 
ATOM     23  C   UNL     1      90.036  92.598  77.864  1.00  0.00     0.007 C 
ENDBRANCH  20  21
ENDBRANCH  19  20
ENDBRANCH  18  19
ENDBRANCH  17  18
ENDBRANCH   1  17
TORSDOF 10
ENDMDL
