MODEL 1
REMARK VINA RESULT:    -7.620      0.000      0.000
REMARK INTER + INTRA:          -9.344
REMARK INTER:                  -8.957
REMARK INTRA:                  -0.387
REMARK UNBOUND:                -0.387
REMARK SMILES O=C(/C=C/C=C/c1ccc2c(c1)OCO2)N1CCCCC1
REMARK SMILES IDX 3 1 4 2 2 3 1 4 16 5 17 6 21 7 18 8 20 9 19 10 5 11 6 12
REMARK SMILES IDX 7 13 12 14 8 15 11 16 9 17 13 18 10 19 14 20 15 21
REMARK H PARENT
REMARK Flexibility Score: inf
ROOT
ATOM      1  C   UNL     1      97.511  83.942  76.862  1.00  0.00     0.071 C 
ATOM      2  C   UNL     1      96.378  83.915  77.561  1.00  0.00     0.006 C 
ENDROOT
BRANCH   1   3
ATOM      3  C   UNL     1      97.440  84.335  75.440  1.00  0.00     0.246 C 
ATOM      4  O   UNL     1      96.337  84.647  74.990  1.00  0.00    -0.270 OA
ATOM      5  N   UNL     1      98.624  84.321  74.703  1.00  0.00    -0.339 N 
ATOM      6  C   UNL     1      98.584  84.701  73.288  1.00  0.00     0.120 C 
ATOM      7  C   UNL     1      99.948  83.912  75.194  1.00  0.00     0.120 C 
ATOM      8  C   UNL     1      99.605  85.790  72.975  1.00  0.00     0.022 C 
ATOM      9  C   UNL     1     101.002  84.978  74.895  1.00  0.00     0.022 C 
ATOM     10  C   UNL     1     101.003  85.373  73.421  1.00  0.00     0.004 C 
ENDBRANCH   1   3
BRANCH   2  11
ATOM     11  C   UNL     1      96.345  83.543  78.959  1.00  0.00     0.001 C 
ATOM     12  C   UNL     1      97.433  83.122  79.625  1.00  0.00     0.008 C 
BRANCH  12  13
ATOM     13  C   UNL     1      97.454  82.723  81.042  1.00  0.00    -0.022 A 
ATOM     14  C   UNL     1      96.601  83.358  81.935  1.00  0.00     0.058 A 
ATOM     15  C   UNL     1      98.333  81.717  81.450  1.00  0.00     0.012 A 
ATOM     16  C   UNL     1      96.658  82.950  83.252  1.00  0.00     0.166 A 
ATOM     17  C   UNL     1      98.369  81.324  82.790  1.00  0.00     0.051 A 
ATOM     18  O   UNL     1      95.908  83.447  84.274  1.00  0.00    -0.454 OA
ATOM     19  C   UNL     1      97.518  81.960  83.668  1.00  0.00     0.165 A 
ATOM     20  C   UNL     1      96.393  82.659  85.380  1.00  0.00     0.468 C 
ATOM     21  O   UNL     1      97.414  81.713  85.003  1.00  0.00    -0.454 OA
ENDBRANCH  12  13
ENDBRANCH   2  11
TORSDOF 3
ENDMDL
MODEL 2
REMARK VINA RESULT:    -7.567      3.083      9.395
REMARK INTER + INTRA:          -9.281
REMARK INTER:                  -9.029
REMARK INTRA:                  -0.251
REMARK UNBOUND:                -0.387
REMARK SMILES O=C(/C=C/C=C/c1ccc2c(c1)OCO2)N1CCCCC1
REMARK SMILES IDX 3 1 4 2 2 3 1 4 16 5 17 6 21 7 18 8 20 9 19 10 5 11 6 12
REMARK SMILES IDX 7 13 12 14 8 15 11 16 9 17 13 18 10 19 14 20 15 21
REMARK H PARENT
REMARK Flexibility Score: inf
ROOT
ATOM      1  C   UNL     1      96.344  83.612  83.220  1.00  0.00     0.071 C 
ATOM      2  C   UNL     1      96.831  82.788  82.294  1.00  0.00     0.006 C 
ENDROOT
BRANCH   1   3
ATOM      3  C   UNL     1      96.282  83.131  84.615  1.00  0.00     0.246 C 
ATOM      4  O   UNL     1      97.248  83.367  85.341  1.00  0.00    -0.270 OA
ATOM      5  N   UNL     1      95.139  82.439  85.013  1.00  0.00    -0.339 N 
ATOM      6  C   UNL     1      95.051  81.945  86.391  1.00  0.00     0.120 C 
ATOM      7  C   UNL     1      93.988  82.100  84.164  1.00  0.00     0.120 C 
ATOM      8  C   UNL     1      93.763  82.403  87.066  1.00  0.00     0.022 C 
ATOM      9  C   UNL     1      92.675  82.541  84.809  1.00  0.00     0.022 C 
ATOM     10  C   UNL     1      92.543  82.016  86.236  1.00  0.00     0.004 C 
ENDBRANCH   1   3
BRANCH   2  11
ATOM     11  C   UNL     1      96.931  83.169  80.901  1.00  0.00     0.001 C 
ATOM     12  C   UNL     1      97.503  82.384  79.973  1.00  0.00     0.008 C 
BRANCH  12  13
ATOM     13  C   UNL     1      97.638  82.725  78.547  1.00  0.00    -0.022 A 
ATOM     14  C   UNL     1      96.797  83.684  77.999  1.00  0.00     0.058 A 
ATOM     15  C   UNL     1      98.611  82.074  77.784  1.00  0.00     0.012 A 
ATOM     16  C   UNL     1      96.963  83.969  76.659  1.00  0.00     0.166 A 
ATOM     17  C   UNL     1      98.757  82.382  76.430  1.00  0.00     0.051 A 
ATOM     18  O   UNL     1      96.240  84.872  75.940  1.00  0.00    -0.454 OA
ATOM     19  C   UNL     1      97.916  83.336  75.895  1.00  0.00     0.165 A 
ATOM     20  C   UNL     1      96.847  84.736  74.639  1.00  0.00     0.468 C 
ATOM     21  O   UNL     1      97.911  83.763  74.603  1.00  0.00    -0.454 OA
ENDBRANCH  12  13
ENDBRANCH   2  11
TORSDOF 3
ENDMDL
MODEL 3
REMARK VINA RESULT:    -7.496      3.310      9.617
REMARK INTER + INTRA:          -9.197
REMARK INTER:                  -8.888
REMARK INTRA:                  -0.309
REMARK UNBOUND:                -0.387
REMARK SMILES O=C(/C=C/C=C/c1ccc2c(c1)OCO2)N1CCCCC1
REMARK SMILES IDX 3 1 4 2 2 3 1 4 16 5 17 6 21 7 18 8 20 9 19 10 5 11 6 12
REMARK SMILES IDX 7 13 12 14 8 15 11 16 9 17 13 18 10 19 14 20 15 21
REMARK H PARENT
REMARK Flexibility Score: inf
ROOT
ATOM      1  C   UNL     1      95.791  83.390  83.655  1.00  0.00     0.071 C 
ATOM      2  C   UNL     1      96.404  82.641  82.740  1.00  0.00     0.006 C 
ENDROOT
BRANCH   1   3
ATOM      3  C   UNL     1      95.527  82.792  84.979  1.00  0.00     0.246 C 
ATOM      4  O   UNL     1      96.221  81.833  85.319  1.00  0.00    -0.270 OA
ATOM      5  N   UNL     1      94.509  83.349  85.752  1.00  0.00    -0.339 N 
ATOM      6  C   UNL     1      94.220  82.774  87.069  1.00  0.00     0.120 C 
ATOM      7  C   UNL     1      93.632  84.463  85.362  1.00  0.00     0.120 C 
ATOM      8  C   UNL     1      94.232  83.841  88.158  1.00  0.00     0.022 C 
ATOM      9  C   UNL     1      93.614  85.554  86.432  1.00  0.00     0.022 C 
ATOM     10  C   UNL     1      93.287  84.987  87.810  1.00  0.00     0.004 C 
ENDBRANCH   1   3
BRANCH   2  11
ATOM     11  C   UNL     1      96.705  83.138  81.415  1.00  0.00     0.001 C 
ATOM     12  C   UNL     1      97.079  82.335  80.405  1.00  0.00     0.008 C 
BRANCH  12  13
ATOM     13  C   UNL     1      97.404  82.788  79.042  1.00  0.00    -0.022 A 
ATOM     14  C   UNL     1      96.516  83.622  78.377  1.00  0.00     0.058 A 
ATOM     15  C   UNL     1      98.600  82.365  78.455  1.00  0.00     0.012 A 
ATOM     16  C   UNL     1      96.865  84.020  77.103  1.00  0.00     0.166 A 
ATOM     17  C   UNL     1      98.928  82.783  77.164  1.00  0.00     0.051 A 
ATOM     18  O   UNL     1      96.132  84.831  76.291  1.00  0.00    -0.454 OA
ATOM     19  C   UNL     1      98.039  83.612  76.512  1.00  0.00     0.165 A 
ATOM     20  C   UNL     1      96.976  84.887  75.124  1.00  0.00     0.468 C 
ATOM     21  O   UNL     1      98.188  84.116  75.257  1.00  0.00    -0.454 OA
ENDBRANCH  12  13
ENDBRANCH   2  11
TORSDOF 3
ENDMDL
MODEL 4
REMARK VINA RESULT:    -7.149      2.566      9.002
REMARK INTER + INTRA:          -8.790
REMARK INTER:                  -8.402
REMARK INTRA:                  -0.387
REMARK UNBOUND:                -0.387
REMARK SMILES O=C(/C=C/C=C/c1ccc2c(c1)OCO2)N1CCCCC1
REMARK SMILES IDX 3 1 4 2 2 3 1 4 16 5 17 6 21 7 18 8 20 9 19 10 5 11 6 12
REMARK SMILES IDX 7 13 12 14 8 15 11 16 9 17 13 18 10 19 14 20 15 21
REMARK H PARENT
REMARK Flexibility Score: inf
ROOT
ATOM      1  C   UNL     1      97.793  82.501  81.249  1.00  0.00     0.071 C 
ATOM      2  C   UNL     1      97.452  81.712  80.232  1.00  0.00     0.006 C 
ENDROOT
BRANCH   1   3
ATOM      3  C   UNL     1      97.487  82.040  82.619  1.00  0.00     0.246 C 
ATOM      4  O   UNL     1      98.061  81.027  83.020  1.00  0.00    -0.270 OA
ATOM      5  N   UNL     1      96.567  82.778  83.362  1.00  0.00    -0.339 N 
ATOM      6  C   UNL     1      96.239  82.343  84.723  1.00  0.00     0.120 C 
ATOM      7  C   UNL     1      95.830  83.965  82.902  1.00  0.00     0.120 C 
ATOM      8  C   UNL     1      96.414  83.476  85.728  1.00  0.00     0.022 C 
ATOM      9  C   UNL     1      95.978  85.124  83.887  1.00  0.00     0.022 C 
ATOM     10  C   UNL     1      95.615  84.706  85.309  1.00  0.00     0.004 C 
ENDBRANCH   1   3
BRANCH   2  11
ATOM     11  C   UNL     1      97.710  82.076  78.856  1.00  0.00     0.001 C 
ATOM     12  C   UNL     1      97.376  83.273  78.346  1.00  0.00     0.008 C 
BRANCH  12  13
ATOM     13  C   UNL     1      97.608  83.693  76.954  1.00  0.00    -0.022 A 
ATOM     14  C   UNL     1      98.787  83.321  76.323  1.00  0.00     0.058 A 
ATOM     15  C   UNL     1      96.633  84.454  76.305  1.00  0.00     0.012 A 
ATOM     16  C   UNL     1      98.958  83.737  75.019  1.00  0.00     0.166 A 
ATOM     17  C   UNL     1      96.832  84.862  74.984  1.00  0.00     0.051 A 
ATOM     18  O   UNL     1     100.040  83.477  74.234  1.00  0.00    -0.454 OA
ATOM     19  C   UNL     1      98.007  84.487  74.367  1.00  0.00     0.165 A 
ATOM     20  C   UNL     1      99.662  84.149  73.015  1.00  0.00     0.468 C 
ATOM     21  O   UNL     1      98.373  84.791  73.092  1.00  0.00    -0.454 OA
ENDBRANCH  12  13
ENDBRANCH   2  11
TORSDOF 3
ENDMDL
MODEL 5
REMARK VINA RESULT:    -7.145     12.987     14.506
REMARK INTER + INTRA:          -8.785
REMARK INTER:                  -8.385
REMARK INTRA:                  -0.400
REMARK UNBOUND:                -0.387
REMARK SMILES O=C(/C=C/C=C/c1ccc2c(c1)OCO2)N1CCCCC1
REMARK SMILES IDX 3 1 4 2 2 3 1 4 16 5 17 6 21 7 18 8 20 9 19 10 5 11 6 12
REMARK SMILES IDX 7 13 12 14 8 15 11 16 9 17 13 18 10 19 14 20 15 21
REMARK H PARENT
REMARK Flexibility Score: inf
ROOT
ATOM      1  C   UNL     1      94.423  97.473  78.517  1.00  0.00     0.071 C 
ATOM      2  C   UNL     1      94.745  96.181  78.509  1.00  0.00     0.006 C 
ENDROOT
BRANCH   1   3
ATOM      3  C   UNL     1      95.462  98.446  78.910  1.00  0.00     0.246 C 
ATOM      4  O   UNL     1      95.618  98.656  80.113  1.00  0.00    -0.270 OA
ATOM      5  N   UNL     1      96.191  99.063  77.895  1.00  0.00    -0.339 N 
ATOM      6  C   UNL     1      97.226 100.037  78.254  1.00  0.00     0.120 C 
ATOM      7  C   UNL     1      96.003  98.871  76.449  1.00  0.00     0.120 C 
ATOM      8  C   UNL     1      98.562  99.696  77.604  1.00  0.00     0.022 C 
ATOM      9  C   UNL     1      97.324  98.530  75.760  1.00  0.00     0.022 C 
ATOM     10  C   UNL     1      98.413  99.545  76.094  1.00  0.00     0.004 C 
ENDBRANCH   1   3
BRANCH   2  11
ATOM     11  C   UNL     1      93.795  95.153  78.139  1.00  0.00     0.001 C 
ATOM     12  C   UNL     1      92.798  95.366  77.265  1.00  0.00     0.008 C 
BRANCH  12  13
ATOM     13  C   UNL     1      91.801  94.361  76.860  1.00  0.00    -0.022 A 
ATOM     14  C   UNL     1      91.833  93.861  75.566  1.00  0.00     0.058 A 
ATOM     15  C   UNL     1      90.849  93.937  77.791  1.00  0.00     0.012 A 
ATOM     16  C   UNL     1      90.879  92.921  75.234  1.00  0.00     0.166 A 
ATOM     17  C   UNL     1      89.895  92.985  77.428  1.00  0.00     0.051 A 
ATOM     18  O   UNL     1      90.744  92.315  74.022  1.00  0.00    -0.454 OA
ATOM     19  C   UNL     1      89.936  92.494  76.139  1.00  0.00     0.165 A 
ATOM     20  C   UNL     1      89.610  91.459  74.268  1.00  0.00     0.468 C 
ATOM     21  O   UNL     1      89.092  91.568  75.609  1.00  0.00    -0.454 OA
ENDBRANCH  12  13
ENDBRANCH   2  11
TORSDOF 3
ENDMDL
MODEL 6
REMARK VINA RESULT:    -7.135      2.185      3.058
REMARK INTER + INTRA:          -8.773
REMARK INTER:                  -8.519
REMARK INTRA:                  -0.254
REMARK UNBOUND:                -0.387
REMARK SMILES O=C(/C=C/C=C/c1ccc2c(c1)OCO2)N1CCCCC1
REMARK SMILES IDX 3 1 4 2 2 3 1 4 16 5 17 6 21 7 18 8 20 9 19 10 5 11 6 12
REMARK SMILES IDX 7 13 12 14 8 15 11 16 9 17 13 18 10 19 14 20 15 21
REMARK H PARENT
REMARK Flexibility Score: inf
ROOT
ATOM      1  C   UNL     1      97.480  82.386  78.335  1.00  0.00     0.071 C 
ATOM      2  C   UNL     1      97.796  83.135  79.390  1.00  0.00     0.006 C 
ENDROOT
BRANCH   1   3
ATOM      3  C   UNL     1      98.477  82.255  77.253  1.00  0.00     0.246 C 
ATOM      4  O   UNL     1      99.280  81.325  77.330  1.00  0.00    -0.270 OA
ATOM      5  N   UNL     1      98.445  83.193  76.223  1.00  0.00    -0.339 N 
ATOM      6  C   UNL     1      99.425  83.092  75.138  1.00  0.00     0.120 C 
ATOM      7  C   UNL     1      97.532  84.342  76.121  1.00  0.00     0.120 C 
ATOM      8  C   UNL     1      98.747  83.087  73.772  1.00  0.00     0.022 C 
ATOM      9  C   UNL     1      96.833  84.374  74.762  1.00  0.00     0.022 C 
ATOM     10  C   UNL     1      97.833  84.298  73.612  1.00  0.00     0.004 C 
ENDBRANCH   1   3
BRANCH   2  11
ATOM     11  C   UNL     1      96.885  83.324  80.499  1.00  0.00     0.001 C 
ATOM     12  C   UNL     1      97.116  82.821  81.723  1.00  0.00     0.008 C 
BRANCH  12  13
ATOM     13  C   UNL     1      96.222  82.976  82.882  1.00  0.00    -0.022 A 
ATOM     14  C   UNL     1      96.123  84.216  83.498  1.00  0.00     0.058 A 
ATOM     15  C   UNL     1      95.496  81.870  83.331  1.00  0.00     0.012 A 
ATOM     16  C   UNL     1      95.272  84.312  84.580  1.00  0.00     0.166 A 
ATOM     17  C   UNL     1      94.642  81.995  84.428  1.00  0.00     0.051 A 
ATOM     18  O   UNL     1      95.039  85.434  85.315  1.00  0.00    -0.454 OA
ATOM     19  C   UNL     1      94.551  83.231  85.033  1.00  0.00     0.165 A 
ATOM     20  C   UNL     1      94.091  84.937  86.282  1.00  0.00     0.468 C 
ATOM     21  O   UNL     1      93.776  83.540  86.108  1.00  0.00    -0.454 OA
ENDBRANCH  12  13
ENDBRANCH   2  11
TORSDOF 3
ENDMDL
MODEL 7
REMARK VINA RESULT:    -6.822     13.433     15.242
REMARK INTER + INTRA:          -8.406
REMARK INTER:                  -8.023
REMARK INTRA:                  -0.383
REMARK UNBOUND:                -0.387
REMARK SMILES O=C(/C=C/C=C/c1ccc2c(c1)OCO2)N1CCCCC1
REMARK SMILES IDX 3 1 4 2 2 3 1 4 16 5 17 6 21 7 18 8 20 9 19 10 5 11 6 12
REMARK SMILES IDX 7 13 12 14 8 15 11 16 9 17 13 18 10 19 14 20 15 21
REMARK H PARENT
REMARK Flexibility Score: inf
ROOT
ATOM      1  C   UNL     1      96.682  96.750  80.339  1.00  0.00     0.071 C 
ATOM      2  C   UNL     1      96.249  95.493  80.253  1.00  0.00     0.006 C 
ENDROOT
BRANCH   1   3
ATOM      3  C   UNL     1      97.830  97.030  81.224  1.00  0.00     0.246 C 
ATOM      4  O   UNL     1      98.861  96.382  81.041  1.00  0.00    -0.270 OA
ATOM      5  N   UNL     1      97.669  98.005  82.208  1.00  0.00    -0.339 N 
ATOM      6  C   UNL     1      98.790  98.301  83.105  1.00  0.00     0.120 C 
ATOM      7  C   UNL     1      96.442  98.766  82.484  1.00  0.00     0.120 C 
ATOM      8  C   UNL     1      99.106  99.793  83.127  1.00  0.00     0.022 C 
ATOM      9  C   UNL     1      96.719 100.269  82.518  1.00  0.00     0.022 C 
ATOM     10  C   UNL     1      97.864 100.610  83.467  1.00  0.00     0.004 C 
ENDBRANCH   1   3
BRANCH   2  11
ATOM     11  C   UNL     1      95.131  95.120  79.413  1.00  0.00     0.001 C 
ATOM     12  C   UNL     1      94.856  95.738  78.253  1.00  0.00     0.008 C 
BRANCH  12  13
ATOM     13  C   UNL     1      93.729  95.405  77.366  1.00  0.00    -0.022 A 
ATOM     14  C   UNL     1      92.507  95.059  77.927  1.00  0.00     0.058 A 
ATOM     15  C   UNL     1      93.920  95.446  75.983  1.00  0.00     0.012 A 
ATOM     16  C   UNL     1      91.481  94.756  77.054  1.00  0.00     0.166 A 
ATOM     17  C   UNL     1      92.865  95.134  75.123  1.00  0.00     0.051 A 
ATOM     18  O   UNL     1      90.216  94.394  77.405  1.00  0.00    -0.454 OA
ATOM     19  C   UNL     1      91.655  94.792  75.690  1.00  0.00     0.165 A 
ATOM     20  C   UNL     1      89.614  94.207  76.108  1.00  0.00     0.468 C 
ATOM     21  O   UNL     1      90.522  94.458  75.015  1.00  0.00    -0.454 OA
ENDBRANCH  12  13
ENDBRANCH   2  11
TORSDOF 3
ENDMDL
MODEL 8
REMARK VINA RESULT:    -6.702     17.823     20.635
REMARK INTER + INTRA:          -8.265
REMARK INTER:                  -7.920
REMARK INTRA:                  -0.345
REMARK UNBOUND:                -0.387
REMARK SMILES O=C(/C=C/C=C/c1ccc2c(c1)OCO2)N1CCCCC1
REMARK SMILES IDX 3 1 4 2 2 3 1 4 16 5 17 6 21 7 18 8 20 9 19 10 5 11 6 12
REMARK SMILES IDX 7 13 12 14 8 15 11 16 9 17 13 18 10 19 14 20 15 21
REMARK H PARENT
REMARK Flexibility Score: inf
ROOT
ATOM      1  C   UNL     1      86.598  70.249  72.146  1.00  0.00     0.071 C 
ATOM      2  C   UNL     1      87.569  70.073  71.253  1.00  0.00     0.006 C 
ENDROOT
BRANCH   1   3
ATOM      3  C   UNL     1      86.643  69.450  73.387  1.00  0.00     0.246 C 
ATOM      4  O   UNL     1      87.450  69.789  74.253  1.00  0.00    -0.270 OA
ATOM      5  N   UNL     1      85.774  68.365  73.493  1.00  0.00    -0.339 N 
ATOM      6  C   UNL     1      85.799  67.549  74.711  1.00  0.00     0.120 C 
ATOM      7  C   UNL     1      84.830  67.904  72.464  1.00  0.00     0.120 C 
ATOM      8  C   UNL     1      84.407  67.411  75.318  1.00  0.00     0.022 C 
ATOM      9  C   UNL     1      83.421  67.749  73.035  1.00  0.00     0.022 C 
ATOM     10  C   UNL     1      83.413  66.880  74.290  1.00  0.00     0.004 C 
ENDBRANCH   1   3
BRANCH   2  11
ATOM     11  C   UNL     1      87.611  70.810  70.007  1.00  0.00     0.001 C 
ATOM     12  C   UNL     1      88.659  71.569  69.647  1.00  0.00     0.008 C 
BRANCH  12  13
ATOM     13  C   UNL     1      88.750  72.343  68.398  1.00  0.00    -0.022 A 
ATOM     14  C   UNL     1      89.926  73.022  68.108  1.00  0.00     0.058 A 
ATOM     15  C   UNL     1      87.649  72.375  67.538  1.00  0.00     0.012 A 
ATOM     16  C   UNL     1      89.964  73.733  66.926  1.00  0.00     0.166 A 
ATOM     17  C   UNL     1      87.715  73.103  66.348  1.00  0.00     0.051 A 
ATOM     18  O   UNL     1      91.018  74.461  66.466  1.00  0.00    -0.454 OA
ATOM     19  C   UNL     1      88.888  73.773  66.070  1.00  0.00     0.165 A 
ATOM     20  C   UNL     1      90.485  74.963  65.224  1.00  0.00     0.468 C 
ATOM     21  O   UNL     1      89.133  74.530  64.966  1.00  0.00    -0.454 OA
ENDBRANCH  12  13
ENDBRANCH   2  11
TORSDOF 3
ENDMDL
MODEL 9
REMARK VINA RESULT:    -6.595     14.400     16.176
REMARK INTER + INTRA:          -8.138
REMARK INTER:                  -7.800
REMARK INTRA:                  -0.338
REMARK UNBOUND:                -0.387
REMARK SMILES O=C(/C=C/C=C/c1ccc2c(c1)OCO2)N1CCCCC1
REMARK SMILES IDX 3 1 4 2 2 3 1 4 16 5 17 6 21 7 18 8 20 9 19 10 5 11 6 12
REMARK SMILES IDX 7 13 12 14 8 15 11 16 9 17 13 18 10 19 14 20 15 21
REMARK H PARENT
REMARK Flexibility Score: inf
ROOT
ATOM      1  C   UNL     1      93.383  99.285  72.322  1.00  0.00     0.071 C 
ATOM      2  C   UNL     1      94.216  98.303  72.663  1.00  0.00     0.006 C 
ENDROOT
BRANCH   1   3
ATOM      3  C   UNL     1      93.362  99.721  70.911  1.00  0.00     0.246 C 
ATOM      4  O   UNL     1      94.317  99.400  70.203  1.00  0.00    -0.270 OA
ATOM      5  N   UNL     1      92.269 100.469  70.478  1.00  0.00    -0.339 N 
ATOM      6  C   UNL     1      92.223 100.920  69.084  1.00  0.00     0.120 C 
ATOM      7  C   UNL     1      91.135 100.908  71.304  1.00  0.00     0.120 C 
ATOM      8  C   UNL     1      90.914 100.521  68.412  1.00  0.00     0.022 C 
ATOM      9  C   UNL     1      89.801 100.529  70.660  1.00  0.00     0.022 C 
ATOM     10  C   UNL     1      89.715 101.012  69.215  1.00  0.00     0.004 C 
ENDBRANCH   1   3
BRANCH   2  11
ATOM     11  C   UNL     1      94.307  97.808  74.020  1.00  0.00     0.001 C 
ATOM     12  C   UNL     1      93.675  96.698  74.432  1.00  0.00     0.008 C 
BRANCH  12  13
ATOM     13  C   UNL     1      93.728  96.155  75.800  1.00  0.00    -0.022 A 
ATOM     14  C   UNL     1      94.948  96.103  76.460  1.00  0.00     0.058 A 
ATOM     15  C   UNL     1      92.546  95.706  76.397  1.00  0.00     0.012 A 
ATOM     16  C   UNL     1      94.946  95.587  77.740  1.00  0.00     0.166 A 
ATOM     17  C   UNL     1      92.574  95.188  77.693  1.00  0.00     0.051 A 
ATOM     18  O   UNL     1      96.034  95.452  78.547  1.00  0.00    -0.454 OA
ATOM     19  C   UNL     1      93.791  95.142  78.340  1.00  0.00     0.165 A 
ATOM     20  C   UNL     1      95.433  94.871  79.723  1.00  0.00     0.468 C 
ATOM     21  O   UNL     1      94.010  94.672  79.599  1.00  0.00    -0.454 OA
ENDBRANCH  12  13
ENDBRANCH   2  11
TORSDOF 3
ENDMDL
MODEL 10
REMARK VINA RESULT:    -6.547     12.604     16.328
REMARK INTER + INTRA:          -8.082
REMARK INTER:                  -7.673
REMARK INTRA:                  -0.409
REMARK UNBOUND:                -0.387
REMARK SMILES O=C(/C=C/C=C/c1ccc2c(c1)OCO2)N1CCCCC1
REMARK SMILES IDX 3 1 4 2 2 3 1 4 16 5 17 6 21 7 18 8 20 9 19 10 5 11 6 12
REMARK SMILES IDX 7 13 12 14 8 15 11 16 9 17 13 18 10 19 14 20 15 21
REMARK H PARENT
REMARK Flexibility Score: inf
ROOT
ATOM      1  C   UNL     1      93.384  95.001  89.464  1.00  0.00     0.071 C 
ATOM      2  C   UNL     1      94.390  94.234  89.880  1.00  0.00     0.006 C 
ENDROOT
BRANCH   1   3
ATOM      3  C   UNL     1      93.248  96.348  90.052  1.00  0.00     0.246 C 
ATOM      4  O   UNL     1      94.084  97.195  89.734  1.00  0.00    -0.270 OA
ATOM      5  N   UNL     1      92.189  96.569  90.930  1.00  0.00    -0.339 N 
ATOM      6  C   UNL     1      92.031  97.896  91.535  1.00  0.00     0.120 C 
ATOM      7  C   UNL     1      91.200  95.573  91.368  1.00  0.00     0.120 C 
ATOM      8  C   UNL     1      90.624  98.442  91.320  1.00  0.00     0.022 C 
ATOM      9  C   UNL     1      89.773  96.086  91.172  1.00  0.00     0.022 C 
ATOM     10  C   UNL     1      89.572  97.455  91.816  1.00  0.00     0.004 C 
ENDBRANCH   1   3
BRANCH   2  11
ATOM     11  C   UNL     1      94.605  92.899  89.363  1.00  0.00     0.001 C 
ATOM     12  C   UNL     1      93.598  92.051  89.099  1.00  0.00     0.008 C 
BRANCH  12  13
ATOM     13  C   UNL     1      93.760  90.682  88.580  1.00  0.00    -0.022 A 
ATOM     14  C   UNL     1      93.003  89.657  89.130  1.00  0.00     0.058 A 
ATOM     15  C   UNL     1      94.673  90.453  87.548  1.00  0.00     0.012 A 
ATOM     16  C   UNL     1      93.190  88.392  88.611  1.00  0.00     0.166 A 
ATOM     17  C   UNL     1      94.843  89.162  87.041  1.00  0.00     0.051 A 
ATOM     18  O   UNL     1      92.547  87.261  89.013  1.00  0.00    -0.454 OA
ATOM     19  C   UNL     1      94.085  88.151  87.594  1.00  0.00     0.165 A 
ATOM     20  C   UNL     1      93.139  86.282  88.136  1.00  0.00     0.468 C 
ATOM     21  O   UNL     1      94.116  86.840  87.232  1.00  0.00    -0.454 OA
ENDBRANCH  12  13
ENDBRANCH   2  11
TORSDOF 3
ENDMDL
