MODEL 1
REMARK VINA RESULT:    -6.740      0.000      0.000
REMARK INTER + INTRA:         -13.039
REMARK INTER:                 -11.863
REMARK INTRA:                  -1.177
REMARK UNBOUND:                -1.177
REMARK SMILES C=C(C)[C@]12C[C@@H](C)[C@@]34O[C@](Cc5ccccc5)(O[C@@H]1[C@@H]3C=C(COC(=O)Cc1ccc(O)c(OC)c1)C[C@]1(O)C(=O)C(C)=C[C@@H]41)O2
REMARK SMILES IDX 23 1 22 2 21 3 20 4 9 5 8 6 10 7 6 8 18 9 46 10 19 11 5 12
REMARK SMILES IDX 7 13 4 14 45 15 38 16 44 17 40 18 42 20 41 21 43 22 39 23
REMARK SMILES IDX 11 25 12 26 13 27 17 28 14 29 16 30 15 31 2 32 3 33 1 34
REMARK SMILES IDX 37 35 24 37 25 38 26 39 27 40 28 41 36 42 29 43 33 44 30 45
REMARK SMILES IDX 31 46 34 47 35 48 32 49
REMARK H PARENT 39 24 32 50
REMARK Flexibility Score: 90.00
ROOT
ATOM      1  C   UNL     1      75.787  89.618  70.354  1.00  0.00     0.264 C 
ENDROOT
BRANCH   1   2
ATOM      2  C   UNL     1      75.317  90.964  70.853  1.00  0.00    -0.033 C 
ATOM      3  C   UNL     1      76.102  91.665  71.696  1.00  0.00    -0.015 C 
BRANCH   3   4
ATOM      4  C   UNL     1      75.829  92.989  72.392  1.00  0.00     0.078 C 
ATOM      5  O   UNL     1      76.744  94.769  70.938  1.00  0.00    -0.319 OA
ATOM      6  C   UNL     1      75.502  94.248  71.505  1.00  0.00     0.095 C 
ATOM      7  C   UNL     1      77.862  94.818  71.844  1.00  0.00     0.289 C 
ATOM      8  C   UNL     1      74.856  95.345  72.449  1.00  0.00     0.023 C 
ATOM      9  O   UNL     1      78.149  93.529  72.380  1.00  0.00    -0.320 OA
ATOM     10  O   UNL     1      77.611  95.656  72.969  1.00  0.00    -0.313 OA
ATOM     11  C   UNL     1      77.038  93.376  73.278  1.00  0.00     0.170 C 
ATOM     12  C   UNL     1      75.450  95.280  73.889  1.00  0.00     0.049 C 
ATOM     13  C   UNL     1      74.931  96.790  71.929  1.00  0.00     0.011 C 
ATOM     14  C   UNL     1      76.900  94.796  73.883  1.00  0.00     0.122 C 
BRANCH   6  15
ATOM     15  C   UNL     1      74.649  93.844  70.267  1.00  0.00     0.086 C 
ATOM     16  C   UNL     1      73.499  92.850  70.529  1.00  0.00     0.140 CG0
ATOM     17  C   UNL     1      74.001  94.918  69.438  1.00  0.00    -0.010 C 
ATOM     18  C   UNL     1      72.443  93.306  69.544  1.00  0.00     0.190 C 
ATOM     19  G   UNL     1      73.926  91.401  70.299  1.00  0.00     0.000 G0
ATOM     20  C   UNL     1      72.773  94.634  68.993  1.00  0.00    -0.008 C 
ATOM     21  O   UNL     1      71.422  92.695  69.267  1.00  0.00    -0.291 OA
ATOM     22  C   UNL     1      71.883  95.403  68.099  1.00  0.00     0.048 C 
BRANCH  16  23
ATOM     23  O   UNL     1      72.876  93.012  71.792  1.00  0.00    -0.381 OA
ATOM     24  H   UNL     1      72.197  92.324  71.890  1.00  0.00     0.212 HD
ENDBRANCH  16  23
ENDBRANCH   6  15
BRANCH   7  25
ATOM     25  C   UNL     1      79.067  95.336  71.085  1.00  0.00     0.135 C 
BRANCH  25  26
ATOM     26  C   UNL     1      78.703  96.462  70.149  1.00  0.00    -0.040 A 
ATOM     27  C   UNL     1      78.440  97.735  70.658  1.00  0.00     0.004 A 
ATOM     28  C   UNL     1      78.632  96.232  68.776  1.00  0.00     0.004 A 
ATOM     29  C   UNL     1      78.104  98.776  69.793  1.00  0.00     0.000 A 
ATOM     30  C   UNL     1      78.295  97.274  67.910  1.00  0.00     0.000 A 
ATOM     31  C   UNL     1      78.032  98.546  68.420  1.00  0.00     0.000 A 
ENDBRANCH  25  26
ENDBRANCH   7  25
BRANCH  14  32
ATOM     32  C   UNL     1      77.546  94.899  75.226  1.00  0.00    -0.046 C 
ATOM     33  C   UNL     1      77.888  96.283  75.692  1.00  0.00     0.042 C 
ATOM     34  C   UNL     1      77.806  93.815  75.973  1.00  0.00     0.010 C 
ENDBRANCH  14  32
ENDBRANCH   3   4
BRANCH   2  35
ATOM     35  C   UNL     1      73.961  91.362  70.303  1.00  0.00     0.078 CG0
ATOM     36  G   UNL     1      73.520  92.810  70.509  1.00  0.00     0.000 G0
ENDBRANCH   2  35
ENDBRANCH   1   2
BRANCH   1  37
ATOM     37  O   UNL     1      75.064  88.598  71.009  1.00  0.00    -0.461 OA
BRANCH  37  38
ATOM     38  C   UNL     1      74.623  87.561  70.219  1.00  0.00     0.310 C 
ATOM     39  O   UNL     1      73.896  87.682  69.243  1.00  0.00    -0.252 OA
BRANCH  38  40
ATOM     40  C   UNL     1      75.175  86.257  70.745  1.00  0.00     0.158 C 
BRANCH  40  41
ATOM     41  C   UNL     1      76.122  85.588  69.782  1.00  0.00    -0.033 A 
ATOM     42  C   UNL     1      75.683  84.516  69.003  1.00  0.00     0.054 A 
ATOM     43  C   UNL     1      77.436  86.041  69.668  1.00  0.00     0.008 A 
ATOM     44  C   UNL     1      76.559  83.897  68.112  1.00  0.00     0.160 A 
ATOM     45  C   UNL     1      78.312  85.422  68.776  1.00  0.00     0.050 A 
ATOM     46  C   UNL     1      77.874  84.350  67.999  1.00  0.00     0.157 A 
BRANCH  44  47
ATOM     47  O   UNL     1      76.119  82.852  67.358  1.00  0.00    -0.493 OA
ATOM     48  C   UNL     1      74.883  83.025  66.667  1.00  0.00     0.278 C 
ENDBRANCH  44  47
BRANCH  46  49
ATOM     49  O   UNL     1      78.738  83.754  67.131  1.00  0.00    -0.504 OA
ATOM     50  H   UNL     1      78.570  82.797  67.123  1.00  0.00     0.293 HD
ENDBRANCH  46  49
ENDBRANCH  40  41
ENDBRANCH  38  40
ENDBRANCH  37  38
ENDBRANCH   1  37
TORSDOF 11
ENDMDL
MODEL 2
REMARK VINA RESULT:    -6.095     10.416     14.805
REMARK INTER + INTRA:         -11.904
REMARK INTER:                 -11.166
REMARK INTRA:                  -0.739
REMARK UNBOUND:                -1.177
REMARK SMILES C=C(C)[C@]12C[C@@H](C)[C@@]34O[C@](Cc5ccccc5)(O[C@@H]1[C@@H]3C=C(COC(=O)Cc1ccc(O)c(OC)c1)C[C@]1(O)C(=O)C(C)=C[C@@H]41)O2
REMARK SMILES IDX 23 1 22 2 21 3 20 4 9 5 8 6 10 7 6 8 18 9 46 10 19 11 5 12
REMARK SMILES IDX 7 13 4 14 45 15 38 16 44 17 40 18 42 20 41 21 43 22 39 23
REMARK SMILES IDX 11 25 12 26 13 27 17 28 14 29 16 30 15 31 2 32 3 33 1 34
REMARK SMILES IDX 37 35 24 37 25 38 26 39 27 40 28 41 36 42 29 43 33 44 30 45
REMARK SMILES IDX 31 46 34 47 35 48 32 49
REMARK H PARENT 39 24 32 50
REMARK Flexibility Score: 90.00
ROOT
ATOM      1  C   UNL     1      67.792  86.649  72.955  1.00  0.00     0.264 C 
ENDROOT
BRANCH   1   2
ATOM      2  C   UNL     1      66.644  86.383  73.900  1.00  0.00    -0.033 C 
ATOM      3  C   UNL     1      65.430  86.083  73.396  1.00  0.00    -0.015 C 
BRANCH   3   4
ATOM      4  C   UNL     1      64.115  85.852  74.121  1.00  0.00     0.078 C 
ATOM      5  O   UNL     1      63.957  83.425  74.571  1.00  0.00    -0.319 OA
ATOM      6  C   UNL     1      64.054  84.729  75.222  1.00  0.00     0.095 C 
ATOM      7  C   UNL     1      63.054  83.361  73.450  1.00  0.00     0.289 C 
ATOM      8  C   UNL     1      62.752  84.979  76.091  1.00  0.00     0.023 C 
ATOM      9  O   UNL     1      63.407  84.310  72.448  1.00  0.00    -0.320 OA
ATOM     10  O   UNL     1      61.713  83.670  73.818  1.00  0.00    -0.313 OA
ATOM     11  C   UNL     1      63.000  85.525  73.097  1.00  0.00     0.170 C 
ATOM     12  C   UNL     1      61.599  85.581  75.231  1.00  0.00     0.049 C 
ATOM     13  C   UNL     1      62.230  83.757  76.863  1.00  0.00     0.011 C 
ATOM     14  C   UNL     1      61.672  85.111  73.778  1.00  0.00     0.122 C 
BRANCH   6  15
ATOM     15  C   UNL     1      65.388  84.666  76.021  1.00  0.00     0.086 C 
ATOM     16  C   UNL     1      66.018  86.022  76.401  1.00  0.00     0.140 CG0
ATOM     17  C   UNL     1      65.443  83.883  77.303  1.00  0.00    -0.010 C 
ATOM     18  C   UNL     1      66.651  85.723  77.743  1.00  0.00     0.190 C 
ATOM     19  G   UNL     1      67.037  86.496  75.366  1.00  0.00     0.000 G0
ATOM     20  C   UNL     1      66.168  84.437  78.281  1.00  0.00    -0.008 C 
ATOM     21  O   UNL     1      67.421  86.458  78.343  1.00  0.00    -0.291 OA
ATOM     22  C   UNL     1      66.505  83.921  79.623  1.00  0.00     0.048 C 
BRANCH  16  23
ATOM     23  O   UNL     1      65.068  87.034  76.693  1.00  0.00    -0.381 OA
ATOM     24  H   UNL     1      65.257  87.804  76.131  1.00  0.00     0.212 HD
ENDBRANCH  16  23
ENDBRANCH   6  15
BRANCH   7  25
ATOM     25  C   UNL     1      63.111  81.961  72.873  1.00  0.00     0.135 C 
BRANCH  25  26
ATOM     26  C   UNL     1      63.697  81.947  71.483  1.00  0.00    -0.040 A 
ATOM     27  C   UNL     1      62.860  82.062  70.373  1.00  0.00     0.004 A 
ATOM     28  C   UNL     1      65.074  81.819  71.307  1.00  0.00     0.004 A 
ATOM     29  C   UNL     1      63.401  82.049  69.087  1.00  0.00     0.000 A 
ATOM     30  C   UNL     1      65.616  81.806  70.021  1.00  0.00     0.000 A 
ATOM     31  C   UNL     1      64.778  81.921  68.911  1.00  0.00     0.000 A 
ENDBRANCH  25  26
ENDBRANCH   7  25
BRANCH  14  32
ATOM     32  C   UNL     1      60.479  85.526  72.979  1.00  0.00    -0.046 C 
ATOM     33  C   UNL     1      59.732  84.426  72.285  1.00  0.00     0.042 C 
ATOM     34  C   UNL     1      60.097  86.809  72.888  1.00  0.00     0.010 C 
ENDBRANCH  14  32
ENDBRANCH   3   4
BRANCH   2  35
ATOM     35  C   UNL     1      67.040  86.488  75.361  1.00  0.00     0.078 CG0
ATOM     36  G   UNL     1      66.018  86.023  76.397  1.00  0.00     0.000 G0
ENDBRANCH   2  35
ENDBRANCH   1   2
BRANCH   1  37
ATOM     37  O   UNL     1      67.584  87.884  72.304  1.00  0.00    -0.461 OA
BRANCH  37  38
ATOM     38  C   UNL     1      68.647  88.379  71.584  1.00  0.00     0.310 C 
ATOM     39  O   UNL     1      68.636  89.420  70.941  1.00  0.00    -0.252 OA
BRANCH  38  40
ATOM     40  C   UNL     1      69.824  87.440  71.712  1.00  0.00     0.158 C 
BRANCH  40  41
ATOM     41  C   UNL     1      71.120  88.058  71.256  1.00  0.00    -0.033 A 
ATOM     42  C   UNL     1      71.776  88.984  72.068  1.00  0.00     0.054 A 
ATOM     43  C   UNL     1      71.666  87.704  70.022  1.00  0.00     0.008 A 
ATOM     44  C   UNL     1      72.976  89.556  71.646  1.00  0.00     0.160 A 
ATOM     45  C   UNL     1      72.866  88.275  69.600  1.00  0.00     0.050 A 
ATOM     46  C   UNL     1      73.521  89.201  70.411  1.00  0.00     0.157 A 
BRANCH  44  47
ATOM     47  O   UNL     1      73.606  90.458  72.447  1.00  0.00    -0.493 OA
ATOM     48  C   UNL     1      72.911  90.881  73.620  1.00  0.00     0.278 C 
ENDBRANCH  44  47
BRANCH  46  49
ATOM     49  O   UNL     1      74.693  89.752  69.989  1.00  0.00    -0.504 OA
ATOM     50  H   UNL     1      75.416  89.429  70.553  1.00  0.00     0.293 HD
ENDBRANCH  46  49
ENDBRANCH  40  41
ENDBRANCH  38  40
ENDBRANCH  37  38
ENDBRANCH   1  37
TORSDOF 11
ENDMDL
MODEL 3
REMARK VINA RESULT:    -5.835     10.150     14.091
REMARK INTER + INTRA:         -11.446
REMARK INTER:                 -10.298
REMARK INTRA:                  -1.149
REMARK UNBOUND:                -1.177
REMARK SMILES C=C(C)[C@]12C[C@@H](C)[C@@]34O[C@](Cc5ccccc5)(O[C@@H]1[C@@H]3C=C(COC(=O)Cc1ccc(O)c(OC)c1)C[C@]1(O)C(=O)C(C)=C[C@@H]41)O2
REMARK SMILES IDX 23 1 22 2 21 3 20 4 9 5 8 6 10 7 6 8 18 9 46 10 19 11 5 12
REMARK SMILES IDX 7 13 4 14 45 15 38 16 44 17 40 18 42 20 41 21 43 22 39 23
REMARK SMILES IDX 11 25 12 26 13 27 17 28 14 29 16 30 15 31 2 32 3 33 1 34
REMARK SMILES IDX 37 35 24 37 25 38 26 39 27 40 28 41 36 42 29 43 33 44 30 45
REMARK SMILES IDX 31 46 34 47 35 48 32 49
REMARK H PARENT 39 24 32 50
REMARK Flexibility Score: 90.00
ROOT
ATOM      1  C   UNL     1      68.191  85.238  72.361  1.00  0.00     0.264 C 
ENDROOT
BRANCH   1   2
ATOM      2  C   UNL     1      67.236  85.795  73.390  1.00  0.00    -0.033 C 
ATOM      3  C   UNL     1      66.091  86.378  72.980  1.00  0.00    -0.015 C 
BRANCH   3   4
ATOM      4  C   UNL     1      65.016  87.074  73.799  1.00  0.00     0.078 C 
ATOM      5  O   UNL     1      63.319  85.365  74.361  1.00  0.00    -0.319 OA
ATOM      6  C   UNL     1      64.309  86.264  74.949  1.00  0.00     0.095 C 
ATOM      7  C   UNL     1      62.520  85.932  73.305  1.00  0.00     0.289 C 
ATOM      8  C   UNL     1      63.575  87.307  75.889  1.00  0.00     0.023 C 
ATOM      9  O   UNL     1      63.337  86.417  72.243  1.00  0.00    -0.320 OA
ATOM     10  O   UNL     1      61.757  87.052  73.746  1.00  0.00    -0.313 OA
ATOM     11  C   UNL     1      63.892  87.586  72.865  1.00  0.00     0.170 C 
ATOM     12  C   UNL     1      63.053  88.535  75.082  1.00  0.00     0.049 C 
ATOM     13  C   UNL     1      62.433  86.735  76.745  1.00  0.00     0.011 C 
ATOM     14  C   UNL     1      62.683  88.154  73.648  1.00  0.00     0.122 C 
BRANCH   6  15
ATOM     15  C   UNL     1      65.319  85.318  75.660  1.00  0.00     0.086 C 
ATOM     16  C   UNL     1      66.710  85.913  75.963  1.00  0.00     0.140 CG0
ATOM     17  C   UNL     1      64.929  84.664  76.956  1.00  0.00    -0.010 C 
ATOM     18  C   UNL     1      67.076  85.240  77.269  1.00  0.00     0.190 C 
ATOM     19  G   UNL     1      67.717  85.621  74.851  1.00  0.00     0.000 G0
ATOM     20  C   UNL     1      65.901  84.580  77.870  1.00  0.00    -0.008 C 
ATOM     21  O   UNL     1      68.177  85.270  77.797  1.00  0.00    -0.291 OA
ATOM     22  C   UNL     1      65.903  83.938  79.200  1.00  0.00     0.048 C 
BRANCH  16  23
ATOM     23  O   UNL     1      66.685  87.293  76.289  1.00  0.00    -0.381 OA
ATOM     24  H   UNL     1      65.804  87.642  76.079  1.00  0.00     0.212 HD
ENDBRANCH  16  23
ENDBRANCH   6  15
BRANCH   7  25
ATOM     25  C   UNL     1      61.587  84.858  72.785  1.00  0.00     0.135 C 
BRANCH  25  26
ATOM     26  C   UNL     1      62.200  83.483  72.877  1.00  0.00    -0.040 A 
ATOM     27  C   UNL     1      63.201  83.104  71.981  1.00  0.00     0.004 A 
ATOM     28  C   UNL     1      61.769  82.591  73.858  1.00  0.00     0.004 A 
ATOM     29  C   UNL     1      63.769  81.832  72.066  1.00  0.00     0.000 A 
ATOM     30  C   UNL     1      62.337  81.319  73.944  1.00  0.00     0.000 A 
ATOM     31  C   UNL     1      63.337  80.941  73.047  1.00  0.00     0.000 A 
ENDBRANCH  25  26
ENDBRANCH   7  25
BRANCH  14  32
ATOM     32  C   UNL     1      62.012  89.268  72.913  1.00  0.00    -0.046 C 
ATOM     33  C   UNL     1      62.916  90.257  72.239  1.00  0.00     0.042 C 
ATOM     34  C   UNL     1      60.676  89.379  72.858  1.00  0.00     0.010 C 
ENDBRANCH  14  32
ENDBRANCH   3   4
BRANCH   2  35
ATOM     35  C   UNL     1      67.719  85.604  74.815  1.00  0.00     0.078 CG0
ATOM     36  G   UNL     1      66.731  85.918  75.937  1.00  0.00     0.000 G0
ENDBRANCH   2  35
ENDBRANCH   1   2
BRANCH   1  37
ATOM     37  O   UNL     1      67.843  85.732  71.085  1.00  0.00    -0.461 OA
BRANCH  37  38
ATOM     38  C   UNL     1      68.888  86.078  70.261  1.00  0.00     0.310 C 
ATOM     39  O   UNL     1      68.874  87.002  69.459  1.00  0.00    -0.252 OA
BRANCH  38  40
ATOM     40  C   UNL     1      70.050  85.143  70.500  1.00  0.00     0.158 C 
BRANCH  40  41
ATOM     41  C   UNL     1      70.413  84.333  69.282  1.00  0.00    -0.033 A 
ATOM     42  C   UNL     1      71.474  84.733  68.469  1.00  0.00     0.054 A 
ATOM     43  C   UNL     1      69.689  83.183  68.968  1.00  0.00     0.008 A 
ATOM     44  C   UNL     1      71.810  83.983  67.342  1.00  0.00     0.160 A 
ATOM     45  C   UNL     1      70.025  82.433  67.841  1.00  0.00     0.050 A 
ATOM     46  C   UNL     1      71.085  82.833  67.027  1.00  0.00     0.157 A 
BRANCH  44  47
ATOM     47  O   UNL     1      72.848  84.384  66.555  1.00  0.00    -0.493 OA
ATOM     48  C   UNL     1      74.148  84.377  67.144  1.00  0.00     0.278 C 
ENDBRANCH  44  47
BRANCH  46  49
ATOM     49  O   UNL     1      71.405  82.092  65.930  1.00  0.00    -0.504 OA
ATOM     50  H   UNL     1      71.770  81.239  66.220  1.00  0.00     0.293 HD
ENDBRANCH  46  49
ENDBRANCH  40  41
ENDBRANCH  38  40
ENDBRANCH  37  38
ENDBRANCH   1  37
TORSDOF 11
ENDMDL
MODEL 4
REMARK VINA RESULT:    -5.730     10.482     15.032
REMARK INTER + INTRA:         -11.262
REMARK INTER:                  -9.336
REMARK INTRA:                  -1.926
REMARK UNBOUND:                -1.177
REMARK SMILES C=C(C)[C@]12C[C@@H](C)[C@@]34O[C@](Cc5ccccc5)(O[C@@H]1[C@@H]3C=C(COC(=O)Cc1ccc(O)c(OC)c1)C[C@]1(O)C(=O)C(C)=C[C@@H]41)O2
REMARK SMILES IDX 23 1 22 2 21 3 20 4 9 5 8 6 10 7 6 8 18 9 46 10 19 11 5 12
REMARK SMILES IDX 7 13 4 14 45 15 38 16 44 17 40 18 42 20 41 21 43 22 39 23
REMARK SMILES IDX 11 25 12 26 13 27 17 28 14 29 16 30 15 31 2 32 3 33 1 34
REMARK SMILES IDX 37 35 24 37 25 38 26 39 27 40 28 41 36 42 29 43 33 44 30 45
REMARK SMILES IDX 31 46 34 47 35 48 32 49
REMARK H PARENT 39 24 32 50
REMARK Flexibility Score: 90.00
ROOT
ATOM      1  C   UNL     1      66.154  88.640  72.973  1.00  0.00     0.264 C 
ENDROOT
BRANCH   1   2
ATOM      2  C   UNL     1      65.243  87.437  72.905  1.00  0.00    -0.033 C 
ATOM      3  C   UNL     1      65.251  86.665  71.800  1.00  0.00    -0.015 C 
BRANCH   3   4
ATOM      4  C   UNL     1      64.388  85.462  71.457  1.00  0.00     0.078 C 
ATOM      5  O   UNL     1      65.614  83.454  72.220  1.00  0.00    -0.319 OA
ATOM      6  C   UNL     1      64.396  84.231  72.437  1.00  0.00     0.095 C 
ATOM      7  C   UNL     1      65.983  83.259  70.841  1.00  0.00     0.289 C 
ATOM      8  C   UNL     1      63.135  83.335  72.093  1.00  0.00     0.023 C 
ATOM      9  O   UNL     1      66.148  84.504  70.169  1.00  0.00    -0.320 OA
ATOM     10  O   UNL     1      64.983  82.555  70.108  1.00  0.00    -0.313 OA
ATOM     11  C   UNL     1      64.776  84.916  70.061  1.00  0.00     0.170 C 
ATOM     12  C   UNL     1      62.800  83.381  70.570  1.00  0.00     0.049 C 
ATOM     13  C   UNL     1      63.221  81.870  72.553  1.00  0.00     0.011 C 
ATOM     14  C   UNL     1      64.054  83.589  69.721  1.00  0.00     0.122 C 
BRANCH   6  15
ATOM     15  C   UNL     1      64.496  84.704  73.917  1.00  0.00     0.086 C 
ATOM     16  C   UNL     1      63.627  85.919  74.302  1.00  0.00     0.140 CG0
ATOM     17  C   UNL     1      64.232  83.721  75.023  1.00  0.00    -0.010 C 
ATOM     18  C   UNL     1      63.249  85.609  75.735  1.00  0.00     0.190 C 
ATOM     19  G   UNL     1      64.389  87.237  74.170  1.00  0.00     0.000 G0
ATOM     20  C   UNL     1      63.559  84.207  76.071  1.00  0.00    -0.008 C 
ATOM     21  O   UNL     1      62.712  86.386  76.510  1.00  0.00    -0.291 OA
ATOM     22  C   UNL     1      63.200  83.564  77.352  1.00  0.00     0.048 C 
BRANCH  16  23
ATOM     23  O   UNL     1      62.381  85.971  73.627  1.00  0.00    -0.381 OA
ATOM     24  H   UNL     1      62.353  86.785  73.097  1.00  0.00     0.212 HD
ENDBRANCH  16  23
ENDBRANCH   6  15
BRANCH   7  25
ATOM     25  C   UNL     1      67.281  82.479  70.802  1.00  0.00     0.135 C 
BRANCH  25  26
ATOM     26  C   UNL     1      68.427  83.315  70.290  1.00  0.00    -0.040 A 
ATOM     27  C   UNL     1      68.630  83.453  68.916  1.00  0.00     0.004 A 
ATOM     28  C   UNL     1      69.283  83.952  71.188  1.00  0.00     0.004 A 
ATOM     29  C   UNL     1      69.690  84.227  68.441  1.00  0.00     0.000 A 
ATOM     30  C   UNL     1      70.343  84.725  70.713  1.00  0.00     0.000 A 
ATOM     31  C   UNL     1      70.546  84.862  69.340  1.00  0.00     0.000 A 
ENDBRANCH  25  26
ENDBRANCH   7  25
BRANCH  14  32
ATOM     32  C   UNL     1      63.785  83.455  68.257  1.00  0.00    -0.046 C 
ATOM     33  C   UNL     1      64.557  84.372  67.356  1.00  0.00     0.042 C 
ATOM     34  C   UNL     1      62.904  82.565  67.776  1.00  0.00     0.010 C 
ENDBRANCH  14  32
ENDBRANCH   3   4
BRANCH   2  35
ATOM     35  C   UNL     1      64.409  87.251  74.159  1.00  0.00     0.078 CG0
ATOM     36  G   UNL     1      63.660  85.928  74.310  1.00  0.00     0.000 G0
ENDBRANCH   2  35
ENDBRANCH   1   2
BRANCH   1  37
ATOM     37  O   UNL     1      65.827  89.410  74.109  1.00  0.00    -0.461 OA
BRANCH  37  38
ATOM     38  C   UNL     1      66.879  89.794  74.908  1.00  0.00     0.310 C 
ATOM     39  O   UNL     1      67.054  90.923  75.346  1.00  0.00    -0.252 OA
BRANCH  38  40
ATOM     40  C   UNL     1      67.782  88.608  75.157  1.00  0.00     0.158 C 
BRANCH  40  41
ATOM     41  C   UNL     1      67.255  87.682  76.223  1.00  0.00    -0.033 A 
ATOM     42  C   UNL     1      66.678  88.208  77.381  1.00  0.00     0.054 A 
ATOM     43  C   UNL     1      67.342  86.301  76.053  1.00  0.00     0.008 A 
ATOM     44  C   UNL     1      66.190  87.351  78.367  1.00  0.00     0.160 A 
ATOM     45  C   UNL     1      66.855  85.444  77.040  1.00  0.00     0.050 A 
ATOM     46  C   UNL     1      66.279  85.968  78.197  1.00  0.00     0.157 A 
BRANCH  44  47
ATOM     47  O   UNL     1      65.630  87.875  79.493  1.00  0.00    -0.493 OA
ATOM     48  C   UNL     1      65.826  89.269  79.725  1.00  0.00     0.278 C 
ENDBRANCH  44  47
BRANCH  46  49
ATOM     49  O   UNL     1      65.805  85.122  79.153  1.00  0.00    -0.504 OA
ATOM     50  H   UNL     1      66.554  84.667  79.573  1.00  0.00     0.293 HD
ENDBRANCH  46  49
ENDBRANCH  40  41
ENDBRANCH  38  40
ENDBRANCH  37  38
ENDBRANCH   1  37
TORSDOF 11
ENDMDL
MODEL 5
REMARK VINA RESULT:    -5.587     11.835     15.984
REMARK INTER + INTRA:         -11.009
REMARK INTER:                  -9.565
REMARK INTRA:                  -1.445
REMARK UNBOUND:                -1.177
REMARK SMILES C=C(C)[C@]12C[C@@H](C)[C@@]34O[C@](Cc5ccccc5)(O[C@@H]1[C@@H]3C=C(COC(=O)Cc1ccc(O)c(OC)c1)C[C@]1(O)C(=O)C(C)=C[C@@H]41)O2
REMARK SMILES IDX 23 1 22 2 21 3 20 4 9 5 8 6 10 7 6 8 18 9 46 10 19 11 5 12
REMARK SMILES IDX 7 13 4 14 45 15 38 16 44 17 40 18 42 20 41 21 43 22 39 23
REMARK SMILES IDX 11 25 12 26 13 27 17 28 14 29 16 30 15 31 2 32 3 33 1 34
REMARK SMILES IDX 37 35 24 37 25 38 26 39 27 40 28 41 36 42 29 43 33 44 30 45
REMARK SMILES IDX 31 46 34 47 35 48 32 49
REMARK H PARENT 39 24 32 50
REMARK Flexibility Score: 90.00
ROOT
ATOM      1  C   UNL     1      65.913  88.806  74.416  1.00  0.00     0.264 C 
ENDROOT
BRANCH   1   2
ATOM      2  C   UNL     1      64.755  87.838  74.498  1.00  0.00    -0.033 C 
ATOM      3  C   UNL     1      64.331  87.221  73.377  1.00  0.00    -0.015 C 
BRANCH   3   4
ATOM      4  C   UNL     1      63.156  86.277  73.182  1.00  0.00     0.078 C 
ATOM      5  O   UNL     1      64.026  83.977  73.458  1.00  0.00    -0.319 OA
ATOM      6  C   UNL     1      63.107  84.955  74.036  1.00  0.00     0.095 C 
ATOM      7  C   UNL     1      64.006  83.887  72.020  1.00  0.00     0.289 C 
ATOM      8  C   UNL     1      61.628  84.391  73.962  1.00  0.00     0.023 C 
ATOM      9  O   UNL     1      64.294  85.147  71.420  1.00  0.00    -0.320 OA
ATOM     10  O   UNL     1      62.727  83.506  71.520  1.00  0.00    -0.313 OA
ATOM     11  C   UNL     1      63.070  85.845  71.697  1.00  0.00     0.170 C 
ATOM     12  C   UNL     1      60.966  84.700  72.584  1.00  0.00     0.049 C 
ATOM     13  C   UNL     1      61.476  82.894  74.278  1.00  0.00     0.011 C 
ATOM     14  C   UNL     1      62.000  84.750  71.459  1.00  0.00     0.122 C 
BRANCH   6  15
ATOM     15  C   UNL     1      63.657  85.204  75.470  1.00  0.00     0.086 C 
ATOM     16  C   UNL     1      63.216  86.518  76.149  1.00  0.00     0.140 CG0
ATOM     17  C   UNL     1      63.433  84.168  76.535  1.00  0.00    -0.010 C 
ATOM     18  C   UNL     1      63.119  86.115  77.605  1.00  0.00     0.190 C 
ATOM     19  G   UNL     1      64.216  87.650  75.920  1.00  0.00     0.000 G0
ATOM     20  C   UNL     1      63.156  84.648  77.752  1.00  0.00    -0.008 C 
ATOM     21  O   UNL     1      62.976  86.884  78.544  1.00  0.00    -0.291 OA
ATOM     22  C   UNL     1      62.963  83.939  79.034  1.00  0.00     0.048 C 
BRANCH  16  23
ATOM     23  O   UNL     1      61.896  86.919  75.820  1.00  0.00    -0.381 OA
ATOM     24  H   UNL     1      61.395  86.132  75.547  1.00  0.00     0.212 HD
ENDBRANCH  16  23
ENDBRANCH   6  15
BRANCH   7  25
ATOM     25  C   UNL     1      65.042  82.867  71.593  1.00  0.00     0.135 C 
BRANCH  25  26
ATOM     26  C   UNL     1      65.545  83.124  70.195  1.00  0.00    -0.040 A 
ATOM     27  C   UNL     1      64.727  82.849  69.098  1.00  0.00     0.004 A 
ATOM     28  C   UNL     1      66.826  83.638  69.997  1.00  0.00     0.004 A 
ATOM     29  C   UNL     1      65.192  83.087  67.804  1.00  0.00     0.000 A 
ATOM     30  C   UNL     1      67.291  83.875  68.703  1.00  0.00     0.000 A 
ATOM     31  C   UNL     1      66.474  83.599  67.607  1.00  0.00     0.000 A 
ENDBRANCH  25  26
ENDBRANCH   7  25
BRANCH  14  32
ATOM     32  C   UNL     1      61.373  84.863  70.107  1.00  0.00    -0.046 C 
ATOM     33  C   UNL     1      61.632  86.138  69.361  1.00  0.00     0.042 C 
ATOM     34  C   UNL     1      60.621  83.880  69.590  1.00  0.00     0.010 C 
ENDBRANCH  14  32
ENDBRANCH   3   4
BRANCH   2  35
ATOM     35  C   UNL     1      64.208  87.684  75.905  1.00  0.00     0.078 CG0
ATOM     36  G   UNL     1      63.241  86.527  76.155  1.00  0.00     0.000 G0
ENDBRANCH   2  35
ENDBRANCH   1   2
BRANCH   1  37
ATOM     37  O   UNL     1      65.731  89.833  75.367  1.00  0.00    -0.461 OA
BRANCH  37  38
ATOM     38  C   UNL     1      66.860  90.252  76.033  1.00  0.00     0.310 C 
ATOM     39  O   UNL     1      67.157  91.419  76.245  1.00  0.00    -0.252 OA
BRANCH  38  40
ATOM     40  C   UNL     1      67.669  89.050  76.459  1.00  0.00     0.158 C 
BRANCH  40  41
ATOM     41  C   UNL     1      67.113  88.371  77.684  1.00  0.00    -0.033 A 
ATOM     42  C   UNL     1      67.014  86.980  77.726  1.00  0.00     0.054 A 
ATOM     43  C   UNL     1      66.699  89.132  78.777  1.00  0.00     0.008 A 
ATOM     44  C   UNL     1      66.499  86.351  78.860  1.00  0.00     0.160 A 
ATOM     45  C   UNL     1      66.184  88.504  79.910  1.00  0.00     0.050 A 
ATOM     46  C   UNL     1      66.084  87.113  79.952  1.00  0.00     0.157 A 
BRANCH  44  47
ATOM     47  O   UNL     1      66.407  84.992  78.888  1.00  0.00    -0.493 OA
ATOM     48  C   UNL     1      67.248  84.304  79.813  1.00  0.00     0.278 C 
ENDBRANCH  44  47
BRANCH  46  49
ATOM     49  O   UNL     1      65.581  86.510  81.065  1.00  0.00    -0.504 OA
ATOM     50  H   UNL     1      65.139  85.685  80.805  1.00  0.00     0.293 HD
ENDBRANCH  46  49
ENDBRANCH  40  41
ENDBRANCH  38  40
ENDBRANCH  37  38
ENDBRANCH   1  37
TORSDOF 11
ENDMDL
MODEL 6
REMARK VINA RESULT:    -5.499     24.761     28.174
REMARK INTER + INTRA:         -10.855
REMARK INTER:                  -8.232
REMARK INTRA:                  -2.623
REMARK UNBOUND:                -1.177
REMARK SMILES C=C(C)[C@]12C[C@@H](C)[C@@]34O[C@](Cc5ccccc5)(O[C@@H]1[C@@H]3C=C(COC(=O)Cc1ccc(O)c(OC)c1)C[C@]1(O)C(=O)C(C)=C[C@@H]41)O2
REMARK SMILES IDX 23 1 22 2 21 3 20 4 9 5 8 6 10 7 6 8 18 9 46 10 19 11 5 12
REMARK SMILES IDX 7 13 4 14 45 15 38 16 44 17 40 18 42 20 41 21 43 22 39 23
REMARK SMILES IDX 11 25 12 26 13 27 17 28 14 29 16 30 15 31 2 32 3 33 1 34
REMARK SMILES IDX 37 35 24 37 25 38 26 39 27 40 28 41 36 42 29 43 33 44 30 45
REMARK SMILES IDX 31 46 34 47 35 48 32 49
REMARK H PARENT 39 24 32 50
REMARK Flexibility Score: 90.00
ROOT
ATOM      1  C   UNL     1      91.412  65.590  72.071  1.00  0.00     0.264 C 
ENDROOT
BRANCH   1   2
ATOM      2  C   UNL     1      90.188  66.371  71.651  1.00  0.00    -0.033 C 
ATOM      3  C   UNL     1      89.017  66.150  72.281  1.00  0.00    -0.015 C 
BRANCH   3   4
ATOM      4  C   UNL     1      87.644  66.739  72.000  1.00  0.00     0.078 C 
ATOM      5  O   UNL     1      87.406  68.732  73.445  1.00  0.00    -0.319 OA
ATOM      6  C   UNL     1      87.476  68.303  72.050  1.00  0.00     0.095 C 
ATOM      7  C   UNL     1      86.594  67.909  74.304  1.00  0.00     0.289 C 
ATOM      8  C   UNL     1      86.115  68.664  71.323  1.00  0.00     0.023 C 
ATOM      9  O   UNL     1      87.042  66.556  74.298  1.00  0.00    -0.320 OA
ATOM     10  O   UNL     1      85.233  67.866  73.882  1.00  0.00    -0.313 OA
ATOM     11  C   UNL     1      86.607  66.152  72.990  1.00  0.00     0.170 C 
ATOM     12  C   UNL     1      85.044  67.549  71.531  1.00  0.00     0.049 C 
ATOM     13  C   UNL     1      85.511  70.028  71.692  1.00  0.00     0.011 C 
ATOM     14  C   UNL     1      85.222  66.836  72.872  1.00  0.00     0.122 C 
BRANCH   6  15
ATOM     15  C   UNL     1      88.742  69.012  71.489  1.00  0.00     0.086 C 
ATOM     16  C   UNL     1      89.353  68.401  70.211  1.00  0.00     0.140 CG0
ATOM     17  C   UNL     1      88.688  70.483  71.182  1.00  0.00    -0.010 C 
ATOM     18  C   UNL     1      89.875  69.622  69.483  1.00  0.00     0.190 C 
ATOM     19  G   UNL     1      90.456  67.391  70.524  1.00  0.00     0.000 G0
ATOM     20  C   UNL     1      89.338  70.861  70.076  1.00  0.00    -0.008 C 
ATOM     21  O   UNL     1      90.602  69.605  68.501  1.00  0.00    -0.291 OA
ATOM     22  C   UNL     1      89.563  72.211  69.520  1.00  0.00     0.048 C 
BRANCH  16  23
ATOM     23  O   UNL     1      88.394  67.860  69.318  1.00  0.00    -0.381 OA
ATOM     24  H   UNL     1      87.516  67.935  69.728  1.00  0.00     0.212 HD
ENDBRANCH  16  23
ENDBRANCH   6  15
BRANCH   7  25
ATOM     25  C   UNL     1      86.670  68.468  75.710  1.00  0.00     0.135 C 
BRANCH  25  26
ATOM     26  C   UNL     1      88.058  68.354  76.289  1.00  0.00    -0.040 A 
ATOM     27  C   UNL     1      88.458  67.171  76.912  1.00  0.00     0.004 A 
ATOM     28  C   UNL     1      88.942  69.428  76.200  1.00  0.00     0.004 A 
ATOM     29  C   UNL     1      89.742  67.065  77.448  1.00  0.00     0.000 A 
ATOM     30  C   UNL     1      90.226  69.322  76.736  1.00  0.00     0.000 A 
ATOM     31  C   UNL     1      90.626  68.140  77.360  1.00  0.00     0.000 A 
ENDBRANCH  25  26
ENDBRANCH   7  25
BRANCH  14  32
ATOM     32  C   UNL     1      84.103  65.893  73.174  1.00  0.00    -0.046 C 
ATOM     33  C   UNL     1      83.769  65.704  74.624  1.00  0.00     0.042 C 
ATOM     34  C   UNL     1      83.436  65.250  72.204  1.00  0.00     0.010 C 
ENDBRANCH  14  32
ENDBRANCH   3   4
BRANCH   2  35
ATOM     35  C   UNL     1      90.464  67.350  70.526  1.00  0.00     0.078 CG0
ATOM     36  G   UNL     1      89.383  68.386  70.220  1.00  0.00     0.000 G0
ENDBRANCH   2  35
ENDBRANCH   1   2
BRANCH   1  37
ATOM     37  O   UNL     1      92.463  66.488  72.355  1.00  0.00    -0.461 OA
BRANCH  37  38
ATOM     38  C   UNL     1      92.612  66.853  73.673  1.00  0.00     0.310 C 
ATOM     39  O   UNL     1      91.980  66.381  74.608  1.00  0.00    -0.252 OA
BRANCH  38  40
ATOM     40  C   UNL     1      93.672  67.923  73.784  1.00  0.00     0.158 C 
BRANCH  40  41
ATOM     41  C   UNL     1      93.099  69.299  74.005  1.00  0.00    -0.033 A 
ATOM     42  C   UNL     1      93.372  69.986  75.188  1.00  0.00     0.054 A 
ATOM     43  C   UNL     1      92.295  69.885  73.027  1.00  0.00     0.008 A 
ATOM     44  C   UNL     1      92.841  71.260  75.393  1.00  0.00     0.160 A 
ATOM     45  C   UNL     1      91.764  71.159  73.232  1.00  0.00     0.050 A 
ATOM     46  C   UNL     1      92.036  71.846  74.414  1.00  0.00     0.157 A 
BRANCH  44  47
ATOM     47  O   UNL     1      93.114  71.921  76.552  1.00  0.00    -0.493 OA
ATOM     48  C   UNL     1      94.488  72.056  76.913  1.00  0.00     0.278 C 
ENDBRANCH  44  47
BRANCH  46  49
ATOM     49  O   UNL     1      91.514  73.089  74.602  1.00  0.00    -0.504 OA
ATOM     50  H   UNL     1      90.630  73.126  74.199  1.00  0.00     0.293 HD
ENDBRANCH  46  49
ENDBRANCH  40  41
ENDBRANCH  38  40
ENDBRANCH  37  38
ENDBRANCH   1  37
TORSDOF 11
ENDMDL
MODEL 7
REMARK VINA RESULT:    -5.469      3.661      6.243
REMARK INTER + INTRA:         -10.802
REMARK INTER:                  -9.068
REMARK INTRA:                  -1.734
REMARK UNBOUND:                -1.177
REMARK SMILES C=C(C)[C@]12C[C@@H](C)[C@@]34O[C@](Cc5ccccc5)(O[C@@H]1[C@@H]3C=C(COC(=O)Cc1ccc(O)c(OC)c1)C[C@]1(O)C(=O)C(C)=C[C@@H]41)O2
REMARK SMILES IDX 23 1 22 2 21 3 20 4 9 5 8 6 10 7 6 8 18 9 46 10 19 11 5 12
REMARK SMILES IDX 7 13 4 14 45 15 38 16 44 17 40 18 42 20 41 21 43 22 39 23
REMARK SMILES IDX 11 25 12 26 13 27 17 28 14 29 16 30 15 31 2 32 3 33 1 34
REMARK SMILES IDX 37 35 24 37 25 38 26 39 27 40 28 41 36 42 29 43 33 44 30 45
REMARK SMILES IDX 31 46 34 47 35 48 32 49
REMARK H PARENT 39 24 32 50
REMARK Flexibility Score: 90.00
ROOT
ATOM      1  C   UNL     1      72.059  91.497  76.465  1.00  0.00     0.264 C 
ENDROOT
BRANCH   1   2
ATOM      2  C   UNL     1      73.317  92.304  76.683  1.00  0.00    -0.033 C 
ATOM      3  C   UNL     1      74.150  92.520  75.645  1.00  0.00    -0.015 C 
BRANCH   3   4
ATOM      4  C   UNL     1      75.498  93.222  75.619  1.00  0.00     0.078 C 
ATOM      5  O   UNL     1      75.065  95.590  75.048  1.00  0.00    -0.319 OA
ATOM      6  C   UNL     1      75.572  94.718  76.105  1.00  0.00     0.095 C 
ATOM      7  C   UNL     1      75.500  95.261  73.715  1.00  0.00     0.289 C 
ATOM      8  C   UNL     1      77.095  95.059  76.379  1.00  0.00     0.023 C 
ATOM      9  O   UNL     1      75.143  93.925  73.370  1.00  0.00    -0.320 OA
ATOM     10  O   UNL     1      76.917  95.329  73.577  1.00  0.00    -0.313 OA
ATOM     11  C   UNL     1      76.077  93.197  74.183  1.00  0.00     0.170 C 
ATOM     12  C   UNL     1      78.037  94.291  75.401  1.00  0.00     0.049 C 
ATOM     13  C   UNL     1      77.450  96.554  76.363  1.00  0.00     0.011 C 
ATOM     14  C   UNL     1      77.368  94.043  74.049  1.00  0.00     0.122 C 
BRANCH   6  15
ATOM     15  C   UNL     1      74.607  94.957  77.302  1.00  0.00     0.086 C 
ATOM     16  C   UNL     1      74.578  93.856  78.383  1.00  0.00     0.140 CG0
ATOM     17  C   UNL     1      74.724  96.226  78.100  1.00  0.00    -0.010 C 
ATOM     18  C   UNL     1      74.342  94.649  79.651  1.00  0.00     0.190 C 
ATOM     19  G   UNL     1      73.480  92.825  78.125  1.00  0.00     0.000 G0
ATOM     20  C   UNL     1      74.552  96.091  79.419  1.00  0.00    -0.008 C 
ATOM     21  O   UNL     1      74.066  94.175  80.742  1.00  0.00    -0.291 OA
ATOM     22  C   UNL     1      74.516  97.115  80.484  1.00  0.00     0.048 C 
BRANCH  16  23
ATOM     23  O   UNL     1      75.833  93.233  78.601  1.00  0.00    -0.381 OA
ATOM     24  H   UNL     1      75.675  92.315  78.879  1.00  0.00     0.212 HD
ENDBRANCH  16  23
ENDBRANCH   6  15
BRANCH   7  25
ATOM     25  C   UNL     1      74.850  96.230  72.749  1.00  0.00     0.135 C 
BRANCH  25  26
ATOM     26  C   UNL     1      75.619  96.342  71.456  1.00  0.00    -0.040 A 
ATOM     27  C   UNL     1      76.250  97.540  71.122  1.00  0.00     0.004 A 
ATOM     28  C   UNL     1      75.701  95.247  70.597  1.00  0.00     0.004 A 
ATOM     29  C   UNL     1      76.961  97.644  69.926  1.00  0.00     0.000 A 
ATOM     30  C   UNL     1      76.412  95.350  69.401  1.00  0.00     0.000 A 
ATOM     31  C   UNL     1      77.042  96.549  69.066  1.00  0.00     0.000 A 
ENDBRANCH  25  26
ENDBRANCH   7  25
BRANCH  14  32
ATOM     32  C   UNL     1      78.309  93.474  73.038  1.00  0.00    -0.046 C 
ATOM     33  C   UNL     1      79.339  94.416  72.488  1.00  0.00     0.042 C 
ATOM     34  C   UNL     1      78.238  92.194  72.644  1.00  0.00     0.010 C 
ENDBRANCH  14  32
ENDBRANCH   3   4
BRANCH   2  35
ATOM     35  C   UNL     1      73.472  92.790  78.111  1.00  0.00     0.078 CG0
ATOM     36  G   UNL     1      74.561  93.827  78.383  1.00  0.00     0.000 G0
ENDBRANCH   2  35
ENDBRANCH   1   2
BRANCH   1  37
ATOM     37  O   UNL     1      71.433  91.921  75.273  1.00  0.00    -0.461 OA
BRANCH  37  38
ATOM     38  C   UNL     1      71.204  90.949  74.327  1.00  0.00     0.310 C 
ATOM     39  O   UNL     1      70.189  90.854  73.649  1.00  0.00    -0.252 OA
BRANCH  38  40
ATOM     40  C   UNL     1      72.395  90.023  74.257  1.00  0.00     0.158 C 
BRANCH  40  41
ATOM     41  C   UNL     1      72.946  89.879  72.861  1.00  0.00    -0.033 A 
ATOM     42  C   UNL     1      72.501  88.843  72.039  1.00  0.00     0.054 A 
ATOM     43  C   UNL     1      73.900  90.780  72.392  1.00  0.00     0.008 A 
ATOM     44  C   UNL     1      73.011  88.709  70.748  1.00  0.00     0.160 A 
ATOM     45  C   UNL     1      74.411  90.647  71.100  1.00  0.00     0.050 A 
ATOM     46  C   UNL     1      73.967  89.612  70.278  1.00  0.00     0.157 A 
BRANCH  44  47
ATOM     47  O   UNL     1      72.569  87.694  69.955  1.00  0.00    -0.493 OA
ATOM     48  C   UNL     1      71.476  86.919  70.443  1.00  0.00     0.278 C 
ENDBRANCH  44  47
BRANCH  46  49
ATOM     49  O   UNL     1      74.471  89.492  69.019  1.00  0.00    -0.504 OA
ATOM     50  H   UNL     1      74.905  90.326  68.771  1.00  0.00     0.293 HD
ENDBRANCH  46  49
ENDBRANCH  40  41
ENDBRANCH  38  40
ENDBRANCH  37  38
ENDBRANCH   1  37
TORSDOF 11
ENDMDL
MODEL 8
REMARK VINA RESULT:    -5.466     12.086     15.714
REMARK INTER + INTRA:         -10.797
REMARK INTER:                  -9.234
REMARK INTRA:                  -1.563
REMARK UNBOUND:                -1.177
REMARK SMILES C=C(C)[C@]12C[C@@H](C)[C@@]34O[C@](Cc5ccccc5)(O[C@@H]1[C@@H]3C=C(COC(=O)Cc1ccc(O)c(OC)c1)C[C@]1(O)C(=O)C(C)=C[C@@H]41)O2
REMARK SMILES IDX 23 1 22 2 21 3 20 4 9 5 8 6 10 7 6 8 18 9 46 10 19 11 5 12
REMARK SMILES IDX 7 13 4 14 45 15 38 16 44 17 40 18 42 20 41 21 43 22 39 23
REMARK SMILES IDX 11 25 12 26 13 27 17 28 14 29 16 30 15 31 2 32 3 33 1 34
REMARK SMILES IDX 37 35 24 37 25 38 26 39 27 40 28 41 36 42 29 43 33 44 30 45
REMARK SMILES IDX 31 46 34 47 35 48 32 49
REMARK H PARENT 39 24 32 50
REMARK Flexibility Score: 90.00
ROOT
ATOM      1  C   UNL     1      63.011  88.446  75.485  1.00  0.00     0.264 C 
ENDROOT
BRANCH   1   2
ATOM      2  C   UNL     1      62.106  87.549  74.673  1.00  0.00    -0.033 C 
ATOM      3  C   UNL     1      61.479  88.052  73.590  1.00  0.00    -0.015 C 
BRANCH   3   4
ATOM      4  C   UNL     1      60.471  87.389  72.665  1.00  0.00     0.078 C 
ATOM      5  O   UNL     1      61.751  86.413  70.787  1.00  0.00    -0.319 OA
ATOM      6  C   UNL     1      60.895  86.069  71.919  1.00  0.00     0.095 C 
ATOM      7  C   UNL     1      61.325  87.551  70.015  1.00  0.00     0.289 C 
ATOM      8  C   UNL     1      59.574  85.375  71.385  1.00  0.00     0.023 C 
ATOM      9  O   UNL     1      61.212  88.715  70.829  1.00  0.00    -0.320 OA
ATOM     10  O   UNL     1      60.037  87.360  69.435  1.00  0.00    -0.313 OA
ATOM     11  C   UNL     1      60.025  88.390  71.570  1.00  0.00     0.170 C 
ATOM     12  C   UNL     1      58.495  86.429  70.989  1.00  0.00     0.049 C 
ATOM     13  C   UNL     1      59.771  84.385  70.226  1.00  0.00     0.011 C 
ATOM     14  C   UNL     1      59.129  87.729  70.493  1.00  0.00     0.122 C 
BRANCH   6  15
ATOM     15  C   UNL     1      61.793  85.184  72.831  1.00  0.00     0.086 C 
ATOM     16  C   UNL     1      61.356  85.065  74.306  1.00  0.00     0.140 CG0
ATOM     17  C   UNL     1      62.071  83.761  72.433  1.00  0.00    -0.010 C 
ATOM     18  C   UNL     1      61.762  83.648  74.653  1.00  0.00     0.190 C 
ATOM     19  G   UNL     1      62.038  86.104  75.195  1.00  0.00     0.000 G0
ATOM     20  C   UNL     1      62.088  82.879  73.438  1.00  0.00    -0.008 C 
ATOM     21  O   UNL     1      61.775  83.171  75.778  1.00  0.00    -0.291 OA
ATOM     22  C   UNL     1      62.404  81.436  73.431  1.00  0.00     0.048 C 
BRANCH  16  23
ATOM     23  O   UNL     1      59.950  85.069  74.491  1.00  0.00    -0.381 OA
ATOM     24  H   UNL     1      59.748  84.601  75.318  1.00  0.00     0.212 HD
ENDBRANCH  16  23
ENDBRANCH   6  15
BRANCH   7  25
ATOM     25  C   UNL     1      62.343  87.791  68.918  1.00  0.00     0.135 C 
BRANCH  25  26
ATOM     26  C   UNL     1      62.969  89.160  69.017  1.00  0.00    -0.040 A 
ATOM     27  C   UNL     1      62.521  90.192  68.193  1.00  0.00     0.004 A 
ATOM     28  C   UNL     1      63.994  89.394  69.934  1.00  0.00     0.004 A 
ATOM     29  C   UNL     1      63.100  91.459  68.284  1.00  0.00     0.000 A 
ATOM     30  C   UNL     1      64.572  90.660  70.025  1.00  0.00     0.000 A 
ATOM     31  C   UNL     1      64.125  91.692  69.200  1.00  0.00     0.000 A 
ENDBRANCH  25  26
ENDBRANCH   7  25
BRANCH  14  32
ATOM     32  C   UNL     1      58.123  88.684  69.938  1.00  0.00    -0.046 C 
ATOM     33  C   UNL     1      58.379  90.139  70.195  1.00  0.00     0.042 C 
ATOM     34  C   UNL     1      57.051  88.264  69.249  1.00  0.00     0.010 C 
ENDBRANCH  14  32
ENDBRANCH   3   4
BRANCH   2  35
ATOM     35  C   UNL     1      62.031  86.133  75.213  1.00  0.00     0.078 CG0
ATOM     36  G   UNL     1      61.374  85.080  74.322  1.00  0.00     0.000 G0
ENDBRANCH   2  35
ENDBRANCH   1   2
BRANCH   1  37
ATOM     37  O   UNL     1      64.352  88.221  75.106  1.00  0.00    -0.461 OA
BRANCH  37  38
ATOM     38  C   UNL     1      65.226  87.908  76.121  1.00  0.00     0.310 C 
ATOM     39  O   UNL     1      64.900  87.521  77.235  1.00  0.00    -0.252 OA
BRANCH  38  40
ATOM     40  C   UNL     1      66.646  88.116  75.647  1.00  0.00     0.158 C 
BRANCH  40  41
ATOM     41  C   UNL     1      66.977  87.316  74.414  1.00  0.00    -0.033 A 
ATOM     42  C   UNL     1      67.572  87.940  73.317  1.00  0.00     0.054 A 
ATOM     43  C   UNL     1      66.690  85.952  74.370  1.00  0.00     0.008 A 
ATOM     44  C   UNL     1      67.879  87.199  72.176  1.00  0.00     0.160 A 
ATOM     45  C   UNL     1      66.997  85.211  73.229  1.00  0.00     0.050 A 
ATOM     46  C   UNL     1      67.591  85.834  72.132  1.00  0.00     0.157 A 
BRANCH  44  47
ATOM     47  O   UNL     1      68.460  87.819  71.111  1.00  0.00    -0.493 OA
ATOM     48  C   UNL     1      67.808  88.982  70.604  1.00  0.00     0.278 C 
ENDBRANCH  44  47
BRANCH  46  49
ATOM     49  O   UNL     1      67.888  85.100  71.023  1.00  0.00    -0.504 OA
ATOM     50  H   UNL     1      68.448  85.631  70.432  1.00  0.00     0.293 HD
ENDBRANCH  46  49
ENDBRANCH  40  41
ENDBRANCH  38  40
ENDBRANCH  37  38
ENDBRANCH   1  37
TORSDOF 11
ENDMDL
MODEL 9
REMARK VINA RESULT:    -5.252     17.319     21.577
REMARK INTER + INTRA:         -10.420
REMARK INTER:                  -8.461
REMARK INTRA:                  -1.958
REMARK UNBOUND:                -1.177
REMARK SMILES C=C(C)[C@]12C[C@@H](C)[C@@]34O[C@](Cc5ccccc5)(O[C@@H]1[C@@H]3C=C(COC(=O)Cc1ccc(O)c(OC)c1)C[C@]1(O)C(=O)C(C)=C[C@@H]41)O2
REMARK SMILES IDX 23 1 22 2 21 3 20 4 9 5 8 6 10 7 6 8 18 9 46 10 19 11 5 12
REMARK SMILES IDX 7 13 4 14 45 15 38 16 44 17 40 18 42 20 41 21 43 22 39 23
REMARK SMILES IDX 11 25 12 26 13 27 17 28 14 29 16 30 15 31 2 32 3 33 1 34
REMARK SMILES IDX 37 35 24 37 25 38 26 39 27 40 28 41 36 42 29 43 33 44 30 45
REMARK SMILES IDX 31 46 34 47 35 48 32 49
REMARK H PARENT 39 24 32 50
REMARK Flexibility Score: 90.00
ROOT
ATOM      1  C   UNL     1      92.729 103.408  73.308  1.00  0.00     0.264 C 
ENDROOT
BRANCH   1   2
ATOM      2  C   UNL     1      93.702 102.713  74.231  1.00  0.00    -0.033 C 
ATOM      3  C   UNL     1      93.595 101.382  74.422  1.00  0.00    -0.015 C 
BRANCH   3   4
ATOM      4  C   UNL     1      94.389 100.473  75.345  1.00  0.00     0.078 C 
ATOM      5  O   UNL     1      96.286  99.586  74.028  1.00  0.00    -0.319 OA
ATOM      6  C   UNL     1      95.954 100.420  75.181  1.00  0.00     0.095 C 
ATOM      7  C   UNL     1      95.524  98.370  73.907  1.00  0.00     0.289 C 
ATOM      8  C   UNL     1      96.552  99.763  76.492  1.00  0.00     0.023 C 
ATOM      9  O   UNL     1      94.125  98.640  73.847  1.00  0.00    -0.320 OA
ATOM     10  O   UNL     1      95.701  97.507  75.027  1.00  0.00    -0.313 OA
ATOM     11  C   UNL     1      93.883  99.016  75.212  1.00  0.00     0.170 C 
ATOM     12  C   UNL     1      95.586  98.692  77.087  1.00  0.00     0.049 C 
ATOM     13  C   UNL     1      97.958  99.157  76.345  1.00  0.00     0.011 C 
ATOM     14  C   UNL     1      94.759  98.009  75.997  1.00  0.00     0.122 C 
BRANCH   6  15
ATOM     15  C   UNL     1      96.518 101.825  74.819  1.00  0.00     0.086 C 
ATOM     16  C   UNL     1      95.922 103.017  75.595  1.00  0.00     0.140 CG0
ATOM     17  C   UNL     1      98.000 102.065  74.895  1.00  0.00    -0.010 C 
ATOM     18  C   UNL     1      97.107 103.951  75.720  1.00  0.00     0.190 C 
ATOM     19  G   UNL     1      94.748 103.658  74.854  1.00  0.00     0.000 G0
ATOM     20  C   UNL     1      98.363 103.260  75.371  1.00  0.00    -0.008 C 
ATOM     21  O   UNL     1      97.059 105.109  76.105  1.00  0.00    -0.291 OA
ATOM     22  C   UNL     1      99.705 103.863  75.507  1.00  0.00     0.048 C 
BRANCH  16  23
ATOM     23  O   UNL     1      95.584 102.717  76.939  1.00  0.00    -0.381 OA
ATOM     24  H   UNL     1      94.617 102.648  77.004  1.00  0.00     0.212 HD
ENDBRANCH  16  23
ENDBRANCH   6  15
BRANCH   7  25
ATOM     25  C   UNL     1      95.962  97.657  72.644  1.00  0.00     0.135 C 
BRANCH  25  26
ATOM     26  C   UNL     1      96.139  98.611  71.489  1.00  0.00    -0.040 A 
ATOM     27  C   UNL     1      95.021  99.143  70.847  1.00  0.00     0.004 A 
ATOM     28  C   UNL     1      97.420  98.963  71.065  1.00  0.00     0.004 A 
ATOM     29  C   UNL     1      95.185 100.026  69.778  1.00  0.00     0.000 A 
ATOM     30  C   UNL     1      97.584  99.845  69.996  1.00  0.00     0.000 A 
ATOM     31  C   UNL     1      96.465 100.376  69.354  1.00  0.00     0.000 A 
ENDBRANCH  25  26
ENDBRANCH   7  25
BRANCH  14  32
ATOM     32  C   UNL     1      93.962  96.858  76.518  1.00  0.00    -0.046 C 
ATOM     33  C   UNL     1      94.740  95.758  77.177  1.00  0.00     0.042 C 
ATOM     34  C   UNL     1      92.626  96.810  76.404  1.00  0.00     0.010 C 
ENDBRANCH  14  32
ENDBRANCH   3   4
BRANCH   2  35
ATOM     35  C   UNL     1      94.722 103.657  74.840  1.00  0.00     0.078 CG0
ATOM     36  G   UNL     1      95.898 103.028  75.586  1.00  0.00     0.000 G0
ENDBRANCH   2  35
ENDBRANCH   1   2
BRANCH   1  37
ATOM     37  O   UNL     1      93.150 103.236  71.971  1.00  0.00    -0.461 OA
BRANCH  37  38
ATOM     38  C   UNL     1      92.167 103.302  71.011  1.00  0.00     0.310 C 
ATOM     39  O   UNL     1      92.334 103.677  69.859  1.00  0.00    -0.252 OA
BRANCH  38  40
ATOM     40  C   UNL     1      90.854 102.841  71.600  1.00  0.00     0.158 C 
BRANCH  40  41
ATOM     41  C   UNL     1      90.518 101.416  71.245  1.00  0.00    -0.033 A 
ATOM     42  C   UNL     1      89.722 101.144  70.131  1.00  0.00     0.054 A 
ATOM     43  C   UNL     1      91.004 100.368  72.027  1.00  0.00     0.008 A 
ATOM     44  C   UNL     1      89.411  99.824  69.802  1.00  0.00     0.160 A 
ATOM     45  C   UNL     1      90.693  99.049  71.698  1.00  0.00     0.050 A 
ATOM     46  C   UNL     1      89.897  98.776  70.586  1.00  0.00     0.157 A 
BRANCH  44  47
ATOM     47  O   UNL     1      88.633  99.571  68.714  1.00  0.00    -0.493 OA
ATOM     48  C   UNL     1      89.265  99.629  67.436  1.00  0.00     0.278 C 
ENDBRANCH  44  47
BRANCH  46  49
ATOM     49  O   UNL     1      89.601  97.484  70.274  1.00  0.00    -0.504 OA
ATOM     50  H   UNL     1      88.680  97.301  70.526  1.00  0.00     0.293 HD
ENDBRANCH  46  49
ENDBRANCH  40  41
ENDBRANCH  38  40
ENDBRANCH  37  38
ENDBRANCH   1  37
TORSDOF 11
ENDMDL
MODEL 10
REMARK VINA RESULT:    -5.084     16.132     19.942
REMARK INTER + INTRA:         -10.125
REMARK INTER:                  -8.160
REMARK INTRA:                  -1.965
REMARK UNBOUND:                -1.177
REMARK SMILES C=C(C)[C@]12C[C@@H](C)[C@@]34O[C@](Cc5ccccc5)(O[C@@H]1[C@@H]3C=C(COC(=O)Cc1ccc(O)c(OC)c1)C[C@]1(O)C(=O)C(C)=C[C@@H]41)O2
REMARK SMILES IDX 23 1 22 2 21 3 20 4 9 5 8 6 10 7 6 8 18 9 46 10 19 11 5 12
REMARK SMILES IDX 7 13 4 14 45 15 38 16 44 17 40 18 42 20 41 21 43 22 39 23
REMARK SMILES IDX 11 25 12 26 13 27 17 28 14 29 16 30 15 31 2 32 3 33 1 34
REMARK SMILES IDX 37 35 24 37 25 38 26 39 27 40 28 41 36 42 29 43 33 44 30 45
REMARK SMILES IDX 31 46 34 47 35 48 32 49
REMARK H PARENT 39 24 32 50
REMARK Flexibility Score: 90.00
ROOT
ATOM      1  C   UNL     1      91.211 105.077  74.852  1.00  0.00     0.264 C 
ENDROOT
BRANCH   1   2
ATOM      2  C   UNL     1      91.558 104.668  73.440  1.00  0.00    -0.033 C 
ATOM      3  C   UNL     1      92.066 103.439  73.216  1.00  0.00    -0.015 C 
BRANCH   3   4
ATOM      4  C   UNL     1      92.561 102.822  71.918  1.00  0.00     0.078 C 
ATOM      5  O   UNL     1      90.642 101.632  70.907  1.00  0.00    -0.319 OA
ATOM      6  C   UNL     1      91.567 102.743  70.699  1.00  0.00     0.095 C 
ATOM      7  C   UNL     1      91.237 100.420  71.410  1.00  0.00     0.289 C 
ATOM      8  C   UNL     1      92.427 102.471  69.396  1.00  0.00     0.023 C 
ATOM      9  O   UNL     1      91.910 100.649  72.645  1.00  0.00    -0.320 OA
ATOM     10  O   UNL     1      92.223  99.894  70.526  1.00  0.00    -0.313 OA
ATOM     11  C   UNL     1      93.055 101.378  72.177  1.00  0.00     0.170 C 
ATOM     12  C   UNL     1      93.676 101.592  69.709  1.00  0.00     0.049 C 
ATOM     13  C   UNL     1      91.657 101.863  68.212  1.00  0.00     0.011 C 
ATOM     14  C   UNL     1      93.415 100.630  70.869  1.00  0.00     0.122 C 
BRANCH   6  15
ATOM     15  C   UNL     1      90.656 104.003  70.648  1.00  0.00     0.086 C 
ATOM     16  C   UNL     1      91.346 105.354  70.930  1.00  0.00     0.140 CG0
ATOM     17  C   UNL     1      89.845 104.276  69.412  1.00  0.00    -0.010 C 
ATOM     18  C   UNL     1      90.586 106.303  70.028  1.00  0.00     0.190 C 
ATOM     19  G   UNL     1      91.259 105.751  72.403  1.00  0.00     0.000 G0
ATOM     20  C   UNL     1      89.764 105.562  69.053  1.00  0.00    -0.008 C 
ATOM     21  O   UNL     1      90.668 107.522  70.052  1.00  0.00    -0.291 OA
ATOM     22  C   UNL     1      88.999 106.198  67.961  1.00  0.00     0.048 C 
BRANCH  16  23
ATOM     23  O   UNL     1      92.679 105.428  70.452  1.00  0.00    -0.381 OA
ATOM     24  H   UNL     1      92.747 104.887  69.647  1.00  0.00     0.212 HD
ENDBRANCH  16  23
ENDBRANCH   6  15
BRANCH   7  25
ATOM     25  C   UNL     1      90.137  99.397  71.608  1.00  0.00     0.135 C 
BRANCH  25  26
ATOM     26  C   UNL     1      89.653  98.826  70.298  1.00  0.00    -0.040 A 
ATOM     27  C   UNL     1      89.904  97.489  69.986  1.00  0.00     0.004 A 
ATOM     28  C   UNL     1      88.955  99.633  69.400  1.00  0.00     0.004 A 
ATOM     29  C   UNL     1      89.457  96.961  68.774  1.00  0.00     0.000 A 
ATOM     30  C   UNL     1      88.509  99.104  68.189  1.00  0.00     0.000 A 
ATOM     31  C   UNL     1      88.760  97.768  67.877  1.00  0.00     0.000 A 
ENDBRANCH  25  26
ENDBRANCH   7  25
BRANCH  14  32
ATOM     32  C   UNL     1      94.529  99.655  71.068  1.00  0.00    -0.046 C 
ATOM     33  C   UNL     1      94.893  99.346  72.490  1.00  0.00     0.042 C 
ATOM     34  C   UNL     1      95.168  99.087  70.034  1.00  0.00     0.010 C 
ENDBRANCH  14  32
ENDBRANCH   3   4
BRANCH   2  35
ATOM     35  C   UNL     1      91.265 105.750  72.418  1.00  0.00     0.078 CG0
ATOM     36  G   UNL     1      91.345 105.358  70.943  1.00  0.00     0.000 G0
ENDBRANCH   2  35
ENDBRANCH   1   2
BRANCH   1  37
ATOM     37  O   UNL     1      89.960 105.731  74.855  1.00  0.00    -0.461 OA
BRANCH  37  38
ATOM     38  C   UNL     1      88.941 105.091  75.520  1.00  0.00     0.310 C 
ATOM     39  O   UNL     1      88.764 105.120  76.731  1.00  0.00    -0.252 OA
BRANCH  38  40
ATOM     40  C   UNL     1      88.077 104.350  74.527  1.00  0.00     0.158 C 
BRANCH  40  41
ATOM     41  C   UNL     1      87.205 105.266  73.708  1.00  0.00    -0.033 A 
ATOM     42  C   UNL     1      87.248 105.208  72.314  1.00  0.00     0.054 A 
ATOM     43  C   UNL     1      86.354 106.170  74.342  1.00  0.00     0.008 A 
ATOM     44  C   UNL     1      86.441 106.056  71.556  1.00  0.00     0.160 A 
ATOM     45  C   UNL     1      85.546 107.019  73.584  1.00  0.00     0.050 A 
ATOM     46  C   UNL     1      85.590 106.962  72.191  1.00  0.00     0.157 A 
BRANCH  44  47
ATOM     47  O   UNL     1      86.493 105.992  70.196  1.00  0.00    -0.493 OA
ATOM     48  C   UNL     1      86.063 104.774  69.589  1.00  0.00     0.278 C 
ENDBRANCH  44  47
BRANCH  46  49
ATOM     49  O   UNL     1      84.796 107.794  71.461  1.00  0.00    -0.504 OA
ATOM     50  H   UNL     1      85.148 107.854  70.557  1.00  0.00     0.293 HD
ENDBRANCH  46  49
ENDBRANCH  40  41
ENDBRANCH  38  40
ENDBRANCH  37  38
ENDBRANCH   1  37
TORSDOF 11
ENDMDL
