MODEL 1
REMARK VINA RESULT:    -6.743      0.000      0.000
REMARK INTER + INTRA:         -11.637
REMARK INTER:                 -10.881
REMARK INTRA:                  -0.756
REMARK UNBOUND:                -0.756
REMARK SMILES COc1cc(CNC(=O)CCCCC/C=C/C(C)C)ccc1O
REMARK SMILES IDX 11 1 10 2 8 3 7 4 9 6 6 7 5 8 3 9 22 10 4 11 21 12 20 13
REMARK SMILES IDX 2 14 1 15 23 16 12 18 13 19 14 20 15 21 16 22 17 23 18 24
REMARK SMILES IDX 19 25
REMARK H PARENT 7 5 23 17
REMARK Flexibility Score: inf
ROOT
ATOM      1  C   UNL     1      94.457  98.669  75.481  1.00  0.00     0.010 C 
ENDROOT
BRANCH   1   2
ATOM      2  C   UNL     1      93.022  99.020  75.011  1.00  0.00     0.100 C 
BRANCH   2   3
ATOM      3  C   UNL     1      92.967  99.687  73.697  1.00  0.00     0.220 C 
ATOM      4  N   UNL     1      91.804  99.693  72.988  1.00  0.00    -0.352 N 
ATOM      5  H   UNL     1      91.055  99.155  73.402  1.00  0.00     0.163 HD
ATOM      6  O   UNL     1      93.995 100.272  73.282  1.00  0.00    -0.275 OA
BRANCH   4   7
ATOM      7  C   UNL     1      91.587 100.380  71.756  1.00  0.00     0.151 C 
BRANCH   7   8
ATOM      8  C   UNL     1      90.604  99.689  70.881  1.00  0.00    -0.025 A 
ATOM      9  C   UNL     1      89.108  99.694  68.929  1.00  0.00     0.160 A 
ATOM     10  C   UNL     1      88.688  98.385  69.249  1.00  0.00     0.157 A 
ATOM     11  C   UNL     1      90.054 100.339  69.752  1.00  0.00     0.056 A 
ATOM     12  C   UNL     1      89.241  97.722  70.360  1.00  0.00     0.050 A 
ATOM     13  C   UNL     1      90.200  98.365  71.165  1.00  0.00     0.009 A 
BRANCH   9  14
ATOM     14  O   UNL     1      88.642 100.315  67.801  1.00  0.00    -0.493 OA
ATOM     15  C   UNL     1      89.349 101.519  67.458  1.00  0.00     0.278 C 
ENDBRANCH   9  14
BRANCH  10  16
ATOM     16  O   UNL     1      87.759  97.740  68.500  1.00  0.00    -0.504 OA
ATOM     17  H   UNL     1      88.197  97.246  67.802  1.00  0.00     0.293 HD
ENDBRANCH  10  16
ENDBRANCH   7   8
ENDBRANCH   4   7
ENDBRANCH   2   3
ENDBRANCH   1   2
BRANCH   1  18
ATOM     18  C   UNL     1      94.443  97.492  76.489  1.00  0.00     0.001 C 
BRANCH  18  19
ATOM     19  C   UNL     1      94.189  96.112  75.832  1.00  0.00     0.004 C 
BRANCH  19  20
ATOM     20  C   UNL     1      93.872  95.026  76.899  1.00  0.00     0.027 C 
BRANCH  20  21
ATOM     21  C   UNL     1      92.478  94.618  76.921  1.00  0.00    -0.031 C 
ATOM     22  C   UNL     1      91.625  95.025  77.878  1.00  0.00    -0.028 C 
BRANCH  22  23
ATOM     23  C   UNL     1      90.218  94.638  77.926  1.00  0.00     0.005 C 
ATOM     24  C   UNL     1      89.599  94.680  76.503  1.00  0.00     0.012 C 
ATOM     25  C   UNL     1      90.067  93.243  78.593  1.00  0.00     0.012 C 
ENDBRANCH  22  23
ENDBRANCH  20  21
ENDBRANCH  19  20
ENDBRANCH  18  19
ENDBRANCH   1  18
TORSDOF 11
ENDMDL
MODEL 2
REMARK VINA RESULT:    -6.288      1.511      2.438
REMARK INTER + INTRA:         -10.904
REMARK INTER:                 -10.149
REMARK INTRA:                  -0.755
REMARK UNBOUND:                -0.756
REMARK SMILES COc1cc(CNC(=O)CCCCC/C=C/C(C)C)ccc1O
REMARK SMILES IDX 11 1 10 2 8 3 7 4 9 6 6 7 5 8 3 9 22 10 4 11 21 12 20 13
REMARK SMILES IDX 2 14 1 15 23 16 12 18 13 19 14 20 15 21 16 22 17 23 18 24
REMARK SMILES IDX 19 25
REMARK H PARENT 7 5 23 17
REMARK Flexibility Score: inf
ROOT
ATOM      1  C   UNL     1      94.512  98.558  75.341  1.00  0.00     0.010 C 
ENDROOT
BRANCH   1   2
ATOM      2  C   UNL     1      93.066  98.975  74.968  1.00  0.00     0.100 C 
BRANCH   2   3
ATOM      3  C   UNL     1      92.956  99.658  73.666  1.00  0.00     0.220 C 
ATOM      4  N   UNL     1      91.747  99.741  73.044  1.00  0.00    -0.352 N 
ATOM      5  H   UNL     1      90.999  99.244  73.508  1.00  0.00     0.163 HD
ATOM      6  O   UNL     1      93.985 100.186  73.181  1.00  0.00    -0.275 OA
BRANCH   4   7
ATOM      7  C   UNL     1      91.483 100.453  71.836  1.00  0.00     0.151 C 
BRANCH   7   8
ATOM      8  C   UNL     1      90.535  99.734  70.944  1.00  0.00    -0.025 A 
ATOM      9  C   UNL     1      89.044  99.709  68.989  1.00  0.00     0.160 A 
ATOM     10  C   UNL     1      88.687  98.374  69.279  1.00  0.00     0.157 A 
ATOM     11  C   UNL     1      89.957 100.381  69.827  1.00  0.00     0.056 A 
ATOM     12  C   UNL     1      89.269  97.716  70.378  1.00  0.00     0.050 A 
ATOM     13  C   UNL     1      90.195  98.387  71.198  1.00  0.00     0.009 A 
BRANCH   9  14
ATOM     14  O   UNL     1      88.551 100.331  67.872  1.00  0.00    -0.493 OA
ATOM     15  C   UNL     1      89.300 101.488  67.464  1.00  0.00     0.278 C 
ENDBRANCH   9  14
BRANCH  10  16
ATOM     16  O   UNL     1      87.791  97.702  68.514  1.00  0.00    -0.504 OA
ATOM     17  H   UNL     1      86.953  98.171  68.517  1.00  0.00     0.293 HD
ENDBRANCH  10  16
ENDBRANCH   7   8
ENDBRANCH   4   7
ENDBRANCH   2   3
ENDBRANCH   1   2
BRANCH   1  18
ATOM     18  C   UNL     1      94.514  97.481  76.456  1.00  0.00     0.001 C 
BRANCH  18  19
ATOM     19  C   UNL     1      93.639  96.244  76.129  1.00  0.00     0.004 C 
BRANCH  19  20
ATOM     20  C   UNL     1      92.908  95.716  77.395  1.00  0.00     0.027 C 
BRANCH  20  21
ATOM     21  C   UNL     1      93.803  95.392  78.493  1.00  0.00    -0.031 C 
ATOM     22  C   UNL     1      94.766  94.460  78.384  1.00  0.00    -0.028 C 
BRANCH  22  23
ATOM     23  C   UNL     1      95.684  94.115  79.467  1.00  0.00     0.005 C 
ATOM     24  C   UNL     1      96.414  95.386  79.978  1.00  0.00     0.012 C 
ATOM     25  C   UNL     1      94.924  93.376  80.601  1.00  0.00     0.012 C 
ENDBRANCH  22  23
ENDBRANCH  20  21
ENDBRANCH  19  20
ENDBRANCH  18  19
ENDBRANCH   1  18
TORSDOF 11
ENDMDL
MODEL 3
REMARK VINA RESULT:    -6.247      1.017      2.012
REMARK INTER + INTRA:         -10.838
REMARK INTER:                  -9.939
REMARK INTRA:                  -0.899
REMARK UNBOUND:                -0.756
REMARK SMILES COc1cc(CNC(=O)CCCCC/C=C/C(C)C)ccc1O
REMARK SMILES IDX 11 1 10 2 8 3 7 4 9 6 6 7 5 8 3 9 22 10 4 11 21 12 20 13
REMARK SMILES IDX 2 14 1 15 23 16 12 18 13 19 14 20 15 21 16 22 17 23 18 24
REMARK SMILES IDX 19 25
REMARK H PARENT 7 5 23 17
REMARK Flexibility Score: inf
ROOT
ATOM      1  C   UNL     1      93.288  98.183  75.114  1.00  0.00     0.010 C 
ENDROOT
BRANCH   1   2
ATOM      2  C   UNL     1      92.774  99.628  74.879  1.00  0.00     0.100 C 
BRANCH   2   3
ATOM      3  C   UNL     1      92.938 100.105  73.493  1.00  0.00     0.220 C 
ATOM      4  N   UNL     1      91.860 100.571  72.805  1.00  0.00    -0.352 N 
ATOM      5  H   UNL     1      90.979 100.484  73.293  1.00  0.00     0.163 HD
ATOM      6  O   UNL     1      94.089 100.106  72.996  1.00  0.00    -0.275 OA
BRANCH   4   7
ATOM      7  C   UNL     1      91.894 101.149  71.501  1.00  0.00     0.151 C 
BRANCH   7   8
ATOM      8  C   UNL     1      90.855 100.588  70.599  1.00  0.00    -0.025 A 
ATOM      9  C   UNL     1      89.356  98.750  69.951  1.00  0.00     0.160 A 
ATOM     10  C   UNL     1      88.912  99.504  68.842  1.00  0.00     0.157 A 
ATOM     11  C   UNL     1      90.329  99.293  70.814  1.00  0.00     0.056 A 
ATOM     12  C   UNL     1      89.417 100.799  68.628  1.00  0.00     0.050 A 
ATOM     13  C   UNL     1      90.373 101.342  69.506  1.00  0.00     0.009 A 
BRANCH   9  14
ATOM     14  O   UNL     1      88.807  97.524  70.218  1.00  0.00    -0.493 OA
ATOM     15  C   UNL     1      89.669  96.415  69.911  1.00  0.00     0.278 C 
ENDBRANCH   9  14
BRANCH  10  16
ATOM     16  O   UNL     1      87.999  99.006  67.971  1.00  0.00    -0.504 OA
ATOM     17  H   UNL     1      88.427  98.815  67.133  1.00  0.00     0.293 HD
ENDBRANCH  10  16
ENDBRANCH   7   8
ENDBRANCH   4   7
ENDBRANCH   2   3
ENDBRANCH   1   2
BRANCH   1  18
ATOM     18  C   UNL     1      94.504  98.171  76.075  1.00  0.00     0.001 C 
BRANCH  18  19
ATOM     19  C   UNL     1      94.585  96.902  76.960  1.00  0.00     0.004 C 
BRANCH  19  20
ATOM     20  C   UNL     1      94.206  95.626  76.158  1.00  0.00     0.027 C 
BRANCH  20  21
ATOM     21  C   UNL     1      93.205  94.801  76.812  1.00  0.00    -0.031 C 
ATOM     22  C   UNL     1      91.906  95.147  76.857  1.00  0.00    -0.028 C 
BRANCH  22  23
ATOM     23  C   UNL     1      90.875  94.338  77.501  1.00  0.00     0.005 C 
ATOM     24  C   UNL     1      89.479  94.985  77.300  1.00  0.00     0.012 C 
ATOM     25  C   UNL     1      90.930  92.878  76.973  1.00  0.00     0.012 C 
ENDBRANCH  22  23
ENDBRANCH  20  21
ENDBRANCH  19  20
ENDBRANCH  18  19
ENDBRANCH   1  18
TORSDOF 11
ENDMDL
MODEL 4
REMARK VINA RESULT:    -6.181      1.429      2.510
REMARK INTER + INTRA:         -10.731
REMARK INTER:                  -9.684
REMARK INTRA:                  -1.048
REMARK UNBOUND:                -0.756
REMARK SMILES COc1cc(CNC(=O)CCCCC/C=C/C(C)C)ccc1O
REMARK SMILES IDX 11 1 10 2 8 3 7 4 9 6 6 7 5 8 3 9 22 10 4 11 21 12 20 13
REMARK SMILES IDX 2 14 1 15 23 16 12 18 13 19 14 20 15 21 16 22 17 23 18 24
REMARK SMILES IDX 19 25
REMARK H PARENT 7 5 23 17
REMARK Flexibility Score: inf
ROOT
ATOM      1  C   UNL     1      94.477  97.092  76.408  1.00  0.00     0.010 C 
ENDROOT
BRANCH   1   2
ATOM      2  C   UNL     1      93.177  97.702  75.822  1.00  0.00     0.100 C 
BRANCH   2   3
ATOM      3  C   UNL     1      93.408  98.797  74.861  1.00  0.00     0.220 C 
ATOM      4  N   UNL     1      92.398  99.659  74.560  1.00  0.00    -0.352 N 
ATOM      5  H   UNL     1      91.509  99.430  74.982  1.00  0.00     0.163 HD
ATOM      6  O   UNL     1      94.556  98.929  74.373  1.00  0.00    -0.275 OA
BRANCH   4   7
ATOM      7  C   UNL     1      92.512 100.812  73.728  1.00  0.00     0.151 C 
BRANCH   7   8
ATOM      8  C   UNL     1      91.559 100.792  72.589  1.00  0.00    -0.025 A 
ATOM      9  C   UNL     1      90.483  99.602  70.725  1.00  0.00     0.160 A 
ATOM     10  C   UNL     1      89.777 100.776  70.383  1.00  0.00     0.157 A 
ATOM     11  C   UNL     1      91.373  99.621  71.817  1.00  0.00     0.056 A 
ATOM     12  C   UNL     1      89.941 101.942  71.153  1.00  0.00     0.050 A 
ATOM     13  C   UNL     1      90.817 101.947  72.255  1.00  0.00     0.009 A 
BRANCH   9  14
ATOM     14  O   UNL     1      90.265  98.438  70.036  1.00  0.00    -0.493 OA
ATOM     15  C   UNL     1      89.483  97.468  70.753  1.00  0.00     0.278 C 
ENDBRANCH   9  14
BRANCH  10  16
ATOM     16  O   UNL     1      88.933 100.808  69.322  1.00  0.00    -0.504 OA
ATOM     17  H   UNL     1      88.972  99.968  68.857  1.00  0.00     0.293 HD
ENDBRANCH  10  16
ENDBRANCH   7   8
ENDBRANCH   4   7
ENDBRANCH   2   3
ENDBRANCH   1   2
BRANCH   1  18
ATOM     18  C   UNL     1      94.413  95.543  76.417  1.00  0.00     0.001 C 
BRANCH  18  19
ATOM     19  C   UNL     1      94.437  94.927  77.839  1.00  0.00     0.004 C 
BRANCH  19  20
ATOM     20  C   UNL     1      93.132  95.252  78.620  1.00  0.00     0.027 C 
BRANCH  20  21
ATOM     21  C   UNL     1      91.965  94.538  78.130  1.00  0.00    -0.031 C 
ATOM     22  C   UNL     1      90.775  95.140  77.957  1.00  0.00    -0.028 C 
BRANCH  22  23
ATOM     23  C   UNL     1      89.585  94.452  77.462  1.00  0.00     0.005 C 
ATOM     24  C   UNL     1      89.813  93.962  76.007  1.00  0.00     0.012 C 
ATOM     25  C   UNL     1      89.197  93.293  78.420  1.00  0.00     0.012 C 
ENDBRANCH  22  23
ENDBRANCH  20  21
ENDBRANCH  19  20
ENDBRANCH  18  19
ENDBRANCH   1  18
TORSDOF 11
ENDMDL
MODEL 5
REMARK VINA RESULT:    -6.054      1.725      3.078
REMARK INTER + INTRA:         -10.526
REMARK INTER:                  -9.795
REMARK INTRA:                  -0.732
REMARK UNBOUND:                -0.756
REMARK SMILES COc1cc(CNC(=O)CCCCC/C=C/C(C)C)ccc1O
REMARK SMILES IDX 11 1 10 2 8 3 7 4 9 6 6 7 5 8 3 9 22 10 4 11 21 12 20 13
REMARK SMILES IDX 2 14 1 15 23 16 12 18 13 19 14 20 15 21 16 22 17 23 18 24
REMARK SMILES IDX 19 25
REMARK H PARENT 7 5 23 17
REMARK Flexibility Score: inf
ROOT
ATOM      1  C   UNL     1      93.461 101.122  73.477  1.00  0.00     0.010 C 
ENDROOT
BRANCH   1   2
ATOM      2  C   UNL     1      91.993 101.576  73.687  1.00  0.00     0.100 C 
BRANCH   2   3
ATOM      3  C   UNL     1      91.362 102.142  72.480  1.00  0.00     0.220 C 
ATOM      4  N   UNL     1      91.092 101.338  71.415  1.00  0.00    -0.352 N 
ATOM      5  H   UNL     1      91.425 100.388  71.510  1.00  0.00     0.163 HD
ATOM      6  O   UNL     1      91.050 103.357  72.485  1.00  0.00    -0.275 OA
BRANCH   4   7
ATOM      7  C   UNL     1      90.401 101.733  70.231  1.00  0.00     0.151 C 
BRANCH   7   8
ATOM      8  C   UNL     1      89.800 100.582  69.509  1.00  0.00    -0.025 A 
ATOM      9  C   UNL     1      89.643  98.161  69.102  1.00  0.00     0.160 A 
ATOM     10  C   UNL     1      88.687  98.394  68.089  1.00  0.00     0.157 A 
ATOM     11  C   UNL     1      90.198  99.255  69.797  1.00  0.00     0.056 A 
ATOM     12  C   UNL     1      88.271  99.708  67.806  1.00  0.00     0.050 A 
ATOM     13  C   UNL     1      88.815 100.793  68.518  1.00  0.00     0.009 A 
BRANCH   9  14
ATOM     14  O   UNL     1      89.990  96.881  69.445  1.00  0.00    -0.493 OA
ATOM     15  C   UNL     1      89.654  96.524  70.796  1.00  0.00     0.278 C 
ENDBRANCH   9  14
BRANCH  10  16
ATOM     16  O   UNL     1      88.150  97.372  67.378  1.00  0.00    -0.504 OA
ATOM     17  H   UNL     1      88.622  96.560  67.579  1.00  0.00     0.293 HD
ENDBRANCH  10  16
ENDBRANCH   7   8
ENDBRANCH   4   7
ENDBRANCH   2   3
ENDBRANCH   1   2
BRANCH   1  18
ATOM     18  C   UNL     1      93.609  99.593  73.690  1.00  0.00     0.001 C 
BRANCH  18  19
ATOM     19  C   UNL     1      92.940  99.078  74.990  1.00  0.00     0.004 C 
BRANCH  19  20
ATOM     20  C   UNL     1      93.551  97.723  75.443  1.00  0.00     0.027 C 
BRANCH  20  21
ATOM     21  C   UNL     1      92.682  96.953  76.316  1.00  0.00    -0.031 C 
ATOM     22  C   UNL     1      92.919  95.661  76.609  1.00  0.00    -0.028 C 
BRANCH  22  23
ATOM     23  C   UNL     1      92.068  94.862  77.487  1.00  0.00     0.005 C 
ATOM     24  C   UNL     1      92.724  94.717  78.885  1.00  0.00     0.012 C 
ATOM     25  C   UNL     1      90.645  95.479  77.564  1.00  0.00     0.012 C 
ENDBRANCH  22  23
ENDBRANCH  20  21
ENDBRANCH  19  20
ENDBRANCH  18  19
ENDBRANCH   1  18
TORSDOF 11
ENDMDL
MODEL 6
REMARK VINA RESULT:    -5.950     18.249     20.782
REMARK INTER + INTRA:         -10.357
REMARK INTER:                  -9.248
REMARK INTRA:                  -1.110
REMARK UNBOUND:                -0.756
REMARK SMILES COc1cc(CNC(=O)CCCCC/C=C/C(C)C)ccc1O
REMARK SMILES IDX 11 1 10 2 8 3 7 4 9 6 6 7 5 8 3 9 22 10 4 11 21 12 20 13
REMARK SMILES IDX 2 14 1 15 23 16 12 18 13 19 14 20 15 21 16 22 17 23 18 24
REMARK SMILES IDX 19 25
REMARK H PARENT 7 5 23 17
REMARK Flexibility Score: inf
ROOT
ATOM      1  C   UNL     1      78.232  86.765  67.668  1.00  0.00     0.010 C 
ENDROOT
BRANCH   1   2
ATOM      2  C   UNL     1      77.666  85.474  68.315  1.00  0.00     0.100 C 
BRANCH   2   3
ATOM      3  C   UNL     1      76.885  85.711  69.543  1.00  0.00     0.220 C 
ATOM      4  N   UNL     1      75.753  86.467  69.491  1.00  0.00    -0.352 N 
ATOM      5  H   UNL     1      75.567  86.886  68.590  1.00  0.00     0.163 HD
ATOM      6  O   UNL     1      77.268  85.169  70.606  1.00  0.00    -0.275 OA
BRANCH   4   7
ATOM      7  C   UNL     1      74.857  86.694  70.578  1.00  0.00     0.151 C 
BRANCH   7   8
ATOM      8  C   UNL     1      74.740  88.132  70.933  1.00  0.00    -0.025 A 
ATOM      9  C   UNL     1      73.511  89.976  71.999  1.00  0.00     0.160 A 
ATOM     10  C   UNL     1      74.497  90.886  71.560  1.00  0.00     0.157 A 
ATOM     11  C   UNL     1      73.635  88.610  71.675  1.00  0.00     0.056 A 
ATOM     12  C   UNL     1      75.609  90.420  70.835  1.00  0.00     0.050 A 
ATOM     13  C   UNL     1      75.735  89.051  70.533  1.00  0.00     0.009 A 
BRANCH   9  14
ATOM     14  O   UNL     1      72.471  90.406  72.780  1.00  0.00    -0.493 OA
ATOM     15  C   UNL     1      72.746  90.384  74.190  1.00  0.00     0.278 C 
ENDBRANCH   9  14
BRANCH  10  16
ATOM     16  O   UNL     1      74.400  92.213  71.826  1.00  0.00    -0.504 OA
ATOM     17  H   UNL     1      73.940  92.651  71.106  1.00  0.00     0.293 HD
ENDBRANCH  10  16
ENDBRANCH   7   8
ENDBRANCH   4   7
ENDBRANCH   2   3
ENDBRANCH   1   2
BRANCH   1  18
ATOM     18  C   UNL     1      77.418  87.164  66.411  1.00  0.00     0.001 C 
BRANCH  18  19
ATOM     19  C   UNL     1      76.446  86.061  65.922  1.00  0.00     0.004 C 
BRANCH  19  20
ATOM     20  C   UNL     1      76.987  85.353  64.648  1.00  0.00     0.027 C 
BRANCH  20  21
ATOM     21  C   UNL     1      76.613  83.952  64.556  1.00  0.00    -0.031 C 
ATOM     22  C   UNL     1      76.940  83.057  65.505  1.00  0.00    -0.028 C 
BRANCH  22  23
ATOM     23  C   UNL     1      76.575  81.643  65.444  1.00  0.00     0.005 C 
ATOM     24  C   UNL     1      75.389  81.352  66.402  1.00  0.00     0.012 C 
ATOM     25  C   UNL     1      76.266  81.231  63.980  1.00  0.00     0.012 C 
ENDBRANCH  22  23
ENDBRANCH  20  21
ENDBRANCH  19  20
ENDBRANCH  18  19
ENDBRANCH   1  18
TORSDOF 11
ENDMDL
MODEL 7
REMARK VINA RESULT:    -5.866     16.726     18.526
REMARK INTER + INTRA:         -10.223
REMARK INTER:                  -9.223
REMARK INTRA:                  -1.000
REMARK UNBOUND:                -0.756
REMARK SMILES COc1cc(CNC(=O)CCCCC/C=C/C(C)C)ccc1O
REMARK SMILES IDX 11 1 10 2 8 3 7 4 9 6 6 7 5 8 3 9 22 10 4 11 21 12 20 13
REMARK SMILES IDX 2 14 1 15 23 16 12 18 13 19 14 20 15 21 16 22 17 23 18 24
REMARK SMILES IDX 19 25
REMARK H PARENT 7 5 23 17
REMARK Flexibility Score: inf
ROOT
ATOM      1  C   UNL     1      99.940  82.836  80.963  1.00  0.00     0.010 C 
ENDROOT
BRANCH   1   2
ATOM      2  C   UNL     1      98.471  83.210  80.638  1.00  0.00     0.100 C 
BRANCH   2   3
ATOM      3  C   UNL     1      98.082  82.953  79.238  1.00  0.00     0.220 C 
ATOM      4  N   UNL     1      98.025  83.984  78.350  1.00  0.00    -0.352 N 
ATOM      5  H   UNL     1      98.191  84.896  78.753  1.00  0.00     0.163 HD
ATOM      6  O   UNL     1      97.852  81.770  78.892  1.00  0.00    -0.275 OA
BRANCH   4   7
ATOM      7  C   UNL     1      97.759  83.862  76.954  1.00  0.00     0.151 C 
BRANCH   7   8
ATOM      8  C   UNL     1      98.999  83.739  76.144  1.00  0.00    -0.025 A 
ATOM      9  C   UNL     1     100.729  82.350  75.083  1.00  0.00     0.160 A 
ATOM     10  C   UNL     1     101.395  83.515  74.645  1.00  0.00     0.157 A 
ATOM     11  C   UNL     1      99.543  82.470  75.836  1.00  0.00     0.056 A 
ATOM     12  C   UNL     1     100.854  84.782  74.932  1.00  0.00     0.050 A 
ATOM     13  C   UNL     1      99.660  84.893  75.667  1.00  0.00     0.009 A 
BRANCH   9  14
ATOM     14  O   UNL     1     101.198  81.111  74.735  1.00  0.00    -0.493 OA
ATOM     15  C   UNL     1     100.518  80.022  75.380  1.00  0.00     0.278 C 
ENDBRANCH   9  14
BRANCH  10  16
ATOM     16  O   UNL     1     102.553  83.443  73.943  1.00  0.00    -0.504 OA
ATOM     17  H   UNL     1     102.695  82.538  73.652  1.00  0.00     0.293 HD
ENDBRANCH  10  16
ENDBRANCH   7   8
ENDBRANCH   4   7
ENDBRANCH   2   3
ENDBRANCH   1   2
BRANCH   1  18
ATOM     18  C   UNL     1     100.039  82.083  82.315  1.00  0.00     0.001 C 
BRANCH  18  19
ATOM     19  C   UNL     1      98.917  81.036  82.529  1.00  0.00     0.004 C 
BRANCH  19  20
ATOM     20  C   UNL     1      98.218  81.227  83.904  1.00  0.00     0.027 C 
BRANCH  20  21
ATOM     21  C   UNL     1      97.738  82.579  84.133  1.00  0.00    -0.031 C 
ATOM     22  C   UNL     1      96.817  82.865  85.071  1.00  0.00    -0.028 C 
BRANCH  22  23
ATOM     23  C   UNL     1      96.318  84.214  85.329  1.00  0.00     0.005 C 
ATOM     24  C   UNL     1      95.694  84.293  86.748  1.00  0.00     0.012 C 
ATOM     25  C   UNL     1      97.453  85.254  85.125  1.00  0.00     0.012 C 
ENDBRANCH  22  23
ENDBRANCH  20  21
ENDBRANCH  19  20
ENDBRANCH  18  19
ENDBRANCH   1  18
TORSDOF 11
ENDMDL
MODEL 8
REMARK VINA RESULT:    -5.860      1.868      2.938
REMARK INTER + INTRA:         -10.213
REMARK INTER:                  -9.464
REMARK INTRA:                  -0.750
REMARK UNBOUND:                -0.756
REMARK SMILES COc1cc(CNC(=O)CCCCC/C=C/C(C)C)ccc1O
REMARK SMILES IDX 11 1 10 2 8 3 7 4 9 6 6 7 5 8 3 9 22 10 4 11 21 12 20 13
REMARK SMILES IDX 2 14 1 15 23 16 12 18 13 19 14 20 15 21 16 22 17 23 18 24
REMARK SMILES IDX 19 25
REMARK H PARENT 7 5 23 17
REMARK Flexibility Score: inf
ROOT
ATOM      1  C   UNL     1      93.909  99.724  75.349  1.00  0.00     0.010 C 
ENDROOT
BRANCH   1   2
ATOM      2  C   UNL     1      92.536  99.613  74.637  1.00  0.00     0.100 C 
BRANCH   2   3
ATOM      3  C   UNL     1      92.374 100.533  73.497  1.00  0.00     0.220 C 
ATOM      4  N   UNL     1      91.710 100.121  72.382  1.00  0.00    -0.352 N 
ATOM      5  H   UNL     1      91.428  99.151  72.393  1.00  0.00     0.163 HD
ATOM      6  O   UNL     1      92.824 101.699  73.603  1.00  0.00    -0.275 OA
BRANCH   4   7
ATOM      7  C   UNL     1      91.400 100.936  71.252  1.00  0.00     0.151 C 
BRANCH   7   8
ATOM      8  C   UNL     1      90.373 100.324  70.369  1.00  0.00    -0.025 A 
ATOM      9  C   UNL     1      89.056  98.372  69.660  1.00  0.00     0.160 A 
ATOM     10  C   UNL     1      88.453  99.149  68.647  1.00  0.00     0.157 A 
ATOM     11  C   UNL     1      90.017  98.962  70.506  1.00  0.00     0.056 A 
ATOM     12  C   UNL     1      88.787 100.509  68.512  1.00  0.00     0.050 A 
ATOM     13  C   UNL     1      89.733 101.095  69.374  1.00  0.00     0.009 A 
BRANCH   9  14
ATOM     14  O   UNL     1      88.673  97.072  69.856  1.00  0.00    -0.493 OA
ATOM     15  C   UNL     1      89.763  96.172  70.119  1.00  0.00     0.278 C 
ENDBRANCH   9  14
BRANCH  10  16
ATOM     16  O   UNL     1      87.545  98.612  67.793  1.00  0.00    -0.504 OA
ATOM     17  H   UNL     1      87.152  99.311  67.264  1.00  0.00     0.293 HD
ENDBRANCH  10  16
ENDBRANCH   7   8
ENDBRANCH   4   7
ENDBRANCH   2   3
ENDBRANCH   1   2
BRANCH   1  18
ATOM     18  C   UNL     1      94.434  98.329  75.773  1.00  0.00     0.001 C 
BRANCH  18  19
ATOM     19  C   UNL     1      93.375  97.203  75.658  1.00  0.00     0.004 C 
BRANCH  19  20
ATOM     20  C   UNL     1      93.976  95.820  76.034  1.00  0.00     0.027 C 
BRANCH  20  21
ATOM     21  C   UNL     1      94.446  95.740  77.407  1.00  0.00    -0.031 C 
ATOM     22  C   UNL     1      93.636  95.402  78.426  1.00  0.00    -0.028 C 
BRANCH  22  23
ATOM     23  C   UNL     1      94.079  95.307  79.814  1.00  0.00     0.005 C 
ATOM     24  C   UNL     1      94.590  93.874  80.120  1.00  0.00     0.012 C 
ATOM     25  C   UNL     1      95.151  96.391  80.111  1.00  0.00     0.012 C 
ENDBRANCH  22  23
ENDBRANCH  20  21
ENDBRANCH  19  20
ENDBRANCH  18  19
ENDBRANCH   1  18
TORSDOF 11
ENDMDL
MODEL 9
REMARK VINA RESULT:    -5.691     21.329     23.821
REMARK INTER + INTRA:          -9.940
REMARK INTER:                  -9.019
REMARK INTRA:                  -0.921
REMARK UNBOUND:                -0.756
REMARK SMILES COc1cc(CNC(=O)CCCCC/C=C/C(C)C)ccc1O
REMARK SMILES IDX 11 1 10 2 8 3 7 4 9 6 6 7 5 8 3 9 22 10 4 11 21 12 20 13
REMARK SMILES IDX 2 14 1 15 23 16 12 18 13 19 14 20 15 21 16 22 17 23 18 24
REMARK SMILES IDX 19 25
REMARK H PARENT 7 5 23 17
REMARK Flexibility Score: inf
ROOT
ATOM      1  C   UNL     1      77.597  83.268  66.611  1.00  0.00     0.010 C 
ENDROOT
BRANCH   1   2
ATOM      2  C   UNL     1      76.092  83.077  66.932  1.00  0.00     0.100 C 
BRANCH   2   3
ATOM      3  C   UNL     1      75.345  82.346  65.891  1.00  0.00     0.220 C 
ATOM      4  N   UNL     1      74.248  81.614  66.231  1.00  0.00    -0.352 N 
ATOM      5  H   UNL     1      74.063  81.569  67.224  1.00  0.00     0.163 HD
ATOM      6  O   UNL     1      75.724  82.452  64.701  1.00  0.00    -0.275 OA
BRANCH   4   7
ATOM      7  C   UNL     1      73.383  80.942  65.317  1.00  0.00     0.151 C 
BRANCH   7   8
ATOM      8  C   UNL     1      72.083  81.640  65.141  1.00  0.00    -0.025 A 
ATOM      9  C   UNL     1      70.134  82.798  66.094  1.00  0.00     0.160 A 
ATOM     10  C   UNL     1      69.577  82.922  64.803  1.00  0.00     0.157 A 
ATOM     11  C   UNL     1      71.376  82.151  66.255  1.00  0.00     0.056 A 
ATOM     12  C   UNL     1      70.279  82.432  63.686  1.00  0.00     0.050 A 
ATOM     13  C   UNL     1      71.528  81.805  63.853  1.00  0.00     0.009 A 
BRANCH   9  14
ATOM     14  O   UNL     1      69.501  83.348  67.177  1.00  0.00    -0.493 OA
ATOM     15  C   UNL     1      70.039  84.615  67.592  1.00  0.00     0.278 C 
ENDBRANCH   9  14
BRANCH  10  16
ATOM     16  O   UNL     1      68.371  83.512  64.609  1.00  0.00    -0.504 OA
ATOM     17  H   UNL     1      67.778  83.269  65.324  1.00  0.00     0.293 HD
ENDBRANCH  10  16
ENDBRANCH   7   8
ENDBRANCH   4   7
ENDBRANCH   2   3
ENDBRANCH   1   2
BRANCH   1  18
ATOM     18  C   UNL     1      78.317  84.038  67.748  1.00  0.00     0.001 C 
BRANCH  18  19
ATOM     19  C   UNL     1      77.418  84.317  68.979  1.00  0.00     0.004 C 
BRANCH  19  20
ATOM     20  C   UNL     1      77.880  85.590  69.742  1.00  0.00     0.027 C 
BRANCH  20  21
ATOM     21  C   UNL     1      76.921  86.681  69.693  1.00  0.00    -0.031 C 
ATOM     22  C   UNL     1      75.669  86.559  70.169  1.00  0.00    -0.028 C 
BRANCH  22  23
ATOM     23  C   UNL     1      74.684  87.637  70.140  1.00  0.00     0.005 C 
ATOM     24  C   UNL     1      75.269  88.918  70.792  1.00  0.00     0.012 C 
ATOM     25  C   UNL     1      74.201  87.884  68.685  1.00  0.00     0.012 C 
ENDBRANCH  22  23
ENDBRANCH  20  21
ENDBRANCH  19  20
ENDBRANCH  18  19
ENDBRANCH   1  18
TORSDOF 11
ENDMDL
MODEL 10
REMARK VINA RESULT:    -5.651     15.915     18.332
REMARK INTER + INTRA:          -9.876
REMARK INTER:                  -8.864
REMARK INTRA:                  -1.012
REMARK UNBOUND:                -0.756
REMARK SMILES COc1cc(CNC(=O)CCCCC/C=C/C(C)C)ccc1O
REMARK SMILES IDX 11 1 10 2 8 3 7 4 9 6 6 7 5 8 3 9 22 10 4 11 21 12 20 13
REMARK SMILES IDX 2 14 1 15 23 16 12 18 13 19 14 20 15 21 16 22 17 23 18 24
REMARK SMILES IDX 19 25
REMARK H PARENT 7 5 23 17
REMARK Flexibility Score: inf
ROOT
ATOM      1  C   UNL     1     100.029  82.742  81.119  1.00  0.00     0.010 C 
ENDROOT
BRANCH   1   2
ATOM      2  C   UNL     1      98.595  83.219  80.773  1.00  0.00     0.100 C 
BRANCH   2   3
ATOM      3  C   UNL     1      98.175  82.905  79.394  1.00  0.00     0.220 C 
ATOM      4  N   UNL     1      98.035  83.907  78.483  1.00  0.00    -0.352 N 
ATOM      5  H   UNL     1      98.166  84.837  78.856  1.00  0.00     0.163 HD
ATOM      6  O   UNL     1      97.995  81.703  79.086  1.00  0.00    -0.275 OA
BRANCH   4   7
ATOM      7  C   UNL     1      97.730  83.734  77.100  1.00  0.00     0.151 C 
BRANCH   7   8
ATOM      8  C   UNL     1      98.939  83.467  76.278  1.00  0.00    -0.025 A 
ATOM      9  C   UNL     1     100.799  84.278  74.888  1.00  0.00     0.160 A 
ATOM     10  C   UNL     1     101.212  82.946  74.665  1.00  0.00     0.157 A 
ATOM     11  C   UNL     1      99.662  84.528  75.684  1.00  0.00     0.056 A 
ATOM     12  C   UNL     1     100.510  81.885  75.265  1.00  0.00     0.050 A 
ATOM     13  C   UNL     1      99.388  82.143  76.073  1.00  0.00     0.009 A 
BRANCH   9  14
ATOM     14  O   UNL     1     101.526  85.323  74.382  1.00  0.00    -0.493 OA
ATOM     15  C   UNL     1     100.735  86.323  73.720  1.00  0.00     0.278 C 
ENDBRANCH   9  14
BRANCH  10  16
ATOM     16  O   UNL     1     102.283  82.662  73.883  1.00  0.00    -0.504 OA
ATOM     17  H   UNL     1     101.981  82.312  73.042  1.00  0.00     0.293 HD
ENDBRANCH  10  16
ENDBRANCH   7   8
ENDBRANCH   4   7
ENDBRANCH   2   3
ENDBRANCH   1   2
BRANCH   1  18
ATOM     18  C   UNL     1     100.026  81.820  82.365  1.00  0.00     0.001 C 
BRANCH  18  19
ATOM     19  C   UNL     1      98.922  80.732  82.333  1.00  0.00     0.004 C 
BRANCH  19  20
ATOM     20  C   UNL     1      98.502  80.309  83.768  1.00  0.00     0.027 C 
BRANCH  20  21
ATOM     21  C   UNL     1      98.301  81.428  84.672  1.00  0.00    -0.031 C 
ATOM     22  C   UNL     1      97.194  82.191  84.638  1.00  0.00    -0.028 C 
BRANCH  22  23
ATOM     23  C   UNL     1      96.960  83.319  85.536  1.00  0.00     0.005 C 
ATOM     24  C   UNL     1      97.092  84.658  84.764  1.00  0.00     0.012 C 
ATOM     25  C   UNL     1      95.580  83.173  86.233  1.00  0.00     0.012 C 
ENDBRANCH  22  23
ENDBRANCH  20  21
ENDBRANCH  19  20
ENDBRANCH  18  19
ENDBRANCH   1  18
TORSDOF 11
ENDMDL
