MODEL 1
REMARK VINA RESULT:    -6.909      0.000      0.000
REMARK INTER + INTRA:         -11.942
REMARK INTER:                 -10.747
REMARK INTRA:                  -1.195
REMARK UNBOUND:                -1.195
REMARK SMILES CCCCC/C=C/C(=O)CCc1ccc(O)c(OC)c1
REMARK SMILES IDX 6 1 7 2 8 3 9 4 10 5 11 6 12 7 17 8 20 9 15 10 14 11 13 12
REMARK SMILES IDX 18 13 19 14 16 15 5 17 4 18 3 19 2 20 1 21
REMARK H PARENT 16 16
REMARK Flexibility Score: inf
ROOT
ATOM      1  C   UNL     1      91.155  93.077  74.502  1.00  0.00    -0.023 C 
ATOM      2  C   UNL     1      91.481  92.191  73.553  1.00  0.00     0.043 C 
ENDROOT
BRANCH   2   3
ATOM      3  C   UNL     1      90.448  91.719  72.592  1.00  0.00     0.155 C 
ATOM      4  O   UNL     1      90.725  91.430  71.430  1.00  0.00    -0.295 OA
BRANCH   3   5
ATOM      5  C   UNL     1      89.022  91.661  73.107  1.00  0.00     0.085 C 
BRANCH   5   6
ATOM      6  C   UNL     1      88.561  90.216  73.305  1.00  0.00     0.044 C 
BRANCH   6   7
ATOM      7  C   UNL     1      89.242  89.538  74.470  1.00  0.00    -0.044 A 
ATOM      8  C   UNL     1      89.829  89.504  76.797  1.00  0.00     0.160 A 
ATOM      9  C   UNL     1      89.201  90.132  75.721  1.00  0.00     0.054 A 
ATOM     10  C   UNL     1      90.491  88.291  76.608  1.00  0.00     0.157 A 
ATOM     11  C   UNL     1      90.525  87.706  75.341  1.00  0.00     0.050 A 
ATOM     12  C   UNL     1      89.896  88.333  74.266  1.00  0.00     0.008 A 
BRANCH   8  13
ATOM     13  O   UNL     1      89.790  90.086  78.028  1.00  0.00    -0.493 OA
ATOM     14  C   UNL     1      90.397  91.370  78.158  1.00  0.00     0.278 C 
ENDBRANCH   8  13
BRANCH  10  15
ATOM     15  O   UNL     1      91.108  87.668  77.650  1.00  0.00    -0.504 OA
ATOM     16  H   UNL     1      90.519  86.968  77.979  1.00  0.00     0.293 HD
ENDBRANCH  10  15
ENDBRANCH   6   7
ENDBRANCH   5   6
ENDBRANCH   3   5
ENDBRANCH   2   3
BRANCH   1  17
ATOM     17  C   UNL     1      92.138  93.602  75.508  1.00  0.00     0.027 C 
BRANCH  17  18
ATOM     18  C   UNL     1      93.019  94.729  74.957  1.00  0.00     0.004 C 
BRANCH  18  19
ATOM     19  C   UNL     1      94.489  94.616  75.370  1.00  0.00     0.000 C 
BRANCH  19  20
ATOM     20  C   UNL     1      94.626  94.450  76.884  1.00  0.00    -0.003 C 
ATOM     21  C   UNL     1      95.918  93.738  77.252  1.00  0.00     0.004 C 
ENDBRANCH  19  20
ENDBRANCH  18  19
ENDBRANCH  17  18
ENDBRANCH   1  17
TORSDOF 10
ENDMDL
MODEL 2
REMARK VINA RESULT:    -6.294      1.998      3.661
REMARK INTER + INTRA:         -10.984
REMARK INTER:                 -10.101
REMARK INTRA:                  -0.883
REMARK UNBOUND:                -1.195
REMARK SMILES CCCCC/C=C/C(=O)CCc1ccc(O)c(OC)c1
REMARK SMILES IDX 6 1 7 2 8 3 9 4 10 5 11 6 12 7 17 8 20 9 15 10 14 11 13 12
REMARK SMILES IDX 18 13 19 14 16 15 5 17 4 18 3 19 2 20 1 21
REMARK H PARENT 16 16
REMARK Flexibility Score: inf
ROOT
ATOM      1  C   UNL     1      93.586  94.435  77.226  1.00  0.00    -0.023 C 
ATOM      2  C   UNL     1      92.539  93.622  77.034  1.00  0.00     0.043 C 
ENDROOT
BRANCH   2   3
ATOM      3  C   UNL     1      91.630  93.844  75.877  1.00  0.00     0.155 C 
ATOM      4  O   UNL     1      92.052  93.916  74.724  1.00  0.00    -0.295 OA
BRANCH   3   5
ATOM      5  C   UNL     1      90.160  94.029  76.197  1.00  0.00     0.085 C 
BRANCH   5   6
ATOM      6  C   UNL     1      89.673  92.977  77.195  1.00  0.00     0.044 C 
BRANCH   6   7
ATOM      7  C   UNL     1      89.604  91.591  76.601  1.00  0.00    -0.044 A 
ATOM      8  C   UNL     1      89.095  90.151  74.750  1.00  0.00     0.160 A 
ATOM      9  C   UNL     1      89.158  91.432  75.298  1.00  0.00     0.054 A 
ATOM     10  C   UNL     1      89.477  89.046  75.510  1.00  0.00     0.157 A 
ATOM     11  C   UNL     1      89.923  89.222  76.820  1.00  0.00     0.050 A 
ATOM     12  C   UNL     1      89.986  90.503  77.369  1.00  0.00     0.008 A 
BRANCH   8  13
ATOM     13  O   UNL     1      88.657  89.992  73.469  1.00  0.00    -0.493 OA
ATOM     14  C   UNL     1      87.453  90.665  73.107  1.00  0.00     0.278 C 
ENDBRANCH   8  13
BRANCH  10  15
ATOM     15  O   UNL     1      89.420  87.790  74.985  1.00  0.00    -0.504 OA
ATOM     16  H   UNL     1      89.635  87.155  75.689  1.00  0.00     0.293 HD
ENDBRANCH  10  15
ENDBRANCH   6   7
ENDBRANCH   5   6
ENDBRANCH   3   5
ENDBRANCH   2   3
BRANCH   1  17
ATOM     17  C   UNL     1      94.548  94.279  78.367  1.00  0.00     0.027 C 
BRANCH  17  18
ATOM     18  C   UNL     1      95.973  94.719  78.018  1.00  0.00     0.004 C 
BRANCH  18  19
ATOM     19  C   UNL     1      96.393  94.358  76.589  1.00  0.00     0.000 C 
BRANCH  19  20
ATOM     20  C   UNL     1      97.062  95.546  75.895  1.00  0.00    -0.003 C 
ATOM     21  C   UNL     1      96.074  96.674  75.647  1.00  0.00     0.004 C 
ENDBRANCH  19  20
ENDBRANCH  18  19
ENDBRANCH  17  18
ENDBRANCH   1  17
TORSDOF 10
ENDMDL
MODEL 3
REMARK VINA RESULT:    -6.172      2.336      3.800
REMARK INTER + INTRA:         -10.794
REMARK INTER:                 -10.168
REMARK INTRA:                  -0.627
REMARK UNBOUND:                -1.195
REMARK SMILES CCCCC/C=C/C(=O)CCc1ccc(O)c(OC)c1
REMARK SMILES IDX 6 1 7 2 8 3 9 4 10 5 11 6 12 7 17 8 20 9 15 10 14 11 13 12
REMARK SMILES IDX 18 13 19 14 16 15 5 17 4 18 3 19 2 20 1 21
REMARK H PARENT 16 16
REMARK Flexibility Score: inf
ROOT
ATOM      1  C   UNL     1      93.719  94.478  76.547  1.00  0.00    -0.023 C 
ATOM      2  C   UNL     1      92.949  93.404  76.330  1.00  0.00     0.043 C 
ENDROOT
BRANCH   2   3
ATOM      3  C   UNL     1      91.732  93.524  75.483  1.00  0.00     0.155 C 
ATOM      4  O   UNL     1      91.762  93.320  74.271  1.00  0.00    -0.295 OA
BRANCH   3   5
ATOM      5  C   UNL     1      90.460  93.961  76.185  1.00  0.00     0.085 C 
BRANCH   5   6
ATOM      6  C   UNL     1      90.008  92.923  77.212  1.00  0.00     0.044 C 
BRANCH   6   7
ATOM      7  C   UNL     1      89.807  91.551  76.612  1.00  0.00    -0.044 A 
ATOM      8  C   UNL     1      88.913  90.157  74.876  1.00  0.00     0.160 A 
ATOM      9  C   UNL     1      89.097  91.424  75.429  1.00  0.00     0.054 A 
ATOM     10  C   UNL     1      89.441  89.034  75.511  1.00  0.00     0.157 A 
ATOM     11  C   UNL     1      90.153  89.178  76.702  1.00  0.00     0.050 A 
ATOM     12  C   UNL     1      90.338  90.445  77.256  1.00  0.00     0.008 A 
BRANCH   8  13
ATOM     13  O   UNL     1      88.214  90.030  73.712  1.00  0.00    -0.493 OA
ATOM     14  C   UNL     1      88.221  91.148  72.826  1.00  0.00     0.278 C 
ENDBRANCH   8  13
BRANCH  10  15
ATOM     15  O   UNL     1      89.268  87.792  74.980  1.00  0.00    -0.504 OA
ATOM     16  H   UNL     1      89.436  87.843  74.023  1.00  0.00     0.293 HD
ENDBRANCH  10  15
ENDBRANCH   6   7
ENDBRANCH   5   6
ENDBRANCH   3   5
ENDBRANCH   2   3
BRANCH   1  17
ATOM     17  C   UNL     1      94.962  94.440  77.389  1.00  0.00     0.027 C 
BRANCH  17  18
ATOM     18  C   UNL     1      94.669  94.402  78.892  1.00  0.00     0.004 C 
BRANCH  18  19
ATOM     19  C   UNL     1      95.900  94.672  79.764  1.00  0.00     0.000 C 
BRANCH  19  20
ATOM     20  C   UNL     1      95.497  95.241  81.125  1.00  0.00    -0.003 C 
ATOM     21  C   UNL     1      95.975  96.674  81.294  1.00  0.00     0.004 C 
ENDBRANCH  19  20
ENDBRANCH  18  19
ENDBRANCH  17  18
ENDBRANCH   1  17
TORSDOF 10
ENDMDL
MODEL 4
REMARK VINA RESULT:    -5.936      2.826      5.269
REMARK INTER + INTRA:         -10.427
REMARK INTER:                  -9.552
REMARK INTRA:                  -0.875
REMARK UNBOUND:                -1.195
REMARK SMILES CCCCC/C=C/C(=O)CCc1ccc(O)c(OC)c1
REMARK SMILES IDX 6 1 7 2 8 3 9 4 10 5 11 6 12 7 17 8 20 9 15 10 14 11 13 12
REMARK SMILES IDX 18 13 19 14 16 15 5 17 4 18 3 19 2 20 1 21
REMARK H PARENT 16 16
REMARK Flexibility Score: inf
ROOT
ATOM      1  C   UNL     1      95.147  94.506  78.273  1.00  0.00    -0.023 C 
ATOM      2  C   UNL     1      94.235  93.952  77.465  1.00  0.00     0.043 C 
ENDROOT
BRANCH   2   3
ATOM      3  C   UNL     1      94.237  94.274  76.012  1.00  0.00     0.155 C 
ATOM      4  O   UNL     1      95.196  94.009  75.290  1.00  0.00    -0.295 OA
BRANCH   3   5
ATOM      5  C   UNL     1      93.015  94.996  75.478  1.00  0.00     0.085 C 
BRANCH   5   6
ATOM      6  C   UNL     1      91.827  94.855  76.430  1.00  0.00     0.044 C 
BRANCH   6   7
ATOM      7  C   UNL     1      90.961  93.658  76.116  1.00  0.00    -0.044 A 
ATOM      8  C   UNL     1      89.887  92.240  74.505  1.00  0.00     0.160 A 
ATOM      9  C   UNL     1      90.686  93.346  74.794  1.00  0.00     0.054 A 
ATOM     10  C   UNL     1      89.373  91.460  75.541  1.00  0.00     0.157 A 
ATOM     11  C   UNL     1      89.658  91.787  76.867  1.00  0.00     0.050 A 
ATOM     12  C   UNL     1      90.457  92.894  77.156  1.00  0.00     0.008 A 
BRANCH   8  13
ATOM     13  O   UNL     1      89.615  91.932  73.206  1.00  0.00    -0.493 OA
ATOM     14  C   UNL     1      90.674  91.358  72.441  1.00  0.00     0.278 C 
ENDBRANCH   8  13
BRANCH  10  15
ATOM     15  O   UNL     1      88.592  90.378  75.271  1.00  0.00    -0.504 OA
ATOM     16  H   UNL     1      88.449  90.336  74.310  1.00  0.00     0.293 HD
ENDBRANCH  10  15
ENDBRANCH   6   7
ENDBRANCH   5   6
ENDBRANCH   3   5
ENDBRANCH   2   3
BRANCH   1  17
ATOM     17  C   UNL     1      95.211  94.233  79.748  1.00  0.00     0.027 C 
BRANCH  17  18
ATOM     18  C   UNL     1      95.652  95.451  80.567  1.00  0.00     0.004 C 
BRANCH  18  19
ATOM     19  C   UNL     1      97.062  95.318  81.153  1.00  0.00     0.000 C 
BRANCH  19  20
ATOM     20  C   UNL     1      97.881  96.586  80.910  1.00  0.00    -0.003 C 
ATOM     21  C   UNL     1      97.476  97.272  79.616  1.00  0.00     0.004 C 
ENDBRANCH  19  20
ENDBRANCH  18  19
ENDBRANCH  17  18
ENDBRANCH   1  17
TORSDOF 10
ENDMDL
MODEL 5
REMARK VINA RESULT:    -5.877      2.802      4.655
REMARK INTER + INTRA:         -10.336
REMARK INTER:                  -9.561
REMARK INTRA:                  -0.775
REMARK UNBOUND:                -1.195
REMARK SMILES CCCCC/C=C/C(=O)CCc1ccc(O)c(OC)c1
REMARK SMILES IDX 6 1 7 2 8 3 9 4 10 5 11 6 12 7 17 8 20 9 15 10 14 11 13 12
REMARK SMILES IDX 18 13 19 14 16 15 5 17 4 18 3 19 2 20 1 21
REMARK H PARENT 16 16
REMARK Flexibility Score: inf
ROOT
ATOM      1  C   UNL     1      94.382  94.084  77.815  1.00  0.00    -0.023 C 
ATOM      2  C   UNL     1      94.707  94.866  76.778  1.00  0.00     0.043 C 
ENDROOT
BRANCH   2   3
ATOM      3  C   UNL     1      93.944  94.763  75.504  1.00  0.00     0.155 C 
ATOM      4  O   UNL     1      93.841  95.713  74.730  1.00  0.00    -0.295 OA
BRANCH   3   5
ATOM      5  C   UNL     1      93.256  93.439  75.233  1.00  0.00     0.085 C 
BRANCH   5   6
ATOM      6  C   UNL     1      91.748  93.538  75.468  1.00  0.00     0.044 C 
BRANCH   6   7
ATOM      7  C   UNL     1      91.194  92.359  76.231  1.00  0.00    -0.044 A 
ATOM      8  C   UNL     1      90.555  90.047  76.299  1.00  0.00     0.160 A 
ATOM      9  C   UNL     1      91.067  91.136  75.593  1.00  0.00     0.054 A 
ATOM     10  C   UNL     1      90.176  90.195  77.633  1.00  0.00     0.157 A 
ATOM     11  C   UNL     1      90.310  91.434  78.262  1.00  0.00     0.050 A 
ATOM     12  C   UNL     1      90.822  92.523  77.556  1.00  0.00     0.008 A 
BRANCH   8  13
ATOM     13  O   UNL     1      90.429  88.843  75.673  1.00  0.00    -0.493 OA
ATOM     14  C   UNL     1      89.390  88.721  74.704  1.00  0.00     0.278 C 
ENDBRANCH   8  13
BRANCH  10  15
ATOM     15  O   UNL     1      89.675  89.140  78.333  1.00  0.00    -0.504 OA
ATOM     16  H   UNL     1      88.720  89.278  78.452  1.00  0.00     0.293 HD
ENDBRANCH  10  15
ENDBRANCH   6   7
ENDBRANCH   5   6
ENDBRANCH   3   5
ENDBRANCH   2   3
BRANCH   1  17
ATOM     17  C   UNL     1      95.102  94.127  79.131  1.00  0.00     0.027 C 
BRANCH  17  18
ATOM     18  C   UNL     1      95.722  95.496  79.433  1.00  0.00     0.004 C 
BRANCH  18  19
ATOM     19  C   UNL     1      95.908  95.768  80.929  1.00  0.00     0.000 C 
BRANCH  19  20
ATOM     20  C   UNL     1      96.866  96.937  81.162  1.00  0.00    -0.003 C 
ATOM     21  C   UNL     1      96.144  98.141  81.747  1.00  0.00     0.004 C 
ENDBRANCH  19  20
ENDBRANCH  18  19
ENDBRANCH  17  18
ENDBRANCH   1  17
TORSDOF 10
ENDMDL
MODEL 6
REMARK VINA RESULT:    -5.738      2.719      4.808
REMARK INTER + INTRA:         -10.120
REMARK INTER:                  -9.569
REMARK INTRA:                  -0.551
REMARK UNBOUND:                -1.195
REMARK SMILES CCCCC/C=C/C(=O)CCc1ccc(O)c(OC)c1
REMARK SMILES IDX 6 1 7 2 8 3 9 4 10 5 11 6 12 7 17 8 20 9 15 10 14 11 13 12
REMARK SMILES IDX 18 13 19 14 16 15 5 17 4 18 3 19 2 20 1 21
REMARK H PARENT 16 16
REMARK Flexibility Score: inf
ROOT
ATOM      1  C   UNL     1      94.217  94.411  77.779  1.00  0.00    -0.023 C 
ATOM      2  C   UNL     1      93.118  93.676  77.568  1.00  0.00     0.043 C 
ENDROOT
BRANCH   2   3
ATOM      3  C   UNL     1      92.240  93.973  76.404  1.00  0.00     0.155 C 
ATOM      4  O   UNL     1      91.441  94.907  76.415  1.00  0.00    -0.295 OA
BRANCH   3   5
ATOM      5  C   UNL     1      92.344  93.030  75.222  1.00  0.00     0.085 C 
BRANCH   5   6
ATOM      6  C   UNL     1      91.516  93.531  74.037  1.00  0.00     0.044 C 
BRANCH   6   7
ATOM      7  C   UNL     1      90.356  92.622  73.705  1.00  0.00    -0.044 A 
ATOM      8  C   UNL     1      89.060  90.657  74.174  1.00  0.00     0.160 A 
ATOM      9  C   UNL     1      90.131  91.496  74.481  1.00  0.00     0.054 A 
ATOM     10  C   UNL     1      88.228  90.955  73.095  1.00  0.00     0.157 A 
ATOM     11  C   UNL     1      88.467  92.092  72.322  1.00  0.00     0.050 A 
ATOM     12  C   UNL     1      89.539  92.931  72.630  1.00  0.00     0.008 A 
BRANCH   8  13
ATOM     13  O   UNL     1      88.837  89.550  74.935  1.00  0.00    -0.493 OA
ATOM     14  C   UNL     1      89.688  88.428  74.713  1.00  0.00     0.278 C 
ENDBRANCH   8  13
BRANCH  10  15
ATOM     15  O   UNL     1      87.178  90.144  72.785  1.00  0.00    -0.504 OA
ATOM     16  H   UNL     1      86.391  90.700  72.652  1.00  0.00     0.293 HD
ENDBRANCH  10  15
ENDBRANCH   6   7
ENDBRANCH   5   6
ENDBRANCH   3   5
ENDBRANCH   2   3
BRANCH   1  17
ATOM     17  C   UNL     1      95.153  94.177  78.929  1.00  0.00     0.027 C 
BRANCH  17  18
ATOM     18  C   UNL     1      96.203  95.282  79.086  1.00  0.00     0.004 C 
BRANCH  18  19
ATOM     19  C   UNL     1      97.020  95.174  80.377  1.00  0.00     0.000 C 
BRANCH  19  20
ATOM     20  C   UNL     1      97.406  96.556  80.904  1.00  0.00    -0.003 C 
ATOM     21  C   UNL     1      96.195  97.311  81.429  1.00  0.00     0.004 C 
ENDBRANCH  19  20
ENDBRANCH  18  19
ENDBRANCH  17  18
ENDBRANCH   1  17
TORSDOF 10
ENDMDL
MODEL 7
REMARK VINA RESULT:    -5.672      1.942      3.234
REMARK INTER + INTRA:         -10.017
REMARK INTER:                  -9.380
REMARK INTRA:                  -0.637
REMARK UNBOUND:                -1.195
REMARK SMILES CCCCC/C=C/C(=O)CCc1ccc(O)c(OC)c1
REMARK SMILES IDX 6 1 7 2 8 3 9 4 10 5 11 6 12 7 17 8 20 9 15 10 14 11 13 12
REMARK SMILES IDX 18 13 19 14 16 15 5 17 4 18 3 19 2 20 1 21
REMARK H PARENT 16 16
REMARK Flexibility Score: inf
ROOT
ATOM      1  C   UNL     1      94.309  95.175  75.570  1.00  0.00    -0.023 C 
ATOM      2  C   UNL     1      93.161  94.785  75.005  1.00  0.00     0.043 C 
ENDROOT
BRANCH   2   3
ATOM      3  C   UNL     1      92.383  93.665  75.602  1.00  0.00     0.155 C 
ATOM      4  O   UNL     1      92.664  93.194  76.702  1.00  0.00    -0.295 OA
BRANCH   3   5
ATOM      5  C   UNL     1      91.256  93.100  74.759  1.00  0.00     0.085 C 
BRANCH   5   6
ATOM      6  C   UNL     1      90.302  92.254  75.604  1.00  0.00     0.044 C 
BRANCH   6   7
ATOM      7  C   UNL     1      90.448  90.773  75.350  1.00  0.00    -0.044 A 
ATOM      8  C   UNL     1      90.665  88.535  76.190  1.00  0.00     0.160 A 
ATOM      9  C   UNL     1      90.530  89.904  76.426  1.00  0.00     0.054 A 
ATOM     10  C   UNL     1      90.715  88.054  74.882  1.00  0.00     0.157 A 
ATOM     11  C   UNL     1      90.631  88.942  73.809  1.00  0.00     0.050 A 
ATOM     12  C   UNL     1      90.496  90.310  74.045  1.00  0.00     0.008 A 
BRANCH   8  13
ATOM     13  O   UNL     1      90.746  87.679  77.247  1.00  0.00    -0.493 OA
ATOM     14  C   UNL     1      89.806  87.862  78.304  1.00  0.00     0.278 C 
ENDBRANCH   8  13
BRANCH  10  15
ATOM     15  O   UNL     1      90.845  86.720  74.639  1.00  0.00    -0.504 OA
ATOM     16  H   UNL     1      90.705  86.243  75.475  1.00  0.00     0.293 HD
ENDBRANCH  10  15
ENDBRANCH   6   7
ENDBRANCH   5   6
ENDBRANCH   3   5
ENDBRANCH   2   3
BRANCH   1  17
ATOM     17  C   UNL     1      95.152  96.294  75.030  1.00  0.00     0.027 C 
BRANCH  17  18
ATOM     18  C   UNL     1      96.653  96.077  75.248  1.00  0.00     0.004 C 
BRANCH  18  19
ATOM     19  C   UNL     1      97.181  96.705  76.542  1.00  0.00     0.000 C 
BRANCH  19  20
ATOM     20  C   UNL     1      97.474  95.635  77.595  1.00  0.00    -0.003 C 
ATOM     21  C   UNL     1      96.277  95.405  78.503  1.00  0.00     0.004 C 
ENDBRANCH  19  20
ENDBRANCH  18  19
ENDBRANCH  17  18
ENDBRANCH   1  17
TORSDOF 10
ENDMDL
MODEL 8
REMARK VINA RESULT:    -5.603     12.193     15.363
REMARK INTER + INTRA:          -9.909
REMARK INTER:                  -8.574
REMARK INTRA:                  -1.335
REMARK UNBOUND:                -1.195
REMARK SMILES CCCCC/C=C/C(=O)CCc1ccc(O)c(OC)c1
REMARK SMILES IDX 6 1 7 2 8 3 9 4 10 5 11 6 12 7 17 8 20 9 15 10 14 11 13 12
REMARK SMILES IDX 18 13 19 14 16 15 5 17 4 18 3 19 2 20 1 21
REMARK H PARENT 16 16
REMARK Flexibility Score: inf
ROOT
ATOM      1  C   UNL     1      82.431  89.783  84.591  1.00  0.00    -0.023 C 
ATOM      2  C   UNL     1      83.336  90.755  84.429  1.00  0.00     0.043 C 
ENDROOT
BRANCH   2   3
ATOM      3  C   UNL     1      84.705  90.595  84.990  1.00  0.00     0.155 C 
ATOM      4  O   UNL     1      85.581  89.972  84.394  1.00  0.00    -0.295 OA
BRANCH   3   5
ATOM      5  C   UNL     1      84.949  91.196  86.360  1.00  0.00     0.085 C 
BRANCH   5   6
ATOM      6  C   UNL     1      84.633  90.194  87.471  1.00  0.00     0.044 C 
BRANCH   6   7
ATOM      7  C   UNL     1      83.168  90.165  87.836  1.00  0.00    -0.044 A 
ATOM      8  C   UNL     1      81.160  88.920  88.259  1.00  0.00     0.160 A 
ATOM      9  C   UNL     1      82.513  88.946  87.921  1.00  0.00     0.054 A 
ATOM     10  C   UNL     1      80.479  90.112  88.507  1.00  0.00     0.157 A 
ATOM     11  C   UNL     1      81.153  91.331  88.417  1.00  0.00     0.050 A 
ATOM     12  C   UNL     1      82.506  91.357  88.079  1.00  0.00     0.008 A 
BRANCH   8  13
ATOM     13  O   UNL     1      80.514  87.724  88.344  1.00  0.00    -0.493 OA
ATOM     14  C   UNL     1      81.263  86.616  88.841  1.00  0.00     0.278 C 
ENDBRANCH   8  13
BRANCH  10  15
ATOM     15  O   UNL     1      79.158  90.099  88.838  1.00  0.00    -0.504 OA
ATOM     16  H   UNL     1      78.663  89.699  88.103  1.00  0.00     0.293 HD
ENDBRANCH  10  15
ENDBRANCH   6   7
ENDBRANCH   5   6
ENDBRANCH   3   5
ENDBRANCH   2   3
BRANCH   1  17
ATOM     17  C   UNL     1      81.030  89.868  84.057  1.00  0.00     0.027 C 
BRANCH  17  18
ATOM     18  C   UNL     1      80.111  88.769  84.601  1.00  0.00     0.004 C 
BRANCH  18  19
ATOM     19  C   UNL     1      80.835  87.449  84.886  1.00  0.00     0.000 C 
BRANCH  19  20
ATOM     20  C   UNL     1      80.745  86.501  83.689  1.00  0.00    -0.003 C 
ATOM     21  C   UNL     1      79.789  87.028  82.631  1.00  0.00     0.004 C 
ENDBRANCH  19  20
ENDBRANCH  18  19
ENDBRANCH  17  18
ENDBRANCH   1  17
TORSDOF 10
ENDMDL
MODEL 9
REMARK VINA RESULT:    -5.596      2.298      3.690
REMARK INTER + INTRA:          -9.898
REMARK INTER:                  -9.255
REMARK INTRA:                  -0.643
REMARK UNBOUND:                -1.195
REMARK SMILES CCCCC/C=C/C(=O)CCc1ccc(O)c(OC)c1
REMARK SMILES IDX 6 1 7 2 8 3 9 4 10 5 11 6 12 7 17 8 20 9 15 10 14 11 13 12
REMARK SMILES IDX 18 13 19 14 16 15 5 17 4 18 3 19 2 20 1 21
REMARK H PARENT 16 16
REMARK Flexibility Score: inf
ROOT
ATOM      1  C   UNL     1      93.825  95.357  75.269  1.00  0.00    -0.023 C 
ATOM      2  C   UNL     1      92.592  94.836  75.262  1.00  0.00     0.043 C 
ENDROOT
BRANCH   2   3
ATOM      3  C   UNL     1      92.274  93.672  76.133  1.00  0.00     0.155 C 
ATOM      4  O   UNL     1      93.137  93.107  76.801  1.00  0.00    -0.295 OA
BRANCH   3   5
ATOM      5  C   UNL     1      90.839  93.184  76.112  1.00  0.00     0.085 C 
BRANCH   5   6
ATOM      6  C   UNL     1      90.373  92.769  77.508  1.00  0.00     0.044 C 
BRANCH   6   7
ATOM      7  C   UNL     1      90.268  91.271  77.672  1.00  0.00    -0.044 A 
ATOM      8  C   UNL     1      90.338  89.071  76.718  1.00  0.00     0.160 A 
ATOM      9  C   UNL     1      90.434  90.454  76.565  1.00  0.00     0.054 A 
ATOM     10  C   UNL     1      90.078  88.523  77.973  1.00  0.00     0.157 A 
ATOM     11  C   UNL     1      89.913  89.359  79.078  1.00  0.00     0.050 A 
ATOM     12  C   UNL     1      90.009  90.743  78.926  1.00  0.00     0.008 A 
BRANCH   8  13
ATOM     13  O   UNL     1      90.500  88.265  75.631  1.00  0.00    -0.493 OA
ATOM     14  C   UNL     1      89.321  87.882  74.926  1.00  0.00     0.278 C 
ENDBRANCH   8  13
BRANCH  10  15
ATOM     15  O   UNL     1      89.982  87.174  78.135  1.00  0.00    -0.504 OA
ATOM     16  H   UNL     1      90.300  86.746  77.321  1.00  0.00     0.293 HD
ENDBRANCH  10  15
ENDBRANCH   6   7
ENDBRANCH   5   6
ENDBRANCH   3   5
ENDBRANCH   2   3
BRANCH   1  17
ATOM     17  C   UNL     1      94.225  96.529  74.421  1.00  0.00     0.027 C 
BRANCH  17  18
ATOM     18  C   UNL     1      95.740  96.757  74.386  1.00  0.00     0.004 C 
BRANCH  18  19
ATOM     19  C   UNL     1      96.340  97.106  75.751  1.00  0.00     0.000 C 
BRANCH  19  20
ATOM     20  C   UNL     1      97.349  96.047  76.198  1.00  0.00    -0.003 C 
ATOM     21  C   UNL     1      96.943  95.412  77.518  1.00  0.00     0.004 C 
ENDBRANCH  19  20
ENDBRANCH  18  19
ENDBRANCH  17  18
ENDBRANCH   1  17
TORSDOF 10
ENDMDL
MODEL 10
REMARK VINA RESULT:    -5.394     12.160     15.385
REMARK INTER + INTRA:          -9.584
REMARK INTER:                  -8.335
REMARK INTRA:                  -1.249
REMARK UNBOUND:                -1.195
REMARK SMILES CCCCC/C=C/C(=O)CCc1ccc(O)c(OC)c1
REMARK SMILES IDX 6 1 7 2 8 3 9 4 10 5 11 6 12 7 17 8 20 9 15 10 14 11 13 12
REMARK SMILES IDX 18 13 19 14 16 15 5 17 4 18 3 19 2 20 1 21
REMARK H PARENT 16 16
REMARK Flexibility Score: inf
ROOT
ATOM      1  C   UNL     1      82.519  89.848  84.647  1.00  0.00    -0.023 C 
ATOM      2  C   UNL     1      83.444  90.800  84.474  1.00  0.00     0.043 C 
ENDROOT
BRANCH   2   3
ATOM      3  C   UNL     1      84.832  90.583  84.964  1.00  0.00     0.155 C 
ATOM      4  O   UNL     1      85.664  89.964  84.304  1.00  0.00    -0.295 OA
BRANCH   3   5
ATOM      5  C   UNL     1      85.154  91.120  86.345  1.00  0.00     0.085 C 
BRANCH   5   6
ATOM      6  C   UNL     1      84.603  90.205  87.439  1.00  0.00     0.044 C 
BRANCH   6   7
ATOM      7  C   UNL     1      83.301  90.703  88.021  1.00  0.00    -0.044 A 
ATOM      8  C   UNL     1      81.980  92.495  88.917  1.00  0.00     0.160 A 
ATOM      9  C   UNL     1      83.183  92.036  88.380  1.00  0.00     0.054 A 
ATOM     10  C   UNL     1      80.912  91.615  89.088  1.00  0.00     0.157 A 
ATOM     11  C   UNL     1      81.046  90.275  88.723  1.00  0.00     0.050 A 
ATOM     12  C   UNL     1      82.249  89.816  88.186  1.00  0.00     0.008 A 
BRANCH   8  13
ATOM     13  O   UNL     1      81.862  93.806  89.270  1.00  0.00    -0.493 OA
ATOM     14  C   UNL     1      82.493  94.765  88.423  1.00  0.00     0.278 C 
ENDBRANCH   8  13
BRANCH  10  15
ATOM     15  O   UNL     1      79.732  92.052  89.611  1.00  0.00    -0.504 OA
ATOM     16  H   UNL     1      79.901  92.387  90.508  1.00  0.00     0.293 HD
ENDBRANCH  10  15
ENDBRANCH   6   7
ENDBRANCH   5   6
ENDBRANCH   3   5
ENDBRANCH   2   3
BRANCH   1  17
ATOM     17  C   UNL     1      81.098  89.991  84.183  1.00  0.00     0.027 C 
BRANCH  17  18
ATOM     18  C   UNL     1      80.164  88.926  84.769  1.00  0.00     0.004 C 
BRANCH  18  19
ATOM     19  C   UNL     1      80.890  87.654  85.219  1.00  0.00     0.000 C 
BRANCH  19  20
ATOM     20  C   UNL     1      80.782  86.554  84.162  1.00  0.00    -0.003 C 
ATOM     21  C   UNL     1      79.986  87.020  82.953  1.00  0.00     0.004 C 
ENDBRANCH  19  20
ENDBRANCH  18  19
ENDBRANCH  17  18
ENDBRANCH   1  17
TORSDOF 10
ENDMDL
