MODEL 1
REMARK VINA RESULT:    -6.883      0.000      0.000
REMARK INTER + INTRA:         -11.238
REMARK INTER:                 -10.705
REMARK INTRA:                  -0.533
REMARK UNBOUND:                -0.533
REMARK SMILES COc1cc(CNC(=O)CCCCCC(C)C)ccc1O
REMARK SMILES IDX 10 1 8 2 7 3 9 5 6 6 5 7 3 8 20 9 4 10 19 11 18 12 2 13 1 14
REMARK SMILES IDX 21 15 11 17 12 18 13 19 14 20 15 21 16 22 17 23
REMARK H PARENT 7 4 21 16
REMARK Flexibility Score: inf
ROOT
ATOM      1  C   UNL     1      93.479  82.563  85.204  1.00  0.00     0.100 C 
ENDROOT
BRANCH   1   2
ATOM      2  C   UNL     1      92.307  81.719  85.519  1.00  0.00     0.220 C 
ATOM      3  N   UNL     1      91.294  81.617  84.613  1.00  0.00    -0.352 N 
ATOM      4  H   UNL     1      91.362  82.247  83.827  1.00  0.00     0.163 HD
ATOM      5  O   UNL     1      92.290  81.079  86.598  1.00  0.00    -0.275 OA
BRANCH   3   6
ATOM      6  C   UNL     1      90.195  80.711  84.709  1.00  0.00     0.151 C 
BRANCH   6   7
ATOM      7  C   UNL     1      88.911  81.297  84.236  1.00  0.00    -0.025 A 
ATOM      8  C   UNL     1      87.296  83.151  84.209  1.00  0.00     0.160 A 
ATOM      9  C   UNL     1      86.501  82.442  83.284  1.00  0.00     0.157 A 
ATOM     10  C   UNL     1      88.486  82.567  84.693  1.00  0.00     0.056 A 
ATOM     11  C   UNL     1      86.901  81.167  82.843  1.00  0.00     0.050 A 
ATOM     12  C   UNL     1      88.099  80.601  83.311  1.00  0.00     0.009 A 
BRANCH   8  13
ATOM     13  O   UNL     1      86.914  84.385  84.666  1.00  0.00    -0.493 OA
ATOM     14  C   UNL     1      86.362  84.368  85.996  1.00  0.00     0.278 C 
ENDBRANCH   8  13
BRANCH   9  15
ATOM     15  O   UNL     1      85.354  82.993  82.813  1.00  0.00    -0.504 OA
ATOM     16  H   UNL     1      85.503  83.337  81.929  1.00  0.00     0.293 HD
ENDBRANCH   9  15
ENDBRANCH   6   7
ENDBRANCH   3   6
ENDBRANCH   1   2
BRANCH   1  17
ATOM     17  C   UNL     1      94.510  81.895  84.255  1.00  0.00     0.010 C 
BRANCH  17  18
ATOM     18  C   UNL     1      95.292  82.951  83.425  1.00  0.00     0.001 C 
BRANCH  18  19
ATOM     19  C   UNL     1      96.731  82.503  83.057  1.00  0.00     0.000 C 
BRANCH  19  20
ATOM     20  C   UNL     1      96.749  81.503  81.865  1.00  0.00     0.003 C 
BRANCH  20  21
ATOM     21  C   UNL     1      97.538  81.990  80.606  1.00  0.00    -0.017 C 
ATOM     22  C   UNL     1      99.054  82.146  80.927  1.00  0.00     0.007 C 
ATOM     23  C   UNL     1      96.978  83.317  80.018  1.00  0.00     0.007 C 
ENDBRANCH  20  21
ENDBRANCH  19  20
ENDBRANCH  18  19
ENDBRANCH  17  18
ENDBRANCH   1  17
TORSDOF 10
ENDMDL
MODEL 2
REMARK VINA RESULT:    -5.950      8.303     12.976
REMARK INTER + INTRA:          -9.787
REMARK INTER:                  -9.294
REMARK INTRA:                  -0.493
REMARK UNBOUND:                -0.533
REMARK SMILES COc1cc(CNC(=O)CCCCCC(C)C)ccc1O
REMARK SMILES IDX 10 1 8 2 7 3 9 5 6 6 5 7 3 8 20 9 4 10 19 11 18 12 2 13 1 14
REMARK SMILES IDX 21 15 11 17 12 18 13 19 14 20 15 21 16 22 17 23
REMARK H PARENT 7 4 21 16
REMARK Flexibility Score: inf
ROOT
ATOM      1  C   UNL     1      97.836  83.543  78.171  1.00  0.00     0.100 C 
ENDROOT
BRANCH   1   2
ATOM      2  C   UNL     1      97.237  84.076  76.930  1.00  0.00     0.220 C 
ATOM      3  N   UNL     1      98.006  84.193  75.811  1.00  0.00    -0.352 N 
ATOM      4  H   UNL     1      98.992  84.023  75.954  1.00  0.00     0.163 HD
ATOM      5  O   UNL     1      96.016  84.371  76.921  1.00  0.00    -0.275 OA
BRANCH   3   6
ATOM      6  C   UNL     1      97.520  84.525  74.510  1.00  0.00     0.151 C 
BRANCH   6   7
ATOM      7  C   UNL     1      98.540  84.345  73.442  1.00  0.00    -0.025 A 
ATOM      8  C   UNL     1      99.589  82.950  71.709  1.00  0.00     0.160 A 
ATOM      9  C   UNL     1     100.436  84.023  71.362  1.00  0.00     0.157 A 
ATOM     10  C   UNL     1      98.659  83.111  72.759  1.00  0.00     0.056 A 
ATOM     11  C   UNL     1     100.344  85.246  72.052  1.00  0.00     0.050 A 
ATOM     12  C   UNL     1      99.400  85.407  73.080  1.00  0.00     0.009 A 
BRANCH   8  13
ATOM     13  O   UNL     1      99.676  81.745  71.063  1.00  0.00    -0.493 OA
ATOM     14  C   UNL     1      98.412  81.068  70.921  1.00  0.00     0.278 C 
ENDBRANCH   8  13
BRANCH   9  15
ATOM     15  O   UNL     1     101.335  83.878  70.356  1.00  0.00    -0.504 OA
ATOM     16  H   UNL     1     101.410  84.704  69.872  1.00  0.00     0.293 HD
ENDBRANCH   9  15
ENDBRANCH   6   7
ENDBRANCH   3   6
ENDBRANCH   1   2
BRANCH   1  17
ATOM     17  C   UNL     1      96.813  83.265  79.305  1.00  0.00     0.010 C 
BRANCH  17  18
ATOM     18  C   UNL     1      97.178  81.982  80.103  1.00  0.00     0.001 C 
BRANCH  18  19
ATOM     19  C   UNL     1      97.013  82.143  81.637  1.00  0.00     0.000 C 
BRANCH  19  20
ATOM     20  C   UNL     1      96.605  83.591  82.037  1.00  0.00     0.003 C 
BRANCH  20  21
ATOM     21  C   UNL     1      96.200  83.773  83.536  1.00  0.00    -0.017 C 
ATOM     22  C   UNL     1      94.962  82.896  83.887  1.00  0.00     0.007 C 
ATOM     23  C   UNL     1      95.927  85.258  83.912  1.00  0.00     0.007 C 
ENDBRANCH  20  21
ENDBRANCH  19  20
ENDBRANCH  18  19
ENDBRANCH  17  18
ENDBRANCH   1  17
TORSDOF 10
ENDMDL
MODEL 3
REMARK VINA RESULT:    -5.840      1.633      2.408
REMARK INTER + INTRA:          -9.616
REMARK INTER:                  -8.960
REMARK INTRA:                  -0.656
REMARK UNBOUND:                -0.533
REMARK SMILES COc1cc(CNC(=O)CCCCCC(C)C)ccc1O
REMARK SMILES IDX 10 1 8 2 7 3 9 5 6 6 5 7 3 8 20 9 4 10 19 11 18 12 2 13 1 14
REMARK SMILES IDX 21 15 11 17 12 18 13 19 14 20 15 21 16 22 17 23
REMARK H PARENT 7 4 21 16
REMARK Flexibility Score: inf
ROOT
ATOM      1  C   UNL     1      95.113  83.622  83.875  1.00  0.00     0.100 C 
ENDROOT
BRANCH   1   2
ATOM      2  C   UNL     1      94.497  82.576  84.718  1.00  0.00     0.220 C 
ATOM      3  N   UNL     1      93.264  82.095  84.394  1.00  0.00    -0.352 N 
ATOM      4  H   UNL     1      92.792  82.598  83.655  1.00  0.00     0.163 HD
ATOM      5  O   UNL     1      95.144  82.120  85.692  1.00  0.00    -0.275 OA
BRANCH   3   6
ATOM      6  C   UNL     1      92.630  80.974  85.011  1.00  0.00     0.151 C 
BRANCH   6   7
ATOM      7  C   UNL     1      91.197  80.834  84.638  1.00  0.00    -0.025 A 
ATOM      8  C   UNL     1      89.003  81.848  84.185  1.00  0.00     0.160 A 
ATOM      9  C   UNL     1      88.484  80.576  83.863  1.00  0.00     0.157 A 
ATOM     10  C   UNL     1      90.350  81.967  84.589  1.00  0.00     0.056 A 
ATOM     11  C   UNL     1      89.311  79.439  83.934  1.00  0.00     0.050 A 
ATOM     12  C   UNL     1      90.658  79.568  84.313  1.00  0.00     0.009 A 
BRANCH   8  13
ATOM     13  O   UNL     1      88.210  82.965  84.141  1.00  0.00    -0.493 OA
ATOM     14  C   UNL     1      87.706  83.372  85.428  1.00  0.00     0.278 C 
ENDBRANCH   8  13
BRANCH   9  15
ATOM     15  O   UNL     1      87.190  80.451  83.476  1.00  0.00    -0.504 OA
ATOM     16  H   UNL     1      86.681  80.052  84.185  1.00  0.00     0.293 HD
ENDBRANCH   9  15
ENDBRANCH   6   7
ENDBRANCH   3   6
ENDBRANCH   1   2
BRANCH   1  17
ATOM     17  C   UNL     1      95.947  83.075  82.686  1.00  0.00     0.010 C 
BRANCH  17  18
ATOM     18  C   UNL     1      97.331  82.544  83.153  1.00  0.00     0.001 C 
BRANCH  18  19
ATOM     19  C   UNL     1      97.895  81.416  82.250  1.00  0.00     0.000 C 
BRANCH  19  20
ATOM     20  C   UNL     1      97.120  81.296  80.905  1.00  0.00     0.003 C 
BRANCH  20  21
ATOM     21  C   UNL     1      97.831  81.946  79.674  1.00  0.00    -0.017 C 
ATOM     22  C   UNL     1      97.138  83.282  79.274  1.00  0.00     0.007 C 
ATOM     23  C   UNL     1      97.904  80.993  78.446  1.00  0.00     0.007 C 
ENDBRANCH  20  21
ENDBRANCH  19  20
ENDBRANCH  18  19
ENDBRANCH  17  18
ENDBRANCH   1  17
TORSDOF 10
ENDMDL
MODEL 4
REMARK VINA RESULT:    -5.794      4.225      6.855
REMARK INTER + INTRA:          -9.544
REMARK INTER:                  -8.956
REMARK INTRA:                  -0.589
REMARK UNBOUND:                -0.533
REMARK SMILES COc1cc(CNC(=O)CCCCCC(C)C)ccc1O
REMARK SMILES IDX 10 1 8 2 7 3 9 5 6 6 5 7 3 8 20 9 4 10 19 11 18 12 2 13 1 14
REMARK SMILES IDX 21 15 11 17 12 18 13 19 14 20 15 21 16 22 17 23
REMARK H PARENT 7 4 21 16
REMARK Flexibility Score: inf
ROOT
ATOM      1  C   UNL     1      97.058  83.189  79.807  1.00  0.00     0.100 C 
ENDROOT
BRANCH   1   2
ATOM      2  C   UNL     1      97.068  82.519  81.124  1.00  0.00     0.220 C 
ATOM      3  N   UNL     1      97.113  83.273  82.259  1.00  0.00    -0.352 N 
ATOM      4  H   UNL     1      97.272  84.259  82.108  1.00  0.00     0.163 HD
ATOM      5  O   UNL     1      96.993  81.267  81.171  1.00  0.00    -0.275 OA
BRANCH   3   6
ATOM      6  C   UNL     1      96.955  82.771  83.586  1.00  0.00     0.151 C 
BRANCH   6   7
ATOM      7  C   UNL     1      95.559  82.879  84.089  1.00  0.00    -0.025 A 
ATOM      8  C   UNL     1      93.775  84.189  85.161  1.00  0.00     0.160 A 
ATOM      9  C   UNL     1      92.882  83.111  84.988  1.00  0.00     0.157 A 
ATOM     10  C   UNL     1      95.112  84.060  84.728  1.00  0.00     0.056 A 
ATOM     11  C   UNL     1      93.323  81.922  84.378  1.00  0.00     0.050 A 
ATOM     12  C   UNL     1      94.649  81.809  83.927  1.00  0.00     0.009 A 
BRANCH   8  13
ATOM     13  O   UNL     1      93.371  85.348  85.770  1.00  0.00    -0.493 OA
ATOM     14  C   UNL     1      94.182  86.492  85.442  1.00  0.00     0.278 C 
ENDBRANCH   8  13
BRANCH   9  15
ATOM     15  O   UNL     1      91.595  83.223  85.402  1.00  0.00    -0.504 OA
ATOM     16  H   UNL     1      91.337  84.148  85.398  1.00  0.00     0.293 HD
ENDBRANCH   9  15
ENDBRANCH   6   7
ENDBRANCH   3   6
ENDBRANCH   1   2
BRANCH   1  17
ATOM     17  C   UNL     1      97.424  82.263  78.616  1.00  0.00     0.010 C 
BRANCH  17  18
ATOM     18  C   UNL     1      98.506  82.903  77.704  1.00  0.00     0.001 C 
BRANCH  18  19
ATOM     19  C   UNL     1      98.298  82.602  76.196  1.00  0.00     0.000 C 
BRANCH  19  20
ATOM     20  C   UNL     1      99.218  83.471  75.290  1.00  0.00     0.003 C 
BRANCH  20  21
ATOM     21  C   UNL     1      98.505  84.666  74.579  1.00  0.00    -0.017 C 
ATOM     22  C   UNL     1      96.975  84.654  74.870  1.00  0.00     0.007 C 
ATOM     23  C   UNL     1      98.756  84.692  73.043  1.00  0.00     0.007 C 
ENDBRANCH  20  21
ENDBRANCH  19  20
ENDBRANCH  18  19
ENDBRANCH  17  18
ENDBRANCH   1  17
TORSDOF 10
ENDMDL
MODEL 5
REMARK VINA RESULT:    -5.671     21.743     24.013
REMARK INTER + INTRA:          -9.353
REMARK INTER:                  -8.574
REMARK INTRA:                  -0.779
REMARK UNBOUND:                -0.533
REMARK SMILES COc1cc(CNC(=O)CCCCCC(C)C)ccc1O
REMARK SMILES IDX 10 1 8 2 7 3 9 5 6 6 5 7 3 8 20 9 4 10 19 11 18 12 2 13 1 14
REMARK SMILES IDX 21 15 11 17 12 18 13 19 14 20 15 21 16 22 17 23
REMARK H PARENT 7 4 21 16
REMARK Flexibility Score: inf
ROOT
ATOM      1  C   UNL     1      76.012  89.535  68.755  1.00  0.00     0.100 C 
ENDROOT
BRANCH   1   2
ATOM      2  C   UNL     1      76.984  88.496  68.355  1.00  0.00     0.220 C 
ATOM      3  N   UNL     1      76.806  87.213  68.779  1.00  0.00    -0.352 N 
ATOM      4  H   UNL     1      76.073  87.090  69.463  1.00  0.00     0.163 HD
ATOM      5  O   UNL     1      77.933  88.810  67.596  1.00  0.00    -0.275 OA
BRANCH   3   6
ATOM      6  C   UNL     1      77.562  86.087  68.332  1.00  0.00     0.151 C 
BRANCH   6   7
ATOM      7  C   UNL     1      76.886  85.323  67.249  1.00  0.00    -0.025 A 
ATOM      8  C   UNL     1      74.923  84.930  65.822  1.00  0.00     0.160 A 
ATOM      9  C   UNL     1      75.624  83.911  65.142  1.00  0.00     0.157 A 
ATOM     10  C   UNL     1      75.551  85.616  66.883  1.00  0.00     0.056 A 
ATOM     11  C   UNL     1      76.942  83.593  65.516  1.00  0.00     0.050 A 
ATOM     12  C   UNL     1      77.571  84.297  66.557  1.00  0.00     0.009 A 
BRANCH   8  13
ATOM     13  O   UNL     1      73.631  85.241  65.487  1.00  0.00    -0.493 OA
ATOM     14  C   UNL     1      72.650  84.719  66.404  1.00  0.00     0.278 C 
ENDBRANCH   8  13
BRANCH   9  15
ATOM     15  O   UNL     1      75.028  83.244  64.122  1.00  0.00    -0.504 OA
ATOM     16  H   UNL     1      74.074  83.297  64.219  1.00  0.00     0.293 HD
ENDBRANCH   9  15
ENDBRANCH   6   7
ENDBRANCH   3   6
ENDBRANCH   1   2
BRANCH   1  17
ATOM     17  C   UNL     1      74.543  89.039  68.830  1.00  0.00     0.010 C 
BRANCH  17  18
ATOM     18  C   UNL     1      73.832  89.548  70.114  1.00  0.00     0.001 C 
BRANCH  18  19
ATOM     19  C   UNL     1      74.593  90.699  70.824  1.00  0.00     0.000 C 
BRANCH  19  20
ATOM     20  C   UNL     1      73.817  92.047  70.757  1.00  0.00     0.003 C 
BRANCH  20  21
ATOM     21  C   UNL     1      73.624  92.767  72.131  1.00  0.00    -0.017 C 
ATOM     22  C   UNL     1      74.959  93.405  72.616  1.00  0.00     0.007 C 
ATOM     23  C   UNL     1      73.052  91.826  73.231  1.00  0.00     0.007 C 
ENDBRANCH  20  21
ENDBRANCH  19  20
ENDBRANCH  18  19
ENDBRANCH  17  18
ENDBRANCH   1  17
TORSDOF 10
ENDMDL
MODEL 6
REMARK VINA RESULT:    -5.547     21.442     23.184
REMARK INTER + INTRA:          -9.161
REMARK INTER:                  -8.195
REMARK INTRA:                  -0.966
REMARK UNBOUND:                -0.533
REMARK SMILES COc1cc(CNC(=O)CCCCCC(C)C)ccc1O
REMARK SMILES IDX 10 1 8 2 7 3 9 5 6 6 5 7 3 8 20 9 4 10 19 11 18 12 2 13 1 14
REMARK SMILES IDX 21 15 11 17 12 18 13 19 14 20 15 21 16 22 17 23
REMARK H PARENT 7 4 21 16
REMARK Flexibility Score: inf
ROOT
ATOM      1  C   UNL     1      75.062  89.221  67.825  1.00  0.00     0.100 C 
ENDROOT
BRANCH   1   2
ATOM      2  C   UNL     1      73.872  89.468  68.666  1.00  0.00     0.220 C 
ATOM      3  N   UNL     1      73.995  89.448  70.023  1.00  0.00    -0.352 N 
ATOM      4  H   UNL     1      74.891  89.128  70.363  1.00  0.00     0.163 HD
ATOM      5  O   UNL     1      72.778  89.734  68.110  1.00  0.00    -0.275 OA
BRANCH   3   6
ATOM      6  C   UNL     1      72.978  89.837  70.946  1.00  0.00     0.151 C 
BRANCH   6   7
ATOM      7  C   UNL     1      73.351  91.026  71.760  1.00  0.00    -0.025 A 
ATOM      8  C   UNL     1      73.086  92.388  73.790  1.00  0.00     0.160 A 
ATOM      9  C   UNL     1      74.107  93.252  73.340  1.00  0.00     0.157 A 
ATOM     10  C   UNL     1      72.701  91.292  72.989  1.00  0.00     0.056 A 
ATOM     11  C   UNL     1      74.741  93.012  72.107  1.00  0.00     0.050 A 
ATOM     12  C   UNL     1      74.370  91.905  71.325  1.00  0.00     0.009 A 
BRANCH   8  13
ATOM     13  O   UNL     1      72.443  92.616  74.978  1.00  0.00    -0.493 OA
ATOM     14  C   UNL     1      71.828  91.441  75.541  1.00  0.00     0.278 C 
ENDBRANCH   8  13
BRANCH   9  15
ATOM     15  O   UNL     1      74.483  94.310  74.101  1.00  0.00    -0.504 OA
ATOM     16  H   UNL     1      74.341  94.104  75.028  1.00  0.00     0.293 HD
ENDBRANCH   9  15
ENDBRANCH   6   7
ENDBRANCH   3   6
ENDBRANCH   1   2
BRANCH   1  17
ATOM     17  C   UNL     1      76.414  89.372  68.572  1.00  0.00     0.010 C 
BRANCH  17  18
ATOM     18  C   UNL     1      77.556  88.604  67.850  1.00  0.00     0.001 C 
BRANCH  18  19
ATOM     19  C   UNL     1      77.253  87.096  67.649  1.00  0.00     0.000 C 
BRANCH  19  20
ATOM     20  C   UNL     1      77.107  86.339  69.002  1.00  0.00     0.003 C 
BRANCH  20  21
ATOM     21  C   UNL     1      76.079  85.162  68.992  1.00  0.00    -0.017 C 
ATOM     22  C   UNL     1      74.665  85.663  68.572  1.00  0.00     0.007 C 
ATOM     23  C   UNL     1      75.998  84.419  70.357  1.00  0.00     0.007 C 
ENDBRANCH  20  21
ENDBRANCH  19  20
ENDBRANCH  18  19
ENDBRANCH  17  18
ENDBRANCH   1  17
TORSDOF 10
ENDMDL
MODEL 7
REMARK VINA RESULT:    -5.532     22.094     25.062
REMARK INTER + INTRA:          -9.137
REMARK INTER:                  -7.770
REMARK INTRA:                  -1.366
REMARK UNBOUND:                -0.533
REMARK SMILES COc1cc(CNC(=O)CCCCCC(C)C)ccc1O
REMARK SMILES IDX 10 1 8 2 7 3 9 5 6 6 5 7 3 8 20 9 4 10 19 11 18 12 2 13 1 14
REMARK SMILES IDX 21 15 11 17 12 18 13 19 14 20 15 21 16 22 17 23
REMARK H PARENT 7 4 21 16
REMARK Flexibility Score: inf
ROOT
ATOM      1  C   UNL     1      76.246  83.536  63.699  1.00  0.00     0.100 C 
ENDROOT
BRANCH   1   2
ATOM      2  C   UNL     1      74.855  84.020  63.577  1.00  0.00     0.220 C 
ATOM      3  N   UNL     1      73.851  83.337  64.196  1.00  0.00    -0.352 N 
ATOM      4  H   UNL     1      74.124  82.451  64.597  1.00  0.00     0.163 HD
ATOM      5  O   UNL     1      74.632  85.077  62.938  1.00  0.00    -0.275 OA
BRANCH   3   6
ATOM      6  C   UNL     1      72.499  83.783  64.305  1.00  0.00     0.151 C 
BRANCH   6   7
ATOM      7  C   UNL     1      72.105  84.116  65.701  1.00  0.00    -0.025 A 
ATOM      8  C   UNL     1      70.455  84.054  67.523  1.00  0.00     0.160 A 
ATOM      9  C   UNL     1      71.378  84.692  68.378  1.00  0.00     0.157 A 
ATOM     10  C   UNL     1      70.817  83.788  66.185  1.00  0.00     0.056 A 
ATOM     11  C   UNL     1      72.653  85.047  67.899  1.00  0.00     0.050 A 
ATOM     12  C   UNL     1      73.016  84.757  66.573  1.00  0.00     0.009 A 
BRANCH   8  13
ATOM     13  O   UNL     1      69.202  83.718  67.964  1.00  0.00    -0.493 OA
ATOM     14  C   UNL     1      68.161  84.590  67.482  1.00  0.00     0.278 C 
ENDBRANCH   8  13
BRANCH   9  15
ATOM     15  O   UNL     1      71.040  84.954  69.665  1.00  0.00    -0.504 OA
ATOM     16  H   UNL     1      71.800  85.311  70.130  1.00  0.00     0.293 HD
ENDBRANCH   9  15
ENDBRANCH   6   7
ENDBRANCH   3   6
ENDBRANCH   1   2
BRANCH   1  17
ATOM     17  C   UNL     1      76.698  83.256  65.158  1.00  0.00     0.010 C 
BRANCH  17  18
ATOM     18  C   UNL     1      76.769  84.562  65.996  1.00  0.00     0.001 C 
BRANCH  18  19
ATOM     19  C   UNL     1      77.279  84.338  67.444  1.00  0.00     0.000 C 
BRANCH  19  20
ATOM     20  C   UNL     1      77.491  85.678  68.207  1.00  0.00     0.003 C 
BRANCH  20  21
ATOM     21  C   UNL     1      76.585  85.871  69.466  1.00  0.00    -0.017 C 
ATOM     22  C   UNL     1      75.961  84.517  69.915  1.00  0.00     0.007 C 
ATOM     23  C   UNL     1      75.464  86.929  69.247  1.00  0.00     0.007 C 
ENDBRANCH  20  21
ENDBRANCH  19  20
ENDBRANCH  18  19
ENDBRANCH  17  18
ENDBRANCH   1  17
TORSDOF 10
ENDMDL
MODEL 8
REMARK VINA RESULT:    -5.483     20.658     22.635
REMARK INTER + INTRA:          -9.061
REMARK INTER:                  -8.409
REMARK INTRA:                  -0.652
REMARK UNBOUND:                -0.533
REMARK SMILES COc1cc(CNC(=O)CCCCCC(C)C)ccc1O
REMARK SMILES IDX 10 1 8 2 7 3 9 5 6 6 5 7 3 8 20 9 4 10 19 11 18 12 2 13 1 14
REMARK SMILES IDX 21 15 11 17 12 18 13 19 14 20 15 21 16 22 17 23
REMARK H PARENT 7 4 21 16
REMARK Flexibility Score: inf
ROOT
ATOM      1  C   UNL     1      73.813  90.425  71.097  1.00  0.00     0.100 C 
ENDROOT
BRANCH   1   2
ATOM      2  C   UNL     1      73.836  91.883  71.336  1.00  0.00     0.220 C 
ATOM      3  N   UNL     1      73.949  92.351  72.611  1.00  0.00    -0.352 N 
ATOM      4  H   UNL     1      73.875  91.645  73.330  1.00  0.00     0.163 HD
ATOM      5  O   UNL     1      73.794  92.662  70.352  1.00  0.00    -0.275 OA
BRANCH   3   6
ATOM      6  C   UNL     1      74.156  93.717  72.970  1.00  0.00     0.151 C 
BRANCH   6   7
ATOM      7  C   UNL     1      75.362  93.922  73.817  1.00  0.00    -0.025 A 
ATOM      8  C   UNL     1      77.695  94.658  74.062  1.00  0.00     0.160 A 
ATOM      9  C   UNL     1      77.636  94.376  75.444  1.00  0.00     0.157 A 
ATOM     10  C   UNL     1      76.564  94.412  73.255  1.00  0.00     0.056 A 
ATOM     11  C   UNL     1      76.454  93.864  76.008  1.00  0.00     0.050 A 
ATOM     12  C   UNL     1      75.324  93.644  75.203  1.00  0.00     0.009 A 
BRANCH   8  13
ATOM     13  O   UNL     1      78.843  95.139  73.489  1.00  0.00    -0.493 OA
ATOM     14  C   UNL     1      78.767  96.526  73.108  1.00  0.00     0.278 C 
ENDBRANCH   8  13
BRANCH   9  15
ATOM     15  O   UNL     1      78.718  94.607  76.228  1.00  0.00    -0.504 OA
ATOM     16  H   UNL     1      78.789  95.548  76.407  1.00  0.00     0.293 HD
ENDBRANCH   9  15
ENDBRANCH   6   7
ENDBRANCH   3   6
ENDBRANCH   1   2
BRANCH   1  17
ATOM     17  C   UNL     1      74.132  90.013  69.634  1.00  0.00     0.010 C 
BRANCH  17  18
ATOM     18  C   UNL     1      75.662  89.897  69.393  1.00  0.00     0.001 C 
BRANCH  18  19
ATOM     19  C   UNL     1      76.024  89.187  68.061  1.00  0.00     0.000 C 
BRANCH  19  20
ATOM     20  C   UNL     1      77.224  88.209  68.222  1.00  0.00     0.003 C 
BRANCH  20  21
ATOM     21  C   UNL     1      76.864  86.694  68.081  1.00  0.00    -0.017 C 
ATOM     22  C   UNL     1      75.376  86.514  67.658  1.00  0.00     0.007 C 
ATOM     23  C   UNL     1      77.153  85.881  69.376  1.00  0.00     0.007 C 
ENDBRANCH  20  21
ENDBRANCH  19  20
ENDBRANCH  18  19
ENDBRANCH  17  18
ENDBRANCH   1  17
TORSDOF 10
ENDMDL
MODEL 9
REMARK VINA RESULT:    -5.414     22.210     24.402
REMARK INTER + INTRA:          -8.953
REMARK INTER:                  -7.788
REMARK INTRA:                  -1.165
REMARK UNBOUND:                -0.533
REMARK SMILES COc1cc(CNC(=O)CCCCCC(C)C)ccc1O
REMARK SMILES IDX 10 1 8 2 7 3 9 5 6 6 5 7 3 8 20 9 4 10 19 11 18 12 2 13 1 14
REMARK SMILES IDX 21 15 11 17 12 18 13 19 14 20 15 21 16 22 17 23
REMARK H PARENT 7 4 21 16
REMARK Flexibility Score: inf
ROOT
ATOM      1  C   UNL     1      77.330  84.369  66.315  1.00  0.00     0.100 C 
ENDROOT
BRANCH   1   2
ATOM      2  C   UNL     1      75.980  84.036  65.813  1.00  0.00     0.220 C 
ATOM      3  N   UNL     1      75.157  85.038  65.393  1.00  0.00    -0.352 N 
ATOM      4  H   UNL     1      75.491  85.971  65.584  1.00  0.00     0.163 HD
ATOM      5  O   UNL     1      75.636  82.831  65.744  1.00  0.00    -0.275 OA
BRANCH   3   6
ATOM      6  C   UNL     1      73.906  84.849  64.730  1.00  0.00     0.151 C 
BRANCH   6   7
ATOM      7  C   UNL     1      72.795  84.515  65.661  1.00  0.00    -0.025 A 
ATOM      8  C   UNL     1      71.563  84.934  67.748  1.00  0.00     0.160 A 
ATOM      9  C   UNL     1      70.640  83.924  67.403  1.00  0.00     0.157 A 
ATOM     10  C   UNL     1      72.645  85.210  66.885  1.00  0.00     0.056 A 
ATOM     11  C   UNL     1      70.795  83.208  66.202  1.00  0.00     0.050 A 
ATOM     12  C   UNL     1      71.861  83.505  65.335  1.00  0.00     0.009 A 
BRANCH   8  13
ATOM     13  O   UNL     1      71.441  85.629  68.923  1.00  0.00    -0.493 OA
ATOM     14  C   UNL     1      70.896  86.952  68.762  1.00  0.00     0.278 C 
ENDBRANCH   8  13
BRANCH   9  15
ATOM     15  O   UNL     1      69.598  83.649  68.227  1.00  0.00    -0.504 OA
ATOM     16  H   UNL     1      69.931  83.339  69.072  1.00  0.00     0.293 HD
ENDBRANCH   9  15
ENDBRANCH   6   7
ENDBRANCH   3   6
ENDBRANCH   1   2
BRANCH   1  17
ATOM     17  C   UNL     1      77.463  84.330  67.861  1.00  0.00     0.010 C 
BRANCH  17  18
ATOM     18  C   UNL     1      76.104  84.611  68.560  1.00  0.00     0.001 C 
BRANCH  18  19
ATOM     19  C   UNL     1      75.865  86.114  68.863  1.00  0.00     0.000 C 
BRANCH  19  20
ATOM     20  C   UNL     1      77.188  86.933  68.855  1.00  0.00     0.003 C 
BRANCH  20  21
ATOM     21  C   UNL     1      77.102  88.319  68.136  1.00  0.00    -0.017 C 
ATOM     22  C   UNL     1      76.060  89.242  68.833  1.00  0.00     0.007 C 
ATOM     23  C   UNL     1      76.775  88.194  66.620  1.00  0.00     0.007 C 
ENDBRANCH  20  21
ENDBRANCH  19  20
ENDBRANCH  18  19
ENDBRANCH  17  18
ENDBRANCH   1  17
TORSDOF 10
ENDMDL
MODEL 10
REMARK VINA RESULT:    -5.396      8.560     10.964
REMARK INTER + INTRA:          -8.927
REMARK INTER:                  -7.819
REMARK INTRA:                  -1.107
REMARK UNBOUND:                -0.533
REMARK SMILES COc1cc(CNC(=O)CCCCCC(C)C)ccc1O
REMARK SMILES IDX 10 1 8 2 7 3 9 5 6 6 5 7 3 8 20 9 4 10 19 11 18 12 2 13 1 14
REMARK SMILES IDX 21 15 11 17 12 18 13 19 14 20 15 21 16 22 17 23
REMARK H PARENT 7 4 21 16
REMARK Flexibility Score: inf
ROOT
ATOM      1  C   UNL     1      99.701  80.679  80.718  1.00  0.00     0.100 C 
ENDROOT
BRANCH   1   2
ATOM      2  C   UNL     1      98.387  81.215  80.307  1.00  0.00     0.220 C 
ATOM      3  N   UNL     1      98.284  82.523  79.937  1.00  0.00    -0.352 N 
ATOM      4  H   UNL     1      99.112  83.077  80.101  1.00  0.00     0.163 HD
ATOM      5  O   UNL     1      97.399  80.442  80.266  1.00  0.00    -0.275 OA
BRANCH   3   6
ATOM      6  C   UNL     1      97.126  83.124  79.357  1.00  0.00     0.151 C 
BRANCH   6   7
ATOM      7  C   UNL     1      97.329  83.539  77.943  1.00  0.00    -0.025 A 
ATOM      8  C   UNL     1      98.665  83.497  75.879  1.00  0.00     0.160 A 
ATOM      9  C   UNL     1      97.682  84.273  75.229  1.00  0.00     0.157 A 
ATOM     10  C   UNL     1      98.491  83.151  77.236  1.00  0.00     0.056 A 
ATOM     11  C   UNL     1      96.534  84.687  75.930  1.00  0.00     0.050 A 
ATOM     12  C   UNL     1      96.356  84.319  77.274  1.00  0.00     0.009 A 
BRANCH   8  13
ATOM     13  O   UNL     1      99.799  83.100  75.220  1.00  0.00    -0.493 OA
ATOM     14  C   UNL     1      99.762  81.731  74.771  1.00  0.00     0.278 C 
ENDBRANCH   8  13
BRANCH   9  15
ATOM     15  O   UNL     1      97.840  84.613  73.925  1.00  0.00    -0.504 OA
ATOM     16  H   UNL     1      97.467  85.484  73.774  1.00  0.00     0.293 HD
ENDBRANCH   9  15
ENDBRANCH   6   7
ENDBRANCH   3   6
ENDBRANCH   1   2
BRANCH   1  17
ATOM     17  C   UNL     1     100.914  81.373  80.042  1.00  0.00     0.010 C 
BRANCH  17  18
ATOM     18  C   UNL     1     101.298  80.681  78.706  1.00  0.00     0.001 C 
BRANCH  18  19
ATOM     19  C   UNL     1     102.024  81.624  77.710  1.00  0.00     0.000 C 
BRANCH  19  20
ATOM     20  C   UNL     1     103.549  81.328  77.624  1.00  0.00     0.003 C 
BRANCH  20  21
ATOM     21  C   UNL     1     104.203  81.628  76.236  1.00  0.00    -0.017 C 
ATOM     22  C   UNL     1     105.675  82.107  76.407  1.00  0.00     0.007 C 
ATOM     23  C   UNL     1     103.398  82.667  75.401  1.00  0.00     0.007 C 
ENDBRANCH  20  21
ENDBRANCH  19  20
ENDBRANCH  18  19
ENDBRANCH  17  18
ENDBRANCH   1  17
TORSDOF 10
ENDMDL
