MODEL 1
REMARK VINA RESULT:    -5.622      0.000      0.000
REMARK INTER + INTRA:          -9.877
REMARK INTER:                  -8.744
REMARK INTRA:                  -1.133
REMARK UNBOUND:                -1.133
REMARK SMILES COc1cc(CNC(=O)CCCC/C=C/C(C)C)ccc1O
REMARK SMILES IDX 10 1 8 2 7 3 9 5 6 6 5 7 3 8 21 9 4 10 20 11 19 12 2 13 1 14
REMARK SMILES IDX 22 15 11 17 12 18 13 19 14 20 15 21 16 22 17 23 18 24
REMARK H PARENT 7 4 22 16
REMARK Flexibility Score: inf
ROOT
ATOM      1  C   UNL     1      76.811  87.296  64.900  1.00  0.00     0.100 C 
ENDROOT
BRANCH   1   2
ATOM      2  C   UNL     1      76.809  85.992  64.209  1.00  0.00     0.220 C 
ATOM      3  N   UNL     1      77.114  84.850  64.887  1.00  0.00    -0.352 N 
ATOM      4  H   UNL     1      77.354  84.983  65.860  1.00  0.00     0.163 HD
ATOM      5  O   UNL     1      76.498  85.965  62.994  1.00  0.00    -0.275 OA
BRANCH   3   6
ATOM      6  C   UNL     1      77.109  83.539  64.321  1.00  0.00     0.151 C 
BRANCH   6   7
ATOM      7  C   UNL     1      75.880  82.787  64.693  1.00  0.00    -0.025 A 
ATOM      8  C   UNL     1      73.760  82.656  65.938  1.00  0.00     0.160 A 
ATOM      9  C   UNL     1      73.521  81.375  65.399  1.00  0.00     0.157 A 
ATOM     10  C   UNL     1      74.936  83.348  65.583  1.00  0.00     0.056 A 
ATOM     11  C   UNL     1      74.463  80.794  64.526  1.00  0.00     0.050 A 
ATOM     12  C   UNL     1      75.629  81.498  64.167  1.00  0.00     0.009 A 
BRANCH   8  13
ATOM     13  O   UNL     1      72.879  83.198  66.839  1.00  0.00    -0.493 OA
ATOM     14  C   UNL     1      73.123  84.584  67.138  1.00  0.00     0.278 C 
ENDBRANCH   8  13
BRANCH   9  15
ATOM     15  O   UNL     1      72.392  80.687  65.710  1.00  0.00    -0.504 OA
ATOM     16  H   UNL     1      72.627  79.867  66.149  1.00  0.00     0.293 HD
ENDBRANCH   9  15
ENDBRANCH   6   7
ENDBRANCH   3   6
ENDBRANCH   1   2
BRANCH   1  17
ATOM     17  C   UNL     1      76.771  87.127  66.442  1.00  0.00     0.010 C 
BRANCH  17  18
ATOM     18  C   UNL     1      76.199  88.374  67.173  1.00  0.00     0.005 C 
BRANCH  18  19
ATOM     19  C   UNL     1      75.959  88.115  68.685  1.00  0.00     0.027 C 
BRANCH  19  20
ATOM     20  C   UNL     1      76.107  86.709  69.029  1.00  0.00    -0.031 C 
ATOM     21  C   UNL     1      77.111  86.215  69.775  1.00  0.00    -0.028 C 
BRANCH  21  22
ATOM     22  C   UNL     1      77.229  84.800  70.126  1.00  0.00     0.005 C 
ATOM     23  C   UNL     1      76.136  84.350  71.135  1.00  0.00     0.012 C 
ATOM     24  C   UNL     1      77.193  83.926  68.846  1.00  0.00     0.012 C 
ENDBRANCH  21  22
ENDBRANCH  19  20
ENDBRANCH  18  19
ENDBRANCH  17  18
ENDBRANCH   1  17
TORSDOF 10
ENDMDL
MODEL 2
REMARK VINA RESULT:    -5.393     25.919     29.104
REMARK INTER + INTRA:          -9.521
REMARK INTER:                  -8.777
REMARK INTRA:                  -0.744
REMARK UNBOUND:                -1.133
REMARK SMILES COc1cc(CNC(=O)CCCC/C=C/C(C)C)ccc1O
REMARK SMILES IDX 10 1 8 2 7 3 9 5 6 6 5 7 3 8 21 9 4 10 20 11 19 12 2 13 1 14
REMARK SMILES IDX 22 15 11 17 12 18 13 19 14 20 15 21 16 22 17 23 18 24
REMARK H PARENT 7 4 22 16
REMARK Flexibility Score: inf
ROOT
ATOM      1  C   UNL     1      96.360  94.899  81.658  1.00  0.00     0.100 C 
ENDROOT
BRANCH   1   2
ATOM      2  C   UNL     1      95.866  96.054  82.432  1.00  0.00     0.220 C 
ATOM      3  N   UNL     1      96.583  97.212  82.478  1.00  0.00    -0.352 N 
ATOM      4  H   UNL     1      97.457  97.193  81.973  1.00  0.00     0.163 HD
ATOM      5  O   UNL     1      94.764  95.944  83.022  1.00  0.00    -0.275 OA
BRANCH   3   6
ATOM      6  C   UNL     1      96.178  98.394  83.170  1.00  0.00     0.151 C 
BRANCH   6   7
ATOM      7  C   UNL     1      96.719  98.428  84.556  1.00  0.00    -0.025 A 
ATOM      8  C   UNL     1      96.408  98.070  86.973  1.00  0.00     0.160 A 
ATOM      9  C   UNL     1      97.741  98.468  87.204  1.00  0.00     0.157 A 
ATOM     10  C   UNL     1      95.910  98.056  85.653  1.00  0.00     0.056 A 
ATOM     11  C   UNL     1      98.555  98.860  86.122  1.00  0.00     0.050 A 
ATOM     12  C   UNL     1      98.052  98.831  84.807  1.00  0.00     0.009 A 
BRANCH   8  13
ATOM     13  O   UNL     1      95.593  97.751  88.028  1.00  0.00    -0.493 OA
ATOM     14  C   UNL     1      94.688  98.804  88.411  1.00  0.00     0.278 C 
ENDBRANCH   8  13
BRANCH   9  15
ATOM     15  O   UNL     1      98.256  98.480  88.461  1.00  0.00    -0.504 OA
ATOM     16  H   UNL     1      97.695  99.009  89.032  1.00  0.00     0.293 HD
ENDBRANCH   9  15
ENDBRANCH   6   7
ENDBRANCH   3   6
ENDBRANCH   1   2
BRANCH   1  17
ATOM     17  C   UNL     1      95.195  93.994  81.174  1.00  0.00     0.010 C 
BRANCH  17  18
ATOM     18  C   UNL     1      94.825  94.229  79.682  1.00  0.00     0.005 C 
BRANCH  18  19
ATOM     19  C   UNL     1      93.839  95.414  79.498  1.00  0.00     0.027 C 
BRANCH  19  20
ATOM     20  C   UNL     1      92.787  95.106  78.541  1.00  0.00    -0.031 C 
ATOM     21  C   UNL     1      91.899  94.106  78.690  1.00  0.00    -0.028 C 
BRANCH  21  22
ATOM     22  C   UNL     1      90.836  93.827  77.724  1.00  0.00     0.005 C 
ATOM     23  C   UNL     1      91.294  92.843  76.612  1.00  0.00     0.012 C 
ATOM     24  C   UNL     1      89.577  93.292  78.453  1.00  0.00     0.012 C 
ENDBRANCH  21  22
ENDBRANCH  19  20
ENDBRANCH  18  19
ENDBRANCH  17  18
ENDBRANCH   1  17
TORSDOF 10
ENDMDL
MODEL 3
REMARK VINA RESULT:    -5.371     12.238     14.868
REMARK INTER + INTRA:          -9.486
REMARK INTER:                  -7.392
REMARK INTRA:                  -2.094
REMARK UNBOUND:                -1.133
REMARK SMILES COc1cc(CNC(=O)CCCC/C=C/C(C)C)ccc1O
REMARK SMILES IDX 10 1 8 2 7 3 9 5 6 6 5 7 3 8 21 9 4 10 20 11 19 12 2 13 1 14
REMARK SMILES IDX 22 15 11 17 12 18 13 19 14 20 15 21 16 22 17 23 18 24
REMARK H PARENT 7 4 22 16
REMARK Flexibility Score: inf
ROOT
ATOM      1  C   UNL     1      62.390  83.330  68.715  1.00  0.00     0.100 C 
ENDROOT
BRANCH   1   2
ATOM      2  C   UNL     1      62.061  84.497  69.557  1.00  0.00     0.220 C 
ATOM      3  N   UNL     1      61.085  84.413  70.504  1.00  0.00    -0.352 N 
ATOM      4  H   UNL     1      60.614  83.520  70.553  1.00  0.00     0.163 HD
ATOM      5  O   UNL     1      62.719  85.552  69.390  1.00  0.00    -0.275 OA
BRANCH   3   6
ATOM      6  C   UNL     1      60.714  85.471  71.388  1.00  0.00     0.151 C 
BRANCH   6   7
ATOM      7  C   UNL     1      61.067  85.153  72.799  1.00  0.00    -0.025 A 
ATOM      8  C   UNL     1      61.697  83.506  74.517  1.00  0.00     0.160 A 
ATOM      9  C   UNL     1      61.763  84.534  75.480  1.00  0.00     0.157 A 
ATOM     10  C   UNL     1      61.348  83.824  73.188  1.00  0.00     0.056 A 
ATOM     11  C   UNL     1      61.466  85.861  75.111  1.00  0.00     0.050 A 
ATOM     12  C   UNL     1      61.131  86.171  73.779  1.00  0.00     0.009 A 
BRANCH   8  13
ATOM     13  O   UNL     1      61.920  82.203  74.885  1.00  0.00    -0.493 OA
ATOM     14  C   UNL     1      62.181  81.318  73.780  1.00  0.00     0.278 C 
ENDBRANCH   8  13
BRANCH   9  15
ATOM     15  O   UNL     1      62.108  84.263  76.765  1.00  0.00    -0.504 OA
ATOM     16  H   UNL     1      61.957  83.333  76.948  1.00  0.00     0.293 HD
ENDBRANCH   9  15
ENDBRANCH   6   7
ENDBRANCH   3   6
ENDBRANCH   1   2
BRANCH   1  17
ATOM     17  C   UNL     1      63.776  82.734  69.080  1.00  0.00     0.010 C 
BRANCH  17  18
ATOM     18  C   UNL     1      63.736  81.850  70.359  1.00  0.00     0.005 C 
BRANCH  18  19
ATOM     19  C   UNL     1      65.032  81.976  71.205  1.00  0.00     0.027 C 
BRANCH  19  20
ATOM     20  C   UNL     1      65.255  83.339  71.664  1.00  0.00    -0.031 C 
ATOM     21  C   UNL     1      64.843  83.812  72.854  1.00  0.00    -0.028 C 
BRANCH  21  22
ATOM     22  C   UNL     1      65.096  85.181  73.304  1.00  0.00     0.005 C 
ATOM     23  C   UNL     1      66.591  85.420  73.654  1.00  0.00     0.012 C 
ATOM     24  C   UNL     1      64.609  86.195  72.236  1.00  0.00     0.012 C 
ENDBRANCH  21  22
ENDBRANCH  19  20
ENDBRANCH  18  19
ENDBRANCH  17  18
ENDBRANCH   1  17
TORSDOF 10
ENDMDL
MODEL 4
REMARK VINA RESULT:    -5.365     20.720     23.625
REMARK INTER + INTRA:          -9.477
REMARK INTER:                  -8.990
REMARK INTRA:                  -0.487
REMARK UNBOUND:                -1.133
REMARK SMILES COc1cc(CNC(=O)CCCC/C=C/C(C)C)ccc1O
REMARK SMILES IDX 10 1 8 2 7 3 9 5 6 6 5 7 3 8 21 9 4 10 20 11 19 12 2 13 1 14
REMARK SMILES IDX 22 15 11 17 12 18 13 19 14 20 15 21 16 22 17 23 18 24
REMARK H PARENT 7 4 22 16
REMARK Flexibility Score: inf
ROOT
ATOM      1  C   UNL     1      93.035 100.201  74.208  1.00  0.00     0.100 C 
ENDROOT
BRANCH   1   2
ATOM      2  C   UNL     1      94.081  99.217  74.546  1.00  0.00     0.220 C 
ATOM      3  N   UNL     1      93.757  98.055  75.180  1.00  0.00    -0.352 N 
ATOM      4  H   UNL     1      92.778  97.951  75.408  1.00  0.00     0.163 HD
ATOM      5  O   UNL     1      95.263  99.471  74.213  1.00  0.00    -0.275 OA
BRANCH   3   6
ATOM      6  C   UNL     1      94.687  97.026  75.522  1.00  0.00     0.151 C 
BRANCH   6   7
ATOM      7  C   UNL     1      94.163  96.155  76.609  1.00  0.00    -0.025 A 
ATOM      8  C   UNL     1      92.767  94.260  77.331  1.00  0.00     0.160 A 
ATOM      9  C   UNL     1      93.170  94.471  78.666  1.00  0.00     0.157 A 
ATOM     10  C   UNL     1      93.265  95.104  76.317  1.00  0.00     0.056 A 
ATOM     11  C   UNL     1      94.050  95.527  78.975  1.00  0.00     0.050 A 
ATOM     12  C   UNL     1      94.551  96.357  77.954  1.00  0.00     0.009 A 
BRANCH   8  13
ATOM     13  O   UNL     1      91.859  93.275  77.034  1.00  0.00    -0.493 OA
ATOM     14  C   UNL     1      90.552  93.767  76.687  1.00  0.00     0.278 C 
ENDBRANCH   8  13
BRANCH   9  15
ATOM     15  O   UNL     1      92.719  93.668  79.665  1.00  0.00    -0.504 OA
ATOM     16  H   UNL     1      92.764  94.139  80.500  1.00  0.00     0.293 HD
ENDBRANCH   9  15
ENDBRANCH   6   7
ENDBRANCH   3   6
ENDBRANCH   1   2
BRANCH   1  17
ATOM     17  C   UNL     1      92.138  99.707  73.041  1.00  0.00     0.010 C 
BRANCH  17  18
ATOM     18  C   UNL     1      91.433 100.868  72.286  1.00  0.00     0.005 C 
BRANCH  18  19
ATOM     19  C   UNL     1      91.740 100.855  70.764  1.00  0.00     0.027 C 
BRANCH  19  20
ATOM     20  C   UNL     1      90.527 100.852  69.961  1.00  0.00    -0.031 C 
ATOM     21  C   UNL     1      90.508 100.953  68.619  1.00  0.00    -0.028 C 
BRANCH  21  22
ATOM     22  C   UNL     1      89.277 100.928  67.830  1.00  0.00     0.005 C 
ATOM     23  C   UNL     1      88.370  99.718  68.191  1.00  0.00     0.012 C 
ATOM     24  C   UNL     1      88.507 102.264  67.994  1.00  0.00     0.012 C 
ENDBRANCH  21  22
ENDBRANCH  19  20
ENDBRANCH  18  19
ENDBRANCH  17  18
ENDBRANCH   1  17
TORSDOF 10
ENDMDL
MODEL 5
REMARK VINA RESULT:    -5.364     25.028     27.326
REMARK INTER + INTRA:          -9.475
REMARK INTER:                  -8.839
REMARK INTRA:                  -0.636
REMARK UNBOUND:                -1.133
REMARK SMILES COc1cc(CNC(=O)CCCC/C=C/C(C)C)ccc1O
REMARK SMILES IDX 10 1 8 2 7 3 9 5 6 6 5 7 3 8 21 9 4 10 20 11 19 12 2 13 1 14
REMARK SMILES IDX 22 15 11 17 12 18 13 19 14 20 15 21 16 22 17 23 18 24
REMARK H PARENT 7 4 22 16
REMARK Flexibility Score: inf
ROOT
ATOM      1  C   UNL     1      98.015  81.512  84.710  1.00  0.00     0.100 C 
ENDROOT
BRANCH   1   2
ATOM      2  C   UNL     1      99.060  81.681  83.681  1.00  0.00     0.220 C 
ATOM      3  N   UNL     1      98.752  82.210  82.464  1.00  0.00    -0.352 N 
ATOM      4  H   UNL     1      97.777  82.442  82.333  1.00  0.00     0.163 HD
ATOM      5  O   UNL     1     100.234  81.346  83.969  1.00  0.00    -0.275 OA
BRANCH   3   6
ATOM      6  C   UNL     1      99.692  82.444  81.415  1.00  0.00     0.151 C 
BRANCH   6   7
ATOM      7  C   UNL     1      99.020  82.919  80.174  1.00  0.00    -0.025 A 
ATOM      8  C   UNL     1      99.102  83.406  77.762  1.00  0.00     0.160 A 
ATOM      9  C   UNL     1      97.749  83.803  77.796  1.00  0.00     0.157 A 
ATOM     10  C   UNL     1      99.725  82.970  78.950  1.00  0.00     0.056 A 
ATOM     11  C   UNL     1      97.039  83.776  79.013  1.00  0.00     0.050 A 
ATOM     12  C   UNL     1      97.666  83.328  80.192  1.00  0.00     0.009 A 
BRANCH   8  13
ATOM     13  O   UNL     1      99.815  83.493  76.594  1.00  0.00    -0.493 OA
ATOM     14  C   UNL     1     100.072  82.223  75.967  1.00  0.00     0.278 C 
ENDBRANCH   8  13
BRANCH   9  15
ATOM     15  O   UNL     1      97.116  84.215  76.667  1.00  0.00    -0.504 OA
ATOM     16  H   UNL     1      96.426  84.842  76.897  1.00  0.00     0.293 HD
ENDBRANCH   9  15
ENDBRANCH   6   7
ENDBRANCH   3   6
ENDBRANCH   1   2
BRANCH   1  17
ATOM     17  C   UNL     1      97.601  82.872  85.334  1.00  0.00     0.010 C 
BRANCH  17  18
ATOM     18  C   UNL     1      96.068  82.988  85.566  1.00  0.00     0.005 C 
BRANCH  18  19
ATOM     19  C   UNL     1      95.695  82.949  87.073  1.00  0.00     0.027 C 
BRANCH  19  20
ATOM     20  C   UNL     1      94.285  82.654  87.280  1.00  0.00    -0.031 C 
ATOM     21  C   UNL     1      93.627  81.648  86.676  1.00  0.00    -0.028 C 
BRANCH  21  22
ATOM     22  C   UNL     1      92.214  81.357  86.914  1.00  0.00     0.005 C 
ATOM     23  C   UNL     1      91.385  82.643  87.188  1.00  0.00     0.012 C 
ATOM     24  C   UNL     1      91.622  80.561  85.722  1.00  0.00     0.012 C 
ENDBRANCH  21  22
ENDBRANCH  19  20
ENDBRANCH  18  19
ENDBRANCH  17  18
ENDBRANCH   1  17
TORSDOF 10
ENDMDL
MODEL 6
REMARK VINA RESULT:    -5.313      4.145      6.317
REMARK INTER + INTRA:          -9.396
REMARK INTER:                  -8.666
REMARK INTRA:                  -0.729
REMARK UNBOUND:                -1.133
REMARK SMILES COc1cc(CNC(=O)CCCC/C=C/C(C)C)ccc1O
REMARK SMILES IDX 10 1 8 2 7 3 9 5 6 6 5 7 3 8 21 9 4 10 20 11 19 12 2 13 1 14
REMARK SMILES IDX 22 15 11 17 12 18 13 19 14 20 15 21 16 22 17 23 18 24
REMARK H PARENT 7 4 22 16
REMARK Flexibility Score: inf
ROOT
ATOM      1  C   UNL     1      74.515  87.958  71.067  1.00  0.00     0.100 C 
ENDROOT
BRANCH   1   2
ATOM      2  C   UNL     1      75.566  88.114  70.043  1.00  0.00     0.220 C 
ATOM      3  N   UNL     1      76.653  87.292  70.036  1.00  0.00    -0.352 N 
ATOM      4  H   UNL     1      76.678  86.612  70.783  1.00  0.00     0.163 HD
ATOM      5  O   UNL     1      75.416  89.005  69.172  1.00  0.00    -0.275 OA
BRANCH   3   6
ATOM      6  C   UNL     1      77.705  87.340  69.072  1.00  0.00     0.151 C 
BRANCH   6   7
ATOM      7  C   UNL     1      77.715  86.125  68.213  1.00  0.00    -0.025 A 
ATOM      8  C   UNL     1      77.386  85.071  66.012  1.00  0.00     0.160 A 
ATOM      9  C   UNL     1      77.748  83.821  66.555  1.00  0.00     0.157 A 
ATOM     10  C   UNL     1      77.371  86.209  66.845  1.00  0.00     0.056 A 
ATOM     11  C   UNL     1      78.075  83.718  67.922  1.00  0.00     0.050 A 
ATOM     12  C   UNL     1      78.069  84.862  68.743  1.00  0.00     0.009 A 
BRANCH   8  13
ATOM     13  O   UNL     1      77.003  85.166  64.698  1.00  0.00    -0.493 OA
ATOM     14  C   UNL     1      76.306  86.383  64.376  1.00  0.00     0.278 C 
ENDBRANCH   8  13
BRANCH   9  15
ATOM     15  O   UNL     1      77.785  82.709  65.777  1.00  0.00    -0.504 OA
ATOM     16  H   UNL     1      76.922  82.563  65.384  1.00  0.00     0.293 HD
ENDBRANCH   9  15
ENDBRANCH   6   7
ENDBRANCH   3   6
ENDBRANCH   1   2
BRANCH   1  17
ATOM     17  C   UNL     1      73.456  89.089  70.978  1.00  0.00     0.010 C 
BRANCH  17  18
ATOM     18  C   UNL     1      73.663  90.197  72.049  1.00  0.00     0.005 C 
BRANCH  18  19
ATOM     19  C   UNL     1      74.124  91.542  71.426  1.00  0.00     0.027 C 
BRANCH  19  20
ATOM     20  C   UNL     1      75.207  92.153  72.183  1.00  0.00    -0.031 C 
ATOM     21  C   UNL     1      76.433  92.396  71.686  1.00  0.00    -0.028 C 
BRANCH  21  22
ATOM     22  C   UNL     1      77.501  93.030  72.459  1.00  0.00     0.005 C 
ATOM     23  C   UNL     1      78.791  92.164  72.500  1.00  0.00     0.012 C 
ATOM     24  C   UNL     1      77.802  94.444  71.899  1.00  0.00     0.012 C 
ENDBRANCH  21  22
ENDBRANCH  19  20
ENDBRANCH  18  19
ENDBRANCH  17  18
ENDBRANCH   1  17
TORSDOF 10
ENDMDL
MODEL 7
REMARK VINA RESULT:    -5.311      1.657      2.520
REMARK INTER + INTRA:          -9.394
REMARK INTER:                  -8.472
REMARK INTRA:                  -0.922
REMARK UNBOUND:                -1.133
REMARK SMILES COc1cc(CNC(=O)CCCC/C=C/C(C)C)ccc1O
REMARK SMILES IDX 10 1 8 2 7 3 9 5 6 6 5 7 3 8 21 9 4 10 20 11 19 12 2 13 1 14
REMARK SMILES IDX 22 15 11 17 12 18 13 19 14 20 15 21 16 22 17 23 18 24
REMARK H PARENT 7 4 22 16
REMARK Flexibility Score: inf
ROOT
ATOM      1  C   UNL     1      77.164  87.289  65.086  1.00  0.00     0.100 C 
ENDROOT
BRANCH   1   2
ATOM      2  C   UNL     1      76.716  86.249  64.140  1.00  0.00     0.220 C 
ATOM      3  N   UNL     1      77.183  84.973  64.244  1.00  0.00    -0.352 N 
ATOM      4  H   UNL     1      77.855  84.824  64.984  1.00  0.00     0.163 HD
ATOM      5  O   UNL     1      75.881  86.569  63.260  1.00  0.00    -0.275 OA
BRANCH   3   6
ATOM      6  C   UNL     1      76.789  83.890  63.401  1.00  0.00     0.151 C 
BRANCH   6   7
ATOM      7  C   UNL     1      75.730  83.060  64.036  1.00  0.00    -0.025 A 
ATOM      8  C   UNL     1      73.346  82.546  64.375  1.00  0.00     0.160 A 
ATOM      9  C   UNL     1      73.696  81.476  65.225  1.00  0.00     0.157 A 
ATOM     10  C   UNL     1      74.364  83.328  63.792  1.00  0.00     0.056 A 
ATOM     11  C   UNL     1      75.053  81.209  65.494  1.00  0.00     0.050 A 
ATOM     12  C   UNL     1      76.063  81.989  64.897  1.00  0.00     0.009 A 
BRANCH   8  13
ATOM     13  O   UNL     1      72.025  82.851  64.163  1.00  0.00    -0.493 OA
ATOM     14  C   UNL     1      71.778  83.565  62.938  1.00  0.00     0.278 C 
ENDBRANCH   8  13
BRANCH   9  15
ATOM     15  O   UNL     1      72.741  80.696  65.792  1.00  0.00    -0.504 OA
ATOM     16  H   UNL     1      71.898  80.856  65.361  1.00  0.00     0.293 HD
ENDBRANCH   9  15
ENDBRANCH   6   7
ENDBRANCH   3   6
ENDBRANCH   1   2
BRANCH   1  17
ATOM     17  C   UNL     1      76.839  86.906  66.555  1.00  0.00     0.010 C 
BRANCH  17  18
ATOM     18  C   UNL     1      78.081  86.974  67.487  1.00  0.00     0.005 C 
BRANCH  18  19
ATOM     19  C   UNL     1      77.722  86.688  68.971  1.00  0.00     0.027 C 
BRANCH  19  20
ATOM     20  C   UNL     1      76.372  87.117  69.300  1.00  0.00    -0.031 C 
ATOM     21  C   UNL     1      76.075  88.009  70.263  1.00  0.00    -0.028 C 
BRANCH  21  22
ATOM     22  C   UNL     1      74.711  88.441  70.563  1.00  0.00     0.005 C 
ATOM     23  C   UNL     1      74.668  89.858  71.199  1.00  0.00     0.012 C 
ATOM     24  C   UNL     1      73.836  88.382  69.284  1.00  0.00     0.012 C 
ENDBRANCH  21  22
ENDBRANCH  19  20
ENDBRANCH  18  19
ENDBRANCH  17  18
ENDBRANCH   1  17
TORSDOF 10
ENDMDL
MODEL 8
REMARK VINA RESULT:    -5.189     25.581     28.238
REMARK INTER + INTRA:          -9.203
REMARK INTER:                  -8.324
REMARK INTRA:                  -0.879
REMARK UNBOUND:                -1.133
REMARK SMILES COc1cc(CNC(=O)CCCC/C=C/C(C)C)ccc1O
REMARK SMILES IDX 10 1 8 2 7 3 9 5 6 6 5 7 3 8 21 9 4 10 20 11 19 12 2 13 1 14
REMARK SMILES IDX 22 15 11 17 12 18 13 19 14 20 15 21 16 22 17 23 18 24
REMARK H PARENT 7 4 22 16
REMARK Flexibility Score: inf
ROOT
ATOM      1  C   UNL     1      99.346  82.434  85.635  1.00  0.00     0.100 C 
ENDROOT
BRANCH   1   2
ATOM      2  C   UNL     1     100.043  82.040  84.395  1.00  0.00     0.220 C 
ATOM      3  N   UNL     1      99.670  82.566  83.195  1.00  0.00    -0.352 N 
ATOM      4  H   UNL     1      98.887  83.205  83.234  1.00  0.00     0.163 HD
ATOM      5  O   UNL     1     100.997  81.230  84.484  1.00  0.00    -0.275 OA
BRANCH   3   6
ATOM      6  C   UNL     1     100.298  82.275  81.946  1.00  0.00     0.151 C 
BRANCH   6   7
ATOM      7  C   UNL     1      99.437  82.664  80.797  1.00  0.00    -0.025 A 
ATOM      8  C   UNL     1      99.089  82.860  78.367  1.00  0.00     0.160 A 
ATOM      9  C   UNL     1      97.799  83.383  78.593  1.00  0.00     0.157 A 
ATOM     10  C   UNL     1      99.896  82.508  79.470  1.00  0.00     0.056 A 
ATOM     11  C   UNL     1      97.335  83.563  79.911  1.00  0.00     0.050 A 
ATOM     12  C   UNL     1      98.143  83.198  81.006  1.00  0.00     0.009 A 
BRANCH   8  13
ATOM     13  O   UNL     1      99.571  82.745  77.088  1.00  0.00    -0.493 OA
ATOM     14  C   UNL     1     100.621  83.677  76.770  1.00  0.00     0.278 C 
ENDBRANCH   8  13
BRANCH   9  15
ATOM     15  O   UNL     1      96.993  83.720  77.554  1.00  0.00    -0.504 OA
ATOM     16  H   UNL     1      96.292  83.070  77.468  1.00  0.00     0.293 HD
ENDBRANCH   9  15
ENDBRANCH   6   7
ENDBRANCH   3   6
ENDBRANCH   1   2
BRANCH   1  17
ATOM     17  C   UNL     1      97.873  82.840  85.359  1.00  0.00     0.010 C 
BRANCH  17  18
ATOM     18  C   UNL     1      96.910  81.621  85.300  1.00  0.00     0.005 C 
BRANCH  18  19
ATOM     19  C   UNL     1      95.663  81.810  86.206  1.00  0.00     0.027 C 
BRANCH  19  20
ATOM     20  C   UNL     1      95.426  83.209  86.526  1.00  0.00    -0.031 C 
ATOM     21  C   UNL     1      95.452  83.714  87.773  1.00  0.00    -0.028 C 
BRANCH  21  22
ATOM     22  C   UNL     1      95.230  85.129  88.070  1.00  0.00     0.005 C 
ATOM     23  C   UNL     1      95.617  86.049  86.879  1.00  0.00     0.012 C 
ATOM     24  C   UNL     1      93.756  85.363  88.493  1.00  0.00     0.012 C 
ENDBRANCH  21  22
ENDBRANCH  19  20
ENDBRANCH  18  19
ENDBRANCH  17  18
ENDBRANCH   1  17
TORSDOF 10
ENDMDL
MODEL 9
REMARK VINA RESULT:    -5.179      5.979      8.892
REMARK INTER + INTRA:          -9.188
REMARK INTER:                  -8.520
REMARK INTRA:                  -0.668
REMARK UNBOUND:                -1.133
REMARK SMILES COc1cc(CNC(=O)CCCC/C=C/C(C)C)ccc1O
REMARK SMILES IDX 10 1 8 2 7 3 9 5 6 6 5 7 3 8 21 9 4 10 20 11 19 12 2 13 1 14
REMARK SMILES IDX 22 15 11 17 12 18 13 19 14 20 15 21 16 22 17 23 18 24
REMARK H PARENT 7 4 22 16
REMARK Flexibility Score: inf
ROOT
ATOM      1  C   UNL     1      70.415  84.364  70.915  1.00  0.00     0.100 C 
ENDROOT
BRANCH   1   2
ATOM      2  C   UNL     1      71.054  84.932  69.712  1.00  0.00     0.220 C 
ATOM      3  N   UNL     1      72.409  84.915  69.576  1.00  0.00    -0.352 N 
ATOM      4  H   UNL     1      72.912  84.515  70.357  1.00  0.00     0.163 HD
ATOM      5  O   UNL     1      70.314  85.406  68.817  1.00  0.00    -0.275 OA
BRANCH   3   6
ATOM      6  C   UNL     1      73.121  85.409  68.441  1.00  0.00     0.151 C 
BRANCH   6   7
ATOM      7  C   UNL     1      74.590  85.422  68.680  1.00  0.00    -0.025 A 
ATOM      8  C   UNL     1      76.890  85.394  67.801  1.00  0.00     0.160 A 
ATOM      9  C   UNL     1      77.394  85.466  69.116  1.00  0.00     0.157 A 
ATOM     10  C   UNL     1      75.494  85.371  67.595  1.00  0.00     0.056 A 
ATOM     11  C   UNL     1      76.504  85.498  70.208  1.00  0.00     0.050 A 
ATOM     12  C   UNL     1      75.113  85.486  69.992  1.00  0.00     0.009 A 
BRANCH   8  13
ATOM     13  O   UNL     1      77.752  85.296  66.738  1.00  0.00    -0.493 OA
ATOM     14  C   UNL     1      77.921  83.956  66.242  1.00  0.00     0.278 C 
ENDBRANCH   8  13
BRANCH   9  15
ATOM     15  O   UNL     1      78.732  85.503  69.348  1.00  0.00    -0.504 OA
ATOM     16  H   UNL     1      79.002  86.408  69.521  1.00  0.00     0.293 HD
ENDBRANCH   9  15
ENDBRANCH   6   7
ENDBRANCH   3   6
ENDBRANCH   1   2
BRANCH   1  17
ATOM     17  C   UNL     1      69.135  85.149  71.309  1.00  0.00     0.010 C 
BRANCH  17  18
ATOM     18  C   UNL     1      67.936  84.220  71.651  1.00  0.00     0.005 C 
BRANCH  18  19
ATOM     19  C   UNL     1      67.670  83.167  70.541  1.00  0.00     0.027 C 
BRANCH  19  20
ATOM     20  C   UNL     1      66.283  82.727  70.525  1.00  0.00    -0.031 C 
ATOM     21  C   UNL     1      65.439  82.852  71.565  1.00  0.00    -0.028 C 
BRANCH  21  22
ATOM     22  C   UNL     1      64.042  82.421  71.520  1.00  0.00     0.005 C 
ATOM     23  C   UNL     1      63.648  81.842  70.133  1.00  0.00     0.012 C 
ATOM     24  C   UNL     1      63.761  81.393  72.647  1.00  0.00     0.012 C 
ENDBRANCH  21  22
ENDBRANCH  19  20
ENDBRANCH  18  19
ENDBRANCH  17  18
ENDBRANCH   1  17
TORSDOF 10
ENDMDL
MODEL 10
REMARK VINA RESULT:    -5.119     21.182     24.075
REMARK INTER + INTRA:          -9.094
REMARK INTER:                  -8.617
REMARK INTRA:                  -0.477
REMARK UNBOUND:                -1.133
REMARK SMILES COc1cc(CNC(=O)CCCC/C=C/C(C)C)ccc1O
REMARK SMILES IDX 10 1 8 2 7 3 9 5 6 6 5 7 3 8 21 9 4 10 20 11 19 12 2 13 1 14
REMARK SMILES IDX 22 15 11 17 12 18 13 19 14 20 15 21 16 22 17 23 18 24
REMARK H PARENT 7 4 22 16
REMARK Flexibility Score: inf
ROOT
ATOM      1  C   UNL     1      92.983 100.262  74.210  1.00  0.00     0.100 C 
ENDROOT
BRANCH   1   2
ATOM      2  C   UNL     1      93.965  99.179  74.409  1.00  0.00     0.220 C 
ATOM      3  N   UNL     1      93.783  98.253  75.392  1.00  0.00    -0.352 N 
ATOM      4  H   UNL     1      92.959  98.391  75.961  1.00  0.00     0.163 HD
ATOM      5  O   UNL     1      94.951  99.124  73.635  1.00  0.00    -0.275 OA
BRANCH   3   6
ATOM      6  C   UNL     1      94.655  97.150  75.645  1.00  0.00     0.151 C 
BRANCH   6   7
ATOM      7  C   UNL     1      94.078  96.218  76.651  1.00  0.00    -0.025 A 
ATOM      8  C   UNL     1      93.905  95.442  78.982  1.00  0.00     0.160 A 
ATOM      9  C   UNL     1      92.973  94.459  78.586  1.00  0.00     0.157 A 
ATOM     10  C   UNL     1      94.449  96.309  78.012  1.00  0.00     0.056 A 
ATOM     11  C   UNL     1      92.608  94.343  77.230  1.00  0.00     0.050 A 
ATOM     12  C   UNL     1      93.149  95.222  76.271  1.00  0.00     0.009 A 
BRANCH   8  13
ATOM     13  O   UNL     1      94.313  95.516  80.289  1.00  0.00    -0.493 OA
ATOM     14  C   UNL     1      95.728  95.329  80.474  1.00  0.00     0.278 C 
ENDBRANCH   8  13
BRANCH   9  15
ATOM     15  O   UNL     1      92.420  93.617  79.497  1.00  0.00    -0.504 OA
ATOM     16  H   UNL     1      92.977  93.579  80.278  1.00  0.00     0.293 HD
ENDBRANCH   9  15
ENDBRANCH   6   7
ENDBRANCH   3   6
ENDBRANCH   1   2
BRANCH   1  17
ATOM     17  C   UNL     1      92.009  99.945  73.044  1.00  0.00     0.010 C 
BRANCH  17  18
ATOM     18  C   UNL     1      91.731 101.176  72.136  1.00  0.00     0.005 C 
BRANCH  18  19
ATOM     19  C   UNL     1      91.928 100.855  70.630  1.00  0.00     0.027 C 
BRANCH  19  20
ATOM     20  C   UNL     1      90.661 100.774  69.918  1.00  0.00    -0.031 C 
ATOM     21  C   UNL     1      90.534 100.901  68.584  1.00  0.00    -0.028 C 
BRANCH  21  22
ATOM     22  C   UNL     1      89.253 100.796  67.887  1.00  0.00     0.005 C 
ATOM     23  C   UNL     1      88.372  99.643  68.443  1.00  0.00     0.012 C 
ATOM     24  C   UNL     1      88.497 102.149  67.949  1.00  0.00     0.012 C 
ENDBRANCH  21  22
ENDBRANCH  19  20
ENDBRANCH  18  19
ENDBRANCH  17  18
ENDBRANCH   1  17
TORSDOF 10
ENDMDL
