MODEL 1
REMARK VINA RESULT:    -6.417      0.000      0.000
REMARK INTER + INTRA:         -11.814
REMARK INTER:                 -10.731
REMARK INTRA:                  -1.083
REMARK UNBOUND:                -1.083
REMARK SMILES COc1cc(CNC(=O)CCCCCCCC(C)C)ccc1O
REMARK SMILES IDX 11 1 10 2 8 3 9 4 7 5 6 7 5 8 4 9 20 10 3 11 21 12 22 13
REMARK SMILES IDX 2 14 1 15 23 16 12 18 13 19 14 20 15 21 16 22 17 23 18 24
REMARK SMILES IDX 19 25
REMARK H PARENT 7 6 23 17
REMARK Flexibility Score: inf
ROOT
ATOM      1  C   UNL     1      91.746  92.929  76.810  1.00  0.00     0.010 C 
ENDROOT
BRANCH   1   2
ATOM      2  C   UNL     1      92.076  93.319  75.371  1.00  0.00     0.100 C 
BRANCH   2   3
ATOM      3  C   UNL     1      93.282  94.239  75.282  1.00  0.00     0.220 C 
ATOM      4  O   UNL     1      93.236  95.366  74.798  1.00  0.00    -0.275 OA
ATOM      5  N   UNL     1      94.419  93.640  75.804  1.00  0.00    -0.352 N 
ATOM      6  H   UNL     1      94.364  92.695  76.174  1.00  0.00     0.163 HD
BRANCH   5   7
ATOM      7  C   UNL     1      95.706  94.295  75.835  1.00  0.00     0.151 C 
BRANCH   7   8
ATOM      8  C   UNL     1      95.955  94.983  77.145  1.00  0.00    -0.025 A 
ATOM      9  C   UNL     1      95.349  94.502  78.300  1.00  0.00     0.056 A 
ATOM     10  C   UNL     1      96.787  96.095  77.191  1.00  0.00     0.009 A 
ATOM     11  C   UNL     1      95.580  95.142  79.518  1.00  0.00     0.160 A 
ATOM     12  C   UNL     1      97.018  96.735  78.409  1.00  0.00     0.050 A 
ATOM     13  C   UNL     1      96.414  96.259  79.573  1.00  0.00     0.157 A 
BRANCH  11  14
ATOM     14  O   UNL     1      94.984  94.667  80.648  1.00  0.00    -0.493 OA
ATOM     15  C   UNL     1      95.748  93.775  81.458  1.00  0.00     0.278 C 
ENDBRANCH  11  14
BRANCH  13  16
ATOM     16  O   UNL     1      96.648  96.891  80.756  1.00  0.00    -0.504 OA
ATOM     17  H   UNL     1      97.532  97.295  80.730  1.00  0.00     0.293 HD
ENDBRANCH  13  16
ENDBRANCH   7   8
ENDBRANCH   5   7
ENDBRANCH   2   3
ENDBRANCH   1   2
BRANCH   1  18
ATOM     18  C   UNL     1      90.850  91.692  76.917  1.00  0.00     0.001 C 
BRANCH  18  19
ATOM     19  C   UNL     1      90.557  90.969  75.599  1.00  0.00     0.000 C 
BRANCH  19  20
ATOM     20  C   UNL     1      89.100  90.516  75.469  1.00  0.00     0.000 C 
BRANCH  20  21
ATOM     21  C   UNL     1      88.798  89.805  74.145  1.00  0.00     0.000 C 
BRANCH  21  22
ATOM     22  C   UNL     1      87.841  90.589  73.241  1.00  0.00     0.003 C 
BRANCH  22  23
ATOM     23  C   UNL     1      88.544  91.280  72.055  1.00  0.00    -0.017 C 
ATOM     24  C   UNL     1      89.708  90.414  71.569  1.00  0.00     0.007 C 
ATOM     25  C   UNL     1      89.055  92.677  72.410  1.00  0.00     0.007 C 
ENDBRANCH  22  23
ENDBRANCH  21  22
ENDBRANCH  20  21
ENDBRANCH  19  20
ENDBRANCH  18  19
ENDBRANCH   1  18
TORSDOF 12
ENDMDL
MODEL 2
REMARK VINA RESULT:    -6.360      1.793      3.022
REMARK INTER + INTRA:         -11.718
REMARK INTER:                 -10.540
REMARK INTRA:                  -1.178
REMARK UNBOUND:                -1.083
REMARK SMILES COc1cc(CNC(=O)CCCCCCCC(C)C)ccc1O
REMARK SMILES IDX 11 1 10 2 8 3 9 4 7 5 6 7 5 8 4 9 20 10 3 11 21 12 22 13
REMARK SMILES IDX 2 14 1 15 23 16 12 18 13 19 14 20 15 21 16 22 17 23 18 24
REMARK SMILES IDX 19 25
REMARK H PARENT 7 6 23 17
REMARK Flexibility Score: inf
ROOT
ATOM      1  C   UNL     1      91.869  94.748  76.391  1.00  0.00     0.010 C 
ENDROOT
BRANCH   1   2
ATOM      2  C   UNL     1      92.819  94.424  75.239  1.00  0.00     0.100 C 
BRANCH   2   3
ATOM      3  C   UNL     1      94.241  94.176  75.714  1.00  0.00     0.220 C 
ATOM      4  O   UNL     1      95.200  94.089  74.952  1.00  0.00    -0.275 OA
ATOM      5  N   UNL     1      94.304  94.056  77.094  1.00  0.00    -0.352 N 
ATOM      6  H   UNL     1      93.452  94.131  77.644  1.00  0.00     0.163 HD
BRANCH   5   7
ATOM      7  C   UNL     1      95.538  93.809  77.803  1.00  0.00     0.151 C 
BRANCH   7   8
ATOM      8  C   UNL     1      95.785  94.832  78.874  1.00  0.00    -0.025 A 
ATOM      9  C   UNL     1      96.570  95.944  78.594  1.00  0.00     0.056 A 
ATOM     10  C   UNL     1      95.226  94.656  80.134  1.00  0.00     0.009 A 
ATOM     11  C   UNL     1      96.799  96.895  79.590  1.00  0.00     0.160 A 
ATOM     12  C   UNL     1      95.456  95.606  81.129  1.00  0.00     0.050 A 
ATOM     13  C   UNL     1      96.242  96.726  80.858  1.00  0.00     0.157 A 
BRANCH  11  14
ATOM     14  O   UNL     1      97.569  97.984  79.312  1.00  0.00    -0.493 OA
ATOM     15  C   UNL     1      97.020  98.956  78.424  1.00  0.00     0.278 C 
ENDBRANCH  11  14
BRANCH  13  16
ATOM     16  O   UNL     1      96.458  97.647  81.837  1.00  0.00    -0.504 OA
ATOM     17  H   UNL     1      95.611  98.062  82.074  1.00  0.00     0.293 HD
ENDBRANCH  13  16
ENDBRANCH   7   8
ENDBRANCH   5   7
ENDBRANCH   2   3
ENDBRANCH   1   2
BRANCH   1  18
ATOM     18  C   UNL     1      90.426  94.305  76.135  1.00  0.00     0.001 C 
BRANCH  18  19
ATOM     19  C   UNL     1      89.861  93.279  77.123  1.00  0.00     0.000 C 
BRANCH  19  20
ATOM     20  C   UNL     1      89.647  91.896  76.502  1.00  0.00     0.000 C 
BRANCH  20  21
ATOM     21  C   UNL     1      90.934  91.069  76.397  1.00  0.00     0.000 C 
BRANCH  21  22
ATOM     22  C   UNL     1      91.436  90.909  74.958  1.00  0.00     0.003 C 
BRANCH  22  23
ATOM     23  C   UNL     1      91.182  89.506  74.372  1.00  0.00    -0.017 C 
ATOM     24  C   UNL     1      90.044  89.570  73.351  1.00  0.00     0.007 C 
ATOM     25  C   UNL     1      90.849  88.473  75.449  1.00  0.00     0.007 C 
ENDBRANCH  22  23
ENDBRANCH  21  22
ENDBRANCH  20  21
ENDBRANCH  19  20
ENDBRANCH  18  19
ENDBRANCH   1  18
TORSDOF 12
ENDMDL
MODEL 3
REMARK VINA RESULT:    -6.319      2.717      9.155
REMARK INTER + INTRA:         -11.651
REMARK INTER:                 -10.413
REMARK INTRA:                  -1.238
REMARK UNBOUND:                -1.083
REMARK SMILES COc1cc(CNC(=O)CCCCCCCC(C)C)ccc1O
REMARK SMILES IDX 11 1 10 2 8 3 9 4 7 5 6 7 5 8 4 9 20 10 3 11 21 12 22 13
REMARK SMILES IDX 2 14 1 15 23 16 12 18 13 19 14 20 15 21 16 22 17 23 18 24
REMARK SMILES IDX 19 25
REMARK H PARENT 7 6 23 17
REMARK Flexibility Score: inf
ROOT
ATOM      1  C   UNL     1      93.272  93.994  75.322  1.00  0.00     0.010 C 
ENDROOT
BRANCH   1   2
ATOM      2  C   UNL     1      92.390  94.247  76.542  1.00  0.00     0.100 C 
BRANCH   2   3
ATOM      3  C   UNL     1      91.423  93.104  76.804  1.00  0.00     0.220 C 
ATOM      4  O   UNL     1      90.436  93.209  77.528  1.00  0.00    -0.275 OA
ATOM      5  N   UNL     1      91.804  91.950  76.135  1.00  0.00    -0.352 N 
ATOM      6  H   UNL     1      92.646  91.955  75.565  1.00  0.00     0.163 HD
BRANCH   5   7
ATOM      7  C   UNL     1      91.061  90.714  76.220  1.00  0.00     0.151 C 
BRANCH   7   8
ATOM      8  C   UNL     1      90.015  90.613  75.148  1.00  0.00    -0.025 A 
ATOM      9  C   UNL     1      90.402  90.440  73.825  1.00  0.00     0.056 A 
ATOM     10  C   UNL     1      88.671  90.693  75.491  1.00  0.00     0.009 A 
ATOM     11  C   UNL     1      89.430  90.346  72.829  1.00  0.00     0.160 A 
ATOM     12  C   UNL     1      87.699  90.600  74.494  1.00  0.00     0.050 A 
ATOM     13  C   UNL     1      88.078  90.426  73.163  1.00  0.00     0.157 A 
BRANCH  11  14
ATOM     14  O   UNL     1      89.813  90.177  71.532  1.00  0.00    -0.493 OA
ATOM     15  C   UNL     1      90.385  91.306  70.874  1.00  0.00     0.278 C 
ENDBRANCH  11  14
BRANCH  13  16
ATOM     16  O   UNL     1      87.119  90.335  72.200  1.00  0.00    -0.504 OA
ATOM     17  H   UNL     1      86.435  89.708  72.492  1.00  0.00     0.293 HD
ENDBRANCH  13  16
ENDBRANCH   7   8
ENDBRANCH   5   7
ENDBRANCH   2   3
ENDBRANCH   1   2
BRANCH   1  18
ATOM     18  C   UNL     1      94.389  95.027  75.152  1.00  0.00     0.001 C 
BRANCH  18  19
ATOM     19  C   UNL     1      95.811  94.516  75.408  1.00  0.00     0.000 C 
BRANCH  19  20
ATOM     20  C   UNL     1      96.817  95.638  75.679  1.00  0.00     0.000 C 
BRANCH  20  21
ATOM     21  C   UNL     1      97.451  95.564  77.072  1.00  0.00     0.000 C 
BRANCH  21  22
ATOM     22  C   UNL     1      96.527  96.066  78.187  1.00  0.00     0.003 C 
BRANCH  22  23
ATOM     23  C   UNL     1      96.300  95.033  79.308  1.00  0.00    -0.017 C 
ATOM     24  C   UNL     1      94.943  94.352  79.117  1.00  0.00     0.007 C 
ATOM     25  C   UNL     1      96.371  95.656  80.703  1.00  0.00     0.007 C 
ENDBRANCH  22  23
ENDBRANCH  21  22
ENDBRANCH  20  21
ENDBRANCH  19  20
ENDBRANCH  18  19
ENDBRANCH   1  18
TORSDOF 12
ENDMDL
MODEL 4
REMARK VINA RESULT:    -6.181     14.807     17.171
REMARK INTER + INTRA:         -11.420
REMARK INTER:                  -9.286
REMARK INTRA:                  -2.134
REMARK UNBOUND:                -1.083
REMARK SMILES COc1cc(CNC(=O)CCCCCCCC(C)C)ccc1O
REMARK SMILES IDX 11 1 10 2 8 3 9 4 7 5 6 7 5 8 4 9 20 10 3 11 21 12 22 13
REMARK SMILES IDX 2 14 1 15 23 16 12 18 13 19 14 20 15 21 16 22 17 23 18 24
REMARK SMILES IDX 19 25
REMARK H PARENT 7 6 23 17
REMARK Flexibility Score: inf
ROOT
ATOM      1  C   UNL     1      84.340  90.219  84.767  1.00  0.00     0.010 C 
ENDROOT
BRANCH   1   2
ATOM      2  C   UNL     1      85.104  90.222  86.089  1.00  0.00     0.100 C 
BRANCH   2   3
ATOM      3  C   UNL     1      84.254  90.718  87.248  1.00  0.00     0.220 C 
ATOM      4  O   UNL     1      83.842  91.871  87.336  1.00  0.00    -0.275 OA
ATOM      5  N   UNL     1      84.021  89.713  88.175  1.00  0.00    -0.352 N 
ATOM      6  H   UNL     1      84.414  88.788  88.023  1.00  0.00     0.163 HD
BRANCH   5   7
ATOM      7  C   UNL     1      83.247  89.921  89.377  1.00  0.00     0.151 C 
BRANCH   7   8
ATOM      8  C   UNL     1      81.910  89.242  89.308  1.00  0.00    -0.025 A 
ATOM      9  C   UNL     1      80.787  89.880  89.822  1.00  0.00     0.056 A 
ATOM     10  C   UNL     1      81.808  87.982  88.731  1.00  0.00     0.009 A 
ATOM     11  C   UNL     1      79.545  89.249  89.758  1.00  0.00     0.160 A 
ATOM     12  C   UNL     1      80.565  87.351  88.667  1.00  0.00     0.050 A 
ATOM     13  C   UNL     1      79.434  87.984  89.181  1.00  0.00     0.157 A 
BRANCH  11  14
ATOM     14  O   UNL     1      78.447  89.877  90.264  1.00  0.00    -0.493 OA
ATOM     15  C   UNL     1      78.014  91.062  89.597  1.00  0.00     0.278 C 
ENDBRANCH  11  14
BRANCH  13  16
ATOM     16  O   UNL     1      78.226  87.358  89.112  1.00  0.00    -0.504 OA
ATOM     17  H   UNL     1      78.125  86.962  88.229  1.00  0.00     0.293 HD
ENDBRANCH  13  16
ENDBRANCH   7   8
ENDBRANCH   5   7
ENDBRANCH   2   3
ENDBRANCH   1   2
BRANCH   1  18
ATOM     18  C   UNL     1      83.045  89.403  84.812  1.00  0.00     0.001 C 
BRANCH  18  19
ATOM     19  C   UNL     1      81.777  90.146  84.379  1.00  0.00     0.000 C 
BRANCH  19  20
ATOM     20  C   UNL     1      80.701  90.192  85.468  1.00  0.00     0.000 C 
BRANCH  20  21
ATOM     21  C   UNL     1      79.948  88.868  85.638  1.00  0.00     0.000 C 
BRANCH  21  22
ATOM     22  C   UNL     1      79.326  88.353  84.335  1.00  0.00     0.003 C 
BRANCH  22  23
ATOM     23  C   UNL     1      79.755  86.917  83.977  1.00  0.00    -0.017 C 
ATOM     24  C   UNL     1      80.595  86.329  85.113  1.00  0.00     0.007 C 
ATOM     25  C   UNL     1      80.542  86.850  82.667  1.00  0.00     0.007 C 
ENDBRANCH  22  23
ENDBRANCH  21  22
ENDBRANCH  20  21
ENDBRANCH  19  20
ENDBRANCH  18  19
ENDBRANCH   1  18
TORSDOF 12
ENDMDL
MODEL 5
REMARK VINA RESULT:    -6.137      1.612      2.755
REMARK INTER + INTRA:         -11.345
REMARK INTER:                 -10.130
REMARK INTRA:                  -1.215
REMARK UNBOUND:                -1.083
REMARK SMILES COc1cc(CNC(=O)CCCCCCCC(C)C)ccc1O
REMARK SMILES IDX 11 1 10 2 8 3 9 4 7 5 6 7 5 8 4 9 20 10 3 11 21 12 22 13
REMARK SMILES IDX 2 14 1 15 23 16 12 18 13 19 14 20 15 21 16 22 17 23 18 24
REMARK SMILES IDX 19 25
REMARK H PARENT 7 6 23 17
REMARK Flexibility Score: inf
ROOT
ATOM      1  C   UNL     1      92.655  94.409  75.341  1.00  0.00     0.010 C 
ENDROOT
BRANCH   1   2
ATOM      2  C   UNL     1      93.791  93.522  75.848  1.00  0.00     0.100 C 
BRANCH   2   3
ATOM      3  C   UNL     1      95.144  94.208  75.762  1.00  0.00     0.220 C 
ATOM      4  O   UNL     1      95.919  94.053  74.822  1.00  0.00    -0.275 OA
ATOM      5  N   UNL     1      95.381  95.008  76.870  1.00  0.00    -0.352 N 
ATOM      6  H   UNL     1      94.683  95.066  77.606  1.00  0.00     0.163 HD
BRANCH   5   7
ATOM      7  C   UNL     1      96.599  95.766  77.042  1.00  0.00     0.151 C 
BRANCH   7   8
ATOM      8  C   UNL     1      96.789  96.206  78.464  1.00  0.00    -0.025 A 
ATOM      9  C   UNL     1      96.690  95.275  79.491  1.00  0.00     0.056 A 
ATOM     10  C   UNL     1      97.063  97.540  78.740  1.00  0.00     0.009 A 
ATOM     11  C   UNL     1      96.867  95.684  80.813  1.00  0.00     0.160 A 
ATOM     12  C   UNL     1      97.239  97.950  80.062  1.00  0.00     0.050 A 
ATOM     13  C   UNL     1      97.141  97.022  81.099  1.00  0.00     0.157 A 
BRANCH  11  14
ATOM     14  O   UNL     1      96.768  94.769  81.817  1.00  0.00    -0.493 OA
ATOM     15  C   UNL     1      95.786  93.745  81.666  1.00  0.00     0.278 C 
ENDBRANCH  11  14
BRANCH  13  16
ATOM     16  O   UNL     1      97.317  97.434  82.385  1.00  0.00    -0.504 OA
ATOM     17  H   UNL     1      98.232  97.746  82.496  1.00  0.00     0.293 HD
ENDBRANCH  13  16
ENDBRANCH   7   8
ENDBRANCH   5   7
ENDBRANCH   2   3
ENDBRANCH   1   2
BRANCH   1  18
ATOM     18  C   UNL     1      91.605  94.726  76.410  1.00  0.00     0.001 C 
BRANCH  18  19
ATOM     19  C   UNL     1      90.207  94.154  76.157  1.00  0.00     0.000 C 
BRANCH  19  20
ATOM     20  C   UNL     1      89.759  93.155  77.228  1.00  0.00     0.000 C 
BRANCH  20  21
ATOM     21  C   UNL     1      90.767  92.026  77.469  1.00  0.00     0.000 C 
BRANCH  21  22
ATOM     22  C   UNL     1      90.960  91.115  76.252  1.00  0.00     0.003 C 
BRANCH  22  23
ATOM     23  C   UNL     1      89.650  90.481  75.746  1.00  0.00    -0.017 C 
ATOM     24  C   UNL     1      89.709  88.962  75.920  1.00  0.00     0.007 C 
ATOM     25  C   UNL     1      89.362  90.820  74.283  1.00  0.00     0.007 C 
ENDBRANCH  22  23
ENDBRANCH  21  22
ENDBRANCH  20  21
ENDBRANCH  19  20
ENDBRANCH  18  19
ENDBRANCH   1  18
TORSDOF 12
ENDMDL
MODEL 6
REMARK VINA RESULT:    -6.081      3.342      9.239
REMARK INTER + INTRA:         -11.252
REMARK INTER:                 -10.478
REMARK INTRA:                  -0.774
REMARK UNBOUND:                -1.083
REMARK SMILES COc1cc(CNC(=O)CCCCCCCC(C)C)ccc1O
REMARK SMILES IDX 11 1 10 2 8 3 9 4 7 5 6 7 5 8 4 9 20 10 3 11 21 12 22 13
REMARK SMILES IDX 2 14 1 15 23 16 12 18 13 19 14 20 15 21 16 22 17 23 18 24
REMARK SMILES IDX 19 25
REMARK H PARENT 7 6 23 17
REMARK Flexibility Score: inf
ROOT
ATOM      1  C   UNL     1      94.625  94.448  76.946  1.00  0.00     0.010 C 
ENDROOT
BRANCH   1   2
ATOM      2  C   UNL     1      93.326  93.747  77.339  1.00  0.00     0.100 C 
BRANCH   2   3
ATOM      3  C   UNL     1      92.583  93.189  76.136  1.00  0.00     0.220 C 
ATOM      4  O   UNL     1      93.081  93.102  75.017  1.00  0.00    -0.275 OA
ATOM      5  N   UNL     1      91.291  92.808  76.467  1.00  0.00    -0.352 N 
ATOM      6  H   UNL     1      90.961  92.928  77.421  1.00  0.00     0.163 HD
BRANCH   5   7
ATOM      7  C   UNL     1      90.368  92.253  75.504  1.00  0.00     0.151 C 
BRANCH   7   8
ATOM      8  C   UNL     1      90.546  90.771  75.345  1.00  0.00    -0.025 A 
ATOM      9  C   UNL     1      90.289  89.928  76.420  1.00  0.00     0.056 A 
ATOM     10  C   UNL     1      90.966  90.257  74.124  1.00  0.00     0.009 A 
ATOM     11  C   UNL     1      90.455  88.551  76.271  1.00  0.00     0.160 A 
ATOM     12  C   UNL     1      91.133  88.880  73.977  1.00  0.00     0.050 A 
ATOM     13  C   UNL     1      90.877  88.027  75.050  1.00  0.00     0.157 A 
BRANCH  11  14
ATOM     14  O   UNL     1      90.203  87.728  77.327  1.00  0.00    -0.493 OA
ATOM     15  C   UNL     1      89.720  88.338  78.523  1.00  0.00     0.278 C 
ENDBRANCH  11  14
BRANCH  13  16
ATOM     16  O   UNL     1      91.042  86.684  74.892  1.00  0.00    -0.504 OA
ATOM     17  H   UNL     1      91.780  86.388  75.454  1.00  0.00     0.293 HD
ENDBRANCH  13  16
ENDBRANCH   7   8
ENDBRANCH   5   7
ENDBRANCH   2   3
ENDBRANCH   1   2
BRANCH   1  18
ATOM     18  C   UNL     1      95.635  94.548  78.092  1.00  0.00     0.001 C 
BRANCH  18  19
ATOM     19  C   UNL     1      95.074  94.295  79.496  1.00  0.00     0.000 C 
BRANCH  19  20
ATOM     20  C   UNL     1      96.132  94.398  80.598  1.00  0.00     0.000 C 
BRANCH  20  21
ATOM     21  C   UNL     1      95.872  95.539  81.587  1.00  0.00     0.000 C 
BRANCH  21  22
ATOM     22  C   UNL     1      96.917  96.658  81.512  1.00  0.00     0.003 C 
BRANCH  22  23
ATOM     23  C   UNL     1      96.309  98.050  81.252  1.00  0.00    -0.017 C 
ATOM     24  C   UNL     1      97.057  98.736  80.107  1.00  0.00     0.007 C 
ATOM     25  C   UNL     1      96.337  98.943  82.493  1.00  0.00     0.007 C 
ENDBRANCH  22  23
ENDBRANCH  21  22
ENDBRANCH  20  21
ENDBRANCH  19  20
ENDBRANCH  18  19
ENDBRANCH   1  18
TORSDOF 12
ENDMDL
MODEL 7
REMARK VINA RESULT:    -6.027      4.144      7.540
REMARK INTER + INTRA:         -11.161
REMARK INTER:                 -10.343
REMARK INTRA:                  -0.818
REMARK UNBOUND:                -1.083
REMARK SMILES COc1cc(CNC(=O)CCCCCCCC(C)C)ccc1O
REMARK SMILES IDX 11 1 10 2 8 3 9 4 7 5 6 7 5 8 4 9 20 10 3 11 21 12 22 13
REMARK SMILES IDX 2 14 1 15 23 16 12 18 13 19 14 20 15 21 16 22 17 23 18 24
REMARK SMILES IDX 19 25
REMARK H PARENT 7 6 23 17
REMARK Flexibility Score: inf
ROOT
ATOM      1  C   UNL     1      95.201  96.711  74.803  1.00  0.00     0.010 C 
ENDROOT
BRANCH   1   2
ATOM      2  C   UNL     1      95.729  95.287  74.646  1.00  0.00     0.100 C 
BRANCH   2   3
ATOM      3  C   UNL     1      95.358  94.400  75.823  1.00  0.00     0.220 C 
ATOM      4  O   UNL     1      96.165  93.681  76.405  1.00  0.00    -0.275 OA
ATOM      5  N   UNL     1      94.011  94.505  76.136  1.00  0.00    -0.352 N 
ATOM      6  H   UNL     1      93.415  95.120  75.588  1.00  0.00     0.163 HD
BRANCH   5   7
ATOM      7  C   UNL     1      93.396  93.760  77.210  1.00  0.00     0.151 C 
BRANCH   7   8
ATOM      8  C   UNL     1      92.169  93.025  76.753  1.00  0.00    -0.025 A 
ATOM      9  C   UNL     1      91.900  92.915  75.394  1.00  0.00     0.056 A 
ATOM     10  C   UNL     1      91.314  92.464  77.694  1.00  0.00     0.009 A 
ATOM     11  C   UNL     1      90.760  92.233  74.969  1.00  0.00     0.160 A 
ATOM     12  C   UNL     1      90.173  91.782  77.269  1.00  0.00     0.050 A 
ATOM     13  C   UNL     1      89.896  91.666  75.907  1.00  0.00     0.157 A 
BRANCH  11  14
ATOM     14  O   UNL     1      90.499  92.127  73.636  1.00  0.00    -0.493 OA
ATOM     15  C   UNL     1      89.897  93.255  73.002  1.00  0.00     0.278 C 
ENDBRANCH  11  14
BRANCH  13  16
ATOM     16  O   UNL     1      88.780  90.997  75.505  1.00  0.00    -0.504 OA
ATOM     17  H   UNL     1      88.061  91.173  76.135  1.00  0.00     0.293 HD
ENDBRANCH  13  16
ENDBRANCH   7   8
ENDBRANCH   5   7
ENDBRANCH   2   3
ENDBRANCH   1   2
BRANCH   1  18
ATOM     18  C   UNL     1      94.019  97.029  73.883  1.00  0.00     0.001 C 
BRANCH  18  19
ATOM     19  C   UNL     1      93.952  98.468  73.360  1.00  0.00     0.000 C 
BRANCH  19  20
ATOM     20  C   UNL     1      94.694  98.666  72.036  1.00  0.00     0.000 C 
BRANCH  20  21
ATOM     21  C   UNL     1      93.904  98.182  70.815  1.00  0.00     0.000 C 
BRANCH  21  22
ATOM     22  C   UNL     1      92.413  98.525  70.883  1.00  0.00     0.003 C 
BRANCH  22  23
ATOM     23  C   UNL     1      91.744  98.631  69.498  1.00  0.00    -0.017 C 
ATOM     24  C   UNL     1      91.638 100.101  69.086  1.00  0.00     0.007 C 
ATOM     25  C   UNL     1      90.357  97.987  69.467  1.00  0.00     0.007 C 
ENDBRANCH  22  23
ENDBRANCH  21  22
ENDBRANCH  20  21
ENDBRANCH  19  20
ENDBRANCH  18  19
ENDBRANCH   1  18
TORSDOF 12
ENDMDL
MODEL 8
REMARK VINA RESULT:    -5.888     13.957     15.788
REMARK INTER + INTRA:         -10.930
REMARK INTER:                  -9.778
REMARK INTRA:                  -1.152
REMARK UNBOUND:                -1.083
REMARK SMILES COc1cc(CNC(=O)CCCCCCCC(C)C)ccc1O
REMARK SMILES IDX 11 1 10 2 8 3 9 4 7 5 6 7 5 8 4 9 20 10 3 11 21 12 22 13
REMARK SMILES IDX 2 14 1 15 23 16 12 18 13 19 14 20 15 21 16 22 17 23 18 24
REMARK SMILES IDX 19 25
REMARK H PARENT 7 6 23 17
REMARK Flexibility Score: inf
ROOT
ATOM      1  C   UNL     1      82.648  89.226  84.927  1.00  0.00     0.010 C 
ENDROOT
BRANCH   1   2
ATOM      2  C   UNL     1      83.709  90.324  84.942  1.00  0.00     0.100 C 
BRANCH   2   3
ATOM      3  C   UNL     1      84.049  90.781  86.351  1.00  0.00     0.220 C 
ATOM      4  O   UNL     1      85.074  90.446  86.938  1.00  0.00    -0.275 OA
ATOM      5  N   UNL     1      83.061  91.602  86.873  1.00  0.00    -0.352 N 
ATOM      6  H   UNL     1      82.239  91.815  86.315  1.00  0.00     0.163 HD
BRANCH   5   7
ATOM      7  C   UNL     1      83.133  92.167  88.201  1.00  0.00     0.151 C 
BRANCH   7   8
ATOM      8  C   UNL     1      83.040  93.665  88.179  1.00  0.00    -0.025 A 
ATOM      9  C   UNL     1      82.180  94.313  89.058  1.00  0.00     0.056 A 
ATOM     10  C   UNL     1      83.814  94.388  87.281  1.00  0.00     0.009 A 
ATOM     11  C   UNL     1      82.094  95.705  89.037  1.00  0.00     0.160 A 
ATOM     12  C   UNL     1      83.727  95.781  87.260  1.00  0.00     0.050 A 
ATOM     13  C   UNL     1      82.867  96.439  88.138  1.00  0.00     0.157 A 
BRANCH  11  14
ATOM     14  O   UNL     1      81.249  96.337  89.900  1.00  0.00    -0.493 OA
ATOM     15  C   UNL     1      79.868  95.985  89.829  1.00  0.00     0.278 C 
ENDBRANCH  11  14
BRANCH  13  16
ATOM     16  O   UNL     1      82.792  97.799  88.109  1.00  0.00    -0.504 OA
ATOM     17  H   UNL     1      82.175  98.067  87.406  1.00  0.00     0.293 HD
ENDBRANCH  13  16
ENDBRANCH   7   8
ENDBRANCH   5   7
ENDBRANCH   2   3
ENDBRANCH   1   2
BRANCH   1  18
ATOM     18  C   UNL     1      81.286  89.700  84.412  1.00  0.00     0.001 C 
BRANCH  18  19
ATOM     19  C   UNL     1      80.157  88.665  84.468  1.00  0.00     0.000 C 
BRANCH  19  20
ATOM     20  C   UNL     1      80.503  87.354  83.757  1.00  0.00     0.000 C 
BRANCH  20  21
ATOM     21  C   UNL     1      80.522  86.139  84.692  1.00  0.00     0.000 C 
BRANCH  21  22
ATOM     22  C   UNL     1      80.296  86.503  86.163  1.00  0.00     0.003 C 
BRANCH  22  23
ATOM     23  C   UNL     1      81.588  86.497  87.003  1.00  0.00    -0.017 C 
ATOM     24  C   UNL     1      82.563  85.458  86.444  1.00  0.00     0.007 C 
ATOM     25  C   UNL     1      81.324  86.210  88.482  1.00  0.00     0.007 C 
ENDBRANCH  22  23
ENDBRANCH  21  22
ENDBRANCH  20  21
ENDBRANCH  19  20
ENDBRANCH  18  19
ENDBRANCH   1  18
TORSDOF 12
ENDMDL
MODEL 9
REMARK VINA RESULT:    -5.744     12.442     13.845
REMARK INTER + INTRA:         -10.689
REMARK INTER:                  -8.688
REMARK INTRA:                  -2.002
REMARK UNBOUND:                -1.083
REMARK SMILES COc1cc(CNC(=O)CCCCCCCC(C)C)ccc1O
REMARK SMILES IDX 11 1 10 2 8 3 9 4 7 5 6 7 5 8 4 9 20 10 3 11 21 12 22 13
REMARK SMILES IDX 2 14 1 15 23 16 12 18 13 19 14 20 15 21 16 22 17 23 18 24
REMARK SMILES IDX 19 25
REMARK H PARENT 7 6 23 17
REMARK Flexibility Score: inf
ROOT
ATOM      1  C   UNL     1      98.180  80.782  75.238  1.00  0.00     0.010 C 
ENDROOT
BRANCH   1   2
ATOM      2  C   UNL     1      97.493  82.084  74.832  1.00  0.00     0.100 C 
BRANCH   2   3
ATOM      3  C   UNL     1      97.276  83.016  76.013  1.00  0.00     0.220 C 
ATOM      4  O   UNL     1      97.505  84.221  75.971  1.00  0.00    -0.275 OA
ATOM      5  N   UNL     1      96.802  82.331  77.122  1.00  0.00    -0.352 N 
ATOM      6  H   UNL     1      96.653  81.327  77.066  1.00  0.00     0.163 HD
BRANCH   5   7
ATOM      7  C   UNL     1      96.520  82.980  78.382  1.00  0.00     0.151 C 
BRANCH   7   8
ATOM      8  C   UNL     1      97.508  82.598  79.445  1.00  0.00    -0.025 A 
ATOM      9  C   UNL     1      97.067  82.365  80.742  1.00  0.00     0.056 A 
ATOM     10  C   UNL     1      98.854  82.480  79.121  1.00  0.00     0.009 A 
ATOM     11  C   UNL     1      97.985  82.009  81.729  1.00  0.00     0.160 A 
ATOM     12  C   UNL     1      99.773  82.125  80.109  1.00  0.00     0.050 A 
ATOM     13  C   UNL     1      99.339  81.890  81.413  1.00  0.00     0.157 A 
BRANCH  11  14
ATOM     14  O   UNL     1      97.549  81.783  83.000  1.00  0.00    -0.493 OA
ATOM     15  C   UNL     1      96.722  80.639  83.207  1.00  0.00     0.278 C 
ENDBRANCH  11  14
BRANCH  13  16
ATOM     16  O   UNL     1     100.245  81.543  82.369  1.00  0.00    -0.504 OA
ATOM     17  H   UNL     1     100.677  82.348  82.703  1.00  0.00     0.293 HD
ENDBRANCH  13  16
ENDBRANCH   7   8
ENDBRANCH   5   7
ENDBRANCH   2   3
ENDBRANCH   1   2
BRANCH   1  18
ATOM     18  C   UNL     1      99.706  80.836  75.125  1.00  0.00     0.001 C 
BRANCH  18  19
ATOM     19  C   UNL     1     100.474  80.718  76.446  1.00  0.00     0.000 C 
BRANCH  19  20
ATOM     20  C   UNL     1     101.661  81.681  76.543  1.00  0.00     0.000 C 
BRANCH  20  21
ATOM     21  C   UNL     1     101.385  83.053  75.918  1.00  0.00     0.000 C 
BRANCH  21  22
ATOM     22  C   UNL     1     102.412  83.451  74.852  1.00  0.00     0.003 C 
BRANCH  22  23
ATOM     23  C   UNL     1     101.773  83.906  73.525  1.00  0.00    -0.017 C 
ATOM     24  C   UNL     1     100.287  84.200  73.740  1.00  0.00     0.007 C 
ATOM     25  C   UNL     1     101.937  82.871  72.411  1.00  0.00     0.007 C 
ENDBRANCH  22  23
ENDBRANCH  21  22
ENDBRANCH  20  21
ENDBRANCH  19  20
ENDBRANCH  18  19
ENDBRANCH   1  18
TORSDOF 12
ENDMDL
MODEL 10
REMARK VINA RESULT:    -5.708      2.766      8.178
REMARK INTER + INTRA:         -10.628
REMARK INTER:                  -9.300
REMARK INTRA:                  -1.327
REMARK UNBOUND:                -1.083
REMARK SMILES COc1cc(CNC(=O)CCCCCCCC(C)C)ccc1O
REMARK SMILES IDX 11 1 10 2 8 3 9 4 7 5 6 7 5 8 4 9 20 10 3 11 21 12 22 13
REMARK SMILES IDX 2 14 1 15 23 16 12 18 13 19 14 20 15 21 16 22 17 23 18 24
REMARK SMILES IDX 19 25
REMARK H PARENT 7 6 23 17
REMARK Flexibility Score: inf
ROOT
ATOM      1  C   UNL     1      96.959  95.391  76.254  1.00  0.00     0.010 C 
ENDROOT
BRANCH   1   2
ATOM      2  C   UNL     1      95.972  96.541  76.064  1.00  0.00     0.100 C 
BRANCH   2   3
ATOM      3  C   UNL     1      94.870  96.200  75.075  1.00  0.00     0.220 C 
ATOM      4  O   UNL     1      94.737  96.766  73.993  1.00  0.00    -0.275 OA
ATOM      5  N   UNL     1      94.048  95.191  75.555  1.00  0.00    -0.352 N 
ATOM      6  H   UNL     1      94.230  94.789  76.471  1.00  0.00     0.163 HD
BRANCH   5   7
ATOM      7  C   UNL     1      92.917  94.683  74.814  1.00  0.00     0.151 C 
BRANCH   7   8
ATOM      8  C   UNL     1      92.181  93.617  75.573  1.00  0.00    -0.025 A 
ATOM      9  C   UNL     1      91.473  92.643  74.879  1.00  0.00     0.056 A 
ATOM     10  C   UNL     1      92.216  93.616  76.962  1.00  0.00     0.009 A 
ATOM     11  C   UNL     1      90.790  91.653  75.585  1.00  0.00     0.160 A 
ATOM     12  C   UNL     1      91.531  92.625  77.668  1.00  0.00     0.050 A 
ATOM     13  C   UNL     1      90.818  91.644  76.980  1.00  0.00     0.157 A 
BRANCH  11  14
ATOM     14  O   UNL     1      90.097  90.700  74.901  1.00  0.00    -0.493 OA
ATOM     15  C   UNL     1      90.859  89.669  74.274  1.00  0.00     0.278 C 
ENDBRANCH  11  14
BRANCH  13  16
ATOM     16  O   UNL     1      90.156  90.682  77.680  1.00  0.00    -0.504 OA
ATOM     17  H   UNL     1      89.298  91.036  77.971  1.00  0.00     0.293 HD
ENDBRANCH  13  16
ENDBRANCH   7   8
ENDBRANCH   5   7
ENDBRANCH   2   3
ENDBRANCH   1   2
BRANCH   1  18
ATOM     18  C   UNL     1      96.958  94.814  77.672  1.00  0.00     0.001 C 
BRANCH  18  19
ATOM     19  C   UNL     1      95.697  94.042  78.075  1.00  0.00     0.000 C 
BRANCH  19  20
ATOM     20  C   UNL     1      95.101  94.509  79.406  1.00  0.00     0.000 C 
BRANCH  20  21
ATOM     21  C   UNL     1      96.152  94.727  80.501  1.00  0.00     0.000 C 
BRANCH  21  22
ATOM     22  C   UNL     1      95.814  95.889  81.441  1.00  0.00     0.003 C 
BRANCH  22  23
ATOM     23  C   UNL     1      96.234  97.266  80.890  1.00  0.00    -0.017 C 
ATOM     24  C   UNL     1      97.652  97.185  80.320  1.00  0.00     0.007 C 
ATOM     25  C   UNL     1      96.169  98.366  81.951  1.00  0.00     0.007 C 
ENDBRANCH  22  23
ENDBRANCH  21  22
ENDBRANCH  20  21
ENDBRANCH  19  20
ENDBRANCH  18  19
ENDBRANCH   1  18
TORSDOF 12
ENDMDL
