MODEL 1
REMARK VINA RESULT:    -6.282      0.000      0.000
REMARK INTER + INTRA:         -10.994
REMARK INTER:                 -10.137
REMARK INTRA:                  -0.856
REMARK UNBOUND:                -0.856
REMARK SMILES COc1cc(CNC(=O)CCCCC/C=C/C(C)C)ccc1O
REMARK SMILES IDX 11 1 10 2 8 3 7 4 9 6 6 7 5 8 3 9 22 10 4 11 21 12 20 13
REMARK SMILES IDX 2 14 1 15 23 16 12 18 13 19 14 20 15 21 16 22 17 23 18 24
REMARK SMILES IDX 19 25
REMARK H PARENT 7 5 23 17
REMARK Flexibility Score: inf
ROOT
ATOM      1  C   UNL     1      93.472  99.767  74.661  1.00  0.00     0.010 C 
ENDROOT
BRANCH   1   2
ATOM      2  C   UNL     1      94.869  99.151  74.389  1.00  0.00     0.100 C 
BRANCH   2   3
ATOM      3  C   UNL     1      94.988  97.735  74.782  1.00  0.00     0.220 C 
ATOM      4  N   UNL     1      94.355  97.287  75.902  1.00  0.00    -0.352 N 
ATOM      5  H   UNL     1      93.891  98.005  76.440  1.00  0.00     0.163 HD
ATOM      6  O   UNL     1      95.644  96.964  74.042  1.00  0.00    -0.275 OA
BRANCH   4   7
ATOM      7  C   UNL     1      94.307  95.930  76.340  1.00  0.00     0.151 C 
BRANCH   7   8
ATOM      8  C   UNL     1      92.943  95.510  76.754  1.00  0.00    -0.025 A 
ATOM      9  C   UNL     1      91.205  93.781  76.941  1.00  0.00     0.160 A 
ATOM     10  C   UNL     1      90.321  94.731  77.497  1.00  0.00     0.157 A 
ATOM     11  C   UNL     1      92.504  94.179  76.566  1.00  0.00     0.056 A 
ATOM     12  C   UNL     1      90.752  96.053  77.705  1.00  0.00     0.050 A 
ATOM     13  C   UNL     1      92.057  96.438  77.346  1.00  0.00     0.009 A 
BRANCH   9  14
ATOM     14  O   UNL     1      90.824  92.471  76.815  1.00  0.00    -0.493 OA
ATOM     15  C   UNL     1      91.340  91.819  75.643  1.00  0.00     0.278 C 
ENDBRANCH   9  14
BRANCH  10  16
ATOM     16  O   UNL     1      89.053  94.395  77.845  1.00  0.00    -0.504 OA
ATOM     17  H   UNL     1      88.957  94.454  78.799  1.00  0.00     0.293 HD
ENDBRANCH  10  16
ENDBRANCH   7   8
ENDBRANCH   4   7
ENDBRANCH   2   3
ENDBRANCH   1   2
BRANCH   1  18
ATOM     18  C   UNL     1      92.552  99.638  73.420  1.00  0.00     0.001 C 
BRANCH  18  19
ATOM     19  C   UNL     1      91.840 100.958  73.032  1.00  0.00     0.004 C 
BRANCH  19  20
ATOM     20  C   UNL     1      91.197 100.862  71.621  1.00  0.00     0.027 C 
BRANCH  20  21
ATOM     21  C   UNL     1      90.359  99.689  71.439  1.00  0.00    -0.031 C 
ATOM     22  C   UNL     1      89.782  99.394  70.261  1.00  0.00    -0.028 C 
BRANCH  22  23
ATOM     23  C   UNL     1      88.938  98.221  70.045  1.00  0.00     0.005 C 
ATOM     24  C   UNL     1      88.481  98.152  68.563  1.00  0.00     0.012 C 
ATOM     25  C   UNL     1      89.683  96.934  70.492  1.00  0.00     0.012 C 
ENDBRANCH  22  23
ENDBRANCH  20  21
ENDBRANCH  19  20
ENDBRANCH  18  19
ENDBRANCH   1  18
TORSDOF 11
ENDMDL
MODEL 2
REMARK VINA RESULT:    -5.998     19.680     22.651
REMARK INTER + INTRA:         -10.536
REMARK INTER:                  -9.031
REMARK INTRA:                  -1.506
REMARK UNBOUND:                -0.856
REMARK SMILES COc1cc(CNC(=O)CCCCC/C=C/C(C)C)ccc1O
REMARK SMILES IDX 11 1 10 2 8 3 7 4 9 6 6 7 5 8 3 9 22 10 4 11 21 12 20 13
REMARK SMILES IDX 2 14 1 15 23 16 12 18 13 19 14 20 15 21 16 22 17 23 18 24
REMARK SMILES IDX 19 25
REMARK H PARENT 7 5 23 17
REMARK Flexibility Score: inf
ROOT
ATOM      1  C   UNL     1      75.851  87.559  66.582  1.00  0.00     0.010 C 
ENDROOT
BRANCH   1   2
ATOM      2  C   UNL     1      77.138  86.841  66.101  1.00  0.00     0.100 C 
BRANCH   2   3
ATOM      3  C   UNL     1      76.929  85.937  64.956  1.00  0.00     0.220 C 
ATOM      4  N   UNL     1      77.050  84.591  65.123  1.00  0.00    -0.352 N 
ATOM      5  H   UNL     1      77.358  84.307  66.043  1.00  0.00     0.163 HD
ATOM      6  O   UNL     1      76.601  86.437  63.854  1.00  0.00    -0.275 OA
BRANCH   4   7
ATOM      7  C   UNL     1      76.781  83.603  64.129  1.00  0.00     0.151 C 
BRANCH   7   8
ATOM      8  C   UNL     1      75.600  82.766  64.460  1.00  0.00    -0.025 A 
ATOM      9  C   UNL     1      73.335  82.540  65.392  1.00  0.00     0.160 A 
ATOM     10  C   UNL     1      73.370  81.151  65.138  1.00  0.00     0.157 A 
ATOM     11  C   UNL     1      74.451  83.334  65.060  1.00  0.00     0.056 A 
ATOM     12  C   UNL     1      74.499  80.578  64.526  1.00  0.00     0.050 A 
ATOM     13  C   UNL     1      75.602  81.381  64.180  1.00  0.00     0.009 A 
BRANCH   9  14
ATOM     14  O   UNL     1      72.206  83.121  65.907  1.00  0.00    -0.493 OA
ATOM     15  C   UNL     1      72.432  83.882  67.105  1.00  0.00     0.278 C 
ENDBRANCH   9  14
BRANCH  10  16
ATOM     16  O   UNL     1      72.328  80.348  65.468  1.00  0.00    -0.504 OA
ATOM     17  H   UNL     1      72.661  79.498  65.767  1.00  0.00     0.293 HD
ENDBRANCH  10  16
ENDBRANCH   7   8
ENDBRANCH   4   7
ENDBRANCH   2   3
ENDBRANCH   1   2
BRANCH   1  18
ATOM     18  C   UNL     1      76.190  88.749  67.516  1.00  0.00     0.001 C 
BRANCH  18  19
ATOM     19  C   UNL     1      75.310  88.812  68.790  1.00  0.00     0.004 C 
BRANCH  19  20
ATOM     20  C   UNL     1      76.047  88.210  70.018  1.00  0.00     0.027 C 
BRANCH  20  21
ATOM     21  C   UNL     1      75.990  86.759  70.081  1.00  0.00    -0.031 C 
ATOM     22  C   UNL     1      77.086  85.990  69.956  1.00  0.00    -0.028 C 
BRANCH  22  23
ATOM     23  C   UNL     1      77.062  84.531  70.020  1.00  0.00     0.005 C 
ATOM     24  C   UNL     1      76.251  84.060  71.257  1.00  0.00     0.012 C 
ATOM     25  C   UNL     1      76.509  83.944  68.693  1.00  0.00     0.012 C 
ENDBRANCH  22  23
ENDBRANCH  20  21
ENDBRANCH  19  20
ENDBRANCH  18  19
ENDBRANCH   1  18
TORSDOF 11
ENDMDL
MODEL 3
REMARK VINA RESULT:    -5.945     15.573     18.780
REMARK INTER + INTRA:         -10.451
REMARK INTER:                  -8.718
REMARK INTRA:                  -1.733
REMARK UNBOUND:                -0.856
REMARK SMILES COc1cc(CNC(=O)CCCCC/C=C/C(C)C)ccc1O
REMARK SMILES IDX 11 1 10 2 8 3 7 4 9 6 6 7 5 8 3 9 22 10 4 11 21 12 20 13
REMARK SMILES IDX 2 14 1 15 23 16 12 18 13 19 14 20 15 21 16 22 17 23 18 24
REMARK SMILES IDX 19 25
REMARK H PARENT 7 5 23 17
REMARK Flexibility Score: inf
ROOT
ATOM      1  C   UNL     1     101.397  84.108  76.161  1.00  0.00     0.010 C 
ENDROOT
BRANCH   1   2
ATOM      2  C   UNL     1      99.957  84.276  75.612  1.00  0.00     0.100 C 
BRANCH   2   3
ATOM      3  C   UNL     1      98.913  83.702  76.480  1.00  0.00     0.220 C 
ATOM      4  N   UNL     1      98.874  84.030  77.801  1.00  0.00    -0.352 N 
ATOM      5  H   UNL     1      99.640  84.610  78.114  1.00  0.00     0.163 HD
ATOM      6  O   UNL     1      98.054  82.950  75.962  1.00  0.00    -0.275 OA
BRANCH   4   7
ATOM      7  C   UNL     1      97.866  83.626  78.727  1.00  0.00     0.151 C 
BRANCH   7   8
ATOM      8  C   UNL     1      98.401  82.766  79.815  1.00  0.00    -0.025 A 
ATOM      9  C   UNL     1      98.893  82.393  82.196  1.00  0.00     0.160 A 
ATOM     10  C   UNL     1      99.472  81.144  81.879  1.00  0.00     0.157 A 
ATOM     11  C   UNL     1      98.371  83.197  81.162  1.00  0.00     0.056 A 
ATOM     12  C   UNL     1      99.491  80.698  80.545  1.00  0.00     0.050 A 
ATOM     13  C   UNL     1      98.950  81.498  79.522  1.00  0.00     0.009 A 
BRANCH   9  14
ATOM     14  O   UNL     1      98.790  82.798  83.500  1.00  0.00    -0.493 OA
ATOM     15  C   UNL     1      97.561  83.476  83.809  1.00  0.00     0.278 C 
ENDBRANCH   9  14
BRANCH  10  16
ATOM     16  O   UNL     1     100.010  80.353  82.841  1.00  0.00    -0.504 OA
ATOM     17  H   UNL     1      99.340  79.751  83.172  1.00  0.00     0.293 HD
ENDBRANCH  10  16
ENDBRANCH   7   8
ENDBRANCH   4   7
ENDBRANCH   2   3
ENDBRANCH   1   2
BRANCH   1  18
ATOM     18  C   UNL     1     101.742  82.613  76.379  1.00  0.00     0.001 C 
BRANCH  18  19
ATOM     19  C   UNL     1     102.196  82.282  77.823  1.00  0.00     0.004 C 
BRANCH  19  20
ATOM     20  C   UNL     1     103.690  81.856  77.865  1.00  0.00     0.027 C 
BRANCH  20  21
ATOM     21  C   UNL     1     104.133  81.406  79.174  1.00  0.00    -0.031 C 
ATOM     22  C   UNL     1     103.289  81.275  80.213  1.00  0.00    -0.028 C 
BRANCH  22  23
ATOM     23  C   UNL     1     103.702  80.821  81.538  1.00  0.00     0.005 C 
ATOM     24  C   UNL     1     103.172  81.791  82.628  1.00  0.00     0.012 C 
ATOM     25  C   UNL     1     103.236  79.358  81.774  1.00  0.00     0.012 C 
ENDBRANCH  22  23
ENDBRANCH  20  21
ENDBRANCH  19  20
ENDBRANCH  18  19
ENDBRANCH   1  18
TORSDOF 11
ENDMDL
MODEL 4
REMARK VINA RESULT:    -5.731     15.649     17.616
REMARK INTER + INTRA:         -10.105
REMARK INTER:                  -9.254
REMARK INTRA:                  -0.851
REMARK UNBOUND:                -0.856
REMARK SMILES COc1cc(CNC(=O)CCCCC/C=C/C(C)C)ccc1O
REMARK SMILES IDX 11 1 10 2 8 3 7 4 9 6 6 7 5 8 3 9 22 10 4 11 21 12 20 13
REMARK SMILES IDX 2 14 1 15 23 16 12 18 13 19 14 20 15 21 16 22 17 23 18 24
REMARK SMILES IDX 19 25
REMARK H PARENT 7 5 23 17
REMARK Flexibility Score: inf
ROOT
ATOM      1  C   UNL     1      99.322  83.200  80.432  1.00  0.00     0.010 C 
ENDROOT
BRANCH   1   2
ATOM      2  C   UNL     1     100.077  82.000  81.061  1.00  0.00     0.100 C 
BRANCH   2   3
ATOM      3  C   UNL     1      99.765  81.774  82.484  1.00  0.00     0.220 C 
ATOM      4  N   UNL     1      98.470  81.633  82.880  1.00  0.00    -0.352 N 
ATOM      5  H   UNL     1      97.788  81.771  82.148  1.00  0.00     0.163 HD
ATOM      6  O   UNL     1     100.717  81.676  83.294  1.00  0.00    -0.275 OA
BRANCH   4   7
ATOM      7  C   UNL     1      98.037  81.315  84.202  1.00  0.00     0.151 C 
BRANCH   7   8
ATOM      8  C   UNL     1      97.265  82.418  84.832  1.00  0.00    -0.025 A 
ATOM      9  C   UNL     1      95.539  83.191  86.404  1.00  0.00     0.160 A 
ATOM     10  C   UNL     1      95.759  84.523  85.990  1.00  0.00     0.157 A 
ATOM     11  C   UNL     1      96.286  82.150  85.817  1.00  0.00     0.056 A 
ATOM     12  C   UNL     1      96.742  84.803  85.023  1.00  0.00     0.050 A 
ATOM     13  C   UNL     1      97.497  83.760  84.456  1.00  0.00     0.009 A 
BRANCH   9  14
ATOM     14  O   UNL     1      94.648  82.916  87.407  1.00  0.00    -0.493 OA
ATOM     15  C   UNL     1      93.421  82.319  86.954  1.00  0.00     0.278 C 
ENDBRANCH   9  14
BRANCH  10  16
ATOM     16  O   UNL     1      95.042  85.550  86.509  1.00  0.00    -0.504 OA
ATOM     17  H   UNL     1      95.600  86.330  86.571  1.00  0.00     0.293 HD
ENDBRANCH  10  16
ENDBRANCH   7   8
ENDBRANCH   4   7
ENDBRANCH   2   3
ENDBRANCH   1   2
BRANCH   1  18
ATOM     18  C   UNL     1      98.185  82.716  79.496  1.00  0.00     0.001 C 
BRANCH  18  19
ATOM     19  C   UNL     1      97.454  83.866  78.758  1.00  0.00     0.004 C 
BRANCH  19  20
ATOM     20  C   UNL     1      97.582  83.723  77.216  1.00  0.00     0.027 C 
BRANCH  20  21
ATOM     21  C   UNL     1      98.448  82.633  76.800  1.00  0.00    -0.031 C 
ATOM     22  C   UNL     1      98.222  81.922  75.681  1.00  0.00    -0.028 C 
BRANCH  22  23
ATOM     23  C   UNL     1      99.076  80.824  75.234  1.00  0.00     0.005 C 
ATOM     24  C   UNL     1      98.376  80.026  74.102  1.00  0.00     0.012 C 
ATOM     25  C   UNL     1     100.465  81.367  74.801  1.00  0.00     0.012 C 
ENDBRANCH  22  23
ENDBRANCH  20  21
ENDBRANCH  19  20
ENDBRANCH  18  19
ENDBRANCH   1  18
TORSDOF 11
ENDMDL
MODEL 5
REMARK VINA RESULT:    -5.712     15.077     18.141
REMARK INTER + INTRA:         -10.075
REMARK INTER:                  -8.679
REMARK INTRA:                  -1.396
REMARK UNBOUND:                -0.856
REMARK SMILES COc1cc(CNC(=O)CCCCC/C=C/C(C)C)ccc1O
REMARK SMILES IDX 11 1 10 2 8 3 7 4 9 6 6 7 5 8 3 9 22 10 4 11 21 12 20 13
REMARK SMILES IDX 2 14 1 15 23 16 12 18 13 19 14 20 15 21 16 22 17 23 18 24
REMARK SMILES IDX 19 25
REMARK H PARENT 7 5 23 17
REMARK Flexibility Score: inf
ROOT
ATOM      1  C   UNL     1     103.880  80.247  81.024  1.00  0.00     0.010 C 
ENDROOT
BRANCH   1   2
ATOM      2  C   UNL     1     103.071  81.392  81.686  1.00  0.00     0.100 C 
BRANCH   2   3
ATOM      3  C   UNL     1     101.629  81.112  81.814  1.00  0.00     0.220 C 
ATOM      4  N   UNL     1     100.721  82.082  81.517  1.00  0.00    -0.352 N 
ATOM      5  H   UNL     1     101.123  82.981  81.290  1.00  0.00     0.163 HD
ATOM      6  O   UNL     1     101.275  79.960  82.160  1.00  0.00    -0.275 OA
BRANCH   4   7
ATOM      7  C   UNL     1      99.304  81.916  81.505  1.00  0.00     0.151 C 
BRANCH   7   8
ATOM      8  C   UNL     1      98.683  82.391  80.241  1.00  0.00    -0.025 A 
ATOM      9  C   UNL     1      98.469  82.281  77.794  1.00  0.00     0.160 A 
ATOM     10  C   UNL     1      97.533  83.338  77.829  1.00  0.00     0.157 A 
ATOM     11  C   UNL     1      99.042  81.822  78.997  1.00  0.00     0.056 A 
ATOM     12  C   UNL     1      97.155  83.900  79.062  1.00  0.00     0.050 A 
ATOM     13  C   UNL     1      97.718  83.423  80.261  1.00  0.00     0.009 A 
BRANCH   9  14
ATOM     14  O   UNL     1      98.778  81.669  76.608  1.00  0.00    -0.493 OA
ATOM     15  C   UNL     1      99.023  80.257  76.722  1.00  0.00     0.278 C 
ENDBRANCH   9  14
BRANCH  10  16
ATOM     16  O   UNL     1      96.980  83.827  76.692  1.00  0.00    -0.504 OA
ATOM     17  H   UNL     1      96.064  84.064  76.858  1.00  0.00     0.293 HD
ENDBRANCH  10  16
ENDBRANCH   7   8
ENDBRANCH   4   7
ENDBRANCH   2   3
ENDBRANCH   1   2
BRANCH   1  18
ATOM     18  C   UNL     1     103.670  80.227  79.489  1.00  0.00     0.001 C 
BRANCH  18  19
ATOM     19  C   UNL     1     103.696  81.634  78.839  1.00  0.00     0.004 C 
BRANCH  19  20
ATOM     20  C   UNL     1     102.296  82.031  78.292  1.00  0.00     0.027 C 
BRANCH  20  21
ATOM     21  C   UNL     1     102.338  82.673  76.990  1.00  0.00    -0.031 C 
ATOM     22  C   UNL     1     101.652  83.798  76.720  1.00  0.00    -0.028 C 
BRANCH  22  23
ATOM     23  C   UNL     1     101.677  84.471  75.424  1.00  0.00     0.005 C 
ATOM     24  C   UNL     1     100.325  85.187  75.163  1.00  0.00     0.012 C 
ATOM     25  C   UNL     1     102.885  85.444  75.348  1.00  0.00     0.012 C 
ENDBRANCH  22  23
ENDBRANCH  20  21
ENDBRANCH  19  20
ENDBRANCH  18  19
ENDBRANCH   1  18
TORSDOF 11
ENDMDL
MODEL 6
REMARK VINA RESULT:    -5.657     32.161     34.730
REMARK INTER + INTRA:          -9.986
REMARK INTER:                  -9.217
REMARK INTRA:                  -0.769
REMARK UNBOUND:                -0.856
REMARK SMILES COc1cc(CNC(=O)CCCCC/C=C/C(C)C)ccc1O
REMARK SMILES IDX 11 1 10 2 8 3 7 4 9 6 6 7 5 8 3 9 22 10 4 11 21 12 20 13
REMARK SMILES IDX 2 14 1 15 23 16 12 18 13 19 14 20 15 21 16 22 17 23 18 24
REMARK SMILES IDX 19 25
REMARK H PARENT 7 5 23 17
REMARK Flexibility Score: inf
ROOT
ATOM      1  C   UNL     1      58.694  87.719  70.843  1.00  0.00     0.010 C 
ENDROOT
BRANCH   1   2
ATOM      2  C   UNL     1      58.608  86.234  70.407  1.00  0.00     0.100 C 
BRANCH   2   3
ATOM      3  C   UNL     1      58.915  85.273  71.484  1.00  0.00     0.220 C 
ATOM      4  N   UNL     1      59.940  85.524  72.345  1.00  0.00    -0.352 N 
ATOM      5  H   UNL     1      60.480  86.350  72.127  1.00  0.00     0.163 HD
ATOM      6  O   UNL     1      58.188  84.259  71.602  1.00  0.00    -0.275 OA
BRANCH   4   7
ATOM      7  C   UNL     1      60.280  84.733  73.482  1.00  0.00     0.151 C 
BRANCH   7   8
ATOM      8  C   UNL     1      61.371  83.764  73.199  1.00  0.00    -0.025 A 
ATOM      9  C   UNL     1      63.219  82.985  71.776  1.00  0.00     0.160 A 
ATOM     10  C   UNL     1      63.415  81.882  72.636  1.00  0.00     0.157 A 
ATOM     11  C   UNL     1      62.195  83.911  72.058  1.00  0.00     0.056 A 
ATOM     12  C   UNL     1      62.613  81.736  73.783  1.00  0.00     0.050 A 
ATOM     13  C   UNL     1      61.606  82.676  74.068  1.00  0.00     0.009 A 
BRANCH   9  14
ATOM     14  O   UNL     1      64.051  83.184  70.706  1.00  0.00    -0.493 OA
ATOM     15  C   UNL     1      64.099  84.545  70.245  1.00  0.00     0.278 C 
ENDBRANCH   9  14
BRANCH  10  16
ATOM     16  O   UNL     1      64.371  80.953  72.384  1.00  0.00    -0.504 OA
ATOM     17  H   UNL     1      64.240  80.590  71.505  1.00  0.00     0.293 HD
ENDBRANCH  10  16
ENDBRANCH   7   8
ENDBRANCH   4   7
ENDBRANCH   2   3
ENDBRANCH   1   2
BRANCH   1  18
ATOM     18  C   UNL     1      58.016  88.648  69.804  1.00  0.00     0.001 C 
BRANCH  18  19
ATOM     19  C   UNL     1      56.993  89.633  70.422  1.00  0.00     0.004 C 
BRANCH  19  20
ATOM     20  C   UNL     1      55.959  90.113  69.365  1.00  0.00     0.027 C 
BRANCH  20  21
ATOM     21  C   UNL     1      55.725  89.155  68.299  1.00  0.00    -0.031 C 
ATOM     22  C   UNL     1      54.688  89.263  67.449  1.00  0.00    -0.028 C 
BRANCH  22  23
ATOM     23  C   UNL     1      54.429  88.320  66.364  1.00  0.00     0.005 C 
ATOM     24  C   UNL     1      55.461  88.517  65.222  1.00  0.00     0.012 C 
ATOM     25  C   UNL     1      54.421  86.865  66.907  1.00  0.00     0.012 C 
ENDBRANCH  22  23
ENDBRANCH  20  21
ENDBRANCH  19  20
ENDBRANCH  18  19
ENDBRANCH   1  18
TORSDOF 11
ENDMDL
MODEL 7
REMARK VINA RESULT:    -5.486     15.530     18.599
REMARK INTER + INTRA:          -9.710
REMARK INTER:                  -8.843
REMARK INTRA:                  -0.867
REMARK UNBOUND:                -0.856
REMARK SMILES COc1cc(CNC(=O)CCCCC/C=C/C(C)C)ccc1O
REMARK SMILES IDX 11 1 10 2 8 3 7 4 9 6 6 7 5 8 3 9 22 10 4 11 21 12 20 13
REMARK SMILES IDX 2 14 1 15 23 16 12 18 13 19 14 20 15 21 16 22 17 23 18 24
REMARK SMILES IDX 19 25
REMARK H PARENT 7 5 23 17
REMARK Flexibility Score: inf
ROOT
ATOM      1  C   UNL     1      98.568  82.269  79.977  1.00  0.00     0.010 C 
ENDROOT
BRANCH   1   2
ATOM      2  C   UNL     1      97.632  83.351  79.380  1.00  0.00     0.100 C 
BRANCH   2   3
ATOM      3  C   UNL     1      97.986  83.760  78.008  1.00  0.00     0.220 C 
ATOM      4  N   UNL     1      99.278  83.675  77.587  1.00  0.00    -0.352 N 
ATOM      5  H   UNL     1      99.936  83.394  78.301  1.00  0.00     0.163 HD
ATOM      6  O   UNL     1      97.067  84.142  77.245  1.00  0.00    -0.275 OA
BRANCH   4   7
ATOM      7  C   UNL     1      99.739  83.945  76.264  1.00  0.00     0.151 C 
BRANCH   7   8
ATOM      8  C   UNL     1     100.038  82.706  75.499  1.00  0.00    -0.025 A 
ATOM      9  C   UNL     1      99.481  80.392  74.879  1.00  0.00     0.160 A 
ATOM     10  C   UNL     1     100.642  80.328  74.079  1.00  0.00     0.157 A 
ATOM     11  C   UNL     1      99.192  81.576  75.589  1.00  0.00     0.056 A 
ATOM     12  C   UNL     1     101.481  81.452  73.969  1.00  0.00     0.050 A 
ATOM     13  C   UNL     1     101.176  82.636  74.665  1.00  0.00     0.009 A 
BRANCH   9  14
ATOM     14  O   UNL     1      98.611  79.335  74.924  1.00  0.00    -0.493 OA
ATOM     15  C   UNL     1      98.823  78.447  76.034  1.00  0.00     0.278 C 
ENDBRANCH   9  14
BRANCH  10  16
ATOM     16  O   UNL     1     100.971  79.199  73.402  1.00  0.00    -0.504 OA
ATOM     17  H   UNL     1     101.768  78.821  73.780  1.00  0.00     0.293 HD
ENDBRANCH  10  16
ENDBRANCH   7   8
ENDBRANCH   4   7
ENDBRANCH   2   3
ENDBRANCH   1   2
BRANCH   1  18
ATOM     18  C   UNL     1      99.365  82.824  81.186  1.00  0.00     0.001 C 
BRANCH  18  19
ATOM     19  C   UNL     1      99.845  81.728  82.171  1.00  0.00     0.004 C 
BRANCH  19  20
ATOM     20  C   UNL     1      98.673  81.195  83.041  1.00  0.00     0.027 C 
BRANCH  20  21
ATOM     21  C   UNL     1      98.422  81.987  84.233  1.00  0.00    -0.031 C 
ATOM     22  C   UNL     1      97.419  82.880  84.305  1.00  0.00    -0.028 C 
BRANCH  22  23
ATOM     23  C   UNL     1      97.138  83.687  85.490  1.00  0.00     0.005 C 
ATOM     24  C   UNL     1      97.297  85.195  85.163  1.00  0.00     0.012 C 
ATOM     25  C   UNL     1      95.728  83.349  86.046  1.00  0.00     0.012 C 
ENDBRANCH  22  23
ENDBRANCH  20  21
ENDBRANCH  19  20
ENDBRANCH  18  19
ENDBRANCH   1  18
TORSDOF 11
ENDMDL
MODEL 8
REMARK VINA RESULT:    -5.464     15.588     18.547
REMARK INTER + INTRA:          -9.674
REMARK INTER:                  -8.411
REMARK INTRA:                  -1.263
REMARK UNBOUND:                -0.856
REMARK SMILES COc1cc(CNC(=O)CCCCC/C=C/C(C)C)ccc1O
REMARK SMILES IDX 11 1 10 2 8 3 7 4 9 6 6 7 5 8 3 9 22 10 4 11 21 12 20 13
REMARK SMILES IDX 2 14 1 15 23 16 12 18 13 19 14 20 15 21 16 22 17 23 18 24
REMARK SMILES IDX 19 25
REMARK H PARENT 7 5 23 17
REMARK Flexibility Score: inf
ROOT
ATOM      1  C   UNL     1     102.619  80.679  80.704  1.00  0.00     0.010 C 
ENDROOT
BRANCH   1   2
ATOM      2  C   UNL     1     101.572  81.665  81.283  1.00  0.00     0.100 C 
BRANCH   2   3
ATOM      3  C   UNL     1     100.788  81.116  82.405  1.00  0.00     0.220 C 
ATOM      4  N   UNL     1      99.464  81.416  82.517  1.00  0.00    -0.352 N 
ATOM      5  H   UNL     1      99.122  82.078  81.834  1.00  0.00     0.163 HD
ATOM      6  O   UNL     1     101.361  80.346  83.212  1.00  0.00    -0.275 OA
BRANCH   4   7
ATOM      7  C   UNL     1      98.572  80.878  83.492  1.00  0.00     0.151 C 
BRANCH   7   8
ATOM      8  C   UNL     1      97.778  81.928  84.182  1.00  0.00    -0.025 A 
ATOM      9  C   UNL     1      96.259  82.615  85.990  1.00  0.00     0.160 A 
ATOM     10  C   UNL     1      96.225  83.924  85.462  1.00  0.00     0.157 A 
ATOM     11  C   UNL     1      97.027  81.626  85.342  1.00  0.00     0.056 A 
ATOM     12  C   UNL     1      96.981  84.240  84.319  1.00  0.00     0.050 A 
ATOM     13  C   UNL     1      97.761  83.252  83.690  1.00  0.00     0.009 A 
BRANCH   9  14
ATOM     14  O   UNL     1      95.597  82.319  87.152  1.00  0.00    -0.493 OA
ATOM     15  C   UNL     1      96.436  82.299  88.318  1.00  0.00     0.278 C 
ENDBRANCH   9  14
BRANCH  10  16
ATOM     16  O   UNL     1      95.476  84.897  86.039  1.00  0.00    -0.504 OA
ATOM     17  H   UNL     1      95.428  85.655  85.451  1.00  0.00     0.293 HD
ENDBRANCH  10  16
ENDBRANCH   7   8
ENDBRANCH   4   7
ENDBRANCH   2   3
ENDBRANCH   1   2
BRANCH   1  18
ATOM     18  C   UNL     1     102.530  80.613  79.158  1.00  0.00     0.001 C 
BRANCH  18  19
ATOM     19  C   UNL     1     103.156  81.838  78.444  1.00  0.00     0.004 C 
BRANCH  19  20
ATOM     20  C   UNL     1     102.202  82.409  77.358  1.00  0.00     0.027 C 
BRANCH  20  21
ATOM     21  C   UNL     1     100.794  82.199  77.647  1.00  0.00    -0.031 C 
ATOM     22  C   UNL     1      99.975  83.205  78.003  1.00  0.00    -0.028 C 
BRANCH  22  23
ATOM     23  C   UNL     1      98.555  83.028  78.295  1.00  0.00     0.005 C 
ATOM     24  C   UNL     1      98.291  83.211  79.813  1.00  0.00     0.012 C 
ATOM     25  C   UNL     1      97.703  83.994  77.427  1.00  0.00     0.012 C 
ENDBRANCH  22  23
ENDBRANCH  20  21
ENDBRANCH  19  20
ENDBRANCH  18  19
ENDBRANCH   1  18
TORSDOF 11
ENDMDL
MODEL 9
REMARK VINA RESULT:    -5.456     23.170     25.832
REMARK INTER + INTRA:          -9.662
REMARK INTER:                  -9.022
REMARK INTRA:                  -0.640
REMARK UNBOUND:                -0.856
REMARK SMILES COc1cc(CNC(=O)CCCCC/C=C/C(C)C)ccc1O
REMARK SMILES IDX 11 1 10 2 8 3 7 4 9 6 6 7 5 8 3 9 22 10 4 11 21 12 20 13
REMARK SMILES IDX 2 14 1 15 23 16 12 18 13 19 14 20 15 21 16 22 17 23 18 24
REMARK SMILES IDX 19 25
REMARK H PARENT 7 5 23 17
REMARK Flexibility Score: inf
ROOT
ATOM      1  C   UNL     1      68.964  84.979  70.947  1.00  0.00     0.010 C 
ENDROOT
BRANCH   1   2
ATOM      2  C   UNL     1      70.327  84.340  70.576  1.00  0.00     0.100 C 
BRANCH   2   3
ATOM      3  C   UNL     1      71.241  85.249  69.859  1.00  0.00     0.220 C 
ATOM      4  N   UNL     1      72.127  84.746  68.955  1.00  0.00    -0.352 N 
ATOM      5  H   UNL     1      72.140  83.738  68.894  1.00  0.00     0.163 HD
ATOM      6  O   UNL     1      71.147  86.480  70.076  1.00  0.00    -0.275 OA
BRANCH   4   7
ATOM      7  C   UNL     1      72.995  85.518  68.127  1.00  0.00     0.151 C 
BRANCH   7   8
ATOM      8  C   UNL     1      74.386  85.569  68.647  1.00  0.00    -0.025 A 
ATOM      9  C   UNL     1      76.679  84.683  68.701  1.00  0.00     0.160 A 
ATOM     10  C   UNL     1      77.024  85.637  69.683  1.00  0.00     0.157 A 
ATOM     11  C   UNL     1      75.363  84.650  68.198  1.00  0.00     0.056 A 
ATOM     12  C   UNL     1      76.065  86.567  70.124  1.00  0.00     0.050 A 
ATOM     13  C   UNL     1      74.758  86.540  69.602  1.00  0.00     0.009 A 
BRANCH   9  14
ATOM     14  O   UNL     1      77.628  83.830  68.201  1.00  0.00    -0.493 OA
ATOM     15  C   UNL     1      78.067  84.155  66.872  1.00  0.00     0.278 C 
ENDBRANCH   9  14
BRANCH  10  16
ATOM     16  O   UNL     1      78.272  85.684  70.214  1.00  0.00    -0.504 OA
ATOM     17  H   UNL     1      78.287  86.313  70.939  1.00  0.00     0.293 HD
ENDBRANCH  10  16
ENDBRANCH   7   8
ENDBRANCH   4   7
ENDBRANCH   2   3
ENDBRANCH   1   2
BRANCH   1  18
ATOM     18  C   UNL     1      67.969  83.910  71.466  1.00  0.00     0.001 C 
BRANCH  18  19
ATOM     19  C   UNL     1      66.968  83.416  70.391  1.00  0.00     0.004 C 
BRANCH  19  20
ATOM     20  C   UNL     1      66.379  82.026  70.761  1.00  0.00     0.027 C 
BRANCH  20  21
ATOM     21  C   UNL     1      64.949  82.048  71.019  1.00  0.00    -0.031 C 
ATOM     22  C   UNL     1      64.437  81.857  72.248  1.00  0.00    -0.028 C 
BRANCH  22  23
ATOM     23  C   UNL     1      63.006  81.878  72.541  1.00  0.00     0.005 C 
ATOM     24  C   UNL     1      62.719  81.131  73.870  1.00  0.00     0.012 C 
ATOM     25  C   UNL     1      62.484  83.340  72.561  1.00  0.00     0.012 C 
ENDBRANCH  22  23
ENDBRANCH  20  21
ENDBRANCH  19  20
ENDBRANCH  18  19
ENDBRANCH   1  18
TORSDOF 11
ENDMDL
MODEL 10
REMARK VINA RESULT:    -5.408     15.855     18.634
REMARK INTER + INTRA:          -9.583
REMARK INTER:                  -8.648
REMARK INTRA:                  -0.935
REMARK UNBOUND:                -0.856
REMARK SMILES COc1cc(CNC(=O)CCCCC/C=C/C(C)C)ccc1O
REMARK SMILES IDX 11 1 10 2 8 3 7 4 9 6 6 7 5 8 3 9 22 10 4 11 21 12 20 13
REMARK SMILES IDX 2 14 1 15 23 16 12 18 13 19 14 20 15 21 16 22 17 23 18 24
REMARK SMILES IDX 19 25
REMARK H PARENT 7 5 23 17
REMARK Flexibility Score: inf
ROOT
ATOM      1  C   UNL     1      72.455  90.008  71.871  1.00  0.00     0.010 C 
ENDROOT
BRANCH   1   2
ATOM      2  C   UNL     1      71.725  90.414  73.177  1.00  0.00     0.100 C 
BRANCH   2   3
ATOM      3  C   UNL     1      72.612  90.986  74.207  1.00  0.00     0.220 C 
ATOM      4  N   UNL     1      73.602  91.849  73.846  1.00  0.00    -0.352 N 
ATOM      5  H   UNL     1      73.703  91.981  72.849  1.00  0.00     0.163 HD
ATOM      6  O   UNL     1      72.401  90.689  75.407  1.00  0.00    -0.275 OA
BRANCH   4   7
ATOM      7  C   UNL     1      74.463  92.546  74.745  1.00  0.00     0.151 C 
BRANCH   7   8
ATOM      8  C   UNL     1      75.708  93.023  74.089  1.00  0.00    -0.025 A 
ATOM      9  C   UNL     1      77.729  94.426  74.105  1.00  0.00     0.160 A 
ATOM     10  C   UNL     1      78.054  93.970  72.809  1.00  0.00     0.157 A 
ATOM     11  C   UNL     1      76.556  93.956  74.731  1.00  0.00     0.056 A 
ATOM     12  C   UNL     1      77.228  93.029  72.168  1.00  0.00     0.050 A 
ATOM     13  C   UNL     1      76.069  92.551  72.807  1.00  0.00     0.009 A 
BRANCH   9  14
ATOM     14  O   UNL     1      78.571  95.274  74.773  1.00  0.00    -0.493 OA
ATOM     15  C   UNL     1      77.920  96.421  75.344  1.00  0.00     0.278 C 
ENDBRANCH   9  14
BRANCH  10  16
ATOM     16  O   UNL     1      79.158  94.419  72.161  1.00  0.00    -0.504 OA
ATOM     17  H   UNL     1      79.406  93.789  71.479  1.00  0.00     0.293 HD
ENDBRANCH  10  16
ENDBRANCH   7   8
ENDBRANCH   4   7
ENDBRANCH   2   3
ENDBRANCH   1   2
BRANCH   1  18
ATOM     18  C   UNL     1      73.399  88.803  72.109  1.00  0.00     0.001 C 
BRANCH  18  19
ATOM     19  C   UNL     1      74.046  88.251  70.813  1.00  0.00     0.004 C 
BRANCH  19  20
ATOM     20  C   UNL     1      75.360  89.007  70.469  1.00  0.00     0.027 C 
BRANCH  20  21
ATOM     21  C   UNL     1      76.428  88.139  70.004  1.00  0.00    -0.031 C 
ATOM     22  C   UNL     1      76.336  86.798  70.050  1.00  0.00    -0.028 C 
BRANCH  22  23
ATOM     23  C   UNL     1      77.390  85.898  69.586  1.00  0.00     0.005 C 
ATOM     24  C   UNL     1      76.816  84.476  69.349  1.00  0.00     0.012 C 
ATOM     25  C   UNL     1      78.070  86.478  68.316  1.00  0.00     0.012 C 
ENDBRANCH  22  23
ENDBRANCH  20  21
ENDBRANCH  19  20
ENDBRANCH  18  19
ENDBRANCH   1  18
TORSDOF 11
ENDMDL
