MODEL 1
REMARK VINA RESULT:    -6.359      0.000      0.000
REMARK INTER + INTRA:         -11.006
REMARK INTER:                 -10.262
REMARK INTRA:                  -0.744
REMARK UNBOUND:                -0.744
REMARK SMILES COc1cc(CNC(=O)CCCCCCC(C)C)ccc1O
REMARK SMILES IDX 11 1 10 2 8 3 7 4 9 6 6 7 5 8 3 9 21 10 4 11 20 12 19 13
REMARK SMILES IDX 2 14 1 15 22 16 12 18 13 19 14 20 15 21 16 22 17 23 18 24
REMARK H PARENT 7 5 22 17
REMARK Flexibility Score: inf
ROOT
ATOM      1  C   UNL     1      91.665  95.647  76.343  1.00  0.00     0.010 C 
ENDROOT
BRANCH   1   2
ATOM      2  C   UNL     1      92.581  95.590  77.596  1.00  0.00     0.100 C 
BRANCH   2   3
ATOM      3  C   UNL     1      93.955  95.128  77.296  1.00  0.00     0.220 C 
ATOM      4  N   UNL     1      94.977  95.398  78.158  1.00  0.00    -0.352 N 
ATOM      5  H   UNL     1      94.718  95.958  78.957  1.00  0.00     0.163 HD
ATOM      6  O   UNL     1      94.151  94.464  76.248  1.00  0.00    -0.275 OA
BRANCH   4   7
ATOM      7  C   UNL     1      96.329  94.955  78.002  1.00  0.00     0.151 C 
BRANCH   7   8
ATOM      8  C   UNL     1      96.979  94.587  79.290  1.00  0.00    -0.025 A 
ATOM      9  C   UNL     1      98.853  94.804  80.868  1.00  0.00     0.160 A 
ATOM     10  C   UNL     1      98.203  93.926  81.763  1.00  0.00     0.157 A 
ATOM     11  C   UNL     1      98.246  95.112  79.632  1.00  0.00     0.056 A 
ATOM     12  C   UNL     1      96.960  93.366  81.416  1.00  0.00     0.050 A 
ATOM     13  C   UNL     1      96.346  93.702  80.194  1.00  0.00     0.009 A 
BRANCH   9  14
ATOM     14  O   UNL     1     100.080  95.323  81.178  1.00  0.00    -0.493 OA
ATOM     15  C   UNL     1     100.035  96.686  81.636  1.00  0.00     0.278 C 
ENDBRANCH   9  14
BRANCH  10  16
ATOM     16  O   UNL     1      98.766  93.610  82.959  1.00  0.00    -0.504 OA
ATOM     17  H   UNL     1      99.713  93.762  82.917  1.00  0.00     0.293 HD
ENDBRANCH  10  16
ENDBRANCH   7   8
ENDBRANCH   4   7
ENDBRANCH   2   3
ENDBRANCH   1   2
BRANCH   1  18
ATOM     18  C   UNL     1      90.410  94.739  76.493  1.00  0.00     0.001 C 
BRANCH  18  19
ATOM     19  C   UNL     1      90.650  93.479  77.371  1.00  0.00     0.000 C 
BRANCH  19  20
ATOM     20  C   UNL     1      91.329  92.338  76.563  1.00  0.00     0.000 C 
BRANCH  20  21
ATOM     21  C   UNL     1      90.344  91.262  76.029  1.00  0.00     0.003 C 
BRANCH  21  22
ATOM     22  C   UNL     1      90.650  90.761  74.579  1.00  0.00    -0.017 C 
ATOM     23  C   UNL     1      89.502  91.164  73.611  1.00  0.00     0.007 C 
ATOM     24  C   UNL     1      90.925  89.231  74.491  1.00  0.00     0.007 C 
ENDBRANCH  21  22
ENDBRANCH  20  21
ENDBRANCH  19  20
ENDBRANCH  18  19
ENDBRANCH   1  18
TORSDOF 11
ENDMDL
MODEL 2
REMARK VINA RESULT:    -6.169     21.955     25.813
REMARK INTER + INTRA:         -10.700
REMARK INTER:                  -9.617
REMARK INTRA:                  -1.083
REMARK UNBOUND:                -0.744
REMARK SMILES COc1cc(CNC(=O)CCCCCCC(C)C)ccc1O
REMARK SMILES IDX 11 1 10 2 8 3 7 4 9 6 6 7 5 8 3 9 21 10 4 11 20 12 19 13
REMARK SMILES IDX 2 14 1 15 22 16 12 18 13 19 14 20 15 21 16 22 17 23 18 24
REMARK H PARENT 7 5 22 17
REMARK Flexibility Score: inf
ROOT
ATOM      1  C   UNL     1      76.721  86.908  68.159  1.00  0.00     0.010 C 
ENDROOT
BRANCH   1   2
ATOM      2  C   UNL     1      77.434  85.531  68.070  1.00  0.00     0.100 C 
BRANCH   2   3
ATOM      3  C   UNL     1      77.129  84.794  66.822  1.00  0.00     0.220 C 
ATOM      4  N   UNL     1      76.018  85.103  66.094  1.00  0.00    -0.352 N 
ATOM      5  H   UNL     1      75.433  85.818  66.501  1.00  0.00     0.163 HD
ATOM      6  O   UNL     1      77.926  83.902  66.440  1.00  0.00    -0.275 OA
BRANCH   4   7
ATOM      7  C   UNL     1      75.654  84.501  64.847  1.00  0.00     0.151 C 
BRANCH   7   8
ATOM      8  C   UNL     1      74.575  83.484  64.979  1.00  0.00    -0.025 A 
ATOM      9  C   UNL     1      72.194  82.927  65.241  1.00  0.00     0.160 A 
ATOM     10  C   UNL     1      72.507  81.552  65.188  1.00  0.00     0.157 A 
ATOM     11  C   UNL     1      73.230  83.881  65.155  1.00  0.00     0.056 A 
ATOM     12  C   UNL     1      73.847  81.144  65.052  1.00  0.00     0.050 A 
ATOM     13  C   UNL     1      74.873  82.102  64.938  1.00  0.00     0.009 A 
BRANCH   9  14
ATOM     14  O   UNL     1      70.899  83.334  65.413  1.00  0.00    -0.493 OA
ATOM     15  C   UNL     1      70.739  84.354  66.416  1.00  0.00     0.278 C 
ENDBRANCH   9  14
BRANCH  10  16
ATOM     16  O   UNL     1      71.530  80.611  65.269  1.00  0.00    -0.504 OA
ATOM     17  H   UNL     1      70.693  80.995  64.997  1.00  0.00     0.293 HD
ENDBRANCH  10  16
ENDBRANCH   7   8
ENDBRANCH   4   7
ENDBRANCH   2   3
ENDBRANCH   1   2
BRANCH   1  18
ATOM     18  C   UNL     1      77.528  88.033  67.451  1.00  0.00     0.001 C 
BRANCH  18  19
ATOM     19  C   UNL     1      76.778  88.683  66.253  1.00  0.00     0.000 C 
BRANCH  19  20
ATOM     20  C   UNL     1      75.320  89.067  66.631  1.00  0.00     0.000 C 
BRANCH  20  21
ATOM     21  C   UNL     1      75.203  90.356  67.490  1.00  0.00     0.003 C 
BRANCH  21  22
ATOM     22  C   UNL     1      75.095  90.105  69.030  1.00  0.00    -0.017 C 
ATOM     23  C   UNL     1      73.774  89.359  69.367  1.00  0.00     0.007 C 
ATOM     24  C   UNL     1      75.224  91.400  69.885  1.00  0.00     0.007 C 
ENDBRANCH  21  22
ENDBRANCH  20  21
ENDBRANCH  19  20
ENDBRANCH  18  19
ENDBRANCH   1  18
TORSDOF 11
ENDMDL
MODEL 3
REMARK VINA RESULT:    -6.029     10.052     14.278
REMARK INTER + INTRA:         -10.474
REMARK INTER:                  -9.667
REMARK INTRA:                  -0.807
REMARK UNBOUND:                -0.744
REMARK SMILES COc1cc(CNC(=O)CCCCCCC(C)C)ccc1O
REMARK SMILES IDX 11 1 10 2 8 3 7 4 9 6 6 7 5 8 3 9 21 10 4 11 20 12 19 13
REMARK SMILES IDX 2 14 1 15 22 16 12 18 13 19 14 20 15 21 16 22 17 23 18 24
REMARK H PARENT 7 5 22 17
REMARK Flexibility Score: inf
ROOT
ATOM      1  C   UNL     1      90.236  99.221  70.841  1.00  0.00     0.010 C 
ENDROOT
BRANCH   1   2
ATOM      2  C   UNL     1      89.849  97.931  70.067  1.00  0.00     0.100 C 
BRANCH   2   3
ATOM      3  C   UNL     1      89.571  98.169  68.633  1.00  0.00     0.220 C 
ATOM      4  N   UNL     1      88.490  98.912  68.255  1.00  0.00    -0.352 N 
ATOM      5  H   UNL     1      87.907  99.225  69.017  1.00  0.00     0.163 HD
ATOM      6  O   UNL     1      90.361  97.697  67.780  1.00  0.00    -0.275 OA
BRANCH   4   7
ATOM      7  C   UNL     1      88.156  99.256  66.906  1.00  0.00     0.151 C 
BRANCH   7   8
ATOM      8  C   UNL     1      88.205 100.721  66.645  1.00  0.00    -0.025 A 
ATOM      9  C   UNL     1      89.505 102.787  66.342  1.00  0.00     0.160 A 
ATOM     10  C   UNL     1      88.312 103.505  66.104  1.00  0.00     0.157 A 
ATOM     11  C   UNL     1      89.441 101.407  66.629  1.00  0.00     0.056 A 
ATOM     12  C   UNL     1      87.073 102.841  66.157  1.00  0.00     0.050 A 
ATOM     13  C   UNL     1      87.019 101.457  66.414  1.00  0.00     0.009 A 
BRANCH   9  14
ATOM     14  O   UNL     1      90.712 103.431  66.333  1.00  0.00    -0.493 OA
ATOM     15  C   UNL     1      91.254 103.666  67.645  1.00  0.00     0.278 C 
ENDBRANCH   9  14
BRANCH  10  16
ATOM     16  O   UNL     1      88.343 104.835  65.827  1.00  0.00    -0.504 OA
ATOM     17  H   UNL     1      88.786 105.300  66.542  1.00  0.00     0.293 HD
ENDBRANCH  10  16
ENDBRANCH   7   8
ENDBRANCH   4   7
ENDBRANCH   2   3
ENDBRANCH   1   2
BRANCH   1  18
ATOM     18  C   UNL     1      91.691  99.676  70.533  1.00  0.00     0.001 C 
BRANCH  18  19
ATOM     19  C   UNL     1      92.478 100.149  71.788  1.00  0.00     0.000 C 
BRANCH  19  20
ATOM     20  C   UNL     1      93.508  99.081  72.252  1.00  0.00     0.000 C 
BRANCH  20  21
ATOM     21  C   UNL     1      93.361  98.658  73.740  1.00  0.00     0.003 C 
BRANCH  21  22
ATOM     22  C   UNL     1      94.432  97.631  74.233  1.00  0.00    -0.017 C 
ATOM     23  C   UNL     1      95.342  97.186  73.054  1.00  0.00     0.007 C 
ATOM     24  C   UNL     1      93.824  96.390  74.951  1.00  0.00     0.007 C 
ENDBRANCH  21  22
ENDBRANCH  20  21
ENDBRANCH  19  20
ENDBRANCH  18  19
ENDBRANCH   1  18
TORSDOF 11
ENDMDL
MODEL 4
REMARK VINA RESULT:    -5.904      3.082      4.609
REMARK INTER + INTRA:         -10.272
REMARK INTER:                  -9.226
REMARK INTRA:                  -1.045
REMARK UNBOUND:                -0.744
REMARK SMILES COc1cc(CNC(=O)CCCCCCC(C)C)ccc1O
REMARK SMILES IDX 11 1 10 2 8 3 7 4 9 6 6 7 5 8 3 9 21 10 4 11 20 12 19 13
REMARK SMILES IDX 2 14 1 15 22 16 12 18 13 19 14 20 15 21 16 22 17 23 18 24
REMARK H PARENT 7 5 22 17
REMARK Flexibility Score: inf
ROOT
ATOM      1  C   UNL     1      93.993  94.147  78.551  1.00  0.00     0.010 C 
ENDROOT
BRANCH   1   2
ATOM      2  C   UNL     1      94.854  92.898  78.887  1.00  0.00     0.100 C 
BRANCH   2   3
ATOM      3  C   UNL     1      95.689  93.071  80.096  1.00  0.00     0.220 C 
ATOM      4  N   UNL     1      96.818  93.835  80.050  1.00  0.00    -0.352 N 
ATOM      5  H   UNL     1      97.035  94.212  79.139  1.00  0.00     0.163 HD
ATOM      6  O   UNL     1      95.323  92.521  81.164  1.00  0.00    -0.275 OA
BRANCH   4   7
ATOM      7  C   UNL     1      97.669  94.120  81.166  1.00  0.00     0.151 C 
BRANCH   7   8
ATOM      8  C   UNL     1      97.472  95.488  81.720  1.00  0.00    -0.025 A 
ATOM      9  C   UNL     1      98.229  97.331  83.161  1.00  0.00     0.160 A 
ATOM     10  C   UNL     1      97.127  98.111  82.746  1.00  0.00     0.157 A 
ATOM     11  C   UNL     1      98.382  96.021  82.660  1.00  0.00     0.056 A 
ATOM     12  C   UNL     1      96.193  97.577  81.840  1.00  0.00     0.050 A 
ATOM     13  C   UNL     1      96.368  96.279  81.321  1.00  0.00     0.009 A 
BRANCH   9  14
ATOM     14  O   UNL     1      99.121  97.827  84.072  1.00  0.00    -0.493 OA
ATOM     15  C   UNL     1      98.889  97.373  85.418  1.00  0.00     0.278 C 
ENDBRANCH   9  14
BRANCH  10  16
ATOM     16  O   UNL     1      96.954  99.376  83.213  1.00  0.00    -0.504 OA
ATOM     17  H   UNL     1      97.804  99.741  83.468  1.00  0.00     0.293 HD
ENDBRANCH  10  16
ENDBRANCH   7   8
ENDBRANCH   4   7
ENDBRANCH   2   3
ENDBRANCH   1   2
BRANCH   1  18
ATOM     18  C   UNL     1      92.606  93.762  77.962  1.00  0.00     0.001 C 
BRANCH  18  19
ATOM     19  C   UNL     1      91.914  94.917  77.184  1.00  0.00     0.000 C 
BRANCH  19  20
ATOM     20  C   UNL     1      92.358  94.950  75.695  1.00  0.00     0.000 C 
BRANCH  20  21
ATOM     21  C   UNL     1      93.340  96.104  75.348  1.00  0.00     0.003 C 
BRANCH  21  22
ATOM     22  C   UNL     1      94.807  95.645  75.062  1.00  0.00    -0.017 C 
ATOM     23  C   UNL     1      95.784  96.276  76.093  1.00  0.00     0.007 C 
ATOM     24  C   UNL     1      95.282  95.940  73.609  1.00  0.00     0.007 C 
ENDBRANCH  21  22
ENDBRANCH  20  21
ENDBRANCH  19  20
ENDBRANCH  18  19
ENDBRANCH   1  18
TORSDOF 11
ENDMDL
MODEL 5
REMARK VINA RESULT:    -5.811      3.262      7.453
REMARK INTER + INTRA:         -10.122
REMARK INTER:                  -8.682
REMARK INTRA:                  -1.440
REMARK UNBOUND:                -0.744
REMARK SMILES COc1cc(CNC(=O)CCCCCCC(C)C)ccc1O
REMARK SMILES IDX 11 1 10 2 8 3 7 4 9 6 6 7 5 8 3 9 21 10 4 11 20 12 19 13
REMARK SMILES IDX 2 14 1 15 22 16 12 18 13 19 14 20 15 21 16 22 17 23 18 24
REMARK H PARENT 7 5 22 17
REMARK Flexibility Score: inf
ROOT
ATOM      1  C   UNL     1      97.255  97.730  76.680  1.00  0.00     0.010 C 
ENDROOT
BRANCH   1   2
ATOM      2  C   UNL     1      97.264  97.174  75.229  1.00  0.00     0.100 C 
BRANCH   2   3
ATOM      3  C   UNL     1      95.914  96.850  74.718  1.00  0.00     0.220 C 
ATOM      4  N   UNL     1      95.359  95.627  74.962  1.00  0.00    -0.352 N 
ATOM      5  H   UNL     1      95.957  94.986  75.462  1.00  0.00     0.163 HD
ATOM      6  O   UNL     1      95.285  97.730  74.080  1.00  0.00    -0.275 OA
BRANCH   4   7
ATOM      7  C   UNL     1      94.043  95.224  74.569  1.00  0.00     0.151 C 
BRANCH   7   8
ATOM      8  C   UNL     1      93.295  94.529  75.653  1.00  0.00    -0.025 A 
ATOM      9  C   UNL     1      91.865  92.674  76.402  1.00  0.00     0.160 A 
ATOM     10  C   UNL     1      91.902  93.175  77.721  1.00  0.00     0.157 A 
ATOM     11  C   UNL     1      92.545  93.363  75.376  1.00  0.00     0.056 A 
ATOM     12  C   UNL     1      92.612  94.356  78.002  1.00  0.00     0.050 A 
ATOM     13  C   UNL     1      93.313  95.024  76.978  1.00  0.00     0.009 A 
BRANCH   9  14
ATOM     14  O   UNL     1      91.145  91.547  76.111  1.00  0.00    -0.493 OA
ATOM     15  C   UNL     1      91.054  91.265  74.702  1.00  0.00     0.278 C 
ENDBRANCH   9  14
BRANCH  10  16
ATOM     16  O   UNL     1      91.255  92.532  78.729  1.00  0.00    -0.504 OA
ATOM     17  H   UNL     1      91.177  91.600  78.514  1.00  0.00     0.293 HD
ENDBRANCH  10  16
ENDBRANCH   7   8
ENDBRANCH   4   7
ENDBRANCH   2   3
ENDBRANCH   1   2
BRANCH   1  18
ATOM     18  C   UNL     1      98.474  97.232  77.507  1.00  0.00     0.001 C 
BRANCH  18  19
ATOM     19  C   UNL     1      98.235  95.868  78.215  1.00  0.00     0.000 C 
BRANCH  19  20
ATOM     20  C   UNL     1      96.745  95.434  78.132  1.00  0.00     0.000 C 
BRANCH  20  21
ATOM     21  C   UNL     1      96.010  95.413  79.501  1.00  0.00     0.003 C 
BRANCH  21  22
ATOM     22  C   UNL     1      95.800  93.986  80.105  1.00  0.00    -0.017 C 
ATOM     23  C   UNL     1      96.865  93.696  81.200  1.00  0.00     0.007 C 
ATOM     24  C   UNL     1      95.792  92.851  79.039  1.00  0.00     0.007 C 
ENDBRANCH  21  22
ENDBRANCH  20  21
ENDBRANCH  19  20
ENDBRANCH  18  19
ENDBRANCH   1  18
TORSDOF 11
ENDMDL
MODEL 6
REMARK VINA RESULT:    -5.736     12.167     15.258
REMARK INTER + INTRA:         -10.001
REMARK INTER:                  -8.453
REMARK INTRA:                  -1.548
REMARK UNBOUND:                -0.744
REMARK SMILES COc1cc(CNC(=O)CCCCCCC(C)C)ccc1O
REMARK SMILES IDX 11 1 10 2 8 3 7 4 9 6 6 7 5 8 3 9 21 10 4 11 20 12 19 13
REMARK SMILES IDX 2 14 1 15 22 16 12 18 13 19 14 20 15 21 16 22 17 23 18 24
REMARK H PARENT 7 5 22 17
REMARK Flexibility Score: inf
ROOT
ATOM      1  C   UNL     1      96.712  81.691  77.859  1.00  0.00     0.010 C 
ENDROOT
BRANCH   1   2
ATOM      2  C   UNL     1      95.805  82.811  77.278  1.00  0.00     0.100 C 
BRANCH   2   3
ATOM      3  C   UNL     1      96.288  83.344  75.985  1.00  0.00     0.220 C 
ATOM      4  N   UNL     1      97.478  82.923  75.467  1.00  0.00    -0.352 N 
ATOM      5  H   UNL     1      97.987  82.278  76.053  1.00  0.00     0.163 HD
ATOM      6  O   UNL     1      95.570  84.168  75.368  1.00  0.00    -0.275 OA
BRANCH   4   7
ATOM      7  C   UNL     1      98.017  83.323  74.202  1.00  0.00     0.151 C 
BRANCH   7   8
ATOM      8  C   UNL     1      98.321  82.175  73.305  1.00  0.00    -0.025 A 
ATOM      9  C   UNL     1      97.648  80.053  72.258  1.00  0.00     0.160 A 
ATOM     10  C   UNL     1      98.875  80.005  71.561  1.00  0.00     0.157 A 
ATOM     11  C   UNL     1      97.388  81.126  73.137  1.00  0.00     0.056 A 
ATOM     12  C   UNL     1      99.827  81.023  71.750  1.00  0.00     0.050 A 
ATOM     13  C   UNL     1      99.550  82.106  72.607  1.00  0.00     0.009 A 
BRANCH   9  14
ATOM     14  O   UNL     1      96.731  79.048  72.112  1.00  0.00    -0.493 OA
ATOM     15  C   UNL     1      96.847  78.009  73.100  1.00  0.00     0.278 C 
ENDBRANCH   9  14
BRANCH  10  16
ATOM     16  O   UNL     1      99.152  78.983  70.709  1.00  0.00    -0.504 OA
ATOM     17  H   UNL     1      99.550  78.259  71.198  1.00  0.00     0.293 HD
ENDBRANCH  10  16
ENDBRANCH   7   8
ENDBRANCH   4   7
ENDBRANCH   2   3
ENDBRANCH   1   2
BRANCH   1  18
ATOM     18  C   UNL     1      97.188  82.012  79.304  1.00  0.00     0.001 C 
BRANCH  18  19
ATOM     19  C   UNL     1      98.321  81.076  79.813  1.00  0.00     0.000 C 
BRANCH  19  20
ATOM     20  C   UNL     1      98.605  79.924  78.809  1.00  0.00     0.000 C 
BRANCH  20  21
ATOM     21  C   UNL     1     100.040  79.938  78.212  1.00  0.00     0.003 C 
BRANCH  21  22
ATOM     22  C   UNL     1     100.135  79.435  76.735  1.00  0.00    -0.017 C 
ATOM     23  C   UNL     1     101.149  80.297  75.931  1.00  0.00     0.007 C 
ATOM     24  C   UNL     1      98.761  79.385  76.002  1.00  0.00     0.007 C 
ENDBRANCH  21  22
ENDBRANCH  20  21
ENDBRANCH  19  20
ENDBRANCH  18  19
ENDBRANCH   1  18
TORSDOF 11
ENDMDL
MODEL 7
REMARK VINA RESULT:    -5.655      5.248      7.414
REMARK INTER + INTRA:          -9.870
REMARK INTER:                  -9.292
REMARK INTRA:                  -0.578
REMARK UNBOUND:                -0.744
REMARK SMILES COc1cc(CNC(=O)CCCCCCC(C)C)ccc1O
REMARK SMILES IDX 11 1 10 2 8 3 7 4 9 6 6 7 5 8 3 9 21 10 4 11 20 12 19 13
REMARK SMILES IDX 2 14 1 15 22 16 12 18 13 19 14 20 15 21 16 22 17 23 18 24
REMARK H PARENT 7 5 22 17
REMARK Flexibility Score: inf
ROOT
ATOM      1  C   UNL     1      93.342 100.146  73.202  1.00  0.00     0.010 C 
ENDROOT
BRANCH   1   2
ATOM      2  C   UNL     1      93.637  98.624  73.112  1.00  0.00     0.100 C 
BRANCH   2   3
ATOM      3  C   UNL     1      94.624  98.159  74.112  1.00  0.00     0.220 C 
ATOM      4  N   UNL     1      94.485  96.937  74.702  1.00  0.00    -0.352 N 
ATOM      5  H   UNL     1      93.654  96.431  74.431  1.00  0.00     0.163 HD
ATOM      6  O   UNL     1      95.600  98.901  74.384  1.00  0.00    -0.275 OA
BRANCH   4   7
ATOM      7  C   UNL     1      95.404  96.361  75.636  1.00  0.00     0.151 C 
BRANCH   7   8
ATOM      8  C   UNL     1      94.763  95.396  76.571  1.00  0.00    -0.025 A 
ATOM      9  C   UNL     1      93.005  93.745  77.053  1.00  0.00     0.160 A 
ATOM     10  C   UNL     1      93.560  93.524  78.332  1.00  0.00     0.157 A 
ATOM     11  C   UNL     1      93.598  94.691  76.191  1.00  0.00     0.056 A 
ATOM     12  C   UNL     1      94.696  94.248  78.737  1.00  0.00     0.050 A 
ATOM     13  C   UNL     1      95.300  95.170  77.860  1.00  0.00     0.009 A 
BRANCH   9  14
ATOM     14  O   UNL     1      91.877  93.075  76.664  1.00  0.00    -0.493 OA
ATOM     15  C   UNL     1      90.678  93.868  76.732  1.00  0.00     0.278 C 
ENDBRANCH   9  14
BRANCH  10  16
ATOM     16  O   UNL     1      93.009  92.620  79.184  1.00  0.00    -0.504 OA
ATOM     17  H   UNL     1      92.183  92.296  78.815  1.00  0.00     0.293 HD
ENDBRANCH  10  16
ENDBRANCH   7   8
ENDBRANCH   4   7
ENDBRANCH   2   3
ENDBRANCH   1   2
BRANCH   1  18
ATOM     18  C   UNL     1      92.424 100.636  72.045  1.00  0.00     0.001 C 
BRANCH  18  19
ATOM     19  C   UNL     1      92.003  99.509  71.060  1.00  0.00     0.000 C 
BRANCH  19  20
ATOM     20  C   UNL     1      90.468  99.507  70.816  1.00  0.00     0.000 C 
BRANCH  20  21
ATOM     21  C   UNL     1      90.053  99.856  69.360  1.00  0.00     0.003 C 
BRANCH  21  22
ATOM     22  C   UNL     1      89.183  98.767  68.652  1.00  0.00    -0.017 C 
ATOM     23  C   UNL     1      90.002  97.460  68.457  1.00  0.00     0.007 C 
ATOM     24  C   UNL     1      88.574  99.236  67.298  1.00  0.00     0.007 C 
ENDBRANCH  21  22
ENDBRANCH  20  21
ENDBRANCH  19  20
ENDBRANCH  18  19
ENDBRANCH   1  18
TORSDOF 11
ENDMDL
MODEL 8
REMARK VINA RESULT:    -5.547     22.308     26.084
REMARK INTER + INTRA:          -9.697
REMARK INTER:                  -8.713
REMARK INTRA:                  -0.984
REMARK UNBOUND:                -0.744
REMARK SMILES COc1cc(CNC(=O)CCCCCCC(C)C)ccc1O
REMARK SMILES IDX 11 1 10 2 8 3 7 4 9 6 6 7 5 8 3 9 21 10 4 11 20 12 19 13
REMARK SMILES IDX 2 14 1 15 22 16 12 18 13 19 14 20 15 21 16 22 17 23 18 24
REMARK H PARENT 7 5 22 17
REMARK Flexibility Score: inf
ROOT
ATOM      1  C   UNL     1      76.880  87.424  67.826  1.00  0.00     0.010 C 
ENDROOT
BRANCH   1   2
ATOM      2  C   UNL     1      76.828  86.505  66.573  1.00  0.00     0.100 C 
BRANCH   2   3
ATOM      3  C   UNL     1      75.479  86.411  65.972  1.00  0.00     0.220 C 
ATOM      4  N   UNL     1      74.457  85.825  66.661  1.00  0.00    -0.352 N 
ATOM      5  H   UNL     1      74.719  85.442  67.557  1.00  0.00     0.163 HD
ATOM      6  O   UNL     1      75.293  86.902  64.832  1.00  0.00    -0.275 OA
BRANCH   4   7
ATOM      7  C   UNL     1      73.103  85.729  66.206  1.00  0.00     0.151 C 
BRANCH   7   8
ATOM      8  C   UNL     1      72.698  84.340  65.859  1.00  0.00    -0.025 A 
ATOM      9  C   UNL     1      73.295  82.063  65.144  1.00  0.00     0.160 A 
ATOM     10  C   UNL     1      71.940  81.677  65.237  1.00  0.00     0.157 A 
ATOM     11  C   UNL     1      73.660  83.394  65.437  1.00  0.00     0.056 A 
ATOM     12  C   UNL     1      70.967  82.619  65.618  1.00  0.00     0.050 A 
ATOM     13  C   UNL     1      71.344  83.938  65.938  1.00  0.00     0.009 A 
BRANCH   9  14
ATOM     14  O   UNL     1      74.243  81.165  64.736  1.00  0.00    -0.493 OA
ATOM     15  C   UNL     1      75.589  81.668  64.813  1.00  0.00     0.278 C 
ENDBRANCH   9  14
BRANCH  10  16
ATOM     16  O   UNL     1      71.559  80.402  64.959  1.00  0.00    -0.504 OA
ATOM     17  H   UNL     1      70.615  80.382  64.783  1.00  0.00     0.293 HD
ENDBRANCH  10  16
ENDBRANCH   7   8
ENDBRANCH   4   7
ENDBRANCH   2   3
ENDBRANCH   1   2
BRANCH   1  18
ATOM     18  C   UNL     1      77.292  88.880  67.469  1.00  0.00     0.001 C 
BRANCH  18  19
ATOM     19  C   UNL     1      76.105  89.884  67.464  1.00  0.00     0.000 C 
BRANCH  19  20
ATOM     20  C   UNL     1      75.698  90.296  68.906  1.00  0.00     0.000 C 
BRANCH  20  21
ATOM     21  C   UNL     1      74.179  90.571  69.086  1.00  0.00     0.003 C 
BRANCH  21  22
ATOM     22  C   UNL     1      73.405  89.463  69.873  1.00  0.00    -0.017 C 
ATOM     23  C   UNL     1      73.192  88.210  68.978  1.00  0.00     0.007 C 
ATOM     24  C   UNL     1      72.049  89.948  70.465  1.00  0.00     0.007 C 
ENDBRANCH  21  22
ENDBRANCH  20  21
ENDBRANCH  19  20
ENDBRANCH  18  19
ENDBRANCH   1  18
TORSDOF 11
ENDMDL
MODEL 9
REMARK VINA RESULT:    -5.429     12.465     15.393
REMARK INTER + INTRA:          -9.506
REMARK INTER:                  -7.784
REMARK INTRA:                  -1.722
REMARK UNBOUND:                -0.744
REMARK SMILES COc1cc(CNC(=O)CCCCCCC(C)C)ccc1O
REMARK SMILES IDX 11 1 10 2 8 3 7 4 9 6 6 7 5 8 3 9 21 10 4 11 20 12 19 13
REMARK SMILES IDX 2 14 1 15 22 16 12 18 13 19 14 20 15 21 16 22 17 23 18 24
REMARK H PARENT 7 5 22 17
REMARK Flexibility Score: inf
ROOT
ATOM      1  C   UNL     1     102.121  78.637  75.832  1.00  0.00     0.010 C 
ENDROOT
BRANCH   1   2
ATOM      2  C   UNL     1     101.080  77.910  74.937  1.00  0.00     0.100 C 
BRANCH   2   3
ATOM      3  C   UNL     1      99.679  78.178  75.333  1.00  0.00     0.220 C 
ATOM      4  N   UNL     1      98.779  78.635  74.414  1.00  0.00    -0.352 N 
ATOM      5  H   UNL     1      99.163  78.805  73.497  1.00  0.00     0.163 HD
ATOM      6  O   UNL     1      99.335  77.954  76.519  1.00  0.00    -0.275 OA
BRANCH   4   7
ATOM      7  C   UNL     1      97.390  78.874  74.667  1.00  0.00     0.151 C 
BRANCH   7   8
ATOM      8  C   UNL     1      97.075  80.309  74.902  1.00  0.00    -0.025 A 
ATOM      9  C   UNL     1      96.505  82.140  76.442  1.00  0.00     0.160 A 
ATOM     10  C   UNL     1      96.515  83.053  75.364  1.00  0.00     0.157 A 
ATOM     11  C   UNL     1      96.766  80.775  76.200  1.00  0.00     0.056 A 
ATOM     12  C   UNL     1      96.783  82.595  74.061  1.00  0.00     0.050 A 
ATOM     13  C   UNL     1      97.071  81.235  73.832  1.00  0.00     0.009 A 
BRANCH   9  14
ATOM     14  O   UNL     1      96.208  82.569  77.707  1.00  0.00    -0.493 OA
ATOM     15  C   UNL     1      97.070  82.023  78.722  1.00  0.00     0.278 C 
ENDBRANCH   9  14
BRANCH  10  16
ATOM     16  O   UNL     1      96.266  84.373  75.567  1.00  0.00    -0.504 OA
ATOM     17  H   UNL     1      96.426  84.857  74.754  1.00  0.00     0.293 HD
ENDBRANCH  10  16
ENDBRANCH   7   8
ENDBRANCH   4   7
ENDBRANCH   2   3
ENDBRANCH   1   2
BRANCH   1  18
ATOM     18  C   UNL     1     101.856  80.167  75.916  1.00  0.00     0.001 C 
BRANCH  18  19
ATOM     19  C   UNL     1     102.087  80.917  74.573  1.00  0.00     0.000 C 
BRANCH  19  20
ATOM     20  C   UNL     1     100.762  81.504  74.010  1.00  0.00     0.000 C 
BRANCH  20  21
ATOM     21  C   UNL     1     100.459  82.955  74.477  1.00  0.00     0.003 C 
BRANCH  21  22
ATOM     22  C   UNL     1     100.687  84.050  73.384  1.00  0.00    -0.017 C 
ATOM     23  C   UNL     1      99.914  83.691  72.084  1.00  0.00     0.007 C 
ATOM     24  C   UNL     1     102.189  84.316  73.069  1.00  0.00     0.007 C 
ENDBRANCH  21  22
ENDBRANCH  20  21
ENDBRANCH  19  20
ENDBRANCH  18  19
ENDBRANCH   1  18
TORSDOF 11
ENDMDL
MODEL 10
REMARK VINA RESULT:    -5.415      4.360      6.103
REMARK INTER + INTRA:          -9.483
REMARK INTER:                  -8.656
REMARK INTRA:                  -0.827
REMARK UNBOUND:                -0.744
REMARK SMILES COc1cc(CNC(=O)CCCCCCC(C)C)ccc1O
REMARK SMILES IDX 11 1 10 2 8 3 7 4 9 6 6 7 5 8 3 9 21 10 4 11 20 12 19 13
REMARK SMILES IDX 2 14 1 15 22 16 12 18 13 19 14 20 15 21 16 22 17 23 18 24
REMARK H PARENT 7 5 22 17
REMARK Flexibility Score: inf
ROOT
ATOM      1  C   UNL     1      97.217  94.469  79.204  1.00  0.00     0.010 C 
ENDROOT
BRANCH   1   2
ATOM      2  C   UNL     1      97.494  94.361  80.729  1.00  0.00     0.100 C 
BRANCH   2   3
ATOM      3  C   UNL     1      96.787  95.388  81.527  1.00  0.00     0.220 C 
ATOM      4  N   UNL     1      97.480  96.415  82.098  1.00  0.00    -0.352 N 
ATOM      5  H   UNL     1      98.480  96.375  81.963  1.00  0.00     0.163 HD
ATOM      6  O   UNL     1      95.540  95.305  81.644  1.00  0.00    -0.275 OA
BRANCH   4   7
ATOM      7  C   UNL     1      96.899  97.493  82.839  1.00  0.00     0.151 C 
BRANCH   7   8
ATOM      8  C   UNL     1      96.686  98.719  82.021  1.00  0.00    -0.025 A 
ATOM      9  C   UNL     1      95.570 100.884  81.681  1.00  0.00     0.160 A 
ATOM     10  C   UNL     1      96.307 101.079  80.492  1.00  0.00     0.157 A 
ATOM     11  C   UNL     1      95.751  99.699  82.425  1.00  0.00     0.056 A 
ATOM     12  C   UNL     1      97.212 100.093  80.060  1.00  0.00     0.050 A 
ATOM     13  C   UNL     1      97.409  98.926  80.823  1.00  0.00     0.009 A 
BRANCH   9  14
ATOM     14  O   UNL     1      94.658 101.819  82.089  1.00  0.00    -0.493 OA
ATOM     15  C   UNL     1      94.542 101.929  83.519  1.00  0.00     0.278 C 
ENDBRANCH   9  14
BRANCH  10  16
ATOM     16  O   UNL     1      96.152 102.210  79.754  1.00  0.00    -0.504 OA
ATOM     17  H   UNL     1      95.472 102.069  79.092  1.00  0.00     0.293 HD
ENDBRANCH  10  16
ENDBRANCH   7   8
ENDBRANCH   4   7
ENDBRANCH   2   3
ENDBRANCH   1   2
BRANCH   1  18
ATOM     18  C   UNL     1      96.239  93.368  78.706  1.00  0.00     0.001 C 
BRANCH  18  19
ATOM     19  C   UNL     1      95.170  93.886  77.703  1.00  0.00     0.000 C 
BRANCH  19  20
ATOM     20  C   UNL     1      93.874  94.340  78.433  1.00  0.00     0.000 C 
BRANCH  20  21
ATOM     21  C   UNL     1      92.675  93.365  78.267  1.00  0.00     0.003 C 
BRANCH  21  22
ATOM     22  C   UNL     1      91.428  93.983  77.554  1.00  0.00    -0.017 C 
ATOM     23  C   UNL     1      90.849  92.987  76.510  1.00  0.00     0.007 C 
ATOM     24  C   UNL     1      91.707  95.365  76.893  1.00  0.00     0.007 C 
ENDBRANCH  21  22
ENDBRANCH  20  21
ENDBRANCH  19  20
ENDBRANCH  18  19
ENDBRANCH   1  18
TORSDOF 11
ENDMDL
