MODEL 1
REMARK VINA RESULT:    -5.296      0.000      0.000
REMARK INTER + INTRA:         -10.255
REMARK INTER:                  -8.546
REMARK INTRA:                  -1.709
REMARK UNBOUND:                -1.709
REMARK SMILES COc1cc(CNC(=O)CCCCC/C=C/C(C)C)ccc1O
REMARK SMILES IDX 11 1 10 2 8 3 7 4 9 6 6 7 5 8 3 9 22 10 4 11 21 12 20 13
REMARK SMILES IDX 2 14 1 15 23 16 12 18 13 19 14 20 15 21 16 22 17 23 18 24
REMARK SMILES IDX 19 25
REMARK H PARENT 7 5 23 17
REMARK Flexibility Score: inf
ROOT
ATOM      1  C   UNL     1      99.474  83.513  74.941  1.00  0.00     0.010 C 
ENDROOT
BRANCH   1   2
ATOM      2  C   UNL     1      98.277  84.465  74.681  1.00  0.00     0.100 C 
BRANCH   2   3
ATOM      3  C   UNL     1      97.239  84.423  75.728  1.00  0.00     0.220 C 
ATOM      4  N   UNL     1      97.441  83.684  76.854  1.00  0.00    -0.352 N 
ATOM      5  H   UNL     1      98.292  83.139  76.853  1.00  0.00     0.163 HD
ATOM      6  O   UNL     1      96.204  85.112  75.568  1.00  0.00    -0.275 OA
BRANCH   4   7
ATOM      7  C   UNL     1      96.567  83.633  77.980  1.00  0.00     0.151 C 
BRANCH   7   8
ATOM      8  C   UNL     1      97.149  82.881  79.122  1.00  0.00    -0.025 A 
ATOM      9  C   UNL     1      97.486  82.594  81.541  1.00  0.00     0.160 A 
ATOM     10  C   UNL     1      98.306  81.472  81.293  1.00  0.00     0.157 A 
ATOM     11  C   UNL     1      96.922  83.294  80.456  1.00  0.00     0.056 A 
ATOM     12  C   UNL     1      98.524  81.041  79.972  1.00  0.00     0.050 A 
ATOM     13  C   UNL     1      97.941  81.734  78.894  1.00  0.00     0.009 A 
BRANCH   9  14
ATOM     14  O   UNL     1      97.196  82.969  82.826  1.00  0.00    -0.493 OA
ATOM     15  C   UNL     1      96.014  83.777  82.950  1.00  0.00     0.278 C 
ENDBRANCH   9  14
BRANCH  10  16
ATOM     16  O   UNL     1      98.891  80.787  82.308  1.00  0.00    -0.504 OA
ATOM     17  H   UNL     1      99.843  80.904  82.265  1.00  0.00     0.293 HD
ENDBRANCH  10  16
ENDBRANCH   7   8
ENDBRANCH   4   7
ENDBRANCH   2   3
ENDBRANCH   1   2
BRANCH   1  18
ATOM     18  C   UNL     1      99.517  82.371  73.894  1.00  0.00     0.001 C 
BRANCH  18  19
ATOM     19  C   UNL     1     100.158  81.063  74.424  1.00  0.00     0.004 C 
BRANCH  19  20
ATOM     20  C   UNL     1      99.819  80.833  75.923  1.00  0.00     0.027 C 
BRANCH  20  21
ATOM     21  C   UNL     1     100.982  80.563  76.751  1.00  0.00    -0.031 C 
ATOM     22  C   UNL     1     101.542  81.504  77.532  1.00  0.00    -0.028 C 
BRANCH  22  23
ATOM     23  C   UNL     1     102.707  81.264  78.379  1.00  0.00     0.005 C 
ATOM     24  C   UNL     1     102.260  80.799  79.791  1.00  0.00     0.012 C 
ATOM     25  C   UNL     1     103.665  80.248  77.700  1.00  0.00     0.012 C 
ENDBRANCH  22  23
ENDBRANCH  20  21
ENDBRANCH  19  20
ENDBRANCH  18  19
ENDBRANCH   1  18
TORSDOF 11
ENDMDL
MODEL 2
REMARK VINA RESULT:    -5.207     24.261     26.007
REMARK INTER + INTRA:         -10.112
REMARK INTER:                  -9.294
REMARK INTRA:                  -0.817
REMARK UNBOUND:                -1.709
REMARK SMILES COc1cc(CNC(=O)CCCCC/C=C/C(C)C)ccc1O
REMARK SMILES IDX 11 1 10 2 8 3 7 4 9 6 6 7 5 8 3 9 22 10 4 11 21 12 20 13
REMARK SMILES IDX 2 14 1 15 23 16 12 18 13 19 14 20 15 21 16 22 17 23 18 24
REMARK SMILES IDX 19 25
REMARK H PARENT 7 5 23 17
REMARK Flexibility Score: inf
ROOT
ATOM      1  C   UNL     1      74.384  91.157  70.244  1.00  0.00     0.010 C 
ENDROOT
BRANCH   1   2
ATOM      2  C   UNL     1      73.433  90.837  71.425  1.00  0.00     0.100 C 
BRANCH   2   3
ATOM      3  C   UNL     1      73.469  91.834  72.512  1.00  0.00     0.220 C 
ATOM      4  N   UNL     1      74.060  93.043  72.303  1.00  0.00    -0.352 N 
ATOM      5  H   UNL     1      74.511  93.142  71.404  1.00  0.00     0.163 HD
ATOM      6  O   UNL     1      72.912  91.551  73.599  1.00  0.00    -0.275 OA
BRANCH   4   7
ATOM      7  C   UNL     1      74.080  94.127  73.230  1.00  0.00     0.151 C 
BRANCH   7   8
ATOM      8  C   UNL     1      75.322  94.160  74.045  1.00  0.00    -0.025 A 
ATOM      9  C   UNL     1      76.452  94.494  76.204  1.00  0.00     0.160 A 
ATOM     10  C   UNL     1      77.701  94.274  75.583  1.00  0.00     0.157 A 
ATOM     11  C   UNL     1      75.275  94.444  75.430  1.00  0.00     0.056 A 
ATOM     12  C   UNL     1      77.759  93.974  74.210  1.00  0.00     0.050 A 
ATOM     13  C   UNL     1      76.577  93.907  73.448  1.00  0.00     0.009 A 
BRANCH   9  14
ATOM     14  O   UNL     1      76.378  94.700  77.556  1.00  0.00    -0.493 OA
ATOM     15  C   UNL     1      75.780  95.954  77.927  1.00  0.00     0.278 C 
ENDBRANCH   9  14
BRANCH  10  16
ATOM     16  O   UNL     1      78.859  94.341  76.286  1.00  0.00    -0.504 OA
ATOM     17  H   UNL     1      78.730  94.889  77.064  1.00  0.00     0.293 HD
ENDBRANCH  10  16
ENDBRANCH   7   8
ENDBRANCH   4   7
ENDBRANCH   2   3
ENDBRANCH   1   2
BRANCH   1  18
ATOM     18  C   UNL     1      75.089  89.875  69.730  1.00  0.00     0.001 C 
BRANCH  18  19
ATOM     19  C   UNL     1      74.115  88.707  69.431  1.00  0.00     0.004 C 
BRANCH  19  20
ATOM     20  C   UNL     1      74.423  88.051  68.056  1.00  0.00     0.027 C 
BRANCH  20  21
ATOM     21  C   UNL     1      75.446  87.021  68.115  1.00  0.00    -0.031 C 
ATOM     22  C   UNL     1      75.602  86.224  69.187  1.00  0.00    -0.028 C 
BRANCH  22  23
ATOM     23  C   UNL     1      76.617  85.176  69.275  1.00  0.00     0.005 C 
ATOM     24  C   UNL     1      76.071  83.965  70.077  1.00  0.00     0.012 C 
ATOM     25  C   UNL     1      77.098  84.774  67.855  1.00  0.00     0.012 C 
ENDBRANCH  22  23
ENDBRANCH  20  21
ENDBRANCH  19  20
ENDBRANCH  18  19
ENDBRANCH   1  18
TORSDOF 11
ENDMDL
MODEL 3
REMARK VINA RESULT:    -5.204     24.229     26.101
REMARK INTER + INTRA:         -10.106
REMARK INTER:                  -9.325
REMARK INTRA:                  -0.781
REMARK UNBOUND:                -1.709
REMARK SMILES COc1cc(CNC(=O)CCCCC/C=C/C(C)C)ccc1O
REMARK SMILES IDX 11 1 10 2 8 3 7 4 9 6 6 7 5 8 3 9 22 10 4 11 21 12 20 13
REMARK SMILES IDX 2 14 1 15 23 16 12 18 13 19 14 20 15 21 16 22 17 23 18 24
REMARK SMILES IDX 19 25
REMARK H PARENT 7 5 23 17
REMARK Flexibility Score: inf
ROOT
ATOM      1  C   UNL     1      73.699  90.730  70.160  1.00  0.00     0.010 C 
ENDROOT
BRANCH   1   2
ATOM      2  C   UNL     1      73.092  90.477  71.564  1.00  0.00     0.100 C 
BRANCH   2   3
ATOM      3  C   UNL     1      73.206  91.625  72.484  1.00  0.00     0.220 C 
ATOM      4  N   UNL     1      73.825  92.765  72.070  1.00  0.00    -0.352 N 
ATOM      5  H   UNL     1      74.239  92.710  71.150  1.00  0.00     0.163 HD
ATOM      6  O   UNL     1      72.688  91.531  73.621  1.00  0.00    -0.275 OA
BRANCH   4   7
ATOM      7  C   UNL     1      73.918  93.976  72.819  1.00  0.00     0.151 C 
BRANCH   7   8
ATOM      8  C   UNL     1      75.147  94.040  73.653  1.00  0.00    -0.025 A 
ATOM      9  C   UNL     1      77.543  94.541  73.891  1.00  0.00     0.160 A 
ATOM     10  C   UNL     1      77.499  94.107  75.234  1.00  0.00     0.157 A 
ATOM     11  C   UNL     1      76.371  94.496  73.109  1.00  0.00     0.056 A 
ATOM     12  C   UNL     1      76.283  93.668  75.790  1.00  0.00     0.050 A 
ATOM     13  C   UNL     1      75.113  93.644  75.008  1.00  0.00     0.009 A 
BRANCH   9  14
ATOM     14  O   UNL     1      78.700  95.053  73.366  1.00  0.00    -0.493 OA
ATOM     15  C   UNL     1      78.513  96.241  72.580  1.00  0.00     0.278 C 
ENDBRANCH   9  14
BRANCH  10  16
ATOM     16  O   UNL     1      78.610  94.108  76.012  1.00  0.00    -0.504 OA
ATOM     17  H   UNL     1      78.700  94.964  76.440  1.00  0.00     0.293 HD
ENDBRANCH  10  16
ENDBRANCH   7   8
ENDBRANCH   4   7
ENDBRANCH   2   3
ENDBRANCH   1   2
BRANCH   1  18
ATOM     18  C   UNL     1      75.227  90.469  70.157  1.00  0.00     0.001 C 
BRANCH  18  19
ATOM     19  C   UNL     1      75.702  89.560  68.995  1.00  0.00     0.004 C 
BRANCH  19  20
ATOM     20  C   UNL     1      74.591  88.560  68.568  1.00  0.00     0.027 C 
BRANCH  20  21
ATOM     21  C   UNL     1      74.857  87.187  68.963  1.00  0.00    -0.031 C 
ATOM     22  C   UNL     1      75.749  86.414  68.318  1.00  0.00    -0.028 C 
BRANCH  22  23
ATOM     23  C   UNL     1      76.043  85.033  68.693  1.00  0.00     0.005 C 
ATOM     24  C   UNL     1      77.150  84.451  67.775  1.00  0.00     0.012 C 
ATOM     25  C   UNL     1      76.423  84.955  70.197  1.00  0.00     0.012 C 
ENDBRANCH  22  23
ENDBRANCH  20  21
ENDBRANCH  19  20
ENDBRANCH  18  19
ENDBRANCH   1  18
TORSDOF 11
ENDMDL
MODEL 4
REMARK VINA RESULT:    -4.963     14.465     16.917
REMARK INTER + INTRA:          -9.718
REMARK INTER:                  -8.672
REMARK INTRA:                  -1.047
REMARK UNBOUND:                -1.709
REMARK SMILES COc1cc(CNC(=O)CCCCC/C=C/C(C)C)ccc1O
REMARK SMILES IDX 11 1 10 2 8 3 7 4 9 6 6 7 5 8 3 9 22 10 4 11 21 12 20 13
REMARK SMILES IDX 2 14 1 15 23 16 12 18 13 19 14 20 15 21 16 22 17 23 18 24
REMARK SMILES IDX 19 25
REMARK H PARENT 7 5 23 17
REMARK Flexibility Score: inf
ROOT
ATOM      1  C   UNL     1      97.471  98.650  76.991  1.00  0.00     0.010 C 
ENDROOT
BRANCH   1   2
ATOM      2  C   UNL     1      96.410  99.638  76.443  1.00  0.00     0.100 C 
BRANCH   2   3
ATOM      3  C   UNL     1      95.414  99.015  75.551  1.00  0.00     0.220 C 
ATOM      4  N   UNL     1      95.361  97.660  75.435  1.00  0.00    -0.352 N 
ATOM      5  H   UNL     1      96.087  97.165  75.936  1.00  0.00     0.163 HD
ATOM      6  O   UNL     1      94.606  99.761  74.948  1.00  0.00    -0.275 OA
BRANCH   4   7
ATOM      7  C   UNL     1      94.390  96.928  74.689  1.00  0.00     0.151 C 
BRANCH   7   8
ATOM      8  C   UNL     1      93.534  96.070  75.548  1.00  0.00    -0.025 A 
ATOM      9  C   UNL     1      91.848  94.297  75.792  1.00  0.00     0.160 A 
ATOM     10  C   UNL     1      91.864  94.475  77.193  1.00  0.00     0.157 A 
ATOM     11  C   UNL     1      92.675  95.100  74.981  1.00  0.00     0.056 A 
ATOM     12  C   UNL     1      92.727  95.425  77.769  1.00  0.00     0.050 A 
ATOM     13  C   UNL     1      93.564  96.209  76.954  1.00  0.00     0.009 A 
BRANCH   9  14
ATOM     14  O   UNL     1      91.077  93.315  75.228  1.00  0.00    -0.493 OA
ATOM     15  C   UNL     1      89.878  93.799  74.599  1.00  0.00     0.278 C 
ENDBRANCH   9  14
BRANCH  10  16
ATOM     16  O   UNL     1      91.063  93.742  78.006  1.00  0.00    -0.504 OA
ATOM     17  H   UNL     1      90.172  93.728  77.648  1.00  0.00     0.293 HD
ENDBRANCH  10  16
ENDBRANCH   7   8
ENDBRANCH   4   7
ENDBRANCH   2   3
ENDBRANCH   1   2
BRANCH   1  18
ATOM     18  C   UNL     1      97.051  98.088  78.373  1.00  0.00     0.001 C 
BRANCH  18  19
ATOM     19  C   UNL     1      96.032  98.981  79.125  1.00  0.00     0.004 C 
BRANCH  19  20
ATOM     20  C   UNL     1      95.613  98.347  80.481  1.00  0.00     0.027 C 
BRANCH  20  21
ATOM     21  C   UNL     1      95.632  99.281  81.594  1.00  0.00    -0.031 C 
ATOM     22  C   UNL     1      95.777 100.606  81.418  1.00  0.00    -0.028 C 
BRANCH  22  23
ATOM     23  C   UNL     1      95.795 101.571  82.515  1.00  0.00     0.005 C 
ATOM     24  C   UNL     1      94.517 102.450  82.478  1.00  0.00     0.012 C 
ATOM     25  C   UNL     1      95.967 100.837  83.872  1.00  0.00     0.012 C 
ENDBRANCH  22  23
ENDBRANCH  20  21
ENDBRANCH  19  20
ENDBRANCH  18  19
ENDBRANCH   1  18
TORSDOF 11
ENDMDL
MODEL 5
REMARK VINA RESULT:    -4.937     14.519     15.976
REMARK INTER + INTRA:          -9.676
REMARK INTER:                  -8.665
REMARK INTRA:                  -1.011
REMARK UNBOUND:                -1.709
REMARK SMILES COc1cc(CNC(=O)CCCCC/C=C/C(C)C)ccc1O
REMARK SMILES IDX 11 1 10 2 8 3 7 4 9 6 6 7 5 8 3 9 22 10 4 11 21 12 20 13
REMARK SMILES IDX 2 14 1 15 23 16 12 18 13 19 14 20 15 21 16 22 17 23 18 24
REMARK SMILES IDX 19 25
REMARK H PARENT 7 5 23 17
REMARK Flexibility Score: inf
ROOT
ATOM      1  C   UNL     1      94.486  97.641  73.294  1.00  0.00     0.010 C 
ENDROOT
BRANCH   1   2
ATOM      2  C   UNL     1      95.883  97.490  72.639  1.00  0.00     0.100 C 
BRANCH   2   3
ATOM      3  C   UNL     1      97.001  97.906  73.506  1.00  0.00     0.220 C 
ATOM      4  N   UNL     1      96.759  98.270  74.796  1.00  0.00    -0.352 N 
ATOM      5  H   UNL     1      95.781  98.296  75.050  1.00  0.00     0.163 HD
ATOM      6  O   UNL     1      98.163  97.875  73.036  1.00  0.00    -0.275 OA
BRANCH   4   7
ATOM      7  C   UNL     1      97.753  98.599  75.765  1.00  0.00     0.151 C 
BRANCH   7   8
ATOM      8  C   UNL     1      97.284  98.388  77.159  1.00  0.00    -0.025 A 
ATOM      9  C   UNL     1      97.764  97.944  79.530  1.00  0.00     0.160 A 
ATOM     10  C   UNL     1      96.380  97.934  79.807  1.00  0.00     0.157 A 
ATOM     11  C   UNL     1      98.205  98.161  78.209  1.00  0.00     0.056 A 
ATOM     12  C   UNL     1      95.456  98.175  78.775  1.00  0.00     0.050 A 
ATOM     13  C   UNL     1      95.905  98.411  77.462  1.00  0.00     0.009 A 
BRANCH   9  14
ATOM     14  O   UNL     1      98.675  97.797  80.543  1.00  0.00    -0.493 OA
ATOM     15  C   UNL     1      99.429  96.575  80.483  1.00  0.00     0.278 C 
ENDBRANCH   9  14
BRANCH  10  16
ATOM     16  O   UNL     1      95.914  97.700  81.060  1.00  0.00    -0.504 OA
ATOM     17  H   UNL     1      95.138  97.136  81.012  1.00  0.00     0.293 HD
ENDBRANCH  10  16
ENDBRANCH   7   8
ENDBRANCH   4   7
ENDBRANCH   2   3
ENDBRANCH   1   2
BRANCH   1  18
ATOM     18  C   UNL     1      94.069  96.340  74.027  1.00  0.00     0.001 C 
BRANCH  18  19
ATOM     19  C   UNL     1      93.910  96.512  75.559  1.00  0.00     0.004 C 
BRANCH  19  20
ATOM     20  C   UNL     1      93.682  95.145  76.262  1.00  0.00     0.027 C 
BRANCH  20  21
ATOM     21  C   UNL     1      92.423  94.510  75.911  1.00  0.00    -0.031 C 
ATOM     22  C   UNL     1      91.233  95.063  76.206  1.00  0.00    -0.028 C 
BRANCH  22  23
ATOM     23  C   UNL     1      89.950  94.454  75.863  1.00  0.00     0.005 C 
ATOM     24  C   UNL     1      90.134  93.424  74.716  1.00  0.00     0.012 C 
ATOM     25  C   UNL     1      89.301  93.822  77.124  1.00  0.00     0.012 C 
ENDBRANCH  22  23
ENDBRANCH  20  21
ENDBRANCH  19  20
ENDBRANCH  18  19
ENDBRANCH   1  18
TORSDOF 11
ENDMDL
MODEL 6
REMARK VINA RESULT:    -4.893     13.186     16.340
REMARK INTER + INTRA:          -9.605
REMARK INTER:                  -9.460
REMARK INTRA:                  -0.145
REMARK UNBOUND:                -1.709
REMARK SMILES COc1cc(CNC(=O)CCCCC/C=C/C(C)C)ccc1O
REMARK SMILES IDX 11 1 10 2 8 3 7 4 9 6 6 7 5 8 3 9 22 10 4 11 21 12 20 13
REMARK SMILES IDX 2 14 1 15 23 16 12 18 13 19 14 20 15 21 16 22 17 23 18 24
REMARK SMILES IDX 19 25
REMARK H PARENT 7 5 23 17
REMARK Flexibility Score: inf
ROOT
ATOM      1  C   UNL     1      94.129  98.129  73.879  1.00  0.00     0.010 C 
ENDROOT
BRANCH   1   2
ATOM      2  C   UNL     1      94.477  96.656  74.219  1.00  0.00     0.100 C 
BRANCH   2   3
ATOM      3  C   UNL     1      93.918  96.188  75.501  1.00  0.00     0.220 C 
ATOM      4  N   UNL     1      92.570  96.181  75.691  1.00  0.00    -0.352 N 
ATOM      5  H   UNL     1      92.035  96.581  74.932  1.00  0.00     0.163 HD
ATOM      6  O   UNL     1      94.710  95.767  76.377  1.00  0.00    -0.275 OA
BRANCH   4   7
ATOM      7  C   UNL     1      91.897  95.666  76.839  1.00  0.00     0.151 C 
BRANCH   7   8
ATOM      8  C   UNL     1      91.181  94.394  76.560  1.00  0.00    -0.025 A 
ATOM      9  C   UNL     1      90.428  92.670  74.976  1.00  0.00     0.160 A 
ATOM     10  C   UNL     1      89.767  91.995  76.026  1.00  0.00     0.157 A 
ATOM     11  C   UNL     1      91.121  93.867  75.249  1.00  0.00     0.056 A 
ATOM     12  C   UNL     1      89.834  92.502  77.337  1.00  0.00     0.050 A 
ATOM     13  C   UNL     1      90.544  93.687  77.604  1.00  0.00     0.009 A 
BRANCH   9  14
ATOM     14  O   UNL     1      90.444  92.139  73.714  1.00  0.00    -0.493 OA
ATOM     15  C   UNL     1      90.806  90.749  73.665  1.00  0.00     0.278 C 
ENDBRANCH   9  14
BRANCH  10  16
ATOM     16  O   UNL     1      89.066  90.856  75.801  1.00  0.00    -0.504 OA
ATOM     17  H   UNL     1      88.350  90.791  76.438  1.00  0.00     0.293 HD
ENDBRANCH  10  16
ENDBRANCH   7   8
ENDBRANCH   4   7
ENDBRANCH   2   3
ENDBRANCH   1   2
BRANCH   1  18
ATOM     18  C   UNL     1      94.787  98.566  72.546  1.00  0.00     0.001 C 
BRANCH  18  19
ATOM     19  C   UNL     1      95.892  97.599  72.050  1.00  0.00     0.004 C 
BRANCH  19  20
ATOM     20  C   UNL     1      95.777  97.342  70.522  1.00  0.00     0.027 C 
BRANCH  20  21
ATOM     21  C   UNL     1      95.833  98.552  69.720  1.00  0.00    -0.031 C 
ATOM     22  C   UNL     1      96.489  98.607  68.547  1.00  0.00    -0.028 C 
BRANCH  22  23
ATOM     23  C   UNL     1      96.560  99.806  67.715  1.00  0.00     0.005 C 
ATOM     24  C   UNL     1      95.193 100.065  67.029  1.00  0.00     0.012 C 
ATOM     25  C   UNL     1      97.035 101.019  68.560  1.00  0.00     0.012 C 
ENDBRANCH  22  23
ENDBRANCH  20  21
ENDBRANCH  19  20
ENDBRANCH  18  19
ENDBRANCH   1  18
TORSDOF 11
ENDMDL
MODEL 7
REMARK VINA RESULT:    -4.843     13.967     15.738
REMARK INTER + INTRA:          -9.524
REMARK INTER:                  -8.468
REMARK INTRA:                  -1.056
REMARK UNBOUND:                -1.709
REMARK SMILES COc1cc(CNC(=O)CCCCC/C=C/C(C)C)ccc1O
REMARK SMILES IDX 11 1 10 2 8 3 7 4 9 6 6 7 5 8 3 9 22 10 4 11 21 12 20 13
REMARK SMILES IDX 2 14 1 15 23 16 12 18 13 19 14 20 15 21 16 22 17 23 18 24
REMARK SMILES IDX 19 25
REMARK H PARENT 7 5 23 17
REMARK Flexibility Score: inf
ROOT
ATOM      1  C   UNL     1      97.656  98.203  77.282  1.00  0.00     0.010 C 
ENDROOT
BRANCH   1   2
ATOM      2  C   UNL     1      96.871  99.366  76.621  1.00  0.00     0.100 C 
BRANCH   2   3
ATOM      3  C   UNL     1      95.761  98.927  75.756  1.00  0.00     0.220 C 
ATOM      4  N   UNL     1      95.591  97.602  75.492  1.00  0.00    -0.352 N 
ATOM      5  H   UNL     1      96.312  97.001  75.868  1.00  0.00     0.163 HD
ATOM      6  O   UNL     1      94.971  99.794  75.314  1.00  0.00    -0.275 OA
BRANCH   4   7
ATOM      7  C   UNL     1      94.509  97.035  74.755  1.00  0.00     0.151 C 
BRANCH   7   8
ATOM      8  C   UNL     1      93.642  96.163  75.590  1.00  0.00    -0.025 A 
ATOM      9  C   UNL     1      91.978  94.363  75.785  1.00  0.00     0.160 A 
ATOM     10  C   UNL     1      91.952  94.540  77.185  1.00  0.00     0.157 A 
ATOM     11  C   UNL     1      92.815  95.181  74.998  1.00  0.00     0.056 A 
ATOM     12  C   UNL     1      92.783  95.503  77.786  1.00  0.00     0.050 A 
ATOM     13  C   UNL     1      93.630  96.302  76.996  1.00  0.00     0.009 A 
BRANCH   9  14
ATOM     14  O   UNL     1      91.239  93.370  75.198  1.00  0.00    -0.493 OA
ATOM     15  C   UNL     1      89.974  93.810  74.676  1.00  0.00     0.278 C 
ENDBRANCH   9  14
BRANCH  10  16
ATOM     16  O   UNL     1      91.139  93.794  77.975  1.00  0.00    -0.504 OA
ATOM     17  H   UNL     1      91.656  93.401  78.683  1.00  0.00     0.293 HD
ENDBRANCH  10  16
ENDBRANCH   7   8
ENDBRANCH   4   7
ENDBRANCH   2   3
ENDBRANCH   1   2
BRANCH   1  18
ATOM     18  C   UNL     1      97.053  97.834  78.661  1.00  0.00     0.001 C 
BRANCH  18  19
ATOM     19  C   UNL     1      95.923  98.789  79.123  1.00  0.00     0.004 C 
BRANCH  19  20
ATOM     20  C   UNL     1      95.704  98.706  80.660  1.00  0.00     0.027 C 
BRANCH  20  21
ATOM     21  C   UNL     1      96.330  97.550  81.278  1.00  0.00    -0.031 C 
ATOM     22  C   UNL     1      97.330  97.665  82.170  1.00  0.00    -0.028 C 
BRANCH  22  23
ATOM     23  C   UNL     1      97.976  96.523  82.812  1.00  0.00     0.005 C 
ATOM     24  C   UNL     1      98.671  95.630  81.750  1.00  0.00     0.012 C 
ATOM     25  C   UNL     1      98.962  97.012  83.908  1.00  0.00     0.012 C 
ENDBRANCH  22  23
ENDBRANCH  20  21
ENDBRANCH  19  20
ENDBRANCH  18  19
ENDBRANCH   1  18
TORSDOF 11
ENDMDL
MODEL 8
REMARK VINA RESULT:    -4.592     13.675     15.375
REMARK INTER + INTRA:          -9.119
REMARK INTER:                  -8.524
REMARK INTRA:                  -0.595
REMARK UNBOUND:                -1.709
REMARK SMILES COc1cc(CNC(=O)CCCCC/C=C/C(C)C)ccc1O
REMARK SMILES IDX 11 1 10 2 8 3 7 4 9 6 6 7 5 8 3 9 22 10 4 11 21 12 20 13
REMARK SMILES IDX 2 14 1 15 23 16 12 18 13 19 14 20 15 21 16 22 17 23 18 24
REMARK SMILES IDX 19 25
REMARK H PARENT 7 5 23 17
REMARK Flexibility Score: inf
ROOT
ATOM      1  C   UNL     1      94.282  97.920  73.981  1.00  0.00     0.010 C 
ENDROOT
BRANCH   1   2
ATOM      2  C   UNL     1      94.456  96.443  74.416  1.00  0.00     0.100 C 
BRANCH   2   3
ATOM      3  C   UNL     1      93.736  96.093  75.655  1.00  0.00     0.220 C 
ATOM      4  N   UNL     1      92.376  96.165  75.692  1.00  0.00    -0.352 N 
ATOM      5  H   UNL     1      91.951  96.537  74.854  1.00  0.00     0.163 HD
ATOM      6  O   UNL     1      94.402  95.696  76.640  1.00  0.00    -0.275 OA
BRANCH   4   7
ATOM      7  C   UNL     1      91.554  95.766  76.787  1.00  0.00     0.151 C 
BRANCH   7   8
ATOM      8  C   UNL     1      91.003  94.396  76.620  1.00  0.00    -0.025 A 
ATOM      9  C   UNL     1      90.695  92.369  75.261  1.00  0.00     0.160 A 
ATOM     10  C   UNL     1      89.904  91.804  76.285  1.00  0.00     0.157 A 
ATOM     11  C   UNL     1      91.230  93.662  75.432  1.00  0.00     0.056 A 
ATOM     12  C   UNL     1      89.686  92.518  77.478  1.00  0.00     0.050 A 
ATOM     13  C   UNL     1      90.241  93.800  77.649  1.00  0.00     0.009 A 
BRANCH   9  14
ATOM     14  O   UNL     1      90.985  91.649  74.133  1.00  0.00    -0.493 OA
ATOM     15  C   UNL     1      90.013  91.782  73.083  1.00  0.00     0.278 C 
ENDBRANCH   9  14
BRANCH  10  16
ATOM     16  O   UNL     1      89.348  90.575  76.149  1.00  0.00    -0.504 OA
ATOM     17  H   UNL     1      90.028  89.903  76.246  1.00  0.00     0.293 HD
ENDBRANCH  10  16
ENDBRANCH   7   8
ENDBRANCH   4   7
ENDBRANCH   2   3
ENDBRANCH   1   2
BRANCH   1  18
ATOM     18  C   UNL     1      95.349  98.323  72.931  1.00  0.00     0.001 C 
BRANCH  18  19
ATOM     19  C   UNL     1      96.067  97.115  72.277  1.00  0.00     0.004 C 
BRANCH  19  20
ATOM     20  C   UNL     1      96.394  97.391  70.783  1.00  0.00     0.027 C 
BRANCH  20  21
ATOM     21  C   UNL     1      97.818  97.458  70.499  1.00  0.00    -0.031 C 
ATOM     22  C   UNL     1      98.343  97.004  69.347  1.00  0.00    -0.028 C 
BRANCH  22  23
ATOM     23  C   UNL     1      99.768  97.062  69.029  1.00  0.00     0.005 C 
ATOM     24  C   UNL     1     100.035  98.149  67.955  1.00  0.00     0.012 C 
ATOM     25  C   UNL     1     100.597  97.293  70.322  1.00  0.00     0.012 C 
ENDBRANCH  22  23
ENDBRANCH  20  21
ENDBRANCH  19  20
ENDBRANCH  18  19
ENDBRANCH   1  18
TORSDOF 11
ENDMDL
MODEL 9
REMARK VINA RESULT:    -4.531     12.972     17.411
REMARK INTER + INTRA:          -9.021
REMARK INTER:                  -7.461
REMARK INTRA:                  -1.560
REMARK UNBOUND:                -1.709
REMARK SMILES COc1cc(CNC(=O)CCCCC/C=C/C(C)C)ccc1O
REMARK SMILES IDX 11 1 10 2 8 3 7 4 9 6 6 7 5 8 3 9 22 10 4 11 21 12 20 13
REMARK SMILES IDX 2 14 1 15 23 16 12 18 13 19 14 20 15 21 16 22 17 23 18 24
REMARK SMILES IDX 19 25
REMARK H PARENT 7 5 23 17
REMARK Flexibility Score: inf
ROOT
ATOM      1  C   UNL     1      94.379  92.240  94.601  1.00  0.00     0.010 C 
ENDROOT
BRANCH   1   2
ATOM      2  C   UNL     1      94.306  90.796  94.042  1.00  0.00     0.100 C 
BRANCH   2   3
ATOM      3  C   UNL     1      93.277  90.605  93.003  1.00  0.00     0.220 C 
ATOM      4  N   UNL     1      93.356  91.301  91.835  1.00  0.00    -0.352 N 
ATOM      5  H   UNL     1      94.106  91.977  91.798  1.00  0.00     0.163 HD
ATOM      6  O   UNL     1      92.368  89.767  93.211  1.00  0.00    -0.275 OA
BRANCH   4   7
ATOM      7  C   UNL     1      92.487  91.143  90.715  1.00  0.00     0.151 C 
BRANCH   7   8
ATOM      8  C   UNL     1      93.167  90.525  89.547  1.00  0.00    -0.025 A 
ATOM      9  C   UNL     1      93.916  88.528  88.321  1.00  0.00     0.160 A 
ATOM     10  C   UNL     1      94.514  89.354  87.344  1.00  0.00     0.157 A 
ATOM     11  C   UNL     1      93.256  89.119  89.418  1.00  0.00     0.056 A 
ATOM     12  C   UNL     1      94.417  90.753  87.453  1.00  0.00     0.050 A 
ATOM     13  C   UNL     1      93.740  91.334  88.541  1.00  0.00     0.009 A 
BRANCH   9  14
ATOM     14  O   UNL     1      93.928  87.166  88.178  1.00  0.00    -0.493 OA
ATOM     15  C   UNL     1      93.685  86.445  89.398  1.00  0.00     0.278 C 
ENDBRANCH   9  14
BRANCH  10  16
ATOM     16  O   UNL     1      95.182  88.825  86.288  1.00  0.00    -0.504 OA
ATOM     17  H   UNL     1      95.705  89.511  85.865  1.00  0.00     0.293 HD
ENDBRANCH  10  16
ENDBRANCH   7   8
ENDBRANCH   4   7
ENDBRANCH   2   3
ENDBRANCH   1   2
BRANCH   1  18
ATOM     18  C   UNL     1      95.849  92.681  94.820  1.00  0.00     0.001 C 
BRANCH  18  19
ATOM     19  C   UNL     1      96.212  94.012  94.113  1.00  0.00     0.004 C 
BRANCH  19  20
ATOM     20  C   UNL     1      96.227  93.846  92.568  1.00  0.00     0.027 C 
BRANCH  20  21
ATOM     21  C   UNL     1      95.085  94.451  91.904  1.00  0.00    -0.031 C 
ATOM     22  C   UNL     1      94.821  94.249  90.601  1.00  0.00    -0.028 C 
BRANCH  22  23
ATOM     23  C   UNL     1      93.679  94.838  89.906  1.00  0.00     0.005 C 
ATOM     24  C   UNL     1      92.395  94.696  90.766  1.00  0.00     0.012 C 
ATOM     25  C   UNL     1      93.980  96.316  89.535  1.00  0.00     0.012 C 
ENDBRANCH  22  23
ENDBRANCH  20  21
ENDBRANCH  19  20
ENDBRANCH  18  19
ENDBRANCH   1  18
TORSDOF 11
ENDMDL
MODEL 10
REMARK VINA RESULT:    -4.389     25.389     28.404
REMARK INTER + INTRA:          -8.791
REMARK INTER:                  -7.632
REMARK INTRA:                  -1.159
REMARK UNBOUND:                -1.709
REMARK SMILES COc1cc(CNC(=O)CCCCC/C=C/C(C)C)ccc1O
REMARK SMILES IDX 11 1 10 2 8 3 7 4 9 6 6 7 5 8 3 9 22 10 4 11 21 12 20 13
REMARK SMILES IDX 2 14 1 15 23 16 12 18 13 19 14 20 15 21 16 22 17 23 18 24
REMARK SMILES IDX 19 25
REMARK H PARENT 7 5 23 17
REMARK Flexibility Score: inf
ROOT
ATOM      1  C   UNL     1      70.072  89.004  69.205  1.00  0.00     0.010 C 
ENDROOT
BRANCH   1   2
ATOM      2  C   UNL     1      70.924  89.068  70.499  1.00  0.00     0.100 C 
BRANCH   2   3
ATOM      3  C   UNL     1      72.289  89.588  70.294  1.00  0.00     0.220 C 
ATOM      4  N   UNL     1      72.951  89.317  69.136  1.00  0.00    -0.352 N 
ATOM      5  H   UNL     1      72.463  88.693  68.508  1.00  0.00     0.163 HD
ATOM      6  O   UNL     1      72.792  90.309  71.188  1.00  0.00    -0.275 OA
BRANCH   4   7
ATOM      7  C   UNL     1      74.229  89.835  68.770  1.00  0.00     0.151 C 
BRANCH   7   8
ATOM      8  C   UNL     1      75.250  88.769  68.597  1.00  0.00    -0.025 A 
ATOM      9  C   UNL     1      75.938  86.417  68.800  1.00  0.00     0.160 A 
ATOM     10  C   UNL     1      77.222  86.751  68.315  1.00  0.00     0.157 A 
ATOM     11  C   UNL     1      74.967  87.428  68.945  1.00  0.00     0.056 A 
ATOM     12  C   UNL     1      77.509  88.079  67.950  1.00  0.00     0.050 A 
ATOM     13  C   UNL     1      76.528  89.079  68.079  1.00  0.00     0.009 A 
BRANCH   9  14
ATOM     14  O   UNL     1      75.620  85.114  69.076  1.00  0.00    -0.493 OA
ATOM     15  C   UNL     1      75.896  84.715  70.429  1.00  0.00     0.278 C 
ENDBRANCH   9  14
BRANCH  10  16
ATOM     16  O   UNL     1      78.193  85.813  68.188  1.00  0.00    -0.504 OA
ATOM     17  H   UNL     1      79.052  86.243  68.175  1.00  0.00     0.293 HD
ENDBRANCH  10  16
ENDBRANCH   7   8
ENDBRANCH   4   7
ENDBRANCH   2   3
ENDBRANCH   1   2
BRANCH   1  18
ATOM     18  C   UNL     1      69.554  87.567  68.947  1.00  0.00     0.001 C 
BRANCH  18  19
ATOM     19  C   UNL     1      69.338  86.740  70.240  1.00  0.00     0.004 C 
BRANCH  19  20
ATOM     20  C   UNL     1      69.689  85.242  70.020  1.00  0.00     0.027 C 
BRANCH  20  21
ATOM     21  C   UNL     1      69.744  84.854  68.621  1.00  0.00    -0.031 C 
ATOM     22  C   UNL     1      70.803  84.215  68.093  1.00  0.00    -0.028 C 
BRANCH  22  23
ATOM     23  C   UNL     1      70.887  83.807  66.693  1.00  0.00     0.005 C 
ATOM     24  C   UNL     1      69.646  84.313  65.910  1.00  0.00     0.012 C 
ATOM     25  C   UNL     1      72.220  84.301  66.068  1.00  0.00     0.012 C 
ENDBRANCH  22  23
ENDBRANCH  20  21
ENDBRANCH  19  20
ENDBRANCH  18  19
ENDBRANCH   1  18
TORSDOF 11
ENDMDL
