MODEL 1
REMARK VINA RESULT:    -5.878      0.000      0.000
REMARK INTER + INTRA:         -10.112
REMARK INTER:                  -9.486
REMARK INTRA:                  -0.626
REMARK UNBOUND:                -0.626
REMARK SMILES CCCCCCCCC(=O)NCc1ccc(O)c(OC)c1
REMARK SMILES IDX 7 1 6 2 5 3 4 4 3 5 2 6 1 7 8 8 9 9 10 10 11 11 12 13 13 14
REMARK SMILES IDX 21 15 14 16 18 17 15 18 16 19 19 20 20 21 17 22
REMARK H PARENT 11 12 17 23
REMARK Flexibility Score: inf
ROOT
ATOM      1  C   UNL     1      92.173  77.844  84.232  1.00  0.00     0.010 C 
ENDROOT
BRANCH   1   2
ATOM      2  C   UNL     1      92.656  76.368  84.137  1.00  0.00     0.001 C 
BRANCH   2   3
ATOM      3  C   UNL     1      91.593  75.442  83.475  1.00  0.00     0.000 C 
BRANCH   3   4
ATOM      4  C   UNL     1      91.370  74.103  84.232  1.00  0.00    -0.000 C 
BRANCH   4   5
ATOM      5  C   UNL     1      90.109  74.130  85.142  1.00  0.00    -0.000 C 
BRANCH   5   6
ATOM      6  C   UNL     1      89.683  72.714  85.613  1.00  0.00    -0.003 C 
ATOM      7  C   UNL     1      90.022  72.447  87.096  1.00  0.00     0.004 C 
ENDBRANCH   5   6
ENDBRANCH   4   5
ENDBRANCH   3   4
ENDBRANCH   2   3
ENDBRANCH   1   2
BRANCH   1   8
ATOM      8  C   UNL     1      93.239  78.819  84.806  1.00  0.00     0.100 C 
BRANCH   8   9
ATOM      9  C   UNL     1      92.703  80.197  84.922  1.00  0.00     0.220 C 
ATOM     10  O   UNL     1      93.429  81.151  84.552  1.00  0.00    -0.275 OA
ATOM     11  N   UNL     1      91.440  80.412  85.395  1.00  0.00    -0.352 N 
ATOM     12  H   UNL     1      90.979  79.586  85.745  1.00  0.00     0.163 HD
BRANCH  11  13
ATOM     13  C   UNL     1      90.762  81.672  85.422  1.00  0.00     0.151 C 
BRANCH  13  14
ATOM     14  C   UNL     1      89.415  81.644  84.793  1.00  0.00    -0.025 A 
ATOM     15  C   UNL     1      88.514  82.718  84.989  1.00  0.00     0.056 A 
ATOM     16  C   UNL     1      89.009  80.550  83.995  1.00  0.00     0.009 A 
ATOM     17  C   UNL     1      87.237  82.713  84.383  1.00  0.00     0.160 A 
ATOM     18  C   UNL     1      87.740  80.539  83.389  1.00  0.00     0.050 A 
ATOM     19  C   UNL     1      86.850  81.612  83.586  1.00  0.00     0.157 A 
BRANCH  17  20
ATOM     20  O   UNL     1      86.350  83.735  84.609  1.00  0.00    -0.493 OA
ATOM     21  C   UNL     1      86.378  84.254  85.950  1.00  0.00     0.278 C 
ENDBRANCH  17  20
BRANCH  19  22
ATOM     22  O   UNL     1      85.617  81.580  83.018  1.00  0.00    -0.504 OA
ATOM     23  H   UNL     1      85.023  81.069  83.573  1.00  0.00     0.293 HD
ENDBRANCH  19  22
ENDBRANCH  13  14
ENDBRANCH  11  13
ENDBRANCH   8   9
ENDBRANCH   1   8
TORSDOF 11
ENDMDL
MODEL 2
REMARK VINA RESULT:    -5.861      7.646     10.189
REMARK INTER + INTRA:         -10.084
REMARK INTER:                  -9.439
REMARK INTRA:                  -0.645
REMARK UNBOUND:                -0.626
REMARK SMILES CCCCCCCCC(=O)NCc1ccc(O)c(OC)c1
REMARK SMILES IDX 7 1 6 2 5 3 4 4 3 5 2 6 1 7 8 8 9 9 10 10 11 11 12 13 13 14
REMARK SMILES IDX 21 15 14 16 18 17 15 18 16 19 19 20 20 21 17 22
REMARK H PARENT 11 12 17 23
REMARK Flexibility Score: inf
ROOT
ATOM      1  C   UNL     1      96.711  82.513  84.201  1.00  0.00     0.010 C 
ENDROOT
BRANCH   1   2
ATOM      2  C   UNL     1      95.566  81.684  84.850  1.00  0.00     0.001 C 
BRANCH   2   3
ATOM      3  C   UNL     1      94.196  82.423  84.790  1.00  0.00     0.000 C 
BRANCH   3   4
ATOM      4  C   UNL     1      93.004  81.503  84.405  1.00  0.00    -0.000 C 
BRANCH   4   5
ATOM      5  C   UNL     1      93.281  80.003  84.708  1.00  0.00    -0.000 C 
BRANCH   5   6
ATOM      6  C   UNL     1      92.025  79.261  85.239  1.00  0.00    -0.003 C 
ATOM      7  C   UNL     1      91.124  78.720  84.106  1.00  0.00     0.004 C 
ENDBRANCH   5   6
ENDBRANCH   4   5
ENDBRANCH   3   4
ENDBRANCH   2   3
ENDBRANCH   1   2
BRANCH   1   8
ATOM      8  C   UNL     1      96.332  83.146  82.832  1.00  0.00     0.100 C 
BRANCH   8   9
ATOM      9  C   UNL     1      96.986  82.433  81.708  1.00  0.00     0.220 C 
ATOM     10  O   UNL     1      96.686  81.232  81.511  1.00  0.00    -0.275 OA
ATOM     11  N   UNL     1      97.869  83.083  80.895  1.00  0.00    -0.352 N 
ATOM     12  H   UNL     1      98.103  84.018  81.195  1.00  0.00     0.163 HD
BRANCH  11  13
ATOM     13  C   UNL     1      98.454  82.551  79.702  1.00  0.00     0.151 C 
BRANCH  13  14
ATOM     14  C   UNL     1      97.894  83.126  78.450  1.00  0.00    -0.025 A 
ATOM     15  C   UNL     1      98.653  83.103  77.255  1.00  0.00     0.056 A 
ATOM     16  C   UNL     1      96.605  83.705  78.429  1.00  0.00     0.009 A 
ATOM     17  C   UNL     1      98.127  83.631  76.053  1.00  0.00     0.160 A 
ATOM     18  C   UNL     1      96.076  84.230  77.236  1.00  0.00     0.050 A 
ATOM     19  C   UNL     1      96.835  84.202  76.050  1.00  0.00     0.157 A 
BRANCH  17  20
ATOM     20  O   UNL     1      98.880  83.646  74.905  1.00  0.00    -0.493 OA
ATOM     21  C   UNL     1      99.615  82.433  74.667  1.00  0.00     0.278 C 
ENDBRANCH  17  20
BRANCH  19  22
ATOM     22  O   UNL     1      96.326  84.736  74.910  1.00  0.00    -0.504 OA
ATOM     23  H   UNL     1      97.029  84.837  74.263  1.00  0.00     0.293 HD
ENDBRANCH  19  22
ENDBRANCH  13  14
ENDBRANCH  11  13
ENDBRANCH   8   9
ENDBRANCH   1   8
TORSDOF 11
ENDMDL
MODEL 3
REMARK VINA RESULT:    -5.654      8.324     11.026
REMARK INTER + INTRA:          -9.751
REMARK INTER:                  -9.112
REMARK INTRA:                  -0.638
REMARK UNBOUND:                -0.626
REMARK SMILES CCCCCCCCC(=O)NCc1ccc(O)c(OC)c1
REMARK SMILES IDX 7 1 6 2 5 3 4 4 3 5 2 6 1 7 8 8 9 9 10 10 11 11 12 13 13 14
REMARK SMILES IDX 21 15 14 16 18 17 15 18 16 19 19 20 20 21 17 22
REMARK H PARENT 11 12 17 23
REMARK Flexibility Score: inf
ROOT
ATOM      1  C   UNL     1      97.292  81.400  82.092  1.00  0.00     0.010 C 
ENDROOT
BRANCH   1   2
ATOM      2  C   UNL     1      95.991  81.602  82.921  1.00  0.00     0.001 C 
BRANCH   2   3
ATOM      3  C   UNL     1      96.045  82.885  83.801  1.00  0.00     0.000 C 
BRANCH   3   4
ATOM      4  C   UNL     1      94.720  83.183  84.558  1.00  0.00    -0.000 C 
BRANCH   4   5
ATOM      5  C   UNL     1      93.675  82.041  84.409  1.00  0.00    -0.000 C 
BRANCH   5   6
ATOM      6  C   UNL     1      92.234  82.504  84.756  1.00  0.00    -0.003 C 
ATOM      7  C   UNL     1      91.147  81.597  84.138  1.00  0.00     0.004 C 
ENDBRANCH   5   6
ENDBRANCH   4   5
ENDBRANCH   3   4
ENDBRANCH   2   3
ENDBRANCH   1   2
BRANCH   1   8
ATOM      8  C   UNL     1      97.295  80.108  81.228  1.00  0.00     0.100 C 
BRANCH   8   9
ATOM      9  C   UNL     1      98.029  80.311  79.956  1.00  0.00     0.220 C 
ATOM     10  O   UNL     1      97.993  79.399  79.096  1.00  0.00    -0.275 OA
ATOM     11  N   UNL     1      98.701  81.477  79.721  1.00  0.00    -0.352 N 
ATOM     12  H   UNL     1      98.738  82.104  80.511  1.00  0.00     0.163 HD
BRANCH  11  13
ATOM     13  C   UNL     1      99.325  81.848  78.488  1.00  0.00     0.151 C 
BRANCH  13  14
ATOM     14  C   UNL     1      98.476  82.707  77.620  1.00  0.00    -0.025 A 
ATOM     15  C   UNL     1      98.900  83.035  76.310  1.00  0.00     0.056 A 
ATOM     16  C   UNL     1      97.239  83.211  78.083  1.00  0.00     0.009 A 
ATOM     17  C   UNL     1      98.096  83.836  75.467  1.00  0.00     0.160 A 
ATOM     18  C   UNL     1      96.434  84.008  77.249  1.00  0.00     0.050 A 
ATOM     19  C   UNL     1      96.861  84.328  75.946  1.00  0.00     0.157 A 
BRANCH  17  20
ATOM     20  O   UNL     1      98.528  84.189  74.213  1.00  0.00    -0.493 OA
ATOM     21  C   UNL     1      99.491  83.283  73.646  1.00  0.00     0.278 C 
ENDBRANCH  17  20
BRANCH  19  22
ATOM     22  O   UNL     1      96.089  85.120  75.159  1.00  0.00    -0.504 OA
ATOM     23  H   UNL     1      95.328  85.424  75.658  1.00  0.00     0.293 HD
ENDBRANCH  19  22
ENDBRANCH  13  14
ENDBRANCH  11  13
ENDBRANCH   8   9
ENDBRANCH   1   8
TORSDOF 11
ENDMDL
MODEL 4
REMARK VINA RESULT:    -5.648      1.725      2.353
REMARK INTER + INTRA:          -9.740
REMARK INTER:                  -9.102
REMARK INTRA:                  -0.639
REMARK UNBOUND:                -0.626
REMARK SMILES CCCCCCCCC(=O)NCc1ccc(O)c(OC)c1
REMARK SMILES IDX 7 1 6 2 5 3 4 4 3 5 2 6 1 7 8 8 9 9 10 10 11 11 12 13 13 14
REMARK SMILES IDX 21 15 14 16 18 17 15 18 16 19 19 20 20 21 17 22
REMARK H PARENT 11 12 17 23
REMARK Flexibility Score: inf
ROOT
ATOM      1  C   UNL     1      92.358  77.751  84.268  1.00  0.00     0.010 C 
ENDROOT
BRANCH   1   2
ATOM      2  C   UNL     1      93.086  76.635  83.464  1.00  0.00     0.001 C 
BRANCH   2   3
ATOM      3  C   UNL     1      92.179  75.393  83.225  1.00  0.00     0.000 C 
BRANCH   3   4
ATOM      4  C   UNL     1      92.884  74.240  82.457  1.00  0.00    -0.000 C 
BRANCH   4   5
ATOM      5  C   UNL     1      92.320  74.043  81.021  1.00  0.00    -0.000 C 
BRANCH   5   6
ATOM      6  C   UNL     1      90.830  74.464  80.902  1.00  0.00    -0.003 C 
ATOM      7  C   UNL     1      90.219  74.125  79.525  1.00  0.00     0.004 C 
ENDBRANCH   5   6
ENDBRANCH   4   5
ENDBRANCH   3   4
ENDBRANCH   2   3
ENDBRANCH   1   2
BRANCH   1   8
ATOM      8  C   UNL     1      93.314  78.662  85.089  1.00  0.00     0.100 C 
BRANCH   8   9
ATOM      9  C   UNL     1      92.852  80.070  85.085  1.00  0.00     0.220 C 
ATOM     10  O   UNL     1      93.691  80.972  84.847  1.00  0.00    -0.275 OA
ATOM     11  N   UNL     1      91.538  80.370  85.308  1.00  0.00    -0.352 N 
ATOM     12  H   UNL     1      90.969  79.580  85.574  1.00  0.00     0.163 HD
BRANCH  11  13
ATOM     13  C   UNL     1      90.946  81.668  85.192  1.00  0.00     0.151 C 
BRANCH  13  14
ATOM     14  C   UNL     1      89.563  81.651  84.645  1.00  0.00    -0.025 A 
ATOM     15  C   UNL     1      88.722  82.779  84.799  1.00  0.00     0.056 A 
ATOM     16  C   UNL     1      89.063  80.514  83.968  1.00  0.00     0.009 A 
ATOM     17  C   UNL     1      87.411  82.784  84.269  1.00  0.00     0.160 A 
ATOM     18  C   UNL     1      87.761  80.513  83.438  1.00  0.00     0.050 A 
ATOM     19  C   UNL     1      86.930  81.640  83.592  1.00  0.00     0.157 A 
BRANCH  17  20
ATOM     20  O   UNL     1      86.583  83.862  84.456  1.00  0.00    -0.493 OA
ATOM     21  C   UNL     1      86.004  83.938  85.771  1.00  0.00     0.278 C 
ENDBRANCH  17  20
BRANCH  19  22
ATOM     22  O   UNL     1      85.665  81.619  83.101  1.00  0.00    -0.504 OA
ATOM     23  H   UNL     1      85.048  81.857  83.797  1.00  0.00     0.293 HD
ENDBRANCH  19  22
ENDBRANCH  13  14
ENDBRANCH  11  13
ENDBRANCH   8   9
ENDBRANCH   1   8
TORSDOF 11
ENDMDL
MODEL 5
REMARK VINA RESULT:    -5.517      4.197      7.670
REMARK INTER + INTRA:          -9.530
REMARK INTER:                  -8.657
REMARK INTRA:                  -0.872
REMARK UNBOUND:                -0.626
REMARK SMILES CCCCCCCCC(=O)NCc1ccc(O)c(OC)c1
REMARK SMILES IDX 7 1 6 2 5 3 4 4 3 5 2 6 1 7 8 8 9 9 10 10 11 11 12 13 13 14
REMARK SMILES IDX 21 15 14 16 18 17 15 18 16 19 19 20 20 21 17 22
REMARK H PARENT 11 12 17 23
REMARK Flexibility Score: inf
ROOT
ATOM      1  C   UNL     1      93.483  82.443  88.701  1.00  0.00     0.010 C 
ENDROOT
BRANCH   1   2
ATOM      2  C   UNL     1      93.273  83.342  89.954  1.00  0.00     0.001 C 
BRANCH   2   3
ATOM      3  C   UNL     1      94.422  84.377  90.136  1.00  0.00     0.000 C 
BRANCH   3   4
ATOM      4  C   UNL     1      93.932  85.851  90.212  1.00  0.00    -0.000 C 
BRANCH   4   5
ATOM      5  C   UNL     1      93.024  86.244  89.013  1.00  0.00    -0.000 C 
BRANCH   5   6
ATOM      6  C   UNL     1      93.082  87.762  88.694  1.00  0.00    -0.003 C 
ATOM      7  C   UNL     1      92.009  88.576  89.450  1.00  0.00     0.004 C 
ENDBRANCH   5   6
ENDBRANCH   4   5
ENDBRANCH   3   4
ENDBRANCH   2   3
ENDBRANCH   1   2
BRANCH   1   8
ATOM      8  C   UNL     1      94.274  83.135  87.556  1.00  0.00     0.100 C 
BRANCH   8   9
ATOM      9  C   UNL     1      93.488  83.166  86.299  1.00  0.00     0.220 C 
ATOM     10  O   UNL     1      92.964  84.252  85.952  1.00  0.00    -0.275 OA
ATOM     11  N   UNL     1      93.367  82.046  85.529  1.00  0.00    -0.352 N 
ATOM     12  H   UNL     1      93.753  81.210  85.943  1.00  0.00     0.163 HD
BRANCH  11  13
ATOM     13  C   UNL     1      92.759  81.983  84.235  1.00  0.00     0.151 C 
BRANCH  13  14
ATOM     14  C   UNL     1      91.404  81.369  84.236  1.00  0.00    -0.025 A 
ATOM     15  C   UNL     1      90.251  82.189  84.198  1.00  0.00     0.056 A 
ATOM     16  C   UNL     1      91.243  79.965  84.278  1.00  0.00     0.009 A 
ATOM     17  C   UNL     1      88.957  81.619  84.181  1.00  0.00     0.160 A 
ATOM     18  C   UNL     1      89.959  79.392  84.261  1.00  0.00     0.050 A 
ATOM     19  C   UNL     1      88.815  80.213  84.220  1.00  0.00     0.157 A 
BRANCH  17  20
ATOM     20  O   UNL     1      87.840  82.415  84.187  1.00  0.00    -0.493 OA
ATOM     21  C   UNL     1      87.754  83.302  85.317  1.00  0.00     0.278 C 
ENDBRANCH  17  20
BRANCH  19  22
ATOM     22  O   UNL     1      87.580  79.651  84.231  1.00  0.00    -0.504 OA
ATOM     23  H   UNL     1      87.207  79.714  85.114  1.00  0.00     0.293 HD
ENDBRANCH  19  22
ENDBRANCH  13  14
ENDBRANCH  11  13
ENDBRANCH   8   9
ENDBRANCH   1   8
TORSDOF 11
ENDMDL
MODEL 6
REMARK VINA RESULT:    -5.494      6.646      9.464
REMARK INTER + INTRA:          -9.492
REMARK INTER:                  -8.660
REMARK INTRA:                  -0.832
REMARK UNBOUND:                -0.626
REMARK SMILES CCCCCCCCC(=O)NCc1ccc(O)c(OC)c1
REMARK SMILES IDX 7 1 6 2 5 3 4 4 3 5 2 6 1 7 8 8 9 9 10 10 11 11 12 13 13 14
REMARK SMILES IDX 21 15 14 16 18 17 15 18 16 19 19 20 20 21 17 22
REMARK H PARENT 11 12 17 23
REMARK Flexibility Score: inf
ROOT
ATOM      1  C   UNL     1      97.779  80.822  79.581  1.00  0.00     0.010 C 
ENDROOT
BRANCH   1   2
ATOM      2  C   UNL     1      97.817  81.216  78.076  1.00  0.00     0.001 C 
BRANCH   2   3
ATOM      3  C   UNL     1      98.840  82.354  77.791  1.00  0.00     0.000 C 
BRANCH   3   4
ATOM      4  C   UNL     1      98.414  83.306  76.637  1.00  0.00    -0.000 C 
BRANCH   4   5
ATOM      5  C   UNL     1      97.089  84.061  76.940  1.00  0.00    -0.000 C 
BRANCH   5   6
ATOM      6  C   UNL     1      96.531  84.809  75.699  1.00  0.00    -0.003 C 
ATOM      7  C   UNL     1      97.338  84.522  74.414  1.00  0.00     0.004 C 
ENDBRANCH   5   6
ENDBRANCH   4   5
ENDBRANCH   3   4
ENDBRANCH   2   3
ENDBRANCH   1   2
BRANCH   1   8
ATOM      8  C   UNL     1      98.355  81.909  80.531  1.00  0.00     0.100 C 
BRANCH   8   9
ATOM      9  C   UNL     1      97.272  82.662  81.208  1.00  0.00     0.220 C 
ATOM     10  O   UNL     1      96.610  83.488  80.534  1.00  0.00    -0.275 OA
ATOM     11  N   UNL     1      96.988  82.437  82.525  1.00  0.00    -0.352 N 
ATOM     12  H   UNL     1      97.636  81.820  82.991  1.00  0.00     0.163 HD
BRANCH  11  13
ATOM     13  C   UNL     1      95.886  82.992  83.249  1.00  0.00     0.151 C 
BRANCH  13  14
ATOM     14  C   UNL     1      94.967  81.972  83.821  1.00  0.00    -0.025 A 
ATOM     15  C   UNL     1      93.665  82.339  84.237  1.00  0.00     0.056 A 
ATOM     16  C   UNL     1      95.375  80.625  83.962  1.00  0.00     0.009 A 
ATOM     17  C   UNL     1      92.775  81.376  84.767  1.00  0.00     0.160 A 
ATOM     18  C   UNL     1      94.494  79.663  84.486  1.00  0.00     0.050 A 
ATOM     19  C   UNL     1      93.199  80.034  84.896  1.00  0.00     0.157 A 
BRANCH  17  20
ATOM     20  O   UNL     1      91.529  81.742  85.209  1.00  0.00    -0.493 OA
ATOM     21  C   UNL     1      90.563  81.928  84.159  1.00  0.00     0.278 C 
ENDBRANCH  17  20
BRANCH  19  22
ATOM     22  O   UNL     1      92.365  79.103  85.427  1.00  0.00    -0.504 OA
ATOM     23  H   UNL     1      91.865  78.683  84.723  1.00  0.00     0.293 HD
ENDBRANCH  19  22
ENDBRANCH  13  14
ENDBRANCH  11  13
ENDBRANCH   8   9
ENDBRANCH   1   8
TORSDOF 11
ENDMDL
MODEL 7
REMARK VINA RESULT:    -5.357      5.410      8.282
REMARK INTER + INTRA:          -9.272
REMARK INTER:                  -8.400
REMARK INTRA:                  -0.872
REMARK UNBOUND:                -0.626
REMARK SMILES CCCCCCCCC(=O)NCc1ccc(O)c(OC)c1
REMARK SMILES IDX 7 1 6 2 5 3 4 4 3 5 2 6 1 7 8 8 9 9 10 10 11 11 12 13 13 14
REMARK SMILES IDX 21 15 14 16 18 17 15 18 16 19 19 20 20 21 17 22
REMARK H PARENT 11 12 17 23
REMARK Flexibility Score: inf
ROOT
ATOM      1  C   UNL     1      95.604  79.871  84.392  1.00  0.00     0.010 C 
ENDROOT
BRANCH   1   2
ATOM      2  C   UNL     1      95.945  80.739  83.147  1.00  0.00     0.001 C 
BRANCH   2   3
ATOM      3  C   UNL     1      96.957  80.033  82.197  1.00  0.00     0.000 C 
BRANCH   3   4
ATOM      4  C   UNL     1      97.135  80.749  80.828  1.00  0.00    -0.000 C 
BRANCH   4   5
ATOM      5  C   UNL     1      97.773  82.160  80.967  1.00  0.00    -0.000 C 
BRANCH   5   6
ATOM      6  C   UNL     1      97.155  83.193  79.987  1.00  0.00    -0.003 C 
ATOM      7  C   UNL     1      97.283  82.768  78.507  1.00  0.00     0.004 C 
ENDBRANCH   5   6
ENDBRANCH   4   5
ENDBRANCH   3   4
ENDBRANCH   2   3
ENDBRANCH   1   2
BRANCH   1   8
ATOM      8  C   UNL     1      94.089  79.558  84.546  1.00  0.00     0.100 C 
BRANCH   8   9
ATOM      9  C   UNL     1      93.373  80.671  85.216  1.00  0.00     0.220 C 
ATOM     10  O   UNL     1      92.165  80.857  84.934  1.00  0.00    -0.275 OA
ATOM     11  N   UNL     1      94.011  81.450  86.138  1.00  0.00    -0.352 N 
ATOM     12  H   UNL     1      95.001  81.270  86.224  1.00  0.00     0.163 HD
BRANCH  11  13
ATOM     13  C   UNL     1      93.398  82.456  86.951  1.00  0.00     0.151 C 
BRANCH  13  14
ATOM     14  C   UNL     1      93.735  83.846  86.544  1.00  0.00    -0.025 A 
ATOM     15  C   UNL     1      94.575  84.078  85.429  1.00  0.00     0.056 A 
ATOM     16  C   UNL     1      93.231  84.956  87.261  1.00  0.00     0.009 A 
ATOM     17  C   UNL     1      94.891  85.395  85.021  1.00  0.00     0.160 A 
ATOM     18  C   UNL     1      93.540  86.267  86.859  1.00  0.00     0.050 A 
ATOM     19  C   UNL     1      94.374  86.491  85.747  1.00  0.00     0.157 A 
BRANCH  17  20
ATOM     20  O   UNL     1      95.739  85.617  83.965  1.00  0.00    -0.493 OA
ATOM     21  C   UNL     1      95.891  84.490  83.084  1.00  0.00     0.278 C 
ENDBRANCH  17  20
BRANCH  19  22
ATOM     22  O   UNL     1      94.689  87.760  85.384  1.00  0.00    -0.504 OA
ATOM     23  H   UNL     1      95.111  87.751  84.521  1.00  0.00     0.293 HD
ENDBRANCH  19  22
ENDBRANCH  13  14
ENDBRANCH  11  13
ENDBRANCH   8   9
ENDBRANCH   1   8
TORSDOF 11
ENDMDL
MODEL 8
REMARK VINA RESULT:    -5.350      5.751      8.676
REMARK INTER + INTRA:          -9.261
REMARK INTER:                  -8.303
REMARK INTRA:                  -0.957
REMARK UNBOUND:                -0.626
REMARK SMILES CCCCCCCCC(=O)NCc1ccc(O)c(OC)c1
REMARK SMILES IDX 7 1 6 2 5 3 4 4 3 5 2 6 1 7 8 8 9 9 10 10 11 11 12 13 13 14
REMARK SMILES IDX 21 15 14 16 18 17 15 18 16 19 19 20 20 21 17 22
REMARK H PARENT 11 12 17 23
REMARK Flexibility Score: inf
ROOT
ATOM      1  C   UNL     1      94.449  80.127  85.648  1.00  0.00     0.010 C 
ENDROOT
BRANCH   1   2
ATOM      2  C   UNL     1      93.300  81.126  85.972  1.00  0.00     0.001 C 
BRANCH   2   3
ATOM      3  C   UNL     1      92.535  81.578  84.693  1.00  0.00     0.000 C 
BRANCH   3   4
ATOM      4  C   UNL     1      91.059  81.094  84.640  1.00  0.00    -0.000 C 
BRANCH   4   5
ATOM      5  C   UNL     1      90.882  79.797  83.801  1.00  0.00    -0.000 C 
BRANCH   5   6
ATOM      6  C   UNL     1      91.311  78.522  84.576  1.00  0.00    -0.003 C 
ATOM      7  C   UNL     1      91.318  77.256  83.691  1.00  0.00     0.004 C 
ENDBRANCH   5   6
ENDBRANCH   4   5
ENDBRANCH   3   4
ENDBRANCH   2   3
ENDBRANCH   1   2
BRANCH   1   8
ATOM      8  C   UNL     1      94.777  80.015  84.133  1.00  0.00     0.100 C 
BRANCH   8   9
ATOM      9  C   UNL     1      95.980  80.807  83.781  1.00  0.00     0.220 C 
ATOM     10  O   UNL     1      97.063  80.529  84.350  1.00  0.00    -0.275 OA
ATOM     11  N   UNL     1      95.910  81.794  82.840  1.00  0.00    -0.352 N 
ATOM     12  H   UNL     1      94.976  81.992  82.511  1.00  0.00     0.163 HD
BRANCH  11  13
ATOM     13  C   UNL     1      97.020  82.529  82.315  1.00  0.00     0.151 C 
BRANCH  13  14
ATOM     14  C   UNL     1      97.334  82.211  80.896  1.00  0.00    -0.025 A 
ATOM     15  C   UNL     1      97.368  83.242  79.927  1.00  0.00     0.056 A 
ATOM     16  C   UNL     1      97.598  80.883  80.490  1.00  0.00     0.009 A 
ATOM     17  C   UNL     1      97.682  82.958  78.578  1.00  0.00     0.160 A 
ATOM     18  C   UNL     1      97.911  80.594  79.150  1.00  0.00     0.050 A 
ATOM     19  C   UNL     1      97.947  81.625  78.191  1.00  0.00     0.157 A 
BRANCH  17  20
ATOM     20  O   UNL     1      97.674  83.952  77.631  1.00  0.00    -0.493 OA
ATOM     21  C   UNL     1      96.366  84.274  77.127  1.00  0.00     0.278 C 
ENDBRANCH  17  20
BRANCH  19  22
ATOM     22  O   UNL     1      98.224  81.332  76.895  1.00  0.00    -0.504 OA
ATOM     23  H   UNL     1      98.614  82.099  76.469  1.00  0.00     0.293 HD
ENDBRANCH  19  22
ENDBRANCH  13  14
ENDBRANCH  11  13
ENDBRANCH   8   9
ENDBRANCH   1   8
TORSDOF 11
ENDMDL
MODEL 9
REMARK VINA RESULT:    -5.284      6.949     11.616
REMARK INTER + INTRA:          -9.153
REMARK INTER:                  -8.272
REMARK INTRA:                  -0.882
REMARK UNBOUND:                -0.626
REMARK SMILES CCCCCCCCC(=O)NCc1ccc(O)c(OC)c1
REMARK SMILES IDX 7 1 6 2 5 3 4 4 3 5 2 6 1 7 8 8 9 9 10 10 11 11 12 13 13 14
REMARK SMILES IDX 21 15 14 16 18 17 15 18 16 19 19 20 20 21 17 22
REMARK H PARENT 11 12 17 23
REMARK Flexibility Score: inf
ROOT
ATOM      1  C   UNL     1      92.607  87.232  89.671  1.00  0.00     0.010 C 
ENDROOT
BRANCH   1   2
ATOM      2  C   UNL     1      93.211  88.286  90.643  1.00  0.00     0.001 C 
BRANCH   2   3
ATOM      3  C   UNL     1      92.132  89.265  91.194  1.00  0.00     0.000 C 
BRANCH   3   4
ATOM      4  C   UNL     1      92.268  90.716  90.653  1.00  0.00    -0.000 C 
BRANCH   4   5
ATOM      5  C   UNL     1      92.485  90.765  89.114  1.00  0.00    -0.000 C 
BRANCH   5   6
ATOM      6  C   UNL     1      93.880  91.325  88.726  1.00  0.00    -0.003 C 
ATOM      7  C   UNL     1      94.292  90.963  87.283  1.00  0.00     0.004 C 
ENDBRANCH   5   6
ENDBRANCH   4   5
ENDBRANCH   3   4
ENDBRANCH   2   3
ENDBRANCH   1   2
BRANCH   1   8
ATOM      8  C   UNL     1      93.280  87.210  88.270  1.00  0.00     0.100 C 
BRANCH   8   9
ATOM      9  C   UNL     1      93.574  85.823  87.835  1.00  0.00     0.220 C 
ATOM     10  O   UNL     1      94.150  85.055  88.642  1.00  0.00    -0.275 OA
ATOM     11  N   UNL     1      93.197  85.390  86.596  1.00  0.00    -0.352 N 
ATOM     12  H   UNL     1      92.820  86.112  85.998  1.00  0.00     0.163 HD
BRANCH  11  13
ATOM     13  C   UNL     1      93.296  84.047  86.114  1.00  0.00     0.151 C 
BRANCH  13  14
ATOM     14  C   UNL     1      94.316  83.864  85.047  1.00  0.00    -0.025 A 
ATOM     15  C   UNL     1      94.584  82.573  84.532  1.00  0.00     0.056 A 
ATOM     16  C   UNL     1      95.036  84.967  84.533  1.00  0.00     0.009 A 
ATOM     17  C   UNL     1      95.539  82.386  83.507  1.00  0.00     0.160 A 
ATOM     18  C   UNL     1      95.986  84.787  83.512  1.00  0.00     0.050 A 
ATOM     19  C   UNL     1      96.246  83.501  83.003  1.00  0.00     0.157 A 
BRANCH  17  20
ATOM     20  O   UNL     1      95.828  81.128  83.038  1.00  0.00    -0.493 OA
ATOM     21  C   UNL     1      96.614  80.330  83.941  1.00  0.00     0.278 C 
ENDBRANCH  17  20
BRANCH  19  22
ATOM     22  O   UNL     1      97.185  83.334  82.036  1.00  0.00    -0.504 OA
ATOM     23  H   UNL     1      97.881  82.759  82.362  1.00  0.00     0.293 HD
ENDBRANCH  19  22
ENDBRANCH  13  14
ENDBRANCH  11  13
ENDBRANCH   8   9
ENDBRANCH   1   8
TORSDOF 11
ENDMDL
MODEL 10
REMARK VINA RESULT:    -5.254      9.836     12.792
REMARK INTER + INTRA:          -9.106
REMARK INTER:                  -8.149
REMARK INTRA:                  -0.956
REMARK UNBOUND:                -0.626
REMARK SMILES CCCCCCCCC(=O)NCc1ccc(O)c(OC)c1
REMARK SMILES IDX 7 1 6 2 5 3 4 4 3 5 2 6 1 7 8 8 9 9 10 10 11 11 12 13 13 14
REMARK SMILES IDX 21 15 14 16 18 17 15 18 16 19 19 20 20 21 17 22
REMARK H PARENT 11 12 17 23
REMARK Flexibility Score: inf
ROOT
ATOM      1  C   UNL     1      98.195  82.904  74.895  1.00  0.00     0.010 C 
ENDROOT
BRANCH   1   2
ATOM      2  C   UNL     1      97.881  83.635  73.558  1.00  0.00     0.001 C 
BRANCH   2   3
ATOM      3  C   UNL     1      98.497  85.064  73.510  1.00  0.00     0.000 C 
BRANCH   3   4
ATOM      4  C   UNL     1      99.625  85.225  72.452  1.00  0.00    -0.000 C 
BRANCH   4   5
ATOM      5  C   UNL     1     100.974  85.682  73.076  1.00  0.00    -0.000 C 
BRANCH   5   6
ATOM      6  C   UNL     1     101.017  85.478  74.615  1.00  0.00    -0.003 C 
ATOM      7  C   UNL     1     101.800  84.213  75.030  1.00  0.00     0.004 C 
ENDBRANCH   5   6
ENDBRANCH   4   5
ENDBRANCH   3   4
ENDBRANCH   2   3
ENDBRANCH   1   2
BRANCH   1   8
ATOM      8  C   UNL     1      97.398  83.449  76.113  1.00  0.00     0.100 C 
BRANCH   8   9
ATOM      9  C   UNL     1      98.097  83.161  77.389  1.00  0.00     0.220 C 
ATOM     10  O   UNL     1      99.259  82.693  77.338  1.00  0.00    -0.275 OA
ATOM     11  N   UNL     1      97.495  83.427  78.585  1.00  0.00    -0.352 N 
ATOM     12  H   UNL     1      96.532  83.719  78.512  1.00  0.00     0.163 HD
BRANCH  11  13
ATOM     13  C   UNL     1      98.113  83.326  79.872  1.00  0.00     0.151 C 
BRANCH  13  14
ATOM     14  C   UNL     1      97.569  82.229  80.716  1.00  0.00    -0.025 A 
ATOM     15  C   UNL     1      96.943  82.524  81.951  1.00  0.00     0.056 A 
ATOM     16  C   UNL     1      97.669  80.879  80.306  1.00  0.00     0.009 A 
ATOM     17  C   UNL     1      96.406  81.492  82.756  1.00  0.00     0.160 A 
ATOM     18  C   UNL     1      97.136  79.849  81.102  1.00  0.00     0.050 A 
ATOM     19  C   UNL     1      96.512  80.150  82.328  1.00  0.00     0.157 A 
BRANCH  17  20
ATOM     20  O   UNL     1      95.838  81.776  83.972  1.00  0.00    -0.493 OA
ATOM     21  C   UNL     1      94.688  82.637  83.898  1.00  0.00     0.278 C 
ENDBRANCH  17  20
BRANCH  19  22
ATOM     22  O   UNL     1      96.025  79.146  83.101  1.00  0.00    -0.504 OA
ATOM     23  H   UNL     1      96.458  79.164  83.958  1.00  0.00     0.293 HD
ENDBRANCH  19  22
ENDBRANCH  13  14
ENDBRANCH  11  13
ENDBRANCH   8   9
ENDBRANCH   1   8
TORSDOF 11
ENDMDL
