MODEL 1
REMARK VINA RESULT:    -6.230      0.000      0.000
REMARK INTER + INTRA:         -11.211
REMARK INTER:                 -10.054
REMARK INTRA:                  -1.157
REMARK UNBOUND:                -1.157
REMARK SMILES CCCCCCCCC(=O)NCc1ccc(O)c(OC)c1
REMARK SMILES IDX 7 1 6 2 5 3 4 4 3 5 2 6 1 7 8 8 9 9 10 10 11 11 12 13 13 14
REMARK SMILES IDX 21 15 14 16 18 17 15 18 16 19 19 20 20 21 17 22
REMARK H PARENT 11 12 17 23
REMARK Flexibility Score: inf
ROOT
ATOM      1  C   UNL     1      94.735  96.267  75.692  1.00  0.00     0.010 C 
ENDROOT
BRANCH   1   2
ATOM      2  C   UNL     1      93.506  95.405  76.097  1.00  0.00     0.001 C 
BRANCH   2   3
ATOM      3  C   UNL     1      92.530  96.175  77.035  1.00  0.00     0.000 C 
BRANCH   3   4
ATOM      4  C   UNL     1      92.473  95.608  78.482  1.00  0.00    -0.000 C 
BRANCH   4   5
ATOM      5  C   UNL     1      91.561  94.354  78.601  1.00  0.00    -0.000 C 
BRANCH   5   6
ATOM      6  C   UNL     1      90.205  94.532  77.866  1.00  0.00    -0.003 C 
ATOM      7  C   UNL     1      89.152  93.485  78.288  1.00  0.00     0.004 C 
ENDBRANCH   5   6
ENDBRANCH   4   5
ENDBRANCH   3   4
ENDBRANCH   2   3
ENDBRANCH   1   2
BRANCH   1   8
ATOM      8  C   UNL     1      94.436  97.790  75.610  1.00  0.00     0.100 C 
BRANCH   8   9
ATOM      9  C   UNL     1      95.088  98.529  76.718  1.00  0.00     0.220 C 
ATOM     10  O   UNL     1      94.885  99.763  76.812  1.00  0.00    -0.275 OA
ATOM     11  N   UNL     1      95.866  97.871  77.627  1.00  0.00    -0.352 N 
ATOM     12  H   UNL     1      96.033  96.900  77.408  1.00  0.00     0.163 HD
BRANCH  11  13
ATOM     13  C   UNL     1      96.430  98.441  78.812  1.00  0.00     0.151 C 
BRANCH  13  14
ATOM     14  C   UNL     1      95.974  97.789  80.069  1.00  0.00    -0.025 A 
ATOM     15  C   UNL     1      95.541  96.442  80.056  1.00  0.00     0.056 A 
ATOM     16  C   UNL     1      95.960  98.499  81.292  1.00  0.00     0.009 A 
ATOM     17  C   UNL     1      95.121  95.804  81.246  1.00  0.00     0.160 A 
ATOM     18  C   UNL     1      95.545  97.870  82.479  1.00  0.00     0.050 A 
ATOM     19  C   UNL     1      95.118  96.528  82.459  1.00  0.00     0.157 A 
BRANCH  17  20
ATOM     20  O   UNL     1      94.662  94.511  81.224  1.00  0.00    -0.493 OA
ATOM     21  C   UNL     1      95.432  93.627  80.389  1.00  0.00     0.278 C 
ENDBRANCH  17  20
BRANCH  19  22
ATOM     22  O   UNL     1      94.693  95.937  83.606  1.00  0.00    -0.504 OA
ATOM     23  H   UNL     1      94.573  94.997  83.455  1.00  0.00     0.293 HD
ENDBRANCH  19  22
ENDBRANCH  13  14
ENDBRANCH  11  13
ENDBRANCH   8   9
ENDBRANCH   1   8
TORSDOF 11
ENDMDL
MODEL 2
REMARK VINA RESULT:    -5.605     22.063     26.216
REMARK INTER + INTRA:         -10.202
REMARK INTER:                  -8.891
REMARK INTRA:                  -1.311
REMARK UNBOUND:                -1.157
REMARK SMILES CCCCCCCCC(=O)NCc1ccc(O)c(OC)c1
REMARK SMILES IDX 7 1 6 2 5 3 4 4 3 5 2 6 1 7 8 8 9 9 10 10 11 11 12 13 13 14
REMARK SMILES IDX 21 15 14 16 18 17 15 18 16 19 19 20 20 21 17 22
REMARK H PARENT 11 12 17 23
REMARK Flexibility Score: inf
ROOT
ATOM      1  C   UNL     1      77.847  86.256  68.315  1.00  0.00     0.010 C 
ENDROOT
BRANCH   1   2
ATOM      2  C   UNL     1      77.656  87.038  69.647  1.00  0.00     0.001 C 
BRANCH   2   3
ATOM      3  C   UNL     1      76.472  88.047  69.573  1.00  0.00     0.000 C 
BRANCH   3   4
ATOM      4  C   UNL     1      75.299  87.708  70.535  1.00  0.00    -0.000 C 
BRANCH   4   5
ATOM      5  C   UNL     1      74.980  86.187  70.580  1.00  0.00    -0.000 C 
BRANCH   5   6
ATOM      6  C   UNL     1      73.788  85.801  69.662  1.00  0.00    -0.003 C 
ATOM      7  C   UNL     1      74.238  85.147  68.337  1.00  0.00     0.004 C 
ENDBRANCH   5   6
ENDBRANCH   4   5
ENDBRANCH   3   4
ENDBRANCH   2   3
ENDBRANCH   1   2
BRANCH   1   8
ATOM      8  C   UNL     1      77.924  84.714  68.497  1.00  0.00     0.100 C 
BRANCH   8   9
ATOM      9  C   UNL     1      78.090  84.025  67.194  1.00  0.00     0.220 C 
ATOM     10  O   UNL     1      78.968  83.134  67.100  1.00  0.00    -0.275 OA
ATOM     11  N   UNL     1      77.284  84.337  66.137  1.00  0.00    -0.352 N 
ATOM     12  H   UNL     1      76.673  85.125  66.295  1.00  0.00     0.163 HD
BRANCH  11  13
ATOM     13  C   UNL     1      77.250  83.652  64.881  1.00  0.00     0.151 C 
BRANCH  13  14
ATOM     14  C   UNL     1      76.084  82.742  64.724  1.00  0.00    -0.025 A 
ATOM     15  C   UNL     1      75.000  82.810  65.631  1.00  0.00     0.056 A 
ATOM     16  C   UNL     1      76.038  81.794  63.676  1.00  0.00     0.009 A 
ATOM     17  C   UNL     1      73.877  81.964  65.484  1.00  0.00     0.160 A 
ATOM     18  C   UNL     1      74.924  80.950  63.524  1.00  0.00     0.050 A 
ATOM     19  C   UNL     1      73.847  81.026  64.428  1.00  0.00     0.157 A 
BRANCH  17  20
ATOM     20  O   UNL     1      72.846  82.003  66.389  1.00  0.00    -0.493 OA
ATOM     21  C   UNL     1      71.811  82.947  66.062  1.00  0.00     0.278 C 
ENDBRANCH  17  20
BRANCH  19  22
ATOM     22  O   UNL     1      72.788  80.187  64.289  1.00  0.00    -0.504 OA
ATOM     23  H   UNL     1      72.021  80.567  64.724  1.00  0.00     0.293 HD
ENDBRANCH  19  22
ENDBRANCH  13  14
ENDBRANCH  11  13
ENDBRANCH   8   9
ENDBRANCH   1   8
TORSDOF 11
ENDMDL
MODEL 3
REMARK VINA RESULT:    -5.602     22.318     25.779
REMARK INTER + INTRA:         -10.197
REMARK INTER:                  -9.417
REMARK INTRA:                  -0.780
REMARK UNBOUND:                -1.157
REMARK SMILES CCCCCCCCC(=O)NCc1ccc(O)c(OC)c1
REMARK SMILES IDX 7 1 6 2 5 3 4 4 3 5 2 6 1 7 8 8 9 9 10 10 11 11 12 13 13 14
REMARK SMILES IDX 21 15 14 16 18 17 15 18 16 19 19 20 20 21 17 22
REMARK H PARENT 11 12 17 23
REMARK Flexibility Score: inf
ROOT
ATOM      1  C   UNL     1      77.223  84.824  69.599  1.00  0.00     0.010 C 
ENDROOT
BRANCH   1   2
ATOM      2  C   UNL     1      76.310  85.975  70.111  1.00  0.00     0.001 C 
BRANCH   2   3
ATOM      3  C   UNL     1      76.861  87.380  69.728  1.00  0.00     0.000 C 
BRANCH   3   4
ATOM      4  C   UNL     1      75.924  88.553  70.132  1.00  0.00    -0.000 C 
BRANCH   4   5
ATOM      5  C   UNL     1      74.676  88.077  70.928  1.00  0.00    -0.000 C 
BRANCH   5   6
ATOM      6  C   UNL     1      73.874  89.257  71.540  1.00  0.00    -0.003 C 
ATOM      7  C   UNL     1      74.668  90.582  71.547  1.00  0.00     0.004 C 
ENDBRANCH   5   6
ENDBRANCH   4   5
ENDBRANCH   3   4
ENDBRANCH   2   3
ENDBRANCH   1   2
BRANCH   1   8
ATOM      8  C   UNL     1      78.286  85.279  68.561  1.00  0.00     0.100 C 
BRANCH   8   9
ATOM      9  C   UNL     1      78.243  84.439  67.340  1.00  0.00     0.220 C 
ATOM     10  O   UNL     1      78.878  83.357  67.339  1.00  0.00    -0.275 OA
ATOM     11  N   UNL     1      77.504  84.824  66.258  1.00  0.00    -0.352 N 
ATOM     12  H   UNL     1      77.105  85.748  66.333  1.00  0.00     0.163 HD
BRANCH  11  13
ATOM     13  C   UNL     1      77.269  84.040  65.084  1.00  0.00     0.151 C 
BRANCH  13  14
ATOM     14  C   UNL     1      76.072  83.161  65.178  1.00  0.00    -0.025 A 
ATOM     15  C   UNL     1      74.823  83.603  64.679  1.00  0.00     0.056 A 
ATOM     16  C   UNL     1      76.157  81.878  65.766  1.00  0.00     0.009 A 
ATOM     17  C   UNL     1      73.681  82.772  64.745  1.00  0.00     0.160 A 
ATOM     18  C   UNL     1      75.025  81.047  65.834  1.00  0.00     0.050 A 
ATOM     19  C   UNL     1      73.786  81.491  65.333  1.00  0.00     0.157 A 
BRANCH  17  20
ATOM     20  O   UNL     1      72.463  83.219  64.300  1.00  0.00    -0.493 OA
ATOM     21  C   UNL     1      72.360  84.650  64.200  1.00  0.00     0.278 C 
ENDBRANCH  17  20
BRANCH  19  22
ATOM     22  O   UNL     1      72.693  80.692  65.428  1.00  0.00    -0.504 OA
ATOM     23  H   UNL     1      72.568  80.221  64.601  1.00  0.00     0.293 HD
ENDBRANCH  19  22
ENDBRANCH  13  14
ENDBRANCH  11  13
ENDBRANCH   8   9
ENDBRANCH   1   8
TORSDOF 11
ENDMDL
MODEL 4
REMARK VINA RESULT:    -5.453     22.870     27.113
REMARK INTER + INTRA:          -9.957
REMARK INTER:                  -8.884
REMARK INTRA:                  -1.072
REMARK UNBOUND:                -1.157
REMARK SMILES CCCCCCCCC(=O)NCc1ccc(O)c(OC)c1
REMARK SMILES IDX 7 1 6 2 5 3 4 4 3 5 2 6 1 7 8 8 9 9 10 10 11 11 12 13 13 14
REMARK SMILES IDX 21 15 14 16 18 17 15 18 16 19 19 20 20 21 17 22
REMARK H PARENT 11 12 17 23
REMARK Flexibility Score: inf
ROOT
ATOM      1  C   UNL     1      77.149  85.301  66.874  1.00  0.00     0.010 C 
ENDROOT
BRANCH   1   2
ATOM      2  C   UNL     1      78.015  86.433  67.499  1.00  0.00     0.001 C 
BRANCH   2   3
ATOM      3  C   UNL     1      77.156  87.461  68.292  1.00  0.00     0.000 C 
BRANCH   3   4
ATOM      4  C   UNL     1      76.980  87.105  69.795  1.00  0.00    -0.000 C 
BRANCH   4   5
ATOM      5  C   UNL     1      75.586  86.490  70.108  1.00  0.00    -0.000 C 
BRANCH   5   6
ATOM      6  C   UNL     1      75.680  85.024  70.608  1.00  0.00    -0.003 C 
ATOM      7  C   UNL     1      77.126  84.480  70.607  1.00  0.00     0.004 C 
ENDBRANCH   5   6
ENDBRANCH   4   5
ENDBRANCH   3   4
ENDBRANCH   2   3
ENDBRANCH   1   2
BRANCH   1   8
ATOM      8  C   UNL     1      77.943  84.000  66.565  1.00  0.00     0.100 C 
BRANCH   8   9
ATOM      9  C   UNL     1      77.372  83.285  65.398  1.00  0.00     0.220 C 
ATOM     10  O   UNL     1      77.542  83.777  64.257  1.00  0.00    -0.275 OA
ATOM     11  N   UNL     1      76.704  82.106  65.566  1.00  0.00    -0.352 N 
ATOM     12  H   UNL     1      76.550  81.847  66.529  1.00  0.00     0.163 HD
BRANCH  11  13
ATOM     13  C   UNL     1      76.234  81.255  64.516  1.00  0.00     0.151 C 
BRANCH  13  14
ATOM     14  C   UNL     1      74.773  81.365  64.261  1.00  0.00    -0.025 A 
ATOM     15  C   UNL     1      73.961  82.162  65.104  1.00  0.00     0.056 A 
ATOM     16  C   UNL     1      74.169  80.679  63.183  1.00  0.00     0.009 A 
ATOM     17  C   UNL     1      72.574  82.291  64.864  1.00  0.00     0.160 A 
ATOM     18  C   UNL     1      72.790  80.803  62.938  1.00  0.00     0.050 A 
ATOM     19  C   UNL     1      71.989  81.600  63.779  1.00  0.00     0.157 A 
BRANCH  17  20
ATOM     20  O   UNL     1      71.782  83.029  65.707  1.00  0.00    -0.493 OA
ATOM     21  C   UNL     1      72.486  83.608  66.820  1.00  0.00     0.278 C 
ENDBRANCH  17  20
BRANCH  19  22
ATOM     22  O   UNL     1      70.653  81.692  63.551  1.00  0.00    -0.504 OA
ATOM     23  H   UNL     1      70.234  80.856  63.768  1.00  0.00     0.293 HD
ENDBRANCH  19  22
ENDBRANCH  13  14
ENDBRANCH  11  13
ENDBRANCH   8   9
ENDBRANCH   1   8
TORSDOF 11
ENDMDL
MODEL 5
REMARK VINA RESULT:    -5.297     13.134     15.270
REMARK INTER + INTRA:          -9.705
REMARK INTER:                  -9.123
REMARK INTRA:                  -0.582
REMARK UNBOUND:                -1.157
REMARK SMILES CCCCCCCCC(=O)NCc1ccc(O)c(OC)c1
REMARK SMILES IDX 7 1 6 2 5 3 4 4 3 5 2 6 1 7 8 8 9 9 10 10 11 11 12 13 13 14
REMARK SMILES IDX 21 15 14 16 18 17 15 18 16 19 19 20 20 21 17 22
REMARK H PARENT 11 12 17 23
REMARK Flexibility Score: inf
ROOT
ATOM      1  C   UNL     1      96.700  82.810  85.834  1.00  0.00     0.010 C 
ENDROOT
BRANCH   1   2
ATOM      2  C   UNL     1      95.332  83.214  86.454  1.00  0.00     0.001 C 
BRANCH   2   3
ATOM      3  C   UNL     1      95.350  84.660  87.030  1.00  0.00     0.000 C 
BRANCH   3   4
ATOM      4  C   UNL     1      93.998  85.102  87.657  1.00  0.00    -0.000 C 
BRANCH   4   5
ATOM      5  C   UNL     1      94.182  85.889  88.986  1.00  0.00    -0.000 C 
BRANCH   5   6
ATOM      6  C   UNL     1      95.624  86.435  89.161  1.00  0.00    -0.003 C 
ATOM      7  C   UNL     1      95.683  87.979  89.183  1.00  0.00     0.004 C 
ENDBRANCH   5   6
ENDBRANCH   4   5
ENDBRANCH   3   4
ENDBRANCH   2   3
ENDBRANCH   1   2
BRANCH   1   8
ATOM      8  C   UNL     1      97.060  83.592  84.539  1.00  0.00     0.100 C 
BRANCH   8   9
ATOM      9  C   UNL     1      97.871  82.763  83.615  1.00  0.00     0.220 C 
ATOM     10  O   UNL     1      97.869  81.519  83.775  1.00  0.00    -0.275 OA
ATOM     11  N   UNL     1      98.576  83.343  82.600  1.00  0.00    -0.352 N 
ATOM     12  H   UNL     1      98.578  84.352  82.616  1.00  0.00     0.163 HD
BRANCH  11  13
ATOM     13  C   UNL     1      99.277  82.646  81.565  1.00  0.00     0.151 C 
BRANCH  13  14
ATOM     14  C   UNL     1      98.840  83.012  80.191  1.00  0.00    -0.025 A 
ATOM     15  C   UNL     1      99.750  82.932  79.110  1.00  0.00     0.056 A 
ATOM     16  C   UNL     1      97.519  83.448  79.941  1.00  0.00     0.009 A 
ATOM     17  C   UNL     1      99.344  83.260  77.795  1.00  0.00     0.160 A 
ATOM     18  C   UNL     1      97.109  83.775  78.636  1.00  0.00     0.050 A 
ATOM     19  C   UNL     1      98.018  83.690  77.564  1.00  0.00     0.157 A 
BRANCH  17  20
ATOM     20  O   UNL     1     100.238  83.222  76.755  1.00  0.00    -0.493 OA
ATOM     21  C   UNL     1     100.507  81.900  76.258  1.00  0.00     0.278 C 
ENDBRANCH  17  20
BRANCH  19  22
ATOM     22  O   UNL     1      97.620  84.034  76.313  1.00  0.00    -0.504 OA
ATOM     23  H   UNL     1      97.007  83.375  75.979  1.00  0.00     0.293 HD
ENDBRANCH  19  22
ENDBRANCH  13  14
ENDBRANCH  11  13
ENDBRANCH   8   9
ENDBRANCH   1   8
TORSDOF 11
ENDMDL
MODEL 6
REMARK VINA RESULT:    -5.264      4.140      7.818
REMARK INTER + INTRA:          -9.652
REMARK INTER:                  -8.797
REMARK INTRA:                  -0.856
REMARK UNBOUND:                -1.157
REMARK SMILES CCCCCCCCC(=O)NCc1ccc(O)c(OC)c1
REMARK SMILES IDX 7 1 6 2 5 3 4 4 3 5 2 6 1 7 8 8 9 9 10 10 11 11 12 13 13 14
REMARK SMILES IDX 21 15 14 16 18 17 15 18 16 19 19 20 20 21 17 22
REMARK H PARENT 11 12 17 23
REMARK Flexibility Score: inf
ROOT
ATOM      1  C   UNL     1      94.365  94.355  78.563  1.00  0.00     0.010 C 
ENDROOT
BRANCH   1   2
ATOM      2  C   UNL     1      94.319  93.743  79.993  1.00  0.00     0.001 C 
BRANCH   2   3
ATOM      3  C   UNL     1      95.644  93.976  80.776  1.00  0.00     0.000 C 
BRANCH   3   4
ATOM      4  C   UNL     1      95.578  95.162  81.780  1.00  0.00    -0.000 C 
BRANCH   4   5
ATOM      5  C   UNL     1      96.841  96.068  81.721  1.00  0.00    -0.000 C 
BRANCH   5   6
ATOM      6  C   UNL     1      97.418  96.193  80.285  1.00  0.00    -0.003 C 
ATOM      7  C   UNL     1      96.897  97.438  79.535  1.00  0.00     0.004 C 
ENDBRANCH   5   6
ENDBRANCH   4   5
ENDBRANCH   3   4
ENDBRANCH   2   3
ENDBRANCH   1   2
BRANCH   1   8
ATOM      8  C   UNL     1      93.713  95.762  78.460  1.00  0.00     0.100 C 
BRANCH   8   9
ATOM      9  C   UNL     1      92.345  95.683  77.893  1.00  0.00     0.220 C 
ATOM     10  O   UNL     1      92.015  96.516  77.015  1.00  0.00    -0.275 OA
ATOM     11  N   UNL     1      91.480  94.708  78.301  1.00  0.00    -0.352 N 
ATOM     12  H   UNL     1      91.816  94.148  79.071  1.00  0.00     0.163 HD
BRANCH  11  13
ATOM     13  C   UNL     1      90.194  94.441  77.733  1.00  0.00     0.151 C 
BRANCH  13  14
ATOM     14  C   UNL     1      90.227  93.489  76.590  1.00  0.00    -0.025 A 
ATOM     15  C   UNL     1      89.216  93.530  75.600  1.00  0.00     0.056 A 
ATOM     16  C   UNL     1      91.259  92.530  76.473  1.00  0.00     0.009 A 
ATOM     17  C   UNL     1      89.244  92.644  74.499  1.00  0.00     0.160 A 
ATOM     18  C   UNL     1      91.292  91.646  75.379  1.00  0.00     0.050 A 
ATOM     19  C   UNL     1      90.285  91.694  74.396  1.00  0.00     0.157 A 
BRANCH  17  20
ATOM     20  O   UNL     1      88.240  92.657  73.563  1.00  0.00    -0.493 OA
ATOM     21  C   UNL     1      87.344  91.535  73.646  1.00  0.00     0.278 C 
ENDBRANCH  17  20
BRANCH  19  22
ATOM     22  O   UNL     1      90.311  90.819  73.359  1.00  0.00    -0.504 OA
ATOM     23  H   UNL     1      90.672  89.980  73.657  1.00  0.00     0.293 HD
ENDBRANCH  19  22
ENDBRANCH  13  14
ENDBRANCH  11  13
ENDBRANCH   8   9
ENDBRANCH   1   8
TORSDOF 11
ENDMDL
MODEL 7
REMARK VINA RESULT:    -5.242      2.692      4.488
REMARK INTER + INTRA:          -9.616
REMARK INTER:                  -8.718
REMARK INTRA:                  -0.898
REMARK UNBOUND:                -1.157
REMARK SMILES CCCCCCCCC(=O)NCc1ccc(O)c(OC)c1
REMARK SMILES IDX 7 1 6 2 5 3 4 4 3 5 2 6 1 7 8 8 9 9 10 10 11 11 12 13 13 14
REMARK SMILES IDX 21 15 14 16 18 17 15 18 16 19 19 20 20 21 17 22
REMARK H PARENT 11 12 17 23
REMARK Flexibility Score: inf
ROOT
ATOM      1  C   UNL     1      95.317  95.341  78.640  1.00  0.00     0.010 C 
ENDROOT
BRANCH   1   2
ATOM      2  C   UNL     1      93.845  95.840  78.570  1.00  0.00     0.001 C 
BRANCH   2   3
ATOM      3  C   UNL     1      93.165  95.480  77.216  1.00  0.00     0.000 C 
BRANCH   3   4
ATOM      4  C   UNL     1      92.350  94.156  77.256  1.00  0.00    -0.000 C 
BRANCH   4   5
ATOM      5  C   UNL     1      91.587  93.962  78.598  1.00  0.00    -0.000 C 
BRANCH   5   6
ATOM      6  C   UNL     1      90.091  93.602  78.386  1.00  0.00    -0.003 C 
ATOM      7  C   UNL     1      89.342  94.636  77.517  1.00  0.00     0.004 C 
ENDBRANCH   5   6
ENDBRANCH   4   5
ENDBRANCH   3   4
ENDBRANCH   2   3
ENDBRANCH   1   2
BRANCH   1   8
ATOM      8  C   UNL     1      95.494  94.008  79.420  1.00  0.00     0.100 C 
BRANCH   8   9
ATOM      9  C   UNL     1      95.341  94.213  80.880  1.00  0.00     0.220 C 
ATOM     10  O   UNL     1      94.767  93.321  81.550  1.00  0.00    -0.275 OA
ATOM     11  N   UNL     1      95.841  95.334  81.480  1.00  0.00    -0.352 N 
ATOM     12  H   UNL     1      96.204  96.023  80.838  1.00  0.00     0.163 HD
BRANCH  11  13
ATOM     13  C   UNL     1      95.882  95.580  82.889  1.00  0.00     0.151 C 
BRANCH  13  14
ATOM     14  C   UNL     1      95.790  97.020  83.250  1.00  0.00    -0.025 A 
ATOM     15  C   UNL     1      96.324  97.482  84.477  1.00  0.00     0.056 A 
ATOM     16  C   UNL     1      95.169  97.949  82.383  1.00  0.00     0.009 A 
ATOM     17  C   UNL     1      96.259  98.851  84.826  1.00  0.00     0.160 A 
ATOM     18  C   UNL     1      95.102  99.311  82.724  1.00  0.00     0.050 A 
ATOM     19  C   UNL     1      95.638  99.765  83.946  1.00  0.00     0.157 A 
BRANCH  17  20
ATOM     20  O   UNL     1      96.739  99.289  86.035  1.00  0.00    -0.493 OA
ATOM     21  C   UNL     1      96.124  98.664  87.175  1.00  0.00     0.278 C 
ENDBRANCH  17  20
BRANCH  19  22
ATOM     22  O   UNL     1      95.544 101.077  84.278  1.00  0.00    -0.504 OA
ATOM     23  H   UNL     1      95.342 101.593  83.494  1.00  0.00     0.293 HD
ENDBRANCH  19  22
ENDBRANCH  13  14
ENDBRANCH  11  13
ENDBRANCH   8   9
ENDBRANCH   1   8
TORSDOF 11
ENDMDL
MODEL 8
REMARK VINA RESULT:    -5.204      2.502      4.814
REMARK INTER + INTRA:          -9.555
REMARK INTER:                  -8.474
REMARK INTRA:                  -1.080
REMARK UNBOUND:                -1.157
REMARK SMILES CCCCCCCCC(=O)NCc1ccc(O)c(OC)c1
REMARK SMILES IDX 7 1 6 2 5 3 4 4 3 5 2 6 1 7 8 8 9 9 10 10 11 11 12 13 13 14
REMARK SMILES IDX 21 15 14 16 18 17 15 18 16 19 19 20 20 21 17 22
REMARK H PARENT 11 12 17 23
REMARK Flexibility Score: inf
ROOT
ATOM      1  C   UNL     1      94.651  94.050  79.243  1.00  0.00     0.010 C 
ENDROOT
BRANCH   1   2
ATOM      2  C   UNL     1      93.320  94.833  79.432  1.00  0.00     0.001 C 
BRANCH   2   3
ATOM      3  C   UNL     1      92.121  94.136  78.726  1.00  0.00     0.000 C 
BRANCH   3   4
ATOM      4  C   UNL     1      91.758  94.757  77.347  1.00  0.00    -0.000 C 
BRANCH   4   5
ATOM      5  C   UNL     1      92.042  96.285  77.284  1.00  0.00    -0.000 C 
BRANCH   5   6
ATOM      6  C   UNL     1      92.879  96.685  76.039  1.00  0.00    -0.003 C 
ATOM      7  C   UNL     1      94.210  95.908  75.937  1.00  0.00     0.004 C 
ENDBRANCH   5   6
ENDBRANCH   4   5
ENDBRANCH   3   4
ENDBRANCH   2   3
ENDBRANCH   1   2
BRANCH   1   8
ATOM      8  C   UNL     1      95.055  93.189  80.472  1.00  0.00     0.100 C 
BRANCH   8   9
ATOM      9  C   UNL     1      95.647  94.024  81.545  1.00  0.00     0.220 C 
ATOM     10  O   UNL     1      95.214  93.886  82.714  1.00  0.00    -0.275 OA
ATOM     11  N   UNL     1      96.658  94.898  81.266  1.00  0.00    -0.352 N 
ATOM     12  H   UNL     1      96.868  94.993  80.283  1.00  0.00     0.163 HD
BRANCH  11  13
ATOM     13  C   UNL     1      97.402  95.651  82.229  1.00  0.00     0.151 C 
BRANCH  13  14
ATOM     14  C   UNL     1      96.761  96.936  82.614  1.00  0.00    -0.025 A 
ATOM     15  C   UNL     1      96.739  97.343  83.970  1.00  0.00     0.056 A 
ATOM     16  C   UNL     1      96.160  97.769  81.642  1.00  0.00     0.009 A 
ATOM     17  C   UNL     1      96.148  98.570  84.349  1.00  0.00     0.160 A 
ATOM     18  C   UNL     1      95.572  98.991  82.013  1.00  0.00     0.050 A 
ATOM     19  C   UNL     1      95.556  99.391  83.363  1.00  0.00     0.157 A 
BRANCH  17  20
ATOM     20  O   UNL     1      96.091  98.943  85.668  1.00  0.00    -0.493 OA
ATOM     21  C   UNL     1      97.354  99.353  86.220  1.00  0.00     0.278 C 
ENDBRANCH  17  20
BRANCH  19  22
ATOM     22  O   UNL     1      94.962 100.560  83.714  1.00  0.00    -0.504 OA
ATOM     23  H   UNL     1      94.032 100.530  83.477  1.00  0.00     0.293 HD
ENDBRANCH  19  22
ENDBRANCH  13  14
ENDBRANCH  11  13
ENDBRANCH   8   9
ENDBRANCH   1   8
TORSDOF 11
ENDMDL
MODEL 9
REMARK VINA RESULT:    -5.175     22.506     25.027
REMARK INTER + INTRA:          -9.508
REMARK INTER:                  -8.319
REMARK INTRA:                  -1.189
REMARK UNBOUND:                -1.157
REMARK SMILES CCCCCCCCC(=O)NCc1ccc(O)c(OC)c1
REMARK SMILES IDX 7 1 6 2 5 3 4 4 3 5 2 6 1 7 8 8 9 9 10 10 11 11 12 13 13 14
REMARK SMILES IDX 21 15 14 16 18 17 15 18 16 19 19 20 20 21 17 22
REMARK H PARENT 11 12 17 23
REMARK Flexibility Score: inf
ROOT
ATOM      1  C   UNL     1      77.345  84.509  65.753  1.00  0.00     0.010 C 
ENDROOT
BRANCH   1   2
ATOM      2  C   UNL     1      77.548  83.950  64.315  1.00  0.00     0.001 C 
BRANCH   2   3
ATOM      3  C   UNL     1      76.260  84.073  63.448  1.00  0.00     0.000 C 
BRANCH   3   4
ATOM      4  C   UNL     1      75.701  82.707  62.960  1.00  0.00    -0.000 C 
BRANCH   4   5
ATOM      5  C   UNL     1      76.108  81.526  63.886  1.00  0.00    -0.000 C 
BRANCH   5   6
ATOM      6  C   UNL     1      74.971  81.113  64.860  1.00  0.00    -0.003 C 
ATOM      7  C   UNL     1      75.310  81.411  66.338  1.00  0.00     0.004 C 
ENDBRANCH   5   6
ENDBRANCH   4   5
ENDBRANCH   3   4
ENDBRANCH   2   3
ENDBRANCH   1   2
BRANCH   1   8
ATOM      8  C   UNL     1      78.150  83.750  66.843  1.00  0.00     0.100 C 
BRANCH   8   9
ATOM      9  C   UNL     1      77.942  84.348  68.184  1.00  0.00     0.220 C 
ATOM     10  O   UNL     1      78.712  85.268  68.551  1.00  0.00    -0.275 OA
ATOM     11  N   UNL     1      76.918  83.925  68.981  1.00  0.00    -0.352 N 
ATOM     12  H   UNL     1      76.416  83.124  68.626  1.00  0.00     0.163 HD
BRANCH  11  13
ATOM     13  C   UNL     1      76.528  84.514  70.226  1.00  0.00     0.151 C 
BRANCH  13  14
ATOM     14  C   UNL     1      75.644  85.701  70.078  1.00  0.00    -0.025 A 
ATOM     15  C   UNL     1      74.301  85.540  69.659  1.00  0.00     0.056 A 
ATOM     16  C   UNL     1      76.123  87.003  70.347  1.00  0.00     0.009 A 
ATOM     17  C   UNL     1      73.443  86.657  69.531  1.00  0.00     0.160 A 
ATOM     18  C   UNL     1      75.275  88.118  70.223  1.00  0.00     0.050 A 
ATOM     19  C   UNL     1      73.939  87.951  69.808  1.00  0.00     0.157 A 
BRANCH  17  20
ATOM     20  O   UNL     1      72.155  86.504  69.085  1.00  0.00    -0.493 OA
ATOM     21  C   UNL     1      71.204  86.202  70.121  1.00  0.00     0.278 C 
ENDBRANCH  17  20
BRANCH  19  22
ATOM     22  O   UNL     1      73.136  89.035  69.665  1.00  0.00    -0.504 OA
ATOM     23  H   UNL     1      73.669  89.833  69.684  1.00  0.00     0.293 HD
ENDBRANCH  19  22
ENDBRANCH  13  14
ENDBRANCH  11  13
ENDBRANCH   8   9
ENDBRANCH   1   8
TORSDOF 11
ENDMDL
MODEL 10
REMARK VINA RESULT:    -5.110     23.155     26.812
REMARK INTER + INTRA:          -9.403
REMARK INTER:                  -8.222
REMARK INTRA:                  -1.181
REMARK UNBOUND:                -1.157
REMARK SMILES CCCCCCCCC(=O)NCc1ccc(O)c(OC)c1
REMARK SMILES IDX 7 1 6 2 5 3 4 4 3 5 2 6 1 7 8 8 9 9 10 10 11 11 12 13 13 14
REMARK SMILES IDX 21 15 14 16 18 17 15 18 16 19 19 20 20 21 17 22
REMARK H PARENT 11 12 17 23
REMARK Flexibility Score: inf
ROOT
ATOM      1  C   UNL     1      77.392  87.128  66.601  1.00  0.00     0.010 C 
ENDROOT
BRANCH   1   2
ATOM      2  C   UNL     1      78.050  86.565  67.894  1.00  0.00     0.001 C 
BRANCH   2   3
ATOM      3  C   UNL     1      78.200  85.016  67.852  1.00  0.00     0.000 C 
BRANCH   3   4
ATOM      4  C   UNL     1      77.365  84.276  68.935  1.00  0.00    -0.000 C 
BRANCH   4   5
ATOM      5  C   UNL     1      77.081  85.160  70.182  1.00  0.00    -0.000 C 
BRANCH   5   6
ATOM      6  C   UNL     1      75.562  85.340  70.452  1.00  0.00    -0.003 C 
ATOM      7  C   UNL     1      75.106  86.812  70.354  1.00  0.00     0.004 C 
ENDBRANCH   5   6
ENDBRANCH   4   5
ENDBRANCH   3   4
ENDBRANCH   2   3
ENDBRANCH   1   2
BRANCH   1   8
ATOM      8  C   UNL     1      75.857  86.895  66.523  1.00  0.00     0.100 C 
BRANCH   8   9
ATOM      9  C   UNL     1      75.484  86.166  65.287  1.00  0.00     0.220 C 
ATOM     10  O   UNL     1      74.681  86.712  64.494  1.00  0.00    -0.275 OA
ATOM     11  N   UNL     1      76.028  84.944  65.011  1.00  0.00    -0.352 N 
ATOM     12  H   UNL     1      76.592  84.561  65.755  1.00  0.00     0.163 HD
BRANCH  11  13
ATOM     13  C   UNL     1      75.859  84.210  63.795  1.00  0.00     0.151 C 
BRANCH  13  14
ATOM     14  C   UNL     1      74.943  83.044  63.918  1.00  0.00    -0.025 A 
ATOM     15  C   UNL     1      73.979  83.003  64.954  1.00  0.00     0.056 A 
ATOM     16  C   UNL     1      75.019  81.961  63.013  1.00  0.00     0.009 A 
ATOM     17  C   UNL     1      73.089  81.910  65.073  1.00  0.00     0.160 A 
ATOM     18  C   UNL     1      74.136  80.872  63.126  1.00  0.00     0.050 A 
ATOM     19  C   UNL     1      73.178  80.839  64.157  1.00  0.00     0.157 A 
BRANCH  17  20
ATOM     20  O   UNL     1      72.184  81.853  66.103  1.00  0.00    -0.493 OA
ATOM     21  C   UNL     1      71.904  83.125  66.713  1.00  0.00     0.278 C 
ENDBRANCH  17  20
BRANCH  19  22
ATOM     22  O   UNL     1      72.349  79.770  64.274  1.00  0.00    -0.504 OA
ATOM     23  H   UNL     1      72.849  79.009  64.577  1.00  0.00     0.293 HD
ENDBRANCH  19  22
ENDBRANCH  13  14
ENDBRANCH  11  13
ENDBRANCH   8   9
ENDBRANCH   1   8
TORSDOF 11
ENDMDL
