MODEL 1
REMARK VINA RESULT:    -6.441      0.000      0.000
REMARK INTER + INTRA:         -10.558
REMARK INTER:                 -10.019
REMARK INTRA:                  -0.539
REMARK UNBOUND:                -0.539
REMARK SMILES COc1cc(CNC(=O)CCCC/C=C/C(C)C)ccc1O
REMARK SMILES IDX 10 1 8 2 7 3 9 5 6 6 5 7 3 8 21 9 4 10 20 11 19 12 2 13 1 14
REMARK SMILES IDX 22 15 11 17 12 18 13 19 14 20 15 21 16 22 17 23 18 24
REMARK H PARENT 7 4 22 16
REMARK Flexibility Score: inf
ROOT
ATOM      1  C   UNL     1      92.645 100.104  74.083  1.00  0.00     0.100 C 
ENDROOT
BRANCH   1   2
ATOM      2  C   UNL     1      93.661  99.175  74.613  1.00  0.00     0.220 C 
ATOM      3  N   UNL     1      93.433  98.486  75.766  1.00  0.00    -0.352 N 
ATOM      4  H   UNL     1      92.549  98.684  76.214  1.00  0.00     0.163 HD
ATOM      5  O   UNL     1      94.723  99.025  73.962  1.00  0.00    -0.275 OA
BRANCH   3   6
ATOM      6  C   UNL     1      94.336  97.543  76.344  1.00  0.00     0.151 C 
BRANCH   6   7
ATOM      7  C   UNL     1      93.612  96.487  77.104  1.00  0.00    -0.025 A 
ATOM      8  C   UNL     1      91.758  94.875  77.267  1.00  0.00     0.160 A 
ATOM      9  C   UNL     1      92.230  94.460  78.530  1.00  0.00     0.157 A 
ATOM     10  C   UNL     1      92.451  95.885  76.568  1.00  0.00     0.056 A 
ATOM     11  C   UNL     1      93.374  95.065  79.086  1.00  0.00     0.050 A 
ATOM     12  C   UNL     1      94.067  96.064  78.375  1.00  0.00     0.009 A 
BRANCH   8  13
ATOM     13  O   UNL     1      90.607  94.336  76.752  1.00  0.00    -0.493 OA
ATOM     14  C   UNL     1      89.411  95.049  77.114  1.00  0.00     0.278 C 
ENDBRANCH   8  13
BRANCH   9  15
ATOM     15  O   UNL     1      91.593  93.481  79.223  1.00  0.00    -0.504 OA
ATOM     16  H   UNL     1      90.646  93.634  79.198  1.00  0.00     0.293 HD
ENDBRANCH   9  15
ENDBRANCH   6   7
ENDBRANCH   3   6
ENDBRANCH   1   2
BRANCH   1  17
ATOM     17  C   UNL     1      92.608 100.088  72.531  1.00  0.00     0.010 C 
BRANCH  17  18
ATOM     18  C   UNL     1      91.317 100.730  71.949  1.00  0.00     0.005 C 
BRANCH  18  19
ATOM     19  C   UNL     1      90.229  99.673  71.618  1.00  0.00     0.027 C 
BRANCH  19  20
ATOM     20  C   UNL     1      89.943  99.610  70.193  1.00  0.00    -0.031 C 
ATOM     21  C   UNL     1      88.722  99.375  69.677  1.00  0.00    -0.028 C 
BRANCH  21  22
ATOM     22  C   UNL     1      88.453  99.336  68.240  1.00  0.00     0.005 C 
ATOM     23  C   UNL     1      89.360 100.314  67.444  1.00  0.00     0.012 C 
ATOM     24  C   UNL     1      88.600  97.887  67.706  1.00  0.00     0.012 C 
ENDBRANCH  21  22
ENDBRANCH  19  20
ENDBRANCH  18  19
ENDBRANCH  17  18
ENDBRANCH   1  17
TORSDOF 10
ENDMDL
MODEL 2
REMARK VINA RESULT:    -6.355      3.216      8.467
REMARK INTER + INTRA:         -10.423
REMARK INTER:                  -9.819
REMARK INTRA:                  -0.604
REMARK UNBOUND:                -0.539
REMARK SMILES COc1cc(CNC(=O)CCCC/C=C/C(C)C)ccc1O
REMARK SMILES IDX 10 1 8 2 7 3 9 5 6 6 5 7 3 8 21 9 4 10 20 11 19 12 2 13 1 14
REMARK SMILES IDX 22 15 11 17 12 18 13 19 14 20 15 21 16 22 17 23 18 24
REMARK H PARENT 7 4 22 16
REMARK Flexibility Score: inf
ROOT
ATOM      1  C   UNL     1      92.846 100.242  74.994  1.00  0.00     0.100 C 
ENDROOT
BRANCH   1   2
ATOM      2  C   UNL     1      92.854 100.646  73.574  1.00  0.00     0.220 C 
ATOM      3  N   UNL     1      92.064 100.005  72.668  1.00  0.00    -0.352 N 
ATOM      4  H   UNL     1      91.515  99.244  73.044  1.00  0.00     0.163 HD
ATOM      5  O   UNL     1      93.589 101.605  73.236  1.00  0.00    -0.275 OA
BRANCH   3   6
ATOM      6  C   UNL     1      91.976 100.339  71.283  1.00  0.00     0.151 C 
BRANCH   6   7
ATOM      7  C   UNL     1      90.866  99.606  70.614  1.00  0.00    -0.025 A 
ATOM      8  C   UNL     1      89.087  99.529  68.913  1.00  0.00     0.160 A 
ATOM      9  C   UNL     1      88.760  98.218  69.314  1.00  0.00     0.157 A 
ATOM     10  C   UNL     1      90.134 100.212  69.567  1.00  0.00     0.056 A 
ATOM     11  C   UNL     1      89.467  97.608  70.369  1.00  0.00     0.050 A 
ATOM     12  C   UNL     1      90.519  98.293  71.008  1.00  0.00     0.009 A 
BRANCH   8  13
ATOM     13  O   UNL     1      88.358 100.151  67.931  1.00  0.00    -0.493 OA
ATOM     14  C   UNL     1      88.651 101.552  67.780  1.00  0.00     0.278 C 
ENDBRANCH   8  13
BRANCH   9  15
ATOM     15  O   UNL     1      87.766  97.528  68.696  1.00  0.00    -0.504 OA
ATOM     16  H   UNL     1      87.672  97.841  67.793  1.00  0.00     0.293 HD
ENDBRANCH   9  15
ENDBRANCH   6   7
ENDBRANCH   3   6
ENDBRANCH   1   2
BRANCH   1  17
ATOM     17  C   UNL     1      93.828  99.070  75.261  1.00  0.00     0.010 C 
BRANCH  17  18
ATOM     18  C   UNL     1      93.108  97.699  75.408  1.00  0.00     0.005 C 
BRANCH  18  19
ATOM     19  C   UNL     1      93.660  96.866  76.596  1.00  0.00     0.027 C 
BRANCH  19  20
ATOM     20  C   UNL     1      92.616  96.099  77.258  1.00  0.00    -0.031 C 
ATOM     21  C   UNL     1      92.277  94.840  76.925  1.00  0.00    -0.028 C 
BRANCH  21  22
ATOM     22  C   UNL     1      91.237  94.080  77.618  1.00  0.00     0.005 C 
ATOM     23  C   UNL     1      89.866  94.812  77.607  1.00  0.00     0.012 C 
ATOM     24  C   UNL     1      91.111  92.661  77.004  1.00  0.00     0.012 C 
ENDBRANCH  21  22
ENDBRANCH  19  20
ENDBRANCH  18  19
ENDBRANCH  17  18
ENDBRANCH   1  17
TORSDOF 10
ENDMDL
MODEL 3
REMARK VINA RESULT:    -6.326      5.505      6.778
REMARK INTER + INTRA:         -10.379
REMARK INTER:                  -9.269
REMARK INTRA:                  -1.110
REMARK UNBOUND:                -0.539
REMARK SMILES COc1cc(CNC(=O)CCCC/C=C/C(C)C)ccc1O
REMARK SMILES IDX 10 1 8 2 7 3 9 5 6 6 5 7 3 8 21 9 4 10 20 11 19 12 2 13 1 14
REMARK SMILES IDX 22 15 11 17 12 18 13 19 14 20 15 21 16 22 17 23 18 24
REMARK H PARENT 7 4 22 16
REMARK Flexibility Score: inf
ROOT
ATOM      1  C   UNL     1      95.468  99.058  75.997  1.00  0.00     0.100 C 
ENDROOT
BRANCH   1   2
ATOM      2  C   UNL     1      95.578  99.517  77.394  1.00  0.00     0.220 C 
ATOM      3  N   UNL     1      96.013  98.670  78.369  1.00  0.00    -0.352 N 
ATOM      4  H   UNL     1      96.219  97.731  78.057  1.00  0.00     0.163 HD
ATOM      5  O   UNL     1      95.284 100.710  77.650  1.00  0.00    -0.275 OA
BRANCH   3   6
ATOM      6  C   UNL     1      96.184  99.025  79.741  1.00  0.00     0.151 C 
BRANCH   6   7
ATOM      7  C   UNL     1      95.927  97.868  80.641  1.00  0.00    -0.025 A 
ATOM      8  C   UNL     1      95.855  95.435  81.013  1.00  0.00     0.160 A 
ATOM      9  C   UNL     1      95.459  95.650  82.350  1.00  0.00     0.157 A 
ATOM     10  C   UNL     1      96.083  96.544  80.172  1.00  0.00     0.056 A 
ATOM     11  C   UNL     1      95.280  96.964  82.826  1.00  0.00     0.050 A 
ATOM     12  C   UNL     1      95.521  98.065  81.982  1.00  0.00     0.009 A 
BRANCH   8  13
ATOM     13  O   UNL     1      95.967  94.157  80.526  1.00  0.00    -0.493 OA
ATOM     14  C   UNL     1      94.748  93.635  79.964  1.00  0.00     0.278 C 
ENDBRANCH   8  13
BRANCH   9  15
ATOM     15  O   UNL     1      95.244  94.604  83.189  1.00  0.00    -0.504 OA
ATOM     16  H   UNL     1      94.517  94.072  82.859  1.00  0.00     0.293 HD
ENDBRANCH   9  15
ENDBRANCH   6   7
ENDBRANCH   3   6
ENDBRANCH   1   2
BRANCH   1  17
ATOM     17  C   UNL     1      95.869  97.565  75.852  1.00  0.00     0.010 C 
BRANCH  17  18
ATOM     18  C   UNL     1      94.658  96.642  75.535  1.00  0.00     0.005 C 
BRANCH  18  19
ATOM     19  C   UNL     1      94.254  95.761  76.747  1.00  0.00     0.027 C 
BRANCH  19  20
ATOM     20  C   UNL     1      92.898  95.247  76.623  1.00  0.00    -0.031 C 
ATOM     21  C   UNL     1      92.126  94.890  77.665  1.00  0.00    -0.028 C 
BRANCH  21  22
ATOM     22  C   UNL     1      90.758  94.394  77.517  1.00  0.00     0.005 C 
ATOM     23  C   UNL     1      90.365  93.403  78.648  1.00  0.00     0.012 C 
ATOM     24  C   UNL     1      89.762  95.581  77.451  1.00  0.00     0.012 C 
ENDBRANCH  21  22
ENDBRANCH  19  20
ENDBRANCH  18  19
ENDBRANCH  17  18
ENDBRANCH   1  17
TORSDOF 10
ENDMDL
MODEL 4
REMARK VINA RESULT:    -6.294      5.014      6.661
REMARK INTER + INTRA:         -10.329
REMARK INTER:                  -9.539
REMARK INTRA:                  -0.790
REMARK UNBOUND:                -0.539
REMARK SMILES COc1cc(CNC(=O)CCCC/C=C/C(C)C)ccc1O
REMARK SMILES IDX 10 1 8 2 7 3 9 5 6 6 5 7 3 8 21 9 4 10 20 11 19 12 2 13 1 14
REMARK SMILES IDX 22 15 11 17 12 18 13 19 14 20 15 21 16 22 17 23 18 24
REMARK H PARENT 7 4 22 16
REMARK Flexibility Score: inf
ROOT
ATOM      1  C   UNL     1      93.007  97.136  75.822  1.00  0.00     0.100 C 
ENDROOT
BRANCH   1   2
ATOM      2  C   UNL     1      94.181  97.661  76.546  1.00  0.00     0.220 C 
ATOM      3  N   UNL     1      94.680  96.997  77.627  1.00  0.00    -0.352 N 
ATOM      4  H   UNL     1      94.174  96.162  77.886  1.00  0.00     0.163 HD
ATOM      5  O   UNL     1      94.714  98.715  76.124  1.00  0.00    -0.275 OA
BRANCH   3   6
ATOM      6  C   UNL     1      95.827  97.403  78.374  1.00  0.00     0.151 C 
BRANCH   6   7
ATOM      7  C   UNL     1      95.667  97.107  79.824  1.00  0.00    -0.025 A 
ATOM      8  C   UNL     1      95.266  95.488  81.635  1.00  0.00     0.160 A 
ATOM      9  C   UNL     1      95.378  96.522  82.587  1.00  0.00     0.157 A 
ATOM     10  C   UNL     1      95.409  95.790  80.265  1.00  0.00     0.056 A 
ATOM     11  C   UNL     1      95.616  97.844  82.161  1.00  0.00     0.050 A 
ATOM     12  C   UNL     1      95.769  98.134  80.792  1.00  0.00     0.009 A 
BRANCH   8  13
ATOM     13  O   UNL     1      94.970  94.211  82.039  1.00  0.00    -0.493 OA
ATOM     14  C   UNL     1      95.100  93.222  81.001  1.00  0.00     0.278 C 
ENDBRANCH   8  13
BRANCH   9  15
ATOM     15  O   UNL     1      95.259  96.263  83.914  1.00  0.00    -0.504 OA
ATOM     16  H   UNL     1      95.902  96.783  84.402  1.00  0.00     0.293 HD
ENDBRANCH   9  15
ENDBRANCH   6   7
ENDBRANCH   3   6
ENDBRANCH   1   2
BRANCH   1  17
ATOM     17  C   UNL     1      92.537  95.775  76.403  1.00  0.00     0.010 C 
BRANCH  17  18
ATOM     18  C   UNL     1      91.283  95.906  77.312  1.00  0.00     0.005 C 
BRANCH  18  19
ATOM     19  C   UNL     1      90.689  94.525  77.702  1.00  0.00     0.027 C 
BRANCH  19  20
ATOM     20  C   UNL     1      91.147  93.463  76.819  1.00  0.00    -0.031 C 
ATOM     21  C   UNL     1      90.416  92.948  75.814  1.00  0.00    -0.028 C 
BRANCH  21  22
ATOM     22  C   UNL     1      90.905  91.893  74.925  1.00  0.00     0.005 C 
ATOM     23  C   UNL     1      91.358  90.629  75.706  1.00  0.00     0.012 C 
ATOM     24  C   UNL     1      89.824  91.536  73.873  1.00  0.00     0.012 C 
ENDBRANCH  21  22
ENDBRANCH  19  20
ENDBRANCH  18  19
ENDBRANCH  17  18
ENDBRANCH   1  17
TORSDOF 10
ENDMDL
MODEL 5
REMARK VINA RESULT:    -6.201      5.152      6.965
REMARK INTER + INTRA:         -10.185
REMARK INTER:                  -9.373
REMARK INTRA:                  -0.812
REMARK UNBOUND:                -0.539
REMARK SMILES COc1cc(CNC(=O)CCCC/C=C/C(C)C)ccc1O
REMARK SMILES IDX 10 1 8 2 7 3 9 5 6 6 5 7 3 8 21 9 4 10 20 11 19 12 2 13 1 14
REMARK SMILES IDX 22 15 11 17 12 18 13 19 14 20 15 21 16 22 17 23 18 24
REMARK H PARENT 7 4 22 16
REMARK Flexibility Score: inf
ROOT
ATOM      1  C   UNL     1      92.880  97.179  76.128  1.00  0.00     0.100 C 
ENDROOT
BRANCH   1   2
ATOM      2  C   UNL     1      94.133  97.443  76.862  1.00  0.00     0.220 C 
ATOM      3  N   UNL     1      94.596  96.551  77.782  1.00  0.00    -0.352 N 
ATOM      4  H   UNL     1      94.010  95.740  77.924  1.00  0.00     0.163 HD
ATOM      5  O   UNL     1      94.765  98.494  76.595  1.00  0.00    -0.275 OA
BRANCH   3   6
ATOM      6  C   UNL     1      95.810  96.697  78.520  1.00  0.00     0.151 C 
BRANCH   6   7
ATOM      7  C   UNL     1      95.811  95.851  79.745  1.00  0.00    -0.025 A 
ATOM      8  C   UNL     1      96.655  95.386  82.010  1.00  0.00     0.160 A 
ATOM      9  C   UNL     1      95.810  94.260  82.094  1.00  0.00     0.157 A 
ATOM     10  C   UNL     1      96.649  96.169  80.837  1.00  0.00     0.056 A 
ATOM     11  C   UNL     1      94.983  93.919  81.006  1.00  0.00     0.050 A 
ATOM     12  C   UNL     1      94.975  94.714  79.843  1.00  0.00     0.009 A 
BRANCH   8  13
ATOM     13  O   UNL     1      97.509  95.683  83.041  1.00  0.00    -0.493 OA
ATOM     14  C   UNL     1      97.555  97.081  83.381  1.00  0.00     0.278 C 
ENDBRANCH   8  13
BRANCH   9  15
ATOM     15  O   UNL     1      95.782  93.493  83.215  1.00  0.00    -0.504 OA
ATOM     16  H   UNL     1      94.877  93.231  83.402  1.00  0.00     0.293 HD
ENDBRANCH   9  15
ENDBRANCH   6   7
ENDBRANCH   3   6
ENDBRANCH   1   2
BRANCH   1  17
ATOM     17  C   UNL     1      92.268  95.806  76.516  1.00  0.00     0.010 C 
BRANCH  17  18
ATOM     18  C   UNL     1      91.019  95.937  77.432  1.00  0.00     0.005 C 
BRANCH  18  19
ATOM     19  C   UNL     1      90.367  94.563  77.742  1.00  0.00     0.027 C 
BRANCH  19  20
ATOM     20  C   UNL     1      90.864  93.511  76.868  1.00  0.00    -0.031 C 
ATOM     21  C   UNL     1      90.215  93.067  75.776  1.00  0.00    -0.028 C 
BRANCH  21  22
ATOM     22  C   UNL     1      90.743  92.022  74.899  1.00  0.00     0.005 C 
ATOM     23  C   UNL     1      91.286  90.803  75.696  1.00  0.00     0.012 C 
ATOM     24  C   UNL     1      89.660  91.578  73.881  1.00  0.00     0.012 C 
ENDBRANCH  21  22
ENDBRANCH  19  20
ENDBRANCH  18  19
ENDBRANCH  17  18
ENDBRANCH   1  17
TORSDOF 10
ENDMDL
MODEL 6
REMARK VINA RESULT:    -6.173     16.353     19.678
REMARK INTER + INTRA:         -10.140
REMARK INTER:                  -9.516
REMARK INTRA:                  -0.625
REMARK UNBOUND:                -0.539
REMARK SMILES COc1cc(CNC(=O)CCCC/C=C/C(C)C)ccc1O
REMARK SMILES IDX 10 1 8 2 7 3 9 5 6 6 5 7 3 8 21 9 4 10 20 11 19 12 2 13 1 14
REMARK SMILES IDX 22 15 11 17 12 18 13 19 14 20 15 21 16 22 17 23 18 24
REMARK H PARENT 7 4 22 16
REMARK Flexibility Score: inf
ROOT
ATOM      1  C   UNL     1      98.627  82.988  85.017  1.00  0.00     0.100 C 
ENDROOT
BRANCH   1   2
ATOM      2  C   UNL     1      99.366  82.446  83.860  1.00  0.00     0.220 C 
ATOM      3  N   UNL     1      99.188  82.975  82.617  1.00  0.00    -0.352 N 
ATOM      4  H   UNL     1      98.512  83.724  82.565  1.00  0.00     0.163 HD
ATOM      5  O   UNL     1     100.174  81.507  84.061  1.00  0.00    -0.275 OA
BRANCH   3   6
ATOM      6  C   UNL     1      99.877  82.545  81.442  1.00  0.00     0.151 C 
BRANCH   6   7
ATOM      7  C   UNL     1      99.137  82.921  80.207  1.00  0.00    -0.025 A 
ATOM      8  C   UNL     1      99.115  83.323  77.778  1.00  0.00     0.160 A 
ATOM      9  C   UNL     1      97.737  83.619  77.838  1.00  0.00     0.157 A 
ATOM     10  C   UNL     1      99.802  82.980  78.961  1.00  0.00     0.056 A 
ATOM     11  C   UNL     1      97.065  83.583  79.076  1.00  0.00     0.050 A 
ATOM     12  C   UNL     1      97.757  83.228  80.251  1.00  0.00     0.009 A 
BRANCH   8  13
ATOM     13  O   UNL     1      99.788  83.421  76.586  1.00  0.00    -0.493 OA
ATOM     14  C   UNL     1     101.084  82.794  76.591  1.00  0.00     0.278 C 
ENDBRANCH   8  13
BRANCH   9  15
ATOM     15  O   UNL     1      97.044  83.940  76.715  1.00  0.00    -0.504 OA
ATOM     16  H   UNL     1      96.151  83.595  76.781  1.00  0.00     0.293 HD
ENDBRANCH   9  15
ENDBRANCH   6   7
ENDBRANCH   3   6
ENDBRANCH   1   2
BRANCH   1  17
ATOM     17  C   UNL     1      97.391  83.814  84.571  1.00  0.00     0.010 C 
BRANCH  17  18
ATOM     18  C   UNL     1      96.255  83.823  85.632  1.00  0.00     0.005 C 
BRANCH  18  19
ATOM     19  C   UNL     1      95.886  82.395  86.115  1.00  0.00     0.027 C 
BRANCH  19  20
ATOM     20  C   UNL     1      94.476  82.281  86.460  1.00  0.00    -0.031 C 
ATOM     21  C   UNL     1      93.887  81.142  86.867  1.00  0.00    -0.028 C 
BRANCH  21  22
ATOM     22  C   UNL     1      92.472  81.054  87.228  1.00  0.00     0.005 C 
ATOM     23  C   UNL     1      91.549  80.987  85.979  1.00  0.00     0.012 C 
ATOM     24  C   UNL     1      92.231  79.839  88.160  1.00  0.00     0.012 C 
ENDBRANCH  21  22
ENDBRANCH  19  20
ENDBRANCH  18  19
ENDBRANCH  17  18
ENDBRANCH   1  17
TORSDOF 10
ENDMDL
MODEL 7
REMARK VINA RESULT:    -6.095      1.191      2.500
REMARK INTER + INTRA:         -10.020
REMARK INTER:                  -9.307
REMARK INTRA:                  -0.713
REMARK UNBOUND:                -0.539
REMARK SMILES COc1cc(CNC(=O)CCCC/C=C/C(C)C)ccc1O
REMARK SMILES IDX 10 1 8 2 7 3 9 5 6 6 5 7 3 8 21 9 4 10 20 11 19 12 2 13 1 14
REMARK SMILES IDX 22 15 11 17 12 18 13 19 14 20 15 21 16 22 17 23 18 24
REMARK H PARENT 7 4 22 16
REMARK Flexibility Score: inf
ROOT
ATOM      1  C   UNL     1      93.318  99.742  74.536  1.00  0.00     0.100 C 
ENDROOT
BRANCH   1   2
ATOM      2  C   UNL     1      94.127  98.631  75.072  1.00  0.00     0.220 C 
ATOM      3  N   UNL     1      94.061  98.302  76.393  1.00  0.00    -0.352 N 
ATOM      4  H   UNL     1      93.449  98.884  76.948  1.00  0.00     0.163 HD
ATOM      5  O   UNL     1      94.853  97.989  74.276  1.00  0.00    -0.275 OA
BRANCH   3   6
ATOM      6  C   UNL     1      94.776  97.227  77.002  1.00  0.00     0.151 C 
BRANCH   6   7
ATOM      7  C   UNL     1      93.852  96.209  77.574  1.00  0.00    -0.025 A 
ATOM      8  C   UNL     1      93.347  94.519  79.291  1.00  0.00     0.160 A 
ATOM      9  C   UNL     1      92.095  94.280  78.689  1.00  0.00     0.157 A 
ATOM     10  C   UNL     1      94.214  95.478  78.728  1.00  0.00     0.056 A 
ATOM     11  C   UNL     1      91.728  94.988  77.527  1.00  0.00     0.050 A 
ATOM     12  C   UNL     1      92.596  95.952  76.978  1.00  0.00     0.009 A 
BRANCH   8  13
ATOM     13  O   UNL     1      93.736  93.786  80.384  1.00  0.00    -0.493 OA
ATOM     14  C   UNL     1      95.128  93.419  80.379  1.00  0.00     0.278 C 
ENDBRANCH   8  13
BRANCH   9  15
ATOM     15  O   UNL     1      91.231  93.373  79.214  1.00  0.00    -0.504 OA
ATOM     16  H   UNL     1      90.339  93.574  78.923  1.00  0.00     0.293 HD
ENDBRANCH   9  15
ENDBRANCH   6   7
ENDBRANCH   3   6
ENDBRANCH   1   2
BRANCH   1  17
ATOM     17  C   UNL     1      93.275  99.723  72.985  1.00  0.00     0.010 C 
BRANCH  17  18
ATOM     18  C   UNL     1      92.650 101.012  72.381  1.00  0.00     0.005 C 
BRANCH  18  19
ATOM     19  C   UNL     1      91.111 100.899  72.213  1.00  0.00     0.027 C 
BRANCH  19  20
ATOM     20  C   UNL     1      90.718  99.638  71.601  1.00  0.00    -0.031 C 
ATOM     21  C   UNL     1      90.167  99.531  70.378  1.00  0.00    -0.028 C 
BRANCH  21  22
ATOM     22  C   UNL     1      89.799  98.250  69.774  1.00  0.00     0.005 C 
ATOM     23  C   UNL     1      89.615  97.130  70.834  1.00  0.00     0.012 C 
ATOM     24  C   UNL     1      88.519  98.413  68.913  1.00  0.00     0.012 C 
ENDBRANCH  21  22
ENDBRANCH  19  20
ENDBRANCH  18  19
ENDBRANCH  17  18
ENDBRANCH   1  17
TORSDOF 10
ENDMDL
MODEL 8
REMARK VINA RESULT:    -6.075     19.302     22.598
REMARK INTER + INTRA:          -9.987
REMARK INTER:                  -8.715
REMARK INTRA:                  -1.272
REMARK UNBOUND:                -0.539
REMARK SMILES COc1cc(CNC(=O)CCCC/C=C/C(C)C)ccc1O
REMARK SMILES IDX 10 1 8 2 7 3 9 5 6 6 5 7 3 8 21 9 4 10 20 11 19 12 2 13 1 14
REMARK SMILES IDX 22 15 11 17 12 18 13 19 14 20 15 21 16 22 17 23 18 24
REMARK H PARENT 7 4 22 16
REMARK Flexibility Score: inf
ROOT
ATOM      1  C   UNL     1      77.529  87.392  66.850  1.00  0.00     0.100 C 
ENDROOT
BRANCH   1   2
ATOM      2  C   UNL     1      76.347  87.140  66.004  1.00  0.00     0.220 C 
ATOM      3  N   UNL     1      75.227  86.571  66.533  1.00  0.00    -0.352 N 
ATOM      4  H   UNL     1      75.294  86.326  67.511  1.00  0.00     0.163 HD
ATOM      5  O   UNL     1      76.396  87.487  64.799  1.00  0.00    -0.275 OA
BRANCH   3   6
ATOM      6  C   UNL     1      74.023  86.315  65.809  1.00  0.00     0.151 C 
BRANCH   6   7
ATOM      7  C   UNL     1      73.665  84.871  65.836  1.00  0.00    -0.025 A 
ATOM      8  C   UNL     1      74.296  82.529  66.261  1.00  0.00     0.160 A 
ATOM      9  C   UNL     1      72.994  82.114  65.912  1.00  0.00     0.157 A 
ATOM     10  C   UNL     1      74.620  83.901  66.217  1.00  0.00     0.056 A 
ATOM     11  C   UNL     1      72.037  83.067  65.511  1.00  0.00     0.050 A 
ATOM     12  C   UNL     1      72.366  84.437  65.482  1.00  0.00     0.009 A 
BRANCH   8  13
ATOM     13  O   UNL     1      75.249  81.599  66.588  1.00  0.00    -0.493 OA
ATOM     14  C   UNL     1      76.378  81.575  65.694  1.00  0.00     0.278 C 
ENDBRANCH   8  13
BRANCH   9  15
ATOM     15  O   UNL     1      72.646  80.802  65.956  1.00  0.00    -0.504 OA
ATOM     16  H   UNL     1      73.313  80.309  66.438  1.00  0.00     0.293 HD
ENDBRANCH   9  15
ENDBRANCH   6   7
ENDBRANCH   3   6
ENDBRANCH   1   2
BRANCH   1  17
ATOM     17  C   UNL     1      77.947  86.124  67.642  1.00  0.00     0.010 C 
BRANCH  17  18
ATOM     18  C   UNL     1      77.952  86.346  69.181  1.00  0.00     0.005 C 
BRANCH  18  19
ATOM     19  C   UNL     1      76.690  85.757  69.867  1.00  0.00     0.027 C 
BRANCH  19  20
ATOM     20  C   UNL     1      75.679  86.773  70.117  1.00  0.00    -0.031 C 
ATOM     21  C   UNL     1      75.939  88.090  70.218  1.00  0.00    -0.028 C 
BRANCH  21  22
ATOM     22  C   UNL     1      74.903  89.096  70.451  1.00  0.00     0.005 C 
ATOM     23  C   UNL     1      73.865  88.639  71.513  1.00  0.00     0.012 C 
ATOM     24  C   UNL     1      75.550  90.447  70.855  1.00  0.00     0.012 C 
ENDBRANCH  21  22
ENDBRANCH  19  20
ENDBRANCH  18  19
ENDBRANCH  17  18
ENDBRANCH   1  17
TORSDOF 10
ENDMDL
MODEL 9
REMARK VINA RESULT:    -5.980      5.320      7.059
REMARK INTER + INTRA:          -9.840
REMARK INTER:                  -8.563
REMARK INTRA:                  -1.277
REMARK UNBOUND:                -0.539
REMARK SMILES COc1cc(CNC(=O)CCCC/C=C/C(C)C)ccc1O
REMARK SMILES IDX 10 1 8 2 7 3 9 5 6 6 5 7 3 8 21 9 4 10 20 11 19 12 2 13 1 14
REMARK SMILES IDX 22 15 11 17 12 18 13 19 14 20 15 21 16 22 17 23 18 24
REMARK H PARENT 7 4 22 16
REMARK Flexibility Score: inf
ROOT
ATOM      1  C   UNL     1      95.251  99.656  76.115  1.00  0.00     0.100 C 
ENDROOT
BRANCH   1   2
ATOM      2  C   UNL     1      95.545  99.861  77.546  1.00  0.00     0.220 C 
ATOM      3  N   UNL     1      95.971  98.823  78.320  1.00  0.00    -0.352 N 
ATOM      4  H   UNL     1      96.038  97.935  77.843  1.00  0.00     0.163 HD
ATOM      5  O   UNL     1      95.414 101.016  78.018  1.00  0.00    -0.275 OA
BRANCH   3   6
ATOM      6  C   UNL     1      96.311  98.923  79.703  1.00  0.00     0.151 C 
BRANCH   6   7
ATOM      7  C   UNL     1      96.050  97.647  80.424  1.00  0.00    -0.025 A 
ATOM      8  C   UNL     1      96.451  96.173  82.355  1.00  0.00     0.160 A 
ATOM      9  C   UNL     1      95.550  95.228  81.821  1.00  0.00     0.157 A 
ATOM     10  C   UNL     1      96.694  97.371  81.651  1.00  0.00     0.056 A 
ATOM     11  C   UNL     1      94.915  95.481  80.589  1.00  0.00     0.050 A 
ATOM     12  C   UNL     1      95.155  96.686  79.900  1.00  0.00     0.009 A 
BRANCH   8  13
ATOM     13  O   UNL     1      97.121  95.902  83.521  1.00  0.00    -0.493 OA
ATOM     14  C   UNL     1      98.070  96.915  83.901  1.00  0.00     0.278 C 
ENDBRANCH   8  13
BRANCH   9  15
ATOM     15  O   UNL     1      95.284  94.071  82.480  1.00  0.00    -0.504 OA
ATOM     16  H   UNL     1      95.080  94.264  83.398  1.00  0.00     0.293 HD
ENDBRANCH   9  15
ENDBRANCH   6   7
ENDBRANCH   3   6
ENDBRANCH   1   2
BRANCH   1  17
ATOM     17  C   UNL     1      95.468  98.178  75.691  1.00  0.00     0.010 C 
BRANCH  17  18
ATOM     18  C   UNL     1      94.136  97.392  75.535  1.00  0.00     0.005 C 
BRANCH  18  19
ATOM     19  C   UNL     1      94.256  95.923  76.022  1.00  0.00     0.027 C 
BRANCH  19  20
ATOM     20  C   UNL     1      93.274  95.604  77.047  1.00  0.00    -0.031 C 
ATOM     21  C   UNL     1      91.943  95.707  76.878  1.00  0.00    -0.028 C 
BRANCH  21  22
ATOM     22  C   UNL     1      90.974  95.362  77.917  1.00  0.00     0.005 C 
ATOM     23  C   UNL     1      89.542  95.167  77.346  1.00  0.00     0.012 C 
ATOM     24  C   UNL     1      91.439  94.098  78.687  1.00  0.00     0.012 C 
ENDBRANCH  21  22
ENDBRANCH  19  20
ENDBRANCH  18  19
ENDBRANCH  17  18
ENDBRANCH   1  17
TORSDOF 10
ENDMDL
MODEL 10
REMARK VINA RESULT:    -5.921      2.601      8.287
REMARK INTER + INTRA:          -9.748
REMARK INTER:                  -8.879
REMARK INTRA:                  -0.869
REMARK UNBOUND:                -0.539
REMARK SMILES COc1cc(CNC(=O)CCCC/C=C/C(C)C)ccc1O
REMARK SMILES IDX 10 1 8 2 7 3 9 5 6 6 5 7 3 8 21 9 4 10 20 11 19 12 2 13 1 14
REMARK SMILES IDX 22 15 11 17 12 18 13 19 14 20 15 21 16 22 17 23 18 24
REMARK H PARENT 7 4 22 16
REMARK Flexibility Score: inf
ROOT
ATOM      1  C   UNL     1      93.016  97.394  75.802  1.00  0.00     0.100 C 
ENDROOT
BRANCH   1   2
ATOM      2  C   UNL     1      93.429  98.526  74.950  1.00  0.00     0.220 C 
ATOM      3  N   UNL     1      92.557  99.535  74.670  1.00  0.00    -0.352 N 
ATOM      4  H   UNL     1      91.634  99.422  75.065  1.00  0.00     0.163 HD
ATOM      5  O   UNL     1      94.607  98.542  74.516  1.00  0.00    -0.275 OA
BRANCH   3   6
ATOM      6  C   UNL     1      92.867 100.687  73.885  1.00  0.00     0.151 C 
BRANCH   6   7
ATOM      7  C   UNL     1      91.921 100.844  72.747  1.00  0.00    -0.025 A 
ATOM      8  C   UNL     1      90.617  99.850  70.910  1.00  0.00     0.160 A 
ATOM      9  C   UNL     1      90.102 101.122  70.586  1.00  0.00     0.157 A 
ATOM     10  C   UNL     1      91.522  99.723  71.984  1.00  0.00     0.056 A 
ATOM     11  C   UNL     1      90.506 102.252  71.325  1.00  0.00     0.050 A 
ATOM     12  C   UNL     1      91.401 102.114  72.404  1.00  0.00     0.009 A 
BRANCH   8  13
ATOM     13  O   UNL     1      90.278  98.758  70.152  1.00  0.00    -0.493 OA
ATOM     14  C   UNL     1      89.520  97.763  70.864  1.00  0.00     0.278 C 
ENDBRANCH   8  13
BRANCH   9  15
ATOM     15  O   UNL     1      89.218 101.277  69.566  1.00  0.00    -0.504 OA
ATOM     16  H   UNL     1      88.378 101.585  69.914  1.00  0.00     0.293 HD
ENDBRANCH   9  15
ENDBRANCH   6   7
ENDBRANCH   3   6
ENDBRANCH   1   2
BRANCH   1  17
ATOM     17  C   UNL     1      94.235  96.552  76.266  1.00  0.00     0.010 C 
BRANCH  17  18
ATOM     18  C   UNL     1      94.202  96.227  77.786  1.00  0.00     0.005 C 
BRANCH  18  19
ATOM     19  C   UNL     1      93.782  94.759  78.067  1.00  0.00     0.027 C 
BRANCH  19  20
ATOM     20  C   UNL     1      92.337  94.611  78.150  1.00  0.00    -0.031 C 
ATOM     21  C   UNL     1      91.591  93.952  77.245  1.00  0.00    -0.028 C 
BRANCH  21  22
ATOM     22  C   UNL     1      90.140  93.798  77.359  1.00  0.00     0.005 C 
ATOM     23  C   UNL     1      89.727  93.067  78.667  1.00  0.00     0.012 C 
ATOM     24  C   UNL     1      89.445  95.180  77.254  1.00  0.00     0.012 C 
ENDBRANCH  21  22
ENDBRANCH  19  20
ENDBRANCH  18  19
ENDBRANCH  17  18
ENDBRANCH   1  17
TORSDOF 10
ENDMDL
