MODEL 1
REMARK VINA RESULT:    -6.954      0.000      0.000
REMARK INTER + INTRA:         -12.482
REMARK INTER:                 -11.832
REMARK INTRA:                  -0.650
REMARK UNBOUND:                -0.650
REMARK SMILES C=C(C)[C@]12C[C@@H](C)[C@@]34O[C@](Cc5ccccc5)(O[C@@H]1[C@@H]3C=C(COC(=O)Cc1ccc(O)cc1)C[C@]1(O)C(=O)C(C)=C[C@@H]41)O2
REMARK SMILES IDX 23 1 22 2 21 3 20 4 9 5 8 6 10 7 6 8 18 10 44 11 19 12 5 13
REMARK SMILES IDX 7 14 4 15 11 16 12 17 13 18 17 19 14 20 16 21 15 22 2 23
REMARK SMILES IDX 3 24 1 25 35 26 36 27 43 28 38 29 42 30 39 32 40 33 41 34
REMARK SMILES IDX 37 35 24 37 25 38 26 39 27 40 28 41 29 42 34 43 30 44 33 45
REMARK SMILES IDX 31 46 32 47
REMARK H PARENT 37 36 32 48
REMARK Flexibility Score: 90.00
ROOT
ATOM      1  C   UNL     1      98.670  79.722  81.856  1.00  0.00     0.264 C 
ENDROOT
BRANCH   1   2
ATOM      2  C   UNL     1      98.304  79.907  83.310  1.00  0.00    -0.033 C 
ATOM      3  C   UNL     1      97.191  80.600  83.627  1.00  0.00    -0.015 C 
BRANCH   3   4
ATOM      4  C   UNL     1      96.651  80.987  84.994  1.00  0.00     0.078 C 
ATOM      5  O   UNL     1      95.061  79.217  85.668  1.00  0.00    -0.319 OA
ATOM      6  C   UNL     1      96.333  79.842  86.025  1.00  0.00     0.095 CG0
ATOM      7  C   UNL     1      94.015  80.129  85.282  1.00  0.00     0.289 C 
ATOM      8  C   UNL     1      96.207  80.507  87.457  1.00  0.00     0.023 C 
ATOM      9  G   UNL     1      97.375  78.691  85.912  1.00  0.00     0.000 G0
ATOM     10  O   UNL     1      94.414  80.938  84.179  1.00  0.00    -0.320 OA
ATOM     11  O   UNL     1      93.677  81.041  86.325  1.00  0.00    -0.313 OA
ATOM     12  C   UNL     1      95.350  81.810  84.832  1.00  0.00     0.170 C 
ATOM     13  C   UNL     1      95.614  81.947  87.369  1.00  0.00     0.049 C 
ATOM     14  C   UNL     1      95.417  79.694  88.497  1.00  0.00     0.011 C 
ATOM     15  C   UNL     1      94.655  82.093  86.187  1.00  0.00     0.122 C 
BRANCH   7  16
ATOM     16  C   UNL     1      92.791  79.317  84.907  1.00  0.00     0.135 C 
BRANCH  16  17
ATOM     17  C   UNL     1      91.509  80.042  85.230  1.00  0.00    -0.040 A 
ATOM     18  C   UNL     1      90.962  80.937  84.312  1.00  0.00     0.004 A 
ATOM     19  C   UNL     1      90.870  79.815  86.449  1.00  0.00     0.004 A 
ATOM     20  C   UNL     1      89.776  81.607  84.612  1.00  0.00     0.000 A 
ATOM     21  C   UNL     1      89.683  80.485  86.749  1.00  0.00     0.000 A 
ATOM     22  C   UNL     1      89.137  81.380  85.830  1.00  0.00     0.000 A 
ENDBRANCH  16  17
ENDBRANCH   7  16
BRANCH  15  23
ATOM     23  C   UNL     1      93.938  83.403  86.187  1.00  0.00    -0.046 C 
ATOM     24  C   UNL     1      94.771  84.614  85.886  1.00  0.00     0.042 C 
ATOM     25  C   UNL     1      92.624  83.493  86.443  1.00  0.00     0.010 C 
ENDBRANCH  15  23
ENDBRANCH   3   4
BRANCH   2  26
ATOM     26  C   UNL     1      99.286  79.247  84.260  1.00  0.00     0.078 C 
BRANCH  26  27
ATOM     27  C   UNL     1      98.875  79.143  85.727  1.00  0.00     0.140 C 
ATOM     28  C   UNL     1      97.406  78.704  85.892  1.00  0.00     0.086 CG0
ATOM     29  C   UNL     1      99.625  78.053  86.464  1.00  0.00     0.190 C 
ATOM     30  C   UNL     1      97.475  77.642  86.954  1.00  0.00    -0.010 C 
ATOM     31  G   UNL     1      96.359  79.848  86.023  1.00  0.00     0.000 G0
ATOM     32  O   UNL     1     100.835  77.887  86.441  1.00  0.00    -0.291 OA
ATOM     33  C   UNL     1      98.706  77.234  87.277  1.00  0.00    -0.008 C 
ATOM     34  C   UNL     1      99.143  76.169  88.203  1.00  0.00     0.048 C 
BRANCH  27  35
ATOM     35  O   UNL     1      99.204  80.322  86.443  1.00  0.00    -0.381 OA
ATOM     36  H   UNL     1      98.447  80.930  86.397  1.00  0.00     0.212 HD
ENDBRANCH  27  35
ENDBRANCH  26  27
ENDBRANCH   2  26
ENDBRANCH   1   2
BRANCH   1  37
ATOM     37  O   UNL     1      98.298  80.875  81.131  1.00  0.00    -0.461 OA
BRANCH  37  38
ATOM     38  C   UNL     1      97.567  80.662  79.985  1.00  0.00     0.310 C 
ATOM     39  O   UNL     1      97.434  79.582  79.426  1.00  0.00    -0.252 OA
BRANCH  38  40
ATOM     40  C   UNL     1      96.957  81.965  79.528  1.00  0.00     0.158 C 
BRANCH  40  41
ATOM     41  C   UNL     1      97.010  82.147  78.033  1.00  0.00    -0.037 A 
ATOM     42  C   UNL     1      98.165  81.805  77.329  1.00  0.00     0.008 A 
ATOM     43  C   UNL     1      95.905  82.657  77.352  1.00  0.00     0.008 A 
ATOM     44  C   UNL     1      98.215  81.974  75.945  1.00  0.00     0.046 A 
ATOM     45  C   UNL     1      95.954  82.825  75.968  1.00  0.00     0.046 A 
ATOM     46  C   UNL     1      97.108  82.484  75.265  1.00  0.00     0.115 A 
BRANCH  46  47
ATOM     47  O   UNL     1      97.157  82.649  73.915  1.00  0.00    -0.508 OA
ATOM     48  H   UNL     1      96.263  82.531  73.550  1.00  0.00     0.293 HD
ENDBRANCH  46  47
ENDBRANCH  40  41
ENDBRANCH  38  40
ENDBRANCH  37  38
ENDBRANCH   1  37
TORSDOF 10
ENDMDL
MODEL 2
REMARK VINA RESULT:    -6.908     22.665     26.044
REMARK INTER + INTRA:         -12.405
REMARK INTER:                 -10.556
REMARK INTRA:                  -1.849
REMARK UNBOUND:                -0.650
REMARK SMILES C=C(C)[C@]12C[C@@H](C)[C@@]34O[C@](Cc5ccccc5)(O[C@@H]1[C@@H]3C=C(COC(=O)Cc1ccc(O)cc1)C[C@]1(O)C(=O)C(C)=C[C@@H]41)O2
REMARK SMILES IDX 23 1 22 2 21 3 20 4 9 5 8 6 10 7 6 8 18 10 44 11 19 12 5 13
REMARK SMILES IDX 7 14 4 15 11 16 12 17 13 18 17 19 14 20 16 21 15 22 2 23
REMARK SMILES IDX 3 24 1 25 35 26 36 27 43 28 38 29 42 30 39 32 40 33 41 34
REMARK SMILES IDX 37 35 24 37 25 38 26 39 27 40 28 41 29 42 34 43 30 44 33 45
REMARK SMILES IDX 31 46 32 47
REMARK H PARENT 37 36 32 48
REMARK Flexibility Score: 90.00
ROOT
ATOM      1  C   UNL     1      89.571  98.734  70.432  1.00  0.00     0.264 C 
ENDROOT
BRANCH   1   2
ATOM      2  C   UNL     1      90.555  99.866  70.617  1.00  0.00    -0.033 C 
ATOM      3  C   UNL     1      90.143 101.136  70.425  1.00  0.00    -0.015 C 
BRANCH   3   4
ATOM      4  C   UNL     1      90.943 102.428  70.473  1.00  0.00     0.078 C 
ATOM      5  O   UNL     1      90.805 103.277  72.791  1.00  0.00    -0.319 OA
ATOM      6  C   UNL     1      91.737 102.769  71.787  1.00  0.00     0.095 CG0
ATOM      7  C   UNL     1      89.819 104.206  72.301  1.00  0.00     0.289 C 
ATOM      8  C   UNL     1      92.791 103.898  71.432  1.00  0.00     0.023 C 
ATOM      9  G   UNL     1      92.330 101.479  72.426  1.00  0.00     0.000 G0
ATOM     10  O   UNL     1      89.043 103.633  71.253  1.00  0.00    -0.320 OA
ATOM     11  O   UNL     1      90.409 105.380  71.747  1.00  0.00    -0.313 OA
ATOM     12  C   UNL     1      90.013 103.634  70.194  1.00  0.00     0.170 C 
ATOM     13  C   UNL     1      92.249 104.859  70.330  1.00  0.00     0.049 C 
ATOM     14  C   UNL     1      93.301 104.725  72.624  1.00  0.00     0.011 C 
ATOM     15  C   UNL     1      90.727 104.993  70.394  1.00  0.00     0.122 C 
BRANCH   7  16
ATOM     16  C   UNL     1      88.917 104.593  73.456  1.00  0.00     0.135 C 
BRANCH  16  17
ATOM     17  C   UNL     1      89.573 104.355  74.793  1.00  0.00    -0.040 A 
ATOM     18  C   UNL     1      90.381 105.340  75.360  1.00  0.00     0.004 A 
ATOM     19  C   UNL     1      89.371 103.148  75.462  1.00  0.00     0.004 A 
ATOM     20  C   UNL     1      90.988 105.119  76.597  1.00  0.00     0.000 A 
ATOM     21  C   UNL     1      89.978 102.927  76.699  1.00  0.00     0.000 A 
ATOM     22  C   UNL     1      90.786 103.912  77.265  1.00  0.00     0.000 A 
ENDBRANCH  16  17
ENDBRANCH   7  16
BRANCH  15  23
ATOM     23  C   UNL     1      90.204 106.043  69.469  1.00  0.00    -0.046 C 
ATOM     24  C   UNL     1      90.983 107.324  69.415  1.00  0.00     0.042 C 
ATOM     25  C   UNL     1      89.101 105.853  68.730  1.00  0.00     0.010 C 
ENDBRANCH  15  23
ENDBRANCH   3   4
BRANCH   2  26
ATOM     26  C   UNL     1      91.939  99.391  71.020  1.00  0.00     0.078 C 
BRANCH  26  27
ATOM     27  C   UNL     1      92.944 100.458  71.451  1.00  0.00     0.140 C 
ATOM     28  C   UNL     1      92.325 101.484  72.422  1.00  0.00     0.086 CG0
ATOM     29  C   UNL     1      94.084  99.884  72.267  1.00  0.00     0.190 C 
ATOM     30  C   UNL     1      93.360 101.609  73.506  1.00  0.00    -0.010 C 
ATOM     31  G   UNL     1      91.738 102.773  71.775  1.00  0.00     0.000 G0
ATOM     32  O   UNL     1      94.745  98.901  71.966  1.00  0.00    -0.291 OA
ATOM     33  C   UNL     1      94.346 100.707  73.462  1.00  0.00    -0.008 C 
ATOM     34  C   UNL     1      95.469 100.481  74.395  1.00  0.00     0.048 C 
BRANCH  27  35
ATOM     35  O   UNL     1      93.590 101.044  70.333  1.00  0.00    -0.381 OA
ATOM     36  H   UNL     1      93.274 101.959  70.242  1.00  0.00     0.212 HD
ENDBRANCH  27  35
ENDBRANCH  26  27
ENDBRANCH   2  26
ENDBRANCH   1   2
BRANCH   1  37
ATOM     37  O   UNL     1      88.916  98.883  69.190  1.00  0.00    -0.461 OA
BRANCH  37  38
ATOM     38  C   UNL     1      89.462  98.197  68.130  1.00  0.00     0.310 C 
ATOM     39  O   UNL     1      90.195  97.222  68.227  1.00  0.00    -0.252 OA
BRANCH  38  40
ATOM     40  C   UNL     1      89.016  98.832  66.835  1.00  0.00     0.158 C 
BRANCH  40  41
ATOM     41  C   UNL     1      89.518 100.243  66.669  1.00  0.00    -0.037 A 
ATOM     42  C   UNL     1      90.874 100.478  66.442  1.00  0.00     0.008 A 
ATOM     43  C   UNL     1      88.628 101.314  66.743  1.00  0.00     0.008 A 
ATOM     44  C   UNL     1      91.340 101.785  66.289  1.00  0.00     0.046 A 
ATOM     45  C   UNL     1      89.093 102.621  66.590  1.00  0.00     0.046 A 
ATOM     46  C   UNL     1      90.448 102.856  66.363  1.00  0.00     0.115 A 
BRANCH  46  47
ATOM     47  O   UNL     1      90.903 104.130  66.215  1.00  0.00    -0.508 OA
ATOM     48  H   UNL     1      91.204 104.253  65.298  1.00  0.00     0.293 HD
ENDBRANCH  46  47
ENDBRANCH  40  41
ENDBRANCH  38  40
ENDBRANCH  37  38
ENDBRANCH   1  37
TORSDOF 10
ENDMDL
MODEL 3
REMARK VINA RESULT:    -6.874      3.793      7.487
REMARK INTER + INTRA:         -12.346
REMARK INTER:                 -11.537
REMARK INTRA:                  -0.809
REMARK UNBOUND:                -0.650
REMARK SMILES C=C(C)[C@]12C[C@@H](C)[C@@]34O[C@](Cc5ccccc5)(O[C@@H]1[C@@H]3C=C(COC(=O)Cc1ccc(O)cc1)C[C@]1(O)C(=O)C(C)=C[C@@H]41)O2
REMARK SMILES IDX 23 1 22 2 21 3 20 4 9 5 8 6 10 7 6 8 18 10 44 11 19 12 5 13
REMARK SMILES IDX 7 14 4 15 11 16 12 17 13 18 17 19 14 20 16 21 15 22 2 23
REMARK SMILES IDX 3 24 1 25 35 26 36 27 43 28 38 29 42 30 39 32 40 33 41 34
REMARK SMILES IDX 37 35 24 37 25 38 26 39 27 40 28 41 29 42 34 43 30 44 33 45
REMARK SMILES IDX 31 46 32 47
REMARK H PARENT 37 36 32 48
REMARK Flexibility Score: 90.00
ROOT
ATOM      1  C   UNL     1     100.963  79.398  75.282  1.00  0.00     0.264 C 
ENDROOT
BRANCH   1   2
ATOM      2  C   UNL     1     100.379  78.588  76.416  1.00  0.00    -0.033 C 
ATOM      3  C   UNL     1     100.482  79.052  77.679  1.00  0.00    -0.015 C 
BRANCH   3   4
ATOM      4  C   UNL     1     100.052  78.401  78.984  1.00  0.00     0.078 C 
ATOM      5  O   UNL     1      97.766  79.210  79.473  1.00  0.00    -0.319 OA
ATOM      6  C   UNL     1      98.539  78.009  79.161  1.00  0.00     0.095 CG0
ATOM      7  C   UNL     1      98.378  80.107  80.420  1.00  0.00     0.289 C 
ATOM      8  C   UNL     1      98.446  76.997  80.377  1.00  0.00     0.023 C 
ATOM      9  G   UNL     1      97.939  77.499  77.819  1.00  0.00     0.000 G0
ATOM     10  O   UNL     1      99.663  80.533  79.974  1.00  0.00    -0.320 OA
ATOM     11  O   UNL     1      98.595  79.492  81.687  1.00  0.00    -0.313 OA
ATOM     12  C   UNL     1     100.412  79.324  80.175  1.00  0.00     0.170 C 
ATOM     13  C   UNL     1      99.517  77.310  81.465  1.00  0.00     0.049 C 
ATOM     14  C   UNL     1      97.062  76.886  81.040  1.00  0.00     0.011 C 
ATOM     15  C   UNL     1      99.850  78.801  81.520  1.00  0.00     0.122 C 
BRANCH   7  16
ATOM     16  C   UNL     1      97.470  81.308  80.590  1.00  0.00     0.135 C 
BRANCH  16  17
ATOM     17  C   UNL     1      96.708  81.262  81.892  1.00  0.00    -0.040 A 
ATOM     18  C   UNL     1      96.306  82.447  82.507  1.00  0.00     0.004 A 
ATOM     19  C   UNL     1      96.407  80.033  82.478  1.00  0.00     0.004 A 
ATOM     20  C   UNL     1      95.601  82.403  83.710  1.00  0.00     0.000 A 
ATOM     21  C   UNL     1      95.702  79.990  83.682  1.00  0.00     0.000 A 
ATOM     22  C   UNL     1      95.299  81.175  84.297  1.00  0.00     0.000 A 
ENDBRANCH  16  17
ENDBRANCH   7  16
BRANCH  15  23
ATOM     23  C   UNL     1     100.736  79.150  82.671  1.00  0.00    -0.046 C 
ATOM     24  C   UNL     1     102.212  79.106  82.408  1.00  0.00     0.042 C 
ATOM     25  C   UNL     1     100.240  79.483  83.872  1.00  0.00     0.010 C 
ENDBRANCH  15  23
ENDBRANCH   3   4
BRANCH   2  26
ATOM     26  C   UNL     1      99.718  77.304  75.952  1.00  0.00     0.078 C 
BRANCH  26  27
ATOM     27  C   UNL     1      98.883  76.539  76.976  1.00  0.00     0.140 C 
ATOM     28  C   UNL     1      97.964  77.471  77.794  1.00  0.00     0.086 CG0
ATOM     29  C   UNL     1      97.893  75.594  76.329  1.00  0.00     0.190 C 
ATOM     30  C   UNL     1      96.642  76.756  77.783  1.00  0.00    -0.010 C 
ATOM     31  G   UNL     1      98.540  77.991  79.143  1.00  0.00     0.000 G0
ATOM     32  O   UNL     1      98.154  74.793  75.443  1.00  0.00    -0.291 OA
ATOM     33  C   UNL     1      96.560  75.715  76.949  1.00  0.00    -0.008 C 
ATOM     34  C   UNL     1      95.412  74.845  76.622  1.00  0.00     0.048 C 
BRANCH  27  35
ATOM     35  O   UNL     1      99.691  75.689  77.773  1.00  0.00    -0.381 OA
ATOM     36  H   UNL     1      99.846  76.126  78.627  1.00  0.00     0.212 HD
ENDBRANCH  27  35
ENDBRANCH  26  27
ENDBRANCH   2  26
ENDBRANCH   1   2
BRANCH   1  37
ATOM     37  O   UNL     1     100.042  79.436  74.212  1.00  0.00    -0.461 OA
BRANCH  37  38
ATOM     38  C   UNL     1      99.924  80.638  73.554  1.00  0.00     0.310 C 
ATOM     39  O   UNL     1      99.730  80.766  72.354  1.00  0.00    -0.252 OA
BRANCH  38  40
ATOM     40  C   UNL     1     100.070  81.770  74.543  1.00  0.00     0.158 C 
BRANCH  40  41
ATOM     41  C   UNL     1      98.770  82.142  75.207  1.00  0.00    -0.037 A 
ATOM     42  C   UNL     1      98.505  81.717  76.509  1.00  0.00     0.008 A 
ATOM     43  C   UNL     1      97.831  82.911  74.521  1.00  0.00     0.008 A 
ATOM     44  C   UNL     1      97.301  82.060  77.124  1.00  0.00     0.046 A 
ATOM     45  C   UNL     1      96.627  83.256  75.136  1.00  0.00     0.046 A 
ATOM     46  C   UNL     1      96.362  82.830  76.437  1.00  0.00     0.115 A 
BRANCH  46  47
ATOM     47  O   UNL     1      95.187  83.165  77.037  1.00  0.00    -0.508 OA
ATOM     48  H   UNL     1      95.244  84.084  77.352  1.00  0.00     0.293 HD
ENDBRANCH  46  47
ENDBRANCH  40  41
ENDBRANCH  38  40
ENDBRANCH  37  38
ENDBRANCH   1  37
TORSDOF 10
ENDMDL
MODEL 4
REMARK VINA RESULT:    -6.851     23.405     26.906
REMARK INTER + INTRA:         -12.308
REMARK INTER:                 -10.509
REMARK INTRA:                  -1.799
REMARK UNBOUND:                -0.650
REMARK SMILES C=C(C)[C@]12C[C@@H](C)[C@@]34O[C@](Cc5ccccc5)(O[C@@H]1[C@@H]3C=C(COC(=O)Cc1ccc(O)cc1)C[C@]1(O)C(=O)C(C)=C[C@@H]41)O2
REMARK SMILES IDX 23 1 22 2 21 3 20 4 9 5 8 6 10 7 6 8 18 10 44 11 19 12 5 13
REMARK SMILES IDX 7 14 4 15 11 16 12 17 13 18 17 19 14 20 16 21 15 22 2 23
REMARK SMILES IDX 3 24 1 25 35 26 36 27 43 28 38 29 42 30 39 32 40 33 41 34
REMARK SMILES IDX 37 35 24 37 25 38 26 39 27 40 28 41 29 42 34 43 30 44 33 45
REMARK SMILES IDX 31 46 32 47
REMARK H PARENT 37 36 32 48
REMARK Flexibility Score: 90.00
ROOT
ATOM      1  C   UNL     1      89.970  98.563  70.419  1.00  0.00     0.264 C 
ENDROOT
BRANCH   1   2
ATOM      2  C   UNL     1      90.809  99.756  70.813  1.00  0.00    -0.033 C 
ATOM      3  C   UNL     1      92.140  99.727  70.593  1.00  0.00    -0.015 C 
BRANCH   3   4
ATOM      4  C   UNL     1      93.202 100.752  70.961  1.00  0.00     0.078 C 
ATOM      5  O   UNL     1      93.480 102.237  69.004  1.00  0.00    -0.319 OA
ATOM      6  C   UNL     1      93.056 102.215  70.402  1.00  0.00     0.095 CG0
ATOM      7  C   UNL     1      94.674 101.485  68.711  1.00  0.00     0.289 C 
ATOM      8  C   UNL     1      94.009 103.151  71.253  1.00  0.00     0.023 C 
ATOM      9  G   UNL     1      91.560 102.645  70.361  1.00  0.00     0.000 G0
ATOM     10  O   UNL     1      94.531 100.119  69.089  1.00  0.00    -0.320 OA
ATOM     11  O   UNL     1      95.808 101.967  69.428  1.00  0.00    -0.313 OA
ATOM     12  C   UNL     1      94.597 100.246  70.518  1.00  0.00     0.170 C 
ATOM     13  C   UNL     1      95.294 102.394  71.712  1.00  0.00     0.049 C 
ATOM     14  C   UNL     1      94.411 104.474  70.579  1.00  0.00     0.011 C 
ATOM     15  C   UNL     1      95.702 101.313  70.709  1.00  0.00     0.122 C 
BRANCH   7  16
ATOM     16  C   UNL     1      94.941 101.580  67.222  1.00  0.00     0.135 C 
BRANCH  16  17
ATOM     17  C   UNL     1      93.827 102.288  66.490  1.00  0.00    -0.040 A 
ATOM     18  C   UNL     1      93.855 103.675  66.352  1.00  0.00     0.004 A 
ATOM     19  C   UNL     1      92.770 101.554  65.953  1.00  0.00     0.004 A 
ATOM     20  C   UNL     1      92.826 104.330  65.675  1.00  0.00     0.000 A 
ATOM     21  C   UNL     1      91.741 102.208  65.276  1.00  0.00     0.000 A 
ATOM     22  C   UNL     1      91.769 103.596  65.137  1.00  0.00     0.000 A 
ENDBRANCH  16  17
ENDBRANCH   7  16
BRANCH  15  23
ATOM     23  C   UNL     1      97.025 100.700  71.034  1.00  0.00    -0.046 C 
ATOM     24  C   UNL     1      97.034  99.213  71.231  1.00  0.00     0.042 C 
ATOM     25  C   UNL     1      98.140 101.436  71.145  1.00  0.00     0.010 C 
ENDBRANCH  15  23
ENDBRANCH   3   4
BRANCH   2  26
ATOM     26  C   UNL     1      89.995 100.881  71.424  1.00  0.00     0.078 C 
BRANCH  26  27
ATOM     27  C   UNL     1      90.693 102.227  71.607  1.00  0.00     0.140 C 
ATOM     28  C   UNL     1      91.535 102.621  70.376  1.00  0.00     0.086 CG0
ATOM     29  C   UNL     1      89.714 103.378  71.714  1.00  0.00     0.190 C 
ATOM     30  C   UNL     1      91.167 104.061  70.147  1.00  0.00    -0.010 C 
ATOM     31  G   UNL     1      93.036 102.213  70.412  1.00  0.00     0.000 G0
ATOM     32  O   UNL     1      88.732 103.407  72.440  1.00  0.00    -0.291 OA
ATOM     33  C   UNL     1      90.131 104.508  70.862  1.00  0.00    -0.008 C 
ATOM     34  C   UNL     1      89.453 105.821  70.837  1.00  0.00     0.048 C 
BRANCH  27  35
ATOM     35  O   UNL     1      91.409 102.278  72.830  1.00  0.00    -0.381 OA
ATOM     36  H   UNL     1      91.612 101.368  73.105  1.00  0.00     0.212 HD
ENDBRANCH  27  35
ENDBRANCH  26  27
ENDBRANCH   2  26
ENDBRANCH   1   2
BRANCH   1  37
ATOM     37  O   UNL     1      89.116  98.924  69.354  1.00  0.00    -0.461 OA
BRANCH  37  38
ATOM     38  C   UNL     1      89.521  98.546  68.095  1.00  0.00     0.310 C 
ATOM     39  O   UNL     1      89.574  97.393  67.691  1.00  0.00    -0.252 OA
BRANCH  38  40
ATOM     40  C   UNL     1      89.888  99.773  67.295  1.00  0.00     0.158 C 
BRANCH  40  41
ATOM     41  C   UNL     1      88.688 100.576  66.866  1.00  0.00    -0.037 A 
ATOM     42  C   UNL     1      87.565  99.929  66.348  1.00  0.00     0.008 A 
ATOM     43  C   UNL     1      88.698 101.965  66.985  1.00  0.00     0.008 A 
ATOM     44  C   UNL     1      86.454 100.672  65.949  1.00  0.00     0.046 A 
ATOM     45  C   UNL     1      87.587 102.709  66.587  1.00  0.00     0.046 A 
ATOM     46  C   UNL     1      86.465 102.063  66.069  1.00  0.00     0.115 A 
BRANCH  46  47
ATOM     47  O   UNL     1      85.381 102.787  65.680  1.00  0.00    -0.508 OA
ATOM     48  H   UNL     1      84.625 102.186  65.561  1.00  0.00     0.293 HD
ENDBRANCH  46  47
ENDBRANCH  40  41
ENDBRANCH  38  40
ENDBRANCH  37  38
ENDBRANCH   1  37
TORSDOF 10
ENDMDL
MODEL 5
REMARK VINA RESULT:    -6.841     32.463     35.284
REMARK INTER + INTRA:         -12.290
REMARK INTER:                 -10.004
REMARK INTRA:                  -2.286
REMARK UNBOUND:                -0.650
REMARK SMILES C=C(C)[C@]12C[C@@H](C)[C@@]34O[C@](Cc5ccccc5)(O[C@@H]1[C@@H]3C=C(COC(=O)Cc1ccc(O)cc1)C[C@]1(O)C(=O)C(C)=C[C@@H]41)O2
REMARK SMILES IDX 23 1 22 2 21 3 20 4 9 5 8 6 10 7 6 8 18 10 44 11 19 12 5 13
REMARK SMILES IDX 7 14 4 15 11 16 12 17 13 18 17 19 14 20 16 21 15 22 2 23
REMARK SMILES IDX 3 24 1 25 35 26 36 27 43 28 38 29 42 30 39 32 40 33 41 34
REMARK SMILES IDX 37 35 24 37 25 38 26 39 27 40 28 41 29 42 34 43 30 44 33 45
REMARK SMILES IDX 31 46 32 47
REMARK H PARENT 37 36 32 48
REMARK Flexibility Score: 90.00
ROOT
ATOM      1  C   UNL     1      66.638  87.746  71.356  1.00  0.00     0.264 C 
ENDROOT
BRANCH   1   2
ATOM      2  C   UNL     1      66.299  86.391  70.779  1.00  0.00    -0.033 C 
ATOM      3  C   UNL     1      65.302  85.670  71.332  1.00  0.00    -0.015 C 
BRANCH   3   4
ATOM      4  C   UNL     1      64.821  84.268  70.992  1.00  0.00     0.078 C 
ATOM      5  O   UNL     1      63.006  84.512  69.330  1.00  0.00    -0.319 OA
ATOM      6  C   UNL     1      64.352  83.974  69.520  1.00  0.00     0.095 CG0
ATOM      7  C   UNL     1      62.093  84.283  70.420  1.00  0.00     0.289 C 
ATOM      8  C   UNL     1      64.319  82.401  69.332  1.00  0.00     0.023 C 
ATOM      9  G   UNL     1      65.228  84.751  68.494  1.00  0.00     0.000 G0
ATOM     10  O   UNL     1      62.597  84.821  71.639  1.00  0.00    -0.320 OA
ATOM     11  O   UNL     1      61.883  82.895  70.670  1.00  0.00    -0.313 OA
ATOM     12  C   UNL     1      63.643  83.877  71.918  1.00  0.00     0.170 C 
ATOM     13  C   UNL     1      63.927  81.675  70.655  1.00  0.00     0.049 C 
ATOM     14  C   UNL     1      63.428  81.890  68.187  1.00  0.00     0.011 C 
ATOM     15  C   UNL     1      62.994  82.530  71.515  1.00  0.00     0.122 C 
BRANCH   7  16
ATOM     16  C   UNL     1      60.770  84.939  70.077  1.00  0.00     0.135 C 
BRANCH  16  17
ATOM     17  C   UNL     1      60.244  85.780  71.213  1.00  0.00    -0.040 A 
ATOM     18  C   UNL     1      60.542  87.141  71.270  1.00  0.00     0.004 A 
ATOM     19  C   UNL     1      59.459  85.196  72.206  1.00  0.00     0.004 A 
ATOM     20  C   UNL     1      60.054  87.919  72.320  1.00  0.00     0.000 A 
ATOM     21  C   UNL     1      58.971  85.974  73.257  1.00  0.00     0.000 A 
ATOM     22  C   UNL     1      59.269  87.335  73.314  1.00  0.00     0.000 A 
ENDBRANCH  16  17
ENDBRANCH   7  16
BRANCH  15  23
ATOM     23  C   UNL     1      62.462  81.788  72.697  1.00  0.00    -0.046 C 
ATOM     24  C   UNL     1      61.007  81.986  73.003  1.00  0.00     0.042 C 
ATOM     25  C   UNL     1      63.240  80.989  73.442  1.00  0.00     0.010 C 
ENDBRANCH  15  23
ENDBRANCH   3   4
BRANCH   2  26
ATOM     26  C   UNL     1      67.166  86.015  69.592  1.00  0.00     0.078 C 
BRANCH  26  27
ATOM     27  C   UNL     1      66.767  84.770  68.802  1.00  0.00     0.140 C 
ATOM     28  C   UNL     1      65.254  84.732  68.499  1.00  0.00     0.086 CG0
ATOM     29  C   UNL     1      67.377  84.742  67.417  1.00  0.00     0.190 C 
ATOM     30  C   UNL     1      65.199  84.354  67.044  1.00  0.00    -0.010 C 
ATOM     31  G   UNL     1      64.369  83.962  69.522  1.00  0.00     0.000 G0
ATOM     32  O   UNL     1      68.555  84.940  67.158  1.00  0.00    -0.291 OA
ATOM     33  C   UNL     1      66.370  84.378  66.402  1.00  0.00    -0.008 C 
ATOM     34  C   UNL     1      66.678  84.149  64.975  1.00  0.00     0.048 C 
BRANCH  27  35
ATOM     35  O   UNL     1      67.258  83.589  69.413  1.00  0.00    -0.381 OA
ATOM     36  H   UNL     1      66.503  83.008  69.609  1.00  0.00     0.212 HD
ENDBRANCH  27  35
ENDBRANCH  26  27
ENDBRANCH   2  26
ENDBRANCH   1   2
BRANCH   1  37
ATOM     37  O   UNL     1      66.670  87.658  72.765  1.00  0.00    -0.461 OA
BRANCH  37  38
ATOM     38  C   UNL     1      66.124  88.717  73.452  1.00  0.00     0.310 C 
ATOM     39  O   UNL     1      65.869  89.811  72.969  1.00  0.00    -0.252 OA
BRANCH  38  40
ATOM     40  C   UNL     1      65.890  88.318  74.890  1.00  0.00     0.158 C 
BRANCH  40  41
ATOM     41  C   UNL     1      64.870  87.219  75.036  1.00  0.00    -0.037 A 
ATOM     42  C   UNL     1      63.601  87.366  74.475  1.00  0.00     0.008 A 
ATOM     43  C   UNL     1      65.192  86.055  75.732  1.00  0.00     0.008 A 
ATOM     44  C   UNL     1      62.655  86.350  74.611  1.00  0.00     0.046 A 
ATOM     45  C   UNL     1      64.247  85.038  75.868  1.00  0.00     0.046 A 
ATOM     46  C   UNL     1      62.979  85.185  75.308  1.00  0.00     0.115 A 
BRANCH  46  47
ATOM     47  O   UNL     1      62.056  84.194  75.441  1.00  0.00    -0.508 OA
ATOM     48  H   UNL     1      61.893  84.039  76.388  1.00  0.00     0.293 HD
ENDBRANCH  46  47
ENDBRANCH  40  41
ENDBRANCH  38  40
ENDBRANCH  37  38
ENDBRANCH   1  37
TORSDOF 10
ENDMDL
MODEL 6
REMARK VINA RESULT:    -6.770     25.734     29.880
REMARK INTER + INTRA:         -12.169
REMARK INTER:                 -11.337
REMARK INTRA:                  -0.832
REMARK UNBOUND:                -0.650
REMARK SMILES C=C(C)[C@]12C[C@@H](C)[C@@]34O[C@](Cc5ccccc5)(O[C@@H]1[C@@H]3C=C(COC(=O)Cc1ccc(O)cc1)C[C@]1(O)C(=O)C(C)=C[C@@H]41)O2
REMARK SMILES IDX 23 1 22 2 21 3 20 4 9 5 8 6 10 7 6 8 18 10 44 11 19 12 5 13
REMARK SMILES IDX 7 14 4 15 11 16 12 17 13 18 17 19 14 20 16 21 15 22 2 23
REMARK SMILES IDX 3 24 1 25 35 26 36 27 43 28 38 29 42 30 39 32 40 33 41 34
REMARK SMILES IDX 37 35 24 37 25 38 26 39 27 40 28 41 29 42 34 43 30 44 33 45
REMARK SMILES IDX 31 46 32 47
REMARK H PARENT 37 36 32 48
REMARK Flexibility Score: 90.00
ROOT
ATOM      1  C   UNL     1      75.384  85.492  68.980  1.00  0.00     0.264 C 
ENDROOT
BRANCH   1   2
ATOM      2  C   UNL     1      74.234  86.301  68.425  1.00  0.00    -0.033 C 
ATOM      3  C   UNL     1      73.359  85.712  67.584  1.00  0.00    -0.015 C 
BRANCH   3   4
ATOM      4  C   UNL     1      72.178  86.316  66.840  1.00  0.00     0.078 C 
ATOM      5  O   UNL     1      70.185  85.992  68.267  1.00  0.00    -0.319 OA
ATOM      6  C   UNL     1      71.045  87.015  67.677  1.00  0.00     0.095 CG0
ATOM      7  C   UNL     1      69.844  84.897  67.395  1.00  0.00     0.289 C 
ATOM      8  C   UNL     1      70.193  87.905  66.681  1.00  0.00     0.023 C 
ATOM      9  G   UNL     1      71.645  87.769  68.900  1.00  0.00     0.000 G0
ATOM     10  O   UNL     1      71.011  84.241  66.908  1.00  0.00    -0.320 OA
ATOM     11  O   UNL     1      69.132  85.327  66.237  1.00  0.00    -0.313 OA
ATOM     12  C   UNL     1      71.487  85.230  65.981  1.00  0.00     0.170 C 
ATOM     13  C   UNL     1      70.117  87.262  65.262  1.00  0.00     0.049 C 
ATOM     14  C   UNL     1      68.773  88.257  67.157  1.00  0.00     0.011 C 
ATOM     15  C   UNL     1      70.176  85.735  65.329  1.00  0.00     0.122 C 
BRANCH   7  16
ATOM     16  C   UNL     1      68.992  83.916  68.175  1.00  0.00     0.135 C 
BRANCH  16  17
ATOM     17  C   UNL     1      68.285  84.575  69.333  1.00  0.00    -0.040 A 
ATOM     18  C   UNL     1      68.925  84.690  70.567  1.00  0.00     0.004 A 
ATOM     19  C   UNL     1      66.992  85.070  69.168  1.00  0.00     0.004 A 
ATOM     20  C   UNL     1      68.271  85.301  71.638  1.00  0.00     0.000 A 
ATOM     21  C   UNL     1      66.338  85.681  70.239  1.00  0.00     0.000 A 
ATOM     22  C   UNL     1      66.978  85.796  71.473  1.00  0.00     0.000 A 
ENDBRANCH  16  17
ENDBRANCH   7  16
BRANCH  15  23
ATOM     23  C   UNL     1      69.924  85.093  64.004  1.00  0.00    -0.046 C 
ATOM     24  C   UNL     1      69.019  85.838  63.068  1.00  0.00     0.042 C 
ATOM     25  C   UNL     1      70.475  83.916  63.669  1.00  0.00     0.010 C 
ENDBRANCH  15  23
ENDBRANCH   3   4
BRANCH   2  26
ATOM     26  C   UNL     1      74.218  87.734  68.924  1.00  0.00     0.078 C 
BRANCH  26  27
ATOM     27  C   UNL     1      72.976  88.567  68.614  1.00  0.00     0.140 C 
ATOM     28  C   UNL     1      71.670  87.793  68.889  1.00  0.00     0.086 CG0
ATOM     29  C   UNL     1      72.840  89.767  69.527  1.00  0.00     0.190 C 
ATOM     30  C   UNL     1      70.827  88.784  69.641  1.00  0.00    -0.010 C 
ATOM     31  G   UNL     1      71.056  87.032  67.678  1.00  0.00     0.000 G0
ATOM     32  O   UNL     1      73.728  90.568  69.779  1.00  0.00    -0.291 OA
ATOM     33  C   UNL     1      71.462  89.891  70.038  1.00  0.00    -0.008 C 
ATOM     34  C   UNL     1      70.980  91.024  70.855  1.00  0.00     0.048 C 
BRANCH  27  35
ATOM     35  O   UNL     1      73.043  89.135  67.316  1.00  0.00    -0.381 OA
ATOM     36  H   UNL     1      72.235  88.890  66.833  1.00  0.00     0.212 HD
ENDBRANCH  27  35
ENDBRANCH  26  27
ENDBRANCH   2  26
ENDBRANCH   1   2
BRANCH   1  37
ATOM     37  O   UNL     1      75.715  84.466  68.068  1.00  0.00    -0.461 OA
BRANCH  37  38
ATOM     38  C   UNL     1      76.943  84.570  67.456  1.00  0.00     0.310 C 
ATOM     39  O   UNL     1      77.458  83.703  66.765  1.00  0.00    -0.252 OA
BRANCH  38  40
ATOM     40  C   UNL     1      77.550  85.917  67.770  1.00  0.00     0.158 C 
BRANCH  40  41
ATOM     41  C   UNL     1      77.049  87.013  66.866  1.00  0.00    -0.037 A 
ATOM     42  C   UNL     1      77.183  88.348  67.248  1.00  0.00     0.008 A 
ATOM     43  C   UNL     1      76.451  86.694  65.648  1.00  0.00     0.008 A 
ATOM     44  C   UNL     1      76.718  89.363  66.411  1.00  0.00     0.046 A 
ATOM     45  C   UNL     1      75.987  87.708  64.810  1.00  0.00     0.046 A 
ATOM     46  C   UNL     1      76.120  89.043  65.192  1.00  0.00     0.115 A 
BRANCH  46  47
ATOM     47  O   UNL     1      75.667  90.033  64.376  1.00  0.00    -0.508 OA
ATOM     48  H   UNL     1      76.306  90.165  63.654  1.00  0.00     0.293 HD
ENDBRANCH  46  47
ENDBRANCH  40  41
ENDBRANCH  38  40
ENDBRANCH  37  38
ENDBRANCH   1  37
TORSDOF 10
ENDMDL
MODEL 7
REMARK VINA RESULT:    -6.748      2.839      5.040
REMARK INTER + INTRA:         -12.132
REMARK INTER:                 -11.863
REMARK INTRA:                  -0.269
REMARK UNBOUND:                -0.650
REMARK SMILES C=C(C)[C@]12C[C@@H](C)[C@@]34O[C@](Cc5ccccc5)(O[C@@H]1[C@@H]3C=C(COC(=O)Cc1ccc(O)cc1)C[C@]1(O)C(=O)C(C)=C[C@@H]41)O2
REMARK SMILES IDX 23 1 22 2 21 3 20 4 9 5 8 6 10 7 6 8 18 10 44 11 19 12 5 13
REMARK SMILES IDX 7 14 4 15 11 16 12 17 13 18 17 19 14 20 16 21 15 22 2 23
REMARK SMILES IDX 3 24 1 25 35 26 36 27 43 28 38 29 42 30 39 32 40 33 41 34
REMARK SMILES IDX 37 35 24 37 25 38 26 39 27 40 28 41 29 42 34 43 30 44 33 45
REMARK SMILES IDX 31 46 32 47
REMARK H PARENT 37 36 32 48
REMARK Flexibility Score: 90.00
ROOT
ATOM      1  C   UNL     1      96.722  81.433  83.906  1.00  0.00     0.264 C 
ENDROOT
BRANCH   1   2
ATOM      2  C   UNL     1      95.492  81.945  84.620  1.00  0.00    -0.033 C 
ATOM      3  C   UNL     1      94.340  81.248  84.531  1.00  0.00    -0.015 C 
BRANCH   3   4
ATOM      4  C   UNL     1      92.964  81.583  85.084  1.00  0.00     0.078 C 
ATOM      5  O   UNL     1      92.810  80.534  87.318  1.00  0.00    -0.319 OA
ATOM      6  C   UNL     1      92.817  81.824  86.631  1.00  0.00     0.095 CG0
ATOM      7  C   UNL     1      92.023  79.505  86.687  1.00  0.00     0.289 C 
ATOM      8  C   UNL     1      91.432  82.554  86.874  1.00  0.00     0.023 C 
ATOM      9  G   UNL     1      94.068  82.558  87.198  1.00  0.00     0.000 G0
ATOM     10  O   UNL     1      92.455  79.271  85.349  1.00  0.00    -0.320 OA
ATOM     11  O   UNL     1      90.645  79.858  86.591  1.00  0.00    -0.313 OA
ATOM     12  C   UNL     1      91.962  80.462  84.714  1.00  0.00     0.170 C 
ATOM     13  C   UNL     1      90.357  82.098  85.841  1.00  0.00     0.049 C 
ATOM     14  C   UNL     1      90.859  82.429  88.296  1.00  0.00     0.011 C 
ATOM     15  C   UNL     1      90.582  80.654  85.389  1.00  0.00     0.122 C 
BRANCH   7  16
ATOM     16  C   UNL     1      92.163  78.234  87.501  1.00  0.00     0.135 C 
BRANCH  16  17
ATOM     17  C   UNL     1      91.965  76.998  86.659  1.00  0.00    -0.040 A 
ATOM     18  C   UNL     1      90.680  76.601  86.293  1.00  0.00     0.004 A 
ATOM     19  C   UNL     1      93.070  76.253  86.247  1.00  0.00     0.004 A 
ATOM     20  C   UNL     1      90.497  75.458  85.514  1.00  0.00     0.000 A 
ATOM     21  C   UNL     1      92.887  75.109  85.468  1.00  0.00     0.000 A 
ATOM     22  C   UNL     1      91.602  74.712  85.102  1.00  0.00     0.000 A 
ENDBRANCH  16  17
ENDBRANCH   7  16
BRANCH  15  23
ATOM     23  C   UNL     1      89.465  80.137  84.542  1.00  0.00    -0.046 C 
ATOM     24  C   UNL     1      89.815  79.036  83.586  1.00  0.00     0.042 C 
ATOM     25  C   UNL     1      88.221  80.630  84.631  1.00  0.00     0.010 C 
ENDBRANCH  15  23
ENDBRANCH   3   4
BRANCH   2  26
ATOM     26  C   UNL     1      95.738  83.234  85.381  1.00  0.00     0.078 C 
BRANCH  26  27
ATOM     27  C   UNL     1      94.624  83.723  86.304  1.00  0.00     0.140 C 
ATOM     28  C   UNL     1      94.061  82.592  87.190  1.00  0.00     0.086 CG0
ATOM     29  C   UNL     1      95.116  84.724  87.328  1.00  0.00     0.190 C 
ATOM     30  C   UNL     1      93.995  83.217  88.556  1.00  0.00    -0.010 C 
ATOM     31  G   UNL     1      92.818  81.839  86.634  1.00  0.00     0.000 G0
ATOM     32  O   UNL     1      95.806  85.703  87.087  1.00  0.00    -0.291 OA
ATOM     33  C   UNL     1      94.603  84.402  88.673  1.00  0.00    -0.008 C 
ATOM     34  C   UNL     1      94.805  85.253  89.863  1.00  0.00     0.048 C 
BRANCH  27  35
ATOM     35  O   UNL     1      93.630  84.435  85.586  1.00  0.00    -0.381 OA
ATOM     36  H   UNL     1      92.757  84.117  85.872  1.00  0.00     0.212 HD
ENDBRANCH  27  35
ENDBRANCH  26  27
ENDBRANCH   2  26
ENDBRANCH   1   2
BRANCH   1  37
ATOM     37  O   UNL     1      96.481  81.416  82.515  1.00  0.00    -0.461 OA
BRANCH  37  38
ATOM     38  C   UNL     1      96.883  80.285  81.843  1.00  0.00     0.310 C 
ATOM     39  O   UNL     1      96.313  79.204  81.884  1.00  0.00    -0.252 OA
BRANCH  38  40
ATOM     40  C   UNL     1      98.132  80.587  81.051  1.00  0.00     0.158 C 
BRANCH  40  41
ATOM     41  C   UNL     1      97.841  81.041  79.644  1.00  0.00    -0.037 A 
ATOM     42  C   UNL     1      96.798  81.935  79.402  1.00  0.00     0.008 A 
ATOM     43  C   UNL     1      98.614  80.568  78.584  1.00  0.00     0.008 A 
ATOM     44  C   UNL     1      96.527  82.354  78.099  1.00  0.00     0.046 A 
ATOM     45  C   UNL     1      98.344  80.988  77.281  1.00  0.00     0.046 A 
ATOM     46  C   UNL     1      97.301  81.881  77.039  1.00  0.00     0.115 A 
BRANCH  46  47
ATOM     47  O   UNL     1      97.037  82.290  75.768  1.00  0.00    -0.508 OA
ATOM     48  H   UNL     1      96.424  81.657  75.354  1.00  0.00     0.293 HD
ENDBRANCH  46  47
ENDBRANCH  40  41
ENDBRANCH  38  40
ENDBRANCH  37  38
ENDBRANCH   1  37
TORSDOF 10
ENDMDL
MODEL 8
REMARK VINA RESULT:    -6.728     25.927     30.240
REMARK INTER + INTRA:         -12.098
REMARK INTER:                 -10.082
REMARK INTRA:                  -2.016
REMARK UNBOUND:                -0.650
REMARK SMILES C=C(C)[C@]12C[C@@H](C)[C@@]34O[C@](Cc5ccccc5)(O[C@@H]1[C@@H]3C=C(COC(=O)Cc1ccc(O)cc1)C[C@]1(O)C(=O)C(C)=C[C@@H]41)O2
REMARK SMILES IDX 23 1 22 2 21 3 20 4 9 5 8 6 10 7 6 8 18 10 44 11 19 12 5 13
REMARK SMILES IDX 7 14 4 15 11 16 12 17 13 18 17 19 14 20 16 21 15 22 2 23
REMARK SMILES IDX 3 24 1 25 35 26 36 27 43 28 38 29 42 30 39 32 40 33 41 34
REMARK SMILES IDX 37 35 24 37 25 38 26 39 27 40 28 41 29 42 34 43 30 44 33 45
REMARK SMILES IDX 31 46 32 47
REMARK H PARENT 37 36 32 48
REMARK Flexibility Score: 90.00
ROOT
ATOM      1  C   UNL     1      73.394  85.923  63.625  1.00  0.00     0.264 C 
ENDROOT
BRANCH   1   2
ATOM      2  C   UNL     1      72.887  86.927  64.635  1.00  0.00    -0.033 C 
ATOM      3  C   UNL     1      71.657  86.764  65.165  1.00  0.00    -0.015 C 
BRANCH   3   4
ATOM      4  C   UNL     1      70.895  87.661  66.128  1.00  0.00     0.078 C 
ATOM      5  O   UNL     1      71.372  86.838  68.410  1.00  0.00    -0.319 OA
ATOM      6  C   UNL     1      71.545  87.986  67.522  1.00  0.00     0.095 CG0
ATOM      7  C   UNL     1      70.073  86.216  68.365  1.00  0.00     0.289 C 
ATOM      8  C   UNL     1      70.783  89.236  68.128  1.00  0.00     0.023 C 
ATOM      9  G   UNL     1      73.088  88.144  67.390  1.00  0.00     0.000 G0
ATOM     10  O   UNL     1      69.751  85.784  67.046  1.00  0.00    -0.320 OA
ATOM     11  O   UNL     1      69.030  87.111  68.743  1.00  0.00    -0.313 OA
ATOM     12  C   UNL     1      69.501  87.053  66.421  1.00  0.00     0.170 C 
ATOM     13  C   UNL     1      69.279  89.243  67.716  1.00  0.00     0.049 C 
ATOM     14  C   UNL     1      70.894  89.403  69.653  1.00  0.00     0.011 C 
ATOM     15  C   UNL     1      68.738  87.826  67.524  1.00  0.00     0.122 C 
BRANCH   7  16
ATOM     16  C   UNL     1      70.083  85.027  69.306  1.00  0.00     0.135 C 
BRANCH  16  17
ATOM     17  C   UNL     1      68.736  84.801  69.947  1.00  0.00    -0.040 A 
ATOM     18  C   UNL     1      67.736  84.125  69.249  1.00  0.00     0.004 A 
ATOM     19  C   UNL     1      68.493  85.268  71.238  1.00  0.00     0.004 A 
ATOM     20  C   UNL     1      66.491  83.916  69.843  1.00  0.00     0.000 A 
ATOM     21  C   UNL     1      67.248  85.059  71.832  1.00  0.00     0.000 A 
ATOM     22  C   UNL     1      66.247  84.383  71.134  1.00  0.00     0.000 A 
ENDBRANCH  16  17
ENDBRANCH   7  16
BRANCH  15  23
ATOM     23  C   UNL     1      67.260  87.800  67.307  1.00  0.00    -0.046 C 
ATOM     24  C   UNL     1      66.782  88.227  65.951  1.00  0.00     0.042 C 
ATOM     25  C   UNL     1      66.408  87.419  68.270  1.00  0.00     0.010 C 
ENDBRANCH  15  23
ENDBRANCH   3   4
BRANCH   2  26
ATOM     26  C   UNL     1      73.885  88.031  64.931  1.00  0.00     0.078 C 
BRANCH  26  27
ATOM     27  C   UNL     1      73.584  88.943  66.118  1.00  0.00     0.140 C 
ATOM     28  C   UNL     1      73.107  88.154  67.355  1.00  0.00     0.086 CG0
ATOM     29  C   UNL     1      74.821  89.645  66.639  1.00  0.00     0.190 C 
ATOM     30  C   UNL     1      73.905  88.750  68.481  1.00  0.00    -0.010 C 
ATOM     31  G   UNL     1      71.566  87.993  67.513  1.00  0.00     0.000 G0
ATOM     32  O   UNL     1      75.637  90.243  65.953  1.00  0.00    -0.291 OA
ATOM     33  C   UNL     1      74.894  89.569  68.110  1.00  0.00    -0.008 C 
ATOM     34  C   UNL     1      75.915  90.257  68.926  1.00  0.00     0.048 C 
BRANCH  27  35
ATOM     35  O   UNL     1      72.722  90.007  65.750  1.00  0.00    -0.381 OA
ATOM     36  H   UNL     1      72.156  89.703  65.020  1.00  0.00     0.212 HD
ENDBRANCH  27  35
ENDBRANCH  26  27
ENDBRANCH   2  26
ENDBRANCH   1   2
BRANCH   1  37
ATOM     37  O   UNL     1      72.777  84.675  63.858  1.00  0.00    -0.461 OA
BRANCH  37  38
ATOM     38  C   UNL     1      73.619  83.622  64.128  1.00  0.00     0.310 C 
ATOM     39  O   UNL     1      74.289  83.027  63.296  1.00  0.00    -0.252 OA
BRANCH  38  40
ATOM     40  C   UNL     1      73.586  83.317  65.607  1.00  0.00     0.158 C 
BRANCH  40  41
ATOM     41  C   UNL     1      74.748  83.915  66.356  1.00  0.00    -0.037 A 
ATOM     42  C   UNL     1      74.519  84.816  67.396  1.00  0.00     0.008 A 
ATOM     43  C   UNL     1      76.054  83.569  66.010  1.00  0.00     0.008 A 
ATOM     44  C   UNL     1      75.595  85.371  68.090  1.00  0.00     0.046 A 
ATOM     45  C   UNL     1      77.131  84.123  66.704  1.00  0.00     0.046 A 
ATOM     46  C   UNL     1      76.901  85.024  67.743  1.00  0.00     0.115 A 
BRANCH  46  47
ATOM     47  O   UNL     1      77.950  85.565  68.419  1.00  0.00    -0.508 OA
ATOM     48  H   UNL     1      77.859  86.534  68.421  1.00  0.00     0.293 HD
ENDBRANCH  46  47
ENDBRANCH  40  41
ENDBRANCH  38  40
ENDBRANCH  37  38
ENDBRANCH   1  37
TORSDOF 10
ENDMDL
MODEL 9
REMARK VINA RESULT:    -6.360      6.188      8.932
REMARK INTER + INTRA:         -11.472
REMARK INTER:                  -9.583
REMARK INTRA:                  -1.889
REMARK UNBOUND:                -0.650
REMARK SMILES C=C(C)[C@]12C[C@@H](C)[C@@]34O[C@](Cc5ccccc5)(O[C@@H]1[C@@H]3C=C(COC(=O)Cc1ccc(O)cc1)C[C@]1(O)C(=O)C(C)=C[C@@H]41)O2
REMARK SMILES IDX 23 1 22 2 21 3 20 4 9 5 8 6 10 7 6 8 18 10 44 11 19 12 5 13
REMARK SMILES IDX 7 14 4 15 11 16 12 17 13 18 17 19 14 20 16 21 15 22 2 23
REMARK SMILES IDX 3 24 1 25 35 26 36 27 43 28 38 29 42 30 39 32 40 33 41 34
REMARK SMILES IDX 37 35 24 37 25 38 26 39 27 40 28 41 29 42 34 43 30 44 33 45
REMARK SMILES IDX 31 46 32 47
REMARK H PARENT 37 36 32 48
REMARK Flexibility Score: 90.00
ROOT
ATOM      1  C   UNL     1     104.316  79.084  79.518  1.00  0.00     0.264 C 
ENDROOT
BRANCH   1   2
ATOM      2  C   UNL     1     102.895  78.625  79.750  1.00  0.00    -0.033 C 
ATOM      3  C   UNL     1     101.875  79.402  79.330  1.00  0.00    -0.015 C 
BRANCH   3   4
ATOM      4  C   UNL     1     100.377  79.207  79.506  1.00  0.00     0.078 C 
ATOM      5  O   UNL     1      99.571  77.981  77.517  1.00  0.00    -0.319 OA
ATOM      6  C   UNL     1      99.726  77.881  78.967  1.00  0.00     0.095 CG0
ATOM      7  C   UNL     1      99.089  79.250  77.035  1.00  0.00     0.289 C 
ATOM      8  C   UNL     1      98.298  77.741  79.638  1.00  0.00     0.023 C 
ATOM      9  G   UNL     1     100.683  76.671  79.172  1.00  0.00     0.000 G0
ATOM     10  O   UNL     1      99.941  80.316  77.444  1.00  0.00    -0.320 OA
ATOM     11  O   UNL     1      97.798  79.570  77.548  1.00  0.00    -0.313 OA
ATOM     12  C   UNL     1      99.613  80.378  78.841  1.00  0.00     0.170 C 
ATOM     13  C   UNL     1      97.641  79.134  79.882  1.00  0.00     0.049 C 
ATOM     14  C   UNL     1      97.304  76.832  78.895  1.00  0.00     0.011 C 
ATOM     15  C   UNL     1      98.080  80.158  78.835  1.00  0.00     0.122 C 
BRANCH   7  16
ATOM     16  C   UNL     1      99.030  79.192  75.521  1.00  0.00     0.135 C 
BRANCH  16  17
ATOM     17  C   UNL     1      98.504  80.474  74.926  1.00  0.00    -0.040 A 
ATOM     18  C   UNL     1      97.204  80.529  74.424  1.00  0.00     0.004 A 
ATOM     19  C   UNL     1      99.319  81.605  74.878  1.00  0.00     0.004 A 
ATOM     20  C   UNL     1      96.718  81.716  73.873  1.00  0.00     0.000 A 
ATOM     21  C   UNL     1      98.833  82.792  74.327  1.00  0.00     0.000 A 
ATOM     22  C   UNL     1      97.533  82.846  73.825  1.00  0.00     0.000 A 
ENDBRANCH  16  17
ENDBRANCH   7  16
BRANCH  15  23
ATOM     23  C   UNL     1      97.328  81.445  78.940  1.00  0.00    -0.046 C 
ATOM     24  C   UNL     1      97.092  81.962  80.328  1.00  0.00     0.042 C 
ATOM     25  C   UNL     1      96.888  82.099  77.855  1.00  0.00     0.010 C 
ENDBRANCH  15  23
ENDBRANCH   3   4
BRANCH   2  26
ATOM     26  C   UNL     1     102.809  77.283  80.453  1.00  0.00     0.078 C 
BRANCH  26  27
ATOM     27  C   UNL     1     101.436  76.619  80.523  1.00  0.00     0.140 C 
ATOM     28  C   UNL     1     100.687  76.683  79.176  1.00  0.00     0.086 CG0
ATOM     29  C   UNL     1     101.524  75.129  80.775  1.00  0.00     0.190 C 
ATOM     30  C   UNL     1     100.159  75.286  79.002  1.00  0.00    -0.010 C 
ATOM     31  G   UNL     1      99.725  77.892  78.982  1.00  0.00     0.000 G0
ATOM     32  O   UNL     1     102.200  74.597  81.643  1.00  0.00    -0.291 OA
ATOM     33  C   UNL     1     100.633  74.384  79.867  1.00  0.00    -0.008 C 
ATOM     34  C   UNL     1     100.403  72.926  79.942  1.00  0.00     0.048 C 
BRANCH  27  35
ATOM     35  O   UNL     1     100.681  77.104  81.621  1.00  0.00    -0.381 OA
ATOM     36  H   UNL     1     100.092  76.393  81.926  1.00  0.00     0.212 HD
ENDBRANCH  27  35
ENDBRANCH  26  27
ENDBRANCH   2  26
ENDBRANCH   1   2
BRANCH   1  37
ATOM     37  O   UNL     1     105.086  77.997  79.049  1.00  0.00    -0.461 OA
BRANCH  37  38
ATOM     38  C   UNL     1     105.268  77.924  77.688  1.00  0.00     0.310 C 
ATOM     39  O   UNL     1     105.158  76.907  77.018  1.00  0.00    -0.252 OA
BRANCH  38  40
ATOM     40  C   UNL     1     105.622  79.291  77.153  1.00  0.00     0.158 C 
BRANCH  40  41
ATOM     41  C   UNL     1     104.771  79.702  75.980  1.00  0.00    -0.037 A 
ATOM     42  C   UNL     1     105.363  79.951  74.741  1.00  0.00     0.008 A 
ATOM     43  C   UNL     1     103.391  79.834  76.131  1.00  0.00     0.008 A 
ATOM     44  C   UNL     1     104.575  80.332  73.655  1.00  0.00     0.046 A 
ATOM     45  C   UNL     1     102.602  80.215  75.045  1.00  0.00     0.046 A 
ATOM     46  C   UNL     1     103.194  80.465  73.807  1.00  0.00     0.115 A 
BRANCH  46  47
ATOM     47  O   UNL     1     102.426  80.837  72.748  1.00  0.00    -0.508 OA
ATOM     48  H   UNL     1     101.936  81.645  72.982  1.00  0.00     0.293 HD
ENDBRANCH  46  47
ENDBRANCH  40  41
ENDBRANCH  38  40
ENDBRANCH  37  38
ENDBRANCH   1  37
TORSDOF 10
ENDMDL
MODEL 10
REMARK VINA RESULT:    -6.230     17.710     22.814
REMARK INTER + INTRA:         -11.250
REMARK INTER:                 -10.728
REMARK INTRA:                  -0.522
REMARK UNBOUND:                -0.650
REMARK SMILES C=C(C)[C@]12C[C@@H](C)[C@@]34O[C@](Cc5ccccc5)(O[C@@H]1[C@@H]3C=C(COC(=O)Cc1ccc(O)cc1)C[C@]1(O)C(=O)C(C)=C[C@@H]41)O2
REMARK SMILES IDX 23 1 22 2 21 3 20 4 9 5 8 6 10 7 6 8 18 10 44 11 19 12 5 13
REMARK SMILES IDX 7 14 4 15 11 16 12 17 13 18 17 19 14 20 16 21 15 22 2 23
REMARK SMILES IDX 3 24 1 25 35 26 36 27 43 28 38 29 42 30 39 32 40 33 41 34
REMARK SMILES IDX 37 35 24 37 25 38 26 39 27 40 28 41 29 42 34 43 30 44 33 45
REMARK SMILES IDX 31 46 32 47
REMARK H PARENT 37 36 32 48
REMARK Flexibility Score: 90.00
ROOT
ATOM      1  C   UNL     1      93.703 102.420  72.491  1.00  0.00     0.264 C 
ENDROOT
BRANCH   1   2
ATOM      2  C   UNL     1      94.722 101.585  73.231  1.00  0.00    -0.033 C 
ATOM      3  C   UNL     1      94.466 100.279  73.455  1.00  0.00    -0.015 C 
BRANCH   3   4
ATOM      4  C   UNL     1      95.281  99.256  74.231  1.00  0.00     0.078 C 
ATOM      5  O   UNL     1      96.779  98.147  72.605  1.00  0.00    -0.319 OA
ATOM      6  C   UNL     1      96.770  98.998  73.794  1.00  0.00     0.095 CG0
ATOM      7  C   UNL     1      95.850  97.046  72.630  1.00  0.00     0.289 C 
ATOM      8  C   UNL     1      97.495  98.244  74.983  1.00  0.00     0.023 C 
ATOM      9  G   UNL     1      97.447 100.320  73.329  1.00  0.00     0.000 G0
ATOM     10  O   UNL     1      94.513  97.501  72.815  1.00  0.00    -0.320 OA
ATOM     11  O   UNL     1      96.104  96.147  73.707  1.00  0.00    -0.313 OA
ATOM     12  C   UNL     1      94.567  97.882  74.199  1.00  0.00     0.170 C 
ATOM     13  C   UNL     1      96.514  97.302  75.746  1.00  0.00     0.049 C 
ATOM     14  C   UNL     1      98.759  97.458  74.595  1.00  0.00     0.011 C 
ATOM     15  C   UNL     1      95.424  96.755  74.824  1.00  0.00     0.122 C 
BRANCH   7  16
ATOM     16  C   UNL     1      95.962  96.302  71.314  1.00  0.00     0.135 C 
BRANCH  16  17
ATOM     17  C   UNL     1      96.770  97.068  70.297  1.00  0.00    -0.040 A 
ATOM     18  C   UNL     1      96.125  97.852  69.341  1.00  0.00     0.004 A 
ATOM     19  C   UNL     1      98.162  96.991  70.313  1.00  0.00     0.004 A 
ATOM     20  C   UNL     1      96.873  98.561  68.400  1.00  0.00     0.000 A 
ATOM     21  C   UNL     1      98.910  97.700  69.372  1.00  0.00     0.000 A 
ATOM     22  C   UNL     1      98.266  98.484  68.416  1.00  0.00     0.000 A 
ENDBRANCH  16  17
ENDBRANCH   7  16
BRANCH  15  23
ATOM     23  C   UNL     1      94.583  95.712  75.486  1.00  0.00    -0.046 C 
ATOM     24  C   UNL     1      93.104  95.812  75.258  1.00  0.00     0.042 C 
ATOM     25  C   UNL     1      95.119  94.743  76.242  1.00  0.00     0.010 C 
ENDBRANCH  15  23
ENDBRANCH   3   4
BRANCH   2  26
ATOM     26  C   UNL     1      95.956 102.370  73.633  1.00  0.00     0.078 C 
BRANCH  26  27
ATOM     27  C   UNL     1      97.138 101.577  74.186  1.00  0.00     0.140 C 
ATOM     28  C   UNL     1      97.448 100.325  73.339  1.00  0.00     0.086 CG0
ATOM     29  C   UNL     1      98.439 102.348  74.113  1.00  0.00     0.190 C 
ATOM     30  C   UNL     1      98.942 100.372  73.179  1.00  0.00    -0.010 C 
ATOM     31  G   UNL     1      96.771  99.001  73.800  1.00  0.00     0.000 G0
ATOM     32  O   UNL     1      98.602 103.499  74.490  1.00  0.00    -0.291 OA
ATOM     33  C   UNL     1      99.525 101.506  73.578  1.00  0.00    -0.008 C 
ATOM     34  C   UNL     1     100.939 101.929  73.496  1.00  0.00     0.048 C 
BRANCH  27  35
ATOM     35  O   UNL     1      96.981 101.308  75.569  1.00  0.00    -0.381 OA
ATOM     36  H   UNL     1      97.454 101.994  76.070  1.00  0.00     0.212 HD
ENDBRANCH  27  35
ENDBRANCH  26  27
ENDBRANCH   2  26
ENDBRANCH   1   2
BRANCH   1  37
ATOM     37  O   UNL     1      92.656 101.587  72.040  1.00  0.00    -0.461 OA
BRANCH  37  38
ATOM     38  C   UNL     1      92.053 101.953  70.859  1.00  0.00     0.310 C 
ATOM     39  O   UNL     1      92.627 102.462  69.906  1.00  0.00    -0.252 OA
BRANCH  38  40
ATOM     40  C   UNL     1      90.580 101.628  70.923  1.00  0.00     0.158 C 
BRANCH  40  41
ATOM     41  C   UNL     1      90.193 100.476  70.033  1.00  0.00    -0.037 A 
ATOM     42  C   UNL     1      90.033  99.200  70.575  1.00  0.00     0.008 A 
ATOM     43  C   UNL     1      89.995 100.683  68.669  1.00  0.00     0.008 A 
ATOM     44  C   UNL     1      89.676  98.132  69.751  1.00  0.00     0.046 A 
ATOM     45  C   UNL     1      89.636  99.615  67.845  1.00  0.00     0.046 A 
ATOM     46  C   UNL     1      89.477  98.340  68.386  1.00  0.00     0.115 A 
BRANCH  46  47
ATOM     47  O   UNL     1      89.129  97.299  67.583  1.00  0.00    -0.508 OA
ATOM     48  H   UNL     1      88.167  97.319  67.439  1.00  0.00     0.293 HD
ENDBRANCH  46  47
ENDBRANCH  40  41
ENDBRANCH  38  40
ENDBRANCH  37  38
ENDBRANCH   1  37
TORSDOF 10
ENDMDL
