MODEL 1
REMARK VINA RESULT:    -6.414      0.000      0.000
REMARK INTER + INTRA:         -11.527
REMARK INTER:                 -10.726
REMARK INTRA:                  -0.801
REMARK UNBOUND:                -0.801
REMARK SMILES COc1cc(CNC(=O)CCCCCCCC(C)C)ccc1O
REMARK SMILES IDX 11 1 10 2 8 3 9 4 7 5 6 7 5 8 4 9 20 10 3 11 21 12 22 13
REMARK SMILES IDX 2 14 1 15 23 16 12 18 13 19 14 20 15 21 16 22 17 23 18 24
REMARK SMILES IDX 19 25
REMARK H PARENT 7 6 23 17
REMARK Flexibility Score: inf
ROOT
ATOM      1  C   UNL     1      93.743  98.185  75.010  1.00  0.00     0.010 C 
ENDROOT
BRANCH   1   2
ATOM      2  C   UNL     1      92.983  99.501  74.863  1.00  0.00     0.100 C 
BRANCH   2   3
ATOM      3  C   UNL     1      92.954  99.996  73.427  1.00  0.00     0.220 C 
ATOM      4  O   UNL     1      93.929  99.958  72.682  1.00  0.00    -0.275 OA
ATOM      5  N   UNL     1      91.706 100.493  73.084  1.00  0.00    -0.352 N 
ATOM      6  H   UNL     1      90.959 100.494  73.773  1.00  0.00     0.163 HD
BRANCH   5   7
ATOM      7  C   UNL     1      91.410 101.035  71.777  1.00  0.00     0.151 C 
BRANCH   7   8
ATOM      8  C   UNL     1      90.526 100.122  70.978  1.00  0.00    -0.025 A 
ATOM      9  C   UNL     1      90.262 100.414  69.645  1.00  0.00     0.056 A 
ATOM     10  C   UNL     1      89.980  98.995  71.580  1.00  0.00     0.009 A 
ATOM     11  C   UNL     1      89.440  99.566  68.903  1.00  0.00     0.160 A 
ATOM     12  C   UNL     1      89.157  98.147  70.837  1.00  0.00     0.050 A 
ATOM     13  C   UNL     1      88.887  98.432  69.499  1.00  0.00     0.157 A 
BRANCH  11  14
ATOM     14  O   UNL     1      89.183  99.856  67.597  1.00  0.00    -0.493 OA
ATOM     15  C   UNL     1      89.786 101.035  67.064  1.00  0.00     0.278 C 
ENDBRANCH  11  14
BRANCH  13  16
ATOM     16  O   UNL     1      88.084  97.597  68.784  1.00  0.00    -0.504 OA
ATOM     17  H   UNL     1      88.313  96.676  69.000  1.00  0.00     0.293 HD
ENDBRANCH  13  16
ENDBRANCH   7   8
ENDBRANCH   5   7
ENDBRANCH   2   3
ENDBRANCH   1   2
BRANCH   1  18
ATOM     18  C   UNL     1      92.995  97.136  75.837  1.00  0.00     0.001 C 
BRANCH  18  19
ATOM     19  C   UNL     1      93.724  96.633  77.088  1.00  0.00     0.000 C 
BRANCH  19  20
ATOM     20  C   UNL     1      93.805  95.106  77.168  1.00  0.00     0.000 C 
BRANCH  20  21
ATOM     21  C   UNL     1      92.953  94.508  78.293  1.00  0.00     0.000 C 
BRANCH  21  22
ATOM     22  C   UNL     1      91.762  93.690  77.783  1.00  0.00     0.003 C 
BRANCH  22  23
ATOM     23  C   UNL     1      90.402  94.191  78.307  1.00  0.00    -0.017 C 
ATOM     24  C   UNL     1      89.515  92.997  78.667  1.00  0.00     0.007 C 
ATOM     25  C   UNL     1      89.678  95.083  77.298  1.00  0.00     0.007 C 
ENDBRANCH  22  23
ENDBRANCH  21  22
ENDBRANCH  20  21
ENDBRANCH  19  20
ENDBRANCH  18  19
ENDBRANCH   1  18
TORSDOF 12
ENDMDL
MODEL 2
REMARK VINA RESULT:    -5.883     17.060     20.684
REMARK INTER + INTRA:         -10.640
REMARK INTER:                  -9.389
REMARK INTRA:                  -1.252
REMARK UNBOUND:                -0.801
REMARK SMILES COc1cc(CNC(=O)CCCCCCCC(C)C)ccc1O
REMARK SMILES IDX 11 1 10 2 8 3 9 4 7 5 6 7 5 8 4 9 20 10 3 11 21 12 22 13
REMARK SMILES IDX 2 14 1 15 23 16 12 18 13 19 14 20 15 21 16 22 17 23 18 24
REMARK SMILES IDX 19 25
REMARK H PARENT 7 6 23 17
REMARK Flexibility Score: inf
ROOT
ATOM      1  C   UNL     1      99.393  82.128  79.821  1.00  0.00     0.010 C 
ENDROOT
BRANCH   1   2
ATOM      2  C   UNL     1      99.436  83.166  80.940  1.00  0.00     0.100 C 
BRANCH   2   3
ATOM      3  C   UNL     1      98.415  82.884  82.030  1.00  0.00     0.220 C 
ATOM      4  O   UNL     1      97.392  83.546  82.182  1.00  0.00    -0.275 OA
ATOM      5  N   UNL     1      98.794  81.807  82.817  1.00  0.00    -0.352 N 
ATOM      6  H   UNL     1      99.668  81.326  82.622  1.00  0.00     0.163 HD
BRANCH   5   7
ATOM      7  C   UNL     1      98.005  81.334  83.930  1.00  0.00     0.151 C 
BRANCH   7   8
ATOM      8  C   UNL     1      97.902  82.360  85.022  1.00  0.00    -0.025 A 
ATOM      9  C   UNL     1      99.059  82.852  85.613  1.00  0.00     0.056 A 
ATOM     10  C   UNL     1      96.651  82.807  85.429  1.00  0.00     0.009 A 
ATOM     11  C   UNL     1      98.964  83.805  86.627  1.00  0.00     0.160 A 
ATOM     12  C   UNL     1      96.556  83.759  86.444  1.00  0.00     0.050 A 
ATOM     13  C   UNL     1      97.712  84.259  87.043  1.00  0.00     0.157 A 
BRANCH  11  14
ATOM     14  O   UNL     1     100.100  84.285  87.206  1.00  0.00    -0.493 OA
ATOM     15  C   UNL     1     101.072  83.325  87.618  1.00  0.00     0.278 C 
ENDBRANCH  11  14
BRANCH  13  16
ATOM     16  O   UNL     1      97.606  85.190  88.032  1.00  0.00    -0.504 OA
ATOM     17  H   UNL     1      96.900  85.818  87.801  1.00  0.00     0.293 HD
ENDBRANCH  13  16
ENDBRANCH   7   8
ENDBRANCH   5   7
ENDBRANCH   2   3
ENDBRANCH   1   2
BRANCH   1  18
ATOM     18  C   UNL     1      98.219  82.318  78.856  1.00  0.00     0.001 C 
BRANCH  18  19
ATOM     19  C   UNL     1      97.710  83.755  78.705  1.00  0.00     0.000 C 
BRANCH  19  20
ATOM     20  C   UNL     1      97.444  84.154  77.251  1.00  0.00     0.000 C 
BRANCH  20  21
ATOM     21  C   UNL     1      98.283  83.365  76.240  1.00  0.00     0.000 C 
BRANCH  21  22
ATOM     22  C   UNL     1      99.607  84.049  75.886  1.00  0.00     0.003 C 
BRANCH  22  23
ATOM     23  C   UNL     1     100.814  83.090  75.886  1.00  0.00    -0.017 C 
ATOM     24  C   UNL     1     100.322  81.641  75.834  1.00  0.00     0.007 C 
ATOM     25  C   UNL     1     101.716  83.283  77.106  1.00  0.00     0.007 C 
ENDBRANCH  22  23
ENDBRANCH  21  22
ENDBRANCH  20  21
ENDBRANCH  19  20
ENDBRANCH  18  19
ENDBRANCH   1  18
TORSDOF 12
ENDMDL
MODEL 3
REMARK VINA RESULT:    -5.877      1.159      2.095
REMARK INTER + INTRA:         -10.629
REMARK INTER:                  -9.692
REMARK INTRA:                  -0.937
REMARK UNBOUND:                -0.801
REMARK SMILES COc1cc(CNC(=O)CCCCCCCC(C)C)ccc1O
REMARK SMILES IDX 11 1 10 2 8 3 9 4 7 5 6 7 5 8 4 9 20 10 3 11 21 12 22 13
REMARK SMILES IDX 2 14 1 15 23 16 12 18 13 19 14 20 15 21 16 22 17 23 18 24
REMARK SMILES IDX 19 25
REMARK H PARENT 7 6 23 17
REMARK Flexibility Score: inf
ROOT
ATOM      1  C   UNL     1      94.553  98.765  75.155  1.00  0.00     0.010 C 
ENDROOT
BRANCH   1   2
ATOM      2  C   UNL     1      93.167  99.159  74.649  1.00  0.00     0.100 C 
BRANCH   2   3
ATOM      3  C   UNL     1      93.229  99.999  73.384  1.00  0.00     0.220 C 
ATOM      4  O   UNL     1      94.280 100.287  72.818  1.00  0.00    -0.275 OA
ATOM      5  N   UNL     1      91.966 100.395  72.972  1.00  0.00    -0.352 N 
ATOM      6  H   UNL     1      91.151 100.117  73.514  1.00  0.00     0.163 HD
BRANCH   5   7
ATOM      7  C   UNL     1      91.743 101.211  71.800  1.00  0.00     0.151 C 
BRANCH   7   8
ATOM      8  C   UNL     1      90.738 100.595  70.871  1.00  0.00    -0.025 A 
ATOM      9  C   UNL     1      90.360  99.269  71.047  1.00  0.00     0.056 A 
ATOM     10  C   UNL     1      90.197 101.357  69.843  1.00  0.00     0.009 A 
ATOM     11  C   UNL     1      89.426  98.698  70.183  1.00  0.00     0.160 A 
ATOM     12  C   UNL     1      89.263 100.784  68.978  1.00  0.00     0.050 A 
ATOM     13  C   UNL     1      88.878  99.455  69.148  1.00  0.00     0.157 A 
BRANCH  11  14
ATOM     14  O   UNL     1      89.058  97.397  70.359  1.00  0.00    -0.493 OA
ATOM     15  C   UNL     1      89.925  96.400  69.819  1.00  0.00     0.278 C 
ENDBRANCH  11  14
BRANCH  13  16
ATOM     16  O   UNL     1      87.965  98.908  68.298  1.00  0.00    -0.504 OA
ATOM     17  H   UNL     1      87.733  99.564  67.617  1.00  0.00     0.293 HD
ENDBRANCH  13  16
ENDBRANCH   7   8
ENDBRANCH   5   7
ENDBRANCH   2   3
ENDBRANCH   1   2
BRANCH   1  18
ATOM     18  C   UNL     1      94.550  98.231  76.590  1.00  0.00     0.001 C 
BRANCH  18  19
ATOM     19  C   UNL     1      95.273  96.897  76.804  1.00  0.00     0.000 C 
BRANCH  19  20
ATOM     20  C   UNL     1      94.333  95.689  76.781  1.00  0.00     0.000 C 
BRANCH  20  21
ATOM     21  C   UNL     1      93.087  95.869  77.656  1.00  0.00     0.000 C 
BRANCH  21  22
ATOM     22  C   UNL     1      91.777  95.807  76.865  1.00  0.00     0.003 C 
BRANCH  22  23
ATOM     23  C   UNL     1      90.872  94.625  77.267  1.00  0.00    -0.017 C 
ATOM     24  C   UNL     1      89.423  95.102  77.391  1.00  0.00     0.007 C 
ATOM     25  C   UNL     1      91.312  93.970  78.576  1.00  0.00     0.007 C 
ENDBRANCH  22  23
ENDBRANCH  21  22
ENDBRANCH  20  21
ENDBRANCH  19  20
ENDBRANCH  18  19
ENDBRANCH   1  18
TORSDOF 12
ENDMDL
MODEL 4
REMARK VINA RESULT:    -5.846     17.079     18.796
REMARK INTER + INTRA:         -10.578
REMARK INTER:                 -10.043
REMARK INTRA:                  -0.534
REMARK UNBOUND:                -0.801
REMARK SMILES COc1cc(CNC(=O)CCCCCCCC(C)C)ccc1O
REMARK SMILES IDX 11 1 10 2 8 3 9 4 7 5 6 7 5 8 4 9 20 10 3 11 21 12 22 13
REMARK SMILES IDX 2 14 1 15 23 16 12 18 13 19 14 20 15 21 16 22 17 23 18 24
REMARK SMILES IDX 19 25
REMARK H PARENT 7 6 23 17
REMARK Flexibility Score: inf
ROOT
ATOM      1  C   UNL     1      97.802  84.509  85.303  1.00  0.00     0.010 C 
ENDROOT
BRANCH   1   2
ATOM      2  C   UNL     1      97.415  83.225  84.573  1.00  0.00     0.100 C 
BRANCH   2   3
ATOM      3  C   UNL     1      98.552  82.676  83.726  1.00  0.00     0.220 C 
ATOM      4  O   UNL     1      99.380  81.874  84.149  1.00  0.00    -0.275 OA
ATOM      5  N   UNL     1      98.530  83.199  82.442  1.00  0.00    -0.352 N 
ATOM      6  H   UNL     1      97.809  83.868  82.185  1.00  0.00     0.163 HD
BRANCH   5   7
ATOM      7  C   UNL     1      99.506  82.848  81.436  1.00  0.00     0.151 C 
BRANCH   7   8
ATOM      8  C   UNL     1      98.986  83.075  80.047  1.00  0.00    -0.025 A 
ATOM      9  C   UNL     1      99.858  83.005  78.966  1.00  0.00     0.056 A 
ATOM     10  C   UNL     1      97.638  83.353  79.854  1.00  0.00     0.009 A 
ATOM     11  C   UNL     1      99.374  83.216  77.675  1.00  0.00     0.160 A 
ATOM     12  C   UNL     1      97.155  83.565  78.562  1.00  0.00     0.050 A 
ATOM     13  C   UNL     1      98.023  83.496  77.473  1.00  0.00     0.157 A 
BRANCH  11  14
ATOM     14  O   UNL     1     100.232  83.146  76.619  1.00  0.00    -0.493 OA
ATOM     15  C   UNL     1     101.531  83.707  76.801  1.00  0.00     0.278 C 
ENDBRANCH  11  14
BRANCH  13  16
ATOM     16  O   UNL     1      97.539  83.703  76.217  1.00  0.00    -0.504 OA
ATOM     17  H   UNL     1      96.732  83.173  76.097  1.00  0.00     0.293 HD
ENDBRANCH  13  16
ENDBRANCH   7   8
ENDBRANCH   5   7
ENDBRANCH   2   3
ENDBRANCH   1   2
BRANCH   1  18
ATOM     18  C   UNL     1      96.598  85.338  85.760  1.00  0.00     0.001 C 
BRANCH  18  19
ATOM     19  C   UNL     1      95.613  84.620  86.689  1.00  0.00     0.000 C 
BRANCH  19  20
ATOM     20  C   UNL     1      94.823  85.576  87.587  1.00  0.00     0.000 C 
BRANCH  20  21
ATOM     21  C   UNL     1      93.492  84.994  88.076  1.00  0.00     0.000 C 
BRANCH  21  22
ATOM     22  C   UNL     1      93.158  85.373  89.522  1.00  0.00     0.003 C 
BRANCH  22  23
ATOM     23  C   UNL     1      91.939  84.620  90.089  1.00  0.00    -0.017 C 
ATOM     24  C   UNL     1      91.097  84.060  88.940  1.00  0.00     0.007 C 
ATOM     25  C   UNL     1      91.067  85.504  90.982  1.00  0.00     0.007 C 
ENDBRANCH  22  23
ENDBRANCH  21  22
ENDBRANCH  20  21
ENDBRANCH  19  20
ENDBRANCH  18  19
ENDBRANCH   1  18
TORSDOF 12
ENDMDL
MODEL 5
REMARK VINA RESULT:    -5.710     18.089     20.556
REMARK INTER + INTRA:         -10.349
REMARK INTER:                  -9.546
REMARK INTRA:                  -0.803
REMARK UNBOUND:                -0.801
REMARK SMILES COc1cc(CNC(=O)CCCCCCCC(C)C)ccc1O
REMARK SMILES IDX 11 1 10 2 8 3 9 4 7 5 6 7 5 8 4 9 20 10 3 11 21 12 22 13
REMARK SMILES IDX 2 14 1 15 23 16 12 18 13 19 14 20 15 21 16 22 17 23 18 24
REMARK SMILES IDX 19 25
REMARK H PARENT 7 6 23 17
REMARK Flexibility Score: inf
ROOT
ATOM      1  C   UNL     1      75.898  87.039  69.762  1.00  0.00     0.010 C 
ENDROOT
BRANCH   1   2
ATOM      2  C   UNL     1      77.375  87.244  69.432  1.00  0.00     0.100 C 
BRANCH   2   3
ATOM      3  C   UNL     1      77.774  86.579  68.125  1.00  0.00     0.220 C 
ATOM      4  O   UNL     1      77.931  87.196  67.076  1.00  0.00    -0.275 OA
ATOM      5  N   UNL     1      77.926  85.208  68.276  1.00  0.00    -0.352 N 
ATOM      6  H   UNL     1      77.764  84.782  69.185  1.00  0.00     0.163 HD
BRANCH   5   7
ATOM      7  C   UNL     1      78.294  84.336  67.185  1.00  0.00     0.151 C 
BRANCH   7   8
ATOM      8  C   UNL     1      77.162  83.439  66.777  1.00  0.00    -0.025 A 
ATOM      9  C   UNL     1      77.309  82.604  65.676  1.00  0.00     0.056 A 
ATOM     10  C   UNL     1      75.978  83.454  67.503  1.00  0.00     0.009 A 
ATOM     11  C   UNL     1      76.257  81.771  65.297  1.00  0.00     0.160 A 
ATOM     12  C   UNL     1      74.925  82.621  67.123  1.00  0.00     0.050 A 
ATOM     13  C   UNL     1      75.064  81.779  66.020  1.00  0.00     0.157 A 
BRANCH  11  14
ATOM     14  O   UNL     1      76.404  80.953  64.216  1.00  0.00    -0.493 OA
ATOM     15  C   UNL     1      76.094  81.507  62.938  1.00  0.00     0.278 C 
ENDBRANCH  11  14
BRANCH  13  16
ATOM     16  O   UNL     1      74.029  80.970  65.660  1.00  0.00    -0.504 OA
ATOM     17  H   UNL     1      73.826  81.116  64.720  1.00  0.00     0.293 HD
ENDBRANCH  13  16
ENDBRANCH   7   8
ENDBRANCH   5   7
ENDBRANCH   2   3
ENDBRANCH   1   2
BRANCH   1  18
ATOM     18  C   UNL     1      75.275  88.210  70.527  1.00  0.00     0.001 C 
BRANCH  18  19
ATOM     19  C   UNL     1      75.023  89.480  69.707  1.00  0.00     0.000 C 
BRANCH  19  20
ATOM     20  C   UNL     1      74.452  90.632  70.538  1.00  0.00     0.000 C 
BRANCH  20  21
ATOM     21  C   UNL     1      75.425  91.806  70.701  1.00  0.00     0.000 C 
BRANCH  21  22
ATOM     22  C   UNL     1      76.578  91.508  71.665  1.00  0.00     0.003 C 
BRANCH  22  23
ATOM     23  C   UNL     1      77.024  92.734  72.486  1.00  0.00    -0.017 C 
ATOM     24  C   UNL     1      76.438  94.008  71.873  1.00  0.00     0.007 C 
ATOM     25  C   UNL     1      78.545  92.858  72.575  1.00  0.00     0.007 C 
ENDBRANCH  22  23
ENDBRANCH  21  22
ENDBRANCH  20  21
ENDBRANCH  19  20
ENDBRANCH  18  19
ENDBRANCH   1  18
TORSDOF 12
ENDMDL
MODEL 6
REMARK VINA RESULT:    -5.698     27.906     31.361
REMARK INTER + INTRA:         -10.329
REMARK INTER:                  -8.880
REMARK INTRA:                  -1.450
REMARK UNBOUND:                -0.801
REMARK SMILES COc1cc(CNC(=O)CCCCCCCC(C)C)ccc1O
REMARK SMILES IDX 11 1 10 2 8 3 9 4 7 5 6 7 5 8 4 9 20 10 3 11 21 12 22 13
REMARK SMILES IDX 2 14 1 15 23 16 12 18 13 19 14 20 15 21 16 22 17 23 18 24
REMARK SMILES IDX 19 25
REMARK H PARENT 7 6 23 17
REMARK Flexibility Score: inf
ROOT
ATOM      1  C   UNL     1      62.149  82.675  74.568  1.00  0.00     0.010 C 
ENDROOT
BRANCH   1   2
ATOM      2  C   UNL     1      61.848  83.958  73.796  1.00  0.00     0.100 C 
BRANCH   2   3
ATOM      3  C   UNL     1      63.017  84.930  73.810  1.00  0.00     0.220 C 
ATOM      4  O   UNL     1      62.935  86.089  73.412  1.00  0.00    -0.275 OA
ATOM      5  N   UNL     1      64.165  84.339  74.316  1.00  0.00    -0.352 N 
ATOM      6  H   UNL     1      64.140  83.366  74.612  1.00  0.00     0.163 HD
BRANCH   5   7
ATOM      7  C   UNL     1      65.422  85.041  74.432  1.00  0.00     0.151 C 
BRANCH   7   8
ATOM      8  C   UNL     1      65.991  84.949  75.817  1.00  0.00    -0.025 A 
ATOM      9  C   UNL     1      65.157  84.635  76.884  1.00  0.00     0.056 A 
ATOM     10  C   UNL     1      67.347  85.178  76.020  1.00  0.00     0.009 A 
ATOM     11  C   UNL     1      65.687  84.549  78.172  1.00  0.00     0.160 A 
ATOM     12  C   UNL     1      67.876  85.093  77.308  1.00  0.00     0.050 A 
ATOM     13  C   UNL     1      67.046  84.779  78.384  1.00  0.00     0.157 A 
BRANCH  11  14
ATOM     14  O   UNL     1      64.866  84.242  79.215  1.00  0.00    -0.493 OA
ATOM     15  C   UNL     1      63.781  85.132  79.469  1.00  0.00     0.278 C 
ENDBRANCH  11  14
BRANCH  13  16
ATOM     16  O   UNL     1      67.575  84.697  79.637  1.00  0.00    -0.504 OA
ATOM     17  H   UNL     1      67.248  85.444  80.167  1.00  0.00     0.293 HD
ENDBRANCH  13  16
ENDBRANCH   7   8
ENDBRANCH   5   7
ENDBRANCH   2   3
ENDBRANCH   1   2
BRANCH   1  18
ATOM     18  C   UNL     1      62.256  81.437  73.674  1.00  0.00     0.001 C 
BRANCH  18  19
ATOM     19  C   UNL     1      63.678  80.936  73.400  1.00  0.00     0.000 C 
BRANCH  19  20
ATOM     20  C   UNL     1      64.318  81.579  72.166  1.00  0.00     0.000 C 
BRANCH  20  21
ATOM     21  C   UNL     1      63.307  81.943  71.074  1.00  0.00     0.000 C 
BRANCH  21  22
ATOM     22  C   UNL     1      63.635  83.258  70.358  1.00  0.00     0.003 C 
BRANCH  22  23
ATOM     23  C   UNL     1      62.665  83.588  69.207  1.00  0.00    -0.017 C 
ATOM     24  C   UNL     1      61.378  84.193  69.772  1.00  0.00     0.007 C 
ATOM     25  C   UNL     1      62.327  82.364  68.356  1.00  0.00     0.007 C 
ENDBRANCH  22  23
ENDBRANCH  21  22
ENDBRANCH  20  21
ENDBRANCH  19  20
ENDBRANCH  18  19
ENDBRANCH   1  18
TORSDOF 12
ENDMDL
MODEL 7
REMARK VINA RESULT:    -5.434     18.915     20.851
REMARK INTER + INTRA:          -9.888
REMARK INTER:                  -8.744
REMARK INTRA:                  -1.143
REMARK UNBOUND:                -0.801
REMARK SMILES COc1cc(CNC(=O)CCCCCCCC(C)C)ccc1O
REMARK SMILES IDX 11 1 10 2 8 3 9 4 7 5 6 7 5 8 4 9 20 10 3 11 21 12 22 13
REMARK SMILES IDX 2 14 1 15 23 16 12 18 13 19 14 20 15 21 16 22 17 23 18 24
REMARK SMILES IDX 19 25
REMARK H PARENT 7 6 23 17
REMARK Flexibility Score: inf
ROOT
ATOM      1  C   UNL     1      93.910  83.978  87.837  1.00  0.00     0.010 C 
ENDROOT
BRANCH   1   2
ATOM      2  C   UNL     1      94.211  85.475  87.792  1.00  0.00     0.100 C 
BRANCH   2   3
ATOM      3  C   UNL     1      95.353  85.808  86.847  1.00  0.00     0.220 C 
ATOM      4  O   UNL     1      95.964  86.872  86.877  1.00  0.00    -0.275 OA
ATOM      5  N   UNL     1      95.599  84.770  85.960  1.00  0.00    -0.352 N 
ATOM      6  H   UNL     1      95.032  83.928  86.003  1.00  0.00     0.163 HD
BRANCH   5   7
ATOM      7  C   UNL     1      96.629  84.832  84.948  1.00  0.00     0.151 C 
BRANCH   7   8
ATOM      8  C   UNL     1      97.136  83.469  84.579  1.00  0.00    -0.025 A 
ATOM      9  C   UNL     1      97.826  83.291  83.386  1.00  0.00     0.056 A 
ATOM     10  C   UNL     1      96.909  82.397  85.434  1.00  0.00     0.009 A 
ATOM     11  C   UNL     1      98.296  82.024  83.043  1.00  0.00     0.160 A 
ATOM     12  C   UNL     1      97.379  81.129  85.090  1.00  0.00     0.050 A 
ATOM     13  C   UNL     1      98.072  80.942  83.895  1.00  0.00     0.157 A 
BRANCH  11  14
ATOM     14  O   UNL     1      98.972  81.854  81.872  1.00  0.00    -0.493 OA
ATOM     15  C   UNL     1      98.909  82.921  80.927  1.00  0.00     0.278 C 
ENDBRANCH  11  14
BRANCH  13  16
ATOM     16  O   UNL     1      98.527  79.700  83.571  1.00  0.00    -0.504 OA
ATOM     17  H   UNL     1      98.421  79.563  82.614  1.00  0.00     0.293 HD
ENDBRANCH  13  16
ENDBRANCH   7   8
ENDBRANCH   5   7
ENDBRANCH   2   3
ENDBRANCH   1   2
BRANCH   1  18
ATOM     18  C   UNL     1      92.426  83.648  87.660  1.00  0.00     0.001 C 
BRANCH  18  19
ATOM     19  C   UNL     1      92.021  82.208  87.994  1.00  0.00     0.000 C 
BRANCH  19  20
ATOM     20  C   UNL     1      90.505  81.999  88.031  1.00  0.00     0.000 C 
BRANCH  20  21
ATOM     21  C   UNL     1      90.060  80.655  87.444  1.00  0.00     0.000 C 
BRANCH  21  22
ATOM     22  C   UNL     1      91.008  79.501  87.786  1.00  0.00     0.003 C 
BRANCH  22  23
ATOM     23  C   UNL     1      91.590  78.795  86.546  1.00  0.00    -0.017 C 
ATOM     24  C   UNL     1      93.119  78.815  86.609  1.00  0.00     0.007 C 
ATOM     25  C   UNL     1      91.121  79.431  85.236  1.00  0.00     0.007 C 
ENDBRANCH  22  23
ENDBRANCH  21  22
ENDBRANCH  20  21
ENDBRANCH  19  20
ENDBRANCH  18  19
ENDBRANCH   1  18
TORSDOF 12
ENDMDL
MODEL 8
REMARK VINA RESULT:    -5.403     38.517     41.151
REMARK INTER + INTRA:          -9.836
REMARK INTER:                  -7.535
REMARK INTRA:                  -2.302
REMARK UNBOUND:                -0.801
REMARK SMILES COc1cc(CNC(=O)CCCCCCCC(C)C)ccc1O
REMARK SMILES IDX 11 1 10 2 8 3 9 4 7 5 6 7 5 8 4 9 20 10 3 11 21 12 22 13
REMARK SMILES IDX 2 14 1 15 23 16 12 18 13 19 14 20 15 21 16 22 17 23 18 24
REMARK SMILES IDX 19 25
REMARK H PARENT 7 6 23 17
REMARK Flexibility Score: inf
ROOT
ATOM      1  C   UNL     1      66.297  67.458  82.824  1.00  0.00     0.010 C 
ENDROOT
BRANCH   1   2
ATOM      2  C   UNL     1      66.733  67.231  81.378  1.00  0.00     0.100 C 
BRANCH   2   3
ATOM      3  C   UNL     1      65.822  67.931  80.383  1.00  0.00     0.220 C 
ATOM      4  O   UNL     1      65.099  67.330  79.593  1.00  0.00    -0.275 OA
ATOM      5  N   UNL     1      65.925  69.311  80.481  1.00  0.00    -0.352 N 
ATOM      6  H   UNL     1      66.561  69.720  81.160  1.00  0.00     0.163 HD
BRANCH   5   7
ATOM      7  C   UNL     1      65.171  70.214  79.643  1.00  0.00     0.151 C 
BRANCH   7   8
ATOM      8  C   UNL     1      63.934  70.716  80.328  1.00  0.00    -0.025 A 
ATOM      9  C   UNL     1      64.048  71.443  81.507  1.00  0.00     0.056 A 
ATOM     10  C   UNL     1      62.686  70.448  79.778  1.00  0.00     0.009 A 
ATOM     11  C   UNL     1      62.898  71.910  82.144  1.00  0.00     0.160 A 
ATOM     12  C   UNL     1      61.536  70.914  80.416  1.00  0.00     0.050 A 
ATOM     13  C   UNL     1      61.642  71.645  81.599  1.00  0.00     0.157 A 
BRANCH  11  14
ATOM     14  O   UNL     1      63.014  72.622  83.300  1.00  0.00    -0.493 OA
ATOM     15  C   UNL     1      64.320  73.077  83.652  1.00  0.00     0.278 C 
ENDBRANCH  11  14
BRANCH  13  16
ATOM     16  O   UNL     1      60.512  72.095  82.211  1.00  0.00    -0.504 OA
ATOM     17  H   UNL     1      59.860  71.374  82.242  1.00  0.00     0.293 HD
ENDBRANCH  13  16
ENDBRANCH   7   8
ENDBRANCH   5   7
ENDBRANCH   2   3
ENDBRANCH   1   2
BRANCH   1  18
ATOM     18  C   UNL     1      64.834  67.088  83.086  1.00  0.00     0.001 C 
BRANCH  18  19
ATOM     19  C   UNL     1      63.906  68.256  83.432  1.00  0.00     0.000 C 
BRANCH  19  20
ATOM     20  C   UNL     1      62.533  68.157  82.762  1.00  0.00     0.000 C 
BRANCH  20  21
ATOM     21  C   UNL     1      62.317  66.841  82.006  1.00  0.00     0.000 C 
BRANCH  21  22
ATOM     22  C   UNL     1      61.794  67.040  80.579  1.00  0.00     0.003 C 
BRANCH  22  23
ATOM     23  C   UNL     1      61.333  65.732  79.907  1.00  0.00    -0.017 C 
ATOM     24  C   UNL     1      60.522  64.897  80.900  1.00  0.00     0.007 C 
ATOM     25  C   UNL     1      62.503  64.904  79.374  1.00  0.00     0.007 C 
ENDBRANCH  22  23
ENDBRANCH  21  22
ENDBRANCH  20  21
ENDBRANCH  19  20
ENDBRANCH  18  19
ENDBRANCH   1  18
TORSDOF 12
ENDMDL
MODEL 9
REMARK VINA RESULT:    -5.357     17.483     21.238
REMARK INTER + INTRA:          -9.760
REMARK INTER:                  -8.124
REMARK INTRA:                  -1.637
REMARK UNBOUND:                -0.801
REMARK SMILES COc1cc(CNC(=O)CCCCCCCC(C)C)ccc1O
REMARK SMILES IDX 11 1 10 2 8 3 9 4 7 5 6 7 5 8 4 9 20 10 3 11 21 12 22 13
REMARK SMILES IDX 2 14 1 15 23 16 12 18 13 19 14 20 15 21 16 22 17 23 18 24
REMARK SMILES IDX 19 25
REMARK H PARENT 7 6 23 17
REMARK Flexibility Score: inf
ROOT
ATOM      1  C   UNL     1     100.877  79.176  81.607  1.00  0.00     0.010 C 
ENDROOT
BRANCH   1   2
ATOM      2  C   UNL     1      99.367  79.224  81.828  1.00  0.00     0.100 C 
BRANCH   2   3
ATOM      3  C   UNL     1      98.999  79.258  83.302  1.00  0.00     0.220 C 
ATOM      4  O   UNL     1      99.394  78.426  84.114  1.00  0.00    -0.275 OA
ATOM      5  N   UNL     1      98.167  80.328  83.595  1.00  0.00    -0.352 N 
ATOM      6  H   UNL     1      97.882  80.961  82.852  1.00  0.00     0.163 HD
BRANCH   5   7
ATOM      7  C   UNL     1      97.662  80.586  84.924  1.00  0.00     0.151 C 
BRANCH   7   8
ATOM      8  C   UNL     1      97.262  82.022  85.103  1.00  0.00    -0.025 A 
ATOM      9  C   UNL     1      96.521  82.395  86.218  1.00  0.00     0.056 A 
ATOM     10  C   UNL     1      97.636  82.963  84.152  1.00  0.00     0.009 A 
ATOM     11  C   UNL     1      96.149  83.729  86.384  1.00  0.00     0.160 A 
ATOM     12  C   UNL     1      97.264  84.298  84.318  1.00  0.00     0.050 A 
ATOM     13  C   UNL     1      96.520  84.681  85.433  1.00  0.00     0.157 A 
BRANCH  11  14
ATOM     14  O   UNL     1      95.422  84.092  87.478  1.00  0.00    -0.493 OA
ATOM     15  C   UNL     1      95.623  83.333  88.669  1.00  0.00     0.278 C 
ENDBRANCH  11  14
BRANCH  13  16
ATOM     16  O   UNL     1      96.163  85.987  85.585  1.00  0.00    -0.504 OA
ATOM     17  H   UNL     1      96.017  86.379  84.707  1.00  0.00     0.293 HD
ENDBRANCH  13  16
ENDBRANCH   7   8
ENDBRANCH   5   7
ENDBRANCH   2   3
ENDBRANCH   1   2
BRANCH   1  18
ATOM     18  C   UNL     1     101.432  80.421  80.908  1.00  0.00     0.001 C 
BRANCH  18  19
ATOM     19  C   UNL     1     101.648  81.645  81.804  1.00  0.00     0.000 C 
BRANCH  19  20
ATOM     20  C   UNL     1     100.454  82.603  81.817  1.00  0.00     0.000 C 
BRANCH  20  21
ATOM     21  C   UNL     1      99.866  82.864  80.426  1.00  0.00     0.000 C 
BRANCH  21  22
ATOM     22  C   UNL     1      98.354  83.110  80.444  1.00  0.00     0.003 C 
BRANCH  22  23
ATOM     23  C   UNL     1      97.661  82.772  79.109  1.00  0.00    -0.017 C 
ATOM     24  C   UNL     1      98.444  81.677  78.383  1.00  0.00     0.007 C 
ATOM     25  C   UNL     1      97.517  83.992  78.198  1.00  0.00     0.007 C 
ENDBRANCH  22  23
ENDBRANCH  21  22
ENDBRANCH  20  21
ENDBRANCH  19  20
ENDBRANCH  18  19
ENDBRANCH   1  18
TORSDOF 12
ENDMDL
MODEL 10
REMARK VINA RESULT:    -5.193     28.669     32.518
REMARK INTER + INTRA:          -9.485
REMARK INTER:                  -7.580
REMARK INTRA:                  -1.905
REMARK UNBOUND:                -0.801
REMARK SMILES COc1cc(CNC(=O)CCCCCCCC(C)C)ccc1O
REMARK SMILES IDX 11 1 10 2 8 3 9 4 7 5 6 7 5 8 4 9 20 10 3 11 21 12 22 13
REMARK SMILES IDX 2 14 1 15 23 16 12 18 13 19 14 20 15 21 16 22 17 23 18 24
REMARK SMILES IDX 19 25
REMARK H PARENT 7 6 23 17
REMARK Flexibility Score: inf
ROOT
ATOM      1  C   UNL     1      83.069  64.931  71.212  1.00  0.00     0.010 C 
ENDROOT
BRANCH   1   2
ATOM      2  C   UNL     1      81.866  65.415  72.020  1.00  0.00     0.100 C 
BRANCH   2   3
ATOM      3  C   UNL     1      82.217  65.691  73.472  1.00  0.00     0.220 C 
ATOM      4  O   UNL     1      81.654  66.544  74.151  1.00  0.00    -0.275 OA
ATOM      5  N   UNL     1      83.244  64.869  73.913  1.00  0.00    -0.352 N 
ATOM      6  H   UNL     1      83.659  64.197  73.273  1.00  0.00     0.163 HD
BRANCH   5   7
ATOM      7  C   UNL     1      83.776  64.932  75.255  1.00  0.00     0.151 C 
BRANCH   7   8
ATOM      8  C   UNL     1      85.030  65.754  75.324  1.00  0.00    -0.025 A 
ATOM      9  C   UNL     1      86.247  65.185  74.967  1.00  0.00     0.056 A 
ATOM     10  C   UNL     1      84.961  67.077  75.743  1.00  0.00     0.009 A 
ATOM     11  C   UNL     1      87.412  65.949  75.032  1.00  0.00     0.160 A 
ATOM     12  C   UNL     1      86.127  67.841  75.808  1.00  0.00     0.050 A 
ATOM     13  C   UNL     1      87.352  67.278  75.453  1.00  0.00     0.157 A 
BRANCH  11  14
ATOM     14  O   UNL     1      88.603  65.387  74.682  1.00  0.00    -0.493 OA
ATOM     15  C   UNL     1      89.160  64.434  75.587  1.00  0.00     0.278 C 
ENDBRANCH  11  14
BRANCH  13  16
ATOM     16  O   UNL     1      88.483  68.035  75.519  1.00  0.00    -0.504 OA
ATOM     17  H   UNL     1      88.665  68.249  76.450  1.00  0.00     0.293 HD
ENDBRANCH  13  16
ENDBRANCH   7   8
ENDBRANCH   5   7
ENDBRANCH   2   3
ENDBRANCH   1   2
BRANCH   1  18
ATOM     18  C   UNL     1      83.899  66.070  70.614  1.00  0.00     0.001 C 
BRANCH  18  19
ATOM     19  C   UNL     1      85.149  66.468  71.406  1.00  0.00     0.000 C 
BRANCH  19  20
ATOM     20  C   UNL     1      84.981  67.776  72.184  1.00  0.00     0.000 C 
BRANCH  20  21
ATOM     21  C   UNL     1      85.469  69.009  71.417  1.00  0.00     0.000 C 
BRANCH  21  22
ATOM     22  C   UNL     1      86.838  68.811  70.758  1.00  0.00     0.003 C 
BRANCH  22  23
ATOM     23  C   UNL     1      87.951  69.677  71.381  1.00  0.00    -0.017 C 
ATOM     24  C   UNL     1      87.435  70.339  72.661  1.00  0.00     0.007 C 
ATOM     25  C   UNL     1      88.468  70.748  70.420  1.00  0.00     0.007 C 
ENDBRANCH  22  23
ENDBRANCH  21  22
ENDBRANCH  20  21
ENDBRANCH  19  20
ENDBRANCH  18  19
ENDBRANCH   1  18
TORSDOF 12
ENDMDL
