MODEL 1
REMARK VINA RESULT:    -6.422      0.000      0.000
REMARK INTER + INTRA:         -11.649
REMARK INTER:                  -9.988
REMARK INTRA:                  -1.661
REMARK UNBOUND:                -1.661
REMARK SMILES CCCCC/C=C/C(=O)CCc1ccc(O)c(OC)c1
REMARK SMILES IDX 6 1 7 2 8 3 9 4 10 5 11 6 12 7 17 8 20 9 15 10 14 11 13 12
REMARK SMILES IDX 18 13 19 14 16 15 5 17 4 18 3 19 2 20 1 21
REMARK H PARENT 16 16
REMARK Flexibility Score: inf
ROOT
ATOM      1  C   UNL     1      91.515  90.545  74.711  1.00  0.00    -0.023 C 
ATOM      2  C   UNL     1      90.409  89.866  75.039  1.00  0.00     0.043 C 
ENDROOT
BRANCH   2   3
ATOM      3  C   UNL     1      90.321  89.186  76.360  1.00  0.00     0.155 C 
ATOM      4  O   UNL     1      90.875  88.109  76.574  1.00  0.00    -0.295 OA
BRANCH   3   5
ATOM      5  C   UNL     1      89.469  89.865  77.415  1.00  0.00     0.085 C 
BRANCH   5   6
ATOM      6  C   UNL     1      90.309  90.793  78.294  1.00  0.00     0.044 C 
BRANCH   6   7
ATOM      7  C   UNL     1      90.618  92.113  77.627  1.00  0.00    -0.044 A 
ATOM      8  C   UNL     1      92.213  93.781  76.971  1.00  0.00     0.160 A 
ATOM      9  C   UNL     1      91.928  92.563  77.587  1.00  0.00     0.054 A 
ATOM     10  C   UNL     1      91.185  94.534  76.404  1.00  0.00     0.157 A 
ATOM     11  C   UNL     1      89.871  94.067  76.453  1.00  0.00     0.050 A 
ATOM     12  C   UNL     1      89.586  92.849  77.069  1.00  0.00     0.008 A 
BRANCH   8  13
ATOM     13  O   UNL     1      93.501  94.226  76.930  1.00  0.00    -0.493 OA
ATOM     14  C   UNL     1      94.323  93.734  75.874  1.00  0.00     0.278 C 
ENDBRANCH   8  13
BRANCH  10  15
ATOM     15  O   UNL     1      91.451  95.725  75.799  1.00  0.00    -0.504 OA
ATOM     16  H   UNL     1      92.320  95.660  75.366  1.00  0.00     0.293 HD
ENDBRANCH  10  15
ENDBRANCH   6   7
ENDBRANCH   5   6
ENDBRANCH   3   5
ENDBRANCH   2   3
BRANCH   1  17
ATOM     17  C   UNL     1      91.681  91.257  73.400  1.00  0.00     0.027 C 
BRANCH  17  18
ATOM     18  C   UNL     1      90.764  92.476  73.256  1.00  0.00     0.004 C 
BRANCH  18  19
ATOM     19  C   UNL     1      89.907  92.453  71.986  1.00  0.00     0.000 C 
BRANCH  19  20
ATOM     20  C   UNL     1      88.446  92.139  72.313  1.00  0.00    -0.003 C 
ATOM     21  C   UNL     1      88.108  90.687  72.012  1.00  0.00     0.004 C 
ENDBRANCH  19  20
ENDBRANCH  18  19
ENDBRANCH  17  18
ENDBRANCH   1  17
TORSDOF 10
ENDMDL
MODEL 2
REMARK VINA RESULT:    -6.122      1.509      2.441
REMARK INTER + INTRA:         -11.183
REMARK INTER:                  -9.846
REMARK INTRA:                  -1.337
REMARK UNBOUND:                -1.661
REMARK SMILES CCCCC/C=C/C(=O)CCc1ccc(O)c(OC)c1
REMARK SMILES IDX 6 1 7 2 8 3 9 4 10 5 11 6 12 7 17 8 20 9 15 10 14 11 13 12
REMARK SMILES IDX 18 13 19 14 16 15 5 17 4 18 3 19 2 20 1 21
REMARK H PARENT 16 16
REMARK Flexibility Score: inf
ROOT
ATOM      1  C   UNL     1      90.587  89.803  75.250  1.00  0.00    -0.023 C 
ATOM      2  C   UNL     1      89.651  90.286  76.077  1.00  0.00     0.043 C 
ENDROOT
BRANCH   2   3
ATOM      3  C   UNL     1      89.953  90.445  77.526  1.00  0.00     0.155 C 
ATOM      4  O   UNL     1      89.850  89.509  78.316  1.00  0.00    -0.295 OA
BRANCH   3   5
ATOM      5  C   UNL     1      90.343  91.836  77.987  1.00  0.00     0.085 C 
BRANCH   5   6
ATOM      6  C   UNL     1      90.425  92.809  76.810  1.00  0.00     0.044 C 
BRANCH   6   7
ATOM      7  C   UNL     1      91.838  93.247  76.506  1.00  0.00    -0.044 A 
ATOM      8  C   UNL     1      93.907  94.224  77.229  1.00  0.00     0.160 A 
ATOM      9  C   UNL     1      92.602  93.820  77.510  1.00  0.00     0.054 A 
ATOM     10  C   UNL     1      94.431  94.050  75.949  1.00  0.00     0.157 A 
ATOM     11  C   UNL     1      93.649  93.471  74.948  1.00  0.00     0.050 A 
ATOM     12  C   UNL     1      92.344  93.067  75.229  1.00  0.00     0.008 A 
BRANCH   8  13
ATOM     13  O   UNL     1      94.660  94.788  78.215  1.00  0.00    -0.493 OA
ATOM     14  C   UNL     1      95.351  93.899  79.091  1.00  0.00     0.278 C 
ENDBRANCH   8  13
BRANCH  10  15
ATOM     15  O   UNL     1      95.705  94.439  75.662  1.00  0.00    -0.504 OA
ATOM     16  H   UNL     1      95.867  94.280  74.717  1.00  0.00     0.293 HD
ENDBRANCH  10  15
ENDBRANCH   6   7
ENDBRANCH   5   6
ENDBRANCH   3   5
ENDBRANCH   2   3
BRANCH   1  17
ATOM     17  C   UNL     1      90.361  89.613  73.778  1.00  0.00     0.027 C 
BRANCH  17  18
ATOM     18  C   UNL     1      90.544  90.902  72.970  1.00  0.00     0.004 C 
BRANCH  18  19
ATOM     19  C   UNL     1      89.243  91.682  72.755  1.00  0.00     0.000 C 
BRANCH  19  20
ATOM     20  C   UNL     1      88.213  90.839  72.002  1.00  0.00    -0.003 C 
ATOM     21  C   UNL     1      86.960  90.616  72.835  1.00  0.00     0.004 C 
ENDBRANCH  19  20
ENDBRANCH  18  19
ENDBRANCH  17  18
ENDBRANCH   1  17
TORSDOF 10
ENDMDL
MODEL 3
REMARK VINA RESULT:    -6.069      1.299      4.637
REMARK INTER + INTRA:         -11.099
REMARK INTER:                 -10.010
REMARK INTRA:                  -1.090
REMARK UNBOUND:                -1.661
REMARK SMILES CCCCC/C=C/C(=O)CCc1ccc(O)c(OC)c1
REMARK SMILES IDX 6 1 7 2 8 3 9 4 10 5 11 6 12 7 17 8 20 9 15 10 14 11 13 12
REMARK SMILES IDX 18 13 19 14 16 15 5 17 4 18 3 19 2 20 1 21
REMARK H PARENT 16 16
REMARK Flexibility Score: inf
ROOT
ATOM      1  C   UNL     1      91.258  93.528  74.189  1.00  0.00    -0.023 C 
ATOM      2  C   UNL     1      91.020  94.008  75.415  1.00  0.00     0.043 C 
ENDROOT
BRANCH   2   3
ATOM      3  C   UNL     1      92.103  94.005  76.437  1.00  0.00     0.155 C 
ATOM      4  O   UNL     1      93.099  94.717  76.329  1.00  0.00    -0.295 OA
BRANCH   3   5
ATOM      5  C   UNL     1      91.940  93.037  77.592  1.00  0.00     0.085 C 
BRANCH   5   6
ATOM      6  C   UNL     1      90.486  92.583  77.735  1.00  0.00     0.044 C 
BRANCH   6   7
ATOM      7  C   UNL     1      90.336  91.080  77.726  1.00  0.00    -0.044 A 
ATOM      8  C   UNL     1      90.496  88.987  76.563  1.00  0.00     0.160 A 
ATOM      9  C   UNL     1      90.634  90.375  76.571  1.00  0.00     0.054 A 
ATOM     10  C   UNL     1      90.062  88.322  77.709  1.00  0.00     0.157 A 
ATOM     11  C   UNL     1      89.765  89.046  78.865  1.00  0.00     0.050 A 
ATOM     12  C   UNL     1      89.903  90.434  78.872  1.00  0.00     0.008 A 
BRANCH   8  13
ATOM     13  O   UNL     1      90.789  88.291  75.428  1.00  0.00    -0.493 OA
ATOM     14  C   UNL     1      90.004  88.577  74.272  1.00  0.00     0.278 C 
ENDBRANCH   8  13
BRANCH  10  15
ATOM     15  O   UNL     1      89.923  86.967  77.714  1.00  0.00    -0.504 OA
ATOM     16  H   UNL     1      90.103  86.638  76.817  1.00  0.00     0.293 HD
ENDBRANCH  10  15
ENDBRANCH   6   7
ENDBRANCH   5   6
ENDBRANCH   3   5
ENDBRANCH   2   3
BRANCH   1  17
ATOM     17  C   UNL     1      90.221  93.496  73.104  1.00  0.00     0.027 C 
BRANCH  17  18
ATOM     18  C   UNL     1      89.737  92.080  72.777  1.00  0.00     0.004 C 
BRANCH  18  19
ATOM     19  C   UNL     1      88.356  92.041  72.115  1.00  0.00     0.000 C 
BRANCH  19  20
ATOM     20  C   UNL     1      87.935  90.605  71.800  1.00  0.00    -0.003 C 
ATOM     21  C   UNL     1      87.040  90.034  72.889  1.00  0.00     0.004 C 
ENDBRANCH  19  20
ENDBRANCH  18  19
ENDBRANCH  17  18
ENDBRANCH   1  17
TORSDOF 10
ENDMDL
MODEL 4
REMARK VINA RESULT:    -5.778      2.412      4.523
REMARK INTER + INTRA:         -10.648
REMARK INTER:                  -9.968
REMARK INTRA:                  -0.680
REMARK UNBOUND:                -1.661
REMARK SMILES CCCCC/C=C/C(=O)CCc1ccc(O)c(OC)c1
REMARK SMILES IDX 6 1 7 2 8 3 9 4 10 5 11 6 12 7 17 8 20 9 15 10 14 11 13 12
REMARK SMILES IDX 18 13 19 14 16 15 5 17 4 18 3 19 2 20 1 21
REMARK H PARENT 16 16
REMARK Flexibility Score: inf
ROOT
ATOM      1  C   UNL     1      89.727  91.862  75.728  1.00  0.00    -0.023 C 
ATOM      2  C   UNL     1      89.731  92.807  76.676  1.00  0.00     0.043 C 
ENDROOT
BRANCH   2   3
ATOM      3  C   UNL     1      90.298  94.151  76.382  1.00  0.00     0.155 C 
ATOM      4  O   UNL     1      89.602  95.165  76.391  1.00  0.00    -0.295 OA
BRANCH   3   5
ATOM      5  C   UNL     1      91.769  94.200  76.020  1.00  0.00     0.085 C 
BRANCH   5   6
ATOM      6  C   UNL     1      92.630  93.544  77.101  1.00  0.00     0.044 C 
BRANCH   6   7
ATOM      7  C   UNL     1      94.056  94.041  77.098  1.00  0.00    -0.044 A 
ATOM      8  C   UNL     1      95.949  94.916  78.285  1.00  0.00     0.160 A 
ATOM      9  C   UNL     1      94.632  94.458  78.288  1.00  0.00     0.054 A 
ATOM     10  C   UNL     1      96.673  94.953  77.093  1.00  0.00     0.157 A 
ATOM     11  C   UNL     1      96.078  94.531  75.903  1.00  0.00     0.050 A 
ATOM     12  C   UNL     1      94.761  94.073  75.906  1.00  0.00     0.008 A 
BRANCH   8  13
ATOM     13  O   UNL     1      96.518  95.326  79.453  1.00  0.00    -0.493 OA
ATOM     14  C   UNL     1      95.635  95.664  80.521  1.00  0.00     0.278 C 
ENDBRANCH   8  13
BRANCH  10  15
ATOM     15  O   UNL     1      97.960  95.399  77.078  1.00  0.00    -0.504 OA
ATOM     16  H   UNL     1      98.450  94.893  76.407  1.00  0.00     0.293 HD
ENDBRANCH  10  15
ENDBRANCH   6   7
ENDBRANCH   5   6
ENDBRANCH   3   5
ENDBRANCH   2   3
BRANCH   1  17
ATOM     17  C   UNL     1      89.175  90.483  75.945  1.00  0.00     0.027 C 
BRANCH  17  18
ATOM     18  C   UNL     1      88.859  89.749  74.637  1.00  0.00     0.004 C 
BRANCH  18  19
ATOM     19  C   UNL     1      89.888  89.996  73.530  1.00  0.00     0.000 C 
BRANCH  19  20
ATOM     20  C   UNL     1      89.204  90.383  72.218  1.00  0.00    -0.003 C 
ATOM     21  C   UNL     1      90.198  90.958  71.221  1.00  0.00     0.004 C 
ENDBRANCH  19  20
ENDBRANCH  18  19
ENDBRANCH  17  18
ENDBRANCH   1  17
TORSDOF 10
ENDMDL
MODEL 5
REMARK VINA RESULT:    -5.704      3.913      6.212
REMARK INTER + INTRA:         -10.532
REMARK INTER:                  -9.626
REMARK INTRA:                  -0.906
REMARK UNBOUND:                -1.661
REMARK SMILES CCCCC/C=C/C(=O)CCc1ccc(O)c(OC)c1
REMARK SMILES IDX 6 1 7 2 8 3 9 4 10 5 11 6 12 7 17 8 20 9 15 10 14 11 13 12
REMARK SMILES IDX 18 13 19 14 16 15 5 17 4 18 3 19 2 20 1 21
REMARK H PARENT 16 16
REMARK Flexibility Score: inf
ROOT
ATOM      1  C   UNL     1      91.606  93.768  76.559  1.00  0.00    -0.023 C 
ATOM      2  C   UNL     1      92.838  93.674  77.074  1.00  0.00     0.043 C 
ENDROOT
BRANCH   2   3
ATOM      3  C   UNL     1      93.989  94.294  76.363  1.00  0.00     0.155 C 
ATOM      4  O   UNL     1      93.833  95.188  75.534  1.00  0.00    -0.295 OA
BRANCH   3   5
ATOM      5  C   UNL     1      95.361  93.730  76.675  1.00  0.00     0.085 C 
BRANCH   5   6
ATOM      6  C   UNL     1      96.281  94.801  77.264  1.00  0.00     0.044 C 
BRANCH   6   7
ATOM      7  C   UNL     1      96.101  94.974  78.754  1.00  0.00    -0.044 A 
ATOM      8  C   UNL     1      96.186  96.370  80.704  1.00  0.00     0.160 A 
ATOM      9  C   UNL     1      96.352  96.210  79.329  1.00  0.00     0.054 A 
ATOM     10  C   UNL     1      95.772  95.292  81.487  1.00  0.00     0.157 A 
ATOM     11  C   UNL     1      95.524  94.054  80.894  1.00  0.00     0.050 A 
ATOM     12  C   UNL     1      95.690  93.894  79.518  1.00  0.00     0.008 A 
BRANCH   8  13
ATOM     13  O   UNL     1      96.432  97.584  81.272  1.00  0.00    -0.493 OA
ATOM     14  C   UNL     1      97.759  97.827  81.733  1.00  0.00     0.278 C 
ENDBRANCH   8  13
BRANCH  10  15
ATOM     15  O   UNL     1      95.606  95.436  82.831  1.00  0.00    -0.504 OA
ATOM     16  H   UNL     1      95.276  94.594  83.190  1.00  0.00     0.293 HD
ENDBRANCH  10  15
ENDBRANCH   6   7
ENDBRANCH   5   6
ENDBRANCH   3   5
ENDBRANCH   2   3
BRANCH   1  17
ATOM     17  C   UNL     1      90.395  93.169  77.214  1.00  0.00     0.027 C 
BRANCH  17  18
ATOM     18  C   UNL     1      90.701  91.876  77.977  1.00  0.00     0.004 C 
BRANCH  18  19
ATOM     19  C   UNL     1      89.897  90.668  77.484  1.00  0.00     0.000 C 
BRANCH  19  20
ATOM     20  C   UNL     1      90.258  90.317  76.040  1.00  0.00    -0.003 C 
ATOM     21  C   UNL     1      89.027  90.289  75.149  1.00  0.00     0.004 C 
ENDBRANCH  19  20
ENDBRANCH  18  19
ENDBRANCH  17  18
ENDBRANCH   1  17
TORSDOF 10
ENDMDL
MODEL 6
REMARK VINA RESULT:    -5.596      2.424      4.399
REMARK INTER + INTRA:         -10.365
REMARK INTER:                  -9.643
REMARK INTRA:                  -0.722
REMARK UNBOUND:                -1.661
REMARK SMILES CCCCC/C=C/C(=O)CCc1ccc(O)c(OC)c1
REMARK SMILES IDX 6 1 7 2 8 3 9 4 10 5 11 6 12 7 17 8 20 9 15 10 14 11 13 12
REMARK SMILES IDX 18 13 19 14 16 15 5 17 4 18 3 19 2 20 1 21
REMARK H PARENT 16 16
REMARK Flexibility Score: inf
ROOT
ATOM      1  C   UNL     1      89.813  91.815  75.727  1.00  0.00    -0.023 C 
ATOM      2  C   UNL     1      89.634  92.801  76.614  1.00  0.00     0.043 C 
ENDROOT
BRANCH   2   3
ATOM      3  C   UNL     1      90.239  94.138  76.369  1.00  0.00     0.155 C 
ATOM      4  O   UNL     1      89.567  95.168  76.384  1.00  0.00    -0.295 OA
BRANCH   3   5
ATOM      5  C   UNL     1      91.721  94.161  76.046  1.00  0.00     0.085 C 
BRANCH   5   6
ATOM      6  C   UNL     1      92.554  93.665  77.229  1.00  0.00     0.044 C 
BRANCH   6   7
ATOM      7  C   UNL     1      93.978  94.169  77.196  1.00  0.00    -0.044 A 
ATOM      8  C   UNL     1      95.895  94.890  75.946  1.00  0.00     0.160 A 
ATOM      9  C   UNL     1      94.580  94.424  75.975  1.00  0.00     0.054 A 
ATOM     10  C   UNL     1      96.589  95.094  77.138  1.00  0.00     0.157 A 
ATOM     11  C   UNL     1      95.969  94.832  78.360  1.00  0.00     0.050 A 
ATOM     12  C   UNL     1      94.654  94.366  78.389  1.00  0.00     0.008 A 
BRANCH   8  13
ATOM     13  O   UNL     1      96.490  95.142  74.747  1.00  0.00    -0.493 OA
ATOM     14  C   UNL     1      96.315  96.447  74.197  1.00  0.00     0.278 C 
ENDBRANCH   8  13
BRANCH  10  15
ATOM     15  O   UNL     1      97.873  95.549  77.123  1.00  0.00    -0.504 OA
ATOM     16  H   UNL     1      98.223  95.446  76.221  1.00  0.00     0.293 HD
ENDBRANCH  10  15
ENDBRANCH   6   7
ENDBRANCH   5   6
ENDBRANCH   3   5
ENDBRANCH   2   3
BRANCH   1  17
ATOM     17  C   UNL     1      89.236  90.440  75.902  1.00  0.00     0.027 C 
BRANCH  17  18
ATOM     18  C   UNL     1      88.768  89.812  74.585  1.00  0.00     0.004 C 
BRANCH  18  19
ATOM     19  C   UNL     1      89.378  90.467  73.342  1.00  0.00     0.000 C 
BRANCH  19  20
ATOM     20  C   UNL     1      88.368  90.521  72.195  1.00  0.00    -0.003 C 
ATOM     21  C   UNL     1      86.949  90.705  72.710  1.00  0.00     0.004 C 
ENDBRANCH  19  20
ENDBRANCH  18  19
ENDBRANCH  17  18
ENDBRANCH   1  17
TORSDOF 10
ENDMDL
MODEL 7
REMARK VINA RESULT:    -5.435     12.949     15.517
REMARK INTER + INTRA:         -10.114
REMARK INTER:                  -8.664
REMARK INTRA:                  -1.449
REMARK UNBOUND:                -1.661
REMARK SMILES CCCCC/C=C/C(=O)CCc1ccc(O)c(OC)c1
REMARK SMILES IDX 6 1 7 2 8 3 9 4 10 5 11 6 12 7 17 8 20 9 15 10 14 11 13 12
REMARK SMILES IDX 18 13 19 14 16 15 5 17 4 18 3 19 2 20 1 21
REMARK H PARENT 16 16
REMARK Flexibility Score: inf
ROOT
ATOM      1  C   UNL     1      80.497  86.699  87.058  1.00  0.00    -0.023 C 
ATOM      2  C   UNL     1      81.173  86.282  85.981  1.00  0.00     0.043 C 
ENDROOT
BRANCH   2   3
ATOM      3  C   UNL     1      80.811  86.798  84.633  1.00  0.00     0.155 C 
ATOM      4  O   UNL     1      81.281  86.313  83.605  1.00  0.00    -0.295 OA
BRANCH   3   5
ATOM      5  C   UNL     1      79.872  87.988  84.593  1.00  0.00     0.085 C 
BRANCH   5   6
ATOM      6  C   UNL     1      80.593  89.249  84.116  1.00  0.00     0.044 C 
BRANCH   6   7
ATOM      7  C   UNL     1      81.469  89.864  85.182  1.00  0.00    -0.044 A 
ATOM      8  C   UNL     1      83.607  90.698  85.882  1.00  0.00     0.160 A 
ATOM      9  C   UNL     1      82.799  90.130  84.897  1.00  0.00     0.054 A 
ATOM     10  C   UNL     1      83.076  90.992  87.137  1.00  0.00     0.157 A 
ATOM     11  C   UNL     1      81.735  90.718  87.409  1.00  0.00     0.050 A 
ATOM     12  C   UNL     1      80.927  90.149  86.424  1.00  0.00     0.008 A 
BRANCH   8  13
ATOM     13  O   UNL     1      84.915  90.961  85.605  1.00  0.00    -0.493 OA
ATOM     14  C   UNL     1      85.849  89.903  85.817  1.00  0.00     0.278 C 
ENDBRANCH   8  13
BRANCH  10  15
ATOM     15  O   UNL     1      83.855  91.547  88.107  1.00  0.00    -0.504 OA
ATOM     16  H   UNL     1      84.537  90.901  88.358  1.00  0.00     0.293 HD
ENDBRANCH  10  15
ENDBRANCH   6   7
ENDBRANCH   5   6
ENDBRANCH   3   5
ENDBRANCH   2   3
BRANCH   1  17
ATOM     17  C   UNL     1      80.799  86.227  88.451  1.00  0.00     0.027 C 
BRANCH  17  18
ATOM     18  C   UNL     1      81.320  87.341  89.364  1.00  0.00     0.004 C 
BRANCH  18  19
ATOM     19  C   UNL     1      80.290  87.824  90.391  1.00  0.00     0.000 C 
BRANCH  19  20
ATOM     20  C   UNL     1      79.118  86.848  90.498  1.00  0.00    -0.003 C 
ATOM     21  C   UNL     1      79.117  86.124  91.835  1.00  0.00     0.004 C 
ENDBRANCH  19  20
ENDBRANCH  18  19
ENDBRANCH  17  18
ENDBRANCH   1  17
TORSDOF 10
ENDMDL
MODEL 8
REMARK VINA RESULT:    -5.288     25.461     28.526
REMARK INTER + INTRA:          -9.886
REMARK INTER:                  -9.130
REMARK INTRA:                  -0.756
REMARK UNBOUND:                -1.661
REMARK SMILES CCCCC/C=C/C(=O)CCc1ccc(O)c(OC)c1
REMARK SMILES IDX 6 1 7 2 8 3 9 4 10 5 11 6 12 7 17 8 20 9 15 10 14 11 13 12
REMARK SMILES IDX 18 13 19 14 16 15 5 17 4 18 3 19 2 20 1 21
REMARK H PARENT 16 16
REMARK Flexibility Score: inf
ROOT
ATOM      1  C   UNL     1      84.964  63.702  78.791  1.00  0.00    -0.023 C 
ATOM      2  C   UNL     1      84.138  63.315  77.811  1.00  0.00     0.043 C 
ENDROOT
BRANCH   2   3
ATOM      3  C   UNL     1      84.070  64.096  76.546  1.00  0.00     0.155 C 
ATOM      4  O   UNL     1      84.629  63.718  75.519  1.00  0.00    -0.295 OA
BRANCH   3   5
ATOM      5  C   UNL     1      83.319  65.412  76.603  1.00  0.00     0.085 C 
BRANCH   5   6
ATOM      6  C   UNL     1      81.810  65.197  76.467  1.00  0.00     0.044 C 
BRANCH   6   7
ATOM      7  C   UNL     1      81.300  65.480  75.074  1.00  0.00    -0.044 A 
ATOM      8  C   UNL     1      81.066  66.980  73.216  1.00  0.00     0.160 A 
ATOM      9  C   UNL     1      81.537  66.720  74.503  1.00  0.00     0.054 A 
ATOM     10  C   UNL     1      80.364  65.998  72.517  1.00  0.00     0.157 A 
ATOM     11  C   UNL     1      80.134  64.754  73.106  1.00  0.00     0.050 A 
ATOM     12  C   UNL     1      80.605  64.494  74.393  1.00  0.00     0.008 A 
BRANCH   8  13
ATOM     13  O   UNL     1      81.298  68.199  72.652  1.00  0.00    -0.493 OA
ATOM     14  C   UNL     1      82.641  68.494  72.275  1.00  0.00     0.278 C 
ENDBRANCH   8  13
BRANCH  10  15
ATOM     15  O   UNL     1      79.900  66.240  71.260  1.00  0.00    -0.504 OA
ATOM     16  H   UNL     1      80.640  66.143  70.637  1.00  0.00     0.293 HD
ENDBRANCH  10  15
ENDBRANCH   6   7
ENDBRANCH   5   6
ENDBRANCH   3   5
ENDBRANCH   2   3
BRANCH   1  17
ATOM     17  C   UNL     1      85.090  62.970  80.095  1.00  0.00     0.027 C 
BRANCH  17  18
ATOM     18  C   UNL     1      86.110  63.605  81.046  1.00  0.00     0.004 C 
BRANCH  18  19
ATOM     19  C   UNL     1      85.485  64.568  82.062  1.00  0.00     0.000 C 
BRANCH  19  20
ATOM     20  C   UNL     1      86.288  65.866  82.158  1.00  0.00    -0.003 C 
ATOM     21  C   UNL     1      86.825  66.290  80.800  1.00  0.00     0.004 C 
ENDBRANCH  19  20
ENDBRANCH  18  19
ENDBRANCH  17  18
ENDBRANCH   1  17
TORSDOF 10
ENDMDL
MODEL 9
REMARK VINA RESULT:    -5.248     25.188     27.487
REMARK INTER + INTRA:          -9.823
REMARK INTER:                  -8.152
REMARK INTRA:                  -1.671
REMARK UNBOUND:                -1.661
REMARK SMILES CCCCC/C=C/C(=O)CCc1ccc(O)c(OC)c1
REMARK SMILES IDX 6 1 7 2 8 3 9 4 10 5 11 6 12 7 17 8 20 9 15 10 14 11 13 12
REMARK SMILES IDX 18 13 19 14 16 15 5 17 4 18 3 19 2 20 1 21
REMARK H PARENT 16 16
REMARK Flexibility Score: inf
ROOT
ATOM      1  C   UNL     1      80.969  65.731  72.293  1.00  0.00    -0.023 C 
ATOM      2  C   UNL     1      79.991  64.934  72.741  1.00  0.00     0.043 C 
ENDROOT
BRANCH   2   3
ATOM      3  C   UNL     1      80.272  63.952  73.824  1.00  0.00     0.155 C 
ATOM      4  O   UNL     1      79.479  63.059  74.112  1.00  0.00    -0.295 OA
BRANCH   3   5
ATOM      5  C   UNL     1      81.567  64.144  74.590  1.00  0.00     0.085 C 
BRANCH   5   6
ATOM      6  C   UNL     1      81.345  64.974  75.856  1.00  0.00     0.044 C 
BRANCH   6   7
ATOM      7  C   UNL     1      82.603  65.659  76.336  1.00  0.00    -0.044 A 
ATOM      8  C   UNL     1      84.851  65.524  77.166  1.00  0.00     0.160 A 
ATOM      9  C   UNL     1      83.689  64.891  76.723  1.00  0.00     0.054 A 
ATOM     10  C   UNL     1      84.910  66.916  77.217  1.00  0.00     0.157 A 
ATOM     11  C   UNL     1      83.807  67.676  76.825  1.00  0.00     0.050 A 
ATOM     12  C   UNL     1      82.646  67.043  76.382  1.00  0.00     0.008 A 
BRANCH   8  13
ATOM     13  O   UNL     1      85.920  64.771  77.546  1.00  0.00    -0.493 OA
ATOM     14  C   UNL     1      85.868  64.179  78.843  1.00  0.00     0.278 C 
ENDBRANCH   8  13
BRANCH  10  15
ATOM     15  O   UNL     1      86.038  67.546  77.648  1.00  0.00    -0.504 OA
ATOM     16  H   UNL     1      85.803  68.456  77.898  1.00  0.00     0.293 HD
ENDBRANCH  10  15
ENDBRANCH   6   7
ENDBRANCH   5   6
ENDBRANCH   3   5
ENDBRANCH   2   3
BRANCH   1  17
ATOM     17  C   UNL     1      80.766  66.745  71.205  1.00  0.00     0.027 C 
BRANCH  17  18
ATOM     18  C   UNL     1      81.764  67.906  71.271  1.00  0.00     0.004 C 
BRANCH  18  19
ATOM     19  C   UNL     1      82.303  68.172  72.680  1.00  0.00     0.000 C 
BRANCH  19  20
ATOM     20  C   UNL     1      83.833  68.185  72.692  1.00  0.00    -0.003 C 
ATOM     21  C   UNL     1      84.398  66.838  73.111  1.00  0.00     0.004 C 
ENDBRANCH  19  20
ENDBRANCH  18  19
ENDBRANCH  17  18
ENDBRANCH   1  17
TORSDOF 10
ENDMDL
MODEL 10
REMARK VINA RESULT:    -4.996     23.832     26.811
REMARK INTER + INTRA:          -9.431
REMARK INTER:                  -8.230
REMARK INTRA:                  -1.201
REMARK UNBOUND:                -1.661
REMARK SMILES CCCCC/C=C/C(=O)CCc1ccc(O)c(OC)c1
REMARK SMILES IDX 6 1 7 2 8 3 9 4 10 5 11 6 12 7 17 8 20 9 15 10 14 11 13 12
REMARK SMILES IDX 18 13 19 14 16 15 5 17 4 18 3 19 2 20 1 21
REMARK H PARENT 16 16
REMARK Flexibility Score: inf
ROOT
ATOM      1  C   UNL     1      82.728  66.707  71.247  1.00  0.00    -0.023 C 
ATOM      2  C   UNL     1      81.461  67.103  71.422  1.00  0.00     0.043 C 
ENDROOT
BRANCH   2   3
ATOM      3  C   UNL     1      80.357  66.107  71.352  1.00  0.00     0.155 C 
ATOM      4  O   UNL     1      79.631  66.012  70.365  1.00  0.00    -0.295 OA
BRANCH   3   5
ATOM      5  C   UNL     1      80.140  65.252  72.584  1.00  0.00     0.085 C 
BRANCH   5   6
ATOM      6  C   UNL     1      80.156  66.098  73.858  1.00  0.00     0.044 C 
BRANCH   6   7
ATOM      7  C   UNL     1      81.337  65.794  74.750  1.00  0.00    -0.044 A 
ATOM      8  C   UNL     1      82.999  66.534  76.314  1.00  0.00     0.160 A 
ATOM      9  C   UNL     1      81.909  66.816  75.491  1.00  0.00     0.054 A 
ATOM     10  C   UNL     1      83.503  65.236  76.386  1.00  0.00     0.157 A 
ATOM     11  C   UNL     1      82.916  64.218  75.633  1.00  0.00     0.050 A 
ATOM     12  C   UNL     1      81.826  64.499  74.810  1.00  0.00     0.008 A 
BRANCH   8  13
ATOM     13  O   UNL     1      83.564  67.537  77.044  1.00  0.00    -0.493 OA
ATOM     14  C   UNL     1      84.569  68.319  76.403  1.00  0.00     0.278 C 
ENDBRANCH   8  13
BRANCH  10  15
ATOM     15  O   UNL     1      84.567  64.949  77.187  1.00  0.00    -0.504 OA
ATOM     16  H   UNL     1      84.362  64.141  77.689  1.00  0.00     0.293 HD
ENDBRANCH  10  15
ENDBRANCH   6   7
ENDBRANCH   5   6
ENDBRANCH   3   5
ENDBRANCH   2   3
BRANCH   1  17
ATOM     17  C   UNL     1      83.897  67.648  71.302  1.00  0.00     0.027 C 
BRANCH  17  18
ATOM     18  C   UNL     1      83.585  68.952  72.044  1.00  0.00     0.004 C 
BRANCH  18  19
ATOM     19  C   UNL     1      84.403  70.149  71.550  1.00  0.00     0.000 C 
BRANCH  19  20
ATOM     20  C   UNL     1      85.881  69.783  71.399  1.00  0.00    -0.003 C 
ATOM     21  C   UNL     1      86.416  70.182  70.034  1.00  0.00     0.004 C 
ENDBRANCH  19  20
ENDBRANCH  18  19
ENDBRANCH  17  18
ENDBRANCH   1  17
TORSDOF 10
ENDMDL
