MODEL 1
REMARK VINA RESULT:    -6.088      0.000      0.000
REMARK INTER + INTRA:         -11.483
REMARK INTER:                 -10.003
REMARK INTRA:                  -1.480
REMARK UNBOUND:                -1.480
REMARK SMILES CCCCC[C@H](O)CC(=O)CCc1ccc(O)c(OC)c1
REMARK SMILES IDX 8 1 6 2 7 3 5 5 4 6 3 7 2 8 1 9 9 10 10 11 11 12 12 13 13 14
REMARK SMILES IDX 21 15 14 16 18 17 15 18 16 19 19 20 20 21 17 22
REMARK H PARENT 7 4 17 23
REMARK Flexibility Score: inf
ROOT
ATOM      1  C   UNL     1      94.663  97.974  75.304  1.00  0.00     0.107 C 
ENDROOT
BRANCH   1   2
ATOM      2  C   UNL     1      96.009  97.944  76.032  1.00  0.00     0.121 C 
BRANCH   2   3
ATOM      3  O   UNL     1      97.017  98.530  75.211  1.00  0.00    -0.393 OA
ATOM      4  H   UNL     1      96.965  99.496  75.320  1.00  0.00     0.210 HD
ENDBRANCH   2   3
BRANCH   2   5
ATOM      5  C   UNL     1      95.976  98.667  77.384  1.00  0.00     0.032 C 
BRANCH   5   6
ATOM      6  C   UNL     1      96.097  97.693  78.562  1.00  0.00     0.003 C 
BRANCH   6   7
ATOM      7  C   UNL     1      94.917  96.721  78.669  1.00  0.00    -0.000 C 
BRANCH   7   8
ATOM      8  C   UNL     1      95.306  95.260  78.451  1.00  0.00    -0.003 C 
ATOM      9  C   UNL     1      94.852  94.386  79.610  1.00  0.00     0.004 C 
ENDBRANCH   7   8
ENDBRANCH   6   7
ENDBRANCH   5   6
ENDBRANCH   2   5
ENDBRANCH   1   2
BRANCH   1  10
ATOM     10  C   UNL     1      94.511  96.853  74.289  1.00  0.00     0.135 C 
ATOM     11  O   UNL     1      95.114  96.884  73.216  1.00  0.00    -0.300 OA
BRANCH  10  12
ATOM     12  C   UNL     1      93.618  95.688  74.688  1.00  0.00     0.080 C 
BRANCH  12  13
ATOM     13  C   UNL     1      92.684  96.002  75.858  1.00  0.00     0.043 C 
BRANCH  13  14
ATOM     14  C   UNL     1      91.743  94.867  76.185  1.00  0.00    -0.044 A 
ATOM     15  C   UNL     1      91.193  94.098  75.159  1.00  0.00     0.054 A 
ATOM     16  C   UNL     1      91.423  94.587  77.514  1.00  0.00     0.008 A 
ATOM     17  C   UNL     1      90.325  93.050  75.462  1.00  0.00     0.160 A 
ATOM     18  C   UNL     1      90.555  93.538  77.817  1.00  0.00     0.050 A 
ATOM     19  C   UNL     1      90.005  92.770  76.791  1.00  0.00     0.157 A 
BRANCH  17  20
ATOM     20  O   UNL     1      89.794  92.307  74.451  1.00  0.00    -0.493 OA
ATOM     21  C   UNL     1      90.613  91.273  73.907  1.00  0.00     0.278 C 
ENDBRANCH  17  20
BRANCH  19  22
ATOM     22  O   UNL     1      89.158  91.749  77.099  1.00  0.00    -0.504 OA
ATOM     23  H   UNL     1      88.245  92.029  76.919  1.00  0.00     0.293 HD
ENDBRANCH  19  22
ENDBRANCH  13  14
ENDBRANCH  12  13
ENDBRANCH  10  12
ENDBRANCH   1  10
TORSDOF 12
ENDMDL
MODEL 2
REMARK VINA RESULT:    -5.612      2.875      7.144
REMARK INTER + INTRA:         -10.701
REMARK INTER:                  -9.545
REMARK INTRA:                  -1.155
REMARK UNBOUND:                -1.480
REMARK SMILES CCCCC[C@H](O)CC(=O)CCc1ccc(O)c(OC)c1
REMARK SMILES IDX 8 1 6 2 7 3 5 5 4 6 3 7 2 8 1 9 9 10 10 11 11 12 12 13 13 14
REMARK SMILES IDX 21 15 14 16 18 17 15 18 16 19 19 20 20 21 17 22
REMARK H PARENT 7 4 17 23
REMARK Flexibility Score: inf
ROOT
ATOM      1  C   UNL     1      93.610  94.990  76.333  1.00  0.00     0.107 C 
ENDROOT
BRANCH   1   2
ATOM      2  C   UNL     1      92.242  94.474  76.785  1.00  0.00     0.121 C 
BRANCH   2   3
ATOM      3  O   UNL     1      92.168  94.486  78.209  1.00  0.00    -0.393 OA
ATOM      4  H   UNL     1      92.106  93.563  78.512  1.00  0.00     0.210 HD
ENDBRANCH   2   3
BRANCH   2   5
ATOM      5  C   UNL     1      91.074  95.286  76.212  1.00  0.00     0.032 C 
BRANCH   5   6
ATOM      6  C   UNL     1      90.200  94.451  75.269  1.00  0.00     0.003 C 
BRANCH   6   7
ATOM      7  C   UNL     1      90.839  93.117  74.871  1.00  0.00    -0.000 C 
BRANCH   7   8
ATOM      8  C   UNL     1      89.965  91.903  75.181  1.00  0.00    -0.003 C 
ATOM      9  C   UNL     1      89.708  91.772  76.674  1.00  0.00     0.004 C 
ENDBRANCH   7   8
ENDBRANCH   6   7
ENDBRANCH   5   6
ENDBRANCH   2   5
ENDBRANCH   1   2
BRANCH   1  10
ATOM     10  C   UNL     1      93.785  96.484  76.550  1.00  0.00     0.135 C 
ATOM     11  O   UNL     1      93.689  96.976  77.674  1.00  0.00    -0.300 OA
BRANCH  10  12
ATOM     12  C   UNL     1      94.124  97.316  75.323  1.00  0.00     0.080 C 
BRANCH  12  13
ATOM     13  C   UNL     1      94.376  96.483  74.065  1.00  0.00     0.043 C 
BRANCH  13  14
ATOM     14  C   UNL     1      94.754  97.320  72.866  1.00  0.00    -0.044 A 
ATOM     15  C   UNL     1      93.873  98.289  72.385  1.00  0.00     0.054 A 
ATOM     16  C   UNL     1      95.985  97.124  72.240  1.00  0.00     0.008 A 
ATOM     17  C   UNL     1      94.224  99.062  71.278  1.00  0.00     0.160 A 
ATOM     18  C   UNL     1      96.336  97.897  71.133  1.00  0.00     0.050 A 
ATOM     19  C   UNL     1      95.455  98.866  70.652  1.00  0.00     0.157 A 
BRANCH  17  20
ATOM     20  O   UNL     1      93.355 100.005  70.817  1.00  0.00    -0.493 OA
ATOM     21  C   UNL     1      92.104 100.119  71.493  1.00  0.00     0.278 C 
ENDBRANCH  17  20
BRANCH  19  22
ATOM     22  O   UNL     1      95.809  99.615  69.571  1.00  0.00    -0.504 OA
ATOM     23  H   UNL     1      95.477  99.183  68.764  1.00  0.00     0.293 HD
ENDBRANCH  19  22
ENDBRANCH  13  14
ENDBRANCH  12  13
ENDBRANCH  10  12
ENDBRANCH   1  10
TORSDOF 12
ENDMDL
MODEL 3
REMARK VINA RESULT:    -5.599     27.888     32.974
REMARK INTER + INTRA:         -10.679
REMARK INTER:                  -9.822
REMARK INTRA:                  -0.857
REMARK UNBOUND:                -1.480
REMARK SMILES CCCCC[C@H](O)CC(=O)CCc1ccc(O)c(OC)c1
REMARK SMILES IDX 8 1 6 2 7 3 5 5 4 6 3 7 2 8 1 9 9 10 10 11 11 12 12 13 13 14
REMARK SMILES IDX 21 15 14 16 18 17 15 18 16 19 19 20 20 21 17 22
REMARK H PARENT 7 4 17 23
REMARK Flexibility Score: inf
ROOT
ATOM      1  C   UNL     1      79.047  65.344  70.075  1.00  0.00     0.107 C 
ENDROOT
BRANCH   1   2
ATOM      2  C   UNL     1      79.140  64.271  68.987  1.00  0.00     0.121 C 
BRANCH   2   3
ATOM      3  O   UNL     1      80.191  63.359  69.298  1.00  0.00    -0.393 OA
ATOM      4  H   UNL     1      80.574  63.626  70.152  1.00  0.00     0.210 HD
ENDBRANCH   2   3
BRANCH   2   5
ATOM      5  C   UNL     1      77.833  63.491  68.800  1.00  0.00     0.032 C 
BRANCH   5   6
ATOM      6  C   UNL     1      77.356  63.509  67.342  1.00  0.00     0.003 C 
BRANCH   6   7
ATOM      7  C   UNL     1      75.830  63.527  67.204  1.00  0.00    -0.000 C 
BRANCH   7   8
ATOM      8  C   UNL     1      75.218  64.918  67.366  1.00  0.00    -0.003 C 
ATOM      9  C   UNL     1      76.040  65.973  66.643  1.00  0.00     0.004 C 
ENDBRANCH   7   8
ENDBRANCH   6   7
ENDBRANCH   5   6
ENDBRANCH   2   5
ENDBRANCH   1   2
BRANCH   1  10
ATOM     10  C   UNL     1      80.406  65.820  70.561  1.00  0.00     0.135 C 
ATOM     11  O   UNL     1      81.294  66.120  69.763  1.00  0.00    -0.300 OA
BRANCH  10  12
ATOM     12  C   UNL     1      80.586  65.946  72.066  1.00  0.00     0.080 C 
BRANCH  12  13
ATOM     13  C   UNL     1      81.815  65.210  72.602  1.00  0.00     0.043 C 
BRANCH  13  14
ATOM     14  C   UNL     1      82.761  66.111  73.359  1.00  0.00    -0.044 A 
ATOM     15  C   UNL     1      83.317  67.225  72.730  1.00  0.00     0.054 A 
ATOM     16  C   UNL     1      83.080  65.829  74.688  1.00  0.00     0.008 A 
ATOM     17  C   UNL     1      84.190  68.058  73.431  1.00  0.00     0.160 A 
ATOM     18  C   UNL     1      83.953  66.661  75.388  1.00  0.00     0.050 A 
ATOM     19  C   UNL     1      84.509  67.775  74.760  1.00  0.00     0.157 A 
BRANCH  17  20
ATOM     20  O   UNL     1      84.727  69.143  72.806  1.00  0.00    -0.493 OA
ATOM     21  C   UNL     1      85.934  68.937  72.073  1.00  0.00     0.278 C 
ENDBRANCH  17  20
BRANCH  19  22
ATOM     22  O   UNL     1      85.360  68.580  75.454  1.00  0.00    -0.504 OA
ATOM     23  H   UNL     1      84.841  69.216  75.975  1.00  0.00     0.293 HD
ENDBRANCH  19  22
ENDBRANCH  13  14
ENDBRANCH  12  13
ENDBRANCH  10  12
ENDBRANCH   1  10
TORSDOF 12
ENDMDL
MODEL 4
REMARK VINA RESULT:    -5.588     12.891     15.703
REMARK INTER + INTRA:         -10.662
REMARK INTER:                  -9.706
REMARK INTRA:                  -0.956
REMARK UNBOUND:                -1.480
REMARK SMILES CCCCC[C@H](O)CC(=O)CCc1ccc(O)c(OC)c1
REMARK SMILES IDX 8 1 6 2 7 3 5 5 4 6 3 7 2 8 1 9 9 10 10 11 11 12 12 13 13 14
REMARK SMILES IDX 21 15 14 16 18 17 15 18 16 19 19 20 20 21 17 22
REMARK H PARENT 7 4 17 23
REMARK Flexibility Score: inf
ROOT
ATOM      1  C   UNL     1      94.643  82.787  85.827  1.00  0.00     0.107 C 
ENDROOT
BRANCH   1   2
ATOM      2  C   UNL     1      93.193  83.087  85.442  1.00  0.00     0.121 C 
BRANCH   2   3
ATOM      3  O   UNL     1      93.076  84.441  85.012  1.00  0.00    -0.393 OA
ATOM      4  H   UNL     1      92.130  84.669  84.999  1.00  0.00     0.210 HD
ENDBRANCH   2   3
BRANCH   2   5
ATOM      5  C   UNL     1      92.660  82.161  84.341  1.00  0.00     0.032 C 
BRANCH   5   6
ATOM      6  C   UNL     1      91.343  81.486  84.743  1.00  0.00     0.003 C 
BRANCH   6   7
ATOM      7  C   UNL     1      90.758  80.595  83.642  1.00  0.00    -0.000 C 
BRANCH   7   8
ATOM      8  C   UNL     1      90.922  79.101  83.912  1.00  0.00    -0.003 C 
ATOM      9  C   UNL     1      91.874  78.848  85.071  1.00  0.00     0.004 C 
ENDBRANCH   7   8
ENDBRANCH   6   7
ENDBRANCH   5   6
ENDBRANCH   2   5
ENDBRANCH   1   2
BRANCH   1  10
ATOM     10  C   UNL     1      95.630  83.799  85.266  1.00  0.00     0.135 C 
ATOM     11  O   UNL     1      95.731  84.923  85.757  1.00  0.00    -0.300 OA
BRANCH  10  12
ATOM     12  C   UNL     1      96.502  83.332  84.111  1.00  0.00     0.080 C 
BRANCH  12  13
ATOM     13  C   UNL     1      96.022  83.817  82.742  1.00  0.00     0.043 C 
BRANCH  13  14
ATOM     14  C   UNL     1      96.618  83.036  81.595  1.00  0.00    -0.044 A 
ATOM     15  C   UNL     1      96.974  83.691  80.416  1.00  0.00     0.054 A 
ATOM     16  C   UNL     1      96.813  81.660  81.715  1.00  0.00     0.008 A 
ATOM     17  C   UNL     1      97.526  82.969  79.357  1.00  0.00     0.160 A 
ATOM     18  C   UNL     1      97.365  80.938  80.656  1.00  0.00     0.050 A 
ATOM     19  C   UNL     1      97.721  81.593  79.477  1.00  0.00     0.157 A 
BRANCH  17  20
ATOM     20  O   UNL     1      97.869  83.619  78.210  1.00  0.00    -0.493 OA
ATOM     21  C   UNL     1      96.831  83.845  77.258  1.00  0.00     0.278 C 
ENDBRANCH  17  20
BRANCH  19  22
ATOM     22  O   UNL     1      98.259  80.878  78.451  1.00  0.00    -0.504 OA
ATOM     23  H   UNL     1      98.291  81.438  77.657  1.00  0.00     0.293 HD
ENDBRANCH  19  22
ENDBRANCH  13  14
ENDBRANCH  12  13
ENDBRANCH  10  12
ENDBRANCH   1  10
TORSDOF 12
ENDMDL
MODEL 5
REMARK VINA RESULT:    -5.576     15.393     16.460
REMARK INTER + INTRA:         -10.641
REMARK INTER:                  -9.464
REMARK INTRA:                  -1.178
REMARK UNBOUND:                -1.480
REMARK SMILES CCCCC[C@H](O)CC(=O)CCc1ccc(O)c(OC)c1
REMARK SMILES IDX 8 1 6 2 7 3 5 5 4 6 3 7 2 8 1 9 9 10 10 11 11 12 12 13 13 14
REMARK SMILES IDX 21 15 14 16 18 17 15 18 16 19 19 20 20 21 17 22
REMARK H PARENT 7 4 17 23
REMARK Flexibility Score: inf
ROOT
ATOM      1  C   UNL     1      92.836  80.174  85.322  1.00  0.00     0.107 C 
ENDROOT
BRANCH   1   2
ATOM      2  C   UNL     1      93.635  80.307  86.621  1.00  0.00     0.121 C 
BRANCH   2   3
ATOM      3  O   UNL     1      95.007  80.552  86.322  1.00  0.00    -0.393 OA
ATOM      4  H   UNL     1      95.302  81.301  86.869  1.00  0.00     0.210 HD
ENDBRANCH   2   3
BRANCH   2   5
ATOM      5  C   UNL     1      93.111  81.419  87.537  1.00  0.00     0.032 C 
BRANCH   5   6
ATOM      6  C   UNL     1      94.200  82.442  87.883  1.00  0.00     0.003 C 
BRANCH   6   7
ATOM      7  C   UNL     1      94.108  83.729  87.056  1.00  0.00    -0.000 C 
BRANCH   7   8
ATOM      8  C   UNL     1      93.404  84.874  87.782  1.00  0.00    -0.003 C 
ATOM      9  C   UNL     1      93.645  84.810  89.282  1.00  0.00     0.004 C 
ENDBRANCH   7   8
ENDBRANCH   6   7
ENDBRANCH   5   6
ENDBRANCH   2   5
ENDBRANCH   1   2
BRANCH   1  10
ATOM     10  C   UNL     1      92.739  81.478  84.547  1.00  0.00     0.135 C 
ATOM     11  O   UNL     1      93.722  81.951  83.977  1.00  0.00    -0.300 OA
BRANCH  10  12
ATOM     12  C   UNL     1      91.366  82.130  84.479  1.00  0.00     0.080 C 
BRANCH  12  13
ATOM     13  C   UNL     1      90.216  81.176  84.808  1.00  0.00     0.043 C 
BRANCH  13  14
ATOM     14  C   UNL     1      88.884  81.649  84.274  1.00  0.00    -0.044 A 
ATOM     15  C   UNL     1      88.320  82.831  84.753  1.00  0.00     0.054 A 
ATOM     16  C   UNL     1      88.219  80.901  83.302  1.00  0.00     0.008 A 
ATOM     17  C   UNL     1      87.090  83.267  84.258  1.00  0.00     0.160 A 
ATOM     18  C   UNL     1      86.989  81.337  82.807  1.00  0.00     0.050 A 
ATOM     19  C   UNL     1      86.425  82.519  83.285  1.00  0.00     0.157 A 
BRANCH  17  20
ATOM     20  O   UNL     1      86.549  84.423  84.733  1.00  0.00    -0.493 OA
ATOM     21  C   UNL     1      86.143  84.434  86.101  1.00  0.00     0.278 C 
ENDBRANCH  17  20
BRANCH  19  22
ATOM     22  O   UNL     1      85.224  82.935  82.795  1.00  0.00    -0.504 OA
ATOM     23  H   UNL     1      84.766  82.176  82.395  1.00  0.00     0.293 HD
ENDBRANCH  19  22
ENDBRANCH  13  14
ENDBRANCH  12  13
ENDBRANCH  10  12
ENDBRANCH   1  10
TORSDOF 12
ENDMDL
MODEL 6
REMARK VINA RESULT:    -5.525      2.335      6.784
REMARK INTER + INTRA:         -10.557
REMARK INTER:                  -9.143
REMARK INTRA:                  -1.414
REMARK UNBOUND:                -1.480
REMARK SMILES CCCCC[C@H](O)CC(=O)CCc1ccc(O)c(OC)c1
REMARK SMILES IDX 8 1 6 2 7 3 5 5 4 6 3 7 2 8 1 9 9 10 10 11 11 12 12 13 13 14
REMARK SMILES IDX 21 15 14 16 18 17 15 18 16 19 19 20 20 21 17 22
REMARK H PARENT 7 4 17 23
REMARK Flexibility Score: inf
ROOT
ATOM      1  C   UNL     1      94.150  96.442  78.143  1.00  0.00     0.107 C 
ENDROOT
BRANCH   1   2
ATOM      2  C   UNL     1      93.848  94.990  77.764  1.00  0.00     0.121 C 
BRANCH   2   3
ATOM      3  O   UNL     1      92.908  94.436  78.682  1.00  0.00    -0.393 OA
ATOM      4  H   UNL     1      92.015  94.611  78.336  1.00  0.00     0.210 HD
ENDBRANCH   2   3
BRANCH   2   5
ATOM      5  C   UNL     1      93.307  94.842  76.337  1.00  0.00     0.032 C 
BRANCH   5   6
ATOM      6  C   UNL     1      92.012  95.638  76.126  1.00  0.00     0.003 C 
BRANCH   6   7
ATOM      7  C   UNL     1      90.836  94.771  75.665  1.00  0.00    -0.000 C 
BRANCH   7   8
ATOM      8  C   UNL     1      89.836  94.455  76.775  1.00  0.00    -0.003 C 
ATOM      9  C   UNL     1      89.931  93.001  77.210  1.00  0.00     0.004 C 
ENDBRANCH   7   8
ENDBRANCH   6   7
ENDBRANCH   5   6
ENDBRANCH   2   5
ENDBRANCH   1   2
BRANCH   1  10
ATOM     10  C   UNL     1      95.638  96.744  78.206  1.00  0.00     0.135 C 
ATOM     11  O   UNL     1      96.377  96.129  78.975  1.00  0.00    -0.300 OA
BRANCH  10  12
ATOM     12  C   UNL     1      96.160  97.801  77.245  1.00  0.00     0.080 C 
BRANCH  12  13
ATOM     13  C   UNL     1      95.123  98.267  76.221  1.00  0.00     0.043 C 
BRANCH  13  14
ATOM     14  C   UNL     1      95.488  97.903  74.802  1.00  0.00    -0.044 A 
ATOM     15  C   UNL     1      96.783  98.125  74.335  1.00  0.00     0.054 A 
ATOM     16  C   UNL     1      94.527  97.345  73.957  1.00  0.00     0.008 A 
ATOM     17  C   UNL     1      97.118  97.788  73.023  1.00  0.00     0.160 A 
ATOM     18  C   UNL     1      94.863  97.007  72.646  1.00  0.00     0.050 A 
ATOM     19  C   UNL     1      96.158  97.229  72.179  1.00  0.00     0.157 A 
BRANCH  17  20
ATOM     20  O   UNL     1      98.387  98.010  72.578  1.00  0.00    -0.493 OA
ATOM     21  C   UNL     1      99.382  98.277  73.564  1.00  0.00     0.278 C 
ENDBRANCH  17  20
BRANCH  19  22
ATOM     22  O   UNL     1      96.474  96.896  70.897  1.00  0.00    -0.504 OA
ATOM     23  H   UNL     1      96.184  95.983  70.726  1.00  0.00     0.293 HD
ENDBRANCH  19  22
ENDBRANCH  13  14
ENDBRANCH  12  13
ENDBRANCH  10  12
ENDBRANCH   1  10
TORSDOF 12
ENDMDL
MODEL 7
REMARK VINA RESULT:    -5.438     13.964     16.298
REMARK INTER + INTRA:         -10.415
REMARK INTER:                  -9.208
REMARK INTRA:                  -1.207
REMARK UNBOUND:                -1.480
REMARK SMILES CCCCC[C@H](O)CC(=O)CCc1ccc(O)c(OC)c1
REMARK SMILES IDX 8 1 6 2 7 3 5 5 4 6 3 7 2 8 1 9 9 10 10 11 11 12 12 13 13 14
REMARK SMILES IDX 21 15 14 16 18 17 15 18 16 19 19 20 20 21 17 22
REMARK H PARENT 7 4 17 23
REMARK Flexibility Score: inf
ROOT
ATOM      1  C   UNL     1      94.672  82.840  85.750  1.00  0.00     0.107 C 
ENDROOT
BRANCH   1   2
ATOM      2  C   UNL     1      93.203  82.997  85.351  1.00  0.00     0.121 C 
BRANCH   2   3
ATOM      3  O   UNL     1      92.960  84.331  84.913  1.00  0.00    -0.393 OA
ATOM      4  H   UNL     1      91.997  84.467  84.891  1.00  0.00     0.210 HD
ENDBRANCH   2   3
BRANCH   2   5
ATOM      5  C   UNL     1      92.772  82.018  84.252  1.00  0.00     0.032 C 
BRANCH   5   6
ATOM      6  C   UNL     1      91.272  81.703  84.315  1.00  0.00     0.003 C 
BRANCH   6   7
ATOM      7  C   UNL     1      90.935  80.269  83.893  1.00  0.00    -0.000 C 
BRANCH   7   8
ATOM      8  C   UNL     1      91.599  79.203  84.763  1.00  0.00    -0.003 C 
ATOM      9  C   UNL     1      91.572  77.841  84.087  1.00  0.00     0.004 C 
ENDBRANCH   7   8
ENDBRANCH   6   7
ENDBRANCH   5   6
ENDBRANCH   2   5
ENDBRANCH   1   2
BRANCH   1  10
ATOM     10  C   UNL     1      95.537  84.009  85.308  1.00  0.00     0.135 C 
ATOM     11  O   UNL     1      95.417  85.118  85.829  1.00  0.00    -0.300 OA
BRANCH  10  12
ATOM     12  C   UNL     1      96.575  83.722  84.234  1.00  0.00     0.080 C 
BRANCH  12  13
ATOM     13  C   UNL     1      96.048  83.893  82.808  1.00  0.00     0.043 C 
BRANCH  13  14
ATOM     14  C   UNL     1      96.566  82.841  81.856  1.00  0.00    -0.044 A 
ATOM     15  C   UNL     1      96.558  81.497  82.228  1.00  0.00     0.054 A 
ATOM     16  C   UNL     1      97.053  83.216  80.603  1.00  0.00     0.008 A 
ATOM     17  C   UNL     1      97.036  80.527  81.347  1.00  0.00     0.160 A 
ATOM     18  C   UNL     1      97.531  82.246  79.722  1.00  0.00     0.050 A 
ATOM     19  C   UNL     1      97.523  80.902  80.094  1.00  0.00     0.157 A 
BRANCH  17  20
ATOM     20  O   UNL     1      97.024  79.218  81.722  1.00  0.00    -0.493 OA
ATOM     21  C   UNL     1      96.381  78.903  82.956  1.00  0.00     0.278 C 
ENDBRANCH  17  20
BRANCH  19  22
ATOM     22  O   UNL     1      97.993  79.964  79.226  1.00  0.00    -0.504 OA
ATOM     23  H   UNL     1      97.986  79.095  79.663  1.00  0.00     0.293 HD
ENDBRANCH  19  22
ENDBRANCH  13  14
ENDBRANCH  12  13
ENDBRANCH  10  12
ENDBRANCH   1  10
TORSDOF 12
ENDMDL
MODEL 8
REMARK VINA RESULT:    -5.301      2.752      6.314
REMARK INTER + INTRA:         -10.190
REMARK INTER:                  -9.007
REMARK INTRA:                  -1.183
REMARK UNBOUND:                -1.480
REMARK SMILES CCCCC[C@H](O)CC(=O)CCc1ccc(O)c(OC)c1
REMARK SMILES IDX 8 1 6 2 7 3 5 5 4 6 3 7 2 8 1 9 9 10 10 11 11 12 12 13 13 14
REMARK SMILES IDX 21 15 14 16 18 17 15 18 16 19 19 20 20 21 17 22
REMARK H PARENT 7 4 17 23
REMARK Flexibility Score: inf
ROOT
ATOM      1  C   UNL     1      92.690  96.202  76.993  1.00  0.00     0.107 C 
ENDROOT
BRANCH   1   2
ATOM      2  C   UNL     1      93.046  95.222  78.113  1.00  0.00     0.121 C 
BRANCH   2   3
ATOM      3  O   UNL     1      92.028  94.231  78.230  1.00  0.00    -0.393 OA
ATOM      4  H   UNL     1      91.596  94.349  79.094  1.00  0.00     0.210 HD
ENDBRANCH   2   3
BRANCH   2   5
ATOM      5  C   UNL     1      94.399  94.533  77.899  1.00  0.00     0.032 C 
BRANCH   5   6
ATOM      6  C   UNL     1      95.333  94.710  79.103  1.00  0.00     0.003 C 
BRANCH   6   7
ATOM      7  C   UNL     1      95.736  96.168  79.348  1.00  0.00    -0.000 C 
BRANCH   7   8
ATOM      8  C   UNL     1      96.489  96.800  78.178  1.00  0.00    -0.003 C 
ATOM      9  C   UNL     1      97.782  97.455  78.640  1.00  0.00     0.004 C 
ENDBRANCH   7   8
ENDBRANCH   6   7
ENDBRANCH   5   6
ENDBRANCH   2   5
ENDBRANCH   1   2
BRANCH   1  10
ATOM     10  C   UNL     1      92.348  95.511  75.682  1.00  0.00     0.135 C 
ATOM     11  O   UNL     1      91.253  94.974  75.517  1.00  0.00    -0.300 OA
BRANCH  10  12
ATOM     12  C   UNL     1      93.405  95.562  74.589  1.00  0.00     0.080 C 
BRANCH  12  13
ATOM     13  C   UNL     1      94.304  96.797  74.660  1.00  0.00     0.043 C 
BRANCH  13  14
ATOM     14  C   UNL     1      94.576  97.410  73.307  1.00  0.00    -0.044 A 
ATOM     15  C   UNL     1      93.799  98.476  72.855  1.00  0.00     0.054 A 
ATOM     16  C   UNL     1      95.606  96.909  72.509  1.00  0.00     0.008 A 
ATOM     17  C   UNL     1      94.052  99.042  71.605  1.00  0.00     0.160 A 
ATOM     18  C   UNL     1      95.859  97.475  71.260  1.00  0.00     0.050 A 
ATOM     19  C   UNL     1      95.081  98.541  70.807  1.00  0.00     0.157 A 
BRANCH  17  20
ATOM     20  O   UNL     1      93.285 100.082  71.173  1.00  0.00    -0.493 OA
ATOM     21  C   UNL     1      91.870  99.908  71.221  1.00  0.00     0.278 C 
ENDBRANCH  17  20
BRANCH  19  22
ATOM     22  O   UNL     1      95.337  99.085  69.585  1.00  0.00    -0.504 OA
ATOM     23  H   UNL     1      94.561  99.595  69.296  1.00  0.00     0.293 HD
ENDBRANCH  19  22
ENDBRANCH  13  14
ENDBRANCH  12  13
ENDBRANCH  10  12
ENDBRANCH   1  10
TORSDOF 12
ENDMDL
MODEL 9
REMARK VINA RESULT:    -5.277     16.086     19.923
REMARK INTER + INTRA:         -10.150
REMARK INTER:                  -9.247
REMARK INTRA:                  -0.903
REMARK UNBOUND:                -1.480
REMARK SMILES CCCCC[C@H](O)CC(=O)CCc1ccc(O)c(OC)c1
REMARK SMILES IDX 8 1 6 2 7 3 5 5 4 6 3 7 2 8 1 9 9 10 10 11 11 12 12 13 13 14
REMARK SMILES IDX 21 15 14 16 18 17 15 18 16 19 19 20 20 21 17 22
REMARK H PARENT 7 4 17 23
REMARK Flexibility Score: inf
ROOT
ATOM      1  C   UNL     1      91.724  74.738  83.044  1.00  0.00     0.107 C 
ENDROOT
BRANCH   1   2
ATOM      2  C   UNL     1      91.119  74.332  81.698  1.00  0.00     0.121 C 
BRANCH   2   3
ATOM      3  O   UNL     1      89.704  74.206  81.822  1.00  0.00    -0.393 OA
ATOM      4  H   UNL     1      89.392  74.921  82.404  1.00  0.00     0.210 HD
ENDBRANCH   2   3
BRANCH   2   5
ATOM      5  C   UNL     1      91.441  75.322  80.572  1.00  0.00     0.032 C 
BRANCH   5   6
ATOM      6  C   UNL     1      90.716  74.968  79.268  1.00  0.00     0.003 C 
BRANCH   6   7
ATOM      7  C   UNL     1      91.496  75.369  78.012  1.00  0.00    -0.000 C 
BRANCH   7   8
ATOM      8  C   UNL     1      91.124  76.750  77.475  1.00  0.00    -0.003 C 
ATOM      9  C   UNL     1      90.275  76.645  76.217  1.00  0.00     0.004 C 
ENDBRANCH   7   8
ENDBRANCH   6   7
ENDBRANCH   5   6
ENDBRANCH   2   5
ENDBRANCH   1   2
BRANCH   1  10
ATOM     10  C   UNL     1      90.719  75.397  83.974  1.00  0.00     0.135 C 
ATOM     11  O   UNL     1      90.001  74.721  84.711  1.00  0.00    -0.300 OA
BRANCH  10  12
ATOM     12  C   UNL     1      90.685  76.918  83.975  1.00  0.00     0.080 C 
BRANCH  12  13
ATOM     13  C   UNL     1      92.058  77.564  84.169  1.00  0.00     0.043 C 
BRANCH  13  14
ATOM     14  C   UNL     1      91.992  79.066  84.304  1.00  0.00    -0.044 A 
ATOM     15  C   UNL     1      90.766  79.724  84.193  1.00  0.00     0.054 A 
ATOM     16  C   UNL     1      93.157  79.797  84.539  1.00  0.00     0.008 A 
ATOM     17  C   UNL     1      90.707  81.112  84.319  1.00  0.00     0.160 A 
ATOM     18  C   UNL     1      93.097  81.185  84.665  1.00  0.00     0.050 A 
ATOM     19  C   UNL     1      91.872  81.842  84.555  1.00  0.00     0.157 A 
BRANCH  17  20
ATOM     20  O   UNL     1      89.504  81.743  84.209  1.00  0.00    -0.493 OA
ATOM     21  C   UNL     1      88.336  80.953  84.421  1.00  0.00     0.278 C 
ENDBRANCH  17  20
BRANCH  19  22
ATOM     22  O   UNL     1      91.826  83.198  84.679  1.00  0.00    -0.504 OA
ATOM     23  H   UNL     1      91.951  83.601  83.803  1.00  0.00     0.293 HD
ENDBRANCH  19  22
ENDBRANCH  13  14
ENDBRANCH  12  13
ENDBRANCH  10  12
ENDBRANCH   1  10
TORSDOF 12
ENDMDL
MODEL 10
REMARK VINA RESULT:    -5.199     12.577     15.002
REMARK INTER + INTRA:         -10.022
REMARK INTER:                  -9.306
REMARK INTRA:                  -0.716
REMARK UNBOUND:                -1.480
REMARK SMILES CCCCC[C@H](O)CC(=O)CCc1ccc(O)c(OC)c1
REMARK SMILES IDX 8 1 6 2 7 3 5 5 4 6 3 7 2 8 1 9 9 10 10 11 11 12 12 13 13 14
REMARK SMILES IDX 21 15 14 16 18 17 15 18 16 19 19 20 20 21 17 22
REMARK H PARENT 7 4 17 23
REMARK Flexibility Score: inf
ROOT
ATOM      1  C   UNL     1      96.742  83.432  83.287  1.00  0.00     0.107 C 
ENDROOT
BRANCH   1   2
ATOM      2  C   UNL     1      96.789  83.400  84.816  1.00  0.00     0.121 C 
BRANCH   2   3
ATOM      3  O   UNL     1      96.953  84.722  85.323  1.00  0.00    -0.393 OA
ATOM      4  H   UNL     1      96.967  85.332  84.565  1.00  0.00     0.210 HD
ENDBRANCH   2   3
BRANCH   2   5
ATOM      5  C   UNL     1      95.537  82.771  85.441  1.00  0.00     0.032 C 
BRANCH   5   6
ATOM      6  C   UNL     1      94.252  83.229  84.742  1.00  0.00     0.003 C 
BRANCH   6   7
ATOM      7  C   UNL     1      93.415  82.070  84.191  1.00  0.00    -0.000 C 
BRANCH   7   8
ATOM      8  C   UNL     1      92.171  81.763  85.023  1.00  0.00    -0.003 C 
ATOM      9  C   UNL     1      90.907  81.844  84.181  1.00  0.00     0.004 C 
ENDBRANCH   7   8
ENDBRANCH   6   7
ENDBRANCH   5   6
ENDBRANCH   2   5
ENDBRANCH   1   2
BRANCH   1  10
ATOM     10  C   UNL     1      97.355  82.198  82.646  1.00  0.00     0.135 C 
ATOM     11  O   UNL     1      97.985  81.382  83.318  1.00  0.00    -0.300 OA
BRANCH  10  12
ATOM     12  C   UNL     1      97.110  82.010  81.156  1.00  0.00     0.080 C 
BRANCH  12  13
ATOM     13  C   UNL     1      96.709  83.296  80.432  1.00  0.00     0.043 C 
BRANCH  13  14
ATOM     14  C   UNL     1      97.108  83.304  78.975  1.00  0.00    -0.044 A 
ATOM     15  C   UNL     1      98.281  82.667  78.570  1.00  0.00     0.054 A 
ATOM     16  C   UNL     1      96.304  83.950  78.036  1.00  0.00     0.008 A 
ATOM     17  C   UNL     1      98.648  82.674  77.224  1.00  0.00     0.160 A 
ATOM     18  C   UNL     1      96.671  83.957  76.690  1.00  0.00     0.050 A 
ATOM     19  C   UNL     1      97.844  83.320  76.284  1.00  0.00     0.157 A 
BRANCH  17  20
ATOM     20  O   UNL     1      99.796  82.049  76.840  1.00  0.00    -0.493 OA
ATOM     21  C   UNL     1      99.811  80.624  76.907  1.00  0.00     0.278 C 
ENDBRANCH  17  20
BRANCH  19  22
ATOM     22  O   UNL     1      98.192  83.334  74.968  1.00  0.00    -0.504 OA
ATOM     23  H   UNL     1      99.136  83.557  74.892  1.00  0.00     0.293 HD
ENDBRANCH  19  22
ENDBRANCH  13  14
ENDBRANCH  12  13
ENDBRANCH  10  12
ENDBRANCH   1  10
TORSDOF 12
ENDMDL
