MODEL 1
REMARK VINA RESULT:    -6.525      0.000      0.000
REMARK INTER + INTRA:         -11.140
REMARK INTER:                 -10.530
REMARK INTRA:                  -0.610
REMARK UNBOUND:                -0.610
REMARK SMILES COc1cc(CNC(=O)CCCCC/C=C/C(C)C)ccc1O
REMARK SMILES IDX 11 1 10 2 8 3 7 4 9 6 6 7 5 8 3 9 22 10 4 11 21 12 20 13
REMARK SMILES IDX 2 14 1 15 23 16 12 18 13 19 14 20 15 21 16 22 17 23 18 24
REMARK SMILES IDX 19 25
REMARK H PARENT 7 5 23 17
REMARK Flexibility Score: inf
ROOT
ATOM      1  C   UNL     1      93.469  99.046  72.857  1.00  0.00     0.010 C 
ENDROOT
BRANCH   1   2
ATOM      2  C   UNL     1      94.900  98.476  72.679  1.00  0.00     0.100 C 
BRANCH   2   3
ATOM      3  C   UNL     1      95.262  97.443  73.668  1.00  0.00     0.220 C 
ATOM      4  N   UNL     1      94.322  96.554  74.094  1.00  0.00    -0.352 N 
ATOM      5  H   UNL     1      93.391  96.723  73.739  1.00  0.00     0.163 HD
ATOM      6  O   UNL     1      96.450  97.386  74.062  1.00  0.00    -0.275 OA
BRANCH   4   7
ATOM      7  C   UNL     1      94.559  95.452  74.968  1.00  0.00     0.151 C 
BRANCH   7   8
ATOM      8  C   UNL     1      93.328  95.002  75.668  1.00  0.00    -0.025 A 
ATOM      9  C   UNL     1      91.745  93.220  76.273  1.00  0.00     0.160 A 
ATOM     10  C   UNL     1      90.950  94.161  76.962  1.00  0.00     0.157 A 
ATOM     11  C   UNL     1      92.921  93.648  75.624  1.00  0.00     0.056 A 
ATOM     12  C   UNL     1      91.353  95.507  77.026  1.00  0.00     0.050 A 
ATOM     13  C   UNL     1      92.540  95.923  76.393  1.00  0.00     0.009 A 
BRANCH   9  14
ATOM     14  O   UNL     1      91.407  91.892  76.278  1.00  0.00    -0.493 OA
ATOM     15  C   UNL     1      90.992  91.387  74.998  1.00  0.00     0.278 C 
ENDBRANCH   9  14
BRANCH  10  16
ATOM     16  O   UNL     1      89.796  93.795  77.575  1.00  0.00    -0.504 OA
ATOM     17  H   UNL     1      89.048  94.132  77.074  1.00  0.00     0.293 HD
ENDBRANCH  10  16
ENDBRANCH   7   8
ENDBRANCH   4   7
ENDBRANCH   2   3
ENDBRANCH   1   2
BRANCH   1  18
ATOM     18  C   UNL     1      92.826  99.381  71.487  1.00  0.00     0.001 C 
BRANCH  18  19
ATOM     19  C   UNL     1      91.361  99.877  71.591  1.00  0.00     0.004 C 
BRANCH  19  20
ATOM     20  C   UNL     1      90.396  98.963  70.785  1.00  0.00     0.027 C 
BRANCH  20  21
ATOM     21  C   UNL     1      90.250  99.351  69.392  1.00  0.00    -0.031 C 
ATOM     22  C   UNL     1      89.049  99.461  68.798  1.00  0.00    -0.028 C 
BRANCH  22  23
ATOM     23  C   UNL     1      88.868  99.853  67.403  1.00  0.00     0.005 C 
ATOM     24  C   UNL     1      89.377  98.732  66.459  1.00  0.00     0.012 C 
ATOM     25  C   UNL     1      87.383 100.220  67.136  1.00  0.00     0.012 C 
ENDBRANCH  22  23
ENDBRANCH  20  21
ENDBRANCH  19  20
ENDBRANCH  18  19
ENDBRANCH   1  18
TORSDOF 11
ENDMDL
MODEL 2
REMARK VINA RESULT:    -6.111      3.414      8.767
REMARK INTER + INTRA:         -10.472
REMARK INTER:                  -9.707
REMARK INTRA:                  -0.765
REMARK UNBOUND:                -0.610
REMARK SMILES COc1cc(CNC(=O)CCCCC/C=C/C(C)C)ccc1O
REMARK SMILES IDX 11 1 10 2 8 3 7 4 9 6 6 7 5 8 3 9 22 10 4 11 21 12 20 13
REMARK SMILES IDX 2 14 1 15 23 16 12 18 13 19 14 20 15 21 16 22 17 23 18 24
REMARK SMILES IDX 19 25
REMARK H PARENT 7 5 23 17
REMARK Flexibility Score: inf
ROOT
ATOM      1  C   UNL     1      96.376  97.804  73.631  1.00  0.00     0.010 C 
ENDROOT
BRANCH   1   2
ATOM      2  C   UNL     1      95.387  97.777  72.438  1.00  0.00     0.100 C 
BRANCH   2   3
ATOM      3  C   UNL     1      94.671  99.048  72.222  1.00  0.00     0.220 C 
ATOM      4  N   UNL     1      93.816  99.175  71.170  1.00  0.00    -0.352 N 
ATOM      5  H   UNL     1      93.789  98.377  70.550  1.00  0.00     0.163 HD
ATOM      6  O   UNL     1      94.843  99.976  73.048  1.00  0.00    -0.275 OA
BRANCH   4   7
ATOM      7  C   UNL     1      92.992 100.309  70.903  1.00  0.00     0.151 C 
BRANCH   7   8
ATOM      8  C   UNL     1      91.734  99.948  70.199  1.00  0.00    -0.025 A 
ATOM      9  C   UNL     1      90.193 100.223  68.302  1.00  0.00     0.160 A 
ATOM     10  C   UNL     1      89.305  99.295  68.889  1.00  0.00     0.157 A 
ATOM     11  C   UNL     1      91.394 100.548  68.964  1.00  0.00     0.056 A 
ATOM     12  C   UNL     1      89.640  98.680  70.109  1.00  0.00     0.050 A 
ATOM     13  C   UNL     1      90.850  98.996  70.754  1.00  0.00     0.009 A 
BRANCH   9  14
ATOM     14  O   UNL     1      89.918 100.761  67.073  1.00  0.00    -0.493 OA
ATOM     15  C   UNL     1      90.634 100.147  65.988  1.00  0.00     0.278 C 
ENDBRANCH   9  14
BRANCH  10  16
ATOM     16  O   UNL     1      88.127  98.976  68.299  1.00  0.00    -0.504 OA
ATOM     17  H   UNL     1      87.463  99.629  68.536  1.00  0.00     0.293 HD
ENDBRANCH  10  16
ENDBRANCH   7   8
ENDBRANCH   4   7
ENDBRANCH   2   3
ENDBRANCH   1   2
BRANCH   1  18
ATOM     18  C   UNL     1      96.036  96.699  74.665  1.00  0.00     0.001 C 
BRANCH  18  19
ATOM     19  C   UNL     1      94.726  95.934  74.351  1.00  0.00     0.004 C 
BRANCH  19  20
ATOM     20  C   UNL     1      93.523  96.522  75.140  1.00  0.00     0.027 C 
BRANCH  20  21
ATOM     21  C   UNL     1      92.822  95.543  75.953  1.00  0.00    -0.031 C 
ATOM     22  C   UNL     1      93.443  94.478  76.490  1.00  0.00    -0.028 C 
BRANCH  22  23
ATOM     23  C   UNL     1      92.768  93.479  77.315  1.00  0.00     0.005 C 
ATOM     24  C   UNL     1      93.548  93.258  78.638  1.00  0.00     0.012 C 
ATOM     25  C   UNL     1      91.292  93.894  77.562  1.00  0.00     0.012 C 
ENDBRANCH  22  23
ENDBRANCH  20  21
ENDBRANCH  19  20
ENDBRANCH  18  19
ENDBRANCH   1  18
TORSDOF 11
ENDMDL
MODEL 3
REMARK VINA RESULT:    -6.019     15.303     18.706
REMARK INTER + INTRA:         -10.324
REMARK INTER:                  -9.679
REMARK INTRA:                  -0.644
REMARK UNBOUND:                -0.610
REMARK SMILES COc1cc(CNC(=O)CCCCC/C=C/C(C)C)ccc1O
REMARK SMILES IDX 11 1 10 2 8 3 7 4 9 6 6 7 5 8 3 9 22 10 4 11 21 12 20 13
REMARK SMILES IDX 2 14 1 15 23 16 12 18 13 19 14 20 15 21 16 22 17 23 18 24
REMARK SMILES IDX 19 25
REMARK H PARENT 7 5 23 17
REMARK Flexibility Score: inf
ROOT
ATOM      1  C   UNL     1      96.264  80.240  82.410  1.00  0.00     0.010 C 
ENDROOT
BRANCH   1   2
ATOM      2  C   UNL     1      96.145  79.948  83.928  1.00  0.00     0.100 C 
BRANCH   2   3
ATOM      3  C   UNL     1      95.557  81.053  84.708  1.00  0.00     0.220 C 
ATOM      4  N   UNL     1      94.210  81.253  84.691  1.00  0.00    -0.352 N 
ATOM      5  H   UNL     1      93.702  80.647  84.061  1.00  0.00     0.163 HD
ATOM      6  O   UNL     1      96.320  81.761  85.406  1.00  0.00    -0.275 OA
BRANCH   4   7
ATOM      7  C   UNL     1      93.505  82.218  85.470  1.00  0.00     0.151 C 
BRANCH   7   8
ATOM      8  C   UNL     1      92.074  81.864  85.660  1.00  0.00    -0.025 A 
ATOM      9  C   UNL     1      90.012  80.797  84.851  1.00  0.00     0.160 A 
ATOM     10  C   UNL     1      89.330  81.239  86.005  1.00  0.00     0.157 A 
ATOM     11  C   UNL     1      91.374  81.119  84.683  1.00  0.00     0.056 A 
ATOM     12  C   UNL     1      90.021  81.966  86.992  1.00  0.00     0.050 A 
ATOM     13  C   UNL     1      91.386  82.267  86.826  1.00  0.00     0.009 A 
BRANCH   9  14
ATOM     14  O   UNL     1      89.372  80.015  83.926  1.00  0.00    -0.493 OA
ATOM     15  C   UNL     1      89.793  78.641  83.926  1.00  0.00     0.278 C 
ENDBRANCH   9  14
BRANCH  10  16
ATOM     16  O   UNL     1      88.013  80.975  86.191  1.00  0.00    -0.504 OA
ATOM     17  H   UNL     1      87.487  81.580  85.663  1.00  0.00     0.293 HD
ENDBRANCH  10  16
ENDBRANCH   7   8
ENDBRANCH   4   7
ENDBRANCH   2   3
ENDBRANCH   1   2
BRANCH   1  18
ATOM     18  C   UNL     1      97.440  81.207  82.117  1.00  0.00     0.001 C 
BRANCH  18  19
ATOM     19  C   UNL     1      97.830  81.278  80.619  1.00  0.00     0.004 C 
BRANCH  19  20
ATOM     20  C   UNL     1      96.764  82.049  79.792  1.00  0.00     0.027 C 
BRANCH  20  21
ATOM     21  C   UNL     1      97.030  82.063  78.364  1.00  0.00    -0.031 C 
ATOM     22  C   UNL     1      96.144  82.541  77.472  1.00  0.00    -0.028 C 
BRANCH  22  23
ATOM     23  C   UNL     1      96.383  82.573  76.031  1.00  0.00     0.005 C 
ATOM     24  C   UNL     1      95.999  83.961  75.454  1.00  0.00     0.012 C 
ATOM     25  C   UNL     1      97.857  82.193  75.723  1.00  0.00     0.012 C 
ENDBRANCH  22  23
ENDBRANCH  20  21
ENDBRANCH  19  20
ENDBRANCH  18  19
ENDBRANCH   1  18
TORSDOF 11
ENDMDL
MODEL 4
REMARK VINA RESULT:    -5.811     18.173     20.205
REMARK INTER + INTRA:          -9.988
REMARK INTER:                  -8.182
REMARK INTRA:                  -1.806
REMARK UNBOUND:                -0.610
REMARK SMILES COc1cc(CNC(=O)CCCCC/C=C/C(C)C)ccc1O
REMARK SMILES IDX 11 1 10 2 8 3 7 4 9 6 6 7 5 8 3 9 22 10 4 11 21 12 20 13
REMARK SMILES IDX 2 14 1 15 23 16 12 18 13 19 14 20 15 21 16 22 17 23 18 24
REMARK SMILES IDX 19 25
REMARK H PARENT 7 5 23 17
REMARK Flexibility Score: inf
ROOT
ATOM      1  C   UNL     1      92.095  83.946  88.149  1.00  0.00     0.010 C 
ENDROOT
BRANCH   1   2
ATOM      2  C   UNL     1      92.434  84.288  89.623  1.00  0.00     0.100 C 
BRANCH   2   3
ATOM      3  C   UNL     1      91.890  85.580  90.079  1.00  0.00     0.220 C 
ATOM      4  N   UNL     1      92.710  86.487  90.680  1.00  0.00    -0.352 N 
ATOM      5  H   UNL     1      93.654  86.162  90.838  1.00  0.00     0.163 HD
ATOM      6  O   UNL     1      90.680  85.827  89.862  1.00  0.00    -0.275 OA
BRANCH   4   7
ATOM      7  C   UNL     1      92.338  87.805  91.080  1.00  0.00     0.151 C 
BRANCH   7   8
ATOM      8  C   UNL     1      93.229  88.848  90.512  1.00  0.00    -0.025 A 
ATOM      9  C   UNL     1      94.052  91.166  90.473  1.00  0.00     0.160 A 
ATOM     10  C   UNL     1      94.895  90.848  89.386  1.00  0.00     0.157 A 
ATOM     11  C   UNL     1      93.220  90.168  91.021  1.00  0.00     0.056 A 
ATOM     12  C   UNL     1      94.925  89.535  88.882  1.00  0.00     0.050 A 
ATOM     13  C   UNL     1      94.106  88.539  89.448  1.00  0.00     0.009 A 
BRANCH   9  14
ATOM     14  O   UNL     1      94.079  92.418  91.027  1.00  0.00    -0.493 OA
ATOM     15  C   UNL     1      92.978  93.257  90.640  1.00  0.00     0.278 C 
ENDBRANCH   9  14
BRANCH  10  16
ATOM     16  O   UNL     1      95.689  91.786  88.812  1.00  0.00    -0.504 OA
ATOM     17  H   UNL     1      96.286  92.146  89.472  1.00  0.00     0.293 HD
ENDBRANCH  10  16
ENDBRANCH   7   8
ENDBRANCH   4   7
ENDBRANCH   2   3
ENDBRANCH   1   2
BRANCH   1  18
ATOM     18  C   UNL     1      93.353  83.463  87.383  1.00  0.00     0.001 C 
BRANCH  18  19
ATOM     19  C   UNL     1      93.677  84.305  86.122  1.00  0.00     0.004 C 
BRANCH  19  20
ATOM     20  C   UNL     1      94.957  85.162  86.327  1.00  0.00     0.027 C 
BRANCH  20  21
ATOM     21  C   UNL     1      95.502  85.087  87.671  1.00  0.00    -0.031 C 
ATOM     22  C   UNL     1      96.490  85.897  88.093  1.00  0.00    -0.028 C 
BRANCH  22  23
ATOM     23  C   UNL     1      97.055  85.851  89.439  1.00  0.00     0.005 C 
ATOM     24  C   UNL     1      97.456  87.277  89.903  1.00  0.00     0.012 C 
ATOM     25  C   UNL     1      96.059  85.171  90.417  1.00  0.00     0.012 C 
ENDBRANCH  22  23
ENDBRANCH  20  21
ENDBRANCH  19  20
ENDBRANCH  18  19
ENDBRANCH   1  18
TORSDOF 11
ENDMDL
MODEL 5
REMARK VINA RESULT:    -5.785     15.257     18.022
REMARK INTER + INTRA:          -9.947
REMARK INTER:                  -9.284
REMARK INTRA:                  -0.663
REMARK UNBOUND:                -0.610
REMARK SMILES COc1cc(CNC(=O)CCCCC/C=C/C(C)C)ccc1O
REMARK SMILES IDX 11 1 10 2 8 3 7 4 9 6 6 7 5 8 3 9 22 10 4 11 21 12 20 13
REMARK SMILES IDX 2 14 1 15 23 16 12 18 13 19 14 20 15 21 16 22 17 23 18 24
REMARK SMILES IDX 19 25
REMARK H PARENT 7 5 23 17
REMARK Flexibility Score: inf
ROOT
ATOM      1  C   UNL     1      96.383  81.726  82.006  1.00  0.00     0.010 C 
ENDROOT
BRANCH   1   2
ATOM      2  C   UNL     1      96.913  82.635  83.145  1.00  0.00     0.100 C 
BRANCH   2   3
ATOM      3  C   UNL     1      95.884  83.030  84.124  1.00  0.00     0.220 C 
ATOM      4  N   UNL     1      95.809  84.324  84.544  1.00  0.00    -0.352 N 
ATOM      5  H   UNL     1      96.541  84.925  84.191  1.00  0.00     0.163 HD
ATOM      6  O   UNL     1      95.070  82.161  84.518  1.00  0.00    -0.275 OA
BRANCH   4   7
ATOM      7  C   UNL     1      94.807  84.859  85.408  1.00  0.00     0.151 C 
BRANCH   7   8
ATOM      8  C   UNL     1      95.308  85.093  86.787  1.00  0.00    -0.025 A 
ATOM      9  C   UNL     1      96.304  86.580  88.475  1.00  0.00     0.160 A 
ATOM     10  C   UNL     1      96.311  85.518  89.405  1.00  0.00     0.157 A 
ATOM     11  C   UNL     1      95.811  86.358  87.172  1.00  0.00     0.056 A 
ATOM     12  C   UNL     1      95.797  84.260  89.038  1.00  0.00     0.050 A 
ATOM     13  C   UNL     1      95.290  84.052  87.742  1.00  0.00     0.009 A 
BRANCH   9  14
ATOM     14  O   UNL     1      96.720  87.830  88.848  1.00  0.00    -0.493 OA
ATOM     15  C   UNL     1      95.664  88.802  88.926  1.00  0.00     0.278 C 
ENDBRANCH   9  14
BRANCH  10  16
ATOM     16  O   UNL     1      96.802  85.682  90.659  1.00  0.00    -0.504 OA
ATOM     17  H   UNL     1      96.321  85.116  91.267  1.00  0.00     0.293 HD
ENDBRANCH  10  16
ENDBRANCH   7   8
ENDBRANCH   4   7
ENDBRANCH   2   3
ENDBRANCH   1   2
BRANCH   1  18
ATOM     18  C   UNL     1      97.027  82.101  80.646  1.00  0.00     0.001 C 
BRANCH  18  19
ATOM     19  C   UNL     1      97.462  80.875  79.804  1.00  0.00     0.004 C 
BRANCH  19  20
ATOM     20  C   UNL     1      98.262  81.309  78.544  1.00  0.00     0.027 C 
BRANCH  20  21
ATOM     21  C   UNL     1      97.484  82.092  77.598  1.00  0.00    -0.031 C 
ATOM     22  C   UNL     1      97.141  81.621  76.386  1.00  0.00    -0.028 C 
BRANCH  22  23
ATOM     23  C   UNL     1      96.356  82.380  75.416  1.00  0.00     0.005 C 
ATOM     24  C   UNL     1      95.934  83.747  76.017  1.00  0.00     0.012 C 
ATOM     25  C   UNL     1      97.148  82.538  74.090  1.00  0.00     0.012 C 
ENDBRANCH  22  23
ENDBRANCH  20  21
ENDBRANCH  19  20
ENDBRANCH  18  19
ENDBRANCH   1  18
TORSDOF 11
ENDMDL
MODEL 6
REMARK VINA RESULT:    -5.721     15.525     19.512
REMARK INTER + INTRA:          -9.842
REMARK INTER:                  -8.715
REMARK INTRA:                  -1.127
REMARK UNBOUND:                -0.610
REMARK SMILES COc1cc(CNC(=O)CCCCC/C=C/C(C)C)ccc1O
REMARK SMILES IDX 11 1 10 2 8 3 7 4 9 6 6 7 5 8 3 9 22 10 4 11 21 12 20 13
REMARK SMILES IDX 2 14 1 15 23 16 12 18 13 19 14 20 15 21 16 22 17 23 18 24
REMARK SMILES IDX 19 25
REMARK H PARENT 7 5 23 17
REMARK Flexibility Score: inf
ROOT
ATOM      1  C   UNL     1      97.433  77.697  80.252  1.00  0.00     0.010 C 
ENDROOT
BRANCH   1   2
ATOM      2  C   UNL     1      98.831  78.369  80.240  1.00  0.00     0.100 C 
BRANCH   2   3
ATOM      3  C   UNL     1      98.804  79.804  79.900  1.00  0.00     0.220 C 
ATOM      4  N   UNL     1      97.611  80.437  79.724  1.00  0.00    -0.352 N 
ATOM      5  H   UNL     1      96.802  79.832  79.772  1.00  0.00     0.163 HD
ATOM      6  O   UNL     1      99.894  80.418  79.822  1.00  0.00    -0.275 OA
BRANCH   4   7
ATOM      7  C   UNL     1      97.439  81.834  79.490  1.00  0.00     0.151 C 
BRANCH   7   8
ATOM      8  C   UNL     1      97.173  82.146  78.062  1.00  0.00    -0.025 A 
ATOM      9  C   UNL     1      97.899  82.182  75.712  1.00  0.00     0.160 A 
ATOM     10  C   UNL     1      96.680  82.794  75.346  1.00  0.00     0.157 A 
ATOM     11  C   UNL     1      98.140  81.871  77.066  1.00  0.00     0.056 A 
ATOM     12  C   UNL     1      95.705  83.056  76.326  1.00  0.00     0.050 A 
ATOM     13  C   UNL     1      95.945  82.725  77.672  1.00  0.00     0.009 A 
BRANCH   9  14
ATOM     14  O   UNL     1      98.819  81.843  74.756  1.00  0.00    -0.493 OA
ATOM     15  C   UNL     1      99.936  81.089  75.255  1.00  0.00     0.278 C 
ENDBRANCH   9  14
BRANCH  10  16
ATOM     16  O   UNL     1      96.422  83.135  74.059  1.00  0.00    -0.504 OA
ATOM     17  H   UNL     1      97.027  82.669  73.477  1.00  0.00     0.293 HD
ENDBRANCH  10  16
ENDBRANCH   7   8
ENDBRANCH   4   7
ENDBRANCH   2   3
ENDBRANCH   1   2
BRANCH   1  18
ATOM     18  C   UNL     1      97.209  76.897  81.561  1.00  0.00     0.001 C 
BRANCH  18  19
ATOM     19  C   UNL     1      96.269  77.605  82.570  1.00  0.00     0.004 C 
BRANCH  19  20
ATOM     20  C   UNL     1      97.020  78.706  83.369  1.00  0.00     0.027 C 
BRANCH  20  21
ATOM     21  C   UNL     1      96.524  80.049  83.121  1.00  0.00    -0.031 C 
ATOM     22  C   UNL     1      95.629  80.645  83.929  1.00  0.00    -0.028 C 
BRANCH  22  23
ATOM     23  C   UNL     1      95.115  81.995  83.711  1.00  0.00     0.005 C 
ATOM     24  C   UNL     1      94.898  82.713  85.069  1.00  0.00     0.012 C 
ATOM     25  C   UNL     1      96.065  82.785  82.770  1.00  0.00     0.012 C 
ENDBRANCH  22  23
ENDBRANCH  20  21
ENDBRANCH  19  20
ENDBRANCH  18  19
ENDBRANCH   1  18
TORSDOF 11
ENDMDL
MODEL 7
REMARK VINA RESULT:    -5.692     27.735     30.590
REMARK INTER + INTRA:          -9.797
REMARK INTER:                  -8.072
REMARK INTRA:                  -1.725
REMARK UNBOUND:                -0.610
REMARK SMILES COc1cc(CNC(=O)CCCCC/C=C/C(C)C)ccc1O
REMARK SMILES IDX 11 1 10 2 8 3 7 4 9 6 6 7 5 8 3 9 22 10 4 11 21 12 20 13
REMARK SMILES IDX 2 14 1 15 23 16 12 18 13 19 14 20 15 21 16 22 17 23 18 24
REMARK SMILES IDX 19 25
REMARK H PARENT 7 5 23 17
REMARK Flexibility Score: inf
ROOT
ATOM      1  C   UNL     1      63.180  83.976  74.707  1.00  0.00     0.010 C 
ENDROOT
BRANCH   1   2
ATOM      2  C   UNL     1      62.684  84.959  73.614  1.00  0.00     0.100 C 
BRANCH   2   3
ATOM      3  C   UNL     1      63.730  85.861  73.098  1.00  0.00     0.220 C 
ATOM      4  N   UNL     1      65.039  85.612  73.379  1.00  0.00    -0.352 N 
ATOM      5  H   UNL     1      65.195  84.834  74.006  1.00  0.00     0.163 HD
ATOM      6  O   UNL     1      63.383  86.822  72.372  1.00  0.00    -0.275 OA
BRANCH   4   7
ATOM      7  C   UNL     1      66.152  86.344  72.866  1.00  0.00     0.151 C 
BRANCH   7   8
ATOM      8  C   UNL     1      66.840  85.635  71.756  1.00  0.00    -0.025 A 
ATOM      9  C   UNL     1      66.778  84.559  69.545  1.00  0.00     0.160 A 
ATOM     10  C   UNL     1      68.147  84.237  69.665  1.00  0.00     0.157 A 
ATOM     11  C   UNL     1      66.133  85.247  70.594  1.00  0.00     0.056 A 
ATOM     12  C   UNL     1      68.864  84.633  70.809  1.00  0.00     0.050 A 
ATOM     13  C   UNL     1      68.218  85.337  71.842  1.00  0.00     0.009 A 
BRANCH   9  14
ATOM     14  O   UNL     1      66.093  84.256  68.399  1.00  0.00    -0.493 OA
ATOM     15  C   UNL     1      65.566  85.401  67.708  1.00  0.00     0.278 C 
ENDBRANCH   9  14
BRANCH  10  16
ATOM     16  O   UNL     1      68.798  83.552  68.692  1.00  0.00    -0.504 OA
ATOM     17  H   UNL     1      69.745  83.674  68.793  1.00  0.00     0.293 HD
ENDBRANCH  10  16
ENDBRANCH   7   8
ENDBRANCH   4   7
ENDBRANCH   2   3
ENDBRANCH   1   2
BRANCH   1  18
ATOM     18  C   UNL     1      62.120  82.884  75.000  1.00  0.00     0.001 C 
BRANCH  18  19
ATOM     19  C   UNL     1      62.373  81.553  74.248  1.00  0.00     0.004 C 
BRANCH  19  20
ATOM     20  C   UNL     1      61.451  81.420  73.004  1.00  0.00     0.027 C 
BRANCH  20  21
ATOM     21  C   UNL     1      62.109  81.747  71.751  1.00  0.00    -0.031 C 
ATOM     22  C   UNL     1      63.447  81.725  71.614  1.00  0.00    -0.028 C 
BRANCH  22  23
ATOM     23  C   UNL     1      64.138  82.044  70.368  1.00  0.00     0.005 C 
ATOM     24  C   UNL     1      65.497  81.296  70.300  1.00  0.00     0.012 C 
ATOM     25  C   UNL     1      63.228  81.723  69.151  1.00  0.00     0.012 C 
ENDBRANCH  22  23
ENDBRANCH  20  21
ENDBRANCH  19  20
ENDBRANCH  18  19
ENDBRANCH   1  18
TORSDOF 11
ENDMDL
MODEL 8
REMARK VINA RESULT:    -5.630      7.750     10.946
REMARK INTER + INTRA:          -9.697
REMARK INTER:                  -8.981
REMARK INTRA:                  -0.715
REMARK UNBOUND:                -0.610
REMARK SMILES COc1cc(CNC(=O)CCCCC/C=C/C(C)C)ccc1O
REMARK SMILES IDX 11 1 10 2 8 3 7 4 9 6 6 7 5 8 3 9 22 10 4 11 21 12 20 13
REMARK SMILES IDX 2 14 1 15 23 16 12 18 13 19 14 20 15 21 16 22 17 23 18 24
REMARK SMILES IDX 19 25
REMARK H PARENT 7 5 23 17
REMARK Flexibility Score: inf
ROOT
ATOM      1  C   UNL     1      97.417  93.764  81.081  1.00  0.00     0.010 C 
ENDROOT
BRANCH   1   2
ATOM      2  C   UNL     1      98.821  94.383  81.311  1.00  0.00     0.100 C 
BRANCH   2   3
ATOM      3  C   UNL     1      98.897  95.280  82.478  1.00  0.00     0.220 C 
ATOM      4  N   UNL     1      97.848  96.095  82.777  1.00  0.00    -0.352 N 
ATOM      5  H   UNL     1      97.092  96.073  82.106  1.00  0.00     0.163 HD
ATOM      6  O   UNL     1      99.925  95.238  83.195  1.00  0.00    -0.275 OA
BRANCH   4   7
ATOM      7  C   UNL     1      97.752  96.937  83.925  1.00  0.00     0.151 C 
BRANCH   7   8
ATOM      8  C   UNL     1      97.001  98.190  83.654  1.00  0.00    -0.025 A 
ATOM      9  C   UNL     1      95.963 100.273  84.451  1.00  0.00     0.160 A 
ATOM     10  C   UNL     1      95.523 100.554  83.139  1.00  0.00     0.157 A 
ATOM     11  C   UNL     1      96.690  99.091  84.700  1.00  0.00     0.056 A 
ATOM     12  C   UNL     1      95.841  99.673  82.089  1.00  0.00     0.050 A 
ATOM     13  C   UNL     1      96.584  98.505  82.342  1.00  0.00     0.009 A 
BRANCH   9  14
ATOM     14  O   UNL     1      95.735 101.166  85.464  1.00  0.00    -0.493 OA
ATOM     15  C   UNL     1      96.862 102.001  85.776  1.00  0.00     0.278 C 
ENDBRANCH   9  14
BRANCH  10  16
ATOM     16  O   UNL     1      94.796 101.665  82.862  1.00  0.00    -0.504 OA
ATOM     17  H   UNL     1      94.765 101.798  81.911  1.00  0.00     0.293 HD
ENDBRANCH  10  16
ENDBRANCH   7   8
ENDBRANCH   4   7
ENDBRANCH   2   3
ENDBRANCH   1   2
BRANCH   1  18
ATOM     18  C   UNL     1      96.823  94.213  79.722  1.00  0.00     0.001 C 
BRANCH  18  19
ATOM     19  C   UNL     1      95.291  94.442  79.756  1.00  0.00     0.004 C 
BRANCH  19  20
ATOM     20  C   UNL     1      94.527  93.264  79.087  1.00  0.00     0.027 C 
BRANCH  20  21
ATOM     21  C   UNL     1      93.459  93.690  78.200  1.00  0.00    -0.031 C 
ATOM     22  C   UNL     1      92.206  93.213  78.303  1.00  0.00    -0.028 C 
BRANCH  22  23
ATOM     23  C   UNL     1      91.109  93.624  77.431  1.00  0.00     0.005 C 
ATOM     24  C   UNL     1      91.377  95.042  76.861  1.00  0.00     0.012 C 
ATOM     25  C   UNL     1      90.889  92.571  76.311  1.00  0.00     0.012 C 
ENDBRANCH  22  23
ENDBRANCH  20  21
ENDBRANCH  19  20
ENDBRANCH  18  19
ENDBRANCH   1  18
TORSDOF 11
ENDMDL
MODEL 9
REMARK VINA RESULT:    -5.519     24.998     29.546
REMARK INTER + INTRA:          -9.517
REMARK INTER:                  -8.743
REMARK INTRA:                  -0.774
REMARK UNBOUND:                -0.610
REMARK SMILES COc1cc(CNC(=O)CCCCC/C=C/C(C)C)ccc1O
REMARK SMILES IDX 11 1 10 2 8 3 7 4 9 6 6 7 5 8 3 9 22 10 4 11 21 12 20 13
REMARK SMILES IDX 2 14 1 15 23 16 12 18 13 19 14 20 15 21 16 22 17 23 18 24
REMARK SMILES IDX 19 25
REMARK H PARENT 7 5 23 17
REMARK Flexibility Score: inf
ROOT
ATOM      1  C   UNL     1      84.447  67.722  72.019  1.00  0.00     0.010 C 
ENDROOT
BRANCH   1   2
ATOM      2  C   UNL     1      84.078  69.141  72.523  1.00  0.00     0.100 C 
BRANCH   2   3
ATOM      3  C   UNL     1      84.685  70.233  71.738  1.00  0.00     0.220 C 
ATOM      4  N   UNL     1      85.984  70.140  71.339  1.00  0.00    -0.352 N 
ATOM      5  H   UNL     1      86.474  69.327  71.686  1.00  0.00     0.163 HD
ATOM      6  O   UNL     1      83.967  71.211  71.423  1.00  0.00    -0.275 OA
BRANCH   4   7
ATOM      7  C   UNL     1      86.662  71.072  70.499  1.00  0.00     0.151 C 
BRANCH   7   8
ATOM      8  C   UNL     1      87.981  71.482  71.048  1.00  0.00    -0.025 A 
ATOM      9  C   UNL     1      89.450  71.927  72.969  1.00  0.00     0.160 A 
ATOM     10  C   UNL     1      90.483  72.317  72.088  1.00  0.00     0.157 A 
ATOM     11  C   UNL     1      88.206  71.522  72.444  1.00  0.00     0.056 A 
ATOM     12  C   UNL     1      90.276  72.265  70.698  1.00  0.00     0.050 A 
ATOM     13  C   UNL     1      89.037  71.840  70.181  1.00  0.00     0.009 A 
BRANCH   9  14
ATOM     14  O   UNL     1      89.670  71.890  74.321  1.00  0.00    -0.493 OA
ATOM     15  C   UNL     1      88.665  71.177  75.060  1.00  0.00     0.278 C 
ENDBRANCH   9  14
BRANCH  10  16
ATOM     16  O   UNL     1      91.685  72.740  72.554  1.00  0.00    -0.504 OA
ATOM     17  H   UNL     1      91.912  73.576  72.139  1.00  0.00     0.293 HD
ENDBRANCH  10  16
ENDBRANCH   7   8
ENDBRANCH   4   7
ENDBRANCH   2   3
ENDBRANCH   1   2
BRANCH   1  18
ATOM     18  C   UNL     1      83.443  66.664  72.545  1.00  0.00     0.001 C 
BRANCH  18  19
ATOM     19  C   UNL     1      82.296  66.346  71.553  1.00  0.00     0.004 C 
BRANCH  19  20
ATOM     20  C   UNL     1      80.933  66.211  72.287  1.00  0.00     0.027 C 
BRANCH  20  21
ATOM     21  C   UNL     1      80.957  65.274  73.397  1.00  0.00    -0.031 C 
ATOM     22  C   UNL     1      80.310  65.510  74.552  1.00  0.00    -0.028 C 
BRANCH  22  23
ATOM     23  C   UNL     1      80.311  64.587  75.684  1.00  0.00     0.005 C 
ATOM     24  C   UNL     1      79.425  63.352  75.370  1.00  0.00     0.012 C 
ATOM     25  C   UNL     1      81.766  64.190  76.053  1.00  0.00     0.012 C 
ENDBRANCH  22  23
ENDBRANCH  20  21
ENDBRANCH  19  20
ENDBRANCH  18  19
ENDBRANCH   1  18
TORSDOF 11
ENDMDL
MODEL 10
REMARK VINA RESULT:    -4.934     19.961     22.671
REMARK INTER + INTRA:          -8.572
REMARK INTER:                  -6.994
REMARK INTRA:                  -1.578
REMARK UNBOUND:                -0.610
REMARK SMILES COc1cc(CNC(=O)CCCCC/C=C/C(C)C)ccc1O
REMARK SMILES IDX 11 1 10 2 8 3 7 4 9 6 6 7 5 8 3 9 22 10 4 11 21 12 20 13
REMARK SMILES IDX 2 14 1 15 23 16 12 18 13 19 14 20 15 21 16 22 17 23 18 24
REMARK SMILES IDX 19 25
REMARK H PARENT 7 5 23 17
REMARK Flexibility Score: inf
ROOT
ATOM      1  C   UNL     1      75.396  88.326  65.359  1.00  0.00     0.010 C 
ENDROOT
BRANCH   1   2
ATOM      2  C   UNL     1      75.590  87.673  63.966  1.00  0.00     0.100 C 
BRANCH   2   3
ATOM      3  C   UNL     1      75.897  86.232  64.017  1.00  0.00     0.220 C 
ATOM      4  N   UNL     1      75.900  85.580  65.213  1.00  0.00    -0.352 N 
ATOM      5  H   UNL     1      75.755  86.176  66.017  1.00  0.00     0.163 HD
ATOM      6  O   UNL     1      76.111  85.630  62.937  1.00  0.00    -0.275 OA
BRANCH   4   7
ATOM      7  C   UNL     1      76.084  84.177  65.393  1.00  0.00     0.151 C 
BRANCH   7   8
ATOM      8  C   UNL     1      74.801  83.428  65.399  1.00  0.00    -0.025 A 
ATOM      9  C   UNL     1      72.344  83.400  65.500  1.00  0.00     0.160 A 
ATOM     10  C   UNL     1      72.359  81.989  65.463  1.00  0.00     0.157 A 
ATOM     11  C   UNL     1      73.563  84.108  65.476  1.00  0.00     0.056 A 
ATOM     12  C   UNL     1      73.584  81.303  65.368  1.00  0.00     0.050 A 
ATOM     13  C   UNL     1      74.796  82.017  65.326  1.00  0.00     0.009 A 
BRANCH   9  14
ATOM     14  O   UNL     1      71.155  84.080  65.503  1.00  0.00    -0.493 OA
ATOM     15  C   UNL     1      70.761  84.568  66.797  1.00  0.00     0.278 C 
ENDBRANCH   9  14
BRANCH  10  16
ATOM     16  O   UNL     1      71.210  81.270  65.512  1.00  0.00    -0.504 OA
ATOM     17  H   UNL     1      71.140  80.725  64.724  1.00  0.00     0.293 HD
ENDBRANCH  10  16
ENDBRANCH   7   8
ENDBRANCH   4   7
ENDBRANCH   2   3
ENDBRANCH   1   2
BRANCH   1  18
ATOM     18  C   UNL     1      76.661  89.112  65.789  1.00  0.00     0.001 C 
BRANCH  18  19
ATOM     19  C   UNL     1      76.786  89.302  67.322  1.00  0.00     0.004 C 
BRANCH  19  20
ATOM     20  C   UNL     1      75.594  88.646  68.073  1.00  0.00     0.027 C 
BRANCH  20  21
ATOM     21  C   UNL     1      75.883  87.315  68.579  1.00  0.00    -0.031 C 
ATOM     22  C   UNL     1      74.999  86.305  68.492  1.00  0.00    -0.028 C 
BRANCH  22  23
ATOM     23  C   UNL     1      75.261  84.955  68.986  1.00  0.00     0.005 C 
ATOM     24  C   UNL     1      76.784  84.660  68.960  1.00  0.00     0.012 C 
ATOM     25  C   UNL     1      74.648  84.773  70.401  1.00  0.00     0.012 C 
ENDBRANCH  22  23
ENDBRANCH  20  21
ENDBRANCH  19  20
ENDBRANCH  18  19
ENDBRANCH   1  18
TORSDOF 11
ENDMDL
