MODEL 1
REMARK VINA RESULT:    -6.449      0.000      0.000
REMARK INTER + INTRA:         -11.500
REMARK INTER:                 -10.784
REMARK INTRA:                  -0.717
REMARK UNBOUND:                -0.717
REMARK SMILES COc1cc(CNC(=O)CCCCCCCC(C)C)ccc1O
REMARK SMILES IDX 11 1 10 2 8 3 9 4 7 5 6 7 5 8 4 9 20 10 3 11 21 12 22 13
REMARK SMILES IDX 2 14 1 15 23 16 12 18 13 19 14 20 15 21 16 22 17 23 18 24
REMARK SMILES IDX 19 25
REMARK H PARENT 7 6 23 17
REMARK Flexibility Score: inf
ROOT
ATOM      1  C   UNL     1      96.004  80.500  83.502  1.00  0.00     0.010 C 
ENDROOT
BRANCH   1   2
ATOM      2  C   UNL     1      95.223  81.808  83.625  1.00  0.00     0.100 C 
BRANCH   2   3
ATOM      3  C   UNL     1      94.268  81.803  84.807  1.00  0.00     0.220 C 
ATOM      4  O   UNL     1      94.637  81.928  85.972  1.00  0.00    -0.275 OA
ATOM      5  N   UNL     1      92.954  81.633  84.399  1.00  0.00    -0.352 N 
ATOM      6  H   UNL     1      92.745  81.526  83.410  1.00  0.00     0.163 HD
BRANCH   5   7
ATOM      7  C   UNL     1      91.846  81.584  85.326  1.00  0.00     0.151 C 
BRANCH   7   8
ATOM      8  C   UNL     1      90.834  80.547  84.936  1.00  0.00    -0.025 A 
ATOM      9  C   UNL     1      89.517  80.924  84.705  1.00  0.00     0.056 A 
ATOM     10  C   UNL     1      91.224  79.219  84.811  1.00  0.00     0.009 A 
ATOM     11  C   UNL     1      88.576  79.960  84.343  1.00  0.00     0.160 A 
ATOM     12  C   UNL     1      90.283  78.254  84.449  1.00  0.00     0.050 A 
ATOM     13  C   UNL     1      88.959  78.624  84.215  1.00  0.00     0.157 A 
BRANCH  11  14
ATOM     14  O   UNL     1      87.285  80.334  84.118  1.00  0.00    -0.493 OA
ATOM     15  C   UNL     1      87.007  81.733  84.116  1.00  0.00     0.278 C 
ENDBRANCH  11  14
BRANCH  13  16
ATOM     16  O   UNL     1      88.050  77.674  83.862  1.00  0.00    -0.504 OA
ATOM     17  H   UNL     1      87.196  78.104  83.683  1.00  0.00     0.293 HD
ENDBRANCH  13  16
ENDBRANCH   7   8
ENDBRANCH   5   7
ENDBRANCH   2   3
ENDBRANCH   1   2
BRANCH   1  18
ATOM     18  C   UNL     1      96.511  80.223  82.085  1.00  0.00     0.001 C 
BRANCH  18  19
ATOM     19  C   UNL     1      97.352  81.337  81.451  1.00  0.00     0.000 C 
BRANCH  19  20
ATOM     20  C   UNL     1      98.205  80.855  80.274  1.00  0.00     0.000 C 
BRANCH  20  21
ATOM     21  C   UNL     1      98.046  81.714  79.014  1.00  0.00     0.000 C 
BRANCH  21  22
ATOM     22  C   UNL     1      96.623  82.250  78.821  1.00  0.00     0.003 C 
BRANCH  22  23
ATOM     23  C   UNL     1      96.047  81.970  77.419  1.00  0.00    -0.017 C 
ATOM     24  C   UNL     1      96.927  80.951  76.692  1.00  0.00     0.007 C 
ATOM     25  C   UNL     1      95.923  83.238  76.573  1.00  0.00     0.007 C 
ENDBRANCH  22  23
ENDBRANCH  21  22
ENDBRANCH  20  21
ENDBRANCH  19  20
ENDBRANCH  18  19
ENDBRANCH   1  18
TORSDOF 12
ENDMDL
MODEL 2
REMARK VINA RESULT:    -6.193     16.271     19.705
REMARK INTER + INTRA:         -11.074
REMARK INTER:                 -10.292
REMARK INTRA:                  -0.781
REMARK UNBOUND:                -0.717
REMARK SMILES COc1cc(CNC(=O)CCCCCCCC(C)C)ccc1O
REMARK SMILES IDX 11 1 10 2 8 3 9 4 7 5 6 7 5 8 4 9 20 10 3 11 21 12 22 13
REMARK SMILES IDX 2 14 1 15 23 16 12 18 13 19 14 20 15 21 16 22 17 23 18 24
REMARK SMILES IDX 19 25
REMARK H PARENT 7 6 23 17
REMARK Flexibility Score: inf
ROOT
ATOM      1  C   UNL     1      93.239  99.955  71.741  1.00  0.00     0.010 C 
ENDROOT
BRANCH   1   2
ATOM      2  C   UNL     1      93.059  99.273  73.096  1.00  0.00     0.100 C 
BRANCH   2   3
ATOM      3  C   UNL     1      94.114  98.210  73.354  1.00  0.00     0.220 C 
ATOM      4  O   UNL     1      95.149  98.116  72.701  1.00  0.00    -0.275 OA
ATOM      5  N   UNL     1      93.750  97.374  74.399  1.00  0.00    -0.352 N 
ATOM      6  H   UNL     1      92.864  97.522  74.875  1.00  0.00     0.163 HD
BRANCH   5   7
ATOM      7  C   UNL     1      94.572  96.272  74.844  1.00  0.00     0.151 C 
BRANCH   7   8
ATOM      8  C   UNL     1      93.834  95.365  75.784  1.00  0.00    -0.025 A 
ATOM      9  C   UNL     1      94.547  94.572  76.676  1.00  0.00     0.056 A 
ATOM     10  C   UNL     1      92.446  95.325  75.752  1.00  0.00     0.009 A 
ATOM     11  C   UNL     1      93.860  93.729  77.550  1.00  0.00     0.160 A 
ATOM     12  C   UNL     1      91.759  94.481  76.626  1.00  0.00     0.050 A 
ATOM     13  C   UNL     1      92.466  93.682  77.524  1.00  0.00     0.157 A 
BRANCH  11  14
ATOM     14  O   UNL     1      94.562  92.953  78.423  1.00  0.00    -0.493 OA
ATOM     15  C   UNL     1      95.199  93.618  79.512  1.00  0.00     0.278 C 
ENDBRANCH  11  14
BRANCH  13  16
ATOM     16  O   UNL     1      91.785  92.863  78.373  1.00  0.00    -0.504 OA
ATOM     17  H   UNL     1      91.011  93.340  78.720  1.00  0.00     0.293 HD
ENDBRANCH  13  16
ENDBRANCH   7   8
ENDBRANCH   5   7
ENDBRANCH   2   3
ENDBRANCH   1   2
BRANCH   1  18
ATOM     18  C   UNL     1      92.352  99.367  70.640  1.00  0.00     0.001 C 
BRANCH  18  19
ATOM     19  C   UNL     1      90.868  99.219  70.991  1.00  0.00     0.000 C 
BRANCH  19  20
ATOM     20  C   UNL     1      90.021 100.419  70.560  1.00  0.00     0.000 C 
BRANCH  20  21
ATOM     21  C   UNL     1      89.716 100.442  69.058  1.00  0.00     0.000 C 
BRANCH  21  22
ATOM     22  C   UNL     1      88.812  99.290  68.605  1.00  0.00     0.003 C 
BRANCH  22  23
ATOM     23  C   UNL     1      88.727  99.142  67.073  1.00  0.00    -0.017 C 
ATOM     24  C   UNL     1      90.051  99.572  66.437  1.00  0.00     0.007 C 
ATOM     25  C   UNL     1      87.579  99.953  66.470  1.00  0.00     0.007 C 
ENDBRANCH  22  23
ENDBRANCH  21  22
ENDBRANCH  20  21
ENDBRANCH  19  20
ENDBRANCH  18  19
ENDBRANCH   1  18
TORSDOF 12
ENDMDL
MODEL 3
REMARK VINA RESULT:    -6.145     13.757     17.217
REMARK INTER + INTRA:         -10.993
REMARK INTER:                  -9.641
REMARK INTRA:                  -1.352
REMARK UNBOUND:                -0.717
REMARK SMILES COc1cc(CNC(=O)CCCCCCCC(C)C)ccc1O
REMARK SMILES IDX 11 1 10 2 8 3 9 4 7 5 6 7 5 8 4 9 20 10 3 11 21 12 22 13
REMARK SMILES IDX 2 14 1 15 23 16 12 18 13 19 14 20 15 21 16 22 17 23 18 24
REMARK SMILES IDX 19 25
REMARK H PARENT 7 6 23 17
REMARK Flexibility Score: inf
ROOT
ATOM      1  C   UNL     1      95.438  98.719  73.838  1.00  0.00     0.010 C 
ENDROOT
BRANCH   1   2
ATOM      2  C   UNL     1      96.353  99.163  74.977  1.00  0.00     0.100 C 
BRANCH   2   3
ATOM      3  C   UNL     1      97.258  98.043  75.463  1.00  0.00     0.220 C 
ATOM      4  O   UNL     1      98.261  97.677  74.858  1.00  0.00    -0.275 OA
ATOM      5  N   UNL     1      96.800  97.499  76.654  1.00  0.00    -0.352 N 
ATOM      6  H   UNL     1      95.950  97.861  77.078  1.00  0.00     0.163 HD
BRANCH   5   7
ATOM      7  C   UNL     1      97.473  96.413  77.328  1.00  0.00     0.151 C 
BRANCH   7   8
ATOM      8  C   UNL     1      96.947  96.202  78.718  1.00  0.00    -0.025 A 
ATOM      9  C   UNL     1      96.279  95.024  79.030  1.00  0.00     0.056 A 
ATOM     10  C   UNL     1      97.132  97.189  79.679  1.00  0.00     0.009 A 
ATOM     11  C   UNL     1      95.790  94.829  80.321  1.00  0.00     0.160 A 
ATOM     12  C   UNL     1      96.641  96.994  80.971  1.00  0.00     0.050 A 
ATOM     13  C   UNL     1      95.971  95.814  81.292  1.00  0.00     0.157 A 
BRANCH  11  14
ATOM     14  O   UNL     1      95.136  93.672  80.623  1.00  0.00    -0.493 OA
ATOM     15  C   UNL     1      95.584  92.485  79.969  1.00  0.00     0.278 C 
ENDBRANCH  11  14
BRANCH  13  16
ATOM     16  O   UNL     1      95.498  95.635  82.557  1.00  0.00    -0.504 OA
ATOM     17  H   UNL     1      95.329  94.688  82.700  1.00  0.00     0.293 HD
ENDBRANCH  13  16
ENDBRANCH   7   8
ENDBRANCH   5   7
ENDBRANCH   2   3
ENDBRANCH   1   2
BRANCH   1  18
ATOM     18  C   UNL     1      94.972  97.266  73.961  1.00  0.00     0.001 C 
BRANCH  18  19
ATOM     19  C   UNL     1      93.569  97.066  74.544  1.00  0.00     0.000 C 
BRANCH  19  20
ATOM     20  C   UNL     1      93.547  96.139  75.763  1.00  0.00     0.000 C 
BRANCH  20  21
ATOM     21  C   UNL     1      94.132  94.750  75.484  1.00  0.00     0.000 C 
BRANCH  21  22
ATOM     22  C   UNL     1      93.181  93.607  75.853  1.00  0.00     0.003 C 
BRANCH  22  23
ATOM     23  C   UNL     1      92.128  93.999  76.908  1.00  0.00    -0.017 C 
ATOM     24  C   UNL     1      92.457  93.324  78.242  1.00  0.00     0.007 C 
ATOM     25  C   UNL     1      90.706  93.631  76.483  1.00  0.00     0.007 C 
ENDBRANCH  22  23
ENDBRANCH  21  22
ENDBRANCH  20  21
ENDBRANCH  19  20
ENDBRANCH  18  19
ENDBRANCH   1  18
TORSDOF 12
ENDMDL
MODEL 4
REMARK VINA RESULT:    -5.766     16.652     19.954
REMARK INTER + INTRA:         -10.358
REMARK INTER:                  -8.549
REMARK INTRA:                  -1.809
REMARK UNBOUND:                -0.717
REMARK SMILES COc1cc(CNC(=O)CCCCCCCC(C)C)ccc1O
REMARK SMILES IDX 11 1 10 2 8 3 9 4 7 5 6 7 5 8 4 9 20 10 3 11 21 12 22 13
REMARK SMILES IDX 2 14 1 15 23 16 12 18 13 19 14 20 15 21 16 22 17 23 18 24
REMARK SMILES IDX 19 25
REMARK H PARENT 7 6 23 17
REMARK Flexibility Score: inf
ROOT
ATOM      1  C   UNL     1      82.246  66.458  76.449  1.00  0.00     0.010 C 
ENDROOT
BRANCH   1   2
ATOM      2  C   UNL     1      83.235  65.306  76.275  1.00  0.00     0.100 C 
BRANCH   2   3
ATOM      3  C   UNL     1      84.437  65.698  75.432  1.00  0.00     0.220 C 
ATOM      4  O   UNL     1      85.058  64.903  74.733  1.00  0.00    -0.275 OA
ATOM      5  N   UNL     1      84.735  67.047  75.565  1.00  0.00    -0.352 N 
ATOM      6  H   UNL     1      84.169  67.628  76.178  1.00  0.00     0.163 HD
BRANCH   5   7
ATOM      7  C   UNL     1      85.837  67.677  74.877  1.00  0.00     0.151 C 
BRANCH   7   8
ATOM      8  C   UNL     1      85.367  68.603  73.793  1.00  0.00    -0.025 A 
ATOM      9  C   UNL     1      85.413  69.977  73.995  1.00  0.00     0.056 A 
ATOM     10  C   UNL     1      84.890  68.076  72.599  1.00  0.00     0.009 A 
ATOM     11  C   UNL     1      84.976  70.837  72.987  1.00  0.00     0.160 A 
ATOM     12  C   UNL     1      84.452  68.937  71.592  1.00  0.00     0.050 A 
ATOM     13  C   UNL     1      84.495  70.317  71.785  1.00  0.00     0.157 A 
BRANCH  11  14
ATOM     14  O   UNL     1      85.022  72.184  73.189  1.00  0.00    -0.493 OA
ATOM     15  C   UNL     1      85.949  72.662  74.162  1.00  0.00     0.278 C 
ENDBRANCH  11  14
BRANCH  13  16
ATOM     16  O   UNL     1      84.065  71.147  70.794  1.00  0.00    -0.504 OA
ATOM     17  H   UNL     1      84.655  71.919  70.751  1.00  0.00     0.293 HD
ENDBRANCH  13  16
ENDBRANCH   7   8
ENDBRANCH   5   7
ENDBRANCH   2   3
ENDBRANCH   1   2
BRANCH   1  18
ATOM     18  C   UNL     1      80.838  65.999  76.837  1.00  0.00     0.001 C 
BRANCH  18  19
ATOM     19  C   UNL     1      79.822  65.933  75.691  1.00  0.00     0.000 C 
BRANCH  19  20
ATOM     20  C   UNL     1      79.859  64.607  74.926  1.00  0.00     0.000 C 
BRANCH  20  21
ATOM     21  C   UNL     1      80.283  64.760  73.461  1.00  0.00     0.000 C 
BRANCH  21  22
ATOM     22  C   UNL     1      80.820  66.156  73.128  1.00  0.00     0.003 C 
BRANCH  22  23
ATOM     23  C   UNL     1      81.702  66.190  71.865  1.00  0.00    -0.017 C 
ATOM     24  C   UNL     1      80.841  65.935  70.626  1.00  0.00     0.007 C 
ATOM     25  C   UNL     1      82.841  65.171  71.918  1.00  0.00     0.007 C 
ENDBRANCH  22  23
ENDBRANCH  21  22
ENDBRANCH  20  21
ENDBRANCH  19  20
ENDBRANCH  18  19
ENDBRANCH   1  18
TORSDOF 12
ENDMDL
MODEL 5
REMARK VINA RESULT:    -5.742     22.387     24.028
REMARK INTER + INTRA:         -10.318
REMARK INTER:                  -9.423
REMARK INTRA:                  -0.895
REMARK UNBOUND:                -0.717
REMARK SMILES COc1cc(CNC(=O)CCCCCCCC(C)C)ccc1O
REMARK SMILES IDX 11 1 10 2 8 3 9 4 7 5 6 7 5 8 4 9 20 10 3 11 21 12 22 13
REMARK SMILES IDX 2 14 1 15 23 16 12 18 13 19 14 20 15 21 16 22 17 23 18 24
REMARK SMILES IDX 19 25
REMARK H PARENT 7 6 23 17
REMARK Flexibility Score: inf
ROOT
ATOM      1  C   UNL     1      74.559  89.890  69.273  1.00  0.00     0.010 C 
ENDROOT
BRANCH   1   2
ATOM      2  C   UNL     1      74.035  91.320  69.386  1.00  0.00     0.100 C 
BRANCH   2   3
ATOM      3  C   UNL     1      73.494  91.630  70.772  1.00  0.00     0.220 C 
ATOM      4  O   UNL     1      72.607  90.975  71.311  1.00  0.00    -0.275 OA
ATOM      5  N   UNL     1      74.119  92.736  71.327  1.00  0.00    -0.352 N 
ATOM      6  H   UNL     1      74.838  93.224  70.800  1.00  0.00     0.163 HD
BRANCH   5   7
ATOM      7  C   UNL     1      73.786  93.250  72.636  1.00  0.00     0.151 C 
BRANCH   7   8
ATOM      8  C   UNL     1      75.009  93.509  73.466  1.00  0.00    -0.025 A 
ATOM      9  C   UNL     1      76.180  93.934  72.850  1.00  0.00     0.056 A 
ATOM     10  C   UNL     1      74.958  93.322  74.842  1.00  0.00     0.009 A 
ATOM     11  C   UNL     1      77.317  94.175  73.622  1.00  0.00     0.160 A 
ATOM     12  C   UNL     1      76.096  93.562  75.613  1.00  0.00     0.050 A 
ATOM     13  C   UNL     1      77.275  93.989  75.004  1.00  0.00     0.157 A 
BRANCH  11  14
ATOM     14  O   UNL     1      78.464  94.592  73.015  1.00  0.00    -0.493 OA
ATOM     15  C   UNL     1      78.524  95.960  72.614  1.00  0.00     0.278 C 
ENDBRANCH  11  14
BRANCH  13  16
ATOM     16  O   UNL     1      78.378  94.221  75.768  1.00  0.00    -0.504 OA
ATOM     17  H   UNL     1      79.097  94.542  75.196  1.00  0.00     0.293 HD
ENDBRANCH  13  16
ENDBRANCH   7   8
ENDBRANCH   5   7
ENDBRANCH   2   3
ENDBRANCH   1   2
BRANCH   1  18
ATOM     18  C   UNL     1      75.962  89.800  68.665  1.00  0.00     0.001 C 
BRANCH  18  19
ATOM     19  C   UNL     1      76.077  88.972  67.381  1.00  0.00     0.000 C 
BRANCH  19  20
ATOM     20  C   UNL     1      77.428  88.267  67.235  1.00  0.00     0.000 C 
BRANCH  20  21
ATOM     21  C   UNL     1      77.324  86.738  67.246  1.00  0.00     0.000 C 
BRANCH  21  22
ATOM     22  C   UNL     1      76.744  86.180  68.550  1.00  0.00     0.003 C 
BRANCH  22  23
ATOM     23  C   UNL     1      75.383  85.480  68.367  1.00  0.00    -0.017 C 
ATOM     24  C   UNL     1      74.729  85.255  69.732  1.00  0.00     0.007 C 
ATOM     25  C   UNL     1      75.506  84.145  67.631  1.00  0.00     0.007 C 
ENDBRANCH  22  23
ENDBRANCH  21  22
ENDBRANCH  20  21
ENDBRANCH  19  20
ENDBRANCH  18  19
ENDBRANCH   1  18
TORSDOF 12
ENDMDL
MODEL 6
REMARK VINA RESULT:    -5.628      1.279      2.120
REMARK INTER + INTRA:         -10.129
REMARK INTER:                  -9.449
REMARK INTRA:                  -0.680
REMARK UNBOUND:                -0.717
REMARK SMILES COc1cc(CNC(=O)CCCCCCCC(C)C)ccc1O
REMARK SMILES IDX 11 1 10 2 8 3 9 4 7 5 6 7 5 8 4 9 20 10 3 11 21 12 22 13
REMARK SMILES IDX 2 14 1 15 23 16 12 18 13 19 14 20 15 21 16 22 17 23 18 24
REMARK SMILES IDX 19 25
REMARK H PARENT 7 6 23 17
REMARK Flexibility Score: inf
ROOT
ATOM      1  C   UNL     1      95.897  80.669  83.699  1.00  0.00     0.010 C 
ENDROOT
BRANCH   1   2
ATOM      2  C   UNL     1      95.115  81.971  83.856  1.00  0.00     0.100 C 
BRANCH   2   3
ATOM      3  C   UNL     1      94.122  81.915  85.006  1.00  0.00     0.220 C 
ATOM      4  O   UNL     1      94.453  82.000  86.185  1.00  0.00    -0.275 OA
ATOM      5  N   UNL     1      92.823  81.751  84.550  1.00  0.00    -0.352 N 
ATOM      6  H   UNL     1      92.646  81.680  83.552  1.00  0.00     0.163 HD
BRANCH   5   7
ATOM      7  C   UNL     1      91.687  81.660  85.438  1.00  0.00     0.151 C 
BRANCH   7   8
ATOM      8  C   UNL     1      90.711  80.608  84.995  1.00  0.00    -0.025 A 
ATOM      9  C   UNL     1      89.396  80.963  84.721  1.00  0.00     0.056 A 
ATOM     10  C   UNL     1      91.134  79.291  84.864  1.00  0.00     0.009 A 
ATOM     11  C   UNL     1      88.490  79.986  84.309  1.00  0.00     0.160 A 
ATOM     12  C   UNL     1      90.227  78.314  84.453  1.00  0.00     0.050 A 
ATOM     13  C   UNL     1      88.905  78.661  84.176  1.00  0.00     0.157 A 
BRANCH  11  14
ATOM     14  O   UNL     1      87.201  80.337  84.042  1.00  0.00    -0.493 OA
ATOM     15  C   UNL     1      86.897  81.731  84.035  1.00  0.00     0.278 C 
ENDBRANCH  11  14
BRANCH  13  16
ATOM     16  O   UNL     1      88.029  77.698  83.774  1.00  0.00    -0.504 OA
ATOM     17  H   UNL     1      88.503  76.852  83.695  1.00  0.00     0.293 HD
ENDBRANCH  13  16
ENDBRANCH   7   8
ENDBRANCH   5   7
ENDBRANCH   2   3
ENDBRANCH   1   2
BRANCH   1  18
ATOM     18  C   UNL     1      96.369  80.409  82.266  1.00  0.00     0.001 C 
BRANCH  18  19
ATOM     19  C   UNL     1      96.803  81.647  81.475  1.00  0.00     0.000 C 
BRANCH  19  20
ATOM     20  C   UNL     1      97.136  81.344  80.011  1.00  0.00     0.000 C 
BRANCH  20  21
ATOM     21  C   UNL     1      98.636  81.172  79.750  1.00  0.00     0.000 C 
BRANCH  21  22
ATOM     22  C   UNL     1      98.945  80.524  78.396  1.00  0.00     0.003 C 
BRANCH  22  23
ATOM     23  C   UNL     1      99.834  79.270  78.504  1.00  0.00    -0.017 C 
ATOM     24  C   UNL     1      99.619  78.600  79.863  1.00  0.00     0.007 C 
ATOM     25  C   UNL     1     101.318  79.585  78.314  1.00  0.00     0.007 C 
ENDBRANCH  22  23
ENDBRANCH  21  22
ENDBRANCH  20  21
ENDBRANCH  19  20
ENDBRANCH  18  19
ENDBRANCH   1  18
TORSDOF 12
ENDMDL
MODEL 7
REMARK VINA RESULT:    -5.618     14.474     17.530
REMARK INTER + INTRA:         -10.111
REMARK INTER:                  -8.943
REMARK INTRA:                  -1.168
REMARK UNBOUND:                -0.717
REMARK SMILES COc1cc(CNC(=O)CCCCCCCC(C)C)ccc1O
REMARK SMILES IDX 11 1 10 2 8 3 9 4 7 5 6 7 5 8 4 9 20 10 3 11 21 12 22 13
REMARK SMILES IDX 2 14 1 15 23 16 12 18 13 19 14 20 15 21 16 22 17 23 18 24
REMARK SMILES IDX 19 25
REMARK H PARENT 7 6 23 17
REMARK Flexibility Score: inf
ROOT
ATOM      1  C   UNL     1      95.447  98.560  73.956  1.00  0.00     0.010 C 
ENDROOT
BRANCH   1   2
ATOM      2  C   UNL     1      96.467  98.884  75.046  1.00  0.00     0.100 C 
BRANCH   2   3
ATOM      3  C   UNL     1      97.210  97.650  75.530  1.00  0.00     0.220 C 
ATOM      4  O   UNL     1      98.207  97.202  74.971  1.00  0.00    -0.275 OA
ATOM      5  N   UNL     1      96.615  97.106  76.658  1.00  0.00    -0.352 N 
ATOM      6  H   UNL     1      95.782  97.541  77.045  1.00  0.00     0.163 HD
BRANCH   5   7
ATOM      7  C   UNL     1      97.118  95.922  77.316  1.00  0.00     0.151 C 
BRANCH   7   8
ATOM      8  C   UNL     1      96.822  95.929  78.787  1.00  0.00    -0.025 A 
ATOM      9  C   UNL     1      97.213  97.013  79.563  1.00  0.00     0.056 A 
ATOM     10  C   UNL     1      96.159  94.849  79.359  1.00  0.00     0.009 A 
ATOM     11  C   UNL     1      96.938  97.019  80.930  1.00  0.00     0.160 A 
ATOM     12  C   UNL     1      95.885  94.855  80.727  1.00  0.00     0.050 A 
ATOM     13  C   UNL     1      96.274  95.939  81.513  1.00  0.00     0.157 A 
BRANCH  11  14
ATOM     14  O   UNL     1      97.324  98.084  81.688  1.00  0.00    -0.493 OA
ATOM     15  C   UNL     1      96.386  99.149  81.834  1.00  0.00     0.278 C 
ENDBRANCH  11  14
BRANCH  13  16
ATOM     16  O   UNL     1      95.999  95.934  82.847  1.00  0.00    -0.504 OA
ATOM     17  H   UNL     1      95.057  95.727  82.975  1.00  0.00     0.293 HD
ENDBRANCH  13  16
ENDBRANCH   7   8
ENDBRANCH   5   7
ENDBRANCH   2   3
ENDBRANCH   1   2
BRANCH   1  18
ATOM     18  C   UNL     1      94.896  97.134  74.042  1.00  0.00     0.001 C 
BRANCH  18  19
ATOM     19  C   UNL     1      93.467  97.006  74.581  1.00  0.00     0.000 C 
BRANCH  19  20
ATOM     20  C   UNL     1      93.342  96.005  75.733  1.00  0.00     0.000 C 
BRANCH  20  21
ATOM     21  C   UNL     1      93.840  94.600  75.377  1.00  0.00     0.000 C 
BRANCH  21  22
ATOM     22  C   UNL     1      92.968  93.482  75.957  1.00  0.00     0.003 C 
BRANCH  22  23
ATOM     23  C   UNL     1      92.258  93.875  77.268  1.00  0.00    -0.017 C 
ATOM     24  C   UNL     1      92.965  93.217  78.456  1.00  0.00     0.007 C 
ATOM     25  C   UNL     1      90.779  93.490  77.272  1.00  0.00     0.007 C 
ENDBRANCH  22  23
ENDBRANCH  21  22
ENDBRANCH  20  21
ENDBRANCH  19  20
ENDBRANCH  18  19
ENDBRANCH   1  18
TORSDOF 12
ENDMDL
MODEL 8
REMARK VINA RESULT:    -5.588      1.636      2.197
REMARK INTER + INTRA:         -10.061
REMARK INTER:                  -9.342
REMARK INTRA:                  -0.719
REMARK UNBOUND:                -0.717
REMARK SMILES COc1cc(CNC(=O)CCCCCCCC(C)C)ccc1O
REMARK SMILES IDX 11 1 10 2 8 3 9 4 7 5 6 7 5 8 4 9 20 10 3 11 21 12 22 13
REMARK SMILES IDX 2 14 1 15 23 16 12 18 13 19 14 20 15 21 16 22 17 23 18 24
REMARK SMILES IDX 19 25
REMARK H PARENT 7 6 23 17
REMARK Flexibility Score: inf
ROOT
ATOM      1  C   UNL     1      96.103  80.967  84.130  1.00  0.00     0.010 C 
ENDROOT
BRANCH   1   2
ATOM      2  C   UNL     1      94.874  81.841  83.889  1.00  0.00     0.100 C 
BRANCH   2   3
ATOM      3  C   UNL     1      94.306  82.412  85.178  1.00  0.00     0.220 C 
ATOM      4  O   UNL     1      95.005  82.882  86.071  1.00  0.00    -0.275 OA
ATOM      5  N   UNL     1      92.923  82.322  85.209  1.00  0.00    -0.352 N 
ATOM      6  H   UNL     1      92.429  81.905  84.425  1.00  0.00     0.163 HD
BRANCH   5   7
ATOM      7  C   UNL     1      92.133  82.784  86.327  1.00  0.00     0.151 C 
BRANCH   7   8
ATOM      8  C   UNL     1      90.943  81.904  86.576  1.00  0.00    -0.025 A 
ATOM      9  C   UNL     1      90.522  81.021  85.589  1.00  0.00     0.056 A 
ATOM     10  C   UNL     1      90.273  81.982  87.791  1.00  0.00     0.009 A 
ATOM     11  C   UNL     1      89.416  80.204  85.820  1.00  0.00     0.160 A 
ATOM     12  C   UNL     1      89.166  81.165  88.022  1.00  0.00     0.050 A 
ATOM     13  C   UNL     1      88.737  80.275  87.037  1.00  0.00     0.157 A 
BRANCH  11  14
ATOM     14  O   UNL     1      89.006  79.339  84.850  1.00  0.00    -0.493 OA
ATOM     15  C   UNL     1      89.846  79.207  83.704  1.00  0.00     0.278 C 
ENDBRANCH  11  14
BRANCH  13  16
ATOM     16  O   UNL     1      87.656  79.482  87.275  1.00  0.00    -0.504 OA
ATOM     17  H   UNL     1      87.701  79.151  88.188  1.00  0.00     0.293 HD
ENDBRANCH  13  16
ENDBRANCH   7   8
ENDBRANCH   5   7
ENDBRANCH   2   3
ENDBRANCH   1   2
BRANCH   1  18
ATOM     18  C   UNL     1      96.479  80.098  82.927  1.00  0.00     0.001 C 
BRANCH  18  19
ATOM     19  C   UNL     1      96.595  80.833  81.588  1.00  0.00     0.000 C 
BRANCH  19  20
ATOM     20  C   UNL     1      97.289  80.005  80.502  1.00  0.00     0.000 C 
BRANCH  20  21
ATOM     21  C   UNL     1      98.334  80.796  79.707  1.00  0.00     0.000 C 
BRANCH  21  22
ATOM     22  C   UNL     1      97.767  82.058  79.048  1.00  0.00     0.003 C 
BRANCH  22  23
ATOM     23  C   UNL     1      97.030  81.781  77.723  1.00  0.00    -0.017 C 
ATOM     24  C   UNL     1      97.956  82.083  76.543  1.00  0.00     0.007 C 
ATOM     25  C   UNL     1      95.742  82.594  77.588  1.00  0.00     0.007 C 
ENDBRANCH  22  23
ENDBRANCH  21  22
ENDBRANCH  20  21
ENDBRANCH  19  20
ENDBRANCH  18  19
ENDBRANCH   1  18
TORSDOF 12
ENDMDL
MODEL 9
REMARK VINA RESULT:    -5.481     30.136     34.252
REMARK INTER + INTRA:          -9.882
REMARK INTER:                  -7.598
REMARK INTRA:                  -2.284
REMARK UNBOUND:                -0.717
REMARK SMILES COc1cc(CNC(=O)CCCCCCCC(C)C)ccc1O
REMARK SMILES IDX 11 1 10 2 8 3 9 4 7 5 6 7 5 8 4 9 20 10 3 11 21 12 22 13
REMARK SMILES IDX 2 14 1 15 23 16 12 18 13 19 14 20 15 21 16 22 17 23 18 24
REMARK SMILES IDX 19 25
REMARK H PARENT 7 6 23 17
REMARK Flexibility Score: inf
ROOT
ATOM      1  C   UNL     1      59.843  84.648  73.312  1.00  0.00     0.010 C 
ENDROOT
BRANCH   1   2
ATOM      2  C   UNL     1      60.924  84.611  74.391  1.00  0.00     0.100 C 
BRANCH   2   3
ATOM      3  C   UNL     1      62.145  83.815  73.959  1.00  0.00     0.220 C 
ATOM      4  O   UNL     1      63.296  84.156  74.215  1.00  0.00    -0.275 OA
ATOM      5  N   UNL     1      61.787  82.681  73.244  1.00  0.00    -0.352 N 
ATOM      6  H   UNL     1      60.805  82.486  73.071  1.00  0.00     0.163 HD
BRANCH   5   7
ATOM      7  C   UNL     1      62.758  81.754  72.710  1.00  0.00     0.151 C 
BRANCH   7   8
ATOM      8  C   UNL     1      63.095  82.056  71.279  1.00  0.00    -0.025 A 
ATOM      9  C   UNL     1      64.250  82.770  70.981  1.00  0.00     0.056 A 
ATOM     10  C   UNL     1      62.248  81.621  70.267  1.00  0.00     0.009 A 
ATOM     11  C   UNL     1      64.563  83.051  69.651  1.00  0.00     0.160 A 
ATOM     12  C   UNL     1      62.561  81.903  68.937  1.00  0.00     0.050 A 
ATOM     13  C   UNL     1      63.718  82.618  68.628  1.00  0.00     0.157 A 
BRANCH  11  14
ATOM     14  O   UNL     1      65.695  83.751  69.362  1.00  0.00    -0.493 OA
ATOM     15  C   UNL     1      66.504  84.159  70.465  1.00  0.00     0.278 C 
ENDBRANCH  11  14
BRANCH  13  16
ATOM     16  O   UNL     1      64.013  82.886  67.326  1.00  0.00    -0.504 OA
ATOM     17  H   UNL     1      63.231  82.698  66.779  1.00  0.00     0.293 HD
ENDBRANCH  13  16
ENDBRANCH   7   8
ENDBRANCH   5   7
ENDBRANCH   2   3
ENDBRANCH   1   2
BRANCH   1  18
ATOM     18  C   UNL     1      59.130  85.999  73.210  1.00  0.00     0.001 C 
BRANCH  18  19
ATOM     19  C   UNL     1      57.714  85.960  72.625  1.00  0.00     0.000 C 
BRANCH  19  20
ATOM     20  C   UNL     1      57.512  84.836  71.605  1.00  0.00     0.000 C 
BRANCH  20  21
ATOM     21  C   UNL     1      57.885  85.237  70.174  1.00  0.00     0.000 C 
BRANCH  21  22
ATOM     22  C   UNL     1      59.197  84.610  69.691  1.00  0.00     0.003 C 
BRANCH  22  23
ATOM     23  C   UNL     1      60.303  85.644  69.404  1.00  0.00    -0.017 C 
ATOM     24  C   UNL     1      61.543  85.322  70.242  1.00  0.00     0.007 C 
ATOM     25  C   UNL     1      59.852  87.078  69.684  1.00  0.00     0.007 C 
ENDBRANCH  22  23
ENDBRANCH  21  22
ENDBRANCH  20  21
ENDBRANCH  19  20
ENDBRANCH  18  19
ENDBRANCH   1  18
TORSDOF 12
ENDMDL
MODEL 10
REMARK VINA RESULT:    -5.407     23.072     25.851
REMARK INTER + INTRA:          -9.758
REMARK INTER:                  -8.338
REMARK INTRA:                  -1.421
REMARK UNBOUND:                -0.717
REMARK SMILES COc1cc(CNC(=O)CCCCCCCC(C)C)ccc1O
REMARK SMILES IDX 11 1 10 2 8 3 9 4 7 5 6 7 5 8 4 9 20 10 3 11 21 12 22 13
REMARK SMILES IDX 2 14 1 15 23 16 12 18 13 19 14 20 15 21 16 22 17 23 18 24
REMARK SMILES IDX 19 25
REMARK H PARENT 7 6 23 17
REMARK Flexibility Score: inf
ROOT
ATOM      1  C   UNL     1      73.868  88.762  67.894  1.00  0.00     0.010 C 
ENDROOT
BRANCH   1   2
ATOM      2  C   UNL     1      73.763  89.000  69.399  1.00  0.00     0.100 C 
BRANCH   2   3
ATOM      3  C   UNL     1      72.381  89.477  69.814  1.00  0.00     0.220 C 
ATOM      4  O   UNL     1      72.191  90.288  70.716  1.00  0.00    -0.275 OA
ATOM      5  N   UNL     1      71.386  88.877  69.057  1.00  0.00    -0.352 N 
ATOM      6  H   UNL     1      71.639  88.206  68.336  1.00  0.00     0.163 HD
BRANCH   5   7
ATOM      7  C   UNL     1      69.981  89.149  69.253  1.00  0.00     0.151 C 
BRANCH   7   8
ATOM      8  C   UNL     1      69.266  87.987  69.879  1.00  0.00    -0.025 A 
ATOM      9  C   UNL     1      69.622  86.690  69.528  1.00  0.00     0.056 A 
ATOM     10  C   UNL     1      68.256  88.220  70.804  1.00  0.00     0.009 A 
ATOM     11  C   UNL     1      68.958  85.611  70.110  1.00  0.00     0.160 A 
ATOM     12  C   UNL     1      67.591  87.139  71.386  1.00  0.00     0.050 A 
ATOM     13  C   UNL     1      67.942  85.835  71.039  1.00  0.00     0.157 A 
BRANCH  11  14
ATOM     14  O   UNL     1      69.310  84.341  69.762  1.00  0.00    -0.493 OA
ATOM     15  C   UNL     1      68.962  83.909  68.448  1.00  0.00     0.278 C 
ENDBRANCH  11  14
BRANCH  13  16
ATOM     16  O   UNL     1      67.286  84.789  71.614  1.00  0.00    -0.504 OA
ATOM     17  H   UNL     1      66.337  84.862  71.415  1.00  0.00     0.293 HD
ENDBRANCH  13  16
ENDBRANCH   7   8
ENDBRANCH   5   7
ENDBRANCH   2   3
ENDBRANCH   1   2
BRANCH   1  18
ATOM     18  C   UNL     1      75.166  89.295  67.281  1.00  0.00     0.001 C 
BRANCH  18  19
ATOM     19  C   UNL     1      76.430  89.092  68.122  1.00  0.00     0.000 C 
BRANCH  19  20
ATOM     20  C   UNL     1      77.459  88.173  67.457  1.00  0.00     0.000 C 
BRANCH  20  21
ATOM     21  C   UNL     1      76.976  86.726  67.306  1.00  0.00     0.000 C 
BRANCH  21  22
ATOM     22  C   UNL     1      77.137  85.896  68.584  1.00  0.00     0.003 C 
BRANCH  22  23
ATOM     23  C   UNL     1      76.015  84.859  68.788  1.00  0.00    -0.017 C 
ATOM     24  C   UNL     1      75.594  84.279  67.436  1.00  0.00     0.007 C 
ATOM     25  C   UNL     1      74.794  85.449  69.497  1.00  0.00     0.007 C 
ENDBRANCH  22  23
ENDBRANCH  21  22
ENDBRANCH  20  21
ENDBRANCH  19  20
ENDBRANCH  18  19
ENDBRANCH   1  18
TORSDOF 12
ENDMDL
