MODEL 1
REMARK VINA RESULT:    -5.626      0.000      0.000
REMARK INTER + INTRA:          -9.324
REMARK INTER:                  -8.750
REMARK INTRA:                  -0.574
REMARK UNBOUND:                -0.574
REMARK SMILES COc1cc(CNC(=O)CCCCCC(C)C)ccc1O
REMARK SMILES IDX 10 1 8 2 7 3 9 5 6 6 5 7 3 8 20 9 4 10 19 11 18 12 2 13 1 14
REMARK SMILES IDX 21 15 11 17 12 18 13 19 14 20 15 21 16 22 17 23
REMARK H PARENT 7 4 21 16
REMARK Flexibility Score: inf
ROOT
ATOM      1  C   UNL     1      97.116  81.379  81.149  1.00  0.00     0.100 C 
ENDROOT
BRANCH   1   2
ATOM      2  C   UNL     1      96.741  80.744  82.430  1.00  0.00     0.220 C 
ATOM      3  N   UNL     1      96.125  81.488  83.391  1.00  0.00    -0.352 N 
ATOM      4  H   UNL     1      96.088  82.480  83.202  1.00  0.00     0.163 HD
ATOM      5  O   UNL     1      96.959  79.518  82.589  1.00  0.00    -0.275 OA
BRANCH   3   6
ATOM      6  C   UNL     1      95.557  80.970  84.594  1.00  0.00     0.151 C 
BRANCH   6   7
ATOM      7  C   UNL     1      94.071  80.906  84.558  1.00  0.00    -0.025 A 
ATOM      8  C   UNL     1      91.987  79.614  84.748  1.00  0.00     0.160 A 
ATOM      9  C   UNL     1      91.240  80.796  84.557  1.00  0.00     0.157 A 
ATOM     10  C   UNL     1      93.397  79.673  84.729  1.00  0.00     0.056 A 
ATOM     11  C   UNL     1      91.900  82.023  84.360  1.00  0.00     0.050 A 
ATOM     12  C   UNL     1      93.304  82.079  84.366  1.00  0.00     0.009 A 
BRANCH   8  13
ATOM     13  O   UNL     1      91.364  78.407  84.921  1.00  0.00    -0.493 OA
ATOM     14  C   UNL     1      91.436  77.544  83.770  1.00  0.00     0.278 C 
ENDBRANCH   8  13
BRANCH   9  15
ATOM     15  O   UNL     1      89.884  80.750  84.571  1.00  0.00    -0.504 OA
ATOM     16  H   UNL     1      89.586  79.968  84.100  1.00  0.00     0.293 HD
ENDBRANCH   9  15
ENDBRANCH   6   7
ENDBRANCH   3   6
ENDBRANCH   1   2
BRANCH   1  17
ATOM     17  C   UNL     1      96.835  82.904  81.087  1.00  0.00     0.010 C 
BRANCH  17  18
ATOM     18  C   UNL     1      97.366  83.531  79.768  1.00  0.00     0.001 C 
BRANCH  18  19
ATOM     19  C   UNL     1      97.202  82.603  78.535  1.00  0.00     0.000 C 
BRANCH  19  20
ATOM     20  C   UNL     1      98.342  82.801  77.494  1.00  0.00     0.003 C 
BRANCH  20  21
ATOM     21  C   UNL     1      98.023  83.820  76.352  1.00  0.00    -0.017 C 
ATOM     22  C   UNL     1      96.587  84.402  76.511  1.00  0.00     0.007 C 
ATOM     23  C   UNL     1      98.197  83.210  74.931  1.00  0.00     0.007 C 
ENDBRANCH  20  21
ENDBRANCH  19  20
ENDBRANCH  18  19
ENDBRANCH  17  18
ENDBRANCH   1  17
TORSDOF 10
ENDMDL
MODEL 2
REMARK VINA RESULT:    -5.545      1.802      2.226
REMARK INTER + INTRA:          -9.198
REMARK INTER:                  -8.616
REMARK INTRA:                  -0.581
REMARK UNBOUND:                -0.574
REMARK SMILES COc1cc(CNC(=O)CCCCCC(C)C)ccc1O
REMARK SMILES IDX 10 1 8 2 7 3 9 5 6 6 5 7 3 8 20 9 4 10 19 11 18 12 2 13 1 14
REMARK SMILES IDX 21 15 11 17 12 18 13 19 14 20 15 21 16 22 17 23
REMARK H PARENT 7 4 21 16
REMARK Flexibility Score: inf
ROOT
ATOM      1  C   UNL     1      97.126  82.154  81.133  1.00  0.00     0.100 C 
ENDROOT
BRANCH   1   2
ATOM      2  C   UNL     1      96.991  82.364  82.589  1.00  0.00     0.220 C 
ATOM      3  N   UNL     1      96.032  83.214  83.057  1.00  0.00    -0.352 N 
ATOM      4  H   UNL     1      95.557  83.751  82.346  1.00  0.00     0.163 HD
ATOM      5  O   UNL     1      97.736  81.723  83.369  1.00  0.00    -0.275 OA
BRANCH   3   6
ATOM      6  C   UNL     1      95.679  83.378  84.430  1.00  0.00     0.151 C 
BRANCH   6   7
ATOM      7  C   UNL     1      94.634  82.420  84.883  1.00  0.00    -0.025 A 
ATOM      8  C   UNL     1      93.888  80.644  86.412  1.00  0.00     0.160 A 
ATOM      9  C   UNL     1      92.622  80.643  85.789  1.00  0.00     0.157 A 
ATOM     10  C   UNL     1      94.892  81.518  85.943  1.00  0.00     0.056 A 
ATOM     11  C   UNL     1      92.364  81.517  84.716  1.00  0.00     0.050 A 
ATOM     12  C   UNL     1      93.360  82.402  84.270  1.00  0.00     0.009 A 
BRANCH   8  13
ATOM     13  O   UNL     1      94.166  79.788  87.445  1.00  0.00    -0.493 OA
ATOM     14  C   UNL     1      95.477  79.194  87.372  1.00  0.00     0.278 C 
ENDBRANCH   8  13
BRANCH   9  15
ATOM     15  O   UNL     1      91.651  79.805  86.230  1.00  0.00    -0.504 OA
ATOM     16  H   UNL     1      90.798  80.241  86.167  1.00  0.00     0.293 HD
ENDBRANCH   9  15
ENDBRANCH   6   7
ENDBRANCH   3   6
ENDBRANCH   1   2
BRANCH   1  17
ATOM     17  C   UNL     1      97.014  83.451  80.287  1.00  0.00     0.010 C 
BRANCH  17  18
ATOM     18  C   UNL     1      97.775  83.322  78.938  1.00  0.00     0.001 C 
BRANCH  18  19
ATOM     19  C   UNL     1      96.839  83.308  77.701  1.00  0.00     0.000 C 
BRANCH  19  20
ATOM     20  C   UNL     1      97.613  83.026  76.381  1.00  0.00     0.003 C 
BRANCH  20  21
ATOM     21  C   UNL     1      97.672  84.227  75.381  1.00  0.00    -0.017 C 
ATOM     22  C   UNL     1      96.503  85.222  75.639  1.00  0.00     0.007 C 
ATOM     23  C   UNL     1      97.671  83.774  73.892  1.00  0.00     0.007 C 
ENDBRANCH  20  21
ENDBRANCH  19  20
ENDBRANCH  18  19
ENDBRANCH  17  18
ENDBRANCH   1  17
TORSDOF 10
ENDMDL
MODEL 3
REMARK VINA RESULT:    -5.494      1.577      2.830
REMARK INTER + INTRA:          -9.119
REMARK INTER:                  -8.352
REMARK INTRA:                  -0.767
REMARK UNBOUND:                -0.574
REMARK SMILES COc1cc(CNC(=O)CCCCCC(C)C)ccc1O
REMARK SMILES IDX 10 1 8 2 7 3 9 5 6 6 5 7 3 8 20 9 4 10 19 11 18 12 2 13 1 14
REMARK SMILES IDX 21 15 11 17 12 18 13 19 14 20 15 21 16 22 17 23
REMARK H PARENT 7 4 21 16
REMARK Flexibility Score: inf
ROOT
ATOM      1  C   UNL     1      97.115  80.419  81.742  1.00  0.00     0.100 C 
ENDROOT
BRANCH   1   2
ATOM      2  C   UNL     1      96.404  80.135  83.006  1.00  0.00     0.220 C 
ATOM      3  N   UNL     1      95.903  78.887  83.227  1.00  0.00    -0.352 N 
ATOM      4  H   UNL     1      95.942  78.267  82.431  1.00  0.00     0.163 HD
ATOM      5  O   UNL     1      96.315  81.040  83.871  1.00  0.00    -0.275 OA
BRANCH   3   6
ATOM      6  C   UNL     1      95.352  78.429  84.462  1.00  0.00     0.151 C 
BRANCH   6   7
ATOM      7  C   UNL     1      93.868  78.515  84.508  1.00  0.00    -0.025 A 
ATOM      8  C   UNL     1      91.818  79.804  84.937  1.00  0.00     0.160 A 
ATOM      9  C   UNL     1      91.041  78.699  84.530  1.00  0.00     0.157 A 
ATOM     10  C   UNL     1      93.226  79.699  84.941  1.00  0.00     0.056 A 
ATOM     11  C   UNL     1      91.668  77.508  84.123  1.00  0.00     0.050 A 
ATOM     12  C   UNL     1      93.070  77.417  84.106  1.00  0.00     0.009 A 
BRANCH   8  13
ATOM     13  O   UNL     1      91.227  80.967  85.356  1.00  0.00    -0.493 OA
ATOM     14  C   UNL     1      91.074  81.951  84.315  1.00  0.00     0.278 C 
ENDBRANCH   8  13
BRANCH   9  15
ATOM     15  O   UNL     1      89.687  78.789  84.525  1.00  0.00    -0.504 OA
ATOM     16  H   UNL     1      89.322  78.170  85.161  1.00  0.00     0.293 HD
ENDBRANCH   9  15
ENDBRANCH   6   7
ENDBRANCH   3   6
ENDBRANCH   1   2
BRANCH   1  17
ATOM     17  C   UNL     1      97.377  79.167  80.862  1.00  0.00     0.010 C 
BRANCH  17  18
ATOM     18  C   UNL     1      97.945  79.555  79.469  1.00  0.00     0.001 C 
BRANCH  18  19
ATOM     19  C   UNL     1      98.422  81.030  79.387  1.00  0.00     0.000 C 
BRANCH  19  20
ATOM     20  C   UNL     1      97.774  81.792  78.195  1.00  0.00     0.003 C 
BRANCH  20  21
ATOM     21  C   UNL     1      97.463  83.300  78.467  1.00  0.00    -0.017 C 
ATOM     22  C   UNL     1      97.012  83.517  79.942  1.00  0.00     0.007 C 
ATOM     23  C   UNL     1      96.399  83.883  77.493  1.00  0.00     0.007 C 
ENDBRANCH  20  21
ENDBRANCH  19  20
ENDBRANCH  18  19
ENDBRANCH  17  18
ENDBRANCH   1  17
TORSDOF 10
ENDMDL
MODEL 4
REMARK VINA RESULT:    -5.444     22.797     24.561
REMARK INTER + INTRA:          -9.041
REMARK INTER:                  -8.428
REMARK INTRA:                  -0.614
REMARK UNBOUND:                -0.574
REMARK SMILES COc1cc(CNC(=O)CCCCCC(C)C)ccc1O
REMARK SMILES IDX 10 1 8 2 7 3 9 5 6 6 5 7 3 8 20 9 4 10 19 11 18 12 2 13 1 14
REMARK SMILES IDX 21 15 11 17 12 18 13 19 14 20 15 21 16 22 17 23
REMARK H PARENT 7 4 21 16
REMARK Flexibility Score: inf
ROOT
ATOM      1  C   UNL     1      74.512  90.945  70.789  1.00  0.00     0.100 C 
ENDROOT
BRANCH   1   2
ATOM      2  C   UNL     1      74.242  92.261  71.405  1.00  0.00     0.220 C 
ATOM      3  N   UNL     1      74.194  92.367  72.763  1.00  0.00    -0.352 N 
ATOM      4  H   UNL     1      74.218  91.488  73.259  1.00  0.00     0.163 HD
ATOM      5  O   UNL     1      74.105  93.264  70.663  1.00  0.00    -0.275 OA
BRANCH   3   6
ATOM      6  C   UNL     1      74.116  93.595  73.489  1.00  0.00     0.151 C 
BRANCH   6   7
ATOM      7  C   UNL     1      75.354  93.900  74.255  1.00  0.00    -0.025 A 
ATOM      8  C   UNL     1      76.494  94.287  76.399  1.00  0.00     0.160 A 
ATOM      9  C   UNL     1      77.724  94.416  75.719  1.00  0.00     0.157 A 
ATOM     10  C   UNL     1      75.315  94.049  75.661  1.00  0.00     0.056 A 
ATOM     11  C   UNL     1      77.770  94.296  74.318  1.00  0.00     0.050 A 
ATOM     12  C   UNL     1      76.596  94.035  73.592  1.00  0.00     0.009 A 
BRANCH   8  13
ATOM     13  O   UNL     1      76.424  94.420  77.761  1.00  0.00    -0.493 OA
ATOM     14  C   UNL     1      75.085  94.605  78.260  1.00  0.00     0.278 C 
ENDBRANCH   8  13
BRANCH   9  15
ATOM     15  O   UNL     1      78.863  94.647  76.419  1.00  0.00    -0.504 OA
ATOM     16  H   UNL     1      78.730  95.391  77.010  1.00  0.00     0.293 HD
ENDBRANCH   9  15
ENDBRANCH   6   7
ENDBRANCH   3   6
ENDBRANCH   1   2
BRANCH   1  17
ATOM     17  C   UNL     1      73.332  89.941  70.888  1.00  0.00     0.010 C 
BRANCH  17  18
ATOM     18  C   UNL     1      73.196  89.090  69.595  1.00  0.00     0.001 C 
BRANCH  18  19
ATOM     19  C   UNL     1      74.338  88.056  69.414  1.00  0.00     0.000 C 
BRANCH  19  20
ATOM     20  C   UNL     1      75.309  88.446  68.262  1.00  0.00     0.003 C 
BRANCH  20  21
ATOM     21  C   UNL     1      76.823  88.203  68.564  1.00  0.00    -0.017 C 
ATOM     22  C   UNL     1      77.722  89.022  67.591  1.00  0.00     0.007 C 
ATOM     23  C   UNL     1      77.216  86.698  68.513  1.00  0.00     0.007 C 
ENDBRANCH  20  21
ENDBRANCH  19  20
ENDBRANCH  18  19
ENDBRANCH  17  18
ENDBRANCH   1  17
TORSDOF 10
ENDMDL
MODEL 5
REMARK VINA RESULT:    -5.397      4.006     10.067
REMARK INTER + INTRA:          -8.968
REMARK INTER:                  -8.421
REMARK INTRA:                  -0.548
REMARK UNBOUND:                -0.574
REMARK SMILES COc1cc(CNC(=O)CCCCCC(C)C)ccc1O
REMARK SMILES IDX 10 1 8 2 7 3 9 5 6 6 5 7 3 8 20 9 4 10 19 11 18 12 2 13 1 14
REMARK SMILES IDX 21 15 11 17 12 18 13 19 14 20 15 21 16 22 17 23
REMARK H PARENT 7 4 21 16
REMARK Flexibility Score: inf
ROOT
ATOM      1  C   UNL     1      97.085  81.978  80.475  1.00  0.00     0.100 C 
ENDROOT
BRANCH   1   2
ATOM      2  C   UNL     1      97.361  82.994  79.438  1.00  0.00     0.220 C 
ATOM      3  N   UNL     1      96.726  82.912  78.235  1.00  0.00    -0.352 N 
ATOM      4  H   UNL     1      96.197  82.064  78.090  1.00  0.00     0.163 HD
ATOM      5  O   UNL     1      98.145  83.938  79.704  1.00  0.00    -0.275 OA
BRANCH   3   6
ATOM      6  C   UNL     1      96.765  83.911  77.216  1.00  0.00     0.151 C 
BRANCH   6   7
ATOM      7  C   UNL     1      97.693  83.574  76.102  1.00  0.00    -0.025 A 
ATOM      8  C   UNL     1      98.794  84.177  73.988  1.00  0.00     0.160 A 
ATOM      9  C   UNL     1      99.511  82.962  74.017  1.00  0.00     0.157 A 
ATOM     10  C   UNL     1      97.876  84.467  75.020  1.00  0.00     0.056 A 
ATOM     11  C   UNL     1      99.317  82.055  75.075  1.00  0.00     0.050 A 
ATOM     12  C   UNL     1      98.420  82.361  76.113  1.00  0.00     0.009 A 
BRANCH   8  13
ATOM     13  O   UNL     1      98.953  85.065  72.956  1.00  0.00    -0.493 OA
ATOM     14  C   UNL     1      99.877  86.132  73.244  1.00  0.00     0.278 C 
ENDBRANCH   8  13
BRANCH   9  15
ATOM     15  O   UNL     1     100.394  82.673  73.029  1.00  0.00    -0.504 OA
ATOM     16  H   UNL     1     101.160  83.247  73.105  1.00  0.00     0.293 HD
ENDBRANCH   9  15
ENDBRANCH   6   7
ENDBRANCH   3   6
ENDBRANCH   1   2
BRANCH   1  17
ATOM     17  C   UNL     1      97.503  82.400  81.909  1.00  0.00     0.010 C 
BRANCH  17  18
ATOM     18  C   UNL     1      96.268  82.589  82.833  1.00  0.00     0.001 C 
BRANCH  18  19
ATOM     19  C   UNL     1      95.674  81.253  83.350  1.00  0.00     0.000 C 
BRANCH  19  20
ATOM     20  C   UNL     1      94.748  81.459  84.584  1.00  0.00     0.003 C 
BRANCH  20  21
ATOM     21  C   UNL     1      93.392  82.174  84.280  1.00  0.00    -0.017 C 
ATOM     22  C   UNL     1      93.213  83.432  85.180  1.00  0.00     0.007 C 
ATOM     23  C   UNL     1      92.164  81.230  84.431  1.00  0.00     0.007 C 
ENDBRANCH  20  21
ENDBRANCH  19  20
ENDBRANCH  18  19
ENDBRANCH  17  18
ENDBRANCH   1  17
TORSDOF 10
ENDMDL
MODEL 6
REMARK VINA RESULT:    -5.366     24.451     26.260
REMARK INTER + INTRA:          -8.919
REMARK INTER:                  -7.454
REMARK INTRA:                  -1.465
REMARK UNBOUND:                -0.574
REMARK SMILES COc1cc(CNC(=O)CCCCCC(C)C)ccc1O
REMARK SMILES IDX 10 1 8 2 7 3 9 5 6 6 5 7 3 8 20 9 4 10 19 11 18 12 2 13 1 14
REMARK SMILES IDX 21 15 11 17 12 18 13 19 14 20 15 21 16 22 17 23
REMARK H PARENT 7 4 21 16
REMARK Flexibility Score: inf
ROOT
ATOM      1  C   UNL     1      74.784  89.897  67.674  1.00  0.00     0.100 C 
ENDROOT
BRANCH   1   2
ATOM      2  C   UNL     1      73.584  89.036  67.695  1.00  0.00     0.220 C 
ATOM      3  N   UNL     1      73.719  87.706  67.961  1.00  0.00    -0.352 N 
ATOM      4  H   UNL     1      74.672  87.374  67.996  1.00  0.00     0.163 HD
ATOM      5  O   UNL     1      72.457  89.557  67.510  1.00  0.00    -0.275 OA
BRANCH   3   6
ATOM      6  C   UNL     1      72.639  86.798  68.183  1.00  0.00     0.151 C 
BRANCH   6   7
ATOM      7  C   UNL     1      72.643  85.645  67.243  1.00  0.00    -0.025 A 
ATOM      8  C   UNL     1      73.848  84.153  65.703  1.00  0.00     0.160 A 
ATOM      9  C   UNL     1      72.667  83.407  65.506  1.00  0.00     0.157 A 
ATOM     10  C   UNL     1      73.824  85.278  66.556  1.00  0.00     0.056 A 
ATOM     11  C   UNL     1      71.480  83.779  66.164  1.00  0.00     0.050 A 
ATOM     12  C   UNL     1      71.469  84.885  67.030  1.00  0.00     0.009 A 
BRANCH   8  13
ATOM     13  O   UNL     1      75.009  83.819  65.057  1.00  0.00    -0.493 OA
ATOM     14  C   UNL     1      75.340  84.698  63.964  1.00  0.00     0.278 C 
ENDBRANCH   8  13
BRANCH   9  15
ATOM     15  O   UNL     1      72.678  82.326  64.687  1.00  0.00    -0.504 OA
ATOM     16  H   UNL     1      72.658  81.524  65.214  1.00  0.00     0.293 HD
ENDBRANCH   9  15
ENDBRANCH   6   7
ENDBRANCH   3   6
ENDBRANCH   1   2
BRANCH   1  17
ATOM     17  C   UNL     1      75.996  89.323  68.456  1.00  0.00     0.010 C 
BRANCH  17  18
ATOM     18  C   UNL     1      77.109  88.818  67.496  1.00  0.00     0.001 C 
BRANCH  18  19
ATOM     19  C   UNL     1      77.440  87.313  67.676  1.00  0.00     0.000 C 
BRANCH  19  20
ATOM     20  C   UNL     1      76.846  86.732  68.992  1.00  0.00     0.003 C 
BRANCH  20  21
ATOM     21  C   UNL     1      76.921  85.176  69.120  1.00  0.00    -0.017 C 
ATOM     22  C   UNL     1      77.232  84.519  67.743  1.00  0.00     0.007 C 
ATOM     23  C   UNL     1      75.628  84.556  69.727  1.00  0.00     0.007 C 
ENDBRANCH  20  21
ENDBRANCH  19  20
ENDBRANCH  18  19
ENDBRANCH  17  18
ENDBRANCH   1  17
TORSDOF 10
ENDMDL
MODEL 7
REMARK VINA RESULT:    -5.291      2.430      3.717
REMARK INTER + INTRA:          -8.803
REMARK INTER:                  -7.987
REMARK INTRA:                  -0.816
REMARK UNBOUND:                -0.574
REMARK SMILES COc1cc(CNC(=O)CCCCCC(C)C)ccc1O
REMARK SMILES IDX 10 1 8 2 7 3 9 5 6 6 5 7 3 8 20 9 4 10 19 11 18 12 2 13 1 14
REMARK SMILES IDX 21 15 11 17 12 18 13 19 14 20 15 21 16 22 17 23
REMARK H PARENT 7 4 21 16
REMARK Flexibility Score: inf
ROOT
ATOM      1  C   UNL     1      97.600  80.682  80.701  1.00  0.00     0.100 C 
ENDROOT
BRANCH   1   2
ATOM      2  C   UNL     1      96.992  80.138  81.932  1.00  0.00     0.220 C 
ATOM      3  N   UNL     1      96.901  80.927  83.040  1.00  0.00    -0.352 N 
ATOM      4  H   UNL     1      97.387  81.809  82.974  1.00  0.00     0.163 HD
ATOM      5  O   UNL     1      96.533  78.969  81.920  1.00  0.00    -0.275 OA
BRANCH   3   6
ATOM      6  C   UNL     1      96.189  80.592  84.231  1.00  0.00     0.151 C 
BRANCH   6   7
ATOM      7  C   UNL     1      95.232  81.649  84.657  1.00  0.00    -0.025 A 
ATOM      8  C   UNL     1      94.733  84.012  85.122  1.00  0.00     0.160 A 
ATOM      9  C   UNL     1      93.393  83.671  85.402  1.00  0.00     0.157 A 
ATOM     10  C   UNL     1      95.648  82.997  84.770  1.00  0.00     0.056 A 
ATOM     11  C   UNL     1      92.974  82.331  85.318  1.00  0.00     0.050 A 
ATOM     12  C   UNL     1      93.885  81.328  84.943  1.00  0.00     0.009 A 
BRANCH   8  13
ATOM     13  O   UNL     1      95.166  85.308  85.217  1.00  0.00    -0.493 OA
ATOM     14  C   UNL     1      95.754  85.816  84.004  1.00  0.00     0.278 C 
ENDBRANCH   8  13
BRANCH   9  15
ATOM     15  O   UNL     1      92.506  84.639  85.744  1.00  0.00    -0.504 OA
ATOM     16  H   UNL     1      92.069  84.967  84.954  1.00  0.00     0.293 HD
ENDBRANCH   9  15
ENDBRANCH   6   7
ENDBRANCH   3   6
ENDBRANCH   1   2
BRANCH   1  17
ATOM     17  C   UNL     1      97.849  79.626  79.590  1.00  0.00     0.010 C 
BRANCH  17  18
ATOM     18  C   UNL     1      98.260  80.292  78.248  1.00  0.00     0.001 C 
BRANCH  18  19
ATOM     19  C   UNL     1      98.716  81.767  78.407  1.00  0.00     0.000 C 
BRANCH  19  20
ATOM     20  C   UNL     1      98.289  82.648  77.197  1.00  0.00     0.003 C 
BRANCH  20  21
ATOM     21  C   UNL     1      96.853  83.257  77.298  1.00  0.00    -0.017 C 
ATOM     22  C   UNL     1      96.707  84.494  76.364  1.00  0.00     0.007 C 
ATOM     23  C   UNL     1      96.460  83.639  78.755  1.00  0.00     0.007 C 
ENDBRANCH  20  21
ENDBRANCH  19  20
ENDBRANCH  18  19
ENDBRANCH  17  18
ENDBRANCH   1  17
TORSDOF 10
ENDMDL
MODEL 8
REMARK VINA RESULT:    -5.243     33.036     34.805
REMARK INTER + INTRA:          -8.728
REMARK INTER:                  -7.000
REMARK INTRA:                  -1.728
REMARK UNBOUND:                -0.574
REMARK SMILES COc1cc(CNC(=O)CCCCCC(C)C)ccc1O
REMARK SMILES IDX 10 1 8 2 7 3 9 5 6 6 5 7 3 8 20 9 4 10 19 11 18 12 2 13 1 14
REMARK SMILES IDX 21 15 11 17 12 18 13 19 14 20 15 21 16 22 17 23
REMARK H PARENT 7 4 21 16
REMARK Flexibility Score: inf
ROOT
ATOM      1  C   UNL     1      62.925  65.207  77.552  1.00  0.00     0.100 C 
ENDROOT
BRANCH   1   2
ATOM      2  C   UNL     1      62.348  65.293  78.910  1.00  0.00     0.220 C 
ATOM      3  N   UNL     1      62.309  66.497  79.546  1.00  0.00    -0.352 N 
ATOM      4  H   UNL     1      62.811  67.240  79.080  1.00  0.00     0.163 HD
ATOM      5  O   UNL     1      61.865  64.259  79.432  1.00  0.00    -0.275 OA
BRANCH   3   6
ATOM      6  C   UNL     1      61.630  66.756  80.775  1.00  0.00     0.151 C 
BRANCH   6   7
ATOM      7  C   UNL     1      62.147  67.956  81.487  1.00  0.00    -0.025 A 
ATOM      8  C   UNL     1      62.957  69.029  83.546  1.00  0.00     0.160 A 
ATOM      9  C   UNL     1      63.195  70.220  82.828  1.00  0.00     0.157 A 
ATOM     10  C   UNL     1      62.417  67.911  82.875  1.00  0.00     0.056 A 
ATOM     11  C   UNL     1      62.906  70.284  81.453  1.00  0.00     0.050 A 
ATOM     12  C   UNL     1      62.391  69.160  80.786  1.00  0.00     0.009 A 
BRANCH   8  13
ATOM     13  O   UNL     1      63.213  68.952  84.890  1.00  0.00    -0.493 OA
ATOM     14  C   UNL     1      64.473  68.331  85.207  1.00  0.00     0.278 C 
ENDBRANCH   8  13
BRANCH   9  15
ATOM     15  O   UNL     1      63.712  71.302  83.464  1.00  0.00    -0.504 OA
ATOM     16  H   UNL     1      64.638  71.144  83.663  1.00  0.00     0.293 HD
ENDBRANCH   9  15
ENDBRANCH   6   7
ENDBRANCH   3   6
ENDBRANCH   1   2
BRANCH   1  17
ATOM     17  C   UNL     1      64.477  65.162  77.520  1.00  0.00     0.010 C 
BRANCH  17  18
ATOM     18  C   UNL     1      65.018  63.767  77.938  1.00  0.00     0.001 C 
BRANCH  18  19
ATOM     19  C   UNL     1      65.774  63.780  79.293  1.00  0.00     0.000 C 
BRANCH  19  20
ATOM     20  C   UNL     1      66.522  65.122  79.537  1.00  0.00     0.003 C 
BRANCH  20  21
ATOM     21  C   UNL     1      66.087  65.897  80.823  1.00  0.00    -0.017 C 
ATOM     22  C   UNL     1      64.955  65.135  81.574  1.00  0.00     0.007 C 
ATOM     23  C   UNL     1      65.641  67.358  80.527  1.00  0.00     0.007 C 
ENDBRANCH  20  21
ENDBRANCH  19  20
ENDBRANCH  18  19
ENDBRANCH  17  18
ENDBRANCH   1  17
TORSDOF 10
ENDMDL
MODEL 9
REMARK VINA RESULT:    -5.214     24.614     26.333
REMARK INTER + INTRA:          -8.684
REMARK INTER:                  -7.538
REMARK INTRA:                  -1.146
REMARK UNBOUND:                -0.574
REMARK SMILES COc1cc(CNC(=O)CCCCCC(C)C)ccc1O
REMARK SMILES IDX 10 1 8 2 7 3 9 5 6 6 5 7 3 8 20 9 4 10 19 11 18 12 2 13 1 14
REMARK SMILES IDX 21 15 11 17 12 18 13 19 14 20 15 21 16 22 17 23
REMARK H PARENT 7 4 21 16
REMARK Flexibility Score: inf
ROOT
ATOM      1  C   UNL     1      75.722  89.781  68.470  1.00  0.00     0.100 C 
ENDROOT
BRANCH   1   2
ATOM      2  C   UNL     1      74.247  89.830  68.388  1.00  0.00     0.220 C 
ATOM      3  N   UNL     1      73.579  88.827  67.752  1.00  0.00    -0.352 N 
ATOM      4  H   UNL     1      74.166  88.171  67.257  1.00  0.00     0.163 HD
ATOM      5  O   UNL     1      73.637  90.776  68.944  1.00  0.00    -0.275 OA
BRANCH   3   6
ATOM      6  C   UNL     1      72.161  88.658  67.748  1.00  0.00     0.151 C 
BRANCH   6   7
ATOM      7  C   UNL     1      71.733  87.301  68.183  1.00  0.00    -0.025 A 
ATOM      8  C   UNL     1      70.001  85.790  69.058  1.00  0.00     0.160 A 
ATOM      9  C   UNL     1      70.896  84.704  68.948  1.00  0.00     0.157 A 
ATOM     10  C   UNL     1      70.431  87.084  68.693  1.00  0.00     0.056 A 
ATOM     11  C   UNL     1      72.202  84.914  68.466  1.00  0.00     0.050 A 
ATOM     12  C   UNL     1      72.615  86.200  68.082  1.00  0.00     0.009 A 
BRANCH   8  13
ATOM     13  O   UNL     1      68.732  85.611  69.543  1.00  0.00    -0.493 OA
ATOM     14  C   UNL     1      68.565  86.040  70.908  1.00  0.00     0.278 C 
ENDBRANCH   8  13
BRANCH   9  15
ATOM     15  O   UNL     1      70.494  83.457  69.298  1.00  0.00    -0.504 OA
ATOM     16  H   UNL     1      71.195  82.829  69.107  1.00  0.00     0.293 HD
ENDBRANCH   9  15
ENDBRANCH   6   7
ENDBRANCH   3   6
ENDBRANCH   1   2
BRANCH   1  17
ATOM     17  C   UNL     1      76.427  89.480  67.121  1.00  0.00     0.010 C 
BRANCH  17  18
ATOM     18  C   UNL     1      76.673  87.958  66.930  1.00  0.00     0.001 C 
BRANCH  18  19
ATOM     19  C   UNL     1      77.270  87.268  68.184  1.00  0.00     0.000 C 
BRANCH  19  20
ATOM     20  C   UNL     1      76.216  86.411  68.943  1.00  0.00     0.003 C 
BRANCH  20  21
ATOM     21  C   UNL     1      76.522  84.879  68.991  1.00  0.00    -0.017 C 
ATOM     22  C   UNL     1      76.151  84.195  67.642  1.00  0.00     0.007 C 
ATOM     23  C   UNL     1      75.807  84.156  70.170  1.00  0.00     0.007 C 
ENDBRANCH  20  21
ENDBRANCH  19  20
ENDBRANCH  18  19
ENDBRANCH  17  18
ENDBRANCH   1  17
TORSDOF 10
ENDMDL
MODEL 10
REMARK VINA RESULT:    -5.163     24.175     26.006
REMARK INTER + INTRA:          -8.605
REMARK INTER:                  -7.563
REMARK INTRA:                  -1.041
REMARK UNBOUND:                -0.574
REMARK SMILES COc1cc(CNC(=O)CCCCCC(C)C)ccc1O
REMARK SMILES IDX 10 1 8 2 7 3 9 5 6 6 5 7 3 8 20 9 4 10 19 11 18 12 2 13 1 14
REMARK SMILES IDX 21 15 11 17 12 18 13 19 14 20 15 21 16 22 17 23
REMARK H PARENT 7 4 21 16
REMARK Flexibility Score: inf
ROOT
ATOM      1  C   UNL     1      76.821  89.118  68.484  1.00  0.00     0.100 C 
ENDROOT
BRANCH   1   2
ATOM      2  C   UNL     1      76.836  87.642  68.420  1.00  0.00     0.220 C 
ATOM      3  N   UNL     1      75.990  86.928  69.214  1.00  0.00    -0.352 N 
ATOM      4  H   UNL     1      75.492  87.473  69.903  1.00  0.00     0.163 HD
ATOM      5  O   UNL     1      77.602  87.076  67.601  1.00  0.00    -0.275 OA
BRANCH   3   6
ATOM      6  C   UNL     1      75.778  85.518  69.131  1.00  0.00     0.151 C 
BRANCH   6   7
ATOM      7  C   UNL     1      74.896  85.126  67.999  1.00  0.00    -0.025 A 
ATOM      8  C   UNL     1      74.570  83.985  65.845  1.00  0.00     0.160 A 
ATOM      9  C   UNL     1      73.200  84.321  65.877  1.00  0.00     0.157 A 
ATOM     10  C   UNL     1      75.413  84.405  66.897  1.00  0.00     0.056 A 
ATOM     11  C   UNL     1      72.681  85.061  66.955  1.00  0.00     0.050 A 
ATOM     12  C   UNL     1      73.520  85.455  68.011  1.00  0.00     0.009 A 
BRANCH   8  13
ATOM     13  O   UNL     1      75.100  83.282  64.795  1.00  0.00    -0.493 OA
ATOM     14  C   UNL     1      76.526  83.430  64.656  1.00  0.00     0.278 C 
ENDBRANCH   8  13
BRANCH   9  15
ATOM     15  O   UNL     1      72.383  83.924  64.870  1.00  0.00    -0.504 OA
ATOM     16  H   UNL     1      71.564  83.582  65.237  1.00  0.00     0.293 HD
ENDBRANCH   9  15
ENDBRANCH   6   7
ENDBRANCH   3   6
ENDBRANCH   1   2
BRANCH   1  17
ATOM     17  C   UNL     1      75.734  89.784  67.598  1.00  0.00     0.010 C 
BRANCH  17  18
ATOM     18  C   UNL     1      74.555  90.329  68.451  1.00  0.00     0.001 C 
BRANCH  18  19
ATOM     19  C   UNL     1      74.822  90.275  69.978  1.00  0.00     0.000 C 
BRANCH  19  20
ATOM     20  C   UNL     1      73.639  89.633  70.759  1.00  0.00     0.003 C 
BRANCH  20  21
ATOM     21  C   UNL     1      72.217  90.006  70.227  1.00  0.00    -0.017 C 
ATOM     22  C   UNL     1      71.481  90.951  71.223  1.00  0.00     0.007 C 
ATOM     23  C   UNL     1      71.337  88.758  69.927  1.00  0.00     0.007 C 
ENDBRANCH  20  21
ENDBRANCH  19  20
ENDBRANCH  18  19
ENDBRANCH  17  18
ENDBRANCH   1  17
TORSDOF 10
ENDMDL
