MODEL 1
REMARK VINA RESULT:    -6.619      0.000      0.000
REMARK INTER + INTRA:         -11.602
REMARK INTER:                 -10.681
REMARK INTRA:                  -0.921
REMARK UNBOUND:                -0.921
REMARK SMILES COc1cc(CNC(=O)CCCCC/C=C/C(C)C)ccc1O
REMARK SMILES IDX 11 1 10 2 8 3 7 4 9 6 6 7 5 8 3 9 22 10 4 11 21 12 20 13
REMARK SMILES IDX 2 14 1 15 23 16 12 18 13 19 14 20 15 21 16 22 17 23 18 24
REMARK SMILES IDX 19 25
REMARK H PARENT 7 5 23 17
REMARK Flexibility Score: inf
ROOT
ATOM      1  C   UNL     1      94.228  99.332  75.795  1.00  0.00     0.010 C 
ENDROOT
BRANCH   1   2
ATOM      2  C   UNL     1      92.876  99.119  75.066  1.00  0.00     0.100 C 
BRANCH   2   3
ATOM      3  C   UNL     1      92.658 100.030  73.927  1.00  0.00     0.220 C 
ATOM      4  N   UNL     1      91.855  99.646  72.896  1.00  0.00    -0.352 N 
ATOM      5  H   UNL     1      91.513  98.697  72.959  1.00  0.00     0.163 HD
ATOM      6  O   UNL     1      93.193 101.163  73.960  1.00  0.00    -0.275 OA
BRANCH   4   7
ATOM      7  C   UNL     1      91.484 100.461  71.786  1.00  0.00     0.151 C 
BRANCH   7   8
ATOM      8  C   UNL     1      90.520  99.787  70.878  1.00  0.00    -0.025 A 
ATOM      9  C   UNL     1      89.103  99.812  68.868  1.00  0.00     0.160 A 
ATOM     10  C   UNL     1      88.640  98.515  69.180  1.00  0.00     0.157 A 
ATOM     11  C   UNL     1      90.031 100.441  69.723  1.00  0.00     0.056 A 
ATOM     12  C   UNL     1      89.132  97.849  70.317  1.00  0.00     0.050 A 
ATOM     13  C   UNL     1      90.073  98.476  71.155  1.00  0.00     0.009 A 
BRANCH   9  14
ATOM     14  O   UNL     1      88.698 100.434  67.717  1.00  0.00    -0.493 OA
ATOM     15  C   UNL     1      88.640 101.867  67.813  1.00  0.00     0.278 C 
ENDBRANCH   9  14
BRANCH  10  16
ATOM     16  O   UNL     1      87.726  97.886  68.399  1.00  0.00    -0.504 OA
ATOM     17  H   UNL     1      87.106  97.408  68.955  1.00  0.00     0.293 HD
ENDBRANCH  10  16
ENDBRANCH   7   8
ENDBRANCH   4   7
ENDBRANCH   2   3
ENDBRANCH   1   2
BRANCH   1  18
ATOM     18  C   UNL     1      94.833  97.982  76.258  1.00  0.00     0.001 C 
BRANCH  18  19
ATOM     19  C   UNL     1      94.182  96.745  75.588  1.00  0.00     0.004 C 
BRANCH  19  20
ATOM     20  C   UNL     1      94.408  95.459  76.432  1.00  0.00     0.027 C 
BRANCH  20  21
ATOM     21  C   UNL     1      93.278  95.108  77.275  1.00  0.00    -0.031 C 
ATOM     22  C   UNL     1      92.036  95.566  77.040  1.00  0.00    -0.028 C 
BRANCH  22  23
ATOM     23  C   UNL     1      90.879  95.227  77.865  1.00  0.00     0.005 C 
ATOM     24  C   UNL     1      89.635  94.977  76.971  1.00  0.00     0.012 C 
ATOM     25  C   UNL     1      91.206  94.011  78.774  1.00  0.00     0.012 C 
ENDBRANCH  22  23
ENDBRANCH  20  21
ENDBRANCH  19  20
ENDBRANCH  18  19
ENDBRANCH   1  18
TORSDOF 11
ENDMDL
MODEL 2
REMARK VINA RESULT:    -6.274     17.147     18.827
REMARK INTER + INTRA:         -11.046
REMARK INTER:                 -10.447
REMARK INTRA:                  -0.600
REMARK UNBOUND:                -0.921
REMARK SMILES COc1cc(CNC(=O)CCCCC/C=C/C(C)C)ccc1O
REMARK SMILES IDX 11 1 10 2 8 3 7 4 9 6 6 7 5 8 3 9 22 10 4 11 21 12 20 13
REMARK SMILES IDX 2 14 1 15 23 16 12 18 13 19 14 20 15 21 16 22 17 23 18 24
REMARK SMILES IDX 19 25
REMARK H PARENT 7 5 23 17
REMARK Flexibility Score: inf
ROOT
ATOM      1  C   UNL     1      97.095  84.046  84.282  1.00  0.00     0.010 C 
ENDROOT
BRANCH   1   2
ATOM      2  C   UNL     1      98.111  82.901  84.532  1.00  0.00     0.100 C 
BRANCH   2   3
ATOM      3  C   UNL     1      98.652  82.299  83.299  1.00  0.00     0.220 C 
ATOM      4  N   UNL     1      99.280  83.083  82.380  1.00  0.00    -0.352 N 
ATOM      5  H   UNL     1      99.264  84.072  82.589  1.00  0.00     0.163 HD
ATOM      6  O   UNL     1      98.552  81.058  83.149  1.00  0.00    -0.275 OA
BRANCH   4   7
ATOM      7  C   UNL     1      99.930  82.618  81.199  1.00  0.00     0.151 C 
BRANCH   7   8
ATOM      8  C   UNL     1      99.187  82.971  79.961  1.00  0.00    -0.025 A 
ATOM      9  C   UNL     1      99.147  83.368  77.534  1.00  0.00     0.160 A 
ATOM     10  C   UNL     1      97.776  83.696  77.612  1.00  0.00     0.157 A 
ATOM     11  C   UNL     1      99.843  83.017  78.708  1.00  0.00     0.056 A 
ATOM     12  C   UNL     1      97.109  83.637  78.849  1.00  0.00     0.050 A 
ATOM     13  C   UNL     1      97.807  83.267  80.014  1.00  0.00     0.009 A 
BRANCH   9  14
ATOM     14  O   UNL     1      99.784  83.337  76.322  1.00  0.00    -0.493 OA
ATOM     15  C   UNL     1     101.056  84.007  76.310  1.00  0.00     0.278 C 
ENDBRANCH   9  14
BRANCH  10  16
ATOM     16  O   UNL     1      97.076  84.067  76.510  1.00  0.00    -0.504 OA
ATOM     17  H   UNL     1      96.465  84.770  76.741  1.00  0.00     0.293 HD
ENDBRANCH  10  16
ENDBRANCH   7   8
ENDBRANCH   4   7
ENDBRANCH   2   3
ENDBRANCH   1   2
BRANCH   1  18
ATOM     18  C   UNL     1      97.233  85.160  85.351  1.00  0.00     0.001 C 
BRANCH  18  19
ATOM     19  C   UNL     1      95.954  85.369  86.201  1.00  0.00     0.004 C 
BRANCH  19  20
ATOM     20  C   UNL     1      96.302  85.647  87.690  1.00  0.00     0.027 C 
BRANCH  20  21
ATOM     21  C   UNL     1      95.458  86.656  88.309  1.00  0.00    -0.031 C 
ATOM     22  C   UNL     1      95.961  87.655  89.054  1.00  0.00    -0.028 C 
BRANCH  22  23
ATOM     23  C   UNL     1      95.140  88.686  89.685  1.00  0.00     0.005 C 
ATOM     24  C   UNL     1      94.332  88.084  90.864  1.00  0.00     0.012 C 
ATOM     25  C   UNL     1      96.027  89.882  90.128  1.00  0.00     0.012 C 
ENDBRANCH  22  23
ENDBRANCH  20  21
ENDBRANCH  19  20
ENDBRANCH  18  19
ENDBRANCH   1  18
TORSDOF 11
ENDMDL
MODEL 3
REMARK VINA RESULT:    -6.042      1.016      1.995
REMARK INTER + INTRA:         -10.671
REMARK INTER:                  -9.770
REMARK INTRA:                  -0.901
REMARK UNBOUND:                -0.921
REMARK SMILES COc1cc(CNC(=O)CCCCC/C=C/C(C)C)ccc1O
REMARK SMILES IDX 11 1 10 2 8 3 7 4 9 6 6 7 5 8 3 9 22 10 4 11 21 12 20 13
REMARK SMILES IDX 2 14 1 15 23 16 12 18 13 19 14 20 15 21 16 22 17 23 18 24
REMARK SMILES IDX 19 25
REMARK H PARENT 7 5 23 17
REMARK Flexibility Score: inf
ROOT
ATOM      1  C   UNL     1      94.322  99.571  75.753  1.00  0.00     0.010 C 
ENDROOT
BRANCH   1   2
ATOM      2  C   UNL     1      93.619  99.317  74.395  1.00  0.00     0.100 C 
BRANCH   2   3
ATOM      3  C   UNL     1      92.670 100.376  74.002  1.00  0.00     0.220 C 
ATOM      4  N   UNL     1      92.091 100.345  72.770  1.00  0.00    -0.352 N 
ATOM      5  H   UNL     1      92.425  99.607  72.166  1.00  0.00     0.163 HD
ATOM      6  O   UNL     1      92.388 101.264  74.842  1.00  0.00    -0.275 OA
BRANCH   4   7
ATOM      7  C   UNL     1      91.090 101.247  72.301  1.00  0.00     0.151 C 
BRANCH   7   8
ATOM      8  C   UNL     1      90.302 100.689  71.171  1.00  0.00    -0.025 A 
ATOM      9  C   UNL     1      89.157  98.799  70.093  1.00  0.00     0.160 A 
ATOM     10  C   UNL     1      88.845  99.619  68.987  1.00  0.00     0.157 A 
ATOM     11  C   UNL     1      89.890  99.336  71.171  1.00  0.00     0.056 A 
ATOM     12  C   UNL     1      89.236 100.971  68.984  1.00  0.00     0.050 A 
ATOM     13  C   UNL     1      89.950 101.505  70.073  1.00  0.00     0.009 A 
BRANCH   9  14
ATOM     14  O   UNL     1      88.706  97.506  70.146  1.00  0.00    -0.493 OA
ATOM     15  C   UNL     1      89.710  96.521  69.846  1.00  0.00     0.278 C 
ENDBRANCH   9  14
BRANCH  10  16
ATOM     16  O   UNL     1      88.167  99.133  67.918  1.00  0.00    -0.504 OA
ATOM     17  H   UNL     1      88.348  98.194  67.824  1.00  0.00     0.293 HD
ENDBRANCH  10  16
ENDBRANCH   7   8
ENDBRANCH   4   7
ENDBRANCH   2   3
ENDBRANCH   1   2
BRANCH   1  18
ATOM     18  C   UNL     1      94.679  98.237  76.456  1.00  0.00     0.001 C 
BRANCH  18  19
ATOM     19  C   UNL     1      95.077  97.104  75.477  1.00  0.00     0.004 C 
BRANCH  19  20
ATOM     20  C   UNL     1      94.259  95.809  75.745  1.00  0.00     0.027 C 
BRANCH  20  21
ATOM     21  C   UNL     1      93.125  96.008  76.632  1.00  0.00    -0.031 C 
ATOM     22  C   UNL     1      92.504  94.984  77.244  1.00  0.00    -0.028 C 
BRANCH  22  23
ATOM     23  C   UNL     1      91.366  95.151  78.145  1.00  0.00     0.005 C 
ATOM     24  C   UNL     1      90.403  96.238  77.600  1.00  0.00     0.012 C 
ATOM     25  C   UNL     1      90.653  93.789  78.367  1.00  0.00     0.012 C 
ENDBRANCH  22  23
ENDBRANCH  20  21
ENDBRANCH  19  20
ENDBRANCH  18  19
ENDBRANCH   1  18
TORSDOF 11
ENDMDL
MODEL 4
REMARK VINA RESULT:    -5.901     18.086     21.285
REMARK INTER + INTRA:         -10.444
REMARK INTER:                  -9.837
REMARK INTRA:                  -0.606
REMARK UNBOUND:                -0.921
REMARK SMILES COc1cc(CNC(=O)CCCCC/C=C/C(C)C)ccc1O
REMARK SMILES IDX 11 1 10 2 8 3 7 4 9 6 6 7 5 8 3 9 22 10 4 11 21 12 20 13
REMARK SMILES IDX 2 14 1 15 23 16 12 18 13 19 14 20 15 21 16 22 17 23 18 24
REMARK SMILES IDX 19 25
REMARK H PARENT 7 5 23 17
REMARK Flexibility Score: inf
ROOT
ATOM      1  C   UNL     1      97.430  81.637  85.371  1.00  0.00     0.010 C 
ENDROOT
BRANCH   1   2
ATOM      2  C   UNL     1      96.396  82.791  85.313  1.00  0.00     0.100 C 
BRANCH   2   3
ATOM      3  C   UNL     1      95.609  82.955  86.550  1.00  0.00     0.220 C 
ATOM      4  N   UNL     1      94.249  82.992  86.488  1.00  0.00    -0.352 N 
ATOM      5  H   UNL     1      93.869  82.976  85.552  1.00  0.00     0.163 HD
ATOM      6  O   UNL     1      96.222  83.015  87.642  1.00  0.00    -0.275 OA
BRANCH   4   7
ATOM      7  C   UNL     1      93.369  83.048  87.610  1.00  0.00     0.151 C 
BRANCH   7   8
ATOM      8  C   UNL     1      92.051  82.420  87.335  1.00  0.00    -0.025 A 
ATOM      9  C   UNL     1      90.659  80.848  86.054  1.00  0.00     0.160 A 
ATOM     10  C   UNL     1      89.521  81.267  86.778  1.00  0.00     0.157 A 
ATOM     11  C   UNL     1      91.911  81.433  86.331  1.00  0.00     0.056 A 
ATOM     12  C   UNL     1      89.651  82.236  87.790  1.00  0.00     0.050 A 
ATOM     13  C   UNL     1      90.909  82.801  88.074  1.00  0.00     0.009 A 
BRANCH   9  14
ATOM     14  O   UNL     1      90.560  79.843  85.129  1.00  0.00    -0.493 OA
ATOM     15  C   UNL     1      91.306  78.661  85.462  1.00  0.00     0.278 C 
ENDBRANCH   9  14
BRANCH  10  16
ATOM     16  O   UNL     1      88.294  80.749  86.523  1.00  0.00    -0.504 OA
ATOM     17  H   UNL     1      87.831  81.316  85.900  1.00  0.00     0.293 HD
ENDBRANCH  10  16
ENDBRANCH   7   8
ENDBRANCH   4   7
ENDBRANCH   2   3
ENDBRANCH   1   2
BRANCH   1  18
ATOM     18  C   UNL     1      97.915  81.249  83.951  1.00  0.00     0.001 C 
BRANCH  18  19
ATOM     19  C   UNL     1      98.860  82.295  83.308  1.00  0.00     0.004 C 
BRANCH  19  20
ATOM     20  C   UNL     1      98.134  83.111  82.201  1.00  0.00     0.027 C 
BRANCH  20  21
ATOM     21  C   UNL     1      98.557  82.773  80.853  1.00  0.00    -0.031 C 
ATOM     22  C   UNL     1      98.144  83.463  79.776  1.00  0.00    -0.028 C 
BRANCH  22  23
ATOM     23  C   UNL     1      98.554  83.152  78.409  1.00  0.00     0.005 C 
ATOM     24  C   UNL     1      98.742  81.621  78.239  1.00  0.00     0.012 C 
ATOM     25  C   UNL     1      97.534  83.737  77.395  1.00  0.00     0.012 C 
ENDBRANCH  22  23
ENDBRANCH  20  21
ENDBRANCH  19  20
ENDBRANCH  18  19
ENDBRANCH   1  18
TORSDOF 11
ENDMDL
MODEL 5
REMARK VINA RESULT:    -5.876     16.823     20.794
REMARK INTER + INTRA:         -10.403
REMARK INTER:                  -9.669
REMARK INTRA:                  -0.735
REMARK UNBOUND:                -0.921
REMARK SMILES COc1cc(CNC(=O)CCCCC/C=C/C(C)C)ccc1O
REMARK SMILES IDX 11 1 10 2 8 3 7 4 9 6 6 7 5 8 3 9 22 10 4 11 21 12 20 13
REMARK SMILES IDX 2 14 1 15 23 16 12 18 13 19 14 20 15 21 16 22 17 23 18 24
REMARK SMILES IDX 19 25
REMARK H PARENT 7 5 23 17
REMARK Flexibility Score: inf
ROOT
ATOM      1  C   UNL     1      97.998  81.838  83.841  1.00  0.00     0.010 C 
ENDROOT
BRANCH   1   2
ATOM      2  C   UNL     1      97.439  83.284  83.823  1.00  0.00     0.100 C 
BRANCH   2   3
ATOM      3  C   UNL     1      96.744  83.674  85.064  1.00  0.00     0.220 C 
ATOM      4  N   UNL     1      96.388  82.722  85.970  1.00  0.00    -0.352 N 
ATOM      5  H   UNL     1      96.572  81.772  85.677  1.00  0.00     0.163 HD
ATOM      6  O   UNL     1      96.532  84.893  85.270  1.00  0.00    -0.275 OA
BRANCH   4   7
ATOM      7  C   UNL     1      95.801  82.970  87.247  1.00  0.00     0.151 C 
BRANCH   7   8
ATOM      8  C   UNL     1      94.319  82.863  87.225  1.00  0.00    -0.025 A 
ATOM      9  C   UNL     1      92.269  81.739  86.461  1.00  0.00     0.160 A 
ATOM     10  C   UNL     1      91.490  82.698  87.145  1.00  0.00     0.157 A 
ATOM     11  C   UNL     1      93.675  81.834  86.499  1.00  0.00     0.056 A 
ATOM     12  C   UNL     1      92.120  83.715  87.885  1.00  0.00     0.050 A 
ATOM     13  C   UNL     1      93.524  83.791  87.933  1.00  0.00     0.009 A 
BRANCH   9  14
ATOM     14  O   UNL     1      91.668  80.694  85.811  1.00  0.00    -0.493 OA
ATOM     15  C   UNL     1      91.929  79.409  86.399  1.00  0.00     0.278 C 
ENDBRANCH   9  14
BRANCH  10  16
ATOM     16  O   UNL     1      90.134  82.659  87.111  1.00  0.00    -0.504 OA
ATOM     17  H   UNL     1      89.787  83.548  87.211  1.00  0.00     0.293 HD
ENDBRANCH  10  16
ENDBRANCH   7   8
ENDBRANCH   4   7
ENDBRANCH   2   3
ENDBRANCH   1   2
BRANCH   1  18
ATOM     18  C   UNL     1      99.312  81.736  83.026  1.00  0.00     0.001 C 
BRANCH  18  19
ATOM     19  C   UNL     1      99.089  81.576  81.501  1.00  0.00     0.004 C 
BRANCH  19  20
ATOM     20  C   UNL     1      99.202  82.940  80.765  1.00  0.00     0.027 C 
BRANCH  20  21
ATOM     21  C   UNL     1      98.264  83.091  79.666  1.00  0.00    -0.031 C 
ATOM     22  C   UNL     1      98.668  83.305  78.401  1.00  0.00    -0.028 C 
BRANCH  22  23
ATOM     23  C   UNL     1      97.751  83.455  77.274  1.00  0.00     0.005 C 
ATOM     24  C   UNL     1      97.440  84.956  77.030  1.00  0.00     0.012 C 
ATOM     25  C   UNL     1      98.333  82.761  76.012  1.00  0.00     0.012 C 
ENDBRANCH  22  23
ENDBRANCH  20  21
ENDBRANCH  19  20
ENDBRANCH  18  19
ENDBRANCH   1  18
TORSDOF 11
ENDMDL
MODEL 6
REMARK VINA RESULT:    -5.834      1.489      2.114
REMARK INTER + INTRA:         -10.335
REMARK INTER:                  -9.675
REMARK INTRA:                  -0.660
REMARK UNBOUND:                -0.921
REMARK SMILES COc1cc(CNC(=O)CCCCC/C=C/C(C)C)ccc1O
REMARK SMILES IDX 11 1 10 2 8 3 7 4 9 6 6 7 5 8 3 9 22 10 4 11 21 12 20 13
REMARK SMILES IDX 2 14 1 15 23 16 12 18 13 19 14 20 15 21 16 22 17 23 18 24
REMARK SMILES IDX 19 25
REMARK H PARENT 7 5 23 17
REMARK Flexibility Score: inf
ROOT
ATOM      1  C   UNL     1      93.064  99.159  75.566  1.00  0.00     0.010 C 
ENDROOT
BRANCH   1   2
ATOM      2  C   UNL     1      93.873  99.882  74.460  1.00  0.00     0.100 C 
BRANCH   2   3
ATOM      3  C   UNL     1      93.058 100.750  73.590  1.00  0.00     0.220 C 
ATOM      4  N   UNL     1      92.389 100.214  72.531  1.00  0.00    -0.352 N 
ATOM      5  H   UNL     1      92.568  99.232  72.374  1.00  0.00     0.163 HD
ATOM      6  O   UNL     1      92.970 101.968  73.877  1.00  0.00    -0.275 OA
BRANCH   4   7
ATOM      7  C   UNL     1      91.494 100.918  71.673  1.00  0.00     0.151 C 
BRANCH   7   8
ATOM      8  C   UNL     1      90.575 100.011  70.937  1.00  0.00    -0.025 A 
ATOM      9  C   UNL     1      88.855  99.649  69.217  1.00  0.00     0.160 A 
ATOM     10  C   UNL     1      88.786  98.285  69.574  1.00  0.00     0.157 A 
ATOM     11  C   UNL     1      89.741 100.503  69.905  1.00  0.00     0.056 A 
ATOM     12  C   UNL     1      89.622  97.782  70.587  1.00  0.00     0.050 A 
ATOM     13  C   UNL     1      90.518  98.636  71.256  1.00  0.00     0.009 A 
BRANCH   9  14
ATOM     14  O   UNL     1      88.109 100.131  68.174  1.00  0.00    -0.493 OA
ATOM     15  C   UNL     1      88.459 101.464  67.767  1.00  0.00     0.278 C 
ENDBRANCH   9  14
BRANCH  10  16
ATOM     16  O   UNL     1      87.926  97.437  68.956  1.00  0.00    -0.504 OA
ATOM     17  H   UNL     1      87.261  97.143  69.583  1.00  0.00     0.293 HD
ENDBRANCH  10  16
ENDBRANCH   7   8
ENDBRANCH   4   7
ENDBRANCH   2   3
ENDBRANCH   1   2
BRANCH   1  18
ATOM     18  C   UNL     1      93.031  97.628  75.326  1.00  0.00     0.001 C 
BRANCH  18  19
ATOM     19  C   UNL     1      94.349  96.909  75.709  1.00  0.00     0.004 C 
BRANCH  19  20
ATOM     20  C   UNL     1      94.088  95.437  76.135  1.00  0.00     0.027 C 
BRANCH  20  21
ATOM     21  C   UNL     1      93.805  95.280  77.552  1.00  0.00    -0.031 C 
ATOM     22  C   UNL     1      94.619  94.595  78.375  1.00  0.00    -0.028 C 
BRANCH  22  23
ATOM     23  C   UNL     1      94.366  94.424  79.804  1.00  0.00     0.005 C 
ATOM     24  C   UNL     1      95.221  93.257  80.365  1.00  0.00     0.012 C 
ATOM     25  C   UNL     1      94.620  95.757  80.558  1.00  0.00     0.012 C 
ENDBRANCH  22  23
ENDBRANCH  20  21
ENDBRANCH  19  20
ENDBRANCH  18  19
ENDBRANCH   1  18
TORSDOF 11
ENDMDL
MODEL 7
REMARK VINA RESULT:    -5.727     29.338     32.291
REMARK INTER + INTRA:         -10.163
REMARK INTER:                  -8.069
REMARK INTRA:                  -2.094
REMARK UNBOUND:                -0.921
REMARK SMILES COc1cc(CNC(=O)CCCCC/C=C/C(C)C)ccc1O
REMARK SMILES IDX 11 1 10 2 8 3 7 4 9 6 6 7 5 8 3 9 22 10 4 11 21 12 20 13
REMARK SMILES IDX 2 14 1 15 23 16 12 18 13 19 14 20 15 21 16 22 17 23 18 24
REMARK SMILES IDX 19 25
REMARK H PARENT 7 5 23 17
REMARK Flexibility Score: inf
ROOT
ATOM      1  C   UNL     1      59.638  85.381  73.183  1.00  0.00     0.010 C 
ENDROOT
BRANCH   1   2
ATOM      2  C   UNL     1      60.574  85.180  74.402  1.00  0.00     0.100 C 
BRANCH   2   3
ATOM      3  C   UNL     1      61.311  83.902  74.388  1.00  0.00     0.220 C 
ATOM      4  N   UNL     1      61.746  83.383  73.207  1.00  0.00    -0.352 N 
ATOM      5  H   UNL     1      61.456  83.899  72.388  1.00  0.00     0.163 HD
ATOM      6  O   UNL     1      61.554  83.343  75.484  1.00  0.00    -0.275 OA
BRANCH   4   7
ATOM      7  C   UNL     1      62.548  82.212  73.061  1.00  0.00     0.151 C 
BRANCH   7   8
ATOM      8  C   UNL     1      63.833  82.483  72.367  1.00  0.00    -0.025 A 
ATOM      9  C   UNL     1      65.653  84.024  71.764  1.00  0.00     0.160 A 
ATOM     10  C   UNL     1      66.259  83.007  70.996  1.00  0.00     0.157 A 
ATOM     11  C   UNL     1      64.442  83.758  72.435  1.00  0.00     0.056 A 
ATOM     12  C   UNL     1      65.672  81.730  70.934  1.00  0.00     0.050 A 
ATOM     13  C   UNL     1      64.474  81.466  71.623  1.00  0.00     0.009 A 
BRANCH   9  14
ATOM     14  O   UNL     1      66.261  85.244  71.902  1.00  0.00    -0.493 OA
ATOM     15  C   UNL     1      67.224  85.303  72.968  1.00  0.00     0.278 C 
ENDBRANCH   9  14
BRANCH  10  16
ATOM     16  O   UNL     1      67.409  83.231  70.312  1.00  0.00    -0.504 OA
ATOM     17  H   UNL     1      67.544  82.526  69.673  1.00  0.00     0.293 HD
ENDBRANCH  10  16
ENDBRANCH   7   8
ENDBRANCH   4   7
ENDBRANCH   2   3
ENDBRANCH   1   2
BRANCH   1  18
ATOM     18  C   UNL     1      59.817  86.793  72.567  1.00  0.00     0.001 C 
BRANCH  18  19
ATOM     19  C   UNL     1      60.936  86.869  71.499  1.00  0.00     0.004 C 
BRANCH  19  20
ATOM     20  C   UNL     1      60.566  86.050  70.231  1.00  0.00     0.027 C 
BRANCH  20  21
ATOM     21  C   UNL     1      61.707  85.420  69.588  1.00  0.00    -0.031 C 
ATOM     22  C   UNL     1      61.888  84.087  69.590  1.00  0.00    -0.028 C 
BRANCH  22  23
ATOM     23  C   UNL     1      63.020  83.424  68.949  1.00  0.00     0.005 C 
ATOM     24  C   UNL     1      62.548  82.136  68.222  1.00  0.00     0.012 C 
ATOM     25  C   UNL     1      63.748  84.407  67.993  1.00  0.00     0.012 C 
ENDBRANCH  22  23
ENDBRANCH  20  21
ENDBRANCH  19  20
ENDBRANCH  18  19
ENDBRANCH   1  18
TORSDOF 11
ENDMDL
MODEL 8
REMARK VINA RESULT:    -5.490     16.927     18.777
REMARK INTER + INTRA:          -9.781
REMARK INTER:                  -9.116
REMARK INTRA:                  -0.665
REMARK UNBOUND:                -0.921
REMARK SMILES COc1cc(CNC(=O)CCCCC/C=C/C(C)C)ccc1O
REMARK SMILES IDX 11 1 10 2 8 3 7 4 9 6 6 7 5 8 3 9 22 10 4 11 21 12 20 13
REMARK SMILES IDX 2 14 1 15 23 16 12 18 13 19 14 20 15 21 16 22 17 23 18 24
REMARK SMILES IDX 19 25
REMARK H PARENT 7 5 23 17
REMARK Flexibility Score: inf
ROOT
ATOM      1  C   UNL     1      98.523  82.199  79.594  1.00  0.00     0.010 C 
ENDROOT
BRANCH   1   2
ATOM      2  C   UNL     1      97.883  83.542  79.157  1.00  0.00     0.100 C 
BRANCH   2   3
ATOM      3  C   UNL     1      98.000  83.821  77.713  1.00  0.00     0.220 C 
ATOM      4  N   UNL     1      99.218  84.107  77.175  1.00  0.00    -0.352 N 
ATOM      5  H   UNL     1      99.969  84.179  77.847  1.00  0.00     0.163 HD
ATOM      6  O   UNL     1      96.967  83.747  77.007  1.00  0.00    -0.275 OA
BRANCH   4   7
ATOM      7  C   UNL     1      99.486  84.300  75.787  1.00  0.00     0.151 C 
BRANCH   7   8
ATOM      8  C   UNL     1     100.936  84.233  75.470  1.00  0.00    -0.025 A 
ATOM      9  C   UNL     1     102.915  82.945  74.781  1.00  0.00     0.160 A 
ATOM     10  C   UNL     1     103.714  84.100  74.919  1.00  0.00     0.157 A 
ATOM     11  C   UNL     1     101.536  83.017  75.065  1.00  0.00     0.056 A 
ATOM     12  C   UNL     1     103.125  85.319  75.304  1.00  0.00     0.050 A 
ATOM     13  C   UNL     1     101.745  85.387  75.567  1.00  0.00     0.009 A 
BRANCH   9  14
ATOM     14  O   UNL     1     103.461  81.776  74.322  1.00  0.00    -0.493 OA
ATOM     15  C   UNL     1     104.003  80.936  75.355  1.00  0.00     0.278 C 
ENDBRANCH   9  14
BRANCH  10  16
ATOM     16  O   UNL     1     105.049  84.066  74.682  1.00  0.00    -0.504 OA
ATOM     17  H   UNL     1     105.222  84.356  73.783  1.00  0.00     0.293 HD
ENDBRANCH  10  16
ENDBRANCH   7   8
ENDBRANCH   4   7
ENDBRANCH   2   3
ENDBRANCH   1   2
BRANCH   1  18
ATOM     18  C   UNL     1      99.947  82.419  80.167  1.00  0.00     0.001 C 
BRANCH  18  19
ATOM     19  C   UNL     1      99.967  82.713  81.688  1.00  0.00     0.004 C 
BRANCH  19  20
ATOM     20  C   UNL     1      98.698  82.155  82.391  1.00  0.00     0.027 C 
BRANCH  20  21
ATOM     21  C   UNL     1      97.844  83.185  82.958  1.00  0.00    -0.031 C 
ATOM     22  C   UNL     1      97.481  83.185  84.253  1.00  0.00    -0.028 C 
BRANCH  22  23
ATOM     23  C   UNL     1      96.628  84.208  84.854  1.00  0.00     0.005 C 
ATOM     24  C   UNL     1      95.865  83.623  86.072  1.00  0.00     0.012 C 
ATOM     25  C   UNL     1      97.471  85.456  85.230  1.00  0.00     0.012 C 
ENDBRANCH  22  23
ENDBRANCH  20  21
ENDBRANCH  19  20
ENDBRANCH  18  19
ENDBRANCH   1  18
TORSDOF 11
ENDMDL
MODEL 9
REMARK VINA RESULT:    -5.479     18.075     20.783
REMARK INTER + INTRA:          -9.763
REMARK INTER:                  -8.876
REMARK INTRA:                  -0.887
REMARK UNBOUND:                -0.921
REMARK SMILES COc1cc(CNC(=O)CCCCC/C=C/C(C)C)ccc1O
REMARK SMILES IDX 11 1 10 2 8 3 7 4 9 6 6 7 5 8 3 9 22 10 4 11 21 12 20 13
REMARK SMILES IDX 2 14 1 15 23 16 12 18 13 19 14 20 15 21 16 22 17 23 18 24
REMARK SMILES IDX 19 25
REMARK H PARENT 7 5 23 17
REMARK Flexibility Score: inf
ROOT
ATOM      1  C   UNL     1      97.497  82.388  84.274  1.00  0.00     0.010 C 
ENDROOT
BRANCH   1   2
ATOM      2  C   UNL     1      97.242  83.888  83.972  1.00  0.00     0.100 C 
BRANCH   2   3
ATOM      3  C   UNL     1      97.199  84.743  85.173  1.00  0.00     0.220 C 
ATOM      4  N   UNL     1      96.001  85.173  85.657  1.00  0.00    -0.352 N 
ATOM      5  H   UNL     1      95.203  84.922  85.091  1.00  0.00     0.163 HD
ATOM      6  O   UNL     1      98.280  85.019  85.746  1.00  0.00    -0.275 OA
BRANCH   4   7
ATOM      7  C   UNL     1      95.812  85.920  86.858  1.00  0.00     0.151 C 
BRANCH   7   8
ATOM      8  C   UNL     1      94.745  85.351  87.723  1.00  0.00    -0.025 A 
ATOM      9  C   UNL     1      93.094  83.592  88.201  1.00  0.00     0.160 A 
ATOM     10  C   UNL     1      92.674  84.299  89.349  1.00  0.00     0.157 A 
ATOM     11  C   UNL     1      94.119  84.126  87.394  1.00  0.00     0.056 A 
ATOM     12  C   UNL     1      93.302  85.510  89.696  1.00  0.00     0.050 A 
ATOM     13  C   UNL     1      94.337  86.027  88.895  1.00  0.00     0.009 A 
BRANCH   9  14
ATOM     14  O   UNL     1      92.551  82.371  87.903  1.00  0.00    -0.493 OA
ATOM     15  C   UNL     1      91.546  82.410  86.876  1.00  0.00     0.278 C 
ENDBRANCH   9  14
BRANCH  10  16
ATOM     16  O   UNL     1      91.673  83.834  90.137  1.00  0.00    -0.504 OA
ATOM     17  H   UNL     1      91.294  84.562  90.636  1.00  0.00     0.293 HD
ENDBRANCH  10  16
ENDBRANCH   7   8
ENDBRANCH   4   7
ENDBRANCH   2   3
ENDBRANCH   1   2
BRANCH   1  18
ATOM     18  C   UNL     1      98.884  81.940  83.747  1.00  0.00     0.001 C 
BRANCH  18  19
ATOM     19  C   UNL     1      98.879  80.534  83.096  1.00  0.00     0.004 C 
BRANCH  19  20
ATOM     20  C   UNL     1      99.345  80.594  81.614  1.00  0.00     0.027 C 
BRANCH  20  21
ATOM     21  C   UNL     1      99.050  81.857  80.959  1.00  0.00    -0.031 C 
ATOM     22  C   UNL     1      98.916  81.961  79.625  1.00  0.00    -0.028 C 
BRANCH  22  23
ATOM     23  C   UNL     1      98.614  83.214  78.937  1.00  0.00     0.005 C 
ATOM     24  C   UNL     1      98.864  83.064  77.413  1.00  0.00     0.012 C 
ATOM     25  C   UNL     1      97.162  83.664  79.255  1.00  0.00     0.012 C 
ENDBRANCH  22  23
ENDBRANCH  20  21
ENDBRANCH  19  20
ENDBRANCH  18  19
ENDBRANCH   1  18
TORSDOF 11
ENDMDL
MODEL 10
REMARK VINA RESULT:    -5.286      4.016      8.219
REMARK INTER + INTRA:          -9.451
REMARK INTER:                  -7.346
REMARK INTRA:                  -2.105
REMARK UNBOUND:                -0.921
REMARK SMILES COc1cc(CNC(=O)CCCCC/C=C/C(C)C)ccc1O
REMARK SMILES IDX 11 1 10 2 8 3 7 4 9 6 6 7 5 8 3 9 22 10 4 11 21 12 20 13
REMARK SMILES IDX 2 14 1 15 23 16 12 18 13 19 14 20 15 21 16 22 17 23 18 24
REMARK SMILES IDX 19 25
REMARK H PARENT 7 5 23 17
REMARK Flexibility Score: inf
ROOT
ATOM      1  C   UNL     1      88.107  98.794  67.995  1.00  0.00     0.010 C 
ENDROOT
BRANCH   1   2
ATOM      2  C   UNL     1      88.818  97.480  68.410  1.00  0.00     0.100 C 
BRANCH   2   3
ATOM      3  C   UNL     1      89.461  97.538  69.736  1.00  0.00     0.220 C 
ATOM      4  N   UNL     1      89.658  98.742  70.342  1.00  0.00    -0.352 N 
ATOM      5  H   UNL     1      89.402  99.543  69.781  1.00  0.00     0.163 HD
ATOM      6  O   UNL     1      89.777  96.460  70.292  1.00  0.00    -0.275 OA
BRANCH   4   7
ATOM      7  C   UNL     1      90.177  98.933  71.657  1.00  0.00     0.151 C 
BRANCH   7   8
ATOM      8  C   UNL     1      91.324  99.878  71.688  1.00  0.00    -0.025 A 
ATOM      9  C   UNL     1      92.914 101.267  72.948  1.00  0.00     0.160 A 
ATOM     10  C   UNL     1      93.478 101.720  71.736  1.00  0.00     0.157 A 
ATOM     11  C   UNL     1      91.837 100.357  72.915  1.00  0.00     0.056 A 
ATOM     12  C   UNL     1      92.986 101.237  70.510  1.00  0.00     0.050 A 
ATOM     13  C   UNL     1      91.924 100.314  70.486  1.00  0.00     0.009 A 
BRANCH   9  14
ATOM     14  O   UNL     1      93.442 101.663  74.149  1.00  0.00    -0.493 OA
ATOM     15  C   UNL     1      94.406 100.749  74.697  1.00  0.00     0.278 C 
ENDBRANCH   9  14
BRANCH  10  16
ATOM     16  O   UNL     1      94.496 102.617  71.724  1.00  0.00    -0.504 OA
ATOM     17  H   UNL     1      94.157 103.482  71.480  1.00  0.00     0.293 HD
ENDBRANCH  10  16
ENDBRANCH   7   8
ENDBRANCH   4   7
ENDBRANCH   2   3
ENDBRANCH   1   2
BRANCH   1  18
ATOM     18  C   UNL     1      89.128  99.850  67.498  1.00  0.00     0.001 C 
BRANCH  18  19
ATOM     19  C   UNL     1      88.695 101.312  67.772  1.00  0.00     0.004 C 
BRANCH  19  20
ATOM     20  C   UNL     1      89.927 102.242  67.960  1.00  0.00     0.027 C 
BRANCH  20  21
ATOM     21  C   UNL     1      89.854 103.075  69.148  1.00  0.00    -0.031 C 
ATOM     22  C   UNL     1      89.274 102.655  70.286  1.00  0.00    -0.028 C 
BRANCH  22  23
ATOM     23  C   UNL     1      89.189 103.465  71.499  1.00  0.00     0.005 C 
ATOM     24  C   UNL     1      88.570 102.638  72.656  1.00  0.00     0.012 C 
ATOM     25  C   UNL     1      90.588 104.034  71.863  1.00  0.00     0.012 C 
ENDBRANCH  22  23
ENDBRANCH  20  21
ENDBRANCH  19  20
ENDBRANCH  18  19
ENDBRANCH   1  18
TORSDOF 11
ENDMDL
