MODEL 1
REMARK VINA RESULT:    -6.912      0.000      0.000
REMARK INTER + INTRA:         -11.337
REMARK INTER:                 -10.751
REMARK INTRA:                  -0.586
REMARK UNBOUND:                -0.586
REMARK SMILES COc1cc(CNC(=O)CCCCCC(C)C)ccc1O
REMARK SMILES IDX 10 1 8 2 7 3 9 5 6 6 5 7 3 8 20 9 4 10 19 11 18 12 2 13 1 14
REMARK SMILES IDX 21 15 11 17 12 18 13 19 14 20 15 21 16 22 17 23
REMARK H PARENT 7 4 21 16
REMARK Flexibility Score: inf
ROOT
ATOM      1  C   UNL     1      92.921  94.126  74.782  1.00  0.00     0.100 C 
ENDROOT
BRANCH   1   2
ATOM      2  C   UNL     1      91.857  93.212  74.316  1.00  0.00     0.220 C 
ATOM      3  N   UNL     1      92.194  91.978  73.845  1.00  0.00    -0.352 N 
ATOM      4  H   UNL     1      93.185  91.825  73.724  1.00  0.00     0.163 HD
ATOM      5  O   UNL     1      90.659  93.576  74.404  1.00  0.00    -0.275 OA
BRANCH   3   6
ATOM      6  C   UNL     1      91.268  90.938  73.527  1.00  0.00     0.151 C 
BRANCH   6   7
ATOM      7  C   UNL     1      91.059  89.981  74.647  1.00  0.00    -0.025 A 
ATOM      8  C   UNL     1      90.397  89.531  76.972  1.00  0.00     0.160 A 
ATOM      9  C   UNL     1      90.596  88.150  76.759  1.00  0.00     0.157 A 
ATOM     10  C   UNL     1      90.648  90.439  75.921  1.00  0.00     0.056 A 
ATOM     11  C   UNL     1      91.030  87.686  75.503  1.00  0.00     0.050 A 
ATOM     12  C   UNL     1      91.255  88.593  74.454  1.00  0.00     0.009 A 
BRANCH   8  13
ATOM     13  O   UNL     1      89.993  90.005  78.193  1.00  0.00    -0.493 OA
ATOM     14  C   UNL     1      90.182  91.423  78.358  1.00  0.00     0.278 C 
ENDBRANCH   8  13
BRANCH   9  15
ATOM     15  O   UNL     1      90.359  87.269  77.763  1.00  0.00    -0.504 OA
ATOM     16  H   UNL     1      90.250  86.388  77.397  1.00  0.00     0.293 HD
ENDBRANCH   9  15
ENDBRANCH   6   7
ENDBRANCH   3   6
ENDBRANCH   1   2
BRANCH   1  17
ATOM     17  C   UNL     1      92.732  94.636  76.236  1.00  0.00     0.010 C 
BRANCH  17  18
ATOM     18  C   UNL     1      93.532  93.775  77.253  1.00  0.00     0.001 C 
BRANCH  18  19
ATOM     19  C   UNL     1      94.803  94.482  77.793  1.00  0.00     0.000 C 
BRANCH  19  20
ATOM     20  C   UNL     1      94.943  94.343  79.336  1.00  0.00     0.003 C 
BRANCH  20  21
ATOM     21  C   UNL     1      96.111  95.168  79.970  1.00  0.00    -0.017 C 
ATOM     22  C   UNL     1      95.605  96.004  81.183  1.00  0.00     0.007 C 
ATOM     23  C   UNL     1      96.823  96.094  78.943  1.00  0.00     0.007 C 
ENDBRANCH  20  21
ENDBRANCH  19  20
ENDBRANCH  18  19
ENDBRANCH  17  18
ENDBRANCH   1  17
TORSDOF 10
ENDMDL
MODEL 2
REMARK VINA RESULT:    -6.886      2.234      3.110
REMARK INTER + INTRA:         -11.297
REMARK INTER:                 -10.332
REMARK INTRA:                  -0.965
REMARK UNBOUND:                -0.586
REMARK SMILES COc1cc(CNC(=O)CCCCCC(C)C)ccc1O
REMARK SMILES IDX 10 1 8 2 7 3 9 5 6 6 5 7 3 8 20 9 4 10 19 11 18 12 2 13 1 14
REMARK SMILES IDX 21 15 11 17 12 18 13 19 14 20 15 21 16 22 17 23
REMARK H PARENT 7 4 21 16
REMARK Flexibility Score: inf
ROOT
ATOM      1  C   UNL     1      92.186  94.555  75.835  1.00  0.00     0.100 C 
ENDROOT
BRANCH   1   2
ATOM      2  C   UNL     1      91.588  93.606  76.797  1.00  0.00     0.220 C 
ATOM      3  N   UNL     1      90.242  93.394  76.780  1.00  0.00    -0.352 N 
ATOM      4  H   UNL     1      89.721  94.018  76.180  1.00  0.00     0.163 HD
ATOM      5  O   UNL     1      92.341  92.981  77.584  1.00  0.00    -0.275 OA
BRANCH   3   6
ATOM      6  C   UNL     1      89.559  92.388  77.528  1.00  0.00     0.151 C 
BRANCH   6   7
ATOM      7  C   UNL     1      89.541  91.065  76.846  1.00  0.00    -0.025 A 
ATOM      8  C   UNL     1      89.170  89.711  74.828  1.00  0.00     0.160 A 
ATOM      9  C   UNL     1      89.572  88.556  75.531  1.00  0.00     0.157 A 
ATOM     10  C   UNL     1      89.139  90.954  75.494  1.00  0.00     0.056 A 
ATOM     11  C   UNL     1      89.949  88.650  76.884  1.00  0.00     0.050 A 
ATOM     12  C   UNL     1      89.939  89.895  77.535  1.00  0.00     0.009 A 
BRANCH   8  13
ATOM     13  O   UNL     1      88.781  89.637  73.516  1.00  0.00    -0.493 OA
ATOM     14  C   UNL     1      87.694  90.522  73.181  1.00  0.00     0.278 C 
ENDBRANCH   8  13
BRANCH   9  15
ATOM     15  O   UNL     1      89.604  87.355  74.900  1.00  0.00    -0.504 OA
ATOM     16  H   UNL     1      88.732  86.954  74.931  1.00  0.00     0.293 HD
ENDBRANCH   9  15
ENDBRANCH   6   7
ENDBRANCH   3   6
ENDBRANCH   1   2
BRANCH   1  17
ATOM     17  C   UNL     1      93.507  94.059  75.187  1.00  0.00     0.010 C 
BRANCH  17  18
ATOM     18  C   UNL     1      94.637  95.118  75.310  1.00  0.00     0.001 C 
BRANCH  18  19
ATOM     19  C   UNL     1      96.055  94.496  75.420  1.00  0.00     0.000 C 
BRANCH  19  20
ATOM     20  C   UNL     1      96.395  94.064  76.876  1.00  0.00     0.003 C 
BRANCH  20  21
ATOM     21  C   UNL     1      95.895  95.042  77.989  1.00  0.00    -0.017 C 
ATOM     22  C   UNL     1      97.078  95.865  78.579  1.00  0.00     0.007 C 
ATOM     23  C   UNL     1      95.128  94.314  79.132  1.00  0.00     0.007 C 
ENDBRANCH  20  21
ENDBRANCH  19  20
ENDBRANCH  18  19
ENDBRANCH  17  18
ENDBRANCH   1  17
TORSDOF 10
ENDMDL
MODEL 3
REMARK VINA RESULT:    -6.552      3.720      7.832
REMARK INTER + INTRA:         -10.777
REMARK INTER:                 -10.009
REMARK INTRA:                  -0.769
REMARK UNBOUND:                -0.586
REMARK SMILES COc1cc(CNC(=O)CCCCCC(C)C)ccc1O
REMARK SMILES IDX 10 1 8 2 7 3 9 5 6 6 5 7 3 8 20 9 4 10 19 11 18 12 2 13 1 14
REMARK SMILES IDX 21 15 11 17 12 18 13 19 14 20 15 21 16 22 17 23
REMARK H PARENT 7 4 21 16
REMARK Flexibility Score: inf
ROOT
ATOM      1  C   UNL     1      93.672  93.685  75.116  1.00  0.00     0.100 C 
ENDROOT
BRANCH   1   2
ATOM      2  C   UNL     1      94.970  94.230  75.566  1.00  0.00     0.220 C 
ATOM      3  N   UNL     1      95.047  94.871  76.766  1.00  0.00    -0.352 N 
ATOM      4  H   UNL     1      94.158  95.045  77.212  1.00  0.00     0.163 HD
ATOM      5  O   UNL     1      95.986  94.053  74.850  1.00  0.00    -0.275 OA
BRANCH   3   6
ATOM      6  C   UNL     1      96.257  95.290  77.398  1.00  0.00     0.151 C 
BRANCH   6   7
ATOM      7  C   UNL     1      96.136  95.401  78.876  1.00  0.00    -0.025 A 
ATOM      8  C   UNL     1      96.493  96.662  80.957  1.00  0.00     0.160 A 
ATOM      9  C   UNL     1      95.845  95.641  81.684  1.00  0.00     0.157 A 
ATOM     10  C   UNL     1      96.651  96.527  79.561  1.00  0.00     0.056 A 
ATOM     11  C   UNL     1      95.352  94.505  81.017  1.00  0.00     0.050 A 
ATOM     12  C   UNL     1      95.491  94.387  79.624  1.00  0.00     0.009 A 
BRANCH   8  13
ATOM     13  O   UNL     1      96.998  97.767  81.590  1.00  0.00    -0.493 OA
ATOM     14  C   UNL     1      96.098  98.892  81.603  1.00  0.00     0.278 C 
ENDBRANCH   8  13
BRANCH   9  15
ATOM     15  O   UNL     1      95.690  95.760  83.027  1.00  0.00    -0.504 OA
ATOM     16  H   UNL     1      96.497  95.483  83.468  1.00  0.00     0.293 HD
ENDBRANCH   9  15
ENDBRANCH   6   7
ENDBRANCH   3   6
ENDBRANCH   1   2
BRANCH   1  17
ATOM     17  C   UNL     1      92.440  94.516  75.564  1.00  0.00     0.010 C 
BRANCH  17  18
ATOM     18  C   UNL     1      91.735  93.878  76.792  1.00  0.00     0.001 C 
BRANCH  18  19
ATOM     19  C   UNL     1      90.187  93.892  76.690  1.00  0.00     0.000 C 
BRANCH  19  20
ATOM     20  C   UNL     1      89.572  92.474  76.877  1.00  0.00     0.003 C 
BRANCH  20  21
ATOM     21  C   UNL     1      90.566  91.387  77.401  1.00  0.00    -0.017 C 
ATOM     22  C   UNL     1      90.454  90.081  76.561  1.00  0.00     0.007 C 
ATOM     23  C   UNL     1      90.372  91.069  78.912  1.00  0.00     0.007 C 
ENDBRANCH  20  21
ENDBRANCH  19  20
ENDBRANCH  18  19
ENDBRANCH  17  18
ENDBRANCH   1  17
TORSDOF 10
ENDMDL
MODEL 4
REMARK VINA RESULT:    -5.986      3.436      8.208
REMARK INTER + INTRA:          -9.896
REMARK INTER:                  -9.196
REMARK INTRA:                  -0.700
REMARK UNBOUND:                -0.586
REMARK SMILES COc1cc(CNC(=O)CCCCCC(C)C)ccc1O
REMARK SMILES IDX 10 1 8 2 7 3 9 5 6 6 5 7 3 8 20 9 4 10 19 11 18 12 2 13 1 14
REMARK SMILES IDX 21 15 11 17 12 18 13 19 14 20 15 21 16 22 17 23
REMARK H PARENT 7 4 21 16
REMARK Flexibility Score: inf
ROOT
ATOM      1  C   UNL     1      91.808  94.830  76.086  1.00  0.00     0.100 C 
ENDROOT
BRANCH   1   2
ATOM      2  C   UNL     1      93.056  94.187  76.548  1.00  0.00     0.220 C 
ATOM      3  N   UNL     1      94.232  94.869  76.462  1.00  0.00    -0.352 N 
ATOM      4  H   UNL     1      94.182  95.740  75.954  1.00  0.00     0.163 HD
ATOM      5  O   UNL     1      92.998  93.038  77.050  1.00  0.00    -0.275 OA
BRANCH   3   6
ATOM      6  C   UNL     1      95.473  94.441  77.025  1.00  0.00     0.151 C 
BRANCH   6   7
ATOM      7  C   UNL     1      95.769  95.077  78.338  1.00  0.00    -0.025 A 
ATOM      8  C   UNL     1      95.532  95.126  80.785  1.00  0.00     0.160 A 
ATOM      9  C   UNL     1      96.387  96.246  80.843  1.00  0.00     0.157 A 
ATOM     10  C   UNL     1      95.213  94.559  79.532  1.00  0.00     0.056 A 
ATOM     11  C   UNL     1      96.924  96.785  79.659  1.00  0.00     0.050 A 
ATOM     12  C   UNL     1      96.622  96.202  78.417  1.00  0.00     0.009 A 
BRANCH   8  13
ATOM     13  O   UNL     1      94.983  94.598  81.924  1.00  0.00    -0.493 OA
ATOM     14  C   UNL     1      95.617  93.382  82.366  1.00  0.00     0.278 C 
ENDBRANCH   8  13
BRANCH   9  15
ATOM     15  O   UNL     1      96.698  96.799  82.042  1.00  0.00    -0.504 OA
ATOM     16  H   UNL     1      95.891  97.053  82.496  1.00  0.00     0.293 HD
ENDBRANCH   9  15
ENDBRANCH   6   7
ENDBRANCH   3   6
ENDBRANCH   1   2
BRANCH   1  17
ATOM     17  C   UNL     1      90.538  93.954  76.252  1.00  0.00     0.010 C 
BRANCH  17  18
ATOM     18  C   UNL     1      89.921  93.572  74.878  1.00  0.00     0.001 C 
BRANCH  18  19
ATOM     19  C   UNL     1      90.538  92.290  74.260  1.00  0.00     0.000 C 
BRANCH  19  20
ATOM     20  C   UNL     1      90.393  92.255  72.711  1.00  0.00     0.003 C 
BRANCH  20  21
ATOM     21  C   UNL     1      89.379  91.196  72.167  1.00  0.00    -0.017 C 
ATOM     22  C   UNL     1      88.841  90.298  73.320  1.00  0.00     0.007 C 
ATOM     23  C   UNL     1      89.979  90.310  71.037  1.00  0.00     0.007 C 
ENDBRANCH  20  21
ENDBRANCH  19  20
ENDBRANCH  18  19
ENDBRANCH  17  18
ENDBRANCH   1  17
TORSDOF 10
ENDMDL
MODEL 5
REMARK VINA RESULT:    -5.967      2.162      3.792
REMARK INTER + INTRA:          -9.866
REMARK INTER:                  -9.161
REMARK INTRA:                  -0.706
REMARK UNBOUND:                -0.586
REMARK SMILES COc1cc(CNC(=O)CCCCCC(C)C)ccc1O
REMARK SMILES IDX 10 1 8 2 7 3 9 5 6 6 5 7 3 8 20 9 4 10 19 11 18 12 2 13 1 14
REMARK SMILES IDX 21 15 11 17 12 18 13 19 14 20 15 21 16 22 17 23
REMARK H PARENT 7 4 21 16
REMARK Flexibility Score: inf
ROOT
ATOM      1  C   UNL     1      96.265  94.506  76.131  1.00  0.00     0.100 C 
ENDROOT
BRANCH   1   2
ATOM      2  C   UNL     1      94.991  95.004  75.570  1.00  0.00     0.220 C 
ATOM      3  N   UNL     1      93.840  94.316  75.810  1.00  0.00    -0.352 N 
ATOM      4  H   UNL     1      93.966  93.419  76.258  1.00  0.00     0.163 HD
ATOM      5  O   UNL     1      94.991  96.076  74.918  1.00  0.00    -0.275 OA
BRANCH   3   6
ATOM      6  C   UNL     1      92.527  94.770  75.479  1.00  0.00     0.151 C 
BRANCH   6   7
ATOM      7  C   UNL     1      91.477  93.741  75.710  1.00  0.00    -0.025 A 
ATOM      8  C   UNL     1      90.417  91.605  75.111  1.00  0.00     0.160 A 
ATOM      9  C   UNL     1      89.520  91.750  76.191  1.00  0.00     0.157 A 
ATOM     10  C   UNL     1      91.377  92.610  74.866  1.00  0.00     0.056 A 
ATOM     11  C   UNL     1      89.594  92.884  77.021  1.00  0.00     0.050 A 
ATOM     12  C   UNL     1      90.568  93.869  76.786  1.00  0.00     0.009 A 
BRANCH   8  13
ATOM     13  O   UNL     1      90.350  90.518  74.280  1.00  0.00    -0.493 OA
ATOM     14  C   UNL     1      91.323  89.498  74.576  1.00  0.00     0.278 C 
ENDBRANCH   8  13
BRANCH   9  15
ATOM     15  O   UNL     1      88.592  90.790  76.434  1.00  0.00    -0.504 OA
ATOM     16  H   UNL     1      87.753  91.052  76.049  1.00  0.00     0.293 HD
ENDBRANCH   9  15
ENDBRANCH   6   7
ENDBRANCH   3   6
ENDBRANCH   1   2
BRANCH   1  17
ATOM     17  C   UNL     1      96.579  95.026  77.560  1.00  0.00     0.010 C 
BRANCH  17  18
ATOM     18  C   UNL     1      95.912  94.143  78.651  1.00  0.00     0.001 C 
BRANCH  18  19
ATOM     19  C   UNL     1      95.011  94.945  79.626  1.00  0.00     0.000 C 
BRANCH  19  20
ATOM     20  C   UNL     1      95.646  95.077  81.041  1.00  0.00     0.003 C 
BRANCH  20  21
ATOM     21  C   UNL     1      96.629  96.280  81.214  1.00  0.00    -0.017 C 
ATOM     22  C   UNL     1      98.109  95.797  81.190  1.00  0.00     0.007 C 
ATOM     23  C   UNL     1      96.357  97.102  82.508  1.00  0.00     0.007 C 
ENDBRANCH  20  21
ENDBRANCH  19  20
ENDBRANCH  18  19
ENDBRANCH  17  18
ENDBRANCH   1  17
TORSDOF 10
ENDMDL
MODEL 6
REMARK VINA RESULT:    -5.829     26.106     28.970
REMARK INTER + INTRA:          -9.652
REMARK INTER:                  -8.887
REMARK INTRA:                  -0.765
REMARK UNBOUND:                -0.586
REMARK SMILES COc1cc(CNC(=O)CCCCCC(C)C)ccc1O
REMARK SMILES IDX 10 1 8 2 7 3 9 5 6 6 5 7 3 8 20 9 4 10 19 11 18 12 2 13 1 14
REMARK SMILES IDX 21 15 11 17 12 18 13 19 14 20 15 21 16 22 17 23
REMARK H PARENT 7 4 21 16
REMARK Flexibility Score: inf
ROOT
ATOM      1  C   UNL     1      82.316  64.684  75.824  1.00  0.00     0.100 C 
ENDROOT
BRANCH   1   2
ATOM      2  C   UNL     1      83.648  64.426  76.412  1.00  0.00     0.220 C 
ATOM      3  N   UNL     1      83.745  63.673  77.544  1.00  0.00    -0.352 N 
ATOM      4  H   UNL     1      82.864  63.450  77.983  1.00  0.00     0.163 HD
ATOM      5  O   UNL     1      84.667  64.872  75.830  1.00  0.00    -0.275 OA
BRANCH   3   6
ATOM      6  C   UNL     1      84.967  63.205  78.116  1.00  0.00     0.151 C 
BRANCH   6   7
ATOM      7  C   UNL     1      85.371  63.962  79.331  1.00  0.00    -0.025 A 
ATOM      8  C   UNL     1      86.456  65.911  80.367  1.00  0.00     0.160 A 
ATOM      9  C   UNL     1      86.082  65.438  81.643  1.00  0.00     0.157 A 
ATOM     10  C   UNL     1      86.115  65.161  79.221  1.00  0.00     0.056 A 
ATOM     11  C   UNL     1      85.366  64.234  81.766  1.00  0.00     0.050 A 
ATOM     12  C   UNL     1      85.008  63.504  80.619  1.00  0.00     0.009 A 
BRANCH   8  13
ATOM     13  O   UNL     1      87.171  67.071  80.226  1.00  0.00    -0.493 OA
ATOM     14  C   UNL     1      88.575  66.863  79.979  1.00  0.00     0.278 C 
ENDBRANCH   8  13
BRANCH   9  15
ATOM     15  O   UNL     1      86.408  66.150  82.750  1.00  0.00    -0.504 OA
ATOM     16  H   UNL     1      86.441  65.564  83.510  1.00  0.00     0.293 HD
ENDBRANCH   9  15
ENDBRANCH   6   7
ENDBRANCH   3   6
ENDBRANCH   1   2
BRANCH   1  17
ATOM     17  C   UNL     1      82.048  63.928  74.496  1.00  0.00     0.010 C 
BRANCH  17  18
ATOM     18  C   UNL     1      80.533  63.892  74.153  1.00  0.00     0.001 C 
BRANCH  18  19
ATOM     19  C   UNL     1      79.982  65.254  73.653  1.00  0.00     0.000 C 
BRANCH  19  20
ATOM     20  C   UNL     1      80.238  65.470  72.133  1.00  0.00     0.003 C 
BRANCH  20  21
ATOM     21  C   UNL     1      80.754  66.894  71.746  1.00  0.00    -0.017 C 
ATOM     22  C   UNL     1      81.997  66.800  70.813  1.00  0.00     0.007 C 
ATOM     23  C   UNL     1      81.084  67.775  72.986  1.00  0.00     0.007 C 
ENDBRANCH  20  21
ENDBRANCH  19  20
ENDBRANCH  18  19
ENDBRANCH  17  18
ENDBRANCH   1  17
TORSDOF 10
ENDMDL
MODEL 7
REMARK VINA RESULT:    -5.754     26.289     28.401
REMARK INTER + INTRA:          -9.536
REMARK INTER:                  -9.006
REMARK INTRA:                  -0.530
REMARK UNBOUND:                -0.586
REMARK SMILES COc1cc(CNC(=O)CCCCCC(C)C)ccc1O
REMARK SMILES IDX 10 1 8 2 7 3 9 5 6 6 5 7 3 8 20 9 4 10 19 11 18 12 2 13 1 14
REMARK SMILES IDX 21 15 11 17 12 18 13 19 14 20 15 21 16 22 17 23
REMARK H PARENT 7 4 21 16
REMARK Flexibility Score: inf
ROOT
ATOM      1  C   UNL     1      83.591  63.626  77.294  1.00  0.00     0.100 C 
ENDROOT
BRANCH   1   2
ATOM      2  C   UNL     1      83.266  64.821  76.488  1.00  0.00     0.220 C 
ATOM      3  N   UNL     1      81.989  65.298  76.482  1.00  0.00    -0.352 N 
ATOM      4  H   UNL     1      81.312  64.705  76.940  1.00  0.00     0.163 HD
ATOM      5  O   UNL     1      84.185  65.399  75.858  1.00  0.00    -0.275 OA
BRANCH   3   6
ATOM      6  C   UNL     1      81.575  66.532  75.894  1.00  0.00     0.151 C 
BRANCH   6   7
ATOM      7  C   UNL     1      81.114  66.382  74.487  1.00  0.00    -0.025 A 
ATOM      8  C   UNL     1      81.060  67.187  72.164  1.00  0.00     0.160 A 
ATOM      9  C   UNL     1      80.291  66.062  71.795  1.00  0.00     0.157 A 
ATOM     10  C   UNL     1      81.450  67.349  73.511  1.00  0.00     0.056 A 
ATOM     11  C   UNL     1      79.928  65.108  72.764  1.00  0.00     0.050 A 
ATOM     12  C   UNL     1      80.341  65.263  74.098  1.00  0.00     0.009 A 
BRANCH   8  13
ATOM     13  O   UNL     1      81.406  68.137  71.241  1.00  0.00    -0.493 OA
ATOM     14  C   UNL     1      82.800  68.500  71.274  1.00  0.00     0.278 C 
ENDBRANCH   8  13
BRANCH   9  15
ATOM     15  O   UNL     1      79.909  65.898  70.504  1.00  0.00    -0.504 OA
ATOM     16  H   UNL     1      78.956  65.996  70.437  1.00  0.00     0.293 HD
ENDBRANCH   9  15
ENDBRANCH   6   7
ENDBRANCH   3   6
ENDBRANCH   1   2
BRANCH   1  17
ATOM     17  C   UNL     1      84.977  63.683  77.991  1.00  0.00     0.010 C 
BRANCH  17  18
ATOM     18  C   UNL     1      84.871  63.350  79.505  1.00  0.00     0.001 C 
BRANCH  18  19
ATOM     19  C   UNL     1      85.939  64.069  80.370  1.00  0.00     0.000 C 
BRANCH  19  20
ATOM     20  C   UNL     1      85.411  64.412  81.793  1.00  0.00     0.003 C 
BRANCH  20  21
ATOM     21  C   UNL     1      86.318  65.382  82.618  1.00  0.00    -0.017 C 
ATOM     22  C   UNL     1      85.582  65.876  83.899  1.00  0.00     0.007 C 
ATOM     23  C   UNL     1      86.816  66.599  81.786  1.00  0.00     0.007 C 
ENDBRANCH  20  21
ENDBRANCH  19  20
ENDBRANCH  18  19
ENDBRANCH  17  18
ENDBRANCH   1  17
TORSDOF 10
ENDMDL
MODEL 8
REMARK VINA RESULT:    -5.744     13.559     16.229
REMARK INTER + INTRA:          -9.521
REMARK INTER:                  -8.546
REMARK INTRA:                  -0.975
REMARK UNBOUND:                -0.586
REMARK SMILES COc1cc(CNC(=O)CCCCCC(C)C)ccc1O
REMARK SMILES IDX 10 1 8 2 7 3 9 5 6 6 5 7 3 8 20 9 4 10 19 11 18 12 2 13 1 14
REMARK SMILES IDX 21 15 11 17 12 18 13 19 14 20 15 21 16 22 17 23
REMARK H PARENT 7 4 21 16
REMARK Flexibility Score: inf
ROOT
ATOM      1  C   UNL     1      81.320  89.771  84.315  1.00  0.00     0.100 C 
ENDROOT
BRANCH   1   2
ATOM      2  C   UNL     1      82.457  89.912  85.249  1.00  0.00     0.220 C 
ATOM      3  N   UNL     1      82.236  89.818  86.591  1.00  0.00    -0.352 N 
ATOM      4  H   UNL     1      81.263  89.788  86.860  1.00  0.00     0.163 HD
ATOM      5  O   UNL     1      83.611  90.073  84.784  1.00  0.00    -0.275 OA
BRANCH   3   6
ATOM      6  C   UNL     1      83.255  89.762  87.589  1.00  0.00     0.151 C 
BRANCH   6   7
ATOM      7  C   UNL     1      83.277  90.961  88.470  1.00  0.00    -0.025 A 
ATOM      8  C   UNL     1      82.896  93.368  88.805  1.00  0.00     0.160 A 
ATOM      9  C   UNL     1      83.254  93.233  90.163  1.00  0.00     0.157 A 
ATOM     10  C   UNL     1      82.928  92.236  87.963  1.00  0.00     0.056 A 
ATOM     11  C   UNL     1      83.629  91.975  90.671  1.00  0.00     0.050 A 
ATOM     12  C   UNL     1      83.635  90.847  89.833  1.00  0.00     0.009 A 
BRANCH   8  13
ATOM     13  O   UNL     1      82.548  94.587  88.285  1.00  0.00    -0.493 OA
ATOM     14  C   UNL     1      83.557  95.168  87.437  1.00  0.00     0.278 C 
ENDBRANCH   8  13
BRANCH   9  15
ATOM     15  O   UNL     1      83.229  94.315  90.981  1.00  0.00    -0.504 OA
ATOM     16  H   UNL     1      83.727  94.125  91.779  1.00  0.00     0.293 HD
ENDBRANCH   9  15
ENDBRANCH   6   7
ENDBRANCH   3   6
ENDBRANCH   1   2
BRANCH   1  17
ATOM     17  C   UNL     1      80.044  89.156  84.950  1.00  0.00     0.010 C 
BRANCH  17  18
ATOM     18  C   UNL     1      79.483  87.989  84.092  1.00  0.00     0.001 C 
BRANCH  18  19
ATOM     19  C   UNL     1      80.300  86.677  84.227  1.00  0.00     0.000 C 
BRANCH  19  20
ATOM     20  C   UNL     1      80.254  86.100  85.671  1.00  0.00     0.003 C 
BRANCH  20  21
ATOM     21  C   UNL     1      81.515  86.405  86.544  1.00  0.00    -0.017 C 
ATOM     22  C   UNL     1      82.659  85.394  86.239  1.00  0.00     0.007 C 
ATOM     23  C   UNL     1      81.206  86.418  88.069  1.00  0.00     0.007 C 
ENDBRANCH  20  21
ENDBRANCH  19  20
ENDBRANCH  18  19
ENDBRANCH  17  18
ENDBRANCH   1  17
TORSDOF 10
ENDMDL
MODEL 9
REMARK VINA RESULT:    -5.694      2.356      3.900
REMARK INTER + INTRA:          -9.442
REMARK INTER:                  -8.640
REMARK INTRA:                  -0.802
REMARK UNBOUND:                -0.586
REMARK SMILES COc1cc(CNC(=O)CCCCCC(C)C)ccc1O
REMARK SMILES IDX 10 1 8 2 7 3 9 5 6 6 5 7 3 8 20 9 4 10 19 11 18 12 2 13 1 14
REMARK SMILES IDX 21 15 11 17 12 18 13 19 14 20 15 21 16 22 17 23
REMARK H PARENT 7 4 21 16
REMARK Flexibility Score: inf
ROOT
ATOM      1  C   UNL     1      96.106  94.789  76.886  1.00  0.00     0.100 C 
ENDROOT
BRANCH   1   2
ATOM      2  C   UNL     1      94.915  94.750  76.012  1.00  0.00     0.220 C 
ATOM      3  N   UNL     1      94.171  93.610  75.944  1.00  0.00    -0.352 N 
ATOM      4  H   UNL     1      94.575  92.810  76.411  1.00  0.00     0.163 HD
ATOM      5  O   UNL     1      94.588  95.785  75.380  1.00  0.00    -0.275 OA
BRANCH   3   6
ATOM      6  C   UNL     1      92.912  93.488  75.283  1.00  0.00     0.151 C 
BRANCH   6   7
ATOM      7  C   UNL     1      91.997  92.517  75.942  1.00  0.00    -0.025 A 
ATOM      8  C   UNL     1      90.717  90.418  75.887  1.00  0.00     0.160 A 
ATOM      9  C   UNL     1      90.308  90.635  77.221  1.00  0.00     0.157 A 
ATOM     10  C   UNL     1      91.542  91.369  75.251  1.00  0.00     0.056 A 
ATOM     11  C   UNL     1      90.733  91.787  77.909  1.00  0.00     0.050 A 
ATOM     12  C   UNL     1      91.574  92.718  77.277  1.00  0.00     0.009 A 
BRANCH   8  13
ATOM     13  O   UNL     1      90.299  89.313  75.193  1.00  0.00    -0.493 OA
ATOM     14  C   UNL     1      89.173  89.560  74.330  1.00  0.00     0.278 C 
ENDBRANCH   8  13
BRANCH   9  15
ATOM     15  O   UNL     1      89.513  89.729  77.841  1.00  0.00    -0.504 OA
ATOM     16  H   UNL     1      89.007  89.244  77.185  1.00  0.00     0.293 HD
ENDBRANCH   9  15
ENDBRANCH   6   7
ENDBRANCH   3   6
ENDBRANCH   1   2
BRANCH   1  17
ATOM     17  C   UNL     1      95.797  94.591  78.394  1.00  0.00     0.010 C 
BRANCH  17  18
ATOM     18  C   UNL     1      96.647  95.541  79.282  1.00  0.00     0.001 C 
BRANCH  18  19
ATOM     19  C   UNL     1      97.277  96.721  78.495  1.00  0.00     0.000 C 
BRANCH  19  20
ATOM     20  C   UNL     1      98.830  96.734  78.599  1.00  0.00     0.003 C 
BRANCH  20  21
ATOM     21  C   UNL     1      99.576  96.043  77.412  1.00  0.00    -0.017 C 
ATOM     22  C   UNL     1     101.113  96.012  77.665  1.00  0.00     0.007 C 
ATOM     23  C   UNL     1      99.276  96.710  76.038  1.00  0.00     0.007 C 
ENDBRANCH  20  21
ENDBRANCH  19  20
ENDBRANCH  18  19
ENDBRANCH  17  18
ENDBRANCH   1  17
TORSDOF 10
ENDMDL
MODEL 10
REMARK VINA RESULT:    -5.656     22.183     26.280
REMARK INTER + INTRA:          -9.384
REMARK INTER:                  -8.596
REMARK INTRA:                  -0.788
REMARK UNBOUND:                -0.586
REMARK SMILES COc1cc(CNC(=O)CCCCCC(C)C)ccc1O
REMARK SMILES IDX 10 1 8 2 7 3 9 5 6 6 5 7 3 8 20 9 4 10 19 11 18 12 2 13 1 14
REMARK SMILES IDX 21 15 11 17 12 18 13 19 14 20 15 21 16 22 17 23
REMARK H PARENT 7 4 21 16
REMARK Flexibility Score: inf
ROOT
ATOM      1  C   UNL     1      83.754  67.103  70.570  1.00  0.00     0.100 C 
ENDROOT
BRANCH   1   2
ATOM      2  C   UNL     1      85.153  67.543  70.749  1.00  0.00     0.220 C 
ATOM      3  N   UNL     1      85.409  68.836  71.095  1.00  0.00    -0.352 N 
ATOM      4  H   UNL     1      84.606  69.448  71.076  1.00  0.00     0.163 HD
ATOM      5  O   UNL     1      86.077  66.703  70.619  1.00  0.00    -0.275 OA
BRANCH   3   6
ATOM      6  C   UNL     1      86.689  69.349  71.466  1.00  0.00     0.151 C 
BRANCH   6   7
ATOM      7  C   UNL     1      87.283  70.241  70.434  1.00  0.00    -0.025 A 
ATOM      8  C   UNL     1      87.135  71.379  68.259  1.00  0.00     0.160 A 
ATOM      9  C   UNL     1      88.383  71.992  68.497  1.00  0.00     0.157 A 
ATOM     10  C   UNL     1      86.602  70.493  69.219  1.00  0.00     0.056 A 
ATOM     11  C   UNL     1      89.081  71.728  69.690  1.00  0.00     0.050 A 
ATOM     12  C   UNL     1      88.533  70.864  70.653  1.00  0.00     0.009 A 
BRANCH   8  13
ATOM     13  O   UNL     1      86.449  71.607  67.095  1.00  0.00    -0.493 OA
ATOM     14  C   UNL     1      86.642  70.588  66.095  1.00  0.00     0.278 C 
ENDBRANCH   8  13
BRANCH   9  15
ATOM     15  O   UNL     1      88.906  72.844  67.580  1.00  0.00    -0.504 OA
ATOM     16  H   UNL     1      88.194  73.274  67.101  1.00  0.00     0.293 HD
ENDBRANCH   9  15
ENDBRANCH   6   7
ENDBRANCH   3   6
ENDBRANCH   1   2
BRANCH   1  17
ATOM     17  C   UNL     1      82.719  67.913  71.397  1.00  0.00     0.010 C 
BRANCH  17  18
ATOM     18  C   UNL     1      81.283  67.763  70.823  1.00  0.00     0.001 C 
BRANCH  18  19
ATOM     19  C   UNL     1      80.304  67.050  71.792  1.00  0.00     0.000 C 
BRANCH  19  20
ATOM     20  C   UNL     1      80.667  65.550  71.998  1.00  0.00     0.003 C 
BRANCH  20  21
ATOM     21  C   UNL     1      80.835  65.110  73.489  1.00  0.00    -0.017 C 
ATOM     22  C   UNL     1      79.892  63.917  73.825  1.00  0.00     0.007 C 
ATOM     23  C   UNL     1      80.600  66.276  74.493  1.00  0.00     0.007 C 
ENDBRANCH  20  21
ENDBRANCH  19  20
ENDBRANCH  18  19
ENDBRANCH  17  18
ENDBRANCH   1  17
TORSDOF 10
ENDMDL
