MODEL 1
REMARK VINA RESULT:    -6.412      0.000      0.000
REMARK INTER + INTRA:         -11.762
REMARK INTER:                 -10.723
REMARK INTRA:                  -1.039
REMARK UNBOUND:                -1.039
REMARK SMILES COc1cc(CNC(=O)CCCCCCCC(C)C)ccc1O
REMARK SMILES IDX 11 1 10 2 8 3 9 4 7 5 6 7 5 8 4 9 20 10 3 11 21 12 22 13
REMARK SMILES IDX 2 14 1 15 23 16 12 18 13 19 14 20 15 21 16 22 17 23 18 24
REMARK SMILES IDX 19 25
REMARK H PARENT 7 6 23 17
REMARK Flexibility Score: inf
ROOT
ATOM      1  C   UNL     1      94.328  95.359  75.679  1.00  0.00     0.010 C 
ENDROOT
BRANCH   1   2
ATOM      2  C   UNL     1      93.095  94.633  75.147  1.00  0.00     0.100 C 
BRANCH   2   3
ATOM      3  C   UNL     1      92.327  93.914  76.245  1.00  0.00     0.220 C 
ATOM      4  O   UNL     1      92.868  93.407  77.223  1.00  0.00    -0.275 OA
ATOM      5  N   UNL     1      90.964  93.904  75.991  1.00  0.00    -0.352 N 
ATOM      6  H   UNL     1      90.608  94.342  75.145  1.00  0.00     0.163 HD
BRANCH   5   7
ATOM      7  C   UNL     1      90.007  93.278  76.874  1.00  0.00     0.151 C 
BRANCH   7   8
ATOM      8  C   UNL     1      89.871  91.808  76.602  1.00  0.00    -0.025 A 
ATOM      9  C   UNL     1      89.530  91.373  75.327  1.00  0.00     0.056 A 
ATOM     10  C   UNL     1      90.087  90.897  77.629  1.00  0.00     0.009 A 
ATOM     11  C   UNL     1      89.403  90.007  75.075  1.00  0.00     0.160 A 
ATOM     12  C   UNL     1      89.959  89.531  77.377  1.00  0.00     0.050 A 
ATOM     13  C   UNL     1      89.617  89.085  76.100  1.00  0.00     0.157 A 
BRANCH  11  14
ATOM     14  O   UNL     1      89.068  89.584  73.824  1.00  0.00    -0.493 OA
ATOM     15  C   UNL     1      87.918  90.181  73.225  1.00  0.00     0.278 C 
ENDBRANCH  11  14
BRANCH  13  16
ATOM     16  O   UNL     1      89.497  87.749  75.866  1.00  0.00    -0.504 OA
ATOM     17  H   UNL     1      90.354  87.320  76.034  1.00  0.00     0.293 HD
ENDBRANCH  13  16
ENDBRANCH   7   8
ENDBRANCH   5   7
ENDBRANCH   2   3
ENDBRANCH   1   2
BRANCH   1  18
ATOM     18  C   UNL     1      95.630  94.580  75.476  1.00  0.00     0.001 C 
BRANCH  18  19
ATOM     19  C   UNL     1      96.884  95.211  76.091  1.00  0.00     0.000 C 
BRANCH  19  20
ATOM     20  C   UNL     1      96.587  96.071  77.322  1.00  0.00     0.000 C 
BRANCH  20  21
ATOM     21  C   UNL     1      96.745  95.315  78.646  1.00  0.00     0.000 C 
BRANCH  21  22
ATOM     22  C   UNL     1      95.407  94.942  79.294  1.00  0.00     0.003 C 
BRANCH  22  23
ATOM     23  C   UNL     1      95.305  95.359  80.775  1.00  0.00    -0.017 C 
ATOM     24  C   UNL     1      96.141  96.617  81.017  1.00  0.00     0.007 C 
ATOM     25  C   UNL     1      95.756  94.251  81.728  1.00  0.00     0.007 C 
ENDBRANCH  22  23
ENDBRANCH  21  22
ENDBRANCH  20  21
ENDBRANCH  19  20
ENDBRANCH  18  19
ENDBRANCH   1  18
TORSDOF 12
ENDMDL
MODEL 2
REMARK VINA RESULT:    -6.170      3.006      8.631
REMARK INTER + INTRA:         -11.357
REMARK INTER:                 -10.124
REMARK INTRA:                  -1.233
REMARK UNBOUND:                -1.039
REMARK SMILES COc1cc(CNC(=O)CCCCCCCC(C)C)ccc1O
REMARK SMILES IDX 11 1 10 2 8 3 9 4 7 5 6 7 5 8 4 9 20 10 3 11 21 12 22 13
REMARK SMILES IDX 2 14 1 15 23 16 12 18 13 19 14 20 15 21 16 22 17 23 18 24
REMARK SMILES IDX 19 25
REMARK H PARENT 7 6 23 17
REMARK Flexibility Score: inf
ROOT
ATOM      1  C   UNL     1      91.332  94.503  76.584  1.00  0.00     0.010 C 
ENDROOT
BRANCH   1   2
ATOM      2  C   UNL     1      92.388  93.536  77.115  1.00  0.00     0.100 C 
BRANCH   2   3
ATOM      3  C   UNL     1      93.644  93.523  76.260  1.00  0.00     0.220 C 
ATOM      4  O   UNL     1      93.629  93.358  75.043  1.00  0.00    -0.275 OA
ATOM      5  N   UNL     1      94.785  93.712  77.026  1.00  0.00    -0.352 N 
ATOM      6  H   UNL     1      94.700  93.830  78.032  1.00  0.00     0.163 HD
BRANCH   5   7
ATOM      7  C   UNL     1      96.114  93.734  76.460  1.00  0.00     0.151 C 
BRANCH   7   8
ATOM      8  C   UNL     1      96.497  95.104  75.981  1.00  0.00    -0.025 A 
ATOM      9  C   UNL     1      96.571  95.360  74.617  1.00  0.00     0.056 A 
ATOM     10  C   UNL     1      96.774  96.103  76.907  1.00  0.00     0.009 A 
ATOM     11  C   UNL     1      96.928  96.634  74.173  1.00  0.00     0.160 A 
ATOM     12  C   UNL     1      97.131  97.376  76.462  1.00  0.00     0.050 A 
ATOM     13  C   UNL     1      97.208  97.642  75.095  1.00  0.00     0.157 A 
BRANCH  11  14
ATOM     14  O   UNL     1      97.000  96.881  72.835  1.00  0.00    -0.493 OA
ATOM     15  C   UNL     1      97.779  95.978  72.050  1.00  0.00     0.278 C 
ENDBRANCH  11  14
BRANCH  13  16
ATOM     16  O   UNL     1      97.557  98.889  74.673  1.00  0.00    -0.504 OA
ATOM     17  H   UNL     1      96.791  99.301  74.237  1.00  0.00     0.293 HD
ENDBRANCH  13  16
ENDBRANCH   7   8
ENDBRANCH   5   7
ENDBRANCH   2   3
ENDBRANCH   1   2
BRANCH   1  18
ATOM     18  C   UNL     1      89.986  93.835  76.289  1.00  0.00     0.001 C 
BRANCH  18  19
ATOM     19  C   UNL     1      89.588  92.697  77.236  1.00  0.00     0.000 C 
BRANCH  19  20
ATOM     20  C   UNL     1      89.266  91.389  76.508  1.00  0.00     0.000 C 
BRANCH  20  21
ATOM     21  C   UNL     1      90.447  90.415  76.452  1.00  0.00     0.000 C 
BRANCH  21  22
ATOM     22  C   UNL     1      91.215  90.468  75.127  1.00  0.00     0.003 C 
BRANCH  22  23
ATOM     23  C   UNL     1      90.848  89.327  74.159  1.00  0.00    -0.017 C 
ATOM     24  C   UNL     1      89.884  89.845  73.089  1.00  0.00     0.007 C 
ATOM     25  C   UNL     1      90.225  88.128  74.875  1.00  0.00     0.007 C 
ENDBRANCH  22  23
ENDBRANCH  21  22
ENDBRANCH  20  21
ENDBRANCH  19  20
ENDBRANCH  18  19
ENDBRANCH   1  18
TORSDOF 12
ENDMDL
MODEL 3
REMARK VINA RESULT:    -5.918     11.260     14.012
REMARK INTER + INTRA:         -10.936
REMARK INTER:                 -10.297
REMARK INTRA:                  -0.639
REMARK UNBOUND:                -1.039
REMARK SMILES COc1cc(CNC(=O)CCCCCCCC(C)C)ccc1O
REMARK SMILES IDX 11 1 10 2 8 3 9 4 7 5 6 7 5 8 4 9 20 10 3 11 21 12 22 13
REMARK SMILES IDX 2 14 1 15 23 16 12 18 13 19 14 20 15 21 16 22 17 23 18 24
REMARK SMILES IDX 19 25
REMARK H PARENT 7 6 23 17
REMARK Flexibility Score: inf
ROOT
ATOM      1  C   UNL     1      97.456  83.403  83.340  1.00  0.00     0.010 C 
ENDROOT
BRANCH   1   2
ATOM      2  C   UNL     1      96.766  84.692  83.780  1.00  0.00     0.100 C 
BRANCH   2   3
ATOM      3  C   UNL     1      96.022  84.530  85.096  1.00  0.00     0.220 C 
ATOM      4  O   UNL     1      95.742  83.438  85.581  1.00  0.00    -0.275 OA
ATOM      5  N   UNL     1      95.704  85.759  85.655  1.00  0.00    -0.352 N 
ATOM      6  H   UNL     1      95.968  86.614  85.173  1.00  0.00     0.163 HD
BRANCH   5   7
ATOM      7  C   UNL     1      94.988  85.889  86.904  1.00  0.00     0.151 C 
BRANCH   7   8
ATOM      8  C   UNL     1      94.975  87.306  87.398  1.00  0.00    -0.025 A 
ATOM      9  C   UNL     1      94.426  87.596  88.641  1.00  0.00     0.056 A 
ATOM     10  C   UNL     1      95.513  88.314  86.607  1.00  0.00     0.009 A 
ATOM     11  C   UNL     1      94.414  88.913  89.100  1.00  0.00     0.160 A 
ATOM     12  C   UNL     1      95.500  89.632  87.067  1.00  0.00     0.050 A 
ATOM     13  C   UNL     1      94.951  89.931  88.313  1.00  0.00     0.157 A 
BRANCH  11  14
ATOM     14  O   UNL     1      93.874  89.193  90.319  1.00  0.00    -0.493 OA
ATOM     15  C   UNL     1      94.727  89.051  91.454  1.00  0.00     0.278 C 
ENDBRANCH  11  14
BRANCH  13  16
ATOM     16  O   UNL     1      94.946  91.221  88.751  1.00  0.00    -0.504 OA
ATOM     17  H   UNL     1      94.976  91.816  87.982  1.00  0.00     0.293 HD
ENDBRANCH  13  16
ENDBRANCH   7   8
ENDBRANCH   5   7
ENDBRANCH   2   3
ENDBRANCH   1   2
BRANCH   1  18
ATOM     18  C   UNL     1      97.163  83.019  81.887  1.00  0.00     0.001 C 
BRANCH  18  19
ATOM     19  C   UNL     1      97.467  81.565  81.509  1.00  0.00     0.000 C 
BRANCH  19  20
ATOM     20  C   UNL     1      97.290  81.278  80.016  1.00  0.00     0.000 C 
BRANCH  20  21
ATOM     21  C   UNL     1      96.645  82.435  79.245  1.00  0.00     0.000 C 
BRANCH  21  22
ATOM     22  C   UNL     1      96.619  82.213  77.729  1.00  0.00     0.003 C 
BRANCH  22  23
ATOM     23  C   UNL     1      97.518  83.193  76.949  1.00  0.00    -0.017 C 
ATOM     24  C   UNL     1      97.170  83.141  75.460  1.00  0.00     0.007 C 
ATOM     25  C   UNL     1      99.007  82.899  77.139  1.00  0.00     0.007 C 
ENDBRANCH  22  23
ENDBRANCH  21  22
ENDBRANCH  20  21
ENDBRANCH  19  20
ENDBRANCH  18  19
ENDBRANCH   1  18
TORSDOF 12
ENDMDL
MODEL 4
REMARK VINA RESULT:    -5.918     13.870     16.892
REMARK INTER + INTRA:         -10.936
REMARK INTER:                  -8.617
REMARK INTRA:                  -2.319
REMARK UNBOUND:                -1.039
REMARK SMILES COc1cc(CNC(=O)CCCCCCCC(C)C)ccc1O
REMARK SMILES IDX 11 1 10 2 8 3 9 4 7 5 6 7 5 8 4 9 20 10 3 11 21 12 22 13
REMARK SMILES IDX 2 14 1 15 23 16 12 18 13 19 14 20 15 21 16 22 17 23 18 24
REMARK SMILES IDX 19 25
REMARK H PARENT 7 6 23 17
REMARK Flexibility Score: inf
ROOT
ATOM      1  C   UNL     1      81.072  86.945  83.566  1.00  0.00     0.010 C 
ENDROOT
BRANCH   1   2
ATOM      2  C   UNL     1      80.935  85.777  84.540  1.00  0.00     0.100 C 
BRANCH   2   3
ATOM      3  C   UNL     1      81.797  85.952  85.779  1.00  0.00     0.220 C 
ATOM      4  O   UNL     1      83.024  85.970  85.749  1.00  0.00    -0.275 OA
ATOM      5  N   UNL     1      81.024  86.076  86.924  1.00  0.00    -0.352 N 
ATOM      6  H   UNL     1      80.011  86.037  86.853  1.00  0.00     0.163 HD
BRANCH   5   7
ATOM      7  C   UNL     1      81.596  86.246  88.240  1.00  0.00     0.151 C 
BRANCH   7   8
ATOM      8  C   UNL     1      81.083  87.482  88.920  1.00  0.00    -0.025 A 
ATOM      9  C   UNL     1      81.959  88.283  89.642  1.00  0.00     0.056 A 
ATOM     10  C   UNL     1      79.737  87.812  88.820  1.00  0.00     0.009 A 
ATOM     11  C   UNL     1      81.482  89.432  90.274  1.00  0.00     0.160 A 
ATOM     12  C   UNL     1      79.260  88.961  89.453  1.00  0.00     0.050 A 
ATOM     13  C   UNL     1      80.132  89.771  90.180  1.00  0.00     0.157 A 
BRANCH  11  14
ATOM     14  O   UNL     1      82.344  90.215  90.981  1.00  0.00    -0.493 OA
ATOM     15  C   UNL     1      83.608  89.645  91.320  1.00  0.00     0.278 C 
ENDBRANCH  11  14
BRANCH  13  16
ATOM     16  O   UNL     1      79.655  90.890  90.792  1.00  0.00    -0.504 OA
ATOM     17  H   UNL     1      78.964  90.634  91.426  1.00  0.00     0.293 HD
ENDBRANCH  13  16
ENDBRANCH   7   8
ENDBRANCH   5   7
ENDBRANCH   2   3
ENDBRANCH   1   2
BRANCH   1  18
ATOM     18  C   UNL     1      79.852  87.870  83.547  1.00  0.00     0.001 C 
BRANCH  18  19
ATOM     19  C   UNL     1      79.558  88.609  84.856  1.00  0.00     0.000 C 
BRANCH  19  20
ATOM     20  C   UNL     1      80.279  89.955  84.967  1.00  0.00     0.000 C 
BRANCH  20  21
ATOM     21  C   UNL     1      81.129  90.089  86.235  1.00  0.00     0.000 C 
BRANCH  21  22
ATOM     22  C   UNL     1      82.548  89.532  86.075  1.00  0.00     0.003 C 
BRANCH  22  23
ATOM     23  C   UNL     1      83.641  90.471  86.622  1.00  0.00    -0.017 C 
ATOM     24  C   UNL     1      83.022  91.472  87.601  1.00  0.00     0.007 C 
ATOM     25  C   UNL     1      84.376  91.224  85.513  1.00  0.00     0.007 C 
ENDBRANCH  22  23
ENDBRANCH  21  22
ENDBRANCH  20  21
ENDBRANCH  19  20
ENDBRANCH  18  19
ENDBRANCH   1  18
TORSDOF 12
ENDMDL
MODEL 5
REMARK VINA RESULT:    -5.893      3.311      5.383
REMARK INTER + INTRA:         -10.894
REMARK INTER:                  -9.672
REMARK INTRA:                  -1.222
REMARK UNBOUND:                -1.039
REMARK SMILES COc1cc(CNC(=O)CCCCCCCC(C)C)ccc1O
REMARK SMILES IDX 11 1 10 2 8 3 9 4 7 5 6 7 5 8 4 9 20 10 3 11 21 12 22 13
REMARK SMILES IDX 2 14 1 15 23 16 12 18 13 19 14 20 15 21 16 22 17 23 18 24
REMARK SMILES IDX 19 25
REMARK H PARENT 7 6 23 17
REMARK Flexibility Score: inf
ROOT
ATOM      1  C   UNL     1      94.108  96.332  74.561  1.00  0.00     0.010 C 
ENDROOT
BRANCH   1   2
ATOM      2  C   UNL     1      95.269  95.411  74.930  1.00  0.00     0.100 C 
BRANCH   2   3
ATOM      3  C   UNL     1      94.905  94.438  76.039  1.00  0.00     0.220 C 
ATOM      4  O   UNL     1      95.720  93.692  76.575  1.00  0.00    -0.275 OA
ATOM      5  N   UNL     1      93.555  94.501  76.351  1.00  0.00    -0.352 N 
ATOM      6  H   UNL     1      92.953  95.145  75.845  1.00  0.00     0.163 HD
BRANCH   5   7
ATOM      7  C   UNL     1      92.946  93.673  77.366  1.00  0.00     0.151 C 
BRANCH   7   8
ATOM      8  C   UNL     1      91.786  92.887  76.828  1.00  0.00    -0.025 A 
ATOM      9  C   UNL     1      91.901  92.244  75.602  1.00  0.00     0.056 A 
ATOM     10  C   UNL     1      90.608  92.812  77.562  1.00  0.00     0.009 A 
ATOM     11  C   UNL     1      90.823  91.514  75.102  1.00  0.00     0.160 A 
ATOM     12  C   UNL     1      89.530  92.082  77.061  1.00  0.00     0.050 A 
ATOM     13  C   UNL     1      89.637  91.433  75.831  1.00  0.00     0.157 A 
BRANCH  11  14
ATOM     14  O   UNL     1      90.940  90.885  73.899  1.00  0.00    -0.493 OA
ATOM     15  C   UNL     1      90.735  91.678  72.730  1.00  0.00     0.278 C 
ENDBRANCH  11  14
BRANCH  13  16
ATOM     16  O   UNL     1      88.577  90.723  75.353  1.00  0.00    -0.504 OA
ATOM     17  H   UNL     1      88.670  89.794  75.627  1.00  0.00     0.293 HD
ENDBRANCH  13  16
ENDBRANCH   7   8
ENDBRANCH   5   7
ENDBRANCH   2   3
ENDBRANCH   1   2
BRANCH   1  18
ATOM     18  C   UNL     1      94.548  97.614  73.849  1.00  0.00     0.001 C 
BRANCH  18  19
ATOM     19  C   UNL     1      93.926  97.854  72.469  1.00  0.00     0.000 C 
BRANCH  19  20
ATOM     20  C   UNL     1      94.832  98.652  71.527  1.00  0.00     0.000 C 
BRANCH  20  21
ATOM     21  C   UNL     1      96.325  98.380  71.743  1.00  0.00     0.000 C 
BRANCH  21  22
ATOM     22  C   UNL     1      97.002  97.723  70.535  1.00  0.00     0.003 C 
BRANCH  22  23
ATOM     23  C   UNL     1      97.276  96.219  70.728  1.00  0.00    -0.017 C 
ATOM     24  C   UNL     1      97.784  95.964  72.149  1.00  0.00     0.007 C 
ATOM     25  C   UNL     1      98.285  95.673  69.717  1.00  0.00     0.007 C 
ENDBRANCH  22  23
ENDBRANCH  21  22
ENDBRANCH  20  21
ENDBRANCH  19  20
ENDBRANCH  18  19
ENDBRANCH   1  18
TORSDOF 12
ENDMDL
MODEL 6
REMARK VINA RESULT:    -5.796     24.847     28.755
REMARK INTER + INTRA:         -10.732
REMARK INTER:                  -8.687
REMARK INTRA:                  -2.045
REMARK UNBOUND:                -1.039
REMARK SMILES COc1cc(CNC(=O)CCCCCCCC(C)C)ccc1O
REMARK SMILES IDX 11 1 10 2 8 3 9 4 7 5 6 7 5 8 4 9 20 10 3 11 21 12 22 13
REMARK SMILES IDX 2 14 1 15 23 16 12 18 13 19 14 20 15 21 16 22 17 23 18 24
REMARK SMILES IDX 19 25
REMARK H PARENT 7 6 23 17
REMARK Flexibility Score: inf
ROOT
ATOM      1  C   UNL     1      83.139  63.934  75.322  1.00  0.00     0.010 C 
ENDROOT
BRANCH   1   2
ATOM      2  C   UNL     1      82.572  64.620  76.564  1.00  0.00     0.100 C 
BRANCH   2   3
ATOM      3  C   UNL     1      82.743  66.129  76.520  1.00  0.00     0.220 C 
ATOM      4  O   UNL     1      81.821  66.917  76.708  1.00  0.00    -0.275 OA
ATOM      5  N   UNL     1      84.053  66.486  76.236  1.00  0.00    -0.352 N 
ATOM      6  H   UNL     1      84.749  65.761  76.084  1.00  0.00     0.163 HD
BRANCH   5   7
ATOM      7  C   UNL     1      84.485  67.860  76.128  1.00  0.00     0.151 C 
BRANCH   7   8
ATOM      8  C   UNL     1      84.752  68.255  74.705  1.00  0.00    -0.025 A 
ATOM      9  C   UNL     1      85.901  68.971  74.394  1.00  0.00     0.056 A 
ATOM     10  C   UNL     1      83.846  67.900  73.713  1.00  0.00     0.009 A 
ATOM     11  C   UNL     1      86.149  69.338  73.071  1.00  0.00     0.160 A 
ATOM     12  C   UNL     1      84.094  68.268  72.389  1.00  0.00     0.050 A 
ATOM     13  C   UNL     1      85.245  68.986  72.068  1.00  0.00     0.157 A 
BRANCH  11  14
ATOM     14  O   UNL     1      87.277  70.040  72.770  1.00  0.00    -0.493 OA
ATOM     15  C   UNL     1      88.468  69.288  72.542  1.00  0.00     0.278 C 
ENDBRANCH  11  14
BRANCH  13  16
ATOM     16  O   UNL     1      85.476  69.338  70.773  1.00  0.00    -0.504 OA
ATOM     17  H   UNL     1      85.212  70.266  70.645  1.00  0.00     0.293 HD
ENDBRANCH  13  16
ENDBRANCH   7   8
ENDBRANCH   5   7
ENDBRANCH   2   3
ENDBRANCH   1   2
BRANCH   1  18
ATOM     18  C   UNL     1      82.270  64.117  74.074  1.00  0.00     0.001 C 
BRANCH  18  19
ATOM     19  C   UNL     1      80.798  63.718  74.225  1.00  0.00     0.000 C 
BRANCH  19  20
ATOM     20  C   UNL     1      79.835  64.690  73.538  1.00  0.00     0.000 C 
BRANCH  20  21
ATOM     21  C   UNL     1      80.206  66.163  73.742  1.00  0.00     0.000 C 
BRANCH  21  22
ATOM     22  C   UNL     1      80.513  66.897  72.432  1.00  0.00     0.003 C 
BRANCH  22  23
ATOM     23  C   UNL     1      80.487  65.981  71.193  1.00  0.00    -0.017 C 
ATOM     24  C   UNL     1      81.906  65.811  70.645  1.00  0.00     0.007 C 
ATOM     25  C   UNL     1      79.570  66.512  70.091  1.00  0.00     0.007 C 
ENDBRANCH  22  23
ENDBRANCH  21  22
ENDBRANCH  20  21
ENDBRANCH  19  20
ENDBRANCH  18  19
ENDBRANCH   1  18
TORSDOF 12
ENDMDL
MODEL 7
REMARK VINA RESULT:    -5.610     11.431     13.923
REMARK INTER + INTRA:         -10.421
REMARK INTER:                  -9.597
REMARK INTRA:                  -0.824
REMARK UNBOUND:                -1.039
REMARK SMILES COc1cc(CNC(=O)CCCCCCCC(C)C)ccc1O
REMARK SMILES IDX 11 1 10 2 8 3 9 4 7 5 6 7 5 8 4 9 20 10 3 11 21 12 22 13
REMARK SMILES IDX 2 14 1 15 23 16 12 18 13 19 14 20 15 21 16 22 17 23 18 24
REMARK SMILES IDX 19 25
REMARK H PARENT 7 6 23 17
REMARK Flexibility Score: inf
ROOT
ATOM      1  C   UNL     1      97.562  81.189  82.861  1.00  0.00     0.010 C 
ENDROOT
BRANCH   1   2
ATOM      2  C   UNL     1      96.293  81.899  83.329  1.00  0.00     0.100 C 
BRANCH   2   3
ATOM      3  C   UNL     1      96.493  83.398  83.482  1.00  0.00     0.220 C 
ATOM      4  O   UNL     1      97.394  84.018  82.924  1.00  0.00    -0.275 OA
ATOM      5  N   UNL     1      95.544  83.955  84.326  1.00  0.00    -0.352 N 
ATOM      6  H   UNL     1      94.840  83.359  84.753  1.00  0.00     0.163 HD
BRANCH   5   7
ATOM      7  C   UNL     1      95.512  85.363  84.649  1.00  0.00     0.151 C 
BRANCH   7   8
ATOM      8  C   UNL     1      94.776  85.629  85.929  1.00  0.00    -0.025 A 
ATOM      9  C   UNL     1      95.217  86.636  86.779  1.00  0.00     0.056 A 
ATOM     10  C   UNL     1      93.661  84.865  86.252  1.00  0.00     0.009 A 
ATOM     11  C   UNL     1      94.532  86.883  87.970  1.00  0.00     0.160 A 
ATOM     12  C   UNL     1      92.977  85.112  87.443  1.00  0.00     0.050 A 
ATOM     13  C   UNL     1      93.412  86.121  88.302  1.00  0.00     0.157 A 
BRANCH  11  14
ATOM     14  O   UNL     1      94.968  87.871  88.801  1.00  0.00    -0.493 OA
ATOM     15  C   UNL     1      95.315  89.118  88.199  1.00  0.00     0.278 C 
ENDBRANCH  11  14
BRANCH  13  16
ATOM     16  O   UNL     1      92.735  86.353  89.461  1.00  0.00    -0.504 OA
ATOM     17  H   UNL     1      92.814  85.571  90.035  1.00  0.00     0.293 HD
ENDBRANCH  13  16
ENDBRANCH   7   8
ENDBRANCH   5   7
ENDBRANCH   2   3
ENDBRANCH   1   2
BRANCH   1  18
ATOM     18  C   UNL     1      97.419  80.527  81.487  1.00  0.00     0.001 C 
BRANCH  18  19
ATOM     19  C   UNL     1      97.934  81.346  80.299  1.00  0.00     0.000 C 
BRANCH  19  20
ATOM     20  C   UNL     1      96.961  82.439  79.850  1.00  0.00     0.000 C 
BRANCH  20  21
ATOM     21  C   UNL     1      96.384  82.205  78.450  1.00  0.00     0.000 C 
BRANCH  21  22
ATOM     22  C   UNL     1      96.961  83.151  77.391  1.00  0.00     0.003 C 
BRANCH  22  23
ATOM     23  C   UNL     1      97.316  82.446  76.067  1.00  0.00    -0.017 C 
ATOM     24  C   UNL     1      97.740  81.002  76.346  1.00  0.00     0.007 C 
ATOM     25  C   UNL     1      98.424  83.167  75.297  1.00  0.00     0.007 C 
ENDBRANCH  22  23
ENDBRANCH  21  22
ENDBRANCH  20  21
ENDBRANCH  19  20
ENDBRANCH  18  19
ENDBRANCH   1  18
TORSDOF 12
ENDMDL
MODEL 8
REMARK VINA RESULT:    -5.602      2.267      3.373
REMARK INTER + INTRA:         -10.408
REMARK INTER:                  -9.479
REMARK INTRA:                  -0.929
REMARK UNBOUND:                -1.039
REMARK SMILES COc1cc(CNC(=O)CCCCCCCC(C)C)ccc1O
REMARK SMILES IDX 11 1 10 2 8 3 9 4 7 5 6 7 5 8 4 9 20 10 3 11 21 12 22 13
REMARK SMILES IDX 2 14 1 15 23 16 12 18 13 19 14 20 15 21 16 22 17 23 18 24
REMARK SMILES IDX 19 25
REMARK H PARENT 7 6 23 17
REMARK Flexibility Score: inf
ROOT
ATOM      1  C   UNL     1      93.731  94.609  75.395  1.00  0.00     0.010 C 
ENDROOT
BRANCH   1   2
ATOM      2  C   UNL     1      93.014  94.462  76.736  1.00  0.00     0.100 C 
BRANCH   2   3
ATOM      3  C   UNL     1      91.673  93.759  76.601  1.00  0.00     0.220 C 
ATOM      4  O   UNL     1      90.601  94.356  76.565  1.00  0.00    -0.275 OA
ATOM      5  N   UNL     1      91.824  92.382  76.534  1.00  0.00    -0.352 N 
ATOM      6  H   UNL     1      92.754  91.976  76.583  1.00  0.00     0.163 HD
BRANCH   5   7
ATOM      7  C   UNL     1      90.704  91.477  76.412  1.00  0.00     0.151 C 
BRANCH   7   8
ATOM      8  C   UNL     1      90.371  91.187  74.978  1.00  0.00    -0.025 A 
ATOM      9  C   UNL     1      89.127  90.658  74.655  1.00  0.00     0.056 A 
ATOM     10  C   UNL     1      91.309  91.450  73.988  1.00  0.00     0.009 A 
ATOM     11  C   UNL     1      88.817  90.388  73.321  1.00  0.00     0.160 A 
ATOM     12  C   UNL     1      90.999  91.180  72.654  1.00  0.00     0.050 A 
ATOM     13  C   UNL     1      89.754  90.649  72.321  1.00  0.00     0.157 A 
BRANCH  11  14
ATOM     14  O   UNL     1      87.597  89.869  73.008  1.00  0.00    -0.493 OA
ATOM     15  C   UNL     1      86.557  90.797  72.706  1.00  0.00     0.278 C 
ENDBRANCH  11  14
BRANCH  13  16
ATOM     16  O   UNL     1      89.463  90.390  71.016  1.00  0.00    -0.504 OA
ATOM     17  H   UNL     1      90.241  89.990  70.591  1.00  0.00     0.293 HD
ENDBRANCH  13  16
ENDBRANCH   7   8
ENDBRANCH   5   7
ENDBRANCH   2   3
ENDBRANCH   1   2
BRANCH   1  18
ATOM     18  C   UNL     1      94.975  95.498  75.462  1.00  0.00     0.001 C 
BRANCH  18  19
ATOM     19  C   UNL     1      94.924  96.778  74.621  1.00  0.00     0.000 C 
BRANCH  19  20
ATOM     20  C   UNL     1      96.309  97.302  74.233  1.00  0.00     0.000 C 
BRANCH  20  21
ATOM     21  C   UNL     1      97.171  97.698  75.437  1.00  0.00     0.000 C 
BRANCH  21  22
ATOM     22  C   UNL     1      98.468  96.889  75.545  1.00  0.00     0.003 C 
BRANCH  22  23
ATOM     23  C   UNL     1      98.550  96.027  76.821  1.00  0.00    -0.017 C 
ATOM     24  C   UNL     1      97.550  96.544  77.858  1.00  0.00     0.007 C 
ATOM     25  C   UNL     1      99.954  96.007  77.425  1.00  0.00     0.007 C 
ENDBRANCH  22  23
ENDBRANCH  21  22
ENDBRANCH  20  21
ENDBRANCH  19  20
ENDBRANCH  18  19
ENDBRANCH   1  18
TORSDOF 12
ENDMDL
MODEL 9
REMARK VINA RESULT:    -5.549      3.872      8.577
REMARK INTER + INTRA:         -10.319
REMARK INTER:                  -9.310
REMARK INTRA:                  -1.009
REMARK UNBOUND:                -1.039
REMARK SMILES COc1cc(CNC(=O)CCCCCCCC(C)C)ccc1O
REMARK SMILES IDX 11 1 10 2 8 3 9 4 7 5 6 7 5 8 4 9 20 10 3 11 21 12 22 13
REMARK SMILES IDX 2 14 1 15 23 16 12 18 13 19 14 20 15 21 16 22 17 23 18 24
REMARK SMILES IDX 19 25
REMARK H PARENT 7 6 23 17
REMARK Flexibility Score: inf
ROOT
ATOM      1  C   UNL     1      95.456  94.503  75.364  1.00  0.00     0.010 C 
ENDROOT
BRANCH   1   2
ATOM      2  C   UNL     1      95.799  95.984  75.513  1.00  0.00     0.100 C 
BRANCH   2   3
ATOM      3  C   UNL     1      96.960  96.217  76.465  1.00  0.00     0.220 C 
ATOM      4  O   UNL     1      97.969  95.518  76.481  1.00  0.00    -0.275 OA
ATOM      5  N   UNL     1      96.724  97.298  77.302  1.00  0.00    -0.352 N 
ATOM      6  H   UNL     1      95.851  97.812  77.223  1.00  0.00     0.163 HD
BRANCH   5   7
ATOM      7  C   UNL     1      97.666  97.730  78.308  1.00  0.00     0.151 C 
BRANCH   7   8
ATOM      8  C   UNL     1      97.191  97.410  79.696  1.00  0.00    -0.025 A 
ATOM      9  C   UNL     1      96.377  96.303  79.906  1.00  0.00     0.056 A 
ATOM     10  C   UNL     1      97.570  98.224  80.756  1.00  0.00     0.009 A 
ATOM     11  C   UNL     1      95.936  96.006  81.195  1.00  0.00     0.160 A 
ATOM     12  C   UNL     1      97.127  97.926  82.046  1.00  0.00     0.050 A 
ATOM     13  C   UNL     1      96.310  96.818  82.266  1.00  0.00     0.157 A 
BRANCH  11  14
ATOM     14  O   UNL     1      95.137  94.920  81.397  1.00  0.00    -0.493 OA
ATOM     15  C   UNL     1      95.788  93.675  81.646  1.00  0.00     0.278 C 
ENDBRANCH  11  14
BRANCH  13  16
ATOM     16  O   UNL     1      95.886  96.537  83.529  1.00  0.00    -0.504 OA
ATOM     17  H   UNL     1      96.623  96.150  84.032  1.00  0.00     0.293 HD
ENDBRANCH  13  16
ENDBRANCH   7   8
ENDBRANCH   5   7
ENDBRANCH   2   3
ENDBRANCH   1   2
BRANCH   1  18
ATOM     18  C   UNL     1      94.720  93.923  76.575  1.00  0.00     0.001 C 
BRANCH  18  19
ATOM     19  C   UNL     1      93.197  93.824  76.442  1.00  0.00     0.000 C 
BRANCH  19  20
ATOM     20  C   UNL     1      92.704  93.980  75.001  1.00  0.00     0.000 C 
BRANCH  20  21
ATOM     21  C   UNL     1      91.448  93.158  74.694  1.00  0.00     0.000 C 
BRANCH  21  22
ATOM     22  C   UNL     1      91.252  91.972  75.643  1.00  0.00     0.003 C 
BRANCH  22  23
ATOM     23  C   UNL     1      89.959  92.058  76.476  1.00  0.00    -0.017 C 
ATOM     24  C   UNL     1      90.294  91.950  77.966  1.00  0.00     0.007 C 
ATOM     25  C   UNL     1      88.944  90.979  76.098  1.00  0.00     0.007 C 
ENDBRANCH  22  23
ENDBRANCH  21  22
ENDBRANCH  20  21
ENDBRANCH  19  20
ENDBRANCH  18  19
ENDBRANCH   1  18
TORSDOF 12
ENDMDL
MODEL 10
REMARK VINA RESULT:    -5.498      2.688      4.512
REMARK INTER + INTRA:         -10.234
REMARK INTER:                  -9.260
REMARK INTRA:                  -0.974
REMARK UNBOUND:                -1.039
REMARK SMILES COc1cc(CNC(=O)CCCCCCCC(C)C)ccc1O
REMARK SMILES IDX 11 1 10 2 8 3 9 4 7 5 6 7 5 8 4 9 20 10 3 11 21 12 22 13
REMARK SMILES IDX 2 14 1 15 23 16 12 18 13 19 14 20 15 21 16 22 17 23 18 24
REMARK SMILES IDX 19 25
REMARK H PARENT 7 6 23 17
REMARK Flexibility Score: inf
ROOT
ATOM      1  C   UNL     1      94.308  94.922  75.219  1.00  0.00     0.010 C 
ENDROOT
BRANCH   1   2
ATOM      2  C   UNL     1      93.734  94.613  76.601  1.00  0.00     0.100 C 
BRANCH   2   3
ATOM      3  C   UNL     1      92.311  94.085  76.531  1.00  0.00     0.220 C 
ATOM      4  O   UNL     1      91.323  94.814  76.493  1.00  0.00    -0.275 OA
ATOM      5  N   UNL     1      92.280  92.699  76.526  1.00  0.00    -0.352 N 
ATOM      6  H   UNL     1      93.152  92.178  76.572  1.00  0.00     0.163 HD
BRANCH   5   7
ATOM      7  C   UNL     1      91.051  91.942  76.473  1.00  0.00     0.151 C 
BRANCH   7   8
ATOM      8  C   UNL     1      90.703  91.534  75.071  1.00  0.00    -0.025 A 
ATOM      9  C   UNL     1      89.504  90.875  74.824  1.00  0.00     0.056 A 
ATOM     10  C   UNL     1      91.583  91.818  74.034  1.00  0.00     0.009 A 
ATOM     11  C   UNL     1      89.181  90.496  73.521  1.00  0.00     0.160 A 
ATOM     12  C   UNL     1      91.260  91.437  72.731  1.00  0.00     0.050 A 
ATOM     13  C   UNL     1      90.059  90.776  72.474  1.00  0.00     0.157 A 
BRANCH  11  14
ATOM     14  O   UNL     1      88.005  89.850  73.283  1.00  0.00    -0.493 OA
ATOM     15  C   UNL     1      86.898  90.651  72.871  1.00  0.00     0.278 C 
ENDBRANCH  11  14
BRANCH  13  16
ATOM     16  O   UNL     1      89.755  90.411  71.198  1.00  0.00    -0.504 OA
ATOM     17  H   UNL     1      89.636  91.212  70.660  1.00  0.00     0.293 HD
ENDBRANCH  13  16
ENDBRANCH   7   8
ENDBRANCH   5   7
ENDBRANCH   2   3
ENDBRANCH   1   2
BRANCH   1  18
ATOM     18  C   UNL     1      95.754  95.424  75.258  1.00  0.00     0.001 C 
BRANCH  18  19
ATOM     19  C   UNL     1      95.928  96.937  75.420  1.00  0.00     0.000 C 
BRANCH  19  20
ATOM     20  C   UNL     1      97.058  97.512  74.562  1.00  0.00     0.000 C 
BRANCH  20  21
ATOM     21  C   UNL     1      96.565  98.199  73.284  1.00  0.00     0.000 C 
BRANCH  21  22
ATOM     22  C   UNL     1      95.673  99.415  73.555  1.00  0.00     0.003 C 
BRANCH  22  23
ATOM     23  C   UNL     1      94.287  99.320  72.887  1.00  0.00    -0.017 C 
ATOM     24  C   UNL     1      93.230  99.953  73.796  1.00  0.00     0.007 C 
ATOM     25  C   UNL     1      93.890  97.879  72.563  1.00  0.00     0.007 C 
ENDBRANCH  22  23
ENDBRANCH  21  22
ENDBRANCH  20  21
ENDBRANCH  19  20
ENDBRANCH  18  19
ENDBRANCH   1  18
TORSDOF 12
ENDMDL
