MODEL 1
REMARK VINA RESULT:    -6.616      0.000      0.000
REMARK INTER + INTRA:         -12.298
REMARK INTER:                 -10.870
REMARK INTRA:                  -1.428
REMARK UNBOUND:                -1.428
REMARK SMILES CCCCC[C@H](O)CC(=O)CCc1ccc(O)c(OC)c1
REMARK SMILES IDX 8 1 6 2 7 3 5 5 4 6 3 7 2 8 1 9 9 10 10 11 11 12 12 13 13 14
REMARK SMILES IDX 21 15 14 16 18 17 15 18 16 19 19 20 20 21 17 22
REMARK H PARENT 7 4 17 23
REMARK Flexibility Score: inf
ROOT
ATOM      1  C   UNL     1      92.504  95.233  75.460  1.00  0.00     0.107 C 
ENDROOT
BRANCH   1   2
ATOM      2  C   UNL     1      92.015  95.359  76.905  1.00  0.00     0.121 C 
BRANCH   2   3
ATOM      3  O   UNL     1      91.594  96.698  77.157  1.00  0.00    -0.393 OA
ATOM      4  H   UNL     1      91.614  96.839  78.120  1.00  0.00     0.210 HD
ENDBRANCH   2   3
BRANCH   2   5
ATOM      5  C   UNL     1      90.867  94.398  77.236  1.00  0.00     0.032 C 
BRANCH   5   6
ATOM      6  C   UNL     1      91.321  92.933  77.228  1.00  0.00     0.003 C 
BRANCH   6   7
ATOM      7  C   UNL     1      90.416  92.022  76.392  1.00  0.00    -0.000 C 
BRANCH   7   8
ATOM      8  C   UNL     1      91.082  91.499  75.120  1.00  0.00    -0.003 C 
ATOM      9  C   UNL     1      90.714  90.047  74.859  1.00  0.00     0.004 C 
ENDBRANCH   7   8
ENDBRANCH   6   7
ENDBRANCH   5   6
ENDBRANCH   2   5
ENDBRANCH   1   2
BRANCH   1  10
ATOM     10  C   UNL     1      93.691  96.131  75.152  1.00  0.00     0.135 C 
ATOM     11  O   UNL     1      93.525  97.278  74.737  1.00  0.00    -0.300 OA
BRANCH  10  12
ATOM     12  C   UNL     1      95.072  95.555  75.425  1.00  0.00     0.080 C 
BRANCH  12  13
ATOM     13  C   UNL     1      95.693  96.043  76.735  1.00  0.00     0.043 C 
BRANCH  13  14
ATOM     14  C   UNL     1      95.573  95.039  77.857  1.00  0.00    -0.044 A 
ATOM     15  C   UNL     1      95.655  95.462  79.184  1.00  0.00     0.054 A 
ATOM     16  C   UNL     1      95.378  93.688  77.566  1.00  0.00     0.008 A 
ATOM     17  C   UNL     1      95.543  94.534  80.219  1.00  0.00     0.160 A 
ATOM     18  C   UNL     1      95.266  92.760  78.601  1.00  0.00     0.050 A 
ATOM     19  C   UNL     1      95.348  93.183  79.928  1.00  0.00     0.157 A 
BRANCH  17  20
ATOM     20  O   UNL     1      95.625  94.958  81.511  1.00  0.00    -0.493 OA
ATOM     21  C   UNL     1      95.975  96.325  81.723  1.00  0.00     0.278 C 
ENDBRANCH  17  20
BRANCH  19  22
ATOM     22  O   UNL     1      95.237  92.268  80.930  1.00  0.00    -0.504 OA
ATOM     23  H   UNL     1      95.793  92.547  81.678  1.00  0.00     0.293 HD
ENDBRANCH  19  22
ENDBRANCH  13  14
ENDBRANCH  12  13
ENDBRANCH  10  12
ENDBRANCH   1  10
TORSDOF 12
ENDMDL
MODEL 2
REMARK VINA RESULT:    -5.962      1.753      6.587
REMARK INTER + INTRA:         -11.224
REMARK INTER:                  -9.748
REMARK INTRA:                  -1.475
REMARK UNBOUND:                -1.428
REMARK SMILES CCCCC[C@H](O)CC(=O)CCc1ccc(O)c(OC)c1
REMARK SMILES IDX 8 1 6 2 7 3 5 5 4 6 3 7 2 8 1 9 9 10 10 11 11 12 12 13 13 14
REMARK SMILES IDX 21 15 14 16 18 17 15 18 16 19 19 20 20 21 17 22
REMARK H PARENT 7 4 17 23
REMARK Flexibility Score: inf
ROOT
ATOM      1  C   UNL     1      96.674  94.000  80.521  1.00  0.00     0.107 C 
ENDROOT
BRANCH   1   2
ATOM      2  C   UNL     1      96.057  95.259  81.136  1.00  0.00     0.121 C 
BRANCH   2   3
ATOM      3  O   UNL     1      96.657  95.522  82.402  1.00  0.00    -0.393 OA
ATOM      4  H   UNL     1      97.270  94.792  82.598  1.00  0.00     0.210 HD
ENDBRANCH   2   3
BRANCH   2   5
ATOM      5  C   UNL     1      96.201  96.496  80.241  1.00  0.00     0.032 C 
BRANCH   5   6
ATOM      6  C   UNL     1      97.667  96.912  80.066  1.00  0.00     0.003 C 
BRANCH   6   7
ATOM      7  C   UNL     1      98.019  97.298  78.626  1.00  0.00    -0.000 C 
BRANCH   7   8
ATOM      8  C   UNL     1      96.997  96.820  77.596  1.00  0.00    -0.003 C 
ATOM      9  C   UNL     1      97.427  97.176  76.181  1.00  0.00     0.004 C 
ENDBRANCH   7   8
ENDBRANCH   6   7
ENDBRANCH   5   6
ENDBRANCH   2   5
ENDBRANCH   1   2
BRANCH   1  10
ATOM     10  C   UNL     1      95.636  92.965  80.115  1.00  0.00     0.135 C 
ATOM     11  O   UNL     1      94.852  92.498  80.941  1.00  0.00    -0.300 OA
BRANCH  10  12
ATOM     12  C   UNL     1      95.594  92.582  78.644  1.00  0.00     0.080 C 
BRANCH  12  13
ATOM     13  C   UNL     1      95.408  93.774  77.703  1.00  0.00     0.043 C 
BRANCH  13  14
ATOM     14  C   UNL     1      93.957  94.124  77.471  1.00  0.00    -0.044 A 
ATOM     15  C   UNL     1      93.012  93.110  77.311  1.00  0.00     0.054 A 
ATOM     16  C   UNL     1      93.562  95.461  77.417  1.00  0.00     0.008 A 
ATOM     17  C   UNL     1      91.672  93.434  77.098  1.00  0.00     0.160 A 
ATOM     18  C   UNL     1      92.222  95.785  77.204  1.00  0.00     0.050 A 
ATOM     19  C   UNL     1      91.277  94.771  77.044  1.00  0.00     0.157 A 
BRANCH  17  20
ATOM     20  O   UNL     1      90.758  92.436  76.942  1.00  0.00    -0.493 OA
ATOM     21  C   UNL     1      90.848  91.655  75.752  1.00  0.00     0.278 C 
ENDBRANCH  17  20
BRANCH  19  22
ATOM     22  O   UNL     1      89.972  95.100  76.836  1.00  0.00    -0.504 OA
ATOM     23  H   UNL     1      89.471  94.942  77.655  1.00  0.00     0.293 HD
ENDBRANCH  19  22
ENDBRANCH  13  14
ENDBRANCH  12  13
ENDBRANCH  10  12
ENDBRANCH   1  10
TORSDOF 12
ENDMDL
MODEL 3
REMARK VINA RESULT:    -5.867      1.919      7.259
REMARK INTER + INTRA:         -11.067
REMARK INTER:                 -10.058
REMARK INTRA:                  -1.009
REMARK UNBOUND:                -1.428
REMARK SMILES CCCCC[C@H](O)CC(=O)CCc1ccc(O)c(OC)c1
REMARK SMILES IDX 8 1 6 2 7 3 5 5 4 6 3 7 2 8 1 9 9 10 10 11 11 12 12 13 13 14
REMARK SMILES IDX 21 15 14 16 18 17 15 18 16 19 19 20 20 21 17 22
REMARK H PARENT 7 4 17 23
REMARK Flexibility Score: inf
ROOT
ATOM      1  C   UNL     1      96.868  94.232  80.989  1.00  0.00     0.107 C 
ENDROOT
BRANCH   1   2
ATOM      2  C   UNL     1      96.103  95.503  81.368  1.00  0.00     0.121 C 
BRANCH   2   3
ATOM      3  O   UNL     1      95.373  95.287  82.573  1.00  0.00    -0.393 OA
ATOM      4  H   UNL     1      95.678  94.447  82.959  1.00  0.00     0.210 HD
ENDBRANCH   2   3
BRANCH   2   5
ATOM      5  C   UNL     1      97.016  96.722  81.542  1.00  0.00     0.032 C 
BRANCH   5   6
ATOM      6  C   UNL     1      97.042  97.221  82.993  1.00  0.00     0.003 C 
BRANCH   6   7
ATOM      7  C   UNL     1      96.942  98.745  83.112  1.00  0.00    -0.000 C 
BRANCH   7   8
ATOM      8  C   UNL     1      96.053  99.385  82.047  1.00  0.00    -0.003 C 
ATOM      9  C   UNL     1      95.295 100.581  82.603  1.00  0.00     0.004 C 
ENDBRANCH   7   8
ENDBRANCH   6   7
ENDBRANCH   5   6
ENDBRANCH   2   5
ENDBRANCH   1   2
BRANCH   1  10
ATOM     10  C   UNL     1      95.959  93.031  80.779  1.00  0.00     0.135 C 
ATOM     11  O   UNL     1      95.357  92.521  81.723  1.00  0.00    -0.300 OA
BRANCH  10  12
ATOM     12  C   UNL     1      95.806  92.533  79.350  1.00  0.00     0.080 C 
BRANCH  12  13
ATOM     13  C   UNL     1      95.747  93.655  78.311  1.00  0.00     0.043 C 
BRANCH  13  14
ATOM     14  C   UNL     1      94.336  94.017  77.911  1.00  0.00    -0.044 A 
ATOM     15  C   UNL     1      94.109  95.097  77.058  1.00  0.00     0.054 A 
ATOM     16  C   UNL     1      93.261  93.272  78.396  1.00  0.00     0.008 A 
ATOM     17  C   UNL     1      92.805  95.430  76.688  1.00  0.00     0.160 A 
ATOM     18  C   UNL     1      91.958  93.605  78.027  1.00  0.00     0.050 A 
ATOM     19  C   UNL     1      91.730  94.685  77.173  1.00  0.00     0.157 A 
BRANCH  17  20
ATOM     20  O   UNL     1      92.595  96.487  75.855  1.00  0.00    -0.493 OA
ATOM     21  C   UNL     1      93.633  96.796  74.926  1.00  0.00     0.278 C 
ENDBRANCH  17  20
BRANCH  19  22
ATOM     22  O   UNL     1      90.453  95.001  76.820  1.00  0.00    -0.504 OA
ATOM     23  H   UNL     1      89.931  94.183  76.755  1.00  0.00     0.293 HD
ENDBRANCH  19  22
ENDBRANCH  13  14
ENDBRANCH  12  13
ENDBRANCH  10  12
ENDBRANCH   1  10
TORSDOF 12
ENDMDL
MODEL 4
REMARK VINA RESULT:    -5.619      2.521      6.897
REMARK INTER + INTRA:         -10.660
REMARK INTER:                  -9.017
REMARK INTRA:                  -1.643
REMARK UNBOUND:                -1.428
REMARK SMILES CCCCC[C@H](O)CC(=O)CCc1ccc(O)c(OC)c1
REMARK SMILES IDX 8 1 6 2 7 3 5 5 4 6 3 7 2 8 1 9 9 10 10 11 11 12 12 13 13 14
REMARK SMILES IDX 21 15 14 16 18 17 15 18 16 19 19 20 20 21 17 22
REMARK H PARENT 7 4 17 23
REMARK Flexibility Score: inf
ROOT
ATOM      1  C   UNL     1      93.581  94.623  78.081  1.00  0.00     0.107 C 
ENDROOT
BRANCH   1   2
ATOM      2  C   UNL     1      94.418  93.806  79.068  1.00  0.00     0.121 C 
BRANCH   2   3
ATOM      3  O   UNL     1      93.682  92.663  79.497  1.00  0.00    -0.393 OA
ATOM      4  H   UNL     1      94.303  92.057  79.938  1.00  0.00     0.210 HD
ENDBRANCH   2   3
BRANCH   2   5
ATOM      5  C   UNL     1      95.761  93.352  78.484  1.00  0.00     0.032 C 
BRANCH   5   6
ATOM      6  C   UNL     1      96.942  94.122  79.086  1.00  0.00     0.003 C 
BRANCH   6   7
ATOM      7  C   UNL     1      96.873  95.632  78.835  1.00  0.00    -0.000 C 
BRANCH   7   8
ATOM      8  C   UNL     1      97.312  96.040  77.430  1.00  0.00    -0.003 C 
ATOM      9  C   UNL     1      97.179  97.541  77.222  1.00  0.00     0.004 C 
ENDBRANCH   7   8
ENDBRANCH   6   7
ENDBRANCH   5   6
ENDBRANCH   2   5
ENDBRANCH   1   2
BRANCH   1  10
ATOM     10  C   UNL     1      92.897  93.765  77.028  1.00  0.00     0.135 C 
ATOM     11  O   UNL     1      92.075  92.907  77.347  1.00  0.00    -0.300 OA
BRANCH  10  12
ATOM     12  C   UNL     1      93.250  94.057  75.577  1.00  0.00     0.080 C 
BRANCH  12  13
ATOM     13  C   UNL     1      94.646  94.653  75.392  1.00  0.00     0.043 C 
BRANCH  13  14
ATOM     14  C   UNL     1      94.651  95.891  74.527  1.00  0.00    -0.044 A 
ATOM     15  C   UNL     1      95.594  96.027  73.508  1.00  0.00     0.054 A 
ATOM     16  C   UNL     1      93.712  96.899  74.747  1.00  0.00     0.008 A 
ATOM     17  C   UNL     1      95.597  97.170  72.709  1.00  0.00     0.160 A 
ATOM     18  C   UNL     1      93.715  98.042  73.948  1.00  0.00     0.050 A 
ATOM     19  C   UNL     1      94.658  98.178  72.929  1.00  0.00     0.157 A 
BRANCH  17  20
ATOM     20  O   UNL     1      96.524  97.292  71.717  1.00  0.00    -0.493 OA
ATOM     21  C   UNL     1      96.250  96.620  70.489  1.00  0.00     0.278 C 
ENDBRANCH  17  20
BRANCH  19  22
ATOM     22  O   UNL     1      94.651  99.299  72.156  1.00  0.00    -0.504 OA
ATOM     23  H   UNL     1      93.762  99.694  72.177  1.00  0.00     0.293 HD
ENDBRANCH  19  22
ENDBRANCH  13  14
ENDBRANCH  12  13
ENDBRANCH  10  12
ENDBRANCH   1  10
TORSDOF 12
ENDMDL
MODEL 5
REMARK VINA RESULT:    -5.611      1.938      6.783
REMARK INTER + INTRA:         -10.646
REMARK INTER:                  -9.321
REMARK INTRA:                  -1.326
REMARK UNBOUND:                -1.428
REMARK SMILES CCCCC[C@H](O)CC(=O)CCc1ccc(O)c(OC)c1
REMARK SMILES IDX 8 1 6 2 7 3 5 5 4 6 3 7 2 8 1 9 9 10 10 11 11 12 12 13 13 14
REMARK SMILES IDX 21 15 14 16 18 17 15 18 16 19 19 20 20 21 17 22
REMARK H PARENT 7 4 17 23
REMARK Flexibility Score: inf
ROOT
ATOM      1  C   UNL     1      96.671  94.255  80.811  1.00  0.00     0.107 C 
ENDROOT
BRANCH   1   2
ATOM      2  C   UNL     1      95.891  95.539  81.106  1.00  0.00     0.121 C 
BRANCH   2   3
ATOM      3  O   UNL     1      95.622  95.630  82.503  1.00  0.00    -0.393 OA
ATOM      4  H   UNL     1      95.815  94.763  82.901  1.00  0.00     0.210 HD
ENDBRANCH   2   3
BRANCH   2   5
ATOM      5  C   UNL     1      96.625  96.805  80.649  1.00  0.00     0.032 C 
BRANCH   5   6
ATOM      6  C   UNL     1      96.914  96.793  79.143  1.00  0.00     0.003 C 
BRANCH   6   7
ATOM      7  C   UNL     1      98.386  97.050  78.806  1.00  0.00    -0.000 C 
BRANCH   7   8
ATOM      8  C   UNL     1      99.361  96.255  79.673  1.00  0.00    -0.003 C 
ATOM      9  C   UNL     1     100.408  95.549  78.825  1.00  0.00     0.004 C 
ENDBRANCH   7   8
ENDBRANCH   6   7
ENDBRANCH   5   6
ENDBRANCH   2   5
ENDBRANCH   1   2
BRANCH   1  10
ATOM     10  C   UNL     1      95.831  92.998  80.968  1.00  0.00     0.135 C 
ATOM     11  O   UNL     1      95.635  92.502  82.077  1.00  0.00    -0.300 OA
BRANCH  10  12
ATOM     12  C   UNL     1      95.219  92.425  79.699  1.00  0.00     0.080 C 
BRANCH  12  13
ATOM     13  C   UNL     1      95.306  93.364  78.495  1.00  0.00     0.043 C 
BRANCH  13  14
ATOM     14  C   UNL     1      93.955  93.845  78.020  1.00  0.00    -0.044 A 
ATOM     15  C   UNL     1      93.863  94.970  77.201  1.00  0.00     0.054 A 
ATOM     16  C   UNL     1      92.799  93.163  78.402  1.00  0.00     0.008 A 
ATOM     17  C   UNL     1      92.615  95.413  76.763  1.00  0.00     0.160 A 
ATOM     18  C   UNL     1      91.551  93.606  77.964  1.00  0.00     0.050 A 
ATOM     19  C   UNL     1      91.459  94.731  77.145  1.00  0.00     0.157 A 
BRANCH  17  20
ATOM     20  O   UNL     1      92.537  96.513  75.964  1.00  0.00    -0.493 OA
ATOM     21  C   UNL     1      93.554  96.669  74.975  1.00  0.00     0.278 C 
ENDBRANCH  17  20
BRANCH  19  22
ATOM     22  O   UNL     1      90.235  95.154  76.723  1.00  0.00    -0.504 OA
ATOM     23  H   UNL     1      89.661  94.380  76.589  1.00  0.00     0.293 HD
ENDBRANCH  19  22
ENDBRANCH  13  14
ENDBRANCH  12  13
ENDBRANCH  10  12
ENDBRANCH   1  10
TORSDOF 12
ENDMDL
MODEL 6
REMARK VINA RESULT:    -5.518      2.319      4.414
REMARK INTER + INTRA:         -10.495
REMARK INTER:                  -8.985
REMARK INTRA:                  -1.511
REMARK UNBOUND:                -1.428
REMARK SMILES CCCCC[C@H](O)CC(=O)CCc1ccc(O)c(OC)c1
REMARK SMILES IDX 8 1 6 2 7 3 5 5 4 6 3 7 2 8 1 9 9 10 10 11 11 12 12 13 13 14
REMARK SMILES IDX 21 15 14 16 18 17 15 18 16 19 19 20 20 21 17 22
REMARK H PARENT 7 4 17 23
REMARK Flexibility Score: inf
ROOT
ATOM      1  C   UNL     1      93.901  93.421  78.598  1.00  0.00     0.107 C 
ENDROOT
BRANCH   1   2
ATOM      2  C   UNL     1      93.890  94.881  78.139  1.00  0.00     0.121 C 
BRANCH   2   3
ATOM      3  O   UNL     1      95.228  95.349  77.981  1.00  0.00    -0.393 OA
ATOM      4  H   UNL     1      95.616  95.444  78.869  1.00  0.00     0.210 HD
ENDBRANCH   2   3
BRANCH   2   5
ATOM      5  C   UNL     1      93.124  95.092  76.827  1.00  0.00     0.032 C 
BRANCH   5   6
ATOM      6  C   UNL     1      91.858  95.934  77.027  1.00  0.00     0.003 C 
BRANCH   6   7
ATOM      7  C   UNL     1      90.563  95.135  76.845  1.00  0.00    -0.000 C 
BRANCH   7   8
ATOM      8  C   UNL     1      90.795  93.664  76.502  1.00  0.00    -0.003 C 
ATOM      9  C   UNL     1      90.307  92.752  77.616  1.00  0.00     0.004 C 
ENDBRANCH   7   8
ENDBRANCH   6   7
ENDBRANCH   5   6
ENDBRANCH   2   5
ENDBRANCH   1   2
BRANCH   1  10
ATOM     10  C   UNL     1      95.267  92.958  79.076  1.00  0.00     0.135 C 
ATOM     11  O   UNL     1      96.169  92.713  78.274  1.00  0.00    -0.300 OA
BRANCH  10  12
ATOM     12  C   UNL     1      95.467  92.860  80.581  1.00  0.00     0.080 C 
BRANCH  12  13
ATOM     13  C   UNL     1      96.803  93.427  81.062  1.00  0.00     0.043 C 
BRANCH  13  14
ATOM     14  C   UNL     1      96.874  94.933  80.974  1.00  0.00    -0.044 A 
ATOM     15  C   UNL     1      97.904  95.542  80.258  1.00  0.00     0.054 A 
ATOM     16  C   UNL     1      95.908  95.714  81.609  1.00  0.00     0.008 A 
ATOM     17  C   UNL     1      97.968  96.933  80.176  1.00  0.00     0.160 A 
ATOM     18  C   UNL     1      95.971  97.105  81.527  1.00  0.00     0.050 A 
ATOM     19  C   UNL     1      97.002  97.715  80.811  1.00  0.00     0.157 A 
BRANCH  17  20
ATOM     20  O   UNL     1      98.979  97.518  79.475  1.00  0.00    -0.493 OA
ATOM     21  C   UNL     1      99.082  97.188  78.091  1.00  0.00     0.278 C 
ENDBRANCH  17  20
BRANCH  19  22
ATOM     22  O   UNL     1      97.053  99.074  80.738  1.00  0.00    -0.504 OA
ATOM     23  H   UNL     1      97.867  99.336  80.275  1.00  0.00     0.293 HD
ENDBRANCH  19  22
ENDBRANCH  13  14
ENDBRANCH  12  13
ENDBRANCH  10  12
ENDBRANCH   1  10
TORSDOF 12
ENDMDL
MODEL 7
REMARK VINA RESULT:    -5.486      2.436      6.645
REMARK INTER + INTRA:         -10.442
REMARK INTER:                  -9.373
REMARK INTRA:                  -1.069
REMARK UNBOUND:                -1.428
REMARK SMILES CCCCC[C@H](O)CC(=O)CCc1ccc(O)c(OC)c1
REMARK SMILES IDX 8 1 6 2 7 3 5 5 4 6 3 7 2 8 1 9 9 10 10 11 11 12 12 13 13 14
REMARK SMILES IDX 21 15 14 16 18 17 15 18 16 19 19 20 20 21 17 22
REMARK H PARENT 7 4 17 23
REMARK Flexibility Score: inf
ROOT
ATOM      1  C   UNL     1      94.788  93.679  79.425  1.00  0.00     0.107 C 
ENDROOT
BRANCH   1   2
ATOM      2  C   UNL     1      95.763  94.327  80.411  1.00  0.00     0.121 C 
BRANCH   2   3
ATOM      3  O   UNL     1      97.084  93.848  80.170  1.00  0.00    -0.393 OA
ATOM      4  H   UNL     1      97.241  93.877  79.210  1.00  0.00     0.210 HD
ENDBRANCH   2   3
BRANCH   2   5
ATOM      5  C   UNL     1      95.761  95.859  80.338  1.00  0.00     0.032 C 
BRANCH   5   6
ATOM      6  C   UNL     1      97.165  96.426  80.094  1.00  0.00     0.003 C 
BRANCH   6   7
ATOM      7  C   UNL     1      97.272  97.247  78.805  1.00  0.00    -0.000 C 
BRANCH   7   8
ATOM      8  C   UNL     1      97.606  96.408  77.572  1.00  0.00    -0.003 C 
ATOM      9  C   UNL     1      97.196  97.118  76.291  1.00  0.00     0.004 C 
ENDBRANCH   7   8
ENDBRANCH   6   7
ENDBRANCH   5   6
ENDBRANCH   2   5
ENDBRANCH   1   2
BRANCH   1  10
ATOM     10  C   UNL     1      95.404  93.424  78.059  1.00  0.00     0.135 C 
ATOM     11  O   UNL     1      96.288  92.580  77.911  1.00  0.00    -0.300 OA
BRANCH  10  12
ATOM     12  C   UNL     1      94.841  94.226  76.896  1.00  0.00     0.080 C 
BRANCH  12  13
ATOM     13  C   UNL     1      93.457  94.817  77.170  1.00  0.00     0.043 C 
BRANCH  13  14
ATOM     14  C   UNL     1      92.340  93.815  76.999  1.00  0.00    -0.044 A 
ATOM     15  C   UNL     1      92.343  92.947  75.907  1.00  0.00     0.054 A 
ATOM     16  C   UNL     1      91.306  93.757  77.934  1.00  0.00     0.008 A 
ATOM     17  C   UNL     1      91.312  92.021  75.751  1.00  0.00     0.160 A 
ATOM     18  C   UNL     1      90.275  92.831  77.777  1.00  0.00     0.050 A 
ATOM     19  C   UNL     1      90.277  91.963  76.685  1.00  0.00     0.157 A 
BRANCH  17  20
ATOM     20  O   UNL     1      91.325  91.179  74.680  1.00  0.00    -0.493 OA
ATOM     21  C   UNL     1      90.206  91.235  73.797  1.00  0.00     0.278 C 
ENDBRANCH  17  20
BRANCH  19  22
ATOM     22  O   UNL     1      89.265  91.064  76.543  1.00  0.00    -0.504 OA
ATOM     23  H   UNL     1      88.686  91.350  75.816  1.00  0.00     0.293 HD
ENDBRANCH  19  22
ENDBRANCH  13  14
ENDBRANCH  12  13
ENDBRANCH  10  12
ENDBRANCH   1  10
TORSDOF 12
ENDMDL
MODEL 8
REMARK VINA RESULT:    -5.403      2.104      5.675
REMARK INTER + INTRA:         -10.305
REMARK INTER:                  -9.047
REMARK INTRA:                  -1.258
REMARK UNBOUND:                -1.428
REMARK SMILES CCCCC[C@H](O)CC(=O)CCc1ccc(O)c(OC)c1
REMARK SMILES IDX 8 1 6 2 7 3 5 5 4 6 3 7 2 8 1 9 9 10 10 11 11 12 12 13 13 14
REMARK SMILES IDX 21 15 14 16 18 17 15 18 16 19 19 20 20 21 17 22
REMARK H PARENT 7 4 17 23
REMARK Flexibility Score: inf
ROOT
ATOM      1  C   UNL     1      95.570  94.379  80.422  1.00  0.00     0.107 C 
ENDROOT
BRANCH   1   2
ATOM      2  C   UNL     1      95.350  93.015  79.762  1.00  0.00     0.121 C 
BRANCH   2   3
ATOM      3  O   UNL     1      94.563  92.187  80.614  1.00  0.00    -0.393 OA
ATOM      4  H   UNL     1      94.646  92.529  81.521  1.00  0.00     0.210 HD
ENDBRANCH   2   3
BRANCH   2   5
ATOM      5  C   UNL     1      94.674  93.115  78.389  1.00  0.00     0.032 C 
BRANCH   5   6
ATOM      6  C   UNL     1      93.155  93.294  78.507  1.00  0.00     0.003 C 
BRANCH   6   7
ATOM      7  C   UNL     1      92.612  94.442  77.650  1.00  0.00    -0.000 C 
BRANCH   7   8
ATOM      8  C   UNL     1      91.129  94.304  77.310  1.00  0.00    -0.003 C 
ATOM      9  C   UNL     1      90.606  92.921  77.666  1.00  0.00     0.004 C 
ENDBRANCH   7   8
ENDBRANCH   6   7
ENDBRANCH   5   6
ENDBRANCH   2   5
ENDBRANCH   1   2
BRANCH   1  10
ATOM     10  C   UNL     1      96.833  95.076  79.944  1.00  0.00     0.135 C 
ATOM     11  O   UNL     1      97.943  94.582  80.144  1.00  0.00    -0.300 OA
BRANCH  10  12
ATOM     12  C   UNL     1      96.646  96.375  79.175  1.00  0.00     0.080 C 
BRANCH  12  13
ATOM     13  C   UNL     1      97.613  96.539  78.001  1.00  0.00     0.043 C 
BRANCH  13  14
ATOM     14  C   UNL     1      96.911  96.682  76.672  1.00  0.00    -0.044 A 
ATOM     15  C   UNL     1      97.466  97.480  75.671  1.00  0.00     0.054 A 
ATOM     16  C   UNL     1      95.708  96.014  76.444  1.00  0.00     0.008 A 
ATOM     17  C   UNL     1      96.817  97.610  74.443  1.00  0.00     0.160 A 
ATOM     18  C   UNL     1      95.059  96.144  75.216  1.00  0.00     0.050 A 
ATOM     19  C   UNL     1      95.614  96.942  74.216  1.00  0.00     0.157 A 
BRANCH  17  20
ATOM     20  O   UNL     1      97.368  98.393  73.474  1.00  0.00    -0.493 OA
ATOM     21  C   UNL     1      98.577  97.929  72.875  1.00  0.00     0.278 C 
ENDBRANCH  17  20
BRANCH  19  22
ATOM     22  O   UNL     1      94.971  97.061  73.021  1.00  0.00    -0.504 OA
ATOM     23  H   UNL     1      95.192  97.923  72.627  1.00  0.00     0.293 HD
ENDBRANCH  19  22
ENDBRANCH  13  14
ENDBRANCH  12  13
ENDBRANCH  10  12
ENDBRANCH   1  10
TORSDOF 12
ENDMDL
MODEL 9
REMARK VINA RESULT:    -5.344     12.168     13.814
REMARK INTER + INTRA:         -10.208
REMARK INTER:                  -9.557
REMARK INTRA:                  -0.651
REMARK UNBOUND:                -1.428
REMARK SMILES CCCCC[C@H](O)CC(=O)CCc1ccc(O)c(OC)c1
REMARK SMILES IDX 8 1 6 2 7 3 5 5 4 6 3 7 2 8 1 9 9 10 10 11 11 12 12 13 13 14
REMARK SMILES IDX 21 15 14 16 18 17 15 18 16 19 19 20 20 21 17 22
REMARK H PARENT 7 4 17 23
REMARK Flexibility Score: inf
ROOT
ATOM      1  C   UNL     1      96.809  82.838  76.706  1.00  0.00     0.107 C 
ENDROOT
BRANCH   1   2
ATOM      2  C   UNL     1      96.395  82.649  75.245  1.00  0.00     0.121 C 
BRANCH   2   3
ATOM      3  O   UNL     1      95.202  83.385  74.982  1.00  0.00    -0.393 OA
ATOM      4  H   UNL     1      94.748  82.958  74.234  1.00  0.00     0.210 HD
ENDBRANCH   2   3
BRANCH   2   5
ATOM      5  C   UNL     1      97.482  83.077  74.252  1.00  0.00     0.032 C 
BRANCH   5   6
ATOM      6  C   UNL     1      98.042  81.888  73.462  1.00  0.00     0.003 C 
BRANCH   6   7
ATOM      7  C   UNL     1      99.518  82.052  73.083  1.00  0.00    -0.000 C 
BRANCH   7   8
ATOM      8  C   UNL     1      99.911  83.494  72.764  1.00  0.00    -0.003 C 
ATOM      9  C   UNL     1     100.996  83.993  73.706  1.00  0.00     0.004 C 
ENDBRANCH   7   8
ENDBRANCH   6   7
ENDBRANCH   5   6
ENDBRANCH   2   5
ENDBRANCH   1   2
BRANCH   1  10
ATOM     10  C   UNL     1      97.106  81.527  77.415  1.00  0.00     0.135 C 
ATOM     11  O   UNL     1      96.674  80.459  76.980  1.00  0.00    -0.300 OA
BRANCH  10  12
ATOM     12  C   UNL     1      97.993  81.604  78.649  1.00  0.00     0.080 C 
BRANCH  12  13
ATOM     13  C   UNL     1      97.604  80.615  79.749  1.00  0.00     0.043 C 
BRANCH  13  14
ATOM     14  C   UNL     1      97.361  81.279  81.083  1.00  0.00    -0.044 A 
ATOM     15  C   UNL     1      97.963  80.772  82.235  1.00  0.00     0.054 A 
ATOM     16  C   UNL     1      96.535  82.400  81.164  1.00  0.00     0.008 A 
ATOM     17  C   UNL     1      97.739  81.386  83.467  1.00  0.00     0.160 A 
ATOM     18  C   UNL     1      96.311  83.015  82.396  1.00  0.00     0.050 A 
ATOM     19  C   UNL     1      96.912  82.508  83.547  1.00  0.00     0.157 A 
BRANCH  17  20
ATOM     20  O   UNL     1      98.331  80.882  84.585  1.00  0.00    -0.493 OA
ATOM     21  C   UNL     1      98.820  79.543  84.512  1.00  0.00     0.278 C 
ENDBRANCH  17  20
BRANCH  19  22
ATOM     22  O   UNL     1      96.686  83.116  84.744  1.00  0.00    -0.504 OA
ATOM     23  H   UNL     1      97.522  83.164  85.239  1.00  0.00     0.293 HD
ENDBRANCH  19  22
ENDBRANCH  13  14
ENDBRANCH  12  13
ENDBRANCH  10  12
ENDBRANCH   1  10
TORSDOF 12
ENDMDL
MODEL 10
REMARK VINA RESULT:    -5.187     12.000     14.433
REMARK INTER + INTRA:          -9.950
REMARK INTER:                  -8.680
REMARK INTRA:                  -1.270
REMARK UNBOUND:                -1.428
REMARK SMILES CCCCC[C@H](O)CC(=O)CCc1ccc(O)c(OC)c1
REMARK SMILES IDX 8 1 6 2 7 3 5 5 4 6 3 7 2 8 1 9 9 10 10 11 11 12 12 13 13 14
REMARK SMILES IDX 21 15 14 16 18 17 15 18 16 19 19 20 20 21 17 22
REMARK H PARENT 7 4 17 23
REMARK Flexibility Score: inf
ROOT
ATOM      1  C   UNL     1      96.735  81.373  77.289  1.00  0.00     0.107 C 
ENDROOT
BRANCH   1   2
ATOM      2  C   UNL     1      98.045  81.627  78.037  1.00  0.00     0.121 C 
BRANCH   2   3
ATOM      3  O   UNL     1      97.809  82.491  79.146  1.00  0.00    -0.393 OA
ATOM      4  H   UNL     1      97.252  83.227  78.837  1.00  0.00     0.210 HD
ENDBRANCH   2   3
BRANCH   2   5
ATOM      5  C   UNL     1      98.713  80.339  78.533  1.00  0.00     0.032 C 
BRANCH   5   6
ATOM      6  C   UNL     1      98.583  80.171  80.052  1.00  0.00     0.003 C 
BRANCH   6   7
ATOM      7  C   UNL     1      97.559  79.106  80.458  1.00  0.00    -0.000 C 
BRANCH   7   8
ATOM      8  C   UNL     1      96.769  79.464  81.716  1.00  0.00    -0.003 C 
ATOM      9  C   UNL     1      96.837  80.955  82.007  1.00  0.00     0.004 C 
ENDBRANCH   7   8
ENDBRANCH   6   7
ENDBRANCH   5   6
ENDBRANCH   2   5
ENDBRANCH   1   2
BRANCH   1  10
ATOM     10  C   UNL     1      95.987  82.651  76.944  1.00  0.00     0.135 C 
ATOM     11  O   UNL     1      95.220  83.173  77.754  1.00  0.00    -0.300 OA
BRANCH  10  12
ATOM     12  C   UNL     1      96.273  83.262  75.581  1.00  0.00     0.080 C 
BRANCH  12  13
ATOM     13  C   UNL     1      96.925  82.290  74.596  1.00  0.00     0.043 C 
BRANCH  13  14
ATOM     14  C   UNL     1      98.339  82.676  74.232  1.00  0.00    -0.044 A 
ATOM     15  C   UNL     1      99.402  81.844  74.584  1.00  0.00     0.054 A 
ATOM     16  C   UNL     1      98.582  83.865  73.544  1.00  0.00     0.008 A 
ATOM     17  C   UNL     1     100.707  82.200  74.246  1.00  0.00     0.160 A 
ATOM     18  C   UNL     1      99.887  84.222  73.206  1.00  0.00     0.050 A 
ATOM     19  C   UNL     1     100.950  83.389  73.558  1.00  0.00     0.157 A 
BRANCH  17  20
ATOM     20  O   UNL     1     101.737  81.380  74.595  1.00  0.00    -0.493 OA
ATOM     21  C   UNL     1     101.836  80.135  73.907  1.00  0.00     0.278 C 
ENDBRANCH  17  20
BRANCH  19  22
ATOM     22  O   UNL     1     102.220  83.748  73.223  1.00  0.00    -0.504 OA
ATOM     23  H   UNL     1     102.514  84.463  73.814  1.00  0.00     0.293 HD
ENDBRANCH  19  22
ENDBRANCH  13  14
ENDBRANCH  12  13
ENDBRANCH  10  12
ENDBRANCH   1  10
TORSDOF 12
ENDMDL
