MODEL 1
REMARK VINA RESULT:    -6.257      0.000      0.000
REMARK INTER + INTRA:         -10.686
REMARK INTER:                 -10.097
REMARK INTRA:                  -0.589
REMARK UNBOUND:                -0.589
REMARK SMILES COc1cc(CNC(=O)CCCCCCC(C)C)ccc1O
REMARK SMILES IDX 11 1 10 2 8 3 7 4 9 6 6 7 5 8 3 9 21 10 4 11 20 12 19 13
REMARK SMILES IDX 2 14 1 15 22 16 12 18 13 19 14 20 15 21 16 22 17 23 18 24
REMARK H PARENT 7 5 22 17
REMARK Flexibility Score: inf
ROOT
ATOM      1  C   UNL     1      95.430  81.214  83.537  1.00  0.00     0.010 C 
ENDROOT
BRANCH   1   2
ATOM      2  C   UNL     1      95.473  81.992  84.881  1.00  0.00     0.100 C 
BRANCH   2   3
ATOM      3  C   UNL     1      94.131  82.368  85.382  1.00  0.00     0.220 C 
ATOM      4  N   UNL     1      93.013  81.788  84.859  1.00  0.00    -0.352 N 
ATOM      5  H   UNL     1      93.188  81.144  84.101  1.00  0.00     0.163 HD
ATOM      6  O   UNL     1      94.050  83.208  86.311  1.00  0.00    -0.275 OA
BRANCH   4   7
ATOM      7  C   UNL     1      91.673  82.028  85.302  1.00  0.00     0.151 C 
BRANCH   7   8
ATOM      8  C   UNL     1      90.730  80.935  84.938  1.00  0.00    -0.025 A 
ATOM      9  C   UNL     1      88.474  80.196  84.294  1.00  0.00     0.160 A 
ATOM     10  C   UNL     1      88.935  78.865  84.199  1.00  0.00     0.157 A 
ATOM     11  C   UNL     1      89.369  81.216  84.680  1.00  0.00     0.056 A 
ATOM     12  C   UNL     1      90.279  78.567  84.491  1.00  0.00     0.050 A 
ATOM     13  C   UNL     1      91.173  79.595  84.848  1.00  0.00     0.009 A 
BRANCH   9  14
ATOM     14  O   UNL     1      87.160  80.491  84.050  1.00  0.00    -0.493 OA
ATOM     15  C   UNL     1      86.531  81.247  85.101  1.00  0.00     0.278 C 
ENDBRANCH   9  14
BRANCH  10  16
ATOM     16  O   UNL     1      88.096  77.861  83.831  1.00  0.00    -0.504 OA
ATOM     17  H   UNL     1      87.433  77.733  84.514  1.00  0.00     0.293 HD
ENDBRANCH  10  16
ENDBRANCH   7   8
ENDBRANCH   4   7
ENDBRANCH   2   3
ENDBRANCH   1   2
BRANCH   1  18
ATOM     18  C   UNL     1      96.135  81.990  82.387  1.00  0.00     0.001 C 
BRANCH  18  19
ATOM     19  C   UNL     1      97.340  81.229  81.765  1.00  0.00     0.000 C 
BRANCH  19  20
ATOM     20  C   UNL     1      97.105  80.920  80.260  1.00  0.00     0.000 C 
BRANCH  20  21
ATOM     21  C   UNL     1      97.549  82.058  79.299  1.00  0.00     0.003 C 
BRANCH  21  22
ATOM     22  C   UNL     1      97.110  81.861  77.811  1.00  0.00    -0.017 C 
ATOM     23  C   UNL     1      95.758  82.581  77.544  1.00  0.00     0.007 C 
ATOM     24  C   UNL     1      97.028  80.369  77.376  1.00  0.00     0.007 C 
ENDBRANCH  21  22
ENDBRANCH  20  21
ENDBRANCH  19  20
ENDBRANCH  18  19
ENDBRANCH   1  18
TORSDOF 11
ENDMDL
MODEL 2
REMARK VINA RESULT:    -6.242     23.346     25.487
REMARK INTER + INTRA:         -10.663
REMARK INTER:                  -8.792
REMARK INTRA:                  -1.871
REMARK UNBOUND:                -0.589
REMARK SMILES COc1cc(CNC(=O)CCCCCCC(C)C)ccc1O
REMARK SMILES IDX 11 1 10 2 8 3 7 4 9 6 6 7 5 8 3 9 21 10 4 11 20 12 19 13
REMARK SMILES IDX 2 14 1 15 22 16 12 18 13 19 14 20 15 21 16 22 17 23 18 24
REMARK H PARENT 7 5 22 17
REMARK Flexibility Score: inf
ROOT
ATOM      1  C   UNL     1      76.940  87.957  68.035  1.00  0.00     0.010 C 
ENDROOT
BRANCH   1   2
ATOM      2  C   UNL     1      77.147  87.206  66.690  1.00  0.00     0.100 C 
BRANCH   2   3
ATOM      3  C   UNL     1      77.088  85.734  66.828  1.00  0.00     0.220 C 
ATOM      4  N   UNL     1      76.333  84.991  65.968  1.00  0.00    -0.352 N 
ATOM      5  H   UNL     1      75.810  85.529  65.294  1.00  0.00     0.163 HD
ATOM      6  O   UNL     1      77.765  85.187  67.733  1.00  0.00    -0.275 OA
BRANCH   4   7
ATOM      7  C   UNL     1      76.246  83.562  65.969  1.00  0.00     0.151 C 
BRANCH   7   8
ATOM      8  C   UNL     1      74.860  83.058  65.769  1.00  0.00    -0.025 A 
ATOM      9  C   UNL     1      72.447  83.488  65.564  1.00  0.00     0.160 A 
ATOM     10  C   UNL     1      72.218  82.112  65.345  1.00  0.00     0.157 A 
ATOM     11  C   UNL     1      73.761  83.947  65.792  1.00  0.00     0.056 A 
ATOM     12  C   UNL     1      73.299  81.212  65.359  1.00  0.00     0.050 A 
ATOM     13  C   UNL     1      74.612  81.681  65.558  1.00  0.00     0.009 A 
BRANCH   9  14
ATOM     14  O   UNL     1      71.398  84.367  65.592  1.00  0.00    -0.493 OA
ATOM     15  C   UNL     1      70.898  84.630  66.916  1.00  0.00     0.278 C 
ENDBRANCH   9  14
BRANCH  10  16
ATOM     16  O   UNL     1      70.962  81.641  65.124  1.00  0.00    -0.504 OA
ATOM     17  H   UNL     1      70.378  81.952  65.820  1.00  0.00     0.293 HD
ENDBRANCH  10  16
ENDBRANCH   7   8
ENDBRANCH   4   7
ENDBRANCH   2   3
ENDBRANCH   1   2
BRANCH   1  18
ATOM     18  C   UNL     1      76.512  89.437  67.821  1.00  0.00     0.001 C 
BRANCH  18  19
ATOM     19  C   UNL     1      75.551  89.976  68.918  1.00  0.00     0.000 C 
BRANCH  19  20
ATOM     20  C   UNL     1      74.066  89.659  68.584  1.00  0.00     0.000 C 
BRANCH  20  21
ATOM     21  C   UNL     1      73.485  88.444  69.358  1.00  0.00     0.003 C 
BRANCH  21  22
ATOM     22  C   UNL     1      73.185  87.191  68.471  1.00  0.00    -0.017 C 
ATOM     23  C   UNL     1      74.011  85.969  68.961  1.00  0.00     0.007 C 
ATOM     24  C   UNL     1      73.418  87.432  66.950  1.00  0.00     0.007 C 
ENDBRANCH  21  22
ENDBRANCH  20  21
ENDBRANCH  19  20
ENDBRANCH  18  19
ENDBRANCH   1  18
TORSDOF 11
ENDMDL
MODEL 3
REMARK VINA RESULT:    -6.177     13.098     16.063
REMARK INTER + INTRA:         -10.557
REMARK INTER:                  -9.903
REMARK INTRA:                  -0.654
REMARK UNBOUND:                -0.589
REMARK SMILES COc1cc(CNC(=O)CCCCCCC(C)C)ccc1O
REMARK SMILES IDX 11 1 10 2 8 3 7 4 9 6 6 7 5 8 3 9 21 10 4 11 20 12 19 13
REMARK SMILES IDX 2 14 1 15 22 16 12 18 13 19 14 20 15 21 16 22 17 23 18 24
REMARK H PARENT 7 5 22 17
REMARK Flexibility Score: inf
ROOT
ATOM      1  C   UNL     1      93.795  94.618  78.332  1.00  0.00     0.010 C 
ENDROOT
BRANCH   1   2
ATOM      2  C   UNL     1      94.319  93.199  78.687  1.00  0.00     0.100 C 
BRANCH   2   3
ATOM      3  C   UNL     1      95.201  93.182  79.876  1.00  0.00     0.220 C 
ATOM      4  N   UNL     1      96.278  94.017  79.947  1.00  0.00    -0.352 N 
ATOM      5  H   UNL     1      96.426  94.584  79.126  1.00  0.00     0.163 HD
ATOM      6  O   UNL     1      94.923  92.403  80.820  1.00  0.00    -0.275 OA
BRANCH   4   7
ATOM      7  C   UNL     1      97.163  94.129  81.066  1.00  0.00     0.151 C 
BRANCH   7   8
ATOM      8  C   UNL     1      97.198  95.497  81.652  1.00  0.00    -0.025 A 
ATOM      9  C   UNL     1      98.330  97.201  83.017  1.00  0.00     0.160 A 
ATOM     10  C   UNL     1      97.293  98.117  82.738  1.00  0.00     0.157 A 
ATOM     11  C   UNL     1      98.266  95.894  82.489  1.00  0.00     0.056 A 
ATOM     12  C   UNL     1      96.206  97.721  81.939  1.00  0.00     0.050 A 
ATOM     13  C   UNL     1      96.162  96.424  81.390  1.00  0.00     0.009 A 
BRANCH   9  14
ATOM     14  O   UNL     1      99.373  97.563  83.826  1.00  0.00    -0.493 OA
ATOM     15  C   UNL     1      99.294  97.015  85.154  1.00  0.00     0.278 C 
ENDBRANCH   9  14
BRANCH  10  16
ATOM     16  O   UNL     1      97.329  99.382  83.235  1.00  0.00    -0.504 OA
ATOM     17  H   UNL     1      98.011  99.441  83.908  1.00  0.00     0.293 HD
ENDBRANCH  10  16
ENDBRANCH   7   8
ENDBRANCH   4   7
ENDBRANCH   2   3
ENDBRANCH   1   2
BRANCH   1  18
ATOM     18  C   UNL     1      92.490  94.567  77.488  1.00  0.00     0.001 C 
BRANCH  18  19
ATOM     19  C   UNL     1      91.738  93.210  77.578  1.00  0.00     0.000 C 
BRANCH  19  20
ATOM     20  C   UNL     1      91.753  92.456  76.218  1.00  0.00     0.000 C 
BRANCH  20  21
ATOM     21  C   UNL     1      90.371  91.894  75.785  1.00  0.00     0.003 C 
BRANCH  21  22
ATOM     22  C   UNL     1      90.382  91.112  74.431  1.00  0.00    -0.017 C 
ATOM     23  C   UNL     1      88.988  91.190  73.747  1.00  0.00     0.007 C 
ATOM     24  C   UNL     1      90.839  89.630  74.568  1.00  0.00     0.007 C 
ENDBRANCH  21  22
ENDBRANCH  20  21
ENDBRANCH  19  20
ENDBRANCH  18  19
ENDBRANCH   1  18
TORSDOF 11
ENDMDL
MODEL 4
REMARK VINA RESULT:    -5.990     21.913     25.133
REMARK INTER + INTRA:         -10.256
REMARK INTER:                  -9.364
REMARK INTRA:                  -0.893
REMARK UNBOUND:                -0.589
REMARK SMILES COc1cc(CNC(=O)CCCCCCC(C)C)ccc1O
REMARK SMILES IDX 11 1 10 2 8 3 7 4 9 6 6 7 5 8 3 9 21 10 4 11 20 12 19 13
REMARK SMILES IDX 2 14 1 15 22 16 12 18 13 19 14 20 15 21 16 22 17 23 18 24
REMARK H PARENT 7 5 22 17
REMARK Flexibility Score: inf
ROOT
ATOM      1  C   UNL     1      90.066  99.057  70.636  1.00  0.00     0.010 C 
ENDROOT
BRANCH   1   2
ATOM      2  C   UNL     1      89.748  97.815  69.758  1.00  0.00     0.100 C 
BRANCH   2   3
ATOM      3  C   UNL     1      89.465  98.156  68.345  1.00  0.00     0.220 C 
ATOM      4  N   UNL     1      88.356  98.881  68.020  1.00  0.00    -0.352 N 
ATOM      5  H   UNL     1      87.757  99.108  68.801  1.00  0.00     0.163 HD
ATOM      6  O   UNL     1      90.276  97.784  67.463  1.00  0.00    -0.275 OA
BRANCH   4   7
ATOM      7  C   UNL     1      88.011  99.317  66.701  1.00  0.00     0.151 C 
BRANCH   7   8
ATOM      8  C   UNL     1      88.073 100.795  66.537  1.00  0.00    -0.025 A 
ATOM      9  C   UNL     1      89.383 102.874  66.436  1.00  0.00     0.160 A 
ATOM     10  C   UNL     1      88.204 103.607  66.181  1.00  0.00     0.157 A 
ATOM     11  C   UNL     1      89.306 101.479  66.630  1.00  0.00     0.056 A 
ATOM     12  C   UNL     1      86.965 102.944  66.124  1.00  0.00     0.050 A 
ATOM     13  C   UNL     1      86.900 101.547  66.290  1.00  0.00     0.009 A 
BRANCH   9  14
ATOM     14  O   UNL     1      90.588 103.515  66.532  1.00  0.00    -0.493 OA
ATOM     15  C   UNL     1      91.432 103.340  65.379  1.00  0.00     0.278 C 
ENDBRANCH   9  14
BRANCH  10  16
ATOM     16  O   UNL     1      88.248 104.952  65.991  1.00  0.00    -0.504 OA
ATOM     17  H   UNL     1      88.622 105.373  66.769  1.00  0.00     0.293 HD
ENDBRANCH  10  16
ENDBRANCH   7   8
ENDBRANCH   4   7
ENDBRANCH   2   3
ENDBRANCH   1   2
BRANCH   1  18
ATOM     18  C   UNL     1      91.499  99.604  70.382  1.00  0.00     0.001 C 
BRANCH  18  19
ATOM     19  C   UNL     1      91.977 100.629  71.450  1.00  0.00     0.000 C 
BRANCH  19  20
ATOM     20  C   UNL     1      93.303 100.177  72.123  1.00  0.00     0.000 C 
BRANCH  20  21
ATOM     21  C   UNL     1      93.154  98.948  73.062  1.00  0.00     0.003 C 
BRANCH  21  22
ATOM     22  C   UNL     1      94.502  98.245  73.431  1.00  0.00    -0.017 C 
ATOM     23  C   UNL     1      95.358  98.008  72.156  1.00  0.00     0.007 C 
ATOM     24  C   UNL     1      94.317  96.915  74.219  1.00  0.00     0.007 C 
ENDBRANCH  21  22
ENDBRANCH  20  21
ENDBRANCH  19  20
ENDBRANCH  18  19
ENDBRANCH   1  18
TORSDOF 11
ENDMDL
MODEL 5
REMARK VINA RESULT:    -5.681     14.120     17.453
REMARK INTER + INTRA:          -9.758
REMARK INTER:                  -8.387
REMARK INTRA:                  -1.371
REMARK UNBOUND:                -0.589
REMARK SMILES COc1cc(CNC(=O)CCCCCCC(C)C)ccc1O
REMARK SMILES IDX 11 1 10 2 8 3 7 4 9 6 6 7 5 8 3 9 21 10 4 11 20 12 19 13
REMARK SMILES IDX 2 14 1 15 22 16 12 18 13 19 14 20 15 21 16 22 17 23 18 24
REMARK H PARENT 7 5 22 17
REMARK Flexibility Score: inf
ROOT
ATOM      1  C   UNL     1      93.788  93.519  77.938  1.00  0.00     0.010 C 
ENDROOT
BRANCH   1   2
ATOM      2  C   UNL     1      94.318  92.937  79.278  1.00  0.00     0.100 C 
BRANCH   2   3
ATOM      3  C   UNL     1      95.177  93.881  80.027  1.00  0.00     0.220 C 
ATOM      4  N   UNL     1      95.479  95.104  79.501  1.00  0.00    -0.352 N 
ATOM      5  H   UNL     1      95.109  95.267  78.576  1.00  0.00     0.163 HD
ATOM      6  O   UNL     1      95.599  93.541  81.159  1.00  0.00    -0.275 OA
BRANCH   4   7
ATOM      7  C   UNL     1      96.249  96.117  80.156  1.00  0.00     0.151 C 
BRANCH   7   8
ATOM      8  C   UNL     1      97.556  96.381  79.493  1.00  0.00    -0.025 A 
ATOM      9  C   UNL     1      99.143  97.953  78.466  1.00  0.00     0.160 A 
ATOM     10  C   UNL     1     100.063  96.900  78.269  1.00  0.00     0.157 A 
ATOM     11  C   UNL     1      97.892  97.683  79.059  1.00  0.00     0.056 A 
ATOM     12  C   UNL     1      99.724  95.592  78.661  1.00  0.00     0.050 A 
ATOM     13  C   UNL     1      98.484  95.335  79.279  1.00  0.00     0.009 A 
BRANCH   9  14
ATOM     14  O   UNL     1      99.447  99.221  78.052  1.00  0.00    -0.493 OA
ATOM     15  C   UNL     1      98.963  99.532  76.733  1.00  0.00     0.278 C 
ENDBRANCH   9  14
BRANCH  10  16
ATOM     16  O   UNL     1     101.275  97.130  77.699  1.00  0.00    -0.504 OA
ATOM     17  H   UNL     1     101.611  96.314  77.323  1.00  0.00     0.293 HD
ENDBRANCH  10  16
ENDBRANCH   7   8
ENDBRANCH   4   7
ENDBRANCH   2   3
ENDBRANCH   1   2
BRANCH   1  18
ATOM     18  C   UNL     1      92.239  93.650  77.926  1.00  0.00     0.001 C 
BRANCH  18  19
ATOM     19  C   UNL     1      91.716  94.826  77.054  1.00  0.00     0.000 C 
BRANCH  19  20
ATOM     20  C   UNL     1      92.804  95.919  76.855  1.00  0.00     0.000 C 
BRANCH  20  21
ATOM     21  C   UNL     1      93.280  96.085  75.386  1.00  0.00     0.003 C 
BRANCH  21  22
ATOM     22  C   UNL     1      94.752  95.629  75.123  1.00  0.00    -0.017 C 
ATOM     23  C   UNL     1      95.712  96.260  76.171  1.00  0.00     0.007 C 
ATOM     24  C   UNL     1      95.251  95.927  73.678  1.00  0.00     0.007 C 
ENDBRANCH  21  22
ENDBRANCH  20  21
ENDBRANCH  19  20
ENDBRANCH  18  19
ENDBRANCH   1  18
TORSDOF 11
ENDMDL
MODEL 6
REMARK VINA RESULT:    -5.631      7.596     11.437
REMARK INTER + INTRA:          -9.676
REMARK INTER:                  -7.670
REMARK INTRA:                  -2.007
REMARK UNBOUND:                -0.589
REMARK SMILES COc1cc(CNC(=O)CCCCCCC(C)C)ccc1O
REMARK SMILES IDX 11 1 10 2 8 3 7 4 9 6 6 7 5 8 3 9 21 10 4 11 20 12 19 13
REMARK SMILES IDX 2 14 1 15 22 16 12 18 13 19 14 20 15 21 16 22 17 23 18 24
REMARK H PARENT 7 5 22 17
REMARK Flexibility Score: inf
ROOT
ATOM      1  C   UNL     1      97.123  81.316  79.555  1.00  0.00     0.010 C 
ENDROOT
BRANCH   1   2
ATOM      2  C   UNL     1      97.777  82.123  78.399  1.00  0.00     0.100 C 
BRANCH   2   3
ATOM      3  C   UNL     1      97.044  82.009  77.118  1.00  0.00     0.220 C 
ATOM      4  N   UNL     1      97.170  82.975  76.164  1.00  0.00    -0.352 N 
ATOM      5  H   UNL     1      97.750  83.757  76.430  1.00  0.00     0.163 HD
ATOM      6  O   UNL     1      96.328  80.996  76.923  1.00  0.00    -0.275 OA
BRANCH   4   7
ATOM      7  C   UNL     1      96.559  82.943  74.870  1.00  0.00     0.151 C 
BRANCH   7   8
ATOM      8  C   UNL     1      97.372  82.219  73.854  1.00  0.00    -0.025 A 
ATOM      9  C   UNL     1      99.391  82.066  72.458  1.00  0.00     0.160 A 
ATOM     10  C   UNL     1      98.949  80.825  71.952  1.00  0.00     0.157 A 
ATOM     11  C   UNL     1      98.592  82.762  73.390  1.00  0.00     0.056 A 
ATOM     12  C   UNL     1      97.718  80.293  72.376  1.00  0.00     0.050 A 
ATOM     13  C   UNL     1      96.939  80.979  73.329  1.00  0.00     0.009 A 
BRANCH   9  14
ATOM     14  O   UNL     1     100.568  82.611  72.022  1.00  0.00    -0.493 OA
ATOM     15  C   UNL     1     100.479  84.013  71.713  1.00  0.00     0.278 C 
ENDBRANCH   9  14
BRANCH  10  16
ATOM     16  O   UNL     1      99.697  80.133  71.052  1.00  0.00    -0.504 OA
ATOM     17  H   UNL     1      99.382  80.319  70.164  1.00  0.00     0.293 HD
ENDBRANCH  10  16
ENDBRANCH   7   8
ENDBRANCH   4   7
ENDBRANCH   2   3
ENDBRANCH   1   2
BRANCH   1  18
ATOM     18  C   UNL     1      97.904  80.009  79.873  1.00  0.00     0.001 C 
BRANCH  18  19
ATOM     19  C   UNL     1      99.439  80.128  79.654  1.00  0.00     0.000 C 
BRANCH  19  20
ATOM     20  C   UNL     1      99.930  79.184  78.521  1.00  0.00     0.000 C 
BRANCH  20  21
ATOM     21  C   UNL     1     100.921  79.847  77.524  1.00  0.00     0.003 C 
BRANCH  21  22
ATOM     22  C   UNL     1     100.275  80.313  76.178  1.00  0.00    -0.017 C 
ATOM     23  C   UNL     1      99.220  79.279  75.694  1.00  0.00     0.007 C 
ATOM     24  C   UNL     1     101.312  80.602  75.054  1.00  0.00     0.007 C 
ENDBRANCH  21  22
ENDBRANCH  20  21
ENDBRANCH  19  20
ENDBRANCH  18  19
ENDBRANCH   1  18
TORSDOF 11
ENDMDL
MODEL 7
REMARK VINA RESULT:    -5.627      6.827     12.424
REMARK INTER + INTRA:          -9.669
REMARK INTER:                  -9.005
REMARK INTRA:                  -0.665
REMARK UNBOUND:                -0.589
REMARK SMILES COc1cc(CNC(=O)CCCCCCC(C)C)ccc1O
REMARK SMILES IDX 11 1 10 2 8 3 7 4 9 6 6 7 5 8 3 9 21 10 4 11 20 12 19 13
REMARK SMILES IDX 2 14 1 15 22 16 12 18 13 19 14 20 15 21 16 22 17 23 18 24
REMARK H PARENT 7 5 22 17
REMARK Flexibility Score: inf
ROOT
ATOM      1  C   UNL     1      96.784  81.277  77.420  1.00  0.00     0.010 C 
ENDROOT
BRANCH   1   2
ATOM      2  C   UNL     1      95.984  82.589  77.187  1.00  0.00     0.100 C 
BRANCH   2   3
ATOM      3  C   UNL     1      96.322  83.260  75.912  1.00  0.00     0.220 C 
ATOM      4  N   UNL     1      97.424  82.880  75.203  1.00  0.00    -0.352 N 
ATOM      5  H   UNL     1      97.980  82.161  75.643  1.00  0.00     0.163 HD
ATOM      6  O   UNL     1      95.562  84.165  75.489  1.00  0.00    -0.275 OA
BRANCH   4   7
ATOM      7  C   UNL     1      97.816  83.415  73.935  1.00  0.00     0.151 C 
BRANCH   7   8
ATOM      8  C   UNL     1      99.271  83.260  73.657  1.00  0.00    -0.025 A 
ATOM      9  C   UNL     1     101.248  81.820  73.398  1.00  0.00     0.160 A 
ATOM     10  C   UNL     1     102.033  82.951  73.085  1.00  0.00     0.157 A 
ATOM     11  C   UNL     1      99.879  81.985  73.699  1.00  0.00     0.056 A 
ATOM     12  C   UNL     1     101.447  84.230  73.077  1.00  0.00     0.050 A 
ATOM     13  C   UNL     1     100.074  84.384  73.351  1.00  0.00     0.009 A 
BRANCH   9  14
ATOM     14  O   UNL     1     101.816  80.576  73.446  1.00  0.00    -0.493 OA
ATOM     15  C   UNL     1     101.465  79.735  72.333  1.00  0.00     0.278 C 
ENDBRANCH   9  14
BRANCH  10  16
ATOM     16  O   UNL     1     103.354  82.822  72.792  1.00  0.00    -0.504 OA
ATOM     17  H   UNL     1     103.594  81.893  72.803  1.00  0.00     0.293 HD
ENDBRANCH  10  16
ENDBRANCH   7   8
ENDBRANCH   4   7
ENDBRANCH   2   3
ENDBRANCH   1   2
BRANCH   1  18
ATOM     18  C   UNL     1      97.787  81.405  78.603  1.00  0.00     0.001 C 
BRANCH  18  19
ATOM     19  C   UNL     1      97.511  80.411  79.767  1.00  0.00     0.000 C 
BRANCH  19  20
ATOM     20  C   UNL     1      97.847  81.042  81.148  1.00  0.00     0.000 C 
BRANCH  20  21
ATOM     21  C   UNL     1      96.641  81.729  81.845  1.00  0.00     0.003 C 
BRANCH  21  22
ATOM     22  C   UNL     1      96.217  81.079  83.202  1.00  0.00    -0.017 C 
ATOM     23  C   UNL     1      96.054  79.541  83.041  1.00  0.00     0.007 C 
ATOM     24  C   UNL     1      94.929  81.701  83.819  1.00  0.00     0.007 C 
ENDBRANCH  21  22
ENDBRANCH  20  21
ENDBRANCH  19  20
ENDBRANCH  18  19
ENDBRANCH   1  18
TORSDOF 11
ENDMDL
MODEL 8
REMARK VINA RESULT:    -5.616     14.532     17.070
REMARK INTER + INTRA:          -9.652
REMARK INTER:                  -8.884
REMARK INTRA:                  -0.768
REMARK UNBOUND:                -0.589
REMARK SMILES COc1cc(CNC(=O)CCCCCCC(C)C)ccc1O
REMARK SMILES IDX 11 1 10 2 8 3 7 4 9 6 6 7 5 8 3 9 21 10 4 11 20 12 19 13
REMARK SMILES IDX 2 14 1 15 22 16 12 18 13 19 14 20 15 21 16 22 17 23 18 24
REMARK H PARENT 7 5 22 17
REMARK Flexibility Score: inf
ROOT
ATOM      1  C   UNL     1      94.730  94.216  79.154  1.00  0.00     0.010 C 
ENDROOT
BRANCH   1   2
ATOM      2  C   UNL     1      95.787  93.483  80.026  1.00  0.00     0.100 C 
BRANCH   2   3
ATOM      3  C   UNL     1      96.861  94.376  80.516  1.00  0.00     0.220 C 
ATOM      4  N   UNL     1      96.689  95.098  81.661  1.00  0.00    -0.352 N 
ATOM      5  H   UNL     1      95.780  94.998  82.089  1.00  0.00     0.163 HD
ATOM      6  O   UNL     1      97.937  94.433  79.871  1.00  0.00    -0.275 OA
BRANCH   4   7
ATOM      7  C   UNL     1      97.675  95.945  82.260  1.00  0.00     0.151 C 
BRANCH   7   8
ATOM      8  C   UNL     1      97.114  97.222  82.779  1.00  0.00    -0.025 A 
ATOM      9  C   UNL     1      96.556  98.689  84.672  1.00  0.00     0.160 A 
ATOM     10  C   UNL     1      96.086  99.673  83.775  1.00  0.00     0.157 A 
ATOM     11  C   UNL     1      97.048  97.466  84.170  1.00  0.00     0.056 A 
ATOM     12  C   UNL     1      96.111  99.426  82.390  1.00  0.00     0.050 A 
ATOM     13  C   UNL     1      96.630  98.214  81.894  1.00  0.00     0.009 A 
BRANCH   9  14
ATOM     14  O   UNL     1      96.501  98.904  86.023  1.00  0.00    -0.493 OA
ATOM     15  C   UNL     1      96.079  97.752  86.776  1.00  0.00     0.278 C 
ENDBRANCH   9  14
BRANCH  10  16
ATOM     16  O   UNL     1      95.606 100.859  84.231  1.00  0.00    -0.504 OA
ATOM     17  H   UNL     1      94.778 100.712  84.694  1.00  0.00     0.293 HD
ENDBRANCH  10  16
ENDBRANCH   7   8
ENDBRANCH   4   7
ENDBRANCH   2   3
ENDBRANCH   1   2
BRANCH   1  18
ATOM     18  C   UNL     1      93.607  93.259  78.664  1.00  0.00     0.001 C 
BRANCH  18  19
ATOM     19  C   UNL     1      92.567  93.939  77.729  1.00  0.00     0.000 C 
BRANCH  19  20
ATOM     20  C   UNL     1      92.845  95.461  77.577  1.00  0.00     0.000 C 
BRANCH  20  21
ATOM     21  C   UNL     1      92.619  96.009  76.140  1.00  0.00     0.003 C 
BRANCH  21  22
ATOM     22  C   UNL     1      93.931  96.290  75.338  1.00  0.00    -0.017 C 
ATOM     23  C   UNL     1      93.698  97.417  74.293  1.00  0.00     0.007 C 
ATOM     24  C   UNL     1      94.529  95.026  74.653  1.00  0.00     0.007 C 
ENDBRANCH  21  22
ENDBRANCH  20  21
ENDBRANCH  19  20
ENDBRANCH  18  19
ENDBRANCH   1  18
TORSDOF 11
ENDMDL
MODEL 9
REMARK VINA RESULT:    -5.551      7.961     11.518
REMARK INTER + INTRA:          -9.547
REMARK INTER:                  -7.532
REMARK INTRA:                  -2.016
REMARK UNBOUND:                -0.589
REMARK SMILES COc1cc(CNC(=O)CCCCCCC(C)C)ccc1O
REMARK SMILES IDX 11 1 10 2 8 3 7 4 9 6 6 7 5 8 3 9 21 10 4 11 20 12 19 13
REMARK SMILES IDX 2 14 1 15 22 16 12 18 13 19 14 20 15 21 16 22 17 23 18 24
REMARK H PARENT 7 5 22 17
REMARK Flexibility Score: inf
ROOT
ATOM      1  C   UNL     1      97.703  80.659  78.823  1.00  0.00     0.010 C 
ENDROOT
BRANCH   1   2
ATOM      2  C   UNL     1      97.114  82.068  78.540  1.00  0.00     0.100 C 
BRANCH   2   3
ATOM      3  C   UNL     1      96.574  82.212  77.170  1.00  0.00     0.220 C 
ATOM      4  N   UNL     1      97.122  83.113  76.304  1.00  0.00    -0.352 N 
ATOM      5  H   UNL     1      97.866  83.673  76.694  1.00  0.00     0.163 HD
ATOM      6  O   UNL     1      95.622  81.474  76.818  1.00  0.00    -0.275 OA
BRANCH   4   7
ATOM      7  C   UNL     1      96.723  83.299  74.942  1.00  0.00     0.151 C 
BRANCH   7   8
ATOM      8  C   UNL     1      97.718  82.780  73.963  1.00  0.00    -0.025 A 
ATOM      9  C   UNL     1      98.496  80.995  72.461  1.00  0.00     0.160 A 
ATOM     10  C   UNL     1      99.585  81.801  72.064  1.00  0.00     0.157 A 
ATOM     11  C   UNL     1      97.583  81.482  73.419  1.00  0.00     0.056 A 
ATOM     12  C   UNL     1      99.752  83.079  72.627  1.00  0.00     0.050 A 
ATOM     13  C   UNL     1      98.821  83.571  73.562  1.00  0.00     0.009 A 
BRANCH   9  14
ATOM     14  O   UNL     1      98.346  79.735  71.948  1.00  0.00    -0.493 OA
ATOM     15  C   UNL     1      97.169  79.054  72.420  1.00  0.00     0.278 C 
ENDBRANCH   9  14
BRANCH  10  16
ATOM     16  O   UNL     1     100.481  81.357  71.144  1.00  0.00    -0.504 OA
ATOM     17  H   UNL     1     100.901  82.108  70.719  1.00  0.00     0.293 HD
ENDBRANCH  10  16
ENDBRANCH   7   8
ENDBRANCH   4   7
ENDBRANCH   2   3
ENDBRANCH   1   2
BRANCH   1  18
ATOM     18  C   UNL     1      98.921  80.338  77.910  1.00  0.00     0.001 C 
BRANCH  18  19
ATOM     19  C   UNL     1      98.593  79.356  76.750  1.00  0.00     0.000 C 
BRANCH  19  20
ATOM     20  C   UNL     1      99.662  79.424  75.623  1.00  0.00     0.000 C 
BRANCH  20  21
ATOM     21  C   UNL     1     100.519  80.720  75.636  1.00  0.00     0.003 C 
BRANCH  21  22
ATOM     22  C   UNL     1     102.003  80.522  75.184  1.00  0.00    -0.017 C 
ATOM     23  C   UNL     1     102.067  79.674  73.882  1.00  0.00     0.007 C 
ATOM     24  C   UNL     1     102.915  79.901  76.284  1.00  0.00     0.007 C 
ENDBRANCH  21  22
ENDBRANCH  20  21
ENDBRANCH  19  20
ENDBRANCH  18  19
ENDBRANCH   1  18
TORSDOF 11
ENDMDL
MODEL 10
REMARK VINA RESULT:    -5.544      1.180      2.052
REMARK INTER + INTRA:          -9.537
REMARK INTER:                  -8.998
REMARK INTRA:                  -0.539
REMARK UNBOUND:                -0.589
REMARK SMILES COc1cc(CNC(=O)CCCCCCC(C)C)ccc1O
REMARK SMILES IDX 11 1 10 2 8 3 7 4 9 6 6 7 5 8 3 9 21 10 4 11 20 12 19 13
REMARK SMILES IDX 2 14 1 15 22 16 12 18 13 19 14 20 15 21 16 22 17 23 18 24
REMARK H PARENT 7 5 22 17
REMARK Flexibility Score: inf
ROOT
ATOM      1  C   UNL     1      95.891  80.602  82.841  1.00  0.00     0.010 C 
ENDROOT
BRANCH   1   2
ATOM      2  C   UNL     1      95.937  80.689  84.392  1.00  0.00     0.100 C 
BRANCH   2   3
ATOM      3  C   UNL     1      94.706  81.262  84.982  1.00  0.00     0.220 C 
ATOM      4  N   UNL     1      93.751  80.444  85.512  1.00  0.00    -0.352 N 
ATOM      5  H   UNL     1      93.944  79.457  85.421  1.00  0.00     0.163 HD
ATOM      6  O   UNL     1      94.575  82.510  85.006  1.00  0.00    -0.275 OA
BRANCH   4   7
ATOM      7  C   UNL     1      92.553  80.884  86.159  1.00  0.00     0.151 C 
BRANCH   7   8
ATOM      8  C   UNL     1      91.320  80.580  85.381  1.00  0.00    -0.025 A 
ATOM      9  C   UNL     1      89.867  78.955  84.242  1.00  0.00     0.160 A 
ATOM     10  C   UNL     1      88.952  79.986  83.935  1.00  0.00     0.157 A 
ATOM     11  C   UNL     1      91.051  79.263  84.945  1.00  0.00     0.056 A 
ATOM     12  C   UNL     1      89.228  81.308  84.329  1.00  0.00     0.050 A 
ATOM     13  C   UNL     1      90.398  81.603  85.056  1.00  0.00     0.009 A 
BRANCH   9  14
ATOM     14  O   UNL     1      89.628  77.673  83.829  1.00  0.00    -0.493 OA
ATOM     15  C   UNL     1      89.222  76.789  84.889  1.00  0.00     0.278 C 
ENDBRANCH   9  14
BRANCH  10  16
ATOM     16  O   UNL     1      87.804  79.719  83.258  1.00  0.00    -0.504 OA
ATOM     17  H   UNL     1      88.017  79.294  82.424  1.00  0.00     0.293 HD
ENDBRANCH  10  16
ENDBRANCH   7   8
ENDBRANCH   4   7
ENDBRANCH   2   3
ENDBRANCH   1   2
BRANCH   1  18
ATOM     18  C   UNL     1      96.623  81.795  82.164  1.00  0.00     0.001 C 
BRANCH  18  19
ATOM     19  C   UNL     1      97.492  81.385  80.942  1.00  0.00     0.000 C 
BRANCH  19  20
ATOM     20  C   UNL     1      97.011  82.082  79.638  1.00  0.00     0.000 C 
BRANCH  20  21
ATOM     21  C   UNL     1      97.379  81.319  78.335  1.00  0.00     0.003 C 
BRANCH  21  22
ATOM     22  C   UNL     1      97.156  82.134  77.020  1.00  0.00    -0.017 C 
ATOM     23  C   UNL     1      95.760  82.819  77.034  1.00  0.00     0.007 C 
ATOM     24  C   UNL     1      97.336  81.290  75.723  1.00  0.00     0.007 C 
ENDBRANCH  21  22
ENDBRANCH  20  21
ENDBRANCH  19  20
ENDBRANCH  18  19
ENDBRANCH   1  18
TORSDOF 11
ENDMDL
