MODEL 1
REMARK VINA RESULT:    -6.889      0.000      0.000
REMARK INTER + INTRA:         -12.789
REMARK INTER:                 -11.320
REMARK INTRA:                  -1.470
REMARK UNBOUND:                -1.470
REMARK SMILES CCCCC[C@H](O)CC(=O)CCc1ccc(O)c(OC)c1
REMARK SMILES IDX 8 1 6 2 7 3 5 5 4 6 3 7 2 8 1 9 9 10 10 11 11 12 12 13 13 14
REMARK SMILES IDX 21 15 14 16 18 17 15 18 16 19 19 20 20 21 17 22
REMARK H PARENT 7 4 17 23
REMARK Flexibility Score: inf
ROOT
ATOM      1  C   UNL     1      90.665  92.771  72.947  1.00  0.00     0.107 C 
ENDROOT
BRANCH   1   2
ATOM      2  C   UNL     1      91.599  91.978  73.865  1.00  0.00     0.121 C 
BRANCH   2   3
ATOM      3  O   UNL     1      92.332  91.024  73.100  1.00  0.00    -0.393 OA
ATOM      4  H   UNL     1      92.253  91.270  72.162  1.00  0.00     0.210 HD
ENDBRANCH   2   3
BRANCH   2   5
ATOM      5  C   UNL     1      92.580  92.869  74.636  1.00  0.00     0.032 C 
BRANCH   5   6
ATOM      6  C   UNL     1      91.993  94.254  74.930  1.00  0.00     0.003 C 
BRANCH   6   7
ATOM      7  C   UNL     1      92.053  94.636  76.413  1.00  0.00    -0.000 C 
BRANCH   7   8
ATOM      8  C   UNL     1      92.565  93.514  77.314  1.00  0.00    -0.003 C 
ATOM      9  C   UNL     1      91.426  92.632  77.802  1.00  0.00     0.004 C 
ENDBRANCH   7   8
ENDBRANCH   6   7
ENDBRANCH   5   6
ENDBRANCH   2   5
ENDBRANCH   1   2
BRANCH   1  10
ATOM     10  C   UNL     1      89.834  91.885  72.033  1.00  0.00     0.135 C 
ATOM     11  O   UNL     1      90.346  91.308  71.074  1.00  0.00    -0.300 OA
BRANCH  10  12
ATOM     12  C   UNL     1      88.366  91.719  72.395  1.00  0.00     0.080 C 
BRANCH  12  13
ATOM     13  C   UNL     1      88.013  90.320  72.906  1.00  0.00     0.043 C 
BRANCH  13  14
ATOM     14  C   UNL     1      88.644  90.000  74.240  1.00  0.00    -0.044 A 
ATOM     15  C   UNL     1      89.454  88.872  74.376  1.00  0.00     0.054 A 
ATOM     16  C   UNL     1      88.418  90.833  75.336  1.00  0.00     0.008 A 
ATOM     17  C   UNL     1      90.037  88.578  75.608  1.00  0.00     0.160 A 
ATOM     18  C   UNL     1      89.002  90.539  76.568  1.00  0.00     0.050 A 
ATOM     19  C   UNL     1      89.811  89.411  76.704  1.00  0.00     0.157 A 
BRANCH  17  20
ATOM     20  O   UNL     1      90.825  87.473  75.729  1.00  0.00    -0.493 OA
ATOM     21  C   UNL     1      91.552  87.065  74.572  1.00  0.00     0.278 C 
ENDBRANCH  17  20
BRANCH  19  22
ATOM     22  O   UNL     1      90.376  89.134  77.912  1.00  0.00    -0.504 OA
ATOM     23  H   UNL     1      89.771  89.423  78.618  1.00  0.00     0.293 HD
ENDBRANCH  19  22
ENDBRANCH  13  14
ENDBRANCH  12  13
ENDBRANCH  10  12
ENDBRANCH   1  10
TORSDOF 12
ENDMDL
MODEL 2
REMARK VINA RESULT:    -6.830      1.365      2.413
REMARK INTER + INTRA:         -12.692
REMARK INTER:                 -11.412
REMARK INTRA:                  -1.280
REMARK UNBOUND:                -1.470
REMARK SMILES CCCCC[C@H](O)CC(=O)CCc1ccc(O)c(OC)c1
REMARK SMILES IDX 8 1 6 2 7 3 5 5 4 6 3 7 2 8 1 9 9 10 10 11 11 12 12 13 13 14
REMARK SMILES IDX 21 15 14 16 18 17 15 18 16 19 19 20 20 21 17 22
REMARK H PARENT 7 4 17 23
REMARK Flexibility Score: inf
ROOT
ATOM      1  C   UNL     1      90.743  93.204  73.803  1.00  0.00     0.107 C 
ENDROOT
BRANCH   1   2
ATOM      2  C   UNL     1      91.869  92.426  74.488  1.00  0.00     0.121 C 
BRANCH   2   3
ATOM      3  O   UNL     1      92.378  91.431  73.602  1.00  0.00    -0.393 OA
ATOM      4  H   UNL     1      93.346  91.418  73.695  1.00  0.00     0.210 HD
ENDBRANCH   2   3
BRANCH   2   5
ATOM      5  C   UNL     1      93.022  93.324  74.954  1.00  0.00     0.032 C 
BRANCH   5   6
ATOM      6  C   UNL     1      92.623  94.200  76.148  1.00  0.00     0.003 C 
BRANCH   6   7
ATOM      7  C   UNL     1      93.526  94.007  77.371  1.00  0.00    -0.000 C 
BRANCH   7   8
ATOM      8  C   UNL     1      94.896  94.667  77.230  1.00  0.00    -0.003 C 
ATOM      9  C   UNL     1      95.987  93.635  76.991  1.00  0.00     0.004 C 
ENDBRANCH   7   8
ENDBRANCH   6   7
ENDBRANCH   5   6
ENDBRANCH   2   5
ENDBRANCH   1   2
BRANCH   1  10
ATOM     10  C   UNL     1      89.946  92.359  72.823  1.00  0.00     0.135 C 
ATOM     11  O   UNL     1      90.281  92.276  71.641  1.00  0.00    -0.300 OA
BRANCH  10  12
ATOM     12  C   UNL     1      88.756  91.599  73.388  1.00  0.00     0.080 C 
BRANCH  12  13
ATOM     13  C   UNL     1      88.878  90.079  73.255  1.00  0.00     0.043 C 
BRANCH  13  14
ATOM     14  C   UNL     1      89.459  89.422  74.484  1.00  0.00    -0.044 A 
ATOM     15  C   UNL     1      89.371  90.058  75.723  1.00  0.00     0.054 A 
ATOM     16  C   UNL     1      90.084  88.179  74.380  1.00  0.00     0.008 A 
ATOM     17  C   UNL     1      89.908  89.449  76.858  1.00  0.00     0.160 A 
ATOM     18  C   UNL     1      90.621  87.571  75.515  1.00  0.00     0.050 A 
ATOM     19  C   UNL     1      90.533  88.206  76.754  1.00  0.00     0.157 A 
BRANCH  17  20
ATOM     20  O   UNL     1      89.816  90.079  78.062  1.00  0.00    -0.493 OA
ATOM     21  C   UNL     1      90.354  91.398  78.146  1.00  0.00     0.278 C 
ENDBRANCH  17  20
BRANCH  19  22
ATOM     22  O   UNL     1      91.061  87.602  77.855  1.00  0.00    -0.504 OA
ATOM     23  H   UNL     1      90.640  86.733  77.972  1.00  0.00     0.293 HD
ENDBRANCH  19  22
ENDBRANCH  13  14
ENDBRANCH  12  13
ENDBRANCH  10  12
ENDBRANCH   1  10
TORSDOF 12
ENDMDL
MODEL 3
REMARK VINA RESULT:    -6.806      2.070      4.140
REMARK INTER + INTRA:         -12.652
REMARK INTER:                 -10.752
REMARK INTRA:                  -1.900
REMARK UNBOUND:                -1.470
REMARK SMILES CCCCC[C@H](O)CC(=O)CCc1ccc(O)c(OC)c1
REMARK SMILES IDX 8 1 6 2 7 3 5 5 4 6 3 7 2 8 1 9 9 10 10 11 11 12 12 13 13 14
REMARK SMILES IDX 21 15 14 16 18 17 15 18 16 19 19 20 20 21 17 22
REMARK H PARENT 7 4 17 23
REMARK Flexibility Score: inf
ROOT
ATOM      1  C   UNL     1      91.947  94.247  76.578  1.00  0.00     0.107 C 
ENDROOT
BRANCH   1   2
ATOM      2  C   UNL     1      90.417  94.228  76.553  1.00  0.00     0.121 C 
BRANCH   2   3
ATOM      3  O   UNL     1      89.952  94.427  75.220  1.00  0.00    -0.393 OA
ATOM      4  H   UNL     1      89.775  95.377  75.106  1.00  0.00     0.210 HD
ENDBRANCH   2   3
BRANCH   2   5
ATOM      5  C   UNL     1      89.824  92.926  77.106  1.00  0.00     0.032 C 
BRANCH   5   6
ATOM      6  C   UNL     1      90.883  92.056  77.793  1.00  0.00     0.003 C 
BRANCH   6   7
ATOM      7  C   UNL     1      90.284  90.943  78.659  1.00  0.00    -0.000 C 
BRANCH   7   8
ATOM      8  C   UNL     1      89.561  89.864  77.855  1.00  0.00    -0.003 C 
ATOM      9  C   UNL     1      89.694  88.500  78.514  1.00  0.00     0.004 C 
ENDBRANCH   7   8
ENDBRANCH   6   7
ENDBRANCH   5   6
ENDBRANCH   2   5
ENDBRANCH   1   2
BRANCH   1  10
ATOM     10  C   UNL     1      92.567  94.077  75.200  1.00  0.00     0.135 C 
ATOM     11  O   UNL     1      92.924  95.054  74.542  1.00  0.00    -0.300 OA
BRANCH  10  12
ATOM     12  C   UNL     1      92.760  92.650  74.711  1.00  0.00     0.080 C 
BRANCH  12  13
ATOM     13  C   UNL     1      91.798  92.248  73.592  1.00  0.00     0.043 C 
BRANCH  13  14
ATOM     14  C   UNL     1      91.013  90.997  73.906  1.00  0.00    -0.044 A 
ATOM     15  C   UNL     1      89.675  90.898  73.526  1.00  0.00     0.054 A 
ATOM     16  C   UNL     1      91.628  89.939  74.578  1.00  0.00     0.008 A 
ATOM     17  C   UNL     1      88.951  89.741  73.817  1.00  0.00     0.160 A 
ATOM     18  C   UNL     1      90.904  88.782  74.868  1.00  0.00     0.050 A 
ATOM     19  C   UNL     1      89.566  88.684  74.488  1.00  0.00     0.157 A 
BRANCH  17  20
ATOM     20  O   UNL     1      87.644  89.657  73.441  1.00  0.00    -0.493 OA
ATOM     21  C   UNL     1      87.125  90.729  72.657  1.00  0.00     0.278 C 
ENDBRANCH  17  20
BRANCH  19  22
ATOM     22  O   UNL     1      88.869  87.550  74.777  1.00  0.00    -0.504 OA
ATOM     23  H   UNL     1      87.926  87.701  74.594  1.00  0.00     0.293 HD
ENDBRANCH  19  22
ENDBRANCH  13  14
ENDBRANCH  12  13
ENDBRANCH  10  12
ENDBRANCH   1  10
TORSDOF 12
ENDMDL
MODEL 4
REMARK VINA RESULT:    -6.584      2.420      6.178
REMARK INTER + INTRA:         -12.288
REMARK INTER:                 -10.776
REMARK INTRA:                  -1.511
REMARK UNBOUND:                -1.470
REMARK SMILES CCCCC[C@H](O)CC(=O)CCc1ccc(O)c(OC)c1
REMARK SMILES IDX 8 1 6 2 7 3 5 5 4 6 3 7 2 8 1 9 9 10 10 11 11 12 12 13 13 14
REMARK SMILES IDX 21 15 14 16 18 17 15 18 16 19 19 20 20 21 17 22
REMARK H PARENT 7 4 17 23
REMARK Flexibility Score: inf
ROOT
ATOM      1  C   UNL     1      90.832  90.299  75.925  1.00  0.00     0.107 C 
ENDROOT
BRANCH   1   2
ATOM      2  C   UNL     1      89.795  89.697  74.975  1.00  0.00     0.121 C 
BRANCH   2   3
ATOM      3  O   UNL     1      88.571  90.421  75.073  1.00  0.00    -0.393 OA
ATOM      4  H   UNL     1      88.565  91.092  74.368  1.00  0.00     0.210 HD
ENDBRANCH   2   3
BRANCH   2   5
ATOM      5  C   UNL     1      90.257  89.682  73.513  1.00  0.00     0.032 C 
BRANCH   5   6
ATOM      6  C   UNL     1      89.132  90.078  72.549  1.00  0.00     0.003 C 
BRANCH   6   7
ATOM      7  C   UNL     1      89.444  91.341  71.739  1.00  0.00    -0.000 C 
BRANCH   7   8
ATOM      8  C   UNL     1      90.243  92.385  72.517  1.00  0.00    -0.003 C 
ATOM      9  C   UNL     1      89.450  93.670  72.696  1.00  0.00     0.004 C 
ENDBRANCH   7   8
ENDBRANCH   6   7
ENDBRANCH   5   6
ENDBRANCH   2   5
ENDBRANCH   1   2
BRANCH   1  10
ATOM     10  C   UNL     1      90.291  90.535  77.326  1.00  0.00     0.135 C 
ATOM     11  O   UNL     1      89.565  89.705  77.872  1.00  0.00    -0.300 OA
BRANCH  10  12
ATOM     12  C   UNL     1      90.730  91.816  78.020  1.00  0.00     0.080 C 
BRANCH  12  13
ATOM     13  C   UNL     1      90.505  93.077  77.184  1.00  0.00     0.043 C 
BRANCH  13  14
ATOM     14  C   UNL     1      91.789  93.683  76.669  1.00  0.00    -0.044 A 
ATOM     15  C   UNL     1      92.931  93.681  77.469  1.00  0.00     0.054 A 
ATOM     16  C   UNL     1      91.831  94.245  75.393  1.00  0.00     0.008 A 
ATOM     17  C   UNL     1      94.117  94.240  76.992  1.00  0.00     0.160 A 
ATOM     18  C   UNL     1      93.017  94.805  74.916  1.00  0.00     0.050 A 
ATOM     19  C   UNL     1      94.159  94.803  75.716  1.00  0.00     0.157 A 
BRANCH  17  20
ATOM     20  O   UNL     1      95.226  94.233  77.783  1.00  0.00    -0.493 OA
ATOM     21  C   UNL     1      95.029  94.447  79.179  1.00  0.00     0.278 C 
ENDBRANCH  17  20
BRANCH  19  22
ATOM     22  O   UNL     1      95.311  95.352  75.240  1.00  0.00    -0.504 OA
ATOM     23  H   UNL     1      95.408  96.249  75.602  1.00  0.00     0.293 HD
ENDBRANCH  19  22
ENDBRANCH  13  14
ENDBRANCH  12  13
ENDBRANCH  10  12
ENDBRANCH   1  10
TORSDOF 12
ENDMDL
MODEL 5
REMARK VINA RESULT:    -6.356      2.962      4.413
REMARK INTER + INTRA:         -11.913
REMARK INTER:                 -10.746
REMARK INTRA:                  -1.168
REMARK UNBOUND:                -1.470
REMARK SMILES CCCCC[C@H](O)CC(=O)CCc1ccc(O)c(OC)c1
REMARK SMILES IDX 8 1 6 2 7 3 5 5 4 6 3 7 2 8 1 9 9 10 10 11 11 12 12 13 13 14
REMARK SMILES IDX 21 15 14 16 18 17 15 18 16 19 19 20 20 21 17 22
REMARK H PARENT 7 4 17 23
REMARK Flexibility Score: inf
ROOT
ATOM      1  C   UNL     1      93.498  93.696  76.697  1.00  0.00     0.107 C 
ENDROOT
BRANCH   1   2
ATOM      2  C   UNL     1      94.928  94.160  76.409  1.00  0.00     0.121 C 
BRANCH   2   3
ATOM      3  O   UNL     1      94.903  95.435  75.771  1.00  0.00    -0.393 OA
ATOM      4  H   UNL     1      94.487  96.066  76.384  1.00  0.00     0.210 HD
ENDBRANCH   2   3
BRANCH   2   5
ATOM      5  C   UNL     1      95.798  94.242  77.669  1.00  0.00     0.032 C 
BRANCH   5   6
ATOM      6  C   UNL     1      94.957  94.406  78.940  1.00  0.00     0.003 C 
BRANCH   6   7
ATOM      7  C   UNL     1      95.770  94.245  80.230  1.00  0.00    -0.000 C 
BRANCH   7   8
ATOM      8  C   UNL     1      95.357  95.213  81.337  1.00  0.00    -0.003 C 
ATOM      9  C   UNL     1      96.067  96.551  81.198  1.00  0.00     0.004 C 
ENDBRANCH   7   8
ENDBRANCH   6   7
ENDBRANCH   5   6
ENDBRANCH   2   5
ENDBRANCH   1   2
BRANCH   1  10
ATOM     10  C   UNL     1      92.471  94.317  75.765  1.00  0.00     0.135 C 
ATOM     11  O   UNL     1      92.626  94.289  74.544  1.00  0.00    -0.300 OA
BRANCH  10  12
ATOM     12  C   UNL     1      91.237  94.923  76.416  1.00  0.00     0.080 C 
BRANCH  12  13
ATOM     13  C   UNL     1      89.946  94.160  76.117  1.00  0.00     0.043 C 
BRANCH  13  14
ATOM     14  C   UNL     1      90.023  92.698  76.485  1.00  0.00    -0.044 A 
ATOM     15  C   UNL     1      89.910  91.722  75.495  1.00  0.00     0.054 A 
ATOM     16  C   UNL     1      90.208  92.323  77.816  1.00  0.00     0.008 A 
ATOM     17  C   UNL     1      89.983  90.371  75.836  1.00  0.00     0.160 A 
ATOM     18  C   UNL     1      90.281  90.973  78.157  1.00  0.00     0.050 A 
ATOM     19  C   UNL     1      90.168  89.997  77.167  1.00  0.00     0.157 A 
BRANCH  17  20
ATOM     20  O   UNL     1      89.871  89.427  74.860  1.00  0.00    -0.493 OA
ATOM     21  C   UNL     1      88.814  89.592  73.917  1.00  0.00     0.278 C 
ENDBRANCH  17  20
BRANCH  19  22
ATOM     22  O   UNL     1      90.240  88.681  77.513  1.00  0.00    -0.504 OA
ATOM     23  H   UNL     1      89.643  88.517  78.263  1.00  0.00     0.293 HD
ENDBRANCH  19  22
ENDBRANCH  13  14
ENDBRANCH  12  13
ENDBRANCH  10  12
ENDBRANCH   1  10
TORSDOF 12
ENDMDL
MODEL 6
REMARK VINA RESULT:    -6.167      2.430      3.978
REMARK INTER + INTRA:         -11.603
REMARK INTER:                 -10.452
REMARK INTRA:                  -1.151
REMARK UNBOUND:                -1.470
REMARK SMILES CCCCC[C@H](O)CC(=O)CCc1ccc(O)c(OC)c1
REMARK SMILES IDX 8 1 6 2 7 3 5 5 4 6 3 7 2 8 1 9 9 10 10 11 11 12 12 13 13 14
REMARK SMILES IDX 21 15 14 16 18 17 15 18 16 19 19 20 20 21 17 22
REMARK H PARENT 7 4 17 23
REMARK Flexibility Score: inf
ROOT
ATOM      1  C   UNL     1      92.780  93.585  76.915  1.00  0.00     0.107 C 
ENDROOT
BRANCH   1   2
ATOM      2  C   UNL     1      93.089  93.780  75.429  1.00  0.00     0.121 C 
BRANCH   2   3
ATOM      3  O   UNL     1      91.994  93.318  74.642  1.00  0.00    -0.393 OA
ATOM      4  H   UNL     1      92.284  92.519  74.169  1.00  0.00     0.210 HD
ENDBRANCH   2   3
BRANCH   2   5
ATOM      5  C   UNL     1      93.391  95.239  75.065  1.00  0.00     0.032 C 
BRANCH   5   6
ATOM      6  C   UNL     1      94.896  95.498  74.921  1.00  0.00     0.003 C 
BRANCH   6   7
ATOM      7  C   UNL     1      95.579  95.854  76.246  1.00  0.00    -0.000 C 
BRANCH   7   8
ATOM      8  C   UNL     1      96.835  95.031  76.527  1.00  0.00    -0.003 C 
ATOM      9  C   UNL     1      96.549  93.539  76.450  1.00  0.00     0.004 C 
ENDBRANCH   7   8
ENDBRANCH   6   7
ENDBRANCH   5   6
ENDBRANCH   2   5
ENDBRANCH   1   2
BRANCH   1  10
ATOM     10  C   UNL     1      91.306  93.336  77.189  1.00  0.00     0.135 C 
ATOM     11  O   UNL     1      90.441  94.078  76.723  1.00  0.00    -0.300 OA
BRANCH  10  12
ATOM     12  C   UNL     1      90.965  92.110  78.022  1.00  0.00     0.080 C 
BRANCH  12  13
ATOM     13  C   UNL     1      89.733  91.352  77.524  1.00  0.00     0.043 C 
BRANCH  13  14
ATOM     14  C   UNL     1      90.079  90.110  76.739  1.00  0.00    -0.044 A 
ATOM     15  C   UNL     1      90.323  90.196  75.368  1.00  0.00     0.054 A 
ATOM     16  C   UNL     1      90.155  88.875  77.385  1.00  0.00     0.008 A 
ATOM     17  C   UNL     1      90.643  89.048  74.644  1.00  0.00     0.160 A 
ATOM     18  C   UNL     1      90.476  87.727  76.660  1.00  0.00     0.050 A 
ATOM     19  C   UNL     1      90.720  87.813  75.290  1.00  0.00     0.157 A 
BRANCH  17  20
ATOM     20  O   UNL     1      90.879  89.144  73.305  1.00  0.00    -0.493 OA
ATOM     21  C   UNL     1      90.007  89.986  72.553  1.00  0.00     0.278 C 
ENDBRANCH  17  20
BRANCH  19  22
ATOM     22  O   UNL     1      91.032  86.685  74.593  1.00  0.00    -0.504 OA
ATOM     23  H   UNL     1      90.388  85.990  74.811  1.00  0.00     0.293 HD
ENDBRANCH  19  22
ENDBRANCH  13  14
ENDBRANCH  12  13
ENDBRANCH  10  12
ENDBRANCH   1  10
TORSDOF 12
ENDMDL
MODEL 7
REMARK VINA RESULT:    -6.107     12.478     14.963
REMARK INTER + INTRA:         -11.504
REMARK INTER:                  -9.314
REMARK INTRA:                  -2.190
REMARK UNBOUND:                -1.470
REMARK SMILES CCCCC[C@H](O)CC(=O)CCc1ccc(O)c(OC)c1
REMARK SMILES IDX 8 1 6 2 7 3 5 5 4 6 3 7 2 8 1 9 9 10 10 11 11 12 12 13 13 14
REMARK SMILES IDX 21 15 14 16 18 17 15 18 16 19 19 20 20 21 17 22
REMARK H PARENT 7 4 17 23
REMARK Flexibility Score: inf
ROOT
ATOM      1  C   UNL     1      83.781  91.492  87.075  1.00  0.00     0.107 C 
ENDROOT
BRANCH   1   2
ATOM      2  C   UNL     1      83.902  90.442  88.183  1.00  0.00     0.121 C 
BRANCH   2   3
ATOM      3  O   UNL     1      84.405  91.048  89.371  1.00  0.00    -0.393 OA
ATOM      4  H   UNL     1      84.271  90.422  90.104  1.00  0.00     0.210 HD
ENDBRANCH   2   3
BRANCH   2   5
ATOM      5  C   UNL     1      82.573  89.744  88.496  1.00  0.00     0.032 C 
BRANCH   5   6
ATOM      6  C   UNL     1      81.368  90.660  88.247  1.00  0.00     0.003 C 
BRANCH   6   7
ATOM      7  C   UNL     1      80.076  89.894  87.948  1.00  0.00    -0.000 C 
BRANCH   7   8
ATOM      8  C   UNL     1      80.163  88.401  88.259  1.00  0.00    -0.003 C 
ATOM      9  C   UNL     1      79.321  88.038  89.473  1.00  0.00     0.004 C 
ENDBRANCH   7   8
ENDBRANCH   6   7
ENDBRANCH   5   6
ENDBRANCH   2   5
ENDBRANCH   1   2
BRANCH   1  10
ATOM     10  C   UNL     1      84.643  91.180  85.862  1.00  0.00     0.135 C 
ATOM     11  O   UNL     1      85.801  91.590  85.787  1.00  0.00    -0.300 OA
BRANCH  10  12
ATOM     12  C   UNL     1      84.015  90.308  84.786  1.00  0.00     0.080 C 
BRANCH  12  13
ATOM     13  C   UNL     1      82.507  90.511  84.632  1.00  0.00     0.043 C 
BRANCH  13  14
ATOM     14  C   UNL     1      81.724  89.223  84.724  1.00  0.00    -0.044 A 
ATOM     15  C   UNL     1      82.361  88.045  85.114  1.00  0.00     0.054 A 
ATOM     16  C   UNL     1      80.362  89.212  84.418  1.00  0.00     0.008 A 
ATOM     17  C   UNL     1      81.636  86.857  85.199  1.00  0.00     0.160 A 
ATOM     18  C   UNL     1      79.638  88.023  84.503  1.00  0.00     0.050 A 
ATOM     19  C   UNL     1      80.275  86.845  84.894  1.00  0.00     0.157 A 
BRANCH  17  20
ATOM     20  O   UNL     1      82.269  85.712  85.581  1.00  0.00    -0.493 OA
ATOM     21  C   UNL     1      82.463  85.515  86.981  1.00  0.00     0.278 C 
ENDBRANCH  17  20
BRANCH  19  22
ATOM     22  O   UNL     1      79.557  85.691  84.973  1.00  0.00    -0.504 OA
ATOM     23  H   UNL     1      79.207  85.597  85.876  1.00  0.00     0.293 HD
ENDBRANCH  19  22
ENDBRANCH  13  14
ENDBRANCH  12  13
ENDBRANCH  10  12
ENDBRANCH   1  10
TORSDOF 12
ENDMDL
MODEL 8
REMARK VINA RESULT:    -5.992      4.163      7.533
REMARK INTER + INTRA:         -11.315
REMARK INTER:                 -10.068
REMARK INTRA:                  -1.247
REMARK UNBOUND:                -1.470
REMARK SMILES CCCCC[C@H](O)CC(=O)CCc1ccc(O)c(OC)c1
REMARK SMILES IDX 8 1 6 2 7 3 5 5 4 6 3 7 2 8 1 9 9 10 10 11 11 12 12 13 13 14
REMARK SMILES IDX 21 15 14 16 18 17 15 18 16 19 19 20 20 21 17 22
REMARK H PARENT 7 4 17 23
REMARK Flexibility Score: inf
ROOT
ATOM      1  C   UNL     1      92.088  93.184  76.956  1.00  0.00     0.107 C 
ENDROOT
BRANCH   1   2
ATOM      2  C   UNL     1      90.655  93.700  76.813  1.00  0.00     0.121 C 
BRANCH   2   3
ATOM      3  O   UNL     1      90.368  93.957  75.440  1.00  0.00    -0.393 OA
ATOM      4  H   UNL     1      91.076  94.524  75.089  1.00  0.00     0.210 HD
ENDBRANCH   2   3
BRANCH   2   5
ATOM      5  C   UNL     1      89.608  92.730  77.375  1.00  0.00     0.032 C 
BRANCH   5   6
ATOM      6  C   UNL     1      90.208  91.355  77.692  1.00  0.00     0.003 C 
BRANCH   6   7
ATOM      7  C   UNL     1      89.521  90.207  76.947  1.00  0.00    -0.000 C 
BRANCH   7   8
ATOM      8  C   UNL     1      88.779  90.651  75.688  1.00  0.00    -0.003 C 
ATOM      9  C   UNL     1      89.584  90.348  74.433  1.00  0.00     0.004 C 
ENDBRANCH   7   8
ENDBRANCH   6   7
ENDBRANCH   5   6
ENDBRANCH   2   5
ENDBRANCH   1   2
BRANCH   1  10
ATOM     10  C   UNL     1      92.892  93.292  75.670  1.00  0.00     0.135 C 
ATOM     11  O   UNL     1      92.657  92.555  74.713  1.00  0.00    -0.300 OA
BRANCH  10  12
ATOM     12  C   UNL     1      93.955  94.379  75.620  1.00  0.00     0.080 C 
BRANCH  12  13
ATOM     13  C   UNL     1      95.296  93.955  76.223  1.00  0.00     0.043 C 
BRANCH  13  14
ATOM     14  C   UNL     1      95.657  94.732  77.466  1.00  0.00    -0.044 A 
ATOM     15  C   UNL     1      95.147  94.344  78.705  1.00  0.00     0.054 A 
ATOM     16  C   UNL     1      96.502  95.839  77.376  1.00  0.00     0.008 A 
ATOM     17  C   UNL     1      95.482  95.062  79.853  1.00  0.00     0.160 A 
ATOM     18  C   UNL     1      96.837  96.557  78.524  1.00  0.00     0.050 A 
ATOM     19  C   UNL     1      96.327  96.168  79.762  1.00  0.00     0.157 A 
BRANCH  17  20
ATOM     20  O   UNL     1      94.977  94.673  81.057  1.00  0.00    -0.493 OA
ATOM     21  C   UNL     1      95.718  93.696  81.786  1.00  0.00     0.278 C 
ENDBRANCH  17  20
BRANCH  19  22
ATOM     22  O   UNL     1      96.661  96.877  80.876  1.00  0.00    -0.504 OA
ATOM     23  H   UNL     1      96.278  96.441  81.656  1.00  0.00     0.293 HD
ENDBRANCH  19  22
ENDBRANCH  13  14
ENDBRANCH  12  13
ENDBRANCH  10  12
ENDBRANCH   1  10
TORSDOF 12
ENDMDL
MODEL 9
REMARK VINA RESULT:    -5.834      2.891      4.209
REMARK INTER + INTRA:         -11.055
REMARK INTER:                 -10.356
REMARK INTRA:                  -0.699
REMARK UNBOUND:                -1.470
REMARK SMILES CCCCC[C@H](O)CC(=O)CCc1ccc(O)c(OC)c1
REMARK SMILES IDX 8 1 6 2 7 3 5 5 4 6 3 7 2 8 1 9 9 10 10 11 11 12 12 13 13 14
REMARK SMILES IDX 21 15 14 16 18 17 15 18 16 19 19 20 20 21 17 22
REMARK H PARENT 7 4 17 23
REMARK Flexibility Score: inf
ROOT
ATOM      1  C   UNL     1      92.512  93.024  76.811  1.00  0.00     0.107 C 
ENDROOT
BRANCH   1   2
ATOM      2  C   UNL     1      93.634  94.039  77.040  1.00  0.00     0.121 C 
BRANCH   2   3
ATOM      3  O   UNL     1      94.155  93.896  78.359  1.00  0.00    -0.393 OA
ATOM      4  H   UNL     1      95.126  93.937  78.302  1.00  0.00     0.210 HD
ENDBRANCH   2   3
BRANCH   2   5
ATOM      5  C   UNL     1      94.779  93.907  76.028  1.00  0.00     0.032 C 
BRANCH   5   6
ATOM      6  C   UNL     1      96.154  93.934  76.706  1.00  0.00     0.003 C 
BRANCH   6   7
ATOM      7  C   UNL     1      96.944  95.216  76.423  1.00  0.00    -0.000 C 
BRANCH   7   8
ATOM      8  C   UNL     1      96.818  96.268  77.523  1.00  0.00    -0.003 C 
ATOM      9  C   UNL     1      97.051  95.663  78.899  1.00  0.00     0.004 C 
ENDBRANCH   7   8
ENDBRANCH   6   7
ENDBRANCH   5   6
ENDBRANCH   2   5
ENDBRANCH   1   2
BRANCH   1  10
ATOM     10  C   UNL     1      91.427  93.535  75.878  1.00  0.00     0.135 C 
ATOM     11  O   UNL     1      91.657  93.727  74.684  1.00  0.00    -0.300 OA
BRANCH  10  12
ATOM     12  C   UNL     1      90.049  93.748  76.486  1.00  0.00     0.080 C 
BRANCH  12  13
ATOM     13  C   UNL     1      89.611  92.623  77.425  1.00  0.00     0.043 C 
BRANCH  13  14
ATOM     14  C   UNL     1      89.589  91.269  76.757  1.00  0.00    -0.044 A 
ATOM     15  C   UNL     1      88.969  91.112  75.518  1.00  0.00     0.054 A 
ATOM     16  C   UNL     1      90.190  90.174  77.381  1.00  0.00     0.008 A 
ATOM     17  C   UNL     1      88.951  89.861  74.901  1.00  0.00     0.160 A 
ATOM     18  C   UNL     1      90.171  88.923  76.764  1.00  0.00     0.050 A 
ATOM     19  C   UNL     1      89.552  88.767  75.524  1.00  0.00     0.157 A 
BRANCH  17  20
ATOM     20  O   UNL     1      88.342  89.720  73.690  1.00  0.00    -0.493 OA
ATOM     21  C   UNL     1      88.838  90.520  72.618  1.00  0.00     0.278 C 
ENDBRANCH  17  20
BRANCH  19  22
ATOM     22  O   UNL     1      89.540  87.540  74.932  1.00  0.00    -0.504 OA
ATOM     23  H   UNL     1      89.483  86.856  75.621  1.00  0.00     0.293 HD
ENDBRANCH  19  22
ENDBRANCH  13  14
ENDBRANCH  12  13
ENDBRANCH  10  12
ENDBRANCH   1  10
TORSDOF 12
ENDMDL
MODEL 10
REMARK VINA RESULT:    -5.688     13.328     15.978
REMARK INTER + INTRA:         -10.816
REMARK INTER:                  -8.535
REMARK INTRA:                  -2.281
REMARK UNBOUND:                -1.470
REMARK SMILES CCCCC[C@H](O)CC(=O)CCc1ccc(O)c(OC)c1
REMARK SMILES IDX 8 1 6 2 7 3 5 5 4 6 3 7 2 8 1 9 9 10 10 11 11 12 12 13 13 14
REMARK SMILES IDX 21 15 14 16 18 17 15 18 16 19 19 20 20 21 17 22
REMARK H PARENT 7 4 17 23
REMARK Flexibility Score: inf
ROOT
ATOM      1  C   UNL     1      80.251  86.040  85.457  1.00  0.00     0.107 C 
ENDROOT
BRANCH   1   2
ATOM      2  C   UNL     1      80.299  87.008  84.272  1.00  0.00     0.121 C 
BRANCH   2   3
ATOM      3  O   UNL     1      79.469  86.525  83.219  1.00  0.00    -0.393 OA
ATOM      4  H   UNL     1      80.046  86.126  82.544  1.00  0.00     0.210 HD
ENDBRANCH   2   3
BRANCH   2   5
ATOM      5  C   UNL     1      79.867  88.432  84.643  1.00  0.00     0.032 C 
BRANCH   5   6
ATOM      6  C   UNL     1      80.907  89.478  84.223  1.00  0.00     0.003 C 
BRANCH   6   7
ATOM      7  C   UNL     1      81.950  89.765  85.308  1.00  0.00    -0.000 C 
BRANCH   7   8
ATOM      8  C   UNL     1      83.275  89.035  85.090  1.00  0.00    -0.003 C 
ATOM      9  C   UNL     1      84.338  89.514  86.067  1.00  0.00     0.004 C 
ENDBRANCH   7   8
ENDBRANCH   6   7
ENDBRANCH   5   6
ENDBRANCH   2   5
ENDBRANCH   1   2
BRANCH   1  10
ATOM     10  C   UNL     1      81.607  85.828  86.109  1.00  0.00     0.135 C 
ATOM     11  O   UNL     1      82.580  85.471  85.445  1.00  0.00    -0.300 OA
BRANCH  10  12
ATOM     12  C   UNL     1      81.702  86.124  87.598  1.00  0.00     0.080 C 
BRANCH  12  13
ATOM     13  C   UNL     1      80.498  86.892  88.150  1.00  0.00     0.043 C 
BRANCH  13  14
ATOM     14  C   UNL     1      80.805  88.341  88.443  1.00  0.00    -0.044 A 
ATOM     15  C   UNL     1      82.064  88.706  88.917  1.00  0.00     0.054 A 
ATOM     16  C   UNL     1      79.826  89.315  88.240  1.00  0.00     0.008 A 
ATOM     17  C   UNL     1      82.346  90.046  89.187  1.00  0.00     0.160 A 
ATOM     18  C   UNL     1      80.108  90.654  88.509  1.00  0.00     0.050 A 
ATOM     19  C   UNL     1      81.368  91.019  88.984  1.00  0.00     0.157 A 
BRANCH  17  20
ATOM     20  O   UNL     1      83.580  90.390  89.651  1.00  0.00    -0.493 OA
ATOM     21  C   UNL     1      83.820  90.218  91.046  1.00  0.00     0.278 C 
ENDBRANCH  17  20
BRANCH  19  22
ATOM     22  O   UNL     1      81.631  92.330  89.244  1.00  0.00    -0.504 OA
ATOM     23  H   UNL     1      81.471  92.504  90.187  1.00  0.00     0.293 HD
ENDBRANCH  19  22
ENDBRANCH  13  14
ENDBRANCH  12  13
ENDBRANCH  10  12
ENDBRANCH   1  10
TORSDOF 12
ENDMDL
