MODEL 1
REMARK VINA RESULT:    -6.109      0.000      0.000
REMARK INTER + INTRA:         -10.441
REMARK INTER:                  -9.859
REMARK INTRA:                  -0.581
REMARK UNBOUND:                -0.581
REMARK SMILES CCCCCCCCC(=O)NCc1ccc(O)c(OC)c1
REMARK SMILES IDX 7 1 6 2 5 3 4 4 3 5 2 6 1 7 8 8 9 9 10 10 11 11 12 13 13 14
REMARK SMILES IDX 21 15 14 16 18 17 15 18 16 19 19 20 20 21 17 22
REMARK H PARENT 11 12 17 23
REMARK Flexibility Score: inf
ROOT
ATOM      1  C   UNL     1      91.256  95.340  76.775  1.00  0.00     0.010 C 
ENDROOT
BRANCH   1   2
ATOM      2  C   UNL     1      89.927  94.582  76.492  1.00  0.00     0.001 C 
BRANCH   2   3
ATOM      3  C   UNL     1      90.155  93.059  76.262  1.00  0.00     0.000 C 
BRANCH   3   4
ATOM      4  C   UNL     1      90.636  92.706  74.826  1.00  0.00    -0.000 C 
BRANCH   4   5
ATOM      5  C   UNL     1      89.816  91.552  74.185  1.00  0.00    -0.000 C 
BRANCH   5   6
ATOM      6  C   UNL     1      90.565  90.193  74.228  1.00  0.00    -0.003 C 
ATOM      7  C   UNL     1      89.867  89.151  75.130  1.00  0.00     0.004 C 
ENDBRANCH   5   6
ENDBRANCH   4   5
ENDBRANCH   3   4
ENDBRANCH   2   3
ENDBRANCH   1   2
BRANCH   1   8
ATOM      8  C   UNL     1      92.089  94.735  77.940  1.00  0.00     0.100 C 
BRANCH   8   9
ATOM      9  C   UNL     1      93.493  95.210  77.902  1.00  0.00     0.220 C 
ATOM     10  O   UNL     1      94.393  94.441  78.316  1.00  0.00    -0.275 OA
ATOM     11  N   UNL     1      93.795  96.444  77.401  1.00  0.00    -0.352 N 
ATOM     12  H   UNL     1      92.990  97.012  77.177  1.00  0.00     0.163 HD
BRANCH  11  13
ATOM     13  C   UNL     1      95.112  96.958  77.181  1.00  0.00     0.151 C 
BRANCH  13  14
ATOM     14  C   UNL     1      95.815  97.364  78.428  1.00  0.00    -0.025 A 
ATOM     15  C   UNL     1      97.092  96.833  78.731  1.00  0.00     0.056 A 
ATOM     16  C   UNL     1      95.224  98.278  79.331  1.00  0.00     0.009 A 
ATOM     17  C   UNL     1      97.779  97.222  79.903  1.00  0.00     0.160 A 
ATOM     18  C   UNL     1      95.903  98.670  80.498  1.00  0.00     0.050 A 
ATOM     19  C   UNL     1      97.174  98.140  80.792  1.00  0.00     0.157 A 
BRANCH  17  20
ATOM     20  O   UNL     1      98.998  96.675  80.216  1.00  0.00    -0.493 OA
ATOM     21  C   UNL     1      99.966  96.747  79.155  1.00  0.00     0.278 C 
ENDBRANCH  17  20
BRANCH  19  22
ATOM     22  O   UNL     1      97.810  98.504  81.935  1.00  0.00    -0.504 OA
ATOM     23  H   UNL     1      98.284  99.326  81.790  1.00  0.00     0.293 HD
ENDBRANCH  19  22
ENDBRANCH  13  14
ENDBRANCH  11  13
ENDBRANCH   8   9
ENDBRANCH   1   8
TORSDOF 11
ENDMDL
MODEL 2
REMARK VINA RESULT:    -5.933      3.697      5.449
REMARK INTER + INTRA:         -10.157
REMARK INTER:                  -9.126
REMARK INTRA:                  -1.031
REMARK UNBOUND:                -0.581
REMARK SMILES CCCCCCCCC(=O)NCc1ccc(O)c(OC)c1
REMARK SMILES IDX 7 1 6 2 5 3 4 4 3 5 2 6 1 7 8 8 9 9 10 10 11 11 12 13 13 14
REMARK SMILES IDX 21 15 14 16 18 17 15 18 16 19 19 20 20 21 17 22
REMARK H PARENT 11 12 17 23
REMARK Flexibility Score: inf
ROOT
ATOM      1  C   UNL     1      94.617  94.902  78.125  1.00  0.00     0.010 C 
ENDROOT
BRANCH   1   2
ATOM      2  C   UNL     1      93.068  95.024  78.197  1.00  0.00     0.001 C 
BRANCH   2   3
ATOM      3  C   UNL     1      92.406  94.960  76.789  1.00  0.00     0.000 C 
BRANCH   3   4
ATOM      4  C   UNL     1      91.023  95.668  76.713  1.00  0.00    -0.000 C 
BRANCH   4   5
ATOM      5  C   UNL     1      89.864  94.686  76.379  1.00  0.00    -0.000 C 
BRANCH   5   6
ATOM      6  C   UNL     1      90.366  93.244  76.098  1.00  0.00    -0.003 C 
ATOM      7  C   UNL     1      89.711  92.191  77.019  1.00  0.00     0.004 C 
ENDBRANCH   5   6
ENDBRANCH   4   5
ENDBRANCH   3   4
ENDBRANCH   2   3
ENDBRANCH   1   2
BRANCH   1   8
ATOM      8  C   UNL     1      95.371  95.946  78.996  1.00  0.00     0.100 C 
BRANCH   8   9
ATOM      9  C   UNL     1      96.015  96.985  78.157  1.00  0.00     0.220 C 
ATOM     10  O   UNL     1      97.263  97.101  78.207  1.00  0.00    -0.275 OA
ATOM     11  N   UNL     1      95.266  97.773  77.331  1.00  0.00    -0.352 N 
ATOM     12  H   UNL     1      94.268  97.655  77.434  1.00  0.00     0.163 HD
BRANCH  11  13
ATOM     13  C   UNL     1      95.778  98.707  76.376  1.00  0.00     0.151 C 
BRANCH  13  14
ATOM     14  C   UNL     1      95.832  98.178  74.987  1.00  0.00    -0.025 A 
ATOM     15  C   UNL     1      96.894  98.543  74.126  1.00  0.00     0.056 A 
ATOM     16  C   UNL     1      94.828  97.308  74.501  1.00  0.00     0.009 A 
ATOM     17  C   UNL     1      96.968  98.035  72.809  1.00  0.00     0.160 A 
ATOM     18  C   UNL     1      94.896  96.798  73.192  1.00  0.00     0.050 A 
ATOM     19  C   UNL     1      95.957  97.164  72.342  1.00  0.00     0.157 A 
BRANCH  17  20
ATOM     20  O   UNL     1      97.975  98.423  71.962  1.00  0.00    -0.493 OA
ATOM     21  C   UNL     1      99.288  98.008  72.379  1.00  0.00     0.278 C 
ENDBRANCH  17  20
BRANCH  19  22
ATOM     22  O   UNL     1      95.999  96.688  71.071  1.00  0.00    -0.504 OA
ATOM     23  H   UNL     1      96.761  97.056  70.617  1.00  0.00     0.293 HD
ENDBRANCH  19  22
ENDBRANCH  13  14
ENDBRANCH  11  13
ENDBRANCH   8   9
ENDBRANCH   1   8
TORSDOF 11
ENDMDL
MODEL 3
REMARK VINA RESULT:    -5.856      1.519      2.487
REMARK INTER + INTRA:         -10.032
REMARK INTER:                  -9.474
REMARK INTRA:                  -0.558
REMARK UNBOUND:                -0.581
REMARK SMILES CCCCCCCCC(=O)NCc1ccc(O)c(OC)c1
REMARK SMILES IDX 7 1 6 2 5 3 4 4 3 5 2 6 1 7 8 8 9 9 10 10 11 11 12 13 13 14
REMARK SMILES IDX 21 15 14 16 18 17 15 18 16 19 19 20 20 21 17 22
REMARK H PARENT 11 12 17 23
REMARK Flexibility Score: inf
ROOT
ATOM      1  C   UNL     1      92.466  95.783  77.190  1.00  0.00     0.010 C 
ENDROOT
BRANCH   1   2
ATOM      2  C   UNL     1      90.991  95.559  76.748  1.00  0.00     0.001 C 
BRANCH   2   3
ATOM      3  C   UNL     1      90.659  94.052  76.544  1.00  0.00     0.000 C 
BRANCH   3   4
ATOM      4  C   UNL     1      91.048  93.509  75.140  1.00  0.00    -0.000 C 
BRANCH   4   5
ATOM      5  C   UNL     1      89.956  92.584  74.530  1.00  0.00    -0.000 C 
BRANCH   5   6
ATOM      6  C   UNL     1      90.495  91.169  74.191  1.00  0.00    -0.003 C 
ATOM      7  C   UNL     1      89.709  90.042  74.897  1.00  0.00     0.004 C 
ENDBRANCH   5   6
ENDBRANCH   4   5
ENDBRANCH   3   4
ENDBRANCH   2   3
ENDBRANCH   1   2
BRANCH   1   8
ATOM      8  C   UNL     1      92.937  94.825  78.320  1.00  0.00     0.100 C 
BRANCH   8   9
ATOM      9  C   UNL     1      94.355  95.067  78.677  1.00  0.00     0.220 C 
ATOM     10  O   UNL     1      94.977  94.167  79.290  1.00  0.00    -0.275 OA
ATOM     11  N   UNL     1      94.972  96.232  78.319  1.00  0.00    -0.352 N 
ATOM     12  H   UNL     1      94.358  96.920  77.907  1.00  0.00     0.163 HD
BRANCH  11  13
ATOM     13  C   UNL     1      96.364  96.524  78.479  1.00  0.00     0.151 C 
BRANCH  13  14
ATOM     14  C   UNL     1      96.745  96.888  79.870  1.00  0.00    -0.025 A 
ATOM     15  C   UNL     1      96.281  98.096  80.443  1.00  0.00     0.056 A 
ATOM     16  C   UNL     1      97.576  96.043  80.640  1.00  0.00     0.009 A 
ATOM     17  C   UNL     1      96.621  98.447  81.770  1.00  0.00     0.160 A 
ATOM     18  C   UNL     1      97.917  96.386  81.961  1.00  0.00     0.050 A 
ATOM     19  C   UNL     1      97.449  97.588  82.526  1.00  0.00     0.157 A 
BRANCH  17  20
ATOM     20  O   UNL     1      96.205  99.638  82.309  1.00  0.00    -0.493 OA
ATOM     21  C   UNL     1      94.837  99.972  82.014  1.00  0.00     0.278 C 
ENDBRANCH  17  20
BRANCH  19  22
ATOM     22  O   UNL     1      97.807  97.923  83.792  1.00  0.00    -0.504 OA
ATOM     23  H   UNL     1      98.385  97.246  84.151  1.00  0.00     0.293 HD
ENDBRANCH  19  22
ENDBRANCH  13  14
ENDBRANCH  11  13
ENDBRANCH   8   9
ENDBRANCH   1   8
TORSDOF 11
ENDMDL
MODEL 4
REMARK VINA RESULT:    -5.765     12.220     14.597
REMARK INTER + INTRA:          -9.885
REMARK INTER:                  -8.745
REMARK INTRA:                  -1.140
REMARK UNBOUND:                -0.581
REMARK SMILES CCCCCCCCC(=O)NCc1ccc(O)c(OC)c1
REMARK SMILES IDX 7 1 6 2 5 3 4 4 3 5 2 6 1 7 8 8 9 9 10 10 11 11 12 13 13 14
REMARK SMILES IDX 21 15 14 16 18 17 15 18 16 19 19 20 20 21 17 22
REMARK H PARENT 11 12 17 23
REMARK Flexibility Score: inf
ROOT
ATOM      1  C   UNL     1      98.897  84.861  74.099  1.00  0.00     0.010 C 
ENDROOT
BRANCH   1   2
ATOM      2  C   UNL     1      99.940  83.707  74.140  1.00  0.00     0.001 C 
BRANCH   2   3
ATOM      3  C   UNL     1     100.802  83.738  75.436  1.00  0.00     0.000 C 
BRANCH   3   4
ATOM      4  C   UNL     1     102.332  83.644  75.174  1.00  0.00    -0.000 C 
BRANCH   4   5
ATOM      5  C   UNL     1     102.957  82.333  75.730  1.00  0.00    -0.000 C 
BRANCH   5   6
ATOM      6  C   UNL     1     102.148  81.744  76.917  1.00  0.00    -0.003 C 
ATOM      7  C   UNL     1     103.043  81.316  78.100  1.00  0.00     0.004 C 
ENDBRANCH   5   6
ENDBRANCH   4   5
ENDBRANCH   3   4
ENDBRANCH   2   3
ENDBRANCH   1   2
BRANCH   1   8
ATOM      8  C   UNL     1      97.422  84.380  74.192  1.00  0.00     0.100 C 
BRANCH   8   9
ATOM      9  C   UNL     1      96.881  84.558  75.561  1.00  0.00     0.220 C 
ATOM     10  O   UNL     1      96.187  85.576  75.799  1.00  0.00    -0.275 OA
ATOM     11  N   UNL     1      97.113  83.621  76.527  1.00  0.00    -0.352 N 
ATOM     12  H   UNL     1      97.753  82.890  76.253  1.00  0.00     0.163 HD
BRANCH  11  13
ATOM     13  C   UNL     1      96.533  83.607  77.835  1.00  0.00     0.151 C 
BRANCH  13  14
ATOM     14  C   UNL     1      97.410  83.004  78.874  1.00  0.00    -0.025 A 
ATOM     15  C   UNL     1      97.033  83.050  80.238  1.00  0.00     0.056 A 
ATOM     16  C   UNL     1      98.629  82.381  78.524  1.00  0.00     0.009 A 
ATOM     17  C   UNL     1      97.847  82.466  81.236  1.00  0.00     0.160 A 
ATOM     18  C   UNL     1      99.443  81.797  79.512  1.00  0.00     0.050 A 
ATOM     19  C   UNL     1      99.061  81.844  80.866  1.00  0.00     0.157 A 
BRANCH  17  20
ATOM     20  O   UNL     1      97.501  82.549  82.561  1.00  0.00    -0.493 OA
ATOM     21  C   UNL     1      96.389  81.715  82.932  1.00  0.00     0.278 C 
ENDBRANCH  17  20
BRANCH  19  22
ATOM     22  O   UNL     1      99.867  81.302  81.815  1.00  0.00    -0.504 OA
ATOM     23  H   UNL     1     100.075  80.395  81.577  1.00  0.00     0.293 HD
ENDBRANCH  19  22
ENDBRANCH  13  14
ENDBRANCH  11  13
ENDBRANCH   8   9
ENDBRANCH   1   8
TORSDOF 11
ENDMDL
MODEL 5
REMARK VINA RESULT:    -5.648     17.445     19.916
REMARK INTER + INTRA:          -9.697
REMARK INTER:                  -9.079
REMARK INTRA:                  -0.618
REMARK UNBOUND:                -0.581
REMARK SMILES CCCCCCCCC(=O)NCc1ccc(O)c(OC)c1
REMARK SMILES IDX 7 1 6 2 5 3 4 4 3 5 2 6 1 7 8 8 9 9 10 10 11 11 12 13 13 14
REMARK SMILES IDX 21 15 14 16 18 17 15 18 16 19 19 20 20 21 17 22
REMARK H PARENT 11 12 17 23
REMARK Flexibility Score: inf
ROOT
ATOM      1  C   UNL     1      74.199  89.449  69.848  1.00  0.00     0.010 C 
ENDROOT
BRANCH   1   2
ATOM      2  C   UNL     1      75.187  88.541  69.062  1.00  0.00     0.001 C 
BRANCH   2   3
ATOM      3  C   UNL     1      76.502  89.286  68.687  1.00  0.00     0.000 C 
BRANCH   3   4
ATOM      4  C   UNL     1      77.376  88.531  67.646  1.00  0.00    -0.000 C 
BRANCH   4   5
ATOM      5  C   UNL     1      76.780  87.149  67.252  1.00  0.00    -0.000 C 
BRANCH   5   6
ATOM      6  C   UNL     1      77.537  85.964  67.910  1.00  0.00    -0.003 C 
ATOM      7  C   UNL     1      77.450  84.663  67.082  1.00  0.00     0.004 C 
ENDBRANCH   5   6
ENDBRANCH   4   5
ENDBRANCH   3   4
ENDBRANCH   2   3
ENDBRANCH   1   2
BRANCH   1   8
ATOM      8  C   UNL     1      74.736  90.884  70.110  1.00  0.00     0.100 C 
BRANCH   8   9
ATOM      9  C   UNL     1      74.145  91.466  71.339  1.00  0.00     0.220 C 
ATOM     10  O   UNL     1      73.286  90.796  71.961  1.00  0.00    -0.275 OA
ATOM     11  N   UNL     1      74.550  92.689  71.793  1.00  0.00    -0.352 N 
ATOM     12  H   UNL     1      75.178  93.177  71.171  1.00  0.00     0.163 HD
BRANCH  11  13
ATOM     13  C   UNL     1      74.162  93.291  73.031  1.00  0.00     0.151 C 
BRANCH  13  14
ATOM     14  C   UNL     1      75.306  93.630  73.919  1.00  0.00    -0.025 A 
ATOM     15  C   UNL     1      75.109  93.766  75.314  1.00  0.00     0.056 A 
ATOM     16  C   UNL     1      76.603  93.825  73.391  1.00  0.00     0.009 A 
ATOM     17  C   UNL     1      76.190  94.071  76.173  1.00  0.00     0.160 A 
ATOM     18  C   UNL     1      77.683  94.128  74.240  1.00  0.00     0.050 A 
ATOM     19  C   UNL     1      77.480  94.259  75.627  1.00  0.00     0.157 A 
BRANCH  17  20
ATOM     20  O   UNL     1      75.989  94.244  77.519  1.00  0.00    -0.493 OA
ATOM     21  C   UNL     1      75.243  95.427  77.856  1.00  0.00     0.278 C 
ENDBRANCH  17  20
BRANCH  19  22
ATOM     22  O   UNL     1      78.523  94.578  76.435  1.00  0.00    -0.504 OA
ATOM     23  H   UNL     1      78.413  94.146  77.286  1.00  0.00     0.293 HD
ENDBRANCH  19  22
ENDBRANCH  13  14
ENDBRANCH  11  13
ENDBRANCH   8   9
ENDBRANCH   1   8
TORSDOF 11
ENDMDL
MODEL 6
REMARK VINA RESULT:    -5.537     12.072     13.721
REMARK INTER + INTRA:          -9.517
REMARK INTER:                  -8.857
REMARK INTRA:                  -0.661
REMARK UNBOUND:                -0.581
REMARK SMILES CCCCCCCCC(=O)NCc1ccc(O)c(OC)c1
REMARK SMILES IDX 7 1 6 2 5 3 4 4 3 5 2 6 1 7 8 8 9 9 10 10 11 11 12 13 13 14
REMARK SMILES IDX 21 15 14 16 18 17 15 18 16 19 19 20 20 21 17 22
REMARK H PARENT 11 12 17 23
REMARK Flexibility Score: inf
ROOT
ATOM      1  C   UNL     1      97.380  82.480  77.834  1.00  0.00     0.010 C 
ENDROOT
BRANCH   1   2
ATOM      2  C   UNL     1      98.021  82.199  79.223  1.00  0.00     0.001 C 
BRANCH   2   3
ATOM      3  C   UNL     1      97.246  82.894  80.381  1.00  0.00     0.000 C 
BRANCH   3   4
ATOM      4  C   UNL     1      97.012  81.979  81.617  1.00  0.00    -0.000 C 
BRANCH   4   5
ATOM      5  C   UNL     1      96.592  82.777  82.883  1.00  0.00    -0.000 C 
BRANCH   5   6
ATOM      6  C   UNL     1      95.957  84.152  82.539  1.00  0.00    -0.003 C 
ATOM      7  C   UNL     1      96.009  85.149  83.716  1.00  0.00     0.004 C 
ENDBRANCH   5   6
ENDBRANCH   4   5
ENDBRANCH   3   4
ENDBRANCH   2   3
ENDBRANCH   1   2
BRANCH   1   8
ATOM      8  C   UNL     1      96.688  83.868  77.729  1.00  0.00     0.100 C 
BRANCH   8   9
ATOM      9  C   UNL     1      96.859  84.456  76.379  1.00  0.00     0.220 C 
ATOM     10  O   UNL     1      96.019  85.302  75.988  1.00  0.00    -0.275 OA
ATOM     11  N   UNL     1      97.921  84.102  75.597  1.00  0.00    -0.352 N 
ATOM     12  H   UNL     1      98.484  83.353  75.972  1.00  0.00     0.163 HD
BRANCH  11  13
ATOM     13  C   UNL     1      98.272  84.698  74.344  1.00  0.00     0.151 C 
BRANCH  13  14
ATOM     14  C   UNL     1      99.736  84.875  74.151  1.00  0.00    -0.025 A 
ATOM     15  C   UNL     1     100.231  85.470  72.966  1.00  0.00     0.056 A 
ATOM     16  C   UNL     1     100.655  84.451  75.138  1.00  0.00     0.009 A 
ATOM     17  C   UNL     1     101.620  85.660  72.776  1.00  0.00     0.160 A 
ATOM     18  C   UNL     1     102.037  84.638  74.956  1.00  0.00     0.050 A 
ATOM     19  C   UNL     1     102.523  85.234  73.776  1.00  0.00     0.157 A 
BRANCH  17  20
ATOM     20  O   UNL     1     102.100  86.199  71.610  1.00  0.00    -0.493 OA
ATOM     21  C   UNL     1     101.833  85.404  70.440  1.00  0.00     0.278 C 
ENDBRANCH  17  20
BRANCH  19  22
ATOM     22  O   UNL     1     103.860  85.385  73.597  1.00  0.00    -0.504 OA
ATOM     23  H   UNL     1     104.320  85.151  74.407  1.00  0.00     0.293 HD
ENDBRANCH  19  22
ENDBRANCH  13  14
ENDBRANCH  11  13
ENDBRANCH   8   9
ENDBRANCH   1   8
TORSDOF 11
ENDMDL
MODEL 7
REMARK VINA RESULT:    -5.519     12.411     14.298
REMARK INTER + INTRA:          -9.489
REMARK INTER:                  -8.944
REMARK INTRA:                  -0.545
REMARK UNBOUND:                -0.581
REMARK SMILES CCCCCCCCC(=O)NCc1ccc(O)c(OC)c1
REMARK SMILES IDX 7 1 6 2 5 3 4 4 3 5 2 6 1 7 8 8 9 9 10 10 11 11 12 13 13 14
REMARK SMILES IDX 21 15 14 16 18 17 15 18 16 19 19 20 20 21 17 22
REMARK H PARENT 11 12 17 23
REMARK Flexibility Score: inf
ROOT
ATOM      1  C   UNL     1      97.834  82.361  79.066  1.00  0.00     0.010 C 
ENDROOT
BRANCH   1   2
ATOM      2  C   UNL     1      97.709  81.561  77.737  1.00  0.00     0.001 C 
BRANCH   2   3
ATOM      3  C   UNL     1      97.761  82.486  76.486  1.00  0.00     0.000 C 
BRANCH   3   4
ATOM      4  C   UNL     1      97.308  83.947  76.767  1.00  0.00    -0.000 C 
BRANCH   4   5
ATOM      5  C   UNL     1      96.660  84.624  75.525  1.00  0.00    -0.000 C 
BRANCH   5   6
ATOM      6  C   UNL     1      97.385  84.259  74.202  1.00  0.00    -0.003 C 
ATOM      7  C   UNL     1      98.751  84.965  74.051  1.00  0.00     0.004 C 
ENDBRANCH   5   6
ENDBRANCH   4   5
ENDBRANCH   3   4
ENDBRANCH   2   3
ENDBRANCH   1   2
BRANCH   1   8
ATOM      8  C   UNL     1      97.321  81.591  80.315  1.00  0.00     0.100 C 
BRANCH   8   9
ATOM      9  C   UNL     1      97.105  82.506  81.462  1.00  0.00     0.220 C 
ATOM     10  O   UNL     1      96.676  83.661  81.230  1.00  0.00    -0.275 OA
ATOM     11  N   UNL     1      97.343  82.085  82.739  1.00  0.00    -0.352 N 
ATOM     12  H   UNL     1      97.768  81.171  82.805  1.00  0.00     0.163 HD
BRANCH  11  13
ATOM     13  C   UNL     1      97.043  82.818  83.930  1.00  0.00     0.151 C 
BRANCH  13  14
ATOM     14  C   UNL     1      95.592  82.867  84.257  1.00  0.00    -0.025 A 
ATOM     15  C   UNL     1      95.038  84.018  84.867  1.00  0.00     0.056 A 
ATOM     16  C   UNL     1      94.745  81.772  83.969  1.00  0.00     0.009 A 
ATOM     17  C   UNL     1      93.658  84.085  85.167  1.00  0.00     0.160 A 
ATOM     18  C   UNL     1      93.372  81.833  84.264  1.00  0.00     0.050 A 
ATOM     19  C   UNL     1      92.826  82.982  84.869  1.00  0.00     0.157 A 
BRANCH  17  20
ATOM     20  O   UNL     1      93.130  85.184  85.796  1.00  0.00    -0.493 OA
ATOM     21  C   UNL     1      93.542  85.332  87.167  1.00  0.00     0.278 C 
ENDBRANCH  17  20
BRANCH  19  22
ATOM     22  O   UNL     1      91.504  83.021  85.174  1.00  0.00    -0.504 OA
ATOM     23  H   UNL     1      91.029  82.398  84.620  1.00  0.00     0.293 HD
ENDBRANCH  19  22
ENDBRANCH  13  14
ENDBRANCH  11  13
ENDBRANCH   8   9
ENDBRANCH   1   8
TORSDOF 11
ENDMDL
MODEL 8
REMARK VINA RESULT:    -5.513      2.468      4.004
REMARK INTER + INTRA:          -9.478
REMARK INTER:                  -8.417
REMARK INTRA:                  -1.061
REMARK UNBOUND:                -0.581
REMARK SMILES CCCCCCCCC(=O)NCc1ccc(O)c(OC)c1
REMARK SMILES IDX 7 1 6 2 5 3 4 4 3 5 2 6 1 7 8 8 9 9 10 10 11 11 12 13 13 14
REMARK SMILES IDX 21 15 14 16 18 17 15 18 16 19 19 20 20 21 17 22
REMARK H PARENT 11 12 17 23
REMARK Flexibility Score: inf
ROOT
ATOM      1  C   UNL     1      94.611  97.457  75.465  1.00  0.00     0.010 C 
ENDROOT
BRANCH   1   2
ATOM      2  C   UNL     1      93.674  97.384  76.705  1.00  0.00     0.001 C 
BRANCH   2   3
ATOM      3  C   UNL     1      93.183  95.933  76.987  1.00  0.00     0.000 C 
BRANCH   3   4
ATOM      4  C   UNL     1      91.638  95.806  77.108  1.00  0.00    -0.000 C 
BRANCH   4   5
ATOM      5  C   UNL     1      91.187  94.391  77.569  1.00  0.00    -0.000 C 
BRANCH   5   6
ATOM      6  C   UNL     1      89.956  93.872  76.778  1.00  0.00    -0.003 C 
ATOM      7  C   UNL     1      90.021  94.214  75.273  1.00  0.00     0.004 C 
ENDBRANCH   5   6
ENDBRANCH   4   5
ENDBRANCH   3   4
ENDBRANCH   2   3
ENDBRANCH   1   2
BRANCH   1   8
ATOM      8  C   UNL     1      95.415  98.784  75.361  1.00  0.00     0.100 C 
BRANCH   8   9
ATOM      9  C   UNL     1      96.363  98.930  76.491  1.00  0.00     0.220 C 
ATOM     10  O   UNL     1      96.390 100.023  77.107  1.00  0.00    -0.275 OA
ATOM     11  N   UNL     1      97.163  97.889  76.865  1.00  0.00    -0.352 N 
ATOM     12  H   UNL     1      97.123  97.090  76.250  1.00  0.00     0.163 HD
BRANCH  11  13
ATOM     13  C   UNL     1      98.011  97.858  78.018  1.00  0.00     0.151 C 
BRANCH  13  14
ATOM     14  C   UNL     1      97.457  97.071  79.151  1.00  0.00    -0.025 A 
ATOM     15  C   UNL     1      98.003  97.209  80.449  1.00  0.00     0.056 A 
ATOM     16  C   UNL     1      96.383  96.172  78.955  1.00  0.00     0.009 A 
ATOM     17  C   UNL     1      97.476  96.480  81.540  1.00  0.00     0.160 A 
ATOM     18  C   UNL     1      95.853  95.444  80.036  1.00  0.00     0.050 A 
ATOM     19  C   UNL     1      96.400  95.589  81.325  1.00  0.00     0.157 A 
BRANCH  17  20
ATOM     20  O   UNL     1      98.034  96.584  82.789  1.00  0.00    -0.493 OA
ATOM     21  C   UNL     1      98.598  97.876  83.076  1.00  0.00     0.278 C 
ENDBRANCH  17  20
BRANCH  19  22
ATOM     22  O   UNL     1      95.899  94.862  82.357  1.00  0.00    -0.504 OA
ATOM     23  H   UNL     1      95.999  95.356  83.174  1.00  0.00     0.293 HD
ENDBRANCH  19  22
ENDBRANCH  13  14
ENDBRANCH  11  13
ENDBRANCH   8   9
ENDBRANCH   1   8
TORSDOF 11
ENDMDL
MODEL 9
REMARK VINA RESULT:    -5.403     18.010     21.719
REMARK INTER + INTRA:          -9.300
REMARK INTER:                  -8.712
REMARK INTRA:                  -0.589
REMARK UNBOUND:                -0.581
REMARK SMILES CCCCCCCCC(=O)NCc1ccc(O)c(OC)c1
REMARK SMILES IDX 7 1 6 2 5 3 4 4 3 5 2 6 1 7 8 8 9 9 10 10 11 11 12 13 13 14
REMARK SMILES IDX 21 15 14 16 18 17 15 18 16 19 19 20 20 21 17 22
REMARK H PARENT 11 12 17 23
REMARK Flexibility Score: inf
ROOT
ATOM      1  C   UNL     1      74.323  94.030  71.270  1.00  0.00     0.010 C 
ENDROOT
BRANCH   1   2
ATOM      2  C   UNL     1      75.292  95.172  71.692  1.00  0.00     0.001 C 
BRANCH   2   3
ATOM      3  C   UNL     1      75.684  95.086  73.196  1.00  0.00     0.000 C 
BRANCH   3   4
ATOM      4  C   UNL     1      77.179  95.412  73.474  1.00  0.00    -0.000 C 
BRANCH   4   5
ATOM      5  C   UNL     1      77.945  94.219  74.114  1.00  0.00    -0.000 C 
BRANCH   5   6
ATOM      6  C   UNL     1      78.110  94.373  75.650  1.00  0.00    -0.003 C 
ATOM      7  C   UNL     1      78.060  95.846  76.114  1.00  0.00     0.004 C 
ENDBRANCH   5   6
ENDBRANCH   4   5
ENDBRANCH   3   4
ENDBRANCH   2   3
ENDBRANCH   1   2
BRANCH   1   8
ATOM      8  C   UNL     1      74.557  92.693  72.028  1.00  0.00     0.100 C 
BRANCH   8   9
ATOM      9  C   UNL     1      73.951  91.550  71.305  1.00  0.00     0.220 C 
ATOM     10  O   UNL     1      72.738  91.297  71.503  1.00  0.00    -0.275 OA
ATOM     11  N   UNL     1      74.691  90.812  70.426  1.00  0.00    -0.352 N 
ATOM     12  H   UNL     1      75.673  91.046  70.409  1.00  0.00     0.163 HD
BRANCH  11  13
ATOM     13  C   UNL     1      74.189  89.782  69.569  1.00  0.00     0.151 C 
BRANCH  13  14
ATOM     14  C   UNL     1      75.220  88.796  69.148  1.00  0.00    -0.025 A 
ATOM     15  C   UNL     1      74.997  87.410  69.332  1.00  0.00     0.056 A 
ATOM     16  C   UNL     1      76.435  89.219  68.563  1.00  0.00     0.009 A 
ATOM     17  C   UNL     1      75.959  86.460  68.920  1.00  0.00     0.160 A 
ATOM     18  C   UNL     1      77.396  88.279  68.151  1.00  0.00     0.050 A 
ATOM     19  C   UNL     1      77.167  86.902  68.334  1.00  0.00     0.157 A 
BRANCH  17  20
ATOM     20  O   UNL     1      75.760  85.120  69.137  1.00  0.00    -0.493 OA
ATOM     21  C   UNL     1      76.052  84.691  70.479  1.00  0.00     0.278 C 
ENDBRANCH  17  20
BRANCH  19  22
ATOM     22  O   UNL     1      78.113  86.004  67.958  1.00  0.00    -0.504 OA
ATOM     23  H   UNL     1      78.674  86.394  67.283  1.00  0.00     0.293 HD
ENDBRANCH  19  22
ENDBRANCH  13  14
ENDBRANCH  11  13
ENDBRANCH   8   9
ENDBRANCH   1   8
TORSDOF 11
ENDMDL
MODEL 10
REMARK VINA RESULT:    -5.246     15.780     18.518
REMARK INTER + INTRA:          -9.047
REMARK INTER:                  -7.957
REMARK INTRA:                  -1.090
REMARK UNBOUND:                -0.581
REMARK SMILES CCCCCCCCC(=O)NCc1ccc(O)c(OC)c1
REMARK SMILES IDX 7 1 6 2 5 3 4 4 3 5 2 6 1 7 8 8 9 9 10 10 11 11 12 13 13 14
REMARK SMILES IDX 21 15 14 16 18 17 15 18 16 19 19 20 20 21 17 22
REMARK H PARENT 11 12 17 23
REMARK Flexibility Score: inf
ROOT
ATOM      1  C   UNL     1      95.025  77.981  83.973  1.00  0.00     0.010 C 
ENDROOT
BRANCH   1   2
ATOM      2  C   UNL     1      94.519  76.582  83.517  1.00  0.00     0.001 C 
BRANCH   2   3
ATOM      3  C   UNL     1      93.353  76.059  84.407  1.00  0.00     0.000 C 
BRANCH   3   4
ATOM      4  C   UNL     1      91.944  76.488  83.910  1.00  0.00    -0.000 C 
BRANCH   4   5
ATOM      5  C   UNL     1      91.753  76.267  82.382  1.00  0.00    -0.000 C 
BRANCH   5   6
ATOM      6  C   UNL     1      91.132  74.882  82.054  1.00  0.00    -0.003 C 
ATOM      7  C   UNL     1      90.192  74.367  83.165  1.00  0.00     0.004 C 
ENDBRANCH   5   6
ENDBRANCH   4   5
ENDBRANCH   3   4
ENDBRANCH   2   3
ENDBRANCH   1   2
BRANCH   1   8
ATOM      8  C   UNL     1      94.730  78.301  85.465  1.00  0.00     0.100 C 
BRANCH   8   9
ATOM      9  C   UNL     1      93.870  79.502  85.599  1.00  0.00     0.220 C 
ATOM     10  O   UNL     1      93.742  80.018  86.735  1.00  0.00    -0.275 OA
ATOM     11  N   UNL     1      93.259  80.043  84.505  1.00  0.00    -0.352 N 
ATOM     12  H   UNL     1      93.358  79.500  83.660  1.00  0.00     0.163 HD
BRANCH  11  13
ATOM     13  C   UNL     1      92.524  81.272  84.480  1.00  0.00     0.151 C 
BRANCH  13  14
ATOM     14  C   UNL     1      91.048  81.090  84.472  1.00  0.00    -0.025 A 
ATOM     15  C   UNL     1      90.199  82.138  84.900  1.00  0.00     0.056 A 
ATOM     16  C   UNL     1      90.468  79.873  84.044  1.00  0.00     0.009 A 
ATOM     17  C   UNL     1      88.794  81.986  84.882  1.00  0.00     0.160 A 
ATOM     18  C   UNL     1      89.071  79.716  84.022  1.00  0.00     0.050 A 
ATOM     19  C   UNL     1      88.232  80.764  84.447  1.00  0.00     0.157 A 
BRANCH  17  20
ATOM     20  O   UNL     1      87.974  82.988  85.337  1.00  0.00    -0.493 OA
ATOM     21  C   UNL     1      87.307  83.722  84.295  1.00  0.00     0.278 C 
ENDBRANCH  17  20
BRANCH  19  22
ATOM     22  O   UNL     1      86.885  80.593  84.449  1.00  0.00    -0.504 OA
ATOM     23  H   UNL     1      86.568  80.544  83.544  1.00  0.00     0.293 HD
ENDBRANCH  19  22
ENDBRANCH  13  14
ENDBRANCH  11  13
ENDBRANCH   8   9
ENDBRANCH   1   8
TORSDOF 11
ENDMDL
