MODEL 1
REMARK VINA RESULT:    -5.668      0.000      0.000
REMARK INTER + INTRA:         -10.339
REMARK INTER:                  -9.148
REMARK INTRA:                  -1.191
REMARK UNBOUND:                -1.191
REMARK SMILES COc1cc(CNC(=O)CCCCCCC(C)C)ccc1O
REMARK SMILES IDX 11 1 10 2 8 3 7 4 9 6 6 7 5 8 3 9 21 10 4 11 20 12 19 13
REMARK SMILES IDX 2 14 1 15 22 16 12 18 13 19 14 20 15 21 16 22 17 23 18 24
REMARK H PARENT 7 5 22 17
REMARK Flexibility Score: inf
ROOT
ATOM      1  C   UNL     1      97.307  81.689  73.866  1.00  0.00     0.010 C 
ENDROOT
BRANCH   1   2
ATOM      2  C   UNL     1      96.721  83.105  74.122  1.00  0.00     0.100 C 
BRANCH   2   3
ATOM      3  C   UNL     1      96.281  83.313  75.520  1.00  0.00     0.220 C 
ATOM      4  N   UNL     1      96.594  82.399  76.484  1.00  0.00    -0.352 N 
ATOM      5  H   UNL     1      97.092  81.588  76.149  1.00  0.00     0.163 HD
ATOM      6  O   UNL     1      95.638  84.354  75.800  1.00  0.00    -0.275 OA
BRANCH   4   7
ATOM      7  C   UNL     1      96.273  82.522  77.873  1.00  0.00     0.151 C 
BRANCH   7   8
ATOM      8  C   UNL     1      97.198  81.762  78.758  1.00  0.00    -0.025 A 
ATOM      9  C   UNL     1      97.877  81.037  81.008  1.00  0.00     0.160 A 
ATOM     10  C   UNL     1      98.930  80.280  80.449  1.00  0.00     0.157 A 
ATOM     11  C   UNL     1      97.033  81.785  80.162  1.00  0.00     0.056 A 
ATOM     12  C   UNL     1      99.129  80.280  79.056  1.00  0.00     0.050 A 
ATOM     13  C   UNL     1      98.264  81.006  78.215  1.00  0.00     0.009 A 
BRANCH   9  14
ATOM     14  O   UNL     1      97.699  81.075  82.364  1.00  0.00    -0.493 OA
ATOM     15  C   UNL     1      96.318  81.123  82.767  1.00  0.00     0.278 C 
ENDBRANCH   9  14
BRANCH  10  16
ATOM     16  O   UNL     1      99.760  79.550  81.240  1.00  0.00    -0.504 OA
ATOM     17  H   UNL     1      99.404  79.517  82.131  1.00  0.00     0.293 HD
ENDBRANCH  10  16
ENDBRANCH   7   8
ENDBRANCH   4   7
ENDBRANCH   2   3
ENDBRANCH   1   2
BRANCH   1  18
ATOM     18  C   UNL     1      98.823  81.735  73.521  1.00  0.00     0.001 C 
BRANCH  18  19
ATOM     19  C   UNL     1      99.703  82.353  74.643  1.00  0.00     0.000 C 
BRANCH  19  20
ATOM     20  C   UNL     1     100.577  83.522  74.107  1.00  0.00     0.000 C 
BRANCH  20  21
ATOM     21  C   UNL     1     100.024  84.191  72.817  1.00  0.00     0.003 C 
BRANCH  21  22
ATOM     22  C   UNL     1     101.041  84.254  71.631  1.00  0.00    -0.017 C 
ATOM     23  C   UNL     1     100.910  82.989  70.735  1.00  0.00     0.007 C 
ATOM     24  C   UNL     1     102.518  84.452  72.082  1.00  0.00     0.007 C 
ENDBRANCH  21  22
ENDBRANCH  20  21
ENDBRANCH  19  20
ENDBRANCH  18  19
ENDBRANCH   1  18
TORSDOF 11
ENDMDL
MODEL 2
REMARK VINA RESULT:    -5.538     12.759     15.031
REMARK INTER + INTRA:         -10.129
REMARK INTER:                  -9.434
REMARK INTRA:                  -0.695
REMARK UNBOUND:                -1.191
REMARK SMILES COc1cc(CNC(=O)CCCCCCC(C)C)ccc1O
REMARK SMILES IDX 11 1 10 2 8 3 7 4 9 6 6 7 5 8 3 9 21 10 4 11 20 12 19 13
REMARK SMILES IDX 2 14 1 15 22 16 12 18 13 19 14 20 15 21 16 22 17 23 18 24
REMARK H PARENT 7 5 22 17
REMARK Flexibility Score: inf
ROOT
ATOM      1  C   UNL     1      98.065  95.420  80.370  1.00  0.00     0.010 C 
ENDROOT
BRANCH   1   2
ATOM      2  C   UNL     1      96.677  95.288  81.057  1.00  0.00     0.100 C 
BRANCH   2   3
ATOM      3  C   UNL     1      95.826  94.235  80.459  1.00  0.00     0.220 C 
ATOM      4  N   UNL     1      95.438  94.321  79.154  1.00  0.00    -0.352 N 
ATOM      5  H   UNL     1      95.740  95.159  78.679  1.00  0.00     0.163 HD
ATOM      6  O   UNL     1      95.493  93.256  81.170  1.00  0.00    -0.275 OA
BRANCH   4   7
ATOM      7  C   UNL     1      94.667  93.338  78.455  1.00  0.00     0.151 C 
BRANCH   7   8
ATOM      8  C   UNL     1      93.353  93.852  77.980  1.00  0.00    -0.025 A 
ATOM      9  C   UNL     1      90.955  93.503  77.563  1.00  0.00     0.160 A 
ATOM     10  C   UNL     1      90.836  94.838  77.118  1.00  0.00     0.157 A 
ATOM     11  C   UNL     1      92.214  93.016  77.972  1.00  0.00     0.056 A 
ATOM     12  C   UNL     1      91.970  95.669  77.085  1.00  0.00     0.050 A 
ATOM     13  C   UNL     1      93.218  95.184  77.522  1.00  0.00     0.009 A 
BRANCH   9  14
ATOM     14  O   UNL     1      89.866  92.675  77.562  1.00  0.00    -0.493 OA
ATOM     15  C   UNL     1      89.998  91.544  76.682  1.00  0.00     0.278 C 
ENDBRANCH   9  14
BRANCH  10  16
ATOM     16  O   UNL     1      89.635  95.334  76.717  1.00  0.00    -0.504 OA
ATOM     17  H   UNL     1      89.061  95.436  77.480  1.00  0.00     0.293 HD
ENDBRANCH  10  16
ENDBRANCH   7   8
ENDBRANCH   4   7
ENDBRANCH   2   3
ENDBRANCH   1   2
BRANCH   1  18
ATOM     18  C   UNL     1      99.103  94.417  80.948  1.00  0.00     0.001 C 
BRANCH  18  19
ATOM     19  C   UNL     1      99.098  94.334  82.500  1.00  0.00     0.000 C 
BRANCH  19  20
ATOM     20  C   UNL     1     100.190  95.248  83.125  1.00  0.00     0.000 C 
BRANCH  20  21
ATOM     21  C   UNL     1     100.013  95.501  84.648  1.00  0.00     0.003 C 
BRANCH  21  22
ATOM     22  C   UNL     1     101.351  95.687  85.436  1.00  0.00    -0.017 C 
ATOM     23  C   UNL     1     102.102  96.955  84.941  1.00  0.00     0.007 C 
ATOM     24  C   UNL     1     102.286  94.443  85.382  1.00  0.00     0.007 C 
ENDBRANCH  21  22
ENDBRANCH  20  21
ENDBRANCH  19  20
ENDBRANCH  18  19
ENDBRANCH   1  18
TORSDOF 11
ENDMDL
MODEL 3
REMARK VINA RESULT:    -5.505      5.918      9.291
REMARK INTER + INTRA:         -10.075
REMARK INTER:                  -9.511
REMARK INTRA:                  -0.564
REMARK UNBOUND:                -1.191
REMARK SMILES COc1cc(CNC(=O)CCCCCCC(C)C)ccc1O
REMARK SMILES IDX 11 1 10 2 8 3 7 4 9 6 6 7 5 8 3 9 21 10 4 11 20 12 19 13
REMARK SMILES IDX 2 14 1 15 22 16 12 18 13 19 14 20 15 21 16 22 17 23 18 24
REMARK H PARENT 7 5 22 17
REMARK Flexibility Score: inf
ROOT
ATOM      1  C   UNL     1      96.103  81.498  82.745  1.00  0.00     0.010 C 
ENDROOT
BRANCH   1   2
ATOM      2  C   UNL     1      95.584  80.370  83.678  1.00  0.00     0.100 C 
BRANCH   2   3
ATOM      3  C   UNL     1      94.372  80.750  84.437  1.00  0.00     0.220 C 
ATOM      4  N   UNL     1      93.564  79.790  84.972  1.00  0.00    -0.352 N 
ATOM      5  H   UNL     1      93.843  78.842  84.765  1.00  0.00     0.163 HD
ATOM      6  O   UNL     1      94.120  81.970  84.597  1.00  0.00    -0.275 OA
BRANCH   4   7
ATOM      7  C   UNL     1      92.402  80.038  85.770  1.00  0.00     0.151 C 
BRANCH   7   8
ATOM      8  C   UNL     1      91.198  79.299  85.300  1.00  0.00    -0.025 A 
ATOM      9  C   UNL     1      88.850  79.301  84.567  1.00  0.00     0.160 A 
ATOM     10  C   UNL     1      88.911  77.906  84.361  1.00  0.00     0.157 A 
ATOM     11  C   UNL     1      89.986  79.983  85.052  1.00  0.00     0.056 A 
ATOM     12  C   UNL     1      90.100  77.208  84.641  1.00  0.00     0.050 A 
ATOM     13  C   UNL     1      91.239  77.900  85.097  1.00  0.00     0.009 A 
BRANCH   9  14
ATOM     14  O   UNL     1      87.687  79.984  84.335  1.00  0.00    -0.493 OA
ATOM     15  C   UNL     1      87.283  80.829  85.427  1.00  0.00     0.278 C 
ENDBRANCH   9  14
BRANCH  10  16
ATOM     16  O   UNL     1      87.832  77.223  83.896  1.00  0.00    -0.504 OA
ATOM     17  H   UNL     1      87.054  77.473  84.400  1.00  0.00     0.293 HD
ENDBRANCH  10  16
ENDBRANCH   7   8
ENDBRANCH   4   7
ENDBRANCH   2   3
ENDBRANCH   1   2
BRANCH   1  18
ATOM     18  C   UNL     1      97.599  81.305  82.366  1.00  0.00     0.001 C 
BRANCH  18  19
ATOM     19  C   UNL     1      97.818  80.823  80.904  1.00  0.00     0.000 C 
BRANCH  19  20
ATOM     20  C   UNL     1      97.028  81.696  79.890  1.00  0.00     0.000 C 
BRANCH  20  21
ATOM     21  C   UNL     1      97.825  82.064  78.608  1.00  0.00     0.003 C 
BRANCH  21  22
ATOM     22  C   UNL     1      97.049  81.833  77.270  1.00  0.00    -0.017 C 
ATOM     23  C   UNL     1      95.747  82.681  77.244  1.00  0.00     0.007 C 
ATOM     24  C   UNL     1      96.730  80.336  76.983  1.00  0.00     0.007 C 
ENDBRANCH  21  22
ENDBRANCH  20  21
ENDBRANCH  19  20
ENDBRANCH  18  19
ENDBRANCH   1  18
TORSDOF 11
ENDMDL
MODEL 4
REMARK VINA RESULT:    -5.501     19.771     22.848
REMARK INTER + INTRA:         -10.068
REMARK INTER:                  -9.216
REMARK INTRA:                  -0.852
REMARK UNBOUND:                -1.191
REMARK SMILES COc1cc(CNC(=O)CCCCCCC(C)C)ccc1O
REMARK SMILES IDX 11 1 10 2 8 3 7 4 9 6 6 7 5 8 3 9 21 10 4 11 20 12 19 13
REMARK SMILES IDX 2 14 1 15 22 16 12 18 13 19 14 20 15 21 16 22 17 23 18 24
REMARK H PARENT 7 5 22 17
REMARK Flexibility Score: inf
ROOT
ATOM      1  C   UNL     1      89.948  98.922  70.322  1.00  0.00     0.010 C 
ENDROOT
BRANCH   1   2
ATOM      2  C   UNL     1      89.601  97.789  69.318  1.00  0.00     0.100 C 
BRANCH   2   3
ATOM      3  C   UNL     1      89.254  98.289  67.969  1.00  0.00     0.220 C 
ATOM      4  N   UNL     1      88.115  99.014  67.774  1.00  0.00    -0.352 N 
ATOM      5  H   UNL     1      87.542  99.126  68.597  1.00  0.00     0.163 HD
ATOM      6  O   UNL     1      90.041  98.053  67.019  1.00  0.00    -0.275 OA
BRANCH   4   7
ATOM      7  C   UNL     1      87.708  99.596  66.531  1.00  0.00     0.151 C 
BRANCH   7   8
ATOM      8  C   UNL     1      87.987 101.056  66.448  1.00  0.00    -0.025 A 
ATOM      9  C   UNL     1      89.592 102.919  66.410  1.00  0.00     0.160 A 
ATOM     10  C   UNL     1      88.529 103.834  66.246  1.00  0.00     0.157 A 
ATOM     11  C   UNL     1      89.312 101.542  66.528  1.00  0.00     0.056 A 
ATOM     12  C   UNL     1      87.203 103.367  66.204  1.00  0.00     0.050 A 
ATOM     13  C   UNL     1      86.933 101.987  66.293  1.00  0.00     0.009 A 
BRANCH   9  14
ATOM     14  O   UNL     1      90.882 103.367  66.492  1.00  0.00    -0.493 OA
ATOM     15  C   UNL     1      91.589 103.332  65.239  1.00  0.00     0.278 C 
ENDBRANCH   9  14
BRANCH  10  16
ATOM     16  O   UNL     1      88.769 105.167  66.131  1.00  0.00    -0.504 OA
ATOM     17  H   UNL     1      88.064 105.576  65.624  1.00  0.00     0.293 HD
ENDBRANCH  10  16
ENDBRANCH   7   8
ENDBRANCH   4   7
ENDBRANCH   2   3
ENDBRANCH   1   2
BRANCH   1  18
ATOM     18  C   UNL     1      91.165  99.769  69.853  1.00  0.00     0.001 C 
BRANCH  18  19
ATOM     19  C   UNL     1      91.702 100.747  70.935  1.00  0.00     0.000 C 
BRANCH  19  20
ATOM     20  C   UNL     1      93.025 100.230  71.568  1.00  0.00     0.000 C 
BRANCH  20  21
ATOM     21  C   UNL     1      92.822  99.287  72.787  1.00  0.00     0.003 C 
BRANCH  21  22
ATOM     22  C   UNL     1      94.108  98.520  73.236  1.00  0.00    -0.017 C 
ATOM     23  C   UNL     1      93.748  97.412  74.266  1.00  0.00     0.007 C 
ATOM     24  C   UNL     1      95.225  99.447  73.800  1.00  0.00     0.007 C 
ENDBRANCH  21  22
ENDBRANCH  20  21
ENDBRANCH  19  20
ENDBRANCH  18  19
ENDBRANCH   1  18
TORSDOF 11
ENDMDL
MODEL 5
REMARK VINA RESULT:    -5.425     20.255     22.667
REMARK INTER + INTRA:          -9.945
REMARK INTER:                  -9.129
REMARK INTRA:                  -0.816
REMARK UNBOUND:                -1.191
REMARK SMILES COc1cc(CNC(=O)CCCCCCC(C)C)ccc1O
REMARK SMILES IDX 11 1 10 2 8 3 7 4 9 6 6 7 5 8 3 9 21 10 4 11 20 12 19 13
REMARK SMILES IDX 2 14 1 15 22 16 12 18 13 19 14 20 15 21 16 22 17 23 18 24
REMARK H PARENT 7 5 22 17
REMARK Flexibility Score: inf
ROOT
ATOM      1  C   UNL     1      89.814  99.526  66.236  1.00  0.00     0.010 C 
ENDROOT
BRANCH   1   2
ATOM      2  C   UNL     1      89.197  98.245  66.863  1.00  0.00     0.100 C 
BRANCH   2   3
ATOM      3  C   UNL     1      89.743  97.927  68.201  1.00  0.00     0.220 C 
ATOM      4  N   UNL     1      89.508  98.758  69.257  1.00  0.00    -0.352 N 
ATOM      5  H   UNL     1      88.988  99.593  69.029  1.00  0.00     0.163 HD
ATOM      6  O   UNL     1      90.403  96.869  68.345  1.00  0.00    -0.275 OA
BRANCH   4   7
ATOM      7  C   UNL     1      89.935  98.524  70.603  1.00  0.00     0.151 C 
BRANCH   7   8
ATOM      8  C   UNL     1      90.815  99.601  71.135  1.00  0.00    -0.025 A 
ATOM      9  C   UNL     1      91.188 101.969  71.685  1.00  0.00     0.160 A 
ATOM     10  C   UNL     1      92.470 101.653  72.187  1.00  0.00     0.157 A 
ATOM     11  C   UNL     1      90.380 100.946  71.147  1.00  0.00     0.056 A 
ATOM     12  C   UNL     1      92.930 100.324  72.145  1.00  0.00     0.050 A 
ATOM     13  C   UNL     1      92.106  99.303  71.633  1.00  0.00     0.009 A 
BRANCH   9  14
ATOM     14  O   UNL     1      90.747 103.264  71.685  1.00  0.00    -0.493 OA
ATOM     15  C   UNL     1      89.810 103.557  70.633  1.00  0.00     0.278 C 
ENDBRANCH   9  14
BRANCH  10  16
ATOM     16  O   UNL     1      93.270 102.618  72.710  1.00  0.00    -0.504 OA
ATOM     17  H   UNL     1      92.877 102.957  73.518  1.00  0.00     0.293 HD
ENDBRANCH  10  16
ENDBRANCH   7   8
ENDBRANCH   4   7
ENDBRANCH   2   3
ENDBRANCH   1   2
BRANCH   1  18
ATOM     18  C   UNL     1      88.898 100.770  66.421  1.00  0.00     0.001 C 
BRANCH  18  19
ATOM     19  C   UNL     1      87.405 100.416  66.673  1.00  0.00     0.000 C 
BRANCH  19  20
ATOM     20  C   UNL     1      86.454 101.502  66.094  1.00  0.00     0.000 C 
BRANCH  20  21
ATOM     21  C   UNL     1      86.942 102.960  66.318  1.00  0.00     0.003 C 
BRANCH  21  22
ATOM     22  C   UNL     1      85.891 104.060  65.957  1.00  0.00    -0.017 C 
ATOM     23  C   UNL     1      85.693 105.036  67.151  1.00  0.00     0.007 C 
ATOM     24  C   UNL     1      84.521 103.486  65.489  1.00  0.00     0.007 C 
ENDBRANCH  21  22
ENDBRANCH  20  21
ENDBRANCH  19  20
ENDBRANCH  18  19
ENDBRANCH   1  18
TORSDOF 11
ENDMDL
MODEL 6
REMARK VINA RESULT:    -5.287     23.995     26.896
REMARK INTER + INTRA:          -9.723
REMARK INTER:                  -8.467
REMARK INTRA:                  -1.256
REMARK UNBOUND:                -1.191
REMARK SMILES COc1cc(CNC(=O)CCCCCCC(C)C)ccc1O
REMARK SMILES IDX 11 1 10 2 8 3 7 4 9 6 6 7 5 8 3 9 21 10 4 11 20 12 19 13
REMARK SMILES IDX 2 14 1 15 22 16 12 18 13 19 14 20 15 21 16 22 17 23 18 24
REMARK H PARENT 7 5 22 17
REMARK Flexibility Score: inf
ROOT
ATOM      1  C   UNL     1      75.527  87.937  67.335  1.00  0.00     0.010 C 
ENDROOT
BRANCH   1   2
ATOM      2  C   UNL     1      77.009  87.494  67.182  1.00  0.00     0.100 C 
BRANCH   2   3
ATOM      3  C   UNL     1      77.159  86.063  66.836  1.00  0.00     0.220 C 
ATOM      4  N   UNL     1      76.592  85.566  65.699  1.00  0.00    -0.352 N 
ATOM      5  H   UNL     1      76.050  86.234  65.172  1.00  0.00     0.163 HD
ATOM      6  O   UNL     1      77.836  85.328  67.597  1.00  0.00    -0.275 OA
BRANCH   4   7
ATOM      7  C   UNL     1      76.719  84.218  65.235  1.00  0.00     0.151 C 
BRANCH   7   8
ATOM      8  C   UNL     1      75.446  83.449  65.312  1.00  0.00    -0.025 A 
ATOM      9  C   UNL     1      72.987  83.397  65.339  1.00  0.00     0.160 A 
ATOM     10  C   UNL     1      73.016  81.987  65.415  1.00  0.00     0.157 A 
ATOM     11  C   UNL     1      74.200  84.117  65.307  1.00  0.00     0.056 A 
ATOM     12  C   UNL     1      74.249  81.313  65.460  1.00  0.00     0.050 A 
ATOM     13  C   UNL     1      75.456  82.036  65.398  1.00  0.00     0.009 A 
BRANCH   9  14
ATOM     14  O   UNL     1      71.793  84.065  65.335  1.00  0.00    -0.493 OA
ATOM     15  C   UNL     1      71.476  84.694  66.590  1.00  0.00     0.278 C 
ENDBRANCH   9  14
BRANCH  10  16
ATOM     16  O   UNL     1      71.863  81.269  65.449  1.00  0.00    -0.504 OA
ATOM     17  H   UNL     1      71.320  81.569  66.182  1.00  0.00     0.293 HD
ENDBRANCH  10  16
ENDBRANCH   7   8
ENDBRANCH   4   7
ENDBRANCH   2   3
ENDBRANCH   1   2
BRANCH   1  18
ATOM     18  C   UNL     1      74.842  87.281  68.567  1.00  0.00     0.001 C 
BRANCH  18  19
ATOM     19  C   UNL     1      73.384  87.765  68.805  1.00  0.00     0.000 C 
BRANCH  19  20
ATOM     20  C   UNL     1      73.055  89.026  67.958  1.00  0.00     0.000 C 
BRANCH  20  21
ATOM     21  C   UNL     1      72.763  90.300  68.800  1.00  0.00     0.003 C 
BRANCH  21  22
ATOM     22  C   UNL     1      73.723  90.510  70.016  1.00  0.00    -0.017 C 
ATOM     23  C   UNL     1      73.112  91.524  71.023  1.00  0.00     0.007 C 
ATOM     24  C   UNL     1      75.162  90.946  69.608  1.00  0.00     0.007 C 
ENDBRANCH  21  22
ENDBRANCH  20  21
ENDBRANCH  19  20
ENDBRANCH  18  19
ENDBRANCH   1  18
TORSDOF 11
ENDMDL
MODEL 7
REMARK VINA RESULT:    -5.280      3.149      9.651
REMARK INTER + INTRA:          -9.712
REMARK INTER:                  -8.925
REMARK INTRA:                  -0.786
REMARK UNBOUND:                -1.191
REMARK SMILES COc1cc(CNC(=O)CCCCCCC(C)C)ccc1O
REMARK SMILES IDX 11 1 10 2 8 3 7 4 9 6 6 7 5 8 3 9 21 10 4 11 20 12 19 13
REMARK SMILES IDX 2 14 1 15 22 16 12 18 13 19 14 20 15 21 16 22 17 23 18 24
REMARK H PARENT 7 5 22 17
REMARK Flexibility Score: inf
ROOT
ATOM      1  C   UNL     1      97.522  80.992  81.991  1.00  0.00     0.010 C 
ENDROOT
BRANCH   1   2
ATOM      2  C   UNL     1      97.471  79.463  81.721  1.00  0.00     0.100 C 
BRANCH   2   3
ATOM      3  C   UNL     1      97.434  79.124  80.281  1.00  0.00     0.220 C 
ATOM      4  N   UNL     1      97.830  80.037  79.348  1.00  0.00    -0.352 N 
ATOM      5  H   UNL     1      98.093  80.936  79.723  1.00  0.00     0.163 HD
ATOM      6  O   UNL     1      97.056  77.976  79.943  1.00  0.00    -0.275 OA
BRANCH   4   7
ATOM      7  C   UNL     1      97.893  79.803  77.937  1.00  0.00     0.151 C 
BRANCH   7   8
ATOM      8  C   UNL     1      97.291  80.902  77.133  1.00  0.00    -0.025 A 
ATOM      9  C   UNL     1      96.882  81.969  74.955  1.00  0.00     0.160 A 
ATOM     10  C   UNL     1      96.111  82.968  75.587  1.00  0.00     0.157 A 
ATOM     11  C   UNL     1      97.481  80.956  75.733  1.00  0.00     0.056 A 
ATOM     12  C   UNL     1      95.947  82.948  76.984  1.00  0.00     0.050 A 
ATOM     13  C   UNL     1      96.523  81.916  77.751  1.00  0.00     0.009 A 
BRANCH   9  14
ATOM     14  O   UNL     1      97.080  82.002  73.601  1.00  0.00    -0.493 OA
ATOM     15  C   UNL     1      96.762  80.765  72.938  1.00  0.00     0.278 C 
ENDBRANCH   9  14
BRANCH  10  16
ATOM     16  O   UNL     1      95.524  83.957  74.863  1.00  0.00    -0.504 OA
ATOM     17  H   UNL     1      95.283  84.681  75.446  1.00  0.00     0.293 HD
ENDBRANCH  10  16
ENDBRANCH   7   8
ENDBRANCH   4   7
ENDBRANCH   2   3
ENDBRANCH   1   2
BRANCH   1  18
ATOM     18  C   UNL     1      96.198  81.523  82.611  1.00  0.00     0.001 C 
BRANCH  18  19
ATOM     19  C   UNL     1      95.490  80.502  83.546  1.00  0.00     0.000 C 
BRANCH  19  20
ATOM     20  C   UNL     1      95.106  81.145  84.909  1.00  0.00     0.000 C 
BRANCH  20  21
ATOM     21  C   UNL     1      93.677  81.753  84.946  1.00  0.00     0.003 C 
BRANCH  21  22
ATOM     22  C   UNL     1      92.522  80.707  84.814  1.00  0.00    -0.017 C 
ATOM     23  C   UNL     1      91.141  81.422  84.790  1.00  0.00     0.007 C 
ATOM     24  C   UNL     1      92.546  79.606  85.916  1.00  0.00     0.007 C 
ENDBRANCH  21  22
ENDBRANCH  20  21
ENDBRANCH  19  20
ENDBRANCH  18  19
ENDBRANCH   1  18
TORSDOF 11
ENDMDL
MODEL 8
REMARK VINA RESULT:    -5.068      3.178      6.489
REMARK INTER + INTRA:          -9.370
REMARK INTER:                  -7.893
REMARK INTRA:                  -1.477
REMARK UNBOUND:                -1.191
REMARK SMILES COc1cc(CNC(=O)CCCCCCC(C)C)ccc1O
REMARK SMILES IDX 11 1 10 2 8 3 7 4 9 6 6 7 5 8 3 9 21 10 4 11 20 12 19 13
REMARK SMILES IDX 2 14 1 15 22 16 12 18 13 19 14 20 15 21 16 22 17 23 18 24
REMARK H PARENT 7 5 22 17
REMARK Flexibility Score: inf
ROOT
ATOM      1  C   UNL     1      97.448  80.633  77.500  1.00  0.00     0.010 C 
ENDROOT
BRANCH   1   2
ATOM      2  C   UNL     1      96.849  82.062  77.627  1.00  0.00     0.100 C 
BRANCH   2   3
ATOM      3  C   UNL     1      96.685  82.745  76.324  1.00  0.00     0.220 C 
ATOM      4  N   UNL     1      97.752  82.898  75.487  1.00  0.00    -0.352 N 
ATOM      5  H   UNL     1      98.628  82.554  75.854  1.00  0.00     0.163 HD
ATOM      6  O   UNL     1      95.544  83.155  76.000  1.00  0.00    -0.275 OA
BRANCH   4   7
ATOM      7  C   UNL     1      97.701  83.487  74.184  1.00  0.00     0.151 C 
BRANCH   7   8
ATOM      8  C   UNL     1      98.978  83.354  73.430  1.00  0.00    -0.025 A 
ATOM      9  C   UNL     1     100.995  82.063  72.868  1.00  0.00     0.160 A 
ATOM     10  C   UNL     1     101.391  83.072  71.963  1.00  0.00     0.157 A 
ATOM     11  C   UNL     1      99.803  82.220  73.607  1.00  0.00     0.056 A 
ATOM     12  C   UNL     1     100.598  84.223  71.806  1.00  0.00     0.050 A 
ATOM     13  C   UNL     1      99.395  84.360  72.526  1.00  0.00     0.009 A 
BRANCH   9  14
ATOM     14  O   UNL     1     101.779  80.958  73.057  1.00  0.00    -0.493 OA
ATOM     15  C   UNL     1     102.276  80.822  74.401  1.00  0.00     0.278 C 
ENDBRANCH   9  14
BRANCH  10  16
ATOM     16  O   UNL     1     102.534  82.948  71.239  1.00  0.00    -0.504 OA
ATOM     17  H   UNL     1     103.259  82.714  71.824  1.00  0.00     0.293 HD
ENDBRANCH  10  16
ENDBRANCH   7   8
ENDBRANCH   4   7
ENDBRANCH   2   3
ENDBRANCH   1   2
BRANCH   1  18
ATOM     18  C   UNL     1      96.720  79.786  76.418  1.00  0.00     0.001 C 
BRANCH  18  19
ATOM     19  C   UNL     1      97.647  79.323  75.258  1.00  0.00     0.000 C 
BRANCH  19  20
ATOM     20  C   UNL     1      97.079  79.739  73.872  1.00  0.00     0.000 C 
BRANCH  20  21
ATOM     21  C   UNL     1      97.550  78.841  72.695  1.00  0.00     0.003 C 
BRANCH  21  22
ATOM     22  C   UNL     1      98.110  79.624  71.462  1.00  0.00    -0.017 C 
ATOM     23  C   UNL     1      97.146  79.492  70.250  1.00  0.00     0.007 C 
ATOM     24  C   UNL     1      99.554  79.205  71.058  1.00  0.00     0.007 C 
ENDBRANCH  21  22
ENDBRANCH  20  21
ENDBRANCH  19  20
ENDBRANCH  18  19
ENDBRANCH   1  18
TORSDOF 11
ENDMDL
MODEL 9
REMARK VINA RESULT:    -5.029     15.442     18.803
REMARK INTER + INTRA:          -9.307
REMARK INTER:                  -8.554
REMARK INTRA:                  -0.753
REMARK UNBOUND:                -1.191
REMARK SMILES COc1cc(CNC(=O)CCCCCCC(C)C)ccc1O
REMARK SMILES IDX 11 1 10 2 8 3 7 4 9 6 6 7 5 8 3 9 21 10 4 11 20 12 19 13
REMARK SMILES IDX 2 14 1 15 22 16 12 18 13 19 14 20 15 21 16 22 17 23 18 24
REMARK H PARENT 7 5 22 17
REMARK Flexibility Score: inf
ROOT
ATOM      1  C   UNL     1      93.904  96.223  74.893  1.00  0.00     0.010 C 
ENDROOT
BRANCH   1   2
ATOM      2  C   UNL     1      95.248  96.892  74.490  1.00  0.00     0.100 C 
BRANCH   2   3
ATOM      3  C   UNL     1      95.275  97.350  73.083  1.00  0.00     0.220 C 
ATOM      4  N   UNL     1      94.660  98.514  72.725  1.00  0.00    -0.352 N 
ATOM      5  H   UNL     1      94.172  98.981  73.475  1.00  0.00     0.163 HD
ATOM      6  O   UNL     1      95.893  96.658  72.237  1.00  0.00    -0.275 OA
BRANCH   4   7
ATOM      7  C   UNL     1      94.670  99.083  71.411  1.00  0.00     0.151 C 
BRANCH   7   8
ATOM      8  C   UNL     1      93.449  99.880  71.109  1.00  0.00    -0.025 A 
ATOM      9  C   UNL     1      91.660 100.526  69.550  1.00  0.00     0.160 A 
ATOM     10  C   UNL     1      91.097 101.363  70.538  1.00  0.00     0.157 A 
ATOM     11  C   UNL     1      92.840  99.808  69.835  1.00  0.00     0.056 A 
ATOM     12  C   UNL     1      91.717 101.474  71.797  1.00  0.00     0.050 A 
ATOM     13  C   UNL     1      92.878 100.731  72.085  1.00  0.00     0.009 A 
BRANCH   9  14
ATOM     14  O   UNL     1      91.088 100.442  68.310  1.00  0.00    -0.493 OA
ATOM     15  C   UNL     1      90.214  99.309  68.150  1.00  0.00     0.278 C 
ENDBRANCH   9  14
BRANCH  10  16
ATOM     16  O   UNL     1      89.963 102.068  70.291  1.00  0.00    -0.504 OA
ATOM     17  H   UNL     1      90.041 102.945  70.674  1.00  0.00     0.293 HD
ENDBRANCH  10  16
ENDBRANCH   7   8
ENDBRANCH   4   7
ENDBRANCH   2   3
ENDBRANCH   1   2
BRANCH   1  18
ATOM     18  C   UNL     1      94.095  94.747  75.343  1.00  0.00     0.001 C 
BRANCH  18  19
ATOM     19  C   UNL     1      94.363  94.587  76.866  1.00  0.00     0.000 C 
BRANCH  19  20
ATOM     20  C   UNL     1      93.707  93.295  77.430  1.00  0.00     0.000 C 
BRANCH  20  21
ATOM     21  C   UNL     1      92.349  93.532  78.148  1.00  0.00     0.003 C 
BRANCH  21  22
ATOM     22  C   UNL     1      91.094  93.394  77.226  1.00  0.00    -0.017 C 
ATOM     23  C   UNL     1      90.547  94.796  76.838  1.00  0.00     0.007 C 
ATOM     24  C   UNL     1      89.961  92.518  77.839  1.00  0.00     0.007 C 
ENDBRANCH  21  22
ENDBRANCH  20  21
ENDBRANCH  19  20
ENDBRANCH  18  19
ENDBRANCH   1  18
TORSDOF 11
ENDMDL
MODEL 10
REMARK VINA RESULT:    -5.004     21.293     24.107
REMARK INTER + INTRA:          -9.267
REMARK INTER:                  -7.586
REMARK INTRA:                  -1.681
REMARK UNBOUND:                -1.191
REMARK SMILES COc1cc(CNC(=O)CCCCCCC(C)C)ccc1O
REMARK SMILES IDX 11 1 10 2 8 3 7 4 9 6 6 7 5 8 3 9 21 10 4 11 20 12 19 13
REMARK SMILES IDX 2 14 1 15 22 16 12 18 13 19 14 20 15 21 16 22 17 23 18 24
REMARK H PARENT 7 5 22 17
REMARK Flexibility Score: inf
ROOT
ATOM      1  C   UNL     1      89.581 105.017  69.986  1.00  0.00     0.010 C 
ENDROOT
BRANCH   1   2
ATOM      2  C   UNL     1      88.927 105.892  68.882  1.00  0.00     0.100 C 
BRANCH   2   3
ATOM      3  C   UNL     1      88.652 105.149  67.632  1.00  0.00     0.220 C 
ATOM      4  N   UNL     1      87.693 104.179  67.603  1.00  0.00    -0.352 N 
ATOM      5  H   UNL     1      87.247 104.001  68.491  1.00  0.00     0.163 HD
ATOM      6  O   UNL     1      89.301 105.447  66.600  1.00  0.00    -0.275 OA
BRANCH   4   7
ATOM      7  C   UNL     1      87.302 103.438  66.443  1.00  0.00     0.151 C 
BRANCH   7   8
ATOM      8  C   UNL     1      87.845 102.052  66.421  1.00  0.00    -0.025 A 
ATOM      9  C   UNL     1      89.768 100.518  66.412  1.00  0.00     0.160 A 
ATOM     10  C   UNL     1      88.889  99.413  66.425  1.00  0.00     0.157 A 
ATOM     11  C   UNL     1      89.240 101.827  66.391  1.00  0.00     0.056 A 
ATOM     12  C   UNL     1      87.499  99.624  66.416  1.00  0.00     0.050 A 
ATOM     13  C   UNL     1      86.979 100.933  66.425  1.00  0.00     0.009 A 
BRANCH   9  14
ATOM     14  O   UNL     1      91.122 100.324  66.380  1.00  0.00    -0.493 OA
ATOM     15  C   UNL     1      91.804 101.146  65.416  1.00  0.00     0.278 C 
ENDBRANCH   9  14
BRANCH  10  16
ATOM     16  O   UNL     1      89.370  98.142  66.444  1.00  0.00    -0.504 OA
ATOM     17  H   UNL     1      89.903  97.990  65.659  1.00  0.00     0.293 HD
ENDBRANCH  10  16
ENDBRANCH   7   8
ENDBRANCH   4   7
ENDBRANCH   2   3
ENDBRANCH   1   2
BRANCH   1  18
ATOM     18  C   UNL     1      91.056 104.655  69.651  1.00  0.00     0.001 C 
BRANCH  18  19
ATOM     19  C   UNL     1      91.252 103.181  69.195  1.00  0.00     0.000 C 
BRANCH  19  20
ATOM     20  C   UNL     1      90.217 102.234  69.864  1.00  0.00     0.000 C 
BRANCH  20  21
ATOM     21  C   UNL     1      90.778 101.424  71.065  1.00  0.00     0.003 C 
BRANCH  21  22
ATOM     22  C   UNL     1      90.772  99.873  70.863  1.00  0.00    -0.017 C 
ATOM     23  C   UNL     1      92.093  99.408  70.189  1.00  0.00     0.007 C 
ATOM     24  C   UNL     1      89.540  99.350  70.068  1.00  0.00     0.007 C 
ENDBRANCH  21  22
ENDBRANCH  20  21
ENDBRANCH  19  20
ENDBRANCH  18  19
ENDBRANCH   1  18
TORSDOF 11
ENDMDL
