MODEL 1
REMARK VINA RESULT:    -6.280      0.000      0.000
REMARK INTER + INTRA:         -11.627
REMARK INTER:                 -10.319
REMARK INTRA:                  -1.308
REMARK UNBOUND:                -1.308
REMARK SMILES CCCCC[C@H](O)CC(=O)CCc1ccc(O)c(OC)c1
REMARK SMILES IDX 8 1 6 2 7 3 5 5 4 6 3 7 2 8 1 9 9 10 10 11 11 12 12 13 13 14
REMARK SMILES IDX 21 15 14 16 18 17 15 18 16 19 19 20 20 21 17 22
REMARK H PARENT 7 4 17 23
REMARK Flexibility Score: inf
ROOT
ATOM      1  C   UNL     1      92.329  95.030  75.585  1.00  0.00     0.107 C 
ENDROOT
BRANCH   1   2
ATOM      2  C   UNL     1      91.679  95.236  76.955  1.00  0.00     0.121 C 
BRANCH   2   3
ATOM      3  O   UNL     1      91.325  96.607  77.120  1.00  0.00    -0.393 OA
ATOM      4  H   UNL     1      90.381  96.699  76.901  1.00  0.00     0.210 HD
ENDBRANCH   2   3
BRANCH   2   5
ATOM      5  C   UNL     1      90.436  94.364  77.166  1.00  0.00     0.032 C 
BRANCH   5   6
ATOM      6  C   UNL     1      90.798  92.935  77.587  1.00  0.00     0.003 C 
BRANCH   6   7
ATOM      7  C   UNL     1      90.226  91.864  76.652  1.00  0.00    -0.000 C 
BRANCH   7   8
ATOM      8  C   UNL     1      91.115  91.565  75.447  1.00  0.00    -0.003 C 
ATOM      9  C   UNL     1      90.794  90.205  74.846  1.00  0.00     0.004 C 
ENDBRANCH   7   8
ENDBRANCH   6   7
ENDBRANCH   5   6
ENDBRANCH   2   5
ENDBRANCH   1   2
BRANCH   1  10
ATOM     10  C   UNL     1      93.587  95.862  75.390  1.00  0.00     0.135 C 
ATOM     11  O   UNL     1      93.517  97.058  75.109  1.00  0.00    -0.300 OA
BRANCH  10  12
ATOM     12  C   UNL     1      94.914  95.152  75.606  1.00  0.00     0.080 C 
BRANCH  12  13
ATOM     13  C   UNL     1      94.790  93.837  76.379  1.00  0.00     0.043 C 
BRANCH  13  14
ATOM     14  C   UNL     1      95.097  93.985  77.851  1.00  0.00    -0.044 A 
ATOM     15  C   UNL     1      95.485  95.223  78.362  1.00  0.00     0.054 A 
ATOM     16  C   UNL     1      94.993  92.881  78.698  1.00  0.00     0.008 A 
ATOM     17  C   UNL     1      95.767  95.358  79.722  1.00  0.00     0.160 A 
ATOM     18  C   UNL     1      95.275  93.016  80.057  1.00  0.00     0.050 A 
ATOM     19  C   UNL     1      95.663  94.255  80.569  1.00  0.00     0.157 A 
BRANCH  17  20
ATOM     20  O   UNL     1      96.145  96.572  80.210  1.00  0.00    -0.493 OA
ATOM     21  C   UNL     1      97.438  97.046  79.839  1.00  0.00     0.278 C 
ENDBRANCH  17  20
BRANCH  19  22
ATOM     22  O   UNL     1      95.936  94.374  81.898  1.00  0.00    -0.504 OA
ATOM     23  H   UNL     1      95.933  93.490  82.303  1.00  0.00     0.293 HD
ENDBRANCH  19  22
ENDBRANCH  13  14
ENDBRANCH  12  13
ENDBRANCH  10  12
ENDBRANCH   1  10
TORSDOF 12
ENDMDL
MODEL 2
REMARK VINA RESULT:    -5.712      2.331      2.903
REMARK INTER + INTRA:         -10.692
REMARK INTER:                  -9.939
REMARK INTRA:                  -0.753
REMARK UNBOUND:                -1.308
REMARK SMILES CCCCC[C@H](O)CC(=O)CCc1ccc(O)c(OC)c1
REMARK SMILES IDX 8 1 6 2 7 3 5 5 4 6 3 7 2 8 1 9 9 10 10 11 11 12 12 13 13 14
REMARK SMILES IDX 21 15 14 16 18 17 15 18 16 19 19 20 20 21 17 22
REMARK H PARENT 7 4 17 23
REMARK Flexibility Score: inf
ROOT
ATOM      1  C   UNL     1      93.183  94.651  77.471  1.00  0.00     0.107 C 
ENDROOT
BRANCH   1   2
ATOM      2  C   UNL     1      92.484  93.300  77.646  1.00  0.00     0.121 C 
BRANCH   2   3
ATOM      3  O   UNL     1      92.869  92.713  78.886  1.00  0.00    -0.393 OA
ATOM      4  H   UNL     1      93.832  92.573  78.863  1.00  0.00     0.210 HD
ENDBRANCH   2   3
BRANCH   2   5
ATOM      5  C   UNL     1      90.955  93.405  77.590  1.00  0.00     0.032 C 
BRANCH   5   6
ATOM      6  C   UNL     1      90.333  92.310  76.714  1.00  0.00     0.003 C 
BRANCH   6   7
ATOM      7  C   UNL     1      91.229  91.888  75.545  1.00  0.00    -0.000 C 
BRANCH   7   8
ATOM      8  C   UNL     1      90.664  90.727  74.729  1.00  0.00    -0.003 C 
ATOM      9  C   UNL     1      89.481  91.170  73.882  1.00  0.00     0.004 C 
ENDBRANCH   7   8
ENDBRANCH   6   7
ENDBRANCH   5   6
ENDBRANCH   2   5
ENDBRANCH   1   2
BRANCH   1  10
ATOM     10  C   UNL     1      94.574  94.528  76.870  1.00  0.00     0.135 C 
ATOM     11  O   UNL     1      94.795  93.751  75.941  1.00  0.00    -0.300 OA
BRANCH  10  12
ATOM     12  C   UNL     1      95.647  95.440  77.443  1.00  0.00     0.080 C 
BRANCH  12  13
ATOM     13  C   UNL     1      96.682  94.708  78.301  1.00  0.00     0.043 C 
BRANCH  13  14
ATOM     14  C   UNL     1      96.767  95.243  79.711  1.00  0.00    -0.044 A 
ATOM     15  C   UNL     1      97.980  95.208  80.398  1.00  0.00     0.054 A 
ATOM     16  C   UNL     1      95.631  95.771  80.325  1.00  0.00     0.008 A 
ATOM     17  C   UNL     1      98.057  95.702  81.700  1.00  0.00     0.160 A 
ATOM     18  C   UNL     1      95.708  96.266  81.627  1.00  0.00     0.050 A 
ATOM     19  C   UNL     1      96.921  96.231  82.315  1.00  0.00     0.157 A 
BRANCH  17  20
ATOM     20  O   UNL     1      99.247  95.662  82.363  1.00  0.00    -0.493 OA
ATOM     21  C   UNL     1      99.565  94.454  83.052  1.00  0.00     0.278 C 
ENDBRANCH  17  20
BRANCH  19  22
ATOM     22  O   UNL     1      96.985  96.717  83.586  1.00  0.00    -0.504 OA
ATOM     23  H   UNL     1      97.028  97.688  83.552  1.00  0.00     0.293 HD
ENDBRANCH  19  22
ENDBRANCH  13  14
ENDBRANCH  12  13
ENDBRANCH  10  12
ENDBRANCH   1  10
TORSDOF 12
ENDMDL
MODEL 3
REMARK VINA RESULT:    -5.576     12.290     14.208
REMARK INTER + INTRA:         -10.470
REMARK INTER:                  -8.744
REMARK INTRA:                  -1.726
REMARK UNBOUND:                -1.308
REMARK SMILES CCCCC[C@H](O)CC(=O)CCc1ccc(O)c(OC)c1
REMARK SMILES IDX 8 1 6 2 7 3 5 5 4 6 3 7 2 8 1 9 9 10 10 11 11 12 12 13 13 14
REMARK SMILES IDX 21 15 14 16 18 17 15 18 16 19 19 20 20 21 17 22
REMARK H PARENT 7 4 17 23
REMARK Flexibility Score: inf
ROOT
ATOM      1  C   UNL     1      96.315  82.363  74.472  1.00  0.00     0.107 C 
ENDROOT
BRANCH   1   2
ATOM      2  C   UNL     1      97.610  82.740  73.748  1.00  0.00     0.121 C 
BRANCH   2   3
ATOM      3  O   UNL     1      98.336  83.693  74.521  1.00  0.00    -0.393 OA
ATOM      4  H   UNL     1      98.908  84.195  73.914  1.00  0.00     0.210 HD
ENDBRANCH   2   3
BRANCH   2   5
ATOM      5  C   UNL     1      98.510  81.533  73.460  1.00  0.00     0.032 C 
BRANCH   5   6
ATOM      6  C   UNL     1      98.182  80.340  74.367  1.00  0.00     0.003 C 
BRANCH   6   7
ATOM      7  C   UNL     1      99.427  79.656  74.942  1.00  0.00    -0.000 C 
BRANCH   7   8
ATOM      8  C   UNL     1     100.369  80.612  75.672  1.00  0.00    -0.003 C 
ATOM      9  C   UNL     1     101.121  79.904  76.788  1.00  0.00     0.004 C 
ENDBRANCH   7   8
ENDBRANCH   6   7
ENDBRANCH   5   6
ENDBRANCH   2   5
ENDBRANCH   1   2
BRANCH   1  10
ATOM     10  C   UNL     1      96.085  83.169  75.740  1.00  0.00     0.135 C 
ATOM     11  O   UNL     1      95.845  84.375  75.688  1.00  0.00    -0.300 OA
BRANCH  10  12
ATOM     12  C   UNL     1      96.121  82.401  77.052  1.00  0.00     0.080 C 
BRANCH  12  13
ATOM     13  C   UNL     1      97.536  82.092  77.544  1.00  0.00     0.043 C 
BRANCH  13  14
ATOM     14  C   UNL     1      97.587  81.726  79.009  1.00  0.00    -0.044 A 
ATOM     15  C   UNL     1      98.502  80.774  79.459  1.00  0.00     0.054 A 
ATOM     16  C   UNL     1      96.717  82.339  79.911  1.00  0.00     0.008 A 
ATOM     17  C   UNL     1      98.548  80.437  80.812  1.00  0.00     0.160 A 
ATOM     18  C   UNL     1      96.764  82.003  81.264  1.00  0.00     0.050 A 
ATOM     19  C   UNL     1      97.679  81.051  81.714  1.00  0.00     0.157 A 
BRANCH  17  20
ATOM     20  O   UNL     1      99.446  79.506  81.240  1.00  0.00    -0.493 OA
ATOM     21  C   UNL     1     100.127  78.753  80.237  1.00  0.00     0.278 C 
ENDBRANCH  17  20
BRANCH  19  22
ATOM     22  O   UNL     1      97.715  80.730  83.037  1.00  0.00    -0.504 OA
ATOM     23  H   UNL     1      96.844  80.387  83.304  1.00  0.00     0.293 HD
ENDBRANCH  19  22
ENDBRANCH  13  14
ENDBRANCH  12  13
ENDBRANCH  10  12
ENDBRANCH   1  10
TORSDOF 12
ENDMDL
MODEL 4
REMARK VINA RESULT:    -5.501      2.692      5.093
REMARK INTER + INTRA:         -10.347
REMARK INTER:                  -9.471
REMARK INTRA:                  -0.876
REMARK UNBOUND:                -1.308
REMARK SMILES CCCCC[C@H](O)CC(=O)CCc1ccc(O)c(OC)c1
REMARK SMILES IDX 8 1 6 2 7 3 5 5 4 6 3 7 2 8 1 9 9 10 10 11 11 12 12 13 13 14
REMARK SMILES IDX 21 15 14 16 18 17 15 18 16 19 19 20 20 21 17 22
REMARK H PARENT 7 4 17 23
REMARK Flexibility Score: inf
ROOT
ATOM      1  C   UNL     1      93.759  94.788  78.331  1.00  0.00     0.107 C 
ENDROOT
BRANCH   1   2
ATOM      2  C   UNL     1      93.261  93.344  78.236  1.00  0.00     0.121 C 
BRANCH   2   3
ATOM      3  O   UNL     1      93.463  92.680  79.482  1.00  0.00    -0.393 OA
ATOM      4  H   UNL     1      93.973  91.870  79.308  1.00  0.00     0.210 HD
ENDBRANCH   2   3
BRANCH   2   5
ATOM      5  C   UNL     1      91.782  93.244  77.845  1.00  0.00     0.032 C 
BRANCH   5   6
ATOM      6  C   UNL     1      91.600  92.812  76.384  1.00  0.00     0.003 C 
BRANCH   6   7
ATOM      7  C   UNL     1      90.528  91.733  76.200  1.00  0.00    -0.000 C 
BRANCH   7   8
ATOM      8  C   UNL     1      90.693  90.919  74.918  1.00  0.00    -0.003 C 
ATOM      9  C   UNL     1      89.475  91.052  74.016  1.00  0.00     0.004 C 
ENDBRANCH   7   8
ENDBRANCH   6   7
ENDBRANCH   5   6
ENDBRANCH   2   5
ENDBRANCH   1   2
BRANCH   1  10
ATOM     10  C   UNL     1      95.164  94.898  78.902  1.00  0.00     0.135 C 
ATOM     11  O   UNL     1      95.360  94.838  80.116  1.00  0.00    -0.300 OA
BRANCH  10  12
ATOM     12  C   UNL     1      96.299  95.036  77.900  1.00  0.00     0.080 C 
BRANCH  12  13
ATOM     13  C   UNL     1      96.440  96.446  77.322  1.00  0.00     0.043 C 
BRANCH  13  14
ATOM     14  C   UNL     1      96.273  96.491  75.822  1.00  0.00    -0.044 A 
ATOM     15  C   UNL     1      97.179  97.208  75.040  1.00  0.00     0.054 A 
ATOM     16  C   UNL     1      95.213  95.814  75.219  1.00  0.00     0.008 A 
ATOM     17  C   UNL     1      97.024  97.248  73.654  1.00  0.00     0.160 A 
ATOM     18  C   UNL     1      95.058  95.854  73.833  1.00  0.00     0.050 A 
ATOM     19  C   UNL     1      95.963  96.572  73.051  1.00  0.00     0.157 A 
BRANCH  17  20
ATOM     20  O   UNL     1      97.914  97.953  72.901  1.00  0.00    -0.493 OA
ATOM     21  C   UNL     1      97.632  99.335  72.688  1.00  0.00     0.278 C 
ENDBRANCH  17  20
BRANCH  19  22
ATOM     22  O   UNL     1      95.802  96.603  71.699  1.00  0.00    -0.504 OA
ATOM     23  H   UNL     1      94.859  96.730  71.495  1.00  0.00     0.293 HD
ENDBRANCH  19  22
ENDBRANCH  13  14
ENDBRANCH  12  13
ENDBRANCH  10  12
ENDBRANCH   1  10
TORSDOF 12
ENDMDL
MODEL 5
REMARK VINA RESULT:    -5.462     12.429     14.238
REMARK INTER + INTRA:         -10.282
REMARK INTER:                  -9.185
REMARK INTRA:                  -1.097
REMARK UNBOUND:                -1.308
REMARK SMILES CCCCC[C@H](O)CC(=O)CCc1ccc(O)c(OC)c1
REMARK SMILES IDX 8 1 6 2 7 3 5 5 4 6 3 7 2 8 1 9 9 10 10 11 11 12 12 13 13 14
REMARK SMILES IDX 21 15 14 16 18 17 15 18 16 19 19 20 20 21 17 22
REMARK H PARENT 7 4 17 23
REMARK Flexibility Score: inf
ROOT
ATOM      1  C   UNL     1      96.717  81.653  75.818  1.00  0.00     0.107 C 
ENDROOT
BRANCH   1   2
ATOM      2  C   UNL     1      96.727  82.750  74.750  1.00  0.00     0.121 C 
BRANCH   2   3
ATOM      3  O   UNL     1      96.915  84.022  75.366  1.00  0.00    -0.393 OA
ATOM      4  H   UNL     1      96.727  84.706  74.700  1.00  0.00     0.210 HD
ENDBRANCH   2   3
BRANCH   2   5
ATOM      5  C   UNL     1      97.809  82.540  73.684  1.00  0.00     0.032 C 
BRANCH   5   6
ATOM      6  C   UNL     1      99.199  82.350  74.303  1.00  0.00     0.003 C 
BRANCH   6   7
ATOM      7  C   UNL     1     100.146  83.526  74.040  1.00  0.00    -0.000 C 
BRANCH   7   8
ATOM      8  C   UNL     1      99.652  84.478  72.953  1.00  0.00    -0.003 C 
ATOM      9  C   UNL     1     100.394  84.257  71.644  1.00  0.00     0.004 C 
ENDBRANCH   7   8
ENDBRANCH   6   7
ENDBRANCH   5   6
ENDBRANCH   2   5
ENDBRANCH   1   2
BRANCH   1  10
ATOM     10  C   UNL     1      96.656  82.200  77.234  1.00  0.00     0.135 C 
ATOM     11  O   UNL     1      95.644  82.762  77.653  1.00  0.00    -0.300 OA
BRANCH  10  12
ATOM     12  C   UNL     1      97.883  81.977  78.105  1.00  0.00     0.080 C 
BRANCH  12  13
ATOM     13  C   UNL     1      97.887  80.628  78.826  1.00  0.00     0.043 C 
BRANCH  13  14
ATOM     14  C   UNL     1      97.292  80.696  80.213  1.00  0.00    -0.044 A 
ATOM     15  C   UNL     1      97.046  79.522  80.925  1.00  0.00     0.054 A 
ATOM     16  C   UNL     1      96.988  81.933  80.781  1.00  0.00     0.008 A 
ATOM     17  C   UNL     1      96.497  79.586  82.205  1.00  0.00     0.160 A 
ATOM     18  C   UNL     1      96.439  81.997  82.061  1.00  0.00     0.050 A 
ATOM     19  C   UNL     1      96.193  80.823  82.773  1.00  0.00     0.157 A 
BRANCH  17  20
ATOM     20  O   UNL     1      96.260  78.433  82.891  1.00  0.00    -0.493 OA
ATOM     21  C   UNL     1      97.384  77.798  83.499  1.00  0.00     0.278 C 
ENDBRANCH  17  20
BRANCH  19  22
ATOM     22  O   UNL     1      95.656  80.898  84.023  1.00  0.00    -0.504 OA
ATOM     23  H   UNL     1      94.733  80.595  83.990  1.00  0.00     0.293 HD
ENDBRANCH  19  22
ENDBRANCH  13  14
ENDBRANCH  12  13
ENDBRANCH  10  12
ENDBRANCH   1  10
TORSDOF 12
ENDMDL
MODEL 6
REMARK VINA RESULT:    -5.451      2.328      4.914
REMARK INTER + INTRA:         -10.264
REMARK INTER:                  -9.379
REMARK INTRA:                  -0.885
REMARK UNBOUND:                -1.308
REMARK SMILES CCCCC[C@H](O)CC(=O)CCc1ccc(O)c(OC)c1
REMARK SMILES IDX 8 1 6 2 7 3 5 5 4 6 3 7 2 8 1 9 9 10 10 11 11 12 12 13 13 14
REMARK SMILES IDX 21 15 14 16 18 17 15 18 16 19 19 20 20 21 17 22
REMARK H PARENT 7 4 17 23
REMARK Flexibility Score: inf
ROOT
ATOM      1  C   UNL     1      94.082  94.590  78.546  1.00  0.00     0.107 C 
ENDROOT
BRANCH   1   2
ATOM      2  C   UNL     1      93.345  93.276  78.279  1.00  0.00     0.121 C 
BRANCH   2   3
ATOM      3  O   UNL     1      93.207  92.543  79.495  1.00  0.00    -0.393 OA
ATOM      4  H   UNL     1      92.648  91.768  79.313  1.00  0.00     0.210 HD
ENDBRANCH   2   3
BRANCH   2   5
ATOM      5  C   UNL     1      91.959  93.481  77.654  1.00  0.00     0.032 C 
BRANCH   5   6
ATOM      6  C   UNL     1      91.937  93.110  76.167  1.00  0.00     0.003 C 
BRANCH   6   7
ATOM      7  C   UNL     1      90.619  92.468  75.721  1.00  0.00    -0.000 C 
BRANCH   7   8
ATOM      8  C   UNL     1      90.680  90.945  75.631  1.00  0.00    -0.003 C 
ATOM      9  C   UNL     1      90.691  90.475  74.185  1.00  0.00     0.004 C 
ENDBRANCH   7   8
ENDBRANCH   6   7
ENDBRANCH   5   6
ENDBRANCH   2   5
ENDBRANCH   1   2
BRANCH   1  10
ATOM     10  C   UNL     1      95.366  94.403  79.338  1.00  0.00     0.135 C 
ATOM     11  O   UNL     1      95.346  93.924  80.472  1.00  0.00    -0.300 OA
BRANCH  10  12
ATOM     12  C   UNL     1      96.661  94.792  78.641  1.00  0.00     0.080 C 
BRANCH  12  13
ATOM     13  C   UNL     1      96.768  96.286  78.332  1.00  0.00     0.043 C 
BRANCH  13  14
ATOM     14  C   UNL     1      96.898  96.578  76.856  1.00  0.00    -0.044 A 
ATOM     15  C   UNL     1      95.798  96.417  76.013  1.00  0.00     0.054 A 
ATOM     16  C   UNL     1      98.119  97.008  76.336  1.00  0.00     0.008 A 
ATOM     17  C   UNL     1      95.919  96.688  74.650  1.00  0.00     0.160 A 
ATOM     18  C   UNL     1      98.240  97.279  74.973  1.00  0.00     0.050 A 
ATOM     19  C   UNL     1      97.140  97.118  74.130  1.00  0.00     0.157 A 
BRANCH  17  20
ATOM     20  O   UNL     1      94.838  96.527  73.837  1.00  0.00    -0.493 OA
ATOM     21  C   UNL     1      93.610  96.151  74.457  1.00  0.00     0.278 C 
ENDBRANCH  17  20
BRANCH  19  22
ATOM     22  O   UNL     1      97.271  97.386  72.801  1.00  0.00    -0.504 OA
ATOM     23  H   UNL     1      98.039  97.967  72.668  1.00  0.00     0.293 HD
ENDBRANCH  19  22
ENDBRANCH  13  14
ENDBRANCH  12  13
ENDBRANCH  10  12
ENDBRANCH   1  10
TORSDOF 12
ENDMDL
MODEL 7
REMARK VINA RESULT:    -5.375     12.237     14.062
REMARK INTER + INTRA:         -10.138
REMARK INTER:                  -8.958
REMARK INTRA:                  -1.181
REMARK UNBOUND:                -1.308
REMARK SMILES CCCCC[C@H](O)CC(=O)CCc1ccc(O)c(OC)c1
REMARK SMILES IDX 8 1 6 2 7 3 5 5 4 6 3 7 2 8 1 9 9 10 10 11 11 12 12 13 13 14
REMARK SMILES IDX 21 15 14 16 18 17 15 18 16 19 19 20 20 21 17 22
REMARK H PARENT 7 4 17 23
REMARK Flexibility Score: inf
ROOT
ATOM      1  C   UNL     1      97.616  82.179  75.543  1.00  0.00     0.107 C 
ENDROOT
BRANCH   1   2
ATOM      2  C   UNL     1      97.902  82.794  74.171  1.00  0.00     0.121 C 
BRANCH   2   3
ATOM      3  O   UNL     1      98.036  84.208  74.293  1.00  0.00    -0.393 OA
ATOM      4  H   UNL     1      97.241  84.544  74.742  1.00  0.00     0.210 HD
ENDBRANCH   2   3
BRANCH   2   5
ATOM      5  C   UNL     1      99.162  82.223  73.509  1.00  0.00     0.032 C 
BRANCH   5   6
ATOM      6  C   UNL     1     100.362  82.212  74.464  1.00  0.00     0.003 C 
BRANCH   6   7
ATOM      7  C   UNL     1     100.931  80.811  74.708  1.00  0.00    -0.000 C 
BRANCH   7   8
ATOM      8  C   UNL     1     100.840  80.358  76.164  1.00  0.00    -0.003 C 
ATOM      9  C   UNL     1      99.811  79.252  76.338  1.00  0.00     0.004 C 
ENDBRANCH   7   8
ENDBRANCH   6   7
ENDBRANCH   5   6
ENDBRANCH   2   5
ENDBRANCH   1   2
BRANCH   1  10
ATOM     10  C   UNL     1      96.414  82.800  76.235  1.00  0.00     0.135 C 
ATOM     11  O   UNL     1      95.640  83.535  75.621  1.00  0.00    -0.300 OA
BRANCH  10  12
ATOM     12  C   UNL     1      96.200  82.430  77.694  1.00  0.00     0.080 C 
BRANCH  12  13
ATOM     13  C   UNL     1      97.484  82.024  78.420  1.00  0.00     0.043 C 
BRANCH  13  14
ATOM     14  C   UNL     1      97.227  81.349  79.746  1.00  0.00    -0.044 A 
ATOM     15  C   UNL     1      96.743  82.091  80.825  1.00  0.00     0.054 A 
ATOM     16  C   UNL     1      97.472  79.984  79.893  1.00  0.00     0.008 A 
ATOM     17  C   UNL     1      96.505  81.466  82.049  1.00  0.00     0.160 A 
ATOM     18  C   UNL     1      97.234  79.359  81.117  1.00  0.00     0.050 A 
ATOM     19  C   UNL     1      96.751  80.101  82.195  1.00  0.00     0.157 A 
BRANCH  17  20
ATOM     20  O   UNL     1      96.034  82.201  83.095  1.00  0.00    -0.493 OA
ATOM     21  C   UNL     1      96.275  83.606  83.061  1.00  0.00     0.278 C 
ENDBRANCH  17  20
BRANCH  19  22
ATOM     22  O   UNL     1      96.522  79.480  83.386  1.00  0.00    -0.504 OA
ATOM     23  H   UNL     1      96.444  80.153  84.084  1.00  0.00     0.293 HD
ENDBRANCH  19  22
ENDBRANCH  13  14
ENDBRANCH  12  13
ENDBRANCH  10  12
ENDBRANCH   1  10
TORSDOF 12
ENDMDL
MODEL 8
REMARK VINA RESULT:    -5.279     12.200     13.759
REMARK INTER + INTRA:          -9.982
REMARK INTER:                  -9.209
REMARK INTRA:                  -0.773
REMARK UNBOUND:                -1.308
REMARK SMILES CCCCC[C@H](O)CC(=O)CCc1ccc(O)c(OC)c1
REMARK SMILES IDX 8 1 6 2 7 3 5 5 4 6 3 7 2 8 1 9 9 10 10 11 11 12 12 13 13 14
REMARK SMILES IDX 21 15 14 16 18 17 15 18 16 19 19 20 20 21 17 22
REMARK H PARENT 7 4 17 23
REMARK Flexibility Score: inf
ROOT
ATOM      1  C   UNL     1      97.447  82.385  76.328  1.00  0.00     0.107 C 
ENDROOT
BRANCH   1   2
ATOM      2  C   UNL     1      96.578  82.958  75.206  1.00  0.00     0.121 C 
BRANCH   2   3
ATOM      3  O   UNL     1      96.285  84.328  75.473  1.00  0.00    -0.393 OA
ATOM      4  H   UNL     1      95.944  84.387  76.382  1.00  0.00     0.210 HD
ENDBRANCH   2   3
BRANCH   2   5
ATOM      5  C   UNL     1      97.230  82.842  73.823  1.00  0.00     0.032 C 
BRANCH   5   6
ATOM      6  C   UNL     1      98.758  82.949  73.895  1.00  0.00     0.003 C 
BRANCH   6   7
ATOM      7  C   UNL     1      99.311  84.210  73.223  1.00  0.00    -0.000 C 
BRANCH   7   8
ATOM      8  C   UNL     1     100.053  83.932  71.917  1.00  0.00    -0.003 C 
ATOM      9  C   UNL     1     100.358  82.451  71.757  1.00  0.00     0.004 C 
ENDBRANCH   7   8
ENDBRANCH   6   7
ENDBRANCH   5   6
ENDBRANCH   2   5
ENDBRANCH   1   2
BRANCH   1  10
ATOM     10  C   UNL     1      96.758  82.402  77.683  1.00  0.00     0.135 C 
ATOM     11  O   UNL     1      95.552  82.632  77.777  1.00  0.00    -0.300 OA
BRANCH  10  12
ATOM     12  C   UNL     1      97.622  82.079  78.892  1.00  0.00     0.080 C 
BRANCH  12  13
ATOM     13  C   UNL     1      97.216  80.792  79.612  1.00  0.00     0.043 C 
BRANCH  13  14
ATOM     14  C   UNL     1      97.585  80.791  81.076  1.00  0.00    -0.044 A 
ATOM     15  C   UNL     1      97.114  81.801  81.915  1.00  0.00     0.054 A 
ATOM     16  C   UNL     1      98.397  79.779  81.590  1.00  0.00     0.008 A 
ATOM     17  C   UNL     1      97.455  81.799  83.268  1.00  0.00     0.160 A 
ATOM     18  C   UNL     1      98.737  79.777  82.943  1.00  0.00     0.050 A 
ATOM     19  C   UNL     1      98.267  80.787  83.781  1.00  0.00     0.157 A 
BRANCH  17  20
ATOM     20  O   UNL     1      96.990  82.791  84.077  1.00  0.00    -0.493 OA
ATOM     21  C   UNL     1      95.636  82.690  84.514  1.00  0.00     0.278 C 
ENDBRANCH  17  20
BRANCH  19  22
ATOM     22  O   UNL     1      98.606  80.774  85.100  1.00  0.00    -0.504 OA
ATOM     23  H   UNL     1      99.562  80.616  85.180  1.00  0.00     0.293 HD
ENDBRANCH  19  22
ENDBRANCH  13  14
ENDBRANCH  12  13
ENDBRANCH  10  12
ENDBRANCH   1  10
TORSDOF 12
ENDMDL
MODEL 9
REMARK VINA RESULT:    -5.179     21.402     25.203
REMARK INTER + INTRA:          -9.817
REMARK INTER:                  -8.016
REMARK INTRA:                  -1.800
REMARK UNBOUND:                -1.308
REMARK SMILES CCCCC[C@H](O)CC(=O)CCc1ccc(O)c(OC)c1
REMARK SMILES IDX 8 1 6 2 7 3 5 5 4 6 3 7 2 8 1 9 9 10 10 11 11 12 12 13 13 14
REMARK SMILES IDX 21 15 14 16 18 17 15 18 16 19 19 20 20 21 17 22
REMARK H PARENT 7 4 17 23
REMARK Flexibility Score: inf
ROOT
ATOM      1  C   UNL     1      73.354  81.020  63.671  1.00  0.00     0.107 C 
ENDROOT
BRANCH   1   2
ATOM      2  C   UNL     1      71.873  81.226  63.995  1.00  0.00     0.121 C 
BRANCH   2   3
ATOM      3  O   UNL     1      71.538  80.526  65.191  1.00  0.00    -0.393 OA
ATOM      4  H   UNL     1      72.256  79.895  65.378  1.00  0.00     0.210 HD
ENDBRANCH   2   3
BRANCH   2   5
ATOM      5  C   UNL     1      71.493  82.703  64.152  1.00  0.00     0.032 C 
BRANCH   5   6
ATOM      6  C   UNL     1      70.560  82.935  65.347  1.00  0.00     0.003 C 
BRANCH   6   7
ATOM      7  C   UNL     1      71.125  83.919  66.376  1.00  0.00    -0.000 C 
BRANCH   7   8
ATOM      8  C   UNL     1      72.476  84.511  65.979  1.00  0.00    -0.003 C 
ATOM      9  C   UNL     1      73.051  85.376  67.091  1.00  0.00     0.004 C 
ENDBRANCH   7   8
ENDBRANCH   6   7
ENDBRANCH   5   6
ENDBRANCH   2   5
ENDBRANCH   1   2
BRANCH   1  10
ATOM     10  C   UNL     1      74.276  81.418  64.812  1.00  0.00     0.135 C 
ATOM     11  O   UNL     1      73.926  81.282  65.984  1.00  0.00    -0.300 OA
BRANCH  10  12
ATOM     12  C   UNL     1      75.650  81.944  64.427  1.00  0.00     0.080 C 
BRANCH  12  13
ATOM     13  C   UNL     1      75.660  83.428  64.058  1.00  0.00     0.043 C 
BRANCH  13  14
ATOM     14  C   UNL     1      76.158  84.313  65.176  1.00  0.00    -0.044 A 
ATOM     15  C   UNL     1      76.042  85.699  65.074  1.00  0.00     0.054 A 
ATOM     16  C   UNL     1      76.735  83.743  66.312  1.00  0.00     0.008 A 
ATOM     17  C   UNL     1      76.501  86.515  66.108  1.00  0.00     0.160 A 
ATOM     18  C   UNL     1      77.194  84.559  67.346  1.00  0.00     0.050 A 
ATOM     19  C   UNL     1      77.078  85.945  67.243  1.00  0.00     0.157 A 
BRANCH  17  20
ATOM     20  O   UNL     1      76.383  87.868  65.996  1.00  0.00    -0.493 OA
ATOM     21  C   UNL     1      75.525  88.361  64.968  1.00  0.00     0.278 C 
ENDBRANCH  17  20
BRANCH  19  22
ATOM     22  O   UNL     1      77.530  86.731  68.259  1.00  0.00    -0.504 OA
ATOM     23  H   UNL     1      76.922  86.655  69.014  1.00  0.00     0.293 HD
ENDBRANCH  19  22
ENDBRANCH  13  14
ENDBRANCH  12  13
ENDBRANCH  10  12
ENDBRANCH   1  10
TORSDOF 12
ENDMDL
MODEL 10
REMARK VINA RESULT:    -5.131     21.884     25.884
REMARK INTER + INTRA:          -9.738
REMARK INTER:                  -7.575
REMARK INTRA:                  -2.163
REMARK UNBOUND:                -1.308
REMARK SMILES CCCCC[C@H](O)CC(=O)CCc1ccc(O)c(OC)c1
REMARK SMILES IDX 8 1 6 2 7 3 5 5 4 6 3 7 2 8 1 9 9 10 10 11 11 12 12 13 13 14
REMARK SMILES IDX 21 15 14 16 18 17 15 18 16 19 19 20 20 21 17 22
REMARK H PARENT 7 4 17 23
REMARK Flexibility Score: inf
ROOT
ATOM      1  C   UNL     1      72.141  81.986  63.183  1.00  0.00     0.107 C 
ENDROOT
BRANCH   1   2
ATOM      2  C   UNL     1      70.842  82.790  63.076  1.00  0.00     0.121 C 
BRANCH   2   3
ATOM      3  O   UNL     1      70.027  82.546  64.220  1.00  0.00    -0.393 OA
ATOM      4  H   UNL     1      69.288  83.179  64.199  1.00  0.00     0.210 HD
ENDBRANCH   2   3
BRANCH   2   5
ATOM      5  C   UNL     1      71.080  84.299  62.938  1.00  0.00     0.032 C 
BRANCH   5   6
ATOM      6  C   UNL     1      72.558  84.669  63.121  1.00  0.00     0.003 C 
BRANCH   6   7
ATOM      7  C   UNL     1      72.818  85.528  64.362  1.00  0.00    -0.000 C 
BRANCH   7   8
ATOM      8  C   UNL     1      71.583  85.729  65.239  1.00  0.00    -0.003 C 
ATOM      9  C   UNL     1      71.624  84.832  66.466  1.00  0.00     0.004 C 
ENDBRANCH   7   8
ENDBRANCH   6   7
ENDBRANCH   5   6
ENDBRANCH   2   5
ENDBRANCH   1   2
BRANCH   1  10
ATOM     10  C   UNL     1      72.275  81.245  64.503  1.00  0.00     0.135 C 
ATOM     11  O   UNL     1      71.556  80.280  64.763  1.00  0.00    -0.300 OA
BRANCH  10  12
ATOM     12  C   UNL     1      73.364  81.728  65.449  1.00  0.00     0.080 C 
BRANCH  12  13
ATOM     13  C   UNL     1      74.608  82.260  64.734  1.00  0.00     0.043 C 
BRANCH  13  14
ATOM     14  C   UNL     1      75.466  83.137  65.614  1.00  0.00    -0.044 A 
ATOM     15  C   UNL     1      75.003  83.533  66.869  1.00  0.00     0.054 A 
ATOM     16  C   UNL     1      76.722  83.552  65.171  1.00  0.00     0.008 A 
ATOM     17  C   UNL     1      75.798  84.343  67.681  1.00  0.00     0.160 A 
ATOM     18  C   UNL     1      77.517  84.362  65.983  1.00  0.00     0.050 A 
ATOM     19  C   UNL     1      77.054  84.757  67.238  1.00  0.00     0.157 A 
BRANCH  17  20
ATOM     20  O   UNL     1      75.335  84.723  68.905  1.00  0.00    -0.493 OA
ATOM     21  C   UNL     1      74.399  85.800  68.938  1.00  0.00     0.278 C 
ENDBRANCH  17  20
BRANCH  19  22
ATOM     22  O   UNL     1      77.838  85.548  68.022  1.00  0.00    -0.504 OA
ATOM     23  H   UNL     1      77.301  85.905  68.750  1.00  0.00     0.293 HD
ENDBRANCH  19  22
ENDBRANCH  13  14
ENDBRANCH  12  13
ENDBRANCH  10  12
ENDBRANCH   1  10
TORSDOF 12
ENDMDL
