MODEL 1
REMARK VINA RESULT:    -6.205      0.000      0.000
REMARK INTER + INTRA:         -10.713
REMARK INTER:                  -9.652
REMARK INTRA:                  -1.062
REMARK UNBOUND:                -1.062
REMARK SMILES CCCCC/C=C/C(=O)CCc1ccc(O)c(OC)c1
REMARK SMILES IDX 6 1 7 2 8 3 9 4 10 5 11 6 12 7 17 8 20 9 15 10 14 11 13 12
REMARK SMILES IDX 18 13 19 14 16 15 5 17 4 18 3 19 2 20 1 21
REMARK H PARENT 16 16
REMARK Flexibility Score: inf
ROOT
ATOM      1  C   UNL     1      93.910  96.093  76.530  1.00  0.00    -0.023 C 
ATOM      2  C   UNL     1      93.759  97.423  76.492  1.00  0.00     0.043 C 
ENDROOT
BRANCH   2   3
ATOM      3  C   UNL     1      94.957  98.304  76.431  1.00  0.00     0.155 C 
ATOM      4  O   UNL     1      95.454  98.651  75.361  1.00  0.00    -0.295 OA
BRANCH   3   5
ATOM      5  C   UNL     1      95.565  98.711  77.759  1.00  0.00     0.085 C 
BRANCH   5   6
ATOM      6  C   UNL     1      96.401  97.578  78.357  1.00  0.00     0.044 C 
BRANCH   6   7
ATOM      7  C   UNL     1      95.935  97.167  79.733  1.00  0.00    -0.044 A 
ATOM      8  C   UNL     1      95.161  95.467  81.240  1.00  0.00     0.160 A 
ATOM      9  C   UNL     1      95.591  95.846  79.968  1.00  0.00     0.054 A 
ATOM     10  C   UNL     1      95.081  96.415  82.260  1.00  0.00     0.157 A 
ATOM     11  C   UNL     1      95.430  97.742  82.008  1.00  0.00     0.050 A 
ATOM     12  C   UNL     1      95.860  98.120  80.736  1.00  0.00     0.008 A 
BRANCH   8  13
ATOM     13  O   UNL     1      94.822  94.168  81.473  1.00  0.00    -0.493 OA
ATOM     14  C   UNL     1      95.199  93.212  80.484  1.00  0.00     0.278 C 
ENDBRANCH   8  13
BRANCH  10  15
ATOM     15  O   UNL     1      94.663  96.057  83.506  1.00  0.00    -0.504 OA
ATOM     16  H   UNL     1      95.376  96.258  84.137  1.00  0.00     0.293 HD
ENDBRANCH  10  15
ENDBRANCH   6   7
ENDBRANCH   5   6
ENDBRANCH   3   5
ENDBRANCH   2   3
BRANCH   1  17
ATOM     17  C   UNL     1      92.755  95.137  76.592  1.00  0.00     0.027 C 
BRANCH  17  18
ATOM     18  C   UNL     1      91.922  95.283  77.870  1.00  0.00     0.004 C 
BRANCH  18  19
ATOM     19  C   UNL     1      90.528  95.872  77.630  1.00  0.00     0.000 C 
BRANCH  19  20
ATOM     20  C   UNL     1      89.546  94.794  77.169  1.00  0.00    -0.003 C 
ATOM     21  C   UNL     1      89.406  93.688  78.203  1.00  0.00     0.004 C 
ENDBRANCH  19  20
ENDBRANCH  18  19
ENDBRANCH  17  18
ENDBRANCH   1  17
TORSDOF 10
ENDMDL
MODEL 2
REMARK VINA RESULT:    -5.749     20.124     23.412
REMARK INTER + INTRA:         -10.004
REMARK INTER:                  -8.929
REMARK INTRA:                  -1.076
REMARK UNBOUND:                -1.062
REMARK SMILES CCCCC/C=C/C(=O)CCc1ccc(O)c(OC)c1
REMARK SMILES IDX 6 1 7 2 8 3 9 4 10 5 11 6 12 7 17 8 20 9 15 10 14 11 13 12
REMARK SMILES IDX 18 13 19 14 16 15 5 17 4 18 3 19 2 20 1 21
REMARK H PARENT 16 16
REMARK Flexibility Score: inf
ROOT
ATOM      1  C   UNL     1      75.639  87.288  70.253  1.00  0.00    -0.023 C 
ATOM      2  C   UNL     1      75.372  85.978  70.320  1.00  0.00     0.043 C 
ENDROOT
BRANCH   2   3
ATOM      3  C   UNL     1      76.486  85.001  70.458  1.00  0.00     0.155 C 
ATOM      4  O   UNL     1      76.318  83.893  70.963  1.00  0.00    -0.295 OA
BRANCH   3   5
ATOM      5  C   UNL     1      77.853  85.463  69.991  1.00  0.00     0.085 C 
BRANCH   5   6
ATOM      6  C   UNL     1      78.250  84.783  68.680  1.00  0.00     0.044 C 
BRANCH   6   7
ATOM      7  C   UNL     1      77.772  85.535  67.460  1.00  0.00    -0.044 A 
ATOM      8  C   UNL     1      76.805  85.523  65.263  1.00  0.00     0.160 A 
ATOM      9  C   UNL     1      77.248  84.828  66.389  1.00  0.00     0.054 A 
ATOM     10  C   UNL     1      76.893  86.914  65.223  1.00  0.00     0.157 A 
ATOM     11  C   UNL     1      77.423  87.611  66.309  1.00  0.00     0.050 A 
ATOM     12  C   UNL     1      77.866  86.917  67.435  1.00  0.00     0.008 A 
BRANCH   8  13
ATOM     13  O   UNL     1      76.290  84.830  64.209  1.00  0.00    -0.493 OA
ATOM     14  C   UNL     1      77.220  84.229  63.311  1.00  0.00     0.278 C 
ENDBRANCH   8  13
BRANCH  10  15
ATOM     15  O   UNL     1      76.464  87.603  64.129  1.00  0.00    -0.504 OA
ATOM     16  H   UNL     1      76.761  88.526  64.213  1.00  0.00     0.293 HD
ENDBRANCH  10  15
ENDBRANCH   6   7
ENDBRANCH   5   6
ENDBRANCH   3   5
ENDBRANCH   2   3
BRANCH   1  17
ATOM     17  C   UNL     1      74.573  88.336  70.114  1.00  0.00     0.027 C 
BRANCH  17  18
ATOM     18  C   UNL     1      74.671  89.439  71.174  1.00  0.00     0.004 C 
BRANCH  18  19
ATOM     19  C   UNL     1      75.307  90.733  70.657  1.00  0.00     0.000 C 
BRANCH  19  20
ATOM     20  C   UNL     1      75.332  91.808  71.744  1.00  0.00    -0.003 C 
ATOM     21  C   UNL     1      76.717  92.417  71.894  1.00  0.00     0.004 C 
ENDBRANCH  19  20
ENDBRANCH  18  19
ENDBRANCH  17  18
ENDBRANCH   1  17
TORSDOF 10
ENDMDL
MODEL 3
REMARK VINA RESULT:    -5.694      9.198     11.666
REMARK INTER + INTRA:          -9.919
REMARK INTER:                  -8.150
REMARK INTRA:                  -1.769
REMARK UNBOUND:                -1.062
REMARK SMILES CCCCC/C=C/C(=O)CCc1ccc(O)c(OC)c1
REMARK SMILES IDX 6 1 7 2 8 3 9 4 10 5 11 6 12 7 17 8 20 9 15 10 14 11 13 12
REMARK SMILES IDX 18 13 19 14 16 15 5 17 4 18 3 19 2 20 1 21
REMARK H PARENT 16 16
REMARK Flexibility Score: inf
ROOT
ATOM      1  C   UNL     1      88.938 100.157  67.916  1.00  0.00    -0.023 C 
ATOM      2  C   UNL     1      88.155  99.150  68.322  1.00  0.00     0.043 C 
ENDROOT
BRANCH   2   3
ATOM      3  C   UNL     1      88.713  97.775  68.436  1.00  0.00     0.155 C 
ATOM      4  O   UNL     1      88.368  96.870  67.679  1.00  0.00    -0.295 OA
BRANCH   3   5
ATOM      5  C   UNL     1      89.693  97.534  69.568  1.00  0.00     0.085 C 
BRANCH   5   6
ATOM      6  C   UNL     1      89.178  98.124  70.882  1.00  0.00     0.044 C 
BRANCH   6   7
ATOM      7  C   UNL     1      89.870  99.412  71.259  1.00  0.00    -0.044 A 
ATOM      8  C   UNL     1      91.892 100.634  71.683  1.00  0.00     0.160 A 
ATOM      9  C   UNL     1      91.253  99.443  71.335  1.00  0.00     0.054 A 
ATOM     10  C   UNL     1      91.140 101.777  71.950  1.00  0.00     0.157 A 
ATOM     11  C   UNL     1      89.747 101.730  71.870  1.00  0.00     0.050 A 
ATOM     12  C   UNL     1      89.109 100.539  71.522  1.00  0.00     0.008 A 
BRANCH   8  13
ATOM     13  O   UNL     1      93.252 100.666  71.758  1.00  0.00    -0.493 OA
ATOM     14  C   UNL     1      93.965 100.833  70.534  1.00  0.00     0.278 C 
ENDBRANCH   8  13
BRANCH  10  15
ATOM     15  O   UNL     1      91.752 102.945  72.290  1.00  0.00    -0.504 OA
ATOM     16  H   UNL     1      91.336 103.666  71.786  1.00  0.00     0.293 HD
ENDBRANCH  10  15
ENDBRANCH   6   7
ENDBRANCH   5   6
ENDBRANCH   3   5
ENDBRANCH   2   3
BRANCH   1  17
ATOM     17  C   UNL     1      88.451 101.570  67.776  1.00  0.00     0.027 C 
BRANCH  17  18
ATOM     18  C   UNL     1      89.522 102.612  68.114  1.00  0.00     0.004 C 
BRANCH  18  19
ATOM     19  C   UNL     1      90.928 102.021  68.263  1.00  0.00     0.000 C 
BRANCH  19  20
ATOM     20  C   UNL     1      91.896 102.639  67.253  1.00  0.00    -0.003 C 
ATOM     21  C   UNL     1      91.614 102.150  65.841  1.00  0.00     0.004 C 
ENDBRANCH  19  20
ENDBRANCH  18  19
ENDBRANCH  17  18
ENDBRANCH   1  17
TORSDOF 10
ENDMDL
MODEL 4
REMARK VINA RESULT:    -5.671      9.413     11.933
REMARK INTER + INTRA:          -9.883
REMARK INTER:                  -8.240
REMARK INTRA:                  -1.642
REMARK UNBOUND:                -1.062
REMARK SMILES CCCCC/C=C/C(=O)CCc1ccc(O)c(OC)c1
REMARK SMILES IDX 6 1 7 2 8 3 9 4 10 5 11 6 12 7 17 8 20 9 15 10 14 11 13 12
REMARK SMILES IDX 18 13 19 14 16 15 5 17 4 18 3 19 2 20 1 21
REMARK H PARENT 16 16
REMARK Flexibility Score: inf
ROOT
ATOM      1  C   UNL     1      88.951 100.202  67.947  1.00  0.00    -0.023 C 
ATOM      2  C   UNL     1      88.144  99.194  68.302  1.00  0.00     0.043 C 
ENDROOT
BRANCH   2   3
ATOM      3  C   UNL     1      88.703  97.827  68.488  1.00  0.00     0.155 C 
ATOM      4  O   UNL     1      88.350  96.881  67.786  1.00  0.00    -0.295 OA
BRANCH   3   5
ATOM      5  C   UNL     1      89.693  97.649  69.622  1.00  0.00     0.085 C 
BRANCH   5   6
ATOM      6  C   UNL     1      89.142  98.214  70.933  1.00  0.00     0.044 C 
BRANCH   6   7
ATOM      7  C   UNL     1      89.771  99.534  71.314  1.00  0.00    -0.044 A 
ATOM      8  C   UNL     1      89.544 101.867  71.828  1.00  0.00     0.160 A 
ATOM      9  C   UNL     1      88.964 100.648  71.476  1.00  0.00     0.054 A 
ATOM     10  C   UNL     1      90.924 101.955  72.013  1.00  0.00     0.157 A 
ATOM     11  C   UNL     1      91.723 100.824  71.845  1.00  0.00     0.050 A 
ATOM     12  C   UNL     1      91.142  99.605  71.493  1.00  0.00     0.008 A 
BRANCH   8  13
ATOM     13  O   UNL     1      88.753 102.964  71.988  1.00  0.00    -0.493 OA
ATOM     14  C   UNL     1      88.002 103.051  73.197  1.00  0.00     0.278 C 
ENDBRANCH   8  13
BRANCH  10  15
ATOM     15  O   UNL     1      91.502 103.139  72.357  1.00  0.00    -0.504 OA
ATOM     16  H   UNL     1      92.144 102.970  73.068  1.00  0.00     0.293 HD
ENDBRANCH  10  15
ENDBRANCH   6   7
ENDBRANCH   5   6
ENDBRANCH   3   5
ENDBRANCH   2   3
BRANCH   1  17
ATOM     17  C   UNL     1      88.465 101.607  67.740  1.00  0.00     0.027 C 
BRANCH  17  18
ATOM     18  C   UNL     1      89.520 102.665  68.082  1.00  0.00     0.004 C 
BRANCH  18  19
ATOM     19  C   UNL     1      90.926 102.089  68.275  1.00  0.00     0.000 C 
BRANCH  19  20
ATOM     20  C   UNL     1      91.896 102.639  67.228  1.00  0.00    -0.003 C 
ATOM     21  C   UNL     1      91.678 101.989  65.871  1.00  0.00     0.004 C 
ENDBRANCH  19  20
ENDBRANCH  18  19
ENDBRANCH  17  18
ENDBRANCH   1  17
TORSDOF 10
ENDMDL
MODEL 5
REMARK VINA RESULT:    -5.660     19.273     23.701
REMARK INTER + INTRA:          -9.865
REMARK INTER:                  -9.083
REMARK INTRA:                  -0.781
REMARK UNBOUND:                -1.062
REMARK SMILES CCCCC/C=C/C(=O)CCc1ccc(O)c(OC)c1
REMARK SMILES IDX 6 1 7 2 8 3 9 4 10 5 11 6 12 7 17 8 20 9 15 10 14 11 13 12
REMARK SMILES IDX 18 13 19 14 16 15 5 17 4 18 3 19 2 20 1 21
REMARK H PARENT 16 16
REMARK Flexibility Score: inf
ROOT
ATOM      1  C   UNL     1      75.716  88.590  70.423  1.00  0.00    -0.023 C 
ATOM      2  C   UNL     1      75.936  87.294  70.166  1.00  0.00     0.043 C 
ENDROOT
BRANCH   2   3
ATOM      3  C   UNL     1      77.143  86.885  69.397  1.00  0.00     0.155 C 
ATOM      4  O   UNL     1      77.483  87.464  68.368  1.00  0.00    -0.295 OA
BRANCH   3   5
ATOM      5  C   UNL     1      77.902  85.682  69.921  1.00  0.00     0.085 C 
BRANCH   5   6
ATOM      6  C   UNL     1      77.089  84.397  69.757  1.00  0.00     0.044 C 
BRANCH   6   7
ATOM      7  C   UNL     1      77.007  83.934  68.321  1.00  0.00    -0.044 A 
ATOM      8  C   UNL     1      75.717  83.068  66.493  1.00  0.00     0.160 A 
ATOM      9  C   UNL     1      75.792  83.495  67.818  1.00  0.00     0.054 A 
ATOM     10  C   UNL     1      76.855  83.085  65.688  1.00  0.00     0.157 A 
ATOM     11  C   UNL     1      78.071  83.529  66.209  1.00  0.00     0.050 A 
ATOM     12  C   UNL     1      78.147  83.956  67.535  1.00  0.00     0.008 A 
BRANCH   8  13
ATOM     13  O   UNL     1      74.524  82.636  65.995  1.00  0.00    -0.493 OA
ATOM     14  C   UNL     1      73.521  83.624  65.767  1.00  0.00     0.278 C 
ENDBRANCH   8  13
BRANCH  10  15
ATOM     15  O   UNL     1      76.794  82.671  64.392  1.00  0.00    -0.504 OA
ATOM     16  H   UNL     1      77.677  82.771  63.997  1.00  0.00     0.293 HD
ENDBRANCH  10  15
ENDBRANCH   6   7
ENDBRANCH   5   6
ENDBRANCH   3   5
ENDBRANCH   2   3
BRANCH   1  17
ATOM     17  C   UNL     1      74.523  89.083  71.190  1.00  0.00     0.027 C 
BRANCH  17  18
ATOM     18  C   UNL     1      74.477  90.610  71.313  1.00  0.00     0.004 C 
BRANCH  18  19
ATOM     19  C   UNL     1      75.841  91.282  71.129  1.00  0.00     0.000 C 
BRANCH  19  20
ATOM     20  C   UNL     1      76.101  92.312  72.230  1.00  0.00    -0.003 C 
ATOM     21  C   UNL     1      77.571  92.696  72.297  1.00  0.00     0.004 C 
ENDBRANCH  19  20
ENDBRANCH  18  19
ENDBRANCH  17  18
ENDBRANCH   1  17
TORSDOF 10
ENDMDL
MODEL 6
REMARK VINA RESULT:    -5.633      1.478      4.288
REMARK INTER + INTRA:          -9.823
REMARK INTER:                  -8.666
REMARK INTRA:                  -1.158
REMARK UNBOUND:                -1.062
REMARK SMILES CCCCC/C=C/C(=O)CCc1ccc(O)c(OC)c1
REMARK SMILES IDX 6 1 7 2 8 3 9 4 10 5 11 6 12 7 17 8 20 9 15 10 14 11 13 12
REMARK SMILES IDX 18 13 19 14 16 15 5 17 4 18 3 19 2 20 1 21
REMARK H PARENT 16 16
REMARK Flexibility Score: inf
ROOT
ATOM      1  C   UNL     1      93.313  94.404  79.160  1.00  0.00    -0.023 C 
ATOM      2  C   UNL     1      94.444  93.802  79.547  1.00  0.00     0.043 C 
ENDROOT
BRANCH   2   3
ATOM      3  C   UNL     1      94.805  93.758  80.991  1.00  0.00     0.155 C 
ATOM      4  O   UNL     1      94.355  92.899  81.746  1.00  0.00    -0.295 OA
BRANCH   3   5
ATOM      5  C   UNL     1      95.716  94.861  81.494  1.00  0.00     0.085 C 
BRANCH   5   6
ATOM      6  C   UNL     1      96.671  95.335  80.398  1.00  0.00     0.044 C 
BRANCH   6   7
ATOM      7  C   UNL     1      96.462  96.783  80.021  1.00  0.00    -0.044 A 
ATOM      8  C   UNL     1      95.957  98.443  78.364  1.00  0.00     0.160 A 
ATOM      9  C   UNL     1      96.151  97.105  78.710  1.00  0.00     0.054 A 
ATOM     10  C   UNL     1      96.077  99.439  79.331  1.00  0.00     0.157 A 
ATOM     11  C   UNL     1      96.392  99.098  80.648  1.00  0.00     0.050 A 
ATOM     12  C   UNL     1      96.586  97.761  80.994  1.00  0.00     0.008 A 
BRANCH   8  13
ATOM     13  O   UNL     1      95.651  98.763  77.075  1.00  0.00    -0.493 OA
ATOM     14  C   UNL     1      96.516  98.259  76.059  1.00  0.00     0.278 C 
ENDBRANCH   8  13
BRANCH  10  15
ATOM     15  O   UNL     1      95.890 100.748  79.005  1.00  0.00    -0.504 OA
ATOM     16  H   UNL     1      96.579 101.274  79.447  1.00  0.00     0.293 HD
ENDBRANCH  10  15
ENDBRANCH   6   7
ENDBRANCH   5   6
ENDBRANCH   3   5
ENDBRANCH   2   3
BRANCH   1  17
ATOM     17  C   UNL     1      92.879  94.491  77.726  1.00  0.00     0.027 C 
BRANCH  17  18
ATOM     18  C   UNL     1      92.183  95.814  77.387  1.00  0.00     0.004 C 
BRANCH  18  19
ATOM     19  C   UNL     1      90.697  95.838  77.758  1.00  0.00     0.000 C 
BRANCH  19  20
ATOM     20  C   UNL     1      89.940  94.696  77.078  1.00  0.00    -0.003 C 
ATOM     21  C   UNL     1      89.331  93.746  78.097  1.00  0.00     0.004 C 
ENDBRANCH  19  20
ENDBRANCH  18  19
ENDBRANCH  17  18
ENDBRANCH   1  17
TORSDOF 10
ENDMDL
MODEL 7
REMARK VINA RESULT:    -5.604     30.874     34.844
REMARK INTER + INTRA:          -9.779
REMARK INTER:                  -8.165
REMARK INTRA:                  -1.614
REMARK UNBOUND:                -1.062
REMARK SMILES CCCCC/C=C/C(=O)CCc1ccc(O)c(OC)c1
REMARK SMILES IDX 6 1 7 2 8 3 9 4 10 5 11 6 12 7 17 8 20 9 15 10 14 11 13 12
REMARK SMILES IDX 18 13 19 14 16 15 5 17 4 18 3 19 2 20 1 21
REMARK H PARENT 16 16
REMARK Flexibility Score: inf
ROOT
ATOM      1  C   UNL     1      62.313  84.682  72.832  1.00  0.00    -0.023 C 
ATOM      2  C   UNL     1      61.464  83.679  73.090  1.00  0.00     0.043 C 
ENDROOT
BRANCH   2   3
ATOM      3  C   UNL     1      61.865  82.590  74.023  1.00  0.00     0.155 C 
ATOM      4  O   UNL     1      61.849  82.742  75.242  1.00  0.00    -0.295 OA
BRANCH   3   5
ATOM      5  C   UNL     1      62.343  81.299  73.389  1.00  0.00     0.085 C 
BRANCH   5   6
ATOM      6  C   UNL     1      63.840  81.353  73.080  1.00  0.00     0.044 C 
BRANCH   6   7
ATOM      7  C   UNL     1      64.139  81.927  71.715  1.00  0.00    -0.044 A 
ATOM      8  C   UNL     1      65.577  83.185  70.263  1.00  0.00     0.160 A 
ATOM      9  C   UNL     1      65.302  82.656  71.524  1.00  0.00     0.054 A 
ATOM     10  C   UNL     1      64.686  82.978  69.210  1.00  0.00     0.157 A 
ATOM     11  C   UNL     1      63.519  82.242  69.419  1.00  0.00     0.050 A 
ATOM     12  C   UNL     1      63.244  81.713  70.680  1.00  0.00     0.008 A 
BRANCH   8  13
ATOM     13  O   UNL     1      66.719  83.902  70.073  1.00  0.00    -0.493 OA
ATOM     14  C   UNL     1      67.952  83.188  70.144  1.00  0.00     0.278 C 
ENDBRANCH   8  13
BRANCH  10  15
ATOM     15  O   UNL     1      64.944  83.490  67.974  1.00  0.00    -0.504 OA
ATOM     16  H   UNL     1      65.905  83.467  67.829  1.00  0.00     0.293 HD
ENDBRANCH  10  15
ENDBRANCH   6   7
ENDBRANCH   5   6
ENDBRANCH   3   5
ENDBRANCH   2   3
BRANCH   1  17
ATOM     17  C   UNL     1      61.985  85.815  71.904  1.00  0.00     0.027 C 
BRANCH  17  18
ATOM     18  C   UNL     1      61.563  85.347  70.508  1.00  0.00     0.004 C 
BRANCH  18  19
ATOM     19  C   UNL     1      60.132  85.747  70.133  1.00  0.00     0.000 C 
BRANCH  19  20
ATOM     20  C   UNL     1      59.199  84.535  70.148  1.00  0.00    -0.003 C 
ATOM     21  C   UNL     1      58.270  84.561  71.351  1.00  0.00     0.004 C 
ENDBRANCH  19  20
ENDBRANCH  18  19
ENDBRANCH  17  18
ENDBRANCH   1  17
TORSDOF 10
ENDMDL
MODEL 8
REMARK VINA RESULT:    -5.598     22.762     27.153
REMARK INTER + INTRA:          -9.769
REMARK INTER:                  -8.781
REMARK INTRA:                  -0.987
REMARK UNBOUND:                -1.062
REMARK SMILES CCCCC/C=C/C(=O)CCc1ccc(O)c(OC)c1
REMARK SMILES IDX 6 1 7 2 8 3 9 4 10 5 11 6 12 7 17 8 20 9 15 10 14 11 13 12
REMARK SMILES IDX 18 13 19 14 16 15 5 17 4 18 3 19 2 20 1 21
REMARK H PARENT 16 16
REMARK Flexibility Score: inf
ROOT
ATOM      1  C   UNL     1      77.366  85.444  66.819  1.00  0.00    -0.023 C 
ATOM      2  C   UNL     1      77.697  84.197  67.179  1.00  0.00     0.043 C 
ENDROOT
BRANCH   2   3
ATOM      3  C   UNL     1      77.136  83.037  66.434  1.00  0.00     0.155 C 
ATOM      4  O   UNL     1      77.680  82.588  65.428  1.00  0.00    -0.295 OA
BRANCH   3   5
ATOM      5  C   UNL     1      75.828  82.470  66.951  1.00  0.00     0.085 C 
BRANCH   5   6
ATOM      6  C   UNL     1      75.410  81.229  66.161  1.00  0.00     0.044 C 
BRANCH   6   7
ATOM      7  C   UNL     1      74.081  81.398  65.462  1.00  0.00    -0.044 A 
ATOM      8  C   UNL     1      71.889  82.372  65.382  1.00  0.00     0.160 A 
ATOM      9  C   UNL     1      73.116  82.216  66.028  1.00  0.00     0.054 A 
ATOM     10  C   UNL     1      71.644  81.708  64.180  1.00  0.00     0.157 A 
ATOM     11  C   UNL     1      72.626  80.888  63.624  1.00  0.00     0.050 A 
ATOM     12  C   UNL     1      73.852  80.732  64.270  1.00  0.00     0.008 A 
BRANCH   8  13
ATOM     13  O   UNL     1      70.939  83.176  65.936  1.00  0.00    -0.493 OA
ATOM     14  C   UNL     1      70.176  82.632  67.011  1.00  0.00     0.278 C 
ENDBRANCH   8  13
BRANCH  10  15
ATOM     15  O   UNL     1      70.450  81.853  63.540  1.00  0.00    -0.504 OA
ATOM     16  H   UNL     1      70.546  82.551  62.870  1.00  0.00     0.293 HD
ENDBRANCH  10  15
ENDBRANCH   6   7
ENDBRANCH   5   6
ENDBRANCH   3   5
ENDBRANCH   2   3
BRANCH   1  17
ATOM     17  C   UNL     1      77.888  86.665  67.519  1.00  0.00     0.027 C 
BRANCH  17  18
ATOM     18  C   UNL     1      77.826  86.556  69.046  1.00  0.00     0.004 C 
BRANCH  18  19
ATOM     19  C   UNL     1      76.556  87.159  69.654  1.00  0.00     0.000 C 
BRANCH  19  20
ATOM     20  C   UNL     1      75.669  86.073  70.266  1.00  0.00    -0.003 C 
ATOM     21  C   UNL     1      76.457  84.806  70.554  1.00  0.00     0.004 C 
ENDBRANCH  19  20
ENDBRANCH  18  19
ENDBRANCH  17  18
ENDBRANCH   1  17
TORSDOF 10
ENDMDL
MODEL 9
REMARK VINA RESULT:    -5.556     22.030     25.269
REMARK INTER + INTRA:          -9.704
REMARK INTER:                  -8.691
REMARK INTRA:                  -1.013
REMARK UNBOUND:                -1.062
REMARK SMILES CCCCC/C=C/C(=O)CCc1ccc(O)c(OC)c1
REMARK SMILES IDX 6 1 7 2 8 3 9 4 10 5 11 6 12 7 17 8 20 9 15 10 14 11 13 12
REMARK SMILES IDX 18 13 19 14 16 15 5 17 4 18 3 19 2 20 1 21
REMARK H PARENT 16 16
REMARK Flexibility Score: inf
ROOT
ATOM      1  C   UNL     1      74.576  82.916  66.065  1.00  0.00    -0.023 C 
ATOM      2  C   UNL     1      75.510  82.042  66.460  1.00  0.00     0.043 C 
ENDROOT
BRANCH   2   3
ATOM      3  C   UNL     1      76.894  82.141  65.922  1.00  0.00     0.155 C 
ATOM      4  O   UNL     1      77.570  81.142  65.683  1.00  0.00    -0.295 OA
BRANCH   3   5
ATOM      5  C   UNL     1      77.447  83.540  65.732  1.00  0.00     0.085 C 
BRANCH   5   6
ATOM      6  C   UNL     1      78.378  83.929  66.881  1.00  0.00     0.044 C 
BRANCH   6   7
ATOM      7  C   UNL     1      77.820  85.040  67.739  1.00  0.00    -0.044 A 
ATOM      8  C   UNL     1      76.696  85.754  69.736  1.00  0.00     0.160 A 
ATOM      9  C   UNL     1      77.212  84.728  68.944  1.00  0.00     0.054 A 
ATOM     10  C   UNL     1      76.796  87.079  69.312  1.00  0.00     0.157 A 
ATOM     11  C   UNL     1      77.411  87.378  68.096  1.00  0.00     0.050 A 
ATOM     12  C   UNL     1      77.926  86.351  67.304  1.00  0.00     0.008 A 
BRANCH   8  13
ATOM     13  O   UNL     1      76.098  85.449  70.921  1.00  0.00    -0.493 OA
ATOM     14  C   UNL     1      76.006  84.068  71.265  1.00  0.00     0.278 C 
ENDBRANCH   8  13
BRANCH  10  15
ATOM     15  O   UNL     1      76.297  88.090  70.076  1.00  0.00    -0.504 OA
ATOM     16  H   UNL     1      75.448  87.799  70.451  1.00  0.00     0.293 HD
ENDBRANCH  10  15
ENDBRANCH   6   7
ENDBRANCH   5   6
ENDBRANCH   3   5
ENDBRANCH   2   3
BRANCH   1  17
ATOM     17  C   UNL     1      73.160  82.883  66.560  1.00  0.00     0.027 C 
BRANCH  17  18
ATOM     18  C   UNL     1      72.127  82.851  65.428  1.00  0.00     0.004 C 
BRANCH  18  19
ATOM     19  C   UNL     1      72.550  81.987  64.236  1.00  0.00     0.000 C 
BRANCH  19  20
ATOM     20  C   UNL     1      72.324  80.502  64.525  1.00  0.00    -0.003 C 
ATOM     21  C   UNL     1      72.491  79.659  63.270  1.00  0.00     0.004 C 
ENDBRANCH  19  20
ENDBRANCH  18  19
ENDBRANCH  17  18
ENDBRANCH   1  17
TORSDOF 10
ENDMDL
MODEL 10
REMARK VINA RESULT:    -5.371     22.374     24.771
REMARK INTER + INTRA:          -9.416
REMARK INTER:                  -8.267
REMARK INTRA:                  -1.149
REMARK UNBOUND:                -1.062
REMARK SMILES CCCCC/C=C/C(=O)CCc1ccc(O)c(OC)c1
REMARK SMILES IDX 6 1 7 2 8 3 9 4 10 5 11 6 12 7 17 8 20 9 15 10 14 11 13 12
REMARK SMILES IDX 18 13 19 14 16 15 5 17 4 18 3 19 2 20 1 21
REMARK H PARENT 16 16
REMARK Flexibility Score: inf
ROOT
ATOM      1  C   UNL     1      77.440  84.440  65.764  1.00  0.00    -0.023 C 
ATOM      2  C   UNL     1      78.123  83.941  66.802  1.00  0.00     0.043 C 
ENDROOT
BRANCH   2   3
ATOM      3  C   UNL     1      77.964  84.544  68.153  1.00  0.00     0.155 C 
ATOM      4  O   UNL     1      78.704  85.439  68.556  1.00  0.00    -0.295 OA
BRANCH   3   5
ATOM      5  C   UNL     1      76.874  83.959  69.030  1.00  0.00     0.085 C 
BRANCH   5   6
ATOM      6  C   UNL     1      76.651  84.810  70.281  1.00  0.00     0.044 C 
BRANCH   6   7
ATOM      7  C   UNL     1      75.533  85.812  70.118  1.00  0.00    -0.044 A 
ATOM      8  C   UNL     1      73.263  86.308  69.516  1.00  0.00     0.160 A 
ATOM      9  C   UNL     1      74.296  85.382  69.666  1.00  0.00     0.054 A 
ATOM     10  C   UNL     1      73.481  87.652  69.820  1.00  0.00     0.157 A 
ATOM     11  C   UNL     1      74.733  88.069  70.274  1.00  0.00     0.050 A 
ATOM     12  C   UNL     1      75.765  87.143  70.424  1.00  0.00     0.008 A 
BRANCH   8  13
ATOM     13  O   UNL     1      72.046  85.888  69.071  1.00  0.00    -0.493 OA
ATOM     14  C   UNL     1      71.211  85.213  70.010  1.00  0.00     0.278 C 
ENDBRANCH   8  13
BRANCH  10  15
ATOM     15  O   UNL     1      72.481  88.565  69.678  1.00  0.00    -0.504 OA
ATOM     16  H   UNL     1      72.868  89.455  69.748  1.00  0.00     0.293 HD
ENDBRANCH  10  15
ENDBRANCH   6   7
ENDBRANCH   5   6
ENDBRANCH   3   5
ENDBRANCH   2   3
BRANCH   1  17
ATOM     17  C   UNL     1      77.545  83.890  64.372  1.00  0.00     0.027 C 
BRANCH  17  18
ATOM     18  C   UNL     1      76.297  83.117  63.934  1.00  0.00     0.004 C 
BRANCH  18  19
ATOM     19  C   UNL     1      76.321  81.637  64.329  1.00  0.00     0.000 C 
BRANCH  19  20
ATOM     20  C   UNL     1      75.079  81.262  65.138  1.00  0.00    -0.003 C 
ATOM     21  C   UNL     1      75.281  81.522  66.622  1.00  0.00     0.004 C 
ENDBRANCH  19  20
ENDBRANCH  18  19
ENDBRANCH  17  18
ENDBRANCH   1  17
TORSDOF 10
ENDMDL
