MODEL 1
REMARK VINA RESULT:    -7.099      0.000      0.000
REMARK INTER + INTRA:         -11.706
REMARK INTER:                 -11.042
REMARK INTRA:                  -0.664
REMARK UNBOUND:                -0.664
REMARK SMILES COc1cc(CNC(=O)CCCC/C=C/C(C)C)ccc1O
REMARK SMILES IDX 10 1 8 2 7 3 9 5 6 6 5 7 3 8 21 9 4 10 20 11 19 12 2 13 1 14
REMARK SMILES IDX 22 15 11 17 12 18 13 19 14 20 15 21 16 22 17 23 18 24
REMARK H PARENT 7 4 22 16
REMARK Flexibility Score: inf
ROOT
ATOM      1  C   UNL     1      92.262  94.804  76.444  1.00  0.00     0.100 C 
ENDROOT
BRANCH   1   2
ATOM      2  C   UNL     1      90.999  94.105  76.135  1.00  0.00     0.220 C 
ATOM      3  N   UNL     1      91.015  92.840  75.630  1.00  0.00    -0.352 N 
ATOM      4  H   UNL     1      91.937  92.455  75.471  1.00  0.00     0.163 HD
ATOM      5  O   UNL     1      89.920  94.699  76.374  1.00  0.00    -0.275 OA
BRANCH   3   6
ATOM      6  C   UNL     1      89.853  92.067  75.329  1.00  0.00     0.151 C 
BRANCH   6   7
ATOM      7  C   UNL     1      90.187  90.630  75.133  1.00  0.00    -0.025 A 
ATOM      8  C   UNL     1      90.606  88.395  76.077  1.00  0.00     0.160 A 
ATOM      9  C   UNL     1      90.805  87.883  74.778  1.00  0.00     0.157 A 
ATOM     10  C   UNL     1      90.302  89.762  76.243  1.00  0.00     0.056 A 
ATOM     11  C   UNL     1      90.713  88.740  73.664  1.00  0.00     0.050 A 
ATOM     12  C   UNL     1      90.397  90.101  73.838  1.00  0.00     0.009 A 
BRANCH   8  13
ATOM     13  O   UNL     1      90.760  87.578  77.169  1.00  0.00    -0.493 OA
ATOM     14  C   UNL     1      89.750  87.754  78.179  1.00  0.00     0.278 C 
ENDBRANCH   8  13
BRANCH   9  15
ATOM     15  O   UNL     1      91.086  86.568  74.583  1.00  0.00    -0.504 OA
ATOM     16  H   UNL     1      91.169  86.394  73.642  1.00  0.00     0.293 HD
ENDBRANCH   9  15
ENDBRANCH   6   7
ENDBRANCH   3   6
ENDBRANCH   1   2
BRANCH   1  17
ATOM     17  C   UNL     1      93.297  93.852  77.101  1.00  0.00     0.010 C 
BRANCH  17  18
ATOM     18  C   UNL     1      94.749  94.103  76.605  1.00  0.00     0.005 C 
BRANCH  18  19
ATOM     19  C   UNL     1      95.549  95.028  77.562  1.00  0.00     0.027 C 
BRANCH  19  20
ATOM     20  C   UNL     1      95.220  94.786  78.958  1.00  0.00    -0.031 C 
ATOM     21  C   UNL     1      95.785  95.437  79.992  1.00  0.00    -0.028 C 
BRANCH  21  22
ATOM     22  C   UNL     1      95.423  95.191  81.388  1.00  0.00     0.005 C 
ATOM     23  C   UNL     1      95.756  93.742  81.837  1.00  0.00     0.012 C 
ATOM     24  C   UNL     1      96.115  96.229  82.310  1.00  0.00     0.012 C 
ENDBRANCH  21  22
ENDBRANCH  19  20
ENDBRANCH  18  19
ENDBRANCH  17  18
ENDBRANCH   1  17
TORSDOF 10
ENDMDL
MODEL 2
REMARK VINA RESULT:    -6.788      1.482      2.475
REMARK INTER + INTRA:         -11.223
REMARK INTER:                 -10.339
REMARK INTRA:                  -0.884
REMARK UNBOUND:                -0.664
REMARK SMILES COc1cc(CNC(=O)CCCC/C=C/C(C)C)ccc1O
REMARK SMILES IDX 10 1 8 2 7 3 9 5 6 6 5 7 3 8 21 9 4 10 20 11 19 12 2 13 1 14
REMARK SMILES IDX 22 15 11 17 12 18 13 19 14 20 15 21 16 22 17 23 18 24
REMARK H PARENT 7 4 22 16
REMARK Flexibility Score: inf
ROOT
ATOM      1  C   UNL     1      93.900  94.230  74.919  1.00  0.00     0.100 C 
ENDROOT
BRANCH   1   2
ATOM      2  C   UNL     1      92.476  94.071  75.271  1.00  0.00     0.220 C 
ATOM      3  N   UNL     1      91.751  93.035  74.765  1.00  0.00    -0.352 N 
ATOM      4  H   UNL     1      92.256  92.428  74.135  1.00  0.00     0.163 HD
ATOM      5  O   UNL     1      91.965  94.901  76.062  1.00  0.00    -0.275 OA
BRANCH   3   6
ATOM      6  C   UNL     1      90.379  92.775  75.068  1.00  0.00     0.151 C 
BRANCH   6   7
ATOM      7  C   UNL     1      90.240  91.740  76.128  1.00  0.00    -0.025 A 
ATOM      8  C   UNL     1      89.944  89.383  76.776  1.00  0.00     0.160 A 
ATOM      9  C   UNL     1      89.993  89.750  78.137  1.00  0.00     0.157 A 
ATOM     10  C   UNL     1      90.066  90.380  75.786  1.00  0.00     0.056 A 
ATOM     11  C   UNL     1      90.146  91.104  78.493  1.00  0.00     0.050 A 
ATOM     12  C   UNL     1      90.279  92.092  77.498  1.00  0.00     0.009 A 
BRANCH   8  13
ATOM     13  O   UNL     1      89.729  88.075  76.424  1.00  0.00    -0.493 OA
ATOM     14  C   UNL     1      90.336  87.696  75.174  1.00  0.00     0.278 C 
ENDBRANCH   8  13
BRANCH   9  15
ATOM     15  O   UNL     1      89.892  88.813  79.115  1.00  0.00    -0.504 OA
ATOM     16  H   UNL     1      90.762  88.459  79.310  1.00  0.00     0.293 HD
ENDBRANCH   9  15
ENDBRANCH   6   7
ENDBRANCH   3   6
ENDBRANCH   1   2
BRANCH   1  17
ATOM     17  C   UNL     1      94.582  95.331  75.776  1.00  0.00     0.010 C 
BRANCH  17  18
ATOM     18  C   UNL     1      95.997  94.922  76.273  1.00  0.00     0.005 C 
BRANCH  18  19
ATOM     19  C   UNL     1      95.956  93.698  77.227  1.00  0.00     0.027 C 
BRANCH  19  20
ATOM     20  C   UNL     1      95.564  94.070  78.578  1.00  0.00    -0.031 C 
ATOM     21  C   UNL     1      95.914  95.223  79.176  1.00  0.00    -0.028 C 
BRANCH  21  22
ATOM     22  C   UNL     1      95.491  95.586  80.529  1.00  0.00     0.005 C 
ATOM     23  C   UNL     1      95.613  94.398  81.523  1.00  0.00     0.012 C 
ATOM     24  C   UNL     1      96.297  96.812  81.032  1.00  0.00     0.012 C 
ENDBRANCH  21  22
ENDBRANCH  19  20
ENDBRANCH  18  19
ENDBRANCH  17  18
ENDBRANCH   1  17
TORSDOF 10
ENDMDL
MODEL 3
REMARK VINA RESULT:    -6.491      2.310      3.595
REMARK INTER + INTRA:         -10.761
REMARK INTER:                  -9.825
REMARK INTRA:                  -0.936
REMARK UNBOUND:                -0.664
REMARK SMILES COc1cc(CNC(=O)CCCC/C=C/C(C)C)ccc1O
REMARK SMILES IDX 10 1 8 2 7 3 9 5 6 6 5 7 3 8 21 9 4 10 20 11 19 12 2 13 1 14
REMARK SMILES IDX 22 15 11 17 12 18 13 19 14 20 15 21 16 22 17 23 18 24
REMARK H PARENT 7 4 22 16
REMARK Flexibility Score: inf
ROOT
ATOM      1  C   UNL     1      92.080  94.850  76.605  1.00  0.00     0.100 C 
ENDROOT
BRANCH   1   2
ATOM      2  C   UNL     1      90.929  94.396  75.800  1.00  0.00     0.220 C 
ATOM      3  N   UNL     1      91.122  93.640  74.683  1.00  0.00    -0.352 N 
ATOM      4  H   UNL     1      92.089  93.451  74.458  1.00  0.00     0.163 HD
ATOM      5  O   UNL     1      89.777  94.706  76.187  1.00  0.00    -0.275 OA
BRANCH   3   6
ATOM      6  C   UNL     1      90.078  93.126  73.856  1.00  0.00     0.151 C 
BRANCH   6   7
ATOM      7  C   UNL     1      89.818  91.687  74.135  1.00  0.00    -0.025 A 
ATOM      8  C   UNL     1      89.929  89.762  75.666  1.00  0.00     0.160 A 
ATOM      9  C   UNL     1      89.312  88.951  74.691  1.00  0.00     0.157 A 
ATOM     10  C   UNL     1      90.178  91.120  75.378  1.00  0.00     0.056 A 
ATOM     11  C   UNL     1      88.964  89.497  73.440  1.00  0.00     0.050 A 
ATOM     12  C   UNL     1      89.206  90.858  73.167  1.00  0.00     0.009 A 
BRANCH   8  13
ATOM     13  O   UNL     1      90.329  89.219  76.860  1.00  0.00    -0.493 OA
ATOM     14  C   UNL     1      89.956  89.996  78.013  1.00  0.00     0.278 C 
ENDBRANCH   8  13
BRANCH   9  15
ATOM     15  O   UNL     1      89.046  87.643  74.941  1.00  0.00    -0.504 OA
ATOM     16  H   UNL     1      88.220  87.570  75.426  1.00  0.00     0.293 HD
ENDBRANCH   9  15
ENDBRANCH   6   7
ENDBRANCH   3   6
ENDBRANCH   1   2
BRANCH   1  17
ATOM     17  C   UNL     1      93.006  93.667  76.997  1.00  0.00     0.010 C 
BRANCH  17  18
ATOM     18  C   UNL     1      94.448  94.122  77.359  1.00  0.00     0.005 C 
BRANCH  18  19
ATOM     19  C   UNL     1      95.497  93.643  76.320  1.00  0.00     0.027 C 
BRANCH  19  20
ATOM     20  C   UNL     1      95.790  94.664  75.326  1.00  0.00    -0.031 C 
ATOM     21  C   UNL     1      95.411  95.951  75.430  1.00  0.00    -0.028 C 
BRANCH  21  22
ATOM     22  C   UNL     1      95.733  96.966  74.427  1.00  0.00     0.005 C 
ATOM     23  C   UNL     1      96.828  96.486  73.435  1.00  0.00     0.012 C 
ATOM     24  C   UNL     1      94.451  97.397  73.670  1.00  0.00     0.012 C 
ENDBRANCH  21  22
ENDBRANCH  19  20
ENDBRANCH  18  19
ENDBRANCH  17  18
ENDBRANCH   1  17
TORSDOF 10
ENDMDL
MODEL 4
REMARK VINA RESULT:    -6.016     13.136     16.215
REMARK INTER + INTRA:         -10.022
REMARK INTER:                  -8.953
REMARK INTRA:                  -1.069
REMARK UNBOUND:                -0.664
REMARK SMILES COc1cc(CNC(=O)CCCC/C=C/C(C)C)ccc1O
REMARK SMILES IDX 10 1 8 2 7 3 9 5 6 6 5 7 3 8 21 9 4 10 20 11 19 12 2 13 1 14
REMARK SMILES IDX 22 15 11 17 12 18 13 19 14 20 15 21 16 22 17 23 18 24
REMARK H PARENT 7 4 22 16
REMARK Flexibility Score: inf
ROOT
ATOM      1  C   UNL     1      80.295  87.309  83.798  1.00  0.00     0.100 C 
ENDROOT
BRANCH   1   2
ATOM      2  C   UNL     1      80.886  86.470  84.858  1.00  0.00     0.220 C 
ATOM      3  N   UNL     1      80.573  86.687  86.167  1.00  0.00    -0.352 N 
ATOM      4  H   UNL     1      79.944  87.461  86.332  1.00  0.00     0.163 HD
ATOM      5  O   UNL     1      81.660  85.543  84.518  1.00  0.00    -0.275 OA
BRANCH   3   6
ATOM      6  C   UNL     1      81.065  85.914  87.262  1.00  0.00     0.151 C 
BRANCH   6   7
ATOM      7  C   UNL     1      80.930  86.645  88.551  1.00  0.00    -0.025 A 
ATOM      8  C   UNL     1      81.879  88.144  90.258  1.00  0.00     0.160 A 
ATOM      9  C   UNL     1      80.681  88.061  90.998  1.00  0.00     0.157 A 
ATOM     10  C   UNL     1      81.993  87.434  89.045  1.00  0.00     0.056 A 
ATOM     11  C   UNL     1      79.620  87.262  90.529  1.00  0.00     0.050 A 
ATOM     12  C   UNL     1      79.738  86.567  89.310  1.00  0.00     0.009 A 
BRANCH   8  13
ATOM     13  O   UNL     1      82.939  88.867  90.744  1.00  0.00    -0.493 OA
ATOM     14  C   UNL     1      83.295  90.002  89.934  1.00  0.00     0.278 C 
ENDBRANCH   8  13
BRANCH   9  15
ATOM     15  O   UNL     1      80.534  88.742  92.164  1.00  0.00    -0.504 OA
ATOM     16  H   UNL     1      79.801  88.372  92.661  1.00  0.00     0.293 HD
ENDBRANCH   9  15
ENDBRANCH   6   7
ENDBRANCH   3   6
ENDBRANCH   1   2
BRANCH   1  17
ATOM     17  C   UNL     1      79.488  88.496  84.390  1.00  0.00     0.010 C 
BRANCH  17  18
ATOM     18  C   UNL     1      80.322  89.804  84.490  1.00  0.00     0.005 C 
BRANCH  18  19
ATOM     19  C   UNL     1      81.038  89.944  85.860  1.00  0.00     0.027 C 
BRANCH  19  20
ATOM     20  C   UNL     1      82.481  90.062  85.715  1.00  0.00    -0.031 C 
ATOM     21  C   UNL     1      83.248  90.904  86.432  1.00  0.00    -0.028 C 
BRANCH  21  22
ATOM     22  C   UNL     1      84.700  90.992  86.283  1.00  0.00     0.005 C 
ATOM     23  C   UNL     1      85.363  89.594  86.138  1.00  0.00     0.012 C 
ATOM     24  C   UNL     1      85.061  91.902  85.080  1.00  0.00     0.012 C 
ENDBRANCH  21  22
ENDBRANCH  19  20
ENDBRANCH  18  19
ENDBRANCH  17  18
ENDBRANCH   1  17
TORSDOF 10
ENDMDL
MODEL 5
REMARK VINA RESULT:    -5.958      2.468      4.135
REMARK INTER + INTRA:          -9.931
REMARK INTER:                  -9.187
REMARK INTRA:                  -0.744
REMARK UNBOUND:                -0.664
REMARK SMILES COc1cc(CNC(=O)CCCC/C=C/C(C)C)ccc1O
REMARK SMILES IDX 10 1 8 2 7 3 9 5 6 6 5 7 3 8 21 9 4 10 20 11 19 12 2 13 1 14
REMARK SMILES IDX 22 15 11 17 12 18 13 19 14 20 15 21 16 22 17 23 18 24
REMARK H PARENT 7 4 22 16
REMARK Flexibility Score: inf
ROOT
ATOM      1  C   UNL     1      92.539  94.801  76.876  1.00  0.00     0.100 C 
ENDROOT
BRANCH   1   2
ATOM      2  C   UNL     1      91.514  94.340  75.920  1.00  0.00     0.220 C 
ATOM      3  N   UNL     1      91.874  93.880  74.689  1.00  0.00    -0.352 N 
ATOM      4  H   UNL     1      92.866  93.907  74.497  1.00  0.00     0.163 HD
ATOM      5  O   UNL     1      90.313  94.364  76.282  1.00  0.00    -0.275 OA
BRANCH   3   6
ATOM      6  C   UNL     1      90.965  93.383  73.706  1.00  0.00     0.151 C 
BRANCH   6   7
ATOM      7  C   UNL     1      90.683  91.935  73.904  1.00  0.00    -0.025 A 
ATOM      8  C   UNL     1      89.097  90.052  73.875  1.00  0.00     0.160 A 
ATOM      9  C   UNL     1      90.132  89.174  74.258  1.00  0.00     0.157 A 
ATOM     10  C   UNL     1      89.381  91.423  73.704  1.00  0.00     0.056 A 
ATOM     11  C   UNL     1      91.430  89.673  74.480  1.00  0.00     0.050 A 
ATOM     12  C   UNL     1      91.707  91.042  74.295  1.00  0.00     0.009 A 
BRANCH   8  13
ATOM     13  O   UNL     1      87.817  89.582  73.721  1.00  0.00    -0.493 OA
ATOM     14  C   UNL     1      87.100  90.179  72.625  1.00  0.00     0.278 C 
ENDBRANCH   8  13
BRANCH   9  15
ATOM     15  O   UNL     1      89.895  87.846  74.418  1.00  0.00    -0.504 OA
ATOM     16  H   UNL     1      89.932  87.408  73.564  1.00  0.00     0.293 HD
ENDBRANCH   9  15
ENDBRANCH   6   7
ENDBRANCH   3   6
ENDBRANCH   1   2
BRANCH   1  17
ATOM     17  C   UNL     1      93.476  93.642  77.313  1.00  0.00     0.010 C 
BRANCH  17  18
ATOM     18  C   UNL     1      94.968  94.070  77.398  1.00  0.00     0.005 C 
BRANCH  18  19
ATOM     19  C   UNL     1      95.655  94.097  76.007  1.00  0.00     0.027 C 
BRANCH  19  20
ATOM     20  C   UNL     1      95.303  95.285  75.245  1.00  0.00    -0.031 C 
ATOM     21  C   UNL     1      96.160  95.960  74.457  1.00  0.00    -0.028 C 
BRANCH  21  22
ATOM     22  C   UNL     1      95.778  97.142  73.684  1.00  0.00     0.005 C 
ATOM     23  C   UNL     1      94.249  97.414  73.740  1.00  0.00     0.012 C 
ATOM     24  C   UNL     1      96.578  98.380  74.167  1.00  0.00     0.012 C 
ENDBRANCH  21  22
ENDBRANCH  19  20
ENDBRANCH  18  19
ENDBRANCH  17  18
ENDBRANCH   1  17
TORSDOF 10
ENDMDL
MODEL 6
REMARK VINA RESULT:    -5.895     13.710     16.777
REMARK INTER + INTRA:          -9.833
REMARK INTER:                  -8.495
REMARK INTRA:                  -1.339
REMARK UNBOUND:                -0.664
REMARK SMILES COc1cc(CNC(=O)CCCC/C=C/C(C)C)ccc1O
REMARK SMILES IDX 10 1 8 2 7 3 9 5 6 6 5 7 3 8 21 9 4 10 20 11 19 12 2 13 1 14
REMARK SMILES IDX 22 15 11 17 12 18 13 19 14 20 15 21 16 22 17 23 18 24
REMARK H PARENT 7 4 22 16
REMARK Flexibility Score: inf
ROOT
ATOM      1  C   UNL     1      80.566  87.113  84.030  1.00  0.00     0.100 C 
ENDROOT
BRANCH   1   2
ATOM      2  C   UNL     1      81.171  86.394  85.167  1.00  0.00     0.220 C 
ATOM      3  N   UNL     1      80.743  86.626  86.439  1.00  0.00    -0.352 N 
ATOM      4  H   UNL     1      80.019  87.327  86.525  1.00  0.00     0.163 HD
ATOM      5  O   UNL     1      82.069  85.551  84.925  1.00  0.00    -0.275 OA
BRANCH   3   6
ATOM      6  C   UNL     1      81.239  85.961  87.602  1.00  0.00     0.151 C 
BRANCH   6   7
ATOM      7  C   UNL     1      80.943  86.731  88.840  1.00  0.00    -0.025 A 
ATOM      8  C   UNL     1      79.558  87.089  90.844  1.00  0.00     0.160 A 
ATOM      9  C   UNL     1      80.376  88.177  91.216  1.00  0.00     0.157 A 
ATOM     10  C   UNL     1      79.848  86.379  89.660  1.00  0.00     0.056 A 
ATOM     11  C   UNL     1      81.460  88.552  90.398  1.00  0.00     0.050 A 
ATOM     12  C   UNL     1      81.748  87.829  89.224  1.00  0.00     0.009 A 
BRANCH   8  13
ATOM     13  O   UNL     1      78.463  86.762  91.602  1.00  0.00    -0.493 OA
ATOM     14  C   UNL     1      78.502  85.429  92.145  1.00  0.00     0.278 C 
ENDBRANCH   8  13
BRANCH   9  15
ATOM     15  O   UNL     1      80.133  88.873  92.356  1.00  0.00    -0.504 OA
ATOM     16  H   UNL     1      80.940  89.302  92.649  1.00  0.00     0.293 HD
ENDBRANCH   9  15
ENDBRANCH   6   7
ENDBRANCH   3   6
ENDBRANCH   1   2
BRANCH   1  17
ATOM     17  C   UNL     1      79.520  88.158  84.505  1.00  0.00     0.010 C 
BRANCH  17  18
ATOM     18  C   UNL     1      80.157  89.527  84.874  1.00  0.00     0.005 C 
BRANCH  18  19
ATOM     19  C   UNL     1      81.469  89.799  84.089  1.00  0.00     0.027 C 
BRANCH  19  20
ATOM     20  C   UNL     1      82.570  90.157  84.970  1.00  0.00    -0.031 C 
ATOM     21  C   UNL     1      82.972  89.415  86.018  1.00  0.00    -0.028 C 
BRANCH  21  22
ATOM     22  C   UNL     1      84.095  89.784  86.879  1.00  0.00     0.005 C 
ATOM     23  C   UNL     1      85.396  90.047  86.071  1.00  0.00     0.012 C 
ATOM     24  C   UNL     1      83.723  91.016  87.745  1.00  0.00     0.012 C 
ENDBRANCH  21  22
ENDBRANCH  19  20
ENDBRANCH  18  19
ENDBRANCH  17  18
ENDBRANCH   1  17
TORSDOF 10
ENDMDL
MODEL 7
REMARK VINA RESULT:    -5.870     13.754     15.760
REMARK INTER + INTRA:          -9.795
REMARK INTER:                  -7.926
REMARK INTRA:                  -1.869
REMARK UNBOUND:                -0.664
REMARK SMILES COc1cc(CNC(=O)CCCC/C=C/C(C)C)ccc1O
REMARK SMILES IDX 10 1 8 2 7 3 9 5 6 6 5 7 3 8 21 9 4 10 20 11 19 12 2 13 1 14
REMARK SMILES IDX 22 15 11 17 12 18 13 19 14 20 15 21 16 22 17 23 18 24
REMARK H PARENT 7 4 22 16
REMARK Flexibility Score: inf
ROOT
ATOM      1  C   UNL     1      83.260  91.565  89.631  1.00  0.00     0.100 C 
ENDROOT
BRANCH   1   2
ATOM      2  C   UNL     1      83.128  91.696  88.167  1.00  0.00     0.220 C 
ATOM      3  N   UNL     1      83.099  90.589  87.374  1.00  0.00    -0.352 N 
ATOM      4  H   UNL     1      83.198  89.711  87.864  1.00  0.00     0.163 HD
ATOM      5  O   UNL     1      83.020  92.849  87.683  1.00  0.00    -0.275 OA
BRANCH   3   6
ATOM      6  C   UNL     1      82.943  90.607  85.955  1.00  0.00     0.151 C 
BRANCH   6   7
ATOM      7  C   UNL     1      82.060  89.503  85.488  1.00  0.00    -0.025 A 
ATOM      8  C   UNL     1      81.666  87.099  85.133  1.00  0.00     0.160 A 
ATOM      9  C   UNL     1      80.383  87.384  84.621  1.00  0.00     0.157 A 
ATOM     10  C   UNL     1      82.492  88.159  85.559  1.00  0.00     0.056 A 
ATOM     11  C   UNL     1      79.946  88.720  84.526  1.00  0.00     0.050 A 
ATOM     12  C   UNL     1      80.774  89.772  84.965  1.00  0.00     0.009 A 
BRANCH   8  13
ATOM     13  O   UNL     1      82.121  85.805  85.166  1.00  0.00    -0.493 OA
ATOM     14  C   UNL     1      82.576  85.376  86.463  1.00  0.00     0.278 C 
ENDBRANCH   8  13
BRANCH   9  15
ATOM     15  O   UNL     1      79.557  86.385  84.215  1.00  0.00    -0.504 OA
ATOM     16  H   UNL     1      79.141  85.981  84.980  1.00  0.00     0.293 HD
ENDBRANCH   9  15
ENDBRANCH   6   7
ENDBRANCH   3   6
ENDBRANCH   1   2
BRANCH   1  17
ATOM     17  C   UNL     1      83.925  90.220  90.028  1.00  0.00     0.010 C 
BRANCH  17  18
ATOM     18  C   UNL     1      83.565  89.769  91.471  1.00  0.00     0.005 C 
BRANCH  18  19
ATOM     19  C   UNL     1      82.684  88.491  91.488  1.00  0.00     0.027 C 
BRANCH  19  20
ATOM     20  C   UNL     1      81.754  88.452  90.369  1.00  0.00    -0.031 C 
ATOM     21  C   UNL     1      80.538  89.028  90.377  1.00  0.00    -0.028 C 
BRANCH  21  22
ATOM     22  C   UNL     1      79.627  88.993  89.232  1.00  0.00     0.005 C 
ATOM     23  C   UNL     1      79.668  90.309  88.407  1.00  0.00     0.012 C 
ATOM     24  C   UNL     1      79.941  87.768  88.335  1.00  0.00     0.012 C 
ENDBRANCH  21  22
ENDBRANCH  19  20
ENDBRANCH  18  19
ENDBRANCH  17  18
ENDBRANCH   1  17
TORSDOF 10
ENDMDL
MODEL 8
REMARK VINA RESULT:    -5.867      4.690      6.877
REMARK INTER + INTRA:          -9.790
REMARK INTER:                  -9.023
REMARK INTRA:                  -0.767
REMARK UNBOUND:                -0.664
REMARK SMILES COc1cc(CNC(=O)CCCC/C=C/C(C)C)ccc1O
REMARK SMILES IDX 10 1 8 2 7 3 9 5 6 6 5 7 3 8 21 9 4 10 20 11 19 12 2 13 1 14
REMARK SMILES IDX 22 15 11 17 12 18 13 19 14 20 15 21 16 22 17 23 18 24
REMARK H PARENT 7 4 22 16
REMARK Flexibility Score: inf
ROOT
ATOM      1  C   UNL     1      95.364  96.447  74.615  1.00  0.00     0.100 C 
ENDROOT
BRANCH   1   2
ATOM      2  C   UNL     1      95.091  95.497  75.710  1.00  0.00     0.220 C 
ATOM      3  N   UNL     1      93.875  94.892  75.813  1.00  0.00    -0.352 N 
ATOM      4  H   UNL     1      93.201  95.166  75.111  1.00  0.00     0.163 HD
ATOM      5  O   UNL     1      96.015  95.247  76.522  1.00  0.00    -0.275 OA
BRANCH   3   6
ATOM      6  C   UNL     1      93.521  93.936  76.814  1.00  0.00     0.151 C 
BRANCH   6   7
ATOM      7  C   UNL     1      92.305  93.169  76.432  1.00  0.00    -0.025 A 
ATOM      8  C   UNL     1      91.160  91.618  74.900  1.00  0.00     0.160 A 
ATOM      9  C   UNL     1      90.000  91.684  75.698  1.00  0.00     0.157 A 
ATOM     10  C   UNL     1      92.300  92.362  75.272  1.00  0.00     0.056 A 
ATOM     11  C   UNL     1      89.983  92.500  76.847  1.00  0.00     0.050 A 
ATOM     12  C   UNL     1      91.130  93.230  77.217  1.00  0.00     0.009 A 
BRANCH   8  13
ATOM     13  O   UNL     1      91.159  90.877  73.745  1.00  0.00    -0.493 OA
ATOM     14  C   UNL     1      90.795  91.623  72.569  1.00  0.00     0.278 C 
ENDBRANCH   8  13
BRANCH   9  15
ATOM     15  O   UNL     1      88.891  90.970  75.375  1.00  0.00    -0.504 OA
ATOM     16  H   UNL     1      89.150  90.105  75.048  1.00  0.00     0.293 HD
ENDBRANCH   9  15
ENDBRANCH   6   7
ENDBRANCH   3   6
ENDBRANCH   1   2
BRANCH   1  17
ATOM     17  C   UNL     1      94.064  96.850  73.869  1.00  0.00     0.010 C 
BRANCH  17  18
ATOM     18  C   UNL     1      94.078  98.327  73.384  1.00  0.00     0.005 C 
BRANCH  18  19
ATOM     19  C   UNL     1      93.316  98.516  72.044  1.00  0.00     0.027 C 
BRANCH  19  20
ATOM     20  C   UNL     1      94.172  98.287  70.890  1.00  0.00    -0.031 C 
ATOM     21  C   UNL     1      95.516  98.261  70.939  1.00  0.00    -0.028 C 
BRANCH  21  22
ATOM     22  C   UNL     1      96.357  98.009  69.769  1.00  0.00     0.005 C 
ATOM     23  C   UNL     1      97.792  98.579  69.940  1.00  0.00     0.012 C 
ATOM     24  C   UNL     1      96.399  96.490  69.457  1.00  0.00     0.012 C 
ENDBRANCH  21  22
ENDBRANCH  19  20
ENDBRANCH  18  19
ENDBRANCH  17  18
ENDBRANCH   1  17
TORSDOF 10
ENDMDL
MODEL 9
REMARK VINA RESULT:    -5.841     20.595     24.424
REMARK INTER + INTRA:          -9.750
REMARK INTER:                  -8.697
REMARK INTRA:                  -1.053
REMARK UNBOUND:                -0.664
REMARK SMILES COc1cc(CNC(=O)CCCC/C=C/C(C)C)ccc1O
REMARK SMILES IDX 10 1 8 2 7 3 9 5 6 6 5 7 3 8 21 9 4 10 20 11 19 12 2 13 1 14
REMARK SMILES IDX 22 15 11 17 12 18 13 19 14 20 15 21 16 22 17 23 18 24
REMARK H PARENT 7 4 22 16
REMARK Flexibility Score: inf
ROOT
ATOM      1  C   UNL     1      73.712  80.543  63.630  1.00  0.00     0.100 C 
ENDROOT
BRANCH   1   2
ATOM      2  C   UNL     1      72.318  81.017  63.723  1.00  0.00     0.220 C 
ATOM      3  N   UNL     1      72.042  82.350  63.771  1.00  0.00    -0.352 N 
ATOM      4  H   UNL     1      72.853  82.954  63.762  1.00  0.00     0.163 HD
ATOM      5  O   UNL     1      71.401  80.160  63.733  1.00  0.00    -0.275 OA
BRANCH   3   6
ATOM      6  C   UNL     1      70.730  82.910  63.830  1.00  0.00     0.151 C 
BRANCH   6   7
ATOM      7  C   UNL     1      70.384  83.349  65.209  1.00  0.00    -0.025 A 
ATOM      8  C   UNL     1      70.835  84.773  67.167  1.00  0.00     0.160 A 
ATOM      9  C   UNL     1      69.726  84.211  67.832  1.00  0.00     0.157 A 
ATOM     10  C   UNL     1      71.155  84.336  65.864  1.00  0.00     0.056 A 
ATOM     11  C   UNL     1      68.960  83.213  67.200  1.00  0.00     0.050 A 
ATOM     12  C   UNL     1      69.279  82.791  65.895  1.00  0.00     0.009 A 
BRANCH   8  13
ATOM     13  O   UNL     1      71.624  85.698  67.803  1.00  0.00    -0.493 OA
ATOM     14  C   UNL     1      72.845  86.007  67.107  1.00  0.00     0.278 C 
ENDBRANCH   8  13
BRANCH   9  15
ATOM     15  O   UNL     1      69.384  84.620  69.081  1.00  0.00    -0.504 OA
ATOM     16  H   UNL     1      70.178  84.819  69.583  1.00  0.00     0.293 HD
ENDBRANCH   9  15
ENDBRANCH   6   7
ENDBRANCH   3   6
ENDBRANCH   1   2
BRANCH   1  17
ATOM     17  C   UNL     1      74.525  80.903  64.903  1.00  0.00     0.010 C 
BRANCH  17  18
ATOM     18  C   UNL     1      75.920  81.510  64.578  1.00  0.00     0.005 C 
BRANCH  18  19
ATOM     19  C   UNL     1      75.886  83.060  64.501  1.00  0.00     0.027 C 
BRANCH  19  20
ATOM     20  C   UNL     1      75.993  83.676  65.814  1.00  0.00    -0.031 C 
ATOM     21  C   UNL     1      77.157  83.905  66.449  1.00  0.00    -0.028 C 
BRANCH  21  22
ATOM     22  C   UNL     1      77.243  84.544  67.762  1.00  0.00     0.005 C 
ATOM     23  C   UNL     1      77.655  86.039  67.664  1.00  0.00     0.012 C 
ATOM     24  C   UNL     1      75.900  84.389  68.522  1.00  0.00     0.012 C 
ENDBRANCH  21  22
ENDBRANCH  19  20
ENDBRANCH  18  19
ENDBRANCH  17  18
ENDBRANCH   1  17
TORSDOF 10
ENDMDL
MODEL 10
REMARK VINA RESULT:    -5.804     18.604     20.803
REMARK INTER + INTRA:          -9.692
REMARK INTER:                  -8.209
REMARK INTRA:                  -1.483
REMARK UNBOUND:                -0.664
REMARK SMILES COc1cc(CNC(=O)CCCC/C=C/C(C)C)ccc1O
REMARK SMILES IDX 10 1 8 2 7 3 9 5 6 6 5 7 3 8 21 9 4 10 20 11 19 12 2 13 1 14
REMARK SMILES IDX 22 15 11 17 12 18 13 19 14 20 15 21 16 22 17 23 18 24
REMARK H PARENT 7 4 22 16
REMARK Flexibility Score: inf
ROOT
ATOM      1  C   UNL     1      75.727  84.161  68.145  1.00  0.00     0.100 C 
ENDROOT
BRANCH   1   2
ATOM      2  C   UNL     1      74.746  85.199  67.775  1.00  0.00     0.220 C 
ATOM      3  N   UNL     1      74.141  85.952  68.736  1.00  0.00    -0.352 N 
ATOM      4  H   UNL     1      74.401  85.723  69.685  1.00  0.00     0.163 HD
ATOM      5  O   UNL     1      74.506  85.380  66.557  1.00  0.00    -0.275 OA
BRANCH   3   6
ATOM      6  C   UNL     1      73.204  87.000  68.481  1.00  0.00     0.151 C 
BRANCH   6   7
ATOM      7  C   UNL     1      73.781  88.336  68.792  1.00  0.00    -0.025 A 
ATOM      8  C   UNL     1      73.727  90.428  70.089  1.00  0.00     0.160 A 
ATOM      9  C   UNL     1      74.879  90.879  69.411  1.00  0.00     0.157 A 
ATOM     10  C   UNL     1      73.188  89.164  69.772  1.00  0.00     0.056 A 
ATOM     11  C   UNL     1      75.469  90.073  68.418  1.00  0.00     0.050 A 
ATOM     12  C   UNL     1      74.931  88.807  68.116  1.00  0.00     0.009 A 
BRANCH   8  13
ATOM     13  O   UNL     1      73.111  91.237  71.010  1.00  0.00    -0.493 OA
ATOM     14  C   UNL     1      71.698  90.999  71.147  1.00  0.00     0.278 C 
ENDBRANCH   8  13
BRANCH   9  15
ATOM     15  O   UNL     1      75.431  92.086  69.702  1.00  0.00    -0.504 OA
ATOM     16  H   UNL     1      75.879  92.038  70.549  1.00  0.00     0.293 HD
ENDBRANCH   9  15
ENDBRANCH   6   7
ENDBRANCH   3   6
ENDBRANCH   1   2
BRANCH   1  17
ATOM     17  C   UNL     1      77.122  84.445  67.526  1.00  0.00     0.010 C 
BRANCH  17  18
ATOM     18  C   UNL     1      77.409  83.587  66.262  1.00  0.00     0.005 C 
BRANCH  18  19
ATOM     19  C   UNL     1      77.562  84.453  64.982  1.00  0.00     0.027 C 
BRANCH  19  20
ATOM     20  C   UNL     1      78.048  85.791  65.282  1.00  0.00    -0.031 C 
ATOM     21  C   UNL     1      77.452  86.923  64.866  1.00  0.00    -0.028 C 
BRANCH  21  22
ATOM     22  C   UNL     1      77.948  88.259  65.196  1.00  0.00     0.005 C 
ATOM     23  C   UNL     1      76.905  89.368  64.884  1.00  0.00     0.012 C 
ATOM     24  C   UNL     1      78.388  88.316  66.682  1.00  0.00     0.012 C 
ENDBRANCH  21  22
ENDBRANCH  19  20
ENDBRANCH  18  19
ENDBRANCH  17  18
ENDBRANCH   1  17
TORSDOF 10
ENDMDL
