MODEL 1
REMARK VINA RESULT:    -5.644      0.000      0.000
REMARK INTER + INTRA:          -9.994
REMARK INTER:                  -9.108
REMARK INTRA:                  -0.886
REMARK UNBOUND:                -0.886
REMARK SMILES CCCCCCCCC(=O)NCc1ccc(O)c(OC)c1
REMARK SMILES IDX 7 1 6 2 5 3 4 4 3 5 2 6 1 7 8 8 9 9 10 10 11 11 12 13 13 14
REMARK SMILES IDX 21 15 14 16 18 17 15 18 16 19 19 20 20 21 17 22
REMARK H PARENT 11 12 17 23
REMARK Flexibility Score: inf
ROOT
ATOM      1  C   UNL     1      94.973  86.241  84.905  1.00  0.00     0.010 C 
ENDROOT
BRANCH   1   2
ATOM      2  C   UNL     1      95.685  85.251  83.938  1.00  0.00     0.001 C 
BRANCH   2   3
ATOM      3  C   UNL     1      96.776  84.406  84.658  1.00  0.00     0.000 C 
BRANCH   3   4
ATOM      4  C   UNL     1      96.655  82.877  84.402  1.00  0.00    -0.000 C 
BRANCH   4   5
ATOM      5  C   UNL     1      95.850  82.546  83.112  1.00  0.00    -0.000 C 
BRANCH   5   6
ATOM      6  C   UNL     1      96.769  82.278  81.889  1.00  0.00    -0.003 C 
ATOM      7  C   UNL     1      96.922  80.774  81.573  1.00  0.00     0.004 C 
ENDBRANCH   5   6
ENDBRANCH   4   5
ENDBRANCH   3   4
ENDBRANCH   2   3
ENDBRANCH   1   2
BRANCH   1   8
ATOM      8  C   UNL     1      93.528  85.815  85.289  1.00  0.00     0.100 C 
BRANCH   8   9
ATOM      9  C   UNL     1      93.483  84.403  85.738  1.00  0.00     0.220 C 
ATOM     10  O   UNL     1      94.048  84.102  86.816  1.00  0.00    -0.275 OA
ATOM     11  N   UNL     1      92.815  83.463  85.005  1.00  0.00    -0.352 N 
ATOM     12  H   UNL     1      92.472  83.794  84.115  1.00  0.00     0.163 HD
BRANCH  11  13
ATOM     13  C   UNL     1      92.580  82.108  85.400  1.00  0.00     0.151 C 
BRANCH  13  14
ATOM     14  C   UNL     1      91.280  81.561  84.927  1.00  0.00    -0.025 A 
ATOM     15  C   UNL     1      90.075  82.254  85.197  1.00  0.00     0.056 A 
ATOM     16  C   UNL     1      91.222  80.345  84.208  1.00  0.00     0.009 A 
ATOM     17  C   UNL     1      88.834  81.755  84.740  1.00  0.00     0.160 A 
ATOM     18  C   UNL     1      89.990  79.845  83.749  1.00  0.00     0.050 A 
ATOM     19  C   UNL     1      88.796  80.540  84.018  1.00  0.00     0.157 A 
BRANCH  17  20
ATOM     20  O   UNL     1      87.664  82.406  85.039  1.00  0.00    -0.493 OA
ATOM     21  C   UNL     1      87.307  83.437  84.101  1.00  0.00     0.278 C 
ENDBRANCH  17  20
BRANCH  19  22
ATOM     22  O   UNL     1      87.609  80.035  83.595  1.00  0.00    -0.504 OA
ATOM     23  H   UNL     1      87.216  80.634  82.956  1.00  0.00     0.293 HD
ENDBRANCH  19  22
ENDBRANCH  13  14
ENDBRANCH  11  13
ENDBRANCH   8   9
ENDBRANCH   1   8
TORSDOF 11
ENDMDL
MODEL 2
REMARK VINA RESULT:    -5.541      4.920      7.350
REMARK INTER + INTRA:          -9.828
REMARK INTER:                  -9.260
REMARK INTRA:                  -0.568
REMARK UNBOUND:                -0.886
REMARK SMILES CCCCCCCCC(=O)NCc1ccc(O)c(OC)c1
REMARK SMILES IDX 7 1 6 2 5 3 4 4 3 5 2 6 1 7 8 8 9 9 10 10 11 11 12 13 13 14
REMARK SMILES IDX 21 15 14 16 18 17 15 18 16 19 19 20 20 21 17 22
REMARK H PARENT 11 12 17 23
REMARK Flexibility Score: inf
ROOT
ATOM      1  C   UNL     1      96.572  83.221  77.900  1.00  0.00     0.010 C 
ENDROOT
BRANCH   1   2
ATOM      2  C   UNL     1      96.554  84.315  76.794  1.00  0.00     0.001 C 
BRANCH   2   3
ATOM      3  C   UNL     1      97.844  84.291  75.921  1.00  0.00     0.000 C 
BRANCH   3   4
ATOM      4  C   UNL     1      98.048  82.963  75.140  1.00  0.00    -0.000 C 
BRANCH   4   5
ATOM      5  C   UNL     1      98.878  83.153  73.839  1.00  0.00    -0.000 C 
BRANCH   5   6
ATOM      6  C   UNL     1      99.708  84.465  73.848  1.00  0.00    -0.003 C 
ATOM      7  C   UNL     1      99.344  85.414  72.686  1.00  0.00     0.004 C 
ENDBRANCH   5   6
ENDBRANCH   4   5
ENDBRANCH   3   4
ENDBRANCH   2   3
ENDBRANCH   1   2
BRANCH   1   8
ATOM      8  C   UNL     1      97.683  83.424  78.968  1.00  0.00     0.100 C 
BRANCH   8   9
ATOM      9  C   UNL     1      97.380  82.675  80.212  1.00  0.00     0.220 C 
ATOM     10  O   UNL     1      97.485  81.426  80.194  1.00  0.00    -0.275 OA
ATOM     11  N   UNL     1      97.025  83.338  81.351  1.00  0.00    -0.352 N 
ATOM     12  H   UNL     1      96.887  84.331  81.232  1.00  0.00     0.163 HD
BRANCH  11  13
ATOM     13  C   UNL     1      96.846  82.745  82.642  1.00  0.00     0.151 C 
BRANCH  13  14
ATOM     14  C   UNL     1      95.875  83.467  83.506  1.00  0.00    -0.025 A 
ATOM     15  C   UNL     1      94.839  82.758  84.159  1.00  0.00     0.056 A 
ATOM     16  C   UNL     1      95.964  84.866  83.688  1.00  0.00     0.009 A 
ATOM     17  C   UNL     1      93.919  83.428  84.998  1.00  0.00     0.160 A 
ATOM     18  C   UNL     1      95.053  85.538  84.522  1.00  0.00     0.050 A 
ATOM     19  C   UNL     1      94.026  84.826  85.171  1.00  0.00     0.157 A 
BRANCH  17  20
ATOM     20  O   UNL     1      92.890  82.745  85.597  1.00  0.00    -0.493 OA
ATOM     21  C   UNL     1      91.837  82.359  84.696  1.00  0.00     0.278 C 
ENDBRANCH  17  20
BRANCH  19  22
ATOM     22  O   UNL     1      93.134  85.488  85.952  1.00  0.00    -0.504 OA
ATOM     23  H   UNL     1      92.894  86.317  85.531  1.00  0.00     0.293 HD
ENDBRANCH  19  22
ENDBRANCH  13  14
ENDBRANCH  11  13
ENDBRANCH   8   9
ENDBRANCH   1   8
TORSDOF 11
ENDMDL
MODEL 3
REMARK VINA RESULT:    -5.485      8.355     12.293
REMARK INTER + INTRA:          -9.738
REMARK INTER:                  -8.833
REMARK INTRA:                  -0.905
REMARK UNBOUND:                -0.886
REMARK SMILES CCCCCCCCC(=O)NCc1ccc(O)c(OC)c1
REMARK SMILES IDX 7 1 6 2 5 3 4 4 3 5 2 6 1 7 8 8 9 9 10 10 11 11 12 13 13 14
REMARK SMILES IDX 21 15 14 16 18 17 15 18 16 19 19 20 20 21 17 22
REMARK H PARENT 11 12 17 23
REMARK Flexibility Score: inf
ROOT
ATOM      1  C   UNL     1      97.338  82.757  77.778  1.00  0.00     0.010 C 
ENDROOT
BRANCH   1   2
ATOM      2  C   UNL     1      98.046  82.918  79.154  1.00  0.00     0.001 C 
BRANCH   2   3
ATOM      3  C   UNL     1      97.081  83.451  80.254  1.00  0.00     0.000 C 
BRANCH   3   4
ATOM      4  C   UNL     1      96.991  82.535  81.507  1.00  0.00    -0.000 C 
BRANCH   4   5
ATOM      5  C   UNL     1      97.804  81.219  81.348  1.00  0.00    -0.000 C 
BRANCH   5   6
ATOM      6  C   UNL     1      96.916  79.951  81.472  1.00  0.00    -0.003 C 
ATOM      7  C   UNL     1      97.540  78.713  80.791  1.00  0.00     0.004 C 
ENDBRANCH   5   6
ENDBRANCH   4   5
ENDBRANCH   3   4
ENDBRANCH   2   3
ENDBRANCH   1   2
BRANCH   1   8
ATOM      8  C   UNL     1      96.360  83.915  77.434  1.00  0.00     0.100 C 
BRANCH   8   9
ATOM      9  C   UNL     1      96.611  84.447  76.073  1.00  0.00     0.220 C 
ATOM     10  O   UNL     1      96.246  85.619  75.816  1.00  0.00    -0.275 OA
ATOM     11  N   UNL     1      97.249  83.685  75.137  1.00  0.00    -0.352 N 
ATOM     12  H   UNL     1      97.419  82.731  75.420  1.00  0.00     0.163 HD
BRANCH  11  13
ATOM     13  C   UNL     1      97.672  84.130  73.844  1.00  0.00     0.151 C 
BRANCH  13  14
ATOM     14  C   UNL     1      99.089  84.577  73.796  1.00  0.00    -0.025 A 
ATOM     15  C   UNL     1     100.064  83.945  74.605  1.00  0.00     0.056 A 
ATOM     16  C   UNL     1      99.488  85.638  72.951  1.00  0.00     0.009 A 
ATOM     17  C   UNL     1     101.418  84.348  74.557  1.00  0.00     0.160 A 
ATOM     18  C   UNL     1     100.834  86.043  72.898  1.00  0.00     0.050 A 
ATOM     19  C   UNL     1     101.798  85.408  73.703  1.00  0.00     0.157 A 
BRANCH  17  20
ATOM     20  O   UNL     1     102.353  83.762  75.373  1.00  0.00    -0.493 OA
ATOM     21  C   UNL     1     101.925  82.523  75.965  1.00  0.00     0.278 C 
ENDBRANCH  17  20
BRANCH  19  22
ATOM     22  O   UNL     1     103.090  85.824  73.665  1.00  0.00    -0.504 OA
ATOM     23  H   UNL     1     103.294  86.154  72.787  1.00  0.00     0.293 HD
ENDBRANCH  19  22
ENDBRANCH  13  14
ENDBRANCH  11  13
ENDBRANCH   8   9
ENDBRANCH   1   8
TORSDOF 11
ENDMDL
MODEL 4
REMARK VINA RESULT:    -5.467      3.829      5.383
REMARK INTER + INTRA:          -9.709
REMARK INTER:                  -9.152
REMARK INTRA:                  -0.557
REMARK UNBOUND:                -0.886
REMARK SMILES CCCCCCCCC(=O)NCc1ccc(O)c(OC)c1
REMARK SMILES IDX 7 1 6 2 5 3 4 4 3 5 2 6 1 7 8 8 9 9 10 10 11 11 12 13 13 14
REMARK SMILES IDX 21 15 14 16 18 17 15 18 16 19 19 20 20 21 17 22
REMARK H PARENT 11 12 17 23
REMARK Flexibility Score: inf
ROOT
ATOM      1  C   UNL     1      97.304  82.559  80.363  1.00  0.00     0.010 C 
ENDROOT
BRANCH   1   2
ATOM      2  C   UNL     1      97.686  83.169  78.984  1.00  0.00     0.001 C 
BRANCH   2   3
ATOM      3  C   UNL     1      96.433  83.556  78.144  1.00  0.00     0.000 C 
BRANCH   3   4
ATOM      4  C   UNL     1      96.774  84.161  76.752  1.00  0.00    -0.000 C 
BRANCH   4   5
ATOM      5  C   UNL     1      98.024  83.503  76.101  1.00  0.00    -0.000 C 
BRANCH   5   6
ATOM      6  C   UNL     1      98.672  84.402  75.014  1.00  0.00    -0.003 C 
ATOM      7  C   UNL     1     100.092  83.938  74.621  1.00  0.00     0.004 C 
ENDBRANCH   5   6
ENDBRANCH   4   5
ENDBRANCH   3   4
ENDBRANCH   2   3
ENDBRANCH   1   2
BRANCH   1   8
ATOM      8  C   UNL     1      96.669  83.580  81.349  1.00  0.00     0.100 C 
BRANCH   8   9
ATOM      9  C   UNL     1      96.518  82.998  82.704  1.00  0.00     0.220 C 
ATOM     10  O   UNL     1      96.946  83.654  83.684  1.00  0.00    -0.275 OA
ATOM     11  N   UNL     1      95.900  81.793  82.877  1.00  0.00    -0.352 N 
ATOM     12  H   UNL     1      95.673  81.313  82.019  1.00  0.00     0.163 HD
BRANCH  11  13
ATOM     13  C   UNL     1      95.569  81.196  84.135  1.00  0.00     0.151 C 
BRANCH  13  14
ATOM     14  C   UNL     1      94.107  81.097  84.387  1.00  0.00    -0.025 A 
ATOM     15  C   UNL     1      93.511  79.839  84.640  1.00  0.00     0.056 A 
ATOM     16  C   UNL     1      93.288  82.250  84.376  1.00  0.00     0.009 A 
ATOM     17  C   UNL     1      92.125  79.731  84.898  1.00  0.00     0.160 A 
ATOM     18  C   UNL     1      91.909  82.150  84.634  1.00  0.00     0.050 A 
ATOM     19  C   UNL     1      91.323  80.895  84.887  1.00  0.00     0.157 A 
BRANCH  17  20
ATOM     20  O   UNL     1      91.542  78.506  85.101  1.00  0.00    -0.493 OA
ATOM     21  C   UNL     1      91.538  77.656  83.940  1.00  0.00     0.278 C 
ENDBRANCH  17  20
BRANCH  19  22
ATOM     22  O   UNL     1      89.986  80.806  85.107  1.00  0.00    -0.504 OA
ATOM     23  H   UNL     1      89.658  79.978  84.749  1.00  0.00     0.293 HD
ENDBRANCH  19  22
ENDBRANCH  13  14
ENDBRANCH  11  13
ENDBRANCH   8   9
ENDBRANCH   1   8
TORSDOF 11
ENDMDL
MODEL 5
REMARK VINA RESULT:    -5.286      3.774      7.747
REMARK INTER + INTRA:          -9.417
REMARK INTER:                  -8.821
REMARK INTRA:                  -0.596
REMARK UNBOUND:                -0.886
REMARK SMILES CCCCCCCCC(=O)NCc1ccc(O)c(OC)c1
REMARK SMILES IDX 7 1 6 2 5 3 4 4 3 5 2 6 1 7 8 8 9 9 10 10 11 11 12 13 13 14
REMARK SMILES IDX 21 15 14 16 18 17 15 18 16 19 19 20 20 21 17 22
REMARK H PARENT 11 12 17 23
REMARK Flexibility Score: inf
ROOT
ATOM      1  C   UNL     1      93.182  80.374  84.926  1.00  0.00     0.010 C 
ENDROOT
BRANCH   1   2
ATOM      2  C   UNL     1      91.883  79.579  85.246  1.00  0.00     0.001 C 
BRANCH   2   3
ATOM      3  C   UNL     1      91.331  78.826  83.999  1.00  0.00     0.000 C 
BRANCH   3   4
ATOM      4  C   UNL     1      90.322  77.695  84.346  1.00  0.00    -0.000 C 
BRANCH   4   5
ATOM      5  C   UNL     1      90.761  76.309  83.793  1.00  0.00    -0.000 C 
BRANCH   5   6
ATOM      6  C   UNL     1      91.961  76.411  82.813  1.00  0.00    -0.003 C 
ATOM      7  C   UNL     1      91.735  75.622  81.504  1.00  0.00     0.004 C 
ENDBRANCH   5   6
ENDBRANCH   4   5
ENDBRANCH   3   4
ENDBRANCH   2   3
ENDBRANCH   1   2
BRANCH   1   8
ATOM      8  C   UNL     1      93.043  81.910  85.119  1.00  0.00     0.100 C 
BRANCH   8   9
ATOM      9  C   UNL     1      94.313  82.610  84.812  1.00  0.00     0.220 C 
ATOM     10  O   UNL     1      94.893  83.225  85.738  1.00  0.00    -0.275 OA
ATOM     11  N   UNL     1      94.848  82.558  83.556  1.00  0.00    -0.352 N 
ATOM     12  H   UNL     1      94.258  82.112  82.869  1.00  0.00     0.163 HD
BRANCH  11  13
ATOM     13  C   UNL     1      96.128  83.068  83.172  1.00  0.00     0.151 C 
BRANCH  13  14
ATOM     14  C   UNL     1      96.652  82.487  81.906  1.00  0.00    -0.025 A 
ATOM     15  C   UNL     1      96.937  83.326  80.802  1.00  0.00     0.056 A 
ATOM     16  C   UNL     1      96.870  81.096  81.781  1.00  0.00     0.009 A 
ATOM     17  C   UNL     1      97.451  82.790  79.599  1.00  0.00     0.160 A 
ATOM     18  C   UNL     1      97.382  80.557  80.587  1.00  0.00     0.050 A 
ATOM     19  C   UNL     1      97.666  81.397  79.494  1.00  0.00     0.157 A 
BRANCH  17  20
ATOM     20  O   UNL     1      97.687  83.598  78.515  1.00  0.00    -0.493 OA
ATOM     21  C   UNL     1      96.514  83.899  77.739  1.00  0.00     0.278 C 
ENDBRANCH  17  20
BRANCH  19  22
ATOM     22  O   UNL     1      98.135  80.864  78.336  1.00  0.00    -0.504 OA
ATOM     23  H   UNL     1      98.500  79.993  78.510  1.00  0.00     0.293 HD
ENDBRANCH  19  22
ENDBRANCH  13  14
ENDBRANCH  11  13
ENDBRANCH   8   9
ENDBRANCH   1   8
TORSDOF 11
ENDMDL
MODEL 6
REMARK VINA RESULT:    -5.281      8.197     12.176
REMARK INTER + INTRA:          -9.408
REMARK INTER:                  -8.720
REMARK INTRA:                  -0.689
REMARK UNBOUND:                -0.886
REMARK SMILES CCCCCCCCC(=O)NCc1ccc(O)c(OC)c1
REMARK SMILES IDX 7 1 6 2 5 3 4 4 3 5 2 6 1 7 8 8 9 9 10 10 11 11 12 13 13 14
REMARK SMILES IDX 21 15 14 16 18 17 15 18 16 19 19 20 20 21 17 22
REMARK H PARENT 11 12 17 23
REMARK Flexibility Score: inf
ROOT
ATOM      1  C   UNL     1      97.402  82.794  78.334  1.00  0.00     0.010 C 
ENDROOT
BRANCH   1   2
ATOM      2  C   UNL     1      97.988  83.052  79.752  1.00  0.00     0.001 C 
BRANCH   2   3
ATOM      3  C   UNL     1      96.877  83.185  80.834  1.00  0.00     0.000 C 
BRANCH   3   4
ATOM      4  C   UNL     1      96.840  82.003  81.844  1.00  0.00    -0.000 C 
BRANCH   4   5
ATOM      5  C   UNL     1      96.016  82.331  83.122  1.00  0.00    -0.000 C 
BRANCH   5   6
ATOM      6  C   UNL     1      96.735  83.346  84.050  1.00  0.00    -0.003 C 
ATOM      7  C   UNL     1      96.117  83.407  85.465  1.00  0.00     0.004 C 
ENDBRANCH   5   6
ENDBRANCH   4   5
ENDBRANCH   3   4
ENDBRANCH   2   3
ENDBRANCH   1   2
BRANCH   1   8
ATOM      8  C   UNL     1      96.423  83.899  77.847  1.00  0.00     0.100 C 
BRANCH   8   9
ATOM      9  C   UNL     1      96.628  84.205  76.410  1.00  0.00     0.220 C 
ATOM     10  O   UNL     1      96.204  85.301  75.970  1.00  0.00    -0.275 OA
ATOM     11  N   UNL     1      97.286  83.326  75.600  1.00  0.00    -0.352 N 
ATOM     12  H   UNL     1      97.506  82.442  76.035  1.00  0.00     0.163 HD
BRANCH  11  13
ATOM     13  C   UNL     1      97.668  83.565  74.242  1.00  0.00     0.151 C 
BRANCH  13  14
ATOM     14  C   UNL     1      98.962  84.285  74.099  1.00  0.00    -0.025 A 
ATOM     15  C   UNL     1     100.118  83.811  74.764  1.00  0.00     0.056 A 
ATOM     16  C   UNL     1      99.061  85.451  73.305  1.00  0.00     0.009 A 
ATOM     17  C   UNL     1     101.358  84.474  74.623  1.00  0.00     0.160 A 
ATOM     18  C   UNL     1     100.292  86.114  73.160  1.00  0.00     0.050 A 
ATOM     19  C   UNL     1     101.439  85.636  73.822  1.00  0.00     0.157 A 
BRANCH  17  20
ATOM     20  O   UNL     1     102.468  84.038  75.302  1.00  0.00    -0.493 OA
ATOM     21  C   UNL     1     102.912  82.724  74.921  1.00  0.00     0.278 C 
ENDBRANCH  17  20
BRANCH  19  22
ATOM     22  O   UNL     1     102.617  86.299  73.698  1.00  0.00    -0.504 OA
ATOM     23  H   UNL     1     103.239  85.759  73.205  1.00  0.00     0.293 HD
ENDBRANCH  19  22
ENDBRANCH  13  14
ENDBRANCH  11  13
ENDBRANCH   8   9
ENDBRANCH   1   8
TORSDOF 11
ENDMDL
MODEL 7
REMARK VINA RESULT:    -5.247      2.486      4.968
REMARK INTER + INTRA:          -9.354
REMARK INTER:                  -8.718
REMARK INTRA:                  -0.636
REMARK UNBOUND:                -0.886
REMARK SMILES CCCCCCCCC(=O)NCc1ccc(O)c(OC)c1
REMARK SMILES IDX 7 1 6 2 5 3 4 4 3 5 2 6 1 7 8 8 9 9 10 10 11 11 12 13 13 14
REMARK SMILES IDX 21 15 14 16 18 17 15 18 16 19 19 20 20 21 17 22
REMARK H PARENT 11 12 17 23
REMARK Flexibility Score: inf
ROOT
ATOM      1  C   UNL     1      94.079  86.580  85.404  1.00  0.00     0.010 C 
ENDROOT
BRANCH   1   2
ATOM      2  C   UNL     1      93.452  85.689  86.515  1.00  0.00     0.001 C 
BRANCH   2   3
ATOM      3  C   UNL     1      93.833  86.175  87.945  1.00  0.00     0.000 C 
BRANCH   3   4
ATOM      4  C   UNL     1      92.857  87.235  88.528  1.00  0.00    -0.000 C 
BRANCH   4   5
ATOM      5  C   UNL     1      93.563  88.579  88.866  1.00  0.00    -0.000 C 
BRANCH   5   6
ATOM      6  C   UNL     1      94.805  88.840  87.973  1.00  0.00    -0.003 C 
ATOM      7  C   UNL     1      94.722  90.179  87.206  1.00  0.00     0.004 C 
ENDBRANCH   5   6
ENDBRANCH   4   5
ENDBRANCH   3   4
ENDBRANCH   2   3
ENDBRANCH   1   2
BRANCH   1   8
ATOM      8  C   UNL     1      95.103  85.834  84.503  1.00  0.00     0.100 C 
BRANCH   8   9
ATOM      9  C   UNL     1      95.202  84.401  84.871  1.00  0.00     0.220 C 
ATOM     10  O   UNL     1      96.012  84.071  85.770  1.00  0.00    -0.275 OA
ATOM     11  N   UNL     1      94.407  83.472  84.262  1.00  0.00    -0.352 N 
ATOM     12  H   UNL     1      93.857  83.832  83.496  1.00  0.00     0.163 HD
BRANCH  11  13
ATOM     13  C   UNL     1      94.308  82.091  84.624  1.00  0.00     0.151 C 
BRANCH  13  14
ATOM     14  C   UNL     1      92.921  81.557  84.580  1.00  0.00    -0.025 A 
ATOM     15  C   UNL     1      92.695  80.160  84.607  1.00  0.00     0.056 A 
ATOM     16  C   UNL     1      91.808  82.427  84.509  1.00  0.00     0.009 A 
ATOM     17  C   UNL     1      91.381  79.637  84.583  1.00  0.00     0.160 A 
ATOM     18  C   UNL     1      90.499  81.913  84.486  1.00  0.00     0.050 A 
ATOM     19  C   UNL     1      90.282  80.522  84.516  1.00  0.00     0.157 A 
BRANCH  17  20
ATOM     20  O   UNL     1      91.166  78.282  84.566  1.00  0.00    -0.493 OA
ATOM     21  C   UNL     1      92.320  77.507  84.199  1.00  0.00     0.278 C 
ENDBRANCH  17  20
BRANCH  19  22
ATOM     22  O   UNL     1      89.015  80.036  84.466  1.00  0.00    -0.504 OA
ATOM     23  H   UNL     1      88.913  79.341  85.121  1.00  0.00     0.293 HD
ENDBRANCH  19  22
ENDBRANCH  13  14
ENDBRANCH  11  13
ENDBRANCH   8   9
ENDBRANCH   1   8
TORSDOF 11
ENDMDL
MODEL 8
REMARK VINA RESULT:    -5.073     14.787     16.738
REMARK INTER + INTRA:          -9.074
REMARK INTER:                  -8.000
REMARK INTRA:                  -1.074
REMARK UNBOUND:                -0.886
REMARK SMILES CCCCCCCCC(=O)NCc1ccc(O)c(OC)c1
REMARK SMILES IDX 7 1 6 2 5 3 4 4 3 5 2 6 1 7 8 8 9 9 10 10 11 11 12 13 13 14
REMARK SMILES IDX 21 15 14 16 18 17 15 18 16 19 19 20 20 21 17 22
REMARK H PARENT 11 12 17 23
REMARK Flexibility Score: inf
ROOT
ATOM      1  C   UNL     1      96.270 100.239  74.134  1.00  0.00     0.010 C 
ENDROOT
BRANCH   1   2
ATOM      2  C   UNL     1      97.429  99.205  74.035  1.00  0.00     0.001 C 
BRANCH   2   3
ATOM      3  C   UNL     1      97.693  98.485  75.390  1.00  0.00     0.000 C 
BRANCH   3   4
ATOM      4  C   UNL     1      98.162  99.438  76.526  1.00  0.00    -0.000 C 
BRANCH   4   5
ATOM      5  C   UNL     1      97.789  98.914  77.942  1.00  0.00    -0.000 C 
BRANCH   5   6
ATOM      6  C   UNL     1      96.782  97.734  77.894  1.00  0.00    -0.003 C 
ATOM      7  C   UNL     1      95.424  98.078  78.547  1.00  0.00     0.004 C 
ENDBRANCH   5   6
ENDBRANCH   4   5
ENDBRANCH   3   4
ENDBRANCH   2   3
ENDBRANCH   1   2
BRANCH   1   8
ATOM      8  C   UNL     1      95.062  99.751  74.981  1.00  0.00     0.100 C 
BRANCH   8   9
ATOM      9  C   UNL     1      94.438  98.544  74.387  1.00  0.00     0.220 C 
ATOM     10  O   UNL     1      94.073  98.592  73.188  1.00  0.00    -0.275 OA
ATOM     11  N   UNL     1      94.294  97.404  75.124  1.00  0.00    -0.352 N 
ATOM     12  H   UNL     1      94.541  97.502  76.098  1.00  0.00     0.163 HD
BRANCH  11  13
ATOM     13  C   UNL     1      93.841  96.140  74.628  1.00  0.00     0.151 C 
BRANCH  13  14
ATOM     14  C   UNL     1      92.940  95.416  75.564  1.00  0.00    -0.025 A 
ATOM     15  C   UNL     1      91.902  94.595  75.060  1.00  0.00     0.056 A 
ATOM     16  C   UNL     1      93.098  95.534  76.964  1.00  0.00     0.009 A 
ATOM     17  C   UNL     1      91.049  93.886  75.937  1.00  0.00     0.160 A 
ATOM     18  C   UNL     1      92.252  94.832  77.841  1.00  0.00     0.050 A 
ATOM     19  C   UNL     1      91.224  94.014  77.333  1.00  0.00     0.157 A 
BRANCH  17  20
ATOM     20  O   UNL     1      90.017  93.124  75.448  1.00  0.00    -0.493 OA
ATOM     21  C   UNL     1      90.439  91.924  74.777  1.00  0.00     0.278 C 
ENDBRANCH  17  20
BRANCH  19  22
ATOM     22  O   UNL     1      90.396  93.362  78.188  1.00  0.00    -0.504 OA
ATOM     23  H   UNL     1      90.366  93.831  79.025  1.00  0.00     0.293 HD
ENDBRANCH  19  22
ENDBRANCH  13  14
ENDBRANCH  11  13
ENDBRANCH   8   9
ENDBRANCH   1   8
TORSDOF 11
ENDMDL
MODEL 9
REMARK VINA RESULT:    -5.029      8.858     11.773
REMARK INTER + INTRA:          -9.002
REMARK INTER:                  -8.382
REMARK INTRA:                  -0.620
REMARK UNBOUND:                -0.886
REMARK SMILES CCCCCCCCC(=O)NCc1ccc(O)c(OC)c1
REMARK SMILES IDX 7 1 6 2 5 3 4 4 3 5 2 6 1 7 8 8 9 9 10 10 11 11 12 13 13 14
REMARK SMILES IDX 21 15 14 16 18 17 15 18 16 19 19 20 20 21 17 22
REMARK H PARENT 11 12 17 23
REMARK Flexibility Score: inf
ROOT
ATOM      1  C   UNL     1      95.905  95.312  91.671  1.00  0.00     0.010 C 
ENDROOT
BRANCH   1   2
ATOM      2  C   UNL     1      97.241  95.971  92.119  1.00  0.00     0.001 C 
BRANCH   2   3
ATOM      3  C   UNL     1      98.400  94.937  92.231  1.00  0.00     0.000 C 
BRANCH   3   4
ATOM      4  C   UNL     1      99.668  95.326  91.419  1.00  0.00    -0.000 C 
BRANCH   4   5
ATOM      5  C   UNL     1     100.595  94.111  91.135  1.00  0.00    -0.000 C 
BRANCH   5   6
ATOM      6  C   UNL     1     101.845  94.087  92.056  1.00  0.00    -0.003 C 
ATOM      7  C   UNL     1     102.641  92.767  91.953  1.00  0.00     0.004 C 
ENDBRANCH   5   6
ENDBRANCH   4   5
ENDBRANCH   3   4
ENDBRANCH   2   3
ENDBRANCH   1   2
BRANCH   1   8
ATOM      8  C   UNL     1      96.076  93.886  91.074  1.00  0.00     0.100 C 
BRANCH   8   9
ATOM      9  C   UNL     1      94.927  93.522  90.210  1.00  0.00     0.220 C 
ATOM     10  O   UNL     1      94.631  94.286  89.261  1.00  0.00    -0.275 OA
ATOM     11  N   UNL     1      94.233  92.367  90.431  1.00  0.00    -0.352 N 
ATOM     12  H   UNL     1      94.499  91.873  91.270  1.00  0.00     0.163 HD
BRANCH  11  13
ATOM     13  C   UNL     1      93.204  91.837  89.589  1.00  0.00     0.151 C 
BRANCH  13  14
ATOM     14  C   UNL     1      93.647  90.699  88.741  1.00  0.00    -0.025 A 
ATOM     15  C   UNL     1      93.262  89.376  89.065  1.00  0.00     0.056 A 
ATOM     16  C   UNL     1      94.460  90.914  87.604  1.00  0.00     0.009 A 
ATOM     17  C   UNL     1      93.662  88.286  88.258  1.00  0.00     0.160 A 
ATOM     18  C   UNL     1      94.860  89.834  86.797  1.00  0.00     0.050 A 
ATOM     19  C   UNL     1      94.471  88.521  87.123  1.00  0.00     0.157 A 
BRANCH  17  20
ATOM     20  O   UNL     1      93.322  87.001  88.597  1.00  0.00    -0.493 OA
ATOM     21  C   UNL     1      93.621  86.653  89.960  1.00  0.00     0.278 C 
ENDBRANCH  17  20
BRANCH  19  22
ATOM     22  O   UNL     1      94.885  87.483  86.353  1.00  0.00    -0.504 OA
ATOM     23  H   UNL     1      95.816  87.591  86.143  1.00  0.00     0.293 HD
ENDBRANCH  19  22
ENDBRANCH  13  14
ENDBRANCH  11  13
ENDBRANCH   8   9
ENDBRANCH   1   8
TORSDOF 11
ENDMDL
MODEL 10
REMARK VINA RESULT:    -5.021      4.083      7.070
REMARK INTER + INTRA:          -8.990
REMARK INTER:                  -7.724
REMARK INTRA:                  -1.266
REMARK UNBOUND:                -0.886
REMARK SMILES CCCCCCCCC(=O)NCc1ccc(O)c(OC)c1
REMARK SMILES IDX 7 1 6 2 5 3 4 4 3 5 2 6 1 7 8 8 9 9 10 10 11 11 12 13 13 14
REMARK SMILES IDX 21 15 14 16 18 17 15 18 16 19 19 20 20 21 17 22
REMARK H PARENT 11 12 17 23
REMARK Flexibility Score: inf
ROOT
ATOM      1  C   UNL     1      94.335  83.014  87.127  1.00  0.00     0.010 C 
ENDROOT
BRANCH   1   2
ATOM      2  C   UNL     1      93.410  81.908  87.713  1.00  0.00     0.001 C 
BRANCH   2   3
ATOM      3  C   UNL     1      92.435  81.329  86.645  1.00  0.00     0.000 C 
BRANCH   3   4
ATOM      4  C   UNL     1      92.777  79.877  86.206  1.00  0.00    -0.000 C 
BRANCH   4   5
ATOM      5  C   UNL     1      93.099  79.769  84.688  1.00  0.00    -0.000 C 
BRANCH   5   6
ATOM      6  C   UNL     1      94.556  79.306  84.420  1.00  0.00    -0.003 C 
ATOM      7  C   UNL     1      95.282  78.835  85.700  1.00  0.00     0.004 C 
ENDBRANCH   5   6
ENDBRANCH   4   5
ENDBRANCH   3   4
ENDBRANCH   2   3
ENDBRANCH   1   2
BRANCH   1   8
ATOM      8  C   UNL     1      95.606  82.463  86.423  1.00  0.00     0.100 C 
BRANCH   8   9
ATOM      9  C   UNL     1      96.029  83.343  85.307  1.00  0.00     0.220 C 
ATOM     10  O   UNL     1      96.774  84.318  85.568  1.00  0.00    -0.275 OA
ATOM     11  N   UNL     1      95.638  83.076  84.026  1.00  0.00    -0.352 N 
ATOM     12  H   UNL     1      94.973  82.322  83.941  1.00  0.00     0.163 HD
BRANCH  11  13
ATOM     13  C   UNL     1      96.091  83.761  82.854  1.00  0.00     0.151 C 
BRANCH  13  14
ATOM     14  C   UNL     1      96.605  82.858  81.790  1.00  0.00    -0.025 A 
ATOM     15  C   UNL     1      96.969  83.381  80.526  1.00  0.00     0.056 A 
ATOM     16  C   UNL     1      96.737  81.468  82.018  1.00  0.00     0.009 A 
ATOM     17  C   UNL     1      97.475  82.537  79.511  1.00  0.00     0.160 A 
ATOM     18  C   UNL     1      97.241  80.624  81.013  1.00  0.00     0.050 A 
ATOM     19  C   UNL     1      97.603  81.151  79.758  1.00  0.00     0.157 A 
BRANCH  17  20
ATOM     20  O   UNL     1      97.787  83.039  78.273  1.00  0.00    -0.493 OA
ATOM     21  C   UNL     1      96.655  83.533  77.535  1.00  0.00     0.278 C 
ENDBRANCH  17  20
BRANCH  19  22
ATOM     22  O   UNL     1      98.063  80.324  78.785  1.00  0.00    -0.504 OA
ATOM     23  H   UNL     1      98.560  80.833  78.140  1.00  0.00     0.293 HD
ENDBRANCH  19  22
ENDBRANCH  13  14
ENDBRANCH  11  13
ENDBRANCH   8   9
ENDBRANCH   1   8
TORSDOF 11
ENDMDL
