MODEL 1
REMARK VINA RESULT:    -6.853      0.000      0.000
REMARK INTER + INTRA:         -11.317
REMARK INTER:                 -10.659
REMARK INTRA:                  -0.658
REMARK UNBOUND:                -0.658
REMARK SMILES COc1cc(CNC(=O)CCCC/C=C/C(C)C)ccc1O
REMARK SMILES IDX 10 1 8 2 7 3 9 5 6 6 5 7 3 8 21 9 4 10 20 11 19 12 2 13 1 14
REMARK SMILES IDX 22 15 11 17 12 18 13 19 14 20 15 21 16 22 17 23 18 24
REMARK H PARENT 7 4 22 16
REMARK Flexibility Score: inf
ROOT
ATOM      1  C   UNL     1      92.758  94.277  74.897  1.00  0.00     0.100 C 
ENDROOT
BRANCH   1   2
ATOM      2  C   UNL     1      91.898  93.244  74.289  1.00  0.00     0.220 C 
ATOM      3  N   UNL     1      92.333  91.957  74.182  1.00  0.00    -0.352 N 
ATOM      4  H   UNL     1      93.270  91.794  74.522  1.00  0.00     0.163 HD
ATOM      5  O   UNL     1      90.754  93.580  73.898  1.00  0.00    -0.275 OA
BRANCH   3   6
ATOM      6  C   UNL     1      91.567  90.880  73.640  1.00  0.00     0.151 C 
BRANCH   6   7
ATOM      7  C   UNL     1      91.101  89.951  74.706  1.00  0.00    -0.025 A 
ATOM      8  C   UNL     1      90.312  89.576  77.008  1.00  0.00     0.160 A 
ATOM      9  C   UNL     1      90.192  88.196  76.743  1.00  0.00     0.157 A 
ATOM     10  C   UNL     1      90.767  90.439  75.989  1.00  0.00     0.056 A 
ATOM     11  C   UNL     1      90.540  87.692  75.474  1.00  0.00     0.050 A 
ATOM     12  C   UNL     1      90.982  88.563  74.459  1.00  0.00     0.009 A 
BRANCH   8  13
ATOM     13  O   UNL     1      90.038  90.062  78.261  1.00  0.00    -0.493 OA
ATOM     14  C   UNL     1      90.274  91.475  78.407  1.00  0.00     0.278 C 
ENDBRANCH   8  13
BRANCH   9  15
ATOM     15  O   UNL     1      89.745  87.340  77.697  1.00  0.00    -0.504 OA
ATOM     16  H   UNL     1      88.887  86.993  77.441  1.00  0.00     0.293 HD
ENDBRANCH   9  15
ENDBRANCH   6   7
ENDBRANCH   3   6
ENDBRANCH   1   2
BRANCH   1  17
ATOM     17  C   UNL     1      93.886  93.648  75.759  1.00  0.00     0.010 C 
BRANCH  17  18
ATOM     18  C   UNL     1      94.078  94.368  77.123  1.00  0.00     0.005 C 
BRANCH  18  19
ATOM     19  C   UNL     1      95.518  94.917  77.304  1.00  0.00     0.027 C 
BRANCH  19  20
ATOM     20  C   UNL     1      96.034  94.671  78.643  1.00  0.00    -0.031 C 
ATOM     21  C   UNL     1      95.871  95.511  79.682  1.00  0.00    -0.028 C 
BRANCH  21  22
ATOM     22  C   UNL     1      96.381  95.234  81.024  1.00  0.00     0.005 C 
ATOM     23  C   UNL     1      96.026  96.361  82.033  1.00  0.00     0.012 C 
ATOM     24  C   UNL     1      95.860  93.861  81.523  1.00  0.00     0.012 C 
ENDBRANCH  21  22
ENDBRANCH  19  20
ENDBRANCH  18  19
ENDBRANCH  17  18
ENDBRANCH   1  17
TORSDOF 10
ENDMDL
MODEL 2
REMARK VINA RESULT:    -6.554      3.563      8.295
REMARK INTER + INTRA:         -10.851
REMARK INTER:                 -10.056
REMARK INTRA:                  -0.795
REMARK UNBOUND:                -0.658
REMARK SMILES COc1cc(CNC(=O)CCCC/C=C/C(C)C)ccc1O
REMARK SMILES IDX 10 1 8 2 7 3 9 5 6 6 5 7 3 8 21 9 4 10 20 11 19 12 2 13 1 14
REMARK SMILES IDX 22 15 11 17 12 18 13 19 14 20 15 21 16 22 17 23 18 24
REMARK H PARENT 7 4 22 16
REMARK Flexibility Score: inf
ROOT
ATOM      1  C   UNL     1      93.239  95.030  75.185  1.00  0.00     0.100 C 
ENDROOT
BRANCH   1   2
ATOM      2  C   UNL     1      94.453  94.478  75.816  1.00  0.00     0.220 C 
ATOM      3  N   UNL     1      94.621  94.542  77.166  1.00  0.00    -0.352 N 
ATOM      4  H   UNL     1      93.876  95.007  77.667  1.00  0.00     0.163 HD
ATOM      5  O   UNL     1      95.307  93.930  75.077  1.00  0.00    -0.275 OA
BRANCH   3   6
ATOM      6  C   UNL     1      95.741  94.010  77.875  1.00  0.00     0.151 C 
BRANCH   6   7
ATOM      7  C   UNL     1      95.805  94.534  79.267  1.00  0.00    -0.025 A 
ATOM      8  C   UNL     1      96.166  96.409  80.821  1.00  0.00     0.160 A 
ATOM      9  C   UNL     1      95.914  95.553  81.913  1.00  0.00     0.157 A 
ATOM     10  C   UNL     1      96.112  95.892  79.510  1.00  0.00     0.056 A 
ATOM     11  C   UNL     1      95.626  94.193  81.687  1.00  0.00     0.050 A 
ATOM     12  C   UNL     1      95.562  93.688  80.374  1.00  0.00     0.009 A 
BRANCH   8  13
ATOM     13  O   UNL     1      96.511  97.719  81.039  1.00  0.00    -0.493 OA
ATOM     14  C   UNL     1      97.925  97.975  80.955  1.00  0.00     0.278 C 
ENDBRANCH   8  13
BRANCH   9  15
ATOM     15  O   UNL     1      95.945  96.023  83.187  1.00  0.00    -0.504 OA
ATOM     16  H   UNL     1      95.098  95.860  83.610  1.00  0.00     0.293 HD
ENDBRANCH   9  15
ENDBRANCH   6   7
ENDBRANCH   3   6
ENDBRANCH   1   2
BRANCH   1  17
ATOM     17  C   UNL     1      92.032  94.062  75.320  1.00  0.00     0.010 C 
BRANCH  17  18
ATOM     18  C   UNL     1      91.038  94.487  76.437  1.00  0.00     0.005 C 
BRANCH  18  19
ATOM     19  C   UNL     1      90.093  93.329  76.858  1.00  0.00     0.027 C 
BRANCH  19  20
ATOM     20  C   UNL     1      90.384  92.097  76.140  1.00  0.00    -0.031 C 
ATOM     21  C   UNL     1      89.445  91.286  75.620  1.00  0.00    -0.028 C 
BRANCH  21  22
ATOM     22  C   UNL     1      89.761  90.061  74.885  1.00  0.00     0.005 C 
ATOM     23  C   UNL     1      88.914  89.916  73.590  1.00  0.00     0.012 C 
ATOM     24  C   UNL     1      91.277  90.006  74.563  1.00  0.00     0.012 C 
ENDBRANCH  21  22
ENDBRANCH  19  20
ENDBRANCH  18  19
ENDBRANCH  17  18
ENDBRANCH   1  17
TORSDOF 10
ENDMDL
MODEL 3
REMARK VINA RESULT:    -6.379      4.766      7.822
REMARK INTER + INTRA:         -10.579
REMARK INTER:                  -9.911
REMARK INTRA:                  -0.667
REMARK UNBOUND:                -0.658
REMARK SMILES COc1cc(CNC(=O)CCCC/C=C/C(C)C)ccc1O
REMARK SMILES IDX 10 1 8 2 7 3 9 5 6 6 5 7 3 8 21 9 4 10 20 11 19 12 2 13 1 14
REMARK SMILES IDX 22 15 11 17 12 18 13 19 14 20 15 21 16 22 17 23 18 24
REMARK H PARENT 7 4 22 16
REMARK Flexibility Score: inf
ROOT
ATOM      1  C   UNL     1      94.544  97.822  74.076  1.00  0.00     0.100 C 
ENDROOT
BRANCH   1   2
ATOM      2  C   UNL     1      94.881  96.508  74.656  1.00  0.00     0.220 C 
ATOM      3  N   UNL     1      93.896  95.635  75.010  1.00  0.00    -0.352 N 
ATOM      4  H   UNL     1      92.955  95.973  74.865  1.00  0.00     0.163 HD
ATOM      5  O   UNL     1      96.094  96.213  74.790  1.00  0.00    -0.275 OA
BRANCH   3   6
ATOM      6  C   UNL     1      94.117  94.331  75.548  1.00  0.00     0.151 C 
BRANCH   6   7
ATOM      7  C   UNL     1      92.836  93.604  75.762  1.00  0.00    -0.025 A 
ATOM      8  C   UNL     1      90.859  92.460  74.843  1.00  0.00     0.160 A 
ATOM      9  C   UNL     1      90.401  92.199  76.151  1.00  0.00     0.157 A 
ATOM     10  C   UNL     1      92.069  93.161  74.661  1.00  0.00     0.056 A 
ATOM     11  C   UNL     1      91.145  92.651  77.258  1.00  0.00     0.050 A 
ATOM     12  C   UNL     1      92.358  93.340  77.067  1.00  0.00     0.009 A 
BRANCH   8  13
ATOM     13  O   UNL     1      90.105  92.080  73.761  1.00  0.00    -0.493 OA
ATOM     14  C   UNL     1      89.607  93.180  72.977  1.00  0.00     0.278 C 
ENDBRANCH   8  13
BRANCH   9  15
ATOM     15  O   UNL     1      89.246  91.515  76.361  1.00  0.00    -0.504 OA
ATOM     16  H   UNL     1      88.971  91.092  75.544  1.00  0.00     0.293 HD
ENDBRANCH   9  15
ENDBRANCH   6   7
ENDBRANCH   3   6
ENDBRANCH   1   2
BRANCH   1  17
ATOM     17  C   UNL     1      94.404  97.747  72.532  1.00  0.00     0.010 C 
BRANCH  17  18
ATOM     18  C   UNL     1      93.248  98.631  71.985  1.00  0.00     0.005 C 
BRANCH  18  19
ATOM     19  C   UNL     1      93.644  99.386  70.688  1.00  0.00     0.027 C 
BRANCH  19  20
ATOM     20  C   UNL     1      92.600  99.322  69.677  1.00  0.00    -0.031 C 
ATOM     21  C   UNL     1      91.477  98.589  69.795  1.00  0.00    -0.028 C 
BRANCH  21  22
ATOM     22  C   UNL     1      90.430  98.555  68.774  1.00  0.00     0.005 C 
ATOM     23  C   UNL     1      90.777  99.439  67.544  1.00  0.00     0.012 C 
ATOM     24  C   UNL     1      90.151  97.092  68.342  1.00  0.00     0.012 C 
ENDBRANCH  21  22
ENDBRANCH  19  20
ENDBRANCH  18  19
ENDBRANCH  17  18
ENDBRANCH   1  17
TORSDOF 10
ENDMDL
MODEL 4
REMARK VINA RESULT:    -5.915     10.581     13.446
REMARK INTER + INTRA:          -9.857
REMARK INTER:                  -9.336
REMARK INTRA:                  -0.521
REMARK UNBOUND:                -0.658
REMARK SMILES COc1cc(CNC(=O)CCCC/C=C/C(C)C)ccc1O
REMARK SMILES IDX 10 1 8 2 7 3 9 5 6 6 5 7 3 8 21 9 4 10 20 11 19 12 2 13 1 14
REMARK SMILES IDX 22 15 11 17 12 18 13 19 14 20 15 21 16 22 17 23 18 24
REMARK H PARENT 7 4 22 16
REMARK Flexibility Score: inf
ROOT
ATOM      1  C   UNL     1      96.706  84.683  83.634  1.00  0.00     0.100 C 
ENDROOT
BRANCH   1   2
ATOM      2  C   UNL     1      96.042  84.658  84.951  1.00  0.00     0.220 C 
ATOM      3  N   UNL     1      95.735  85.820  85.593  1.00  0.00    -0.352 N 
ATOM      4  H   UNL     1      96.016  86.662  85.109  1.00  0.00     0.163 HD
ATOM      5  O   UNL     1      95.751  83.543  85.447  1.00  0.00    -0.275 OA
BRANCH   3   6
ATOM      6  C   UNL     1      95.066  85.905  86.852  1.00  0.00     0.151 C 
BRANCH   6   7
ATOM      7  C   UNL     1      95.045  87.301  87.366  1.00  0.00    -0.025 A 
ATOM      8  C   UNL     1      94.562  88.894  89.181  1.00  0.00     0.160 A 
ATOM      9  C   UNL     1      95.015  89.955  88.371  1.00  0.00     0.157 A 
ATOM     10  C   UNL     1      94.579  87.579  88.671  1.00  0.00     0.056 A 
ATOM     11  C   UNL     1      95.464  89.697  87.061  1.00  0.00     0.050 A 
ATOM     12  C   UNL     1      95.488  88.379  86.565  1.00  0.00     0.009 A 
BRANCH   8  13
ATOM     13  O   UNL     1      94.063  89.149  90.433  1.00  0.00    -0.493 OA
ATOM     14  C   UNL     1      92.653  89.439  90.455  1.00  0.00     0.278 C 
ENDBRANCH   8  13
BRANCH   9  15
ATOM     15  O   UNL     1      95.024  91.231  88.836  1.00  0.00    -0.504 OA
ATOM     16  H   UNL     1      95.752  91.343  89.452  1.00  0.00     0.293 HD
ENDBRANCH   9  15
ENDBRANCH   6   7
ENDBRANCH   3   6
ENDBRANCH   1   2
BRANCH   1  17
ATOM     17  C   UNL     1      97.130  83.260  83.179  1.00  0.00     0.010 C 
BRANCH  17  18
ATOM     18  C   UNL     1      96.602  82.895  81.763  1.00  0.00     0.005 C 
BRANCH  18  19
ATOM     19  C   UNL     1      97.393  81.723  81.122  1.00  0.00     0.027 C 
BRANCH  19  20
ATOM     20  C   UNL     1      97.663  81.952  79.711  1.00  0.00    -0.031 C 
ATOM     21  C   UNL     1      96.728  82.305  78.810  1.00  0.00    -0.028 C 
BRANCH  21  22
ATOM     22  C   UNL     1      97.025  82.549  77.399  1.00  0.00     0.005 C 
ATOM     23  C   UNL     1      98.400  83.245  77.198  1.00  0.00     0.012 C 
ATOM     24  C   UNL     1      96.954  81.223  76.599  1.00  0.00     0.012 C 
ENDBRANCH  21  22
ENDBRANCH  19  20
ENDBRANCH  18  19
ENDBRANCH  17  18
ENDBRANCH   1  17
TORSDOF 10
ENDMDL
MODEL 5
REMARK VINA RESULT:    -5.821     22.330     25.686
REMARK INTER + INTRA:          -9.711
REMARK INTER:                  -8.983
REMARK INTRA:                  -0.727
REMARK UNBOUND:                -0.658
REMARK SMILES COc1cc(CNC(=O)CCCC/C=C/C(C)C)ccc1O
REMARK SMILES IDX 10 1 8 2 7 3 9 5 6 6 5 7 3 8 21 9 4 10 20 11 19 12 2 13 1 14
REMARK SMILES IDX 22 15 11 17 12 18 13 19 14 20 15 21 16 22 17 23 18 24
REMARK H PARENT 7 4 22 16
REMARK Flexibility Score: inf
ROOT
ATOM      1  C   UNL     1      85.726  69.290  71.795  1.00  0.00     0.100 C 
ENDROOT
BRANCH   1   2
ATOM      2  C   UNL     1      84.537  68.688  71.161  1.00  0.00     0.220 C 
ATOM      3  N   UNL     1      83.298  69.212  71.378  1.00  0.00    -0.352 N 
ATOM      4  H   UNL     1      83.273  70.003  72.006  1.00  0.00     0.163 HD
ATOM      5  O   UNL     1      84.705  67.701  70.405  1.00  0.00    -0.275 OA
BRANCH   3   6
ATOM      6  C   UNL     1      82.092  68.725  70.788  1.00  0.00     0.151 C 
BRANCH   6   7
ATOM      7  C   UNL     1      81.462  67.668  71.626  1.00  0.00    -0.025 A 
ATOM      8  C   UNL     1      80.926  66.750  73.847  1.00  0.00     0.160 A 
ATOM      9  C   UNL     1      80.250  65.672  73.240  1.00  0.00     0.157 A 
ATOM     10  C   UNL     1      81.527  67.736  73.036  1.00  0.00     0.056 A 
ATOM     11  C   UNL     1      80.194  65.581  71.835  1.00  0.00     0.050 A 
ATOM     12  C   UNL     1      80.787  66.576  71.033  1.00  0.00     0.009 A 
BRANCH   8  13
ATOM     13  O   UNL     1      81.040  66.809  75.213  1.00  0.00    -0.493 OA
ATOM     14  C   UNL     1      82.384  66.631  75.698  1.00  0.00     0.278 C 
ENDBRANCH   8  13
BRANCH   9  15
ATOM     15  O   UNL     1      79.650  64.714  73.992  1.00  0.00    -0.504 OA
ATOM     16  H   UNL     1      78.698  64.831  73.960  1.00  0.00     0.293 HD
ENDBRANCH   9  15
ENDBRANCH   6   7
ENDBRANCH   3   6
ENDBRANCH   1   2
BRANCH   1  17
ATOM     17  C   UNL     1      86.986  69.147  70.900  1.00  0.00     0.010 C 
BRANCH  17  18
ATOM     18  C   UNL     1      87.416  70.489  70.243  1.00  0.00     0.005 C 
BRANCH  18  19
ATOM     19  C   UNL     1      86.929  70.611  68.774  1.00  0.00     0.027 C 
BRANCH  19  20
ATOM     20  C   UNL     1      87.390  71.840  68.145  1.00  0.00    -0.031 C 
ATOM     21  C   UNL     1      88.611  72.373  68.331  1.00  0.00    -0.028 C 
BRANCH  21  22
ATOM     22  C   UNL     1      89.060  73.600  67.673  1.00  0.00     0.005 C 
ATOM     23  C   UNL     1      90.485  73.458  67.071  1.00  0.00     0.012 C 
ATOM     24  C   UNL     1      88.041  74.029  66.586  1.00  0.00     0.012 C 
ENDBRANCH  21  22
ENDBRANCH  19  20
ENDBRANCH  18  19
ENDBRANCH  17  18
ENDBRANCH   1  17
TORSDOF 10
ENDMDL
MODEL 6
REMARK VINA RESULT:    -5.770      4.926      9.838
REMARK INTER + INTRA:          -9.633
REMARK INTER:                  -8.877
REMARK INTRA:                  -0.756
REMARK UNBOUND:                -0.658
REMARK SMILES COc1cc(CNC(=O)CCCC/C=C/C(C)C)ccc1O
REMARK SMILES IDX 10 1 8 2 7 3 9 5 6 6 5 7 3 8 21 9 4 10 20 11 19 12 2 13 1 14
REMARK SMILES IDX 22 15 11 17 12 18 13 19 14 20 15 21 16 22 17 23 18 24
REMARK H PARENT 7 4 22 16
REMARK Flexibility Score: inf
ROOT
ATOM      1  C   UNL     1      96.330  94.962  77.844  1.00  0.00     0.100 C 
ENDROOT
BRANCH   1   2
ATOM      2  C   UNL     1      95.926  94.894  79.262  1.00  0.00     0.220 C 
ATOM      3  N   UNL     1      96.662  95.522  80.221  1.00  0.00    -0.352 N 
ATOM      4  H   UNL     1      97.488  95.997  79.883  1.00  0.00     0.163 HD
ATOM      5  O   UNL     1      94.880  94.264  79.550  1.00  0.00    -0.275 OA
BRANCH   3   6
ATOM      6  C   UNL     1      96.340  95.543  81.613  1.00  0.00     0.151 C 
BRANCH   6   7
ATOM      7  C   UNL     1      96.361  96.928  82.157  1.00  0.00    -0.025 A 
ATOM      8  C   UNL     1      96.393  98.456  84.088  1.00  0.00     0.160 A 
ATOM      9  C   UNL     1      96.421  99.562  83.214  1.00  0.00     0.157 A 
ATOM     10  C   UNL     1      96.361  97.151  83.553  1.00  0.00     0.056 A 
ATOM     11  C   UNL     1      96.401  99.356  81.820  1.00  0.00     0.050 A 
ATOM     12  C   UNL     1      96.382  98.049  81.295  1.00  0.00     0.009 A 
BRANCH   8  13
ATOM     13  O   UNL     1      96.345  98.653  85.445  1.00  0.00    -0.493 OA
ATOM     14  C   UNL     1      96.897  97.569  86.215  1.00  0.00     0.278 C 
ENDBRANCH   8  13
BRANCH   9  15
ATOM     15  O   UNL     1      96.465 100.830  83.697  1.00  0.00    -0.504 OA
ATOM     16  H   UNL     1      95.954 101.409  83.126  1.00  0.00     0.293 HD
ENDBRANCH   9  15
ENDBRANCH   6   7
ENDBRANCH   3   6
ENDBRANCH   1   2
BRANCH   1  17
ATOM     17  C   UNL     1      95.925  93.679  77.071  1.00  0.00     0.010 C 
BRANCH  17  18
ATOM     18  C   UNL     1      95.261  93.984  75.699  1.00  0.00     0.005 C 
BRANCH  18  19
ATOM     19  C   UNL     1      93.807  94.507  75.850  1.00  0.00     0.027 C 
BRANCH  19  20
ATOM     20  C   UNL     1      92.964  93.578  76.587  1.00  0.00    -0.031 C 
ATOM     21  C   UNL     1      91.626  93.507  76.462  1.00  0.00    -0.028 C 
BRANCH  21  22
ATOM     22  C   UNL     1      90.801  92.551  77.199  1.00  0.00     0.005 C 
ATOM     23  C   UNL     1      89.310  92.983  77.259  1.00  0.00     0.012 C 
ATOM     24  C   UNL     1      90.942  91.135  76.584  1.00  0.00     0.012 C 
ENDBRANCH  21  22
ENDBRANCH  19  20
ENDBRANCH  18  19
ENDBRANCH  17  18
ENDBRANCH   1  17
TORSDOF 10
ENDMDL
MODEL 7
REMARK VINA RESULT:    -5.670     11.195     13.666
REMARK INTER + INTRA:          -9.477
REMARK INTER:                  -8.844
REMARK INTRA:                  -0.633
REMARK UNBOUND:                -0.658
REMARK SMILES COc1cc(CNC(=O)CCCC/C=C/C(C)C)ccc1O
REMARK SMILES IDX 10 1 8 2 7 3 9 5 6 6 5 7 3 8 21 9 4 10 20 11 19 12 2 13 1 14
REMARK SMILES IDX 22 15 11 17 12 18 13 19 14 20 15 21 16 22 17 23 18 24
REMARK H PARENT 7 4 22 16
REMARK Flexibility Score: inf
ROOT
ATOM      1  C   UNL     1      97.813  82.840  84.060  1.00  0.00     0.100 C 
ENDROOT
BRANCH   1   2
ATOM      2  C   UNL     1      98.596  82.244  82.960  1.00  0.00     0.220 C 
ATOM      3  N   UNL     1      98.733  82.901  81.775  1.00  0.00    -0.352 N 
ATOM      4  H   UNL     1      98.247  83.785  81.718  1.00  0.00     0.163 HD
ATOM      5  O   UNL     1      99.146  81.134  83.159  1.00  0.00    -0.275 OA
BRANCH   3   6
ATOM      6  C   UNL     1      99.494  82.426  80.663  1.00  0.00     0.151 C 
BRANCH   6   7
ATOM      7  C   UNL     1      98.721  82.516  79.394  1.00  0.00    -0.025 A 
ATOM      8  C   UNL     1      98.674  82.660  76.936  1.00  0.00     0.160 A 
ATOM      9  C   UNL     1      97.264  82.667  76.963  1.00  0.00     0.157 A 
ATOM     10  C   UNL     1      99.388  82.587  78.150  1.00  0.00     0.056 A 
ATOM     11  C   UNL     1      96.585  82.616  78.197  1.00  0.00     0.050 A 
ATOM     12  C   UNL     1      97.307  82.531  79.403  1.00  0.00     0.009 A 
BRANCH   8  13
ATOM     13  O   UNL     1      99.339  82.776  75.743  1.00  0.00    -0.493 OA
ATOM     14  C   UNL     1     100.766  82.913  75.877  1.00  0.00     0.278 C 
ENDBRANCH   8  13
BRANCH   9  15
ATOM     15  O   UNL     1      96.545  82.723  75.812  1.00  0.00    -0.504 OA
ATOM     16  H   UNL     1      96.640  83.593  75.418  1.00  0.00     0.293 HD
ENDBRANCH   9  15
ENDBRANCH   6   7
ENDBRANCH   3   6
ENDBRANCH   1   2
BRANCH   1  17
ATOM     17  C   UNL     1      96.333  83.070  83.650  1.00  0.00     0.010 C 
BRANCH  17  18
ATOM     18  C   UNL     1      95.328  82.691  84.775  1.00  0.00     0.005 C 
BRANCH  18  19
ATOM     19  C   UNL     1      94.690  81.294  84.550  1.00  0.00     0.027 C 
BRANCH  19  20
ATOM     20  C   UNL     1      93.279  81.274  84.905  1.00  0.00    -0.031 C 
ATOM     21  C   UNL     1      92.613  80.172  85.296  1.00  0.00    -0.028 C 
BRANCH  21  22
ATOM     22  C   UNL     1      91.198  80.179  85.667  1.00  0.00     0.005 C 
ATOM     23  C   UNL     1      90.690  81.603  86.026  1.00  0.00     0.012 C 
ATOM     24  C   UNL     1      90.343  79.558  84.532  1.00  0.00     0.012 C 
ENDBRANCH  21  22
ENDBRANCH  19  20
ENDBRANCH  18  19
ENDBRANCH  17  18
ENDBRANCH   1  17
TORSDOF 10
ENDMDL
MODEL 8
REMARK VINA RESULT:    -5.670     10.318     12.972
REMARK INTER + INTRA:          -9.476
REMARK INTER:                  -8.832
REMARK INTRA:                  -0.644
REMARK UNBOUND:                -0.658
REMARK SMILES COc1cc(CNC(=O)CCCC/C=C/C(C)C)ccc1O
REMARK SMILES IDX 10 1 8 2 7 3 9 5 6 6 5 7 3 8 21 9 4 10 20 11 19 12 2 13 1 14
REMARK SMILES IDX 22 15 11 17 12 18 13 19 14 20 15 21 16 22 17 23 18 24
REMARK H PARENT 7 4 22 16
REMARK Flexibility Score: inf
ROOT
ATOM      1  C   UNL     1      96.598  82.898  82.656  1.00  0.00     0.100 C 
ENDROOT
BRANCH   1   2
ATOM      2  C   UNL     1      96.516  84.149  83.435  1.00  0.00     0.220 C 
ATOM      3  N   UNL     1      95.514  84.335  84.340  1.00  0.00    -0.352 N 
ATOM      4  H   UNL     1      94.849  83.576  84.403  1.00  0.00     0.163 HD
ATOM      5  O   UNL     1      97.403  85.017  83.256  1.00  0.00    -0.275 OA
BRANCH   3   6
ATOM      6  C   UNL     1      95.364  85.492  85.164  1.00  0.00     0.151 C 
BRANCH   6   7
ATOM      7  C   UNL     1      94.310  85.295  86.196  1.00  0.00    -0.025 A 
ATOM      8  C   UNL     1      92.353  84.055  87.030  1.00  0.00     0.160 A 
ATOM      9  C   UNL     1      92.305  84.893  88.164  1.00  0.00     0.157 A 
ATOM     10  C   UNL     1      93.353  84.265  86.057  1.00  0.00     0.056 A 
ATOM     11  C   UNL     1      93.241  85.936  88.306  1.00  0.00     0.050 A 
ATOM     12  C   UNL     1      94.243  86.131  87.335  1.00  0.00     0.009 A 
BRANCH   8  13
ATOM     13  O   UNL     1      91.404  83.080  86.855  1.00  0.00    -0.493 OA
ATOM     14  C   UNL     1      91.779  82.060  85.911  1.00  0.00     0.278 C 
ENDBRANCH   8  13
BRANCH   9  15
ATOM     15  O   UNL     1      91.364  84.710  89.126  1.00  0.00    -0.504 OA
ATOM     16  H   UNL     1      91.252  83.770  89.289  1.00  0.00     0.293 HD
ENDBRANCH   9  15
ENDBRANCH   6   7
ENDBRANCH   3   6
ENDBRANCH   1   2
BRANCH   1  17
ATOM     17  C   UNL     1      98.052  82.603  82.199  1.00  0.00     0.010 C 
BRANCH  17  18
ATOM     18  C   UNL     1      98.259  82.809  80.672  1.00  0.00     0.005 C 
BRANCH  18  19
ATOM     19  C   UNL     1      97.031  82.348  79.841  1.00  0.00     0.027 C 
BRANCH  19  20
ATOM     20  C   UNL     1      97.106  82.797  78.459  1.00  0.00    -0.031 C 
ATOM     21  C   UNL     1      98.057  82.411  77.589  1.00  0.00    -0.028 C 
BRANCH  21  22
ATOM     22  C   UNL     1      98.101  82.860  76.198  1.00  0.00     0.005 C 
ATOM     23  C   UNL     1      97.426  81.848  75.230  1.00  0.00     0.012 C 
ATOM     24  C   UNL     1      97.456  84.264  76.067  1.00  0.00     0.012 C 
ENDBRANCH  21  22
ENDBRANCH  19  20
ENDBRANCH  18  19
ENDBRANCH  17  18
ENDBRANCH   1  17
TORSDOF 10
ENDMDL
MODEL 9
REMARK VINA RESULT:    -5.667     11.718     13.895
REMARK INTER + INTRA:          -9.471
REMARK INTER:                  -8.922
REMARK INTRA:                  -0.549
REMARK UNBOUND:                -0.658
REMARK SMILES COc1cc(CNC(=O)CCCC/C=C/C(C)C)ccc1O
REMARK SMILES IDX 10 1 8 2 7 3 9 5 6 6 5 7 3 8 21 9 4 10 20 11 19 12 2 13 1 14
REMARK SMILES IDX 22 15 11 17 12 18 13 19 14 20 15 21 16 22 17 23 18 24
REMARK H PARENT 7 4 22 16
REMARK Flexibility Score: inf
ROOT
ATOM      1  C   UNL     1      95.846  81.303  84.015  1.00  0.00     0.100 C 
ENDROOT
BRANCH   1   2
ATOM      2  C   UNL     1      94.731  81.465  84.969  1.00  0.00     0.220 C 
ATOM      3  N   UNL     1      93.441  81.468  84.531  1.00  0.00    -0.352 N 
ATOM      4  H   UNL     1      93.330  81.378  83.531  1.00  0.00     0.163 HD
ATOM      5  O   UNL     1      95.007  81.574  86.189  1.00  0.00    -0.275 OA
BRANCH   3   6
ATOM      6  C   UNL     1      92.294  81.586  85.374  1.00  0.00     0.151 C 
BRANCH   6   7
ATOM      7  C   UNL     1      91.368  80.434  85.200  1.00  0.00    -0.025 A 
ATOM      8  C   UNL     1      89.136  79.564  84.634  1.00  0.00     0.160 A 
ATOM      9  C   UNL     1      89.594  78.247  84.846  1.00  0.00     0.157 A 
ATOM     10  C   UNL     1      90.025  80.643  84.815  1.00  0.00     0.056 A 
ATOM     11  C   UNL     1      90.926  78.024  85.249  1.00  0.00     0.050 A 
ATOM     12  C   UNL     1      91.810  79.107  85.416  1.00  0.00     0.009 A 
BRANCH   8  13
ATOM     13  O   UNL     1      87.823  79.790  84.306  1.00  0.00    -0.493 OA
ATOM     14  C   UNL     1      87.551  81.136  83.873  1.00  0.00     0.278 C 
ENDBRANCH   8  13
BRANCH   9  15
ATOM     15  O   UNL     1      88.768  77.184  84.668  1.00  0.00    -0.504 OA
ATOM     16  H   UNL     1      87.865  77.443  84.869  1.00  0.00     0.293 HD
ENDBRANCH   9  15
ENDBRANCH   6   7
ENDBRANCH   3   6
ENDBRANCH   1   2
BRANCH   1  17
ATOM     17  C   UNL     1      96.351  82.673  83.488  1.00  0.00     0.010 C 
BRANCH  17  18
ATOM     18  C   UNL     1      97.173  82.549  82.174  1.00  0.00     0.005 C 
BRANCH  18  19
ATOM     19  C   UNL     1      96.314  82.828  80.911  1.00  0.00     0.027 C 
BRANCH  19  20
ATOM     20  C   UNL     1      96.968  82.371  79.694  1.00  0.00    -0.031 C 
ATOM     21  C   UNL     1      96.599  82.742  78.453  1.00  0.00    -0.028 C 
BRANCH  21  22
ATOM     22  C   UNL     1      97.283  82.286  77.244  1.00  0.00     0.005 C 
ATOM     23  C   UNL     1      98.683  82.940  77.076  1.00  0.00     0.012 C 
ATOM     24  C   UNL     1      97.393  80.739  77.240  1.00  0.00     0.012 C 
ENDBRANCH  21  22
ENDBRANCH  19  20
ENDBRANCH  18  19
ENDBRANCH  17  18
ENDBRANCH   1  17
TORSDOF 10
ENDMDL
MODEL 10
REMARK VINA RESULT:    -5.624      6.808      9.882
REMARK INTER + INTRA:          -9.405
REMARK INTER:                  -8.811
REMARK INTRA:                  -0.594
REMARK UNBOUND:                -0.658
REMARK SMILES COc1cc(CNC(=O)CCCC/C=C/C(C)C)ccc1O
REMARK SMILES IDX 10 1 8 2 7 3 9 5 6 6 5 7 3 8 21 9 4 10 20 11 19 12 2 13 1 14
REMARK SMILES IDX 22 15 11 17 12 18 13 19 14 20 15 21 16 22 17 23 18 24
REMARK H PARENT 7 4 22 16
REMARK Flexibility Score: inf
ROOT
ATOM      1  C   UNL     1      93.886  98.078  72.306  1.00  0.00     0.100 C 
ENDROOT
BRANCH   1   2
ATOM      2  C   UNL     1      93.876  98.914  71.090  1.00  0.00     0.220 C 
ATOM      3  N   UNL     1      92.822  99.736  70.824  1.00  0.00    -0.352 N 
ATOM      4  H   UNL     1      92.071  99.698  71.499  1.00  0.00     0.163 HD
ATOM      5  O   UNL     1      94.872  98.862  70.327  1.00  0.00    -0.275 OA
BRANCH   3   6
ATOM      6  C   UNL     1      92.731 100.605  69.694  1.00  0.00     0.151 C 
BRANCH   6   7
ATOM      7  C   UNL     1      91.727 100.117  68.709  1.00  0.00    -0.025 A 
ATOM      8  C   UNL     1      90.133  98.393  67.971  1.00  0.00     0.160 A 
ATOM      9  C   UNL     1      89.798  99.181  66.851  1.00  0.00     0.157 A 
ATOM     10  C   UNL     1      91.095  98.866  68.887  1.00  0.00     0.056 A 
ATOM     11  C   UNL     1      90.434 100.421  66.649  1.00  0.00     0.050 A 
ATOM     12  C   UNL     1      91.385 100.892  67.576  1.00  0.00     0.009 A 
BRANCH   8  13
ATOM     13  O   UNL     1      89.564  97.155  68.136  1.00  0.00    -0.493 OA
ATOM     14  C   UNL     1      90.338  96.075  67.583  1.00  0.00     0.278 C 
ENDBRANCH   8  13
BRANCH   9  15
ATOM     15  O   UNL     1      88.866  98.760  65.957  1.00  0.00    -0.504 OA
ATOM     16  H   UNL     1      89.081  97.871  65.664  1.00  0.00     0.293 HD
ENDBRANCH   9  15
ENDBRANCH   6   7
ENDBRANCH   3   6
ENDBRANCH   1   2
BRANCH   1  17
ATOM     17  C   UNL     1      95.257  98.139  73.031  1.00  0.00     0.010 C 
BRANCH  17  18
ATOM     18  C   UNL     1      95.332  97.193  74.263  1.00  0.00     0.005 C 
BRANCH  18  19
ATOM     19  C   UNL     1      94.254  96.077  74.217  1.00  0.00     0.027 C 
BRANCH  19  20
ATOM     20  C   UNL     1      93.872  95.630  75.548  1.00  0.00    -0.031 C 
ATOM     21  C   UNL     1      93.011  94.624  75.790  1.00  0.00    -0.028 C 
BRANCH  21  22
ATOM     22  C   UNL     1      92.656  94.179  77.137  1.00  0.00     0.005 C 
ATOM     23  C   UNL     1      91.814  92.873  77.123  1.00  0.00     0.012 C 
ATOM     24  C   UNL     1      93.934  94.005  77.998  1.00  0.00     0.012 C 
ENDBRANCH  21  22
ENDBRANCH  19  20
ENDBRANCH  18  19
ENDBRANCH  17  18
ENDBRANCH   1  17
TORSDOF 10
ENDMDL
