MODEL 1
REMARK VINA RESULT:    -6.799      0.000      0.000
REMARK INTER + INTRA:         -13.399
REMARK INTER:                 -11.569
REMARK INTRA:                  -1.831
REMARK UNBOUND:                -1.831
REMARK SMILES C=C(C)[C@]12C[C@@H](C)[C@@]34O[C@](Cc5ccccc5)(O[C@@H]1[C@@H]3C=C(COC(=O)Cc1ccc(O)cc1)C[C@]1(O)C(=O)C(C)=C[C@@H]41)O2
REMARK SMILES IDX 23 1 22 2 21 3 20 4 9 5 8 6 10 7 6 8 18 10 44 11 19 12 5 13
REMARK SMILES IDX 7 14 4 15 11 16 12 17 13 18 17 19 14 20 16 21 15 22 2 23
REMARK SMILES IDX 3 24 1 25 35 26 36 27 43 28 38 29 42 30 39 32 40 33 41 34
REMARK SMILES IDX 37 35 24 37 25 38 26 39 27 40 28 41 29 42 34 43 30 44 33 45
REMARK SMILES IDX 31 46 32 47
REMARK H PARENT 37 36 32 48
REMARK Flexibility Score: 90.00
ROOT
ATOM      1  C   UNL     1      65.312  87.386  74.170  1.00  0.00     0.264 C 
ENDROOT
BRANCH   1   2
ATOM      2  C   UNL     1      64.100  87.189  73.289  1.00  0.00    -0.033 C 
ATOM      3  C   UNL     1      64.007  86.074  72.535  1.00  0.00    -0.015 C 
BRANCH   3   4
ATOM      4  C   UNL     1      62.944  85.679  71.523  1.00  0.00     0.078 C 
ATOM      5  O   UNL     1      61.226  84.388  72.748  1.00  0.00    -0.319 OA
ATOM      6  C   UNL     1      61.444  85.623  71.996  1.00  0.00     0.095 CG0
ATOM      7  C   UNL     1      61.834  83.210  72.186  1.00  0.00     0.289 C 
ATOM      8  C   UNL     1      60.533  85.614  70.700  1.00  0.00     0.023 C 
ATOM      9  G   UNL     1      61.143  86.758  73.018  1.00  0.00     0.000 G0
ATOM     10  O   UNL     1      63.241  83.373  72.037  1.00  0.00    -0.320 OA
ATOM     11  O   UNL     1      61.340  82.916  70.881  1.00  0.00    -0.313 OA
ATOM     12  C   UNL     1      63.273  84.287  70.930  1.00  0.00     0.170 C 
ATOM     13  C   UNL     1      61.223  84.864  69.520  1.00  0.00     0.049 C 
ATOM     14  C   UNL     1      59.112  85.058  70.895  1.00  0.00     0.011 C 
ATOM     15  C   UNL     1      62.143  83.749  70.019  1.00  0.00     0.122 C 
BRANCH   7  16
ATOM     16  C   UNL     1      61.547  82.041  73.108  1.00  0.00     0.135 C 
BRANCH  16  17
ATOM     17  C   UNL     1      62.798  81.525  73.773  1.00  0.00    -0.040 A 
ATOM     18  C   UNL     1      63.661  80.680  73.076  1.00  0.00     0.004 A 
ATOM     19  C   UNL     1      63.091  81.893  75.086  1.00  0.00     0.004 A 
ATOM     20  C   UNL     1      64.819  80.202  73.692  1.00  0.00     0.000 A 
ATOM     21  C   UNL     1      64.249  81.415  75.702  1.00  0.00     0.000 A 
ATOM     22  C   UNL     1      65.112  80.570  75.005  1.00  0.00     0.000 A 
ENDBRANCH  16  17
ENDBRANCH   7  16
BRANCH  15  23
ATOM     23  C   UNL     1      62.673  82.902  68.908  1.00  0.00    -0.046 C 
ATOM     24  C   UNL     1      62.565  81.418  69.097  1.00  0.00     0.042 C 
ATOM     25  C   UNL     1      63.215  83.438  67.804  1.00  0.00     0.010 C 
ENDBRANCH  15  23
ENDBRANCH   3   4
BRANCH   2  26
ATOM     26  C   UNL     1      63.102  88.328  73.386  1.00  0.00     0.078 C 
BRANCH  26  27
ATOM     27  C   UNL     1      61.747  88.128  72.709  1.00  0.00     0.140 C 
ATOM     28  C   UNL     1      61.143  86.742  73.013  1.00  0.00     0.086 CG0
ATOM     29  C   UNL     1      60.688  89.069  73.244  1.00  0.00     0.190 C 
ATOM     30  C   UNL     1      59.713  87.052  73.360  1.00  0.00    -0.010 C 
ATOM     31  G   UNL     1      61.452  85.618  71.981  1.00  0.00     0.000 G0
ATOM     32  O   UNL     1      60.819  90.276  73.384  1.00  0.00    -0.291 OA
ATOM     33  C   UNL     1      59.432  88.348  73.524  1.00  0.00    -0.008 C 
ATOM     34  C   UNL     1      58.175  89.004  73.941  1.00  0.00     0.048 C 
BRANCH  27  35
ATOM     35  O   UNL     1      61.807  88.437  71.327  1.00  0.00    -0.381 OA
ATOM     36  H   UNL     1      62.595  88.008  70.951  1.00  0.00     0.212 HD
ENDBRANCH  27  35
ENDBRANCH  26  27
ENDBRANCH   2  26
ENDBRANCH   1   2
BRANCH   1  37
ATOM     37  O   UNL     1      65.554  86.203  74.902  1.00  0.00    -0.461 OA
BRANCH  37  38
ATOM     38  C   UNL     1      66.178  86.358  76.118  1.00  0.00     0.310 C 
ATOM     39  O   UNL     1      67.235  86.946  76.295  1.00  0.00    -0.252 OA
BRANCH  38  40
ATOM     40  C   UNL     1      65.357  85.689  77.194  1.00  0.00     0.158 C 
BRANCH  40  41
ATOM     41  C   UNL     1      63.886  85.997  77.087  1.00  0.00    -0.037 A 
ATOM     42  C   UNL     1      63.056  85.179  76.318  1.00  0.00     0.008 A 
ATOM     43  C   UNL     1      63.352  87.098  77.755  1.00  0.00     0.008 A 
ATOM     44  C   UNL     1      61.694  85.464  76.217  1.00  0.00     0.046 A 
ATOM     45  C   UNL     1      61.990  87.383  77.655  1.00  0.00     0.046 A 
ATOM     46  C   UNL     1      61.161  86.567  76.887  1.00  0.00     0.115 A 
BRANCH  46  47
ATOM     47  O   UNL     1      59.833  86.845  76.788  1.00  0.00    -0.508 OA
ATOM     48  H   UNL     1      59.675  87.343  75.967  1.00  0.00     0.293 HD
ENDBRANCH  46  47
ENDBRANCH  40  41
ENDBRANCH  38  40
ENDBRANCH  37  38
ENDBRANCH   1  37
TORSDOF 10
ENDMDL
MODEL 2
REMARK VINA RESULT:    -6.446     29.654     33.890
REMARK INTER + INTRA:         -12.798
REMARK INTER:                 -12.506
REMARK INTRA:                  -0.292
REMARK UNBOUND:                -1.831
REMARK SMILES C=C(C)[C@]12C[C@@H](C)[C@@]34O[C@](Cc5ccccc5)(O[C@@H]1[C@@H]3C=C(COC(=O)Cc1ccc(O)cc1)C[C@]1(O)C(=O)C(C)=C[C@@H]41)O2
REMARK SMILES IDX 23 1 22 2 21 3 20 4 9 5 8 6 10 7 6 8 18 10 44 11 19 12 5 13
REMARK SMILES IDX 7 14 4 15 11 16 12 17 13 18 17 19 14 20 16 21 15 22 2 23
REMARK SMILES IDX 3 24 1 25 35 26 36 27 43 28 38 29 42 30 39 32 40 33 41 34
REMARK SMILES IDX 37 35 24 37 25 38 26 39 27 40 28 41 29 42 34 43 30 44 33 45
REMARK SMILES IDX 31 46 32 47
REMARK H PARENT 37 36 32 48
REMARK Flexibility Score: 90.00
ROOT
ATOM      1  C   UNL     1      96.276  81.320  83.985  1.00  0.00     0.264 C 
ENDROOT
BRANCH   1   2
ATOM      2  C   UNL     1      95.065  81.803  84.749  1.00  0.00    -0.033 C 
ATOM      3  C   UNL     1      93.923  81.088  84.695  1.00  0.00    -0.015 C 
BRANCH   3   4
ATOM      4  C   UNL     1      92.563  81.394  85.302  1.00  0.00     0.078 C 
ATOM      5  O   UNL     1      92.493  80.281  87.509  1.00  0.00    -0.319 OA
ATOM      6  C   UNL     1      92.466  81.590  86.860  1.00  0.00     0.095 CG0
ATOM      7  C   UNL     1      91.695  79.263  86.875  1.00  0.00     0.289 C 
ATOM      8  C   UNL     1      91.083  82.299  87.168  1.00  0.00     0.023 C 
ATOM      9  G   UNL     1      93.728  82.320  87.405  1.00  0.00     0.000 G0
ATOM     10  O   UNL     1      92.083  79.071  85.518  1.00  0.00    -0.320 OA
ATOM     11  O   UNL     1      90.311  79.605  86.835  1.00  0.00    -0.313 OA
ATOM     12  C   UNL     1      91.559  80.274  84.934  1.00  0.00     0.170 C 
ATOM     13  C   UNL     1      89.978  81.862  86.159  1.00  0.00     0.049 C 
ATOM     14  C   UNL     1      90.558  82.128  88.604  1.00  0.00     0.011 C 
ATOM     15  C   UNL     1      90.201  80.433  85.660  1.00  0.00     0.122 C 
BRANCH   7  16
ATOM     16  C   UNL     1      91.873  77.971  87.648  1.00  0.00     0.135 C 
BRANCH  16  17
ATOM     17  C   UNL     1      90.562  77.440  88.173  1.00  0.00    -0.040 A 
ATOM     18  C   UNL     1      89.742  76.669  87.350  1.00  0.00     0.004 A 
ATOM     19  C   UNL     1      90.172  77.720  89.482  1.00  0.00     0.004 A 
ATOM     20  C   UNL     1      88.530  76.177  87.837  1.00  0.00     0.000 A 
ATOM     21  C   UNL     1      88.960  77.229  89.968  1.00  0.00     0.000 A 
ATOM     22  C   UNL     1      88.139  76.458  89.146  1.00  0.00     0.000 A 
ENDBRANCH  16  17
ENDBRANCH   7  16
BRANCH  15  23
ATOM     23  C   UNL     1      89.061  79.930  84.835  1.00  0.00    -0.046 C 
ATOM     24  C   UNL     1      87.923  80.884  84.626  1.00  0.00     0.042 C 
ATOM     25  C   UNL     1      89.055  78.695  84.312  1.00  0.00     0.010 C 
ENDBRANCH  15  23
ENDBRANCH   3   4
BRANCH   2  26
ATOM     26  C   UNL     1      95.319  83.087  85.518  1.00  0.00     0.078 C 
BRANCH  26  27
ATOM     27  C   UNL     1      94.252  83.523  86.520  1.00  0.00     0.140 C 
ATOM     28  C   UNL     1      93.746  82.348  87.382  1.00  0.00     0.086 CG0
ATOM     29  C   UNL     1      94.791  84.481  87.561  1.00  0.00     0.190 C 
ATOM     30  C   UNL     1      93.748  82.910  88.776  1.00  0.00    -0.010 C 
ATOM     31  G   UNL     1      92.480  81.609  86.859  1.00  0.00     0.000 G0
ATOM     32  O   UNL     1      95.460  85.477  87.327  1.00  0.00    -0.291 OA
ATOM     33  C   UNL     1      94.353  84.094  88.915  1.00  0.00    -0.008 C 
ATOM     34  C   UNL     1      94.612  84.893  90.130  1.00  0.00     0.048 C 
BRANCH  27  35
ATOM     35  O   UNL     1      93.217  84.257  85.888  1.00  0.00    -0.381 OA
ATOM     36  H   UNL     1      92.744  84.767  86.568  1.00  0.00     0.212 HD
ENDBRANCH  27  35
ENDBRANCH  26  27
ENDBRANCH   2  26
ENDBRANCH   1   2
BRANCH   1  37
ATOM     37  O   UNL     1      97.186  82.388  83.828  1.00  0.00    -0.461 OA
BRANCH  37  38
ATOM     38  C   UNL     1      97.291  82.916  82.562  1.00  0.00     0.310 C 
ATOM     39  O   UNL     1      97.641  84.059  82.304  1.00  0.00    -0.252 OA
BRANCH  38  40
ATOM     40  C   UNL     1      96.907  81.868  81.546  1.00  0.00     0.158 C 
BRANCH  40  41
ATOM     41  C   UNL     1      97.308  82.236  80.141  1.00  0.00    -0.037 A 
ATOM     42  C   UNL     1      98.659  82.330  79.803  1.00  0.00     0.008 A 
ATOM     43  C   UNL     1      96.331  82.484  79.178  1.00  0.00     0.008 A 
ATOM     44  C   UNL     1      99.031  82.672  78.503  1.00  0.00     0.046 A 
ATOM     45  C   UNL     1      96.702  82.826  77.877  1.00  0.00     0.046 A 
ATOM     46  C   UNL     1      98.052  82.920  77.540  1.00  0.00     0.115 A 
BRANCH  46  47
ATOM     47  O   UNL     1      98.415  83.254  76.271  1.00  0.00    -0.508 OA
ATOM     48  H   UNL     1      98.681  82.448  75.797  1.00  0.00     0.293 HD
ENDBRANCH  46  47
ENDBRANCH  40  41
ENDBRANCH  38  40
ENDBRANCH  37  38
ENDBRANCH   1  37
TORSDOF 10
ENDMDL
MODEL 3
REMARK VINA RESULT:    -6.429     30.410     34.438
REMARK INTER + INTRA:         -12.769
REMARK INTER:                 -12.494
REMARK INTRA:                  -0.274
REMARK UNBOUND:                -1.831
REMARK SMILES C=C(C)[C@]12C[C@@H](C)[C@@]34O[C@](Cc5ccccc5)(O[C@@H]1[C@@H]3C=C(COC(=O)Cc1ccc(O)cc1)C[C@]1(O)C(=O)C(C)=C[C@@H]41)O2
REMARK SMILES IDX 23 1 22 2 21 3 20 4 9 5 8 6 10 7 6 8 18 10 44 11 19 12 5 13
REMARK SMILES IDX 7 14 4 15 11 16 12 17 13 18 17 19 14 20 16 21 15 22 2 23
REMARK SMILES IDX 3 24 1 25 35 26 36 27 43 28 38 29 42 30 39 32 40 33 41 34
REMARK SMILES IDX 37 35 24 37 25 38 26 39 27 40 28 41 29 42 34 43 30 44 33 45
REMARK SMILES IDX 31 46 32 47
REMARK H PARENT 37 36 32 48
REMARK Flexibility Score: 90.00
ROOT
ATOM      1  C   UNL     1      94.918  86.500  86.331  1.00  0.00     0.264 C 
ENDROOT
BRANCH   1   2
ATOM      2  C   UNL     1      94.964  85.011  86.585  1.00  0.00    -0.033 C 
ATOM      3  C   UNL     1      94.073  84.459  87.435  1.00  0.00    -0.015 C 
BRANCH   3   4
ATOM      4  C   UNL     1      93.958  83.020  87.912  1.00  0.00     0.078 C 
ATOM      5  O   UNL     1      92.379  81.879  86.390  1.00  0.00    -0.319 OA
ATOM      6  C   UNL     1      93.770  81.887  86.837  1.00  0.00     0.095 CG0
ATOM      7  C   UNL     1      91.396  82.033  87.432  1.00  0.00     0.289 C 
ATOM      8  C   UNL     1      94.104  80.504  87.535  1.00  0.00     0.023 C 
ATOM      9  G   UNL     1      94.589  82.203  85.552  1.00  0.00     0.000 G0
ATOM     10  O   UNL     1      91.600  83.240  88.161  1.00  0.00    -0.320 OA
ATOM     11  O   UNL     1      91.460  80.985  88.396  1.00  0.00    -0.313 OA
ATOM     12  C   UNL     1      92.777  82.888  88.905  1.00  0.00     0.170 C 
ATOM     13  C   UNL     1      93.700  80.511  89.041  1.00  0.00     0.049 C 
ATOM     14  C   UNL     1      93.509  79.260  86.853  1.00  0.00     0.011 C 
ATOM     15  C   UNL     1      92.497  81.418  89.301  1.00  0.00     0.122 C 
BRANCH   7  16
ATOM     16  C   UNL     1      90.023  82.046  86.791  1.00  0.00     0.135 C 
BRANCH  16  17
ATOM     17  C   UNL     1      89.730  80.764  86.053  1.00  0.00    -0.040 A 
ATOM     18  C   UNL     1      89.705  79.552  86.742  1.00  0.00     0.004 A 
ATOM     19  C   UNL     1      89.483  80.791  84.680  1.00  0.00     0.004 A 
ATOM     20  C   UNL     1      89.433  78.366  86.059  1.00  0.00     0.000 A 
ATOM     21  C   UNL     1      89.211  79.605  83.997  1.00  0.00     0.000 A 
ATOM     22  C   UNL     1      89.187  78.393  84.686  1.00  0.00     0.000 A 
ENDBRANCH  16  17
ENDBRANCH   7  16
BRANCH  15  23
ATOM     23  C   UNL     1      91.981  81.301  90.698  1.00  0.00    -0.046 C 
ATOM     24  C   UNL     1      92.812  81.946  91.767  1.00  0.00     0.042 C 
ATOM     25  C   UNL     1      90.839  80.656  90.981  1.00  0.00     0.010 C 
ENDBRANCH  15  23
ENDBRANCH   3   4
BRANCH   2  26
ATOM     26  C   UNL     1      96.058  84.307  85.804  1.00  0.00     0.078 C 
BRANCH  26  27
ATOM     27  C   UNL     1      96.043  82.779  85.804  1.00  0.00     0.140 C 
ATOM     28  C   UNL     1      94.631  82.209  85.557  1.00  0.00     0.086 CG0
ATOM     29  C   UNL     1      96.837  82.192  84.656  1.00  0.00     0.190 C 
ATOM     30  C   UNL     1      94.863  81.133  84.533  1.00  0.00    -0.010 C 
ATOM     31  G   UNL     1      93.790  81.887  86.826  1.00  0.00     0.000 G0
ATOM     32  O   UNL     1      97.972  82.517  84.340  1.00  0.00    -0.291 OA
ATOM     33  C   UNL     1      96.083  81.114  83.988  1.00  0.00    -0.008 C 
ATOM     34  C   UNL     1      96.631  80.265  82.911  1.00  0.00     0.048 C 
BRANCH  27  35
ATOM     35  O   UNL     1      96.679  82.255  86.958  1.00  0.00    -0.381 OA
ATOM     36  H   UNL     1      97.477  82.781  87.134  1.00  0.00     0.212 HD
ENDBRANCH  27  35
ENDBRANCH  26  27
ENDBRANCH   2  26
ENDBRANCH   1   2
BRANCH   1  37
ATOM     37  O   UNL     1      95.488  87.178  87.430  1.00  0.00    -0.461 OA
BRANCH  37  38
ATOM     38  C   UNL     1      95.559  88.549  87.327  1.00  0.00     0.310 C 
ATOM     39  O   UNL     1      95.540  89.176  86.277  1.00  0.00    -0.252 OA
BRANCH  38  40
ATOM     40  C   UNL     1      95.663  89.153  88.707  1.00  0.00     0.158 C 
BRANCH  40  41
ATOM     41  C   UNL     1      94.526  90.088  89.026  1.00  0.00    -0.037 A 
ATOM     42  C   UNL     1      93.211  89.703  88.765  1.00  0.00     0.008 A 
ATOM     43  C   UNL     1      94.788  91.340  89.582  1.00  0.00     0.008 A 
ATOM     44  C   UNL     1      92.158  90.570  89.059  1.00  0.00     0.046 A 
ATOM     45  C   UNL     1      93.736  92.207  89.878  1.00  0.00     0.046 A 
ATOM     46  C   UNL     1      92.421  91.823  89.616  1.00  0.00     0.115 A 
BRANCH  46  47
ATOM     47  O   UNL     1      91.394  92.668  89.903  1.00  0.00    -0.508 OA
ATOM     48  H   UNL     1      91.731  93.581  89.914  1.00  0.00     0.293 HD
ENDBRANCH  46  47
ENDBRANCH  40  41
ENDBRANCH  38  40
ENDBRANCH  37  38
ENDBRANCH   1  37
TORSDOF 10
ENDMDL
MODEL 4
REMARK VINA RESULT:    -6.352     32.066     36.043
REMARK INTER + INTRA:         -12.639
REMARK INTER:                 -11.703
REMARK INTRA:                  -0.936
REMARK UNBOUND:                -1.831
REMARK SMILES C=C(C)[C@]12C[C@@H](C)[C@@]34O[C@](Cc5ccccc5)(O[C@@H]1[C@@H]3C=C(COC(=O)Cc1ccc(O)cc1)C[C@]1(O)C(=O)C(C)=C[C@@H]41)O2
REMARK SMILES IDX 23 1 22 2 21 3 20 4 9 5 8 6 10 7 6 8 18 10 44 11 19 12 5 13
REMARK SMILES IDX 7 14 4 15 11 16 12 17 13 18 17 19 14 20 16 21 15 22 2 23
REMARK SMILES IDX 3 24 1 25 35 26 36 27 43 28 38 29 42 30 39 32 40 33 41 34
REMARK SMILES IDX 37 35 24 37 25 38 26 39 27 40 28 41 29 42 34 43 30 44 33 45
REMARK SMILES IDX 31 46 32 47
REMARK H PARENT 37 36 32 48
REMARK Flexibility Score: 90.00
ROOT
ATOM      1  C   UNL     1      95.824  77.790  84.007  1.00  0.00     0.264 C 
ENDROOT
BRANCH   1   2
ATOM      2  C   UNL     1      96.753  78.895  83.559  1.00  0.00    -0.033 C 
ATOM      3  C   UNL     1      97.503  78.716  82.451  1.00  0.00    -0.015 C 
BRANCH   3   4
ATOM      4  C   UNL     1      98.556  79.628  81.842  1.00  0.00     0.078 C 
ATOM      5  O   UNL     1      97.407  81.032  80.161  1.00  0.00    -0.319 OA
ATOM      6  C   UNL     1      98.134  81.086  81.427  1.00  0.00     0.095 CG0
ATOM      7  C   UNL     1      97.966  80.150  79.168  1.00  0.00     0.289 C 
ATOM      8  C   UNL     1      99.460  81.931  81.235  1.00  0.00     0.023 C 
ATOM      9  G   UNL     1      97.108  81.674  82.439  1.00  0.00     0.000 G0
ATOM     10  O   UNL     1      98.064  78.816  79.657  1.00  0.00    -0.320 OA
ATOM     11  O   UNL     1      99.290  80.522  78.795  1.00  0.00    -0.313 OA
ATOM     12  C   UNL     1      99.156  78.966  80.577  1.00  0.00     0.170 C 
ATOM     13  C   UNL     1     100.627  81.051  80.692  1.00  0.00     0.049 C 
ATOM     14  C   UNL     1      99.321  83.189  80.359  1.00  0.00     0.011 C 
ATOM     15  C   UNL     1     100.113  79.911  79.811  1.00  0.00     0.122 C 
BRANCH   7  16
ATOM     16  C   UNL     1      97.070  80.184  77.945  1.00  0.00     0.135 C 
BRANCH  16  17
ATOM     17  C   UNL     1      97.414  81.326  77.022  1.00  0.00    -0.040 A 
ATOM     18  C   UNL     1      98.043  81.072  75.804  1.00  0.00     0.004 A 
ATOM     19  C   UNL     1      97.102  82.635  77.388  1.00  0.00     0.004 A 
ATOM     20  C   UNL     1      98.361  82.129  74.950  1.00  0.00     0.000 A 
ATOM     21  C   UNL     1      97.420  83.691  76.534  1.00  0.00     0.000 A 
ATOM     22  C   UNL     1      98.049  83.438  75.315  1.00  0.00     0.000 A 
ENDBRANCH  16  17
ENDBRANCH   7  16
BRANCH  15  23
ATOM     23  C   UNL     1     101.217  79.166  79.135  1.00  0.00    -0.046 C 
ATOM     24  C   UNL     1     101.068  78.958  77.657  1.00  0.00     0.042 C 
ATOM     25  C   UNL     1     102.281  78.707  79.811  1.00  0.00     0.010 C 
ENDBRANCH  15  23
ENDBRANCH   3   4
BRANCH   2  26
ATOM     26  C   UNL     1      96.705  80.115  84.459  1.00  0.00     0.078 C 
BRANCH  26  27
ATOM     27  C   UNL     1      97.395  81.381  83.955  1.00  0.00     0.140 C 
ATOM     28  C   UNL     1      97.104  81.650  82.463  1.00  0.00     0.086 CG0
ATOM     29  C   UNL     1      96.864  82.634  84.619  1.00  0.00     0.190 C 
ATOM     30  C   UNL     1      96.768  83.115  82.430  1.00  0.00    -0.010 C 
ATOM     31  G   UNL     1      98.140  81.081  81.450  1.00  0.00     0.000 G0
ATOM     32  O   UNL     1      96.716  82.789  85.822  1.00  0.00    -0.291 OA
ATOM     33  C   UNL     1      96.599  83.690  83.624  1.00  0.00    -0.008 C 
ATOM     34  C   UNL     1      96.190  85.068  83.967  1.00  0.00     0.048 C 
BRANCH  27  35
ATOM     35  O   UNL     1      98.775  81.385  84.279  1.00  0.00    -0.381 OA
ATOM     36  H   UNL     1      98.880  81.028  85.177  1.00  0.00     0.212 HD
ENDBRANCH  27  35
ENDBRANCH  26  27
ENDBRANCH   2  26
ENDBRANCH   1   2
BRANCH   1  37
ATOM     37  O   UNL     1      95.176  78.180  85.199  1.00  0.00    -0.461 OA
BRANCH  37  38
ATOM     38  C   UNL     1      94.181  77.345  85.652  1.00  0.00     0.310 C 
ATOM     39  O   UNL     1      94.038  76.178  85.316  1.00  0.00    -0.252 OA
BRANCH  38  40
ATOM     40  C   UNL     1      93.299  78.092  86.623  1.00  0.00     0.158 C 
BRANCH  40  41
ATOM     41  C   UNL     1      92.361  79.056  85.943  1.00  0.00    -0.037 A 
ATOM     42  C   UNL     1      92.496  80.428  86.156  1.00  0.00     0.008 A 
ATOM     43  C   UNL     1      91.358  78.577  85.102  1.00  0.00     0.008 A 
ATOM     44  C   UNL     1      91.628  81.321  85.527  1.00  0.00     0.046 A 
ATOM     45  C   UNL     1      90.489  79.469  84.472  1.00  0.00     0.046 A 
ATOM     46  C   UNL     1      90.624  80.841  84.686  1.00  0.00     0.115 A 
BRANCH  46  47
ATOM     47  O   UNL     1      89.776  81.711  84.073  1.00  0.00    -0.508 OA
ATOM     48  H   UNL     1      89.658  81.438  83.146  1.00  0.00     0.293 HD
ENDBRANCH  46  47
ENDBRANCH  40  41
ENDBRANCH  38  40
ENDBRANCH  37  38
ENDBRANCH   1  37
TORSDOF 10
ENDMDL
MODEL 5
REMARK VINA RESULT:    -6.134     31.840     35.887
REMARK INTER + INTRA:         -12.267
REMARK INTER:                 -12.756
REMARK INTRA:                   0.489
REMARK UNBOUND:                -1.831
REMARK SMILES C=C(C)[C@]12C[C@@H](C)[C@@]34O[C@](Cc5ccccc5)(O[C@@H]1[C@@H]3C=C(COC(=O)Cc1ccc(O)cc1)C[C@]1(O)C(=O)C(C)=C[C@@H]41)O2
REMARK SMILES IDX 23 1 22 2 21 3 20 4 9 5 8 6 10 7 6 8 18 10 44 11 19 12 5 13
REMARK SMILES IDX 7 14 4 15 11 16 12 17 13 18 17 19 14 20 16 21 15 22 2 23
REMARK SMILES IDX 3 24 1 25 35 26 36 27 43 28 38 29 42 30 39 32 40 33 41 34
REMARK SMILES IDX 37 35 24 37 25 38 26 39 27 40 28 41 29 42 34 43 30 44 33 45
REMARK SMILES IDX 31 46 32 47
REMARK H PARENT 37 36 32 48
REMARK Flexibility Score: 90.00
ROOT
ATOM      1  C   UNL     1      93.328  98.919  72.091  1.00  0.00     0.264 C 
ENDROOT
BRANCH   1   2
ATOM      2  C   UNL     1      94.802  98.776  72.395  1.00  0.00    -0.033 C 
ATOM      3  C   UNL     1      95.207  98.722  73.681  1.00  0.00    -0.015 C 
BRANCH   3   4
ATOM      4  C   UNL     1      96.617  98.657  74.247  1.00  0.00     0.078 C 
ATOM      5  O   UNL     1      97.168  96.264  74.536  1.00  0.00    -0.319 OA
ATOM      6  C   UNL     1      97.548  97.470  73.803  1.00  0.00     0.095 CG0
ATOM      7  C   UNL     1      96.891  96.457  75.937  1.00  0.00     0.289 C 
ATOM      8  C   UNL     1      99.036  97.862  74.176  1.00  0.00     0.023 C 
ATOM      9  G   UNL     1      97.306  97.107  72.308  1.00  0.00     0.000 G0
ATOM     10  O   UNL     1      95.855  97.416  76.132  1.00  0.00    -0.320 OA
ATOM     11  O   UNL     1      98.019  96.959  76.649  1.00  0.00    -0.313 OA
ATOM     12  C   UNL     1      96.561  98.621  75.794  1.00  0.00     0.170 C 
ATOM     13  C   UNL     1      99.092  98.727  75.472  1.00  0.00     0.049 C 
ATOM     14  C   UNL     1     100.018  96.685  74.306  1.00  0.00     0.011 C 
ATOM     15  C   UNL     1      97.952  98.384  76.431  1.00  0.00     0.122 C 
BRANCH   7  16
ATOM     16  C   UNL     1      96.474  95.125  76.527  1.00  0.00     0.135 C 
BRANCH  16  17
ATOM     17  C   UNL     1      95.015  94.829  76.283  1.00  0.00    -0.040 A 
ATOM     18  C   UNL     1      94.382  95.327  75.145  1.00  0.00     0.004 A 
ATOM     19  C   UNL     1      94.299  94.057  77.197  1.00  0.00     0.004 A 
ATOM     20  C   UNL     1      93.033  95.053  74.919  1.00  0.00     0.000 A 
ATOM     21  C   UNL     1      92.950  93.782  76.972  1.00  0.00     0.000 A 
ATOM     22  C   UNL     1      92.317  94.281  75.834  1.00  0.00     0.000 A 
ENDBRANCH  16  17
ENDBRANCH   7  16
BRANCH  15  23
ATOM     23  C   UNL     1      98.088  99.068  77.753  1.00  0.00    -0.046 C 
ATOM     24  C   UNL     1      97.072 100.130  78.056  1.00  0.00     0.042 C 
ATOM     25  C   UNL     1      99.062  98.751  78.618  1.00  0.00     0.010 C 
ENDBRANCH  15  23
ENDBRANCH   3   4
BRANCH   2  26
ATOM     26  C   UNL     1      95.663  98.702  71.148  1.00  0.00     0.078 C 
BRANCH  26  27
ATOM     27  C   UNL     1      97.128  98.310  71.334  1.00  0.00     0.140 C 
ATOM     28  C   UNL     1      97.296  97.125  72.308  1.00  0.00     0.086 CG0
ATOM     29  C   UNL     1      97.752  97.777  70.062  1.00  0.00     0.190 C 
ATOM     30  C   UNL     1      98.266  96.223  71.596  1.00  0.00    -0.010 C 
ATOM     31  G   UNL     1      97.549  97.493  73.799  1.00  0.00     0.000 G0
ATOM     32  O   UNL     1      97.683  98.308  68.963  1.00  0.00    -0.291 OA
ATOM     33  C   UNL     1      98.520  96.546  70.324  1.00  0.00    -0.008 C 
ATOM     34  C   UNL     1      99.344  95.852  69.313  1.00  0.00     0.048 C 
BRANCH  27  35
ATOM     35  O   UNL     1      97.928  99.435  71.658  1.00  0.00    -0.381 OA
ATOM     36  H   UNL     1      98.317  99.292  72.538  1.00  0.00     0.212 HD
ENDBRANCH  27  35
ENDBRANCH  26  27
ENDBRANCH   2  26
ENDBRANCH   1   2
BRANCH   1  37
ATOM     37  O   UNL     1      93.107 100.144  71.424  1.00  0.00    -0.461 OA
BRANCH  37  38
ATOM     38  C   UNL     1      92.859 100.064  70.073  1.00  0.00     0.310 C 
ATOM     39  O   UNL     1      93.704  99.844  69.216  1.00  0.00    -0.252 OA
BRANCH  38  40
ATOM     40  C   UNL     1      91.388 100.288  69.816  1.00  0.00     0.158 C 
BRANCH  40  41
ATOM     41  C   UNL     1      90.815  99.331  68.804  1.00  0.00    -0.037 A 
ATOM     42  C   UNL     1      90.638  99.737  67.481  1.00  0.00     0.008 A 
ATOM     43  C   UNL     1      90.461  98.038  69.189  1.00  0.00     0.008 A 
ATOM     44  C   UNL     1      90.106  98.850  66.544  1.00  0.00     0.046 A 
ATOM     45  C   UNL     1      89.930  97.151  68.252  1.00  0.00     0.046 A 
ATOM     46  C   UNL     1      89.753  97.557  66.930  1.00  0.00     0.115 A 
BRANCH  46  47
ATOM     47  O   UNL     1      89.234  96.693  66.016  1.00  0.00    -0.508 OA
ATOM     48  H   UNL     1      89.400  95.781  66.314  1.00  0.00     0.293 HD
ENDBRANCH  46  47
ENDBRANCH  40  41
ENDBRANCH  38  40
ENDBRANCH  37  38
ENDBRANCH   1  37
TORSDOF 10
ENDMDL
MODEL 6
REMARK VINA RESULT:    -5.934     30.992     34.842
REMARK INTER + INTRA:         -11.927
REMARK INTER:                 -11.229
REMARK INTRA:                  -0.698
REMARK UNBOUND:                -1.831
REMARK SMILES C=C(C)[C@]12C[C@@H](C)[C@@]34O[C@](Cc5ccccc5)(O[C@@H]1[C@@H]3C=C(COC(=O)Cc1ccc(O)cc1)C[C@]1(O)C(=O)C(C)=C[C@@H]41)O2
REMARK SMILES IDX 23 1 22 2 21 3 20 4 9 5 8 6 10 7 6 8 18 10 44 11 19 12 5 13
REMARK SMILES IDX 7 14 4 15 11 16 12 17 13 18 17 19 14 20 16 21 15 22 2 23
REMARK SMILES IDX 3 24 1 25 35 26 36 27 43 28 38 29 42 30 39 32 40 33 41 34
REMARK SMILES IDX 37 35 24 37 25 38 26 39 27 40 28 41 29 42 34 43 30 44 33 45
REMARK SMILES IDX 31 46 32 47
REMARK H PARENT 37 36 32 48
REMARK Flexibility Score: 90.00
ROOT
ATOM      1  C   UNL     1      97.273  82.231  85.336  1.00  0.00     0.264 C 
ENDROOT
BRANCH   1   2
ATOM      2  C   UNL     1      95.929  82.825  85.689  1.00  0.00    -0.033 C 
ATOM      3  C   UNL     1      94.894  82.002  85.957  1.00  0.00    -0.015 C 
BRANCH   3   4
ATOM      4  C   UNL     1      93.443  82.342  86.259  1.00  0.00     0.078 C 
ATOM      5  O   UNL     1      93.243  82.524  88.717  1.00  0.00    -0.319 OA
ATOM      6  C   UNL     1      93.134  83.289  87.477  1.00  0.00     0.095 CG0
ATOM      7  C   UNL     1      92.658  81.208  88.681  1.00  0.00     0.289 C 
ATOM      8  C   UNL     1      91.648  83.812  87.312  1.00  0.00     0.023 C 
ATOM      9  G   UNL     1      94.222  84.395  87.607  1.00  0.00     0.000 G0
ATOM     10  O   UNL     1      93.229  80.416  87.644  1.00  0.00    -0.320 OA
ATOM     11  O   UNL     1      91.258  81.243  88.413  1.00  0.00    -0.313 OA
ATOM     12  C   UNL     1      92.636  81.042  86.495  1.00  0.00     0.170 C 
ATOM     13  C   UNL     1      90.736  82.741  86.640  1.00  0.00     0.049 C 
ATOM     14  C   UNL     1      90.978  84.316  88.602  1.00  0.00     0.011 C 
ATOM     15  C   UNL     1      91.191  81.320  86.974  1.00  0.00     0.122 C 
BRANCH   7  16
ATOM     16  C   UNL     1      92.898  80.545  90.023  1.00  0.00     0.135 C 
BRANCH  16  17
ATOM     17  C   UNL     1      92.533  81.449  91.174  1.00  0.00    -0.040 A 
ATOM     18  C   UNL     1      93.525  82.176  91.832  1.00  0.00     0.004 A 
ATOM     19  C   UNL     1      91.203  81.558  91.580  1.00  0.00     0.004 A 
ATOM     20  C   UNL     1      93.187  83.013  92.897  1.00  0.00     0.000 A 
ATOM     21  C   UNL     1      90.865  82.394  92.645  1.00  0.00     0.000 A 
ATOM     22  C   UNL     1      91.857  83.121  93.302  1.00  0.00     0.000 A 
ENDBRANCH  16  17
ENDBRANCH   7  16
BRANCH  15  23
ATOM     23  C   UNL     1      90.230  80.282  86.492  1.00  0.00    -0.046 C 
ATOM     24  C   UNL     1      90.799  79.212  85.608  1.00  0.00     0.042 C 
ATOM     25  C   UNL     1      88.932  80.305  86.831  1.00  0.00     0.010 C 
ENDBRANCH  15  23
ENDBRANCH   3   4
BRANCH   2  26
ATOM     26  C   UNL     1      95.933  84.342  85.701  1.00  0.00     0.078 C 
BRANCH  26  27
ATOM     27  C   UNL     1      94.700  85.039  86.274  1.00  0.00     0.140 C 
ATOM     28  C   UNL     1      94.225  84.394  87.592  1.00  0.00     0.086 CG0
ATOM     29  C   UNL     1      94.984  86.466  86.695  1.00  0.00     0.190 C 
ATOM     30  C   UNL     1      93.979  85.573  88.491  1.00  0.00    -0.010 C 
ATOM     31  G   UNL     1      93.133  83.292  87.461  1.00  0.00     0.000 G0
ATOM     32  O   UNL     1      95.558  87.303  86.015  1.00  0.00    -0.291 OA
ATOM     33  C   UNL     1      94.419  86.747  88.028  1.00  0.00    -0.008 C 
ATOM     34  C   UNL     1      94.423  88.080  88.665  1.00  0.00     0.048 C 
BRANCH  27  35
ATOM     35  O   UNL     1      93.679  85.170  85.299  1.00  0.00    -0.381 OA
ATOM     36  H   UNL     1      93.605  84.329  84.818  1.00  0.00     0.212 HD
ENDBRANCH  27  35
ENDBRANCH  26  27
ENDBRANCH   2  26
ENDBRANCH   1   2
BRANCH   1  37
ATOM     37  O   UNL     1      97.653  82.669  84.050  1.00  0.00    -0.461 OA
BRANCH  37  38
ATOM     38  C   UNL     1      97.082  82.006  82.988  1.00  0.00     0.310 C 
ATOM     39  O   UNL     1      97.048  80.791  82.855  1.00  0.00    -0.252 OA
BRANCH  38  40
ATOM     40  C   UNL     1      96.505  83.010  82.019  1.00  0.00     0.158 C 
BRANCH  40  41
ATOM     41  C   UNL     1      97.053  82.861  80.623  1.00  0.00    -0.037 A 
ATOM     42  C   UNL     1      98.431  82.868  80.410  1.00  0.00     0.008 A 
ATOM     43  C   UNL     1      96.182  82.716  79.544  1.00  0.00     0.008 A 
ATOM     44  C   UNL     1      98.939  82.732  79.118  1.00  0.00     0.046 A 
ATOM     45  C   UNL     1      96.689  82.579  78.251  1.00  0.00     0.046 A 
ATOM     46  C   UNL     1      98.067  82.587  78.038  1.00  0.00     0.115 A 
BRANCH  46  47
ATOM     47  O   UNL     1      98.562  82.454  76.778  1.00  0.00    -0.508 OA
ATOM     48  H   UNL     1      97.911  81.980  76.231  1.00  0.00     0.293 HD
ENDBRANCH  46  47
ENDBRANCH  40  41
ENDBRANCH  38  40
ENDBRANCH  37  38
ENDBRANCH   1  37
TORSDOF 10
ENDMDL
MODEL 7
REMARK VINA RESULT:    -5.882     30.755     34.946
REMARK INTER + INTRA:         -11.839
REMARK INTER:                 -10.577
REMARK INTRA:                  -1.261
REMARK UNBOUND:                -1.831
REMARK SMILES C=C(C)[C@]12C[C@@H](C)[C@@]34O[C@](Cc5ccccc5)(O[C@@H]1[C@@H]3C=C(COC(=O)Cc1ccc(O)cc1)C[C@]1(O)C(=O)C(C)=C[C@@H]41)O2
REMARK SMILES IDX 23 1 22 2 21 3 20 4 9 5 8 6 10 7 6 8 18 10 44 11 19 12 5 13
REMARK SMILES IDX 7 14 4 15 11 16 12 17 13 18 17 19 14 20 16 21 15 22 2 23
REMARK SMILES IDX 3 24 1 25 35 26 36 27 43 28 38 29 42 30 39 32 40 33 41 34
REMARK SMILES IDX 37 35 24 37 25 38 26 39 27 40 28 41 29 42 34 43 30 44 33 45
REMARK SMILES IDX 31 46 32 47
REMARK H PARENT 37 36 32 48
REMARK Flexibility Score: 90.00
ROOT
ATOM      1  C   UNL     1      91.261  81.405  84.731  1.00  0.00     0.264 C 
ENDROOT
BRANCH   1   2
ATOM      2  C   UNL     1      92.609  81.752  85.321  1.00  0.00    -0.033 C 
ATOM      3  C   UNL     1      93.709  81.115  84.871  1.00  0.00    -0.015 C 
BRANCH   3   4
ATOM      4  C   UNL     1      95.150  81.224  85.346  1.00  0.00     0.078 C 
ATOM      5  O   UNL     1      96.246  82.933  83.934  1.00  0.00    -0.319 OA
ATOM      6  C   UNL     1      95.845  82.634  85.307  1.00  0.00     0.095 CG0
ATOM      7  C   UNL     1      96.837  81.834  83.213  1.00  0.00     0.289 C 
ATOM      8  C   UNL     1      97.135  82.558  86.224  1.00  0.00     0.023 C 
ATOM      9  G   UNL     1      94.834  83.761  85.670  1.00  0.00     0.000 G0
ATOM     10  O   UNL     1      95.958  80.714  83.165  1.00  0.00    -0.320 OA
ATOM     11  O   UNL     1      98.032  81.361  83.831  1.00  0.00    -0.313 OA
ATOM     12  C   UNL     1      96.048  80.266  84.526  1.00  0.00     0.170 C 
ATOM     13  C   UNL     1      97.781  81.139  86.187  1.00  0.00     0.049 C 
ATOM     14  C   UNL     1      98.214  83.616  85.937  1.00  0.00     0.011 C 
ATOM     15  C   UNL     1      97.553  80.449  84.841  1.00  0.00     0.122 C 
BRANCH   7  16
ATOM     16  C   UNL     1      97.149  82.303  81.806  1.00  0.00     0.135 C 
BRANCH  16  17
ATOM     17  C   UNL     1      98.269  81.510  81.179  1.00  0.00    -0.040 A 
ATOM     18  C   UNL     1      98.015  80.248  80.643  1.00  0.00     0.004 A 
ATOM     19  C   UNL     1      99.558  82.040  81.137  1.00  0.00     0.004 A 
ATOM     20  C   UNL     1      99.051  79.515  80.064  1.00  0.00     0.000 A 
ATOM     21  C   UNL     1     100.594  81.307  80.557  1.00  0.00     0.000 A 
ATOM     22  C   UNL     1     100.340  80.045  80.021  1.00  0.00     0.000 A 
ENDBRANCH  16  17
ENDBRANCH   7  16
BRANCH  15  23
ATOM     23  C   UNL     1      98.312  79.169  84.717  1.00  0.00    -0.046 C 
ATOM     24  C   UNL     1      99.511  79.195  83.815  1.00  0.00     0.042 C 
ATOM     25  C   UNL     1      97.944  78.059  85.373  1.00  0.00     0.010 C 
ENDBRANCH  15  23
ENDBRANCH   3   4
BRANCH   2  26
ATOM     26  C   UNL     1      92.532  82.829  86.387  1.00  0.00     0.078 C 
BRANCH  26  27
ATOM     27  C   UNL     1      93.850  83.448  86.849  1.00  0.00     0.140 C 
ATOM     28  C   UNL     1      94.799  83.749  85.670  1.00  0.00     0.086 CG0
ATOM     29  C   UNL     1      93.661  84.816  87.471  1.00  0.00     0.190 C 
ATOM     30  C   UNL     1      95.288  85.140  85.960  1.00  0.00    -0.010 C 
ATOM     31  G   UNL     1      95.828  82.635  85.318  1.00  0.00     0.000 G0
ATOM     32  O   UNL     1      92.839  85.096  88.330  1.00  0.00    -0.291 OA
ATOM     33  C   UNL     1      94.650  85.777  86.947  1.00  0.00    -0.008 C 
ATOM     34  C   UNL     1      94.805  87.160  87.443  1.00  0.00     0.048 C 
BRANCH  27  35
ATOM     35  O   UNL     1      94.446  82.686  87.885  1.00  0.00    -0.381 OA
ATOM     36  H   UNL     1      94.411  81.747  87.634  1.00  0.00     0.212 HD
ENDBRANCH  27  35
ENDBRANCH  26  27
ENDBRANCH   2  26
ENDBRANCH   1   2
BRANCH   1  37
ATOM     37  O   UNL     1      90.991  80.038  84.956  1.00  0.00    -0.461 OA
BRANCH  37  38
ATOM     38  C   UNL     1      89.674  79.707  85.175  1.00  0.00     0.310 C 
ATOM     39  O   UNL     1      89.134  78.680  84.789  1.00  0.00    -0.252 OA
BRANCH  38  40
ATOM     40  C   UNL     1      89.003  80.806  85.964  1.00  0.00     0.158 C 
BRANCH  40  41
ATOM     41  C   UNL     1      89.028  80.562  87.450  1.00  0.00    -0.037 A 
ATOM     42  C   UNL     1      88.319  79.490  87.993  1.00  0.00     0.008 A 
ATOM     43  C   UNL     1      89.758  81.408  88.284  1.00  0.00     0.008 A 
ATOM     44  C   UNL     1      88.341  79.265  89.370  1.00  0.00     0.046 A 
ATOM     45  C   UNL     1      89.781  81.183  89.661  1.00  0.00     0.046 A 
ATOM     46  C   UNL     1      89.072  80.112  90.204  1.00  0.00     0.115 A 
BRANCH  46  47
ATOM     47  O   UNL     1      89.094  79.892  91.546  1.00  0.00    -0.508 OA
ATOM     48  H   UNL     1      88.201  79.638  91.839  1.00  0.00     0.293 HD
ENDBRANCH  46  47
ENDBRANCH  40  41
ENDBRANCH  38  40
ENDBRANCH  37  38
ENDBRANCH   1  37
TORSDOF 10
ENDMDL
MODEL 8
REMARK VINA RESULT:    -5.857     29.886     34.142
REMARK INTER + INTRA:         -11.797
REMARK INTER:                 -10.252
REMARK INTRA:                  -1.545
REMARK UNBOUND:                -1.831
REMARK SMILES C=C(C)[C@]12C[C@@H](C)[C@@]34O[C@](Cc5ccccc5)(O[C@@H]1[C@@H]3C=C(COC(=O)Cc1ccc(O)cc1)C[C@]1(O)C(=O)C(C)=C[C@@H]41)O2
REMARK SMILES IDX 23 1 22 2 21 3 20 4 9 5 8 6 10 7 6 8 18 10 44 11 19 12 5 13
REMARK SMILES IDX 7 14 4 15 11 16 12 17 13 18 17 19 14 20 16 21 15 22 2 23
REMARK SMILES IDX 3 24 1 25 35 26 36 27 43 28 38 29 42 30 39 32 40 33 41 34
REMARK SMILES IDX 37 35 24 37 25 38 26 39 27 40 28 41 29 42 34 43 30 44 33 45
REMARK SMILES IDX 31 46 32 47
REMARK H PARENT 37 36 32 48
REMARK Flexibility Score: 90.00
ROOT
ATOM      1  C   UNL     1      96.488  79.362  85.552  1.00  0.00     0.264 C 
ENDROOT
BRANCH   1   2
ATOM      2  C   UNL     1      95.296  80.284  85.662  1.00  0.00    -0.033 C 
ATOM      3  C   UNL     1      94.053  79.769  85.566  1.00  0.00    -0.015 C 
BRANCH   3   4
ATOM      4  C   UNL     1      92.710  80.481  85.567  1.00  0.00     0.078 C 
ATOM      5  O   UNL     1      91.936  80.556  87.915  1.00  0.00    -0.319 OA
ATOM      6  C   UNL     1      92.350  81.398  86.794  1.00  0.00     0.095 CG0
ATOM      7  C   UNL     1      91.065  79.461  87.573  1.00  0.00     0.289 C 
ATOM      8  C   UNL     1      91.141  82.325  86.362  1.00  0.00     0.023 C 
ATOM      9  G   UNL     1      93.612  82.145  87.316  1.00  0.00     0.000 G0
ATOM     10  O   UNL     1      91.662  78.608  86.600  1.00  0.00    -0.320 OA
ATOM     11  O   UNL     1      89.838  79.903  86.996  1.00  0.00    -0.313 OA
ATOM     12  C   UNL     1      91.565  79.447  85.438  1.00  0.00     0.170 C 
ATOM     13  C   UNL     1      90.190  81.598  85.362  1.00  0.00     0.049 C 
ATOM     14  C   UNL     1      90.312  82.914  87.517  1.00  0.00     0.011 C 
ATOM     15  C   UNL     1      90.165  80.087  85.603  1.00  0.00     0.122 C 
BRANCH   7  16
ATOM     16  C   UNL     1      90.773  78.674  88.835  1.00  0.00     0.135 C 
BRANCH  16  17
ATOM     17  C   UNL     1      90.236  79.551  89.938  1.00  0.00    -0.040 A 
ATOM     18  C   UNL     1      89.038  80.242  89.759  1.00  0.00     0.004 A 
ATOM     19  C   UNL     1      90.938  79.671  91.137  1.00  0.00     0.004 A 
ATOM     20  C   UNL     1      88.541  81.053  90.780  1.00  0.00     0.000 A 
ATOM     21  C   UNL     1      90.441  80.482  92.158  1.00  0.00     0.000 A 
ATOM     22  C   UNL     1      89.243  81.173  91.979  1.00  0.00     0.000 A 
ENDBRANCH  16  17
ENDBRANCH   7  16
BRANCH  15  23
ATOM     23  C   UNL     1      89.129  79.393  84.781  1.00  0.00    -0.046 C 
ATOM     24  C   UNL     1      88.019  80.251  84.252  1.00  0.00     0.042 C 
ATOM     25  C   UNL     1      89.188  78.076  84.531  1.00  0.00     0.010 C 
ENDBRANCH  15  23
ENDBRANCH   3   4
BRANCH   2  26
ATOM     26  C   UNL     1      95.683  81.734  85.883  1.00  0.00     0.078 C 
BRANCH  26  27
ATOM     27  C   UNL     1      94.561  82.711  86.228  1.00  0.00     0.140 C 
ATOM     28  C   UNL     1      93.607  82.148  87.301  1.00  0.00     0.086 CG0
ATOM     29  C   UNL     1      95.075  83.977  86.882  1.00  0.00     0.190 C 
ATOM     30  C   UNL     1      93.439  83.296  88.257  1.00  0.00    -0.010 C 
ATOM     31  G   UNL     1      92.346  81.403  86.774  1.00  0.00     0.000 G0
ATOM     32  O   UNL     1      96.001  84.660  86.471  1.00  0.00    -0.291 OA
ATOM     33  C   UNL     1      94.268  84.326  88.066  1.00  0.00    -0.008 C 
ATOM     34  C   UNL     1      94.440  85.567  88.849  1.00  0.00     0.048 C 
BRANCH  27  35
ATOM     35  O   UNL     1      93.902  83.176  85.062  1.00  0.00    -0.381 OA
ATOM     36  H   UNL     1      94.575  83.488  84.433  1.00  0.00     0.212 HD
ENDBRANCH  27  35
ENDBRANCH  26  27
ENDBRANCH   2  26
ENDBRANCH   1   2
BRANCH   1  37
ATOM     37  O   UNL     1      96.619  78.925  84.215  1.00  0.00    -0.461 OA
BRANCH  37  38
ATOM     38  C   UNL     1      97.842  79.140  83.623  1.00  0.00     0.310 C 
ATOM     39  O   UNL     1      98.906  78.692  84.026  1.00  0.00    -0.252 OA
BRANCH  38  40
ATOM     40  C   UNL     1      97.664  80.011  82.402  1.00  0.00     0.158 C 
BRANCH  40  41
ATOM     41  C   UNL     1      97.500  81.470  82.741  1.00  0.00    -0.037 A 
ATOM     42  C   UNL     1      98.349  82.070  83.671  1.00  0.00     0.008 A 
ATOM     43  C   UNL     1      96.501  82.222  82.124  1.00  0.00     0.008 A 
ATOM     44  C   UNL     1      98.197  83.421  83.985  1.00  0.00     0.046 A 
ATOM     45  C   UNL     1      96.349  83.573  82.437  1.00  0.00     0.046 A 
ATOM     46  C   UNL     1      97.197  84.172  83.368  1.00  0.00     0.115 A 
BRANCH  46  47
ATOM     47  O   UNL     1      97.049  85.490  83.675  1.00  0.00    -0.508 OA
ATOM     48  H   UNL     1      97.609  86.018  83.079  1.00  0.00     0.293 HD
ENDBRANCH  46  47
ENDBRANCH  40  41
ENDBRANCH  38  40
ENDBRANCH  37  38
ENDBRANCH   1  37
TORSDOF 10
ENDMDL
MODEL 9
REMARK VINA RESULT:    -5.660     11.306     13.664
REMARK INTER + INTRA:         -11.462
REMARK INTER:                  -9.045
REMARK INTRA:                  -2.417
REMARK UNBOUND:                -1.831
REMARK SMILES C=C(C)[C@]12C[C@@H](C)[C@@]34O[C@](Cc5ccccc5)(O[C@@H]1[C@@H]3C=C(COC(=O)Cc1ccc(O)cc1)C[C@]1(O)C(=O)C(C)=C[C@@H]41)O2
REMARK SMILES IDX 23 1 22 2 21 3 20 4 9 5 8 6 10 7 6 8 18 10 44 11 19 12 5 13
REMARK SMILES IDX 7 14 4 15 11 16 12 17 13 18 17 19 14 20 16 21 15 22 2 23
REMARK SMILES IDX 3 24 1 25 35 26 36 27 43 28 38 29 42 30 39 32 40 33 41 34
REMARK SMILES IDX 37 35 24 37 25 38 26 39 27 40 28 41 29 42 34 43 30 44 33 45
REMARK SMILES IDX 31 46 32 47
REMARK H PARENT 37 36 32 48
REMARK Flexibility Score: 90.00
ROOT
ATOM      1  C   UNL     1      74.498  90.260  64.921  1.00  0.00     0.264 C 
ENDROOT
BRANCH   1   2
ATOM      2  C   UNL     1      73.278  89.843  65.710  1.00  0.00    -0.033 C 
ATOM      3  C   UNL     1      72.917  88.543  65.727  1.00  0.00    -0.015 C 
BRANCH   3   4
ATOM      4  C   UNL     1      71.707  87.886  66.371  1.00  0.00     0.078 C 
ATOM      5  O   UNL     1      72.397  87.166  68.634  1.00  0.00    -0.319 OA
ATOM      6  C   UNL     1      71.493  88.065  67.919  1.00  0.00     0.095 CG0
ATOM      7  C   UNL     1      72.505  85.838  68.086  1.00  0.00     0.289 C 
ATOM      8  C   UNL     1      69.994  87.669  68.245  1.00  0.00     0.023 C 
ATOM      9  G   UNL     1      71.922  89.490  68.375  1.00  0.00     0.000 G0
ATOM     10  O   UNL     1      72.929  85.872  66.726  1.00  0.00    -0.320 OA
ATOM     11  O   UNL     1      71.256  85.150  68.083  1.00  0.00    -0.313 OA
ATOM     12  C   UNL     1      71.731  86.361  66.102  1.00  0.00     0.170 C 
ATOM     13  C   UNL     1      69.485  86.534  67.304  1.00  0.00     0.049 C 
ATOM     14  C   UNL     1      69.716  87.282  69.708  1.00  0.00     0.011 C 
ATOM     15  C   UNL     1      70.620  85.605  66.871  1.00  0.00     0.122 C 
BRANCH   7  16
ATOM     16  C   UNL     1      73.507  85.062  68.917  1.00  0.00     0.135 C 
BRANCH  16  17
ATOM     17  C   UNL     1      74.922  85.272  68.440  1.00  0.00    -0.040 A 
ATOM     18  C   UNL     1      75.333  86.533  68.007  1.00  0.00     0.004 A 
ATOM     19  C   UNL     1      75.820  84.205  68.431  1.00  0.00     0.004 A 
ATOM     20  C   UNL     1      76.642  86.727  67.566  1.00  0.00     0.000 A 
ATOM     21  C   UNL     1      77.130  84.400  67.990  1.00  0.00     0.000 A 
ATOM     22  C   UNL     1      77.540  85.660  67.558  1.00  0.00     0.000 A 
ENDBRANCH  16  17
ENDBRANCH   7  16
BRANCH  15  23
ATOM     23  C   UNL     1      70.129  84.411  66.120  1.00  0.00    -0.046 C 
ATOM     24  C   UNL     1      70.454  84.370  64.656  1.00  0.00     0.042 C 
ATOM     25  C   UNL     1      69.437  83.431  66.720  1.00  0.00     0.010 C 
ENDBRANCH  15  23
ENDBRANCH   3   4
BRANCH   2  26
ATOM     26  C   UNL     1      72.599  91.002  66.414  1.00  0.00     0.078 C 
BRANCH  26  27
ATOM     27  C   UNL     1      71.505  90.661  67.424  1.00  0.00     0.140 C 
ATOM     28  C   UNL     1      71.916  89.508  68.363  1.00  0.00     0.086 CG0
ATOM     29  C   UNL     1      71.239  91.792  68.395  1.00  0.00     0.190 C 
ATOM     30  C   UNL     1      71.518  90.006  69.724  1.00  0.00    -0.010 C 
ATOM     31  G   UNL     1      71.492  88.078  67.919  1.00  0.00     0.000 G0
ATOM     32  O   UNL     1      71.060  92.961  68.088  1.00  0.00    -0.291 OA
ATOM     33  C   UNL     1      71.159  91.293  69.781  1.00  0.00    -0.008 C 
ATOM     34  C   UNL     1      70.792  92.128  70.943  1.00  0.00     0.048 C 
BRANCH  27  35
ATOM     35  O   UNL     1      70.255  90.461  66.786  1.00  0.00    -0.381 OA
ATOM     36  H   UNL     1      69.563  90.873  67.331  1.00  0.00     0.212 HD
ENDBRANCH  27  35
ENDBRANCH  26  27
ENDBRANCH   2  26
ENDBRANCH   1   2
BRANCH   1  37
ATOM     37  O   UNL     1      75.658  89.785  65.571  1.00  0.00    -0.461 OA
BRANCH  37  38
ATOM     38  C   UNL     1      76.650  89.288  64.757  1.00  0.00     0.310 C 
ATOM     39  O   UNL     1      77.844  89.518  64.884  1.00  0.00    -0.252 OA
BRANCH  38  40
ATOM     40  C   UNL     1      76.035  88.419  63.686  1.00  0.00     0.158 C 
BRANCH  40  41
ATOM     41  C   UNL     1      76.296  86.950  63.900  1.00  0.00    -0.037 A 
ATOM     42  C   UNL     1      77.592  86.448  63.785  1.00  0.00     0.008 A 
ATOM     43  C   UNL     1      75.241  86.093  64.213  1.00  0.00     0.008 A 
ATOM     44  C   UNL     1      77.833  85.088  63.982  1.00  0.00     0.046 A 
ATOM     45  C   UNL     1      75.482  84.733  64.411  1.00  0.00     0.046 A 
ATOM     46  C   UNL     1      76.778  84.231  64.295  1.00  0.00     0.115 A 
BRANCH  46  47
ATOM     47  O   UNL     1      77.013  82.904  64.487  1.00  0.00    -0.508 OA
ATOM     48  H   UNL     1      77.974  82.760  64.548  1.00  0.00     0.293 HD
ENDBRANCH  46  47
ENDBRANCH  40  41
ENDBRANCH  38  40
ENDBRANCH  37  38
ENDBRANCH   1  37
TORSDOF 10
ENDMDL
MODEL 10
REMARK VINA RESULT:    -5.644     35.300     38.323
REMARK INTER + INTRA:         -11.433
REMARK INTER:                  -9.158
REMARK INTRA:                  -2.275
REMARK UNBOUND:                -1.831
REMARK SMILES C=C(C)[C@]12C[C@@H](C)[C@@]34O[C@](Cc5ccccc5)(O[C@@H]1[C@@H]3C=C(COC(=O)Cc1ccc(O)cc1)C[C@]1(O)C(=O)C(C)=C[C@@H]41)O2
REMARK SMILES IDX 23 1 22 2 21 3 20 4 9 5 8 6 10 7 6 8 18 10 44 11 19 12 5 13
REMARK SMILES IDX 7 14 4 15 11 16 12 17 13 18 17 19 14 20 16 21 15 22 2 23
REMARK SMILES IDX 3 24 1 25 35 26 36 27 43 28 38 29 42 30 39 32 40 33 41 34
REMARK SMILES IDX 37 35 24 37 25 38 26 39 27 40 28 41 29 42 34 43 30 44 33 45
REMARK SMILES IDX 31 46 32 47
REMARK H PARENT 37 36 32 48
REMARK Flexibility Score: 90.00
ROOT
ATOM      1  C   UNL     1      96.537  82.821  81.918  1.00  0.00     0.264 C 
ENDROOT
BRANCH   1   2
ATOM      2  C   UNL     1      97.648  82.451  80.962  1.00  0.00    -0.033 C 
ATOM      3  C   UNL     1      98.718  81.773  81.427  1.00  0.00    -0.015 C 
BRANCH   3   4
ATOM      4  C   UNL     1      99.986  81.354  80.699  1.00  0.00     0.078 C 
ATOM      5  O   UNL     1      99.598  79.070  79.834  1.00  0.00    -0.319 OA
ATOM      6  C   UNL     1      99.850  80.449  79.420  1.00  0.00     0.095 CG0
ATOM      7  C   UNL     1     100.390  78.607  80.945  1.00  0.00     0.289 C 
ATOM      8  C   UNL     1     101.225  80.518  78.636  1.00  0.00     0.023 C 
ATOM      9  G   UNL     1      98.590  80.842  78.595  1.00  0.00     0.000 G0
ATOM     10  O   UNL     1     100.208  79.434  82.091  1.00  0.00    -0.320 OA
ATOM     11  O   UNL     1     101.788  78.639  80.665  1.00  0.00    -0.313 OA
ATOM     12  C   UNL     1     100.928  80.604  81.673  1.00  0.00     0.170 C 
ATOM     13  C   UNL     1     102.432  80.672  79.610  1.00  0.00     0.049 C 
ATOM     14  C   UNL     1     101.495  79.350  77.671  1.00  0.00     0.011 C 
ATOM     15  C   UNL     1     102.161  80.001  80.958  1.00  0.00     0.122 C 
BRANCH   7  16
ATOM     16  C   UNL     1      99.972  77.186  81.266  1.00  0.00     0.135 C 
BRANCH  16  17
ATOM     17  C   UNL     1      99.181  77.104  82.548  1.00  0.00    -0.040 A 
ATOM     18  C   UNL     1      97.810  77.354  82.539  1.00  0.00     0.004 A 
ATOM     19  C   UNL     1      99.823  76.777  83.742  1.00  0.00     0.004 A 
ATOM     20  C   UNL     1      97.078  77.278  83.725  1.00  0.00     0.000 A 
ATOM     21  C   UNL     1      99.092  76.700  84.928  1.00  0.00     0.000 A 
ATOM     22  C   UNL     1      97.720  76.951  84.919  1.00  0.00     0.000 A 
ENDBRANCH  16  17
ENDBRANCH   7  16
BRANCH  15  23
ATOM     23  C   UNL     1     103.367  79.979  81.840  1.00  0.00    -0.046 C 
ATOM     24  C   UNL     1     104.527  79.161  81.355  1.00  0.00     0.042 C 
ATOM     25  C   UNL     1     103.410  80.652  83.000  1.00  0.00     0.010 C 
ENDBRANCH  15  23
ENDBRANCH   3   4
BRANCH   2  26
ATOM     26  C   UNL     1      97.389  82.910  79.540  1.00  0.00     0.078 C 
BRANCH  26  27
ATOM     27  C   UNL     1      98.323  82.381  78.454  1.00  0.00     0.140 C 
ATOM     28  C   UNL     1      98.579  80.865  78.592  1.00  0.00     0.086 CG0
ATOM     29  C   UNL     1      97.720  82.483  77.069  1.00  0.00     0.190 C 
ATOM     30  C   UNL     1      98.413  80.353  77.188  1.00  0.00    -0.010 C 
ATOM     31  G   UNL     1      99.837  80.454  79.411  1.00  0.00     0.000 G0
ATOM     32  O   UNL     1      97.190  83.480  76.600  1.00  0.00    -0.291 OA
ATOM     33  C   UNL     1      97.906  81.229  76.316  1.00  0.00    -0.008 C 
ATOM     34  C   UNL     1      97.536  81.052  74.896  1.00  0.00     0.048 C 
BRANCH  27  35
ATOM     35  O   UNL     1      99.507  83.155  78.366  1.00  0.00    -0.381 OA
ATOM     36  H   UNL     1      99.881  83.247  79.259  1.00  0.00     0.212 HD
ENDBRANCH  27  35
ENDBRANCH  26  27
ENDBRANCH   2  26
ENDBRANCH   1   2
BRANCH   1  37
ATOM     37  O   UNL     1      97.091  83.429  83.065  1.00  0.00    -0.461 OA
BRANCH  37  38
ATOM     38  C   UNL     1      96.433  83.200  84.251  1.00  0.00     0.310 C 
ATOM     39  O   UNL     1      95.686  83.994  84.805  1.00  0.00    -0.252 OA
BRANCH  38  40
ATOM     40  C   UNL     1      96.777  81.821  84.760  1.00  0.00     0.158 C 
BRANCH  40  41
ATOM     41  C   UNL     1      98.203  81.708  85.235  1.00  0.00    -0.037 A 
ATOM     42  C   UNL     1      98.835  82.809  85.812  1.00  0.00     0.008 A 
ATOM     43  C   UNL     1      98.891  80.503  85.097  1.00  0.00     0.008 A 
ATOM     44  C   UNL     1     100.155  82.705  86.251  1.00  0.00     0.046 A 
ATOM     45  C   UNL     1     100.211  80.398  85.536  1.00  0.00     0.046 A 
ATOM     46  C   UNL     1     100.843  81.499  86.112  1.00  0.00     0.115 A 
BRANCH  46  47
ATOM     47  O   UNL     1     102.131  81.398  86.540  1.00  0.00    -0.508 OA
ATOM     48  H   UNL     1     102.397  82.242  86.945  1.00  0.00     0.293 HD
ENDBRANCH  46  47
ENDBRANCH  40  41
ENDBRANCH  38  40
ENDBRANCH  37  38
ENDBRANCH   1  37
TORSDOF 10
ENDMDL
