MODEL 1
REMARK VINA RESULT:    -5.864      0.000      0.000
REMARK INTER + INTRA:         -10.620
REMARK INTER:                  -9.464
REMARK INTRA:                  -1.155
REMARK UNBOUND:                -1.155
REMARK SMILES COc1cc(CNC(=O)CCCCCCC(C)C)ccc1O
REMARK SMILES IDX 11 1 10 2 8 3 7 4 9 6 6 7 5 8 3 9 21 10 4 11 20 12 19 13
REMARK SMILES IDX 2 14 1 15 22 16 12 18 13 19 14 20 15 21 16 22 17 23 18 24
REMARK H PARENT 7 5 22 17
REMARK Flexibility Score: inf
ROOT
ATOM      1  C   UNL     1      93.227  95.255  78.880  1.00  0.00     0.010 C 
ENDROOT
BRANCH   1   2
ATOM      2  C   UNL     1      94.183  94.053  79.116  1.00  0.00     0.100 C 
BRANCH   2   3
ATOM      3  C   UNL     1      94.760  94.023  80.479  1.00  0.00     0.220 C 
ATOM      4  N   UNL     1      95.758  94.887  80.824  1.00  0.00    -0.352 N 
ATOM      5  H   UNL     1      96.075  95.485  80.076  1.00  0.00     0.163 HD
ATOM      6  O   UNL     1      94.295  93.205  81.311  1.00  0.00    -0.275 OA
BRANCH   4   7
ATOM      7  C   UNL     1      96.350  94.988  82.124  1.00  0.00     0.151 C 
BRANCH   7   8
ATOM      8  C   UNL     1      96.249  96.353  82.709  1.00  0.00    -0.025 A 
ATOM      9  C   UNL     1      97.053  98.057  84.291  1.00  0.00     0.160 A 
ATOM     10  C   UNL     1      96.093  98.968  83.800  1.00  0.00     0.157 A 
ATOM     11  C   UNL     1      97.111  96.752  83.756  1.00  0.00     0.056 A 
ATOM     12  C   UNL     1      95.203  98.570  82.786  1.00  0.00     0.050 A 
ATOM     13  C   UNL     1      95.287  97.276  82.236  1.00  0.00     0.009 A 
BRANCH   9  14
ATOM     14  O   UNL     1      97.897  98.421  85.304  1.00  0.00    -0.493 OA
ATOM     15  C   UNL     1      98.956  97.476  85.545  1.00  0.00     0.278 C 
ENDBRANCH   9  14
BRANCH  10  16
ATOM     16  O   UNL     1      96.013 100.230  84.298  1.00  0.00    -0.504 OA
ATOM     17  H   UNL     1      96.335 100.853  83.642  1.00  0.00     0.293 HD
ENDBRANCH  10  16
ENDBRANCH   7   8
ENDBRANCH   4   7
ENDBRANCH   2   3
ENDBRANCH   1   2
BRANCH   1  18
ATOM     18  C   UNL     1      93.338  95.818  77.435  1.00  0.00     0.001 C 
BRANCH  18  19
ATOM     19  C   UNL     1      91.973  96.232  76.817  1.00  0.00     0.000 C 
BRANCH  19  20
ATOM     20  C   UNL     1      90.796  95.961  77.797  1.00  0.00     0.000 C 
BRANCH  20  21
ATOM     21  C   UNL     1      89.589  95.223  77.154  1.00  0.00     0.003 C 
BRANCH  21  22
ATOM     22  C   UNL     1      89.631  93.666  77.291  1.00  0.00    -0.017 C 
ATOM     23  C   UNL     1      90.110  93.258  78.713  1.00  0.00     0.007 C 
ATOM     24  C   UNL     1      90.496  92.966  76.202  1.00  0.00     0.007 C 
ENDBRANCH  21  22
ENDBRANCH  20  21
ENDBRANCH  19  20
ENDBRANCH  18  19
ENDBRANCH   1  18
TORSDOF 11
ENDMDL
MODEL 2
REMARK VINA RESULT:    -5.704     23.128     26.682
REMARK INTER + INTRA:         -10.360
REMARK INTER:                  -9.319
REMARK INTRA:                  -1.042
REMARK UNBOUND:                -1.155
REMARK SMILES COc1cc(CNC(=O)CCCCCCC(C)C)ccc1O
REMARK SMILES IDX 11 1 10 2 8 3 7 4 9 6 6 7 5 8 3 9 21 10 4 11 20 12 19 13
REMARK SMILES IDX 2 14 1 15 22 16 12 18 13 19 14 20 15 21 16 22 17 23 18 24
REMARK H PARENT 7 5 22 17
REMARK Flexibility Score: inf
ROOT
ATOM      1  C   UNL     1      75.119  81.360  63.563  1.00  0.00     0.010 C 
ENDROOT
BRANCH   1   2
ATOM      2  C   UNL     1      75.865  81.457  64.923  1.00  0.00     0.100 C 
BRANCH   2   3
ATOM      3  C   UNL     1      76.758  82.634  65.016  1.00  0.00     0.220 C 
ATOM      4  N   UNL     1      77.527  82.829  66.126  1.00  0.00    -0.352 N 
ATOM      5  H   UNL     1      77.393  82.145  66.857  1.00  0.00     0.163 HD
ATOM      6  O   UNL     1      76.809  83.429  64.046  1.00  0.00    -0.275 OA
BRANCH   4   7
ATOM      7  C   UNL     1      78.466  83.895  66.304  1.00  0.00     0.151 C 
BRANCH   7   8
ATOM      8  C   UNL     1      78.013  84.920  67.284  1.00  0.00    -0.025 A 
ATOM      9  C   UNL     1      77.397  85.543  69.582  1.00  0.00     0.160 A 
ATOM     10  C   UNL     1      77.191  86.877  69.167  1.00  0.00     0.157 A 
ATOM     11  C   UNL     1      77.788  84.573  68.636  1.00  0.00     0.056 A 
ATOM     12  C   UNL     1      77.373  87.226  67.817  1.00  0.00     0.050 A 
ATOM     13  C   UNL     1      77.792  86.258  66.883  1.00  0.00     0.009 A 
BRANCH   9  14
ATOM     14  O   UNL     1      77.184  85.185  70.885  1.00  0.00    -0.493 OA
ATOM     15  C   UNL     1      76.114  84.238  71.058  1.00  0.00     0.278 C 
ENDBRANCH   9  14
BRANCH  10  16
ATOM     16  O   UNL     1      76.813  87.833  70.056  1.00  0.00    -0.504 OA
ATOM     17  H   UNL     1      75.858  87.818  70.154  1.00  0.00     0.293 HD
ENDBRANCH  10  16
ENDBRANCH   7   8
ENDBRANCH   4   7
ENDBRANCH   2   3
ENDBRANCH   1   2
BRANCH   1  18
ATOM     18  C   UNL     1      73.883  80.418  63.639  1.00  0.00     0.001 C 
BRANCH  18  19
ATOM     19  C   UNL     1      72.618  80.987  62.938  1.00  0.00     0.000 C 
BRANCH  19  20
ATOM     20  C   UNL     1      71.729  81.791  63.927  1.00  0.00     0.000 C 
BRANCH  20  21
ATOM     21  C   UNL     1      71.868  81.350  65.411  1.00  0.00     0.003 C 
BRANCH  21  22
ATOM     22  C   UNL     1      71.836  82.524  66.444  1.00  0.00    -0.017 C 
ATOM     23  C   UNL     1      70.497  82.519  67.232  1.00  0.00     0.007 C 
ATOM     24  C   UNL     1      72.090  83.923  65.808  1.00  0.00     0.007 C 
ENDBRANCH  21  22
ENDBRANCH  20  21
ENDBRANCH  19  20
ENDBRANCH  18  19
ENDBRANCH   1  18
TORSDOF 11
ENDMDL
MODEL 3
REMARK VINA RESULT:    -5.676     23.456     27.491
REMARK INTER + INTRA:         -10.315
REMARK INTER:                  -9.256
REMARK INTRA:                  -1.060
REMARK UNBOUND:                -1.155
REMARK SMILES COc1cc(CNC(=O)CCCCCCC(C)C)ccc1O
REMARK SMILES IDX 11 1 10 2 8 3 7 4 9 6 6 7 5 8 3 9 21 10 4 11 20 12 19 13
REMARK SMILES IDX 2 14 1 15 22 16 12 18 13 19 14 20 15 21 16 22 17 23 18 24
REMARK H PARENT 7 5 22 17
REMARK Flexibility Score: inf
ROOT
ATOM      1  C   UNL     1      78.232  84.446  68.396  1.00  0.00     0.010 C 
ENDROOT
BRANCH   1   2
ATOM      2  C   UNL     1      77.779  85.001  67.018  1.00  0.00     0.100 C 
BRANCH   2   3
ATOM      3  C   UNL     1      77.607  83.949  65.991  1.00  0.00     0.220 C 
ATOM      4  N   UNL     1      77.421  82.649  66.360  1.00  0.00    -0.352 N 
ATOM      5  H   UNL     1      77.458  82.485  67.356  1.00  0.00     0.163 HD
ATOM      6  O   UNL     1      77.611  84.283  64.781  1.00  0.00    -0.275 OA
BRANCH   4   7
ATOM      7  C   UNL     1      77.187  81.560  65.462  1.00  0.00     0.151 C 
BRANCH   7   8
ATOM      8  C   UNL     1      75.768  81.457  65.022  1.00  0.00    -0.025 A 
ATOM      9  C   UNL     1      73.367  81.665  65.510  1.00  0.00     0.160 A 
ATOM     10  C   UNL     1      73.063  81.305  64.179  1.00  0.00     0.157 A 
ATOM     11  C   UNL     1      74.714  81.719  65.926  1.00  0.00     0.056 A 
ATOM     12  C   UNL     1      74.102  81.003  63.280  1.00  0.00     0.050 A 
ATOM     13  C   UNL     1      75.446  81.088  63.694  1.00  0.00     0.009 A 
BRANCH   9  14
ATOM     14  O   UNL     1      72.362  81.922  66.403  1.00  0.00    -0.493 OA
ATOM     15  C   UNL     1      72.150  83.324  66.648  1.00  0.00     0.278 C 
ENDBRANCH   9  14
BRANCH  10  16
ATOM     16  O   UNL     1      71.774  81.242  63.751  1.00  0.00    -0.504 OA
ATOM     17  H   UNL     1      71.489  82.115  63.469  1.00  0.00     0.293 HD
ENDBRANCH  10  16
ENDBRANCH   7   8
ENDBRANCH   4   7
ENDBRANCH   2   3
ENDBRANCH   1   2
BRANCH   1  18
ATOM     18  C   UNL     1      77.889  85.416  69.562  1.00  0.00     0.001 C 
BRANCH  18  19
ATOM     19  C   UNL     1      76.597  85.032  70.337  1.00  0.00     0.000 C 
BRANCH  19  20
ATOM     20  C   UNL     1      75.344  85.740  69.749  1.00  0.00     0.000 C 
BRANCH  20  21
ATOM     21  C   UNL     1      74.895  87.000  70.539  1.00  0.00     0.003 C 
BRANCH  21  22
ATOM     22  C   UNL     1      75.017  88.343  69.747  1.00  0.00    -0.017 C 
ATOM     23  C   UNL     1      75.732  88.108  68.387  1.00  0.00     0.007 C 
ATOM     24  C   UNL     1      75.723  89.478  70.545  1.00  0.00     0.007 C 
ENDBRANCH  21  22
ENDBRANCH  20  21
ENDBRANCH  19  20
ENDBRANCH  18  19
ENDBRANCH   1  18
TORSDOF 11
ENDMDL
MODEL 4
REMARK VINA RESULT:    -5.372     12.876     15.152
REMARK INTER + INTRA:          -9.825
REMARK INTER:                  -9.342
REMARK INTRA:                  -0.483
REMARK UNBOUND:                -1.155
REMARK SMILES COc1cc(CNC(=O)CCCCCCC(C)C)ccc1O
REMARK SMILES IDX 11 1 10 2 8 3 7 4 9 6 6 7 5 8 3 9 21 10 4 11 20 12 19 13
REMARK SMILES IDX 2 14 1 15 22 16 12 18 13 19 14 20 15 21 16 22 17 23 18 24
REMARK H PARENT 7 5 22 17
REMARK Flexibility Score: inf
ROOT
ATOM      1  C   UNL     1      97.793  82.314  83.792  1.00  0.00     0.010 C 
ENDROOT
BRANCH   1   2
ATOM      2  C   UNL     1      97.309  83.722  84.236  1.00  0.00     0.100 C 
BRANCH   2   3
ATOM      3  C   UNL     1      96.844  83.766  85.640  1.00  0.00     0.220 C 
ATOM      4  N   UNL     1      95.537  83.514  85.941  1.00  0.00    -0.352 N 
ATOM      5  H   UNL     1      94.945  83.348  85.141  1.00  0.00     0.163 HD
ATOM      6  O   UNL     1      97.680  84.015  86.543  1.00  0.00    -0.275 OA
BRANCH   4   7
ATOM      7  C   UNL     1      94.987  83.470  87.262  1.00  0.00     0.151 C 
BRANCH   7   8
ATOM      8  C   UNL     1      93.558  83.057  87.289  1.00  0.00    -0.025 A 
ATOM      9  C   UNL     1      91.767  81.535  86.564  1.00  0.00     0.160 A 
ATOM     10  C   UNL     1      90.843  82.235  87.369  1.00  0.00     0.157 A 
ATOM     11  C   UNL     1      93.111  81.962  86.515  1.00  0.00     0.056 A 
ATOM     12  C   UNL     1      91.267  83.350  88.114  1.00  0.00     0.050 A 
ATOM     13  C   UNL     1      92.616  83.753  88.084  1.00  0.00     0.009 A 
BRANCH   9  14
ATOM     14  O   UNL     1      91.357  80.473  85.805  1.00  0.00    -0.493 OA
ATOM     15  C   UNL     1      91.666  79.192  86.384  1.00  0.00     0.278 C 
ENDBRANCH   9  14
BRANCH  10  16
ATOM     16  O   UNL     1      89.542  81.847  87.434  1.00  0.00    -0.504 OA
ATOM     17  H   UNL     1      89.021  82.374  86.824  1.00  0.00     0.293 HD
ENDBRANCH  10  16
ENDBRANCH   7   8
ENDBRANCH   4   7
ENDBRANCH   2   3
ENDBRANCH   1   2
BRANCH   1  18
ATOM     18  C   UNL     1      98.828  82.386  82.634  1.00  0.00     0.001 C 
BRANCH  18  19
ATOM     19  C   UNL     1      98.400  83.323  81.469  1.00  0.00     0.000 C 
BRANCH  19  20
ATOM     20  C   UNL     1      98.458  82.594  80.098  1.00  0.00     0.000 C 
BRANCH  20  21
ATOM     21  C   UNL     1      97.554  83.224  79.002  1.00  0.00     0.003 C 
BRANCH  21  22
ATOM     22  C   UNL     1      98.304  83.620  77.688  1.00  0.00    -0.017 C 
ATOM     23  C   UNL     1      97.566  84.785  76.970  1.00  0.00     0.007 C 
ATOM     24  C   UNL     1      98.523  82.428  76.710  1.00  0.00     0.007 C 
ENDBRANCH  21  22
ENDBRANCH  20  21
ENDBRANCH  19  20
ENDBRANCH  18  19
ENDBRANCH   1  18
TORSDOF 11
ENDMDL
MODEL 5
REMARK VINA RESULT:    -5.360     24.209     28.344
REMARK INTER + INTRA:          -9.806
REMARK INTER:                  -8.578
REMARK INTRA:                  -1.228
REMARK UNBOUND:                -1.155
REMARK SMILES COc1cc(CNC(=O)CCCCCCC(C)C)ccc1O
REMARK SMILES IDX 11 1 10 2 8 3 7 4 9 6 6 7 5 8 3 9 21 10 4 11 20 12 19 13
REMARK SMILES IDX 2 14 1 15 22 16 12 18 13 19 14 20 15 21 16 22 17 23 18 24
REMARK H PARENT 7 5 22 17
REMARK Flexibility Score: inf
ROOT
ATOM      1  C   UNL     1      77.000  82.536  65.470  1.00  0.00     0.010 C 
ENDROOT
BRANCH   1   2
ATOM      2  C   UNL     1      76.079  81.288  65.374  1.00  0.00     0.100 C 
BRANCH   2   3
ATOM      3  C   UNL     1      74.681  81.619  65.017  1.00  0.00     0.220 C 
ATOM      4  N   UNL     1      73.676  81.424  65.918  1.00  0.00    -0.352 N 
ATOM      5  H   UNL     1      73.967  81.009  66.791  1.00  0.00     0.163 HD
ATOM      6  O   UNL     1      74.449  82.102  63.882  1.00  0.00    -0.275 OA
BRANCH   4   7
ATOM      7  C   UNL     1      72.300  81.760  65.706  1.00  0.00     0.151 C 
BRANCH   7   8
ATOM      8  C   UNL     1      71.782  82.756  66.683  1.00  0.00    -0.025 A 
ATOM      9  C   UNL     1      70.024  83.506  68.230  1.00  0.00     0.160 A 
ATOM     10  C   UNL     1      70.807  84.627  68.581  1.00  0.00     0.157 A 
ATOM     11  C   UNL     1      70.508  82.591  67.272  1.00  0.00     0.056 A 
ATOM     12  C   UNL     1      72.060  84.824  67.972  1.00  0.00     0.050 A 
ATOM     13  C   UNL     1      72.550  83.890  67.038  1.00  0.00     0.009 A 
BRANCH   9  14
ATOM     14  O   UNL     1      68.786  83.326  68.787  1.00  0.00    -0.493 OA
ATOM     15  C   UNL     1      67.705  83.792  67.959  1.00  0.00     0.278 C 
ENDBRANCH   9  14
BRANCH  10  16
ATOM     16  O   UNL     1      70.364  85.526  69.499  1.00  0.00    -0.504 OA
ATOM     17  H   UNL     1      70.130  86.346  69.057  1.00  0.00     0.293 HD
ENDBRANCH  10  16
ENDBRANCH   7   8
ENDBRANCH   4   7
ENDBRANCH   2   3
ENDBRANCH   1   2
BRANCH   1  18
ATOM     18  C   UNL     1      76.863  83.263  66.838  1.00  0.00     0.001 C 
BRANCH  18  19
ATOM     19  C   UNL     1      78.189  83.893  67.348  1.00  0.00     0.000 C 
BRANCH  19  20
ATOM     20  C   UNL     1      77.975  85.352  67.843  1.00  0.00     0.000 C 
BRANCH  20  21
ATOM     21  C   UNL     1      78.073  85.523  69.384  1.00  0.00     0.003 C 
BRANCH  21  22
ATOM     22  C   UNL     1      76.696  85.519  70.127  1.00  0.00    -0.017 C 
ATOM     23  C   UNL     1      76.492  84.178  70.886  1.00  0.00     0.007 C 
ATOM     24  C   UNL     1      75.482  85.809  69.195  1.00  0.00     0.007 C 
ENDBRANCH  21  22
ENDBRANCH  20  21
ENDBRANCH  19  20
ENDBRANCH  18  19
ENDBRANCH   1  18
TORSDOF 11
ENDMDL
MODEL 6
REMARK VINA RESULT:    -5.358     12.828     14.908
REMARK INTER + INTRA:          -9.803
REMARK INTER:                  -8.993
REMARK INTRA:                  -0.811
REMARK UNBOUND:                -1.155
REMARK SMILES COc1cc(CNC(=O)CCCCCCC(C)C)ccc1O
REMARK SMILES IDX 11 1 10 2 8 3 7 4 9 6 6 7 5 8 3 9 21 10 4 11 20 12 19 13
REMARK SMILES IDX 2 14 1 15 22 16 12 18 13 19 14 20 15 21 16 22 17 23 18 24
REMARK H PARENT 7 5 22 17
REMARK Flexibility Score: inf
ROOT
ATOM      1  C   UNL     1      97.071  84.730  84.744  1.00  0.00     0.010 C 
ENDROOT
BRANCH   1   2
ATOM      2  C   UNL     1      97.571  83.289  85.040  1.00  0.00     0.100 C 
BRANCH   2   3
ATOM      3  C   UNL     1      98.566  82.801  84.058  1.00  0.00     0.220 C 
ATOM      4  N   UNL     1      98.437  83.111  82.735  1.00  0.00    -0.352 N 
ATOM      5  H   UNL     1      97.609  83.641  82.506  1.00  0.00     0.163 HD
ATOM      6  O   UNL     1      99.537  82.122  84.472  1.00  0.00    -0.275 OA
BRANCH   4   7
ATOM      7  C   UNL     1      99.364  82.746  81.707  1.00  0.00     0.151 C 
BRANCH   7   8
ATOM      8  C   UNL     1      98.862  83.035  80.336  1.00  0.00    -0.025 A 
ATOM      9  C   UNL     1      99.243  83.145  77.909  1.00  0.00     0.160 A 
ATOM     10  C   UNL     1      97.902  83.543  77.714  1.00  0.00     0.157 A 
ATOM     11  C   UNL     1      99.717  82.913  79.217  1.00  0.00     0.056 A 
ATOM     12  C   UNL     1      97.053  83.706  78.823  1.00  0.00     0.050 A 
ATOM     13  C   UNL     1      97.525  83.444  80.124  1.00  0.00     0.009 A 
BRANCH   9  14
ATOM     14  O   UNL     1     100.089  83.022  76.840  1.00  0.00    -0.493 OA
ATOM     15  C   UNL     1     101.378  83.628  77.047  1.00  0.00     0.278 C 
ENDBRANCH   9  14
BRANCH  10  16
ATOM     16  O   UNL     1      97.419  83.775  76.465  1.00  0.00    -0.504 OA
ATOM     17  H   UNL     1      98.152  83.873  75.852  1.00  0.00     0.293 HD
ENDBRANCH  10  16
ENDBRANCH   7   8
ENDBRANCH   4   7
ENDBRANCH   2   3
ENDBRANCH   1   2
BRANCH   1  18
ATOM     18  C   UNL     1      96.532  85.438  86.020  1.00  0.00     0.001 C 
BRANCH  18  19
ATOM     19  C   UNL     1      96.374  84.490  87.242  1.00  0.00     0.000 C 
BRANCH  19  20
ATOM     20  C   UNL     1      95.262  84.987  88.210  1.00  0.00     0.000 C 
BRANCH  20  21
ATOM     21  C   UNL     1      93.823  84.884  87.633  1.00  0.00     0.003 C 
BRANCH  21  22
ATOM     22  C   UNL     1      93.080  83.550  87.973  1.00  0.00    -0.017 C 
ATOM     23  C   UNL     1      93.512  83.028  89.372  1.00  0.00     0.007 C 
ATOM     24  C   UNL     1      93.263  82.441  86.896  1.00  0.00     0.007 C 
ENDBRANCH  21  22
ENDBRANCH  20  21
ENDBRANCH  19  20
ENDBRANCH  18  19
ENDBRANCH   1  18
TORSDOF 11
ENDMDL
MODEL 7
REMARK VINA RESULT:    -5.353      1.334      2.270
REMARK INTER + INTRA:          -9.794
REMARK INTER:                  -8.829
REMARK INTRA:                  -0.965
REMARK UNBOUND:                -1.155
REMARK SMILES COc1cc(CNC(=O)CCCCCCC(C)C)ccc1O
REMARK SMILES IDX 11 1 10 2 8 3 7 4 9 6 6 7 5 8 3 9 21 10 4 11 20 12 19 13
REMARK SMILES IDX 2 14 1 15 22 16 12 18 13 19 14 20 15 21 16 22 17 23 18 24
REMARK H PARENT 7 5 22 17
REMARK Flexibility Score: inf
ROOT
ATOM      1  C   UNL     1      93.986  93.903  79.023  1.00  0.00     0.010 C 
ENDROOT
BRANCH   1   2
ATOM      2  C   UNL     1      95.440  93.884  79.572  1.00  0.00     0.100 C 
BRANCH   2   3
ATOM      3  C   UNL     1      95.521  94.161  81.023  1.00  0.00     0.220 C 
ATOM      4  N   UNL     1      96.208  95.247  81.481  1.00  0.00    -0.352 N 
ATOM      5  H   UNL     1      96.670  95.786  80.763  1.00  0.00     0.163 HD
ATOM      6  O   UNL     1      94.925  93.391  81.816  1.00  0.00    -0.275 OA
BRANCH   4   7
ATOM      7  C   UNL     1      96.306  95.645  82.852  1.00  0.00     0.151 C 
BRANCH   7   8
ATOM      8  C   UNL     1      96.203  97.118  83.044  1.00  0.00    -0.025 A 
ATOM      9  C   UNL     1      95.842  99.366  82.114  1.00  0.00     0.160 A 
ATOM     10  C   UNL     1      95.962  99.922  83.407  1.00  0.00     0.157 A 
ATOM     11  C   UNL     1      95.982  97.974  81.940  1.00  0.00     0.056 A 
ATOM     12  C   UNL     1      96.221  99.086  84.507  1.00  0.00     0.050 A 
ATOM     13  C   UNL     1      96.331  97.693  84.330  1.00  0.00     0.009 A 
BRANCH   9  14
ATOM     14  O   UNL     1      95.630 100.175  81.031  1.00  0.00    -0.493 OA
ATOM     15  C   UNL     1      96.366  99.781  79.859  1.00  0.00     0.278 C 
ENDBRANCH   9  14
BRANCH  10  16
ATOM     16  O   UNL     1      95.834 101.261  83.604  1.00  0.00    -0.504 OA
ATOM     17  H   UNL     1      94.909 101.507  83.530  1.00  0.00     0.293 HD
ENDBRANCH  10  16
ENDBRANCH   7   8
ENDBRANCH   4   7
ENDBRANCH   2   3
ENDBRANCH   1   2
BRANCH   1  18
ATOM     18  C   UNL     1      93.873  94.696  77.690  1.00  0.00     0.001 C 
BRANCH  18  19
ATOM     19  C   UNL     1      92.954  95.947  77.782  1.00  0.00     0.000 C 
BRANCH  19  20
ATOM     20  C   UNL     1      91.735  95.833  76.824  1.00  0.00     0.000 C 
BRANCH  20  21
ATOM     21  C   UNL     1      90.364  95.728  77.547  1.00  0.00     0.003 C 
BRANCH  21  22
ATOM     22  C   UNL     1      89.699  94.314  77.479  1.00  0.00    -0.017 C 
ATOM     23  C   UNL     1      90.223  93.410  78.630  1.00  0.00     0.007 C 
ATOM     24  C   UNL     1      89.879  93.604  76.104  1.00  0.00     0.007 C 
ENDBRANCH  21  22
ENDBRANCH  20  21
ENDBRANCH  19  20
ENDBRANCH  18  19
ENDBRANCH   1  18
TORSDOF 11
ENDMDL
MODEL 8
REMARK VINA RESULT:    -5.258     23.347     26.615
REMARK INTER + INTRA:          -9.641
REMARK INTER:                  -8.842
REMARK INTRA:                  -0.799
REMARK UNBOUND:                -1.155
REMARK SMILES COc1cc(CNC(=O)CCCCCCC(C)C)ccc1O
REMARK SMILES IDX 11 1 10 2 8 3 7 4 9 6 6 7 5 8 3 9 21 10 4 11 20 12 19 13
REMARK SMILES IDX 2 14 1 15 22 16 12 18 13 19 14 20 15 21 16 22 17 23 18 24
REMARK H PARENT 7 5 22 17
REMARK Flexibility Score: inf
ROOT
ATOM      1  C   UNL     1      74.705  81.588  65.617  1.00  0.00     0.010 C 
ENDROOT
BRANCH   1   2
ATOM      2  C   UNL     1      76.135  81.462  65.025  1.00  0.00     0.100 C 
BRANCH   2   3
ATOM      3  C   UNL     1      76.967  82.667  65.243  1.00  0.00     0.220 C 
ATOM      4  N   UNL     1      77.693  82.805  66.390  1.00  0.00    -0.352 N 
ATOM      5  H   UNL     1      77.571  82.058  67.058  1.00  0.00     0.163 HD
ATOM      6  O   UNL     1      77.007  83.542  64.343  1.00  0.00    -0.275 OA
BRANCH   4   7
ATOM      7  C   UNL     1      78.573  83.894  66.685  1.00  0.00     0.151 C 
BRANCH   7   8
ATOM      8  C   UNL     1      77.970  84.908  67.593  1.00  0.00    -0.025 A 
ATOM      9  C   UNL     1      76.968  87.126  67.942  1.00  0.00     0.160 A 
ATOM     10  C   UNL     1      76.779  86.828  69.310  1.00  0.00     0.157 A 
ATOM     11  C   UNL     1      77.578  86.173  67.100  1.00  0.00     0.056 A 
ATOM     12  C   UNL     1      77.200  85.587  69.820  1.00  0.00     0.050 A 
ATOM     13  C   UNL     1      77.782  84.629  68.968  1.00  0.00     0.009 A 
BRANCH   9  14
ATOM     14  O   UNL     1      76.598  88.345  67.444  1.00  0.00    -0.493 OA
ATOM     15  C   UNL     1      75.368  88.317  66.697  1.00  0.00     0.278 C 
ENDBRANCH   9  14
BRANCH  10  16
ATOM     16  O   UNL     1      76.195  87.728  70.144  1.00  0.00    -0.504 OA
ATOM     17  H   UNL     1      75.583  87.272  70.727  1.00  0.00     0.293 HD
ENDBRANCH  10  16
ENDBRANCH   7   8
ENDBRANCH   4   7
ENDBRANCH   2   3
ENDBRANCH   1   2
BRANCH   1  18
ATOM     18  C   UNL     1      73.663  80.756  64.816  1.00  0.00     0.001 C 
BRANCH  18  19
ATOM     19  C   UNL     1      72.188  81.163  65.095  1.00  0.00     0.000 C 
BRANCH  19  20
ATOM     20  C   UNL     1      72.079  82.114  66.320  1.00  0.00     0.000 C 
BRANCH  20  21
ATOM     21  C   UNL     1      70.624  82.521  66.683  1.00  0.00     0.003 C 
BRANCH  21  22
ATOM     22  C   UNL     1      70.509  83.535  67.868  1.00  0.00    -0.017 C 
ATOM     23  C   UNL     1      69.614  82.952  68.997  1.00  0.00     0.007 C 
ATOM     24  C   UNL     1      70.000  84.943  67.440  1.00  0.00     0.007 C 
ENDBRANCH  21  22
ENDBRANCH  20  21
ENDBRANCH  19  20
ENDBRANCH  18  19
ENDBRANCH   1  18
TORSDOF 11
ENDMDL
MODEL 9
REMARK VINA RESULT:    -5.255      1.489      2.163
REMARK INTER + INTRA:          -9.636
REMARK INTER:                  -8.695
REMARK INTRA:                  -0.941
REMARK UNBOUND:                -1.155
REMARK SMILES COc1cc(CNC(=O)CCCCCCC(C)C)ccc1O
REMARK SMILES IDX 11 1 10 2 8 3 7 4 9 6 6 7 5 8 3 9 21 10 4 11 20 12 19 13
REMARK SMILES IDX 2 14 1 15 22 16 12 18 13 19 14 20 15 21 16 22 17 23 18 24
REMARK H PARENT 7 5 22 17
REMARK Flexibility Score: inf
ROOT
ATOM      1  C   UNL     1      94.578  94.383  79.781  1.00  0.00     0.010 C 
ENDROOT
BRANCH   1   2
ATOM      2  C   UNL     1      96.056  94.598  80.208  1.00  0.00     0.100 C 
BRANCH   2   3
ATOM      3  C   UNL     1      96.201  95.046  81.611  1.00  0.00     0.220 C 
ATOM      4  N   UNL     1      97.064  96.054  81.927  1.00  0.00    -0.352 N 
ATOM      5  H   UNL     1      97.599  96.410  81.149  1.00  0.00     0.163 HD
ATOM      6  O   UNL     1      95.497  94.497  82.493  1.00  0.00    -0.275 OA
BRANCH   4   7
ATOM      7  C   UNL     1      97.244  96.608  83.235  1.00  0.00     0.151 C 
BRANCH   7   8
ATOM      8  C   UNL     1      96.587  97.932  83.407  1.00  0.00    -0.025 A 
ATOM      9  C   UNL     1      95.978  99.838  84.837  1.00  0.00     0.160 A 
ATOM     10  C   UNL     1      95.374 100.477  83.732  1.00  0.00     0.157 A 
ATOM     11  C   UNL     1      96.562  98.565  84.671  1.00  0.00     0.056 A 
ATOM     12  C   UNL     1      95.358  99.841  82.478  1.00  0.00     0.050 A 
ATOM     13  C   UNL     1      95.969  98.582  82.312  1.00  0.00     0.009 A 
BRANCH   9  14
ATOM     14  O   UNL     1      95.964 100.431  86.071  1.00  0.00    -0.493 OA
ATOM     15  C   UNL     1      97.274 100.730  86.585  1.00  0.00     0.278 C 
ENDBRANCH   9  14
BRANCH  10  16
ATOM     16  O   UNL     1      94.802 101.703  83.864  1.00  0.00    -0.504 OA
ATOM     17  H   UNL     1      95.279 102.208  84.527  1.00  0.00     0.293 HD
ENDBRANCH  10  16
ENDBRANCH   7   8
ENDBRANCH   4   7
ENDBRANCH   2   3
ENDBRANCH   1   2
BRANCH   1  18
ATOM     18  C   UNL     1      93.864  95.722  79.441  1.00  0.00     0.001 C 
BRANCH  18  19
ATOM     19  C   UNL     1      93.120  95.707  78.077  1.00  0.00     0.000 C 
BRANCH  19  20
ATOM     20  C   UNL     1      93.021  94.268  77.495  1.00  0.00     0.000 C 
BRANCH  20  21
ATOM     21  C   UNL     1      91.587  93.851  77.066  1.00  0.00     0.003 C 
BRANCH  21  22
ATOM     22  C   UNL     1      90.458  94.294  78.053  1.00  0.00    -0.017 C 
ATOM     23  C   UNL     1      89.736  93.052  78.646  1.00  0.00     0.007 C 
ATOM     24  C   UNL     1      89.426  95.276  77.423  1.00  0.00     0.007 C 
ENDBRANCH  21  22
ENDBRANCH  20  21
ENDBRANCH  19  20
ENDBRANCH  18  19
ENDBRANCH   1  18
TORSDOF 11
ENDMDL
MODEL 10
REMARK VINA RESULT:    -5.084     23.187     26.368
REMARK INTER + INTRA:          -9.360
REMARK INTER:                  -7.340
REMARK INTRA:                  -2.020
REMARK UNBOUND:                -1.155
REMARK SMILES COc1cc(CNC(=O)CCCCCCC(C)C)ccc1O
REMARK SMILES IDX 11 1 10 2 8 3 7 4 9 6 6 7 5 8 3 9 21 10 4 11 20 12 19 13
REMARK SMILES IDX 2 14 1 15 22 16 12 18 13 19 14 20 15 21 16 22 17 23 18 24
REMARK H PARENT 7 5 22 17
REMARK Flexibility Score: inf
ROOT
ATOM      1  C   UNL     1      76.599  84.728  64.317  1.00  0.00     0.010 C 
ENDROOT
BRANCH   1   2
ATOM      2  C   UNL     1      76.950  86.241  64.299  1.00  0.00     0.100 C 
BRANCH   2   3
ATOM      3  C   UNL     1      76.651  86.926  65.577  1.00  0.00     0.220 C 
ATOM      4  N   UNL     1      75.363  87.224  65.914  1.00  0.00    -0.352 N 
ATOM      5  H   UNL     1      74.678  86.981  65.214  1.00  0.00     0.163 HD
ATOM      6  O   UNL     1      77.602  87.202  66.348  1.00  0.00    -0.275 OA
BRANCH   4   7
ATOM      7  C   UNL     1      74.950  87.830  67.143  1.00  0.00     0.151 C 
BRANCH   7   8
ATOM      8  C   UNL     1      74.013  86.982  67.930  1.00  0.00    -0.025 A 
ATOM      9  C   UNL     1      72.556  85.007  68.095  1.00  0.00     0.160 A 
ATOM     10  C   UNL     1      72.260  85.335  69.436  1.00  0.00     0.157 A 
ATOM     11  C   UNL     1      73.414  85.842  67.347  1.00  0.00     0.056 A 
ATOM     12  C   UNL     1      72.820  86.488  70.014  1.00  0.00     0.050 A 
ATOM     13  C   UNL     1      73.698  87.301  69.272  1.00  0.00     0.009 A 
BRANCH   9  14
ATOM     14  O   UNL     1      71.986  83.909  67.510  1.00  0.00    -0.493 OA
ATOM     15  C   UNL     1      72.744  83.380  66.407  1.00  0.00     0.278 C 
ENDBRANCH   9  14
BRANCH  10  16
ATOM     16  O   UNL     1      71.436  84.550  70.179  1.00  0.00    -0.504 OA
ATOM     17  H   UNL     1      70.586  84.985  70.279  1.00  0.00     0.293 HD
ENDBRANCH  10  16
ENDBRANCH   7   8
ENDBRANCH   4   7
ENDBRANCH   2   3
ENDBRANCH   1   2
BRANCH   1  18
ATOM     18  C   UNL     1      77.642  83.892  65.112  1.00  0.00     0.001 C 
BRANCH  18  19
ATOM     19  C   UNL     1      77.008  82.896  66.124  1.00  0.00     0.000 C 
BRANCH  19  20
ATOM     20  C   UNL     1      76.351  83.639  67.322  1.00  0.00     0.000 C 
BRANCH  20  21
ATOM     21  C   UNL     1      77.361  84.136  68.393  1.00  0.00     0.003 C 
BRANCH  21  22
ATOM     22  C   UNL     1      76.729  85.010  69.526  1.00  0.00    -0.017 C 
ATOM     23  C   UNL     1      77.532  86.329  69.707  1.00  0.00     0.007 C 
ATOM     24  C   UNL     1      76.589  84.265  70.886  1.00  0.00     0.007 C 
ENDBRANCH  21  22
ENDBRANCH  20  21
ENDBRANCH  19  20
ENDBRANCH  18  19
ENDBRANCH   1  18
TORSDOF 11
ENDMDL
