MODEL 1
REMARK VINA RESULT:    -6.017      0.000      0.000
REMARK INTER + INTRA:         -10.344
REMARK INTER:                  -9.710
REMARK INTRA:                  -0.633
REMARK UNBOUND:                -0.633
REMARK SMILES COc1cc(CNC(=O)CCCCCCC(C)C)ccc1O
REMARK SMILES IDX 11 1 10 2 8 3 7 4 9 6 6 7 5 8 3 9 21 10 4 11 20 12 19 13
REMARK SMILES IDX 2 14 1 15 22 16 12 18 13 19 14 20 15 21 16 22 17 23 18 24
REMARK H PARENT 7 5 22 17
REMARK Flexibility Score: inf
ROOT
ATOM      1  C   UNL     1      94.160  99.197  75.875  1.00  0.00     0.010 C 
ENDROOT
BRANCH   1   2
ATOM      2  C   UNL     1      94.181  99.238  74.322  1.00  0.00     0.100 C 
BRANCH   2   3
ATOM      3  C   UNL     1      93.178 100.164  73.748  1.00  0.00     0.220 C 
ATOM      4  N   UNL     1      92.272  99.717  72.832  1.00  0.00    -0.352 N 
ATOM      5  H   UNL     1      92.383  98.750  72.567  1.00  0.00     0.163 HD
ATOM      6  O   UNL     1      93.167 101.357  74.141  1.00  0.00    -0.275 OA
BRANCH   4   7
ATOM      7  C   UNL     1      91.224 100.504  72.254  1.00  0.00     0.151 C 
BRANCH   7   8
ATOM      8  C   UNL     1      90.354  99.731  71.325  1.00  0.00    -0.025 A 
ATOM      9  C   UNL     1      88.890  99.649  69.351  1.00  0.00     0.160 A 
ATOM     10  C   UNL     1      88.730  98.257  69.525  1.00  0.00     0.157 A 
ATOM     11  C   UNL     1      89.685 100.377  70.262  1.00  0.00     0.056 A 
ATOM     12  C   UNL     1      89.360  97.609  70.603  1.00  0.00     0.050 A 
ATOM     13  C   UNL     1      90.175  98.337  71.491  1.00  0.00     0.009 A 
BRANCH   9  14
ATOM     14  O   UNL     1      88.250 100.296  68.329  1.00  0.00    -0.493 OA
ATOM     15  C   UNL     1      89.133 101.044  67.473  1.00  0.00     0.278 C 
ENDBRANCH   9  14
BRANCH  10  16
ATOM     16  O   UNL     1      87.969  97.531  68.664  1.00  0.00    -0.504 OA
ATOM     17  H   UNL     1      87.129  97.975  68.527  1.00  0.00     0.293 HD
ENDBRANCH  10  16
ENDBRANCH   7   8
ENDBRANCH   4   7
ENDBRANCH   2   3
ENDBRANCH   1   2
BRANCH   1  18
ATOM     18  C   UNL     1      94.493  97.782  76.428  1.00  0.00     0.001 C 
BRANCH  18  19
ATOM     19  C   UNL     1      93.767  96.629  75.678  1.00  0.00     0.000 C 
BRANCH  19  20
ATOM     20  C   UNL     1      93.240  95.548  76.664  1.00  0.00     0.000 C 
BRANCH  20  21
ATOM     21  C   UNL     1      91.726  95.671  76.993  1.00  0.00     0.003 C 
BRANCH  21  22
ATOM     22  C   UNL     1      91.269  94.871  78.256  1.00  0.00    -0.017 C 
ATOM     23  C   UNL     1      92.493  94.222  78.961  1.00  0.00     0.007 C 
ATOM     24  C   UNL     1      90.180  93.799  77.958  1.00  0.00     0.007 C 
ENDBRANCH  21  22
ENDBRANCH  20  21
ENDBRANCH  19  20
ENDBRANCH  18  19
ENDBRANCH   1  18
TORSDOF 11
ENDMDL
MODEL 2
REMARK VINA RESULT:    -5.740     19.328     21.987
REMARK INTER + INTRA:          -9.897
REMARK INTER:                  -8.570
REMARK INTRA:                  -1.327
REMARK UNBOUND:                -0.633
REMARK SMILES COc1cc(CNC(=O)CCCCCCC(C)C)ccc1O
REMARK SMILES IDX 11 1 10 2 8 3 7 4 9 6 6 7 5 8 3 9 21 10 4 11 20 12 19 13
REMARK SMILES IDX 2 14 1 15 22 16 12 18 13 19 14 20 15 21 16 22 17 23 18 24
REMARK H PARENT 7 5 22 17
REMARK Flexibility Score: inf
ROOT
ATOM      1  C   UNL     1      77.243  86.554  69.849  1.00  0.00     0.010 C 
ENDROOT
BRANCH   1   2
ATOM      2  C   UNL     1      78.308  85.559  69.308  1.00  0.00     0.100 C 
BRANCH   2   3
ATOM      3  C   UNL     1      78.107  85.204  67.886  1.00  0.00     0.220 C 
ATOM      4  N   UNL     1      78.046  83.895  67.505  1.00  0.00    -0.352 N 
ATOM      5  H   UNL     1      78.192  83.232  68.251  1.00  0.00     0.163 HD
ATOM      6  O   UNL     1      77.970  86.128  67.048  1.00  0.00    -0.275 OA
BRANCH   4   7
ATOM      7  C   UNL     1      77.799  83.433  66.172  1.00  0.00     0.151 C 
BRANCH   7   8
ATOM      8  C   UNL     1      76.468  82.786  66.014  1.00  0.00    -0.025 A 
ATOM      9  C   UNL     1      74.037  82.797  66.384  1.00  0.00     0.160 A 
ATOM     10  C   UNL     1      73.921  81.580  65.677  1.00  0.00     0.157 A 
ATOM     11  C   UNL     1      75.309  83.380  66.563  1.00  0.00     0.056 A 
ATOM     12  C   UNL     1      75.072  80.959  65.160  1.00  0.00     0.050 A 
ATOM     13  C   UNL     1      76.336  81.561  65.317  1.00  0.00     0.009 A 
BRANCH   9  14
ATOM     14  O   UNL     1      72.928  83.390  66.925  1.00  0.00    -0.493 OA
ATOM     15  C   UNL     1      72.427  84.496  66.153  1.00  0.00     0.278 C 
ENDBRANCH   9  14
BRANCH  10  16
ATOM     16  O   UNL     1      72.708  80.995  65.491  1.00  0.00    -0.504 OA
ATOM     17  H   UNL     1      72.253  80.929  66.334  1.00  0.00     0.293 HD
ENDBRANCH  10  16
ENDBRANCH   7   8
ENDBRANCH   4   7
ENDBRANCH   2   3
ENDBRANCH   1   2
BRANCH   1  18
ATOM     18  C   UNL     1      75.849  85.886  70.019  1.00  0.00     0.001 C 
BRANCH  18  19
ATOM     19  C   UNL     1      74.825  86.283  68.919  1.00  0.00     0.000 C 
BRANCH  19  20
ATOM     20  C   UNL     1      74.016  87.549  69.321  1.00  0.00     0.000 C 
BRANCH  20  21
ATOM     21  C   UNL     1      73.850  87.738  70.854  1.00  0.00     0.003 C 
BRANCH  21  22
ATOM     22  C   UNL     1      74.423  89.083  71.409  1.00  0.00    -0.017 C 
ATOM     23  C   UNL     1      73.269  90.066  71.752  1.00  0.00     0.007 C 
ATOM     24  C   UNL     1      75.454  89.762  70.460  1.00  0.00     0.007 C 
ENDBRANCH  21  22
ENDBRANCH  20  21
ENDBRANCH  19  20
ENDBRANCH  18  19
ENDBRANCH   1  18
TORSDOF 11
ENDMDL
MODEL 3
REMARK VINA RESULT:    -5.685     21.369     24.242
REMARK INTER + INTRA:          -9.808
REMARK INTER:                  -8.698
REMARK INTRA:                  -1.110
REMARK UNBOUND:                -0.633
REMARK SMILES COc1cc(CNC(=O)CCCCCCC(C)C)ccc1O
REMARK SMILES IDX 11 1 10 2 8 3 7 4 9 6 6 7 5 8 3 9 21 10 4 11 20 12 19 13
REMARK SMILES IDX 2 14 1 15 22 16 12 18 13 19 14 20 15 21 16 22 17 23 18 24
REMARK H PARENT 7 5 22 17
REMARK Flexibility Score: inf
ROOT
ATOM      1  C   UNL     1      76.819  83.475  66.287  1.00  0.00     0.010 C 
ENDROOT
BRANCH   1   2
ATOM      2  C   UNL     1      76.770  81.939  66.060  1.00  0.00     0.100 C 
BRANCH   2   3
ATOM      3  C   UNL     1      75.745  81.525  65.076  1.00  0.00     0.220 C 
ATOM      4  N   UNL     1      74.580  80.952  65.494  1.00  0.00    -0.352 N 
ATOM      5  H   UNL     1      74.517  80.806  66.491  1.00  0.00     0.163 HD
ATOM      6  O   UNL     1      75.961  81.736  63.857  1.00  0.00    -0.275 OA
BRANCH   4   7
ATOM      7  C   UNL     1      73.496  80.567  64.643  1.00  0.00     0.151 C 
BRANCH   7   8
ATOM      8  C   UNL     1      72.278  81.403  64.828  1.00  0.00    -0.025 A 
ATOM      9  C   UNL     1      70.809  82.732  66.285  1.00  0.00     0.160 A 
ATOM     10  C   UNL     1      69.983  83.035  65.180  1.00  0.00     0.157 A 
ATOM     11  C   UNL     1      71.937  81.905  66.104  1.00  0.00     0.056 A 
ATOM     12  C   UNL     1      70.290  82.509  63.912  1.00  0.00     0.050 A 
ATOM     13  C   UNL     1      71.435  81.708  63.733  1.00  0.00     0.009 A 
BRANCH   9  14
ATOM     14  O   UNL     1      70.497  83.206  67.530  1.00  0.00    -0.493 OA
ATOM     15  C   UNL     1      71.388  84.234  67.999  1.00  0.00     0.278 C 
ENDBRANCH   9  14
BRANCH  10  16
ATOM     16  O   UNL     1      68.889  83.828  65.325  1.00  0.00    -0.504 OA
ATOM     17  H   UNL     1      68.948  84.568  64.716  1.00  0.00     0.293 HD
ENDBRANCH  10  16
ENDBRANCH   7   8
ENDBRANCH   4   7
ENDBRANCH   2   3
ENDBRANCH   1   2
BRANCH   1  18
ATOM     18  C   UNL     1      77.914  83.882  67.314  1.00  0.00     0.001 C 
BRANCH  18  19
ATOM     19  C   UNL     1      77.346  84.329  68.691  1.00  0.00     0.000 C 
BRANCH  19  20
ATOM     20  C   UNL     1      77.782  85.778  69.046  1.00  0.00     0.000 C 
BRANCH  20  21
ATOM     21  C   UNL     1      78.382  86.573  67.854  1.00  0.00     0.003 C 
BRANCH  21  22
ATOM     22  C   UNL     1      77.396  87.587  67.186  1.00  0.00    -0.017 C 
ATOM     23  C   UNL     1      76.138  87.788  68.077  1.00  0.00     0.007 C 
ATOM     24  C   UNL     1      76.982  87.195  65.737  1.00  0.00     0.007 C 
ENDBRANCH  21  22
ENDBRANCH  20  21
ENDBRANCH  19  20
ENDBRANCH  18  19
ENDBRANCH   1  18
TORSDOF 11
ENDMDL
MODEL 4
REMARK VINA RESULT:    -5.626     22.052     24.902
REMARK INTER + INTRA:          -9.713
REMARK INTER:                  -8.933
REMARK INTRA:                  -0.780
REMARK UNBOUND:                -0.633
REMARK SMILES COc1cc(CNC(=O)CCCCCCC(C)C)ccc1O
REMARK SMILES IDX 11 1 10 2 8 3 7 4 9 6 6 7 5 8 3 9 21 10 4 11 20 12 19 13
REMARK SMILES IDX 2 14 1 15 22 16 12 18 13 19 14 20 15 21 16 22 17 23 18 24
REMARK H PARENT 7 5 22 17
REMARK Flexibility Score: inf
ROOT
ATOM      1  C   UNL     1      71.257  83.392  67.079  1.00  0.00     0.010 C 
ENDROOT
BRANCH   1   2
ATOM      2  C   UNL     1      71.332  82.067  66.272  1.00  0.00     0.100 C 
BRANCH   2   3
ATOM      3  C   UNL     1      72.704  81.728  65.831  1.00  0.00     0.220 C 
ATOM      4  N   UNL     1      73.767  82.473  66.250  1.00  0.00    -0.352 N 
ATOM      5  H   UNL     1      73.524  83.267  66.825  1.00  0.00     0.163 HD
ATOM      6  O   UNL     1      72.867  80.729  65.088  1.00  0.00    -0.275 OA
BRANCH   4   7
ATOM      7  C   UNL     1      75.138  82.207  65.937  1.00  0.00     0.151 C 
BRANCH   7   8
ATOM      8  C   UNL     1      76.090  83.060  66.700  1.00  0.00    -0.025 A 
ATOM      9  C   UNL     1      76.527  84.685  68.494  1.00  0.00     0.160 A 
ATOM     10  C   UNL     1      77.906  84.655  68.188  1.00  0.00     0.157 A 
ATOM     11  C   UNL     1      75.630  83.903  67.737  1.00  0.00     0.056 A 
ATOM     12  C   UNL     1      78.371  83.849  67.133  1.00  0.00     0.050 A 
ATOM     13  C   UNL     1      77.473  83.049  66.401  1.00  0.00     0.009 A 
BRANCH   9  14
ATOM     14  O   UNL     1      76.059  85.495  69.492  1.00  0.00    -0.493 OA
ATOM     15  C   UNL     1      75.816  84.806  70.732  1.00  0.00     0.278 C 
ENDBRANCH   9  14
BRANCH  10  16
ATOM     16  O   UNL     1      78.793  85.399  68.900  1.00  0.00    -0.504 OA
ATOM     17  H   UNL     1      79.639  85.406  68.447  1.00  0.00     0.293 HD
ENDBRANCH  10  16
ENDBRANCH   7   8
ENDBRANCH   4   7
ENDBRANCH   2   3
ENDBRANCH   1   2
BRANCH   1  18
ATOM     18  C   UNL     1      70.192  83.330  68.211  1.00  0.00     0.001 C 
BRANCH  18  19
ATOM     19  C   UNL     1      70.553  84.185  69.459  1.00  0.00     0.000 C 
BRANCH  19  20
ATOM     20  C   UNL     1      69.742  83.744  70.709  1.00  0.00     0.000 C 
BRANCH  20  21
ATOM     21  C   UNL     1      68.542  82.809  70.393  1.00  0.00     0.003 C 
BRANCH  21  22
ATOM     22  C   UNL     1      67.137  83.449  70.641  1.00  0.00    -0.017 C 
ATOM     23  C   UNL     1      67.186  84.413  71.860  1.00  0.00     0.007 C 
ATOM     24  C   UNL     1      65.996  82.404  70.819  1.00  0.00     0.007 C 
ENDBRANCH  21  22
ENDBRANCH  20  21
ENDBRANCH  19  20
ENDBRANCH  18  19
ENDBRANCH   1  18
TORSDOF 11
ENDMDL
MODEL 5
REMARK VINA RESULT:    -5.538     16.444     19.201
REMARK INTER + INTRA:          -9.570
REMARK INTER:                  -8.656
REMARK INTRA:                  -0.915
REMARK UNBOUND:                -0.633
REMARK SMILES COc1cc(CNC(=O)CCCCCCC(C)C)ccc1O
REMARK SMILES IDX 11 1 10 2 8 3 7 4 9 6 6 7 5 8 3 9 21 10 4 11 20 12 19 13
REMARK SMILES IDX 2 14 1 15 22 16 12 18 13 19 14 20 15 21 16 22 17 23 18 24
REMARK H PARENT 7 5 22 17
REMARK Flexibility Score: inf
ROOT
ATOM      1  C   UNL     1      74.890  91.465  71.761  1.00  0.00     0.010 C 
ENDROOT
BRANCH   1   2
ATOM      2  C   UNL     1      75.201  90.519  70.568  1.00  0.00     0.100 C 
BRANCH   2   3
ATOM      3  C   UNL     1      74.859  89.105  70.838  1.00  0.00     0.220 C 
ATOM      4  N   UNL     1      75.534  88.100  70.209  1.00  0.00    -0.352 N 
ATOM      5  H   UNL     1      76.223  88.410  69.540  1.00  0.00     0.163 HD
ATOM      6  O   UNL     1      73.956  88.854  71.673  1.00  0.00    -0.275 OA
BRANCH   4   7
ATOM      7  C   UNL     1      75.330  86.701  70.433  1.00  0.00     0.151 C 
BRANCH   7   8
ATOM      8  C   UNL     1      76.212  85.839  69.600  1.00  0.00    -0.025 A 
ATOM      9  C   UNL     1      76.496  83.947  68.055  1.00  0.00     0.160 A 
ATOM     10  C   UNL     1      77.880  84.217  67.974  1.00  0.00     0.157 A 
ATOM     11  C   UNL     1      75.678  84.746  68.880  1.00  0.00     0.056 A 
ATOM     12  C   UNL     1      78.430  85.278  68.716  1.00  0.00     0.050 A 
ATOM     13  C   UNL     1      77.602  86.090  69.515  1.00  0.00     0.009 A 
BRANCH   9  14
ATOM     14  O   UNL     1      75.958  82.893  67.367  1.00  0.00    -0.493 OA
ATOM     15  C   UNL     1      75.404  83.256  66.090  1.00  0.00     0.278 C 
ENDBRANCH   9  14
BRANCH  10  16
ATOM     16  O   UNL     1      78.693  83.463  67.188  1.00  0.00    -0.504 OA
ATOM     17  H   UNL     1      78.226  83.222  66.385  1.00  0.00     0.293 HD
ENDBRANCH  10  16
ENDBRANCH   7   8
ENDBRANCH   4   7
ENDBRANCH   2   3
ENDBRANCH   1   2
BRANCH   1  18
ATOM     18  C   UNL     1      75.191  92.953  71.424  1.00  0.00     0.001 C 
BRANCH  18  19
ATOM     19  C   UNL     1      74.705  93.953  72.511  1.00  0.00     0.000 C 
BRANCH  19  20
ATOM     20  C   UNL     1      75.893  94.722  73.153  1.00  0.00     0.000 C 
BRANCH  20  21
ATOM     21  C   UNL     1      76.925  93.813  73.877  1.00  0.00     0.003 C 
BRANCH  21  22
ATOM     22  C   UNL     1      78.309  93.700  73.158  1.00  0.00    -0.017 C 
ATOM     23  C   UNL     1      78.453  94.809  72.077  1.00  0.00     0.007 C 
ATOM     24  C   UNL     1      78.579  92.297  72.538  1.00  0.00     0.007 C 
ENDBRANCH  21  22
ENDBRANCH  20  21
ENDBRANCH  19  20
ENDBRANCH  18  19
ENDBRANCH   1  18
TORSDOF 11
ENDMDL
MODEL 6
REMARK VINA RESULT:    -5.460     17.254     19.513
REMARK INTER + INTRA:          -9.445
REMARK INTER:                  -8.802
REMARK INTRA:                  -0.643
REMARK UNBOUND:                -0.633
REMARK SMILES COc1cc(CNC(=O)CCCCCCC(C)C)ccc1O
REMARK SMILES IDX 11 1 10 2 8 3 7 4 9 6 6 7 5 8 3 9 21 10 4 11 20 12 19 13
REMARK SMILES IDX 2 14 1 15 22 16 12 18 13 19 14 20 15 21 16 22 17 23 18 24
REMARK H PARENT 7 5 22 17
REMARK Flexibility Score: inf
ROOT
ATOM      1  C   UNL     1      98.150  82.006  86.331  1.00  0.00     0.010 C 
ENDROOT
BRANCH   1   2
ATOM      2  C   UNL     1      98.663  83.068  85.320  1.00  0.00     0.100 C 
BRANCH   2   3
ATOM      3  C   UNL     1      99.355  82.477  84.152  1.00  0.00     0.220 C 
ATOM      4  N   UNL     1      99.063  82.904  82.889  1.00  0.00    -0.352 N 
ATOM      5  H   UNL     1      98.330  83.596  82.838  1.00  0.00     0.163 HD
ATOM      6  O   UNL     1     100.227  81.597  84.351  1.00  0.00    -0.275 OA
BRANCH   4   7
ATOM      7  C   UNL     1      99.705  82.449  81.694  1.00  0.00     0.151 C 
BRANCH   7   8
ATOM      8  C   UNL     1      99.006  82.879  80.452  1.00  0.00    -0.025 A 
ATOM      9  C   UNL     1      99.050  83.352  78.039  1.00  0.00     0.160 A 
ATOM     10  C   UNL     1      97.671  83.655  78.071  1.00  0.00     0.157 A 
ATOM     11  C   UNL     1      99.710  82.985  79.230  1.00  0.00     0.056 A 
ATOM     12  C   UNL     1      96.969  83.591  79.288  1.00  0.00     0.050 A 
ATOM     13  C   UNL     1      97.628  83.196  80.468  1.00  0.00     0.009 A 
BRANCH   9  14
ATOM     14  O   UNL     1      99.751  83.449  76.868  1.00  0.00    -0.493 OA
ATOM     15  C   UNL     1     100.293  82.197  76.411  1.00  0.00     0.278 C 
ENDBRANCH   9  14
BRANCH  10  16
ATOM     16  O   UNL     1      97.010  84.013  76.939  1.00  0.00    -0.504 OA
ATOM     17  H   UNL     1      96.105  84.245  77.158  1.00  0.00     0.293 HD
ENDBRANCH  10  16
ENDBRANCH   7   8
ENDBRANCH   4   7
ENDBRANCH   2   3
ENDBRANCH   1   2
BRANCH   1  18
ATOM     18  C   UNL     1      96.952  81.189  85.768  1.00  0.00     0.001 C 
BRANCH  18  19
ATOM     19  C   UNL     1      95.851  80.884  86.822  1.00  0.00     0.000 C 
BRANCH  19  20
ATOM     20  C   UNL     1      94.745  81.975  86.826  1.00  0.00     0.000 C 
BRANCH  20  21
ATOM     21  C   UNL     1      95.190  83.337  86.225  1.00  0.00     0.003 C 
BRANCH  21  22
ATOM     22  C   UNL     1      95.049  84.554  87.196  1.00  0.00    -0.017 C 
ATOM     23  C   UNL     1      93.613  84.613  87.789  1.00  0.00     0.007 C 
ATOM     24  C   UNL     1      95.427  85.919  86.548  1.00  0.00     0.007 C 
ENDBRANCH  21  22
ENDBRANCH  20  21
ENDBRANCH  19  20
ENDBRANCH  18  19
ENDBRANCH   1  18
TORSDOF 11
ENDMDL
MODEL 7
REMARK VINA RESULT:    -5.389     17.528     20.656
REMARK INTER + INTRA:          -9.330
REMARK INTER:                  -8.792
REMARK INTRA:                  -0.538
REMARK UNBOUND:                -0.633
REMARK SMILES COc1cc(CNC(=O)CCCCCCC(C)C)ccc1O
REMARK SMILES IDX 11 1 10 2 8 3 7 4 9 6 6 7 5 8 3 9 21 10 4 11 20 12 19 13
REMARK SMILES IDX 2 14 1 15 22 16 12 18 13 19 14 20 15 21 16 22 17 23 18 24
REMARK H PARENT 7 5 22 17
REMARK Flexibility Score: inf
ROOT
ATOM      1  C   UNL     1      98.235  83.155  84.366  1.00  0.00     0.010 C 
ENDROOT
BRANCH   1   2
ATOM      2  C   UNL     1      97.021  84.105  84.559  1.00  0.00     0.100 C 
BRANCH   2   3
ATOM      3  C   UNL     1      96.364  83.955  85.877  1.00  0.00     0.220 C 
ATOM      4  N   UNL     1      95.335  84.777  86.231  1.00  0.00    -0.352 N 
ATOM      5  H   UNL     1      95.112  85.490  85.552  1.00  0.00     0.163 HD
ATOM      6  O   UNL     1      96.759  83.044  86.645  1.00  0.00    -0.275 OA
BRANCH   4   7
ATOM      7  C   UNL     1      94.589  84.689  87.450  1.00  0.00     0.151 C 
BRANCH   7   8
ATOM      8  C   UNL     1      94.784  85.864  88.344  1.00  0.00    -0.025 A 
ATOM      9  C   UNL     1      94.166  87.133  90.357  1.00  0.00     0.160 A 
ATOM     10  C   UNL     1      95.177  88.077  90.076  1.00  0.00     0.157 A 
ATOM     11  C   UNL     1      93.964  86.046  89.481  1.00  0.00     0.056 A 
ATOM     12  C   UNL     1      95.974  87.927  88.925  1.00  0.00     0.050 A 
ATOM     13  C   UNL     1      95.786  86.824  88.071  1.00  0.00     0.009 A 
BRANCH   9  14
ATOM     14  O   UNL     1      93.360  87.290  91.452  1.00  0.00    -0.493 OA
ATOM     15  C   UNL     1      93.466  86.221  92.409  1.00  0.00     0.278 C 
ENDBRANCH   9  14
BRANCH  10  16
ATOM     16  O   UNL     1      95.393  89.134  90.901  1.00  0.00    -0.504 OA
ATOM     17  H   UNL     1      95.468  88.823  91.806  1.00  0.00     0.293 HD
ENDBRANCH  10  16
ENDBRANCH   7   8
ENDBRANCH   4   7
ENDBRANCH   2   3
ENDBRANCH   1   2
BRANCH   1  18
ATOM     18  C   UNL     1      98.218  82.454  82.978  1.00  0.00     0.001 C 
BRANCH  18  19
ATOM     19  C   UNL     1      97.886  83.410  81.798  1.00  0.00     0.000 C 
BRANCH  19  20
ATOM     20  C   UNL     1      98.842  83.184  80.593  1.00  0.00     0.000 C 
BRANCH  20  21
ATOM     21  C   UNL     1      98.155  82.575  79.339  1.00  0.00     0.003 C 
BRANCH  21  22
ATOM     22  C   UNL     1      98.548  83.255  77.987  1.00  0.00    -0.017 C 
ATOM     23  C   UNL     1      97.514  84.352  77.609  1.00  0.00     0.007 C 
ATOM     24  C   UNL     1      98.732  82.250  76.812  1.00  0.00     0.007 C 
ENDBRANCH  21  22
ENDBRANCH  20  21
ENDBRANCH  19  20
ENDBRANCH  18  19
ENDBRANCH   1  18
TORSDOF 11
ENDMDL
MODEL 8
REMARK VINA RESULT:    -5.220     24.174     26.742
REMARK INTER + INTRA:          -9.057
REMARK INTER:                  -8.420
REMARK INTRA:                  -0.637
REMARK UNBOUND:                -0.633
REMARK SMILES COc1cc(CNC(=O)CCCCCCC(C)C)ccc1O
REMARK SMILES IDX 11 1 10 2 8 3 7 4 9 6 6 7 5 8 3 9 21 10 4 11 20 12 19 13
REMARK SMILES IDX 2 14 1 15 22 16 12 18 13 19 14 20 15 21 16 22 17 23 18 24
REMARK H PARENT 7 5 22 17
REMARK Flexibility Score: inf
ROOT
ATOM      1  C   UNL     1      71.367  85.805  69.594  1.00  0.00     0.010 C 
ENDROOT
BRANCH   1   2
ATOM      2  C   UNL     1      70.522  85.164  70.730  1.00  0.00     0.100 C 
BRANCH   2   3
ATOM      3  C   UNL     1      69.614  84.097  70.252  1.00  0.00     0.220 C 
ATOM      4  N   UNL     1      68.262  84.261  70.319  1.00  0.00    -0.352 N 
ATOM      5  H   UNL     1      67.963  85.124  70.749  1.00  0.00     0.163 HD
ATOM      6  O   UNL     1      70.116  83.054  69.765  1.00  0.00    -0.275 OA
BRANCH   4   7
ATOM      7  C   UNL     1      67.291  83.326  69.836  1.00  0.00     0.151 C 
BRANCH   7   8
ATOM      8  C   UNL     1      66.211  83.042  70.820  1.00  0.00    -0.025 A 
ATOM      9  C   UNL     1      64.788  83.769  72.690  1.00  0.00     0.160 A 
ATOM     10  C   UNL     1      64.122  82.524  72.671  1.00  0.00     0.157 A 
ATOM     11  C   UNL     1      65.837  84.011  71.779  1.00  0.00     0.056 A 
ATOM     12  C   UNL     1      64.511  81.537  71.747  1.00  0.00     0.050 A 
ATOM     13  C   UNL     1      65.540  81.796  70.821  1.00  0.00     0.009 A 
BRANCH   9  14
ATOM     14  O   UNL     1      64.444  84.722  73.610  1.00  0.00    -0.493 OA
ATOM     15  C   UNL     1      63.751  85.850  73.046  1.00  0.00     0.278 C 
ENDBRANCH   9  14
BRANCH  10  16
ATOM     16  O   UNL     1      63.109  82.262  73.537  1.00  0.00    -0.504 OA
ATOM     17  H   UNL     1      63.395  81.604  74.175  1.00  0.00     0.293 HD
ENDBRANCH  10  16
ENDBRANCH   7   8
ENDBRANCH   4   7
ENDBRANCH   2   3
ENDBRANCH   1   2
BRANCH   1  18
ATOM     18  C   UNL     1      72.867  85.404  69.682  1.00  0.00     0.001 C 
BRANCH  18  19
ATOM     19  C   UNL     1      73.846  86.556  69.317  1.00  0.00     0.000 C 
BRANCH  19  20
ATOM     20  C   UNL     1      74.905  86.780  70.432  1.00  0.00     0.000 C 
BRANCH  20  21
ATOM     21  C   UNL     1      76.072  87.722  70.023  1.00  0.00     0.003 C 
BRANCH  21  22
ATOM     22  C   UNL     1      77.372  86.985  69.564  1.00  0.00    -0.017 C 
ATOM     23  C   UNL     1      77.533  87.076  68.020  1.00  0.00     0.007 C 
ATOM     24  C   UNL     1      77.449  85.502  70.033  1.00  0.00     0.007 C 
ENDBRANCH  21  22
ENDBRANCH  20  21
ENDBRANCH  19  20
ENDBRANCH  18  19
ENDBRANCH   1  18
TORSDOF 11
ENDMDL
MODEL 9
REMARK VINA RESULT:    -5.208     19.219     21.674
REMARK INTER + INTRA:          -9.038
REMARK INTER:                  -8.136
REMARK INTRA:                  -0.902
REMARK UNBOUND:                -0.633
REMARK SMILES COc1cc(CNC(=O)CCCCCCC(C)C)ccc1O
REMARK SMILES IDX 11 1 10 2 8 3 7 4 9 6 6 7 5 8 3 9 21 10 4 11 20 12 19 13
REMARK SMILES IDX 2 14 1 15 22 16 12 18 13 19 14 20 15 21 16 22 17 23 18 24
REMARK H PARENT 7 5 22 17
REMARK Flexibility Score: inf
ROOT
ATOM      1  C   UNL     1      92.181  82.831  90.634  1.00  0.00     0.010 C 
ENDROOT
BRANCH   1   2
ATOM      2  C   UNL     1      91.198  83.929  90.141  1.00  0.00     0.100 C 
BRANCH   2   3
ATOM      3  C   UNL     1      91.510  85.274  90.672  1.00  0.00     0.220 C 
ATOM      4  N   UNL     1      92.801  85.631  90.933  1.00  0.00    -0.352 N 
ATOM      5  H   UNL     1      93.479  84.900  90.776  1.00  0.00     0.163 HD
ATOM      6  O   UNL     1      90.566  86.083  90.853  1.00  0.00    -0.275 OA
BRANCH   4   7
ATOM      7  C   UNL     1      93.226  86.918  91.392  1.00  0.00     0.151 C 
BRANCH   7   8
ATOM      8  C   UNL     1      94.166  87.594  90.456  1.00  0.00    -0.025 A 
ATOM      9  C   UNL     1      95.592  87.527  88.453  1.00  0.00     0.160 A 
ATOM     10  C   UNL     1      95.925  88.886  88.642  1.00  0.00     0.157 A 
ATOM     11  C   UNL     1      94.732  86.887  89.370  1.00  0.00     0.056 A 
ATOM     12  C   UNL     1      95.399  89.589  89.740  1.00  0.00     0.050 A 
ATOM     13  C   UNL     1      94.517  88.952  90.636  1.00  0.00     0.009 A 
BRANCH   9  14
ATOM     14  O   UNL     1      96.129  86.823  87.410  1.00  0.00    -0.493 OA
ATOM     15  C   UNL     1      95.259  85.801  86.890  1.00  0.00     0.278 C 
ENDBRANCH   9  14
BRANCH  10  16
ATOM     16  O   UNL     1      96.752  89.527  87.775  1.00  0.00    -0.504 OA
ATOM     17  H   UNL     1      96.276  90.246  87.352  1.00  0.00     0.293 HD
ENDBRANCH  10  16
ENDBRANCH   7   8
ENDBRANCH   4   7
ENDBRANCH   2   3
ENDBRANCH   1   2
BRANCH   1  18
ATOM     18  C   UNL     1      92.115  81.548  89.758  1.00  0.00     0.001 C 
BRANCH  18  19
ATOM     19  C   UNL     1      90.772  80.774  89.879  1.00  0.00     0.000 C 
BRANCH  19  20
ATOM     20  C   UNL     1      90.124  80.533  88.486  1.00  0.00     0.000 C 
BRANCH  20  21
ATOM     21  C   UNL     1      91.022  79.745  87.493  1.00  0.00     0.003 C 
BRANCH  21  22
ATOM     22  C   UNL     1      91.312  80.488  86.148  1.00  0.00    -0.017 C 
ATOM     23  C   UNL     1      90.474  81.794  86.057  1.00  0.00     0.007 C 
ATOM     24  C   UNL     1      91.086  79.606  84.885  1.00  0.00     0.007 C 
ENDBRANCH  21  22
ENDBRANCH  20  21
ENDBRANCH  19  20
ENDBRANCH  18  19
ENDBRANCH   1  18
TORSDOF 11
ENDMDL
MODEL 10
REMARK VINA RESULT:    -5.056     28.267     31.199
REMARK INTER + INTRA:          -8.793
REMARK INTER:                  -7.915
REMARK INTRA:                  -0.878
REMARK UNBOUND:                -0.633
REMARK SMILES COc1cc(CNC(=O)CCCCCCC(C)C)ccc1O
REMARK SMILES IDX 11 1 10 2 8 3 7 4 9 6 6 7 5 8 3 9 21 10 4 11 20 12 19 13
REMARK SMILES IDX 2 14 1 15 22 16 12 18 13 19 14 20 15 21 16 22 17 23 18 24
REMARK H PARENT 7 5 22 17
REMARK Flexibility Score: inf
ROOT
ATOM      1  C   UNL     1      62.039  86.009  73.003  1.00  0.00     0.010 C 
ENDROOT
BRANCH   1   2
ATOM      2  C   UNL     1      61.185  85.491  74.192  1.00  0.00     0.100 C 
BRANCH   2   3
ATOM      3  C   UNL     1      61.855  85.642  75.503  1.00  0.00     0.220 C 
ATOM      4  N   UNL     1      62.224  84.541  76.220  1.00  0.00    -0.352 N 
ATOM      5  H   UNL     1      61.963  83.660  75.802  1.00  0.00     0.163 HD
ATOM      6  O   UNL     1      62.095  86.800  75.926  1.00  0.00    -0.275 OA
BRANCH   4   7
ATOM      7  C   UNL     1      62.927  84.564  77.467  1.00  0.00     0.151 C 
BRANCH   7   8
ATOM      8  C   UNL     1      64.405  84.646  77.306  1.00  0.00    -0.025 A 
ATOM      9  C   UNL     1      66.655  84.686  78.296  1.00  0.00     0.160 A 
ATOM     10  C   UNL     1      67.224  84.758  77.006  1.00  0.00     0.157 A 
ATOM     11  C   UNL     1      65.252  84.650  78.437  1.00  0.00     0.056 A 
ATOM     12  C   UNL     1      66.390  84.795  75.874  1.00  0.00     0.050 A 
ATOM     13  C   UNL     1      64.990  84.729  76.021  1.00  0.00     0.009 A 
BRANCH   9  14
ATOM     14  O   UNL     1      67.457  84.690  79.405  1.00  0.00    -0.493 OA
ATOM     15  C   UNL     1      67.029  85.610  80.426  1.00  0.00     0.278 C 
ENDBRANCH   9  14
BRANCH  10  16
ATOM     16  O   UNL     1      68.573  84.796  76.840  1.00  0.00    -0.504 OA
ATOM     17  H   UNL     1      68.856  85.707  76.737  1.00  0.00     0.293 HD
ENDBRANCH  10  16
ENDBRANCH   7   8
ENDBRANCH   4   7
ENDBRANCH   2   3
ENDBRANCH   1   2
BRANCH   1  18
ATOM     18  C   UNL     1      62.595  84.848  72.130  1.00  0.00     0.001 C 
BRANCH  18  19
ATOM     19  C   UNL     1      62.722  83.498  72.890  1.00  0.00     0.000 C 
BRANCH  19  20
ATOM     20  C   UNL     1      62.916  82.306  71.911  1.00  0.00     0.000 C 
BRANCH  20  21
ATOM     21  C   UNL     1      64.294  81.598  72.033  1.00  0.00     0.003 C 
BRANCH  21  22
ATOM     22  C   UNL     1      65.177  81.668  70.745  1.00  0.00    -0.017 C 
ATOM     23  C   UNL     1      66.280  82.752  70.900  1.00  0.00     0.007 C 
ATOM     24  C   UNL     1      64.361  81.904  69.439  1.00  0.00     0.007 C 
ENDBRANCH  21  22
ENDBRANCH  20  21
ENDBRANCH  19  20
ENDBRANCH  18  19
ENDBRANCH   1  18
TORSDOF 11
ENDMDL
