MODEL 1
REMARK VINA RESULT:    -7.404      0.000      0.000
REMARK INTER + INTRA:         -13.477
REMARK INTER:                 -12.598
REMARK INTRA:                  -0.880
REMARK UNBOUND:                -0.880
REMARK SMILES C=C(C)[C@]12C[C@@H](C)[C@@]34O[C@](Cc5ccccc5)(O[C@@H]1[C@@H]3C=C(COC(=O)Cc1ccc(O)cc1)C[C@]1(O)C(=O)C(C)=C[C@@H]41)O2
REMARK SMILES IDX 23 1 22 2 21 3 20 4 9 5 8 6 10 7 6 8 18 10 44 11 19 12 5 13
REMARK SMILES IDX 7 14 4 15 11 16 12 17 13 18 17 19 14 20 16 21 15 22 2 23
REMARK SMILES IDX 3 24 1 25 35 26 36 27 43 28 38 29 42 30 39 32 40 33 41 34
REMARK SMILES IDX 37 35 24 37 25 38 26 39 27 40 28 41 29 42 34 43 30 44 33 45
REMARK SMILES IDX 31 46 32 47
REMARK H PARENT 37 36 32 48
REMARK Flexibility Score: 90.00
ROOT
ATOM      1  C   UNL     1      95.249  98.100  73.154  1.00  0.00     0.264 C 
ENDROOT
BRANCH   1   2
ATOM      2  C   UNL     1      94.772  99.490  72.801  1.00  0.00    -0.033 C 
ATOM      3  C   UNL     1      94.180  99.700  71.607  1.00  0.00    -0.015 C 
BRANCH   3   4
ATOM      4  C   UNL     1      93.688 100.999  70.990  1.00  0.00     0.078 C 
ATOM      5  O   UNL     1      91.299 101.222  71.590  1.00  0.00    -0.319 OA
ATOM      6  C   UNL     1      92.612 101.838  71.772  1.00  0.00     0.095 CG0
ATOM      7  C   UNL     1      91.009 100.775  70.251  1.00  0.00     0.289 C 
ATOM      8  C   UNL     1      92.596 103.296  71.150  1.00  0.00     0.023 C 
ATOM      9  G   UNL     1      92.864 101.769  73.306  1.00  0.00     0.000 G0
ATOM     10  O   UNL     1      91.983  99.841  69.795  1.00  0.00    -0.320 OA
ATOM     11  O   UNL     1      91.027 101.843  69.307  1.00  0.00    -0.313 OA
ATOM     12  C   UNL     1      93.097 100.723  69.585  1.00  0.00     0.170 C 
ATOM     13  C   UNL     1      92.906 103.269  69.622  1.00  0.00     0.049 C 
ATOM     14  C   UNL     1      91.311 104.105  71.395  1.00  0.00     0.011 C 
ATOM     15  C   UNL     1      92.424 101.973  68.969  1.00  0.00     0.122 C 
BRANCH   7  16
ATOM     16  C   UNL     1      89.639 100.127  70.254  1.00  0.00     0.135 C 
BRANCH  16  17
ATOM     17  C   UNL     1      89.195  99.735  68.866  1.00  0.00    -0.040 A 
ATOM     18  C   UNL     1      89.558  98.495  68.342  1.00  0.00     0.004 A 
ATOM     19  C   UNL     1      88.421 100.614  68.109  1.00  0.00     0.004 A 
ATOM     20  C   UNL     1      89.147  98.133  67.059  1.00  0.00     0.000 A 
ATOM     21  C   UNL     1      88.010 100.252  66.825  1.00  0.00     0.000 A 
ATOM     22  C   UNL     1      88.373  99.012  66.301  1.00  0.00     0.000 A 
ENDBRANCH  16  17
ENDBRANCH   7  16
BRANCH  15  23
ATOM     23  C   UNL     1      92.546 102.001  67.480  1.00  0.00    -0.046 C 
ATOM     24  C   UNL     1      93.577 102.933  66.918  1.00  0.00     0.042 C 
ATOM     25  C   UNL     1      91.777 101.236  66.691  1.00  0.00     0.010 C 
ENDBRANCH  15  23
ENDBRANCH   3   4
BRANCH   2  26
ATOM     26  C   UNL     1      95.031 100.505  73.899  1.00  0.00     0.078 C 
BRANCH  26  27
ATOM     27  C   UNL     1      94.363 101.871  73.757  1.00  0.00     0.140 C 
ATOM     28  C   UNL     1      92.888 101.757  73.317  1.00  0.00     0.086 CG0
ATOM     29  C   UNL     1      94.251 102.602  75.078  1.00  0.00     0.190 C 
ATOM     30  C   UNL     1      92.173 102.704  74.240  1.00  0.00    -0.010 C 
ATOM     31  G   UNL     1      92.622 101.837  71.785  1.00  0.00     0.000 G0
ATOM     32  O   UNL     1      95.159 102.754  75.882  1.00  0.00    -0.291 OA
ATOM     33  C   UNL     1      92.903 103.173  75.256  1.00  0.00    -0.008 C 
ATOM     34  C   UNL     1      92.514 104.044  76.384  1.00  0.00     0.048 C 
BRANCH  27  35
ATOM     35  O   UNL     1      95.135 102.745  72.951  1.00  0.00    -0.381 OA
ATOM     36  H   UNL     1      96.067 102.665  73.217  1.00  0.00     0.212 HD
ENDBRANCH  27  35
ENDBRANCH  26  27
ENDBRANCH   2  26
ENDBRANCH   1   2
BRANCH   1  37
ATOM     37  O   UNL     1      95.986  98.151  74.357  1.00  0.00    -0.461 OA
BRANCH  37  38
ATOM     38  C   UNL     1      95.940  97.025  75.147  1.00  0.00     0.310 C 
ATOM     39  O   UNL     1      96.505  96.899  76.224  1.00  0.00    -0.252 OA
BRANCH  38  40
ATOM     40  C   UNL     1      95.088  95.975  74.476  1.00  0.00     0.158 C 
BRANCH  40  41
ATOM     41  C   UNL     1      93.993  95.450  75.368  1.00  0.00    -0.037 A 
ATOM     42  C   UNL     1      93.921  94.087  75.656  1.00  0.00     0.008 A 
ATOM     43  C   UNL     1      93.050  96.326  75.906  1.00  0.00     0.008 A 
ATOM     44  C   UNL     1      92.907  93.600  76.482  1.00  0.00     0.046 A 
ATOM     45  C   UNL     1      92.036  95.840  76.732  1.00  0.00     0.046 A 
ATOM     46  C   UNL     1      91.964  94.477  77.019  1.00  0.00     0.115 A 
BRANCH  46  47
ATOM     47  O   UNL     1      90.975  94.002  77.824  1.00  0.00    -0.508 OA
ATOM     48  H   UNL     1      90.952  93.032  77.757  1.00  0.00     0.293 HD
ENDBRANCH  46  47
ENDBRANCH  40  41
ENDBRANCH  38  40
ENDBRANCH  37  38
ENDBRANCH   1  37
TORSDOF 10
ENDMDL
MODEL 2
REMARK VINA RESULT:    -7.242     18.344     23.726
REMARK INTER + INTRA:         -13.203
REMARK INTER:                 -12.769
REMARK INTRA:                  -0.433
REMARK UNBOUND:                -0.880
REMARK SMILES C=C(C)[C@]12C[C@@H](C)[C@@]34O[C@](Cc5ccccc5)(O[C@@H]1[C@@H]3C=C(COC(=O)Cc1ccc(O)cc1)C[C@]1(O)C(=O)C(C)=C[C@@H]41)O2
REMARK SMILES IDX 23 1 22 2 21 3 20 4 9 5 8 6 10 7 6 8 18 10 44 11 19 12 5 13
REMARK SMILES IDX 7 14 4 15 11 16 12 17 13 18 17 19 14 20 16 21 15 22 2 23
REMARK SMILES IDX 3 24 1 25 35 26 36 27 43 28 38 29 42 30 39 32 40 33 41 34
REMARK SMILES IDX 37 35 24 37 25 38 26 39 27 40 28 41 29 42 34 43 30 44 33 45
REMARK SMILES IDX 31 46 32 47
REMARK H PARENT 37 36 32 48
REMARK Flexibility Score: 90.00
ROOT
ATOM      1  C   UNL     1      97.016  81.110  80.786  1.00  0.00     0.264 C 
ENDROOT
BRANCH   1   2
ATOM      2  C   UNL     1      97.053  80.958  82.289  1.00  0.00    -0.033 C 
ATOM      3  C   UNL     1      96.021  81.422  83.024  1.00  0.00    -0.015 C 
BRANCH   3   4
ATOM      4  C   UNL     1      95.853  81.460  84.535  1.00  0.00     0.078 C 
ATOM      5  O   UNL     1      94.666  79.389  85.180  1.00  0.00    -0.319 OA
ATOM      6  C   UNL     1      95.931  80.106  85.331  1.00  0.00     0.095 CG0
ATOM      7  C   UNL     1      93.482  80.202  85.285  1.00  0.00     0.289 C 
ATOM      8  C   UNL     1      96.153  80.461  86.859  1.00  0.00     0.023 C 
ATOM      9  G   UNL     1      96.993  79.156  84.705  1.00  0.00     0.000 G0
ATOM     10  O   UNL     1      93.489  81.254  84.325  1.00  0.00    -0.320 OA
ATOM     11  O   UNL     1      93.373  80.840  86.556  1.00  0.00    -0.313 OA
ATOM     12  C   UNL     1      94.494  82.108  84.896  1.00  0.00     0.170 C 
ATOM     13  C   UNL     1      95.441  81.793  87.247  1.00  0.00     0.049 C 
ATOM     14  C   UNL     1      95.754  79.361  87.858  1.00  0.00     0.011 C 
ATOM     15  C   UNL     1      94.182  82.026  86.410  1.00  0.00     0.122 C 
BRANCH   7  16
ATOM     16  C   UNL     1      92.274  79.313  85.063  1.00  0.00     0.135 C 
BRANCH  16  17
ATOM     17  C   UNL     1      90.987  80.001  85.440  1.00  0.00    -0.040 A 
ATOM     18  C   UNL     1      90.353  79.685  86.642  1.00  0.00     0.004 A 
ATOM     19  C   UNL     1      90.430  80.954  84.587  1.00  0.00     0.004 A 
ATOM     20  C   UNL     1      89.162  80.322  86.991  1.00  0.00     0.000 A 
ATOM     21  C   UNL     1      89.239  81.591  84.937  1.00  0.00     0.000 A 
ATOM     22  C   UNL     1      88.605  81.275  86.138  1.00  0.00     0.000 A 
ENDBRANCH  16  17
ENDBRANCH   7  16
BRANCH  15  23
ATOM     23  C   UNL     1      93.387  83.198  86.885  1.00  0.00    -0.046 C 
ATOM     24  C   UNL     1      92.084  82.885  87.559  1.00  0.00     0.042 C 
ATOM     25  C   UNL     1      93.813  84.459  86.717  1.00  0.00     0.010 C 
ENDBRANCH  15  23
ENDBRANCH   3   4
BRANCH   2  26
ATOM     26  C   UNL     1      98.307  80.264  82.787  1.00  0.00     0.078 C 
BRANCH  26  27
ATOM     27  C   UNL     1      98.340  79.852  84.257  1.00  0.00     0.140 C 
ATOM     28  C   UNL     1      97.032  79.165  84.700  1.00  0.00     0.086 CG0
ATOM     29  C   UNL     1      99.378  78.787  84.538  1.00  0.00     0.190 C 
ATOM     30  C   UNL     1      97.510  77.965  85.469  1.00  0.00    -0.010 C 
ATOM     31  G   UNL     1      95.949  80.091  85.327  1.00  0.00     0.000 G0
ATOM     32  O   UNL     1     100.544  78.820  84.172  1.00  0.00    -0.291 OA
ATOM     33  C   UNL     1      98.819  77.709  85.375  1.00  0.00    -0.008 C 
ATOM     34  C   UNL     1      99.610  76.587  85.920  1.00  0.00     0.048 C 
BRANCH  27  35
ATOM     35  O   UNL     1      98.730  80.932  85.089  1.00  0.00    -0.381 OA
ATOM     36  H   UNL     1      99.388  81.465  84.611  1.00  0.00     0.212 HD
ENDBRANCH  27  35
ENDBRANCH  26  27
ENDBRANCH   2  26
ENDBRANCH   1   2
BRANCH   1  37
ATOM     37  O   UNL     1      98.251  80.694  80.244  1.00  0.00    -0.461 OA
BRANCH  37  38
ATOM     38  C   UNL     1      98.191  79.996  79.059  1.00  0.00     0.310 C 
ATOM     39  O   UNL     1      97.615  78.929  78.901  1.00  0.00    -0.252 OA
BRANCH  38  40
ATOM     40  C   UNL     1      98.943  80.753  77.991  1.00  0.00     0.158 C 
BRANCH  40  41
ATOM     41  C   UNL     1      98.045  81.601  77.128  1.00  0.00    -0.037 A 
ATOM     42  C   UNL     1      96.802  82.013  77.609  1.00  0.00     0.008 A 
ATOM     43  C   UNL     1      98.455  81.974  75.849  1.00  0.00     0.008 A 
ATOM     44  C   UNL     1      95.969  82.797  76.810  1.00  0.00     0.046 A 
ATOM     45  C   UNL     1      97.624  82.758  75.049  1.00  0.00     0.046 A 
ATOM     46  C   UNL     1      96.381  83.170  75.530  1.00  0.00     0.115 A 
BRANCH  46  47
ATOM     47  O   UNL     1      95.569  83.934  74.750  1.00  0.00    -0.508 OA
ATOM     48  H   UNL     1      94.754  83.437  74.561  1.00  0.00     0.293 HD
ENDBRANCH  46  47
ENDBRANCH  40  41
ENDBRANCH  38  40
ENDBRANCH  37  38
ENDBRANCH   1  37
TORSDOF 10
ENDMDL
MODEL 3
REMARK VINA RESULT:    -6.917     28.943     32.896
REMARK INTER + INTRA:         -12.649
REMARK INTER:                 -11.381
REMARK INTRA:                  -1.267
REMARK UNBOUND:                -0.880
REMARK SMILES C=C(C)[C@]12C[C@@H](C)[C@@]34O[C@](Cc5ccccc5)(O[C@@H]1[C@@H]3C=C(COC(=O)Cc1ccc(O)cc1)C[C@]1(O)C(=O)C(C)=C[C@@H]41)O2
REMARK SMILES IDX 23 1 22 2 21 3 20 4 9 5 8 6 10 7 6 8 18 10 44 11 19 12 5 13
REMARK SMILES IDX 7 14 4 15 11 16 12 17 13 18 17 19 14 20 16 21 15 22 2 23
REMARK SMILES IDX 3 24 1 25 35 26 36 27 43 28 38 29 42 30 39 32 40 33 41 34
REMARK SMILES IDX 37 35 24 37 25 38 26 39 27 40 28 41 29 42 34 43 30 44 33 45
REMARK SMILES IDX 31 46 32 47
REMARK H PARENT 37 36 32 48
REMARK Flexibility Score: 90.00
ROOT
ATOM      1  C   UNL     1      83.859  66.416  70.889  1.00  0.00     0.264 C 
ENDROOT
BRANCH   1   2
ATOM      2  C   UNL     1      84.974  66.802  71.833  1.00  0.00    -0.033 C 
ATOM      3  C   UNL     1      86.111  67.326  71.330  1.00  0.00    -0.015 C 
BRANCH   3   4
ATOM      4  C   UNL     1      87.392  67.720  72.048  1.00  0.00     0.078 C 
ATOM      5  O   UNL     1      87.210  70.128  72.578  1.00  0.00    -0.319 OA
ATOM      6  C   UNL     1      87.310  68.803  73.186  1.00  0.00     0.095 CG0
ATOM      7  C   UNL     1      88.077  70.355  71.449  1.00  0.00     0.289 C 
ATOM      8  C   UNL     1      88.647  68.714  74.030  1.00  0.00     0.023 C 
ATOM      9  G   UNL     1      85.993  68.650  74.001  1.00  0.00     0.000 G0
ATOM     10  O   UNL     1      87.847  69.397  70.420  1.00  0.00    -0.320 OA
ATOM     11  O   UNL     1      89.455  70.229  71.791  1.00  0.00    -0.313 OA
ATOM     12  C   UNL     1      88.433  68.233  71.023  1.00  0.00     0.170 C 
ATOM     13  C   UNL     1      89.862  68.311  73.139  1.00  0.00     0.049 C 
ATOM     14  C   UNL     1      89.004  69.973  74.839  1.00  0.00     0.011 C 
ATOM     15  C   UNL     1      89.699  68.810  71.702  1.00  0.00     0.122 C 
BRANCH   7  16
ATOM     16  C   UNL     1      87.813  71.751  70.921  1.00  0.00     0.135 C 
BRANCH  16  17
ATOM     17  C   UNL     1      88.251  71.905  69.486  1.00  0.00    -0.040 A 
ATOM     18  C   UNL     1      87.312  71.830  68.458  1.00  0.00     0.004 A 
ATOM     19  C   UNL     1      89.596  72.122  69.188  1.00  0.00     0.004 A 
ATOM     20  C   UNL     1      87.718  71.974  67.130  1.00  0.00     0.000 A 
ATOM     21  C   UNL     1      90.002  72.265  67.860  1.00  0.00     0.000 A 
ATOM     22  C   UNL     1      89.063  72.191  66.832  1.00  0.00     0.000 A 
ENDBRANCH  16  17
ENDBRANCH   7  16
BRANCH  15  23
ATOM     23  C   UNL     1      90.926  68.595  70.878  1.00  0.00    -0.046 C 
ATOM     24  C   UNL     1      92.231  68.952  71.527  1.00  0.00     0.042 C 
ATOM     25  C   UNL     1      90.866  68.110  69.629  1.00  0.00     0.010 C 
ENDBRANCH  15  23
ENDBRANCH   3   4
BRANCH   2  26
ATOM     26  C   UNL     1      84.639  66.540  73.289  1.00  0.00     0.078 C 
BRANCH  26  27
ATOM     27  C   UNL     1      85.554  67.167  74.339  1.00  0.00     0.140 C 
ATOM     28  C   UNL     1      85.959  68.610  73.973  1.00  0.00     0.086 CG0
ATOM     29  C   UNL     1      84.863  67.353  75.674  1.00  0.00     0.190 C 
ATOM     30  C   UNL     1      85.760  69.367  75.257  1.00  0.00    -0.010 C 
ATOM     31  G   UNL     1      87.297  68.769  73.193  1.00  0.00     0.000 G0
ATOM     32  O   UNL     1      84.215  66.499  76.260  1.00  0.00    -0.291 OA
ATOM     33  C   UNL     1      85.122  68.698  76.222  1.00  0.00    -0.008 C 
ATOM     34  C   UNL     1      84.687  69.144  77.562  1.00  0.00     0.048 C 
BRANCH  27  35
ATOM     35  O   UNL     1      86.652  66.323  74.641  1.00  0.00    -0.381 OA
ATOM     36  H   UNL     1      86.855  65.790  73.854  1.00  0.00     0.212 HD
ENDBRANCH  27  35
ENDBRANCH  26  27
ENDBRANCH   2  26
ENDBRANCH   1   2
BRANCH   1  37
ATOM     37  O   UNL     1      83.068  65.411  71.487  1.00  0.00    -0.461 OA
BRANCH  37  38
ATOM     38  C   UNL     1      81.864  65.143  70.878  1.00  0.00     0.310 C 
ATOM     39  O   UNL     1      81.683  64.284  70.027  1.00  0.00    -0.252 OA
BRANCH  38  40
ATOM     40  C   UNL     1      80.805  66.070  71.425  1.00  0.00     0.158 C 
BRANCH  40  41
ATOM     41  C   UNL     1      80.681  66.002  72.925  1.00  0.00    -0.037 A 
ATOM     42  C   UNL     1      80.964  67.126  73.700  1.00  0.00     0.008 A 
ATOM     43  C   UNL     1      80.283  64.814  73.538  1.00  0.00     0.008 A 
ATOM     44  C   UNL     1      80.849  67.062  75.090  1.00  0.00     0.046 A 
ATOM     45  C   UNL     1      80.168  64.750  74.927  1.00  0.00     0.046 A 
ATOM     46  C   UNL     1      80.451  65.874  75.703  1.00  0.00     0.115 A 
BRANCH  46  47
ATOM     47  O   UNL     1      80.340  65.812  77.057  1.00  0.00    -0.508 OA
ATOM     48  H   UNL     1      81.096  66.276  77.458  1.00  0.00     0.293 HD
ENDBRANCH  46  47
ENDBRANCH  40  41
ENDBRANCH  38  40
ENDBRANCH  37  38
ENDBRANCH   1  37
TORSDOF 10
ENDMDL
MODEL 4
REMARK VINA RESULT:    -6.674     17.836     21.771
REMARK INTER + INTRA:         -12.236
REMARK INTER:                 -10.538
REMARK INTRA:                  -1.698
REMARK UNBOUND:                -0.880
REMARK SMILES C=C(C)[C@]12C[C@@H](C)[C@@]34O[C@](Cc5ccccc5)(O[C@@H]1[C@@H]3C=C(COC(=O)Cc1ccc(O)cc1)C[C@]1(O)C(=O)C(C)=C[C@@H]41)O2
REMARK SMILES IDX 23 1 22 2 21 3 20 4 9 5 8 6 10 7 6 8 18 10 44 11 19 12 5 13
REMARK SMILES IDX 7 14 4 15 11 16 12 17 13 18 17 19 14 20 16 21 15 22 2 23
REMARK SMILES IDX 3 24 1 25 35 26 36 27 43 28 38 29 42 30 39 32 40 33 41 34
REMARK SMILES IDX 37 35 24 37 25 38 26 39 27 40 28 41 29 42 34 43 30 44 33 45
REMARK SMILES IDX 31 46 32 47
REMARK H PARENT 37 36 32 48
REMARK Flexibility Score: 90.00
ROOT
ATOM      1  C   UNL     1     103.303  79.549  75.690  1.00  0.00     0.264 C 
ENDROOT
BRANCH   1   2
ATOM      2  C   UNL     1     101.891  79.399  75.173  1.00  0.00    -0.033 C 
ATOM      3  C   UNL     1     100.999  80.386  75.397  1.00  0.00    -0.015 C 
BRANCH   3   4
ATOM      4  C   UNL     1      99.519  80.445  75.054  1.00  0.00     0.078 C 
ATOM      5  O   UNL     1      99.336  81.534  72.841  1.00  0.00    -0.319 OA
ATOM      6  C   UNL     1      99.092  80.278  73.549  1.00  0.00     0.095 CG0
ATOM      7  C   UNL     1      98.955  82.726  73.554  1.00  0.00     0.289 C 
ATOM      8  C   UNL     1      97.542  79.955  73.523  1.00  0.00     0.023 C 
ATOM      9  G   UNL     1     100.003  79.243  72.827  1.00  0.00     0.000 G0
ATOM     10  O   UNL     1      99.621  82.813  74.810  1.00  0.00    -0.320 OA
ATOM     11  O   UNL     1      97.562  82.758  73.853  1.00  0.00    -0.313 OA
ATOM     12  C   UNL     1      98.921  81.790  75.536  1.00  0.00     0.170 C 
ATOM     13  C   UNL     1      96.789  80.668  74.688  1.00  0.00     0.049 C 
ATOM     14  C   UNL     1      96.826  80.254  72.195  1.00  0.00     0.011 C 
ATOM     15  C   UNL     1      97.458  81.989  75.069  1.00  0.00     0.122 C 
BRANCH   7  16
ATOM     16  C   UNL     1      99.315  83.925  72.699  1.00  0.00     0.135 C 
BRANCH  16  17
ATOM     17  C   UNL     1     100.735  83.856  72.195  1.00  0.00    -0.040 A 
ATOM     18  C   UNL     1     101.798  84.082  73.069  1.00  0.00     0.004 A 
ATOM     19  C   UNL     1     100.984  83.565  70.854  1.00  0.00     0.004 A 
ATOM     20  C   UNL     1     103.111  84.018  72.602  1.00  0.00     0.000 A 
ATOM     21  C   UNL     1     102.298  83.500  70.387  1.00  0.00     0.000 A 
ATOM     22  C   UNL     1     103.360  83.726  71.261  1.00  0.00     0.000 A 
ENDBRANCH  16  17
ENDBRANCH   7  16
BRANCH  15  23
ATOM     23  C   UNL     1      96.656  82.775  76.055  1.00  0.00    -0.046 C 
ATOM     24  C   UNL     1      96.566  82.205  77.439  1.00  0.00     0.042 C 
ATOM     25  C   UNL     1      96.052  83.925  75.722  1.00  0.00     0.010 C 
ENDBRANCH  15  23
ENDBRANCH   3   4
BRANCH   2  26
ATOM     26  C   UNL     1     101.664  78.095  74.431  1.00  0.00     0.078 C 
BRANCH  26  27
ATOM     27  C   UNL     1     100.359  77.956  73.648  1.00  0.00     0.140 C 
ATOM     28  C   UNL     1     100.024  79.228  72.842  1.00  0.00     0.086 CG0
ATOM     29  C   UNL     1     100.441  76.898  72.568  1.00  0.00     0.190 C 
ATOM     30  C   UNL     1      99.633  78.693  71.492  1.00  0.00    -0.010 C 
ATOM     31  G   UNL     1      99.103  80.265  73.549  1.00  0.00     0.000 G0
ATOM     32  O   UNL     1     100.864  75.762  72.720  1.00  0.00    -0.291 OA
ATOM     33  C   UNL     1      99.880  77.395  71.297  1.00  0.00    -0.008 C 
ATOM     34  C   UNL     1      99.705  76.564  70.088  1.00  0.00     0.048 C 
BRANCH  27  35
ATOM     35  O   UNL     1      99.301  77.510  74.480  1.00  0.00    -0.381 OA
ATOM     36  H   UNL     1      98.925  78.281  74.938  1.00  0.00     0.212 HD
ENDBRANCH  27  35
ENDBRANCH  26  27
ENDBRANCH   2  26
ENDBRANCH   1   2
BRANCH   1  37
ATOM     37  O   UNL     1     103.265  79.921  77.051  1.00  0.00    -0.461 OA
BRANCH  37  38
ATOM     38  C   UNL     1     103.814  79.026  77.941  1.00  0.00     0.310 C 
ATOM     39  O   UNL     1     104.961  79.068  78.361  1.00  0.00    -0.252 OA
BRANCH  38  40
ATOM     40  C   UNL     1     102.781  77.990  78.316  1.00  0.00     0.158 C 
BRANCH  40  41
ATOM     41  C   UNL     1     101.478  78.596  78.769  1.00  0.00    -0.037 A 
ATOM     42  C   UNL     1     100.278  78.182  78.192  1.00  0.00     0.008 A 
ATOM     43  C   UNL     1     101.472  79.572  79.766  1.00  0.00     0.008 A 
ATOM     44  C   UNL     1      99.071  78.744  78.611  1.00  0.00     0.046 A 
ATOM     45  C   UNL     1     100.266  80.133  80.186  1.00  0.00     0.046 A 
ATOM     46  C   UNL     1      99.066  79.720  79.609  1.00  0.00     0.115 A 
BRANCH  46  47
ATOM     47  O   UNL     1      97.889  80.268  80.017  1.00  0.00    -0.508 OA
ATOM     48  H   UNL     1      98.066  81.144  80.402  1.00  0.00     0.293 HD
ENDBRANCH  46  47
ENDBRANCH  40  41
ENDBRANCH  38  40
ENDBRANCH  37  38
ENDBRANCH   1  37
TORSDOF 10
ENDMDL
MODEL 5
REMARK VINA RESULT:    -6.636     18.720     21.617
REMARK INTER + INTRA:         -12.171
REMARK INTER:                 -11.975
REMARK INTRA:                  -0.196
REMARK UNBOUND:                -0.880
REMARK SMILES C=C(C)[C@]12C[C@@H](C)[C@@]34O[C@](Cc5ccccc5)(O[C@@H]1[C@@H]3C=C(COC(=O)Cc1ccc(O)cc1)C[C@]1(O)C(=O)C(C)=C[C@@H]41)O2
REMARK SMILES IDX 23 1 22 2 21 3 20 4 9 5 8 6 10 7 6 8 18 10 44 11 19 12 5 13
REMARK SMILES IDX 7 14 4 15 11 16 12 17 13 18 17 19 14 20 16 21 15 22 2 23
REMARK SMILES IDX 3 24 1 25 35 26 36 27 43 28 38 29 42 30 39 32 40 33 41 34
REMARK SMILES IDX 37 35 24 37 25 38 26 39 27 40 28 41 29 42 34 43 30 44 33 45
REMARK SMILES IDX 31 46 32 47
REMARK H PARENT 37 36 32 48
REMARK Flexibility Score: 90.00
ROOT
ATOM      1  C   UNL     1      99.882  80.206  79.612  1.00  0.00     0.264 C 
ENDROOT
BRANCH   1   2
ATOM      2  C   UNL     1     100.421  79.805  78.258  1.00  0.00    -0.033 C 
ATOM      3  C   UNL     1      99.742  80.159  77.147  1.00  0.00    -0.015 C 
BRANCH   3   4
ATOM      4  C   UNL     1     100.027  79.819  75.693  1.00  0.00     0.078 C 
ATOM      5  O   UNL     1     101.384  81.671  74.773  1.00  0.00    -0.319 OA
ATOM      6  C   UNL     1     101.413  80.242  75.083  1.00  0.00     0.095 CG0
ATOM      7  C   UNL     1     100.169  82.141  74.157  1.00  0.00     0.289 C 
ATOM      8  C   UNL     1     101.620  79.420  73.744  1.00  0.00     0.023 C 
ATOM      9  G   UNL     1     102.549  80.098  76.138  1.00  0.00     0.000 G0
ATOM     10  O   UNL     1      99.034  81.861  74.971  1.00  0.00    -0.320 OA
ATOM     11  O   UNL     1      99.913  81.506  72.907  1.00  0.00    -0.313 OA
ATOM     12  C   UNL     1      98.936  80.440  74.785  1.00  0.00     0.170 C 
ATOM     13  C   UNL     1     100.264  79.155  73.021  1.00  0.00     0.049 C 
ATOM     14  C   UNL     1     102.621  80.024  72.745  1.00  0.00     0.011 C 
ATOM     15  C   UNL     1      99.256  80.277  73.279  1.00  0.00     0.122 C 
BRANCH   7  16
ATOM     16  C   UNL     1     100.293  83.638  73.947  1.00  0.00     0.135 C 
BRANCH  16  17
ATOM     17  C   UNL     1     101.088  83.972  72.710  1.00  0.00    -0.040 A 
ATOM     18  C   UNL     1     102.461  84.194  72.802  1.00  0.00     0.004 A 
ATOM     19  C   UNL     1     100.448  84.059  71.474  1.00  0.00     0.004 A 
ATOM     20  C   UNL     1     103.197  84.503  71.657  1.00  0.00     0.000 A 
ATOM     21  C   UNL     1     101.183  84.368  70.329  1.00  0.00     0.000 A 
ATOM     22  C   UNL     1     102.557  84.590  70.421  1.00  0.00     0.000 A 
ENDBRANCH  16  17
ENDBRANCH   7  16
BRANCH  15  23
ATOM     23  C   UNL     1      98.019  80.137  72.454  1.00  0.00    -0.046 C 
ATOM     24  C   UNL     1      96.719  80.381  73.163  1.00  0.00     0.042 C 
ATOM     25  C   UNL     1      98.066  79.812  71.153  1.00  0.00     0.010 C 
ENDBRANCH  15  23
ENDBRANCH   3   4
BRANCH   2  26
ATOM     26  C   UNL     1     101.720  79.026  78.341  1.00  0.00     0.078 C 
BRANCH  26  27
ATOM     27  C   UNL     1     102.486  78.806  77.038  1.00  0.00     0.140 C 
ATOM     28  C   UNL     1     102.526  80.076  76.163  1.00  0.00     0.086 CG0
ATOM     29  C   UNL     1     103.956  78.526  77.270  1.00  0.00     0.190 C 
ATOM     30  C   UNL     1     103.964  80.162  75.735  1.00  0.00    -0.010 C 
ATOM     31  G   UNL     1     101.402  80.206  75.093  1.00  0.00     0.000 G0
ATOM     32  O   UNL     1     104.405  77.714  78.065  1.00  0.00    -0.291 OA
ATOM     33  C   UNL     1     104.798  79.325  76.359  1.00  0.00    -0.008 C 
ATOM     34  C   UNL     1     106.266  79.190  76.255  1.00  0.00     0.048 C 
BRANCH  27  35
ATOM     35  O   UNL     1     102.026  77.653  76.354  1.00  0.00    -0.381 OA
ATOM     36  H   UNL     1     102.782  77.058  76.212  1.00  0.00     0.212 HD
ENDBRANCH  27  35
ENDBRANCH  26  27
ENDBRANCH   2  26
ENDBRANCH   1   2
BRANCH   1  37
ATOM     37  O   UNL     1      99.075  81.355  79.471  1.00  0.00    -0.461 OA
BRANCH  37  38
ATOM     38  C   UNL     1      97.718  81.164  79.593  1.00  0.00     0.310 C 
ATOM     39  O   UNL     1      96.874  81.611  78.830  1.00  0.00    -0.252 OA
BRANCH  38  40
ATOM     40  C   UNL     1      97.437  80.318  80.812  1.00  0.00     0.158 C 
BRANCH  40  41
ATOM     41  C   UNL     1      96.671  81.059  81.878  1.00  0.00    -0.037 A 
ATOM     42  C   UNL     1      96.666  82.454  81.890  1.00  0.00     0.008 A 
ATOM     43  C   UNL     1      95.968  80.351  82.852  1.00  0.00     0.008 A 
ATOM     44  C   UNL     1      95.958  83.140  82.878  1.00  0.00     0.046 A 
ATOM     45  C   UNL     1      95.260  81.036  83.839  1.00  0.00     0.046 A 
ATOM     46  C   UNL     1      95.255  82.430  83.852  1.00  0.00     0.115 A 
BRANCH  46  47
ATOM     47  O   UNL     1      94.565  83.100  84.815  1.00  0.00    -0.508 OA
ATOM     48  H   UNL     1      95.198  83.546  85.405  1.00  0.00     0.293 HD
ENDBRANCH  46  47
ENDBRANCH  40  41
ENDBRANCH  38  40
ENDBRANCH  37  38
ENDBRANCH   1  37
TORSDOF 10
ENDMDL
MODEL 6
REMARK VINA RESULT:    -6.456     19.205     22.884
REMARK INTER + INTRA:         -11.865
REMARK INTER:                 -10.132
REMARK INTRA:                  -1.733
REMARK UNBOUND:                -0.880
REMARK SMILES C=C(C)[C@]12C[C@@H](C)[C@@]34O[C@](Cc5ccccc5)(O[C@@H]1[C@@H]3C=C(COC(=O)Cc1ccc(O)cc1)C[C@]1(O)C(=O)C(C)=C[C@@H]41)O2
REMARK SMILES IDX 23 1 22 2 21 3 20 4 9 5 8 6 10 7 6 8 18 10 44 11 19 12 5 13
REMARK SMILES IDX 7 14 4 15 11 16 12 17 13 18 17 19 14 20 16 21 15 22 2 23
REMARK SMILES IDX 3 24 1 25 35 26 36 27 43 28 38 29 42 30 39 32 40 33 41 34
REMARK SMILES IDX 37 35 24 37 25 38 26 39 27 40 28 41 29 42 34 43 30 44 33 45
REMARK SMILES IDX 31 46 32 47
REMARK H PARENT 37 36 32 48
REMARK Flexibility Score: 90.00
ROOT
ATOM      1  C   UNL     1      96.744  75.858  73.779  1.00  0.00     0.264 C 
ENDROOT
BRANCH   1   2
ATOM      2  C   UNL     1      96.946  77.349  73.634  1.00  0.00    -0.033 C 
ATOM      3  C   UNL     1      97.065  78.109  74.743  1.00  0.00    -0.015 C 
BRANCH   3   4
ATOM      4  C   UNL     1      97.197  79.618  74.869  1.00  0.00     0.078 C 
ATOM      5  O   UNL     1      99.616  80.127  74.937  1.00  0.00    -0.319 OA
ATOM      6  C   UNL     1      98.402  80.327  74.148  1.00  0.00     0.095 CG0
ATOM      7  C   UNL     1      99.457  80.280  76.361  1.00  0.00     0.289 C 
ATOM      8  C   UNL     1      98.074  81.875  74.076  1.00  0.00     0.023 C 
ATOM      9  G   UNL     1      98.709  79.645  72.784  1.00  0.00     0.000 G0
ATOM     10  O   UNL     1      98.469  79.388  76.870  1.00  0.00    -0.320 OA
ATOM     11  O   UNL     1      99.018  81.587  76.720  1.00  0.00    -0.313 OA
ATOM     12  C   UNL     1      97.280  80.016  76.363  1.00  0.00     0.170 C 
ATOM     13  C   UNL     1      97.252  82.344  75.316  1.00  0.00     0.049 C 
ATOM     14  C   UNL     1      99.288  82.801  73.890  1.00  0.00     0.011 C 
ATOM     15  C   UNL     1      97.585  81.520  76.560  1.00  0.00     0.122 C 
BRANCH   7  16
ATOM     16  C   UNL     1     100.792  79.997  77.021  1.00  0.00     0.135 C 
BRANCH  16  17
ATOM     17  C   UNL     1     101.946  80.185  76.068  1.00  0.00    -0.040 A 
ATOM     18  C   UNL     1     103.194  79.640  76.367  1.00  0.00     0.004 A 
ATOM     19  C   UNL     1     101.764  80.906  74.888  1.00  0.00     0.004 A 
ATOM     20  C   UNL     1     104.261  79.814  75.485  1.00  0.00     0.000 A 
ATOM     21  C   UNL     1     102.831  81.080  74.006  1.00  0.00     0.000 A 
ATOM     22  C   UNL     1     104.079  80.534  74.305  1.00  0.00     0.000 A 
ENDBRANCH  16  17
ENDBRANCH   7  16
BRANCH  15  23
ATOM     23  C   UNL     1      96.949  82.066  77.797  1.00  0.00    -0.046 C 
ATOM     24  C   UNL     1      95.566  82.625  77.638  1.00  0.00     0.042 C 
ATOM     25  C   UNL     1      97.577  82.057  78.982  1.00  0.00     0.010 C 
ENDBRANCH  15  23
ENDBRANCH   3   4
BRANCH   2  26
ATOM     26  C   UNL     1      96.997  77.806  72.188  1.00  0.00     0.078 C 
BRANCH  26  27
ATOM     27  C   UNL     1      97.463  79.236  71.924  1.00  0.00     0.140 C 
ATOM     28  C   UNL     1      98.679  79.623  72.791  1.00  0.00     0.086 CG0
ATOM     29  C   UNL     1      97.993  79.423  70.518  1.00  0.00     0.190 C 
ATOM     30  C   UNL     1      99.609  80.286  71.813  1.00  0.00    -0.010 C 
ATOM     31  G   UNL     1      98.362  80.328  74.142  1.00  0.00     0.000 G0
ATOM     32  O   UNL     1      97.432  79.059  69.496  1.00  0.00    -0.291 OA
ATOM     33  C   UNL     1      99.267  80.168  70.527  1.00  0.00    -0.008 C 
ATOM     34  C   UNL     1      99.974  80.614  69.309  1.00  0.00     0.048 C 
BRANCH  27  35
ATOM     35  O   UNL     1      96.387  80.156  72.005  1.00  0.00    -0.381 OA
ATOM     36  H   UNL     1      95.554  79.663  71.904  1.00  0.00     0.212 HD
ENDBRANCH  27  35
ENDBRANCH  26  27
ENDBRANCH   2  26
ENDBRANCH   1   2
BRANCH   1  37
ATOM     37  O   UNL     1      97.618  75.364  74.771  1.00  0.00    -0.461 OA
BRANCH  37  38
ATOM     38  C   UNL     1      98.930  75.189  74.393  1.00  0.00     0.310 C 
ATOM     39  O   UNL     1      99.310  74.446  73.499  1.00  0.00    -0.252 OA
BRANCH  38  40
ATOM     40  C   UNL     1      99.821  76.054  75.252  1.00  0.00     0.158 C 
BRANCH  40  41
ATOM     41  C   UNL     1     101.114  76.422  74.573  1.00  0.00    -0.037 A 
ATOM     42  C   UNL     1     102.326  75.948  75.076  1.00  0.00     0.008 A 
ATOM     43  C   UNL     1     101.101  77.236  73.441  1.00  0.00     0.008 A 
ATOM     44  C   UNL     1     103.524  76.290  74.448  1.00  0.00     0.046 A 
ATOM     45  C   UNL     1     102.299  77.577  72.811  1.00  0.00     0.046 A 
ATOM     46  C   UNL     1     103.510  77.105  73.315  1.00  0.00     0.115 A 
BRANCH  46  47
ATOM     47  O   UNL     1     104.678  77.438  72.703  1.00  0.00    -0.508 OA
ATOM     48  H   UNL     1     104.633  78.368  72.421  1.00  0.00     0.293 HD
ENDBRANCH  46  47
ENDBRANCH  40  41
ENDBRANCH  38  40
ENDBRANCH  37  38
ENDBRANCH   1  37
TORSDOF 10
ENDMDL
MODEL 7
REMARK VINA RESULT:    -6.380     28.826     34.135
REMARK INTER + INTRA:         -11.735
REMARK INTER:                 -10.869
REMARK INTRA:                  -0.866
REMARK UNBOUND:                -0.880
REMARK SMILES C=C(C)[C@]12C[C@@H](C)[C@@]34O[C@](Cc5ccccc5)(O[C@@H]1[C@@H]3C=C(COC(=O)Cc1ccc(O)cc1)C[C@]1(O)C(=O)C(C)=C[C@@H]41)O2
REMARK SMILES IDX 23 1 22 2 21 3 20 4 9 5 8 6 10 7 6 8 18 10 44 11 19 12 5 13
REMARK SMILES IDX 7 14 4 15 11 16 12 17 13 18 17 19 14 20 16 21 15 22 2 23
REMARK SMILES IDX 3 24 1 25 35 26 36 27 43 28 38 29 42 30 39 32 40 33 41 34
REMARK SMILES IDX 37 35 24 37 25 38 26 39 27 40 28 41 29 42 34 43 30 44 33 45
REMARK SMILES IDX 31 46 32 47
REMARK H PARENT 37 36 32 48
REMARK Flexibility Score: 90.00
ROOT
ATOM      1  C   UNL     1      86.681  70.352  76.110  1.00  0.00     0.264 C 
ENDROOT
BRANCH   1   2
ATOM      2  C   UNL     1      86.164  68.945  76.298  1.00  0.00    -0.033 C 
ATOM      3  C   UNL     1      85.106  68.529  75.571  1.00  0.00    -0.015 C 
BRANCH   3   4
ATOM      4  C   UNL     1      84.357  67.207  75.626  1.00  0.00     0.078 C 
ATOM      5  O   UNL     1      85.399  65.718  73.949  1.00  0.00    -0.319 OA
ATOM      6  C   UNL     1      85.164  65.879  75.382  1.00  0.00     0.095 CG0
ATOM      7  C   UNL     1      84.275  66.026  73.102  1.00  0.00     0.289 C 
ATOM      8  C   UNL     1      84.276  64.676  75.905  1.00  0.00     0.023 C 
ATOM      9  G   UNL     1      86.589  65.976  76.001  1.00  0.00     0.000 G0
ATOM     10  O   UNL     1      83.820  67.360  73.310  1.00  0.00    -0.320 OA
ATOM     11  O   UNL     1      83.151  65.190  73.368  1.00  0.00    -0.313 OA
ATOM     12  C   UNL     1      83.199  67.216  74.597  1.00  0.00     0.170 C 
ATOM     13  C   UNL     1      82.755  64.957  75.703  1.00  0.00     0.049 C 
ATOM     14  C   UNL     1      84.621  63.296  75.320  1.00  0.00     0.011 C 
ATOM     15  C   UNL     1      82.501  65.839  74.480  1.00  0.00     0.122 C 
BRANCH   7  16
ATOM     16  C   UNL     1      84.705  65.849  71.659  1.00  0.00     0.135 C 
BRANCH  16  17
ATOM     17  C   UNL     1      83.535  65.564  70.751  1.00  0.00    -0.040 A 
ATOM     18  C   UNL     1      83.143  64.248  70.510  1.00  0.00     0.004 A 
ATOM     19  C   UNL     1      82.846  66.618  70.151  1.00  0.00     0.004 A 
ATOM     20  C   UNL     1      82.061  63.984  69.670  1.00  0.00     0.000 A 
ATOM     21  C   UNL     1      81.764  66.354  69.311  1.00  0.00     0.000 A 
ATOM     22  C   UNL     1      81.372  65.038  69.071  1.00  0.00     0.000 A 
ENDBRANCH  16  17
ENDBRANCH   7  16
BRANCH  15  23
ATOM     23  C   UNL     1      81.047  65.972  74.161  1.00  0.00    -0.046 C 
ATOM     24  C   UNL     1      80.678  65.898  72.709  1.00  0.00     0.042 C 
ATOM     25  C   UNL     1      80.124  66.149  75.118  1.00  0.00     0.010 C 
ENDBRANCH  15  23
ENDBRANCH   3   4
BRANCH   2  26
ATOM     26  C   UNL     1      86.950  68.153  77.326  1.00  0.00     0.078 C 
BRANCH  26  27
ATOM     27  C   UNL     1      86.681  66.652  77.405  1.00  0.00     0.140 C 
ATOM     28  C   UNL     1      86.601  65.998  76.010  1.00  0.00     0.086 CG0
ATOM     29  C   UNL     1      87.818  65.892  78.056  1.00  0.00     0.190 C 
ATOM     30  C   UNL     1      87.445  64.762  76.154  1.00  0.00    -0.010 C 
ATOM     31  G   UNL     1      85.180  65.884  75.386  1.00  0.00     0.000 G0
ATOM     32  O   UNL     1      88.359  66.193  79.110  1.00  0.00    -0.291 OA
ATOM     33  C   UNL     1      88.162  64.686  77.279  1.00  0.00    -0.008 C 
ATOM     34  C   UNL     1      89.146  63.673  77.714  1.00  0.00     0.048 C 
BRANCH  27  35
ATOM     35  O   UNL     1      85.566  66.368  78.235  1.00  0.00    -0.381 OA
ATOM     36  H   UNL     1      85.629  65.443  78.527  1.00  0.00     0.212 HD
ENDBRANCH  27  35
ENDBRANCH  26  27
ENDBRANCH   2  26
ENDBRANCH   1   2
BRANCH   1  37
ATOM     37  O   UNL     1      87.847  70.318  75.314  1.00  0.00    -0.461 OA
BRANCH  37  38
ATOM     38  C   UNL     1      88.551  71.496  75.217  1.00  0.00     0.310 C 
ATOM     39  O   UNL     1      89.592  71.743  75.809  1.00  0.00    -0.252 OA
BRANCH  38  40
ATOM     40  C   UNL     1      87.839  72.431  74.269  1.00  0.00     0.158 C 
BRANCH  40  41
ATOM     41  C   UNL     1      87.838  71.937  72.845  1.00  0.00    -0.037 A 
ATOM     42  C   UNL     1      86.644  71.537  72.246  1.00  0.00     0.008 A 
ATOM     43  C   UNL     1      89.032  71.878  72.127  1.00  0.00     0.008 A 
ATOM     44  C   UNL     1      86.643  71.078  70.928  1.00  0.00     0.046 A 
ATOM     45  C   UNL     1      89.032  71.419  70.809  1.00  0.00     0.046 A 
ATOM     46  C   UNL     1      87.838  71.019  70.210  1.00  0.00     0.115 A 
BRANCH  46  47
ATOM     47  O   UNL     1      87.837  70.571  68.925  1.00  0.00    -0.508 OA
ATOM     48  H   UNL     1      88.683  70.124  68.746  1.00  0.00     0.293 HD
ENDBRANCH  46  47
ENDBRANCH  40  41
ENDBRANCH  38  40
ENDBRANCH  37  38
ENDBRANCH   1  37
TORSDOF 10
ENDMDL
MODEL 8
REMARK VINA RESULT:    -6.362     29.134     33.169
REMARK INTER + INTRA:         -11.705
REMARK INTER:                 -10.337
REMARK INTRA:                  -1.368
REMARK UNBOUND:                -0.880
REMARK SMILES C=C(C)[C@]12C[C@@H](C)[C@@]34O[C@](Cc5ccccc5)(O[C@@H]1[C@@H]3C=C(COC(=O)Cc1ccc(O)cc1)C[C@]1(O)C(=O)C(C)=C[C@@H]41)O2
REMARK SMILES IDX 23 1 22 2 21 3 20 4 9 5 8 6 10 7 6 8 18 10 44 11 19 12 5 13
REMARK SMILES IDX 7 14 4 15 11 16 12 17 13 18 17 19 14 20 16 21 15 22 2 23
REMARK SMILES IDX 3 24 1 25 35 26 36 27 43 28 38 29 42 30 39 32 40 33 41 34
REMARK SMILES IDX 37 35 24 37 25 38 26 39 27 40 28 41 29 42 34 43 30 44 33 45
REMARK SMILES IDX 31 46 32 47
REMARK H PARENT 37 36 32 48
REMARK Flexibility Score: 90.00
ROOT
ATOM      1  C   UNL     1      82.014  67.827  74.651  1.00  0.00     0.264 C 
ENDROOT
BRANCH   1   2
ATOM      2  C   UNL     1      83.507  67.683  74.835  1.00  0.00    -0.033 C 
ATOM      3  C   UNL     1      84.319  67.816  73.766  1.00  0.00    -0.015 C 
BRANCH   3   4
ATOM      4  C   UNL     1      85.827  67.645  73.672  1.00  0.00     0.078 C 
ATOM      5  O   UNL     1      86.829  69.880  74.013  1.00  0.00    -0.319 OA
ATOM      6  C   UNL     1      86.740  68.539  74.588  1.00  0.00     0.095 CG0
ATOM      7  C   UNL     1      87.003  69.926  72.584  1.00  0.00     0.289 C 
ATOM      8  C   UNL     1      88.182  67.883  74.613  1.00  0.00     0.023 C 
ATOM      9  G   UNL     1      86.081  68.757  75.982  1.00  0.00     0.000 G0
ATOM     10  O   UNL     1      85.947  69.245  71.912  1.00  0.00    -0.320 OA
ATOM     11  O   UNL     1      88.205  69.285  72.163  1.00  0.00    -0.313 OA
ATOM     12  C   UNL     1      86.293  67.884  72.214  1.00  0.00     0.170 C 
ATOM     13  C   UNL     1      88.521  67.195  73.255  1.00  0.00     0.049 C 
ATOM     14  C   UNL     1      89.331  68.828  75.006  1.00  0.00     0.011 C 
ATOM     15  C   UNL     1      87.836  67.893  72.080  1.00  0.00     0.122 C 
BRANCH   7  16
ATOM     16  C   UNL     1      87.030  71.380  72.156  1.00  0.00     0.135 C 
BRANCH  16  17
ATOM     17  C   UNL     1      87.805  71.580  70.878  1.00  0.00    -0.040 A 
ATOM     18  C   UNL     1      89.164  71.888  70.927  1.00  0.00     0.004 A 
ATOM     19  C   UNL     1      87.162  71.456  69.647  1.00  0.00     0.004 A 
ATOM     20  C   UNL     1      89.881  72.073  69.744  1.00  0.00     0.000 A 
ATOM     21  C   UNL     1      87.879  71.640  68.464  1.00  0.00     0.000 A 
ATOM     22  C   UNL     1      89.238  71.948  68.513  1.00  0.00     0.000 A 
ENDBRANCH  16  17
ENDBRANCH   7  16
BRANCH  15  23
ATOM     23  C   UNL     1      88.287  67.366  70.757  1.00  0.00    -0.046 C 
ATOM     24  C   UNL     1      89.306  68.191  70.028  1.00  0.00     0.042 C 
ATOM     25  C   UNL     1      87.808  66.220  70.249  1.00  0.00     0.010 C 
ENDBRANCH  15  23
ENDBRANCH   3   4
BRANCH   2  26
ATOM     26  C   UNL     1      83.905  67.402  76.272  1.00  0.00     0.078 C 
BRANCH  26  27
ATOM     27  C   UNL     1      85.389  67.512  76.619  1.00  0.00     0.140 C 
ATOM     28  C   UNL     1      86.049  68.749  75.974  1.00  0.00     0.086 CG0
ATOM     29  C   UNL     1      85.623  67.751  78.095  1.00  0.00     0.190 C 
ATOM     30  C   UNL     1      86.847  69.346  77.100  1.00  0.00    -0.010 C 
ATOM     31  G   UNL     1      86.729  68.522  74.593  1.00  0.00     0.000 G0
ATOM     32  O   UNL     1      85.111  67.116  79.005  1.00  0.00    -0.291 OA
ATOM     33  C   UNL     1      86.609  68.827  78.308  1.00  0.00    -0.008 C 
ATOM     34  C   UNL     1      87.140  69.215  79.631  1.00  0.00     0.048 C 
BRANCH  27  35
ATOM     35  O   UNL     1      86.074  66.298  76.360  1.00  0.00    -0.381 OA
ATOM     36  H   UNL     1      86.589  66.405  75.543  1.00  0.00     0.212 HD
ENDBRANCH  27  35
ENDBRANCH  26  27
ENDBRANCH   2  26
ENDBRANCH   1   2
BRANCH   1  37
ATOM     37  O   UNL     1      81.351  66.863  75.442  1.00  0.00    -0.461 OA
BRANCH  37  38
ATOM     38  C   UNL     1      81.320  65.583  74.940  1.00  0.00     0.310 C 
ATOM     39  O   UNL     1      81.866  64.615  75.450  1.00  0.00    -0.252 OA
BRANCH  38  40
ATOM     40  C   UNL     1      80.508  65.561  73.666  1.00  0.00     0.158 C 
BRANCH  40  41
ATOM     41  C   UNL     1      81.362  65.517  72.426  1.00  0.00    -0.037 A 
ATOM     42  C   UNL     1      80.896  66.079  71.237  1.00  0.00     0.008 A 
ATOM     43  C   UNL     1      82.620  64.915  72.465  1.00  0.00     0.008 A 
ATOM     44  C   UNL     1      81.686  66.037  70.088  1.00  0.00     0.046 A 
ATOM     45  C   UNL     1      83.411  64.875  71.317  1.00  0.00     0.046 A 
ATOM     46  C   UNL     1      82.944  65.435  70.129  1.00  0.00     0.115 A 
BRANCH  46  47
ATOM     47  O   UNL     1      83.714  65.395  69.008  1.00  0.00    -0.508 OA
ATOM     48  H   UNL     1      84.600  65.736  69.221  1.00  0.00     0.293 HD
ENDBRANCH  46  47
ENDBRANCH  40  41
ENDBRANCH  38  40
ENDBRANCH  37  38
ENDBRANCH   1  37
TORSDOF 10
ENDMDL
MODEL 9
REMARK VINA RESULT:    -6.297     19.229     23.270
REMARK INTER + INTRA:         -11.594
REMARK INTER:                  -9.924
REMARK INTRA:                  -1.670
REMARK UNBOUND:                -0.880
REMARK SMILES C=C(C)[C@]12C[C@@H](C)[C@@]34O[C@](Cc5ccccc5)(O[C@@H]1[C@@H]3C=C(COC(=O)Cc1ccc(O)cc1)C[C@]1(O)C(=O)C(C)=C[C@@H]41)O2
REMARK SMILES IDX 23 1 22 2 21 3 20 4 9 5 8 6 10 7 6 8 18 10 44 11 19 12 5 13
REMARK SMILES IDX 7 14 4 15 11 16 12 17 13 18 17 19 14 20 16 21 15 22 2 23
REMARK SMILES IDX 3 24 1 25 35 26 36 27 43 28 38 29 42 30 39 32 40 33 41 34
REMARK SMILES IDX 37 35 24 37 25 38 26 39 27 40 28 41 29 42 34 43 30 44 33 45
REMARK SMILES IDX 31 46 32 47
REMARK H PARENT 37 36 32 48
REMARK Flexibility Score: 90.00
ROOT
ATOM      1  C   UNL     1      96.690  82.150  79.733  1.00  0.00     0.264 C 
ENDROOT
BRANCH   1   2
ATOM      2  C   UNL     1      97.617  81.760  78.605  1.00  0.00    -0.033 C 
ATOM      3  C   UNL     1      98.713  81.022  78.879  1.00  0.00    -0.015 C 
BRANCH   3   4
ATOM      4  C   UNL     1      99.828  80.569  77.949  1.00  0.00     0.078 C 
ATOM      5  O   UNL     1      99.198  78.332  77.103  1.00  0.00    -0.319 OA
ATOM      6  C   UNL     1      99.449  79.711  76.687  1.00  0.00     0.095 CG0
ATOM      7  C   UNL     1     100.131  77.800  78.064  1.00  0.00     0.289 C 
ATOM      8  C   UNL     1     100.685  79.742  75.697  1.00  0.00     0.023 C 
ATOM      9  G   UNL     1      98.095  80.185  76.082  1.00  0.00     0.000 G0
ATOM     10  O   UNL     1     100.172  78.599  79.243  1.00  0.00    -0.320 OA
ATOM     11  O   UNL     1     101.467  77.778  77.567  1.00  0.00    -0.313 OA
ATOM     12  C   UNL     1     100.874  79.748  78.744  1.00  0.00     0.170 C 
ATOM     13  C   UNL     1     102.037  79.812  76.471  1.00  0.00     0.049 C 
ATOM     14  C   UNL     1     100.742  78.594  74.674  1.00  0.00     0.011 C 
ATOM     15  C   UNL     1     101.948  79.113  77.828  1.00  0.00     0.122 C 
BRANCH   7  16
ATOM     16  C   UNL     1      99.699  76.390  78.413  1.00  0.00     0.135 C 
BRANCH  16  17
ATOM     17  C   UNL     1      98.999  76.326  79.748  1.00  0.00    -0.040 A 
ATOM     18  C   UNL     1      97.693  76.798  79.874  1.00  0.00     0.004 A 
ATOM     19  C   UNL     1      99.659  75.795  80.856  1.00  0.00     0.004 A 
ATOM     20  C   UNL     1      97.046  76.739  81.109  1.00  0.00     0.000 A 
ATOM     21  C   UNL     1      99.012  75.735  82.090  1.00  0.00     0.000 A 
ATOM     22  C   UNL     1      97.706  76.207  82.216  1.00  0.00     0.000 A 
ENDBRANCH  16  17
ENDBRANCH   7  16
BRANCH  15  23
ATOM     23  C   UNL     1     103.275  79.009  78.508  1.00  0.00    -0.046 C 
ATOM     24  C   UNL     1     104.347  78.277  77.757  1.00  0.00     0.042 C 
ATOM     25  C   UNL     1     103.495  79.540  79.719  1.00  0.00     0.010 C 
ENDBRANCH  15  23
ENDBRANCH   3   4
BRANCH   2  26
ATOM     26  C   UNL     1      97.160  82.273  77.253  1.00  0.00     0.078 C 
BRANCH  26  27
ATOM     27  C   UNL     1      97.879  81.729  76.020  1.00  0.00     0.140 C 
ATOM     28  C   UNL     1      98.085  80.201  76.091  1.00  0.00     0.086 CG0
ATOM     29  C   UNL     1      97.062  81.888  74.755  1.00  0.00     0.190 C 
ATOM     30  C   UNL     1      97.668  79.728  74.727  1.00  0.00    -0.010 C 
ATOM     31  G   UNL     1      99.440  79.720  76.686  1.00  0.00     0.000 G0
ATOM     32  O   UNL     1      96.508  82.916  74.394  1.00  0.00    -0.291 OA
ATOM     33  C   UNL     1      97.065  80.644  73.963  1.00  0.00    -0.008 C 
ATOM     34  C   UNL     1      96.460  80.514  72.621  1.00  0.00     0.048 C 
BRANCH  27  35
ATOM     35  O   UNL     1      99.066  82.455  75.750  1.00  0.00    -0.381 OA
ATOM     36  H   UNL     1      99.697  81.859  75.311  1.00  0.00     0.212 HD
ENDBRANCH  27  35
ENDBRANCH  26  27
ENDBRANCH   2  26
ENDBRANCH   1   2
BRANCH   1  37
ATOM     37  O   UNL     1      96.899  81.285  80.829  1.00  0.00    -0.461 OA
BRANCH  37  38
ATOM     38  C   UNL     1      96.565  81.783  82.068  1.00  0.00     0.310 C 
ATOM     39  O   UNL     1      96.278  82.948  82.302  1.00  0.00    -0.252 OA
BRANCH  38  40
ATOM     40  C   UNL     1      96.609  80.669  83.086  1.00  0.00     0.158 C 
BRANCH  40  41
ATOM     41  C   UNL     1      98.013  80.251  83.440  1.00  0.00    -0.037 A 
ATOM     42  C   UNL     1      98.761  79.489  82.542  1.00  0.00     0.008 A 
ATOM     43  C   UNL     1      98.565  80.625  84.664  1.00  0.00     0.008 A 
ATOM     44  C   UNL     1     100.060  79.100  82.869  1.00  0.00     0.046 A 
ATOM     45  C   UNL     1      99.865  80.237  84.992  1.00  0.00     0.046 A 
ATOM     46  C   UNL     1     100.612  79.475  84.094  1.00  0.00     0.115 A 
BRANCH  46  47
ATOM     47  O   UNL     1     101.879  79.096  84.414  1.00  0.00    -0.508 OA
ATOM     48  H   UNL     1     102.468  79.303  83.667  1.00  0.00     0.293 HD
ENDBRANCH  46  47
ENDBRANCH  40  41
ENDBRANCH  38  40
ENDBRANCH  37  38
ENDBRANCH   1  37
TORSDOF 10
ENDMDL
MODEL 10
REMARK VINA RESULT:    -6.271     17.765     21.708
REMARK INTER + INTRA:         -11.550
REMARK INTER:                  -9.696
REMARK INTRA:                  -1.854
REMARK UNBOUND:                -0.880
REMARK SMILES C=C(C)[C@]12C[C@@H](C)[C@@]34O[C@](Cc5ccccc5)(O[C@@H]1[C@@H]3C=C(COC(=O)Cc1ccc(O)cc1)C[C@]1(O)C(=O)C(C)=C[C@@H]41)O2
REMARK SMILES IDX 23 1 22 2 21 3 20 4 9 5 8 6 10 7 6 8 18 10 44 11 19 12 5 13
REMARK SMILES IDX 7 14 4 15 11 16 12 17 13 18 17 19 14 20 16 21 15 22 2 23
REMARK SMILES IDX 3 24 1 25 35 26 36 27 43 28 38 29 42 30 39 32 40 33 41 34
REMARK SMILES IDX 37 35 24 37 25 38 26 39 27 40 28 41 29 42 34 43 30 44 33 45
REMARK SMILES IDX 31 46 32 47
REMARK H PARENT 37 36 32 48
REMARK Flexibility Score: 90.00
ROOT
ATOM      1  C   UNL     1      97.218  77.146  77.008  1.00  0.00     0.264 C 
ENDROOT
BRANCH   1   2
ATOM      2  C   UNL     1      97.883  78.446  76.620  1.00  0.00    -0.033 C 
ATOM      3  C   UNL     1      98.885  78.430  75.717  1.00  0.00    -0.015 C 
BRANCH   3   4
ATOM      4  C   UNL     1      99.756  79.574  75.222  1.00  0.00     0.078 C 
ATOM      5  O   UNL     1      98.676  80.472  73.186  1.00  0.00    -0.319 OA
ATOM      6  C   UNL     1      99.055  80.814  74.556  1.00  0.00     0.095 CG0
ATOM      7  C   UNL     1      99.664  79.736  72.440  1.00  0.00     0.289 C 
ATOM      8  C   UNL     1     100.105  82.001  74.528  1.00  0.00     0.023 C 
ATOM      9  G   UNL     1      97.705  81.133  75.264  1.00  0.00     0.000 G0
ATOM     10  O   UNL     1     100.013  78.522  73.100  1.00  0.00    -0.320 OA
ATOM     11  O   UNL     1     100.884  80.460  72.295  1.00  0.00    -0.313 OA
ATOM     12  C   UNL     1     100.785  79.043  74.193  1.00  0.00     0.170 C 
ATOM     13  C   UNL     1     101.560  81.472  74.340  1.00  0.00     0.049 C 
ATOM     14  C   UNL     1      99.826  83.106  73.495  1.00  0.00     0.011 C 
ATOM     15  C   UNL     1     101.592  80.181  73.521  1.00  0.00     0.122 C 
BRANCH   7  16
ATOM     16  C   UNL     1      99.094  79.430  71.070  1.00  0.00     0.135 C 
BRANCH  16  17
ATOM     17  C   UNL     1     100.106  79.647  69.973  1.00  0.00    -0.040 A 
ATOM     18  C   UNL     1     100.718  78.554  69.362  1.00  0.00     0.004 A 
ATOM     19  C   UNL     1     100.430  80.943  69.571  1.00  0.00     0.004 A 
ATOM     20  C   UNL     1     101.655  78.755  68.347  1.00  0.00     0.000 A 
ATOM     21  C   UNL     1     101.366  81.144  68.556  1.00  0.00     0.000 A 
ATOM     22  C   UNL     1     101.978  80.050  67.945  1.00  0.00     0.000 A 
ENDBRANCH  16  17
ENDBRANCH   7  16
BRANCH  15  23
ATOM     23  C   UNL     1     102.982  79.756  73.175  1.00  0.00    -0.046 C 
ATOM     24  C   UNL     1     104.017  79.942  74.245  1.00  0.00     0.042 C 
ATOM     25  C   UNL     1     103.287  79.236  71.977  1.00  0.00     0.010 C 
ENDBRANCH  15  23
ENDBRANCH   3   4
BRANCH   2  26
ATOM     26  C   UNL     1      97.296  79.651  77.331  1.00  0.00     0.078 C 
BRANCH  26  27
ATOM     27  C   UNL     1      97.706  81.031  76.821  1.00  0.00     0.140 C 
ATOM     28  C   UNL     1      97.694  81.111  75.280  1.00  0.00     0.086 CG0
ATOM     29  C   UNL     1      96.719  82.111  77.211  1.00  0.00     0.190 C 
ATOM     30  C   UNL     1      96.986  82.408  75.003  1.00  0.00    -0.010 C 
ATOM     31  G   UNL     1      99.045  80.811  74.568  1.00  0.00     0.000 G0
ATOM     32  O   UNL     1      96.269  82.288  78.333  1.00  0.00    -0.291 OA
ATOM     33  C   UNL     1      96.403  82.980  76.061  1.00  0.00    -0.008 C 
ATOM     34  C   UNL     1      95.567  84.195  76.146  1.00  0.00     0.048 C 
BRANCH  27  35
ATOM     35  O   UNL     1      98.924  81.459  77.407  1.00  0.00    -0.381 OA
ATOM     36  H   UNL     1      99.132  80.867  78.150  1.00  0.00     0.212 HD
ENDBRANCH  27  35
ENDBRANCH  26  27
ENDBRANCH   2  26
ENDBRANCH   1   2
BRANCH   1  37
ATOM     37  O   UNL     1      98.110  76.381  77.790  1.00  0.00    -0.461 OA
BRANCH  37  38
ATOM     38  C   UNL     1      97.676  76.042  79.050  1.00  0.00     0.310 C 
ATOM     39  O   UNL     1      96.664  75.400  79.296  1.00  0.00    -0.252 OA
BRANCH  38  40
ATOM     40  C   UNL     1      98.640  76.584  80.078  1.00  0.00     0.158 C 
BRANCH  40  41
ATOM     41  C   UNL     1      98.418  78.043  80.380  1.00  0.00    -0.037 A 
ATOM     42  C   UNL     1      97.194  78.470  80.896  1.00  0.00     0.008 A 
ATOM     43  C   UNL     1      99.435  78.968  80.144  1.00  0.00     0.008 A 
ATOM     44  C   UNL     1      96.987  79.822  81.174  1.00  0.00     0.046 A 
ATOM     45  C   UNL     1      99.229  80.319  80.424  1.00  0.00     0.046 A 
ATOM     46  C   UNL     1      98.006  80.746  80.938  1.00  0.00     0.115 A 
BRANCH  46  47
ATOM     47  O   UNL     1      97.804  82.064  81.210  1.00  0.00    -0.508 OA
ATOM     48  H   UNL     1      97.813  82.192  82.175  1.00  0.00     0.293 HD
ENDBRANCH  46  47
ENDBRANCH  40  41
ENDBRANCH  38  40
ENDBRANCH  37  38
ENDBRANCH   1  37
TORSDOF 10
ENDMDL
