MODEL 1
REMARK VINA RESULT:    -5.087      0.000      0.000
REMARK INTER + INTRA:         -10.066
REMARK INTER:                  -8.210
REMARK INTRA:                  -1.856
REMARK UNBOUND:                -1.856
REMARK SMILES CCCCCCCCC(=O)NCc1ccc(O)c(OC)c1
REMARK SMILES IDX 7 1 6 2 5 3 4 4 3 5 2 6 1 7 8 8 9 9 10 10 11 11 12 13 13 14
REMARK SMILES IDX 21 15 14 16 18 17 15 18 16 19 19 20 20 21 17 22
REMARK H PARENT 11 12 17 23
REMARK Flexibility Score: inf
ROOT
ATOM      1  C   UNL     1      85.441  91.288  85.812  1.00  0.00     0.010 C 
ENDROOT
BRANCH   1   2
ATOM      2  C   UNL     1      84.957  90.323  84.691  1.00  0.00     0.001 C 
BRANCH   2   3
ATOM      3  C   UNL     1      83.430  90.453  84.420  1.00  0.00     0.000 C 
BRANCH   3   4
ATOM      4  C   UNL     1      82.574  89.355  85.113  1.00  0.00    -0.000 C 
BRANCH   4   5
ATOM      5  C   UNL     1      81.169  89.869  85.539  1.00  0.00    -0.000 C 
BRANCH   5   6
ATOM      6  C   UNL     1      80.018  89.145  84.790  1.00  0.00    -0.003 C 
ATOM      7  C   UNL     1      80.527  88.080  83.794  1.00  0.00     0.004 C 
ENDBRANCH   5   6
ENDBRANCH   4   5
ENDBRANCH   3   4
ENDBRANCH   2   3
ENDBRANCH   1   2
BRANCH   1   8
ATOM      8  C   UNL     1      84.402  92.379  86.194  1.00  0.00     0.100 C 
BRANCH   8   9
ATOM      9  C   UNL     1      83.783  92.098  87.512  1.00  0.00     0.220 C 
ATOM     10  O   UNL     1      82.978  92.937  87.983  1.00  0.00    -0.275 OA
ATOM     11  N   UNL     1      84.064  90.939  88.177  1.00  0.00    -0.352 N 
ATOM     12  H   UNL     1      84.787  90.378  87.752  1.00  0.00     0.163 HD
BRANCH  11  13
ATOM     13  C   UNL     1      83.428  90.490  89.378  1.00  0.00     0.151 C 
BRANCH  13  14
ATOM     14  C   UNL     1      82.211  89.667  89.143  1.00  0.00    -0.025 A 
ATOM     15  C   UNL     1      82.332  88.318  88.732  1.00  0.00     0.056 A 
ATOM     16  C   UNL     1      80.919  90.214  89.320  1.00  0.00     0.009 A 
ATOM     17  C   UNL     1      81.185  87.519  88.522  1.00  0.00     0.160 A 
ATOM     18  C   UNL     1      79.774  89.424  89.114  1.00  0.00     0.050 A 
ATOM     19  C   UNL     1      79.902  88.082  88.708  1.00  0.00     0.157 A 
BRANCH  17  20
ATOM     20  O   UNL     1      81.303  86.224  88.083  1.00  0.00    -0.493 OA
ATOM     21  C   UNL     1      82.040  86.083  86.856  1.00  0.00     0.278 C 
ENDBRANCH  17  20
BRANCH  19  22
ATOM     22  O   UNL     1      78.790  87.335  88.485  1.00  0.00    -0.504 OA
ATOM     23  H   UNL     1      78.015  87.820  88.777  1.00  0.00     0.293 HD
ENDBRANCH  19  22
ENDBRANCH  13  14
ENDBRANCH  11  13
ENDBRANCH   8   9
ENDBRANCH   1   8
TORSDOF 11
ENDMDL
MODEL 2
REMARK VINA RESULT:    -5.078      1.638      4.820
REMARK INTER + INTRA:         -10.052
REMARK INTER:                  -8.476
REMARK INTRA:                  -1.576
REMARK UNBOUND:                -1.856
REMARK SMILES CCCCCCCCC(=O)NCc1ccc(O)c(OC)c1
REMARK SMILES IDX 7 1 6 2 5 3 4 4 3 5 2 6 1 7 8 8 9 9 10 10 11 11 12 13 13 14
REMARK SMILES IDX 21 15 14 16 18 17 15 18 16 19 19 20 20 21 17 22
REMARK H PARENT 11 12 17 23
REMARK Flexibility Score: inf
ROOT
ATOM      1  C   UNL     1      82.128  85.938  86.610  1.00  0.00     0.010 C 
ENDROOT
BRANCH   1   2
ATOM      2  C   UNL     1      81.602  85.797  85.153  1.00  0.00     0.001 C 
BRANCH   2   3
ATOM      3  C   UNL     1      80.113  86.233  85.020  1.00  0.00     0.000 C 
BRANCH   3   4
ATOM      4  C   UNL     1      79.900  87.463  84.092  1.00  0.00    -0.000 C 
BRANCH   4   5
ATOM      5  C   UNL     1      81.167  88.358  83.983  1.00  0.00    -0.000 C 
BRANCH   5   6
ATOM      6  C   UNL     1      81.205  89.471  85.065  1.00  0.00    -0.003 C 
ATOM      7  C   UNL     1      79.818  90.098  85.329  1.00  0.00     0.004 C 
ENDBRANCH   5   6
ENDBRANCH   4   5
ENDBRANCH   3   4
ENDBRANCH   2   3
ENDBRANCH   1   2
BRANCH   1   8
ATOM      8  C   UNL     1      81.004  86.044  87.678  1.00  0.00     0.100 C 
BRANCH   8   9
ATOM      9  C   UNL     1      80.960  87.397  88.282  1.00  0.00     0.220 C 
ATOM     10  O   UNL     1      79.887  88.044  88.215  1.00  0.00    -0.275 OA
ATOM     11  N   UNL     1      82.053  87.908  88.920  1.00  0.00    -0.352 N 
ATOM     12  H   UNL     1      82.886  87.343  88.840  1.00  0.00     0.163 HD
BRANCH  11  13
ATOM     13  C   UNL     1      82.093  89.133  89.660  1.00  0.00     0.151 C 
BRANCH  13  14
ATOM     14  C   UNL     1      82.664  90.276  88.900  1.00  0.00    -0.025 A 
ATOM     15  C   UNL     1      83.721  90.065  87.983  1.00  0.00     0.056 A 
ATOM     16  C   UNL     1      82.168  91.588  89.079  1.00  0.00     0.009 A 
ATOM     17  C   UNL     1      84.262  91.140  87.240  1.00  0.00     0.160 A 
ATOM     18  C   UNL     1      82.701  92.661  88.343  1.00  0.00     0.050 A 
ATOM     19  C   UNL     1      83.751  92.444  87.430  1.00  0.00     0.157 A 
BRANCH  17  20
ATOM     20  O   UNL     1      85.315  90.941  86.383  1.00  0.00    -0.493 OA
ATOM     21  C   UNL     1      85.430  89.592  85.895  1.00  0.00     0.278 C 
ENDBRANCH  17  20
BRANCH  19  22
ATOM     22  O   UNL     1      84.277  93.490  86.744  1.00  0.00    -0.504 OA
ATOM     23  H   UNL     1      85.136  93.713  87.110  1.00  0.00     0.293 HD
ENDBRANCH  19  22
ENDBRANCH  13  14
ENDBRANCH  11  13
ENDBRANCH   8   9
ENDBRANCH   1   8
TORSDOF 11
ENDMDL
MODEL 3
REMARK VINA RESULT:    -5.013      2.331      4.834
REMARK INTER + INTRA:          -9.945
REMARK INTER:                  -8.593
REMARK INTRA:                  -1.352
REMARK UNBOUND:                -1.856
REMARK SMILES CCCCCCCCC(=O)NCc1ccc(O)c(OC)c1
REMARK SMILES IDX 7 1 6 2 5 3 4 4 3 5 2 6 1 7 8 8 9 9 10 10 11 11 12 13 13 14
REMARK SMILES IDX 21 15 14 16 18 17 15 18 16 19 19 20 20 21 17 22
REMARK H PARENT 11 12 17 23
REMARK Flexibility Score: inf
ROOT
ATOM      1  C   UNL     1      79.820  88.589  84.069  1.00  0.00     0.010 C 
ENDROOT
BRANCH   1   2
ATOM      2  C   UNL     1      80.888  89.710  83.920  1.00  0.00     0.001 C 
BRANCH   2   3
ATOM      3  C   UNL     1      81.819  89.807  85.164  1.00  0.00     0.000 C 
BRANCH   3   4
ATOM      4  C   UNL     1      83.206  89.134  84.963  1.00  0.00    -0.000 C 
BRANCH   4   5
ATOM      5  C   UNL     1      84.222  89.508  86.079  1.00  0.00    -0.000 C 
BRANCH   5   6
ATOM      6  C   UNL     1      85.481  90.227  85.523  1.00  0.00    -0.003 C 
ATOM      7  C   UNL     1      85.272  91.746  85.340  1.00  0.00     0.004 C 
ENDBRANCH   5   6
ENDBRANCH   4   5
ENDBRANCH   3   4
ENDBRANCH   2   3
ENDBRANCH   1   2
BRANCH   1   8
ATOM      8  C   UNL     1      80.290  87.199  83.555  1.00  0.00     0.100 C 
BRANCH   8   9
ATOM      9  C   UNL     1      80.745  86.336  84.672  1.00  0.00     0.220 C 
ATOM     10  O   UNL     1      81.553  85.411  84.418  1.00  0.00    -0.275 OA
ATOM     11  N   UNL     1      80.313  86.566  85.947  1.00  0.00    -0.352 N 
ATOM     12  H   UNL     1      79.601  87.277  86.024  1.00  0.00     0.163 HD
BRANCH  11  13
ATOM     13  C   UNL     1      80.784  85.899  87.122  1.00  0.00     0.151 C 
BRANCH  13  14
ATOM     14  C   UNL     1      80.841  86.770  88.326  1.00  0.00    -0.025 A 
ATOM     15  C   UNL     1      81.682  87.908  88.343  1.00  0.00     0.056 A 
ATOM     16  C   UNL     1      80.064  86.479  89.471  1.00  0.00     0.009 A 
ATOM     17  C   UNL     1      81.734  88.755  89.474  1.00  0.00     0.160 A 
ATOM     18  C   UNL     1      80.109  87.318  90.598  1.00  0.00     0.050 A 
ATOM     19  C   UNL     1      80.947  88.450  90.607  1.00  0.00     0.157 A 
BRANCH  17  20
ATOM     20  O   UNL     1      82.581  89.834  89.505  1.00  0.00    -0.493 OA
ATOM     21  C   UNL     1      82.117  90.969  88.754  1.00  0.00     0.278 C 
ENDBRANCH  17  20
BRANCH  19  22
ATOM     22  O   UNL     1      81.004  89.238  91.711  1.00  0.00    -0.504 OA
ATOM     23  H   UNL     1      80.144  89.255  92.137  1.00  0.00     0.293 HD
ENDBRANCH  19  22
ENDBRANCH  13  14
ENDBRANCH  11  13
ENDBRANCH   8   9
ENDBRANCH   1   8
TORSDOF 11
ENDMDL
MODEL 4
REMARK VINA RESULT:    -4.958     18.111     21.056
REMARK INTER + INTRA:          -9.858
REMARK INTER:                  -8.876
REMARK INTRA:                  -0.982
REMARK UNBOUND:                -1.856
REMARK SMILES CCCCCCCCC(=O)NCc1ccc(O)c(OC)c1
REMARK SMILES IDX 7 1 6 2 5 3 4 4 3 5 2 6 1 7 8 8 9 9 10 10 11 11 12 13 13 14
REMARK SMILES IDX 21 15 14 16 18 17 15 18 16 19 19 20 20 21 17 22
REMARK H PARENT 11 12 17 23
REMARK Flexibility Score: inf
ROOT
ATOM      1  C   UNL     1      62.813  83.518  75.689  1.00  0.00     0.010 C 
ENDROOT
BRANCH   1   2
ATOM      2  C   UNL     1      62.176  83.194  74.307  1.00  0.00     0.001 C 
BRANCH   2   3
ATOM      3  C   UNL     1      62.105  81.663  74.035  1.00  0.00     0.000 C 
BRANCH   3   4
ATOM      4  C   UNL     1      62.683  81.243  72.654  1.00  0.00    -0.000 C 
BRANCH   4   5
ATOM      5  C   UNL     1      64.183  80.840  72.728  1.00  0.00    -0.000 C 
BRANCH   5   6
ATOM      6  C   UNL     1      64.618  80.425  74.160  1.00  0.00    -0.003 C 
ATOM      7  C   UNL     1      66.150  80.466  74.357  1.00  0.00     0.004 C 
ENDBRANCH   5   6
ENDBRANCH   4   5
ENDBRANCH   3   4
ENDBRANCH   2   3
ENDBRANCH   1   2
BRANCH   1   8
ATOM      8  C   UNL     1      64.232  84.146  75.597  1.00  0.00     0.100 C 
BRANCH   8   9
ATOM      9  C   UNL     1      64.357  85.329  76.482  1.00  0.00     0.220 C 
ATOM     10  O   UNL     1      63.307  85.881  76.890  1.00  0.00    -0.275 OA
ATOM     11  N   UNL     1      65.587  85.783  76.863  1.00  0.00    -0.352 N 
ATOM     12  H   UNL     1      66.362  85.321  76.410  1.00  0.00     0.163 HD
BRANCH  11  13
ATOM     13  C   UNL     1      65.837  86.818  77.819  1.00  0.00     0.151 C 
BRANCH  13  14
ATOM     14  C   UNL     1      65.911  86.335  79.224  1.00  0.00    -0.025 A 
ATOM     15  C   UNL     1      64.886  86.660  80.144  1.00  0.00     0.056 A 
ATOM     16  C   UNL     1      67.002  85.551  79.666  1.00  0.00     0.009 A 
ATOM     17  C   UNL     1      64.935  86.193  81.478  1.00  0.00     0.160 A 
ATOM     18  C   UNL     1      67.056  85.084  80.991  1.00  0.00     0.050 A 
ATOM     19  C   UNL     1      66.031  85.408  81.900  1.00  0.00     0.157 A 
BRANCH  17  20
ATOM     20  O   UNL     1      63.962  86.544  82.379  1.00  0.00    -0.493 OA
ATOM     21  C   UNL     1      64.059  87.899  82.854  1.00  0.00     0.278 C 
ENDBRANCH  17  20
BRANCH  19  22
ATOM     22  O   UNL     1      66.106  84.974  83.184  1.00  0.00    -0.504 OA
ATOM     23  H   UNL     1      65.343  84.425  83.382  1.00  0.00     0.293 HD
ENDBRANCH  19  22
ENDBRANCH  13  14
ENDBRANCH  11  13
ENDBRANCH   8   9
ENDBRANCH   1   8
TORSDOF 11
ENDMDL
MODEL 5
REMARK VINA RESULT:    -4.925      2.494      4.685
REMARK INTER + INTRA:          -9.804
REMARK INTER:                  -7.767
REMARK INTRA:                  -2.037
REMARK UNBOUND:                -1.856
REMARK SMILES CCCCCCCCC(=O)NCc1ccc(O)c(OC)c1
REMARK SMILES IDX 7 1 6 2 5 3 4 4 3 5 2 6 1 7 8 8 9 9 10 10 11 11 12 13 13 14
REMARK SMILES IDX 21 15 14 16 18 17 15 18 16 19 19 20 20 21 17 22
REMARK H PARENT 11 12 17 23
REMARK Flexibility Score: inf
ROOT
ATOM      1  C   UNL     1      79.916  86.843  84.505  1.00  0.00     0.010 C 
ENDROOT
BRANCH   1   2
ATOM      2  C   UNL     1      80.147  88.071  83.577  1.00  0.00     0.001 C 
BRANCH   2   3
ATOM      3  C   UNL     1      80.998  89.178  84.266  1.00  0.00     0.000 C 
BRANCH   3   4
ATOM      4  C   UNL     1      80.384  89.705  85.594  1.00  0.00    -0.000 C 
BRANCH   4   5
ATOM      5  C   UNL     1      81.464  90.116  86.634  1.00  0.00    -0.000 C 
BRANCH   5   6
ATOM      6  C   UNL     1      82.816  89.386  86.409  1.00  0.00    -0.003 C 
ATOM      7  C   UNL     1      83.968  89.985  87.245  1.00  0.00     0.004 C 
ENDBRANCH   5   6
ENDBRANCH   4   5
ENDBRANCH   3   4
ENDBRANCH   2   3
ENDBRANCH   1   2
BRANCH   1   8
ATOM      8  C   UNL     1      81.101  85.838  84.527  1.00  0.00     0.100 C 
BRANCH   8   9
ATOM      9  C   UNL     1      81.801  85.856  85.834  1.00  0.00     0.220 C 
ATOM     10  O   UNL     1      83.052  85.775  85.840  1.00  0.00    -0.275 OA
ATOM     11  N   UNL     1      81.096  85.988  86.996  1.00  0.00    -0.352 N 
ATOM     12  H   UNL     1      80.094  85.957  86.882  1.00  0.00     0.163 HD
BRANCH  11  13
ATOM     13  C   UNL     1      81.660  86.160  88.300  1.00  0.00     0.151 C 
BRANCH  13  14
ATOM     14  C   UNL     1      81.129  87.340  89.034  1.00  0.00    -0.025 A 
ATOM     15  C   UNL     1      81.985  88.113  89.854  1.00  0.00     0.056 A 
ATOM     16  C   UNL     1      79.767  87.707  88.931  1.00  0.00     0.009 A 
ATOM     17  C   UNL     1      81.498  89.247  90.544  1.00  0.00     0.160 A 
ATOM     18  C   UNL     1      79.277  88.834  89.614  1.00  0.00     0.050 A 
ATOM     19  C   UNL     1      80.135  89.601  90.426  1.00  0.00     0.157 A 
BRANCH  17  20
ATOM     20  O   UNL     1      82.319  89.971  91.371  1.00  0.00    -0.493 OA
ATOM     21  C   UNL     1      83.333  89.188  92.026  1.00  0.00     0.278 C 
ENDBRANCH  17  20
BRANCH  19  22
ATOM     22  O   UNL     1      79.646  90.672  91.103  1.00  0.00    -0.504 OA
ATOM     23  H   UNL     1      78.841  90.977  90.679  1.00  0.00     0.293 HD
ENDBRANCH  19  22
ENDBRANCH  13  14
ENDBRANCH  11  13
ENDBRANCH   8   9
ENDBRANCH   1   8
TORSDOF 11
ENDMDL
MODEL 6
REMARK VINA RESULT:    -4.920     24.916     26.613
REMARK INTER + INTRA:          -9.797
REMARK INTER:                  -8.960
REMARK INTRA:                  -0.836
REMARK UNBOUND:                -1.856
REMARK SMILES CCCCCCCCC(=O)NCc1ccc(O)c(OC)c1
REMARK SMILES IDX 7 1 6 2 5 3 4 4 3 5 2 6 1 7 8 8 9 9 10 10 11 11 12 13 13 14
REMARK SMILES IDX 21 15 14 16 18 17 15 18 16 19 19 20 20 21 17 22
REMARK H PARENT 11 12 17 23
REMARK Flexibility Score: inf
ROOT
ATOM      1  C   UNL     1      81.497  66.335  75.056  1.00  0.00     0.010 C 
ENDROOT
BRANCH   1   2
ATOM      2  C   UNL     1      80.153  66.208  74.283  1.00  0.00     0.001 C 
BRANCH   2   3
ATOM      3  C   UNL     1      80.187  65.065  73.226  1.00  0.00     0.000 C 
BRANCH   3   4
ATOM      4  C   UNL     1      80.495  65.554  71.783  1.00  0.00    -0.000 C 
BRANCH   4   5
ATOM      5  C   UNL     1      80.265  67.082  71.605  1.00  0.00    -0.000 C 
BRANCH   5   6
ATOM      6  C   UNL     1      81.501  67.804  71.003  1.00  0.00    -0.003 C 
ATOM      7  C   UNL     1      82.481  68.316  72.081  1.00  0.00     0.004 C 
ENDBRANCH   5   6
ENDBRANCH   4   5
ENDBRANCH   3   4
ENDBRANCH   2   3
ENDBRANCH   1   2
BRANCH   1   8
ATOM      8  C   UNL     1      81.674  65.285  76.189  1.00  0.00     0.100 C 
BRANCH   8   9
ATOM      9  C   UNL     1      83.091  64.872  76.326  1.00  0.00     0.220 C 
ATOM     10  O   UNL     1      83.936  65.375  75.547  1.00  0.00    -0.275 OA
ATOM     11  N   UNL     1      83.465  63.987  77.296  1.00  0.00    -0.352 N 
ATOM     12  H   UNL     1      82.696  63.580  77.809  1.00  0.00     0.163 HD
BRANCH  11  13
ATOM     13  C   UNL     1      84.809  63.620  77.619  1.00  0.00     0.151 C 
BRANCH  13  14
ATOM     14  C   UNL     1      85.261  64.102  78.952  1.00  0.00    -0.025 A 
ATOM     15  C   UNL     1      85.976  65.319  79.064  1.00  0.00     0.056 A 
ATOM     16  C   UNL     1      84.990  63.359  80.124  1.00  0.00     0.009 A 
ATOM     17  C   UNL     1      86.397  65.799  80.326  1.00  0.00     0.160 A 
ATOM     18  C   UNL     1      85.405  63.832  81.382  1.00  0.00     0.050 A 
ATOM     19  C   UNL     1      86.114  65.044  81.486  1.00  0.00     0.157 A 
BRANCH  17  20
ATOM     20  O   UNL     1      87.127  66.956  80.428  1.00  0.00    -0.493 OA
ATOM     21  C   UNL     1      88.536  66.787  80.194  1.00  0.00     0.278 C 
ENDBRANCH  17  20
BRANCH  19  22
ATOM     22  O   UNL     1      86.534  65.478  82.702  1.00  0.00    -0.504 OA
ATOM     23  H   UNL     1      87.492  65.437  82.743  1.00  0.00     0.293 HD
ENDBRANCH  19  22
ENDBRANCH  13  14
ENDBRANCH  11  13
ENDBRANCH   8   9
ENDBRANCH   1   8
TORSDOF 11
ENDMDL
MODEL 7
REMARK VINA RESULT:    -4.763     24.080     26.774
REMARK INTER + INTRA:          -9.543
REMARK INTER:                  -7.703
REMARK INTRA:                  -1.840
REMARK UNBOUND:                -1.856
REMARK SMILES CCCCCCCCC(=O)NCc1ccc(O)c(OC)c1
REMARK SMILES IDX 7 1 6 2 5 3 4 4 3 5 2 6 1 7 8 8 9 9 10 10 11 11 12 13 13 14
REMARK SMILES IDX 21 15 14 16 18 17 15 18 16 19 19 20 20 21 17 22
REMARK H PARENT 11 12 17 23
REMARK Flexibility Score: inf
ROOT
ATOM      1  C   UNL     1      80.526  67.162  72.295  1.00  0.00     0.010 C 
ENDROOT
BRANCH   1   2
ATOM      2  C   UNL     1      81.285  67.648  71.027  1.00  0.00     0.001 C 
BRANCH   2   3
ATOM      3  C   UNL     1      82.730  68.128  71.353  1.00  0.00     0.000 C 
BRANCH   3   4
ATOM      4  C   UNL     1      83.152  67.889  72.830  1.00  0.00    -0.000 C 
BRANCH   4   5
ATOM      5  C   UNL     1      84.411  66.985  72.956  1.00  0.00    -0.000 C 
BRANCH   5   6
ATOM      6  C   UNL     1      84.260  65.642  72.191  1.00  0.00    -0.003 C 
ATOM      7  C   UNL     1      83.938  64.454  73.123  1.00  0.00     0.004 C 
ENDBRANCH   5   6
ENDBRANCH   4   5
ENDBRANCH   3   4
ENDBRANCH   2   3
ENDBRANCH   1   2
BRANCH   1   8
ATOM      8  C   UNL     1      80.183  65.646  72.281  1.00  0.00     0.100 C 
BRANCH   8   9
ATOM      9  C   UNL     1      80.310  65.051  73.633  1.00  0.00     0.220 C 
ATOM     10  O   UNL     1      79.847  63.901  73.823  1.00  0.00    -0.275 OA
ATOM     11  N   UNL     1      80.943  65.731  74.634  1.00  0.00    -0.352 N 
ATOM     12  H   UNL     1      81.199  66.678  74.397  1.00  0.00     0.163 HD
BRANCH  11  13
ATOM     13  C   UNL     1      81.252  65.212  75.931  1.00  0.00     0.151 C 
BRANCH  13  14
ATOM     14  C   UNL     1      82.610  65.577  76.416  1.00  0.00    -0.025 A 
ATOM     15  C   UNL     1      83.014  66.933  76.451  1.00  0.00     0.056 A 
ATOM     16  C   UNL     1      83.520  64.583  76.845  1.00  0.00     0.009 A 
ATOM     17  C   UNL     1      84.295  67.296  76.926  1.00  0.00     0.160 A 
ATOM     18  C   UNL     1      84.795  64.938  77.320  1.00  0.00     0.050 A 
ATOM     19  C   UNL     1      85.189  66.289  77.355  1.00  0.00     0.157 A 
BRANCH  17  20
ATOM     20  O   UNL     1      84.700  68.607  76.920  1.00  0.00    -0.493 OA
ATOM     21  C   UNL     1      85.508  68.968  75.786  1.00  0.00     0.278 C 
ENDBRANCH  17  20
BRANCH  19  22
ATOM     22  O   UNL     1      86.433  66.619  77.789  1.00  0.00    -0.504 OA
ATOM     23  H   UNL     1      87.084  66.320  77.150  1.00  0.00     0.293 HD
ENDBRANCH  19  22
ENDBRANCH  13  14
ENDBRANCH  11  13
ENDBRANCH   8   9
ENDBRANCH   1   8
TORSDOF 11
ENDMDL
MODEL 8
REMARK VINA RESULT:    -4.742      2.768      5.100
REMARK INTER + INTRA:          -9.508
REMARK INTER:                  -8.342
REMARK INTRA:                  -1.166
REMARK UNBOUND:                -1.856
REMARK SMILES CCCCCCCCC(=O)NCc1ccc(O)c(OC)c1
REMARK SMILES IDX 7 1 6 2 5 3 4 4 3 5 2 6 1 7 8 8 9 9 10 10 11 11 12 13 13 14
REMARK SMILES IDX 21 15 14 16 18 17 15 18 16 19 19 20 20 21 17 22
REMARK H PARENT 11 12 17 23
REMARK Flexibility Score: inf
ROOT
ATOM      1  C   UNL     1      81.034  89.759  84.350  1.00  0.00     0.010 C 
ENDROOT
BRANCH   1   2
ATOM      2  C   UNL     1      79.912  88.753  84.735  1.00  0.00     0.001 C 
BRANCH   2   3
ATOM      3  C   UNL     1      79.956  87.461  83.866  1.00  0.00     0.000 C 
BRANCH   3   4
ATOM      4  C   UNL     1      80.424  86.199  84.644  1.00  0.00    -0.000 C 
BRANCH   4   5
ATOM      5  C   UNL     1      80.176  86.311  86.175  1.00  0.00    -0.000 C 
BRANCH   5   6
ATOM      6  C   UNL     1      81.489  86.236  86.999  1.00  0.00    -0.003 C 
ATOM      7  C   UNL     1      82.671  85.652  86.194  1.00  0.00     0.004 C 
ENDBRANCH   5   6
ENDBRANCH   4   5
ENDBRANCH   3   4
ENDBRANCH   2   3
ENDBRANCH   1   2
BRANCH   1   8
ATOM      8  C   UNL     1      82.470  89.178  84.475  1.00  0.00     0.100 C 
BRANCH   8   9
ATOM      9  C   UNL     1      83.314  90.009  85.367  1.00  0.00     0.220 C 
ATOM     10  O   UNL     1      84.019  90.909  84.851  1.00  0.00    -0.275 OA
ATOM     11  N   UNL     1      83.296  89.814  86.719  1.00  0.00    -0.352 N 
ATOM     12  H   UNL     1      82.764  89.010  87.017  1.00  0.00     0.163 HD
BRANCH  11  13
ATOM     13  C   UNL     1      83.951  90.635  87.690  1.00  0.00     0.151 C 
BRANCH  13  14
ATOM     14  C   UNL     1      83.085  91.704  88.255  1.00  0.00    -0.025 A 
ATOM     15  C   UNL     1      83.369  93.065  87.991  1.00  0.00     0.056 A 
ATOM     16  C   UNL     1      81.971  91.385  89.065  1.00  0.00     0.009 A 
ATOM     17  C   UNL     1      82.545  94.092  88.507  1.00  0.00     0.160 A 
ATOM     18  C   UNL     1      81.146  92.401  89.580  1.00  0.00     0.050 A 
ATOM     19  C   UNL     1      81.433  93.753  89.311  1.00  0.00     0.157 A 
BRANCH  17  20
ATOM     20  O   UNL     1      82.846  95.412  88.285  1.00  0.00    -0.493 OA
ATOM     21  C   UNL     1      83.661  95.642  87.122  1.00  0.00     0.278 C 
ENDBRANCH  17  20
BRANCH  19  22
ATOM     22  O   UNL     1      80.647  94.728  89.836  1.00  0.00    -0.504 OA
ATOM     23  H   UNL     1      80.059  95.065  89.156  1.00  0.00     0.293 HD
ENDBRANCH  19  22
ENDBRANCH  13  14
ENDBRANCH  11  13
ENDBRANCH   8   9
ENDBRANCH   1   8
TORSDOF 11
ENDMDL
MODEL 9
REMARK VINA RESULT:    -4.647      2.093      3.437
REMARK INTER + INTRA:          -9.356
REMARK INTER:                  -7.989
REMARK INTRA:                  -1.367
REMARK UNBOUND:                -1.856
REMARK SMILES CCCCCCCCC(=O)NCc1ccc(O)c(OC)c1
REMARK SMILES IDX 7 1 6 2 5 3 4 4 3 5 2 6 1 7 8 8 9 9 10 10 11 11 12 13 13 14
REMARK SMILES IDX 21 15 14 16 18 17 15 18 16 19 19 20 20 21 17 22
REMARK H PARENT 11 12 17 23
REMARK Flexibility Score: inf
ROOT
ATOM      1  C   UNL     1      81.730  89.917  84.466  1.00  0.00     0.010 C 
ENDROOT
BRANCH   1   2
ATOM      2  C   UNL     1      80.456  89.109  84.847  1.00  0.00     0.001 C 
BRANCH   2   3
ATOM      3  C   UNL     1      80.165  87.959  83.839  1.00  0.00     0.000 C 
BRANCH   3   4
ATOM      4  C   UNL     1      80.697  86.572  84.299  1.00  0.00    -0.000 C 
BRANCH   4   5
ATOM      5  C   UNL     1      80.251  86.207  85.744  1.00  0.00    -0.000 C 
BRANCH   5   6
ATOM      6  C   UNL     1      81.437  86.182  86.745  1.00  0.00    -0.003 C 
ATOM      7  C   UNL     1      82.746  85.664  86.112  1.00  0.00     0.004 C 
ENDBRANCH   5   6
ENDBRANCH   4   5
ENDBRANCH   3   4
ENDBRANCH   2   3
ENDBRANCH   1   2
BRANCH   1   8
ATOM      8  C   UNL     1      83.050  89.309  85.020  1.00  0.00     0.100 C 
BRANCH   8   9
ATOM      9  C   UNL     1      83.439  89.942  86.303  1.00  0.00     0.220 C 
ATOM     10  O   UNL     1      83.945  91.090  86.271  1.00  0.00    -0.275 OA
ATOM     11  N   UNL     1      83.221  89.300  87.488  1.00  0.00    -0.352 N 
ATOM     12  H   UNL     1      82.891  88.350  87.393  1.00  0.00     0.163 HD
BRANCH  11  13
ATOM     13  C   UNL     1      83.420  89.858  88.790  1.00  0.00     0.151 C 
BRANCH  13  14
ATOM     14  C   UNL     1      82.743  89.103  89.878  1.00  0.00    -0.025 A 
ATOM     15  C   UNL     1      81.416  88.642  89.706  1.00  0.00     0.056 A 
ATOM     16  C   UNL     1      83.405  88.836  91.098  1.00  0.00     0.009 A 
ATOM     17  C   UNL     1      80.766  87.907  90.724  1.00  0.00     0.160 A 
ATOM     18  C   UNL     1      82.764  88.105  92.115  1.00  0.00     0.050 A 
ATOM     19  C   UNL     1      81.445  87.647  91.936  1.00  0.00     0.157 A 
BRANCH  17  20
ATOM     20  O   UNL     1      79.465  87.498  90.572  1.00  0.00    -0.493 OA
ATOM     21  C   UNL     1      79.016  87.460  89.206  1.00  0.00     0.278 C 
ENDBRANCH  17  20
BRANCH  19  22
ATOM     22  O   UNL     1      80.825  86.966  92.933  1.00  0.00    -0.504 OA
ATOM     23  H   UNL     1      81.340  87.042  93.740  1.00  0.00     0.293 HD
ENDBRANCH  19  22
ENDBRANCH  13  14
ENDBRANCH  11  13
ENDBRANCH   8   9
ENDBRANCH   1   8
TORSDOF 11
ENDMDL
MODEL 10
REMARK VINA RESULT:    -4.389     23.654     26.551
REMARK INTER + INTRA:          -8.940
REMARK INTER:                  -7.174
REMARK INTRA:                  -1.766
REMARK UNBOUND:                -1.856
REMARK SMILES CCCCCCCCC(=O)NCc1ccc(O)c(OC)c1
REMARK SMILES IDX 7 1 6 2 5 3 4 4 3 5 2 6 1 7 8 8 9 9 10 10 11 11 12 13 13 14
REMARK SMILES IDX 21 15 14 16 18 17 15 18 16 19 19 20 20 21 17 22
REMARK H PARENT 11 12 17 23
REMARK Flexibility Score: inf
ROOT
ATOM      1  C   UNL     1      80.181  64.998  73.907  1.00  0.00     0.010 C 
ENDROOT
BRANCH   1   2
ATOM      2  C   UNL     1      80.179  65.567  72.459  1.00  0.00     0.001 C 
BRANCH   2   3
ATOM      3  C   UNL     1      80.566  67.075  72.417  1.00  0.00     0.000 C 
BRANCH   3   4
ATOM      4  C   UNL     1      81.673  67.409  71.378  1.00  0.00    -0.000 C 
BRANCH   4   5
ATOM      5  C   UNL     1      82.080  66.179  70.518  1.00  0.00    -0.000 C 
BRANCH   5   6
ATOM      6  C   UNL     1      83.609  65.909  70.550  1.00  0.00    -0.003 C 
ATOM      7  C   UNL     1      84.045  65.077  71.775  1.00  0.00     0.004 C 
ENDBRANCH   5   6
ENDBRANCH   4   5
ENDBRANCH   3   4
ENDBRANCH   2   3
ENDBRANCH   1   2
BRANCH   1   8
ATOM      8  C   UNL     1      81.423  64.125  74.238  1.00  0.00     0.100 C 
BRANCH   8   9
ATOM      9  C   UNL     1      82.277  64.768  75.266  1.00  0.00     0.220 C 
ATOM     10  O   UNL     1      83.110  64.057  75.877  1.00  0.00    -0.275 OA
ATOM     11  N   UNL     1      82.174  66.106  75.515  1.00  0.00    -0.352 N 
ATOM     12  H   UNL     1      81.415  66.564  75.031  1.00  0.00     0.163 HD
BRANCH  11  13
ATOM     13  C   UNL     1      83.032  66.865  76.373  1.00  0.00     0.151 C 
BRANCH  13  14
ATOM     14  C   UNL     1      84.029  67.695  75.646  1.00  0.00    -0.025 A 
ATOM     15  C   UNL     1      84.979  68.459  76.365  1.00  0.00     0.056 A 
ATOM     16  C   UNL     1      84.046  67.739  74.233  1.00  0.00     0.009 A 
ATOM     17  C   UNL     1      85.944  69.239  75.687  1.00  0.00     0.160 A 
ATOM     18  C   UNL     1      85.004  68.511  73.553  1.00  0.00     0.050 A 
ATOM     19  C   UNL     1      85.948  69.268  74.274  1.00  0.00     0.157 A 
BRANCH  17  20
ATOM     20  O   UNL     1      86.837  70.013  76.385  1.00  0.00    -0.493 OA
ATOM     21  C   UNL     1      87.858  69.263  77.067  1.00  0.00     0.278 C 
ENDBRANCH  17  20
BRANCH  19  22
ATOM     22  O   UNL     1      86.851  70.032  73.609  1.00  0.00    -0.504 OA
ATOM     23  H   UNL     1      87.695  69.576  73.577  1.00  0.00     0.293 HD
ENDBRANCH  19  22
ENDBRANCH  13  14
ENDBRANCH  11  13
ENDBRANCH   8   9
ENDBRANCH   1   8
TORSDOF 11
ENDMDL
