MODEL 1
REMARK VINA RESULT:    -6.160      0.000      0.000
REMARK INTER + INTRA:         -12.331
REMARK INTER:                 -10.841
REMARK INTRA:                  -1.490
REMARK UNBOUND:                -1.490
REMARK SMILES C=C(C)[C@]12C[C@@H](C)[C@@]34O[C@](Cc5ccccc5)(O[C@@H]1[C@@H]3C=C(COC(=O)Cc1ccc(O)c(OC)c1)C[C@]1(O)C(=O)C(C)=C[C@@H]41)O2
REMARK SMILES IDX 23 1 22 2 21 3 20 4 9 5 8 6 10 7 6 8 18 9 46 10 19 11 5 12
REMARK SMILES IDX 7 13 4 14 45 15 38 16 44 17 40 18 42 20 41 21 43 22 39 23
REMARK SMILES IDX 11 25 12 26 13 27 17 28 14 29 16 30 15 31 2 32 3 33 1 34
REMARK SMILES IDX 37 35 24 37 25 38 26 39 27 40 28 41 36 42 29 43 33 44 30 45
REMARK SMILES IDX 31 46 34 47 35 48 32 49
REMARK H PARENT 39 24 32 50
REMARK Flexibility Score: 90.00
ROOT
ATOM      1  C   UNL     1      90.361  99.807  69.726  1.00  0.00     0.264 C 
ENDROOT
BRANCH   1   2
ATOM      2  C   UNL     1      91.583 100.680  69.899  1.00  0.00    -0.033 C 
ATOM      3  C   UNL     1      92.074 100.888  71.137  1.00  0.00    -0.015 C 
BRANCH   3   4
ATOM      4  C   UNL     1      93.227 101.773  71.582  1.00  0.00     0.078 C 
ATOM      5  O   UNL     1      95.257 100.359  71.593  1.00  0.00    -0.319 OA
ATOM      6  C   UNL     1      94.648 101.523  70.952  1.00  0.00     0.095 C 
ATOM      7  C   UNL     1      95.098 100.289  73.022  1.00  0.00     0.289 C 
ATOM      8  C   UNL     1      95.534 102.804  71.244  1.00  0.00     0.023 C 
ATOM      9  O   UNL     1      93.721 100.304  73.391  1.00  0.00    -0.320 OA
ATOM     10  O   UNL     1      95.687 101.403  73.688  1.00  0.00    -0.313 OA
ATOM     11  C   UNL     1      93.402 101.677  73.117  1.00  0.00     0.170 C 
ATOM     12  C   UNL     1      95.161 103.458  72.610  1.00  0.00     0.049 C 
ATOM     13  C   UNL     1      97.054 102.584  71.181  1.00  0.00     0.011 C 
ATOM     14  C   UNL     1      94.666 102.420  73.618  1.00  0.00     0.122 C 
BRANCH   6  15
ATOM     15  C   UNL     1      94.525 101.122  69.454  1.00  0.00     0.086 C 
ATOM     16  C   UNL     1      93.508 101.925  68.616  1.00  0.00     0.140 CG0
ATOM     17  C   UNL     1      95.756 101.109  68.591  1.00  0.00    -0.010 C 
ATOM     18  C   UNL     1      94.173 101.975  67.257  1.00  0.00     0.190 C 
ATOM     19  G   UNL     1      92.137 101.251  68.572  1.00  0.00     0.000 G0
ATOM     20  C   UNL     1      95.585 101.557  67.343  1.00  0.00    -0.008 C 
ATOM     21  O   UNL     1      93.644 102.357  66.224  1.00  0.00    -0.291 OA
ATOM     22  C   UNL     1      96.535 101.611  66.213  1.00  0.00     0.048 C 
BRANCH  16  23
ATOM     23  O   UNL     1      93.404 103.288  68.992  1.00  0.00    -0.381 OA
ATOM     24  H   UNL     1      92.554 103.631  68.669  1.00  0.00     0.212 HD
ENDBRANCH  16  23
ENDBRANCH   6  15
BRANCH   7  25
ATOM     25  C   UNL     1      95.745  99.008  73.510  1.00  0.00     0.135 C 
BRANCH  25  26
ATOM     26  C   UNL     1      96.443  98.268  72.397  1.00  0.00    -0.040 A 
ATOM     27  C   UNL     1      97.779  98.547  72.105  1.00  0.00     0.004 A 
ATOM     28  C   UNL     1      95.755  97.304  71.660  1.00  0.00     0.004 A 
ATOM     29  C   UNL     1      98.426  97.862  71.076  1.00  0.00     0.000 A 
ATOM     30  C   UNL     1      96.402  96.620  70.631  1.00  0.00     0.000 A 
ATOM     31  C   UNL     1      97.737  96.899  70.339  1.00  0.00     0.000 A 
ENDBRANCH  25  26
ENDBRANCH   7  25
BRANCH  14  32
ATOM     32  C   UNL     1      94.477 102.992  74.985  1.00  0.00    -0.046 C 
ATOM     33  C   UNL     1      95.226 102.317  76.095  1.00  0.00     0.042 C 
ATOM     34  C   UNL     1      93.681 104.049  75.208  1.00  0.00     0.010 C 
ENDBRANCH  14  32
ENDBRANCH   3   4
BRANCH   2  35
ATOM     35  C   UNL     1      92.118 101.221  68.587  1.00  0.00     0.078 CG0
ATOM     36  G   UNL     1      93.481 101.912  68.620  1.00  0.00     0.000 G0
ENDBRANCH   2  35
ENDBRANCH   1   2
BRANCH   1  37
ATOM     37  O   UNL     1      90.543  98.968  68.605  1.00  0.00    -0.461 OA
BRANCH  37  38
ATOM     38  C   UNL     1      89.400  98.443  68.047  1.00  0.00     0.310 C 
ATOM     39  O   UNL     1      88.608  97.712  68.626  1.00  0.00    -0.252 OA
BRANCH  38  40
ATOM     40  C   UNL     1      89.278  98.909  66.616  1.00  0.00     0.158 C 
BRANCH  40  41
ATOM     41  C   UNL     1      88.462 100.168  66.474  1.00  0.00    -0.033 A 
ATOM     42  C   UNL     1      89.096 101.411  66.450  1.00  0.00     0.054 A 
ATOM     43  C   UNL     1      87.074 100.091  66.368  1.00  0.00     0.008 A 
ATOM     44  C   UNL     1      88.341 102.576  66.319  1.00  0.00     0.160 A 
ATOM     45  C   UNL     1      86.319 101.257  66.237  1.00  0.00     0.050 A 
ATOM     46  C   UNL     1      86.952 102.499  66.213  1.00  0.00     0.157 A 
BRANCH  44  47
ATOM     47  O   UNL     1      88.971 103.783  66.297  1.00  0.00    -0.493 OA
ATOM     48  C   UNL     1      90.398 103.770  66.300  1.00  0.00     0.278 C 
ENDBRANCH  44  47
BRANCH  46  49
ATOM     49  O   UNL     1      86.204 103.630  66.084  1.00  0.00    -0.504 OA
ATOM     50  H   UNL     1      86.775 104.405  66.224  1.00  0.00     0.293 HD
ENDBRANCH  46  49
ENDBRANCH  40  41
ENDBRANCH  38  40
ENDBRANCH  37  38
ENDBRANCH   1  37
TORSDOF 11
ENDMDL
MODEL 2
REMARK VINA RESULT:    -6.113      1.806      2.485
REMARK INTER + INTRA:         -12.249
REMARK INTER:                 -11.130
REMARK INTRA:                  -1.119
REMARK UNBOUND:                -1.490
REMARK SMILES C=C(C)[C@]12C[C@@H](C)[C@@]34O[C@](Cc5ccccc5)(O[C@@H]1[C@@H]3C=C(COC(=O)Cc1ccc(O)c(OC)c1)C[C@]1(O)C(=O)C(C)=C[C@@H]41)O2
REMARK SMILES IDX 23 1 22 2 21 3 20 4 9 5 8 6 10 7 6 8 18 9 46 10 19 11 5 12
REMARK SMILES IDX 7 13 4 14 45 15 38 16 44 17 40 18 42 20 41 21 43 22 39 23
REMARK SMILES IDX 11 25 12 26 13 27 17 28 14 29 16 30 15 31 2 32 3 33 1 34
REMARK SMILES IDX 37 35 24 37 25 38 26 39 27 40 28 41 36 42 29 43 33 44 30 45
REMARK SMILES IDX 31 46 34 47 35 48 32 49
REMARK H PARENT 39 24 32 50
REMARK Flexibility Score: 90.00
ROOT
ATOM      1  C   UNL     1      90.663 100.377  69.564  1.00  0.00     0.264 C 
ENDROOT
BRANCH   1   2
ATOM      2  C   UNL     1      92.073 100.861  69.810  1.00  0.00    -0.033 C 
ATOM      3  C   UNL     1      92.884 100.146  70.616  1.00  0.00    -0.015 C 
BRANCH   3   4
ATOM      4  C   UNL     1      94.298 100.454  71.079  1.00  0.00     0.078 C 
ATOM      5  O   UNL     1      95.834  99.376  69.467  1.00  0.00    -0.319 OA
ATOM      6  C   UNL     1      95.412 100.674  69.988  1.00  0.00     0.095 C 
ATOM      7  C   UNL     1      96.011  98.343  70.455  1.00  0.00     0.289 C 
ATOM      8  C   UNL     1      96.642 101.380  70.694  1.00  0.00     0.023 C 
ATOM      9  O   UNL     1      94.815  98.132  71.202  1.00  0.00    -0.320 OA
ATOM     10  O   UNL     1      97.010  98.677  71.414  1.00  0.00    -0.313 OA
ATOM     11  C   UNL     1      94.806  99.322  72.005  1.00  0.00     0.170 C 
ATOM     12  C   UNL     1      96.791 100.920  72.177  1.00  0.00     0.049 C 
ATOM     13  C   UNL     1      97.992 101.228  69.974  1.00  0.00     0.011 C 
ATOM     14  C   UNL     1      96.302  99.485  72.376  1.00  0.00     0.122 C 
BRANCH   6  15
ATOM     15  C   UNL     1      94.833 101.419  68.751  1.00  0.00     0.086 C 
ATOM     16  C   UNL     1      93.889 102.602  69.050  1.00  0.00     0.140 CG0
ATOM     17  C   UNL     1      95.774 101.976  67.719  1.00  0.00    -0.010 C 
ATOM     18  C   UNL     1      94.197 103.560  67.919  1.00  0.00     0.190 C 
ATOM     19  G   UNL     1      92.421 102.178  69.074  1.00  0.00     0.000 G0
ATOM     20  C   UNL     1      95.430 103.164  67.212  1.00  0.00    -0.008 C 
ATOM     21  O   UNL     1      93.554 104.561  67.644  1.00  0.00    -0.291 OA
ATOM     22  C   UNL     1      96.061 103.960  66.139  1.00  0.00     0.048 C 
BRANCH  16  23
ATOM     23  O   UNL     1      94.235 103.332  70.216  1.00  0.00    -0.381 OA
ATOM     24  H   UNL     1      93.708 104.148  70.235  1.00  0.00     0.212 HD
ENDBRANCH  16  23
ENDBRANCH   6  15
BRANCH   7  25
ATOM     25  C   UNL     1      96.402  97.064  69.742  1.00  0.00     0.135 C 
BRANCH  25  26
ATOM     26  C   UNL     1      97.848  97.075  69.315  1.00  0.00    -0.040 A 
ATOM     27  C   UNL     1      98.730  96.116  69.816  1.00  0.00     0.004 A 
ATOM     28  C   UNL     1      98.305  98.041  68.419  1.00  0.00     0.004 A 
ATOM     29  C   UNL     1     100.068  96.125  69.422  1.00  0.00     0.000 A 
ATOM     30  C   UNL     1      99.644  98.050  68.025  1.00  0.00     0.000 A 
ATOM     31  C   UNL     1     100.524  97.091  68.527  1.00  0.00     0.000 A 
ENDBRANCH  25  26
ENDBRANCH   7  25
BRANCH  14  32
ATOM     32  C   UNL     1      96.601  98.961  73.743  1.00  0.00    -0.046 C 
ATOM     33  C   UNL     1      97.351  97.663  73.805  1.00  0.00     0.042 C 
ATOM     34  C   UNL     1      96.221  99.613  74.852  1.00  0.00     0.010 C 
ENDBRANCH  14  32
ENDBRANCH   3   4
BRANCH   2  35
ATOM     35  C   UNL     1      92.398 102.145  69.071  1.00  0.00     0.078 CG0
ATOM     36  G   UNL     1      93.862 102.583  69.042  1.00  0.00     0.000 G0
ENDBRANCH   2  35
ENDBRANCH   1   2
BRANCH   1  37
ATOM     37  O   UNL     1      90.698  99.241  68.728  1.00  0.00    -0.461 OA
BRANCH  37  38
ATOM     38  C   UNL     1      89.496  98.609  68.508  1.00  0.00     0.310 C 
ATOM     39  O   UNL     1      88.837  98.035  69.364  1.00  0.00    -0.252 OA
BRANCH  38  40
ATOM     40  C   UNL     1      89.118  98.736  67.051  1.00  0.00     0.158 C 
BRANCH  40  41
ATOM     41  C   UNL     1      88.339  99.991  66.752  1.00  0.00    -0.033 A 
ATOM     42  C   UNL     1      89.006 101.207  66.599  1.00  0.00     0.054 A 
ATOM     43  C   UNL     1      86.951  99.937  66.628  1.00  0.00     0.008 A 
ATOM     44  C   UNL     1      88.284 102.368  66.323  1.00  0.00     0.160 A 
ATOM     45  C   UNL     1      86.229 101.098  66.352  1.00  0.00     0.050 A 
ATOM     46  C   UNL     1      86.895 102.313  66.200  1.00  0.00     0.157 A 
BRANCH  44  47
ATOM     47  O   UNL     1      88.946 103.549  66.176  1.00  0.00    -0.493 OA
ATOM     48  C   UNL     1      90.346 103.547  66.453  1.00  0.00     0.278 C 
ENDBRANCH  44  47
BRANCH  46  49
ATOM     49  O   UNL     1      86.180 103.440  65.929  1.00  0.00    -0.504 OA
ATOM     50  H   UNL     1      86.288 104.068  66.664  1.00  0.00     0.293 HD
ENDBRANCH  46  49
ENDBRANCH  40  41
ENDBRANCH  38  40
ENDBRANCH  37  38
ENDBRANCH   1  37
TORSDOF 11
ENDMDL
MODEL 3
REMARK VINA RESULT:    -5.976     26.460     31.812
REMARK INTER + INTRA:         -12.008
REMARK INTER:                 -10.543
REMARK INTRA:                  -1.465
REMARK UNBOUND:                -1.490
REMARK SMILES C=C(C)[C@]12C[C@@H](C)[C@@]34O[C@](Cc5ccccc5)(O[C@@H]1[C@@H]3C=C(COC(=O)Cc1ccc(O)c(OC)c1)C[C@]1(O)C(=O)C(C)=C[C@@H]41)O2
REMARK SMILES IDX 23 1 22 2 21 3 20 4 9 5 8 6 10 7 6 8 18 9 46 10 19 11 5 12
REMARK SMILES IDX 7 13 4 14 45 15 38 16 44 17 40 18 42 20 41 21 43 22 39 23
REMARK SMILES IDX 11 25 12 26 13 27 17 28 14 29 16 30 15 31 2 32 3 33 1 34
REMARK SMILES IDX 37 35 24 37 25 38 26 39 27 40 28 41 36 42 29 43 33 44 30 45
REMARK SMILES IDX 31 46 34 47 35 48 32 49
REMARK H PARENT 39 24 32 50
REMARK Flexibility Score: 90.00
ROOT
ATOM      1  C   UNL     1      69.731  85.614  68.916  1.00  0.00     0.264 C 
ENDROOT
BRANCH   1   2
ATOM      2  C   UNL     1      68.310  85.777  68.431  1.00  0.00    -0.033 C 
ATOM      3  C   UNL     1      67.384  84.862  68.782  1.00  0.00    -0.015 C 
BRANCH   3   4
ATOM      4  C   UNL     1      65.925  84.758  68.368  1.00  0.00     0.078 C 
ATOM      5  O   UNL     1      64.603  85.965  70.075  1.00  0.00    -0.319 OA
ATOM      6  C   UNL     1      64.974  85.977  68.661  1.00  0.00     0.095 C 
ATOM      7  C   UNL     1      64.275  84.671  70.615  1.00  0.00     0.289 C 
ATOM      8  C   UNL     1      63.672  85.795  67.777  1.00  0.00     0.023 C 
ATOM      9  O   UNL     1      65.354  83.755  70.452  1.00  0.00    -0.320 OA
ATOM     10  O   UNL     1      63.161  84.076  69.955  1.00  0.00    -0.313 OA
ATOM     11  C   UNL     1      65.275  83.522  69.037  1.00  0.00     0.170 C 
ATOM     12  C   UNL     1      63.315  84.288  67.590  1.00  0.00     0.049 C 
ATOM     13  C   UNL     1      62.430  86.557  68.265  1.00  0.00     0.011 C 
ATOM     14  C   UNL     1      63.747  83.451  68.795  1.00  0.00     0.122 C 
BRANCH   6  15
ATOM     15  C   UNL     1      65.729  87.325  68.469  1.00  0.00     0.086 C 
ATOM     16  C   UNL     1      66.640  87.422  67.228  1.00  0.00     0.140 CG0
ATOM     17  C   UNL     1      64.948  88.608  68.431  1.00  0.00    -0.010 C 
ATOM     18  C   UNL     1      66.505  88.879  66.838  1.00  0.00     0.190 C 
ATOM     19  G   UNL     1      68.084  87.032  67.541  1.00  0.00     0.000 G0
ATOM     20  C   UNL     1      65.376  89.513  67.545  1.00  0.00    -0.008 C 
ATOM     21  O   UNL     1      67.195  89.458  66.013  1.00  0.00    -0.291 OA
ATOM     22  C   UNL     1      64.910  90.892  67.292  1.00  0.00     0.048 C 
BRANCH  16  23
ATOM     23  O   UNL     1      66.148  86.722  66.098  1.00  0.00    -0.381 OA
ATOM     24  H   UNL     1      66.218  87.303  65.322  1.00  0.00     0.212 HD
ENDBRANCH  16  23
ENDBRANCH   6  15
BRANCH   7  25
ATOM     25  C   UNL     1      63.962  84.836  72.088  1.00  0.00     0.135 C 
BRANCH  25  26
ATOM     26  C   UNL     1      62.930  83.843  72.562  1.00  0.00    -0.040 A 
ATOM     27  C   UNL     1      63.321  82.556  72.933  1.00  0.00     0.004 A 
ATOM     28  C   UNL     1      61.587  84.211  72.630  1.00  0.00     0.004 A 
ATOM     29  C   UNL     1      62.367  81.636  73.371  1.00  0.00     0.000 A 
ATOM     30  C   UNL     1      60.633  83.291  73.068  1.00  0.00     0.000 A 
ATOM     31  C   UNL     1      61.024  82.004  73.438  1.00  0.00     0.000 A 
ENDBRANCH  25  26
ENDBRANCH   7  25
BRANCH  14  32
ATOM     32  C   UNL     1      63.255  82.042  68.721  1.00  0.00    -0.046 C 
ATOM     33  C   UNL     1      63.978  81.137  67.768  1.00  0.00     0.042 C 
ATOM     34  C   UNL     1      62.226  81.610  69.464  1.00  0.00     0.010 C 
ENDBRANCH  14  32
ENDBRANCH   3   4
BRANCH   2  35
ATOM     35  C   UNL     1      68.111  87.016  67.578  1.00  0.00     0.078 CG0
ATOM     36  G   UNL     1      66.673  87.410  67.243  1.00  0.00     0.000 G0
ENDBRANCH   2  35
ENDBRANCH   1   2
BRANCH   1  37
ATOM     37  O   UNL     1      70.597  86.355  68.084  1.00  0.00    -0.461 OA
BRANCH  37  38
ATOM     38  C   UNL     1      71.838  85.808  67.856  1.00  0.00     0.310 C 
ATOM     39  O   UNL     1      72.650  85.521  68.725  1.00  0.00    -0.252 OA
BRANCH  38  40
ATOM     40  C   UNL     1      72.040  85.617  66.371  1.00  0.00     0.158 C 
BRANCH  40  41
ATOM     41  C   UNL     1      71.914  84.179  65.940  1.00  0.00    -0.033 A 
ATOM     42  C   UNL     1      73.043  83.475  65.519  1.00  0.00     0.054 A 
ATOM     43  C   UNL     1      70.669  83.551  65.962  1.00  0.00     0.008 A 
ATOM     44  C   UNL     1      72.926  82.144  65.120  1.00  0.00     0.160 A 
ATOM     45  C   UNL     1      70.552  82.219  65.563  1.00  0.00     0.050 A 
ATOM     46  C   UNL     1      71.680  81.516  65.142  1.00  0.00     0.157 A 
BRANCH  44  47
ATOM     47  O   UNL     1      74.036  81.467  64.711  1.00  0.00    -0.493 OA
ATOM     48  C   UNL     1      75.267  81.792  65.354  1.00  0.00     0.278 C 
ENDBRANCH  44  47
BRANCH  46  49
ATOM     49  O   UNL     1      71.554  80.216  64.755  1.00  0.00    -0.504 OA
ATOM     50  H   UNL     1      71.388  79.667  65.540  1.00  0.00     0.293 HD
ENDBRANCH  46  49
ENDBRANCH  40  41
ENDBRANCH  38  40
ENDBRANCH  37  38
ENDBRANCH   1  37
TORSDOF 11
ENDMDL
MODEL 4
REMARK VINA RESULT:    -5.925     21.884     25.846
REMARK INTER + INTRA:         -11.918
REMARK INTER:                  -9.854
REMARK INTRA:                  -2.065
REMARK UNBOUND:                -1.490
REMARK SMILES C=C(C)[C@]12C[C@@H](C)[C@@]34O[C@](Cc5ccccc5)(O[C@@H]1[C@@H]3C=C(COC(=O)Cc1ccc(O)c(OC)c1)C[C@]1(O)C(=O)C(C)=C[C@@H]41)O2
REMARK SMILES IDX 23 1 22 2 21 3 20 4 9 5 8 6 10 7 6 8 18 9 46 10 19 11 5 12
REMARK SMILES IDX 7 13 4 14 45 15 38 16 44 17 40 18 42 20 41 21 43 22 39 23
REMARK SMILES IDX 11 25 12 26 13 27 17 28 14 29 16 30 15 31 2 32 3 33 1 34
REMARK SMILES IDX 37 35 24 37 25 38 26 39 27 40 28 41 36 42 29 43 33 44 30 45
REMARK SMILES IDX 31 46 34 47 35 48 32 49
REMARK H PARENT 39 24 32 50
REMARK Flexibility Score: 90.00
ROOT
ATOM      1  C   UNL     1     100.194  77.196  79.130  1.00  0.00     0.264 C 
ENDROOT
BRANCH   1   2
ATOM      2  C   UNL     1     100.166  77.919  80.456  1.00  0.00    -0.033 C 
ATOM      3  C   UNL     1      99.061  78.607  80.808  1.00  0.00    -0.015 C 
BRANCH   3   4
ATOM      4  C   UNL     1      98.812  79.470  82.034  1.00  0.00     0.078 C 
ATOM      5  O   UNL     1      97.786  78.010  83.747  1.00  0.00    -0.319 OA
ATOM      6  C   UNL     1      98.970  78.815  83.456  1.00  0.00     0.095 C 
ATOM      7  C   UNL     1      96.528  78.612  83.386  1.00  0.00     0.289 C 
ATOM      8  C   UNL     1      99.079  79.988  84.516  1.00  0.00     0.023 C 
ATOM      9  O   UNL     1      96.490  78.937  81.999  1.00  0.00    -0.320 OA
ATOM     10  O   UNL     1      96.297  79.838  84.075  1.00  0.00    -0.313 OA
ATOM     11  C   UNL     1      97.382  80.062  81.979  1.00  0.00     0.170 C 
ATOM     12  C   UNL     1      98.230  81.224  84.089  1.00  0.00     0.049 C 
ATOM     13  C   UNL     1      98.732  79.604  85.964  1.00  0.00     0.011 C 
ATOM     14  C   UNL     1      97.000  80.814  83.279  1.00  0.00     0.122 C 
BRANCH   6  15
ATOM     15  C   UNL     1     100.145  77.794  83.466  1.00  0.00     0.086 C 
ATOM     16  C   UNL     1     101.436  78.236  82.746  1.00  0.00     0.140 CG0
ATOM     17  C   UNL     1     100.643  77.256  84.778  1.00  0.00    -0.010 C 
ATOM     18  C   UNL     1     102.516  77.591  83.588  1.00  0.00     0.190 C 
ATOM     19  G   UNL     1     101.473  77.772  81.290  1.00  0.00     0.000 G0
ATOM     20  C   UNL     1     101.969  77.105  84.868  1.00  0.00    -0.008 C 
ATOM     21  O   UNL     1     103.699  77.519  83.289  1.00  0.00    -0.291 OA
ATOM     22  C   UNL     1     102.789  76.535  85.957  1.00  0.00     0.048 C 
BRANCH  16  23
ATOM     23  O   UNL     1     101.706  79.624  82.853  1.00  0.00    -0.381 OA
ATOM     24  H   UNL     1     101.239  79.968  83.633  1.00  0.00     0.212 HD
ENDBRANCH  16  23
ENDBRANCH   6  15
BRANCH   7  25
ATOM     25  C   UNL     1      95.420  77.631  83.713  1.00  0.00     0.135 C 
BRANCH  25  26
ATOM     26  C   UNL     1      94.703  77.993  84.989  1.00  0.00    -0.040 A 
ATOM     27  C   UNL     1      95.318  77.769  86.222  1.00  0.00     0.004 A 
ATOM     28  C   UNL     1      93.427  78.553  84.938  1.00  0.00     0.004 A 
ATOM     29  C   UNL     1      94.654  78.104  87.403  1.00  0.00     0.000 A 
ATOM     30  C   UNL     1      92.764  78.888  86.119  1.00  0.00     0.000 A 
ATOM     31  C   UNL     1      93.378  78.663  87.351  1.00  0.00     0.000 A 
ENDBRANCH  25  26
ENDBRANCH   7  25
BRANCH  14  32
ATOM     32  C   UNL     1      96.078  81.959  83.015  1.00  0.00    -0.046 C 
ATOM     33  C   UNL     1      94.933  82.121  83.971  1.00  0.00     0.042 C 
ATOM     34  C   UNL     1      96.262  82.795  81.982  1.00  0.00     0.010 C 
ENDBRANCH  14  32
ENDBRANCH   3   4
BRANCH   2  35
ATOM     35  C   UNL     1     101.448  77.757  81.250  1.00  0.00     0.078 CG0
ATOM     36  G   UNL     1     101.431  78.218  82.707  1.00  0.00     0.000 G0
ENDBRANCH   2  35
ENDBRANCH   1   2
BRANCH   1  37
ATOM     37  O   UNL     1      99.260  77.789  78.254  1.00  0.00    -0.461 OA
BRANCH  37  38
ATOM     38  C   UNL     1      99.778  78.410  77.142  1.00  0.00     0.310 C 
ATOM     39  O   UNL     1      99.974  77.869  76.063  1.00  0.00    -0.252 OA
BRANCH  38  40
ATOM     40  C   UNL     1     100.065  79.859  77.461  1.00  0.00     0.158 C 
BRANCH  40  41
ATOM     41  C   UNL     1      98.839  80.732  77.384  1.00  0.00    -0.033 A 
ATOM     42  C   UNL     1      98.295  81.062  76.142  1.00  0.00     0.054 A 
ATOM     43  C   UNL     1      98.248  81.209  78.553  1.00  0.00     0.008 A 
ATOM     44  C   UNL     1      97.160  81.870  76.071  1.00  0.00     0.160 A 
ATOM     45  C   UNL     1      97.113  82.017  78.482  1.00  0.00     0.050 A 
ATOM     46  C   UNL     1      96.569  82.348  77.242  1.00  0.00     0.157 A 
BRANCH  44  47
ATOM     47  O   UNL     1      96.638  82.186  74.853  1.00  0.00    -0.493 OA
ATOM     48  C   UNL     1      97.291  83.219  74.117  1.00  0.00     0.278 C 
ENDBRANCH  44  47
BRANCH  46  49
ATOM     49  O   UNL     1      95.460  83.137  77.184  1.00  0.00    -0.504 OA
ATOM     50  H   UNL     1      94.848  82.874  77.892  1.00  0.00     0.293 HD
ENDBRANCH  46  49
ENDBRANCH  40  41
ENDBRANCH  38  40
ENDBRANCH  37  38
ENDBRANCH   1  37
TORSDOF 11
ENDMDL
MODEL 5
REMARK VINA RESULT:    -5.737      1.930      3.558
REMARK INTER + INTRA:         -11.588
REMARK INTER:                 -10.248
REMARK INTRA:                  -1.340
REMARK UNBOUND:                -1.490
REMARK SMILES C=C(C)[C@]12C[C@@H](C)[C@@]34O[C@](Cc5ccccc5)(O[C@@H]1[C@@H]3C=C(COC(=O)Cc1ccc(O)c(OC)c1)C[C@]1(O)C(=O)C(C)=C[C@@H]41)O2
REMARK SMILES IDX 23 1 22 2 21 3 20 4 9 5 8 6 10 7 6 8 18 9 46 10 19 11 5 12
REMARK SMILES IDX 7 13 4 14 45 15 38 16 44 17 40 18 42 20 41 21 43 22 39 23
REMARK SMILES IDX 11 25 12 26 13 27 17 28 14 29 16 30 15 31 2 32 3 33 1 34
REMARK SMILES IDX 37 35 24 37 25 38 26 39 27 40 28 41 36 42 29 43 33 44 30 45
REMARK SMILES IDX 31 46 34 47 35 48 32 49
REMARK H PARENT 39 24 32 50
REMARK Flexibility Score: 90.00
ROOT
ATOM      1  C   UNL     1      92.526 103.930  68.360  1.00  0.00     0.264 C 
ENDROOT
BRANCH   1   2
ATOM      2  C   UNL     1      93.757 103.294  68.963  1.00  0.00    -0.033 C 
ATOM      3  C   UNL     1      93.801 103.073  70.293  1.00  0.00    -0.015 C 
BRANCH   3   4
ATOM      4  C   UNL     1      94.936 102.527  71.143  1.00  0.00     0.078 C 
ATOM      5  O   UNL     1      94.608 100.080  71.296  1.00  0.00    -0.319 OA
ATOM      6  C   UNL     1      95.517 101.106  70.792  1.00  0.00     0.095 C 
ATOM      7  C   UNL     1      94.078 100.318  72.614  1.00  0.00     0.289 C 
ATOM      8  C   UNL     1      96.918 100.968  71.521  1.00  0.00     0.023 C 
ATOM      9  O   UNL     1      93.388 101.563  72.677  1.00  0.00    -0.320 OA
ATOM     10  O   UNL     1      95.102 100.394  73.602  1.00  0.00    -0.313 OA
ATOM     11  C   UNL     1      94.501 102.470  72.628  1.00  0.00     0.170 C 
ATOM     12  C   UNL     1      96.932 101.732  72.880  1.00  0.00     0.049 C 
ATOM     13  C   UNL     1      97.409  99.527  71.738  1.00  0.00     0.011 C 
ATOM     14  C   UNL     1      95.547 101.764  73.526  1.00  0.00     0.122 C 
BRANCH   6  15
ATOM     15  C   UNL     1      95.539 100.884  69.252  1.00  0.00     0.086 C 
ATOM     16  C   UNL     1      96.021 102.077  68.400  1.00  0.00     0.140 CG0
ATOM     17  C   UNL     1      96.304  99.720  68.687  1.00  0.00    -0.010 C 
ATOM     18  C   UNL     1      96.732 101.392  67.253  1.00  0.00     0.190 C 
ATOM     19  G   UNL     1      94.862 102.954  67.929  1.00  0.00     0.000 G0
ATOM     20  C   UNL     1      96.962  99.965  67.549  1.00  0.00    -0.008 C 
ATOM     21  O   UNL     1      97.119 101.939  66.231  1.00  0.00    -0.291 OA
ATOM     22  C   UNL     1      97.736  99.053  66.683  1.00  0.00     0.048 C 
BRANCH  16  23
ATOM     23  O   UNL     1      97.038 102.849  69.016  1.00  0.00    -0.381 OA
ATOM     24  H   UNL     1      96.762 103.781  69.011  1.00  0.00     0.212 HD
ENDBRANCH  16  23
ENDBRANCH   6  15
BRANCH   7  25
ATOM     25  C   UNL     1      93.128  99.188  72.956  1.00  0.00     0.135 C 
BRANCH  25  26
ATOM     26  C   UNL     1      93.858  97.968  73.461  1.00  0.00    -0.040 A 
ATOM     27  C   UNL     1      94.959  97.475  72.760  1.00  0.00     0.004 A 
ATOM     28  C   UNL     1      93.434  97.335  74.628  1.00  0.00     0.004 A 
ATOM     29  C   UNL     1      95.635  96.347  73.227  1.00  0.00     0.000 A 
ATOM     30  C   UNL     1      94.109  96.207  75.095  1.00  0.00     0.000 A 
ATOM     31  C   UNL     1      95.210  95.714  74.394  1.00  0.00     0.000 A 
ENDBRANCH  25  26
ENDBRANCH   7  25
BRANCH  14  32
ATOM     32  C   UNL     1      95.571 102.329  74.909  1.00  0.00    -0.046 C 
ATOM     33  C   UNL     1      94.265 102.842  75.438  1.00  0.00     0.042 C 
ATOM     34  C   UNL     1      96.697 102.374  75.638  1.00  0.00     0.010 C 
ENDBRANCH  14  32
ENDBRANCH   3   4
BRANCH   2  35
ATOM     35  C   UNL     1      94.823 102.969  67.935  1.00  0.00     0.078 CG0
ATOM     36  G   UNL     1      95.989 102.092  68.390  1.00  0.00     0.000 G0
ENDBRANCH   2  35
ENDBRANCH   1   2
BRANCH   1  37
ATOM     37  O   UNL     1      92.501 103.675  66.972  1.00  0.00    -0.461 OA
BRANCH  37  38
ATOM     38  C   UNL     1      91.373 103.055  66.488  1.00  0.00     0.310 C 
ATOM     39  O   UNL     1      90.263 103.564  66.427  1.00  0.00    -0.252 OA
BRANCH  38  40
ATOM     40  C   UNL     1      91.719 101.652  66.045  1.00  0.00     0.158 C 
BRANCH  40  41
ATOM     41  C   UNL     1      90.993 100.592  66.832  1.00  0.00    -0.033 A 
ATOM     42  C   UNL     1      91.116 100.548  68.221  1.00  0.00     0.054 A 
ATOM     43  C   UNL     1      90.199  99.655  66.172  1.00  0.00     0.008 A 
ATOM     44  C   UNL     1      90.445  99.566  68.950  1.00  0.00     0.160 A 
ATOM     45  C   UNL     1      89.527  98.673  66.900  1.00  0.00     0.050 A 
ATOM     46  C   UNL     1      89.650  98.628  68.289  1.00  0.00     0.157 A 
BRANCH  44  47
ATOM     47  O   UNL     1      90.572  99.532  70.305  1.00  0.00    -0.493 OA
ATOM     48  C   UNL     1      89.473 100.020  71.072  1.00  0.00     0.278 C 
ENDBRANCH  44  47
BRANCH  46  49
ATOM     49  O   UNL     1      88.989  97.665  68.989  1.00  0.00    -0.504 OA
ATOM     50  H   UNL     1      88.624  98.058  69.800  1.00  0.00     0.293 HD
ENDBRANCH  46  49
ENDBRANCH  40  41
ENDBRANCH  38  40
ENDBRANCH  37  38
ENDBRANCH   1  37
TORSDOF 11
ENDMDL
MODEL 6
REMARK VINA RESULT:    -5.651     23.158     26.182
REMARK INTER + INTRA:         -11.436
REMARK INTER:                 -10.148
REMARK INTRA:                  -1.289
REMARK UNBOUND:                -1.490
REMARK SMILES C=C(C)[C@]12C[C@@H](C)[C@@]34O[C@](Cc5ccccc5)(O[C@@H]1[C@@H]3C=C(COC(=O)Cc1ccc(O)c(OC)c1)C[C@]1(O)C(=O)C(C)=C[C@@H]41)O2
REMARK SMILES IDX 23 1 22 2 21 3 20 4 9 5 8 6 10 7 6 8 18 9 46 10 19 11 5 12
REMARK SMILES IDX 7 13 4 14 45 15 38 16 44 17 40 18 42 20 41 21 43 22 39 23
REMARK SMILES IDX 11 25 12 26 13 27 17 28 14 29 16 30 15 31 2 32 3 33 1 34
REMARK SMILES IDX 37 35 24 37 25 38 26 39 27 40 28 41 36 42 29 43 33 44 30 45
REMARK SMILES IDX 31 46 34 47 35 48 32 49
REMARK H PARENT 39 24 32 50
REMARK Flexibility Score: 90.00
ROOT
ATOM      1  C   UNL     1      95.908  78.269  87.916  1.00  0.00     0.264 C 
ENDROOT
BRANCH   1   2
ATOM      2  C   UNL     1      95.305  79.476  87.237  1.00  0.00    -0.033 C 
ATOM      3  C   UNL     1      94.769  80.457  87.990  1.00  0.00    -0.015 C 
BRANCH   3   4
ATOM      4  C   UNL     1      94.042  81.719  87.555  1.00  0.00     0.078 C 
ATOM      5  O   UNL     1      95.739  83.513  87.407  1.00  0.00    -0.319 OA
ATOM      6  C   UNL     1      94.796  82.730  86.612  1.00  0.00     0.095 C 
ATOM      7  C   UNL     1      95.241  83.973  88.678  1.00  0.00     0.289 C 
ATOM      8  C   UNL     1      93.711  83.699  85.983  1.00  0.00     0.023 C 
ATOM      9  O   UNL     1      94.805  82.884  89.488  1.00  0.00    -0.320 OA
ATOM     10  O   UNL     1      94.107  84.826  88.539  1.00  0.00    -0.313 OA
ATOM     11  C   UNL     1      93.597  82.525  88.800  1.00  0.00     0.170 C 
ATOM     12  C   UNL     1      92.536  83.962  86.974  1.00  0.00     0.049 C 
ATOM     13  C   UNL     1      94.249  85.040  85.459  1.00  0.00     0.011 C 
ATOM     14  C   UNL     1      93.001  83.907  88.430  1.00  0.00     0.122 C 
BRANCH   6  15
ATOM     15  C   UNL     1      95.688  81.970  85.589  1.00  0.00     0.086 C 
ATOM     16  C   UNL     1      95.062  80.719  84.939  1.00  0.00     0.140 CG0
ATOM     17  C   UNL     1      96.269  82.717  84.421  1.00  0.00    -0.010 C 
ATOM     18  C   UNL     1      95.654  80.744  83.545  1.00  0.00     0.190 C 
ATOM     19  G   UNL     1      95.408  79.439  85.698  1.00  0.00     0.000 G0
ATOM     20  C   UNL     1      96.290  82.045  83.265  1.00  0.00    -0.008 C 
ATOM     21  O   UNL     1      95.582  79.839  82.728  1.00  0.00    -0.291 OA
ATOM     22  C   UNL     1      96.853  82.426  81.953  1.00  0.00     0.048 C 
BRANCH  16  23
ATOM     23  O   UNL     1      93.666  80.826  84.715  1.00  0.00    -0.381 OA
ATOM     24  H   UNL     1      93.475  80.522  83.812  1.00  0.00     0.212 HD
ENDBRANCH  16  23
ENDBRANCH   6  15
BRANCH   7  25
ATOM     25  C   UNL     1      96.354  84.722  89.383  1.00  0.00     0.135 C 
BRANCH  25  26
ATOM     26  C   UNL     1      96.165  86.216  89.309  1.00  0.00    -0.040 A 
ATOM     27  C   UNL     1      96.026  86.960  90.481  1.00  0.00     0.004 A 
ATOM     28  C   UNL     1      96.130  86.855  88.070  1.00  0.00     0.004 A 
ATOM     29  C   UNL     1      95.851  88.343  90.413  1.00  0.00     0.000 A 
ATOM     30  C   UNL     1      95.955  88.238  88.002  1.00  0.00     0.000 A 
ATOM     31  C   UNL     1      95.816  88.981  89.174  1.00  0.00     0.000 A 
ENDBRANCH  25  26
ENDBRANCH   7  25
BRANCH  14  32
ATOM     32  C   UNL     1      91.938  84.334  89.389  1.00  0.00    -0.046 C 
ATOM     33  C   UNL     1      91.782  85.812  89.589  1.00  0.00     0.042 C 
ATOM     34  C   UNL     1      91.167  83.447  90.035  1.00  0.00     0.010 C 
ENDBRANCH  14  32
ENDBRANCH   3   4
BRANCH   2  35
ATOM     35  C   UNL     1      95.399  79.415  85.724  1.00  0.00     0.078 CG0
ATOM     36  G   UNL     1      95.068  80.692  84.952  1.00  0.00     0.000 G0
ENDBRANCH   2  35
ENDBRANCH   1   2
BRANCH   1  37
ATOM     37  O   UNL     1      94.895  77.561  88.597  1.00  0.00    -0.461 OA
BRANCH  37  38
ATOM     38  C   UNL     1      93.751  77.297  87.880  1.00  0.00     0.310 C 
ATOM     39  O   UNL     1      93.707  76.661  86.836  1.00  0.00    -0.252 OA
BRANCH  38  40
ATOM     40  C   UNL     1      92.563  77.912  88.581  1.00  0.00     0.158 C 
BRANCH  40  41
ATOM     41  C   UNL     1      91.384  78.122  87.665  1.00  0.00    -0.033 A 
ATOM     42  C   UNL     1      91.062  79.407  87.226  1.00  0.00     0.054 A 
ATOM     43  C   UNL     1      90.616  77.032  87.257  1.00  0.00     0.008 A 
ATOM     44  C   UNL     1      89.971  79.601  86.379  1.00  0.00     0.160 A 
ATOM     45  C   UNL     1      89.524  77.226  86.409  1.00  0.00     0.050 A 
ATOM     46  C   UNL     1      89.202  78.510  85.971  1.00  0.00     0.157 A 
BRANCH  44  47
ATOM     47  O   UNL     1      89.666  80.860  85.958  1.00  0.00    -0.493 OA
ATOM     48  C   UNL     1      90.362  81.346  84.811  1.00  0.00     0.278 C 
ENDBRANCH  44  47
BRANCH  46  49
ATOM     49  O   UNL     1      88.135  78.687  85.143  1.00  0.00    -0.504 OA
ATOM     50  H   UNL     1      88.199  79.564  84.727  1.00  0.00     0.293 HD
ENDBRANCH  46  49
ENDBRANCH  40  41
ENDBRANCH  38  40
ENDBRANCH  37  38
ENDBRANCH   1  37
TORSDOF 11
ENDMDL
MODEL 7
REMARK VINA RESULT:    -5.628     21.339     25.129
REMARK INTER + INTRA:         -11.396
REMARK INTER:                 -10.701
REMARK INTRA:                  -0.695
REMARK UNBOUND:                -1.490
REMARK SMILES C=C(C)[C@]12C[C@@H](C)[C@@]34O[C@](Cc5ccccc5)(O[C@@H]1[C@@H]3C=C(COC(=O)Cc1ccc(O)c(OC)c1)C[C@]1(O)C(=O)C(C)=C[C@@H]41)O2
REMARK SMILES IDX 23 1 22 2 21 3 20 4 9 5 8 6 10 7 6 8 18 9 46 10 19 11 5 12
REMARK SMILES IDX 7 13 4 14 45 15 38 16 44 17 40 18 42 20 41 21 43 22 39 23
REMARK SMILES IDX 11 25 12 26 13 27 17 28 14 29 16 30 15 31 2 32 3 33 1 34
REMARK SMILES IDX 37 35 24 37 25 38 26 39 27 40 28 41 36 42 29 43 33 44 30 45
REMARK SMILES IDX 31 46 34 47 35 48 32 49
REMARK H PARENT 39 24 32 50
REMARK Flexibility Score: 90.00
ROOT
ATOM      1  C   UNL     1      96.137  75.460  76.929  1.00  0.00     0.264 C 
ENDROOT
BRANCH   1   2
ATOM      2  C   UNL     1      96.893  76.560  76.221  1.00  0.00    -0.033 C 
ATOM      3  C   UNL     1      96.669  77.843  76.567  1.00  0.00    -0.015 C 
BRANCH   3   4
ATOM      4  C   UNL     1      97.235  79.118  75.964  1.00  0.00     0.078 C 
ATOM      5  O   UNL     1      99.268  79.685  77.254  1.00  0.00    -0.319 OA
ATOM      6  C   UNL     1      98.799  79.299  75.926  1.00  0.00     0.095 C 
ATOM      7  C   UNL     1      98.463  80.668  77.931  1.00  0.00     0.289 C 
ATOM      8  C   UNL     1      99.123  80.460  74.898  1.00  0.00     0.023 C 
ATOM      9  O   UNL     1      97.115  80.226  78.070  1.00  0.00    -0.320 OA
ATOM     10  O   UNL     1      98.393  81.898  77.213  1.00  0.00    -0.313 OA
ATOM     11  C   UNL     1      96.668  80.351  76.711  1.00  0.00     0.170 C 
ATOM     12  C   UNL     1      98.004  81.547  74.892  1.00  0.00     0.049 C 
ATOM     13  C   UNL     1     100.492  81.137  75.077  1.00  0.00     0.011 C 
ATOM     14  C   UNL     1      97.333  81.675  76.260  1.00  0.00     0.122 C 
BRANCH   6  15
ATOM     15  C   UNL     1      99.504  77.940  75.644  1.00  0.00     0.086 C 
ATOM     16  C   UNL     1      98.862  77.053  74.557  1.00  0.00     0.140 CG0
ATOM     17  C   UNL     1     100.964  77.929  75.288  1.00  0.00    -0.010 C 
ATOM     18  C   UNL     1     100.067  76.384  73.930  1.00  0.00     0.190 C 
ATOM     19  G   UNL     1      97.873  76.047  75.144  1.00  0.00     0.000 G0
ATOM     20  C   UNL     1     101.317  77.046  74.347  1.00  0.00    -0.008 C 
ATOM     21  O   UNL     1     100.028  75.453  73.140  1.00  0.00    -0.291 OA
ATOM     22  C   UNL     1     102.652  76.705  73.815  1.00  0.00     0.048 C 
BRANCH  16  23
ATOM     23  O   UNL     1      98.285  77.784  73.488  1.00  0.00    -0.381 OA
ATOM     24  H   UNL     1      97.733  78.491  73.861  1.00  0.00     0.212 HD
ENDBRANCH  16  23
ENDBRANCH   6  15
BRANCH   7  25
ATOM     25  C   UNL     1      99.064  80.916  79.300  1.00  0.00     0.135 C 
BRANCH  25  26
ATOM     26  C   UNL     1      98.036  80.797  80.398  1.00  0.00    -0.040 A 
ATOM     27  C   UNL     1      97.830  79.570  81.031  1.00  0.00     0.004 A 
ATOM     28  C   UNL     1      97.294  81.913  80.783  1.00  0.00     0.004 A 
ATOM     29  C   UNL     1      96.880  79.460  82.047  1.00  0.00     0.000 A 
ATOM     30  C   UNL     1      96.344  81.803  81.799  1.00  0.00     0.000 A 
ATOM     31  C   UNL     1      96.138  80.576  82.430  1.00  0.00     0.000 A 
ENDBRANCH  25  26
ENDBRANCH   7  25
BRANCH  14  32
ATOM     32  C   UNL     1      96.388  82.830  76.330  1.00  0.00    -0.046 C 
ATOM     33  C   UNL     1      95.561  82.935  77.577  1.00  0.00     0.042 C 
ATOM     34  C   UNL     1      96.284  83.723  75.334  1.00  0.00     0.010 C 
ENDBRANCH  14  32
ENDBRANCH   3   4
BRANCH   2  35
ATOM     35  C   UNL     1      97.855  76.038  75.170  1.00  0.00     0.078 CG0
ATOM     36  G   UNL     1      98.844  77.037  74.570  1.00  0.00     0.000 G0
ENDBRANCH   2  35
ENDBRANCH   1   2
BRANCH   1  37
ATOM     37  O   UNL     1      95.444  74.682  75.977  1.00  0.00    -0.461 OA
BRANCH  37  38
ATOM     38  C   UNL     1      95.059  73.426  76.383  1.00  0.00     0.310 C 
ATOM     39  O   UNL     1      95.150  72.997  77.525  1.00  0.00    -0.252 OA
BRANCH  38  40
ATOM     40  C   UNL     1      94.507  72.661  75.202  1.00  0.00     0.158 C 
BRANCH  40  41
ATOM     41  C   UNL     1      93.022  72.425  75.297  1.00  0.00    -0.033 A 
ATOM     42  C   UNL     1      92.134  73.489  75.129  1.00  0.00     0.054 A 
ATOM     43  C   UNL     1      92.534  71.143  75.552  1.00  0.00     0.008 A 
ATOM     44  C   UNL     1      90.759  73.270  75.216  1.00  0.00     0.160 A 
ATOM     45  C   UNL     1      91.159  70.925  75.639  1.00  0.00     0.050 A 
ATOM     46  C   UNL     1      90.272  71.987  75.472  1.00  0.00     0.157 A 
BRANCH  44  47
ATOM     47  O   UNL     1      89.903  74.316  75.051  1.00  0.00    -0.493 OA
ATOM     48  C   UNL     1      89.694  75.167  76.177  1.00  0.00     0.278 C 
ENDBRANCH  44  47
BRANCH  46  49
ATOM     49  O   UNL     1      88.932  71.762  75.558  1.00  0.00    -0.504 OA
ATOM     50  H   UNL     1      88.601  72.131  76.395  1.00  0.00     0.293 HD
ENDBRANCH  46  49
ENDBRANCH  40  41
ENDBRANCH  38  40
ENDBRANCH  37  38
ENDBRANCH   1  37
TORSDOF 11
ENDMDL
MODEL 8
REMARK VINA RESULT:    -5.626     19.527     24.118
REMARK INTER + INTRA:         -11.393
REMARK INTER:                  -9.737
REMARK INTRA:                  -1.656
REMARK UNBOUND:                -1.490
REMARK SMILES C=C(C)[C@]12C[C@@H](C)[C@@]34O[C@](Cc5ccccc5)(O[C@@H]1[C@@H]3C=C(COC(=O)Cc1ccc(O)c(OC)c1)C[C@]1(O)C(=O)C(C)=C[C@@H]41)O2
REMARK SMILES IDX 23 1 22 2 21 3 20 4 9 5 8 6 10 7 6 8 18 9 46 10 19 11 5 12
REMARK SMILES IDX 7 13 4 14 45 15 38 16 44 17 40 18 42 20 41 21 43 22 39 23
REMARK SMILES IDX 11 25 12 26 13 27 17 28 14 29 16 30 15 31 2 32 3 33 1 34
REMARK SMILES IDX 37 35 24 37 25 38 26 39 27 40 28 41 36 42 29 43 33 44 30 45
REMARK SMILES IDX 31 46 34 47 35 48 32 49
REMARK H PARENT 39 24 32 50
REMARK Flexibility Score: 90.00
ROOT
ATOM      1  C   UNL     1     103.819  79.142  75.180  1.00  0.00     0.264 C 
ENDROOT
BRANCH   1   2
ATOM      2  C   UNL     1     102.358  78.997  74.824  1.00  0.00    -0.033 C 
ATOM      3  C   UNL     1     101.496  79.976  75.166  1.00  0.00    -0.015 C 
BRANCH   3   4
ATOM      4  C   UNL     1      99.987  80.036  74.995  1.00  0.00     0.078 C 
ATOM      5  O   UNL     1      99.551  81.155  72.833  1.00  0.00    -0.319 OA
ATOM      6  C   UNL     1      99.391  79.890  73.545  1.00  0.00     0.095 C 
ATOM      7  C   UNL     1      99.253  82.337  73.600  1.00  0.00     0.289 C 
ATOM      8  C   UNL     1      97.848  79.562  73.692  1.00  0.00     0.023 C 
ATOM      9  O   UNL     1     100.057  82.407  74.775  1.00  0.00    -0.320 OA
ATOM     10  O   UNL     1      97.903  82.359  74.057  1.00  0.00    -0.313 OA
ATOM     11  C   UNL     1      99.446  81.372  75.561  1.00  0.00     0.170 C 
ATOM     12  C   UNL     1      97.233  80.256  74.946  1.00  0.00     0.049 C 
ATOM     13  C   UNL     1      96.986  79.878  72.458  1.00  0.00     0.011 C 
ATOM     14  C   UNL     1      97.939  81.574  75.266  1.00  0.00     0.122 C 
BRANCH   6  15
ATOM     15  C   UNL     1     100.216  78.867  72.710  1.00  0.00     0.086 C 
ATOM     16  C   UNL     1     100.641  77.578  73.443  1.00  0.00     0.140 CG0
ATOM     17  C   UNL     1      99.661  78.363  71.408  1.00  0.00    -0.010 C 
ATOM     18  C   UNL     1     100.588  76.543  72.339  1.00  0.00     0.190 C 
ATOM     19  G   UNL     1     102.032  77.699  74.064  1.00  0.00     0.000 G0
ATOM     20  C   UNL     1      99.878  77.067  71.157  1.00  0.00    -0.008 C 
ATOM     21  O   UNL     1     101.022  75.404  72.414  1.00  0.00    -0.291 OA
ATOM     22  C   UNL     1      99.555  76.263  69.960  1.00  0.00     0.048 C 
BRANCH  16  23
ATOM     23  O   UNL     1      99.691  77.114  74.388  1.00  0.00    -0.381 OA
ATOM     24  H   UNL     1      99.843  76.166  74.535  1.00  0.00     0.212 HD
ENDBRANCH  16  23
ENDBRANCH   6  15
BRANCH   7  25
ATOM     25  C   UNL     1      99.512  83.548  72.728  1.00  0.00     0.135 C 
BRANCH  25  26
ATOM     26  C   UNL     1     100.963  83.659  72.332  1.00  0.00    -0.040 A 
ATOM     27  C   UNL     1     101.925  82.884  72.982  1.00  0.00     0.004 A 
ATOM     28  C   UNL     1     101.344  84.534  71.315  1.00  0.00     0.004 A 
ATOM     29  C   UNL     1     103.267  82.986  72.616  1.00  0.00     0.000 A 
ATOM     30  C   UNL     1     102.687  84.636  70.949  1.00  0.00     0.000 A 
ATOM     31  C   UNL     1     103.648  83.862  71.600  1.00  0.00     0.000 A 
ENDBRANCH  25  26
ENDBRANCH   7  25
BRANCH  14  32
ATOM     32  C   UNL     1      97.254  82.344  76.348  1.00  0.00    -0.046 C 
ATOM     33  C   UNL     1      96.289  83.401  75.899  1.00  0.00     0.042 C 
ATOM     34  C   UNL     1      97.488  82.104  77.647  1.00  0.00     0.010 C 
ENDBRANCH  14  32
ENDBRANCH   3   4
BRANCH   2  35
ATOM     35  C   UNL     1     102.050  77.707  74.089  1.00  0.00     0.078 CG0
ATOM     36  G   UNL     1     100.670  77.582  73.445  1.00  0.00     0.000 G0
ENDBRANCH   2  35
ENDBRANCH   1   2
BRANCH   1  37
ATOM     37  O   UNL     1     103.934  79.758  76.444  1.00  0.00    -0.461 OA
BRANCH  37  38
ATOM     38  C   UNL     1     104.422  78.971  77.462  1.00  0.00     0.310 C 
ATOM     39  O   UNL     1     105.184  78.025  77.315  1.00  0.00    -0.252 OA
BRANCH  38  40
ATOM     40  C   UNL     1     103.873  79.457  78.783  1.00  0.00     0.158 C 
BRANCH  40  41
ATOM     41  C   UNL     1     102.406  79.161  78.954  1.00  0.00    -0.033 A 
ATOM     42  C   UNL     1     101.928  77.865  78.751  1.00  0.00     0.054 A 
ATOM     43  C   UNL     1     101.526  80.180  79.317  1.00  0.00     0.008 A 
ATOM     44  C   UNL     1     100.569  77.591  78.909  1.00  0.00     0.160 A 
ATOM     45  C   UNL     1     100.167  79.905  79.475  1.00  0.00     0.050 A 
ATOM     46  C   UNL     1      99.689  78.611  79.272  1.00  0.00     0.157 A 
BRANCH  44  47
ATOM     47  O   UNL     1     100.114  76.323  78.708  1.00  0.00    -0.493 OA
ATOM     48  C   UNL     1     100.439  75.708  77.462  1.00  0.00     0.278 C 
ENDBRANCH  44  47
BRANCH  46  49
ATOM     49  O   UNL     1      98.361  78.355  79.431  1.00  0.00    -0.504 OA
ATOM     50  H   UNL     1      97.917  79.163  79.739  1.00  0.00     0.293 HD
ENDBRANCH  46  49
ENDBRANCH  40  41
ENDBRANCH  38  40
ENDBRANCH  37  38
ENDBRANCH   1  37
TORSDOF 11
ENDMDL
MODEL 9
REMARK VINA RESULT:    -5.476     35.509     39.494
REMARK INTER + INTRA:         -11.129
REMARK INTER:                  -9.155
REMARK INTRA:                  -1.973
REMARK UNBOUND:                -1.490
REMARK SMILES C=C(C)[C@]12C[C@@H](C)[C@@]34O[C@](Cc5ccccc5)(O[C@@H]1[C@@H]3C=C(COC(=O)Cc1ccc(O)c(OC)c1)C[C@]1(O)C(=O)C(C)=C[C@@H]41)O2
REMARK SMILES IDX 23 1 22 2 21 3 20 4 9 5 8 6 10 7 6 8 18 9 46 10 19 11 5 12
REMARK SMILES IDX 7 13 4 14 45 15 38 16 44 17 40 18 42 20 41 21 43 22 39 23
REMARK SMILES IDX 11 25 12 26 13 27 17 28 14 29 16 30 15 31 2 32 3 33 1 34
REMARK SMILES IDX 37 35 24 37 25 38 26 39 27 40 28 41 36 42 29 43 33 44 30 45
REMARK SMILES IDX 31 46 34 47 35 48 32 49
REMARK H PARENT 39 24 32 50
REMARK Flexibility Score: 90.00
ROOT
ATOM      1  C   UNL     1      55.616  89.080  75.397  1.00  0.00     0.264 C 
ENDROOT
BRANCH   1   2
ATOM      2  C   UNL     1      55.572  90.255  74.448  1.00  0.00    -0.033 C 
ATOM      3  C   UNL     1      55.985  90.091  73.175  1.00  0.00    -0.015 C 
BRANCH   3   4
ATOM      4  C   UNL     1      56.111  91.117  72.061  1.00  0.00     0.078 C 
ATOM      5  O   UNL     1      53.971  91.099  70.819  1.00  0.00    -0.319 OA
ATOM      6  C   UNL     1      54.831  91.938  71.651  1.00  0.00     0.095 C 
ATOM      7  C   UNL     1      54.654  90.314  69.823  1.00  0.00     0.289 C 
ATOM      8  C   UNL     1      55.314  93.190  70.809  1.00  0.00     0.023 C 
ATOM      9  O   UNL     1      55.631  89.463  70.415  1.00  0.00    -0.320 OA
ATOM     10  O   UNL     1      55.363  91.124  68.889  1.00  0.00    -0.313 OA
ATOM     11  C   UNL     1      56.628  90.434  70.772  1.00  0.00     0.170 C 
ATOM     12  C   UNL     1      56.585  92.857  69.968  1.00  0.00     0.049 C 
ATOM     13  C   UNL     1      54.249  93.824  69.899  1.00  0.00     0.011 C 
ATOM     14  C   UNL     1      56.618  91.387  69.550  1.00  0.00     0.122 C 
BRANCH   6  15
ATOM     15  C   UNL     1      53.963  92.266  72.900  1.00  0.00     0.086 C 
ATOM     16  C   UNL     1      54.728  92.719  74.161  1.00  0.00     0.140 CG0
ATOM     17  C   UNL     1      52.856  93.276  72.782  1.00  0.00    -0.010 C 
ATOM     18  C   UNL     1      53.772  93.714  74.783  1.00  0.00     0.190 C 
ATOM     19  G   UNL     1      55.046  91.551  75.093  1.00  0.00     0.000 G0
ATOM     20  C   UNL     1      52.705  94.086  73.835  1.00  0.00    -0.008 C 
ATOM     21  O   UNL     1      53.880  94.196  75.901  1.00  0.00    -0.291 OA
ATOM     22  C   UNL     1      51.687  95.124  74.100  1.00  0.00     0.048 C 
BRANCH  16  23
ATOM     23  O   UNL     1      55.886  93.490  73.884  1.00  0.00    -0.381 OA
ATOM     24  H   UNL     1      55.604  94.371  73.588  1.00  0.00     0.212 HD
ENDBRANCH  16  23
ENDBRANCH   6  15
BRANCH   7  25
ATOM     25  C   UNL     1      53.624  89.479  69.089  1.00  0.00     0.135 C 
BRANCH  25  26
ATOM     26  C   UNL     1      53.825  89.519  67.595  1.00  0.00    -0.040 A 
ATOM     27  C   UNL     1      53.193  90.503  66.833  1.00  0.00     0.004 A 
ATOM     28  C   UNL     1      54.642  88.575  66.974  1.00  0.00     0.004 A 
ATOM     29  C   UNL     1      53.379  90.540  65.450  1.00  0.00     0.000 A 
ATOM     30  C   UNL     1      54.828  88.612  65.592  1.00  0.00     0.000 A 
ATOM     31  C   UNL     1      54.196  89.596  64.831  1.00  0.00     0.000 A 
ENDBRANCH  25  26
ENDBRANCH   7  25
BRANCH  14  32
ATOM     32  C   UNL     1      57.726  91.086  68.594  1.00  0.00    -0.046 C 
ATOM     33  C   UNL     1      59.052  91.717  68.898  1.00  0.00     0.042 C 
ATOM     34  C   UNL     1      57.545  90.296  67.525  1.00  0.00     0.010 C 
ENDBRANCH  14  32
ENDBRANCH   3   4
BRANCH   2  35
ATOM     35  C   UNL     1      55.034  91.519  75.091  1.00  0.00     0.078 CG0
ATOM     36  G   UNL     1      54.747  92.705  74.171  1.00  0.00     0.000 G0
ENDBRANCH   2  35
ENDBRANCH   1   2
BRANCH   1  37
ATOM     37  O   UNL     1      56.862  88.428  75.274  1.00  0.00    -0.461 OA
BRANCH  37  38
ATOM     38  C   UNL     1      56.854  87.064  75.450  1.00  0.00     0.310 C 
ATOM     39  O   UNL     1      57.282  86.480  76.436  1.00  0.00    -0.252 OA
BRANCH  38  40
ATOM     40  C   UNL     1      56.238  86.402  74.240  1.00  0.00     0.158 C 
BRANCH  40  41
ATOM     41  C   UNL     1      57.151  86.402  73.041  1.00  0.00    -0.033 A 
ATOM     42  C   UNL     1      58.535  86.415  73.219  1.00  0.00     0.054 A 
ATOM     43  C   UNL     1      56.614  86.388  71.755  1.00  0.00     0.008 A 
ATOM     44  C   UNL     1      59.381  86.414  72.110  1.00  0.00     0.160 A 
ATOM     45  C   UNL     1      57.459  86.387  70.645  1.00  0.00     0.050 A 
ATOM     46  C   UNL     1      58.842  86.401  70.822  1.00  0.00     0.157 A 
BRANCH  44  47
ATOM     47  O   UNL     1      60.730  86.427  72.296  1.00  0.00    -0.493 OA
ATOM     48  C   UNL     1      61.199  86.640  73.627  1.00  0.00     0.278 C 
ENDBRANCH  44  47
BRANCH  46  49
ATOM     49  O   UNL     1      59.658  86.399  69.732  1.00  0.00    -0.504 OA
ATOM     50  H   UNL     1      59.463  85.614  69.192  1.00  0.00     0.293 HD
ENDBRANCH  46  49
ENDBRANCH  40  41
ENDBRANCH  38  40
ENDBRANCH  37  38
ENDBRANCH   1  37
TORSDOF 11
ENDMDL
MODEL 10
REMARK VINA RESULT:    -5.329     28.368     32.176
REMARK INTER + INTRA:         -10.869
REMARK INTER:                  -8.549
REMARK INTRA:                  -2.319
REMARK UNBOUND:                -1.490
REMARK SMILES C=C(C)[C@]12C[C@@H](C)[C@@]34O[C@](Cc5ccccc5)(O[C@@H]1[C@@H]3C=C(COC(=O)Cc1ccc(O)c(OC)c1)C[C@]1(O)C(=O)C(C)=C[C@@H]41)O2
REMARK SMILES IDX 23 1 22 2 21 3 20 4 9 5 8 6 10 7 6 8 18 9 46 10 19 11 5 12
REMARK SMILES IDX 7 13 4 14 45 15 38 16 44 17 40 18 42 20 41 21 43 22 39 23
REMARK SMILES IDX 11 25 12 26 13 27 17 28 14 29 16 30 15 31 2 32 3 33 1 34
REMARK SMILES IDX 37 35 24 37 25 38 26 39 27 40 28 41 36 42 29 43 33 44 30 45
REMARK SMILES IDX 31 46 34 47 35 48 32 49
REMARK H PARENT 39 24 32 50
REMARK Flexibility Score: 90.00
ROOT
ATOM      1  C   UNL     1      62.357  86.367  68.561  1.00  0.00     0.264 C 
ENDROOT
BRANCH   1   2
ATOM      2  C   UNL     1      63.071  87.341  69.469  1.00  0.00    -0.033 C 
ATOM      3  C   UNL     1      63.362  86.972  70.732  1.00  0.00    -0.015 C 
BRANCH   3   4
ATOM      4  C   UNL     1      63.996  87.782  71.852  1.00  0.00     0.078 C 
ATOM      5  O   UNL     1      66.435  87.385  71.736  1.00  0.00    -0.319 OA
ATOM      6  C   UNL     1      65.414  88.421  71.604  1.00  0.00     0.095 C 
ATOM      7  C   UNL     1      66.255  86.479  72.841  1.00  0.00     0.289 C 
ATOM      8  C   UNL     1      65.642  89.527  72.716  1.00  0.00     0.023 C 
ATOM      9  O   UNL     1      64.992  85.822  72.771  1.00  0.00    -0.320 OA
ATOM     10  O   UNL     1      66.271  87.149  74.098  1.00  0.00    -0.313 OA
ATOM     11  C   UNL     1      64.123  86.909  73.125  1.00  0.00     0.170 C 
ATOM     12  C   UNL     1      64.959  89.134  74.061  1.00  0.00     0.049 C 
ATOM     13  C   UNL     1      67.109  89.905  72.978  1.00  0.00     0.011 C 
ATOM     14  C   UNL     1      64.916  87.617  74.252  1.00  0.00     0.122 C 
BRANCH   6  15
ATOM     15  C   UNL     1      65.547  88.913  70.134  1.00  0.00     0.086 C 
ATOM     16  C   UNL     1      64.317  89.634  69.543  1.00  0.00     0.140 CG0
ATOM     17  C   UNL     1      66.692  89.812  69.759  1.00  0.00    -0.010 C 
ATOM     18  C   UNL     1      64.949  90.662  68.629  1.00  0.00     0.190 C 
ATOM     19  G   UNL     1      63.391  88.676  68.796  1.00  0.00     0.000 G0
ATOM     20  C   UNL     1      66.395  90.787  68.894  1.00  0.00    -0.008 C 
ATOM     21  O   UNL     1      64.352  91.343  67.810  1.00  0.00    -0.291 OA
ATOM     22  C   UNL     1      67.271  91.789  68.251  1.00  0.00     0.048 C 
BRANCH  16  23
ATOM     23  O   UNL     1      63.602  90.414  70.487  1.00  0.00    -0.381 OA
ATOM     24  H   UNL     1      62.652  90.272  70.346  1.00  0.00     0.212 HD
ENDBRANCH  16  23
ENDBRANCH   6  15
BRANCH   7  25
ATOM     25  C   UNL     1      67.369  85.452  72.800  1.00  0.00     0.135 C 
BRANCH  25  26
ATOM     26  C   UNL     1      67.722  85.057  71.388  1.00  0.00    -0.040 A 
ATOM     27  C   UNL     1      68.970  85.394  70.861  1.00  0.00     0.004 A 
ATOM     28  C   UNL     1      66.804  84.354  70.610  1.00  0.00     0.004 A 
ATOM     29  C   UNL     1      69.297  85.028  69.555  1.00  0.00     0.000 A 
ATOM     30  C   UNL     1      67.131  83.988  69.303  1.00  0.00     0.000 A 
ATOM     31  C   UNL     1      68.378  84.326  68.777  1.00  0.00     0.000 A 
ENDBRANCH  25  26
ENDBRANCH   7  25
BRANCH  14  32
ATOM     32  C   UNL     1      64.433  87.223  75.610  1.00  0.00    -0.046 C 
ATOM     33  C   UNL     1      65.426  86.520  76.488  1.00  0.00     0.042 C 
ATOM     34  C   UNL     1      63.183  87.482  76.022  1.00  0.00     0.010 C 
ENDBRANCH  14  32
ENDBRANCH   3   4
BRANCH   2  35
ATOM     35  C   UNL     1      63.383  88.664  68.795  1.00  0.00     0.078 CG0
ATOM     36  G   UNL     1      64.314  89.623  69.535  1.00  0.00     0.000 G0
ENDBRANCH   2  35
ENDBRANCH   1   2
BRANCH   1  37
ATOM     37  O   UNL     1      62.864  85.068  68.779  1.00  0.00    -0.461 OA
BRANCH  37  38
ATOM     38  C   UNL     1      61.947  84.044  68.746  1.00  0.00     0.310 C 
ATOM     39  O   UNL     1      62.107  82.976  68.172  1.00  0.00    -0.252 OA
BRANCH  38  40
ATOM     40  C   UNL     1      60.717  84.443  69.527  1.00  0.00     0.158 C 
BRANCH  40  41
ATOM     41  C   UNL     1      60.923  84.385  71.019  1.00  0.00    -0.033 A 
ATOM     42  C   UNL     1      61.918  83.566  71.554  1.00  0.00     0.054 A 
ATOM     43  C   UNL     1      60.121  85.152  71.864  1.00  0.00     0.008 A 
ATOM     44  C   UNL     1      62.109  83.513  72.935  1.00  0.00     0.160 A 
ATOM     45  C   UNL     1      60.312  85.098  73.245  1.00  0.00     0.050 A 
ATOM     46  C   UNL     1      61.305  84.279  73.780  1.00  0.00     0.157 A 
BRANCH  44  47
ATOM     47  O   UNL     1      63.082  82.709  73.446  1.00  0.00    -0.493 OA
ATOM     48  C   UNL     1      62.838  81.303  73.427  1.00  0.00     0.278 C 
ENDBRANCH  44  47
BRANCH  46  49
ATOM     49  O   UNL     1      61.484  84.236  75.130  1.00  0.00    -0.504 OA
ATOM     50  H   UNL     1      62.243  84.795  75.367  1.00  0.00     0.293 HD
ENDBRANCH  46  49
ENDBRANCH  40  41
ENDBRANCH  38  40
ENDBRANCH  37  38
ENDBRANCH   1  37
TORSDOF 11
ENDMDL
