MODEL 1
REMARK VINA RESULT:    -6.868      0.000      0.000
REMARK INTER + INTRA:         -13.189
REMARK INTER:                 -12.087
REMARK INTRA:                  -1.102
REMARK UNBOUND:                -1.102
REMARK SMILES C=C(C)[C@]12C[C@@H](C)[C@@]34O[C@](Cc5ccccc5)(O[C@@H]1[C@@H]3C=C(COC(=O)Cc1ccc(O)c(OC)c1)C[C@]1(O)C(=O)C(C)=C[C@@H]41)O2
REMARK SMILES IDX 23 1 22 2 21 3 20 4 9 5 8 6 10 7 6 8 18 9 46 10 19 11 5 12
REMARK SMILES IDX 7 13 4 14 45 15 38 16 44 17 40 18 42 20 41 21 43 22 39 23
REMARK SMILES IDX 11 25 12 26 13 27 17 28 14 29 16 30 15 31 2 32 3 33 1 34
REMARK SMILES IDX 37 35 24 37 25 38 26 39 27 40 28 41 36 42 29 43 33 44 30 45
REMARK SMILES IDX 31 46 34 47 35 48 32 49
REMARK H PARENT 39 24 32 50
REMARK Flexibility Score: 90.00
ROOT
ATOM      1  C   UNL     1      96.641  80.944  84.241  1.00  0.00     0.264 C 
ENDROOT
BRANCH   1   2
ATOM      2  C   UNL     1      95.331  81.437  84.810  1.00  0.00    -0.033 C 
ATOM      3  C   UNL     1      94.248  80.635  84.762  1.00  0.00    -0.015 C 
BRANCH   3   4
ATOM      4  C   UNL     1      92.817  80.920  85.189  1.00  0.00     0.078 C 
ATOM      5  O   UNL     1      92.604  80.171  87.537  1.00  0.00    -0.319 OA
ATOM      6  C   UNL     1      92.553  81.353  86.679  1.00  0.00     0.095 C 
ATOM      7  C   UNL     1      91.944  79.002  87.016  1.00  0.00     0.289 C 
ATOM      8  C   UNL     1      91.101  81.985  86.745  1.00  0.00     0.023 C 
ATOM      9  O   UNL     1      92.477  78.629  85.748  1.00  0.00    -0.320 OA
ATOM     10  O   UNL     1      90.552  79.218  86.800  1.00  0.00    -0.313 OA
ATOM     11  C   UNL     1      91.933  79.676  84.928  1.00  0.00     0.170 C 
ATOM     12  C   UNL     1      90.134  81.302  85.730  1.00  0.00     0.049 C 
ATOM     13  C   UNL     1      90.451  82.001  88.138  1.00  0.00     0.011 C 
ATOM     14  C   UNL     1      90.501  79.836  85.497  1.00  0.00     0.122 C 
BRANCH   6  15
ATOM     15  C   UNL     1      93.702  82.262  87.202  1.00  0.00     0.086 C 
ATOM     16  C   UNL     1      94.208  83.347  86.228  1.00  0.00     0.140 CG0
ATOM     17  C   UNL     1      93.521  83.009  88.493  1.00  0.00    -0.010 C 
ATOM     18  C   UNL     1      94.568  84.482  87.162  1.00  0.00     0.190 C 
ATOM     19  G   UNL     1      95.400  82.869  85.400  1.00  0.00     0.000 G0
ATOM     20  C   UNL     1      94.021  84.249  88.513  1.00  0.00    -0.008 C 
ATOM     21  O   UNL     1      95.184  85.489  86.849  1.00  0.00    -0.291 OA
ATOM     22  C   UNL     1      94.098  85.227  89.617  1.00  0.00     0.048 C 
BRANCH  16  23
ATOM     23  O   UNL     1      93.193  83.896  85.404  1.00  0.00    -0.381 OA
ATOM     24  H   UNL     1      92.666  83.166  85.038  1.00  0.00     0.212 HD
ENDBRANCH  16  23
ENDBRANCH   6  15
BRANCH   7  25
ATOM     25  C   UNL     1      92.133  77.869  88.004  1.00  0.00     0.135 C 
BRANCH  25  26
ATOM     26  C   UNL     1      91.019  76.855  87.921  1.00  0.00    -0.040 A 
ATOM     27  C   UNL     1      91.037  75.880  86.923  1.00  0.00     0.004 A 
ATOM     28  C   UNL     1      89.973  76.890  88.842  1.00  0.00     0.004 A 
ATOM     29  C   UNL     1      90.007  74.941  86.846  1.00  0.00     0.000 A 
ATOM     30  C   UNL     1      88.943  75.952  88.765  1.00  0.00     0.000 A 
ATOM     31  C   UNL     1      88.961  74.978  87.766  1.00  0.00     0.000 A 
ENDBRANCH  25  26
ENDBRANCH   7  25
BRANCH  14  32
ATOM     32  C   UNL     1      89.486  79.113  84.673  1.00  0.00    -0.046 C 
ATOM     33  C   UNL     1      89.669  79.181  83.186  1.00  0.00     0.042 C 
ATOM     34  C   UNL     1      88.467  78.442  85.231  1.00  0.00     0.010 C 
ENDBRANCH  14  32
ENDBRANCH   3   4
BRANCH   2  35
ATOM     35  C   UNL     1      95.424  82.834  85.394  1.00  0.00     0.078 CG0
ATOM     36  G   UNL     1      94.226  83.336  86.199  1.00  0.00     0.000 G0
ENDBRANCH   2  35
ENDBRANCH   1   2
BRANCH   1  37
ATOM     37  O   UNL     1      96.986  81.728  83.119  1.00  0.00    -0.461 OA
BRANCH  37  38
ATOM     38  C   UNL     1      96.672  81.200  81.888  1.00  0.00     0.310 C 
ATOM     39  O   UNL     1      96.346  80.039  81.684  1.00  0.00    -0.252 OA
BRANCH  38  40
ATOM     40  C   UNL     1      96.794  82.274  80.832  1.00  0.00     0.158 C 
BRANCH  40  41
ATOM     41  C   UNL     1      97.349  81.758  79.530  1.00  0.00    -0.033 A 
ATOM     42  C   UNL     1      96.706  82.061  78.329  1.00  0.00     0.054 A 
ATOM     43  C   UNL     1      98.505  80.978  79.524  1.00  0.00     0.008 A 
ATOM     44  C   UNL     1      97.220  81.583  77.123  1.00  0.00     0.160 A 
ATOM     45  C   UNL     1      99.019  80.501  78.318  1.00  0.00     0.050 A 
ATOM     46  C   UNL     1      98.377  80.802  77.118  1.00  0.00     0.157 A 
BRANCH  44  47
ATOM     47  O   UNL     1      96.583  81.885  75.958  1.00  0.00    -0.493 OA
ATOM     48  C   UNL     1      96.171  83.238  75.775  1.00  0.00     0.278 C 
ENDBRANCH  44  47
BRANCH  46  49
ATOM     49  O   UNL     1      98.888  80.332  75.947  1.00  0.00    -0.504 OA
ATOM     50  H   UNL     1      99.225  79.431  76.088  1.00  0.00     0.293 HD
ENDBRANCH  46  49
ENDBRANCH  40  41
ENDBRANCH  38  40
ENDBRANCH  37  38
ENDBRANCH   1  37
TORSDOF 11
ENDMDL
MODEL 2
REMARK VINA RESULT:    -6.695      2.396      6.552
REMARK INTER + INTRA:         -12.885
REMARK INTER:                 -11.775
REMARK INTRA:                  -1.111
REMARK UNBOUND:                -1.102
REMARK SMILES C=C(C)[C@]12C[C@@H](C)[C@@]34O[C@](Cc5ccccc5)(O[C@@H]1[C@@H]3C=C(COC(=O)Cc1ccc(O)c(OC)c1)C[C@]1(O)C(=O)C(C)=C[C@@H]41)O2
REMARK SMILES IDX 23 1 22 2 21 3 20 4 9 5 8 6 10 7 6 8 18 9 46 10 19 11 5 12
REMARK SMILES IDX 7 13 4 14 45 15 38 16 44 17 40 18 42 20 41 21 43 22 39 23
REMARK SMILES IDX 11 25 12 26 13 27 17 28 14 29 16 30 15 31 2 32 3 33 1 34
REMARK SMILES IDX 37 35 24 37 25 38 26 39 27 40 28 41 36 42 29 43 33 44 30 45
REMARK SMILES IDX 31 46 34 47 35 48 32 49
REMARK H PARENT 39 24 32 50
REMARK Flexibility Score: 90.00
ROOT
ATOM      1  C   UNL     1      96.705  80.372  84.696  1.00  0.00     0.264 C 
ENDROOT
BRANCH   1   2
ATOM      2  C   UNL     1      95.572  80.633  85.662  1.00  0.00    -0.033 C 
ATOM      3  C   UNL     1      95.793  81.408  86.743  1.00  0.00    -0.015 C 
BRANCH   3   4
ATOM      4  C   UNL     1      94.857  81.755  87.889  1.00  0.00     0.078 C 
ATOM      5  O   UNL     1      93.731  83.873  87.282  1.00  0.00    -0.319 OA
ATOM      6  C   UNL     1      93.489  82.458  87.551  1.00  0.00     0.095 C 
ATOM      7  C   UNL     1      94.653  84.522  88.179  1.00  0.00     0.289 C 
ATOM      8  C   UNL     1      92.552  82.319  88.821  1.00  0.00     0.023 C 
ATOM      9  O   UNL     1      95.919  83.867  88.181  1.00  0.00    -0.320 OA
ATOM     10  O   UNL     1      94.203  84.494  89.531  1.00  0.00    -0.313 OA
ATOM     11  C   UNL     1      95.584  82.672  88.903  1.00  0.00     0.170 C 
ATOM     12  C   UNL     1      93.376  82.349  90.145  1.00  0.00     0.049 C 
ATOM     13  C   UNL     1      91.405  83.339  88.909  1.00  0.00     0.011 C 
ATOM     14  C   UNL     1      94.636  83.203  90.007  1.00  0.00     0.122 C 
BRANCH   6  15
ATOM     15  C   UNL     1      92.899  81.905  86.221  1.00  0.00     0.086 C 
ATOM     16  C   UNL     1      92.992  80.379  86.018  1.00  0.00     0.140 CG0
ATOM     17  C   UNL     1      91.474  82.220  85.861  1.00  0.00    -0.010 C 
ATOM     18  C   UNL     1      91.721  80.073  85.253  1.00  0.00     0.190 C 
ATOM     19  G   UNL     1      94.249  79.974  85.249  1.00  0.00     0.000 G0
ATOM     20  C   UNL     1      90.794  81.220  85.290  1.00  0.00    -0.008 C 
ATOM     21  O   UNL     1      91.457  79.009  84.715  1.00  0.00    -0.291 OA
ATOM     22  C   UNL     1      89.423  81.194  84.740  1.00  0.00     0.048 C 
BRANCH  16  23
ATOM     23  O   UNL     1      92.854  79.631  87.215  1.00  0.00    -0.381 OA
ATOM     24  H   UNL     1      92.499  78.755  86.991  1.00  0.00     0.212 HD
ENDBRANCH  16  23
ENDBRANCH   6  15
BRANCH   7  25
ATOM     25  C   UNL     1      94.820  85.960  87.731  1.00  0.00     0.135 C 
BRANCH  25  26
ATOM     26  C   UNL     1      95.230  86.862  88.868  1.00  0.00    -0.040 A 
ATOM     27  C   UNL     1      96.582  87.041  89.164  1.00  0.00     0.004 A 
ATOM     28  C   UNL     1      94.259  87.519  89.623  1.00  0.00     0.004 A 
ATOM     29  C   UNL     1      96.961  87.876  90.215  1.00  0.00     0.000 A 
ATOM     30  C   UNL     1      94.638  88.353  90.674  1.00  0.00     0.000 A 
ATOM     31  C   UNL     1      95.990  88.531  90.970  1.00  0.00     0.000 A 
ENDBRANCH  25  26
ENDBRANCH   7  25
BRANCH  14  32
ATOM     32  C   UNL     1      95.344  83.396  91.309  1.00  0.00    -0.046 C 
ATOM     33  C   UNL     1      96.164  82.238  91.795  1.00  0.00     0.042 C 
ATOM     34  C   UNL     1      95.251  84.540  92.004  1.00  0.00     0.010 C 
ENDBRANCH  14  32
ENDBRANCH   3   4
BRANCH   2  35
ATOM     35  C   UNL     1      94.276  79.959  85.254  1.00  0.00     0.078 CG0
ATOM     36  G   UNL     1      93.008  80.375  86.000  1.00  0.00     0.000 G0
ENDBRANCH   2  35
ENDBRANCH   1   2
BRANCH   1  37
ATOM     37  O   UNL     1      96.701  81.363  83.692  1.00  0.00    -0.461 OA
BRANCH  37  38
ATOM     38  C   UNL     1      96.392  80.940  82.420  1.00  0.00     0.310 C 
ATOM     39  O   UNL     1      95.998  79.819  82.129  1.00  0.00    -0.252 OA
BRANCH  38  40
ATOM     40  C   UNL     1      96.616  82.070  81.444  1.00  0.00     0.158 C 
BRANCH  40  41
ATOM     41  C   UNL     1      97.333  81.633  80.192  1.00  0.00    -0.033 A 
ATOM     42  C   UNL     1      96.787  81.918  78.940  1.00  0.00     0.054 A 
ATOM     43  C   UNL     1      98.542  80.944  80.285  1.00  0.00     0.008 A 
ATOM     44  C   UNL     1      97.451  81.514  77.782  1.00  0.00     0.160 A 
ATOM     45  C   UNL     1      99.206  80.540  79.127  1.00  0.00     0.050 A 
ATOM     46  C   UNL     1      98.660  80.824  77.875  1.00  0.00     0.157 A 
BRANCH  44  47
ATOM     47  O   UNL     1      96.908  81.797  76.565  1.00  0.00    -0.493 OA
ATOM     48  C   UNL     1      96.420  83.123  76.366  1.00  0.00     0.278 C 
ENDBRANCH  44  47
BRANCH  46  49
ATOM     49  O   UNL     1      99.318  80.425  76.751  1.00  0.00    -0.504 OA
ATOM     50  H   UNL     1      99.709  79.549  76.908  1.00  0.00     0.293 HD
ENDBRANCH  46  49
ENDBRANCH  40  41
ENDBRANCH  38  40
ENDBRANCH  37  38
ENDBRANCH   1  37
TORSDOF 11
ENDMDL
MODEL 3
REMARK VINA RESULT:    -6.204      1.725      2.476
REMARK INTER + INTRA:         -12.022
REMARK INTER:                 -12.481
REMARK INTRA:                   0.459
REMARK UNBOUND:                -1.102
REMARK SMILES C=C(C)[C@]12C[C@@H](C)[C@@]34O[C@](Cc5ccccc5)(O[C@@H]1[C@@H]3C=C(COC(=O)Cc1ccc(O)c(OC)c1)C[C@]1(O)C(=O)C(C)=C[C@@H]41)O2
REMARK SMILES IDX 23 1 22 2 21 3 20 4 9 5 8 6 10 7 6 8 18 9 46 10 19 11 5 12
REMARK SMILES IDX 7 13 4 14 45 15 38 16 44 17 40 18 42 20 41 21 43 22 39 23
REMARK SMILES IDX 11 25 12 26 13 27 17 28 14 29 16 30 15 31 2 32 3 33 1 34
REMARK SMILES IDX 37 35 24 37 25 38 26 39 27 40 28 41 36 42 29 43 33 44 30 45
REMARK SMILES IDX 31 46 34 47 35 48 32 49
REMARK H PARENT 39 24 32 50
REMARK Flexibility Score: 90.00
ROOT
ATOM      1  C   UNL     1      96.332  81.098  84.259  1.00  0.00     0.264 C 
ENDROOT
BRANCH   1   2
ATOM      2  C   UNL     1      95.162  81.775  84.933  1.00  0.00    -0.033 C 
ATOM      3  C   UNL     1      94.044  81.065  85.184  1.00  0.00    -0.015 C 
BRANCH   3   4
ATOM      4  C   UNL     1      92.720  81.525  85.772  1.00  0.00     0.078 C 
ATOM      5  O   UNL     1      92.851  81.159  88.215  1.00  0.00    -0.319 OA
ATOM      6  C   UNL     1      92.727  82.198  87.196  1.00  0.00     0.095 C 
ATOM      7  C   UNL     1      92.051  79.982  87.997  1.00  0.00     0.289 C 
ATOM      8  C   UNL     1      91.343  82.948  87.378  1.00  0.00     0.023 C 
ATOM      9  O   UNL     1      92.348  79.380  86.740  1.00  0.00    -0.320 OA
ATOM     10  O   UNL     1      90.656  80.275  87.963  1.00  0.00    -0.313 OA
ATOM     11  C   UNL     1      91.737  80.331  85.854  1.00  0.00     0.170 C 
ATOM     12  C   UNL     1      90.187  82.200  86.646  1.00  0.00     0.049 C 
ATOM     13  C   UNL     1      90.931  83.228  88.833  1.00  0.00     0.011 C 
ATOM     14  C   UNL     1      90.428  80.691  86.601  1.00  0.00     0.122 C 
BRANCH   6  15
ATOM     15  C   UNL     1      93.995  83.080  87.383  1.00  0.00     0.086 C 
ATOM     16  C   UNL     1      94.397  83.957  86.179  1.00  0.00     0.140 CG0
ATOM     17  C   UNL     1      94.067  84.030  88.546  1.00  0.00    -0.010 C 
ATOM     18  C   UNL     1      94.967  85.190  86.849  1.00  0.00     0.190 C 
ATOM     19  G   UNL     1      95.412  83.262  85.272  1.00  0.00     0.000 G0
ATOM     20  C   UNL     1      94.633  85.213  88.285  1.00  0.00    -0.008 C 
ATOM     21  O   UNL     1      95.580  86.083  86.284  1.00  0.00    -0.291 OA
ATOM     22  C   UNL     1      94.941  86.340  89.189  1.00  0.00     0.048 C 
BRANCH  16  23
ATOM     23  O   UNL     1      93.296  84.454  85.437  1.00  0.00    -0.381 OA
ATOM     24  H   UNL     1      92.484  84.045  85.782  1.00  0.00     0.212 HD
ENDBRANCH  16  23
ENDBRANCH   6  15
BRANCH   7  25
ATOM     25  C   UNL     1      92.334  79.000  89.115  1.00  0.00     0.135 C 
BRANCH  25  26
ATOM     26  C   UNL     1      92.093  79.606  90.475  1.00  0.00    -0.040 A 
ATOM     27  C   UNL     1      90.927  80.332  90.718  1.00  0.00     0.004 A 
ATOM     28  C   UNL     1      93.035  79.440  91.490  1.00  0.00     0.004 A 
ATOM     29  C   UNL     1      90.703  80.893  91.976  1.00  0.00     0.000 A 
ATOM     30  C   UNL     1      92.812  80.001  92.748  1.00  0.00     0.000 A 
ATOM     31  C   UNL     1      91.646  80.728  92.990  1.00  0.00     0.000 A 
ENDBRANCH  25  26
ENDBRANCH   7  25
BRANCH  14  32
ATOM     32  C   UNL     1      89.254  79.937  86.069  1.00  0.00    -0.046 C 
ATOM     33  C   UNL     1      88.759  80.351  84.715  1.00  0.00     0.042 C 
ATOM     34  C   UNL     1      88.674  78.945  86.763  1.00  0.00     0.010 C 
ENDBRANCH  14  32
ENDBRANCH   3   4
BRANCH   2  35
ATOM     35  C   UNL     1      95.425  83.234  85.256  1.00  0.00     0.078 CG0
ATOM     36  G   UNL     1      94.433  83.934  86.185  1.00  0.00     0.000 G0
ENDBRANCH   2  35
ENDBRANCH   1   2
BRANCH   1  37
ATOM     37  O   UNL     1      96.899  81.977  83.312  1.00  0.00    -0.461 OA
BRANCH  37  38
ATOM     38  C   UNL     1      97.379  81.402  82.158  1.00  0.00     0.310 C 
ATOM     39  O   UNL     1      98.200  80.496  82.113  1.00  0.00    -0.252 OA
BRANCH  38  40
ATOM     40  C   UNL     1      96.736  82.062  80.961  1.00  0.00     0.158 C 
BRANCH  40  41
ATOM     41  C   UNL     1      97.383  81.672  79.657  1.00  0.00    -0.033 A 
ATOM     42  C   UNL     1      96.805  82.061  78.448  1.00  0.00     0.054 A 
ATOM     43  C   UNL     1      98.561  80.925  79.658  1.00  0.00     0.008 A 
ATOM     44  C   UNL     1      97.405  81.700  77.241  1.00  0.00     0.160 A 
ATOM     45  C   UNL     1      99.160  80.564  78.451  1.00  0.00     0.050 A 
ATOM     46  C   UNL     1      98.582  80.952  77.243  1.00  0.00     0.157 A 
BRANCH  44  47
ATOM     47  O   UNL     1      96.831  82.085  76.067  1.00  0.00    -0.493 OA
ATOM     48  C   UNL     1      95.938  83.197  76.115  1.00  0.00     0.278 C 
ENDBRANCH  44  47
BRANCH  46  49
ATOM     49  O   UNL     1      99.177  80.595  76.071  1.00  0.00    -0.504 OA
ATOM     50  H   UNL     1      98.622  79.936  75.621  1.00  0.00     0.293 HD
ENDBRANCH  46  49
ENDBRANCH  40  41
ENDBRANCH  38  40
ENDBRANCH  37  38
ENDBRANCH   1  37
TORSDOF 11
ENDMDL
MODEL 4
REMARK VINA RESULT:    -5.954     10.196     14.942
REMARK INTER + INTRA:         -11.580
REMARK INTER:                  -9.382
REMARK INTRA:                  -2.198
REMARK UNBOUND:                -1.102
REMARK SMILES C=C(C)[C@]12C[C@@H](C)[C@@]34O[C@](Cc5ccccc5)(O[C@@H]1[C@@H]3C=C(COC(=O)Cc1ccc(O)c(OC)c1)C[C@]1(O)C(=O)C(C)=C[C@@H]41)O2
REMARK SMILES IDX 23 1 22 2 21 3 20 4 9 5 8 6 10 7 6 8 18 9 46 10 19 11 5 12
REMARK SMILES IDX 7 13 4 14 45 15 38 16 44 17 40 18 42 20 41 21 43 22 39 23
REMARK SMILES IDX 11 25 12 26 13 27 17 28 14 29 16 30 15 31 2 32 3 33 1 34
REMARK SMILES IDX 37 35 24 37 25 38 26 39 27 40 28 41 36 42 29 43 33 44 30 45
REMARK SMILES IDX 31 46 34 47 35 48 32 49
REMARK H PARENT 39 24 32 50
REMARK Flexibility Score: 90.00
ROOT
ATOM      1  C   UNL     1     103.191  79.823  76.153  1.00  0.00     0.264 C 
ENDROOT
BRANCH   1   2
ATOM      2  C   UNL     1     101.812  79.619  75.571  1.00  0.00    -0.033 C 
ATOM      3  C   UNL     1     100.894  80.599  75.691  1.00  0.00    -0.015 C 
BRANCH   3   4
ATOM      4  C   UNL     1      99.434  80.611  75.267  1.00  0.00     0.078 C 
ATOM      5  O   UNL     1      99.356  81.548  72.979  1.00  0.00    -0.319 OA
ATOM      6  C   UNL     1      99.091  80.339  73.755  1.00  0.00     0.095 C 
ATOM      7  C   UNL     1      98.922  82.779  73.588  1.00  0.00     0.289 C 
ATOM      8  C   UNL     1      97.548  79.988  73.668  1.00  0.00     0.023 C 
ATOM      9  O   UNL     1      99.518  82.959  74.871  1.00  0.00    -0.320 OA
ATOM     10  O   UNL     1      97.515  82.806  73.810  1.00  0.00    -0.313 OA
ATOM     11  C   UNL     1      98.793  81.975  75.625  1.00  0.00     0.170 C 
ATOM     12  C   UNL     1      96.725  80.764  74.742  1.00  0.00     0.049 C 
ATOM     13  C   UNL     1      96.903  80.188  72.287  1.00  0.00     0.011 C 
ATOM     14  C   UNL     1      97.355  82.119  75.068  1.00  0.00     0.122 C 
BRANCH   6  15
ATOM     15  C   UNL     1     100.054  79.273  73.154  1.00  0.00     0.086 C 
ATOM     16  C   UNL     1     100.360  78.053  74.047  1.00  0.00     0.140 CG0
ATOM     17  C   UNL     1      99.732  78.659  71.820  1.00  0.00    -0.010 C 
ATOM     18  C   UNL     1     100.502  76.936  73.035  1.00  0.00     0.190 C 
ATOM     19  G   UNL     1     101.624  78.251  74.882  1.00  0.00     0.000 G0
ATOM     20  C   UNL     1      99.999  77.353  71.713  1.00  0.00    -0.008 C 
ATOM     21  O   UNL     1     100.927  75.815  73.272  1.00  0.00    -0.291 OA
ATOM     22  C   UNL     1      99.890  76.453  70.546  1.00  0.00     0.048 C 
BRANCH  16  23
ATOM     23  O   UNL     1      99.267  77.643  74.852  1.00  0.00    -0.381 OA
ATOM     24  H   UNL     1      99.061  78.357  75.477  1.00  0.00     0.212 HD
ENDBRANCH  16  23
ENDBRANCH   6  15
BRANCH   7  25
ATOM     25  C   UNL     1      99.313  83.925  72.677  1.00  0.00     0.135 C 
BRANCH  25  26
ATOM     26  C   UNL     1     100.704  83.754  72.119  1.00  0.00    -0.040 A 
ATOM     27  C   UNL     1     100.881  83.438  70.771  1.00  0.00     0.004 A 
ATOM     28  C   UNL     1     101.813  83.913  72.948  1.00  0.00     0.004 A 
ATOM     29  C   UNL     1     102.167  83.280  70.255  1.00  0.00     0.000 A 
ATOM     30  C   UNL     1     103.100  83.755  72.432  1.00  0.00     0.000 A 
ATOM     31  C   UNL     1     103.276  83.438  71.085  1.00  0.00     0.000 A 
ENDBRANCH  25  26
ENDBRANCH   7  25
BRANCH  14  32
ATOM     32  C   UNL     1      96.491  82.955  75.955  1.00  0.00    -0.046 C 
ATOM     33  C   UNL     1      96.142  82.364  77.288  1.00  0.00     0.042 C 
ATOM     34  C   UNL     1      96.052  84.166  75.580  1.00  0.00     0.010 C 
ENDBRANCH  14  32
ENDBRANCH   3   4
BRANCH   2  35
ATOM     35  C   UNL     1     101.646  78.273  74.891  1.00  0.00     0.078 CG0
ATOM     36  G   UNL     1     100.388  78.065  74.049  1.00  0.00     0.000 G0
ENDBRANCH   2  35
ENDBRANCH   1   2
BRANCH   1  37
ATOM     37  O   UNL     1     104.147  79.216  75.311  1.00  0.00    -0.461 OA
BRANCH  37  38
ATOM     38  C   UNL     1     105.131  80.040  74.814  1.00  0.00     0.310 C 
ATOM     39  O   UNL     1     106.221  80.226  75.337  1.00  0.00    -0.252 OA
BRANCH  38  40
ATOM     40  C   UNL     1     104.655  80.676  73.529  1.00  0.00     0.158 C 
BRANCH  40  41
ATOM     41  C   UNL     1     105.123  79.940  72.301  1.00  0.00    -0.033 A 
ATOM     42  C   UNL     1     104.837  78.582  72.150  1.00  0.00     0.054 A 
ATOM     43  C   UNL     1     105.841  80.615  71.314  1.00  0.00     0.008 A 
ATOM     44  C   UNL     1     105.270  77.901  71.013  1.00  0.00     0.160 A 
ATOM     45  C   UNL     1     106.274  79.933  70.176  1.00  0.00     0.050 A 
ATOM     46  C   UNL     1     105.989  78.577  70.025  1.00  0.00     0.157 A 
BRANCH  44  47
ATOM     47  O   UNL     1     104.986  76.576  70.877  1.00  0.00    -0.493 OA
ATOM     48  C   UNL     1     103.817  76.093  71.537  1.00  0.00     0.278 C 
ENDBRANCH  44  47
BRANCH  46  49
ATOM     49  O   UNL     1     106.416  77.922  68.910  1.00  0.00    -0.504 OA
ATOM     50  H   UNL     1     107.027  77.213  69.174  1.00  0.00     0.293 HD
ENDBRANCH  46  49
ENDBRANCH  40  41
ENDBRANCH  38  40
ENDBRANCH  37  38
ENDBRANCH   1  37
TORSDOF 11
ENDMDL
MODEL 5
REMARK VINA RESULT:    -5.902      3.684      8.530
REMARK INTER + INTRA:         -11.490
REMARK INTER:                  -9.703
REMARK INTRA:                  -1.787
REMARK UNBOUND:                -1.102
REMARK SMILES C=C(C)[C@]12C[C@@H](C)[C@@]34O[C@](Cc5ccccc5)(O[C@@H]1[C@@H]3C=C(COC(=O)Cc1ccc(O)c(OC)c1)C[C@]1(O)C(=O)C(C)=C[C@@H]41)O2
REMARK SMILES IDX 23 1 22 2 21 3 20 4 9 5 8 6 10 7 6 8 18 9 46 10 19 11 5 12
REMARK SMILES IDX 7 13 4 14 45 15 38 16 44 17 40 18 42 20 41 21 43 22 39 23
REMARK SMILES IDX 11 25 12 26 13 27 17 28 14 29 16 30 15 31 2 32 3 33 1 34
REMARK SMILES IDX 37 35 24 37 25 38 26 39 27 40 28 41 36 42 29 43 33 44 30 45
REMARK SMILES IDX 31 46 34 47 35 48 32 49
REMARK H PARENT 39 24 32 50
REMARK Flexibility Score: 90.00
ROOT
ATOM      1  C   UNL     1      91.058  83.889  88.694  1.00  0.00     0.264 C 
ENDROOT
BRANCH   1   2
ATOM      2  C   UNL     1      91.488  82.920  87.618  1.00  0.00    -0.033 C 
ATOM      3  C   UNL     1      92.742  82.992  87.128  1.00  0.00    -0.015 C 
BRANCH   3   4
ATOM      4  C   UNL     1      93.387  82.195  86.006  1.00  0.00     0.078 C 
ATOM      5  O   UNL     1      94.488  80.241  87.049  1.00  0.00    -0.319 OA
ATOM      6  C   UNL     1      93.423  80.626  86.126  1.00  0.00     0.095 C 
ATOM      7  C   UNL     1      95.725  80.964  86.899  1.00  0.00     0.289 C 
ATOM      8  C   UNL     1      93.740  80.042  84.688  1.00  0.00     0.023 C 
ATOM      9  O   UNL     1      95.524  82.367  87.044  1.00  0.00    -0.320 OA
ATOM     10  O   UNL     1      96.300  80.789  85.607  1.00  0.00    -0.313 OA
ATOM     11  C   UNL     1      94.852  82.655  85.808  1.00  0.00     0.170 C 
ATOM     12  C   UNL     1      94.677  80.991  83.879  1.00  0.00     0.049 C 
ATOM     13  C   UNL     1      94.315  78.616  84.666  1.00  0.00     0.011 C 
ATOM     14  C   UNL     1      95.621  81.770  84.796  1.00  0.00     0.122 C 
BRANCH   6  15
ATOM     15  C   UNL     1      92.121  80.094  86.792  1.00  0.00     0.086 C 
ATOM     16  C   UNL     1      90.803  80.747  86.327  1.00  0.00     0.140 CG0
ATOM     17  C   UNL     1      91.817  78.622  86.743  1.00  0.00    -0.010 C 
ATOM     18  C   UNL     1      89.824  79.594  86.397  1.00  0.00     0.190 C 
ATOM     19  G   UNL     1      90.393  81.918  87.219  1.00  0.00     0.000 G0
ATOM     20  C   UNL     1      90.531  78.309  86.551  1.00  0.00    -0.008 C 
ATOM     21  O   UNL     1      88.611  79.688  86.292  1.00  0.00    -0.291 OA
ATOM     22  C   UNL     1      89.866  76.990  86.531  1.00  0.00     0.048 C 
BRANCH  16  23
ATOM     23  O   UNL     1      90.796  81.113  84.957  1.00  0.00    -0.381 OA
ATOM     24  H   UNL     1      89.906  80.957  84.602  1.00  0.00     0.212 HD
ENDBRANCH  16  23
ENDBRANCH   6  15
BRANCH   7  25
ATOM     25  C   UNL     1      96.694  80.473  87.955  1.00  0.00     0.135 C 
BRANCH  25  26
ATOM     26  C   UNL     1      96.152  80.661  89.351  1.00  0.00    -0.040 A 
ATOM     27  C   UNL     1      96.422  81.837  90.051  1.00  0.00     0.004 A 
ATOM     28  C   UNL     1      95.379  79.661  89.940  1.00  0.00     0.004 A 
ATOM     29  C   UNL     1      95.921  82.012  91.341  1.00  0.00     0.000 A 
ATOM     30  C   UNL     1      94.878  79.835  91.231  1.00  0.00     0.000 A 
ATOM     31  C   UNL     1      95.150  81.011  91.931  1.00  0.00     0.000 A 
ENDBRANCH  25  26
ENDBRANCH   7  25
BRANCH  14  32
ATOM     32  C   UNL     1      96.647  82.546  84.038  1.00  0.00    -0.046 C 
ATOM     33  C   UNL     1      96.160  83.776  83.332  1.00  0.00     0.042 C 
ATOM     34  C   UNL     1      97.933  82.164  83.989  1.00  0.00     0.010 C 
ENDBRANCH  14  32
ENDBRANCH   3   4
BRANCH   2  35
ATOM     35  C   UNL     1      90.393  81.947  87.222  1.00  0.00     0.078 CG0
ATOM     36  G   UNL     1      90.792  80.770  86.333  1.00  0.00     0.000 G0
ENDBRANCH   2  35
ENDBRANCH   1   2
BRANCH   1  37
ATOM     37  O   UNL     1      92.045  84.887  88.845  1.00  0.00    -0.461 OA
BRANCH  37  38
ATOM     38  C   UNL     1      91.888  85.742  89.911  1.00  0.00     0.310 C 
ATOM     39  O   UNL     1      90.955  86.520  90.056  1.00  0.00    -0.252 OA
BRANCH  38  40
ATOM     40  C   UNL     1      93.043  85.571  90.869  1.00  0.00     0.158 C 
BRANCH  40  41
ATOM     41  C   UNL     1      94.349  86.076  90.311  1.00  0.00    -0.033 A 
ATOM     42  C   UNL     1      94.549  87.445  90.133  1.00  0.00     0.054 A 
ATOM     43  C   UNL     1      95.359  85.174  89.975  1.00  0.00     0.008 A 
ATOM     44  C   UNL     1      95.758  87.912  89.616  1.00  0.00     0.160 A 
ATOM     45  C   UNL     1      96.568  85.641  89.458  1.00  0.00     0.050 A 
ATOM     46  C   UNL     1      96.767  87.010  89.279  1.00  0.00     0.157 A 
BRANCH  44  47
ATOM     47  O   UNL     1      95.941  89.251  89.446  1.00  0.00    -0.493 OA
ATOM     48  C   UNL     1      95.096  89.906  88.501  1.00  0.00     0.278 C 
ENDBRANCH  44  47
BRANCH  46  49
ATOM     49  O   UNL     1      97.952  87.454  88.775  1.00  0.00    -0.504 OA
ATOM     50  H   UNL     1      98.642  87.353  89.453  1.00  0.00     0.293 HD
ENDBRANCH  46  49
ENDBRANCH  40  41
ENDBRANCH  38  40
ENDBRANCH  37  38
ENDBRANCH   1  37
TORSDOF 11
ENDMDL
MODEL 6
REMARK VINA RESULT:    -5.878     18.260     23.855
REMARK INTER + INTRA:         -11.447
REMARK INTER:                 -10.669
REMARK INTRA:                  -0.778
REMARK UNBOUND:                -1.102
REMARK SMILES C=C(C)[C@]12C[C@@H](C)[C@@]34O[C@](Cc5ccccc5)(O[C@@H]1[C@@H]3C=C(COC(=O)Cc1ccc(O)c(OC)c1)C[C@]1(O)C(=O)C(C)=C[C@@H]41)O2
REMARK SMILES IDX 23 1 22 2 21 3 20 4 9 5 8 6 10 7 6 8 18 9 46 10 19 11 5 12
REMARK SMILES IDX 7 13 4 14 45 15 38 16 44 17 40 18 42 20 41 21 43 22 39 23
REMARK SMILES IDX 11 25 12 26 13 27 17 28 14 29 16 30 15 31 2 32 3 33 1 34
REMARK SMILES IDX 37 35 24 37 25 38 26 39 27 40 28 41 36 42 29 43 33 44 30 45
REMARK SMILES IDX 31 46 34 47 35 48 32 49
REMARK H PARENT 39 24 32 50
REMARK Flexibility Score: 90.00
ROOT
ATOM      1  C   UNL     1      94.499  98.329  73.761  1.00  0.00     0.264 C 
ENDROOT
BRANCH   1   2
ATOM      2  C   UNL     1      94.349  99.210  72.544  1.00  0.00    -0.033 C 
ATOM      3  C   UNL     1      93.172  99.234  71.887  1.00  0.00    -0.015 C 
BRANCH   3   4
ATOM      4  C   UNL     1      92.794  99.966  70.610  1.00  0.00     0.078 C 
ATOM      5  O   UNL     1      91.866 102.158  71.284  1.00  0.00    -0.319 OA
ATOM      6  C   UNL     1      92.970 101.530  70.563  1.00  0.00     0.095 C 
ATOM      7  C   UNL     1      90.566 101.589  71.037  1.00  0.00     0.289 C 
ATOM      8  C   UNL     1      92.922 101.973  69.042  1.00  0.00     0.023 C 
ATOM      9  O   UNL     1      90.542 100.200  71.352  1.00  0.00    -0.320 OA
ATOM     10  O   UNL     1      90.187 101.680  69.667  1.00  0.00    -0.313 OA
ATOM     11  C   UNL     1      91.313  99.680  70.258  1.00  0.00     0.170 C 
ATOM     12  C   UNL     1      91.965 101.062  68.212  1.00  0.00     0.049 C 
ATOM     13  C   UNL     1      92.567 103.448  68.795  1.00  0.00     0.011 C 
ATOM     14  C   UNL     1      90.812 100.529  69.063  1.00  0.00     0.122 C 
BRANCH   6  15
ATOM     15  C   UNL     1      94.243 101.965  71.346  1.00  0.00     0.086 C 
ATOM     16  C   UNL     1      95.498 101.092  71.143  1.00  0.00     0.140 CG0
ATOM     17  C   UNL     1      94.763 103.366  71.186  1.00  0.00    -0.010 C 
ATOM     18  C   UNL     1      96.619 102.106  71.229  1.00  0.00     0.190 C 
ATOM     19  G   UNL     1      95.617  99.997  72.202  1.00  0.00     0.000 G0
ATOM     20  C   UNL     1      96.094 103.482  71.145  1.00  0.00    -0.008 C 
ATOM     21  O   UNL     1      97.809 101.842  71.306  1.00  0.00    -0.291 OA
ATOM     22  C   UNL     1      96.943 104.690  71.081  1.00  0.00     0.048 C 
BRANCH  16  23
ATOM     23  O   UNL     1      95.622 100.561  69.834  1.00  0.00    -0.381 OA
ATOM     24  H   UNL     1      95.175 101.161  69.215  1.00  0.00     0.212 HD
ENDBRANCH  16  23
ENDBRANCH   6  15
BRANCH   7  25
ATOM     25  C   UNL     1      89.555 102.326  71.892  1.00  0.00     0.135 C 
BRANCH  25  26
ATOM     26  C   UNL     1      90.218 103.185  72.939  1.00  0.00    -0.040 A 
ATOM     27  C   UNL     1      90.114 104.575  72.869  1.00  0.00     0.004 A 
ATOM     28  C   UNL     1      90.935 102.592  73.978  1.00  0.00     0.004 A 
ATOM     29  C   UNL     1      90.728 105.370  73.837  1.00  0.00     0.000 A 
ATOM     30  C   UNL     1      91.549 103.387  74.946  1.00  0.00     0.000 A 
ATOM     31  C   UNL     1      91.445 104.777  74.875  1.00  0.00     0.000 A 
ENDBRANCH  25  26
ENDBRANCH   7  25
BRANCH  14  32
ATOM     32  C   UNL     1      89.786  99.807  68.252  1.00  0.00    -0.046 C 
ATOM     33  C   UNL     1      90.253  98.570  67.543  1.00  0.00     0.042 C 
ATOM     34  C   UNL     1      88.520 100.240  68.162  1.00  0.00     0.010 C 
ENDBRANCH  14  32
ENDBRANCH   3   4
BRANCH   2  35
ATOM     35  C   UNL     1      95.608  99.992  72.217  1.00  0.00     0.078 CG0
ATOM     36  G   UNL     1      95.495 101.088  71.158  1.00  0.00     0.000 G0
ENDBRANCH   2  35
ENDBRANCH   1   2
BRANCH   1  37
ATOM     37  O   UNL     1      94.288  96.983  73.392  1.00  0.00    -0.461 OA
BRANCH  37  38
ATOM     38  C   UNL     1      94.471  96.045  74.381  1.00  0.00     0.310 C 
ATOM     39  O   UNL     1      95.003  94.955  74.226  1.00  0.00    -0.252 OA
BRANCH  38  40
ATOM     40  C   UNL     1      93.912  96.569  75.683  1.00  0.00     0.158 C 
BRANCH  40  41
ATOM     41  C   UNL     1      93.779  95.501  76.738  1.00  0.00    -0.033 A 
ATOM     42  C   UNL     1      94.841  95.243  77.607  1.00  0.00     0.054 A 
ATOM     43  C   UNL     1      92.596  94.772  76.848  1.00  0.00     0.008 A 
ATOM     44  C   UNL     1      94.718  94.255  78.583  1.00  0.00     0.160 A 
ATOM     45  C   UNL     1      92.473  93.784  77.825  1.00  0.00     0.050 A 
ATOM     46  C   UNL     1      93.533  93.525  78.692  1.00  0.00     0.157 A 
BRANCH  44  47
ATOM     47  O   UNL     1      95.761  94.011  79.425  1.00  0.00    -0.493 OA
ATOM     48  C   UNL     1      95.929  94.904  80.525  1.00  0.00     0.278 C 
ENDBRANCH  44  47
BRANCH  46  49
ATOM     49  O   UNL     1      93.402  92.559  79.643  1.00  0.00    -0.504 OA
ATOM     50  H   UNL     1      94.274  92.169  79.822  1.00  0.00     0.293 HD
ENDBRANCH  46  49
ENDBRANCH  40  41
ENDBRANCH  38  40
ENDBRANCH  37  38
ENDBRANCH   1  37
TORSDOF 11
ENDMDL
MODEL 7
REMARK VINA RESULT:    -5.567      3.768      7.904
REMARK INTER + INTRA:         -10.899
REMARK INTER:                 -10.098
REMARK INTRA:                  -0.801
REMARK UNBOUND:                -1.102
REMARK SMILES C=C(C)[C@]12C[C@@H](C)[C@@]34O[C@](Cc5ccccc5)(O[C@@H]1[C@@H]3C=C(COC(=O)Cc1ccc(O)c(OC)c1)C[C@]1(O)C(=O)C(C)=C[C@@H]41)O2
REMARK SMILES IDX 23 1 22 2 21 3 20 4 9 5 8 6 10 7 6 8 18 9 46 10 19 11 5 12
REMARK SMILES IDX 7 13 4 14 45 15 38 16 44 17 40 18 42 20 41 21 43 22 39 23
REMARK SMILES IDX 11 25 12 26 13 27 17 28 14 29 16 30 15 31 2 32 3 33 1 34
REMARK SMILES IDX 37 35 24 37 25 38 26 39 27 40 28 41 36 42 29 43 33 44 30 45
REMARK SMILES IDX 31 46 34 47 35 48 32 49
REMARK H PARENT 39 24 32 50
REMARK Flexibility Score: 90.00
ROOT
ATOM      1  C   UNL     1      92.070  82.766  89.100  1.00  0.00     0.264 C 
ENDROOT
BRANCH   1   2
ATOM      2  C   UNL     1      93.044  82.022  88.217  1.00  0.00    -0.033 C 
ATOM      3  C   UNL     1      92.887  80.695  88.034  1.00  0.00    -0.015 C 
BRANCH   3   4
ATOM      4  C   UNL     1      93.762  79.717  87.267  1.00  0.00     0.078 C 
ATOM      5  O   UNL     1      92.873  79.610  84.961  1.00  0.00    -0.319 OA
ATOM      6  C   UNL     1      94.044  79.999  85.744  1.00  0.00     0.095 C 
ATOM      7  C   UNL     1      92.261  78.364  85.345  1.00  0.00     0.289 C 
ATOM      8  C   UNL     1      95.282  79.109  85.312  1.00  0.00     0.023 C 
ATOM      9  O   UNL     1      91.869  78.381  86.715  1.00  0.00    -0.320 OA
ATOM     10  O   UNL     1      93.153  77.260  85.214  1.00  0.00    -0.313 OA
ATOM     11  C   UNL     1      93.156  78.294  87.347  1.00  0.00     0.170 C 
ATOM     12  C   UNL     1      95.311  77.756  86.087  1.00  0.00     0.049 C 
ATOM     13  C   UNL     1      95.405  78.838  83.804  1.00  0.00     0.011 C 
ATOM     14  C   UNL     1      93.903  77.279  86.447  1.00  0.00     0.122 C 
BRANCH   6  15
ATOM     15  C   UNL     1      94.194  81.526  85.484  1.00  0.00     0.086 C 
ATOM     16  C   UNL     1      95.015  82.315  86.526  1.00  0.00     0.140 CG0
ATOM     17  C   UNL     1      94.751  81.998  84.170  1.00  0.00    -0.010 C 
ATOM     18  C   UNL     1      95.690  83.371  85.676  1.00  0.00     0.190 C 
ATOM     19  G   UNL     1      94.133  82.918  87.618  1.00  0.00     0.000 G0
ATOM     20  C   UNL     1      95.572  83.050  84.241  1.00  0.00    -0.008 C 
ATOM     21  O   UNL     1      96.300  84.340  86.103  1.00  0.00    -0.291 OA
ATOM     22  C   UNL     1      96.227  83.821  83.164  1.00  0.00     0.048 C 
BRANCH  16  23
ATOM     23  O   UNL     1      96.096  81.583  87.078  1.00  0.00    -0.381 OA
ATOM     24  H   UNL     1      96.526  82.133  87.754  1.00  0.00     0.212 HD
ENDBRANCH  16  23
ENDBRANCH   6  15
BRANCH   7  25
ATOM     25  C   UNL     1      91.047  78.140  84.468  1.00  0.00     0.135 C 
BRANCH  25  26
ATOM     26  C   UNL     1      90.031  79.245  84.615  1.00  0.00    -0.040 A 
ATOM     27  C   UNL     1      90.346  80.541  84.204  1.00  0.00     0.004 A 
ATOM     28  C   UNL     1      88.777  78.972  85.160  1.00  0.00     0.004 A 
ATOM     29  C   UNL     1      89.407  81.564  84.341  1.00  0.00     0.000 A 
ATOM     30  C   UNL     1      87.837  79.995  85.296  1.00  0.00     0.000 A 
ATOM     31  C   UNL     1      88.154  81.291  84.886  1.00  0.00     0.000 A 
ENDBRANCH  25  26
ENDBRANCH   7  25
BRANCH  14  32
ATOM     32  C   UNL     1      93.893  75.902  87.025  1.00  0.00    -0.046 C 
ATOM     33  C   UNL     1      94.959  75.601  88.037  1.00  0.00     0.042 C 
ATOM     34  C   UNL     1      92.983  74.986  86.661  1.00  0.00     0.010 C 
ENDBRANCH  14  32
ENDBRANCH   3   4
BRANCH   2  35
ATOM     35  C   UNL     1      94.113  82.919  87.622  1.00  0.00     0.078 CG0
ATOM     36  G   UNL     1      95.003  82.319  86.534  1.00  0.00     0.000 G0
ENDBRANCH   2  35
ENDBRANCH   1   2
BRANCH   1  37
ATOM     37  O   UNL     1      92.768  83.339  90.185  1.00  0.00    -0.461 OA
BRANCH  37  38
ATOM     38  C   UNL     1      92.458  84.645  90.486  1.00  0.00     0.310 C 
ATOM     39  O   UNL     1      91.383  85.182  90.259  1.00  0.00    -0.252 OA
BRANCH  38  40
ATOM     40  C   UNL     1      93.649  85.308  91.139  1.00  0.00     0.158 C 
BRANCH  40  41
ATOM     41  C   UNL     1      93.931  86.682  90.588  1.00  0.00    -0.033 A 
ATOM     42  C   UNL     1      94.938  86.859  89.638  1.00  0.00     0.054 A 
ATOM     43  C   UNL     1      93.186  87.776  91.027  1.00  0.00     0.008 A 
ATOM     44  C   UNL     1      95.199  88.131  89.128  1.00  0.00     0.160 A 
ATOM     45  C   UNL     1      93.448  89.048  90.517  1.00  0.00     0.050 A 
ATOM     46  C   UNL     1      94.454  89.226  89.568  1.00  0.00     0.157 A 
BRANCH  44  47
ATOM     47  O   UNL     1      96.184  88.292  88.201  1.00  0.00    -0.493 OA
ATOM     48  C   UNL     1      95.954  87.738  86.907  1.00  0.00     0.278 C 
ENDBRANCH  44  47
BRANCH  46  49
ATOM     49  O   UNL     1      94.699  90.472  89.076  1.00  0.00    -0.504 OA
ATOM     50  H   UNL     1      95.578  90.762  89.374  1.00  0.00     0.293 HD
ENDBRANCH  46  49
ENDBRANCH  40  41
ENDBRANCH  38  40
ENDBRANCH  37  38
ENDBRANCH   1  37
TORSDOF 11
ENDMDL
MODEL 8
REMARK VINA RESULT:    -5.555     16.984     21.410
REMARK INTER + INTRA:         -10.879
REMARK INTER:                  -9.855
REMARK INTRA:                  -1.024
REMARK UNBOUND:                -1.102
REMARK SMILES C=C(C)[C@]12C[C@@H](C)[C@@]34O[C@](Cc5ccccc5)(O[C@@H]1[C@@H]3C=C(COC(=O)Cc1ccc(O)c(OC)c1)C[C@]1(O)C(=O)C(C)=C[C@@H]41)O2
REMARK SMILES IDX 23 1 22 2 21 3 20 4 9 5 8 6 10 7 6 8 18 9 46 10 19 11 5 12
REMARK SMILES IDX 7 13 4 14 45 15 38 16 44 17 40 18 42 20 41 21 43 22 39 23
REMARK SMILES IDX 11 25 12 26 13 27 17 28 14 29 16 30 15 31 2 32 3 33 1 34
REMARK SMILES IDX 37 35 24 37 25 38 26 39 27 40 28 41 36 42 29 43 33 44 30 45
REMARK SMILES IDX 31 46 34 47 35 48 32 49
REMARK H PARENT 39 24 32 50
REMARK Flexibility Score: 90.00
ROOT
ATOM      1  C   UNL     1      75.386  68.913  86.387  1.00  0.00     0.264 C 
ENDROOT
BRANCH   1   2
ATOM      2  C   UNL     1      75.914  70.177  87.025  1.00  0.00    -0.033 C 
ATOM      3  C   UNL     1      76.223  70.173  88.337  1.00  0.00    -0.015 C 
BRANCH   3   4
ATOM      4  C   UNL     1      76.691  71.318  89.221  1.00  0.00     0.078 C 
ATOM      5  O   UNL     1      79.164  71.280  89.200  1.00  0.00    -0.319 OA
ATOM      6  C   UNL     1      78.006  72.085  88.820  1.00  0.00     0.095 C 
ATOM      7  C   UNL     1      79.082  70.654  90.495  1.00  0.00     0.289 C 
ATOM      8  C   UNL     1      78.030  73.450  89.624  1.00  0.00     0.023 C 
ATOM      9  O   UNL     1      77.933  69.816  90.592  1.00  0.00    -0.320 OA
ATOM     10  O   UNL     1      78.955  71.605  91.548  1.00  0.00    -0.313 OA
ATOM     11  C   UNL     1      76.901  70.812  90.670  1.00  0.00     0.170 C 
ATOM     12  C   UNL     1      77.366  73.298  91.027  1.00  0.00     0.049 C 
ATOM     13  C   UNL     1      79.415  74.099  89.781  1.00  0.00     0.011 C 
ATOM     14  C   UNL     1      77.541  71.885  91.586  1.00  0.00     0.122 C 
BRANCH   6  15
ATOM     15  C   UNL     1      78.116  72.218  87.273  1.00  0.00     0.086 C 
ATOM     16  C   UNL     1      76.815  72.581  86.527  1.00  0.00     0.140 CG0
ATOM     17  C   UNL     1      79.130  73.159  86.685  1.00  0.00    -0.010 C 
ATOM     18  C   UNL     1      77.322  73.437  85.386  1.00  0.00     0.190 C 
ATOM     19  G   UNL     1      76.064  71.343  86.041  1.00  0.00     0.000 G0
ATOM     20  C   UNL     1      78.724  73.839  85.608  1.00  0.00    -0.008 C 
ATOM     21  O   UNL     1      76.660  73.802  84.426  1.00  0.00    -0.291 OA
ATOM     22  C   UNL     1      79.466  74.772  84.736  1.00  0.00     0.048 C 
BRANCH  16  23
ATOM     23  O   UNL     1      75.963  73.452  87.252  1.00  0.00    -0.381 OA
ATOM     24  H   UNL     1      76.178  73.378  88.196  1.00  0.00     0.212 HD
ENDBRANCH  16  23
ENDBRANCH   6  15
BRANCH   7  25
ATOM     25  C   UNL     1      80.336  69.830  90.705  1.00  0.00     0.135 C 
BRANCH  25  26
ATOM     26  C   UNL     1      80.637  68.946  89.520  1.00  0.00    -0.040 A 
ATOM     27  C   UNL     1      80.108  67.656  89.461  1.00  0.00     0.004 A 
ATOM     28  C   UNL     1      81.441  69.417  88.484  1.00  0.00     0.004 A 
ATOM     29  C   UNL     1      80.386  66.838  88.366  1.00  0.00     0.000 A 
ATOM     30  C   UNL     1      81.719  68.599  87.388  1.00  0.00     0.000 A 
ATOM     31  C   UNL     1      81.191  67.309  87.330  1.00  0.00     0.000 A 
ENDBRANCH  25  26
ENDBRANCH   7  25
BRANCH  14  32
ATOM     32  C   UNL     1      77.075  71.765  93.000  1.00  0.00    -0.046 C 
ATOM     33  C   UNL     1      75.627  71.425  93.194  1.00  0.00     0.042 C 
ATOM     34  C   UNL     1      77.904  71.952  94.038  1.00  0.00     0.010 C 
ENDBRANCH  14  32
ENDBRANCH   3   4
BRANCH   2  35
ATOM     35  C   UNL     1      76.036  71.330  86.048  1.00  0.00     0.078 CG0
ATOM     36  G   UNL     1      76.801  72.567  86.517  1.00  0.00     0.000 G0
ENDBRANCH   2  35
ENDBRANCH   1   2
BRANCH   1  37
ATOM     37  O   UNL     1      75.346  69.079  84.986  1.00  0.00    -0.461 OA
BRANCH  37  38
ATOM     38  C   UNL     1      75.797  68.019  84.234  1.00  0.00     0.310 C 
ATOM     39  O   UNL     1      76.492  68.114  83.232  1.00  0.00    -0.252 OA
BRANCH  38  40
ATOM     40  C   UNL     1      75.301  66.726  84.837  1.00  0.00     0.158 C 
BRANCH  40  41
ATOM     41  C   UNL     1      74.063  66.198  84.160  1.00  0.00    -0.033 A 
ATOM     42  C   UNL     1      72.802  66.607  84.596  1.00  0.00     0.054 A 
ATOM     43  C   UNL     1      74.177  65.301  83.098  1.00  0.00     0.008 A 
ATOM     44  C   UNL     1      71.655  66.118  83.969  1.00  0.00     0.160 A 
ATOM     45  C   UNL     1      73.030  64.813  82.471  1.00  0.00     0.050 A 
ATOM     46  C   UNL     1      71.770  65.220  82.907  1.00  0.00     0.157 A 
BRANCH  44  47
ATOM     47  O   UNL     1      70.430  66.524  84.404  1.00  0.00    -0.493 OA
ATOM     48  C   UNL     1      70.398  67.390  85.537  1.00  0.00     0.278 C 
ENDBRANCH  44  47
BRANCH  46  49
ATOM     49  O   UNL     1      70.657  64.738  82.287  1.00  0.00    -0.504 OA
ATOM     50  H   UNL     1      69.990  64.520  82.959  1.00  0.00     0.293 HD
ENDBRANCH  46  49
ENDBRANCH  40  41
ENDBRANCH  38  40
ENDBRANCH  37  38
ENDBRANCH   1  37
TORSDOF 11
ENDMDL
MODEL 9
REMARK VINA RESULT:    -5.551     33.603     37.211
REMARK INTER + INTRA:         -10.872
REMARK INTER:                 -10.100
REMARK INTRA:                  -0.772
REMARK UNBOUND:                -1.102
REMARK SMILES C=C(C)[C@]12C[C@@H](C)[C@@]34O[C@](Cc5ccccc5)(O[C@@H]1[C@@H]3C=C(COC(=O)Cc1ccc(O)c(OC)c1)C[C@]1(O)C(=O)C(C)=C[C@@H]41)O2
REMARK SMILES IDX 23 1 22 2 21 3 20 4 9 5 8 6 10 7 6 8 18 9 46 10 19 11 5 12
REMARK SMILES IDX 7 13 4 14 45 15 38 16 44 17 40 18 42 20 41 21 43 22 39 23
REMARK SMILES IDX 11 25 12 26 13 27 17 28 14 29 16 30 15 31 2 32 3 33 1 34
REMARK SMILES IDX 37 35 24 37 25 38 26 39 27 40 28 41 36 42 29 43 33 44 30 45
REMARK SMILES IDX 31 46 34 47 35 48 32 49
REMARK H PARENT 39 24 32 50
REMARK Flexibility Score: 90.00
ROOT
ATOM      1  C   UNL     1      58.347  88.243  70.174  1.00  0.00     0.264 C 
ENDROOT
BRANCH   1   2
ATOM      2  C   UNL     1      59.137  87.127  70.817  1.00  0.00    -0.033 C 
ATOM      3  C   UNL     1      59.915  86.341  70.046  1.00  0.00    -0.015 C 
BRANCH   3   4
ATOM      4  C   UNL     1      60.737  85.122  70.432  1.00  0.00     0.078 C 
ATOM      5  O   UNL     1      63.019  85.924  70.948  1.00  0.00    -0.319 OA
ATOM      6  C   UNL     1      61.845  85.284  71.538  1.00  0.00     0.095 C 
ATOM      7  C   UNL     1      63.392  85.443  69.643  1.00  0.00     0.289 C 
ATOM      8  C   UNL     1      62.237  83.834  72.042  1.00  0.00     0.023 C 
ATOM      9  O   UNL     1      62.321  85.585  68.714  1.00  0.00    -0.320 OA
ATOM     10  O   UNL     1      63.716  84.055  69.650  1.00  0.00    -0.313 OA
ATOM     11  C   UNL     1      61.445  84.547  69.180  1.00  0.00     0.170 C 
ATOM     12  C   UNL     1      62.136  82.784  70.893  1.00  0.00     0.049 C 
ATOM     13  C   UNL     1      63.612  83.720  72.720  1.00  0.00     0.011 C 
ATOM     14  C   UNL     1      62.433  83.406  69.529  1.00  0.00     0.122 C 
BRANCH   6  15
ATOM     15  C   UNL     1      61.379  86.274  72.645  1.00  0.00     0.086 C 
ATOM     16  C   UNL     1      59.917  86.126  73.117  1.00  0.00     0.140 CG0
ATOM     17  C   UNL     1      62.154  86.360  73.930  1.00  0.00    -0.010 C 
ATOM     18  C   UNL     1      60.011  86.483  74.585  1.00  0.00     0.190 C 
ATOM     19  G   UNL     1      58.968  87.046  72.350  1.00  0.00     0.000 G0
ATOM     20  C   UNL     1      61.415  86.506  75.035  1.00  0.00    -0.008 C 
ATOM     21  O   UNL     1      59.061  86.680  75.328  1.00  0.00    -0.291 OA
ATOM     22  C   UNL     1      61.832  86.703  76.439  1.00  0.00     0.048 C 
BRANCH  16  23
ATOM     23  O   UNL     1      59.448  84.788  73.123  1.00  0.00    -0.381 OA
ATOM     24  H   UNL     1      58.493  84.798  73.299  1.00  0.00     0.212 HD
ENDBRANCH  16  23
ENDBRANCH   6  15
BRANCH   7  25
ATOM     25  C   UNL     1      64.591  86.240  69.168  1.00  0.00     0.135 C 
BRANCH  25  26
ATOM     26  C   UNL     1      65.860  85.823  69.868  1.00  0.00    -0.040 A 
ATOM     27  C   UNL     1      66.296  86.519  70.996  1.00  0.00     0.004 A 
ATOM     28  C   UNL     1      66.598  84.741  69.389  1.00  0.00     0.004 A 
ATOM     29  C   UNL     1      67.470  86.134  71.644  1.00  0.00     0.000 A 
ATOM     30  C   UNL     1      67.772  84.355  70.037  1.00  0.00     0.000 A 
ATOM     31  C   UNL     1      68.207  85.052  71.164  1.00  0.00     0.000 A 
ENDBRANCH  25  26
ENDBRANCH   7  25
BRANCH  14  32
ATOM     32  C   UNL     1      62.522  82.388  68.440  1.00  0.00    -0.046 C 
ATOM     33  C   UNL     1      63.487  81.262  68.663  1.00  0.00     0.042 C 
ATOM     34  C   UNL     1      61.780  82.475  67.325  1.00  0.00     0.010 C 
ENDBRANCH  14  32
ENDBRANCH   3   4
BRANCH   2  35
ATOM     35  C   UNL     1      58.940  87.048  72.319  1.00  0.00     0.078 CG0
ATOM     36  G   UNL     1      59.886  86.138  73.101  1.00  0.00     0.000 G0
ENDBRANCH   2  35
ENDBRANCH   1   2
BRANCH   1  37
ATOM     37  O   UNL     1      58.337  89.363  71.032  1.00  0.00    -0.461 OA
BRANCH  37  38
ATOM     38  C   UNL     1      57.100  89.866  71.362  1.00  0.00     0.310 C 
ATOM     39  O   UNL     1      56.422  89.496  72.310  1.00  0.00    -0.252 OA
BRANCH  38  40
ATOM     40  C   UNL     1      56.713  90.942  70.375  1.00  0.00     0.158 C 
BRANCH  40  41
ATOM     41  C   UNL     1      55.788  90.443  69.295  1.00  0.00    -0.033 A 
ATOM     42  C   UNL     1      56.136  90.597  67.953  1.00  0.00     0.054 A 
ATOM     43  C   UNL     1      54.584  89.827  69.637  1.00  0.00     0.008 A 
ATOM     44  C   UNL     1      55.279  90.136  66.953  1.00  0.00     0.160 A 
ATOM     45  C   UNL     1      53.728  89.365  68.638  1.00  0.00     0.050 A 
ATOM     46  C   UNL     1      54.074  89.520  67.296  1.00  0.00     0.157 A 
BRANCH  44  47
ATOM     47  O   UNL     1      55.629  90.293  65.646  1.00  0.00    -0.493 OA
ATOM     48  C   UNL     1      56.727  89.515  65.171  1.00  0.00     0.278 C 
ENDBRANCH  44  47
BRANCH  46  49
ATOM     49  O   UNL     1      53.231  89.064  66.329  1.00  0.00    -0.504 OA
ATOM     50  H   UNL     1      52.821  88.236  66.630  1.00  0.00     0.293 HD
ENDBRANCH  46  49
ENDBRANCH  40  41
ENDBRANCH  38  40
ENDBRANCH  37  38
ENDBRANCH   1  37
TORSDOF 11
ENDMDL
MODEL 10
REMARK VINA RESULT:    -5.444     19.719     25.879
REMARK INTER + INTRA:         -10.683
REMARK INTER:                  -9.868
REMARK INTRA:                  -0.814
REMARK UNBOUND:                -1.102
REMARK SMILES C=C(C)[C@]12C[C@@H](C)[C@@]34O[C@](Cc5ccccc5)(O[C@@H]1[C@@H]3C=C(COC(=O)Cc1ccc(O)c(OC)c1)C[C@]1(O)C(=O)C(C)=C[C@@H]41)O2
REMARK SMILES IDX 23 1 22 2 21 3 20 4 9 5 8 6 10 7 6 8 18 9 46 10 19 11 5 12
REMARK SMILES IDX 7 13 4 14 45 15 38 16 44 17 40 18 42 20 41 21 43 22 39 23
REMARK SMILES IDX 11 25 12 26 13 27 17 28 14 29 16 30 15 31 2 32 3 33 1 34
REMARK SMILES IDX 37 35 24 37 25 38 26 39 27 40 28 41 36 42 29 43 33 44 30 45
REMARK SMILES IDX 31 46 34 47 35 48 32 49
REMARK H PARENT 39 24 32 50
REMARK Flexibility Score: 90.00
ROOT
ATOM      1  C   UNL     1      95.041  99.759  72.083  1.00  0.00     0.264 C 
ENDROOT
BRANCH   1   2
ATOM      2  C   UNL     1      94.724 100.288  70.703  1.00  0.00    -0.033 C 
ATOM      3  C   UNL     1      93.458 100.215  70.245  1.00  0.00    -0.015 C 
BRANCH   3   4
ATOM      4  C   UNL     1      92.901 100.599  68.883  1.00  0.00     0.078 C 
ATOM      5  O   UNL     1      92.128 102.943  69.058  1.00  0.00    -0.319 OA
ATOM      6  C   UNL     1      93.097 102.080  68.386  1.00  0.00     0.095 C 
ATOM      7  C   UNL     1      90.796 102.406  69.165  1.00  0.00     0.289 C 
ATOM      8  C   UNL     1      92.824 102.102  66.825  1.00  0.00     0.023 C 
ATOM      9  O   UNL     1      90.795 101.155  69.848  1.00  0.00    -0.320 OA
ATOM     10  O   UNL     1      90.212 102.150  67.891  1.00  0.00    -0.313 OA
ATOM     11  C   UNL     1      91.379 100.317  68.839  1.00  0.00     0.170 C 
ATOM     12  C   UNL     1      91.734 101.061  66.422  1.00  0.00     0.049 C 
ATOM     13  C   UNL     1      92.461 103.476  66.238  1.00  0.00     0.011 C 
ATOM     14  C   UNL     1      90.716 100.844  67.542  1.00  0.00     0.122 C 
BRANCH   6  15
ATOM     15  C   UNL     1      94.482 102.633  68.830  1.00  0.00     0.086 C 
ATOM     16  C   UNL     1      95.678 101.668  68.684  1.00  0.00     0.140 CG0
ATOM     17  C   UNL     1      94.991 103.913  68.229  1.00  0.00    -0.010 C 
ATOM     18  C   UNL     1      96.813 102.606  68.333  1.00  0.00     0.190 C 
ATOM     19  G   UNL     1      95.944 100.882  69.967  1.00  0.00     0.000 G0
ATOM     20  C   UNL     1      96.302 103.940  67.964  1.00  0.00    -0.008 C 
ATOM     21  O   UNL     1      97.997 102.305  68.302  1.00  0.00    -0.291 OA
ATOM     22  C   UNL     1      97.148 105.040  67.458  1.00  0.00     0.048 C 
BRANCH  16  23
ATOM     23  O   UNL     1      95.588 100.809  67.560  1.00  0.00    -0.381 OA
ATOM     24  H   UNL     1      94.676 100.834  67.227  1.00  0.00     0.212 HD
ENDBRANCH  16  23
ENDBRANCH   6  15
BRANCH   7  25
ATOM     25  C   UNL     1      89.941 103.403  69.922  1.00  0.00     0.135 C 
BRANCH  25  26
ATOM     26  C   UNL     1      89.489 104.543  69.042  1.00  0.00    -0.040 A 
ATOM     27  C   UNL     1      90.376 105.572  68.725  1.00  0.00     0.004 A 
ATOM     28  C   UNL     1      88.186 104.567  68.546  1.00  0.00     0.004 A 
ATOM     29  C   UNL     1      89.959 106.626  67.911  1.00  0.00     0.000 A 
ATOM     30  C   UNL     1      87.769 105.621  67.732  1.00  0.00     0.000 A 
ATOM     31  C   UNL     1      88.656 106.650  67.416  1.00  0.00     0.000 A 
ENDBRANCH  25  26
ENDBRANCH   7  25
BRANCH  14  32
ATOM     32  C   UNL     1      89.565  99.993  67.114  1.00  0.00    -0.046 C 
ATOM     33  C   UNL     1      88.352 100.722  66.618  1.00  0.00     0.042 C 
ATOM     34  C   UNL     1      89.613  98.654  67.171  1.00  0.00     0.010 C 
ENDBRANCH  14  32
ENDBRANCH   3   4
BRANCH   2  35
ATOM     35  C   UNL     1      95.934 100.865  69.994  1.00  0.00     0.078 CG0
ATOM     36  G   UNL     1      95.681 101.658  68.713  1.00  0.00     0.000 G0
ENDBRANCH   2  35
ENDBRANCH   1   2
BRANCH   1  37
ATOM     37  O   UNL     1      94.675  98.398  72.156  1.00  0.00    -0.461 OA
BRANCH  37  38
ATOM     38  C   UNL     1      94.345  97.923  73.404  1.00  0.00     0.310 C 
ATOM     39  O   UNL     1      93.548  98.451  74.168  1.00  0.00    -0.252 OA
BRANCH  38  40
ATOM     40  C   UNL     1      95.117  96.655  73.683  1.00  0.00     0.158 C 
BRANCH  40  41
ATOM     41  C   UNL     1      94.702  95.984  74.967  1.00  0.00    -0.033 A 
ATOM     42  C   UNL     1      93.457  95.362  75.057  1.00  0.00     0.054 A 
ATOM     43  C   UNL     1      95.563  95.985  76.064  1.00  0.00     0.008 A 
ATOM     44  C   UNL     1      93.073  94.740  76.245  1.00  0.00     0.160 A 
ATOM     45  C   UNL     1      95.179  95.363  77.252  1.00  0.00     0.050 A 
ATOM     46  C   UNL     1      93.934  94.741  77.344  1.00  0.00     0.157 A 
BRANCH  44  47
ATOM     47  O   UNL     1      91.854  94.136  76.322  1.00  0.00    -0.493 OA
ATOM     48  C   UNL     1      91.780  92.772  75.909  1.00  0.00     0.278 C 
ENDBRANCH  44  47
BRANCH  46  49
ATOM     49  O   UNL     1      93.570  94.137  78.508  1.00  0.00    -0.504 OA
ATOM     50  H   UNL     1      93.832  94.703  79.254  1.00  0.00     0.293 HD
ENDBRANCH  46  49
ENDBRANCH  40  41
ENDBRANCH  38  40
ENDBRANCH  37  38
ENDBRANCH   1  37
TORSDOF 11
ENDMDL
