MODEL 1
REMARK VINA RESULT:    -6.228      0.000      0.000
REMARK INTER + INTRA:         -10.537
REMARK INTER:                  -9.687
REMARK INTRA:                  -0.850
REMARK UNBOUND:                -0.850
REMARK SMILES COc1cc(CNC(=O)CCCCCC(C)C)ccc1O
REMARK SMILES IDX 10 1 8 2 7 3 9 5 6 6 5 7 3 8 20 9 4 10 19 11 18 12 2 13 1 14
REMARK SMILES IDX 21 15 11 17 12 18 13 19 14 20 15 21 16 22 17 23
REMARK H PARENT 7 4 21 16
REMARK Flexibility Score: inf
ROOT
ATOM      1  C   UNL     1      95.467  96.285  73.973  1.00  0.00     0.100 C 
ENDROOT
BRANCH   1   2
ATOM      2  C   UNL     1      96.490  96.761  74.926  1.00  0.00     0.220 C 
ATOM      3  N   UNL     1      96.255  96.664  76.265  1.00  0.00    -0.352 N 
ATOM      4  H   UNL     1      95.316  96.384  76.512  1.00  0.00     0.163 HD
ATOM      5  O   UNL     1      97.576  97.209  74.482  1.00  0.00    -0.275 OA
BRANCH   3   6
ATOM      6  C   UNL     1      97.215  96.922  77.289  1.00  0.00     0.151 C 
BRANCH   6   7
ATOM      7  C   UNL     1      96.751  96.513  78.642  1.00  0.00    -0.025 A 
ATOM      8  C   UNL     1      95.654  94.879  80.116  1.00  0.00     0.160 A 
ATOM      9  C   UNL     1      95.927  95.702  81.229  1.00  0.00     0.157 A 
ATOM     10  C   UNL     1      96.051  95.297  78.829  1.00  0.00     0.056 A 
ATOM     11  C   UNL     1      96.599  96.926  81.052  1.00  0.00     0.050 A 
ATOM     12  C   UNL     1      97.013  97.325  79.770  1.00  0.00     0.009 A 
BRANCH   8  13
ATOM     13  O   UNL     1      94.983  93.693  80.265  1.00  0.00    -0.493 OA
ATOM     14  C   UNL     1      95.519  92.618  79.470  1.00  0.00     0.278 C 
ENDBRANCH   8  13
BRANCH   9  15
ATOM     15  O   UNL     1      95.548  95.310  82.471  1.00  0.00    -0.504 OA
ATOM     16  H   UNL     1      95.532  96.071  83.056  1.00  0.00     0.293 HD
ENDBRANCH   9  15
ENDBRANCH   6   7
ENDBRANCH   3   6
ENDBRANCH   1   2
BRANCH   1  17
ATOM     17  C   UNL     1      94.434  95.300  74.584  1.00  0.00     0.010 C 
BRANCH  17  18
ATOM     18  C   UNL     1      93.269  96.053  75.283  1.00  0.00     0.001 C 
BRANCH  18  19
ATOM     19  C   UNL     1      92.817  95.391  76.612  1.00  0.00     0.000 C 
BRANCH  19  20
ATOM     20  C   UNL     1      92.748  93.840  76.503  1.00  0.00     0.003 C 
BRANCH  20  21
ATOM     21  C   UNL     1      91.309  93.254  76.328  1.00  0.00    -0.017 C 
ATOM     22  C   UNL     1      90.621  93.051  77.711  1.00  0.00     0.007 C 
ATOM     23  C   UNL     1      91.292  91.923  75.523  1.00  0.00     0.007 C 
ENDBRANCH  20  21
ENDBRANCH  19  20
ENDBRANCH  18  19
ENDBRANCH  17  18
ENDBRANCH   1  17
TORSDOF 10
ENDMDL
MODEL 2
REMARK VINA RESULT:    -5.914      0.890      2.000
REMARK INTER + INTRA:         -10.049
REMARK INTER:                  -9.171
REMARK INTRA:                  -0.877
REMARK UNBOUND:                -0.850
REMARK SMILES COc1cc(CNC(=O)CCCCCC(C)C)ccc1O
REMARK SMILES IDX 10 1 8 2 7 3 9 5 6 6 5 7 3 8 20 9 4 10 19 11 18 12 2 13 1 14
REMARK SMILES IDX 21 15 11 17 12 18 13 19 14 20 15 21 16 22 17 23
REMARK H PARENT 7 4 21 16
REMARK Flexibility Score: inf
ROOT
ATOM      1  C   UNL     1      95.392  96.280  74.105  1.00  0.00     0.100 C 
ENDROOT
BRANCH   1   2
ATOM      2  C   UNL     1      96.368  96.674  75.142  1.00  0.00     0.220 C 
ATOM      3  N   UNL     1      96.153  96.308  76.438  1.00  0.00    -0.352 N 
ATOM      4  H   UNL     1      95.250  95.893  76.618  1.00  0.00     0.163 HD
ATOM      5  O   UNL     1      97.398  97.304  74.801  1.00  0.00    -0.275 OA
BRANCH   3   6
ATOM      6  C   UNL     1      97.090  96.469  77.503  1.00  0.00     0.151 C 
BRANCH   6   7
ATOM      7  C   UNL     1      96.790  95.609  78.679  1.00  0.00    -0.025 A 
ATOM      8  C   UNL     1      96.746  95.265  81.114  1.00  0.00     0.160 A 
ATOM      9  C   UNL     1      96.158  93.997  80.922  1.00  0.00     0.157 A 
ATOM     10  C   UNL     1      97.075  96.055  79.992  1.00  0.00     0.056 A 
ATOM     11  C   UNL     1      95.895  93.532  79.620  1.00  0.00     0.050 A 
ATOM     12  C   UNL     1      96.203  94.333  78.508  1.00  0.00     0.009 A 
BRANCH   8  13
ATOM     13  O   UNL     1      97.029  95.728  82.372  1.00  0.00    -0.493 OA
ATOM     14  C   UNL     1      96.658  97.104  82.583  1.00  0.00     0.278 C 
ENDBRANCH   8  13
BRANCH   9  15
ATOM     15  O   UNL     1      95.840  93.229  81.994  1.00  0.00    -0.504 OA
ATOM     16  H   UNL     1      95.732  92.317  81.714  1.00  0.00     0.293 HD
ENDBRANCH   9  15
ENDBRANCH   6   7
ENDBRANCH   3   6
ENDBRANCH   1   2
BRANCH   1  17
ATOM     17  C   UNL     1      94.329  95.255  74.586  1.00  0.00     0.010 C 
BRANCH  17  18
ATOM     18  C   UNL     1      93.128  95.957  75.278  1.00  0.00     0.001 C 
BRANCH  18  19
ATOM     19  C   UNL     1      92.658  95.242  76.572  1.00  0.00     0.000 C 
BRANCH  19  20
ATOM     20  C   UNL     1      92.600  93.696  76.401  1.00  0.00     0.003 C 
BRANCH  20  21
ATOM     21  C   UNL     1      91.162  93.103  76.241  1.00  0.00    -0.017 C 
ATOM     22  C   UNL     1      90.516  92.831  77.631  1.00  0.00     0.007 C 
ATOM     23  C   UNL     1      91.135  91.808  75.378  1.00  0.00     0.007 C 
ENDBRANCH  20  21
ENDBRANCH  19  20
ENDBRANCH  18  19
ENDBRANCH  17  18
ENDBRANCH   1  17
TORSDOF 10
ENDMDL
MODEL 3
REMARK VINA RESULT:    -5.556     22.505     26.723
REMARK INTER + INTRA:          -9.492
REMARK INTER:                  -8.171
REMARK INTRA:                  -1.321
REMARK UNBOUND:                -0.850
REMARK SMILES COc1cc(CNC(=O)CCCCCC(C)C)ccc1O
REMARK SMILES IDX 10 1 8 2 7 3 9 5 6 6 5 7 3 8 20 9 4 10 19 11 18 12 2 13 1 14
REMARK SMILES IDX 21 15 11 17 12 18 13 19 14 20 15 21 16 22 17 23
REMARK H PARENT 7 4 21 16
REMARK Flexibility Score: inf
ROOT
ATOM      1  C   UNL     1      77.623  83.866  66.720  1.00  0.00     0.100 C 
ENDROOT
BRANCH   1   2
ATOM      2  C   UNL     1      76.799  83.748  65.499  1.00  0.00     0.220 C 
ATOM      3  N   UNL     1      76.249  82.544  65.176  1.00  0.00    -0.352 N 
ATOM      4  H   UNL     1      76.562  81.768  65.742  1.00  0.00     0.163 HD
ATOM      5  O   UNL     1      76.588  84.773  64.806  1.00  0.00    -0.275 OA
BRANCH   3   6
ATOM      6  C   UNL     1      75.300  82.328  64.132  1.00  0.00     0.151 C 
BRANCH   6   7
ATOM      7  C   UNL     1      73.893  82.302  64.617  1.00  0.00    -0.025 A 
ATOM      8  C   UNL     1      71.996  83.415  65.717  1.00  0.00     0.160 A 
ATOM      9  C   UNL     1      71.195  82.277  65.482  1.00  0.00     0.157 A 
ATOM     10  C   UNL     1      73.345  83.413  65.300  1.00  0.00     0.056 A 
ATOM     11  C   UNL     1      71.739  81.156  64.827  1.00  0.00     0.050 A 
ATOM     12  C   UNL     1      73.075  81.170  64.393  1.00  0.00     0.009 A 
BRANCH   8  13
ATOM     13  O   UNL     1      71.492  84.508  66.370  1.00  0.00    -0.493 OA
ATOM     14  C   UNL     1      71.153  85.603  65.497  1.00  0.00     0.278 C 
ENDBRANCH   8  13
BRANCH   9  15
ATOM     15  O   UNL     1      69.899  82.268  65.880  1.00  0.00    -0.504 OA
ATOM     16  H   UNL     1      69.529  81.392  65.745  1.00  0.00     0.293 HD
ENDBRANCH   9  15
ENDBRANCH   6   7
ENDBRANCH   3   6
ENDBRANCH   1   2
BRANCH   1  17
ATOM     17  C   UNL     1      77.047  84.833  67.789  1.00  0.00     0.010 C 
BRANCH  17  18
ATOM     18  C   UNL     1      75.530  84.590  68.022  1.00  0.00     0.001 C 
BRANCH  18  19
ATOM     19  C   UNL     1      74.672  85.876  67.888  1.00  0.00     0.000 C 
BRANCH  19  20
ATOM     20  C   UNL     1      75.383  87.123  68.489  1.00  0.00     0.003 C 
BRANCH  20  21
ATOM     21  C   UNL     1      75.820  88.201  67.444  1.00  0.00    -0.017 C 
ATOM     22  C   UNL     1      75.358  87.805  66.011  1.00  0.00     0.007 C 
ATOM     23  C   UNL     1      77.354  88.466  67.456  1.00  0.00     0.007 C 
ENDBRANCH  20  21
ENDBRANCH  19  20
ENDBRANCH  18  19
ENDBRANCH  17  18
ENDBRANCH   1  17
TORSDOF 10
ENDMDL
MODEL 4
REMARK VINA RESULT:    -5.532     22.897     26.455
REMARK INTER + INTRA:          -9.454
REMARK INTER:                  -7.966
REMARK INTRA:                  -1.489
REMARK UNBOUND:                -0.850
REMARK SMILES COc1cc(CNC(=O)CCCCCC(C)C)ccc1O
REMARK SMILES IDX 10 1 8 2 7 3 9 5 6 6 5 7 3 8 20 9 4 10 19 11 18 12 2 13 1 14
REMARK SMILES IDX 21 15 11 17 12 18 13 19 14 20 15 21 16 22 17 23
REMARK H PARENT 7 4 21 16
REMARK Flexibility Score: inf
ROOT
ATOM      1  C   UNL     1      76.067  87.760  65.418  1.00  0.00     0.100 C 
ENDROOT
BRANCH   1   2
ATOM      2  C   UNL     1      74.597  87.619  65.455  1.00  0.00     0.220 C 
ATOM      3  N   UNL     1      74.023  86.467  65.005  1.00  0.00    -0.352 N 
ATOM      4  H   UNL     1      74.656  85.828  64.547  1.00  0.00     0.163 HD
ATOM      5  O   UNL     1      73.908  88.550  65.939  1.00  0.00    -0.275 OA
BRANCH   3   6
ATOM      6  C   UNL     1      72.643  86.129  65.141  1.00  0.00     0.151 C 
BRANCH   6   7
ATOM      7  C   UNL     1      72.397  84.662  65.138  1.00  0.00    -0.025 A 
ATOM      8  C   UNL     1      73.200  82.365  65.493  1.00  0.00     0.160 A 
ATOM      9  C   UNL     1      71.912  81.871  65.195  1.00  0.00     0.157 A 
ATOM     10  C   UNL     1      73.439  83.755  65.444  1.00  0.00     0.056 A 
ATOM     11  C   UNL     1      70.875  82.762  64.863  1.00  0.00     0.050 A 
ATOM     12  C   UNL     1      71.114  84.147  64.840  1.00  0.00     0.009 A 
BRANCH   8  13
ATOM     13  O   UNL     1      74.228  81.512  65.800  1.00  0.00    -0.493 OA
ATOM     14  C   UNL     1      75.457  81.813  65.112  1.00  0.00     0.278 C 
ENDBRANCH   8  13
BRANCH   9  15
ATOM     15  O   UNL     1      71.672  80.537  65.238  1.00  0.00    -0.504 OA
ATOM     16  H   UNL     1      72.222  80.133  65.913  1.00  0.00     0.293 HD
ENDBRANCH   9  15
ENDBRANCH   6   7
ENDBRANCH   3   6
ENDBRANCH   1   2
BRANCH   1  17
ATOM     17  C   UNL     1      76.672  88.464  66.662  1.00  0.00     0.010 C 
BRANCH  17  18
ATOM     18  C   UNL     1      77.044  87.444  67.773  1.00  0.00     0.001 C 
BRANCH  18  19
ATOM     19  C   UNL     1      77.226  85.997  67.245  1.00  0.00     0.000 C 
BRANCH  19  20
ATOM     20  C   UNL     1      76.104  85.042  67.744  1.00  0.00     0.003 C 
BRANCH  20  21
ATOM     21  C   UNL     1      75.285  85.568  68.968  1.00  0.00    -0.017 C 
ATOM     22  C   UNL     1      75.348  84.560  70.153  1.00  0.00     0.007 C 
ATOM     23  C   UNL     1      73.803  85.884  68.614  1.00  0.00     0.007 C 
ENDBRANCH  20  21
ENDBRANCH  19  20
ENDBRANCH  18  19
ENDBRANCH  17  18
ENDBRANCH   1  17
TORSDOF 10
ENDMDL
MODEL 5
REMARK VINA RESULT:    -5.488     23.479     27.170
REMARK INTER + INTRA:          -9.386
REMARK INTER:                  -8.371
REMARK INTRA:                  -1.015
REMARK UNBOUND:                -0.850
REMARK SMILES COc1cc(CNC(=O)CCCCCC(C)C)ccc1O
REMARK SMILES IDX 10 1 8 2 7 3 9 5 6 6 5 7 3 8 20 9 4 10 19 11 18 12 2 13 1 14
REMARK SMILES IDX 21 15 11 17 12 18 13 19 14 20 15 21 16 22 17 23
REMARK H PARENT 7 4 21 16
REMARK Flexibility Score: inf
ROOT
ATOM      1  C   UNL     1      70.560  82.064  65.561  1.00  0.00     0.100 C 
ENDROOT
BRANCH   1   2
ATOM      2  C   UNL     1      71.932  81.700  65.152  1.00  0.00     0.220 C 
ATOM      3  N   UNL     1      72.976  82.490  65.533  1.00  0.00    -0.352 N 
ATOM      4  H   UNL     1      72.711  83.362  65.968  1.00  0.00     0.163 HD
ATOM      5  O   UNL     1      72.114  80.644  64.498  1.00  0.00    -0.275 OA
BRANCH   3   6
ATOM      6  C   UNL     1      74.356  82.169  65.358  1.00  0.00     0.151 C 
BRANCH   6   7
ATOM      7  C   UNL     1      75.269  83.130  66.034  1.00  0.00    -0.025 A 
ATOM      8  C   UNL     1      75.670  84.842  67.754  1.00  0.00     0.160 A 
ATOM      9  C   UNL     1      77.025  84.912  67.365  1.00  0.00     0.157 A 
ATOM     10  C   UNL     1      74.797  83.966  67.074  1.00  0.00     0.056 A 
ATOM     11  C   UNL     1      77.499  84.104  66.315  1.00  0.00     0.050 A 
ATOM     12  C   UNL     1      76.630  83.217  65.658  1.00  0.00     0.009 A 
BRANCH   8  13
ATOM     13  O   UNL     1      75.184  85.634  68.761  1.00  0.00    -0.493 OA
ATOM     14  C   UNL     1      74.938  84.925  69.991  1.00  0.00     0.278 C 
ENDBRANCH   8  13
BRANCH   9  15
ATOM     15  O   UNL     1      77.872  85.752  68.011  1.00  0.00    -0.504 OA
ATOM     16  H   UNL     1      77.373  86.308  68.614  1.00  0.00     0.293 HD
ENDBRANCH   9  15
ENDBRANCH   6   7
ENDBRANCH   3   6
ENDBRANCH   1   2
BRANCH   1  17
ATOM     17  C   UNL     1      70.359  83.576  65.847  1.00  0.00     0.010 C 
BRANCH  17  18
ATOM     18  C   UNL     1      68.854  83.935  65.997  1.00  0.00     0.001 C 
BRANCH  18  19
ATOM     19  C   UNL     1      68.546  84.782  67.260  1.00  0.00     0.000 C 
BRANCH  19  20
ATOM     20  C   UNL     1      69.177  84.172  68.546  1.00  0.00     0.003 C 
BRANCH  20  21
ATOM     21  C   UNL     1      69.973  85.182  69.434  1.00  0.00    -0.017 C 
ATOM     22  C   UNL     1      69.058  86.353  69.900  1.00  0.00     0.007 C 
ATOM     23  C   UNL     1      71.239  85.744  68.724  1.00  0.00     0.007 C 
ENDBRANCH  20  21
ENDBRANCH  19  20
ENDBRANCH  18  19
ENDBRANCH  17  18
ENDBRANCH   1  17
TORSDOF 10
ENDMDL
MODEL 6
REMARK VINA RESULT:    -5.454     13.132     14.980
REMARK INTER + INTRA:          -9.332
REMARK INTER:                  -8.161
REMARK INTRA:                  -1.171
REMARK UNBOUND:                -0.850
REMARK SMILES COc1cc(CNC(=O)CCCCCC(C)C)ccc1O
REMARK SMILES IDX 10 1 8 2 7 3 9 5 6 6 5 7 3 8 20 9 4 10 19 11 18 12 2 13 1 14
REMARK SMILES IDX 21 15 11 17 12 18 13 19 14 20 15 21 16 22 17 23
REMARK H PARENT 7 4 21 16
REMARK Flexibility Score: inf
ROOT
ATOM      1  C   UNL     1      97.162  82.494  73.897  1.00  0.00     0.100 C 
ENDROOT
BRANCH   1   2
ATOM      2  C   UNL     1      96.486  82.714  75.193  1.00  0.00     0.220 C 
ATOM      3  N   UNL     1      96.963  82.097  76.310  1.00  0.00    -0.352 N 
ATOM      4  H   UNL     1      97.686  81.413  76.142  1.00  0.00     0.163 HD
ATOM      5  O   UNL     1      95.509  83.501  75.244  1.00  0.00    -0.275 OA
BRANCH   3   6
ATOM      6  C   UNL     1      96.519  82.353  77.643  1.00  0.00     0.151 C 
BRANCH   6   7
ATOM      7  C   UNL     1      97.318  81.635  78.673  1.00  0.00    -0.025 A 
ATOM      8  C   UNL     1      97.798  81.134  81.032  1.00  0.00     0.160 A 
ATOM      9  C   UNL     1      98.793  80.216  80.632  1.00  0.00     0.157 A 
ATOM     10  C   UNL     1      97.081  81.851  80.051  1.00  0.00     0.056 A 
ATOM     11  C   UNL     1      99.055  80.013  79.265  1.00  0.00     0.050 A 
ATOM     12  C   UNL     1      98.320  80.712  78.292  1.00  0.00     0.009 A 
BRANCH   8  13
ATOM     13  O   UNL     1      97.541  81.361  82.358  1.00  0.00    -0.493 OA
ATOM     14  C   UNL     1      96.903  82.626  82.619  1.00  0.00     0.278 C 
ENDBRANCH   8  13
BRANCH   9  15
ATOM     15  O   UNL     1      99.490  79.523  81.567  1.00  0.00    -0.504 OA
ATOM     16  H   UNL     1     100.421  79.750  81.505  1.00  0.00     0.293 HD
ENDBRANCH   9  15
ENDBRANCH   6   7
ENDBRANCH   3   6
ENDBRANCH   1   2
BRANCH   1  17
ATOM     17  C   UNL     1      98.614  83.041  73.834  1.00  0.00     0.010 C 
BRANCH  17  18
ATOM     18  C   UNL     1      99.567  82.050  73.111  1.00  0.00     0.001 C 
BRANCH  18  19
ATOM     19  C   UNL     1     100.787  81.628  73.973  1.00  0.00     0.000 C 
BRANCH  19  20
ATOM     20  C   UNL     1     100.372  81.207  75.413  1.00  0.00     0.003 C 
BRANCH  20  21
ATOM     21  C   UNL     1     101.305  80.149  76.086  1.00  0.00    -0.017 C 
ATOM     22  C   UNL     1     102.741  80.213  75.486  1.00  0.00     0.007 C 
ATOM     23  C   UNL     1     100.748  78.699  75.983  1.00  0.00     0.007 C 
ENDBRANCH  20  21
ENDBRANCH  19  20
ENDBRANCH  18  19
ENDBRANCH  17  18
ENDBRANCH   1  17
TORSDOF 10
ENDMDL
MODEL 7
REMARK VINA RESULT:    -5.367     12.945     14.513
REMARK INTER + INTRA:          -9.197
REMARK INTER:                  -8.318
REMARK INTRA:                  -0.879
REMARK UNBOUND:                -0.850
REMARK SMILES COc1cc(CNC(=O)CCCCCC(C)C)ccc1O
REMARK SMILES IDX 10 1 8 2 7 3 9 5 6 6 5 7 3 8 20 9 4 10 19 11 18 12 2 13 1 14
REMARK SMILES IDX 21 15 11 17 12 18 13 19 14 20 15 21 16 22 17 23
REMARK H PARENT 7 4 21 16
REMARK Flexibility Score: inf
ROOT
ATOM      1  C   UNL     1      98.680  82.647  73.473  1.00  0.00     0.100 C 
ENDROOT
BRANCH   1   2
ATOM      2  C   UNL     1      97.591  82.481  74.458  1.00  0.00     0.220 C 
ATOM      3  N   UNL     1      97.875  82.554  75.789  1.00  0.00    -0.352 N 
ATOM      4  H   UNL     1      98.859  82.588  76.012  1.00  0.00     0.163 HD
ATOM      5  O   UNL     1      96.417  82.318  74.045  1.00  0.00    -0.275 OA
BRANCH   3   6
ATOM      6  C   UNL     1      96.904  82.584  76.836  1.00  0.00     0.151 C 
BRANCH   6   7
ATOM      7  C   UNL     1      97.387  81.963  78.099  1.00  0.00    -0.025 A 
ATOM      8  C   UNL     1      97.104  81.519  80.501  1.00  0.00     0.160 A 
ATOM      9  C   UNL     1      98.270  80.725  80.489  1.00  0.00     0.157 A 
ATOM     10  C   UNL     1      96.680  82.148  79.310  1.00  0.00     0.056 A 
ATOM     11  C   UNL     1      98.995  80.556  79.295  1.00  0.00     0.050 A 
ATOM     12  C   UNL     1      98.555  81.165  78.108  1.00  0.00     0.009 A 
BRANCH   8  13
ATOM     13  O   UNL     1      96.394  81.712  81.657  1.00  0.00    -0.493 OA
ATOM     14  C   UNL     1      96.688  82.957  82.318  1.00  0.00     0.278 C 
ENDBRANCH   8  13
BRANCH   9  15
ATOM     15  O   UNL     1      98.687  80.117  81.628  1.00  0.00    -0.504 OA
ATOM     16  H   UNL     1      98.515  80.691  82.378  1.00  0.00     0.293 HD
ENDBRANCH   9  15
ENDBRANCH   6   7
ENDBRANCH   3   6
ENDBRANCH   1   2
BRANCH   1  17
ATOM     17  C   UNL     1      99.429  84.004  73.573  1.00  0.00     0.010 C 
BRANCH  17  18
ATOM     18  C   UNL     1      99.736  84.593  72.168  1.00  0.00     0.001 C 
BRANCH  18  19
ATOM     19  C   UNL     1     101.168  84.273  71.665  1.00  0.00     0.000 C 
BRANCH  19  20
ATOM     20  C   UNL     1     102.179  84.102  72.837  1.00  0.00     0.003 C 
BRANCH  20  21
ATOM     21  C   UNL     1     103.007  82.776  72.806  1.00  0.00    -0.017 C 
ATOM     22  C   UNL     1     103.304  82.340  71.341  1.00  0.00     0.007 C 
ATOM     23  C   UNL     1     102.317  81.615  73.579  1.00  0.00     0.007 C 
ENDBRANCH  20  21
ENDBRANCH  19  20
ENDBRANCH  18  19
ENDBRANCH  17  18
ENDBRANCH   1  17
TORSDOF 10
ENDMDL
MODEL 8
REMARK VINA RESULT:    -5.165     14.341     17.405
REMARK INTER + INTRA:          -8.883
REMARK INTER:                  -8.038
REMARK INTRA:                  -0.845
REMARK UNBOUND:                -0.850
REMARK SMILES COc1cc(CNC(=O)CCCCCC(C)C)ccc1O
REMARK SMILES IDX 10 1 8 2 7 3 9 5 6 6 5 7 3 8 20 9 4 10 19 11 18 12 2 13 1 14
REMARK SMILES IDX 21 15 11 17 12 18 13 19 14 20 15 21 16 22 17 23
REMARK H PARENT 7 4 21 16
REMARK Flexibility Score: inf
ROOT
ATOM      1  C   UNL     1      95.146  81.306  85.319  1.00  0.00     0.100 C 
ENDROOT
BRANCH   1   2
ATOM      2  C   UNL     1      93.933  81.388  86.160  1.00  0.00     0.220 C 
ATOM      3  N   UNL     1      92.723  81.598  85.569  1.00  0.00    -0.352 N 
ATOM      4  H   UNL     1      92.763  81.818  84.584  1.00  0.00     0.163 HD
ATOM      5  O   UNL     1      94.039  81.221  87.399  1.00  0.00    -0.275 OA
BRANCH   3   6
ATOM      6  C   UNL     1      91.461  81.528  86.234  1.00  0.00     0.151 C 
BRANCH   6   7
ATOM      7  C   UNL     1      90.544  80.518  85.640  1.00  0.00    -0.025 A 
ATOM      8  C   UNL     1      88.454  79.964  84.469  1.00  0.00     0.160 A 
ATOM      9  C   UNL     1      88.828  78.603  84.450  1.00  0.00     0.157 A 
ATOM     10  C   UNL     1      89.305  80.909  85.080  1.00  0.00     0.056 A 
ATOM     11  C   UNL     1      90.045  78.199  85.028  1.00  0.00     0.050 A 
ATOM     12  C   UNL     1      90.899  79.149  85.614  1.00  0.00     0.009 A 
BRANCH   8  13
ATOM     13  O   UNL     1      87.264  80.375  83.929  1.00  0.00    -0.493 OA
ATOM     14  C   UNL     1      86.583  81.373  84.713  1.00  0.00     0.278 C 
ENDBRANCH   8  13
BRANCH   9  15
ATOM     15  O   UNL     1      88.016  77.686  83.867  1.00  0.00    -0.504 OA
ATOM     16  H   UNL     1      87.338  78.136  83.358  1.00  0.00     0.293 HD
ENDBRANCH   9  15
ENDBRANCH   6   7
ENDBRANCH   3   6
ENDBRANCH   1   2
BRANCH   1  17
ATOM     17  C   UNL     1      95.173  82.311  84.136  1.00  0.00     0.010 C 
BRANCH  17  18
ATOM     18  C   UNL     1      96.626  82.686  83.736  1.00  0.00     0.001 C 
BRANCH  18  19
ATOM     19  C   UNL     1      96.760  83.146  82.260  1.00  0.00     0.000 C 
BRANCH  19  20
ATOM     20  C   UNL     1      96.691  81.953  81.263  1.00  0.00     0.003 C 
BRANCH  20  21
ATOM     21  C   UNL     1      97.503  80.687  81.691  1.00  0.00    -0.017 C 
ATOM     22  C   UNL     1      98.602  80.352  80.639  1.00  0.00     0.007 C 
ATOM     23  C   UNL     1      96.601  79.443  81.935  1.00  0.00     0.007 C 
ENDBRANCH  20  21
ENDBRANCH  19  20
ENDBRANCH  18  19
ENDBRANCH  17  18
ENDBRANCH   1  17
TORSDOF 10
ENDMDL
MODEL 9
REMARK VINA RESULT:    -5.047     30.196     33.032
REMARK INTER + INTRA:          -8.700
REMARK INTER:                  -7.463
REMARK INTRA:                  -1.237
REMARK UNBOUND:                -0.850
REMARK SMILES COc1cc(CNC(=O)CCCCCC(C)C)ccc1O
REMARK SMILES IDX 10 1 8 2 7 3 9 5 6 6 5 7 3 8 20 9 4 10 19 11 18 12 2 13 1 14
REMARK SMILES IDX 21 15 11 17 12 18 13 19 14 20 15 21 16 22 17 23
REMARK H PARENT 7 4 21 16
REMARK Flexibility Score: inf
ROOT
ATOM      1  C   UNL     1      84.512  66.875  76.225  1.00  0.00     0.100 C 
ENDROOT
BRANCH   1   2
ATOM      2  C   UNL     1      84.954  67.054  74.826  1.00  0.00     0.220 C 
ATOM      3  N   UNL     1      84.167  66.596  73.812  1.00  0.00    -0.352 N 
ATOM      4  H   UNL     1      83.379  66.036  74.105  1.00  0.00     0.163 HD
ATOM      5  O   UNL     1      86.028  67.663  74.600  1.00  0.00    -0.275 OA
BRANCH   3   6
ATOM      6  C   UNL     1      84.384  66.852  72.424  1.00  0.00     0.151 C 
BRANCH   6   7
ATOM      7  C   UNL     1      83.281  66.354  71.559  1.00  0.00    -0.025 A 
ATOM      8  C   UNL     1      82.501  65.431  69.417  1.00  0.00     0.160 A 
ATOM      9  C   UNL     1      81.191  65.345  69.934  1.00  0.00     0.157 A 
ATOM     10  C   UNL     1      83.533  65.953  70.226  1.00  0.00     0.056 A 
ATOM     11  C   UNL     1      80.923  65.766  71.249  1.00  0.00     0.050 A 
ATOM     12  C   UNL     1      81.960  66.262  72.057  1.00  0.00     0.009 A 
BRANCH   8  13
ATOM     13  O   UNL     1      82.779  65.045  68.132  1.00  0.00    -0.493 OA
ATOM     14  C   UNL     1      84.042  64.366  67.989  1.00  0.00     0.278 C 
ENDBRANCH   8  13
BRANCH   9  15
ATOM     15  O   UNL     1      80.191  64.847  69.164  1.00  0.00    -0.504 OA
ATOM     16  H   UNL     1      80.301  65.151  68.260  1.00  0.00     0.293 HD
ENDBRANCH   9  15
ENDBRANCH   6   7
ENDBRANCH   3   6
ENDBRANCH   1   2
BRANCH   1  17
ATOM     17  C   UNL     1      83.146  66.154  76.376  1.00  0.00     0.010 C 
BRANCH  17  18
ATOM     18  C   UNL     1      83.326  64.661  76.765  1.00  0.00     0.001 C 
BRANCH  18  19
ATOM     19  C   UNL     1      82.147  63.759  76.311  1.00  0.00     0.000 C 
BRANCH  19  20
ATOM     20  C   UNL     1      81.444  64.307  75.036  1.00  0.00     0.003 C 
BRANCH  20  21
ATOM     21  C   UNL     1      79.884  64.368  75.116  1.00  0.00    -0.017 C 
ATOM     22  C   UNL     1      79.421  65.536  76.036  1.00  0.00     0.007 C 
ATOM     23  C   UNL     1      79.251  63.029  75.594  1.00  0.00     0.007 C 
ENDBRANCH  20  21
ENDBRANCH  19  20
ENDBRANCH  18  19
ENDBRANCH  17  18
ENDBRANCH   1  17
TORSDOF 10
ENDMDL
MODEL 10
REMARK VINA RESULT:    -5.036     23.867     28.208
REMARK INTER + INTRA:          -8.683
REMARK INTER:                  -8.072
REMARK INTRA:                  -0.612
REMARK UNBOUND:                -0.850
REMARK SMILES COc1cc(CNC(=O)CCCCCC(C)C)ccc1O
REMARK SMILES IDX 10 1 8 2 7 3 9 5 6 6 5 7 3 8 20 9 4 10 19 11 18 12 2 13 1 14
REMARK SMILES IDX 21 15 11 17 12 18 13 19 14 20 15 21 16 22 17 23
REMARK H PARENT 7 4 21 16
REMARK Flexibility Score: inf
ROOT
ATOM      1  C   UNL     1      75.701  84.206  65.420  1.00  0.00     0.100 C 
ENDROOT
BRANCH   1   2
ATOM      2  C   UNL     1      75.019  82.895  65.455  1.00  0.00     0.220 C 
ATOM      3  N   UNL     1      73.663  82.842  65.326  1.00  0.00    -0.352 N 
ATOM      4  H   UNL     1      73.199  83.738  65.348  1.00  0.00     0.163 HD
ATOM      5  O   UNL     1      75.710  81.852  65.559  1.00  0.00    -0.275 OA
BRANCH   3   6
ATOM      6  C   UNL     1      72.899  81.646  65.169  1.00  0.00     0.151 C 
BRANCH   6   7
ATOM      7  C   UNL     1      71.517  81.896  64.677  1.00  0.00    -0.025 A 
ATOM      8  C   UNL     1      69.304  82.926  64.969  1.00  0.00     0.160 A 
ATOM      9  C   UNL     1      68.908  82.428  63.709  1.00  0.00     0.157 A 
ATOM     10  C   UNL     1      70.599  82.642  65.453  1.00  0.00     0.056 A 
ATOM     11  C   UNL     1      69.805  81.663  62.941  1.00  0.00     0.050 A 
ATOM     12  C   UNL     1      71.101  81.404  63.418  1.00  0.00     0.009 A 
BRANCH   8  13
ATOM     13  O   UNL     1      68.439  83.657  65.741  1.00  0.00    -0.493 OA
ATOM     14  C   UNL     1      68.706  85.072  65.734  1.00  0.00     0.278 C 
ENDBRANCH   8  13
BRANCH   9  15
ATOM     15  O   UNL     1      67.665  82.695  63.236  1.00  0.00    -0.504 OA
ATOM     16  H   UNL     1      67.049  82.038  63.567  1.00  0.00     0.293 HD
ENDBRANCH   9  15
ENDBRANCH   6   7
ENDBRANCH   3   6
ENDBRANCH   1   2
BRANCH   1  17
ATOM     17  C   UNL     1      77.049  84.244  66.188  1.00  0.00     0.010 C 
BRANCH  17  18
ATOM     18  C   UNL     1      76.838  84.525  67.702  1.00  0.00     0.001 C 
BRANCH  18  19
ATOM     19  C   UNL     1      77.195  85.977  68.115  1.00  0.00     0.000 C 
BRANCH  19  20
ATOM     20  C   UNL     1      75.932  86.815  68.468  1.00  0.00     0.003 C 
BRANCH  20  21
ATOM     21  C   UNL     1      75.906  88.257  67.864  1.00  0.00    -0.017 C 
ATOM     22  C   UNL     1      77.336  88.711  67.448  1.00  0.00     0.007 C 
ATOM     23  C   UNL     1      75.272  89.304  68.825  1.00  0.00     0.007 C 
ENDBRANCH  20  21
ENDBRANCH  19  20
ENDBRANCH  18  19
ENDBRANCH  17  18
ENDBRANCH   1  17
TORSDOF 10
ENDMDL
