MODEL 1
REMARK VINA RESULT:    -7.759      0.000      0.000
REMARK INTER + INTRA:          -9.499
REMARK INTER:                  -9.119
REMARK INTRA:                  -0.380
REMARK UNBOUND:                -0.380
REMARK SMILES O=C(/C=C/C=C/c1ccc2c(c1)OCO2)N1CCCCC1
REMARK SMILES IDX 3 1 4 2 2 3 1 4 16 5 17 6 21 7 18 8 20 9 19 10 5 11 6 12
REMARK SMILES IDX 7 13 12 14 8 15 11 16 9 17 13 18 10 19 14 20 15 21
REMARK H PARENT
REMARK Flexibility Score: inf
ROOT
ATOM      1  C   UNL     1      94.621  97.137  76.753  1.00  0.00     0.071 C 
ATOM      2  C   UNL     1      93.358  97.149  77.175  1.00  0.00     0.006 C 
ENDROOT
BRANCH   1   3
ATOM      3  C   UNL     1      95.372  98.408  76.770  1.00  0.00     0.246 C 
ATOM      4  O   UNL     1      95.264  99.146  75.790  1.00  0.00    -0.270 OA
ATOM      5  N   UNL     1      96.155  98.685  77.890  1.00  0.00    -0.339 N 
ATOM      6  C   UNL     1      96.916  99.937  77.934  1.00  0.00     0.120 C 
ATOM      7  C   UNL     1      96.343  97.809  79.056  1.00  0.00     0.120 C 
ATOM      8  C   UNL     1      96.631 100.718  79.212  1.00  0.00     0.022 C 
ATOM      9  C   UNL     1      96.070  98.558  80.360  1.00  0.00     0.022 C 
ATOM     10  C   UNL     1      96.872  99.854  80.446  1.00  0.00     0.004 C 
ENDBRANCH   1   3
BRANCH   2  11
ATOM     11  C   UNL     1      92.542  95.954  77.195  1.00  0.00     0.001 C 
ATOM     12  C   UNL     1      92.150  95.323  76.076  1.00  0.00     0.008 C 
BRANCH  12  13
ATOM     13  C   UNL     1      91.314  94.111  76.038  1.00  0.00    -0.022 A 
ATOM     14  C   UNL     1      91.162  93.432  74.837  1.00  0.00     0.058 A 
ATOM     15  C   UNL     1      90.696  93.678  77.214  1.00  0.00     0.012 A 
ATOM     16  C   UNL     1      90.370  92.302  74.853  1.00  0.00     0.166 A 
ATOM     17  C   UNL     1      89.899  92.531  77.201  1.00  0.00     0.051 A 
ATOM     18  O   UNL     1      90.099  91.503  73.784  1.00  0.00    -0.454 OA
ATOM     19  C   UNL     1      89.755  91.863  76.003  1.00  0.00     0.165 A 
ATOM     20  C   UNL     1      89.244  90.513  74.391  1.00  0.00     0.468 C 
ATOM     21  O   UNL     1      89.022  90.735  75.799  1.00  0.00    -0.454 OA
ENDBRANCH  12  13
ENDBRANCH   2  11
TORSDOF 3
ENDMDL
MODEL 2
REMARK VINA RESULT:    -7.664     12.819     14.610
REMARK INTER + INTRA:          -9.388
REMARK INTER:                  -9.013
REMARK INTRA:                  -0.376
REMARK UNBOUND:                -0.380
REMARK SMILES O=C(/C=C/C=C/c1ccc2c(c1)OCO2)N1CCCCC1
REMARK SMILES IDX 3 1 4 2 2 3 1 4 16 5 17 6 21 7 18 8 20 9 19 10 5 11 6 12
REMARK SMILES IDX 7 13 12 14 8 15 11 16 9 17 13 18 10 19 14 20 15 21
REMARK H PARENT
REMARK Flexibility Score: inf
ROOT
ATOM      1  C   UNL     1      97.718  83.922  76.439  1.00  0.00     0.071 C 
ATOM      2  C   UNL     1      96.571  84.074  77.098  1.00  0.00     0.006 C 
ENDROOT
BRANCH   1   3
ATOM      3  C   UNL     1      97.776  84.369  75.033  1.00  0.00     0.246 C 
ATOM      4  O   UNL     1      96.710  84.629  74.474  1.00  0.00    -0.270 OA
ATOM      5  N   UNL     1      99.030  84.460  74.431  1.00  0.00    -0.339 N 
ATOM      6  C   UNL     1      99.119  84.895  73.034  1.00  0.00     0.120 C 
ATOM      7  C   UNL     1     100.319  84.115  75.051  1.00  0.00     0.120 C 
ATOM      8  C   UNL     1     100.093  86.058  72.874  1.00  0.00     0.022 C 
ATOM      9  C   UNL     1     101.325  85.257  74.907  1.00  0.00     0.022 C 
ATOM     10  C   UNL     1     101.459  85.711  73.457  1.00  0.00     0.004 C 
ENDBRANCH   1   3
BRANCH   2  11
ATOM     11  C   UNL     1      96.416  83.667  78.478  1.00  0.00     0.001 C 
ATOM     12  C   UNL     1      97.243  82.793  79.075  1.00  0.00     0.008 C 
BRANCH  12  13
ATOM     13  C   UNL     1      97.127  82.339  80.471  1.00  0.00    -0.022 A 
ATOM     14  C   UNL     1      96.824  83.265  81.459  1.00  0.00     0.058 A 
ATOM     15  C   UNL     1      97.326  80.987  80.762  1.00  0.00     0.012 A 
ATOM     16  C   UNL     1      96.725  82.792  82.752  1.00  0.00     0.166 A 
ATOM     17  C   UNL     1      97.220  80.535  82.079  1.00  0.00     0.051 A 
ATOM     18  O   UNL     1      96.440  83.537  83.855  1.00  0.00    -0.454 OA
ATOM     19  C   UNL     1      96.918  81.463  83.054  1.00  0.00     0.165 A 
ATOM     20  C   UNL     1      96.474  82.528  84.884  1.00  0.00     0.468 C 
ATOM     21  O   UNL     1      96.777  81.209  84.383  1.00  0.00    -0.454 OA
ENDBRANCH  12  13
ENDBRANCH   2  11
TORSDOF 3
ENDMDL
MODEL 3
REMARK VINA RESULT:    -7.663     12.863     15.230
REMARK INTER + INTRA:          -9.387
REMARK INTER:                  -9.165
REMARK INTRA:                  -0.222
REMARK UNBOUND:                -0.380
REMARK SMILES O=C(/C=C/C=C/c1ccc2c(c1)OCO2)N1CCCCC1
REMARK SMILES IDX 3 1 4 2 2 3 1 4 16 5 17 6 21 7 18 8 20 9 19 10 5 11 6 12
REMARK SMILES IDX 7 13 12 14 8 15 11 16 9 17 13 18 10 19 14 20 15 21
REMARK H PARENT
REMARK Flexibility Score: inf
ROOT
ATOM      1  C   UNL     1      95.964  83.743  83.468  1.00  0.00     0.071 C 
ATOM      2  C   UNL     1      96.576  82.938  82.601  1.00  0.00     0.006 C 
ENDROOT
BRANCH   1   3
ATOM      3  C   UNL     1      95.868  83.304  84.875  1.00  0.00     0.246 C 
ATOM      4  O   UNL     1      96.717  83.724  85.661  1.00  0.00    -0.270 OA
ATOM      5  N   UNL     1      94.828  82.441  85.216  1.00  0.00    -0.339 N 
ATOM      6  C   UNL     1      94.710  81.984  86.604  1.00  0.00     0.120 C 
ATOM      7  C   UNL     1      93.824  81.883  84.298  1.00  0.00     0.120 C 
ATOM      8  C   UNL     1      93.312  82.238  87.157  1.00  0.00     0.022 C 
ATOM      9  C   UNL     1      92.406  82.115  84.820  1.00  0.00     0.022 C 
ATOM     10  C   UNL     1      92.247  81.622  86.256  1.00  0.00     0.004 C 
ENDBRANCH   1   3
BRANCH   2  11
ATOM     11  C   UNL     1      96.719  83.281  81.202  1.00  0.00     0.001 C 
ATOM     12  C   UNL     1      97.341  82.483  80.319  1.00  0.00     0.008 C 
BRANCH  12  13
ATOM     13  C   UNL     1      97.522  82.786  78.889  1.00  0.00    -0.022 A 
ATOM     14  C   UNL     1      96.685  83.714  78.284  1.00  0.00     0.058 A 
ATOM     15  C   UNL     1      98.532  82.131  78.180  1.00  0.00     0.012 A 
ATOM     16  C   UNL     1      96.894  83.965  76.943  1.00  0.00     0.166 A 
ATOM     17  C   UNL     1      98.721  82.404  76.823  1.00  0.00     0.051 A 
ATOM     18  O   UNL     1      96.182  84.834  76.174  1.00  0.00    -0.454 OA
ATOM     19  C   UNL     1      97.884  83.327  76.232  1.00  0.00     0.165 A 
ATOM     20  C   UNL     1      96.837  84.672  74.899  1.00  0.00     0.468 C 
ATOM     21  O   UNL     1      97.918  83.717  74.929  1.00  0.00    -0.454 OA
ENDBRANCH  12  13
ENDBRANCH   2  11
TORSDOF 3
ENDMDL
MODEL 4
REMARK VINA RESULT:    -7.467     12.870     15.089
REMARK INTER + INTRA:          -9.157
REMARK INTER:                  -8.830
REMARK INTRA:                  -0.327
REMARK UNBOUND:                -0.380
REMARK SMILES O=C(/C=C/C=C/c1ccc2c(c1)OCO2)N1CCCCC1
REMARK SMILES IDX 3 1 4 2 2 3 1 4 16 5 17 6 21 7 18 8 20 9 19 10 5 11 6 12
REMARK SMILES IDX 7 13 12 14 8 15 11 16 9 17 13 18 10 19 14 20 15 21
REMARK H PARENT
REMARK Flexibility Score: inf
ROOT
ATOM      1  C   UNL     1      96.620  83.344  82.959  1.00  0.00     0.071 C 
ATOM      2  C   UNL     1      96.831  82.615  81.864  1.00  0.00     0.006 C 
ENDROOT
BRANCH   1   3
ATOM      3  C   UNL     1      96.669  82.661  84.267  1.00  0.00     0.246 C 
ATOM      4  O   UNL     1      97.780  82.416  84.739  1.00  0.00    -0.270 OA
ATOM      5  N   UNL     1      95.458  82.337  84.877  1.00  0.00    -0.339 N 
ATOM      6  C   UNL     1      95.475  81.654  86.174  1.00  0.00     0.120 C 
ATOM      7  C   UNL     1      94.116  82.573  84.324  1.00  0.00     0.120 C 
ATOM      8  C   UNL     1      94.620  82.388  87.201  1.00  0.00     0.022 C 
ATOM      9  C   UNL     1      93.225  83.305  85.327  1.00  0.00     0.022 C 
ATOM     10  C   UNL     1      93.202  82.600  86.680  1.00  0.00     0.004 C 
ENDBRANCH   1   3
BRANCH   2  11
ATOM     11  C   UNL     1      96.803  83.194  80.538  1.00  0.00     0.001 C 
ATOM     12  C   UNL     1      97.489  82.678  79.505  1.00  0.00     0.008 C 
BRANCH  12  13
ATOM     13  C   UNL     1      97.503  83.230  78.140  1.00  0.00    -0.022 A 
ATOM     14  C   UNL     1      98.595  82.979  77.320  1.00  0.00     0.058 A 
ATOM     15  C   UNL     1      96.414  83.991  77.706  1.00  0.00     0.012 A 
ATOM     16  C   UNL     1      98.561  83.517  76.050  1.00  0.00     0.166 A 
ATOM     17  C   UNL     1      96.406  84.523  76.415  1.00  0.00     0.051 A 
ATOM     18  O   UNL     1      99.530  83.387  75.102  1.00  0.00    -0.454 OA
ATOM     19  C   UNL     1      97.496  84.269  75.609  1.00  0.00     0.165 A 
ATOM     20  C   UNL     1      98.954  84.141  74.016  1.00  0.00     0.468 C 
ATOM     21  O   UNL     1      97.664  84.703  74.331  1.00  0.00    -0.454 OA
ENDBRANCH  12  13
ENDBRANCH   2  11
TORSDOF 3
ENDMDL
MODEL 5
REMARK VINA RESULT:    -7.382      3.874      9.302
REMARK INTER + INTRA:          -9.057
REMARK INTER:                  -8.706
REMARK INTRA:                  -0.351
REMARK UNBOUND:                -0.380
REMARK SMILES O=C(/C=C/C=C/c1ccc2c(c1)OCO2)N1CCCCC1
REMARK SMILES IDX 3 1 4 2 2 3 1 4 16 5 17 6 21 7 18 8 20 9 19 10 5 11 6 12
REMARK SMILES IDX 7 13 12 14 8 15 11 16 9 17 13 18 10 19 14 20 15 21
REMARK H PARENT
REMARK Flexibility Score: inf
ROOT
ATOM      1  C   UNL     1      93.527  95.380  77.493  1.00  0.00     0.071 C 
ATOM      2  C   UNL     1      94.645  94.845  77.979  1.00  0.00     0.006 C 
ENDROOT
BRANCH   1   3
ATOM      3  C   UNL     1      93.009  94.861  76.211  1.00  0.00     0.246 C 
ATOM      4  O   UNL     1      93.766  94.884  75.240  1.00  0.00    -0.270 OA
ATOM      5  N   UNL     1      91.699  94.386  76.185  1.00  0.00    -0.339 N 
ATOM      6  C   UNL     1      91.155  93.869  74.926  1.00  0.00     0.120 C 
ATOM      7  C   UNL     1      90.752  94.385  77.310  1.00  0.00     0.120 C 
ATOM      8  C   UNL     1      90.572  92.471  75.103  1.00  0.00     0.022 C 
ATOM      9  C   UNL     1      90.142  92.999  77.518  1.00  0.00     0.022 C 
ATOM     10  C   UNL     1      89.542  92.447  76.228  1.00  0.00     0.004 C 
ENDBRANCH   1   3
BRANCH   2  11
ATOM     11  C   UNL     1      95.230  95.287  79.227  1.00  0.00     0.001 C 
ATOM     12  C   UNL     1      96.142  96.271  79.294  1.00  0.00     0.008 C 
BRANCH  12  13
ATOM     13  C   UNL     1      96.774  96.754  80.533  1.00  0.00    -0.022 A 
ATOM     14  C   UNL     1      97.484  95.859  81.323  1.00  0.00     0.058 A 
ATOM     15  C   UNL     1      96.642  98.100  80.881  1.00  0.00     0.012 A 
ATOM     16  C   UNL     1      98.058  96.359  82.474  1.00  0.00     0.166 A 
ATOM     17  C   UNL     1      97.234  98.579  82.052  1.00  0.00     0.051 A 
ATOM     18  O   UNL     1      98.788  95.646  83.375  1.00  0.00    -0.454 OA
ATOM     19  C   UNL     1      97.937  97.682  82.829  1.00  0.00     0.165 A 
ATOM     20  C   UNL     1      99.112  96.670  84.337  1.00  0.00     0.468 C 
ATOM     21  O   UNL     1      98.575  97.965  83.997  1.00  0.00    -0.454 OA
ENDBRANCH  12  13
ENDBRANCH   2  11
TORSDOF 3
ENDMDL
MODEL 6
REMARK VINA RESULT:    -7.130      4.971      6.263
REMARK INTER + INTRA:          -8.760
REMARK INTER:                  -8.435
REMARK INTRA:                  -0.325
REMARK UNBOUND:                -0.380
REMARK SMILES O=C(/C=C/C=C/c1ccc2c(c1)OCO2)N1CCCCC1
REMARK SMILES IDX 3 1 4 2 2 3 1 4 16 5 17 6 21 7 18 8 20 9 19 10 5 11 6 12
REMARK SMILES IDX 7 13 12 14 8 15 11 16 9 17 13 18 10 19 14 20 15 21
REMARK H PARENT
REMARK Flexibility Score: inf
ROOT
ATOM      1  C   UNL     1      95.534  97.283  71.998  1.00  0.00     0.071 C 
ATOM      2  C   UNL     1      95.234  97.325  73.295  1.00  0.00     0.006 C 
ENDROOT
BRANCH   1   3
ATOM      3  C   UNL     1      96.518  98.254  71.481  1.00  0.00     0.246 C 
ATOM      4  O   UNL     1      97.581  98.367  72.092  1.00  0.00    -0.270 OA
ATOM      5  N   UNL     1      96.178  98.979  70.340  1.00  0.00    -0.339 N 
ATOM      6  C   UNL     1      97.133  99.955  69.806  1.00  0.00     0.120 C 
ATOM      7  C   UNL     1      94.903  98.904  69.611  1.00  0.00     0.120 C 
ATOM      8  C   UNL     1      97.404  99.716  68.325  1.00  0.00     0.022 C 
ATOM      9  C   UNL     1      95.133  98.668  68.118  1.00  0.00     0.022 C 
ATOM     10  C   UNL     1      96.103  99.688  67.529  1.00  0.00     0.004 C 
ENDBRANCH   1   3
BRANCH   2  11
ATOM     11  C   UNL     1      94.281  96.415  73.895  1.00  0.00     0.001 C 
ATOM     12  C   UNL     1      93.917  96.491  75.185  1.00  0.00     0.008 C 
BRANCH  12  13
ATOM     13  C   UNL     1      92.960  95.588  75.846  1.00  0.00    -0.022 A 
ATOM     14  C   UNL     1      92.247  94.679  75.078  1.00  0.00     0.058 A 
ATOM     15  C   UNL     1      92.796  95.672  77.231  1.00  0.00     0.012 A 
ATOM     16  C   UNL     1      91.363  93.854  75.743  1.00  0.00     0.166 A 
ATOM     17  C   UNL     1      91.894  94.825  77.879  1.00  0.00     0.051 A 
ATOM     18  O   UNL     1      90.575  92.902  75.171  1.00  0.00    -0.454 OA
ATOM     19  C   UNL     1      91.191  93.925  77.106  1.00  0.00     0.165 A 
ATOM     20  C   UNL     1      89.888  92.383  76.328  1.00  0.00     0.468 C 
ATOM     21  O   UNL     1      90.274  93.027  77.559  1.00  0.00    -0.454 OA
ENDBRANCH  12  13
ENDBRANCH   2  11
TORSDOF 3
ENDMDL
MODEL 7
REMARK VINA RESULT:    -6.952     13.963     17.040
REMARK INTER + INTRA:          -8.551
REMARK INTER:                  -8.162
REMARK INTRA:                  -0.390
REMARK UNBOUND:                -0.380
REMARK SMILES O=C(/C=C/C=C/c1ccc2c(c1)OCO2)N1CCCCC1
REMARK SMILES IDX 3 1 4 2 2 3 1 4 16 5 17 6 21 7 18 8 20 9 19 10 5 11 6 12
REMARK SMILES IDX 7 13 12 14 8 15 11 16 9 17 13 18 10 19 14 20 15 21
REMARK H PARENT
REMARK Flexibility Score: inf
ROOT
ATOM      1  C   UNL     1      93.807  83.373  87.174  1.00  0.00     0.071 C 
ATOM      2  C   UNL     1      93.677  83.709  88.456  1.00  0.00     0.006 C 
ENDROOT
BRANCH   1   3
ATOM      3  C   UNL     1      93.804  81.938  86.828  1.00  0.00     0.246 C 
ATOM      4  O   UNL     1      94.369  81.165  87.603  1.00  0.00    -0.270 OA
ATOM      5  N   UNL     1      93.168  81.555  85.648  1.00  0.00    -0.339 N 
ATOM      6  C   UNL     1      93.154  80.138  85.275  1.00  0.00     0.120 C 
ATOM      7  C   UNL     1      92.524  82.453  84.678  1.00  0.00     0.120 C 
ATOM      8  C   UNL     1      91.737  79.651  84.990  1.00  0.00     0.022 C 
ATOM      9  C   UNL     1      91.100  81.996  84.362  1.00  0.00     0.022 C 
ATOM     10  C   UNL     1      91.058  80.529  83.943  1.00  0.00     0.004 C 
ENDBRANCH   1   3
BRANCH   2  11
ATOM     11  C   UNL     1      93.669  85.089  88.893  1.00  0.00     0.001 C 
ATOM     12  C   UNL     1      93.182  86.087  88.139  1.00  0.00     0.008 C 
BRANCH  12  13
ATOM     13  C   UNL     1      93.156  87.506  88.530  1.00  0.00    -0.022 A 
ATOM     14  C   UNL     1      94.075  88.380  87.964  1.00  0.00     0.058 A 
ATOM     15  C   UNL     1      92.207  87.935  89.462  1.00  0.00     0.012 A 
ATOM     16  C   UNL     1      94.011  89.700  88.362  1.00  0.00     0.166 A 
ATOM     17  C   UNL     1      92.165  89.277  89.847  1.00  0.00     0.051 A 
ATOM     18  O   UNL     1      94.821  90.704  87.927  1.00  0.00    -0.454 OA
ATOM     19  C   UNL     1      93.082  90.137  89.278  1.00  0.00     0.165 A 
ATOM     20  C   UNL     1      94.296  91.822  88.672  1.00  0.00     0.468 C 
ATOM     21  O   UNL     1      93.192  91.469  89.531  1.00  0.00    -0.454 OA
ENDBRANCH  12  13
ENDBRANCH   2  11
TORSDOF 3
ENDMDL
MODEL 8
REMARK VINA RESULT:    -6.633      2.120      3.006
REMARK INTER + INTRA:          -8.176
REMARK INTER:                  -7.786
REMARK INTRA:                  -0.390
REMARK UNBOUND:                -0.380
REMARK SMILES O=C(/C=C/C=C/c1ccc2c(c1)OCO2)N1CCCCC1
REMARK SMILES IDX 3 1 4 2 2 3 1 4 16 5 17 6 21 7 18 8 20 9 19 10 5 11 6 12
REMARK SMILES IDX 7 13 12 14 8 15 11 16 9 17 13 18 10 19 14 20 15 21
REMARK H PARENT
REMARK Flexibility Score: inf
ROOT
ATOM      1  C   UNL     1      94.928  98.139  76.445  1.00  0.00     0.071 C 
ATOM      2  C   UNL     1      94.524  97.522  77.554  1.00  0.00     0.006 C 
ENDROOT
BRANCH   1   3
ATOM      3  C   UNL     1      96.046  99.097  76.552  1.00  0.00     0.246 C 
ATOM      4  O   UNL     1      96.216  99.656  77.636  1.00  0.00    -0.270 OA
ATOM      5  N   UNL     1      96.831  99.308  75.419  1.00  0.00    -0.339 N 
ATOM      6  C   UNL     1      97.946 100.257  75.493  1.00  0.00     0.120 C 
ATOM      7  C   UNL     1      96.632  98.694  74.097  1.00  0.00     0.120 C 
ATOM      8  C   UNL     1      99.250  99.623  75.021  1.00  0.00     0.022 C 
ATOM      9  C   UNL     1      97.921  98.050  73.587  1.00  0.00     0.022 C 
ATOM     10  C   UNL     1      99.093  99.026  73.626  1.00  0.00     0.004 C 
ENDBRANCH   1   3
BRANCH   2  11
ATOM     11  C   UNL     1      93.436  96.567  77.550  1.00  0.00     0.001 C 
ATOM     12  C   UNL     1      93.271  95.657  76.576  1.00  0.00     0.008 C 
BRANCH  12  13
ATOM     13  C   UNL     1      92.179  94.670  76.519  1.00  0.00    -0.022 A 
ATOM     14  C   UNL     1      91.928  94.010  75.324  1.00  0.00     0.058 A 
ATOM     15  C   UNL     1      91.426  94.425  77.670  1.00  0.00     0.012 A 
ATOM     16  C   UNL     1      90.896  93.094  75.320  1.00  0.00     0.166 A 
ATOM     17  C   UNL     1      90.387  93.493  77.637  1.00  0.00     0.051 A 
ATOM     18  O   UNL     1      90.494  92.350  74.253  1.00  0.00    -0.454 OA
ATOM     19  C   UNL     1      90.146  92.842  76.445  1.00  0.00     0.165 A 
ATOM     20  C   UNL     1      89.407  91.601  74.835  1.00  0.00     0.468 C 
ATOM     21  O   UNL     1      89.180  91.908  76.225  1.00  0.00    -0.454 OA
ENDBRANCH  12  13
ENDBRANCH   2  11
TORSDOF 3
ENDMDL
MODEL 9
REMARK VINA RESULT:    -6.431     24.926     27.503
REMARK INTER + INTRA:          -7.939
REMARK INTER:                  -7.612
REMARK INTRA:                  -0.327
REMARK UNBOUND:                -0.380
REMARK SMILES O=C(/C=C/C=C/c1ccc2c(c1)OCO2)N1CCCCC1
REMARK SMILES IDX 3 1 4 2 2 3 1 4 16 5 17 6 21 7 18 8 20 9 19 10 5 11 6 12
REMARK SMILES IDX 7 13 12 14 8 15 11 16 9 17 13 18 10 19 14 20 15 21
REMARK H PARENT
REMARK Flexibility Score: inf
ROOT
ATOM      1  C   UNL     1      87.068  69.377  71.282  1.00  0.00     0.071 C 
ATOM      2  C   UNL     1      87.849  70.420  71.007  1.00  0.00     0.006 C 
ENDROOT
BRANCH   1   3
ATOM      3  C   UNL     1      87.182  68.757  72.617  1.00  0.00     0.246 C 
ATOM      4  O   UNL     1      88.183  69.021  73.284  1.00  0.00    -0.270 OA
ATOM      5  N   UNL     1      86.154  67.911  73.031  1.00  0.00    -0.339 N 
ATOM      6  C   UNL     1      86.242  67.276  74.350  1.00  0.00     0.120 C 
ATOM      7  C   UNL     1      84.968  67.536  72.246  1.00  0.00     0.120 C 
ATOM      8  C   UNL     1      84.983  67.526  75.173  1.00  0.00     0.022 C 
ATOM      9  C   UNL     1      83.683  67.769  73.041  1.00  0.00     0.022 C 
ATOM     10  C   UNL     1      83.735  67.095  74.409  1.00  0.00     0.004 C 
ENDBRANCH   1   3
BRANCH   2  11
ATOM     11  C   UNL     1      87.809  71.093  69.726  1.00  0.00     0.001 C 
ATOM     12  C   UNL     1      88.799  71.892  69.295  1.00  0.00     0.008 C 
BRANCH  12  13
ATOM     13  C   UNL     1      88.806  72.607  68.007  1.00  0.00    -0.022 A 
ATOM     14  C   UNL     1      89.976  73.221  67.583  1.00  0.00     0.058 A 
ATOM     15  C   UNL     1      87.634  72.646  67.247  1.00  0.00     0.012 A 
ATOM     16  C   UNL     1      89.934  73.878  66.370  1.00  0.00     0.166 A 
ATOM     17  C   UNL     1      87.620  73.318  66.023  1.00  0.00     0.051 A 
ATOM     18  O   UNL     1      90.970  74.540  65.784  1.00  0.00    -0.454 OA
ATOM     19  C   UNL     1      88.787  73.926  65.611  1.00  0.00     0.165 A 
ATOM     20  C   UNL     1      90.346  75.009  64.572  1.00  0.00     0.468 C 
ATOM     21  O   UNL     1      88.961  74.623  64.455  1.00  0.00    -0.454 OA
ENDBRANCH  12  13
ENDBRANCH   2  11
TORSDOF 3
ENDMDL
MODEL 10
REMARK VINA RESULT:    -6.348     13.122     14.234
REMARK INTER + INTRA:          -7.841
REMARK INTER:                  -7.491
REMARK INTRA:                  -0.349
REMARK UNBOUND:                -0.380
REMARK SMILES O=C(/C=C/C=C/c1ccc2c(c1)OCO2)N1CCCCC1
REMARK SMILES IDX 3 1 4 2 2 3 1 4 16 5 17 6 21 7 18 8 20 9 19 10 5 11 6 12
REMARK SMILES IDX 7 13 12 14 8 15 11 16 9 17 13 18 10 19 14 20 15 21
REMARK H PARENT
REMARK Flexibility Score: inf
ROOT
ATOM      1  C   UNL     1      93.712  87.660  89.238  1.00  0.00     0.071 C 
ATOM      2  C   UNL     1      92.939  86.823  88.548  1.00  0.00     0.006 C 
ENDROOT
BRANCH   1   3
ATOM      3  C   UNL     1      93.054  88.713  90.037  1.00  0.00     0.246 C 
ATOM      4  O   UNL     1      92.495  88.371  91.080  1.00  0.00    -0.270 OA
ATOM      5  N   UNL     1      93.105  90.020  89.556  1.00  0.00    -0.339 N 
ATOM      6  C   UNL     1      92.457  91.087  90.324  1.00  0.00     0.120 C 
ATOM      7  C   UNL     1      93.723  90.459  88.296  1.00  0.00     0.120 C 
ATOM      8  C   UNL     1      93.417  92.239  90.598  1.00  0.00     0.022 C 
ATOM      9  C   UNL     1      94.692  91.618  88.528  1.00  0.00     0.022 C 
ATOM     10  C   UNL     1      94.034  92.756  89.303  1.00  0.00     0.004 C 
ENDBRANCH   1   3
BRANCH   2  11
ATOM     11  C   UNL     1      93.491  85.759  87.736  1.00  0.00     0.001 C 
ATOM     12  C   UNL     1      93.324  85.699  86.405  1.00  0.00     0.008 C 
BRANCH  12  13
ATOM     13  C   UNL     1      93.855  84.637  85.534  1.00  0.00    -0.022 A 
ATOM     14  C   UNL     1      95.072  84.833  84.896  1.00  0.00     0.058 A 
ATOM     15  C   UNL     1      93.119  83.461  85.374  1.00  0.00     0.012 A 
ATOM     16  C   UNL     1      95.529  83.810  84.091  1.00  0.00     0.166 A 
ATOM     17  C   UNL     1      93.605  82.441  84.553  1.00  0.00     0.051 A 
ATOM     18  O   UNL     1      96.692  83.810  83.382  1.00  0.00    -0.454 OA
ATOM     19  C   UNL     1      94.815  82.645  83.923  1.00  0.00     0.165 A 
ATOM     20  C   UNL     1      96.629  82.515  82.751  1.00  0.00     0.468 C 
ATOM     21  O   UNL     1      95.441  81.770  83.090  1.00  0.00    -0.454 OA
ENDBRANCH  12  13
ENDBRANCH   2  11
TORSDOF 3
ENDMDL
