MODEL 1
REMARK VINA RESULT:    -6.567      0.000      0.000
REMARK INTER + INTRA:         -12.757
REMARK INTER:                 -10.790
REMARK INTRA:                  -1.968
REMARK UNBOUND:                -1.968
REMARK SMILES CCCCC[C@H](O)CC(=O)CCc1ccc(O)c(OC)c1
REMARK SMILES IDX 8 1 6 2 7 3 5 5 4 6 3 7 2 8 1 9 9 10 10 11 11 12 12 13 13 14
REMARK SMILES IDX 21 15 14 16 18 17 15 18 16 19 19 20 20 21 17 22
REMARK H PARENT 7 4 17 23
REMARK Flexibility Score: inf
ROOT
ATOM      1  C   UNL     1      89.292  91.044  71.506  1.00  0.00     0.107 C 
ENDROOT
BRANCH   1   2
ATOM      2  C   UNL     1      90.170  92.198  71.996  1.00  0.00     0.121 C 
BRANCH   2   3
ATOM      3  O   UNL     1      89.349  93.279  72.432  1.00  0.00    -0.393 OA
ATOM      4  H   UNL     1      88.949  93.685  71.644  1.00  0.00     0.210 HD
ENDBRANCH   2   3
BRANCH   2   5
ATOM      5  C   UNL     1      91.116  91.791  73.133  1.00  0.00     0.032 C 
BRANCH   5   6
ATOM      6  C   UNL     1      91.714  93.009  73.849  1.00  0.00     0.003 C 
BRANCH   6   7
ATOM      7  C   UNL     1      91.481  92.997  75.363  1.00  0.00    -0.000 C 
BRANCH   7   8
ATOM      8  C   UNL     1      90.313  93.875  75.809  1.00  0.00    -0.003 C 
ATOM      9  C   UNL     1      89.670  93.339  77.079  1.00  0.00     0.004 C 
ENDBRANCH   7   8
ENDBRANCH   6   7
ENDBRANCH   5   6
ENDBRANCH   2   5
ENDBRANCH   1   2
BRANCH   1  10
ATOM     10  C   UNL     1      87.891  91.070  72.095  1.00  0.00     0.135 C 
ATOM     11  O   UNL     1      87.004  91.757  71.588  1.00  0.00    -0.300 OA
BRANCH  10  12
ATOM     12  C   UNL     1      87.641  90.177  73.300  1.00  0.00     0.080 C 
BRANCH  12  13
ATOM     13  C   UNL     1      88.104  90.787  74.625  1.00  0.00     0.043 C 
BRANCH  13  14
ATOM     14  C   UNL     1      88.988  89.862  75.426  1.00  0.00    -0.044 A 
ATOM     15  C   UNL     1      89.050  89.984  76.814  1.00  0.00     0.054 A 
ATOM     16  C   UNL     1      89.743  88.884  74.777  1.00  0.00     0.008 A 
ATOM     17  C   UNL     1      89.867  89.129  77.553  1.00  0.00     0.160 A 
ATOM     18  C   UNL     1      90.560  88.028  75.516  1.00  0.00     0.050 A 
ATOM     19  C   UNL     1      90.622  88.151  76.904  1.00  0.00     0.157 A 
BRANCH  17  20
ATOM     20  O   UNL     1      89.920  89.258  78.908  1.00  0.00    -0.493 OA
ATOM     21  C   UNL     1      90.276  90.540  79.424  1.00  0.00     0.278 C 
ENDBRANCH  17  20
BRANCH  19  22
ATOM     22  O   UNL     1      91.423  87.310  77.616  1.00  0.00    -0.504 OA
ATOM     23  H   UNL     1      92.344  87.432  77.330  1.00  0.00     0.293 HD
ENDBRANCH  19  22
ENDBRANCH  13  14
ENDBRANCH  12  13
ENDBRANCH  10  12
ENDBRANCH   1  10
TORSDOF 12
ENDMDL
MODEL 2
REMARK VINA RESULT:    -6.337      2.014      2.699
REMARK INTER + INTRA:         -12.379
REMARK INTER:                 -11.249
REMARK INTRA:                  -1.130
REMARK UNBOUND:                -1.968
REMARK SMILES CCCCC[C@H](O)CC(=O)CCc1ccc(O)c(OC)c1
REMARK SMILES IDX 8 1 6 2 7 3 5 5 4 6 3 7 2 8 1 9 9 10 10 11 11 12 12 13 13 14
REMARK SMILES IDX 21 15 14 16 18 17 15 18 16 19 19 20 20 21 17 22
REMARK H PARENT 7 4 17 23
REMARK Flexibility Score: inf
ROOT
ATOM      1  C   UNL     1      91.145  92.371  73.419  1.00  0.00     0.107 C 
ENDROOT
BRANCH   1   2
ATOM      2  C   UNL     1      91.336  93.631  74.267  1.00  0.00     0.121 C 
BRANCH   2   3
ATOM      3  O   UNL     1      90.295  93.723  75.237  1.00  0.00    -0.393 OA
ATOM      4  H   UNL     1      90.076  92.819  75.525  1.00  0.00     0.210 HD
ENDBRANCH   2   3
BRANCH   2   5
ATOM      5  C   UNL     1      92.694  93.677  74.977  1.00  0.00     0.032 C 
BRANCH   5   6
ATOM      6  C   UNL     1      93.281  95.093  75.006  1.00  0.00     0.003 C 
BRANCH   6   7
ATOM      7  C   UNL     1      94.632  95.175  75.725  1.00  0.00    -0.000 C 
BRANCH   7   8
ATOM      8  C   UNL     1      94.930  93.964  76.607  1.00  0.00    -0.003 C 
ATOM      9  C   UNL     1      96.370  93.501  76.445  1.00  0.00     0.004 C 
ENDBRANCH   7   8
ENDBRANCH   6   7
ENDBRANCH   5   6
ENDBRANCH   2   5
ENDBRANCH   1   2
BRANCH   1  10
ATOM     10  C   UNL     1      89.774  92.293  72.767  1.00  0.00     0.135 C 
ATOM     11  O   UNL     1      89.174  93.314  72.432  1.00  0.00    -0.300 OA
BRANCH  10  12
ATOM     12  C   UNL     1      89.217  90.900  72.516  1.00  0.00     0.080 C 
BRANCH  12  13
ATOM     13  C   UNL     1      88.269  90.410  73.612  1.00  0.00     0.043 C 
BRANCH  13  14
ATOM     14  C   UNL     1      88.979  89.676  74.724  1.00  0.00    -0.044 A 
ATOM     15  C   UNL     1      89.265  90.331  75.921  1.00  0.00     0.054 A 
ATOM     16  C   UNL     1      89.348  88.341  74.553  1.00  0.00     0.008 A 
ATOM     17  C   UNL     1      89.920  89.651  76.948  1.00  0.00     0.160 A 
ATOM     18  C   UNL     1      90.003  87.661  75.580  1.00  0.00     0.050 A 
ATOM     19  C   UNL     1      90.290  88.317  76.778  1.00  0.00     0.157 A 
BRANCH  17  20
ATOM     20  O   UNL     1      90.195  90.302  78.113  1.00  0.00    -0.493 OA
ATOM     21  C   UNL     1      90.566  91.676  78.016  1.00  0.00     0.278 C 
ENDBRANCH  17  20
BRANCH  19  22
ATOM     22  O   UNL     1      90.930  87.643  77.773  1.00  0.00    -0.504 OA
ATOM     23  H   UNL     1      90.271  87.323  78.414  1.00  0.00     0.293 HD
ENDBRANCH  19  22
ENDBRANCH  13  14
ENDBRANCH  12  13
ENDBRANCH  10  12
ENDBRANCH   1  10
TORSDOF 12
ENDMDL
MODEL 3
REMARK VINA RESULT:    -6.066      1.841      3.240
REMARK INTER + INTRA:         -11.935
REMARK INTER:                 -10.579
REMARK INTRA:                  -1.356
REMARK UNBOUND:                -1.968
REMARK SMILES CCCCC[C@H](O)CC(=O)CCc1ccc(O)c(OC)c1
REMARK SMILES IDX 8 1 6 2 7 3 5 5 4 6 3 7 2 8 1 9 9 10 10 11 11 12 12 13 13 14
REMARK SMILES IDX 21 15 14 16 18 17 15 18 16 19 19 20 20 21 17 22
REMARK H PARENT 7 4 17 23
REMARK Flexibility Score: inf
ROOT
ATOM      1  C   UNL     1      91.207  92.313  73.331  1.00  0.00     0.107 C 
ENDROOT
BRANCH   1   2
ATOM      2  C   UNL     1      91.288  93.454  74.349  1.00  0.00     0.121 C 
BRANCH   2   3
ATOM      3  O   UNL     1      89.981  93.776  74.818  1.00  0.00    -0.393 OA
ATOM      4  H   UNL     1      89.469  92.950  74.865  1.00  0.00     0.210 HD
ENDBRANCH   2   3
BRANCH   2   5
ATOM      5  C   UNL     1      92.188  93.127  75.546  1.00  0.00     0.032 C 
BRANCH   5   6
ATOM      6  C   UNL     1      92.588  94.385  76.327  1.00  0.00     0.003 C 
BRANCH   6   7
ATOM      7  C   UNL     1      93.967  94.926  75.939  1.00  0.00    -0.000 C 
BRANCH   7   8
ATOM      8  C   UNL     1      94.896  93.868  75.345  1.00  0.00    -0.003 C 
ATOM      9  C   UNL     1      96.259  93.885  76.020  1.00  0.00     0.004 C 
ENDBRANCH   7   8
ENDBRANCH   6   7
ENDBRANCH   5   6
ENDBRANCH   2   5
ENDBRANCH   1   2
BRANCH   1  10
ATOM     10  C   UNL     1      89.933  92.344  72.502  1.00  0.00     0.135 C 
ATOM     11  O   UNL     1      89.527  93.393  72.003  1.00  0.00    -0.300 OA
BRANCH  10  12
ATOM     12  C   UNL     1      89.224  91.014  72.292  1.00  0.00     0.080 C 
BRANCH  12  13
ATOM     13  C   UNL     1      88.192  90.689  73.374  1.00  0.00     0.043 C 
BRANCH  13  14
ATOM     14  C   UNL     1      88.814  90.173  74.649  1.00  0.00    -0.044 A 
ATOM     15  C   UNL     1      89.546  88.986  74.638  1.00  0.00     0.054 A 
ATOM     16  C   UNL     1      88.655  90.883  75.839  1.00  0.00     0.008 A 
ATOM     17  C   UNL     1      90.121  88.510  75.816  1.00  0.00     0.160 A 
ATOM     18  C   UNL     1      89.230  90.408  77.018  1.00  0.00     0.050 A 
ATOM     19  C   UNL     1      89.962  89.221  77.007  1.00  0.00     0.157 A 
BRANCH  17  20
ATOM     20  O   UNL     1      90.834  87.349  75.793  1.00  0.00    -0.493 OA
ATOM     21  C   UNL     1      91.530  87.040  74.587  1.00  0.00     0.278 C 
ENDBRANCH  17  20
BRANCH  19  22
ATOM     22  O   UNL     1      90.519  88.766  78.164  1.00  0.00    -0.504 OA
ATOM     23  H   UNL     1      91.486  88.742  78.062  1.00  0.00     0.293 HD
ENDBRANCH  19  22
ENDBRANCH  13  14
ENDBRANCH  12  13
ENDBRANCH  10  12
ENDBRANCH   1  10
TORSDOF 12
ENDMDL
MODEL 4
REMARK VINA RESULT:    -6.052     12.293     14.866
REMARK INTER + INTRA:         -11.912
REMARK INTER:                  -9.905
REMARK INTRA:                  -2.007
REMARK UNBOUND:                -1.968
REMARK SMILES CCCCC[C@H](O)CC(=O)CCc1ccc(O)c(OC)c1
REMARK SMILES IDX 8 1 6 2 7 3 5 5 4 6 3 7 2 8 1 9 9 10 10 11 11 12 12 13 13 14
REMARK SMILES IDX 21 15 14 16 18 17 15 18 16 19 19 20 20 21 17 22
REMARK H PARENT 7 4 17 23
REMARK Flexibility Score: inf
ROOT
ATOM      1  C   UNL     1      80.576  85.862  86.248  1.00  0.00     0.107 C 
ENDROOT
BRANCH   1   2
ATOM      2  C   UNL     1      81.121  86.142  84.845  1.00  0.00     0.121 C 
BRANCH   2   3
ATOM      3  O   UNL     1      81.838  85.006  84.369  1.00  0.00    -0.393 OA
ATOM      4  H   UNL     1      82.785  85.234  84.360  1.00  0.00     0.210 HD
ENDBRANCH   2   3
BRANCH   2   5
ATOM      5  C   UNL     1      80.024  86.506  83.837  1.00  0.00     0.032 C 
BRANCH   5   6
ATOM      6  C   UNL     1      79.904  88.022  83.637  1.00  0.00     0.003 C 
BRANCH   6   7
ATOM      7  C   UNL     1      81.196  88.780  83.958  1.00  0.00    -0.000 C 
BRANCH   7   8
ATOM      8  C   UNL     1      80.965  90.100  84.691  1.00  0.00    -0.003 C 
ATOM      9  C   UNL     1      79.508  90.262  85.095  1.00  0.00     0.004 C 
ENDBRANCH   7   8
ENDBRANCH   6   7
ENDBRANCH   5   6
ENDBRANCH   2   5
ENDBRANCH   1   2
BRANCH   1  10
ATOM     10  C   UNL     1      81.662  85.810  87.310  1.00  0.00     0.135 C 
ATOM     11  O   UNL     1      82.620  85.045  87.198  1.00  0.00    -0.300 OA
BRANCH  10  12
ATOM     12  C   UNL     1      81.522  86.776  88.476  1.00  0.00     0.080 C 
BRANCH  12  13
ATOM     13  C   UNL     1      80.731  88.040  88.136  1.00  0.00     0.043 C 
BRANCH  13  14
ATOM     14  C   UNL     1      81.597  89.275  88.053  1.00  0.00    -0.044 A 
ATOM     15  C   UNL     1      82.916  89.174  87.610  1.00  0.00     0.054 A 
ATOM     16  C   UNL     1      81.077  90.517  88.419  1.00  0.00     0.008 A 
ATOM     17  C   UNL     1      83.714  90.315  87.533  1.00  0.00     0.160 A 
ATOM     18  C   UNL     1      81.875  91.658  88.342  1.00  0.00     0.050 A 
ATOM     19  C   UNL     1      83.194  91.557  87.899  1.00  0.00     0.157 A 
BRANCH  17  20
ATOM     20  O   UNL     1      85.001  90.204  87.100  1.00  0.00    -0.493 OA
ATOM     21  C   UNL     1      85.198  89.970  85.706  1.00  0.00     0.278 C 
ENDBRANCH  17  20
BRANCH  19  22
ATOM     22  O   UNL     1      83.964  92.678  87.828  1.00  0.00    -0.504 OA
ATOM     23  H   UNL     1      83.594  93.355  88.420  1.00  0.00     0.293 HD
ENDBRANCH  19  22
ENDBRANCH  13  14
ENDBRANCH  12  13
ENDBRANCH  10  12
ENDBRANCH   1  10
TORSDOF 12
ENDMDL
MODEL 5
REMARK VINA RESULT:    -5.854      1.529      4.000
REMARK INTER + INTRA:         -11.585
REMARK INTER:                 -10.590
REMARK INTRA:                  -0.996
REMARK UNBOUND:                -1.968
REMARK SMILES CCCCC[C@H](O)CC(=O)CCc1ccc(O)c(OC)c1
REMARK SMILES IDX 8 1 6 2 7 3 5 5 4 6 3 7 2 8 1 9 9 10 10 11 11 12 12 13 13 14
REMARK SMILES IDX 21 15 14 16 18 17 15 18 16 19 19 20 20 21 17 22
REMARK H PARENT 7 4 17 23
REMARK Flexibility Score: inf
ROOT
ATOM      1  C   UNL     1      90.156  93.638  74.850  1.00  0.00     0.107 C 
ENDROOT
BRANCH   1   2
ATOM      2  C   UNL     1      89.876  92.913  73.531  1.00  0.00     0.121 C 
BRANCH   2   3
ATOM      3  O   UNL     1      89.572  93.864  72.513  1.00  0.00    -0.393 OA
ATOM      4  H   UNL     1      88.657  93.706  72.223  1.00  0.00     0.210 HD
ENDBRANCH   2   3
BRANCH   2   5
ATOM      5  C   UNL     1      91.045  92.035  73.069  1.00  0.00     0.032 C 
BRANCH   5   6
ATOM      6  C   UNL     1      90.675  90.546  73.052  1.00  0.00     0.003 C 
BRANCH   6   7
ATOM      7  C   UNL     1      89.181  90.290  73.275  1.00  0.00    -0.000 C 
BRANCH   7   8
ATOM      8  C   UNL     1      88.324  90.547  72.038  1.00  0.00    -0.003 C 
ATOM      9  C   UNL     1      86.909  90.956  72.418  1.00  0.00     0.004 C 
ENDBRANCH   7   8
ENDBRANCH   6   7
ENDBRANCH   5   6
ENDBRANCH   2   5
ENDBRANCH   1   2
BRANCH   1  10
ATOM     10  C   UNL     1      91.628  93.638  75.229  1.00  0.00     0.135 C 
ATOM     11  O   UNL     1      92.448  94.289  74.582  1.00  0.00    -0.300 OA
BRANCH  10  12
ATOM     12  C   UNL     1      92.015  92.835  76.462  1.00  0.00     0.080 C 
BRANCH  12  13
ATOM     13  C   UNL     1      90.878  92.672  77.472  1.00  0.00     0.043 C 
BRANCH  13  14
ATOM     14  C   UNL     1      90.493  91.230  77.702  1.00  0.00    -0.044 A 
ATOM     15  C   UNL     1      90.398  90.352  76.622  1.00  0.00     0.054 A 
ATOM     16  C   UNL     1      90.231  90.777  78.995  1.00  0.00     0.008 A 
ATOM     17  C   UNL     1      90.043  89.020  76.836  1.00  0.00     0.160 A 
ATOM     18  C   UNL     1      89.876  89.445  79.209  1.00  0.00     0.050 A 
ATOM     19  C   UNL     1      89.781  88.567  78.130  1.00  0.00     0.157 A 
BRANCH  17  20
ATOM     20  O   UNL     1      89.953  88.172  75.774  1.00  0.00    -0.493 OA
ATOM     21  C   UNL     1      91.172  87.616  75.284  1.00  0.00     0.278 C 
ENDBRANCH  17  20
BRANCH  19  22
ATOM     22  O   UNL     1      89.434  87.269  78.351  1.00  0.00    -0.504 OA
ATOM     23  H   UNL     1      89.513  87.077  79.301  1.00  0.00     0.293 HD
ENDBRANCH  19  22
ENDBRANCH  13  14
ENDBRANCH  12  13
ENDBRANCH  10  12
ENDBRANCH   1  10
TORSDOF 12
ENDMDL
MODEL 6
REMARK VINA RESULT:    -5.616      3.916      6.020
REMARK INTER + INTRA:         -11.196
REMARK INTER:                 -10.329
REMARK INTRA:                  -0.867
REMARK UNBOUND:                -1.968
REMARK SMILES CCCCC[C@H](O)CC(=O)CCc1ccc(O)c(OC)c1
REMARK SMILES IDX 8 1 6 2 7 3 5 5 4 6 3 7 2 8 1 9 9 10 10 11 11 12 12 13 13 14
REMARK SMILES IDX 21 15 14 16 18 17 15 18 16 19 19 20 20 21 17 22
REMARK H PARENT 7 4 17 23
REMARK Flexibility Score: inf
ROOT
ATOM      1  C   UNL     1      89.695  92.629  73.391  1.00  0.00     0.107 C 
ENDROOT
BRANCH   1   2
ATOM      2  C   UNL     1      89.339  91.775  72.172  1.00  0.00     0.121 C 
BRANCH   2   3
ATOM      3  O   UNL     1      90.346  91.917  71.172  1.00  0.00    -0.393 OA
ATOM      4  H   UNL     1      91.020  92.531  71.514  1.00  0.00     0.210 HD
ENDBRANCH   2   3
BRANCH   2   5
ATOM      5  C   UNL     1      89.169  90.289  72.508  1.00  0.00     0.032 C 
BRANCH   5   6
ATOM      6  C   UNL     1      88.436  90.079  73.839  1.00  0.00     0.003 C 
BRANCH   6   7
ATOM      7  C   UNL     1      89.211  89.200  74.826  1.00  0.00    -0.000 C 
BRANCH   7   8
ATOM      8  C   UNL     1      90.489  88.602  74.241  1.00  0.00    -0.003 C 
ATOM      9  C   UNL     1      90.854  87.295  74.927  1.00  0.00     0.004 C 
ENDBRANCH   7   8
ENDBRANCH   6   7
ENDBRANCH   5   6
ENDBRANCH   2   5
ENDBRANCH   1   2
BRANCH   1  10
ATOM     10  C   UNL     1      91.162  92.537  73.776  1.00  0.00     0.135 C 
ATOM     11  O   UNL     1      91.865  91.610  73.373  1.00  0.00    -0.300 OA
BRANCH  10  12
ATOM     12  C   UNL     1      91.714  93.664  74.635  1.00  0.00     0.080 C 
BRANCH  12  13
ATOM     13  C   UNL     1      92.239  93.199  75.995  1.00  0.00     0.043 C 
BRANCH  13  14
ATOM     14  C   UNL     1      93.609  93.745  76.319  1.00  0.00    -0.044 A 
ATOM     15  C   UNL     1      93.903  94.173  77.614  1.00  0.00     0.054 A 
ATOM     16  C   UNL     1      94.582  93.822  75.322  1.00  0.00     0.008 A 
ATOM     17  C   UNL     1      95.169  94.676  77.911  1.00  0.00     0.160 A 
ATOM     18  C   UNL     1      95.849  94.326  75.619  1.00  0.00     0.050 A 
ATOM     19  C   UNL     1      96.142  94.753  76.914  1.00  0.00     0.157 A 
BRANCH  17  20
ATOM     20  O   UNL     1      95.444  95.091  79.180  1.00  0.00    -0.493 OA
ATOM     21  C   UNL     1      95.666  94.078  80.159  1.00  0.00     0.278 C 
ENDBRANCH  17  20
BRANCH  19  22
ATOM     22  O   UNL     1      97.382  95.242  77.193  1.00  0.00    -0.504 OA
ATOM     23  H   UNL     1      97.935  95.177  76.396  1.00  0.00     0.293 HD
ENDBRANCH  19  22
ENDBRANCH  13  14
ENDBRANCH  12  13
ENDBRANCH  10  12
ENDBRANCH   1  10
TORSDOF 12
ENDMDL
MODEL 7
REMARK VINA RESULT:    -5.528      4.531      6.714
REMARK INTER + INTRA:         -11.051
REMARK INTER:                 -10.121
REMARK INTRA:                  -0.930
REMARK UNBOUND:                -1.968
REMARK SMILES CCCCC[C@H](O)CC(=O)CCc1ccc(O)c(OC)c1
REMARK SMILES IDX 8 1 6 2 7 3 5 5 4 6 3 7 2 8 1 9 9 10 10 11 11 12 12 13 13 14
REMARK SMILES IDX 21 15 14 16 18 17 15 18 16 19 19 20 20 21 17 22
REMARK H PARENT 7 4 17 23
REMARK Flexibility Score: inf
ROOT
ATOM      1  C   UNL     1      95.924  94.909  75.295  1.00  0.00     0.107 C 
ENDROOT
BRANCH   1   2
ATOM      2  C   UNL     1      95.858  93.929  76.469  1.00  0.00     0.121 C 
BRANCH   2   3
ATOM      3  O   UNL     1      96.849  92.917  76.310  1.00  0.00    -0.393 OA
ATOM      4  H   UNL     1      97.713  93.357  76.228  1.00  0.00     0.210 HD
ENDBRANCH   2   3
BRANCH   2   5
ATOM      5  C   UNL     1      96.046  94.610  77.830  1.00  0.00     0.032 C 
BRANCH   5   6
ATOM      6  C   UNL     1      94.845  94.385  78.758  1.00  0.00     0.003 C 
BRANCH   6   7
ATOM      7  C   UNL     1      95.234  94.266  80.235  1.00  0.00    -0.000 C 
BRANCH   7   8
ATOM      8  C   UNL     1      95.867  95.534  80.806  1.00  0.00    -0.003 C 
ATOM      9  C   UNL     1      97.180  95.230  81.510  1.00  0.00     0.004 C 
ENDBRANCH   7   8
ENDBRANCH   6   7
ENDBRANCH   5   6
ENDBRANCH   2   5
ENDBRANCH   1   2
BRANCH   1  10
ATOM     10  C   UNL     1      94.582  95.548  74.976  1.00  0.00     0.135 C 
ATOM     11  O   UNL     1      94.487  96.760  74.785  1.00  0.00    -0.300 OA
BRANCH  10  12
ATOM     12  C   UNL     1      93.390  94.609  74.862  1.00  0.00     0.080 C 
BRANCH  12  13
ATOM     13  C   UNL     1      92.382  94.754  76.004  1.00  0.00     0.043 C 
BRANCH  13  14
ATOM     14  C   UNL     1      91.322  93.678  75.998  1.00  0.00    -0.044 A 
ATOM     15  C   UNL     1      90.957  93.065  74.799  1.00  0.00     0.054 A 
ATOM     16  C   UNL     1      90.708  93.298  77.192  1.00  0.00     0.008 A 
ATOM     17  C   UNL     1      89.979  92.070  74.795  1.00  0.00     0.160 A 
ATOM     18  C   UNL     1      89.730  92.304  77.188  1.00  0.00     0.050 A 
ATOM     19  C   UNL     1      89.365  91.690  75.989  1.00  0.00     0.157 A 
BRANCH  17  20
ATOM     20  O   UNL     1      89.630  91.478  73.619  1.00  0.00    -0.493 OA
ATOM     21  C   UNL     1      88.937  92.285  72.668  1.00  0.00     0.278 C 
ENDBRANCH  17  20
BRANCH  19  22
ATOM     22  O   UNL     1      88.409  90.721  75.998  1.00  0.00    -0.504 OA
ATOM     23  H   UNL     1      88.046  90.625  75.100  1.00  0.00     0.293 HD
ENDBRANCH  19  22
ENDBRANCH  13  14
ENDBRANCH  12  13
ENDBRANCH  10  12
ENDBRANCH   1  10
TORSDOF 12
ENDMDL
MODEL 8
REMARK VINA RESULT:    -5.358     11.933     14.799
REMARK INTER + INTRA:         -10.772
REMARK INTER:                  -8.722
REMARK INTRA:                  -2.050
REMARK UNBOUND:                -1.968
REMARK SMILES CCCCC[C@H](O)CC(=O)CCc1ccc(O)c(OC)c1
REMARK SMILES IDX 8 1 6 2 7 3 5 5 4 6 3 7 2 8 1 9 9 10 10 11 11 12 12 13 13 14
REMARK SMILES IDX 21 15 14 16 18 17 15 18 16 19 19 20 20 21 17 22
REMARK H PARENT 7 4 17 23
REMARK Flexibility Score: inf
ROOT
ATOM      1  C   UNL     1      80.796  86.343  85.295  1.00  0.00     0.107 C 
ENDROOT
BRANCH   1   2
ATOM      2  C   UNL     1      81.236  87.242  84.137  1.00  0.00     0.121 C 
BRANCH   2   3
ATOM      3  O   UNL     1      81.132  86.530  82.906  1.00  0.00    -0.393 OA
ATOM      4  H   UNL     1      80.766  85.650  83.101  1.00  0.00     0.210 HD
ENDBRANCH   2   3
BRANCH   2   5
ATOM      5  C   UNL     1      80.424  88.538  84.040  1.00  0.00     0.032 C 
BRANCH   5   6
ATOM      6  C   UNL     1      81.262  89.772  84.399  1.00  0.00     0.003 C 
BRANCH   6   7
ATOM      7  C   UNL     1      82.632  89.424  84.989  1.00  0.00    -0.000 C 
BRANCH   7   8
ATOM      8  C   UNL     1      83.734  90.408  84.602  1.00  0.00    -0.003 C 
ATOM      9  C   UNL     1      84.310  91.105  85.825  1.00  0.00     0.004 C 
ENDBRANCH   7   8
ENDBRANCH   6   7
ENDBRANCH   5   6
ENDBRANCH   2   5
ENDBRANCH   1   2
BRANCH   1  10
ATOM     10  C   UNL     1      81.952  85.894  86.174  1.00  0.00     0.135 C 
ATOM     11  O   UNL     1      82.982  85.436  85.679  1.00  0.00    -0.300 OA
BRANCH  10  12
ATOM     12  C   UNL     1      81.782  86.085  87.673  1.00  0.00     0.080 C 
BRANCH  12  13
ATOM     13  C   UNL     1      80.607  86.988  88.049  1.00  0.00     0.043 C 
BRANCH  13  14
ATOM     14  C   UNL     1      81.003  88.436  88.216  1.00  0.00    -0.044 A 
ATOM     15  C   UNL     1      82.216  88.763  88.821  1.00  0.00     0.054 A 
ATOM     16  C   UNL     1      80.154  89.447  87.764  1.00  0.00     0.008 A 
ATOM     17  C   UNL     1      82.581  90.101  88.973  1.00  0.00     0.160 A 
ATOM     18  C   UNL     1      80.518  90.785  87.917  1.00  0.00     0.050 A 
ATOM     19  C   UNL     1      81.732  91.111  88.521  1.00  0.00     0.157 A 
BRANCH  17  20
ATOM     20  O   UNL     1      83.769  90.407  89.566  1.00  0.00    -0.493 OA
ATOM     21  C   UNL     1      83.846  90.251  90.981  1.00  0.00     0.278 C 
ENDBRANCH  17  20
BRANCH  19  22
ATOM     22  O   UNL     1      82.078  92.421  88.665  1.00  0.00    -0.504 OA
ATOM     23  H   UNL     1      82.892  92.591  88.161  1.00  0.00     0.293 HD
ENDBRANCH  19  22
ENDBRANCH  13  14
ENDBRANCH  12  13
ENDBRANCH  10  12
ENDBRANCH   1  10
TORSDOF 12
ENDMDL
MODEL 9
REMARK VINA RESULT:    -5.221     11.419     14.681
REMARK INTER + INTRA:         -10.546
REMARK INTER:                  -8.749
REMARK INTRA:                  -1.797
REMARK UNBOUND:                -1.968
REMARK SMILES CCCCC[C@H](O)CC(=O)CCc1ccc(O)c(OC)c1
REMARK SMILES IDX 8 1 6 2 7 3 5 5 4 6 3 7 2 8 1 9 9 10 10 11 11 12 12 13 13 14
REMARK SMILES IDX 21 15 14 16 18 17 15 18 16 19 19 20 20 21 17 22
REMARK H PARENT 7 4 17 23
REMARK Flexibility Score: inf
ROOT
ATOM      1  C   UNL     1      82.967  90.098  84.572  1.00  0.00     0.107 C 
ENDROOT
BRANCH   1   2
ATOM      2  C   UNL     1      82.755  88.630  84.951  1.00  0.00     0.121 C 
BRANCH   2   3
ATOM      3  O   UNL     1      83.986  88.061  85.390  1.00  0.00    -0.393 OA
ATOM      4  H   UNL     1      84.668  88.754  85.342  1.00  0.00     0.210 HD
ENDBRANCH   2   3
BRANCH   2   5
ATOM      5  C   UNL     1      81.693  88.438  86.041  1.00  0.00     0.032 C 
BRANCH   5   6
ATOM      6  C   UNL     1      80.382  89.156  85.700  1.00  0.00     0.003 C 
BRANCH   6   7
ATOM      7  C   UNL     1      79.818  88.771  84.328  1.00  0.00    -0.000 C 
BRANCH   7   8
ATOM      8  C   UNL     1      79.701  87.263  84.116  1.00  0.00    -0.003 C 
ATOM      9  C   UNL     1      80.186  86.859  82.732  1.00  0.00     0.004 C 
ENDBRANCH   7   8
ENDBRANCH   6   7
ENDBRANCH   5   6
ENDBRANCH   2   5
ENDBRANCH   1   2
BRANCH   1  10
ATOM     10  C   UNL     1      84.395  90.569  84.794  1.00  0.00     0.135 C 
ATOM     11  O   UNL     1      85.326  90.099  84.140  1.00  0.00    -0.300 OA
BRANCH  10  12
ATOM     12  C   UNL     1      84.597  91.672  85.822  1.00  0.00     0.080 C 
BRANCH  12  13
ATOM     13  C   UNL     1      84.890  91.153  87.231  1.00  0.00     0.043 C 
BRANCH  13  14
ATOM     14  C   UNL     1      83.640  90.894  88.039  1.00  0.00    -0.044 A 
ATOM     15  C   UNL     1      83.567  89.780  88.874  1.00  0.00     0.054 A 
ATOM     16  C   UNL     1      82.559  91.771  87.949  1.00  0.00     0.008 A 
ATOM     17  C   UNL     1      82.413  89.542  89.620  1.00  0.00     0.160 A 
ATOM     18  C   UNL     1      81.404  91.534  88.695  1.00  0.00     0.050 A 
ATOM     19  C   UNL     1      81.331  90.419  89.530  1.00  0.00     0.157 A 
BRANCH  17  20
ATOM     20  O   UNL     1      82.353  88.450  90.432  1.00  0.00    -0.493 OA
ATOM     21  C   UNL     1      83.199  88.448  91.580  1.00  0.00     0.278 C 
ENDBRANCH  17  20
BRANCH  19  22
ATOM     22  O   UNL     1      80.199  90.198  90.254  1.00  0.00    -0.504 OA
ATOM     23  H   UNL     1      79.599  89.632  89.738  1.00  0.00     0.293 HD
ENDBRANCH  19  22
ENDBRANCH  13  14
ENDBRANCH  12  13
ENDBRANCH  10  12
ENDBRANCH   1  10
TORSDOF 12
ENDMDL
MODEL 10
REMARK VINA RESULT:    -5.112     11.491     14.822
REMARK INTER + INTRA:         -10.366
REMARK INTER:                  -9.127
REMARK INTRA:                  -1.239
REMARK UNBOUND:                -1.968
REMARK SMILES CCCCC[C@H](O)CC(=O)CCc1ccc(O)c(OC)c1
REMARK SMILES IDX 8 1 6 2 7 3 5 5 4 6 3 7 2 8 1 9 9 10 10 11 11 12 12 13 13 14
REMARK SMILES IDX 21 15 14 16 18 17 15 18 16 19 19 20 20 21 17 22
REMARK H PARENT 7 4 17 23
REMARK Flexibility Score: inf
ROOT
ATOM      1  C   UNL     1      83.194  90.474  84.429  1.00  0.00     0.107 C 
ENDROOT
BRANCH   1   2
ATOM      2  C   UNL     1      82.632  89.109  84.836  1.00  0.00     0.121 C 
BRANCH   2   3
ATOM      3  O   UNL     1      83.703  88.201  85.083  1.00  0.00    -0.393 OA
ATOM      4  H   UNL     1      83.317  87.318  85.223  1.00  0.00     0.210 HD
ENDBRANCH   2   3
BRANCH   2   5
ATOM      5  C   UNL     1      81.731  89.176  86.075  1.00  0.00     0.032 C 
BRANCH   5   6
ATOM      6  C   UNL     1      80.292  89.571  85.720  1.00  0.00     0.003 C 
BRANCH   6   7
ATOM      7  C   UNL     1      79.812  88.982  84.390  1.00  0.00    -0.000 C 
BRANCH   7   8
ATOM      8  C   UNL     1      79.781  87.455  84.372  1.00  0.00    -0.003 C 
ATOM      9  C   UNL     1      80.173  86.908  83.008  1.00  0.00     0.004 C 
ENDBRANCH   7   8
ENDBRANCH   6   7
ENDBRANCH   5   6
ENDBRANCH   2   5
ENDBRANCH   1   2
BRANCH   1  10
ATOM     10  C   UNL     1      84.590  90.730  84.973  1.00  0.00     0.135 C 
ATOM     11  O   UNL     1      85.575  90.199  84.460  1.00  0.00    -0.300 OA
BRANCH  10  12
ATOM     12  C   UNL     1      84.701  91.700  86.139  1.00  0.00     0.080 C 
BRANCH  12  13
ATOM     13  C   UNL     1      84.141  91.151  87.452  1.00  0.00     0.043 C 
BRANCH  13  14
ATOM     14  C   UNL     1      83.191  92.105  88.135  1.00  0.00    -0.044 A 
ATOM     15  C   UNL     1      83.362  93.482  87.993  1.00  0.00     0.054 A 
ATOM     16  C   UNL     1      82.142  91.608  88.909  1.00  0.00     0.008 A 
ATOM     17  C   UNL     1      82.483  94.362  88.624  1.00  0.00     0.160 A 
ATOM     18  C   UNL     1      81.263  92.489  89.541  1.00  0.00     0.050 A 
ATOM     19  C   UNL     1      81.434  93.866  89.398  1.00  0.00     0.157 A 
BRANCH  17  20
ATOM     20  O   UNL     1      82.661  95.705  88.479  1.00  0.00    -0.493 OA
ATOM     21  C   UNL     1      82.289  96.275  87.225  1.00  0.00     0.278 C 
ENDBRANCH  17  20
BRANCH  19  22
ATOM     22  O   UNL     1      80.570  94.715  90.020  1.00  0.00    -0.504 OA
ATOM     23  H   UNL     1      80.865  95.630  89.874  1.00  0.00     0.293 HD
ENDBRANCH  19  22
ENDBRANCH  13  14
ENDBRANCH  12  13
ENDBRANCH  10  12
ENDBRANCH   1  10
TORSDOF 12
ENDMDL
