MODEL 1
REMARK VINA RESULT:    -6.521      0.000      0.000
REMARK INTER + INTRA:         -12.500
REMARK INTER:                 -11.477
REMARK INTRA:                  -1.024
REMARK UNBOUND:                -1.024
REMARK SMILES C=C(C)[C@]12C[C@@H](C)[C@@]34O[C@](Cc5ccccc5)(O[C@@H]1[C@@H]3C=C(COC(=O)Cc1ccc(O)c(OC)c1)C[C@]1(O)C(=O)C(C)=C[C@@H]41)O2
REMARK SMILES IDX 23 1 22 2 21 3 20 4 9 5 8 6 10 7 6 8 18 9 46 10 19 11 5 12
REMARK SMILES IDX 7 13 4 14 45 15 38 16 44 17 40 18 42 20 41 21 43 22 39 23
REMARK SMILES IDX 11 25 12 26 13 27 17 28 14 29 16 30 15 31 2 32 3 33 1 34
REMARK SMILES IDX 37 35 24 37 25 38 26 39 27 40 28 41 36 42 29 43 33 44 30 45
REMARK SMILES IDX 31 46 34 47 35 48 32 49
REMARK H PARENT 39 24 32 50
REMARK Flexibility Score: 90.00
ROOT
ATOM      1  C   UNL     1      67.633  86.651  70.827  1.00  0.00     0.264 C 
ENDROOT
BRANCH   1   2
ATOM      2  C   UNL     1      66.693  85.555  71.270  1.00  0.00    -0.033 C 
ATOM      3  C   UNL     1      66.200  85.576  72.525  1.00  0.00    -0.015 C 
BRANCH   3   4
ATOM      4  C   UNL     1      65.311  84.564  73.230  1.00  0.00     0.078 C 
ATOM      5  O   UNL     1      62.974  85.297  72.887  1.00  0.00    -0.319 OA
ATOM      6  C   UNL     1      63.915  84.220  72.589  1.00  0.00     0.095 C 
ATOM      7  C   UNL     1      63.024  85.806  74.234  1.00  0.00     0.289 C 
ATOM      8  C   UNL     1      63.400  82.877  73.254  1.00  0.00     0.023 C 
ATOM      9  O   UNL     1      64.329  86.280  74.558  1.00  0.00    -0.320 OA
ATOM     10  O   UNL     1      62.728  84.803  75.202  1.00  0.00    -0.313 OA
ATOM     11  C   UNL     1      65.028  85.032  74.679  1.00  0.00     0.170 C 
ATOM     12  C   UNL     1      63.860  82.762  74.740  1.00  0.00     0.049 C 
ATOM     13  C   UNL     1      61.885  82.636  73.167  1.00  0.00     0.011 C 
ATOM     14  C   UNL     1      63.991  84.136  75.399  1.00  0.00     0.122 C 
BRANCH   6  15
ATOM     15  C   UNL     1      64.009  84.205  71.036  1.00  0.00     0.086 C 
ATOM     16  C   UNL     1      65.256  83.522  70.437  1.00  0.00     0.140 CG0
ATOM     17  C   UNL     1      62.876  83.626  70.236  1.00  0.00    -0.010 C 
ATOM     18  C   UNL     1      64.713  82.908  69.165  1.00  0.00     0.190 C 
ATOM     19  G   UNL     1      66.386  84.517  70.171  1.00  0.00     0.000 G0
ATOM     20  C   UNL     1      63.238  82.916  69.162  1.00  0.00    -0.008 C 
ATOM     21  O   UNL     1      65.386  82.419  68.270  1.00  0.00    -0.291 OA
ATOM     22  C   UNL     1      62.408  82.282  68.117  1.00  0.00     0.048 C 
BRANCH  16  23
ATOM     23  O   UNL     1      65.714  82.407  71.183  1.00  0.00    -0.381 OA
ATOM     24  H   UNL     1      66.388  82.713  71.812  1.00  0.00     0.212 HD
ENDBRANCH  16  23
ENDBRANCH   6  15
BRANCH   7  25
ATOM     25  C   UNL     1      62.023  86.937  74.353  1.00  0.00     0.135 C 
BRANCH  25  26
ATOM     26  C   UNL     1      60.968  86.874  73.277  1.00  0.00    -0.040 A 
ATOM     27  C   UNL     1      61.134  87.597  72.095  1.00  0.00     0.004 A 
ATOM     28  C   UNL     1      59.828  86.092  73.462  1.00  0.00     0.004 A 
ATOM     29  C   UNL     1      60.158  87.539  71.099  1.00  0.00     0.000 A 
ATOM     30  C   UNL     1      58.853  86.034  72.466  1.00  0.00     0.000 A 
ATOM     31  C   UNL     1      59.018  86.758  71.285  1.00  0.00     0.000 A 
ENDBRANCH  25  26
ENDBRANCH   7  25
BRANCH  14  32
ATOM     32  C   UNL     1      64.251  84.045  76.868  1.00  0.00    -0.046 C 
ATOM     33  C   UNL     1      63.063  84.233  77.764  1.00  0.00     0.042 C 
ATOM     34  C   UNL     1      65.478  83.810  77.358  1.00  0.00     0.010 C 
ENDBRANCH  14  32
ENDBRANCH   3   4
BRANCH   2  35
ATOM     35  C   UNL     1      66.415  84.534  70.183  1.00  0.00     0.078 CG0
ATOM     36  G   UNL     1      65.288  83.533  70.436  1.00  0.00     0.000 G0
ENDBRANCH   2  35
ENDBRANCH   1   2
BRANCH   1  37
ATOM     37  O   UNL     1      68.965  86.198  70.939  1.00  0.00    -0.461 OA
BRANCH  37  38
ATOM     38  C   UNL     1      69.691  86.147  69.772  1.00  0.00     0.310 C 
ATOM     39  O   UNL     1      69.526  86.883  68.809  1.00  0.00    -0.252 OA
BRANCH  38  40
ATOM     40  C   UNL     1      70.718  85.043  69.864  1.00  0.00     0.158 C 
BRANCH  40  41
ATOM     41  C   UNL     1      71.997  85.367  69.135  1.00  0.00    -0.033 A 
ATOM     42  C   UNL     1      72.902  86.276  69.684  1.00  0.00     0.054 A 
ATOM     43  C   UNL     1      72.275  84.759  67.911  1.00  0.00     0.008 A 
ATOM     44  C   UNL     1      74.085  86.576  69.009  1.00  0.00     0.160 A 
ATOM     45  C   UNL     1      73.459  85.059  67.236  1.00  0.00     0.050 A 
ATOM     46  C   UNL     1      74.363  85.967  67.785  1.00  0.00     0.157 A 
BRANCH  44  47
ATOM     47  O   UNL     1      74.960  87.465  69.555  1.00  0.00    -0.493 OA
ATOM     48  C   UNL     1      74.607  88.032  70.816  1.00  0.00     0.278 C 
ENDBRANCH  44  47
BRANCH  46  49
ATOM     49  O   UNL     1      75.516  86.252  67.117  1.00  0.00    -0.504 OA
ATOM     50  H   UNL     1      75.520  85.771  66.273  1.00  0.00     0.293 HD
ENDBRANCH  46  49
ENDBRANCH  40  41
ENDBRANCH  38  40
ENDBRANCH  37  38
ENDBRANCH   1  37
TORSDOF 11
ENDMDL
MODEL 2
REMARK VINA RESULT:    -6.013     32.906     36.512
REMARK INTER + INTRA:         -11.607
REMARK INTER:                 -10.639
REMARK INTRA:                  -0.968
REMARK UNBOUND:                -1.024
REMARK SMILES C=C(C)[C@]12C[C@@H](C)[C@@]34O[C@](Cc5ccccc5)(O[C@@H]1[C@@H]3C=C(COC(=O)Cc1ccc(O)c(OC)c1)C[C@]1(O)C(=O)C(C)=C[C@@H]41)O2
REMARK SMILES IDX 23 1 22 2 21 3 20 4 9 5 8 6 10 7 6 8 18 9 46 10 19 11 5 12
REMARK SMILES IDX 7 13 4 14 45 15 38 16 44 17 40 18 42 20 41 21 43 22 39 23
REMARK SMILES IDX 11 25 12 26 13 27 17 28 14 29 16 30 15 31 2 32 3 33 1 34
REMARK SMILES IDX 37 35 24 37 25 38 26 39 27 40 28 41 36 42 29 43 33 44 30 45
REMARK SMILES IDX 31 46 34 47 35 48 32 49
REMARK H PARENT 39 24 32 50
REMARK Flexibility Score: 90.00
ROOT
ATOM      1  C   UNL     1     100.450  78.574  82.947  1.00  0.00     0.264 C 
ENDROOT
BRANCH   1   2
ATOM      2  C   UNL     1     100.071  78.582  81.485  1.00  0.00    -0.033 C 
ATOM      3  C   UNL     1      99.908  79.762  80.853  1.00  0.00    -0.015 C 
BRANCH   3   4
ATOM      4  C   UNL     1      99.459  80.039  79.427  1.00  0.00     0.078 C 
ATOM      5  O   UNL     1     101.506  80.210  78.048  1.00  0.00    -0.319 OA
ATOM      6  C   UNL     1     100.294  79.418  78.245  1.00  0.00     0.095 C 
ATOM      7  C   UNL     1     101.326  81.637  78.108  1.00  0.00     0.289 C 
ATOM      8  C   UNL     1      99.402  79.491  76.938  1.00  0.00     0.023 C 
ATOM      9  O   UNL     1     100.758  82.035  79.354  1.00  0.00    -0.320 OA
ATOM     10  O   UNL     1     100.429  82.113  77.107  1.00  0.00    -0.313 OA
ATOM     11  C   UNL     1      99.411  81.566  79.177  1.00  0.00     0.170 C 
ATOM     12  C   UNL     1      98.484  80.752  76.941  1.00  0.00     0.049 C 
ATOM     13  C   UNL     1     100.172  79.422  75.609  1.00  0.00     0.011 C 
ATOM     14  C   UNL     1      99.127  81.917  77.696  1.00  0.00     0.122 C 
BRANCH   6  15
ATOM     15  C   UNL     1     100.813  78.000  78.622  1.00  0.00     0.086 C 
ATOM     16  C   UNL     1      99.810  77.078  79.346  1.00  0.00     0.140 CG0
ATOM     17  C   UNL     1     101.388  77.117  77.550  1.00  0.00    -0.010 C 
ATOM     18  C   UNL     1     100.184  75.710  78.817  1.00  0.00     0.190 C 
ATOM     19  G   UNL     1      99.934  77.172  80.866  1.00  0.00     0.000 G0
ATOM     20  C   UNL     1     101.076  75.821  77.648  1.00  0.00    -0.008 C 
ATOM     21  O   UNL     1      99.773  74.645  79.254  1.00  0.00    -0.291 OA
ATOM     22  C   UNL     1     101.521  74.671  76.834  1.00  0.00     0.048 C 
BRANCH  16  23
ATOM     23  O   UNL     1      98.467  77.249  78.925  1.00  0.00    -0.381 OA
ATOM     24  H   UNL     1      97.881  76.928  79.630  1.00  0.00     0.212 HD
ENDBRANCH  16  23
ENDBRANCH   6  15
BRANCH   7  25
ATOM     25  C   UNL     1     102.679  82.295  77.930  1.00  0.00     0.135 C 
BRANCH  25  26
ATOM     26  C   UNL     1     103.728  81.682  78.824  1.00  0.00    -0.040 A 
ATOM     27  C   UNL     1     103.413  81.351  80.142  1.00  0.00     0.004 A 
ATOM     28  C   UNL     1     105.011  81.445  78.333  1.00  0.00     0.004 A 
ATOM     29  C   UNL     1     104.383  80.784  80.969  1.00  0.00     0.000 A 
ATOM     30  C   UNL     1     105.981  80.878  79.160  1.00  0.00     0.000 A 
ATOM     31  C   UNL     1     105.666  80.548  80.478  1.00  0.00     0.000 A 
ENDBRANCH  25  26
ENDBRANCH   7  25
BRANCH  14  32
ATOM     32  C   UNL     1      98.353  83.187  77.558  1.00  0.00    -0.046 C 
ATOM     33  C   UNL     1      97.538  83.598  78.748  1.00  0.00     0.042 C 
ATOM     34  C   UNL     1      98.384  83.918  76.434  1.00  0.00     0.010 C 
ENDBRANCH  14  32
ENDBRANCH   3   4
BRANCH   2  35
ATOM     35  C   UNL     1      99.926  77.190  80.900  1.00  0.00     0.078 CG0
ATOM     36  G   UNL     1      99.813  77.079  79.380  1.00  0.00     0.000 G0
ENDBRANCH   2  35
ENDBRANCH   1   2
BRANCH   1  37
ATOM     37  O   UNL     1     101.207  79.729  83.240  1.00  0.00    -0.461 OA
BRANCH  37  38
ATOM     38  C   UNL     1     100.686  80.571  84.195  1.00  0.00     0.310 C 
ATOM     39  O   UNL     1     101.294  81.489  84.729  1.00  0.00    -0.252 OA
BRANCH  38  40
ATOM     40  C   UNL     1      99.253  80.187  84.479  1.00  0.00     0.158 C 
BRANCH  40  41
ATOM     41  C   UNL     1      98.345  81.380  84.634  1.00  0.00    -0.033 A 
ATOM     42  C   UNL     1      97.393  81.404  85.654  1.00  0.00     0.054 A 
ATOM     43  C   UNL     1      98.455  82.459  83.757  1.00  0.00     0.008 A 
ATOM     44  C   UNL     1      96.552  82.508  85.797  1.00  0.00     0.160 A 
ATOM     45  C   UNL     1      97.614  83.563  83.900  1.00  0.00     0.050 A 
ATOM     46  C   UNL     1      96.663  83.587  84.919  1.00  0.00     0.157 A 
BRANCH  44  47
ATOM     47  O   UNL     1      95.627  82.520  86.797  1.00  0.00    -0.493 OA
ATOM     48  C   UNL     1      94.931  81.301  87.050  1.00  0.00     0.278 C 
ENDBRANCH  44  47
BRANCH  46  49
ATOM     49  O   UNL     1      95.848  84.671  85.050  1.00  0.00    -0.504 OA
ATOM     50  H   UNL     1      96.145  85.201  85.809  1.00  0.00     0.293 HD
ENDBRANCH  46  49
ENDBRANCH  40  41
ENDBRANCH  38  40
ENDBRANCH  37  38
ENDBRANCH   1  37
TORSDOF 11
ENDMDL
MODEL 3
REMARK VINA RESULT:    -5.987     27.430     30.877
REMARK INTER + INTRA:         -11.561
REMARK INTER:                  -9.944
REMARK INTRA:                  -1.616
REMARK UNBOUND:                -1.024
REMARK SMILES C=C(C)[C@]12C[C@@H](C)[C@@]34O[C@](Cc5ccccc5)(O[C@@H]1[C@@H]3C=C(COC(=O)Cc1ccc(O)c(OC)c1)C[C@]1(O)C(=O)C(C)=C[C@@H]41)O2
REMARK SMILES IDX 23 1 22 2 21 3 20 4 9 5 8 6 10 7 6 8 18 9 46 10 19 11 5 12
REMARK SMILES IDX 7 13 4 14 45 15 38 16 44 17 40 18 42 20 41 21 43 22 39 23
REMARK SMILES IDX 11 25 12 26 13 27 17 28 14 29 16 30 15 31 2 32 3 33 1 34
REMARK SMILES IDX 37 35 24 37 25 38 26 39 27 40 28 41 36 42 29 43 33 44 30 45
REMARK SMILES IDX 31 46 34 47 35 48 32 49
REMARK H PARENT 39 24 32 50
REMARK Flexibility Score: 90.00
ROOT
ATOM      1  C   UNL     1      89.050 107.101  72.066  1.00  0.00     0.264 C 
ENDROOT
BRANCH   1   2
ATOM      2  C   UNL     1      89.693 106.266  70.984  1.00  0.00    -0.033 C 
ATOM      3  C   UNL     1      90.260 105.087  71.311  1.00  0.00    -0.015 C 
BRANCH   3   4
ATOM      4  C   UNL     1      91.028 104.110  70.436  1.00  0.00     0.078 C 
ATOM      5  O   UNL     1      89.387 102.472  69.572  1.00  0.00    -0.319 OA
ATOM      6  C   UNL     1      90.313 103.525  69.161  1.00  0.00     0.095 C 
ATOM      7  C   UNL     1      89.888 101.568  70.576  1.00  0.00     0.289 C 
ATOM      8  C   UNL     1      91.432 102.902  68.227  1.00  0.00     0.023 C 
ATOM      9  O   UNL     1      90.283 102.269  71.752  1.00  0.00    -0.320 OA
ATOM     10  O   UNL     1      91.047 100.864  70.139  1.00  0.00    -0.313 OA
ATOM     11  C   UNL     1      91.486 102.895  71.280  1.00  0.00     0.170 C 
ATOM     12  C   UNL     1      92.605 102.304  69.062  1.00  0.00     0.049 C 
ATOM     13  C   UNL     1      90.939 101.855  67.215  1.00  0.00     0.011 C 
ATOM     14  C   UNL     1      92.127 101.780  70.416  1.00  0.00     0.122 C 
BRANCH   6  15
ATOM     15  C   UNL     1      89.407 104.600  68.494  1.00  0.00     0.086 C 
ATOM     16  C   UNL     1      90.003 106.019  68.387  1.00  0.00     0.140 CG0
ATOM     17  C   UNL     1      88.855 104.348  67.119  1.00  0.00    -0.010 C 
ATOM     18  C   UNL     1      89.421 106.519  67.081  1.00  0.00     0.190 C 
ATOM     19  G   UNL     1      89.616 106.899  69.575  1.00  0.00     0.000 G0
ATOM     20  C   UNL     1      88.824 105.412  66.310  1.00  0.00    -0.008 C 
ATOM     21  O   UNL     1      89.474 107.671  66.677  1.00  0.00    -0.291 OA
ATOM     22  C   UNL     1      88.281 105.553  64.944  1.00  0.00     0.048 C 
BRANCH  16  23
ATOM     23  O   UNL     1      91.403 106.038  68.163  1.00  0.00    -0.381 OA
ATOM     24  H   UNL     1      91.560 106.104  67.206  1.00  0.00     0.212 HD
ENDBRANCH  16  23
ENDBRANCH   6  15
BRANCH   7  25
ATOM     25  C   UNL     1      88.791 100.578  70.914  1.00  0.00     0.135 C 
BRANCH  25  26
ATOM     26  C   UNL     1      88.898  99.316  70.095  1.00  0.00    -0.040 A 
ATOM     27  C   UNL     1      89.448  98.164  70.658  1.00  0.00     0.004 A 
ATOM     28  C   UNL     1      88.446  99.299  68.776  1.00  0.00     0.004 A 
ATOM     29  C   UNL     1      89.546  96.996  69.901  1.00  0.00     0.000 A 
ATOM     30  C   UNL     1      88.544  98.132  68.019  1.00  0.00     0.000 A 
ATOM     31  C   UNL     1      89.094  96.980  68.582  1.00  0.00     0.000 A 
ENDBRANCH  25  26
ENDBRANCH   7  25
BRANCH  14  32
ATOM     32  C   UNL     1      93.193 101.040  71.156  1.00  0.00    -0.046 C 
ATOM     33  C   UNL     1      92.742 100.229  72.334  1.00  0.00     0.042 C 
ATOM     34  C   UNL     1      94.482 101.098  70.788  1.00  0.00     0.010 C 
ENDBRANCH  14  32
ENDBRANCH   3   4
BRANCH   2  35
ATOM     35  C   UNL     1      89.601 106.899  69.609  1.00  0.00     0.078 CG0
ATOM     36  G   UNL     1      89.990 106.032  68.412  1.00  0.00     0.000 G0
ENDBRANCH   2  35
ENDBRANCH   1   2
BRANCH   1  37
ATOM     37  O   UNL     1      87.670 107.227  71.800  1.00  0.00    -0.461 OA
BRANCH  37  38
ATOM     38  C   UNL     1      86.851 106.285  72.378  1.00  0.00     0.310 C 
ATOM     39  O   UNL     1      86.427 105.283  71.819  1.00  0.00    -0.252 OA
BRANCH  38  40
ATOM     40  C   UNL     1      86.557 106.681  73.806  1.00  0.00     0.158 C 
BRANCH  40  41
ATOM     41  C   UNL     1      86.959 105.625  74.804  1.00  0.00    -0.033 A 
ATOM     42  C   UNL     1      88.070 104.818  74.554  1.00  0.00     0.054 A 
ATOM     43  C   UNL     1      86.223 105.456  75.976  1.00  0.00     0.008 A 
ATOM     44  C   UNL     1      88.443 103.840  75.477  1.00  0.00     0.160 A 
ATOM     45  C   UNL     1      86.596 104.479  76.899  1.00  0.00     0.050 A 
ATOM     46  C   UNL     1      87.705 103.671  76.650  1.00  0.00     0.157 A 
BRANCH  44  47
ATOM     47  O   UNL     1      89.528 103.058  75.223  1.00  0.00    -0.493 OA
ATOM     48  C   UNL     1      90.812 103.661  75.375  1.00  0.00     0.278 C 
ENDBRANCH  44  47
BRANCH  46  49
ATOM     49  O   UNL     1      88.060 102.721  77.559  1.00  0.00    -0.504 OA
ATOM     50  H   UNL     1      88.604 102.047  77.117  1.00  0.00     0.293 HD
ENDBRANCH  46  49
ENDBRANCH  40  41
ENDBRANCH  38  40
ENDBRANCH  37  38
ENDBRANCH   1  37
TORSDOF 11
ENDMDL
MODEL 4
REMARK VINA RESULT:    -5.780     25.650     29.118
REMARK INTER + INTRA:         -11.197
REMARK INTER:                  -8.248
REMARK INTRA:                  -2.949
REMARK UNBOUND:                -1.024
REMARK SMILES C=C(C)[C@]12C[C@@H](C)[C@@]34O[C@](Cc5ccccc5)(O[C@@H]1[C@@H]3C=C(COC(=O)Cc1ccc(O)c(OC)c1)C[C@]1(O)C(=O)C(C)=C[C@@H]41)O2
REMARK SMILES IDX 23 1 22 2 21 3 20 4 9 5 8 6 10 7 6 8 18 9 46 10 19 11 5 12
REMARK SMILES IDX 7 13 4 14 45 15 38 16 44 17 40 18 42 20 41 21 43 22 39 23
REMARK SMILES IDX 11 25 12 26 13 27 17 28 14 29 16 30 15 31 2 32 3 33 1 34
REMARK SMILES IDX 37 35 24 37 25 38 26 39 27 40 28 41 36 42 29 43 33 44 30 45
REMARK SMILES IDX 31 46 34 47 35 48 32 49
REMARK H PARENT 39 24 32 50
REMARK Flexibility Score: 90.00
ROOT
ATOM      1  C   UNL     1      91.301  65.512  72.566  1.00  0.00     0.264 C 
ENDROOT
BRANCH   1   2
ATOM      2  C   UNL     1      90.115  66.256  71.997  1.00  0.00    -0.033 C 
ATOM      3  C   UNL     1      88.878  65.970  72.451  1.00  0.00    -0.015 C 
BRANCH   3   4
ATOM      4  C   UNL     1      87.534  66.512  71.994  1.00  0.00     0.078 C 
ATOM      5  O   UNL     1      87.030  68.477  73.411  1.00  0.00    -0.319 OA
ATOM      6  C   UNL     1      87.302  68.069  72.034  1.00  0.00     0.095 C 
ATOM      7  C   UNL     1      86.143  67.613  74.146  1.00  0.00     0.289 C 
ATOM      8  C   UNL     1      86.037  68.389  71.135  1.00  0.00     0.023 C 
ATOM      9  O   UNL     1      86.638  66.278  74.189  1.00  0.00    -0.320 OA
ATOM     10  O   UNL     1      84.853  67.526  73.545  1.00  0.00    -0.313 OA
ATOM     11  C   UNL     1      86.398  65.876  72.831  1.00  0.00     0.170 C 
ATOM     12  C   UNL     1      84.991  67.233  71.188  1.00  0.00     0.049 C 
ATOM     13  C   UNL     1      85.338  69.726  71.430  1.00  0.00     0.011 C 
ATOM     14  C   UNL     1      85.016  66.510  72.535  1.00  0.00     0.122 C 
BRANCH   6  15
ATOM     15  C   UNL     1      88.604  68.831  71.653  1.00  0.00     0.086 C 
ATOM     16  C   UNL     1      89.409  68.252  70.471  1.00  0.00     0.140 CG0
ATOM     17  C   UNL     1      88.533  70.300  71.341  1.00  0.00    -0.010 C 
ATOM     18  C   UNL     1      89.977  69.497  69.822  1.00  0.00     0.190 C 
ATOM     19  G   UNL     1      90.498  67.285  70.933  1.00  0.00     0.000 G0
ATOM     20  C   UNL     1      89.314  70.710  70.336  1.00  0.00    -0.008 C 
ATOM     21  O   UNL     1      90.833  69.514  68.951  1.00  0.00    -0.291 OA
ATOM     22  C   UNL     1      89.559  72.071  69.817  1.00  0.00     0.048 C 
BRANCH  16  23
ATOM     23  O   UNL     1      88.604  67.678  69.455  1.00  0.00    -0.381 OA
ATOM     24  H   UNL     1      88.895  66.762  69.313  1.00  0.00     0.212 HD
ENDBRANCH  16  23
ENDBRANCH   6  15
BRANCH   7  25
ATOM     25  C   UNL     1      86.010  68.156  75.554  1.00  0.00     0.135 C 
BRANCH  25  26
ATOM     26  C   UNL     1      87.331  68.168  76.282  1.00  0.00    -0.040 A 
ATOM     27  C   UNL     1      88.032  66.978  76.474  1.00  0.00     0.004 A 
ATOM     28  C   UNL     1      87.852  69.369  76.763  1.00  0.00     0.004 A 
ATOM     29  C   UNL     1      89.254  66.989  77.147  1.00  0.00     0.000 A 
ATOM     30  C   UNL     1      89.074  69.381  77.436  1.00  0.00     0.000 A 
ATOM     31  C   UNL     1      89.774  68.190  77.628  1.00  0.00     0.000 A 
ENDBRANCH  25  26
ENDBRANCH   7  25
BRANCH  14  32
ATOM     32  C   UNL     1      83.903  65.523  72.677  1.00  0.00    -0.046 C 
ATOM     33  C   UNL     1      83.067  65.640  73.917  1.00  0.00     0.042 C 
ATOM     34  C   UNL     1      83.665  64.584  71.749  1.00  0.00     0.010 C 
ENDBRANCH  14  32
ENDBRANCH   3   4
BRANCH   2  35
ATOM     35  C   UNL     1      90.503  67.278  70.946  1.00  0.00     0.078 CG0
ATOM     36  G   UNL     1      89.414  68.236  70.467  1.00  0.00     0.000 G0
ENDBRANCH   2  35
ENDBRANCH   1   2
BRANCH   1  37
ATOM     37  O   UNL     1      91.285  65.616  73.974  1.00  0.00    -0.461 OA
BRANCH  37  38
ATOM     38  C   UNL     1      92.491  65.889  74.577  1.00  0.00     0.310 C 
ATOM     39  O   UNL     1      93.488  65.184  74.505  1.00  0.00    -0.252 OA
BRANCH  38  40
ATOM     40  C   UNL     1      92.391  67.189  75.340  1.00  0.00     0.158 C 
BRANCH  40  41
ATOM     41  C   UNL     1      92.336  68.396  74.440  1.00  0.00    -0.033 A 
ATOM     42  C   UNL     1      93.321  68.587  73.469  1.00  0.00     0.054 A 
ATOM     43  C   UNL     1      91.302  69.321  74.575  1.00  0.00     0.008 A 
ATOM     44  C   UNL     1      93.270  69.705  72.636  1.00  0.00     0.160 A 
ATOM     45  C   UNL     1      91.251  70.439  73.742  1.00  0.00     0.050 A 
ATOM     46  C   UNL     1      92.235  70.631  72.772  1.00  0.00     0.157 A 
BRANCH  44  47
ATOM     47  O   UNL     1      94.237  69.881  71.692  1.00  0.00    -0.493 OA
ATOM     48  C   UNL     1      94.077  69.179  70.461  1.00  0.00     0.278 C 
ENDBRANCH  44  47
BRANCH  46  49
ATOM     49  O   UNL     1      92.174  71.725  71.963  1.00  0.00    -0.504 OA
ATOM     50  H   UNL     1      91.939  71.441  71.064  1.00  0.00     0.293 HD
ENDBRANCH  46  49
ENDBRANCH  40  41
ENDBRANCH  38  40
ENDBRANCH  37  38
ENDBRANCH   1  37
TORSDOF 11
ENDMDL
MODEL 5
REMARK VINA RESULT:    -5.705     33.006     36.173
REMARK INTER + INTRA:         -11.064
REMARK INTER:                  -9.878
REMARK INTRA:                  -1.186
REMARK UNBOUND:                -1.024
REMARK SMILES C=C(C)[C@]12C[C@@H](C)[C@@]34O[C@](Cc5ccccc5)(O[C@@H]1[C@@H]3C=C(COC(=O)Cc1ccc(O)c(OC)c1)C[C@]1(O)C(=O)C(C)=C[C@@H]41)O2
REMARK SMILES IDX 23 1 22 2 21 3 20 4 9 5 8 6 10 7 6 8 18 9 46 10 19 11 5 12
REMARK SMILES IDX 7 13 4 14 45 15 38 16 44 17 40 18 42 20 41 21 43 22 39 23
REMARK SMILES IDX 11 25 12 26 13 27 17 28 14 29 16 30 15 31 2 32 3 33 1 34
REMARK SMILES IDX 37 35 24 37 25 38 26 39 27 40 28 41 36 42 29 43 33 44 30 45
REMARK SMILES IDX 31 46 34 47 35 48 32 49
REMARK H PARENT 39 24 32 50
REMARK Flexibility Score: 90.00
ROOT
ATOM      1  C   UNL     1      99.947  78.318  83.359  1.00  0.00     0.264 C 
ENDROOT
BRANCH   1   2
ATOM      2  C   UNL     1      99.721  78.219  81.868  1.00  0.00    -0.033 C 
ATOM      3  C   UNL     1      99.580  79.349  81.146  1.00  0.00    -0.015 C 
BRANCH   3   4
ATOM      4  C   UNL     1      99.271  79.517  79.668  1.00  0.00     0.078 C 
ATOM      5  O   UNL     1     101.442  79.696  78.494  1.00  0.00    -0.319 OA
ATOM      6  C   UNL     1     100.248  78.864  78.620  1.00  0.00     0.095 C 
ATOM      7  C   UNL     1     101.201  81.115  78.442  1.00  0.00     0.289 C 
ATOM      8  C   UNL     1      99.494  78.815  77.227  1.00  0.00     0.023 C 
ATOM      9  O   UNL     1     100.492  81.562  79.595  1.00  0.00    -0.320 OA
ATOM     10  O   UNL     1     100.396  81.487  77.327  1.00  0.00    -0.313 OA
ATOM     11  C   UNL     1      99.190  81.023  79.315  1.00  0.00     0.170 C 
ATOM     12  C   UNL     1      98.533  80.032  77.055  1.00  0.00     0.049 C 
ATOM     13  C   UNL     1     100.400  78.701  75.990  1.00  0.00     0.011 C 
ATOM     14  C   UNL     1      99.048  81.268  77.792  1.00  0.00     0.122 C 
BRANCH   6  15
ATOM     15  C   UNL     1     100.780  77.497  79.140  1.00  0.00     0.086 C 
ATOM     16  C   UNL     1      99.743  76.576  79.815  1.00  0.00     0.140 CG0
ATOM     17  C   UNL     1     101.499  76.578  78.192  1.00  0.00    -0.010 C 
ATOM     18  C   UNL     1     100.225  75.196  79.418  1.00  0.00     0.190 C 
ATOM     19  G   UNL     1      99.702  76.767  81.331  1.00  0.00     0.000 G0
ATOM     20  C   UNL     1     101.230  75.277  78.341  1.00  0.00    -0.008 C 
ATOM     21  O   UNL     1      99.813  74.142  79.878  1.00  0.00    -0.291 OA
ATOM     22  C   UNL     1     101.804  74.101  77.655  1.00  0.00     0.048 C 
BRANCH  16  23
ATOM     23  O   UNL     1      98.447  76.658  79.248  1.00  0.00    -0.381 OA
ATOM     24  H   UNL     1      97.847  77.043  79.908  1.00  0.00     0.212 HD
ENDBRANCH  16  23
ENDBRANCH   6  15
BRANCH   7  25
ATOM     25  C   UNL     1     102.539  81.822  78.359  1.00  0.00     0.135 C 
BRANCH  25  26
ATOM     26  C   UNL     1     102.602  82.776  77.192  1.00  0.00    -0.040 A 
ATOM     27  C   UNL     1     101.734  83.867  77.136  1.00  0.00     0.004 A 
ATOM     28  C   UNL     1     103.528  82.569  76.170  1.00  0.00     0.004 A 
ATOM     29  C   UNL     1     101.792  84.750  76.057  1.00  0.00     0.000 A 
ATOM     30  C   UNL     1     103.586  83.452  75.092  1.00  0.00     0.000 A 
ATOM     31  C   UNL     1     102.718  84.542  75.036  1.00  0.00     0.000 A 
ENDBRANCH  25  26
ENDBRANCH   7  25
BRANCH  14  32
ATOM     32  C   UNL     1      98.243  82.491  77.494  1.00  0.00    -0.046 C 
ATOM     33  C   UNL     1      98.226  82.940  76.063  1.00  0.00     0.042 C 
ATOM     34  C   UNL     1      97.573  83.150  78.451  1.00  0.00     0.010 C 
ENDBRANCH  14  32
ENDBRANCH   3   4
BRANCH   2  35
ATOM     35  C   UNL     1      99.691  76.789  81.365  1.00  0.00     0.078 CG0
ATOM     36  G   UNL     1      99.743  76.579  79.852  1.00  0.00     0.000 G0
ENDBRANCH   2  35
ENDBRANCH   1   2
BRANCH   1  37
ATOM     37  O   UNL     1     100.965  79.262  83.615  1.00  0.00    -0.461 OA
BRANCH  37  38
ATOM     38  C   UNL     1     100.719  80.163  84.625  1.00  0.00     0.310 C 
ATOM     39  O   UNL     1     101.487  81.045  84.982  1.00  0.00    -0.252 OA
BRANCH  38  40
ATOM     40  C   UNL     1      99.357  79.893  85.221  1.00  0.00     0.158 C 
BRANCH  40  41
ATOM     41  C   UNL     1      98.432  81.079  85.134  1.00  0.00    -0.033 A 
ATOM     42  C   UNL     1      98.469  81.912  84.016  1.00  0.00     0.054 A 
ATOM     43  C   UNL     1      97.537  81.343  86.171  1.00  0.00     0.008 A 
ATOM     44  C   UNL     1      97.613  83.010  83.935  1.00  0.00     0.160 A 
ATOM     45  C   UNL     1      96.680  82.441  86.091  1.00  0.00     0.050 A 
ATOM     46  C   UNL     1      96.718  83.275  84.973  1.00  0.00     0.157 A 
BRANCH  44  47
ATOM     47  O   UNL     1      97.659  83.817  82.839  1.00  0.00    -0.493 OA
ATOM     48  C   UNL     1      98.347  83.316  81.694  1.00  0.00     0.278 C 
ENDBRANCH  44  47
BRANCH  46  49
ATOM     49  O   UNL     1      95.876  84.343  84.905  1.00  0.00    -0.504 OA
ATOM     50  H   UNL     1      95.527  84.414  84.001  1.00  0.00     0.293 HD
ENDBRANCH  46  49
ENDBRANCH  40  41
ENDBRANCH  38  40
ENDBRANCH  37  38
ENDBRANCH   1  37
TORSDOF 11
ENDMDL
MODEL 6
REMARK VINA RESULT:    -5.671      9.972     12.641
REMARK INTER + INTRA:         -11.004
REMARK INTER:                  -9.871
REMARK INTRA:                  -1.133
REMARK UNBOUND:                -1.024
REMARK SMILES C=C(C)[C@]12C[C@@H](C)[C@@]34O[C@](Cc5ccccc5)(O[C@@H]1[C@@H]3C=C(COC(=O)Cc1ccc(O)c(OC)c1)C[C@]1(O)C(=O)C(C)=C[C@@H]41)O2
REMARK SMILES IDX 23 1 22 2 21 3 20 4 9 5 8 6 10 7 6 8 18 9 46 10 19 11 5 12
REMARK SMILES IDX 7 13 4 14 45 15 38 16 44 17 40 18 42 20 41 21 43 22 39 23
REMARK SMILES IDX 11 25 12 26 13 27 17 28 14 29 16 30 15 31 2 32 3 33 1 34
REMARK SMILES IDX 37 35 24 37 25 38 26 39 27 40 28 41 36 42 29 43 33 44 30 45
REMARK SMILES IDX 31 46 34 47 35 48 32 49
REMARK H PARENT 39 24 32 50
REMARK Flexibility Score: 90.00
ROOT
ATOM      1  C   UNL     1      73.210  91.681  69.772  1.00  0.00     0.264 C 
ENDROOT
BRANCH   1   2
ATOM      2  C   UNL     1      73.625  92.632  70.870  1.00  0.00    -0.033 C 
ATOM      3  C   UNL     1      72.886  92.701  71.996  1.00  0.00    -0.015 C 
BRANCH   3   4
ATOM      4  C   UNL     1      73.044  93.618  73.199  1.00  0.00     0.078 C 
ATOM      5  O   UNL     1      74.436  92.409  74.848  1.00  0.00    -0.319 OA
ATOM      6  C   UNL     1      74.406  93.589  73.988  1.00  0.00     0.095 C 
ATOM      7  C   UNL     1      73.210  92.125  75.549  1.00  0.00     0.289 C 
ATOM      8  C   UNL     1      74.467  94.893  74.886  1.00  0.00     0.023 C 
ATOM      9  O   UNL     1      72.122  91.962  74.643  1.00  0.00    -0.320 OA
ATOM     10  O   UNL     1      72.829  93.185  76.422  1.00  0.00    -0.313 OA
ATOM     11  C   UNL     1      71.929  93.325  74.233  1.00  0.00     0.170 C 
ATOM     12  C   UNL     1      73.048  95.313  75.381  1.00  0.00     0.049 C 
ATOM     13  C   UNL     1      75.427  94.824  76.085  1.00  0.00     0.011 C 
ATOM     14  C   UNL     1      72.130  94.104  75.557  1.00  0.00     0.122 C 
BRANCH   6  15
ATOM     15  C   UNL     1      75.604  93.391  73.015  1.00  0.00     0.086 C 
ATOM     16  C   UNL     1      75.554  94.200  71.702  1.00  0.00     0.140 CG0
ATOM     17  C   UNL     1      77.003  93.620  73.513  1.00  0.00    -0.010 C 
ATOM     18  C   UNL     1      77.016  94.505  71.450  1.00  0.00     0.190 C 
ATOM     19  G   UNL     1      74.917  93.408  70.560  1.00  0.00     0.000 G0
ATOM     20  C   UNL     1      77.829  94.219  72.648  1.00  0.00    -0.008 C 
ATOM     21  O   UNL     1      77.474  94.973  70.420  1.00  0.00    -0.291 OA
ATOM     22  C   UNL     1      79.270  94.523  72.762  1.00  0.00     0.048 C 
BRANCH  16  23
ATOM     23  O   UNL     1      74.960  95.480  71.838  1.00  0.00    -0.381 OA
ATOM     24  H   UNL     1      75.102  95.789  72.748  1.00  0.00     0.212 HD
ENDBRANCH  16  23
ENDBRANCH   6  15
BRANCH   7  25
ATOM     25  C   UNL     1      73.404  90.854  76.351  1.00  0.00     0.135 C 
BRANCH  25  26
ATOM     26  C   UNL     1      73.440  91.122  77.835  1.00  0.00    -0.040 A 
ATOM     27  C   UNL     1      74.533  91.783  78.397  1.00  0.00     0.004 A 
ATOM     28  C   UNL     1      72.382  90.711  78.645  1.00  0.00     0.004 A 
ATOM     29  C   UNL     1      74.568  92.031  79.770  1.00  0.00     0.000 A 
ATOM     30  C   UNL     1      72.417  90.959  80.017  1.00  0.00     0.000 A 
ATOM     31  C   UNL     1      73.510  91.619  80.579  1.00  0.00     0.000 A 
ENDBRANCH  25  26
ENDBRANCH   7  25
BRANCH  14  32
ATOM     32  C   UNL     1      70.829  94.460  76.201  1.00  0.00    -0.046 C 
ATOM     33  C   UNL     1      70.422  95.901  76.119  1.00  0.00     0.042 C 
ATOM     34  C   UNL     1      70.068  93.543  76.817  1.00  0.00     0.010 C 
ENDBRANCH  14  32
ENDBRANCH   3   4
BRANCH   2  35
ATOM     35  C   UNL     1      74.884  93.410  70.539  1.00  0.00     0.078 CG0
ATOM     36  G   UNL     1      75.532  94.206  71.671  1.00  0.00     0.000 G0
ENDBRANCH   2  35
ENDBRANCH   1   2
BRANCH   1  37
ATOM     37  O   UNL     1      74.204  90.692  69.610  1.00  0.00    -0.461 OA
BRANCH  37  38
ATOM     38  C   UNL     1      73.963  89.482  70.220  1.00  0.00     0.310 C 
ATOM     39  O   UNL     1      72.868  88.944  70.306  1.00  0.00    -0.252 OA
BRANCH  38  40
ATOM     40  C   UNL     1      75.257  88.926  70.765  1.00  0.00     0.158 C 
BRANCH  40  41
ATOM     41  C   UNL     1      75.719  87.690  70.037  1.00  0.00    -0.033 A 
ATOM     42  C   UNL     1      76.549  87.806  68.922  1.00  0.00     0.054 A 
ATOM     43  C   UNL     1      75.316  86.429  70.478  1.00  0.00     0.008 A 
ATOM     44  C   UNL     1      76.976  86.662  68.248  1.00  0.00     0.160 A 
ATOM     45  C   UNL     1      75.743  85.285  69.804  1.00  0.00     0.050 A 
ATOM     46  C   UNL     1      76.572  85.401  68.689  1.00  0.00     0.157 A 
BRANCH  44  47
ATOM     47  O   UNL     1      77.787  86.788  67.160  1.00  0.00    -0.493 OA
ATOM     48  C   UNL     1      77.178  87.224  65.946  1.00  0.00     0.278 C 
ENDBRANCH  44  47
BRANCH  46  49
ATOM     49  O   UNL     1      76.984  84.277  68.040  1.00  0.00    -0.504 OA
ATOM     50  H   UNL     1      77.931  84.140  68.212  1.00  0.00     0.293 HD
ENDBRANCH  46  49
ENDBRANCH  40  41
ENDBRANCH  38  40
ENDBRANCH  37  38
ENDBRANCH   1  37
TORSDOF 11
ENDMDL
MODEL 7
REMARK VINA RESULT:    -5.513      8.437     13.115
REMARK INTER + INTRA:         -10.726
REMARK INTER:                  -9.866
REMARK INTRA:                  -0.861
REMARK UNBOUND:                -1.024
REMARK SMILES C=C(C)[C@]12C[C@@H](C)[C@@]34O[C@](Cc5ccccc5)(O[C@@H]1[C@@H]3C=C(COC(=O)Cc1ccc(O)c(OC)c1)C[C@]1(O)C(=O)C(C)=C[C@@H]41)O2
REMARK SMILES IDX 23 1 22 2 21 3 20 4 9 5 8 6 10 7 6 8 18 9 46 10 19 11 5 12
REMARK SMILES IDX 7 13 4 14 45 15 38 16 44 17 40 18 42 20 41 21 43 22 39 23
REMARK SMILES IDX 11 25 12 26 13 27 17 28 14 29 16 30 15 31 2 32 3 33 1 34
REMARK SMILES IDX 37 35 24 37 25 38 26 39 27 40 28 41 36 42 29 43 33 44 30 45
REMARK SMILES IDX 31 46 34 47 35 48 32 49
REMARK H PARENT 39 24 32 50
REMARK Flexibility Score: 90.00
ROOT
ATOM      1  C   UNL     1      77.326  92.525  71.965  1.00  0.00     0.264 C 
ENDROOT
BRANCH   1   2
ATOM      2  C   UNL     1      75.905  92.039  71.800  1.00  0.00    -0.033 C 
ATOM      3  C   UNL     1      75.606  91.210  70.779  1.00  0.00    -0.015 C 
BRANCH   3   4
ATOM      4  C   UNL     1      74.259  90.649  70.355  1.00  0.00     0.078 C 
ATOM      5  O   UNL     1      73.988  88.477  71.507  1.00  0.00    -0.319 OA
ATOM      6  C   UNL     1      73.428  89.822  71.405  1.00  0.00     0.095 C 
ATOM      7  C   UNL     1      74.349  87.863  70.254  1.00  0.00     0.289 C 
ATOM      8  C   UNL     1      71.938  89.730  70.873  1.00  0.00     0.023 C 
ATOM      9  O   UNL     1      75.289  88.662  69.539  1.00  0.00    -0.320 OA
ATOM     10  O   UNL     1      73.231  87.713  69.384  1.00  0.00    -0.313 OA
ATOM     11  C   UNL     1      74.436  89.737  69.116  1.00  0.00     0.170 C 
ATOM     12  C   UNL     1      71.890  89.677  69.315  1.00  0.00     0.049 C 
ATOM     13  C   UNL     1      71.101  88.576  71.450  1.00  0.00     0.011 C 
ATOM     14  C   UNL     1      73.130  88.996  68.734  1.00  0.00     0.122 C 
BRANCH   6  15
ATOM     15  C   UNL     1      73.592  90.420  72.833  1.00  0.00     0.086 C 
ATOM     16  C   UNL     1      73.550  91.959  72.935  1.00  0.00     0.140 CG0
ATOM     17  C   UNL     1      72.668  89.971  73.930  1.00  0.00    -0.010 C 
ATOM     18  C   UNL     1      72.881  92.178  74.276  1.00  0.00     0.190 C 
ATOM     19  G   UNL     1      74.944  92.580  72.867  1.00  0.00     0.000 G0
ATOM     20  C   UNL     1      72.273  90.930  74.774  1.00  0.00    -0.008 C 
ATOM     21  O   UNL     1      72.801  93.248  74.860  1.00  0.00    -0.291 OA
ATOM     22  C   UNL     1      71.446  90.842  75.995  1.00  0.00     0.048 C 
BRANCH  16  23
ATOM     23  O   UNL     1      72.665  92.571  72.011  1.00  0.00    -0.381 OA
ATOM     24  H   UNL     1      73.118  92.646  71.155  1.00  0.00     0.212 HD
ENDBRANCH  16  23
ENDBRANCH   6  15
BRANCH   7  25
ATOM     25  C   UNL     1      74.950  86.503  70.547  1.00  0.00     0.135 C 
BRANCH  25  26
ATOM     26  C   UNL     1      76.033  86.140  69.561  1.00  0.00    -0.040 A 
ATOM     27  C   UNL     1      75.761  85.246  68.525  1.00  0.00     0.004 A 
ATOM     28  C   UNL     1      77.305  86.699  69.684  1.00  0.00     0.004 A 
ATOM     29  C   UNL     1      76.762  84.910  67.613  1.00  0.00     0.000 A 
ATOM     30  C   UNL     1      78.306  86.363  68.772  1.00  0.00     0.000 A 
ATOM     31  C   UNL     1      78.034  85.468  67.737  1.00  0.00     0.000 A 
ENDBRANCH  25  26
ENDBRANCH   7  25
BRANCH  14  32
ATOM     32  C   UNL     1      73.023  88.771  67.261  1.00  0.00    -0.046 C 
ATOM     33  C   UNL     1      72.671  87.379  66.828  1.00  0.00     0.042 C 
ATOM     34  C   UNL     1      73.231  89.757  66.375  1.00  0.00     0.010 C 
ENDBRANCH  14  32
ENDBRANCH   3   4
BRANCH   2  35
ATOM     35  C   UNL     1      74.966  92.573  72.865  1.00  0.00     0.078 CG0
ATOM     36  G   UNL     1      73.576  91.943  72.951  1.00  0.00     0.000 G0
ENDBRANCH   2  35
ENDBRANCH   1   2
BRANCH   1  37
ATOM     37  O   UNL     1      77.374  93.485  72.999  1.00  0.00    -0.461 OA
BRANCH  37  38
ATOM     38  C   UNL     1      78.300  94.491  72.853  1.00  0.00     0.310 C 
ATOM     39  O   UNL     1      79.486  94.324  72.607  1.00  0.00    -0.252 OA
BRANCH  38  40
ATOM     40  C   UNL     1      77.625  95.829  73.043  1.00  0.00     0.158 C 
BRANCH  40  41
ATOM     41  C   UNL     1      77.409  96.568  71.747  1.00  0.00    -0.033 A 
ATOM     42  C   UNL     1      76.691  95.966  70.713  1.00  0.00     0.054 A 
ATOM     43  C   UNL     1      77.925  97.853  71.582  1.00  0.00     0.008 A 
ATOM     44  C   UNL     1      76.491  96.650  69.513  1.00  0.00     0.160 A 
ATOM     45  C   UNL     1      77.725  98.537  70.383  1.00  0.00     0.050 A 
ATOM     46  C   UNL     1      77.009  97.935  69.348  1.00  0.00     0.157 A 
BRANCH  44  47
ATOM     47  O   UNL     1      75.789  96.052  68.511  1.00  0.00    -0.493 OA
ATOM     48  C   UNL     1      76.545  95.446  67.463  1.00  0.00     0.278 C 
ENDBRANCH  44  47
BRANCH  46  49
ATOM     49  O   UNL     1      76.818  98.613  68.182  1.00  0.00    -0.504 OA
ATOM     50  H   UNL     1      77.640  98.587  67.663  1.00  0.00     0.293 HD
ENDBRANCH  46  49
ENDBRANCH  40  41
ENDBRANCH  38  40
ENDBRANCH  37  38
ENDBRANCH   1  37
TORSDOF 11
ENDMDL
MODEL 8
REMARK VINA RESULT:    -5.484      8.341     13.218
REMARK INTER + INTRA:         -10.675
REMARK INTER:                  -9.708
REMARK INTRA:                  -0.968
REMARK UNBOUND:                -1.024
REMARK SMILES C=C(C)[C@]12C[C@@H](C)[C@@]34O[C@](Cc5ccccc5)(O[C@@H]1[C@@H]3C=C(COC(=O)Cc1ccc(O)c(OC)c1)C[C@]1(O)C(=O)C(C)=C[C@@H]41)O2
REMARK SMILES IDX 23 1 22 2 21 3 20 4 9 5 8 6 10 7 6 8 18 9 46 10 19 11 5 12
REMARK SMILES IDX 7 13 4 14 45 15 38 16 44 17 40 18 42 20 41 21 43 22 39 23
REMARK SMILES IDX 11 25 12 26 13 27 17 28 14 29 16 30 15 31 2 32 3 33 1 34
REMARK SMILES IDX 37 35 24 37 25 38 26 39 27 40 28 41 36 42 29 43 33 44 30 45
REMARK SMILES IDX 31 46 34 47 35 48 32 49
REMARK H PARENT 39 24 32 50
REMARK Flexibility Score: 90.00
ROOT
ATOM      1  C   UNL     1      77.022  92.416  72.113  1.00  0.00     0.264 C 
ENDROOT
BRANCH   1   2
ATOM      2  C   UNL     1      75.686  91.858  71.683  1.00  0.00    -0.033 C 
ATOM      3  C   UNL     1      75.638  90.965  70.674  1.00  0.00    -0.015 C 
BRANCH   3   4
ATOM      4  C   UNL     1      74.431  90.323  70.011  1.00  0.00     0.078 C 
ATOM      5  O   UNL     1      74.009  88.191  71.192  1.00  0.00    -0.319 OA
ATOM      6  C   UNL     1      73.431  89.502  70.909  1.00  0.00     0.095 C 
ATOM      7  C   UNL     1      74.645  87.543  70.075  1.00  0.00     0.289 C 
ATOM      8  C   UNL     1      72.089  89.316  70.087  1.00  0.00     0.023 C 
ATOM      9  O   UNL     1      75.682  88.354  69.528  1.00  0.00    -0.320 OA
ATOM     10  O   UNL     1      73.739  87.302  69.001  1.00  0.00    -0.313 OA
ATOM     11  C   UNL     1      74.896  89.368  68.884  1.00  0.00     0.170 C 
ATOM     12  C   UNL     1      72.369  89.195  68.557  1.00  0.00     0.049 C 
ATOM     13  C   UNL     1      71.195  88.150  70.537  1.00  0.00     0.011 C 
ATOM     14  C   UNL     1      73.727  88.550  68.279  1.00  0.00     0.122 C 
BRANCH   6  15
ATOM     15  C   UNL     1      73.272  90.167  72.307  1.00  0.00     0.086 C 
ATOM     16  C   UNL     1      73.154  91.706  72.319  1.00  0.00     0.140 CG0
ATOM     17  C   UNL     1      72.156  89.724  73.210  1.00  0.00    -0.010 C 
ATOM     18  C   UNL     1      72.213  91.952  73.479  1.00  0.00     0.190 C 
ATOM     19  G   UNL     1      74.509  92.387  72.509  1.00  0.00     0.000 G0
ATOM     20  C   UNL     1      71.559  90.699  73.903  1.00  0.00    -0.008 C 
ATOM     21  O   UNL     1      71.974  93.041  73.978  1.00  0.00    -0.291 OA
ATOM     22  C   UNL     1      70.499  90.626  74.930  1.00  0.00     0.048 C 
BRANCH  16  23
ATOM     23  O   UNL     1      72.461  92.237  71.202  1.00  0.00    -0.381 OA
ATOM     24  H   UNL     1      73.025  92.142  70.416  1.00  0.00     0.212 HD
ENDBRANCH  16  23
ENDBRANCH   6  15
BRANCH   7  25
ATOM     25  C   UNL     1      75.224  86.227  70.554  1.00  0.00     0.135 C 
BRANCH  25  26
ATOM     26  C   UNL     1      76.095  85.578  69.507  1.00  0.00    -0.040 A 
ATOM     27  C   UNL     1      75.581  84.555  68.709  1.00  0.00     0.004 A 
ATOM     28  C   UNL     1      77.413  86.000  69.336  1.00  0.00     0.004 A 
ATOM     29  C   UNL     1      76.387  83.954  67.741  1.00  0.00     0.000 A 
ATOM     30  C   UNL     1      78.218  85.400  68.368  1.00  0.00     0.000 A 
ATOM     31  C   UNL     1      77.704  84.376  67.571  1.00  0.00     0.000 A 
ENDBRANCH  25  26
ENDBRANCH   7  25
BRANCH  14  32
ATOM     32  C   UNL     1      73.938  88.258  66.829  1.00  0.00    -0.046 C 
ATOM     33  C   UNL     1      73.825  86.819  66.421  1.00  0.00     0.042 C 
ATOM     34  C   UNL     1      74.213  89.226  65.943  1.00  0.00     0.010 C 
ENDBRANCH  14  32
ENDBRANCH   3   4
BRANCH   2  35
ATOM     35  C   UNL     1      74.525  92.404  72.493  1.00  0.00     0.078 CG0
ATOM     36  G   UNL     1      73.170  91.719  72.321  1.00  0.00     0.000 G0
ENDBRANCH   2  35
ENDBRANCH   1   2
BRANCH   1  37
ATOM     37  O   UNL     1      76.815  93.555  72.920  1.00  0.00    -0.461 OA
BRANCH  37  38
ATOM     38  C   UNL     1      77.482  94.698  72.543  1.00  0.00     0.310 C 
ATOM     39  O   UNL     1      78.642  94.739  72.157  1.00  0.00    -0.252 OA
BRANCH  38  40
ATOM     40  C   UNL     1      76.562  95.888  72.680  1.00  0.00     0.158 C 
BRANCH  40  41
ATOM     41  C   UNL     1      76.125  96.132  74.101  1.00  0.00    -0.033 A 
ATOM     42  C   UNL     1      77.024  95.940  75.150  1.00  0.00     0.054 A 
ATOM     43  C   UNL     1      74.822  96.551  74.368  1.00  0.00     0.008 A 
ATOM     44  C   UNL     1      76.620  96.166  76.466  1.00  0.00     0.160 A 
ATOM     45  C   UNL     1      74.417  96.778  75.684  1.00  0.00     0.050 A 
ATOM     46  C   UNL     1      75.315  96.585  76.733  1.00  0.00     0.157 A 
BRANCH  44  47
ATOM     47  O   UNL     1      77.506  95.975  77.482  1.00  0.00    -0.493 OA
ATOM     48  C   UNL     1      77.545  94.676  78.073  1.00  0.00     0.278 C 
ENDBRANCH  44  47
BRANCH  46  49
ATOM     49  O   UNL     1      74.909  96.810  78.013  1.00  0.00    -0.504 OA
ATOM     50  H   UNL     1      74.970  95.980  78.515  1.00  0.00     0.293 HD
ENDBRANCH  46  49
ENDBRANCH  40  41
ENDBRANCH  38  40
ENDBRANCH  37  38
ENDBRANCH   1  37
TORSDOF 11
ENDMDL
MODEL 9
REMARK VINA RESULT:    -5.249     13.019     16.391
REMARK INTER + INTRA:         -10.261
REMARK INTER:                  -7.913
REMARK INTRA:                  -2.348
REMARK UNBOUND:                -1.024
REMARK SMILES C=C(C)[C@]12C[C@@H](C)[C@@]34O[C@](Cc5ccccc5)(O[C@@H]1[C@@H]3C=C(COC(=O)Cc1ccc(O)c(OC)c1)C[C@]1(O)C(=O)C(C)=C[C@@H]41)O2
REMARK SMILES IDX 23 1 22 2 21 3 20 4 9 5 8 6 10 7 6 8 18 9 46 10 19 11 5 12
REMARK SMILES IDX 7 13 4 14 45 15 38 16 44 17 40 18 42 20 41 21 43 22 39 23
REMARK SMILES IDX 11 25 12 26 13 27 17 28 14 29 16 30 15 31 2 32 3 33 1 34
REMARK SMILES IDX 37 35 24 37 25 38 26 39 27 40 28 41 36 42 29 43 33 44 30 45
REMARK SMILES IDX 31 46 34 47 35 48 32 49
REMARK H PARENT 39 24 32 50
REMARK Flexibility Score: 90.00
ROOT
ATOM      1  C   UNL     1      75.937 100.214  74.574  1.00  0.00     0.264 C 
ENDROOT
BRANCH   1   2
ATOM      2  C   UNL     1      75.425  98.829  74.252  1.00  0.00    -0.033 C 
ATOM      3  C   UNL     1      76.303  97.816  74.118  1.00  0.00    -0.015 C 
BRANCH   3   4
ATOM      4  C   UNL     1      76.054  96.368  73.727  1.00  0.00     0.078 C 
ATOM      5  O   UNL     1      75.736  95.099  75.827  1.00  0.00    -0.319 OA
ATOM      6  C   UNL     1      75.059  95.517  74.601  1.00  0.00     0.095 C 
ATOM      7  C   UNL     1      77.092  94.643  75.657  1.00  0.00     0.289 C 
ATOM      8  C   UNL     1      74.659  94.235  73.761  1.00  0.00     0.023 C 
ATOM      9  O   UNL     1      77.902  95.643  75.045  1.00  0.00    -0.320 OA
ATOM     10  O   UNL     1      77.176  93.504  74.804  1.00  0.00    -0.313 OA
ATOM     11  C   UNL     1      77.394  95.592  73.703  1.00  0.00     0.170 C 
ATOM     12  C   UNL     1      75.835  93.755  72.855  1.00  0.00     0.049 C 
ATOM     13  C   UNL     1      74.128  93.048  74.581  1.00  0.00     0.011 C 
ATOM     14  C   UNL     1      77.195  94.072  73.479  1.00  0.00     0.122 C 
BRANCH   6  15
ATOM     15  C   UNL     1      73.870  96.392  75.093  1.00  0.00     0.086 C 
ATOM     16  C   UNL     1      73.268  97.365  74.059  1.00  0.00     0.140 CG0
ATOM     17  C   UNL     1      72.662  95.725  75.689  1.00  0.00    -0.010 C 
ATOM     18  C   UNL     1      71.801  97.373  74.433  1.00  0.00     0.190 C 
ATOM     19  G   UNL     1      73.899  98.755  74.138  1.00  0.00     0.000 G0
ATOM     20  C   UNL     1      71.486  96.269  75.360  1.00  0.00    -0.008 C 
ATOM     21  O   UNL     1      70.963  98.147  73.997  1.00  0.00    -0.291 OA
ATOM     22  C   UNL     1      70.122  95.935  75.816  1.00  0.00     0.048 C 
BRANCH  16  23
ATOM     23  O   UNL     1      73.277  96.868  72.731  1.00  0.00    -0.381 OA
ATOM     24  H   UNL     1      72.638  96.139  72.672  1.00  0.00     0.212 HD
ENDBRANCH  16  23
ENDBRANCH   6  15
BRANCH   7  25
ATOM     25  C   UNL     1      77.651  94.295  77.022  1.00  0.00     0.135 C 
BRANCH  25  26
ATOM     26  C   UNL     1      76.873  94.952  78.135  1.00  0.00    -0.040 A 
ATOM     27  C   UNL     1      77.120  96.285  78.467  1.00  0.00     0.004 A 
ATOM     28  C   UNL     1      75.906  94.228  78.832  1.00  0.00     0.004 A 
ATOM     29  C   UNL     1      76.401  96.892  79.496  1.00  0.00     0.000 A 
ATOM     30  C   UNL     1      75.187  94.836  79.862  1.00  0.00     0.000 A 
ATOM     31  C   UNL     1      75.434  96.168  80.193  1.00  0.00     0.000 A 
ENDBRANCH  25  26
ENDBRANCH   7  25
BRANCH  14  32
ATOM     32  C   UNL     1      78.330  93.463  72.721  1.00  0.00    -0.046 C 
ATOM     33  C   UNL     1      79.476  94.375  72.399  1.00  0.00     0.042 C 
ATOM     34  C   UNL     1      78.324  92.174  72.351  1.00  0.00     0.010 C 
ENDBRANCH  14  32
ENDBRANCH   3   4
BRANCH   2  35
ATOM     35  C   UNL     1      73.914  98.769  74.126  1.00  0.00     0.078 CG0
ATOM     36  G   UNL     1      73.274  97.383  74.050  1.00  0.00     0.000 G0
ENDBRANCH   2  35
ENDBRANCH   1   2
BRANCH   1  37
ATOM     37  O   UNL     1      76.330 100.855  73.380  1.00  0.00    -0.461 OA
BRANCH  37  38
ATOM     38  C   UNL     1      77.659 100.751  73.042  1.00  0.00     0.310 C 
ATOM     39  O   UNL     1      78.587 100.728  73.839  1.00  0.00    -0.252 OA
BRANCH  38  40
ATOM     40  C   UNL     1      77.794 100.670  71.540  1.00  0.00     0.158 C 
BRANCH  40  41
ATOM     41  C   UNL     1      77.625  99.269  71.009  1.00  0.00    -0.033 A 
ATOM     42  C   UNL     1      76.373  98.834  70.575  1.00  0.00     0.054 A 
ATOM     43  C   UNL     1      78.721  98.409  70.950  1.00  0.00     0.008 A 
ATOM     44  C   UNL     1      76.217  97.537  70.084  1.00  0.00     0.160 A 
ATOM     45  C   UNL     1      78.566  97.113  70.459  1.00  0.00     0.050 A 
ATOM     46  C   UNL     1      77.314  96.677  70.026  1.00  0.00     0.157 A 
BRANCH  44  47
ATOM     47  O   UNL     1      74.989  97.123  69.664  1.00  0.00    -0.493 OA
ATOM     48  C   UNL     1      74.867  96.740  68.296  1.00  0.00     0.278 C 
ENDBRANCH  44  47
BRANCH  46  49
ATOM     49  O   UNL     1      77.174  95.410  69.548  1.00  0.00    -0.504 OA
ATOM     50  H   UNL     1      77.502  95.378  68.633  1.00  0.00     0.293 HD
ENDBRANCH  46  49
ENDBRANCH  40  41
ENDBRANCH  38  40
ENDBRANCH  37  38
ENDBRANCH   1  37
TORSDOF 11
ENDMDL
MODEL 10
REMARK VINA RESULT:    -5.196     15.523     19.517
REMARK INTER + INTRA:         -10.168
REMARK INTER:                  -8.364
REMARK INTRA:                  -1.804
REMARK UNBOUND:                -1.024
REMARK SMILES C=C(C)[C@]12C[C@@H](C)[C@@]34O[C@](Cc5ccccc5)(O[C@@H]1[C@@H]3C=C(COC(=O)Cc1ccc(O)c(OC)c1)C[C@]1(O)C(=O)C(C)=C[C@@H]41)O2
REMARK SMILES IDX 23 1 22 2 21 3 20 4 9 5 8 6 10 7 6 8 18 9 46 10 19 11 5 12
REMARK SMILES IDX 7 13 4 14 45 15 38 16 44 17 40 18 42 20 41 21 43 22 39 23
REMARK SMILES IDX 11 25 12 26 13 27 17 28 14 29 16 30 15 31 2 32 3 33 1 34
REMARK SMILES IDX 37 35 24 37 25 38 26 39 27 40 28 41 36 42 29 43 33 44 30 45
REMARK SMILES IDX 31 46 34 47 35 48 32 49
REMARK H PARENT 39 24 32 50
REMARK Flexibility Score: 90.00
ROOT
ATOM      1  C   UNL     1      79.627 101.994  72.372  1.00  0.00     0.264 C 
ENDROOT
BRANCH   1   2
ATOM      2  C   UNL     1      79.552 100.910  71.321  1.00  0.00    -0.033 C 
ATOM      3  C   UNL     1      79.015  99.716  71.643  1.00  0.00    -0.015 C 
BRANCH   3   4
ATOM      4  C   UNL     1      78.894  98.455  70.803  1.00  0.00     0.078 C 
ATOM      5  O   UNL     1      76.694  98.548  69.676  1.00  0.00    -0.319 OA
ATOM      6  C   UNL     1      78.134  98.542  69.427  1.00  0.00     0.095 C 
ATOM      7  C   UNL     1      76.236  97.618  70.676  1.00  0.00     0.289 C 
ATOM      8  C   UNL     1      78.514  97.253  68.587  1.00  0.00     0.023 C 
ATOM      9  O   UNL     1      76.884  97.842  71.925  1.00  0.00    -0.320 OA
ATOM     10  O   UNL     1      76.526  96.266  70.329  1.00  0.00    -0.313 OA
ATOM     11  C   UNL     1      78.196  97.342  71.623  1.00  0.00     0.170 C 
ATOM     12  C   UNL     1      78.746  96.017  69.510  1.00  0.00     0.049 C 
ATOM     13  C   UNL     1      77.526  96.878  67.470  1.00  0.00     0.011 C 
ATOM     14  C   UNL     1      77.886  96.085  70.773  1.00  0.00     0.122 C 
BRANCH   6  15
ATOM     15  C   UNL     1      78.413  99.903  68.727  1.00  0.00     0.086 C 
ATOM     16  C   UNL     1      79.869 100.410  68.784  1.00  0.00     0.140 CG0
ATOM     17  C   UNL     1      78.039 100.079  67.282  1.00  0.00    -0.010 C 
ATOM     18  C   UNL     1      80.021 101.116  67.453  1.00  0.00     0.190 C 
ATOM     19  G   UNL     1      80.109 101.342  69.972  1.00  0.00     0.000 G0
ATOM     20  C   UNL     1      78.908 100.779  66.546  1.00  0.00    -0.008 C 
ATOM     21  O   UNL     1      80.958 101.832  67.134  1.00  0.00    -0.291 OA
ATOM     22  C   UNL     1      78.828 101.212  65.136  1.00  0.00     0.048 C 
BRANCH  16  23
ATOM     23  O   UNL     1      80.839  99.378  68.733  1.00  0.00    -0.381 OA
ATOM     24  H   UNL     1      81.180  99.322  67.824  1.00  0.00     0.212 HD
ENDBRANCH  16  23
ENDBRANCH   6  15
BRANCH   7  25
ATOM     25  C   UNL     1      74.740  97.790  70.836  1.00  0.00     0.135 C 
BRANCH  25  26
ATOM     26  C   UNL     1      74.172  98.765  69.835  1.00  0.00    -0.040 A 
ATOM     27  C   UNL     1      73.812  98.326  68.561  1.00  0.00     0.004 A 
ATOM     28  C   UNL     1      74.006 100.105  70.183  1.00  0.00     0.004 A 
ATOM     29  C   UNL     1      73.287  99.228  67.634  1.00  0.00     0.000 A 
ATOM     30  C   UNL     1      73.481 101.007  69.257  1.00  0.00     0.000 A 
ATOM     31  C   UNL     1      73.122 100.568  67.983  1.00  0.00     0.000 A 
ENDBRANCH  25  26
ENDBRANCH   7  25
BRANCH  14  32
ATOM     32  C   UNL     1      77.954  94.830  71.582  1.00  0.00    -0.046 C 
ATOM     33  C   UNL     1      76.795  93.889  71.442  1.00  0.00     0.042 C 
ATOM     34  C   UNL     1      78.993  94.560  72.387  1.00  0.00     0.010 C 
ENDBRANCH  14  32
ENDBRANCH   3   4
BRANCH   2  35
ATOM     35  C   UNL     1      80.112 101.343  69.980  1.00  0.00     0.078 CG0
ATOM     36  G   UNL     1      79.893 100.403  68.795  1.00  0.00     0.000 G0
ENDBRANCH   2  35
ENDBRANCH   1   2
BRANCH   1  37
ATOM     37  O   UNL     1      78.973 101.555  73.543  1.00  0.00    -0.461 OA
BRANCH  37  38
ATOM     38  C   UNL     1      79.649 101.746  74.725  1.00  0.00     0.310 C 
ATOM     39  O   UNL     1      79.917 102.835  75.213  1.00  0.00    -0.252 OA
BRANCH  38  40
ATOM     40  C   UNL     1      80.007 100.406  75.324  1.00  0.00     0.158 C 
BRANCH  40  41
ATOM     41  C   UNL     1      78.871  99.783  76.092  1.00  0.00    -0.033 A 
ATOM     42  C   UNL     1      78.520  98.452  75.861  1.00  0.00     0.054 A 
ATOM     43  C   UNL     1      78.170 100.535  77.035  1.00  0.00     0.008 A 
ATOM     44  C   UNL     1      77.468  97.874  76.572  1.00  0.00     0.160 A 
ATOM     45  C   UNL     1      77.118  99.957  77.746  1.00  0.00     0.050 A 
ATOM     46  C   UNL     1      76.767  98.628  77.515  1.00  0.00     0.157 A 
BRANCH  44  47
ATOM     47  O   UNL     1      77.135  96.575  76.338  1.00  0.00    -0.493 OA
ATOM     48  C   UNL     1      76.934  96.192  74.978  1.00  0.00     0.278 C 
ENDBRANCH  44  47
BRANCH  46  49
ATOM     49  O   UNL     1      75.739  98.075  78.216  1.00  0.00    -0.504 OA
ATOM     50  H   UNL     1      76.020  97.211  78.562  1.00  0.00     0.293 HD
ENDBRANCH  46  49
ENDBRANCH  40  41
ENDBRANCH  38  40
ENDBRANCH  37  38
ENDBRANCH   1  37
TORSDOF 11
ENDMDL
