MODEL 1
REMARK VINA RESULT:    -6.213      0.000      0.000
REMARK INTER + INTRA:         -10.977
REMARK INTER:                 -10.208
REMARK INTRA:                  -0.769
REMARK UNBOUND:                -0.769
REMARK SMILES CCCCC[C@H](O)CC(=O)CCc1ccc(O)c(OC)c1
REMARK SMILES IDX 8 1 6 2 7 3 5 5 4 6 3 7 2 8 1 9 9 10 10 11 11 12 12 13 13 14
REMARK SMILES IDX 21 15 14 16 18 17 15 18 16 19 19 20 20 21 17 22
REMARK H PARENT 7 4 17 23
REMARK Flexibility Score: inf
ROOT
ATOM      1  C   UNL     1      77.144  85.186  67.109  1.00  0.00     0.107 C 
ENDROOT
BRANCH   1   2
ATOM      2  C   UNL     1      78.044  86.262  67.721  1.00  0.00     0.121 C 
BRANCH   2   3
ATOM      3  O   UNL     1      77.870  87.493  67.023  1.00  0.00    -0.393 OA
ATOM      4  H   UNL     1      78.202  88.208  67.593  1.00  0.00     0.210 HD
ENDBRANCH   2   3
BRANCH   2   5
ATOM      5  C   UNL     1      77.779  86.487  69.215  1.00  0.00     0.032 C 
BRANCH   5   6
ATOM      6  C   UNL     1      76.379  87.057  69.473  1.00  0.00     0.003 C 
BRANCH   6   7
ATOM      7  C   UNL     1      75.563  86.231  70.473  1.00  0.00    -0.000 C 
BRANCH   7   8
ATOM      8  C   UNL     1      75.745  84.723  70.313  1.00  0.00    -0.003 C 
ATOM      9  C   UNL     1      75.895  84.037  71.662  1.00  0.00     0.004 C 
ENDBRANCH   7   8
ENDBRANCH   6   7
ENDBRANCH   5   6
ENDBRANCH   2   5
ENDBRANCH   1   2
BRANCH   1  10
ATOM     10  C   UNL     1      77.919  83.989  66.584  1.00  0.00     0.135 C 
ATOM     11  O   UNL     1      78.946  83.605  67.143  1.00  0.00    -0.300 OA
BRANCH  10  12
ATOM     12  C   UNL     1      77.335  83.276  65.374  1.00  0.00     0.080 C 
BRANCH  12  13
ATOM     13  C   UNL     1      76.938  81.824  65.648  1.00  0.00     0.043 C 
BRANCH  13  14
ATOM     14  C   UNL     1      75.614  81.446  65.027  1.00  0.00    -0.044 A 
ATOM     15  C   UNL     1      74.444  81.513  65.783  1.00  0.00     0.054 A 
ATOM     16  C   UNL     1      75.562  81.029  63.697  1.00  0.00     0.008 A 
ATOM     17  C   UNL     1      73.222  81.164  65.209  1.00  0.00     0.160 A 
ATOM     18  C   UNL     1      74.340  80.680  63.122  1.00  0.00     0.050 A 
ATOM     19  C   UNL     1      73.170  80.747  63.878  1.00  0.00     0.157 A 
BRANCH  17  20
ATOM     20  O   UNL     1      72.086  81.234  65.957  1.00  0.00    -0.493 OA
ATOM     21  C   UNL     1      71.657  82.531  66.367  1.00  0.00     0.278 C 
ENDBRANCH  17  20
BRANCH  19  22
ATOM     22  O   UNL     1      71.982  80.404  63.306  1.00  0.00    -0.504 OA
ATOM     23  H   UNL     1      72.072  79.530  62.889  1.00  0.00     0.293 HD
ENDBRANCH  19  22
ENDBRANCH  13  14
ENDBRANCH  12  13
ENDBRANCH  10  12
ENDBRANCH   1  10
TORSDOF 12
ENDMDL
MODEL 2
REMARK VINA RESULT:    -6.018     20.445     25.167
REMARK INTER + INTRA:         -10.656
REMARK INTER:                  -9.677
REMARK INTRA:                  -0.979
REMARK UNBOUND:                -0.769
REMARK SMILES CCCCC[C@H](O)CC(=O)CCc1ccc(O)c(OC)c1
REMARK SMILES IDX 8 1 6 2 7 3 5 5 4 6 3 7 2 8 1 9 9 10 10 11 11 12 12 13 13 14
REMARK SMILES IDX 21 15 14 16 18 17 15 18 16 19 19 20 20 21 17 22
REMARK H PARENT 7 4 17 23
REMARK Flexibility Score: inf
ROOT
ATOM      1  C   UNL     1      91.796  95.244  77.550  1.00  0.00     0.107 C 
ENDROOT
BRANCH   1   2
ATOM      2  C   UNL     1      91.857  93.732  77.779  1.00  0.00     0.121 C 
BRANCH   2   3
ATOM      3  O   UNL     1      91.292  93.413  79.049  1.00  0.00    -0.393 OA
ATOM      4  H   UNL     1      91.644  92.547  79.321  1.00  0.00     0.210 HD
ENDBRANCH   2   3
BRANCH   2   5
ATOM      5  C   UNL     1      91.134  92.931  76.689  1.00  0.00     0.032 C 
BRANCH   5   6
ATOM      6  C   UNL     1      90.035  93.751  76.003  1.00  0.00     0.003 C 
BRANCH   6   7
ATOM      7  C   UNL     1      89.165  92.923  75.052  1.00  0.00    -0.000 C 
BRANCH   7   8
ATOM      8  C   UNL     1      89.956  92.239  73.938  1.00  0.00    -0.003 C 
ATOM      9  C   UNL     1      89.147  91.128  73.287  1.00  0.00     0.004 C 
ENDBRANCH   7   8
ENDBRANCH   6   7
ENDBRANCH   5   6
ENDBRANCH   2   5
ENDBRANCH   1   2
BRANCH   1  10
ATOM     10  C   UNL     1      92.986  95.776  76.768  1.00  0.00     0.135 C 
ATOM     11  O   UNL     1      92.843  96.660  75.922  1.00  0.00    -0.300 OA
BRANCH  10  12
ATOM     12  C   UNL     1      94.347  95.195  77.118  1.00  0.00     0.080 C 
BRANCH  12  13
ATOM     13  C   UNL     1      95.141  96.045  78.111  1.00  0.00     0.043 C 
BRANCH  13  14
ATOM     14  C   UNL     1      95.278  95.396  79.468  1.00  0.00    -0.044 A 
ATOM     15  C   UNL     1      95.776  96.129  80.545  1.00  0.00     0.054 A 
ATOM     16  C   UNL     1      94.905  94.063  79.644  1.00  0.00     0.008 A 
ATOM     17  C   UNL     1      95.901  95.529  81.798  1.00  0.00     0.160 A 
ATOM     18  C   UNL     1      95.030  93.463  80.897  1.00  0.00     0.050 A 
ATOM     19  C   UNL     1      95.528  94.196  81.974  1.00  0.00     0.157 A 
BRANCH  17  20
ATOM     20  O   UNL     1      96.389  96.255  82.843  1.00  0.00    -0.493 OA
ATOM     21  C   UNL     1      95.666  97.428  83.211  1.00  0.00     0.278 C 
ENDBRANCH  17  20
BRANCH  19  22
ATOM     22  O   UNL     1      95.646  93.599  83.193  1.00  0.00    -0.504 OA
ATOM     23  H   UNL     1      96.536  93.771  83.545  1.00  0.00     0.293 HD
ENDBRANCH  19  22
ENDBRANCH  13  14
ENDBRANCH  12  13
ENDBRANCH  10  12
ENDBRANCH   1  10
TORSDOF 12
ENDMDL
MODEL 3
REMARK VINA RESULT:    -5.857     23.030     25.687
REMARK INTER + INTRA:         -10.392
REMARK INTER:                  -8.892
REMARK INTRA:                  -1.500
REMARK UNBOUND:                -0.769
REMARK SMILES CCCCC[C@H](O)CC(=O)CCc1ccc(O)c(OC)c1
REMARK SMILES IDX 8 1 6 2 7 3 5 5 4 6 3 7 2 8 1 9 9 10 10 11 11 12 12 13 13 14
REMARK SMILES IDX 21 15 14 16 18 17 15 18 16 19 19 20 20 21 17 22
REMARK H PARENT 7 4 17 23
REMARK Flexibility Score: inf
ROOT
ATOM      1  C   UNL     1      93.943  94.037  78.480  1.00  0.00     0.107 C 
ENDROOT
BRANCH   1   2
ATOM      2  C   UNL     1      94.324  94.314  79.936  1.00  0.00     0.121 C 
BRANCH   2   3
ATOM      3  O   UNL     1      93.731  93.335  80.786  1.00  0.00    -0.393 OA
ATOM      4  H   UNL     1      94.355  93.152  81.510  1.00  0.00     0.210 HD
ENDBRANCH   2   3
BRANCH   2   5
ATOM      5  C   UNL     1      95.840  94.330  80.166  1.00  0.00     0.032 C 
BRANCH   5   6
ATOM      6  C   UNL     1      96.392  95.757  80.271  1.00  0.00     0.003 C 
BRANCH   6   7
ATOM      7  C   UNL     1      95.350  96.835  79.957  1.00  0.00    -0.000 C 
BRANCH   7   8
ATOM      8  C   UNL     1      95.769  97.785  78.837  1.00  0.00    -0.003 C 
ATOM      9  C   UNL     1      97.227  98.197  78.976  1.00  0.00     0.004 C 
ENDBRANCH   7   8
ENDBRANCH   6   7
ENDBRANCH   5   6
ENDBRANCH   2   5
ENDBRANCH   1   2
BRANCH   1  10
ATOM     10  C   UNL     1      92.479  94.322  78.183  1.00  0.00     0.135 C 
ATOM     11  O   UNL     1      91.605  94.067  79.011  1.00  0.00    -0.300 OA
BRANCH  10  12
ATOM     12  C   UNL     1      92.169  94.972  76.844  1.00  0.00     0.080 C 
BRANCH  12  13
ATOM     13  C   UNL     1      92.201  96.501  76.880  1.00  0.00     0.043 C 
BRANCH  13  14
ATOM     14  C   UNL     1      93.268  97.092  75.990  1.00  0.00    -0.044 A 
ATOM     15  C   UNL     1      93.049  98.315  75.355  1.00  0.00     0.054 A 
ATOM     16  C   UNL     1      94.474  96.415  75.803  1.00  0.00     0.008 A 
ATOM     17  C   UNL     1      94.036  98.860  74.534  1.00  0.00     0.160 A 
ATOM     18  C   UNL     1      95.461  96.961  74.982  1.00  0.00     0.050 A 
ATOM     19  C   UNL     1      95.242  98.183  74.347  1.00  0.00     0.157 A 
BRANCH  17  20
ATOM     20  O   UNL     1      93.811 100.055  73.919  1.00  0.00    -0.493 OA
ATOM     21  C   UNL     1      92.548 100.225  73.277  1.00  0.00     0.278 C 
ENDBRANCH  17  20
BRANCH  19  22
ATOM     22  O   UNL     1      96.213  98.706  73.548  1.00  0.00    -0.504 OA
ATOM     23  H   UNL     1      95.822  99.396  72.985  1.00  0.00     0.293 HD
ENDBRANCH  19  22
ENDBRANCH  13  14
ENDBRANCH  12  13
ENDBRANCH  10  12
ENDBRANCH   1  10
TORSDOF 12
ENDMDL
MODEL 4
REMARK VINA RESULT:    -5.837      1.677      2.995
REMARK INTER + INTRA:         -10.360
REMARK INTER:                  -8.512
REMARK INTRA:                  -1.848
REMARK UNBOUND:                -0.769
REMARK SMILES CCCCC[C@H](O)CC(=O)CCc1ccc(O)c(OC)c1
REMARK SMILES IDX 8 1 6 2 7 3 5 5 4 6 3 7 2 8 1 9 9 10 10 11 11 12 12 13 13 14
REMARK SMILES IDX 21 15 14 16 18 17 15 18 16 19 19 20 20 21 17 22
REMARK H PARENT 7 4 17 23
REMARK Flexibility Score: inf
ROOT
ATOM      1  C   UNL     1      78.052  84.929  66.819  1.00  0.00     0.107 C 
ENDROOT
BRANCH   1   2
ATOM      2  C   UNL     1      78.104  84.445  68.271  1.00  0.00     0.121 C 
BRANCH   2   3
ATOM      3  O   UNL     1      78.718  85.439  69.089  1.00  0.00    -0.393 OA
ATOM      4  H   UNL     1      78.121  85.619  69.836  1.00  0.00     0.210 HD
ENDBRANCH   2   3
BRANCH   2   5
ATOM      5  C   UNL     1      76.722  84.106  68.840  1.00  0.00     0.032 C 
BRANCH   5   6
ATOM      6  C   UNL     1      76.383  84.951  70.074  1.00  0.00     0.003 C 
BRANCH   6   7
ATOM      7  C   UNL     1      74.971  85.545  70.034  1.00  0.00    -0.000 C 
BRANCH   7   8
ATOM      8  C   UNL     1      74.916  87.019  70.429  1.00  0.00    -0.003 C 
ATOM      9  C   UNL     1      76.186  87.750  70.023  1.00  0.00     0.004 C 
ENDBRANCH   7   8
ENDBRANCH   6   7
ENDBRANCH   5   6
ENDBRANCH   2   5
ENDBRANCH   1   2
BRANCH   1  10
ATOM     10  C   UNL     1      77.382  86.285  66.666  1.00  0.00     0.135 C 
ATOM     11  O   UNL     1      77.928  87.309  67.074  1.00  0.00    -0.300 OA
BRANCH  10  12
ATOM     12  C   UNL     1      76.040  86.306  65.950  1.00  0.00     0.080 C 
BRANCH  12  13
ATOM     13  C   UNL     1      75.904  85.233  64.868  1.00  0.00     0.043 C 
BRANCH  13  14
ATOM     14  C   UNL     1      74.920  84.147  65.232  1.00  0.00    -0.044 A 
ATOM     15  C   UNL     1      74.991  82.902  64.608  1.00  0.00     0.054 A 
ATOM     16  C   UNL     1      73.938  84.390  66.194  1.00  0.00     0.008 A 
ATOM     17  C   UNL     1      74.082  81.899  64.946  1.00  0.00     0.160 A 
ATOM     18  C   UNL     1      73.029  83.387  66.532  1.00  0.00     0.050 A 
ATOM     19  C   UNL     1      73.101  82.142  65.908  1.00  0.00     0.157 A 
BRANCH  17  20
ATOM     20  O   UNL     1      74.162  80.687  64.328  1.00  0.00    -0.493 OA
ATOM     21  C   UNL     1      73.517  80.561  63.062  1.00  0.00     0.278 C 
ENDBRANCH  17  20
BRANCH  19  22
ATOM     22  O   UNL     1      72.208  81.171  66.246  1.00  0.00    -0.504 OA
ATOM     23  H   UNL     1      72.056  80.598  65.475  1.00  0.00     0.293 HD
ENDBRANCH  19  22
ENDBRANCH  13  14
ENDBRANCH  12  13
ENDBRANCH  10  12
ENDBRANCH   1  10
TORSDOF 12
ENDMDL
MODEL 5
REMARK VINA RESULT:    -5.782      1.945      6.230
REMARK INTER + INTRA:         -10.270
REMARK INTER:                  -8.174
REMARK INTRA:                  -2.095
REMARK UNBOUND:                -0.769
REMARK SMILES CCCCC[C@H](O)CC(=O)CCc1ccc(O)c(OC)c1
REMARK SMILES IDX 8 1 6 2 7 3 5 5 4 6 3 7 2 8 1 9 9 10 10 11 11 12 12 13 13 14
REMARK SMILES IDX 21 15 14 16 18 17 15 18 16 19 19 20 20 21 17 22
REMARK H PARENT 7 4 17 23
REMARK Flexibility Score: inf
ROOT
ATOM      1  C   UNL     1      73.113  82.181  64.409  1.00  0.00     0.107 C 
ENDROOT
BRANCH   1   2
ATOM      2  C   UNL     1      71.972  81.459  65.130  1.00  0.00     0.121 C 
BRANCH   2   3
ATOM      3  O   UNL     1      72.408  80.172  65.558  1.00  0.00    -0.393 OA
ATOM      4  H   UNL     1      72.056  80.020  66.452  1.00  0.00     0.210 HD
ENDBRANCH   2   3
BRANCH   2   5
ATOM      5  C   UNL     1      71.437  82.239  66.338  1.00  0.00     0.032 C 
BRANCH   5   6
ATOM      6  C   UNL     1      71.685  83.746  66.207  1.00  0.00     0.003 C 
BRANCH   6   7
ATOM      7  C   UNL     1      72.725  84.278  67.199  1.00  0.00    -0.000 C 
BRANCH   7   8
ATOM      8  C   UNL     1      73.301  85.639  66.811  1.00  0.00    -0.003 C 
ATOM      9  C   UNL     1      74.309  85.512  65.680  1.00  0.00     0.004 C 
ENDBRANCH   7   8
ENDBRANCH   6   7
ENDBRANCH   5   6
ENDBRANCH   2   5
ENDBRANCH   1   2
BRANCH   1  10
ATOM     10  C   UNL     1      74.304  81.280  64.127  1.00  0.00     0.135 C 
ATOM     11  O   UNL     1      74.214  80.343  63.333  1.00  0.00    -0.300 OA
BRANCH  10  12
ATOM     12  C   UNL     1      75.604  81.625  64.836  1.00  0.00     0.080 C 
BRANCH  12  13
ATOM     13  C   UNL     1      75.465  81.737  66.355  1.00  0.00     0.043 C 
BRANCH  13  14
ATOM     14  C   UNL     1      76.367  82.788  66.957  1.00  0.00    -0.044 A 
ATOM     15  C   UNL     1      76.032  83.384  68.173  1.00  0.00     0.054 A 
ATOM     16  C   UNL     1      77.537  83.163  66.295  1.00  0.00     0.008 A 
ATOM     17  C   UNL     1      76.867  84.354  68.727  1.00  0.00     0.160 A 
ATOM     18  C   UNL     1      78.372  84.133  66.850  1.00  0.00     0.050 A 
ATOM     19  C   UNL     1      78.037  84.729  68.066  1.00  0.00     0.157 A 
BRANCH  17  20
ATOM     20  O   UNL     1      76.529  84.929  69.915  1.00  0.00    -0.493 OA
ATOM     21  C   UNL     1      75.237  85.527  70.001  1.00  0.00     0.278 C 
ENDBRANCH  17  20
BRANCH  19  22
ATOM     22  O   UNL     1      78.860  85.674  68.598  1.00  0.00    -0.504 OA
ATOM     23  H   UNL     1      79.026  85.461  69.532  1.00  0.00     0.293 HD
ENDBRANCH  19  22
ENDBRANCH  13  14
ENDBRANCH  12  13
ENDBRANCH  10  12
ENDBRANCH   1  10
TORSDOF 12
ENDMDL
MODEL 6
REMARK VINA RESULT:    -5.584     11.635     14.539
REMARK INTER + INTRA:          -9.944
REMARK INTER:                  -7.761
REMARK INTRA:                  -2.183
REMARK UNBOUND:                -0.769
REMARK SMILES CCCCC[C@H](O)CC(=O)CCc1ccc(O)c(OC)c1
REMARK SMILES IDX 8 1 6 2 7 3 5 5 4 6 3 7 2 8 1 9 9 10 10 11 11 12 12 13 13 14
REMARK SMILES IDX 21 15 14 16 18 17 15 18 16 19 19 20 20 21 17 22
REMARK H PARENT 7 4 17 23
REMARK Flexibility Score: inf
ROOT
ATOM      1  C   UNL     1      64.637  84.552  69.584  1.00  0.00     0.107 C 
ENDROOT
BRANCH   1   2
ATOM      2  C   UNL     1      63.703  85.452  68.770  1.00  0.00     0.121 C 
BRANCH   2   3
ATOM      3  O   UNL     1      63.923  85.243  67.377  1.00  0.00    -0.393 OA
ATOM      4  H   UNL     1      63.123  85.529  66.903  1.00  0.00     0.210 HD
ENDBRANCH   2   3
BRANCH   2   5
ATOM      5  C   UNL     1      62.221  85.222  69.087  1.00  0.00     0.032 C 
BRANCH   5   6
ATOM      6  C   UNL     1      61.942  85.255  70.595  1.00  0.00     0.003 C 
BRANCH   6   7
ATOM      7  C   UNL     1      60.941  84.188  71.050  1.00  0.00    -0.000 C 
BRANCH   7   8
ATOM      8  C   UNL     1      59.923  84.698  72.068  1.00  0.00    -0.003 C 
ATOM      9  C   UNL     1      58.498  84.520  71.564  1.00  0.00     0.004 C 
ENDBRANCH   7   8
ENDBRANCH   6   7
ENDBRANCH   5   6
ENDBRANCH   2   5
ENDBRANCH   1   2
BRANCH   1  10
ATOM     10  C   UNL     1      64.699  83.128  69.057  1.00  0.00     0.135 C 
ATOM     11  O   UNL     1      65.274  82.868  68.001  1.00  0.00    -0.300 OA
BRANCH  10  12
ATOM     12  C   UNL     1      64.058  82.053  69.922  1.00  0.00     0.080 C 
BRANCH  12  13
ATOM     13  C   UNL     1      64.753  81.853  71.270  1.00  0.00     0.043 C 
BRANCH  13  14
ATOM     14  C   UNL     1      63.872  82.201  72.447  1.00  0.00    -0.044 A 
ATOM     15  C   UNL     1      64.019  83.430  73.089  1.00  0.00     0.054 A 
ATOM     16  C   UNL     1      62.911  81.292  72.891  1.00  0.00     0.008 A 
ATOM     17  C   UNL     1      63.204  83.750  74.176  1.00  0.00     0.160 A 
ATOM     18  C   UNL     1      62.097  81.612  73.977  1.00  0.00     0.050 A 
ATOM     19  C   UNL     1      62.243  82.841  74.619  1.00  0.00     0.157 A 
BRANCH  17  20
ATOM     20  O   UNL     1      63.357  84.954  74.796  1.00  0.00    -0.493 OA
ATOM     21  C   UNL     1      62.855  86.102  74.115  1.00  0.00     0.278 C 
ENDBRANCH  17  20
BRANCH  19  22
ATOM     22  O   UNL     1      61.442  83.143  75.679  1.00  0.00    -0.504 OA
ATOM     23  H   UNL     1      61.652  84.040  75.989  1.00  0.00     0.293 HD
ENDBRANCH  19  22
ENDBRANCH  13  14
ENDBRANCH  12  13
ENDBRANCH  10  12
ENDBRANCH   1  10
TORSDOF 12
ENDMDL
MODEL 7
REMARK VINA RESULT:    -5.548      2.668      6.840
REMARK INTER + INTRA:          -9.885
REMARK INTER:                  -8.500
REMARK INTRA:                  -1.385
REMARK UNBOUND:                -0.769
REMARK SMILES CCCCC[C@H](O)CC(=O)CCc1ccc(O)c(OC)c1
REMARK SMILES IDX 8 1 6 2 7 3 5 5 4 6 3 7 2 8 1 9 9 10 10 11 11 12 12 13 13 14
REMARK SMILES IDX 21 15 14 16 18 17 15 18 16 19 19 20 20 21 17 22
REMARK H PARENT 7 4 17 23
REMARK Flexibility Score: inf
ROOT
ATOM      1  C   UNL     1      76.938  84.807  67.141  1.00  0.00     0.107 C 
ENDROOT
BRANCH   1   2
ATOM      2  C   UNL     1      77.712  84.035  66.070  1.00  0.00     0.121 C 
BRANCH   2   3
ATOM      3  O   UNL     1      78.689  83.201  66.687  1.00  0.00    -0.393 OA
ATOM      4  H   UNL     1      79.265  82.848  65.986  1.00  0.00     0.210 HD
ENDBRANCH   2   3
BRANCH   2   5
ATOM      5  C   UNL     1      76.807  83.176  65.178  1.00  0.00     0.032 C 
BRANCH   5   6
ATOM      6  C   UNL     1      76.775  81.711  65.628  1.00  0.00     0.003 C 
BRANCH   6   7
ATOM      7  C   UNL     1      75.511  81.345  66.413  1.00  0.00    -0.000 C 
BRANCH   7   8
ATOM      8  C   UNL     1      74.218  81.786  65.730  1.00  0.00    -0.003 C 
ATOM      9  C   UNL     1      73.874  80.880  64.557  1.00  0.00     0.004 C 
ENDBRANCH   7   8
ENDBRANCH   6   7
ENDBRANCH   5   6
ENDBRANCH   2   5
ENDBRANCH   1   2
BRANCH   1  10
ATOM     10  C   UNL     1      77.592  84.743  68.512  1.00  0.00     0.135 C 
ATOM     11  O   UNL     1      78.677  85.286  68.721  1.00  0.00    -0.300 OA
BRANCH  10  12
ATOM     12  C   UNL     1      76.818  84.020  69.604  1.00  0.00     0.080 C 
BRANCH  12  13
ATOM     13  C   UNL     1      76.305  84.946  70.709  1.00  0.00     0.043 C 
BRANCH  13  14
ATOM     14  C   UNL     1      75.347  85.998  70.203  1.00  0.00    -0.044 A 
ATOM     15  C   UNL     1      75.740  87.335  70.156  1.00  0.00     0.054 A 
ATOM     16  C   UNL     1      74.068  85.631  69.782  1.00  0.00     0.008 A 
ATOM     17  C   UNL     1      74.855  88.306  69.687  1.00  0.00     0.160 A 
ATOM     18  C   UNL     1      73.183  86.601  69.313  1.00  0.00     0.050 A 
ATOM     19  C   UNL     1      73.576  87.939  69.266  1.00  0.00     0.157 A 
BRANCH  17  20
ATOM     20  O   UNL     1      75.250  89.609  69.647  1.00  0.00    -0.493 OA
ATOM     21  C   UNL     1      75.249  90.325  70.880  1.00  0.00     0.278 C 
ENDBRANCH  17  20
BRANCH  19  22
ATOM     22  O   UNL     1      72.703  88.878  68.807  1.00  0.00    -0.504 OA
ATOM     23  H   UNL     1      72.537  88.721  67.862  1.00  0.00     0.293 HD
ENDBRANCH  19  22
ENDBRANCH  13  14
ENDBRANCH  12  13
ENDBRANCH  10  12
ENDBRANCH   1  10
TORSDOF 12
ENDMDL
MODEL 8
REMARK VINA RESULT:    -5.548      3.728      8.280
REMARK INTER + INTRA:          -9.884
REMARK INTER:                  -8.951
REMARK INTRA:                  -0.932
REMARK UNBOUND:                -0.769
REMARK SMILES CCCCC[C@H](O)CC(=O)CCc1ccc(O)c(OC)c1
REMARK SMILES IDX 8 1 6 2 7 3 5 5 4 6 3 7 2 8 1 9 9 10 10 11 11 12 12 13 13 14
REMARK SMILES IDX 21 15 14 16 18 17 15 18 16 19 19 20 20 21 17 22
REMARK H PARENT 7 4 17 23
REMARK Flexibility Score: inf
ROOT
ATOM      1  C   UNL     1      77.880  86.454  68.031  1.00  0.00     0.107 C 
ENDROOT
BRANCH   1   2
ATOM      2  C   UNL     1      77.925  85.184  67.177  1.00  0.00     0.121 C 
BRANCH   2   3
ATOM      3  O   UNL     1      78.610  84.152  67.882  1.00  0.00    -0.393 OA
ATOM      4  H   UNL     1      78.142  84.004  68.722  1.00  0.00     0.210 HD
ENDBRANCH   2   3
BRANCH   2   5
ATOM      5  C   UNL     1      76.533  84.682  66.774  1.00  0.00     0.032 C 
BRANCH   5   6
ATOM      6  C   UNL     1      76.068  83.510  67.647  1.00  0.00     0.003 C 
BRANCH   6   7
ATOM      7  C   UNL     1      75.755  82.243  66.844  1.00  0.00    -0.000 C 
BRANCH   7   8
ATOM      8  C   UNL     1      76.740  81.981  65.706  1.00  0.00    -0.003 C 
ATOM      9  C   UNL     1      76.028  81.470  64.463  1.00  0.00     0.004 C 
ENDBRANCH   7   8
ENDBRANCH   6   7
ENDBRANCH   5   6
ENDBRANCH   2   5
ENDBRANCH   1   2
BRANCH   1  10
ATOM     10  C   UNL     1      77.409  86.199  69.453  1.00  0.00     0.135 C 
ATOM     11  O   UNL     1      78.015  85.422  70.191  1.00  0.00    -0.300 OA
BRANCH  10  12
ATOM     12  C   UNL     1      76.191  86.982  69.919  1.00  0.00     0.080 C 
BRANCH  12  13
ATOM     13  C   UNL     1      76.384  88.499  69.881  1.00  0.00     0.043 C 
BRANCH  13  14
ATOM     14  C   UNL     1      75.368  89.246  70.712  1.00  0.00    -0.044 A 
ATOM     15  C   UNL     1      74.250  88.580  71.212  1.00  0.00     0.054 A 
ATOM     16  C   UNL     1      75.550  90.603  70.980  1.00  0.00     0.008 A 
ATOM     17  C   UNL     1      73.313  89.271  71.981  1.00  0.00     0.160 A 
ATOM     18  C   UNL     1      74.613  91.294  71.749  1.00  0.00     0.050 A 
ATOM     19  C   UNL     1      73.494  90.628  72.248  1.00  0.00     0.157 A 
BRANCH  17  20
ATOM     20  O   UNL     1      72.224  88.609  72.463  1.00  0.00    -0.493 OA
ATOM     21  C   UNL     1      71.212  88.255  71.523  1.00  0.00     0.278 C 
ENDBRANCH  17  20
BRANCH  19  22
ATOM     22  O   UNL     1      72.586  91.313  72.998  1.00  0.00    -0.504 OA
ATOM     23  H   UNL     1      73.051  91.991  73.517  1.00  0.00     0.293 HD
ENDBRANCH  19  22
ENDBRANCH  13  14
ENDBRANCH  12  13
ENDBRANCH  10  12
ENDBRANCH   1  10
TORSDOF 12
ENDMDL
MODEL 9
REMARK VINA RESULT:    -5.486      2.556      6.739
REMARK INTER + INTRA:          -9.783
REMARK INTER:                  -8.417
REMARK INTRA:                  -1.365
REMARK UNBOUND:                -0.769
REMARK SMILES CCCCC[C@H](O)CC(=O)CCc1ccc(O)c(OC)c1
REMARK SMILES IDX 8 1 6 2 7 3 5 5 4 6 3 7 2 8 1 9 9 10 10 11 11 12 12 13 13 14
REMARK SMILES IDX 21 15 14 16 18 17 15 18 16 19 19 20 20 21 17 22
REMARK H PARENT 7 4 17 23
REMARK Flexibility Score: inf
ROOT
ATOM      1  C   UNL     1      76.953  84.777  66.618  1.00  0.00     0.107 C 
ENDROOT
BRANCH   1   2
ATOM      2  C   UNL     1      77.503  83.719  65.658  1.00  0.00     0.121 C 
BRANCH   2   3
ATOM      3  O   UNL     1      78.260  82.754  66.385  1.00  0.00    -0.393 OA
ATOM      4  H   UNL     1      78.044  81.875  66.026  1.00  0.00     0.210 HD
ENDBRANCH   2   3
BRANCH   2   5
ATOM      5  C   UNL     1      76.406  83.004  64.860  1.00  0.00     0.032 C 
BRANCH   5   6
ATOM      6  C   UNL     1      76.163  81.577  65.365  1.00  0.00     0.003 C 
BRANCH   6   7
ATOM      7  C   UNL     1      75.023  81.481  66.385  1.00  0.00    -0.000 C 
BRANCH   7   8
ATOM      8  C   UNL     1      73.712  82.094  65.897  1.00  0.00    -0.003 C 
ATOM      9  C   UNL     1      72.823  81.051  65.239  1.00  0.00     0.004 C 
ENDBRANCH   7   8
ENDBRANCH   6   7
ENDBRANCH   5   6
ENDBRANCH   2   5
ENDBRANCH   1   2
BRANCH   1  10
ATOM     10  C   UNL     1      77.505  84.647  68.028  1.00  0.00     0.135 C 
ATOM     11  O   UNL     1      78.659  84.988  68.289  1.00  0.00    -0.300 OA
BRANCH  10  12
ATOM     12  C   UNL     1      76.550  84.123  69.089  1.00  0.00     0.080 C 
BRANCH  12  13
ATOM     13  C   UNL     1      76.510  84.978  70.357  1.00  0.00     0.043 C 
BRANCH  13  14
ATOM     14  C   UNL     1      75.729  86.259  70.182  1.00  0.00    -0.044 A 
ATOM     15  C   UNL     1      74.336  86.225  70.124  1.00  0.00     0.054 A 
ATOM     16  C   UNL     1      76.402  87.477  70.080  1.00  0.00     0.008 A 
ATOM     17  C   UNL     1      73.615  87.408  69.963  1.00  0.00     0.160 A 
ATOM     18  C   UNL     1      75.681  88.661  69.920  1.00  0.00     0.050 A 
ATOM     19  C   UNL     1      74.288  88.626  69.861  1.00  0.00     0.157 A 
BRANCH  17  20
ATOM     20  O   UNL     1      72.255  87.362  69.907  1.00  0.00    -0.493 OA
ATOM     21  C   UNL     1      71.672  86.945  68.673  1.00  0.00     0.278 C 
ENDBRANCH  17  20
BRANCH  19  22
ATOM     22  O   UNL     1      73.596  89.789  69.705  1.00  0.00    -0.504 OA
ATOM     23  H   UNL     1      72.643  89.597  69.742  1.00  0.00     0.293 HD
ENDBRANCH  19  22
ENDBRANCH  13  14
ENDBRANCH  12  13
ENDBRANCH  10  12
ENDBRANCH   1  10
TORSDOF 12
ENDMDL
MODEL 10
REMARK VINA RESULT:    -5.469     21.281     24.807
REMARK INTER + INTRA:          -9.755
REMARK INTER:                  -9.000
REMARK INTRA:                  -0.755
REMARK UNBOUND:                -0.769
REMARK SMILES CCCCC[C@H](O)CC(=O)CCc1ccc(O)c(OC)c1
REMARK SMILES IDX 8 1 6 2 7 3 5 5 4 6 3 7 2 8 1 9 9 10 10 11 11 12 12 13 13 14
REMARK SMILES IDX 21 15 14 16 18 17 15 18 16 19 19 20 20 21 17 22
REMARK H PARENT 7 4 17 23
REMARK Flexibility Score: inf
ROOT
ATOM      1  C   UNL     1      92.786  99.681  73.870  1.00  0.00     0.107 C 
ENDROOT
BRANCH   1   2
ATOM      2  C   UNL     1      93.549 100.298  72.695  1.00  0.00     0.121 C 
BRANCH   2   3
ATOM      3  O   UNL     1      94.732  99.545  72.438  1.00  0.00    -0.393 OA
ATOM      4  H   UNL     1      94.776  99.379  71.480  1.00  0.00     0.210 HD
ENDBRANCH   2   3
BRANCH   2   5
ATOM      5  C   UNL     1      92.712 100.378  71.412  1.00  0.00     0.032 C 
BRANCH   5   6
ATOM      6  C   UNL     1      91.214 100.207  71.689  1.00  0.00     0.003 C 
BRANCH   6   7
ATOM      7  C   UNL     1      90.463  99.506  70.552  1.00  0.00    -0.000 C 
BRANCH   7   8
ATOM      8  C   UNL     1      89.340  98.589  71.034  1.00  0.00    -0.003 C 
ATOM      9  C   UNL     1      89.634  97.133  70.706  1.00  0.00     0.004 C 
ENDBRANCH   7   8
ENDBRANCH   6   7
ENDBRANCH   5   6
ENDBRANCH   2   5
ENDBRANCH   1   2
BRANCH   1  10
ATOM     10  C   UNL     1      93.393 100.024  75.220  1.00  0.00     0.135 C 
ATOM     11  O   UNL     1      93.278 101.153  75.697  1.00  0.00    -0.300 OA
BRANCH  10  12
ATOM     12  C   UNL     1      94.100  98.897  75.957  1.00  0.00     0.080 C 
BRANCH  12  13
ATOM     13  C   UNL     1      93.725  97.502  75.452  1.00  0.00     0.043 C 
BRANCH  13  14
ATOM     14  C   UNL     1      93.461  96.520  76.568  1.00  0.00    -0.044 A 
ATOM     15  C   UNL     1      94.516  95.793  77.121  1.00  0.00     0.054 A 
ATOM     16  C   UNL     1      92.163  96.340  77.047  1.00  0.00     0.008 A 
ATOM     17  C   UNL     1      94.271  94.886  78.153  1.00  0.00     0.160 A 
ATOM     18  C   UNL     1      91.919  95.434  78.079  1.00  0.00     0.050 A 
ATOM     19  C   UNL     1      92.973  94.706  78.631  1.00  0.00     0.157 A 
BRANCH  17  20
ATOM     20  O   UNL     1      95.309  94.181  78.684  1.00  0.00    -0.493 OA
ATOM     21  C   UNL     1      96.062  94.815  79.717  1.00  0.00     0.278 C 
ENDBRANCH  17  20
BRANCH  19  22
ATOM     22  O   UNL     1      92.723  93.824  79.638  1.00  0.00    -0.504 OA
ATOM     23  H   UNL     1      93.152  92.976  79.431  1.00  0.00     0.293 HD
ENDBRANCH  19  22
ENDBRANCH  13  14
ENDBRANCH  12  13
ENDBRANCH  10  12
ENDBRANCH   1  10
TORSDOF 12
ENDMDL
