MODEL 1
REMARK VINA RESULT:    -6.865      0.000      0.000
REMARK INTER + INTRA:         -12.156
REMARK INTER:                 -10.678
REMARK INTRA:                  -1.478
REMARK UNBOUND:                -1.478
REMARK SMILES CCCCC/C=C/C(=O)CCc1ccc(O)c(OC)c1
REMARK SMILES IDX 6 1 7 2 8 3 9 4 10 5 11 6 12 7 17 8 20 9 15 10 14 11 13 12
REMARK SMILES IDX 18 13 19 14 16 15 5 17 4 18 3 19 2 20 1 21
REMARK H PARENT 16 16
REMARK Flexibility Score: inf
ROOT
ATOM      1  C   UNL     1      92.161  95.706  76.536  1.00  0.00    -0.023 C 
ATOM      2  C   UNL     1      92.751  95.669  75.335  1.00  0.00     0.043 C 
ENDROOT
BRANCH   2   3
ATOM      3  C   UNL     1      93.996  96.449  75.096  1.00  0.00     0.155 C 
ATOM      4  O   UNL     1      93.970  97.583  74.622  1.00  0.00    -0.295 OA
BRANCH   3   5
ATOM      5  C   UNL     1      95.303  95.753  75.418  1.00  0.00     0.085 C 
BRANCH   5   6
ATOM      6  C   UNL     1      95.829  96.166  76.794  1.00  0.00     0.044 C 
BRANCH   6   7
ATOM      7  C   UNL     1      95.574  95.124  77.857  1.00  0.00    -0.044 A 
ATOM      8  C   UNL     1      95.546  94.484  80.170  1.00  0.00     0.160 A 
ATOM      9  C   UNL     1      95.782  95.447  79.188  1.00  0.00     0.054 A 
ATOM     10  C   UNL     1      95.105  93.212  79.808  1.00  0.00     0.157 A 
ATOM     11  C   UNL     1      94.900  92.901  78.463  1.00  0.00     0.050 A 
ATOM     12  C   UNL     1      95.137  93.864  77.481  1.00  0.00     0.008 A 
BRANCH   8  13
ATOM     13  O   UNL     1      95.750  94.800  81.480  1.00  0.00    -0.493 OA
ATOM     14  C   UNL     1      95.807  96.186  81.812  1.00  0.00     0.278 C 
ENDBRANCH   8  13
BRANCH  10  15
ATOM     15  O   UNL     1      94.871  92.264  80.757  1.00  0.00    -0.504 OA
ATOM     16  H   UNL     1      94.285  91.587  80.375  1.00  0.00     0.293 HD
ENDBRANCH  10  15
ENDBRANCH   6   7
ENDBRANCH   5   6
ENDBRANCH   3   5
ENDBRANCH   2   3
BRANCH   1  17
ATOM     17  C   UNL     1      90.905  94.948  76.856  1.00  0.00     0.027 C 
BRANCH  17  18
ATOM     18  C   UNL     1      91.161  93.678  77.674  1.00  0.00     0.004 C 
BRANCH  18  19
ATOM     19  C   UNL     1      90.535  92.419  77.064  1.00  0.00     0.000 C 
BRANCH  19  20
ATOM     20  C   UNL     1      91.178  92.079  75.719  1.00  0.00    -0.003 C 
ATOM     21  C   UNL     1      90.749  90.706  75.228  1.00  0.00     0.004 C 
ENDBRANCH  19  20
ENDBRANCH  18  19
ENDBRANCH  17  18
ENDBRANCH   1  17
TORSDOF 10
ENDMDL
MODEL 2
REMARK VINA RESULT:    -5.900      1.662      4.846
REMARK INTER + INTRA:         -10.654
REMARK INTER:                  -9.730
REMARK INTRA:                  -0.923
REMARK UNBOUND:                -1.478
REMARK SMILES CCCCC/C=C/C(=O)CCc1ccc(O)c(OC)c1
REMARK SMILES IDX 6 1 7 2 8 3 9 4 10 5 11 6 12 7 17 8 20 9 15 10 14 11 13 12
REMARK SMILES IDX 18 13 19 14 16 15 5 17 4 18 3 19 2 20 1 21
REMARK H PARENT 16 16
REMARK Flexibility Score: inf
ROOT
ATOM      1  C   UNL     1      92.363  93.966  77.824  1.00  0.00    -0.023 C 
ATOM      2  C   UNL     1      92.962  93.113  78.664  1.00  0.00     0.043 C 
ENDROOT
BRANCH   2   3
ATOM      3  C   UNL     1      94.400  93.293  79.004  1.00  0.00     0.155 C 
ATOM      4  O   UNL     1      94.809  93.206  80.160  1.00  0.00    -0.295 OA
BRANCH   3   5
ATOM      5  C   UNL     1      95.327  93.641  77.856  1.00  0.00     0.085 C 
BRANCH   5   6
ATOM      6  C   UNL     1      95.607  95.144  77.805  1.00  0.00     0.044 C 
BRANCH   6   7
ATOM      7  C   UNL     1      95.564  95.702  76.402  1.00  0.00    -0.044 A 
ATOM      8  C   UNL     1      96.315  97.309  74.785  1.00  0.00     0.160 A 
ATOM      9  C   UNL     1      96.355  96.794  76.082  1.00  0.00     0.054 A 
ATOM     10  C   UNL     1      95.486  96.726  73.828  1.00  0.00     0.157 A 
ATOM     11  C   UNL     1      94.695  95.627  74.167  1.00  0.00     0.050 A 
ATOM     12  C   UNL     1      94.735  95.112  75.463  1.00  0.00     0.008 A 
BRANCH   8  13
ATOM     13  O   UNL     1      97.092  98.382  74.467  1.00  0.00    -0.493 OA
ATOM     14  C   UNL     1      96.680  99.652  74.969  1.00  0.00     0.278 C 
ENDBRANCH   8  13
BRANCH  10  15
ATOM     15  O   UNL     1      95.439  97.219  72.559  1.00  0.00    -0.504 OA
ATOM     16  H   UNL     1      96.341  97.468  72.295  1.00  0.00     0.293 HD
ENDBRANCH  10  15
ENDBRANCH   6   7
ENDBRANCH   5   6
ENDBRANCH   3   5
ENDBRANCH   2   3
BRANCH   1  17
ATOM     17  C   UNL     1      90.919  93.853  77.431  1.00  0.00     0.027 C 
BRANCH  17  18
ATOM     18  C   UNL     1      90.578  92.512  76.773  1.00  0.00     0.004 C 
BRANCH  18  19
ATOM     19  C   UNL     1      91.452  92.184  75.559  1.00  0.00     0.000 C 
BRANCH  19  20
ATOM     20  C   UNL     1      90.958  90.923  74.848  1.00  0.00    -0.003 C 
ATOM     21  C   UNL     1      89.494  91.042  74.456  1.00  0.00     0.004 C 
ENDBRANCH  19  20
ENDBRANCH  18  19
ENDBRANCH  17  18
ENDBRANCH   1  17
TORSDOF 10
ENDMDL
MODEL 3
REMARK VINA RESULT:    -5.586      2.424      6.461
REMARK INTER + INTRA:         -10.166
REMARK INTER:                  -8.801
REMARK INTRA:                  -1.365
REMARK UNBOUND:                -1.478
REMARK SMILES CCCCC/C=C/C(=O)CCc1ccc(O)c(OC)c1
REMARK SMILES IDX 6 1 7 2 8 3 9 4 10 5 11 6 12 7 17 8 20 9 15 10 14 11 13 12
REMARK SMILES IDX 18 13 19 14 16 15 5 17 4 18 3 19 2 20 1 21
REMARK H PARENT 16 16
REMARK Flexibility Score: inf
ROOT
ATOM      1  C   UNL     1      94.345  93.801  78.718  1.00  0.00    -0.023 C 
ATOM      2  C   UNL     1      93.265  93.196  78.211  1.00  0.00     0.043 C 
ENDROOT
BRANCH   2   3
ATOM      3  C   UNL     1      92.096  94.007  77.774  1.00  0.00     0.155 C 
ATOM      4  O   UNL     1      90.947  93.573  77.831  1.00  0.00    -0.295 OA
BRANCH   3   5
ATOM      5  C   UNL     1      92.401  95.379  77.205  1.00  0.00     0.085 C 
BRANCH   5   6
ATOM      6  C   UNL     1      92.764  95.297  75.721  1.00  0.00     0.044 C 
BRANCH   6   7
ATOM      7  C   UNL     1      93.903  96.213  75.343  1.00  0.00    -0.044 A 
ATOM      8  C   UNL     1      94.746  98.051  74.051  1.00  0.00     0.160 A 
ATOM      9  C   UNL     1      93.693  97.205  74.399  1.00  0.00     0.054 A 
ATOM     10  C   UNL     1      95.995  97.894  74.651  1.00  0.00     0.157 A 
ATOM     11  C   UNL     1      96.191  96.890  75.600  1.00  0.00     0.050 A 
ATOM     12  C   UNL     1      95.138  96.044  75.948  1.00  0.00     0.008 A 
BRANCH   8  13
ATOM     13  O   UNL     1      94.541  99.028  73.123  1.00  0.00    -0.493 OA
ATOM     14  C   UNL     1      93.226  99.144  72.584  1.00  0.00     0.278 C 
ENDBRANCH   8  13
BRANCH  10  15
ATOM     15  O   UNL     1      97.031  98.715  74.320  1.00  0.00    -0.504 OA
ATOM     16  H   UNL     1      97.022  98.843  73.356  1.00  0.00     0.293 HD
ENDBRANCH  10  15
ENDBRANCH   6   7
ENDBRANCH   5   6
ENDBRANCH   3   5
ENDBRANCH   2   3
BRANCH   1  17
ATOM     17  C   UNL     1      95.563  93.055  79.182  1.00  0.00     0.027 C 
BRANCH  17  18
ATOM     18  C   UNL     1      96.605  93.959  79.848  1.00  0.00     0.004 C 
BRANCH  18  19
ATOM     19  C   UNL     1      96.773  95.315  79.157  1.00  0.00     0.000 C 
BRANCH  19  20
ATOM     20  C   UNL     1      96.811  96.454  80.177  1.00  0.00    -0.003 C 
ATOM     21  C   UNL     1      95.807  96.231  81.297  1.00  0.00     0.004 C 
ENDBRANCH  19  20
ENDBRANCH  18  19
ENDBRANCH  17  18
ENDBRANCH   1  17
TORSDOF 10
ENDMDL
MODEL 4
REMARK VINA RESULT:    -5.554      2.503      4.922
REMARK INTER + INTRA:         -10.116
REMARK INTER:                  -8.627
REMARK INTRA:                  -1.489
REMARK UNBOUND:                -1.478
REMARK SMILES CCCCC/C=C/C(=O)CCc1ccc(O)c(OC)c1
REMARK SMILES IDX 6 1 7 2 8 3 9 4 10 5 11 6 12 7 17 8 20 9 15 10 14 11 13 12
REMARK SMILES IDX 18 13 19 14 16 15 5 17 4 18 3 19 2 20 1 21
REMARK H PARENT 16 16
REMARK Flexibility Score: inf
ROOT
ATOM      1  C   UNL     1      93.183  93.322  78.565  1.00  0.00    -0.023 C 
ATOM      2  C   UNL     1      94.474  92.976  78.640  1.00  0.00     0.043 C 
ENDROOT
BRANCH   2   3
ATOM      3  C   UNL     1      95.188  93.053  79.944  1.00  0.00     0.155 C 
ATOM      4  O   UNL     1      94.836  92.388  80.916  1.00  0.00    -0.295 OA
BRANCH   3   5
ATOM      5  C   UNL     1      96.340  94.035  80.027  1.00  0.00     0.085 C 
BRANCH   5   6
ATOM      6  C   UNL     1      95.840  95.480  80.013  1.00  0.00     0.044 C 
BRANCH   6   7
ATOM      7  C   UNL     1      96.520  96.326  78.963  1.00  0.00    -0.044 A 
ATOM      8  C   UNL     1      97.897  98.205  78.385  1.00  0.00     0.160 A 
ATOM      9  C   UNL     1      97.269  97.424  79.356  1.00  0.00     0.054 A 
ATOM     10  C   UNL     1      97.768  97.879  77.036  1.00  0.00     0.157 A 
ATOM     11  C   UNL     1      97.010  96.770  76.656  1.00  0.00     0.050 A 
ATOM     12  C   UNL     1      96.382  95.989  77.626  1.00  0.00     0.008 A 
BRANCH   8  13
ATOM     13  O   UNL     1      98.633  99.285  78.769  1.00  0.00    -0.493 OA
ATOM     14  C   UNL     1      97.916 100.457  79.152  1.00  0.00     0.278 C 
ENDBRANCH   8  13
BRANCH  10  15
ATOM     15  O   UNL     1      98.377  98.634  76.079  1.00  0.00    -0.504 OA
ATOM     16  H   UNL     1      99.129  99.096  76.488  1.00  0.00     0.293 HD
ENDBRANCH  10  15
ENDBRANCH   6   7
ENDBRANCH   5   6
ENDBRANCH   3   5
ENDBRANCH   2   3
BRANCH   1  17
ATOM     17  C   UNL     1      92.393  93.273  77.289  1.00  0.00     0.027 C 
BRANCH  17  18
ATOM     18  C   UNL     1      91.752  94.617  76.926  1.00  0.00     0.004 C 
BRANCH  18  19
ATOM     19  C   UNL     1      92.727  95.798  76.986  1.00  0.00     0.000 C 
BRANCH  19  20
ATOM     20  C   UNL     1      93.190  96.202  75.585  1.00  0.00    -0.003 C 
ATOM     21  C   UNL     1      94.051  95.122  74.950  1.00  0.00     0.004 C 
ENDBRANCH  19  20
ENDBRANCH  18  19
ENDBRANCH  17  18
ENDBRANCH   1  17
TORSDOF 10
ENDMDL
MODEL 5
REMARK VINA RESULT:    -5.199     12.248     14.631
REMARK INTER + INTRA:          -9.564
REMARK INTER:                  -9.082
REMARK INTRA:                  -0.482
REMARK UNBOUND:                -1.478
REMARK SMILES CCCCC/C=C/C(=O)CCc1ccc(O)c(OC)c1
REMARK SMILES IDX 6 1 7 2 8 3 9 4 10 5 11 6 12 7 17 8 20 9 15 10 14 11 13 12
REMARK SMILES IDX 18 13 19 14 16 15 5 17 4 18 3 19 2 20 1 21
REMARK H PARENT 16 16
REMARK Flexibility Score: inf
ROOT
ATOM      1  C   UNL     1      96.974  81.326  80.033  1.00  0.00    -0.023 C 
ATOM      2  C   UNL     1      97.044  81.739  81.304  1.00  0.00     0.043 C 
ENDROOT
BRANCH   2   3
ATOM      3  C   UNL     1      96.346  80.974  82.373  1.00  0.00     0.155 C 
ATOM      4  O   UNL     1      96.383  79.747  82.422  1.00  0.00    -0.295 OA
BRANCH   3   5
ATOM      5  C   UNL     1      95.540  81.785  83.369  1.00  0.00     0.085 C 
BRANCH   5   6
ATOM      6  C   UNL     1      94.735  80.879  84.301  1.00  0.00     0.044 C 
BRANCH   6   7
ATOM      7  C   UNL     1      93.642  81.616  85.038  1.00  0.00    -0.044 A 
ATOM      8  C   UNL     1      91.310  81.952  85.494  1.00  0.00     0.160 A 
ATOM      9  C   UNL     1      92.319  81.271  84.813  1.00  0.00     0.054 A 
ATOM     10  C   UNL     1      91.636  82.970  86.390  1.00  0.00     0.157 A 
ATOM     11  C   UNL     1      92.974  83.306  86.605  1.00  0.00     0.050 A 
ATOM     12  C   UNL     1      93.983  82.625  85.925  1.00  0.00     0.008 A 
BRANCH   8  13
ATOM     13  O   UNL     1      90.008  81.614  85.274  1.00  0.00    -0.493 OA
ATOM     14  C   UNL     1      89.763  80.498  84.420  1.00  0.00     0.278 C 
ENDBRANCH   8  13
BRANCH  10  15
ATOM     15  O   UNL     1      90.660  83.642  87.061  1.00  0.00    -0.504 OA
ATOM     16  H   UNL     1      89.798  83.360  86.709  1.00  0.00     0.293 HD
ENDBRANCH  10  15
ENDBRANCH   6   7
ENDBRANCH   5   6
ENDBRANCH   3   5
ENDBRANCH   2   3
BRANCH   1  17
ATOM     17  C   UNL     1      97.649  82.041  78.899  1.00  0.00     0.027 C 
BRANCH  17  18
ATOM     18  C   UNL     1      96.971  81.800  77.546  1.00  0.00     0.004 C 
BRANCH  18  19
ATOM     19  C   UNL     1      95.769  82.715  77.290  1.00  0.00     0.000 C 
BRANCH  19  20
ATOM     20  C   UNL     1      95.928  83.478  75.974  1.00  0.00    -0.003 C 
ATOM     21  C   UNL     1      96.714  82.670  74.953  1.00  0.00     0.004 C 
ENDBRANCH  19  20
ENDBRANCH  18  19
ENDBRANCH  17  18
ENDBRANCH   1  17
TORSDOF 10
ENDMDL
MODEL 6
REMARK VINA RESULT:    -5.173      3.738      5.848
REMARK INTER + INTRA:          -9.524
REMARK INTER:                  -8.793
REMARK INTRA:                  -0.730
REMARK UNBOUND:                -1.478
REMARK SMILES CCCCC/C=C/C(=O)CCc1ccc(O)c(OC)c1
REMARK SMILES IDX 6 1 7 2 8 3 9 4 10 5 11 6 12 7 17 8 20 9 15 10 14 11 13 12
REMARK SMILES IDX 18 13 19 14 16 15 5 17 4 18 3 19 2 20 1 21
REMARK H PARENT 16 16
REMARK Flexibility Score: inf
ROOT
ATOM      1  C   UNL     1      93.632  99.541  72.809  1.00  0.00    -0.023 C 
ATOM      2  C   UNL     1      93.790  98.214  72.891  1.00  0.00     0.043 C 
ENDROOT
BRANCH   2   3
ATOM      3  C   UNL     1      95.011  97.651  73.530  1.00  0.00     0.155 C 
ATOM      4  O   UNL     1      96.133  98.087  73.282  1.00  0.00    -0.295 OA
BRANCH   3   5
ATOM      5  C   UNL     1      94.803  96.476  74.465  1.00  0.00     0.085 C 
BRANCH   5   6
ATOM      6  C   UNL     1      93.447  96.556  75.167  1.00  0.00     0.044 C 
BRANCH   6   7
ATOM      7  C   UNL     1      93.263  95.485  76.216  1.00  0.00    -0.044 A 
ATOM      8  C   UNL     1      92.064  93.580  77.046  1.00  0.00     0.160 A 
ATOM      9  C   UNL     1      92.233  94.569  76.077  1.00  0.00     0.054 A 
ATOM     10  C   UNL     1      92.926  93.520  78.140  1.00  0.00     0.157 A 
ATOM     11  C   UNL     1      93.959  94.451  78.266  1.00  0.00     0.050 A 
ATOM     12  C   UNL     1      94.127  95.440  77.297  1.00  0.00     0.008 A 
BRANCH   8  13
ATOM     13  O   UNL     1      91.052  92.677  76.912  1.00  0.00    -0.493 OA
ATOM     14  C   UNL     1      91.064  91.858  75.745  1.00  0.00     0.278 C 
ENDBRANCH   8  13
BRANCH  10  15
ATOM     15  O   UNL     1      92.772  92.559  79.093  1.00  0.00    -0.504 OA
ATOM     16  H   UNL     1      92.738  92.993  79.963  1.00  0.00     0.293 HD
ENDBRANCH  10  15
ENDBRANCH   6   7
ENDBRANCH   5   6
ENDBRANCH   3   5
ENDBRANCH   2   3
BRANCH   1  17
ATOM     17  C   UNL     1      92.431 100.186  72.180  1.00  0.00     0.027 C 
BRANCH  17  18
ATOM     18  C   UNL     1      92.381 100.008  70.659  1.00  0.00     0.004 C 
BRANCH  18  19
ATOM     19  C   UNL     1      91.006 100.307  70.051  1.00  0.00     0.000 C 
BRANCH  19  20
ATOM     20  C   UNL     1      89.912  99.483  70.730  1.00  0.00    -0.003 C 
ATOM     21  C   UNL     1      89.811  98.089  70.130  1.00  0.00     0.004 C 
ENDBRANCH  19  20
ENDBRANCH  18  19
ENDBRANCH  17  18
ENDBRANCH   1  17
TORSDOF 10
ENDMDL
MODEL 7
REMARK VINA RESULT:    -5.173     21.389     24.961
REMARK INTER + INTRA:          -9.523
REMARK INTER:                  -8.540
REMARK INTRA:                  -0.984
REMARK UNBOUND:                -1.478
REMARK SMILES CCCCC/C=C/C(=O)CCc1ccc(O)c(OC)c1
REMARK SMILES IDX 6 1 7 2 8 3 9 4 10 5 11 6 12 7 17 8 20 9 15 10 14 11 13 12
REMARK SMILES IDX 18 13 19 14 16 15 5 17 4 18 3 19 2 20 1 21
REMARK H PARENT 16 16
REMARK Flexibility Score: inf
ROOT
ATOM      1  C   UNL     1      74.178  81.741  63.472  1.00  0.00    -0.023 C 
ATOM      2  C   UNL     1      74.598  82.580  64.427  1.00  0.00     0.043 C 
ENDROOT
BRANCH   2   3
ATOM      3  C   UNL     1      76.015  82.541  64.879  1.00  0.00     0.155 C 
ATOM      4  O   UNL     1      76.577  81.485  65.164  1.00  0.00    -0.295 OA
BRANCH   3   5
ATOM      5  C   UNL     1      76.716  83.878  65.021  1.00  0.00     0.085 C 
BRANCH   5   6
ATOM      6  C   UNL     1      77.218  84.093  66.450  1.00  0.00     0.044 C 
BRANCH   6   7
ATOM      7  C   UNL     1      76.635  85.327  67.097  1.00  0.00    -0.044 A 
ATOM      8  C   UNL     1      74.955  86.351  68.472  1.00  0.00     0.160 A 
ATOM      9  C   UNL     1      75.493  85.211  67.873  1.00  0.00     0.054 A 
ATOM     10  C   UNL     1      75.566  87.591  68.286  1.00  0.00     0.157 A 
ATOM     11  C   UNL     1      76.715  87.691  67.501  1.00  0.00     0.050 A 
ATOM     12  C   UNL     1      77.253  86.551  66.903  1.00  0.00     0.008 A 
BRANCH   8  13
ATOM     13  O   UNL     1      73.832  86.240  69.235  1.00  0.00    -0.493 OA
ATOM     14  C   UNL     1      72.588  86.131  68.547  1.00  0.00     0.278 C 
ENDBRANCH   8  13
BRANCH  10  15
ATOM     15  O   UNL     1      75.051  88.711  68.865  1.00  0.00    -0.504 OA
ATOM     16  H   UNL     1      75.465  89.487  68.450  1.00  0.00     0.293 HD
ENDBRANCH  10  15
ENDBRANCH   6   7
ENDBRANCH   5   6
ENDBRANCH   3   5
ENDBRANCH   2   3
BRANCH   1  17
ATOM     17  C   UNL     1      72.767  81.717  62.963  1.00  0.00     0.027 C 
BRANCH  17  18
ATOM     18  C   UNL     1      71.933  80.576  63.554  1.00  0.00     0.004 C 
BRANCH  18  19
ATOM     19  C   UNL     1      71.262  80.932  64.885  1.00  0.00     0.000 C 
BRANCH  19  20
ATOM     20  C   UNL     1      70.508  82.258  64.785  1.00  0.00    -0.003 C 
ATOM     21  C   UNL     1      70.943  83.229  65.871  1.00  0.00     0.004 C 
ENDBRANCH  19  20
ENDBRANCH  18  19
ENDBRANCH  17  18
ENDBRANCH   1  17
TORSDOF 10
ENDMDL
MODEL 8
REMARK VINA RESULT:    -5.167     12.545     15.266
REMARK INTER + INTRA:          -9.515
REMARK INTER:                  -8.404
REMARK INTRA:                  -1.111
REMARK UNBOUND:                -1.478
REMARK SMILES CCCCC/C=C/C(=O)CCc1ccc(O)c(OC)c1
REMARK SMILES IDX 6 1 7 2 8 3 9 4 10 5 11 6 12 7 17 8 20 9 15 10 14 11 13 12
REMARK SMILES IDX 18 13 19 14 16 15 5 17 4 18 3 19 2 20 1 21
REMARK H PARENT 16 16
REMARK Flexibility Score: inf
ROOT
ATOM      1  C   UNL     1      97.373  78.876  80.917  1.00  0.00    -0.023 C 
ATOM      2  C   UNL     1      98.683  78.601  80.951  1.00  0.00     0.043 C 
ENDROOT
BRANCH   2   3
ATOM      3  C   UNL     1      99.468  78.575  79.687  1.00  0.00     0.155 C 
ATOM      4  O   UNL     1     100.624  78.159  79.650  1.00  0.00    -0.295 OA
BRANCH   3   5
ATOM      5  C   UNL     1      98.786  79.138  78.455  1.00  0.00     0.085 C 
BRANCH   5   6
ATOM      6  C   UNL     1      99.270  80.557  78.153  1.00  0.00     0.044 C 
BRANCH   6   7
ATOM      7  C   UNL     1      98.249  81.378  77.402  1.00  0.00    -0.044 A 
ATOM      8  C   UNL     1      97.511  82.412  75.366  1.00  0.00     0.160 A 
ATOM      9  C   UNL     1      98.454  81.654  76.059  1.00  0.00     0.054 A 
ATOM     10  C   UNL     1      96.375  82.884  76.023  1.00  0.00     0.157 A 
ATOM     11  C   UNL     1      96.183  82.598  77.375  1.00  0.00     0.050 A 
ATOM     12  C   UNL     1      97.126  81.840  78.069  1.00  0.00     0.008 A 
BRANCH   8  13
ATOM     13  O   UNL     1      97.710  82.685  74.046  1.00  0.00    -0.493 OA
ATOM     14  C   UNL     1      97.595  81.595  73.134  1.00  0.00     0.278 C 
ENDBRANCH   8  13
BRANCH  10  15
ATOM     15  O   UNL     1      95.446  83.625  75.357  1.00  0.00    -0.504 OA
ATOM     16  H   UNL     1      94.749  83.878  75.986  1.00  0.00     0.293 HD
ENDBRANCH  10  15
ENDBRANCH   6   7
ENDBRANCH   5   6
ENDBRANCH   3   5
ENDBRANCH   2   3
BRANCH   1  17
ATOM     17  C   UNL     1      96.512  78.921  82.145  1.00  0.00     0.027 C 
BRANCH  17  18
ATOM     18  C   UNL     1      96.392  80.326  82.745  1.00  0.00     0.004 C 
BRANCH  18  19
ATOM     19  C   UNL     1      96.648  81.448  81.734  1.00  0.00     0.000 C 
BRANCH  19  20
ATOM     20  C   UNL     1      96.676  82.814  82.422  1.00  0.00    -0.003 C 
ATOM     21  C   UNL     1      95.677  82.883  83.566  1.00  0.00     0.004 C 
ENDBRANCH  19  20
ENDBRANCH  18  19
ENDBRANCH  17  18
ENDBRANCH   1  17
TORSDOF 10
ENDMDL
MODEL 9
REMARK VINA RESULT:    -5.079      2.385      5.099
REMARK INTER + INTRA:          -9.378
REMARK INTER:                  -8.536
REMARK INTRA:                  -0.842
REMARK UNBOUND:                -1.478
REMARK SMILES CCCCC/C=C/C(=O)CCc1ccc(O)c(OC)c1
REMARK SMILES IDX 6 1 7 2 8 3 9 4 10 5 11 6 12 7 17 8 20 9 15 10 14 11 13 12
REMARK SMILES IDX 18 13 19 14 16 15 5 17 4 18 3 19 2 20 1 21
REMARK H PARENT 16 16
REMARK Flexibility Score: inf
ROOT
ATOM      1  C   UNL     1      93.841  93.346  78.314  1.00  0.00    -0.023 C 
ATOM      2  C   UNL     1      95.071  93.088  78.775  1.00  0.00     0.043 C 
ENDROOT
BRANCH   2   3
ATOM      3  C   UNL     1      95.326  93.073  80.241  1.00  0.00     0.155 C 
ATOM      4  O   UNL     1      94.724  92.312  80.997  1.00  0.00    -0.295 OA
BRANCH   3   5
ATOM      5  C   UNL     1      96.328  94.083  80.764  1.00  0.00     0.085 C 
BRANCH   5   6
ATOM      6  C   UNL     1      96.067  95.475  80.187  1.00  0.00     0.044 C 
BRANCH   6   7
ATOM      7  C   UNL     1      97.125  95.910  79.200  1.00  0.00    -0.044 A 
ATOM      8  C   UNL     1      97.737  97.086  77.200  1.00  0.00     0.160 A 
ATOM      9  C   UNL     1      96.759  96.684  78.110  1.00  0.00     0.054 A 
ATOM     10  C   UNL     1      99.066  96.708  77.390  1.00  0.00     0.157 A 
ATOM     11  C   UNL     1      99.418  95.928  78.492  1.00  0.00     0.050 A 
ATOM     12  C   UNL     1      98.440  95.526  79.403  1.00  0.00     0.008 A 
BRANCH   8  13
ATOM     13  O   UNL     1      97.380  97.847  76.127  1.00  0.00    -0.493 OA
ATOM     14  C   UNL     1      97.345  97.201  74.856  1.00  0.00     0.278 C 
ENDBRANCH   8  13
BRANCH  10  15
ATOM     15  O   UNL     1     100.029  97.094  76.508  1.00  0.00    -0.504 OA
ATOM     16  H   UNL     1      99.721  97.896  76.051  1.00  0.00     0.293 HD
ENDBRANCH  10  15
ENDBRANCH   6   7
ENDBRANCH   5   6
ENDBRANCH   3   5
ENDBRANCH   2   3
BRANCH   1  17
ATOM     17  C   UNL     1      93.503  93.380  76.852  1.00  0.00     0.027 C 
BRANCH  17  18
ATOM     18  C   UNL     1      92.012  93.158  76.574  1.00  0.00     0.004 C 
BRANCH  18  19
ATOM     19  C   UNL     1      91.090  93.905  77.543  1.00  0.00     0.000 C 
BRANCH  19  20
ATOM     20  C   UNL     1      90.550  95.189  76.913  1.00  0.00    -0.003 C 
ATOM     21  C   UNL     1      91.510  96.352  77.108  1.00  0.00     0.004 C 
ENDBRANCH  19  20
ENDBRANCH  18  19
ENDBRANCH  17  18
ENDBRANCH   1  17
TORSDOF 10
ENDMDL
MODEL 10
REMARK VINA RESULT:    -5.061     12.594     15.030
REMARK INTER + INTRA:          -9.350
REMARK INTER:                  -8.790
REMARK INTRA:                  -0.560
REMARK UNBOUND:                -1.478
REMARK SMILES CCCCC/C=C/C(=O)CCc1ccc(O)c(OC)c1
REMARK SMILES IDX 6 1 7 2 8 3 9 4 10 5 11 6 12 7 17 8 20 9 15 10 14 11 13 12
REMARK SMILES IDX 18 13 19 14 16 15 5 17 4 18 3 19 2 20 1 21
REMARK H PARENT 16 16
REMARK Flexibility Score: inf
ROOT
ATOM      1  C   UNL     1      97.085  81.975  80.155  1.00  0.00    -0.023 C 
ATOM      2  C   UNL     1      96.894  81.339  81.318  1.00  0.00     0.043 C 
ENDROOT
BRANCH   2   3
ATOM      3  C   UNL     1      96.176  82.022  82.428  1.00  0.00     0.155 C 
ATOM      4  O   UNL     1      96.085  83.247  82.485  1.00  0.00    -0.295 OA
BRANCH   3   5
ATOM      5  C   UNL     1      95.607  81.131  83.515  1.00  0.00     0.085 C 
BRANCH   5   6
ATOM      6  C   UNL     1      94.539  81.862  84.329  1.00  0.00     0.044 C 
BRANCH   6   7
ATOM      7  C   UNL     1      93.411  80.958  84.765  1.00  0.00    -0.044 A 
ATOM      8  C   UNL     1      91.114  80.662  85.395  1.00  0.00     0.160 A 
ATOM      9  C   UNL     1      92.156  81.498  84.993  1.00  0.00     0.054 A 
ATOM     10  C   UNL     1      91.341  79.296  85.564  1.00  0.00     0.157 A 
ATOM     11  C   UNL     1      92.612  78.767  85.332  1.00  0.00     0.050 A 
ATOM     12  C   UNL     1      93.653  79.603  84.930  1.00  0.00     0.008 A 
BRANCH   8  13
ATOM     13  O   UNL     1      89.879  81.191  85.619  1.00  0.00    -0.493 OA
ATOM     14  C   UNL     1      89.197  81.744  84.495  1.00  0.00     0.278 C 
ENDBRANCH   8  13
BRANCH  10  15
ATOM     15  O   UNL     1      90.333  78.470  85.956  1.00  0.00    -0.504 OA
ATOM     16  H   UNL     1      89.542  78.683  85.432  1.00  0.00     0.293 HD
ENDBRANCH  10  15
ENDBRANCH   6   7
ENDBRANCH   5   6
ENDBRANCH   3   5
ENDBRANCH   2   3
BRANCH   1  17
ATOM     17  C   UNL     1      97.799  81.356  78.989  1.00  0.00     0.027 C 
BRANCH  17  18
ATOM     18  C   UNL     1      97.481  82.041  77.656  1.00  0.00     0.004 C 
BRANCH  18  19
ATOM     19  C   UNL     1      96.024  82.500  77.534  1.00  0.00     0.000 C 
BRANCH  19  20
ATOM     20  C   UNL     1      95.839  83.437  76.340  1.00  0.00    -0.003 C 
ATOM     21  C   UNL     1      96.706  83.019  75.163  1.00  0.00     0.004 C 
ENDBRANCH  19  20
ENDBRANCH  18  19
ENDBRANCH  17  18
ENDBRANCH   1  17
TORSDOF 10
ENDMDL
