MODEL 1
REMARK VINA RESULT:    -6.088      0.000      0.000
REMARK INTER + INTRA:         -10.591
REMARK INTER:                  -9.468
REMARK INTRA:                  -1.123
REMARK UNBOUND:                -1.123
REMARK SMILES CCCCC/C=C/C(=O)CCc1ccc(O)c(OC)c1
REMARK SMILES IDX 6 1 7 2 8 3 9 4 10 5 11 6 12 7 17 8 20 9 15 10 14 11 13 12
REMARK SMILES IDX 18 13 19 14 16 15 5 17 4 18 3 19 2 20 1 21
REMARK H PARENT 16 16
REMARK Flexibility Score: inf
ROOT
ATOM      1  C   UNL     1      96.835  96.337  78.079  1.00  0.00    -0.023 C 
ATOM      2  C   UNL     1      97.407  95.134  78.210  1.00  0.00     0.043 C 
ENDROOT
BRANCH   2   3
ATOM      3  C   UNL     1      96.816  94.129  79.136  1.00  0.00     0.155 C 
ATOM      4  O   UNL     1      97.141  94.068  80.320  1.00  0.00    -0.295 OA
BRANCH   3   5
ATOM      5  C   UNL     1      95.831  93.149  78.530  1.00  0.00     0.085 C 
BRANCH   5   6
ATOM      6  C   UNL     1      94.519  93.123  79.317  1.00  0.00     0.044 C 
BRANCH   6   7
ATOM      7  C   UNL     1      93.350  93.664  78.527  1.00  0.00    -0.044 A 
ATOM      8  C   UNL     1      91.117  93.406  77.689  1.00  0.00     0.160 A 
ATOM      9  C   UNL     1      92.196  92.905  78.418  1.00  0.00     0.054 A 
ATOM     10  C   UNL     1      91.206  94.657  77.079  1.00  0.00     0.157 A 
ATOM     11  C   UNL     1      92.376  95.408  77.198  1.00  0.00     0.050 A 
ATOM     12  C   UNL     1      93.455  94.908  77.927  1.00  0.00     0.008 A 
BRANCH   8  13
ATOM     13  O   UNL     1      89.980  92.662  77.580  1.00  0.00    -0.493 OA
ATOM     14  C   UNL     1      89.999  91.581  76.650  1.00  0.00     0.278 C 
ENDBRANCH   8  13
BRANCH  10  15
ATOM     15  O   UNL     1      90.159  95.156  76.366  1.00  0.00    -0.504 OA
ATOM     16  H   UNL     1      89.373  95.160  76.938  1.00  0.00     0.293 HD
ENDBRANCH  10  15
ENDBRANCH   6   7
ENDBRANCH   5   6
ENDBRANCH   3   5
ENDBRANCH   2   3
BRANCH   1  17
ATOM     17  C   UNL     1      97.369  97.404  77.168  1.00  0.00     0.027 C 
BRANCH  17  18
ATOM     18  C   UNL     1      96.829  97.299  75.737  1.00  0.00     0.004 C 
BRANCH  18  19
ATOM     19  C   UNL     1      95.601  96.392  75.610  1.00  0.00     0.000 C 
BRANCH  19  20
ATOM     20  C   UNL     1      94.872  96.633  74.287  1.00  0.00    -0.003 C 
ATOM     21  C   UNL     1      95.756  96.302  73.096  1.00  0.00     0.004 C 
ENDBRANCH  19  20
ENDBRANCH  18  19
ENDBRANCH  17  18
ENDBRANCH   1  17
TORSDOF 10
ENDMDL
MODEL 2
REMARK VINA RESULT:    -5.905      3.096      6.778
REMARK INTER + INTRA:         -10.307
REMARK INTER:                  -9.507
REMARK INTRA:                  -0.799
REMARK UNBOUND:                -1.123
REMARK SMILES CCCCC/C=C/C(=O)CCc1ccc(O)c(OC)c1
REMARK SMILES IDX 6 1 7 2 8 3 9 4 10 5 11 6 12 7 17 8 20 9 15 10 14 11 13 12
REMARK SMILES IDX 18 13 19 14 16 15 5 17 4 18 3 19 2 20 1 21
REMARK H PARENT 16 16
REMARK Flexibility Score: inf
ROOT
ATOM      1  C   UNL     1      92.538  93.317  78.184  1.00  0.00    -0.023 C 
ATOM      2  C   UNL     1      93.689  93.905  78.534  1.00  0.00     0.043 C 
ENDROOT
BRANCH   2   3
ATOM      3  C   UNL     1      94.739  93.121  79.239  1.00  0.00     0.155 C 
ATOM      4  O   UNL     1      94.536  92.604  80.335  1.00  0.00    -0.295 OA
BRANCH   3   5
ATOM      5  C   UNL     1      96.091  93.037  78.558  1.00  0.00     0.085 C 
BRANCH   5   6
ATOM      6  C   UNL     1      96.771  94.406  78.503  1.00  0.00     0.044 C 
BRANCH   6   7
ATOM      7  C   UNL     1      97.105  94.951  79.871  1.00  0.00    -0.044 A 
ATOM      8  C   UNL     1      96.786  96.608  81.578  1.00  0.00     0.160 A 
ATOM      9  C   UNL     1      96.478  96.105  80.314  1.00  0.00     0.054 A 
ATOM     10  C   UNL     1      97.717  95.951  82.383  1.00  0.00     0.157 A 
ATOM     11  C   UNL     1      98.340  94.790  81.923  1.00  0.00     0.050 A 
ATOM     12  C   UNL     1      98.032  94.287  80.659  1.00  0.00     0.008 A 
BRANCH   8  13
ATOM     13  O   UNL     1      96.171  97.743  82.015  1.00  0.00    -0.493 OA
ATOM     14  C   UNL     1      96.716  98.986  81.576  1.00  0.00     0.278 C 
ENDBRANCH   8  13
BRANCH  10  15
ATOM     15  O   UNL     1      98.026  96.432  83.619  1.00  0.00    -0.504 OA
ATOM     16  H   UNL     1      98.520  97.262  83.509  1.00  0.00     0.293 HD
ENDBRANCH  10  15
ENDBRANCH   6   7
ENDBRANCH   5   6
ENDBRANCH   3   5
ENDBRANCH   2   3
BRANCH   1  17
ATOM     17  C   UNL     1      91.431  94.038  77.472  1.00  0.00     0.027 C 
BRANCH  17  18
ATOM     18  C   UNL     1      90.237  93.134  77.146  1.00  0.00     0.004 C 
BRANCH  18  19
ATOM     19  C   UNL     1      90.630  91.815  76.475  1.00  0.00     0.000 C 
BRANCH  19  20
ATOM     20  C   UNL     1      90.076  91.732  75.052  1.00  0.00    -0.003 C 
ATOM     21  C   UNL     1      90.690  90.575  74.282  1.00  0.00     0.004 C 
ENDBRANCH  19  20
ENDBRANCH  18  19
ENDBRANCH  17  18
ENDBRANCH   1  17
TORSDOF 10
ENDMDL
MODEL 3
REMARK VINA RESULT:    -5.864      2.508      6.052
REMARK INTER + INTRA:         -10.244
REMARK INTER:                  -9.270
REMARK INTRA:                  -0.973
REMARK UNBOUND:                -1.123
REMARK SMILES CCCCC/C=C/C(=O)CCc1ccc(O)c(OC)c1
REMARK SMILES IDX 6 1 7 2 8 3 9 4 10 5 11 6 12 7 17 8 20 9 15 10 14 11 13 12
REMARK SMILES IDX 18 13 19 14 16 15 5 17 4 18 3 19 2 20 1 21
REMARK H PARENT 16 16
REMARK Flexibility Score: inf
ROOT
ATOM      1  C   UNL     1      92.441  93.628  77.177  1.00  0.00    -0.023 C 
ATOM      2  C   UNL     1      92.727  93.226  78.422  1.00  0.00     0.043 C 
ENDROOT
BRANCH   2   3
ATOM      3  C   UNL     1      94.135  93.239  78.901  1.00  0.00     0.155 C 
ATOM      4  O   UNL     1      94.436  92.896  80.042  1.00  0.00    -0.295 OA
BRANCH   3   5
ATOM      5  C   UNL     1      95.177  93.748  77.924  1.00  0.00     0.085 C 
BRANCH   5   6
ATOM      6  C   UNL     1      95.668  95.143  78.312  1.00  0.00     0.044 C 
BRANCH   6   7
ATOM      7  C   UNL     1      96.084  95.972  77.120  1.00  0.00    -0.044 A 
ATOM      8  C   UNL     1      95.614  96.843  74.934  1.00  0.00     0.160 A 
ATOM      9  C   UNL     1      95.230  96.076  76.034  1.00  0.00     0.054 A 
ATOM     10  C   UNL     1      96.847  97.495  74.933  1.00  0.00     0.157 A 
ATOM     11  C   UNL     1      97.696  97.380  76.035  1.00  0.00     0.050 A 
ATOM     12  C   UNL     1      97.312  96.613  77.135  1.00  0.00     0.008 A 
BRANCH   8  13
ATOM     13  O   UNL     1      94.776  96.947  73.864  1.00  0.00    -0.493 OA
ATOM     14  C   UNL     1      93.695  97.870  73.975  1.00  0.00     0.278 C 
ENDBRANCH   8  13
BRANCH  10  15
ATOM     15  O   UNL     1      97.233  98.246  73.865  1.00  0.00    -0.504 OA
ATOM     16  H   UNL     1      96.446  98.683  73.498  1.00  0.00     0.293 HD
ENDBRANCH  10  15
ENDBRANCH   6   7
ENDBRANCH   5   6
ENDBRANCH   3   5
ENDBRANCH   2   3
BRANCH   1  17
ATOM     17  C   UNL     1      91.048  93.645  76.619  1.00  0.00     0.027 C 
BRANCH  17  18
ATOM     18  C   UNL     1      90.106  92.663  77.324  1.00  0.00     0.004 C 
BRANCH  18  19
ATOM     19  C   UNL     1      89.909  91.348  76.562  1.00  0.00     0.000 C 
BRANCH  19  20
ATOM     20  C   UNL     1      90.445  91.452  75.134  1.00  0.00    -0.003 C 
ATOM     21  C   UNL     1      89.362  91.157  74.109  1.00  0.00     0.004 C 
ENDBRANCH  19  20
ENDBRANCH  18  19
ENDBRANCH  17  18
ENDBRANCH   1  17
TORSDOF 10
ENDMDL
MODEL 4
REMARK VINA RESULT:    -5.793      2.724      6.384
REMARK INTER + INTRA:         -10.133
REMARK INTER:                  -9.326
REMARK INTRA:                  -0.807
REMARK UNBOUND:                -1.123
REMARK SMILES CCCCC/C=C/C(=O)CCc1ccc(O)c(OC)c1
REMARK SMILES IDX 6 1 7 2 8 3 9 4 10 5 11 6 12 7 17 8 20 9 15 10 14 11 13 12
REMARK SMILES IDX 18 13 19 14 16 15 5 17 4 18 3 19 2 20 1 21
REMARK H PARENT 16 16
REMARK Flexibility Score: inf
ROOT
ATOM      1  C   UNL     1      92.568  93.563  77.686  1.00  0.00    -0.023 C 
ATOM      2  C   UNL     1      93.359  93.233  78.715  1.00  0.00     0.043 C 
ENDROOT
BRANCH   2   3
ATOM      3  C   UNL     1      94.678  93.902  78.880  1.00  0.00     0.155 C 
ATOM      4  O   UNL     1      95.664  93.298  79.297  1.00  0.00    -0.295 OA
BRANCH   3   5
ATOM      5  C   UNL     1      94.731  95.382  78.556  1.00  0.00     0.085 C 
BRANCH   5   6
ATOM      6  C   UNL     1      96.063  95.762  77.906  1.00  0.00     0.044 C 
BRANCH   6   7
ATOM      7  C   UNL     1      95.931  96.070  76.434  1.00  0.00    -0.044 A 
ATOM      8  C   UNL     1      96.671  97.269  74.491  1.00  0.00     0.160 A 
ATOM      9  C   UNL     1      96.793  96.986  75.852  1.00  0.00     0.054 A 
ATOM     10  C   UNL     1      95.689  96.635  73.731  1.00  0.00     0.157 A 
ATOM     11  C   UNL     1      94.828  95.715  74.332  1.00  0.00     0.050 A 
ATOM     12  C   UNL     1      94.950  95.431  75.692  1.00  0.00     0.008 A 
BRANCH   8  13
ATOM     13  O   UNL     1      97.517  98.170  73.917  1.00  0.00    -0.493 OA
ATOM     14  C   UNL     1      98.845  97.728  73.644  1.00  0.00     0.278 C 
ENDBRANCH   8  13
BRANCH  10  15
ATOM     15  O   UNL     1      95.560  96.903  72.402  1.00  0.00    -0.504 OA
ATOM     16  H   UNL     1      96.373  96.615  71.952  1.00  0.00     0.293 HD
ENDBRANCH  10  15
ENDBRANCH   6   7
ENDBRANCH   5   6
ENDBRANCH   3   5
ENDBRANCH   2   3
BRANCH   1  17
ATOM     17  C   UNL     1      91.225  92.935  77.450  1.00  0.00     0.027 C 
BRANCH  17  18
ATOM     18  C   UNL     1      91.073  92.350  76.042  1.00  0.00     0.004 C 
BRANCH  18  19
ATOM     19  C   UNL     1      90.264  91.050  76.001  1.00  0.00     0.000 C 
BRANCH  19  20
ATOM     20  C   UNL     1      90.609  90.224  74.761  1.00  0.00    -0.003 C 
ATOM     21  C   UNL     1      90.022  90.840  73.501  1.00  0.00     0.004 C 
ENDBRANCH  19  20
ENDBRANCH  18  19
ENDBRANCH  17  18
ENDBRANCH   1  17
TORSDOF 10
ENDMDL
MODEL 5
REMARK VINA RESULT:    -5.707      3.240      7.017
REMARK INTER + INTRA:          -9.999
REMARK INTER:                  -9.319
REMARK INTRA:                  -0.680
REMARK UNBOUND:                -1.123
REMARK SMILES CCCCC/C=C/C(=O)CCc1ccc(O)c(OC)c1
REMARK SMILES IDX 6 1 7 2 8 3 9 4 10 5 11 6 12 7 17 8 20 9 15 10 14 11 13 12
REMARK SMILES IDX 18 13 19 14 16 15 5 17 4 18 3 19 2 20 1 21
REMARK H PARENT 16 16
REMARK Flexibility Score: inf
ROOT
ATOM      1  C   UNL     1      91.703  93.659  77.353  1.00  0.00    -0.023 C 
ATOM      2  C   UNL     1      92.986  93.478  77.690  1.00  0.00     0.043 C 
ENDROOT
BRANCH   2   3
ATOM      3  C   UNL     1      94.016  94.454  77.240  1.00  0.00     0.155 C 
ATOM      4  O   UNL     1      94.361  95.403  77.941  1.00  0.00    -0.295 OA
BRANCH   3   5
ATOM      5  C   UNL     1      94.581  94.247  75.848  1.00  0.00     0.085 C 
BRANCH   5   6
ATOM      6  C   UNL     1      94.101  95.334  74.886  1.00  0.00     0.044 C 
BRANCH   6   7
ATOM      7  C   UNL     1      95.218  96.230  74.406  1.00  0.00    -0.044 A 
ATOM      8  C   UNL     1      96.616  97.029  72.626  1.00  0.00     0.160 A 
ATOM      9  C   UNL     1      95.584  96.201  73.070  1.00  0.00     0.054 A 
ATOM     10  C   UNL     1      97.269  97.872  73.524  1.00  0.00     0.157 A 
ATOM     11  C   UNL     1      96.889  97.889  74.867  1.00  0.00     0.050 A 
ATOM     12  C   UNL     1      95.857  97.062  75.310  1.00  0.00     0.008 A 
BRANCH   8  13
ATOM     13  O   UNL     1      96.977  97.003  71.313  1.00  0.00    -0.493 OA
ATOM     14  C   UNL     1      95.959  96.683  70.366  1.00  0.00     0.278 C 
ENDBRANCH   8  13
BRANCH  10  15
ATOM     15  O   UNL     1      98.278  98.685  73.103  1.00  0.00    -0.504 OA
ATOM     16  H   UNL     1      98.231  99.515  73.608  1.00  0.00     0.293 HD
ENDBRANCH  10  15
ENDBRANCH   6   7
ENDBRANCH   5   6
ENDBRANCH   3   5
ENDBRANCH   2   3
BRANCH   1  17
ATOM     17  C   UNL     1      90.607  92.721  77.766  1.00  0.00     0.027 C 
BRANCH  17  18
ATOM     18  C   UNL     1      90.005  91.944  76.591  1.00  0.00     0.004 C 
BRANCH  18  19
ATOM     19  C   UNL     1      91.032  91.549  75.525  1.00  0.00     0.000 C 
BRANCH  19  20
ATOM     20  C   UNL     1      90.421  90.599  74.495  1.00  0.00    -0.003 C 
ATOM     21  C   UNL     1      89.214  91.221  73.810  1.00  0.00     0.004 C 
ENDBRANCH  19  20
ENDBRANCH  18  19
ENDBRANCH  17  18
ENDBRANCH   1  17
TORSDOF 10
ENDMDL
MODEL 6
REMARK VINA RESULT:    -5.539      2.682      6.895
REMARK INTER + INTRA:          -9.738
REMARK INTER:                  -8.987
REMARK INTRA:                  -0.751
REMARK UNBOUND:                -1.123
REMARK SMILES CCCCC/C=C/C(=O)CCc1ccc(O)c(OC)c1
REMARK SMILES IDX 6 1 7 2 8 3 9 4 10 5 11 6 12 7 17 8 20 9 15 10 14 11 13 12
REMARK SMILES IDX 18 13 19 14 16 15 5 17 4 18 3 19 2 20 1 21
REMARK H PARENT 16 16
REMARK Flexibility Score: inf
ROOT
ATOM      1  C   UNL     1      91.949  94.412  76.161  1.00  0.00    -0.023 C 
ATOM      2  C   UNL     1      93.080  93.703  76.056  1.00  0.00     0.043 C 
ENDROOT
BRANCH   2   3
ATOM      3  C   UNL     1      94.397  94.395  76.099  1.00  0.00     0.155 C 
ATOM      4  O   UNL     1      94.815  95.051  75.147  1.00  0.00    -0.295 OA
BRANCH   3   5
ATOM      5  C   UNL     1      95.220  94.207  77.358  1.00  0.00     0.085 C 
BRANCH   5   6
ATOM      6  C   UNL     1      95.733  95.545  77.891  1.00  0.00     0.044 C 
BRANCH   6   7
ATOM      7  C   UNL     1      96.425  95.418  79.228  1.00  0.00    -0.044 A 
ATOM      8  C   UNL     1      96.756  96.196  81.474  1.00  0.00     0.160 A 
ATOM      9  C   UNL     1      96.117  96.314  80.240  1.00  0.00     0.054 A 
ATOM     10  C   UNL     1      97.693  95.185  81.681  1.00  0.00     0.157 A 
ATOM     11  C   UNL     1      97.993  94.290  80.652  1.00  0.00     0.050 A 
ATOM     12  C   UNL     1      97.354  94.409  79.418  1.00  0.00     0.008 A 
BRANCH   8  13
ATOM     13  O   UNL     1      96.455  97.076  82.470  1.00  0.00    -0.493 OA
ATOM     14  C   UNL     1      96.253  98.437  82.094  1.00  0.00     0.278 C 
ENDBRANCH   8  13
BRANCH  10  15
ATOM     15  O   UNL     1      98.323  95.059  82.882  1.00  0.00    -0.504 OA
ATOM     16  H   UNL     1      98.910  94.284  82.840  1.00  0.00     0.293 HD
ENDBRANCH  10  15
ENDBRANCH   6   7
ENDBRANCH   5   6
ENDBRANCH   3   5
ENDBRANCH   2   3
BRANCH   1  17
ATOM     17  C   UNL     1      90.584  93.789  76.127  1.00  0.00     0.027 C 
BRANCH  17  18
ATOM     18  C   UNL     1      90.476  92.530  76.993  1.00  0.00     0.004 C 
BRANCH  18  19
ATOM     19  C   UNL     1      89.775  91.361  76.292  1.00  0.00     0.000 C 
BRANCH  19  20
ATOM     20  C   UNL     1      90.732  90.632  75.347  1.00  0.00    -0.003 C 
ATOM     21  C   UNL     1      90.280  90.746  73.900  1.00  0.00     0.004 C 
ENDBRANCH  19  20
ENDBRANCH  18  19
ENDBRANCH  17  18
ENDBRANCH   1  17
TORSDOF 10
ENDMDL
MODEL 7
REMARK VINA RESULT:    -5.389     12.111     14.062
REMARK INTER + INTRA:          -9.504
REMARK INTER:                  -8.475
REMARK INTRA:                  -1.029
REMARK UNBOUND:                -1.123
REMARK SMILES CCCCC/C=C/C(=O)CCc1ccc(O)c(OC)c1
REMARK SMILES IDX 6 1 7 2 8 3 9 4 10 5 11 6 12 7 17 8 20 9 15 10 14 11 13 12
REMARK SMILES IDX 18 13 19 14 16 15 5 17 4 18 3 19 2 20 1 21
REMARK H PARENT 16 16
REMARK Flexibility Score: inf
ROOT
ATOM      1  C   UNL     1      98.302  82.139  74.707  1.00  0.00    -0.023 C 
ATOM      2  C   UNL     1      97.204  82.826  74.370  1.00  0.00     0.043 C 
ENDROOT
BRANCH   2   3
ATOM      3  C   UNL     1      96.215  83.204  75.415  1.00  0.00     0.155 C 
ATOM      4  O   UNL     1      95.696  84.318  75.444  1.00  0.00    -0.295 OA
BRANCH   3   5
ATOM      5  C   UNL     1      95.920  82.162  76.476  1.00  0.00     0.085 C 
BRANCH   5   6
ATOM      6  C   UNL     1      96.083  82.738  77.883  1.00  0.00     0.044 C 
BRANCH   6   7
ATOM      7  C   UNL     1      97.026  81.930  78.743  1.00  0.00    -0.044 A 
ATOM      8  C   UNL     1      97.739  81.195  80.913  1.00  0.00     0.160 A 
ATOM      9  C   UNL     1      96.868  81.942  80.119  1.00  0.00     0.054 A 
ATOM     10  C   UNL     1      98.755  80.447  80.321  1.00  0.00     0.157 A 
ATOM     11  C   UNL     1      98.902  80.446  78.933  1.00  0.00     0.050 A 
ATOM     12  C   UNL     1      98.031  81.193  78.139  1.00  0.00     0.008 A 
BRANCH   8  13
ATOM     13  O   UNL     1      97.585  81.205  82.267  1.00  0.00    -0.493 OA
ATOM     14  C   UNL     1      96.345  80.726  82.782  1.00  0.00     0.278 C 
ENDBRANCH   8  13
BRANCH  10  15
ATOM     15  O   UNL     1      99.611  79.713  81.085  1.00  0.00    -0.504 OA
ATOM     16  H   UNL     1     100.519  80.001  80.888  1.00  0.00     0.293 HD
ENDBRANCH  10  15
ENDBRANCH   6   7
ENDBRANCH   5   6
ENDBRANCH   3   5
ENDBRANCH   2   3
BRANCH   1  17
ATOM     17  C   UNL     1      99.346  81.719  73.713  1.00  0.00     0.027 C 
BRANCH  17  18
ATOM     18  C   UNL     1     100.767  82.112  74.131  1.00  0.00     0.004 C 
BRANCH  18  19
ATOM     19  C   UNL     1     101.382  83.209  73.256  1.00  0.00     0.000 C 
BRANCH  19  20
ATOM     20  C   UNL     1     100.460  83.567  72.090  1.00  0.00    -0.003 C 
ATOM     21  C   UNL     1      99.704  84.859  72.353  1.00  0.00     0.004 C 
ENDBRANCH  19  20
ENDBRANCH  18  19
ENDBRANCH  17  18
ENDBRANCH   1  17
TORSDOF 10
ENDMDL
MODEL 8
REMARK VINA RESULT:    -5.335     12.473     14.597
REMARK INTER + INTRA:          -9.421
REMARK INTER:                  -8.279
REMARK INTRA:                  -1.142
REMARK UNBOUND:                -1.123
REMARK SMILES CCCCC/C=C/C(=O)CCc1ccc(O)c(OC)c1
REMARK SMILES IDX 6 1 7 2 8 3 9 4 10 5 11 6 12 7 17 8 20 9 15 10 14 11 13 12
REMARK SMILES IDX 18 13 19 14 16 15 5 17 4 18 3 19 2 20 1 21
REMARK H PARENT 16 16
REMARK Flexibility Score: inf
ROOT
ATOM      1  C   UNL     1      98.498  82.800  74.291  1.00  0.00    -0.023 C 
ATOM      2  C   UNL     1      97.194  83.005  74.065  1.00  0.00     0.043 C 
ENDROOT
BRANCH   2   3
ATOM      3  C   UNL     1      96.302  83.412  75.185  1.00  0.00     0.155 C 
ATOM      4  O   UNL     1      95.935  84.576  75.331  1.00  0.00    -0.295 OA
BRANCH   3   5
ATOM      5  C   UNL     1      95.913  82.326  76.168  1.00  0.00     0.085 C 
BRANCH   5   6
ATOM      6  C   UNL     1      96.058  82.806  77.613  1.00  0.00     0.044 C 
BRANCH   6   7
ATOM      7  C   UNL     1      97.070  82.007  78.399  1.00  0.00    -0.044 A 
ATOM      8  C   UNL     1      97.895  81.203  80.504  1.00  0.00     0.160 A 
ATOM      9  C   UNL     1      96.960  81.942  79.779  1.00  0.00     0.054 A 
ATOM     10  C   UNL     1      98.927  80.539  79.841  1.00  0.00     0.157 A 
ATOM     11  C   UNL     1      99.024  80.614  78.451  1.00  0.00     0.050 A 
ATOM     12  C   UNL     1      98.089  81.353  77.725  1.00  0.00     0.008 A 
BRANCH   8  13
ATOM     13  O   UNL     1      97.790  81.138  81.861  1.00  0.00    -0.493 OA
ATOM     14  C   UNL     1      96.499  80.854  82.398  1.00  0.00     0.278 C 
ENDBRANCH   8  13
BRANCH  10  15
ATOM     15  O   UNL     1      99.845  79.814  80.538  1.00  0.00    -0.504 OA
ATOM     16  H   UNL     1     100.536  79.522  79.920  1.00  0.00     0.293 HD
ENDBRANCH  10  15
ENDBRANCH   6   7
ENDBRANCH   5   6
ENDBRANCH   3   5
ENDBRANCH   2   3
BRANCH   1  17
ATOM     17  C   UNL     1      99.462  82.388  73.217  1.00  0.00     0.027 C 
BRANCH  17  18
ATOM     18  C   UNL     1     100.267  81.135  73.579  1.00  0.00     0.004 C 
BRANCH  18  19
ATOM     19  C   UNL     1     101.082  81.281  74.868  1.00  0.00     0.000 C 
BRANCH  19  20
ATOM     20  C   UNL     1     101.739  79.956  75.258  1.00  0.00    -0.003 C 
ATOM     21  C   UNL     1     103.244  80.105  75.414  1.00  0.00     0.004 C 
ENDBRANCH  19  20
ENDBRANCH  18  19
ENDBRANCH  17  18
ENDBRANCH   1  17
TORSDOF 10
ENDMDL
MODEL 9
REMARK VINA RESULT:    -5.219     12.410     14.365
REMARK INTER + INTRA:          -9.240
REMARK INTER:                  -8.236
REMARK INTRA:                  -1.004
REMARK UNBOUND:                -1.123
REMARK SMILES CCCCC/C=C/C(=O)CCc1ccc(O)c(OC)c1
REMARK SMILES IDX 6 1 7 2 8 3 9 4 10 5 11 6 12 7 17 8 20 9 15 10 14 11 13 12
REMARK SMILES IDX 18 13 19 14 16 15 5 17 4 18 3 19 2 20 1 21
REMARK H PARENT 16 16
REMARK Flexibility Score: inf
ROOT
ATOM      1  C   UNL     1      97.789  82.076  74.270  1.00  0.00    -0.023 C 
ATOM      2  C   UNL     1      96.911  83.086  74.310  1.00  0.00     0.043 C 
ENDROOT
BRANCH   2   3
ATOM      3  C   UNL     1      96.082  83.300  75.527  1.00  0.00     0.155 C 
ATOM      4  O   UNL     1      95.562  84.386  75.775  1.00  0.00    -0.295 OA
BRANCH   3   5
ATOM      5  C   UNL     1      95.953  82.123  76.474  1.00  0.00     0.085 C 
BRANCH   5   6
ATOM      6  C   UNL     1      96.148  82.556  77.928  1.00  0.00     0.044 C 
BRANCH   6   7
ATOM      7  C   UNL     1      97.138  81.690  78.671  1.00  0.00    -0.044 A 
ATOM      8  C   UNL     1      98.904  80.065  78.642  1.00  0.00     0.160 A 
ATOM      9  C   UNL     1      97.990  80.864  77.955  1.00  0.00     0.054 A 
ATOM     10  C   UNL     1      98.954  80.101  80.035  1.00  0.00     0.157 A 
ATOM     11  C   UNL     1      98.089  80.937  80.742  1.00  0.00     0.050 A 
ATOM     12  C   UNL     1      97.175  81.737  80.055  1.00  0.00     0.008 A 
BRANCH   8  13
ATOM     13  O   UNL     1      99.743  79.253  77.940  1.00  0.00    -0.493 OA
ATOM     14  C   UNL     1     100.988  79.810  77.524  1.00  0.00     0.278 C 
ENDBRANCH   8  13
BRANCH  10  15
ATOM     15  O   UNL     1      99.842  79.326  80.717  1.00  0.00    -0.504 OA
ATOM     16  H   UNL     1      99.790  78.420  80.365  1.00  0.00     0.293 HD
ENDBRANCH  10  15
ENDBRANCH   6   7
ENDBRANCH   5   6
ENDBRANCH   3   5
ENDBRANCH   2   3
BRANCH   1  17
ATOM     17  C   UNL     1      98.661  81.793  73.082  1.00  0.00     0.027 C 
BRANCH  17  18
ATOM     18  C   UNL     1     100.147  82.054  73.350  1.00  0.00     0.004 C 
BRANCH  18  19
ATOM     19  C   UNL     1     100.481  83.533  73.568  1.00  0.00     0.000 C 
BRANCH  19  20
ATOM     20  C   UNL     1      99.934  84.396  72.430  1.00  0.00    -0.003 C 
ATOM     21  C   UNL     1     100.817  84.313  71.195  1.00  0.00     0.004 C 
ENDBRANCH  19  20
ENDBRANCH  18  19
ENDBRANCH  17  18
ENDBRANCH   1  17
TORSDOF 10
ENDMDL
MODEL 10
REMARK VINA RESULT:    -5.152     13.165     15.463
REMARK INTER + INTRA:          -9.136
REMARK INTER:                  -7.632
REMARK INTRA:                  -1.503
REMARK UNBOUND:                -1.123
REMARK SMILES CCCCC/C=C/C(=O)CCc1ccc(O)c(OC)c1
REMARK SMILES IDX 6 1 7 2 8 3 9 4 10 5 11 6 12 7 17 8 20 9 15 10 14 11 13 12
REMARK SMILES IDX 18 13 19 14 16 15 5 17 4 18 3 19 2 20 1 21
REMARK H PARENT 16 16
REMARK Flexibility Score: inf
ROOT
ATOM      1  C   UNL     1      96.759  81.142  76.566  1.00  0.00    -0.023 C 
ATOM      2  C   UNL     1      96.749  82.469  76.744  1.00  0.00     0.043 C 
ENDROOT
BRANCH   2   3
ATOM      3  C   UNL     1      96.292  83.361  75.644  1.00  0.00     0.155 C 
ATOM      4  O   UNL     1      95.613  84.363  75.860  1.00  0.00    -0.295 OA
BRANCH   3   5
ATOM      5  C   UNL     1      96.662  82.942  74.235  1.00  0.00     0.085 C 
BRANCH   5   6
ATOM      6  C   UNL     1      98.097  83.348  73.893  1.00  0.00     0.044 C 
BRANCH   6   7
ATOM      7  C   UNL     1      99.062  82.187  73.933  1.00  0.00    -0.044 A 
ATOM      8  C   UNL     1      99.647  79.953  73.281  1.00  0.00     0.160 A 
ATOM      9  C   UNL     1      98.755  81.025  73.244  1.00  0.00     0.054 A 
ATOM     10  C   UNL     1     100.834  80.057  74.007  1.00  0.00     0.157 A 
ATOM     11  C   UNL     1     101.128  81.234  74.697  1.00  0.00     0.050 A 
ATOM     12  C   UNL     1     100.236  82.306  74.660  1.00  0.00     0.008 A 
BRANCH   8  13
ATOM     13  O   UNL     1      99.348  78.809  72.604  1.00  0.00    -0.493 OA
ATOM     14  C   UNL     1      99.438  78.856  71.182  1.00  0.00     0.278 C 
ENDBRANCH   8  13
BRANCH  10  15
ATOM     15  O   UNL     1     101.713  79.018  74.051  1.00  0.00    -0.504 OA
ATOM     16  H   UNL     1     101.603  78.561  74.903  1.00  0.00     0.293 HD
ENDBRANCH  10  15
ENDBRANCH   6   7
ENDBRANCH   5   6
ENDBRANCH   3   5
ENDBRANCH   2   3
BRANCH   1  17
ATOM     17  C   UNL     1      97.205  80.176  77.625  1.00  0.00     0.027 C 
BRANCH  17  18
ATOM     18  C   UNL     1      98.634  80.436  78.112  1.00  0.00     0.004 C 
BRANCH  18  19
ATOM     19  C   UNL     1      98.700  81.151  79.466  1.00  0.00     0.000 C 
BRANCH  19  20
ATOM     20  C   UNL     1      97.523  80.754  80.358  1.00  0.00    -0.003 C 
ATOM     21  C   UNL     1      96.848  81.973  80.965  1.00  0.00     0.004 C 
ENDBRANCH  19  20
ENDBRANCH  18  19
ENDBRANCH  17  18
ENDBRANCH   1  17
TORSDOF 10
ENDMDL
