MODEL 1
REMARK VINA RESULT:    -6.610      0.000      0.000
REMARK INTER + INTRA:         -12.466
REMARK INTER:                 -11.247
REMARK INTRA:                  -1.219
REMARK UNBOUND:                -1.219
REMARK SMILES C=C(C)[C@]12C[C@@H](C)[C@@]34O[C@](Cc5ccccc5)(O[C@@H]1[C@@H]3C=C(COC(=O)Cc1ccc(O)cc1)C[C@]1(O)C(=O)C(C)=C[C@@H]41)O2
REMARK SMILES IDX 23 1 22 2 21 3 20 4 9 5 8 6 10 7 6 8 18 10 44 11 19 12 5 13
REMARK SMILES IDX 7 14 4 15 11 16 12 17 13 18 17 19 14 20 16 21 15 22 2 23
REMARK SMILES IDX 3 24 1 25 35 26 36 27 43 28 38 29 42 30 39 32 40 33 41 34
REMARK SMILES IDX 37 35 24 37 25 38 26 39 27 40 28 41 29 42 34 43 30 44 33 45
REMARK SMILES IDX 31 46 32 47
REMARK H PARENT 37 36 32 48
REMARK Flexibility Score: 90.00
ROOT
ATOM      1  C   UNL     1      97.715  95.453  78.524  1.00  0.00     0.264 C 
ENDROOT
BRANCH   1   2
ATOM      2  C   UNL     1      98.195  96.815  78.081  1.00  0.00    -0.033 C 
ATOM      3  C   UNL     1      98.790  96.945  76.877  1.00  0.00    -0.015 C 
BRANCH   3   4
ATOM      4  C   UNL     1      99.420  98.173  76.239  1.00  0.00     0.078 C 
ATOM      5  O   UNL     1      97.654  99.281  74.910  1.00  0.00    -0.319 OA
ATOM      6  C   UNL     1      98.536  99.462  76.062  1.00  0.00     0.095 CG0
ATOM      7  C   UNL     1      98.268  98.682  73.753  1.00  0.00     0.289 C 
ATOM      8  C   UNL     1      99.512 100.679  75.789  1.00  0.00     0.023 C 
ATOM      9  G   UNL     1      97.567  99.638  77.268  1.00  0.00     0.000 G0
ATOM     10  O   UNL     1      98.825  97.408  74.064  1.00  0.00    -0.320 OA
ATOM     11  O   UNL     1      99.349  99.462  73.247  1.00  0.00    -0.313 OA
ATOM     12  C   UNL     1      99.966  97.815  74.835  1.00  0.00     0.170 C 
ATOM     13  C   UNL     1     100.774 100.233  74.990  1.00  0.00     0.049 C 
ATOM     14  C   UNL     1      98.874 101.895  75.095  1.00  0.00     0.011 C 
ATOM     15  C   UNL     1     100.469  99.057  74.060  1.00  0.00     0.122 C 
BRANCH   7  16
ATOM     16  C   UNL     1      97.209  98.531  72.679  1.00  0.00     0.135 C 
BRANCH  16  17
ATOM     17  C   UNL     1      95.948  97.897  73.211  1.00  0.00    -0.040 A 
ATOM     18  C   UNL     1      95.939  96.546  73.556  1.00  0.00     0.004 A 
ATOM     19  C   UNL     1      94.792  98.663  73.358  1.00  0.00     0.004 A 
ATOM     20  C   UNL     1      94.772  95.960  74.049  1.00  0.00     0.000 A 
ATOM     21  C   UNL     1      93.626  98.077  73.852  1.00  0.00     0.000 A 
ATOM     22  C   UNL     1      93.617  96.726  74.197  1.00  0.00     0.000 A 
ENDBRANCH  16  17
ENDBRANCH   7  16
BRANCH  15  23
ATOM     23  C   UNL     1     101.612  98.730  73.156  1.00  0.00    -0.046 C 
ATOM     24  C   UNL     1     102.675  97.838  73.727  1.00  0.00     0.042 C 
ATOM     25  C   UNL     1     101.685  99.206  71.904  1.00  0.00     0.010 C 
ENDBRANCH  15  23
ENDBRANCH   3   4
BRANCH   2  26
ATOM     26  C   UNL     1      97.921  97.904  79.101  1.00  0.00     0.078 C 
BRANCH  26  27
ATOM     27  C   UNL     1      98.162  99.348  78.663  1.00  0.00     0.140 C 
ATOM     28  C   UNL     1      97.581  99.638  77.264  1.00  0.00     0.086 CG0
ATOM     29  C   UNL     1      97.430 100.348  79.533  1.00  0.00     0.190 C 
ATOM     30  C   UNL     1      96.868 100.949  77.446  1.00  0.00    -0.010 C 
ATOM     31  G   UNL     1      98.558  99.460  76.065  1.00  0.00     0.000 G0
ATOM     32  O   UNL     1      97.436 100.362  80.755  1.00  0.00    -0.291 OA
ATOM     33  C   UNL     1      96.742 101.361  78.711  1.00  0.00    -0.008 C 
ATOM     34  C   UNL     1      96.041 102.539  79.262  1.00  0.00     0.048 C 
BRANCH  27  35
ATOM     35  O   UNL     1      99.525  99.711  78.804  1.00  0.00    -0.381 OA
ATOM     36  H   UNL     1      99.647 100.111  79.682  1.00  0.00     0.212 HD
ENDBRANCH  27  35
ENDBRANCH  26  27
ENDBRANCH   2  26
ENDBRANCH   1   2
BRANCH   1  37
ATOM     37  O   UNL     1      96.968  95.586  79.715  1.00  0.00    -0.461 OA
BRANCH  37  38
ATOM     38  C   UNL     1      96.001  94.632  79.935  1.00  0.00     0.310 C 
ATOM     39  O   UNL     1      95.487  94.390  81.018  1.00  0.00    -0.252 OA
BRANCH  38  40
ATOM     40  C   UNL     1      95.675  93.936  78.635  1.00  0.00     0.158 C 
BRANCH  40  41
ATOM     41  C   UNL     1      94.250  94.149  78.196  1.00  0.00    -0.037 A 
ATOM     42  C   UNL     1      93.314  93.125  78.345  1.00  0.00     0.008 A 
ATOM     43  C   UNL     1      93.865  95.369  77.640  1.00  0.00     0.008 A 
ATOM     44  C   UNL     1      91.994  93.321  77.937  1.00  0.00     0.046 A 
ATOM     45  C   UNL     1      92.545  95.566  77.233  1.00  0.00     0.046 A 
ATOM     46  C   UNL     1      91.610  94.542  77.381  1.00  0.00     0.115 A 
BRANCH  46  47
ATOM     47  O   UNL     1      90.323  94.733  76.984  1.00  0.00    -0.508 OA
ATOM     48  H   UNL     1      90.183  94.277  76.135  1.00  0.00     0.293 HD
ENDBRANCH  46  47
ENDBRANCH  40  41
ENDBRANCH  38  40
ENDBRANCH  37  38
ENDBRANCH   1  37
TORSDOF 10
ENDMDL
MODEL 2
REMARK VINA RESULT:    -6.608     16.372     21.056
REMARK INTER + INTRA:         -12.463
REMARK INTER:                 -10.967
REMARK INTRA:                  -1.496
REMARK UNBOUND:                -1.219
REMARK SMILES C=C(C)[C@]12C[C@@H](C)[C@@]34O[C@](Cc5ccccc5)(O[C@@H]1[C@@H]3C=C(COC(=O)Cc1ccc(O)cc1)C[C@]1(O)C(=O)C(C)=C[C@@H]41)O2
REMARK SMILES IDX 23 1 22 2 21 3 20 4 9 5 8 6 10 7 6 8 18 10 44 11 19 12 5 13
REMARK SMILES IDX 7 14 4 15 11 16 12 17 13 18 17 19 14 20 16 21 15 22 2 23
REMARK SMILES IDX 3 24 1 25 35 26 36 27 43 28 38 29 42 30 39 32 40 33 41 34
REMARK SMILES IDX 37 35 24 37 25 38 26 39 27 40 28 41 29 42 34 43 30 44 33 45
REMARK SMILES IDX 31 46 32 47
REMARK H PARENT 37 36 32 48
REMARK Flexibility Score: 90.00
ROOT
ATOM      1  C   UNL     1      95.145  77.595  84.839  1.00  0.00     0.264 C 
ENDROOT
BRANCH   1   2
ATOM      2  C   UNL     1      93.900  78.138  85.503  1.00  0.00    -0.033 C 
ATOM      3  C   UNL     1      94.024  79.056  86.484  1.00  0.00    -0.015 C 
BRANCH   3   4
ATOM      4  C   UNL     1      92.949  79.693  87.350  1.00  0.00     0.078 C 
ATOM      5  O   UNL     1      92.244  81.771  86.210  1.00  0.00    -0.319 OA
ATOM      6  C   UNL     1      91.771  80.457  86.640  1.00  0.00     0.095 CG0
ATOM      7  C   UNL     1      93.065  82.472  87.164  1.00  0.00     0.289 C 
ATOM      8  C   UNL     1      90.609  80.639  87.702  1.00  0.00     0.023 C 
ATOM      9  G   UNL     1      91.363  79.740  85.320  1.00  0.00     0.000 G0
ATOM     10  O   UNL     1      94.212  81.705  87.522  1.00  0.00    -0.320 OA
ATOM     11  O   UNL     1      92.378  82.730  88.386  1.00  0.00    -0.313 OA
ATOM     12  C   UNL     1      93.595  80.696  88.337  1.00  0.00     0.170 C 
ATOM     13  C   UNL     1      91.175  80.821  89.144  1.00  0.00     0.049 C 
ATOM     14  C   UNL     1      89.610  81.769  87.400  1.00  0.00     0.011 C 
ATOM     15  C   UNL     1      92.542  81.506  89.133  1.00  0.00     0.122 C 
BRANCH   7  16
ATOM     16  C   UNL     1      93.499  83.785  86.543  1.00  0.00     0.135 C 
BRANCH  16  17
ATOM     17  C   UNL     1      94.225  84.665  87.529  1.00  0.00    -0.040 A 
ATOM     18  C   UNL     1      93.505  85.402  88.469  1.00  0.00     0.004 A 
ATOM     19  C   UNL     1      95.617  84.742  87.500  1.00  0.00     0.004 A 
ATOM     20  C   UNL     1      94.177  86.216  89.381  1.00  0.00     0.000 A 
ATOM     21  C   UNL     1      96.289  85.557  88.412  1.00  0.00     0.000 A 
ATOM     22  C   UNL     1      95.569  86.293  89.352  1.00  0.00     0.000 A 
ENDBRANCH  16  17
ENDBRANCH   7  16
BRANCH  15  23
ATOM     23  C   UNL     1      93.021  81.854  90.505  1.00  0.00    -0.046 C 
ATOM     24  C   UNL     1      92.166  81.382  91.643  1.00  0.00     0.042 C 
ATOM     25  C   UNL     1      94.151  82.548  90.707  1.00  0.00     0.010 C 
ENDBRANCH  15  23
ENDBRANCH   3   4
BRANCH   2  26
ATOM     26  C   UNL     1      92.620  77.552  84.938  1.00  0.00     0.078 C 
BRANCH  26  27
ATOM     27  C   UNL     1      91.306  78.200  85.370  1.00  0.00     0.140 C 
ATOM     28  C   UNL     1      91.371  79.740  85.323  1.00  0.00     0.086 CG0
ATOM     29  C   UNL     1      90.168  77.893  84.419  1.00  0.00     0.190 C 
ATOM     30  C   UNL     1      90.088  80.124  84.640  1.00  0.00    -0.010 C 
ATOM     31  G   UNL     1      91.774  80.451  86.648  1.00  0.00     0.000 G0
ATOM     32  O   UNL     1      89.874  76.783  84.001  1.00  0.00    -0.291 OA
ATOM     33  C   UNL     1      89.404  79.113  84.097  1.00  0.00    -0.008 C 
ATOM     34  C   UNL     1      88.164  79.126  83.293  1.00  0.00     0.048 C 
BRANCH  27  35
ATOM     35  O   UNL     1      90.857  77.684  86.612  1.00  0.00    -0.381 OA
ATOM     36  H   UNL     1      90.850  78.408  87.261  1.00  0.00     0.212 HD
ENDBRANCH  27  35
ENDBRANCH  26  27
ENDBRANCH   2  26
ENDBRANCH   1   2
BRANCH   1  37
ATOM     37  O   UNL     1      96.236  78.442  85.131  1.00  0.00    -0.461 OA
BRANCH  37  38
ATOM     38  C   UNL     1      97.078  78.731  84.082  1.00  0.00     0.310 C 
ATOM     39  O   UNL     1      98.272  78.466  84.046  1.00  0.00    -0.252 OA
BRANCH  38  40
ATOM     40  C   UNL     1      96.301  79.423  82.988  1.00  0.00     0.158 C 
BRANCH  40  41
ATOM     41  C   UNL     1      96.316  80.924  83.116  1.00  0.00    -0.037 A 
ATOM     42  C   UNL     1      96.710  81.712  82.034  1.00  0.00     0.008 A 
ATOM     43  C   UNL     1      95.938  81.527  84.315  1.00  0.00     0.008 A 
ATOM     44  C   UNL     1      96.725  83.102  82.152  1.00  0.00     0.046 A 
ATOM     45  C   UNL     1      95.952  82.917  84.434  1.00  0.00     0.046 A 
ATOM     46  C   UNL     1      96.346  83.704  83.352  1.00  0.00     0.115 A 
BRANCH  46  47
ATOM     47  O   UNL     1      96.361  85.060  83.468  1.00  0.00    -0.508 OA
ATOM     48  H   UNL     1      97.016  85.422  82.846  1.00  0.00     0.293 HD
ENDBRANCH  46  47
ENDBRANCH  40  41
ENDBRANCH  38  40
ENDBRANCH  37  38
ENDBRANCH   1  37
TORSDOF 10
ENDMDL
MODEL 3
REMARK VINA RESULT:    -6.578      5.386      7.562
REMARK INTER + INTRA:         -12.412
REMARK INTER:                 -12.309
REMARK INTRA:                  -0.103
REMARK UNBOUND:                -1.219
REMARK SMILES C=C(C)[C@]12C[C@@H](C)[C@@]34O[C@](Cc5ccccc5)(O[C@@H]1[C@@H]3C=C(COC(=O)Cc1ccc(O)cc1)C[C@]1(O)C(=O)C(C)=C[C@@H]41)O2
REMARK SMILES IDX 23 1 22 2 21 3 20 4 9 5 8 6 10 7 6 8 18 10 44 11 19 12 5 13
REMARK SMILES IDX 7 14 4 15 11 16 12 17 13 18 17 19 14 20 16 21 15 22 2 23
REMARK SMILES IDX 3 24 1 25 35 26 36 27 43 28 38 29 42 30 39 32 40 33 41 34
REMARK SMILES IDX 37 35 24 37 25 38 26 39 27 40 28 41 29 42 34 43 30 44 33 45
REMARK SMILES IDX 31 46 32 47
REMARK H PARENT 37 36 32 48
REMARK Flexibility Score: 90.00
ROOT
ATOM      1  C   UNL     1      95.084  97.933  72.993  1.00  0.00     0.264 C 
ENDROOT
BRANCH   1   2
ATOM      2  C   UNL     1      94.679  99.358  72.694  1.00  0.00    -0.033 C 
ATOM      3  C   UNL     1      94.087  99.642  71.516  1.00  0.00    -0.015 C 
BRANCH   3   4
ATOM      4  C   UNL     1      93.659 100.987  70.949  1.00  0.00     0.078 C 
ATOM      5  O   UNL     1      91.291 101.315  71.583  1.00  0.00    -0.319 OA
ATOM      6  C   UNL     1      92.636 101.854  71.772  1.00  0.00     0.095 CG0
ATOM      7  C   UNL     1      90.966 100.932  70.232  1.00  0.00     0.289 C 
ATOM      8  C   UNL     1      92.693 103.331  71.202  1.00  0.00     0.023 C 
ATOM      9  G   UNL     1      92.898 101.716  73.300  1.00  0.00     0.000 G0
ATOM     10  O   UNL     1      91.884  99.964  69.733  1.00  0.00    -0.320 OA
ATOM     11  O   UNL     1      91.033 102.031  69.326  1.00  0.00    -0.313 OA
ATOM     12  C   UNL     1      93.042 100.792  69.542  1.00  0.00     0.170 C 
ATOM     13  C   UNL     1      92.988 103.343  69.671  1.00  0.00     0.049 C 
ATOM     14  C   UNL     1      91.456 104.199  71.489  1.00  0.00     0.011 C 
ATOM     15  C   UNL     1      92.431 102.098  68.978  1.00  0.00     0.122 C 
BRANCH   7  16
ATOM     16  C   UNL     1      89.563 100.359  70.226  1.00  0.00     0.135 C 
BRANCH  16  17
ATOM     17  C   UNL     1      89.171  99.833  68.868  1.00  0.00    -0.040 A 
ATOM     18  C   UNL     1      88.521 100.665  67.958  1.00  0.00     0.004 A 
ATOM     19  C   UNL     1      89.461  98.513  68.522  1.00  0.00     0.004 A 
ATOM     20  C   UNL     1      88.159 100.179  66.701  1.00  0.00     0.000 A 
ATOM     21  C   UNL     1      89.100  98.027  67.265  1.00  0.00     0.000 A 
ATOM     22  C   UNL     1      88.449  98.859  66.356  1.00  0.00     0.000 A 
ENDBRANCH  16  17
ENDBRANCH   7  16
BRANCH  15  23
ATOM     23  C   UNL     1      92.542 102.172  67.490  1.00  0.00    -0.046 C 
ATOM     24  C   UNL     1      91.288 102.537  66.750  1.00  0.00     0.042 C 
ATOM     25  C   UNL     1      93.695 101.927  66.851  1.00  0.00     0.010 C 
ENDBRANCH  15  23
ENDBRANCH   3   4
BRANCH   2  26
ATOM     26  C   UNL     1      95.005 100.319  73.822  1.00  0.00     0.078 C 
BRANCH  26  27
ATOM     27  C   UNL     1      94.419 101.726  73.732  1.00  0.00     0.140 C 
ATOM     28  C   UNL     1      92.937 101.715  73.302  1.00  0.00     0.086 CG0
ATOM     29  C   UNL     1      94.362 102.418  75.077  1.00  0.00     0.190 C 
ATOM     30  C   UNL     1      92.287 102.671  74.263  1.00  0.00    -0.010 C 
ATOM     31  G   UNL     1      92.664 101.861  71.777  1.00  0.00     0.000 G0
ATOM     32  O   UNL     1      95.284 102.489  75.876  1.00  0.00    -0.291 OA
ATOM     33  C   UNL     1      93.051 103.062  75.287  1.00  0.00    -0.008 C 
ATOM     34  C   UNL     1      92.724 103.917  76.447  1.00  0.00     0.048 C 
BRANCH  27  35
ATOM     35  O   UNL     1      95.235 102.579  72.947  1.00  0.00    -0.381 OA
ATOM     36  H   UNL     1      95.551 102.077  72.176  1.00  0.00     0.212 HD
ENDBRANCH  27  35
ENDBRANCH  26  27
ENDBRANCH   2  26
ENDBRANCH   1   2
BRANCH   1  37
ATOM     37  O   UNL     1      95.512  97.841  74.335  1.00  0.00    -0.461 OA
BRANCH  37  38
ATOM     38  C   UNL     1      95.543  96.578  74.878  1.00  0.00     0.310 C 
ATOM     39  O   UNL     1      95.116  95.569  74.334  1.00  0.00    -0.252 OA
BRANCH  38  40
ATOM     40  C   UNL     1      96.185  96.632  76.243  1.00  0.00     0.158 C 
BRANCH  40  41
ATOM     41  C   UNL     1      95.632  95.601  77.194  1.00  0.00    -0.037 A 
ATOM     42  C   UNL     1      94.269  95.305  77.186  1.00  0.00     0.008 A 
ATOM     43  C   UNL     1      96.482  94.943  78.082  1.00  0.00     0.008 A 
ATOM     44  C   UNL     1      93.756  94.352  78.066  1.00  0.00     0.046 A 
ATOM     45  C   UNL     1      95.971  93.989  78.962  1.00  0.00     0.046 A 
ATOM     46  C   UNL     1      94.608  93.694  78.954  1.00  0.00     0.115 A 
BRANCH  46  47
ATOM     47  O   UNL     1      94.108  92.764  79.813  1.00  0.00    -0.508 OA
ATOM     48  H   UNL     1      93.879  93.201  80.652  1.00  0.00     0.293 HD
ENDBRANCH  46  47
ENDBRANCH  40  41
ENDBRANCH  38  40
ENDBRANCH  37  38
ENDBRANCH   1  37
TORSDOF 10
ENDMDL
MODEL 4
REMARK VINA RESULT:    -6.253     15.279     17.957
REMARK INTER + INTRA:         -11.859
REMARK INTER:                 -11.125
REMARK INTRA:                  -0.734
REMARK UNBOUND:                -1.219
REMARK SMILES C=C(C)[C@]12C[C@@H](C)[C@@]34O[C@](Cc5ccccc5)(O[C@@H]1[C@@H]3C=C(COC(=O)Cc1ccc(O)cc1)C[C@]1(O)C(=O)C(C)=C[C@@H]41)O2
REMARK SMILES IDX 23 1 22 2 21 3 20 4 9 5 8 6 10 7 6 8 18 10 44 11 19 12 5 13
REMARK SMILES IDX 7 14 4 15 11 16 12 17 13 18 17 19 14 20 16 21 15 22 2 23
REMARK SMILES IDX 3 24 1 25 35 26 36 27 43 28 38 29 42 30 39 32 40 33 41 34
REMARK SMILES IDX 37 35 24 37 25 38 26 39 27 40 28 41 29 42 34 43 30 44 33 45
REMARK SMILES IDX 31 46 32 47
REMARK H PARENT 37 36 32 48
REMARK Flexibility Score: 90.00
ROOT
ATOM      1  C   UNL     1      96.667  77.699  76.334  1.00  0.00     0.264 C 
ENDROOT
BRANCH   1   2
ATOM      2  C   UNL     1      97.446  78.960  76.043  1.00  0.00    -0.033 C 
ATOM      3  C   UNL     1      98.561  78.887  75.288  1.00  0.00    -0.015 C 
BRANCH   3   4
ATOM      4  C   UNL     1      99.551  79.980  74.919  1.00  0.00     0.078 C 
ATOM      5  O   UNL     1      98.809  80.922  72.756  1.00  0.00    -0.319 OA
ATOM      6  C   UNL     1      99.014  81.252  74.165  1.00  0.00     0.095 CG0
ATOM      7  C   UNL     1      99.851  80.132  72.151  1.00  0.00     0.289 C 
ATOM      8  C   UNL     1     100.118  82.382  74.283  1.00  0.00     0.023 C 
ATOM      9  G   UNL     1      97.598  81.644  74.680  1.00  0.00     0.000 G0
ATOM     10  O   UNL     1     100.042  78.905  72.851  1.00  0.00    -0.320 OA
ATOM     11  O   UNL     1     101.115  80.790  72.177  1.00  0.00    -0.313 OA
ATOM     12  C   UNL     1     100.682  79.391  74.041  1.00  0.00     0.170 C 
ATOM     13  C   UNL     1     101.556  81.778  74.297  1.00  0.00     0.049 C 
ATOM     14  C   UNL     1     100.043  83.494  73.223  1.00  0.00     0.011 C 
ATOM     15  C   UNL     1     101.632  80.482  73.488  1.00  0.00     0.122 C 
BRANCH   7  16
ATOM     16  C   UNL     1      99.459  79.848  70.715  1.00  0.00     0.135 C 
BRANCH  16  17
ATOM     17  C   UNL     1     100.505  80.323  69.738  1.00  0.00    -0.040 A 
ATOM     18  C   UNL     1     101.264  79.398  69.023  1.00  0.00     0.004 A 
ATOM     19  C   UNL     1     100.712  81.690  69.550  1.00  0.00     0.004 A 
ATOM     20  C   UNL     1     102.231  79.838  68.118  1.00  0.00     0.000 A 
ATOM     21  C   UNL     1     101.680  82.130  68.646  1.00  0.00     0.000 A 
ATOM     22  C   UNL     1     102.438  81.204  67.931  1.00  0.00     0.000 A 
ENDBRANCH  16  17
ENDBRANCH   7  16
BRANCH  15  23
ATOM     23  C   UNL     1     103.032  79.982  73.336  1.00  0.00    -0.046 C 
ATOM     24  C   UNL     1     103.377  79.374  72.009  1.00  0.00     0.042 C 
ATOM     25  C   UNL     1     103.929  80.072  74.329  1.00  0.00     0.010 C 
ENDBRANCH  15  23
ENDBRANCH   3   4
BRANCH   2  26
ATOM     26  C   UNL     1      96.829  80.198  76.667  1.00  0.00     0.078 C 
BRANCH  26  27
ATOM     27  C   UNL     1      97.390  81.551  76.233  1.00  0.00     0.140 C 
ATOM     28  C   UNL     1      97.603  81.633  74.707  1.00  0.00     0.086 CG0
ATOM     29  C   UNL     1      96.423  82.688  76.488  1.00  0.00     0.190 C 
ATOM     30  C   UNL     1      97.020  82.970  74.344  1.00  0.00    -0.010 C 
ATOM     31  G   UNL     1      99.021  81.252  74.191  1.00  0.00     0.000 G0
ATOM     32  O   UNL     1      95.830  82.891  77.537  1.00  0.00    -0.291 OA
ATOM     33  C   UNL     1      96.328  83.576  75.314  1.00  0.00    -0.008 C 
ATOM     34  C   UNL     1      95.561  84.839  75.289  1.00  0.00     0.048 C 
BRANCH  27  35
ATOM     35  O   UNL     1      98.535  81.905  76.991  1.00  0.00    -0.381 OA
ATOM     36  H   UNL     1      99.283  82.022  76.380  1.00  0.00     0.212 HD
ENDBRANCH  27  35
ENDBRANCH  26  27
ENDBRANCH   2  26
ENDBRANCH   1   2
BRANCH   1  37
ATOM     37  O   UNL     1      96.521  77.552  77.731  1.00  0.00    -0.461 OA
BRANCH  37  38
ATOM     38  C   UNL     1      97.557  76.928  78.387  1.00  0.00     0.310 C 
ATOM     39  O   UNL     1      98.520  76.405  77.843  1.00  0.00    -0.252 OA
BRANCH  38  40
ATOM     40  C   UNL     1      97.320  76.990  79.877  1.00  0.00     0.158 C 
BRANCH  40  41
ATOM     41  C   UNL     1      97.331  78.397  80.416  1.00  0.00    -0.037 A 
ATOM     42  C   UNL     1      96.756  78.673  81.656  1.00  0.00     0.008 A 
ATOM     43  C   UNL     1      97.914  79.424  79.674  1.00  0.00     0.008 A 
ATOM     44  C   UNL     1      96.765  79.976  82.155  1.00  0.00     0.046 A 
ATOM     45  C   UNL     1      97.924  80.727  80.172  1.00  0.00     0.046 A 
ATOM     46  C   UNL     1      97.349  81.003  81.412  1.00  0.00     0.115 A 
BRANCH  46  47
ATOM     47  O   UNL     1      97.358  82.274  81.899  1.00  0.00    -0.508 OA
ATOM     48  H   UNL     1      97.902  82.300  82.705  1.00  0.00     0.293 HD
ENDBRANCH  46  47
ENDBRANCH  40  41
ENDBRANCH  38  40
ENDBRANCH  37  38
ENDBRANCH   1  37
TORSDOF 10
ENDMDL
MODEL 5
REMARK VINA RESULT:    -6.251     25.705     29.531
REMARK INTER + INTRA:         -11.856
REMARK INTER:                 -11.419
REMARK INTRA:                  -0.436
REMARK UNBOUND:                -1.219
REMARK SMILES C=C(C)[C@]12C[C@@H](C)[C@@]34O[C@](Cc5ccccc5)(O[C@@H]1[C@@H]3C=C(COC(=O)Cc1ccc(O)cc1)C[C@]1(O)C(=O)C(C)=C[C@@H]41)O2
REMARK SMILES IDX 23 1 22 2 21 3 20 4 9 5 8 6 10 7 6 8 18 10 44 11 19 12 5 13
REMARK SMILES IDX 7 14 4 15 11 16 12 17 13 18 17 19 14 20 16 21 15 22 2 23
REMARK SMILES IDX 3 24 1 25 35 26 36 27 43 28 38 29 42 30 39 32 40 33 41 34
REMARK SMILES IDX 37 35 24 37 25 38 26 39 27 40 28 41 29 42 34 43 30 44 33 45
REMARK SMILES IDX 31 46 32 47
REMARK H PARENT 37 36 32 48
REMARK Flexibility Score: 90.00
ROOT
ATOM      1  C   UNL     1      69.039  86.788  69.364  1.00  0.00     0.264 C 
ENDROOT
BRANCH   1   2
ATOM      2  C   UNL     1      70.349  87.487  69.084  1.00  0.00    -0.033 C 
ATOM      3  C   UNL     1      71.444  86.748  68.807  1.00  0.00    -0.015 C 
BRANCH   3   4
ATOM      4  C   UNL     1      72.877  87.198  68.568  1.00  0.00     0.078 C 
ATOM      5  O   UNL     1      73.136  87.509  66.129  1.00  0.00    -0.319 OA
ATOM      6  C   UNL     1      73.156  88.220  67.406  1.00  0.00     0.095 CG0
ATOM      7  C   UNL     1      73.808  86.235  66.124  1.00  0.00     0.289 C 
ATOM      8  C   UNL     1      74.598  88.833  67.642  1.00  0.00     0.023 C 
ATOM      9  G   UNL     1      72.000  89.256  67.290  1.00  0.00     0.000 G0
ATOM     10  O   UNL     1      73.261  85.358  67.105  1.00  0.00    -0.320 OA
ATOM     11  O   UNL     1      75.193  86.350  66.439  1.00  0.00    -0.313 OA
ATOM     12  C   UNL     1      73.777  85.967  68.300  1.00  0.00     0.170 C 
ATOM     13  C   UNL     1      75.561  87.794  68.294  1.00  0.00     0.049 C 
ATOM     14  C   UNL     1      75.270  89.440  66.399  1.00  0.00     0.011 C 
ATOM     15  C   UNL     1      75.213  86.363  67.881  1.00  0.00     0.122 C 
BRANCH   7  16
ATOM     16  C   UNL     1      73.653  85.622  64.746  1.00  0.00     0.135 C 
BRANCH  16  17
ATOM     17  C   UNL     1      73.909  84.135  64.755  1.00  0.00    -0.040 A 
ATOM     18  C   UNL     1      72.843  83.244  64.871  1.00  0.00     0.004 A 
ATOM     19  C   UNL     1      75.213  83.653  64.647  1.00  0.00     0.004 A 
ATOM     20  C   UNL     1      73.080  81.869  64.878  1.00  0.00     0.000 A 
ATOM     21  C   UNL     1      75.451  82.278  64.655  1.00  0.00     0.000 A 
ATOM     22  C   UNL     1      74.384  81.387  64.771  1.00  0.00     0.000 A 
ENDBRANCH  16  17
ENDBRANCH   7  16
BRANCH  15  23
ATOM     23  C   UNL     1      76.228  85.369  68.346  1.00  0.00    -0.046 C 
ATOM     24  C   UNL     1      75.913  84.651  69.625  1.00  0.00     0.042 C 
ATOM     25  C   UNL     1      77.356  85.133  67.660  1.00  0.00     0.010 C 
ENDBRANCH  15  23
ENDBRANCH   3   4
BRANCH   2  26
ATOM     26  C   UNL     1      70.244  88.999  69.148  1.00  0.00     0.078 C 
BRANCH  26  27
ATOM     27  C   UNL     1      71.444  89.804  68.654  1.00  0.00     0.140 C 
ATOM     28  C   UNL     1      71.986  89.277  67.308  1.00  0.00     0.086 CG0
ATOM     29  C   UNL     1      71.084  91.236  68.321  1.00  0.00     0.190 C 
ATOM     30  C   UNL     1      72.180  90.527  66.496  1.00  0.00    -0.010 C 
ATOM     31  G   UNL     1      73.140  88.236  67.394  1.00  0.00     0.000 G0
ATOM     32  O   UNL     1      70.446  91.991  69.039  1.00  0.00    -0.291 OA
ATOM     33  C   UNL     1      71.660  91.639  67.024  1.00  0.00    -0.008 C 
ATOM     34  C   UNL     1      71.589  93.010  66.476  1.00  0.00     0.048 C 
BRANCH  27  35
ATOM     35  O   UNL     1      72.435  89.929  69.660  1.00  0.00    -0.381 OA
ATOM     36  H   UNL     1      72.696  90.863  69.718  1.00  0.00     0.212 HD
ENDBRANCH  27  35
ENDBRANCH  26  27
ENDBRANCH   2  26
ENDBRANCH   1   2
BRANCH   1  37
ATOM     37  O   UNL     1      69.285  85.619  70.116  1.00  0.00    -0.461 OA
BRANCH  37  38
ATOM     38  C   UNL     1      68.450  84.553  69.872  1.00  0.00     0.310 C 
ATOM     39  O   UNL     1      68.764  83.539  69.264  1.00  0.00    -0.252 OA
BRANCH  38  40
ATOM     40  C   UNL     1      67.092  84.830  70.471  1.00  0.00     0.158 C 
BRANCH  40  41
ATOM     41  C   UNL     1      66.005  83.965  69.888  1.00  0.00    -0.037 A 
ATOM     42  C   UNL     1      65.552  82.847  70.588  1.00  0.00     0.008 A 
ATOM     43  C   UNL     1      65.451  84.281  68.647  1.00  0.00     0.008 A 
ATOM     44  C   UNL     1      64.546  82.045  70.048  1.00  0.00     0.046 A 
ATOM     45  C   UNL     1      64.445  83.480  68.107  1.00  0.00     0.046 A 
ATOM     46  C   UNL     1      63.992  82.362  68.807  1.00  0.00     0.115 A 
BRANCH  46  47
ATOM     47  O   UNL     1      63.011  81.580  68.280  1.00  0.00    -0.508 OA
ATOM     48  H   UNL     1      62.296  82.151  67.948  1.00  0.00     0.293 HD
ENDBRANCH  46  47
ENDBRANCH  40  41
ENDBRANCH  38  40
ENDBRANCH  37  38
ENDBRANCH   1  37
TORSDOF 10
ENDMDL
MODEL 6
REMARK VINA RESULT:    -6.077      2.723      4.831
REMARK INTER + INTRA:         -11.560
REMARK INTER:                 -10.385
REMARK INTRA:                  -1.175
REMARK UNBOUND:                -1.219
REMARK SMILES C=C(C)[C@]12C[C@@H](C)[C@@]34O[C@](Cc5ccccc5)(O[C@@H]1[C@@H]3C=C(COC(=O)Cc1ccc(O)cc1)C[C@]1(O)C(=O)C(C)=C[C@@H]41)O2
REMARK SMILES IDX 23 1 22 2 21 3 20 4 9 5 8 6 10 7 6 8 18 10 44 11 19 12 5 13
REMARK SMILES IDX 7 14 4 15 11 16 12 17 13 18 17 19 14 20 16 21 15 22 2 23
REMARK SMILES IDX 3 24 1 25 35 26 36 27 43 28 38 29 42 30 39 32 40 33 41 34
REMARK SMILES IDX 37 35 24 37 25 38 26 39 27 40 28 41 29 42 34 43 30 44 33 45
REMARK SMILES IDX 31 46 32 47
REMARK H PARENT 37 36 32 48
REMARK Flexibility Score: 90.00
ROOT
ATOM      1  C   UNL     1      94.368  95.014  74.844  1.00  0.00     0.264 C 
ENDROOT
BRANCH   1   2
ATOM      2  C   UNL     1      95.370  96.094  74.508  1.00  0.00    -0.033 C 
ATOM      3  C   UNL     1      95.281  96.729  73.321  1.00  0.00    -0.015 C 
BRANCH   3   4
ATOM      4  C   UNL     1      96.197  97.783  72.719  1.00  0.00     0.078 C 
ATOM      5  O   UNL     1      95.261  99.987  73.336  1.00  0.00    -0.319 OA
ATOM      6  C   UNL     1      96.424  99.120  73.516  1.00  0.00     0.095 CG0
ATOM      7  C   UNL     1      94.738 100.045  71.995  1.00  0.00     0.289 C 
ATOM      8  C   UNL     1      97.704  99.828  72.909  1.00  0.00     0.023 C 
ATOM      9  G   UNL     1      96.473  98.849  75.048  1.00  0.00     0.000 G0
ATOM     10  O   UNL     1      94.378  98.750  71.524  1.00  0.00    -0.320 OA
ATOM     11  O   UNL     1      95.694 100.543  71.062  1.00  0.00    -0.313 OA
ATOM     12  C   UNL     1      95.683  98.187  71.315  1.00  0.00     0.170 C 
ATOM     13  C   UNL     1      97.836  99.558  71.379  1.00  0.00     0.049 C 
ATOM     14  C   UNL     1      97.809 101.341  73.170  1.00  0.00     0.011 C 
ATOM     15  C   UNL     1      96.470  99.378  70.716  1.00  0.00     0.122 C 
BRANCH   7  16
ATOM     16  C   UNL     1      93.520 100.947  72.000  1.00  0.00     0.135 C 
BRANCH  16  17
ATOM     17  C   UNL     1      93.677 102.107  72.951  1.00  0.00    -0.040 A 
ATOM     18  C   UNL     1      94.499 103.181  72.612  1.00  0.00     0.004 A 
ATOM     19  C   UNL     1      93.000 102.105  74.170  1.00  0.00     0.004 A 
ATOM     20  C   UNL     1      94.644 104.254  73.491  1.00  0.00     0.000 A 
ATOM     21  C   UNL     1      93.145 103.178  75.050  1.00  0.00     0.000 A 
ATOM     22  C   UNL     1      93.966 104.252  74.710  1.00  0.00     0.000 A 
ENDBRANCH  16  17
ENDBRANCH   7  16
BRANCH  15  23
ATOM     23  C   UNL     1      96.560  99.298  69.227  1.00  0.00    -0.046 C 
ATOM     24  C   UNL     1      95.935 100.429  68.464  1.00  0.00     0.042 C 
ATOM     25  C   UNL     1      97.166  98.275  68.606  1.00  0.00     0.010 C 
ENDBRANCH  15  23
ENDBRANCH   3   4
BRANCH   2  26
ATOM     26  C   UNL     1      96.382  96.332  75.613  1.00  0.00     0.078 C 
BRANCH  26  27
ATOM     27  C   UNL     1      97.285  97.557  75.479  1.00  0.00     0.140 C 
ATOM     28  C   UNL     1      96.500  98.818  75.062  1.00  0.00     0.086 CG0
ATOM     29  C   UNL     1      97.893  97.975  76.801  1.00  0.00     0.190 C 
ATOM     30  C   UNL     1      97.018  99.877  75.995  1.00  0.00    -0.010 C 
ATOM     31  G   UNL     1      96.436  99.111  73.535  1.00  0.00     0.000 G0
ATOM     32  O   UNL     1      98.453  97.229  77.591  1.00  0.00    -0.291 OA
ATOM     33  C   UNL     1      97.780  99.433  76.999  1.00  0.00    -0.008 C 
ATOM     34  C   UNL     1      98.383 100.165  78.132  1.00  0.00     0.048 C 
BRANCH  27  35
ATOM     35  O   UNL     1      98.410  97.285  74.660  1.00  0.00    -0.381 OA
ATOM     36  H   UNL     1      98.200  96.523  74.094  1.00  0.00     0.212 HD
ENDBRANCH  27  35
ENDBRANCH  26  27
ENDBRANCH   2  26
ENDBRANCH   1   2
BRANCH   1  37
ATOM     37  O   UNL     1      93.503  95.479  75.858  1.00  0.00    -0.461 OA
BRANCH  37  38
ATOM     38  C   UNL     1      93.139  94.559  76.815  1.00  0.00     0.310 C 
ATOM     39  O   UNL     1      92.035  94.488  77.337  1.00  0.00    -0.252 OA
BRANCH  38  40
ATOM     40  C   UNL     1      94.310  93.656  77.117  1.00  0.00     0.158 C 
BRANCH  40  41
ATOM     41  C   UNL     1      94.971  93.971  78.434  1.00  0.00    -0.037 A 
ATOM     42  C   UNL     1      95.128  95.297  78.836  1.00  0.00     0.008 A 
ATOM     43  C   UNL     1      95.427  92.937  79.251  1.00  0.00     0.008 A 
ATOM     44  C   UNL     1      95.741  95.589  80.055  1.00  0.00     0.046 A 
ATOM     45  C   UNL     1      96.039  93.228  80.470  1.00  0.00     0.046 A 
ATOM     46  C   UNL     1      96.196  94.554  80.872  1.00  0.00     0.115 A 
BRANCH  46  47
ATOM     47  O   UNL     1      96.794  94.839  82.061  1.00  0.00    -0.508 OA
ATOM     48  H   UNL     1      96.579  95.754  82.311  1.00  0.00     0.293 HD
ENDBRANCH  46  47
ENDBRANCH  40  41
ENDBRANCH  38  40
ENDBRANCH  37  38
ENDBRANCH   1  37
TORSDOF 10
ENDMDL
MODEL 7
REMARK VINA RESULT:    -5.985     33.175     37.824
REMARK INTER + INTRA:         -11.404
REMARK INTER:                 -10.541
REMARK INTRA:                  -0.863
REMARK UNBOUND:                -1.219
REMARK SMILES C=C(C)[C@]12C[C@@H](C)[C@@]34O[C@](Cc5ccccc5)(O[C@@H]1[C@@H]3C=C(COC(=O)Cc1ccc(O)cc1)C[C@]1(O)C(=O)C(C)=C[C@@H]41)O2
REMARK SMILES IDX 23 1 22 2 21 3 20 4 9 5 8 6 10 7 6 8 18 10 44 11 19 12 5 13
REMARK SMILES IDX 7 14 4 15 11 16 12 17 13 18 17 19 14 20 16 21 15 22 2 23
REMARK SMILES IDX 3 24 1 25 35 26 36 27 43 28 38 29 42 30 39 32 40 33 41 34
REMARK SMILES IDX 37 35 24 37 25 38 26 39 27 40 28 41 29 42 34 43 30 44 33 45
REMARK SMILES IDX 31 46 32 47
REMARK H PARENT 37 36 32 48
REMARK Flexibility Score: 90.00
ROOT
ATOM      1  C   UNL     1      57.796  87.514  73.331  1.00  0.00     0.264 C 
ENDROOT
BRANCH   1   2
ATOM      2  C   UNL     1      58.954  86.909  74.090  1.00  0.00    -0.033 C 
ATOM      3  C   UNL     1      59.657  85.904  73.528  1.00  0.00    -0.015 C 
BRANCH   3   4
ATOM      4  C   UNL     1      60.801  85.086  74.106  1.00  0.00     0.078 C 
ATOM      5  O   UNL     1      62.899  86.225  73.460  1.00  0.00    -0.319 OA
ATOM      6  C   UNL     1      62.083  85.845  74.611  1.00  0.00     0.095 CG0
ATOM      7  C   UNL     1      63.033  85.216  72.440  1.00  0.00     0.289 C 
ATOM      8  C   UNL     1      62.903  84.845  75.526  1.00  0.00     0.023 C 
ATOM      9  G   UNL     1      61.698  87.198  75.278  1.00  0.00     0.000 G0
ATOM     10  O   UNL     1      61.761  84.811  71.943  1.00  0.00    -0.320 OA
ATOM     11  O   UNL     1      63.651  84.029  72.930  1.00  0.00    -0.313 OA
ATOM     12  C   UNL     1      61.285  84.048  73.063  1.00  0.00     0.170 C 
ATOM     13  C   UNL     1      62.759  83.371  75.036  1.00  0.00     0.049 C 
ATOM     14  C   UNL     1      64.394  85.180  75.702  1.00  0.00     0.011 C 
ATOM     15  C   UNL     1      62.558  83.296  73.521  1.00  0.00     0.122 C 
BRANCH   7  16
ATOM     16  C   UNL     1      63.866  85.790  71.311  1.00  0.00     0.135 C 
BRANCH  16  17
ATOM     17  C   UNL     1      65.345  85.617  71.554  1.00  0.00    -0.040 A 
ATOM     18  C   UNL     1      66.172  85.162  70.528  1.00  0.00     0.004 A 
ATOM     19  C   UNL     1      65.884  85.912  72.806  1.00  0.00     0.004 A 
ATOM     20  C   UNL     1      67.539  85.002  70.752  1.00  0.00     0.000 A 
ATOM     21  C   UNL     1      67.252  85.752  73.030  1.00  0.00     0.000 A 
ATOM     22  C   UNL     1      68.079  85.297  72.004  1.00  0.00     0.000 A 
ENDBRANCH  16  17
ENDBRANCH   7  16
BRANCH  15  23
ATOM     23  C   UNL     1      62.598  81.894  73.006  1.00  0.00    -0.046 C 
ATOM     24  C   UNL     1      62.743  81.739  71.521  1.00  0.00     0.042 C 
ATOM     25  C   UNL     1      62.510  80.835  73.824  1.00  0.00     0.010 C 
ENDBRANCH  15  23
ENDBRANCH   3   4
BRANCH   2  26
ATOM     26  C   UNL     1      59.181  87.555  75.444  1.00  0.00     0.078 C 
BRANCH  26  27
ATOM     27  C   UNL     1      60.444  87.155  76.205  1.00  0.00     0.140 C 
ATOM     28  C   UNL     1      61.701  87.198  75.312  1.00  0.00     0.086 CG0
ATOM     29  C   UNL     1      60.792  88.135  77.305  1.00  0.00     0.190 C 
ATOM     30  C   UNL     1      62.712  87.912  76.166  1.00  0.00    -0.010 C 
ATOM     31  G   UNL     1      62.096  85.862  74.618  1.00  0.00     0.000 G0
ATOM     32  O   UNL     1      60.015  88.562  78.146  1.00  0.00    -0.291 OA
ATOM     33  C   UNL     1      62.228  88.474  77.278  1.00  0.00    -0.008 C 
ATOM     34  C   UNL     1      62.902  89.309  78.293  1.00  0.00     0.048 C 
BRANCH  27  35
ATOM     35  O   UNL     1      60.270  85.925  76.889  1.00  0.00    -0.381 OA
ATOM     36  H   UNL     1      60.931  85.294  76.559  1.00  0.00     0.212 HD
ENDBRANCH  27  35
ENDBRANCH  26  27
ENDBRANCH   2  26
ENDBRANCH   1   2
BRANCH   1  37
ATOM     37  O   UNL     1      58.277  88.531  72.478  1.00  0.00    -0.461 OA
BRANCH  37  38
ATOM     38  C   UNL     1      57.528  88.783  71.352  1.00  0.00     0.310 C 
ATOM     39  O   UNL     1      56.315  88.937  71.335  1.00  0.00    -0.252 OA
BRANCH  38  40
ATOM     40  C   UNL     1      58.435  88.842  70.146  1.00  0.00     0.158 C 
BRANCH  40  41
ATOM     41  C   UNL     1      59.110  87.527  69.854  1.00  0.00    -0.037 A 
ATOM     42  C   UNL     1      60.408  87.506  69.345  1.00  0.00     0.008 A 
ATOM     43  C   UNL     1      58.436  86.329  70.092  1.00  0.00     0.008 A 
ATOM     44  C   UNL     1      61.033  86.289  69.073  1.00  0.00     0.046 A 
ATOM     45  C   UNL     1      59.060  85.111  69.822  1.00  0.00     0.046 A 
ATOM     46  C   UNL     1      60.358  85.091  69.312  1.00  0.00     0.115 A 
BRANCH  46  47
ATOM     47  O   UNL     1      60.967  83.903  69.047  1.00  0.00    -0.508 OA
ATOM     48  H   UNL     1      61.290  83.521  69.881  1.00  0.00     0.293 HD
ENDBRANCH  46  47
ENDBRANCH  40  41
ENDBRANCH  38  40
ENDBRANCH  37  38
ENDBRANCH   1  37
TORSDOF 10
ENDMDL
MODEL 8
REMARK VINA RESULT:    -5.857     15.948     18.635
REMARK INTER + INTRA:         -11.185
REMARK INTER:                  -9.164
REMARK INTRA:                  -2.021
REMARK UNBOUND:                -1.219
REMARK SMILES C=C(C)[C@]12C[C@@H](C)[C@@]34O[C@](Cc5ccccc5)(O[C@@H]1[C@@H]3C=C(COC(=O)Cc1ccc(O)cc1)C[C@]1(O)C(=O)C(C)=C[C@@H]41)O2
REMARK SMILES IDX 23 1 22 2 21 3 20 4 9 5 8 6 10 7 6 8 18 10 44 11 19 12 5 13
REMARK SMILES IDX 7 14 4 15 11 16 12 17 13 18 17 19 14 20 16 21 15 22 2 23
REMARK SMILES IDX 3 24 1 25 35 26 36 27 43 28 38 29 42 30 39 32 40 33 41 34
REMARK SMILES IDX 37 35 24 37 25 38 26 39 27 40 28 41 29 42 34 43 30 44 33 45
REMARK SMILES IDX 31 46 32 47
REMARK H PARENT 37 36 32 48
REMARK Flexibility Score: 90.00
ROOT
ATOM      1  C   UNL     1      97.025  77.396  76.889  1.00  0.00     0.264 C 
ENDROOT
BRANCH   1   2
ATOM      2  C   UNL     1      97.722  78.673  76.478  1.00  0.00    -0.033 C 
ATOM      3  C   UNL     1      98.751  78.613  75.608  1.00  0.00    -0.015 C 
BRANCH   3   4
ATOM      4  C   UNL     1      99.653  79.726  75.102  1.00  0.00     0.078 C 
ATOM      5  O   UNL     1      98.641  80.581  73.014  1.00  0.00    -0.319 OA
ATOM      6  C   UNL     1      98.991  80.958  74.382  1.00  0.00     0.095 CG0
ATOM      7  C   UNL     1      99.635  79.808  72.315  1.00  0.00     0.289 C 
ATOM      8  C   UNL     1     100.061  82.125  74.346  1.00  0.00     0.023 C 
ATOM      9  G   UNL     1      97.630  81.319  75.045  1.00  0.00     0.000 G0
ATOM     10  O   UNL     1      99.946  78.608  73.019  1.00  0.00    -0.320 OA
ATOM     11  O   UNL     1     100.870  80.506  72.181  1.00  0.00    -0.313 OA
ATOM     12  C   UNL     1     100.699  79.149  74.116  1.00  0.00     0.170 C 
ATOM     13  C   UNL     1     101.511  81.568  74.212  1.00  0.00     0.049 C 
ATOM     14  C   UNL     1      99.828  83.204  73.274  1.00  0.00     0.011 C 
ATOM     15  C   UNL     1     101.542  80.253  73.432  1.00  0.00     0.122 C 
BRANCH   7  16
ATOM     16  C   UNL     1      99.094  79.470  70.940  1.00  0.00     0.135 C 
BRANCH  16  17
ATOM     17  C   UNL     1     100.137  79.640  69.864  1.00  0.00    -0.040 A 
ATOM     18  C   UNL     1     100.599  78.529  69.159  1.00  0.00     0.004 A 
ATOM     19  C   UNL     1     100.638  80.909  69.574  1.00  0.00     0.004 A 
ATOM     20  C   UNL     1     101.563  78.687  68.163  1.00  0.00     0.000 A 
ATOM     21  C   UNL     1     101.603  81.066  68.578  1.00  0.00     0.000 A 
ATOM     22  C   UNL     1     102.065  79.956  67.873  1.00  0.00     0.000 A 
ENDBRANCH  16  17
ENDBRANCH   7  16
BRANCH  15  23
ATOM     23  C   UNL     1     102.932  79.794  73.135  1.00  0.00    -0.046 C 
ATOM     24  C   UNL     1     104.038  80.565  73.792  1.00  0.00     0.042 C 
ATOM     25  C   UNL     1     103.178  78.753  72.326  1.00  0.00     0.010 C 
ENDBRANCH  15  23
ENDBRANCH   3   4
BRANCH   2  26
ATOM     26  C   UNL     1      97.131  79.910  77.130  1.00  0.00     0.078 C 
BRANCH  26  27
ATOM     27  C   UNL     1      97.595  81.266  76.602  1.00  0.00     0.140 C 
ATOM     28  C   UNL     1      97.636  81.309  75.061  1.00  0.00     0.086 CG0
ATOM     29  C   UNL     1      96.624  82.379  76.932  1.00  0.00     0.190 C 
ATOM     30  C   UNL     1      96.972  82.616  74.729  1.00  0.00    -0.010 C 
ATOM     31  G   UNL     1      99.002  80.957  74.402  1.00  0.00     0.000 G0
ATOM     32  O   UNL     1      96.141  82.595  78.034  1.00  0.00    -0.291 OA
ATOM     33  C   UNL     1      96.370  83.228  75.753  1.00  0.00    -0.008 C 
ATOM     34  C   UNL     1      95.563  84.466  75.780  1.00  0.00     0.048 C 
BRANCH  27  35
ATOM     35  O   UNL     1      98.803  81.677  77.219  1.00  0.00    -0.381 OA
ATOM     36  H   UNL     1      99.106  82.493  76.787  1.00  0.00     0.212 HD
ENDBRANCH  27  35
ENDBRANCH  26  27
ENDBRANCH   2  26
ENDBRANCH   1   2
BRANCH   1  37
ATOM     37  O   UNL     1      97.923  76.590  77.620  1.00  0.00    -0.461 OA
BRANCH  37  38
ATOM     38  C   UNL     1      97.921  76.762  78.985  1.00  0.00     0.310 C 
ATOM     39  O   UNL     1      96.939  77.050  79.655  1.00  0.00    -0.252 OA
BRANCH  38  40
ATOM     40  C   UNL     1      99.314  76.540  79.524  1.00  0.00     0.158 C 
BRANCH  40  41
ATOM     41  C   UNL     1     100.352  77.389  78.836  1.00  0.00    -0.037 A 
ATOM     42  C   UNL     1     101.281  76.797  77.979  1.00  0.00     0.008 A 
ATOM     43  C   UNL     1     100.385  78.765  79.056  1.00  0.00     0.008 A 
ATOM     44  C   UNL     1     102.243  77.583  77.343  1.00  0.00     0.046 A 
ATOM     45  C   UNL     1     101.346  79.552  78.420  1.00  0.00     0.046 A 
ATOM     46  C   UNL     1     102.275  78.960  77.564  1.00  0.00     0.115 A 
BRANCH  46  47
ATOM     47  O   UNL     1     103.213  79.726  76.943  1.00  0.00    -0.508 OA
ATOM     48  H   UNL     1     103.942  79.154  76.647  1.00  0.00     0.293 HD
ENDBRANCH  46  47
ENDBRANCH  40  41
ENDBRANCH  38  40
ENDBRANCH  37  38
ENDBRANCH   1  37
TORSDOF 10
ENDMDL
MODEL 9
REMARK VINA RESULT:    -5.812     31.622     35.570
REMARK INTER + INTRA:         -11.109
REMARK INTER:                  -9.002
REMARK INTRA:                  -2.107
REMARK UNBOUND:                -1.219
REMARK SMILES C=C(C)[C@]12C[C@@H](C)[C@@]34O[C@](Cc5ccccc5)(O[C@@H]1[C@@H]3C=C(COC(=O)Cc1ccc(O)cc1)C[C@]1(O)C(=O)C(C)=C[C@@H]41)O2
REMARK SMILES IDX 23 1 22 2 21 3 20 4 9 5 8 6 10 7 6 8 18 10 44 11 19 12 5 13
REMARK SMILES IDX 7 14 4 15 11 16 12 17 13 18 17 19 14 20 16 21 15 22 2 23
REMARK SMILES IDX 3 24 1 25 35 26 36 27 43 28 38 29 42 30 39 32 40 33 41 34
REMARK SMILES IDX 37 35 24 37 25 38 26 39 27 40 28 41 29 42 34 43 30 44 33 45
REMARK SMILES IDX 31 46 32 47
REMARK H PARENT 37 36 32 48
REMARK Flexibility Score: 90.00
ROOT
ATOM      1  C   UNL     1      61.123  84.067  74.373  1.00  0.00     0.264 C 
ENDROOT
BRANCH   1   2
ATOM      2  C   UNL     1      61.756  85.366  73.931  1.00  0.00    -0.033 C 
ATOM      3  C   UNL     1      62.950  85.726  74.445  1.00  0.00    -0.015 C 
BRANCH   3   4
ATOM      4  C   UNL     1      63.751  87.000  74.226  1.00  0.00     0.078 C 
ATOM      5  O   UNL     1      65.296  86.565  72.344  1.00  0.00    -0.319 OA
ATOM      6  C   UNL     1      64.158  87.384  72.756  1.00  0.00     0.095 CG0
ATOM      7  C   UNL     1      66.324  86.396  73.340  1.00  0.00     0.289 C 
ATOM      8  C   UNL     1      64.586  88.910  72.760  1.00  0.00     0.023 C 
ATOM      9  G   UNL     1      63.028  87.010  71.753  1.00  0.00     0.000 G0
ATOM     10  O   UNL     1      65.799  85.823  74.534  1.00  0.00    -0.320 OA
ATOM     11  O   UNL     1      66.909  87.635  73.731  1.00  0.00    -0.313 OA
ATOM     12  C   UNL     1      65.062  86.945  75.047  1.00  0.00     0.170 C 
ATOM     13  C   UNL     1      65.262  89.311  74.107  1.00  0.00     0.049 C 
ATOM     14  C   UNL     1      65.482  89.349  71.589  1.00  0.00     0.011 C 
ATOM     15  C   UNL     1      66.005  88.134  74.739  1.00  0.00     0.122 C 
BRANCH   7  16
ATOM     16  C   UNL     1      67.396  85.491  72.765  1.00  0.00     0.135 C 
BRANCH  16  17
ATOM     17  C   UNL     1      67.572  85.693  71.281  1.00  0.00    -0.040 A 
ATOM     18  C   UNL     1      68.103  86.888  70.798  1.00  0.00     0.004 A 
ATOM     19  C   UNL     1      67.204  84.683  70.392  1.00  0.00     0.004 A 
ATOM     20  C   UNL     1      68.266  87.075  69.424  1.00  0.00     0.000 A 
ATOM     21  C   UNL     1      67.367  84.869  69.019  1.00  0.00     0.000 A 
ATOM     22  C   UNL     1      67.898  86.065  68.536  1.00  0.00     0.000 A 
ENDBRANCH  16  17
ENDBRANCH   7  16
BRANCH  15  23
ATOM     23  C   UNL     1      66.809  88.537  75.933  1.00  0.00    -0.046 C 
ATOM     24  C   UNL     1      66.537  89.906  76.482  1.00  0.00     0.042 C 
ATOM     25  C   UNL     1      67.721  87.722  76.482  1.00  0.00     0.010 C 
ENDBRANCH  15  23
ENDBRANCH   3   4
BRANCH   2  26
ATOM     26  C   UNL     1      60.921  86.119  72.912  1.00  0.00     0.078 C 
BRANCH  26  27
ATOM     27  C   UNL     1      61.570  87.322  72.230  1.00  0.00     0.140 C 
ATOM     28  C   UNL     1      63.009  87.021  71.761  1.00  0.00     0.086 CG0
ATOM     29  C   UNL     1      60.879  87.697  70.936  1.00  0.00     0.190 C 
ATOM     30  C   UNL     1      63.044  87.572  70.363  1.00  0.00    -0.010 C 
ATOM     31  G   UNL     1      64.146  87.392  72.757  1.00  0.00     0.000 G0
ATOM     32  O   UNL     1      59.673  87.839  70.792  1.00  0.00    -0.291 OA
ATOM     33  C   UNL     1      61.860  87.934  69.860  1.00  0.00    -0.008 C 
ATOM     34  C   UNL     1      61.510  88.431  68.514  1.00  0.00     0.048 C 
BRANCH  27  35
ATOM     35  O   UNL     1      61.459  88.491  73.024  1.00  0.00    -0.381 OA
ATOM     36  H   UNL     1      60.520  88.629  73.236  1.00  0.00     0.212 HD
ENDBRANCH  27  35
ENDBRANCH  26  27
ENDBRANCH   2  26
ENDBRANCH   1   2
BRANCH   1  37
ATOM     37  O   UNL     1      62.093  83.042  74.342  1.00  0.00    -0.461 OA
BRANCH  37  38
ATOM     38  C   UNL     1      61.929  82.080  73.371  1.00  0.00     0.310 C 
ATOM     39  O   UNL     1      60.879  81.505  73.123  1.00  0.00    -0.252 OA
BRANCH  38  40
ATOM     40  C   UNL     1      63.243  81.849  72.664  1.00  0.00     0.158 C 
BRANCH  40  41
ATOM     41  C   UNL     1      63.248  82.366  71.249  1.00  0.00    -0.037 A 
ATOM     42  C   UNL     1      63.705  83.656  70.979  1.00  0.00     0.008 A 
ATOM     43  C   UNL     1      62.796  81.555  70.208  1.00  0.00     0.008 A 
ATOM     44  C   UNL     1      63.709  84.135  69.669  1.00  0.00     0.046 A 
ATOM     45  C   UNL     1      62.800  82.033  68.898  1.00  0.00     0.046 A 
ATOM     46  C   UNL     1      63.257  83.323  68.628  1.00  0.00     0.115 A 
BRANCH  46  47
ATOM     47  O   UNL     1      63.260  83.791  67.350  1.00  0.00    -0.508 OA
ATOM     48  H   UNL     1      63.116  83.046  66.741  1.00  0.00     0.293 HD
ENDBRANCH  46  47
ENDBRANCH  40  41
ENDBRANCH  38  40
ENDBRANCH  37  38
ENDBRANCH   1  37
TORSDOF 10
ENDMDL
MODEL 10
REMARK VINA RESULT:    -5.703     15.707     18.352
REMARK INTER + INTRA:         -10.923
REMARK INTER:                  -9.504
REMARK INTRA:                  -1.419
REMARK UNBOUND:                -1.219
REMARK SMILES C=C(C)[C@]12C[C@@H](C)[C@@]34O[C@](Cc5ccccc5)(O[C@@H]1[C@@H]3C=C(COC(=O)Cc1ccc(O)cc1)C[C@]1(O)C(=O)C(C)=C[C@@H]41)O2
REMARK SMILES IDX 23 1 22 2 21 3 20 4 9 5 8 6 10 7 6 8 18 10 44 11 19 12 5 13
REMARK SMILES IDX 7 14 4 15 11 16 12 17 13 18 17 19 14 20 16 21 15 22 2 23
REMARK SMILES IDX 3 24 1 25 35 26 36 27 43 28 38 29 42 30 39 32 40 33 41 34
REMARK SMILES IDX 37 35 24 37 25 38 26 39 27 40 28 41 29 42 34 43 30 44 33 45
REMARK SMILES IDX 31 46 32 47
REMARK H PARENT 37 36 32 48
REMARK Flexibility Score: 90.00
ROOT
ATOM      1  C   UNL     1      97.443  77.434  75.868  1.00  0.00     0.264 C 
ENDROOT
BRANCH   1   2
ATOM      2  C   UNL     1      98.046  78.797  75.619  1.00  0.00    -0.033 C 
ATOM      3  C   UNL     1      99.132  78.902  74.824  1.00  0.00    -0.015 C 
BRANCH   3   4
ATOM      4  C   UNL     1      99.961  80.129  74.481  1.00  0.00     0.078 C 
ATOM      5  O   UNL     1      99.001  81.092  72.416  1.00  0.00    -0.319 OA
ATOM      6  C   UNL     1      99.236  81.365  73.832  1.00  0.00     0.095 CG0
ATOM      7  C   UNL     1     100.098  80.472  71.718  1.00  0.00     0.289 C 
ATOM      8  C   UNL     1     100.200  82.614  73.972  1.00  0.00     0.023 C 
ATOM      9  G   UNL     1      97.812  81.549  74.434  1.00  0.00     0.000 G0
ATOM     10  O   UNL     1     100.471  79.241  72.330  1.00  0.00    -0.320 OA
ATOM     11  O   UNL     1     101.273  81.280  71.728  1.00  0.00    -0.313 OA
ATOM     12  C   UNL     1     101.109  79.735  73.518  1.00  0.00     0.170 C 
ATOM     13  C   UNL     1     101.699  82.193  73.884  1.00  0.00     0.049 C 
ATOM     14  C   UNL     1      99.936  83.767  72.988  1.00  0.00     0.011 C 
ATOM     15  C   UNL     1     101.890  80.964  72.993  1.00  0.00     0.122 C 
BRANCH   7  16
ATOM     16  C   UNL     1      99.669  80.224  70.285  1.00  0.00     0.135 C 
BRANCH  16  17
ATOM     17  C   UNL     1      99.074  78.850  70.102  1.00  0.00    -0.040 A 
ATOM     18  C   UNL     1      97.824  78.554  70.643  1.00  0.00     0.004 A 
ATOM     19  C   UNL     1      99.776  77.876  69.391  1.00  0.00     0.004 A 
ATOM     20  C   UNL     1      97.273  77.283  70.473  1.00  0.00     0.000 A 
ATOM     21  C   UNL     1      99.225  76.606  69.222  1.00  0.00     0.000 A 
ATOM     22  C   UNL     1      97.975  76.309  69.762  1.00  0.00     0.000 A 
ENDBRANCH  16  17
ENDBRANCH   7  16
BRANCH  15  23
ATOM     23  C   UNL     1     103.331  80.652  72.748  1.00  0.00    -0.046 C 
ATOM     24  C   UNL     1     104.212  80.599  73.961  1.00  0.00     0.042 C 
ATOM     25  C   UNL     1     103.809  80.431  71.515  1.00  0.00     0.010 C 
ENDBRANCH  15  23
ENDBRANCH   3   4
BRANCH   2  26
ATOM     26  C   UNL     1      97.304  79.915  76.326  1.00  0.00     0.078 C 
BRANCH  26  27
ATOM     27  C   UNL     1      97.698  81.348  75.971  1.00  0.00     0.140 C 
ATOM     28  C   UNL     1      97.815  81.561  74.448  1.00  0.00     0.086 CG0
ATOM     29  C   UNL     1      96.637  82.355  76.360  1.00  0.00     0.190 C 
ATOM     30  C   UNL     1      97.079  82.852  74.218  1.00  0.00    -0.010 C 
ATOM     31  G   UNL     1      99.233  81.371  73.835  1.00  0.00     0.000 G0
ATOM     32  O   UNL     1      96.086  82.418  77.449  1.00  0.00    -0.291 OA
ATOM     33  C   UNL     1      96.384  83.309  75.264  1.00  0.00    -0.008 C 
ATOM     34  C   UNL     1      95.493  84.482  75.375  1.00  0.00     0.048 C 
BRANCH  27  35
ATOM     35  O   UNL     1      98.843  81.765  76.697  1.00  0.00    -0.381 OA
ATOM     36  H   UNL     1      98.895  81.242  77.515  1.00  0.00     0.212 HD
ENDBRANCH  27  35
ENDBRANCH  26  27
ENDBRANCH   2  26
ENDBRANCH   1   2
BRANCH   1  37
ATOM     37  O   UNL     1      98.428  76.581  76.412  1.00  0.00    -0.461 OA
BRANCH  37  38
ATOM     38  C   UNL     1      98.161  76.060  77.657  1.00  0.00     0.310 C 
ATOM     39  O   UNL     1      97.266  75.266  77.910  1.00  0.00    -0.252 OA
BRANCH  38  40
ATOM     40  C   UNL     1      99.142  76.621  78.658  1.00  0.00     0.158 C 
BRANCH  40  41
ATOM     41  C   UNL     1      98.644  77.874  79.331  1.00  0.00    -0.037 A 
ATOM     42  C   UNL     1      99.291  79.090  79.108  1.00  0.00     0.008 A 
ATOM     43  C   UNL     1      97.537  77.819  80.177  1.00  0.00     0.008 A 
ATOM     44  C   UNL     1      98.830  80.250  79.732  1.00  0.00     0.046 A 
ATOM     45  C   UNL     1      97.075  78.979  80.800  1.00  0.00     0.046 A 
ATOM     46  C   UNL     1      97.722  80.194  80.578  1.00  0.00     0.115 A 
BRANCH  46  47
ATOM     47  O   UNL     1      97.273  81.325  81.186  1.00  0.00    -0.508 OA
ATOM     48  H   UNL     1      97.891  82.053  80.995  1.00  0.00     0.293 HD
ENDBRANCH  46  47
ENDBRANCH  40  41
ENDBRANCH  38  40
ENDBRANCH  37  38
ENDBRANCH   1  37
TORSDOF 10
ENDMDL
