MODEL 1
REMARK VINA RESULT:    -5.300      0.000      0.000
REMARK INTER + INTRA:         -10.009
REMARK INTER:                  -8.553
REMARK INTRA:                  -1.456
REMARK UNBOUND:                -1.456
REMARK SMILES CCCCCCCCC(=O)NCc1ccc(O)c(OC)c1
REMARK SMILES IDX 7 1 6 2 5 3 4 4 3 5 2 6 1 7 8 8 9 9 10 10 11 11 12 13 13 14
REMARK SMILES IDX 21 15 14 16 18 17 15 18 16 19 19 20 20 21 17 22
REMARK H PARENT 11 12 17 23
REMARK Flexibility Score: inf
ROOT
ATOM      1  C   UNL     1      79.698  87.857  84.022  1.00  0.00     0.010 C 
ENDROOT
BRANCH   1   2
ATOM      2  C   UNL     1      80.639  89.095  84.069  1.00  0.00     0.001 C 
BRANCH   2   3
ATOM      3  C   UNL     1      80.592  89.818  85.448  1.00  0.00     0.000 C 
BRANCH   3   4
ATOM      4  C   UNL     1      81.907  89.691  86.267  1.00  0.00    -0.000 C 
BRANCH   4   5
ATOM      5  C   UNL     1      83.165  89.547  85.365  1.00  0.00    -0.000 C 
BRANCH   5   6
ATOM      6  C   UNL     1      83.982  90.864  85.266  1.00  0.00    -0.003 C 
ATOM      7  C   UNL     1      85.484  90.620  85.005  1.00  0.00     0.004 C 
ENDBRANCH   5   6
ENDBRANCH   4   5
ENDBRANCH   3   4
ENDBRANCH   2   3
ENDBRANCH   1   2
BRANCH   1   8
ATOM      8  C   UNL     1      80.445  86.504  83.856  1.00  0.00     0.100 C 
BRANCH   8   9
ATOM      9  C   UNL     1      81.135  86.112  85.108  1.00  0.00     0.220 C 
ATOM     10  O   UNL     1      82.323  85.717  85.034  1.00  0.00    -0.275 OA
ATOM     11  N   UNL     1      80.497  86.207  86.311  1.00  0.00    -0.352 N 
ATOM     12  H   UNL     1      79.520  86.452  86.247  1.00  0.00     0.163 HD
BRANCH  11  13
ATOM     13  C   UNL     1      81.095  85.996  87.594  1.00  0.00     0.151 C 
BRANCH  13  14
ATOM     14  C   UNL     1      80.629  86.946  88.639  1.00  0.00    -0.025 A 
ATOM     15  C   UNL     1      81.564  87.591  89.483  1.00  0.00     0.056 A 
ATOM     16  C   UNL     1      79.252  87.218  88.812  1.00  0.00     0.009 A 
ATOM     17  C   UNL     1      81.137  88.510  90.469  1.00  0.00     0.160 A 
ATOM     18  C   UNL     1      78.822  88.131  89.790  1.00  0.00     0.050 A 
ATOM     19  C   UNL     1      79.758  88.772  90.625  1.00  0.00     0.157 A 
BRANCH  17  20
ATOM     20  O   UNL     1      82.042  89.102  91.314  1.00  0.00    -0.493 OA
ATOM     21  C   UNL     1      82.661  88.196  92.244  1.00  0.00     0.278 C 
ENDBRANCH  17  20
BRANCH  19  22
ATOM     22  O   UNL     1      79.330  89.632  91.585  1.00  0.00    -0.504 OA
ATOM     23  H   UNL     1      79.166  90.493  91.193  1.00  0.00     0.293 HD
ENDBRANCH  19  22
ENDBRANCH  13  14
ENDBRANCH  11  13
ENDBRANCH   8   9
ENDBRANCH   1   8
TORSDOF 11
ENDMDL
MODEL 2
REMARK VINA RESULT:    -5.295     14.868     18.368
REMARK INTER + INTRA:         -10.001
REMARK INTER:                  -9.232
REMARK INTRA:                  -0.769
REMARK UNBOUND:                -1.456
REMARK SMILES CCCCCCCCC(=O)NCc1ccc(O)c(OC)c1
REMARK SMILES IDX 7 1 6 2 5 3 4 4 3 5 2 6 1 7 8 8 9 9 10 10 11 11 12 13 13 14
REMARK SMILES IDX 21 15 14 16 18 17 15 18 16 19 19 20 20 21 17 22
REMARK H PARENT 11 12 17 23
REMARK Flexibility Score: inf
ROOT
ATOM      1  C   UNL     1      94.438  96.133  74.923  1.00  0.00     0.010 C 
ENDROOT
BRANCH   1   2
ATOM      2  C   UNL     1      93.980  94.739  75.439  1.00  0.00     0.001 C 
BRANCH   2   3
ATOM      3  C   UNL     1      92.703  94.231  74.707  1.00  0.00     0.000 C 
BRANCH   3   4
ATOM      4  C   UNL     1      91.582  93.742  75.667  1.00  0.00    -0.000 C 
BRANCH   4   5
ATOM      5  C   UNL     1      92.078  92.658  76.666  1.00  0.00    -0.000 C 
BRANCH   5   6
ATOM      6  C   UNL     1      91.015  92.308  77.742  1.00  0.00    -0.003 C 
ATOM      7  C   UNL     1      89.584  92.717  77.327  1.00  0.00     0.004 C 
ENDBRANCH   5   6
ENDBRANCH   4   5
ENDBRANCH   3   4
ENDBRANCH   2   3
ENDBRANCH   1   2
BRANCH   1   8
ATOM      8  C   UNL     1      95.957  96.218  74.603  1.00  0.00     0.100 C 
BRANCH   8   9
ATOM      9  C   UNL     1      96.769  96.245  75.843  1.00  0.00     0.220 C 
ATOM     10  O   UNL     1      97.955  95.840  75.787  1.00  0.00    -0.275 OA
ATOM     11  N   UNL     1      96.242  96.726  77.008  1.00  0.00    -0.352 N 
ATOM     12  H   UNL     1      95.258  96.943  76.962  1.00  0.00     0.163 HD
BRANCH  11  13
ATOM     13  C   UNL     1      96.961  96.935  78.227  1.00  0.00     0.151 C 
BRANCH  13  14
ATOM     14  C   UNL     1      96.472  96.108  79.362  1.00  0.00    -0.025 A 
ATOM     15  C   UNL     1      96.420  96.651  80.669  1.00  0.00     0.056 A 
ATOM     16  C   UNL     1      96.055  94.772  79.162  1.00  0.00     0.009 A 
ATOM     17  C   UNL     1      95.941  95.882  81.755  1.00  0.00     0.160 A 
ATOM     18  C   UNL     1      95.577  94.003  80.237  1.00  0.00     0.050 A 
ATOM     19  C   UNL     1      95.525  94.550  81.534  1.00  0.00     0.157 A 
BRANCH  17  20
ATOM     20  O   UNL     1      95.931  96.396  83.027  1.00  0.00    -0.493 OA
ATOM     21  C   UNL     1      96.887  97.449  83.244  1.00  0.00     0.278 C 
ENDBRANCH  17  20
BRANCH  19  22
ATOM     22  O   UNL     1      95.087  93.791  82.571  1.00  0.00    -0.504 OA
ATOM     23  H   UNL     1      95.836  93.522  83.109  1.00  0.00     0.293 HD
ENDBRANCH  19  22
ENDBRANCH  13  14
ENDBRANCH  11  13
ENDBRANCH   8   9
ENDBRANCH   1   8
TORSDOF 11
ENDMDL
MODEL 3
REMARK VINA RESULT:    -5.232     23.937     25.583
REMARK INTER + INTRA:          -9.899
REMARK INTER:                  -9.099
REMARK INTRA:                  -0.800
REMARK UNBOUND:                -1.456
REMARK SMILES CCCCCCCCC(=O)NCc1ccc(O)c(OC)c1
REMARK SMILES IDX 7 1 6 2 5 3 4 4 3 5 2 6 1 7 8 8 9 9 10 10 11 11 12 13 13 14
REMARK SMILES IDX 21 15 14 16 18 17 15 18 16 19 19 20 20 21 17 22
REMARK H PARENT 11 12 17 23
REMARK Flexibility Score: inf
ROOT
ATOM      1  C   UNL     1      82.067  64.953  76.182  1.00  0.00     0.010 C 
ENDROOT
BRANCH   1   2
ATOM      2  C   UNL     1      81.679  66.453  76.048  1.00  0.00     0.001 C 
BRANCH   2   3
ATOM      3  C   UNL     1      81.056  66.779  74.658  1.00  0.00     0.000 C 
BRANCH   3   4
ATOM      4  C   UNL     1      80.017  65.728  74.175  1.00  0.00    -0.000 C 
BRANCH   4   5
ATOM      5  C   UNL     1      80.236  65.304  72.695  1.00  0.00    -0.000 C 
BRANCH   5   6
ATOM      6  C   UNL     1      80.298  66.519  71.730  1.00  0.00    -0.003 C 
ATOM      7  C   UNL     1      79.902  66.156  70.282  1.00  0.00     0.004 C 
ENDBRANCH   5   6
ENDBRANCH   4   5
ENDBRANCH   3   4
ENDBRANCH   2   3
ENDBRANCH   1   2
BRANCH   1   8
ATOM      8  C   UNL     1      83.354  64.563  75.402  1.00  0.00     0.100 C 
BRANCH   8   9
ATOM      9  C   UNL     1      84.278  63.770  76.248  1.00  0.00     0.220 C 
ATOM     10  O   UNL     1      85.291  63.263  75.709  1.00  0.00    -0.275 OA
ATOM     11  N   UNL     1      84.042  63.624  77.585  1.00  0.00    -0.352 N 
ATOM     12  H   UNL     1      83.158  63.997  77.896  1.00  0.00     0.163 HD
BRANCH  11  13
ATOM     13  C   UNL     1      84.926  63.007  78.527  1.00  0.00     0.151 C 
BRANCH  13  14
ATOM     14  C   UNL     1      85.365  63.913  79.621  1.00  0.00    -0.025 A 
ATOM     15  C   UNL     1      86.122  65.072  79.326  1.00  0.00     0.056 A 
ATOM     16  C   UNL     1      85.042  63.634  80.969  1.00  0.00     0.009 A 
ATOM     17  C   UNL     1      86.532  65.952  80.354  1.00  0.00     0.160 A 
ATOM     18  C   UNL     1      85.446  64.506  81.996  1.00  0.00     0.050 A 
ATOM     19  C   UNL     1      86.196  65.659  81.695  1.00  0.00     0.157 A 
BRANCH  17  20
ATOM     20  O   UNL     1      87.302  67.052  80.070  1.00  0.00    -0.493 OA
ATOM     21  C   UNL     1      88.651  66.742  79.680  1.00  0.00     0.278 C 
ENDBRANCH  17  20
BRANCH  19  22
ATOM     22  O   UNL     1      86.605  66.479  82.696  1.00  0.00    -0.504 OA
ATOM     23  H   UNL     1      86.676  65.978  83.512  1.00  0.00     0.293 HD
ENDBRANCH  19  22
ENDBRANCH  13  14
ENDBRANCH  11  13
ENDBRANCH   8   9
ENDBRANCH   1   8
TORSDOF 11
ENDMDL
MODEL 4
REMARK VINA RESULT:    -5.153      2.306      4.794
REMARK INTER + INTRA:          -9.771
REMARK INTER:                  -8.274
REMARK INTRA:                  -1.497
REMARK UNBOUND:                -1.456
REMARK SMILES CCCCCCCCC(=O)NCc1ccc(O)c(OC)c1
REMARK SMILES IDX 7 1 6 2 5 3 4 4 3 5 2 6 1 7 8 8 9 9 10 10 11 11 12 13 13 14
REMARK SMILES IDX 21 15 14 16 18 17 15 18 16 19 19 20 20 21 17 22
REMARK H PARENT 11 12 17 23
REMARK Flexibility Score: inf
ROOT
ATOM      1  C   UNL     1      81.326  86.531  88.498  1.00  0.00     0.010 C 
ENDROOT
BRANCH   1   2
ATOM      2  C   UNL     1      79.857  86.763  88.954  1.00  0.00     0.001 C 
BRANCH   2   3
ATOM      3  C   UNL     1      79.447  88.264  88.880  1.00  0.00     0.000 C 
BRANCH   3   4
ATOM      4  C   UNL     1      80.350  89.114  87.942  1.00  0.00    -0.000 C 
BRANCH   4   5
ATOM      5  C   UNL     1      80.029  88.891  86.436  1.00  0.00    -0.000 C 
BRANCH   5   6
ATOM      6  C   UNL     1      80.222  90.178  85.589  1.00  0.00    -0.003 C 
ATOM      7  C   UNL     1      80.852  89.898  84.207  1.00  0.00     0.004 C 
ENDBRANCH   5   6
ENDBRANCH   4   5
ENDBRANCH   3   4
ENDBRANCH   2   3
ENDBRANCH   1   2
BRANCH   1   8
ATOM      8  C   UNL     1      81.460  85.625  87.243  1.00  0.00     0.100 C 
BRANCH   8   9
ATOM      9  C   UNL     1      82.323  86.252  86.213  1.00  0.00     0.220 C 
ATOM     10  O   UNL     1      82.283  85.797  85.045  1.00  0.00    -0.275 OA
ATOM     11  N   UNL     1      83.118  87.317  86.529  1.00  0.00    -0.352 N 
ATOM     12  H   UNL     1      83.139  87.545  87.512  1.00  0.00     0.163 HD
BRANCH  11  13
ATOM     13  C   UNL     1      83.883  88.093  85.601  1.00  0.00     0.151 C 
BRANCH  13  14
ATOM     14  C   UNL     1      84.010  89.526  85.978  1.00  0.00    -0.025 A 
ATOM     15  C   UNL     1      83.640  89.957  87.274  1.00  0.00     0.056 A 
ATOM     16  C   UNL     1      84.496  90.480  85.054  1.00  0.00     0.009 A 
ATOM     17  C   UNL     1      83.772  91.314  87.652  1.00  0.00     0.160 A 
ATOM     18  C   UNL     1      84.631  91.830  85.424  1.00  0.00     0.050 A 
ATOM     19  C   UNL     1      84.264  92.252  86.716  1.00  0.00     0.157 A 
BRANCH  17  20
ATOM     20  O   UNL     1      83.374  91.737  88.895  1.00  0.00    -0.493 OA
ATOM     21  C   UNL     1      83.663  90.809  89.954  1.00  0.00     0.278 C 
ENDBRANCH  17  20
BRANCH  19  22
ATOM     22  O   UNL     1      84.371  93.562  87.055  1.00  0.00    -0.504 OA
ATOM     23  H   UNL     1      84.327  93.650  88.010  1.00  0.00     0.293 HD
ENDBRANCH  19  22
ENDBRANCH  13  14
ENDBRANCH  11  13
ENDBRANCH   8   9
ENDBRANCH   1   8
TORSDOF 11
ENDMDL
MODEL 5
REMARK VINA RESULT:    -5.043     20.010     22.065
REMARK INTER + INTRA:          -9.595
REMARK INTER:                  -8.007
REMARK INTRA:                  -1.588
REMARK UNBOUND:                -1.456
REMARK SMILES CCCCCCCCC(=O)NCc1ccc(O)c(OC)c1
REMARK SMILES IDX 7 1 6 2 5 3 4 4 3 5 2 6 1 7 8 8 9 9 10 10 11 11 12 13 13 14
REMARK SMILES IDX 21 15 14 16 18 17 15 18 16 19 19 20 20 21 17 22
REMARK H PARENT 11 12 17 23
REMARK Flexibility Score: inf
ROOT
ATOM      1  C   UNL     1      75.663  83.462  66.210  1.00  0.00     0.010 C 
ENDROOT
BRANCH   1   2
ATOM      2  C   UNL     1      74.601  84.225  65.367  1.00  0.00     0.001 C 
BRANCH   2   3
ATOM      3  C   UNL     1      74.167  85.562  66.036  1.00  0.00     0.000 C 
BRANCH   3   4
ATOM      4  C   UNL     1      72.753  85.511  66.681  1.00  0.00    -0.000 C 
BRANCH   4   5
ATOM      5  C   UNL     1      72.792  85.683  68.226  1.00  0.00    -0.000 C 
BRANCH   5   6
ATOM      6  C   UNL     1      74.235  85.624  68.796  1.00  0.00    -0.003 C 
ATOM      7  C   UNL     1      74.471  84.398  69.706  1.00  0.00     0.004 C 
ENDBRANCH   5   6
ENDBRANCH   4   5
ENDBRANCH   3   4
ENDBRANCH   2   3
ENDBRANCH   1   2
BRANCH   1   8
ATOM      8  C   UNL     1      77.047  83.334  65.514  1.00  0.00     0.100 C 
BRANCH   8   9
ATOM      9  C   UNL     1      77.892  84.525  65.768  1.00  0.00     0.220 C 
ATOM     10  O   UNL     1      78.762  84.830  64.917  1.00  0.00    -0.275 OA
ATOM     11  N   UNL     1      77.705  85.282  66.889  1.00  0.00    -0.352 N 
ATOM     12  H   UNL     1      77.041  84.898  67.546  1.00  0.00     0.163 HD
BRANCH  11  13
ATOM     13  C   UNL     1      78.355  86.524  67.177  1.00  0.00     0.151 C 
BRANCH  13  14
ATOM     14  C   UNL     1      77.648  87.713  66.631  1.00  0.00    -0.025 A 
ATOM     15  C   UNL     1      76.572  88.293  67.346  1.00  0.00     0.056 A 
ATOM     16  C   UNL     1      78.031  88.282  65.394  1.00  0.00     0.009 A 
ATOM     17  C   UNL     1      75.902  89.434  66.848  1.00  0.00     0.160 A 
ATOM     18  C   UNL     1      77.369  89.417  64.894  1.00  0.00     0.050 A 
ATOM     19  C   UNL     1      76.301  89.991  65.612  1.00  0.00     0.157 A 
BRANCH  17  20
ATOM     20  O   UNL     1      74.833  89.969  67.521  1.00  0.00    -0.493 OA
ATOM     21  C   UNL     1      74.542  89.322  68.773  1.00  0.00     0.278 C 
ENDBRANCH  17  20
BRANCH  19  22
ATOM     22  O   UNL     1      75.651  91.070  65.107  1.00  0.00    -0.504 OA
ATOM     23  H   UNL     1      74.760  90.817  64.855  1.00  0.00     0.293 HD
ENDBRANCH  19  22
ENDBRANCH  13  14
ENDBRANCH  11  13
ENDBRANCH   8   9
ENDBRANCH   1   8
TORSDOF 11
ENDMDL
MODEL 6
REMARK VINA RESULT:    -4.933     21.648     24.774
REMARK INTER + INTRA:          -9.417
REMARK INTER:                  -8.775
REMARK INTRA:                  -0.642
REMARK UNBOUND:                -1.456
REMARK SMILES CCCCCCCCC(=O)NCc1ccc(O)c(OC)c1
REMARK SMILES IDX 7 1 6 2 5 3 4 4 3 5 2 6 1 7 8 8 9 9 10 10 11 11 12 13 13 14
REMARK SMILES IDX 21 15 14 16 18 17 15 18 16 19 19 20 20 21 17 22
REMARK H PARENT 11 12 17 23
REMARK Flexibility Score: inf
ROOT
ATOM      1  C   UNL     1      73.597  81.377  64.408  1.00  0.00     0.010 C 
ENDROOT
BRANCH   1   2
ATOM      2  C   UNL     1      73.007  80.455  63.303  1.00  0.00     0.001 C 
BRANCH   2   3
ATOM      3  C   UNL     1      71.452  80.521  63.249  1.00  0.00     0.000 C 
BRANCH   3   4
ATOM      4  C   UNL     1      70.873  81.930  63.561  1.00  0.00    -0.000 C 
BRANCH   4   5
ATOM      5  C   UNL     1      70.087  81.972  64.902  1.00  0.00    -0.000 C 
BRANCH   5   6
ATOM      6  C   UNL     1      68.980  83.060  64.910  1.00  0.00    -0.003 C 
ATOM      7  C   UNL     1      68.837  83.780  63.550  1.00  0.00     0.004 C 
ENDBRANCH   5   6
ENDBRANCH   4   5
ENDBRANCH   3   4
ENDBRANCH   2   3
ENDBRANCH   1   2
BRANCH   1   8
ATOM      8  C   UNL     1      74.972  80.903  64.956  1.00  0.00     0.100 C 
BRANCH   8   9
ATOM      9  C   UNL     1      76.077  81.755  64.453  1.00  0.00     0.220 C 
ATOM     10  O   UNL     1      77.213  81.239  64.321  1.00  0.00    -0.275 OA
ATOM     11  N   UNL     1      75.850  83.058  64.115  1.00  0.00    -0.352 N 
ATOM     12  H   UNL     1      74.925  83.393  64.342  1.00  0.00     0.163 HD
BRANCH  11  13
ATOM     13  C   UNL     1      76.791  83.936  63.490  1.00  0.00     0.151 C 
BRANCH  13  14
ATOM     14  C   UNL     1      77.302  85.007  64.387  1.00  0.00    -0.025 A 
ATOM     15  C   UNL     1      77.182  86.367  64.013  1.00  0.00     0.056 A 
ATOM     16  C   UNL     1      77.917  84.690  65.620  1.00  0.00     0.009 A 
ATOM     17  C   UNL     1      77.647  87.396  64.863  1.00  0.00     0.160 A 
ATOM     18  C   UNL     1      78.381  85.709  66.470  1.00  0.00     0.050 A 
ATOM     19  C   UNL     1      78.255  87.060  66.093  1.00  0.00     0.157 A 
BRANCH  17  20
ATOM     20  O   UNL     1      77.568  88.711  64.480  1.00  0.00    -0.493 OA
ATOM     21  C   UNL     1      77.357  88.902  63.069  1.00  0.00     0.278 C 
ENDBRANCH  17  20
BRANCH  19  22
ATOM     22  O   UNL     1      78.731  88.036  66.909  1.00  0.00    -0.504 OA
ATOM     23  H   UNL     1      79.533  88.406  66.531  1.00  0.00     0.293 HD
ENDBRANCH  19  22
ENDBRANCH  13  14
ENDBRANCH  11  13
ENDBRANCH   8   9
ENDBRANCH   1   8
TORSDOF 11
ENDMDL
MODEL 7
REMARK VINA RESULT:    -4.895      1.259      2.372
REMARK INTER + INTRA:          -9.355
REMARK INTER:                  -7.311
REMARK INTRA:                  -2.044
REMARK UNBOUND:                -1.456
REMARK SMILES CCCCCCCCC(=O)NCc1ccc(O)c(OC)c1
REMARK SMILES IDX 7 1 6 2 5 3 4 4 3 5 2 6 1 7 8 8 9 9 10 10 11 11 12 13 13 14
REMARK SMILES IDX 21 15 14 16 18 17 15 18 16 19 19 20 20 21 17 22
REMARK H PARENT 11 12 17 23
REMARK Flexibility Score: inf
ROOT
ATOM      1  C   UNL     1      79.650  88.057  84.360  1.00  0.00     0.010 C 
ENDROOT
BRANCH   1   2
ATOM      2  C   UNL     1      80.783  88.763  83.561  1.00  0.00     0.001 C 
BRANCH   2   3
ATOM      3  C   UNL     1      81.553  89.804  84.426  1.00  0.00     0.000 C 
BRANCH   3   4
ATOM      4  C   UNL     1      82.857  89.248  85.063  1.00  0.00    -0.000 C 
BRANCH   4   5
ATOM      5  C   UNL     1      82.894  89.425  86.607  1.00  0.00    -0.000 C 
BRANCH   5   6
ATOM      6  C   UNL     1      81.844  90.450  87.115  1.00  0.00    -0.003 C 
ATOM      7  C   UNL     1      82.367  91.318  88.281  1.00  0.00     0.004 C 
ENDBRANCH   5   6
ENDBRANCH   4   5
ENDBRANCH   3   4
ENDBRANCH   2   3
ENDBRANCH   1   2
BRANCH   1   8
ATOM      8  C   UNL     1      79.845  86.522  84.507  1.00  0.00     0.100 C 
BRANCH   8   9
ATOM      9  C   UNL     1      80.756  86.199  85.632  1.00  0.00     0.220 C 
ATOM     10  O   UNL     1      81.877  85.703  85.367  1.00  0.00    -0.275 OA
ATOM     11  N   UNL     1      80.389  86.466  86.920  1.00  0.00    -0.352 N 
ATOM     12  H   UNL     1      79.436  86.783  87.026  1.00  0.00     0.163 HD
BRANCH  11  13
ATOM     13  C   UNL     1      81.227  86.333  88.072  1.00  0.00     0.151 C 
BRANCH  13  14
ATOM     14  C   UNL     1      81.029  87.403  89.086  1.00  0.00    -0.025 A 
ATOM     15  C   UNL     1      79.840  88.171  89.089  1.00  0.00     0.056 A 
ATOM     16  C   UNL     1      82.019  87.676  90.058  1.00  0.00     0.009 A 
ATOM     17  C   UNL     1      79.631  89.180  90.057  1.00  0.00     0.160 A 
ATOM     18  C   UNL     1      81.817  88.677  91.024  1.00  0.00     0.050 A 
ATOM     19  C   UNL     1      80.630  89.436  91.023  1.00  0.00     0.157 A 
BRANCH  17  20
ATOM     20  O   UNL     1      78.496  89.952  90.031  1.00  0.00    -0.493 OA
ATOM     21  C   UNL     1      78.577  91.090  89.155  1.00  0.00     0.278 C 
ENDBRANCH  17  20
BRANCH  19  22
ATOM     22  O   UNL     1      80.456  90.419  91.942  1.00  0.00    -0.504 OA
ATOM     23  H   UNL     1      80.149  90.035  92.767  1.00  0.00     0.293 HD
ENDBRANCH  19  22
ENDBRANCH  13  14
ENDBRANCH  11  13
ENDBRANCH   8   9
ENDBRANCH   1   8
TORSDOF 11
ENDMDL
MODEL 8
REMARK VINA RESULT:    -4.862     20.666     24.234
REMARK INTER + INTRA:          -9.302
REMARK INTER:                  -8.418
REMARK INTRA:                  -0.884
REMARK UNBOUND:                -1.456
REMARK SMILES CCCCCCCCC(=O)NCc1ccc(O)c(OC)c1
REMARK SMILES IDX 7 1 6 2 5 3 4 4 3 5 2 6 1 7 8 8 9 9 10 10 11 11 12 13 13 14
REMARK SMILES IDX 21 15 14 16 18 17 15 18 16 19 19 20 20 21 17 22
REMARK H PARENT 11 12 17 23
REMARK Flexibility Score: inf
ROOT
ATOM      1  C   UNL     1      72.530  81.741  64.213  1.00  0.00     0.010 C 
ENDROOT
BRANCH   1   2
ATOM      2  C   UNL     1      71.059  81.237  64.264  1.00  0.00     0.001 C 
BRANCH   2   3
ATOM      3  C   UNL     1      70.072  82.229  63.580  1.00  0.00     0.000 C 
BRANCH   3   4
ATOM      4  C   UNL     1      69.276  83.112  64.582  1.00  0.00    -0.000 C 
BRANCH   4   5
ATOM      5  C   UNL     1      69.305  82.551  66.031  1.00  0.00    -0.000 C 
BRANCH   5   6
ATOM      6  C   UNL     1      69.283  83.672  67.105  1.00  0.00    -0.003 C 
ATOM      7  C   UNL     1      70.439  84.683  66.940  1.00  0.00     0.004 C 
ENDBRANCH   5   6
ENDBRANCH   4   5
ENDBRANCH   3   4
ENDBRANCH   2   3
ENDBRANCH   1   2
BRANCH   1   8
ATOM      8  C   UNL     1      73.565  80.629  63.886  1.00  0.00     0.100 C 
BRANCH   8   9
ATOM      9  C   UNL     1      74.908  81.201  63.624  1.00  0.00     0.220 C 
ATOM     10  O   UNL     1      75.858  80.413  63.402  1.00  0.00    -0.275 OA
ATOM     11  N   UNL     1      75.093  82.554  63.599  1.00  0.00    -0.352 N 
ATOM     12  H   UNL     1      74.284  83.091  63.876  1.00  0.00     0.163 HD
BRANCH  11  13
ATOM     13  C   UNL     1      76.299  83.226  63.222  1.00  0.00     0.151 C 
BRANCH  13  14
ATOM     14  C   UNL     1      76.930  83.995  64.328  1.00  0.00    -0.025 A 
ATOM     15  C   UNL     1      76.708  83.618  65.674  1.00  0.00     0.056 A 
ATOM     16  C   UNL     1      77.755  85.111  64.058  1.00  0.00     0.009 A 
ATOM     17  C   UNL     1      77.315  84.329  66.735  1.00  0.00     0.160 A 
ATOM     18  C   UNL     1      78.362  85.821  65.109  1.00  0.00     0.050 A 
ATOM     19  C   UNL     1      78.140  85.440  66.446  1.00  0.00     0.157 A 
BRANCH  17  20
ATOM     20  O   UNL     1      77.065  83.989  68.040  1.00  0.00    -0.493 OA
ATOM     21  C   UNL     1      75.761  84.374  68.510  1.00  0.00     0.278 C 
ENDBRANCH  17  20
BRANCH  19  22
ATOM     22  O   UNL     1      78.708  86.148  67.454  1.00  0.00    -0.504 OA
ATOM     23  H   UNL     1      78.337  85.866  68.293  1.00  0.00     0.293 HD
ENDBRANCH  19  22
ENDBRANCH  13  14
ENDBRANCH  11  13
ENDBRANCH   8   9
ENDBRANCH   1   8
TORSDOF 11
ENDMDL
MODEL 9
REMARK VINA RESULT:    -4.688      2.361      5.231
REMARK INTER + INTRA:          -9.021
REMARK INTER:                  -7.593
REMARK INTRA:                  -1.428
REMARK UNBOUND:                -1.456
REMARK SMILES CCCCCCCCC(=O)NCc1ccc(O)c(OC)c1
REMARK SMILES IDX 7 1 6 2 5 3 4 4 3 5 2 6 1 7 8 8 9 9 10 10 11 11 12 13 13 14
REMARK SMILES IDX 21 15 14 16 18 17 15 18 16 19 19 20 20 21 17 22
REMARK H PARENT 11 12 17 23
REMARK Flexibility Score: inf
ROOT
ATOM      1  C   UNL     1      80.582  86.491  87.660  1.00  0.00     0.010 C 
ENDROOT
BRANCH   1   2
ATOM      2  C   UNL     1      79.646  87.408  88.498  1.00  0.00     0.001 C 
BRANCH   2   3
ATOM      3  C   UNL     1      80.183  88.867  88.595  1.00  0.00     0.000 C 
BRANCH   3   4
ATOM      4  C   UNL     1      80.428  89.350  90.053  1.00  0.00    -0.000 C 
BRANCH   4   5
ATOM      5  C   UNL     1      80.359  88.191  91.088  1.00  0.00    -0.000 C 
BRANCH   5   6
ATOM      6  C   UNL     1      81.649  88.082  91.946  1.00  0.00    -0.003 C 
ATOM      7  C   UNL     1      82.936  88.052  91.093  1.00  0.00     0.004 C 
ENDBRANCH   5   6
ENDBRANCH   4   5
ENDBRANCH   3   4
ENDBRANCH   2   3
ENDBRANCH   1   2
BRANCH   1   8
ATOM      8  C   UNL     1      80.399  86.641  86.123  1.00  0.00     0.100 C 
BRANCH   8   9
ATOM      9  C   UNL     1      81.639  87.138  85.479  1.00  0.00     0.220 C 
ATOM     10  O   UNL     1      81.664  87.227  84.228  1.00  0.00    -0.275 OA
ATOM     11  N   UNL     1      82.711  87.515  86.235  1.00  0.00    -0.352 N 
ATOM     12  H   UNL     1      82.615  87.322  87.221  1.00  0.00     0.163 HD
BRANCH  11  13
ATOM     13  C   UNL     1      83.902  88.139  85.744  1.00  0.00     0.151 C 
BRANCH  13  14
ATOM     14  C   UNL     1      83.999  89.587  86.066  1.00  0.00    -0.025 A 
ATOM     15  C   UNL     1      83.430  90.091  87.260  1.00  0.00     0.056 A 
ATOM     16  C   UNL     1      84.654  90.484  85.191  1.00  0.00     0.009 A 
ATOM     17  C   UNL     1      83.529  91.463  87.588  1.00  0.00     0.160 A 
ATOM     18  C   UNL     1      84.758  91.850  85.513  1.00  0.00     0.050 A 
ATOM     19  C   UNL     1      84.191  92.344  86.703  1.00  0.00     0.157 A 
BRANCH  17  20
ATOM     20  O   UNL     1      82.940  91.957  88.725  1.00  0.00    -0.493 OA
ATOM     21  C   UNL     1      83.524  91.475  89.948  1.00  0.00     0.278 C 
ENDBRANCH  17  20
BRANCH  19  22
ATOM     22  O   UNL     1      84.272  93.668  86.991  1.00  0.00    -0.504 OA
ATOM     23  H   UNL     1      85.152  93.988  86.780  1.00  0.00     0.293 HD
ENDBRANCH  19  22
ENDBRANCH  13  14
ENDBRANCH  11  13
ENDBRANCH   8   9
ENDBRANCH   1   8
TORSDOF 11
ENDMDL
MODEL 10
REMARK VINA RESULT:    -4.667      4.163      6.488
REMARK INTER + INTRA:          -8.987
REMARK INTER:                  -8.101
REMARK INTRA:                  -0.886
REMARK UNBOUND:                -1.456
REMARK SMILES CCCCCCCCC(=O)NCc1ccc(O)c(OC)c1
REMARK SMILES IDX 7 1 6 2 5 3 4 4 3 5 2 6 1 7 8 8 9 9 10 10 11 11 12 13 13 14
REMARK SMILES IDX 21 15 14 16 18 17 15 18 16 19 19 20 20 21 17 22
REMARK H PARENT 11 12 17 23
REMARK Flexibility Score: inf
ROOT
ATOM      1  C   UNL     1      83.563  93.722  87.361  1.00  0.00     0.010 C 
ENDROOT
BRANCH   1   2
ATOM      2  C   UNL     1      84.045  94.904  88.251  1.00  0.00     0.001 C 
BRANCH   2   3
ATOM      3  C   UNL     1      83.568  96.283  87.707  1.00  0.00     0.000 C 
BRANCH   3   4
ATOM      4  C   UNL     1      82.066  96.314  87.307  1.00  0.00    -0.000 C 
BRANCH   4   5
ATOM      5  C   UNL     1      81.252  97.365  88.115  1.00  0.00    -0.000 C 
BRANCH   5   6
ATOM      6  C   UNL     1      80.180  96.713  89.029  1.00  0.00    -0.003 C 
ATOM      7  C   UNL     1      80.608  95.329  89.563  1.00  0.00     0.004 C 
ENDBRANCH   5   6
ENDBRANCH   4   5
ENDBRANCH   3   4
ENDBRANCH   2   3
ENDBRANCH   1   2
BRANCH   1   8
ATOM      8  C   UNL     1      82.958  92.536  88.163  1.00  0.00     0.100 C 
BRANCH   8   9
ATOM      9  C   UNL     1      83.504  91.237  87.700  1.00  0.00     0.220 C 
ATOM     10  O   UNL     1      83.931  90.431  88.560  1.00  0.00    -0.275 OA
ATOM     11  N   UNL     1      83.512  90.922  86.371  1.00  0.00    -0.352 N 
ATOM     12  H   UNL     1      83.227  91.674  85.762  1.00  0.00     0.163 HD
BRANCH  11  13
ATOM     13  C   UNL     1      83.878  89.655  85.815  1.00  0.00     0.151 C 
BRANCH  13  14
ATOM     14  C   UNL     1      82.718  88.784  85.487  1.00  0.00    -0.025 A 
ATOM     15  C   UNL     1      82.242  87.845  86.434  1.00  0.00     0.056 A 
ATOM     16  C   UNL     1      82.074  88.874  84.232  1.00  0.00     0.009 A 
ATOM     17  C   UNL     1      81.129  87.023  86.142  1.00  0.00     0.160 A 
ATOM     18  C   UNL     1      80.966  88.060  83.936  1.00  0.00     0.050 A 
ATOM     19  C   UNL     1      80.496  87.130  84.883  1.00  0.00     0.157 A 
BRANCH  17  20
ATOM     20  O   UNL     1      80.696  86.084  87.044  1.00  0.00    -0.493 OA
ATOM     21  C   UNL     1      81.306  86.189  88.343  1.00  0.00     0.278 C 
ENDBRANCH  17  20
BRANCH  19  22
ATOM     22  O   UNL     1      79.443  86.329  84.579  1.00  0.00    -0.504 OA
ATOM     23  H   UNL     1      79.766  85.471  84.291  1.00  0.00     0.293 HD
ENDBRANCH  19  22
ENDBRANCH  13  14
ENDBRANCH  11  13
ENDBRANCH   8   9
ENDBRANCH   1   8
TORSDOF 11
ENDMDL
