MODEL 1
REMARK VINA RESULT:    -7.089      0.000      0.000
REMARK INTER + INTRA:         -12.459
REMARK INTER:                 -12.062
REMARK INTRA:                  -0.397
REMARK UNBOUND:                -0.397
REMARK SMILES C=C(C)[C@]12C[C@@H](C)[C@@]34O[C@](Cc5ccccc5)(O[C@@H]1[C@@H]3C=C(COC(=O)Cc1ccc(O)cc1)C[C@]1(O)C(=O)C(C)=C[C@@H]41)O2
REMARK SMILES IDX 23 1 22 2 21 3 20 4 9 5 8 6 10 7 6 8 18 10 44 11 19 12 5 13
REMARK SMILES IDX 7 14 4 15 11 16 12 17 13 18 17 19 14 20 16 21 15 22 2 23
REMARK SMILES IDX 3 24 1 25 35 26 36 27 43 28 38 29 42 30 39 32 40 33 41 34
REMARK SMILES IDX 37 35 24 37 25 38 26 39 27 40 28 41 29 42 34 43 30 44 33 45
REMARK SMILES IDX 31 46 32 47
REMARK H PARENT 37 36 32 48
REMARK Flexibility Score: 90.00
ROOT
ATOM      1  C   UNL     1      96.128  81.456  83.578  1.00  0.00     0.264 C 
ENDROOT
BRANCH   1   2
ATOM      2  C   UNL     1      94.976  81.901  84.448  1.00  0.00    -0.033 C 
ATOM      3  C   UNL     1      93.822  81.202  84.423  1.00  0.00    -0.015 C 
BRANCH   3   4
ATOM      4  C   UNL     1      92.508  81.482  85.136  1.00  0.00     0.078 C 
ATOM      5  O   UNL     1      92.605  80.310  87.311  1.00  0.00    -0.319 OA
ATOM      6  C   UNL     1      92.524  81.635  86.701  1.00  0.00     0.095 CG0
ATOM      7  C   UNL     1      91.768  79.303  86.709  1.00  0.00     0.289 C 
ATOM      8  C   UNL     1      91.164  82.326  87.128  1.00  0.00     0.023 C 
ATOM      9  G   UNL     1      93.818  82.359  87.173  1.00  0.00     0.000 G0
ATOM     10  O   UNL     1      92.058  79.150  85.323  1.00  0.00    -0.320 OA
ATOM     11  O   UNL     1      90.383  79.637  86.779  1.00  0.00    -0.313 OA
ATOM     12  C   UNL     1      91.486  80.365  84.811  1.00  0.00     0.170 C 
ATOM     13  C   UNL     1      89.990  81.909  86.190  1.00  0.00     0.049 C 
ATOM     14  C   UNL     1      90.745  82.113  88.594  1.00  0.00     0.011 C 
ATOM     15  C   UNL     1      90.183  80.496  85.637  1.00  0.00     0.122 C 
BRANCH   7  16
ATOM     16  C   UNL     1      92.008  77.992  87.431  1.00  0.00     0.135 C 
BRANCH  16  17
ATOM     17  C   UNL     1      91.642  76.802  86.580  1.00  0.00    -0.040 A 
ATOM     18  C   UNL     1      90.364  76.250  86.665  1.00  0.00     0.004 A 
ATOM     19  C   UNL     1      92.582  76.254  85.709  1.00  0.00     0.004 A 
ATOM     20  C   UNL     1      90.025  75.149  85.877  1.00  0.00     0.000 A 
ATOM     21  C   UNL     1      92.244  75.152  84.921  1.00  0.00     0.000 A 
ATOM     22  C   UNL     1      90.966  74.601  85.006  1.00  0.00     0.000 A 
ENDBRANCH  16  17
ENDBRANCH   7  16
BRANCH  15  23
ATOM     23  C   UNL     1      88.989  80.006  84.884  1.00  0.00    -0.046 C 
ATOM     24  C   UNL     1      87.753  80.851  84.981  1.00  0.00     0.042 C 
ATOM     25  C   UNL     1      89.020  78.876  84.163  1.00  0.00     0.010 C 
ENDBRANCH  15  23
ENDBRANCH   3   4
BRANCH   2  26
ATOM     26  C   UNL     1      95.296  83.131  85.277  1.00  0.00     0.078 C 
BRANCH  26  27
ATOM     27  C   UNL     1      94.267  83.555  86.323  1.00  0.00     0.140 C 
ATOM     28  C   UNL     1      93.790  82.369  87.188  1.00  0.00     0.086 CG0
ATOM     29  C   UNL     1      94.845  84.499  87.356  1.00  0.00     0.190 C 
ATOM     30  C   UNL     1      93.844  82.914  88.588  1.00  0.00    -0.010 C 
ATOM     31  G   UNL     1      92.505  81.639  86.701  1.00  0.00     0.000 G0
ATOM     32  O   UNL     1      95.506  85.497  87.112  1.00  0.00    -0.291 OA
ATOM     33  C   UNL     1      94.455  84.095  88.720  1.00  0.00    -0.008 C 
ATOM     34  C   UNL     1      94.759  84.878  89.936  1.00  0.00     0.048 C 
BRANCH  27  35
ATOM     35  O   UNL     1      93.210  84.298  85.739  1.00  0.00    -0.381 OA
ATOM     36  H   UNL     1      92.468  84.322  86.367  1.00  0.00     0.212 HD
ENDBRANCH  27  35
ENDBRANCH  26  27
ENDBRANCH   2  26
ENDBRANCH   1   2
BRANCH   1  37
ATOM     37  O   UNL     1      95.738  80.322  82.832  1.00  0.00    -0.461 OA
BRANCH  37  38
ATOM     38  C   UNL     1      96.740  79.667  82.154  1.00  0.00     0.310 C 
ATOM     39  O   UNL     1      96.747  78.473  81.893  1.00  0.00    -0.252 OA
BRANCH  38  40
ATOM     40  C   UNL     1      97.825  80.651  81.785  1.00  0.00     0.158 C 
BRANCH  40  41
ATOM     41  C   UNL     1      97.804  81.028  80.326  1.00  0.00    -0.037 A 
ATOM     42  C   UNL     1      96.760  81.804  79.821  1.00  0.00     0.008 A 
ATOM     43  C   UNL     1      98.827  80.602  79.480  1.00  0.00     0.008 A 
ATOM     44  C   UNL     1      96.741  82.153  78.470  1.00  0.00     0.046 A 
ATOM     45  C   UNL     1      98.808  80.951  78.130  1.00  0.00     0.046 A 
ATOM     46  C   UNL     1      97.765  81.726  77.625  1.00  0.00     0.115 A 
BRANCH  46  47
ATOM     47  O   UNL     1      97.745  82.066  76.307  1.00  0.00    -0.508 OA
ATOM     48  H   UNL     1      98.605  82.455  76.069  1.00  0.00     0.293 HD
ENDBRANCH  46  47
ENDBRANCH  40  41
ENDBRANCH  38  40
ENDBRANCH  37  38
ENDBRANCH   1  37
TORSDOF 10
ENDMDL
MODEL 2
REMARK VINA RESULT:    -6.891     31.224     35.927
REMARK INTER + INTRA:         -12.122
REMARK INTER:                 -11.915
REMARK INTRA:                  -0.207
REMARK UNBOUND:                -0.397
REMARK SMILES C=C(C)[C@]12C[C@@H](C)[C@@]34O[C@](Cc5ccccc5)(O[C@@H]1[C@@H]3C=C(COC(=O)Cc1ccc(O)cc1)C[C@]1(O)C(=O)C(C)=C[C@@H]41)O2
REMARK SMILES IDX 23 1 22 2 21 3 20 4 9 5 8 6 10 7 6 8 18 10 44 11 19 12 5 13
REMARK SMILES IDX 7 14 4 15 11 16 12 17 13 18 17 19 14 20 16 21 15 22 2 23
REMARK SMILES IDX 3 24 1 25 35 26 36 27 43 28 38 29 42 30 39 32 40 33 41 34
REMARK SMILES IDX 37 35 24 37 25 38 26 39 27 40 28 41 29 42 34 43 30 44 33 45
REMARK SMILES IDX 31 46 32 47
REMARK H PARENT 37 36 32 48
REMARK Flexibility Score: 90.00
ROOT
ATOM      1  C   UNL     1      57.556  86.993  73.491  1.00  0.00     0.264 C 
ENDROOT
BRANCH   1   2
ATOM      2  C   UNL     1      58.771  86.431  74.192  1.00  0.00    -0.033 C 
ATOM      3  C   UNL     1      59.536  85.519  73.558  1.00  0.00    -0.015 C 
BRANCH   3   4
ATOM      4  C   UNL     1      60.749  84.755  74.065  1.00  0.00     0.078 C 
ATOM      5  O   UNL     1      62.745  86.070  73.430  1.00  0.00    -0.319 OA
ATOM      6  C   UNL     1      61.988  85.576  74.579  1.00  0.00     0.095 CG0
ATOM      7  C   UNL     1      62.921  85.126  72.357  1.00  0.00     0.289 C 
ATOM      8  C   UNL     1      62.900  84.591  75.422  1.00  0.00     0.023 C 
ATOM      9  G   UNL     1      61.529  86.864  75.324  1.00  0.00     0.000 G0
ATOM     10  O   UNL     1      61.667  84.657  71.869  1.00  0.00    -0.320 OA
ATOM     11  O   UNL     1      63.632  83.961  72.770  1.00  0.00    -0.313 OA
ATOM     12  C   UNL     1      61.275  83.808  72.959  1.00  0.00     0.170 C 
ATOM     13  C   UNL     1      62.844  83.138  74.859  1.00  0.00     0.049 C 
ATOM     14  C   UNL     1      64.368  85.021  75.580  1.00  0.00     0.011 C 
ATOM     15  C   UNL     1      62.609  83.125  73.348  1.00  0.00     0.122 C 
BRANCH   7  16
ATOM     16  C   UNL     1      63.682  85.812  71.240  1.00  0.00     0.135 C 
BRANCH  16  17
ATOM     17  C   UNL     1      65.168  85.575  71.338  1.00  0.00    -0.040 A 
ATOM     18  C   UNL     1      65.820  84.822  70.362  1.00  0.00     0.004 A 
ATOM     19  C   UNL     1      65.889  86.108  72.406  1.00  0.00     0.004 A 
ATOM     20  C   UNL     1      67.195  84.603  70.453  1.00  0.00     0.000 A 
ATOM     21  C   UNL     1      67.264  85.889  72.497  1.00  0.00     0.000 A 
ATOM     22  C   UNL     1      67.917  85.137  71.520  1.00  0.00     0.000 A 
ENDBRANCH  16  17
ENDBRANCH   7  16
BRANCH  15  23
ATOM     23  C   UNL     1      62.732  81.757  72.760  1.00  0.00    -0.046 C 
ATOM     24  C   UNL     1      62.739  81.679  71.262  1.00  0.00     0.042 C 
ATOM     25  C   UNL     1      62.830  80.661  73.527  1.00  0.00     0.010 C 
ENDBRANCH  15  23
ENDBRANCH   3   4
BRANCH   2  26
ATOM     26  C   UNL     1      58.976  87.007  75.581  1.00  0.00     0.078 C 
BRANCH  26  27
ATOM     27  C   UNL     1      60.297  86.690  76.280  1.00  0.00     0.140 C 
ATOM     28  C   UNL     1      61.511  86.871  75.345  1.00  0.00     0.086 CG0
ATOM     29  C   UNL     1      60.605  87.657  77.404  1.00  0.00     0.190 C 
ATOM     30  C   UNL     1      62.491  87.638  76.188  1.00  0.00    -0.010 C 
ATOM     31  G   UNL     1      61.988  85.598  74.587  1.00  0.00     0.000 G0
ATOM     32  O   UNL     1      59.828  87.987  78.287  1.00  0.00    -0.291 OA
ATOM     33  C   UNL     1      62.005  88.117  77.338  1.00  0.00    -0.008 C 
ATOM     34  C   UNL     1      62.646  88.970  78.359  1.00  0.00     0.048 C 
BRANCH  27  35
ATOM     35  O   UNL     1      60.252  85.427  76.923  1.00  0.00    -0.381 OA
ATOM     36  H   UNL     1      59.789  84.802  76.340  1.00  0.00     0.212 HD
ENDBRANCH  27  35
ENDBRANCH  26  27
ENDBRANCH   2  26
ENDBRANCH   1   2
BRANCH   1  37
ATOM     37  O   UNL     1      57.961  87.641  72.304  1.00  0.00    -0.461 OA
BRANCH  37  38
ATOM     38  C   UNL     1      57.269  87.306  71.162  1.00  0.00     0.310 C 
ATOM     39  O   UNL     1      56.701  86.240  70.973  1.00  0.00    -0.252 OA
BRANCH  38  40
ATOM     40  C   UNL     1      57.322  88.456  70.186  1.00  0.00     0.158 C 
BRANCH  40  41
ATOM     41  C   UNL     1      55.975  88.791  69.599  1.00  0.00    -0.037 A 
ATOM     42  C   UNL     1      55.236  89.858  70.110  1.00  0.00     0.008 A 
ATOM     43  C   UNL     1      55.467  88.034  68.544  1.00  0.00     0.008 A 
ATOM     44  C   UNL     1      53.989  90.167  69.567  1.00  0.00     0.046 A 
ATOM     45  C   UNL     1      54.219  88.343  68.000  1.00  0.00     0.046 A 
ATOM     46  C   UNL     1      53.481  89.409  68.512  1.00  0.00     0.115 A 
BRANCH  46  47
ATOM     47  O   UNL     1      52.264  89.710  67.982  1.00  0.00    -0.508 OA
ATOM     48  H   UNL     1      51.838  90.389  68.535  1.00  0.00     0.293 HD
ENDBRANCH  46  47
ENDBRANCH  40  41
ENDBRANCH  38  40
ENDBRANCH  37  38
ENDBRANCH   1  37
TORSDOF 10
ENDMDL
MODEL 3
REMARK VINA RESULT:    -6.769     29.419     32.505
REMARK INTER + INTRA:         -11.915
REMARK INTER:                 -10.130
REMARK INTRA:                  -1.786
REMARK UNBOUND:                -0.397
REMARK SMILES C=C(C)[C@]12C[C@@H](C)[C@@]34O[C@](Cc5ccccc5)(O[C@@H]1[C@@H]3C=C(COC(=O)Cc1ccc(O)cc1)C[C@]1(O)C(=O)C(C)=C[C@@H]41)O2
REMARK SMILES IDX 23 1 22 2 21 3 20 4 9 5 8 6 10 7 6 8 18 10 44 11 19 12 5 13
REMARK SMILES IDX 7 14 4 15 11 16 12 17 13 18 17 19 14 20 16 21 15 22 2 23
REMARK SMILES IDX 3 24 1 25 35 26 36 27 43 28 38 29 42 30 39 32 40 33 41 34
REMARK SMILES IDX 37 35 24 37 25 38 26 39 27 40 28 41 29 42 34 43 30 44 33 45
REMARK SMILES IDX 31 46 32 47
REMARK H PARENT 37 36 32 48
REMARK Flexibility Score: 90.00
ROOT
ATOM      1  C   UNL     1      63.271  83.312  67.926  1.00  0.00     0.264 C 
ENDROOT
BRANCH   1   2
ATOM      2  C   UNL     1      64.439  84.270  67.955  1.00  0.00    -0.033 C 
ATOM      3  C   UNL     1      64.523  85.176  68.951  1.00  0.00    -0.015 C 
BRANCH   3   4
ATOM      4  C   UNL     1      65.542  86.285  69.163  1.00  0.00     0.078 C 
ATOM      5  O   UNL     1      67.316  85.365  70.619  1.00  0.00    -0.319 OA
ATOM      6  C   UNL     1      67.061  85.894  69.280  1.00  0.00     0.095 CG0
ATOM      7  C   UNL     1      66.688  86.087  71.696  1.00  0.00     0.289 C 
ATOM      8  C   UNL     1      67.914  87.212  69.066  1.00  0.00     0.023 C 
ATOM      9  G   UNL     1      67.404  84.713  68.325  1.00  0.00     0.000 G0
ATOM     10  O   UNL     1      65.275  86.145  71.525  1.00  0.00    -0.320 OA
ATOM     11  O   UNL     1      67.124  87.443  71.766  1.00  0.00    -0.313 OA
ATOM     12  C   UNL     1      65.191  87.084  70.442  1.00  0.00     0.170 C 
ATOM     13  C   UNL     1      67.173  88.468  69.619  1.00  0.00     0.049 C 
ATOM     14  C   UNL     1      69.344  87.173  69.632  1.00  0.00     0.011 C 
ATOM     15  C   UNL     1      66.281  88.120  70.811  1.00  0.00     0.122 C 
BRANCH   7  16
ATOM     16  C   UNL     1      67.020  85.383  72.997  1.00  0.00     0.135 C 
BRANCH  16  17
ATOM     17  C   UNL     1      66.404  86.074  74.188  1.00  0.00    -0.040 A 
ATOM     18  C   UNL     1      67.164  86.958  74.952  1.00  0.00     0.004 A 
ATOM     19  C   UNL     1      65.073  85.827  74.524  1.00  0.00     0.004 A 
ATOM     20  C   UNL     1      66.594  87.597  76.053  1.00  0.00     0.000 A 
ATOM     21  C   UNL     1      64.503  86.466  75.625  1.00  0.00     0.000 A 
ATOM     22  C   UNL     1      65.263  87.350  76.389  1.00  0.00     0.000 A 
ENDBRANCH  16  17
ENDBRANCH   7  16
BRANCH  15  23
ATOM     23  C   UNL     1      65.704  89.331  71.469  1.00  0.00    -0.046 C 
ATOM     24  C   UNL     1      66.069  90.653  70.859  1.00  0.00     0.042 C 
ATOM     25  C   UNL     1      64.906  89.243  72.543  1.00  0.00     0.010 C 
ENDBRANCH  15  23
ENDBRANCH   3   4
BRANCH   2  26
ATOM     26  C   UNL     1      65.406  84.065  66.804  1.00  0.00     0.078 C 
BRANCH  26  27
ATOM     27  C   UNL     1      66.756  84.773  66.893  1.00  0.00     0.140 C 
ATOM     28  C   UNL     1      67.365  84.694  68.308  1.00  0.00     0.086 CG0
ATOM     29  C   UNL     1      67.818  84.106  66.045  1.00  0.00     0.190 C 
ATOM     30  C   UNL     1      68.797  84.313  68.053  1.00  0.00    -0.010 C 
ATOM     31  G   UNL     1      67.050  85.887  69.258  1.00  0.00     0.000 G0
ATOM     32  O   UNL     1      67.687  83.777  64.875  1.00  0.00    -0.291 OA
ATOM     33  C   UNL     1      69.077  83.950  66.798  1.00  0.00    -0.008 C 
ATOM     34  C   UNL     1      70.336  83.444  66.212  1.00  0.00     0.048 C 
BRANCH  27  35
ATOM     35  O   UNL     1      66.686  86.090  66.373  1.00  0.00    -0.381 OA
ATOM     36  H   UNL     1      67.584  86.463  66.361  1.00  0.00     0.212 HD
ENDBRANCH  27  35
ENDBRANCH  26  27
ENDBRANCH   2  26
ENDBRANCH   1   2
BRANCH   1  37
ATOM     37  O   UNL     1      63.722  82.017  68.262  1.00  0.00    -0.461 OA
BRANCH  37  38
ATOM     38  C   UNL     1      63.850  81.747  69.605  1.00  0.00     0.310 C 
ATOM     39  O   UNL     1      64.912  81.595  70.192  1.00  0.00    -0.252 OA
BRANCH  38  40
ATOM     40  C   UNL     1      62.481  81.668  70.236  1.00  0.00     0.158 C 
BRANCH  40  41
ATOM     41  C   UNL     1      62.459  82.170  71.657  1.00  0.00    -0.037 A 
ATOM     42  C   UNL     1      62.386  81.264  72.715  1.00  0.00     0.008 A 
ATOM     43  C   UNL     1      62.512  83.539  71.915  1.00  0.00     0.008 A 
ATOM     44  C   UNL     1      62.365  81.728  74.031  1.00  0.00     0.046 A 
ATOM     45  C   UNL     1      62.491  84.004  73.230  1.00  0.00     0.046 A 
ATOM     46  C   UNL     1      62.418  83.099  74.288  1.00  0.00     0.115 A 
BRANCH  46  47
ATOM     47  O   UNL     1      62.397  83.551  75.571  1.00  0.00    -0.508 OA
ATOM     48  H   UNL     1      62.106  84.480  75.574  1.00  0.00     0.293 HD
ENDBRANCH  46  47
ENDBRANCH  40  41
ENDBRANCH  38  40
ENDBRANCH  37  38
ENDBRANCH   1  37
TORSDOF 10
ENDMDL
MODEL 4
REMARK VINA RESULT:    -6.706     26.256     30.630
REMARK INTER + INTRA:         -11.807
REMARK INTER:                 -11.439
REMARK INTRA:                  -0.369
REMARK UNBOUND:                -0.397
REMARK SMILES C=C(C)[C@]12C[C@@H](C)[C@@]34O[C@](Cc5ccccc5)(O[C@@H]1[C@@H]3C=C(COC(=O)Cc1ccc(O)cc1)C[C@]1(O)C(=O)C(C)=C[C@@H]41)O2
REMARK SMILES IDX 23 1 22 2 21 3 20 4 9 5 8 6 10 7 6 8 18 10 44 11 19 12 5 13
REMARK SMILES IDX 7 14 4 15 11 16 12 17 13 18 17 19 14 20 16 21 15 22 2 23
REMARK SMILES IDX 3 24 1 25 35 26 36 27 43 28 38 29 42 30 39 32 40 33 41 34
REMARK SMILES IDX 37 35 24 37 25 38 26 39 27 40 28 41 29 42 34 43 30 44 33 45
REMARK SMILES IDX 31 46 32 47
REMARK H PARENT 37 36 32 48
REMARK Flexibility Score: 90.00
ROOT
ATOM      1  C   UNL     1      68.303  84.207  69.020  1.00  0.00     0.264 C 
ENDROOT
BRANCH   1   2
ATOM      2  C   UNL     1      69.165  84.650  67.861  1.00  0.00    -0.033 C 
ATOM      3  C   UNL     1      69.695  85.890  67.871  1.00  0.00    -0.015 C 
BRANCH   3   4
ATOM      4  C   UNL     1      70.522  86.594  66.807  1.00  0.00     0.078 C 
ATOM      5  O   UNL     1      72.899  86.175  67.347  1.00  0.00    -0.319 OA
ATOM      6  C   UNL     1      71.868  85.926  66.341  1.00  0.00     0.095 CG0
ATOM      7  C   UNL     1      72.924  87.511  67.885  1.00  0.00     0.289 C 
ATOM      8  C   UNL     1      72.294  86.607  64.976  1.00  0.00     0.023 C 
ATOM      9  G   UNL     1      71.731  84.376  66.301  1.00  0.00     0.000 G0
ATOM     10  O   UNL     1      71.671  87.858  68.467  1.00  0.00    -0.320 OA
ATOM     11  O   UNL     1      73.169  88.495  66.883  1.00  0.00    -0.313 OA
ATOM     12  C   UNL     1      70.880  88.025  67.280  1.00  0.00     0.170 C 
ATOM     13  C   UNL     1      71.870  88.107  64.927  1.00  0.00     0.049 C 
ATOM     14  C   UNL     1      73.785  86.487  64.614  1.00  0.00     0.011 C 
ATOM     15  C   UNL     1      71.863  88.738  66.320  1.00  0.00     0.122 C 
BRANCH   7  16
ATOM     16  C   UNL     1      74.014  87.579  68.936  1.00  0.00     0.135 C 
BRANCH  16  17
ATOM     17  C   UNL     1      75.067  86.519  68.729  1.00  0.00    -0.040 A 
ATOM     18  C   UNL     1      74.992  85.315  69.428  1.00  0.00     0.004 A 
ATOM     19  C   UNL     1      76.116  86.744  67.838  1.00  0.00     0.004 A 
ATOM     20  C   UNL     1      75.965  84.334  69.236  1.00  0.00     0.000 A 
ATOM     21  C   UNL     1      77.090  85.764  67.646  1.00  0.00     0.000 A 
ATOM     22  C   UNL     1      77.014  84.559  68.345  1.00  0.00     0.000 A 
ENDBRANCH  16  17
ENDBRANCH   7  16
BRANCH  15  23
ATOM     23  C   UNL     1      71.637  90.215  66.280  1.00  0.00    -0.046 C 
ATOM     24  C   UNL     1      72.867  91.072  66.239  1.00  0.00     0.042 C 
ATOM     25  C   UNL     1      70.404  90.744  66.280  1.00  0.00     0.010 C 
ENDBRANCH  15  23
ENDBRANCH   3   4
BRANCH   2  26
ATOM     26  C   UNL     1      69.330  83.580  66.798  1.00  0.00     0.078 C 
BRANCH  26  27
ATOM     27  C   UNL     1      70.397  83.815  65.731  1.00  0.00     0.140 C 
ATOM     28  C   UNL     1      71.708  84.366  66.328  1.00  0.00     0.086 CG0
ATOM     29  C   UNL     1      70.853  82.529  65.074  1.00  0.00     0.190 C 
ATOM     30  C   UNL     1      72.771  83.531  65.669  1.00  0.00    -0.010 C 
ATOM     31  G   UNL     1      71.856  85.915  66.345  1.00  0.00     0.000 G0
ATOM     32  O   UNL     1      70.117  81.662  64.629  1.00  0.00    -0.291 OA
ATOM     33  C   UNL     1      72.324  82.475  64.982  1.00  0.00    -0.008 C 
ATOM     34  C   UNL     1      73.072  81.408  64.286  1.00  0.00     0.048 C 
BRANCH  27  35
ATOM     35  O   UNL     1      69.891  84.584  64.653  1.00  0.00    -0.381 OA
ATOM     36  H   UNL     1      70.631  85.065  64.245  1.00  0.00     0.212 HD
ENDBRANCH  27  35
ENDBRANCH  26  27
ENDBRANCH   2  26
ENDBRANCH   1   2
BRANCH   1  37
ATOM     37  O   UNL     1      66.973  84.042  68.576  1.00  0.00    -0.461 OA
BRANCH  37  38
ATOM     38  C   UNL     1      66.005  84.013  69.554  1.00  0.00     0.310 C 
ATOM     39  O   UNL     1      66.045  84.642  70.601  1.00  0.00    -0.252 OA
BRANCH  38  40
ATOM     40  C   UNL     1      64.891  83.085  69.131  1.00  0.00     0.158 C 
BRANCH  40  41
ATOM     41  C   UNL     1      63.951  82.744  70.258  1.00  0.00    -0.037 A 
ATOM     42  C   UNL     1      62.772  83.471  70.427  1.00  0.00     0.008 A 
ATOM     43  C   UNL     1      64.258  81.703  71.133  1.00  0.00     0.008 A 
ATOM     44  C   UNL     1      61.902  83.156  71.471  1.00  0.00     0.046 A 
ATOM     45  C   UNL     1      63.388  81.387  72.177  1.00  0.00     0.046 A 
ATOM     46  C   UNL     1      62.210  82.113  72.346  1.00  0.00     0.115 A 
BRANCH  46  47
ATOM     47  O   UNL     1      61.362  81.807  73.364  1.00  0.00    -0.508 OA
ATOM     48  H   UNL     1      61.787  82.035  74.209  1.00  0.00     0.293 HD
ENDBRANCH  46  47
ENDBRANCH  40  41
ENDBRANCH  38  40
ENDBRANCH  37  38
ENDBRANCH   1  37
TORSDOF 10
ENDMDL
MODEL 5
REMARK VINA RESULT:    -6.661     20.082     24.100
REMARK INTER + INTRA:         -11.731
REMARK INTER:                 -11.515
REMARK INTRA:                  -0.216
REMARK UNBOUND:                -0.397
REMARK SMILES C=C(C)[C@]12C[C@@H](C)[C@@]34O[C@](Cc5ccccc5)(O[C@@H]1[C@@H]3C=C(COC(=O)Cc1ccc(O)cc1)C[C@]1(O)C(=O)C(C)=C[C@@H]41)O2
REMARK SMILES IDX 23 1 22 2 21 3 20 4 9 5 8 6 10 7 6 8 18 10 44 11 19 12 5 13
REMARK SMILES IDX 7 14 4 15 11 16 12 17 13 18 17 19 14 20 16 21 15 22 2 23
REMARK SMILES IDX 3 24 1 25 35 26 36 27 43 28 38 29 42 30 39 32 40 33 41 34
REMARK SMILES IDX 37 35 24 37 25 38 26 39 27 40 28 41 29 42 34 43 30 44 33 45
REMARK SMILES IDX 31 46 32 47
REMARK H PARENT 37 36 32 48
REMARK Flexibility Score: 90.00
ROOT
ATOM      1  C   UNL     1      95.480  98.044  72.161  1.00  0.00     0.264 C 
ENDROOT
BRANCH   1   2
ATOM      2  C   UNL     1      95.060  99.492  72.051  1.00  0.00    -0.033 C 
ATOM      3  C   UNL     1      94.378  99.899  70.961  1.00  0.00    -0.015 C 
BRANCH   3   4
ATOM      4  C   UNL     1      93.913 101.296  70.580  1.00  0.00     0.078 C 
ATOM      5  O   UNL     1      91.614 101.554  71.454  1.00  0.00    -0.319 OA
ATOM      6  C   UNL     1      92.976 102.071  71.577  1.00  0.00     0.095 CG0
ATOM      7  C   UNL     1      91.166 101.316  70.106  1.00  0.00     0.289 C 
ATOM      8  C   UNL     1      92.995 103.600  71.163  1.00  0.00     0.023 C 
ATOM      9  G   UNL     1      93.372 101.774  73.053  1.00  0.00     0.000 G0
ATOM     10  O   UNL     1      92.028 100.406  69.427  1.00  0.00    -0.320 OA
ATOM     11  O   UNL     1      91.162 102.504  69.318  1.00  0.00    -0.313 OA
ATOM     12  C   UNL     1      93.171 101.250  69.221  1.00  0.00     0.170 C 
ATOM     13  C   UNL     1      93.152 103.773  69.621  1.00  0.00     0.049 C 
ATOM     14  C   UNL     1      91.796 104.432  71.649  1.00  0.00     0.011 C 
ATOM     15  C   UNL     1      92.524 102.608  68.854  1.00  0.00     0.122 C 
BRANCH   7  16
ATOM     16  C   UNL     1      89.763 100.745  70.166  1.00  0.00     0.135 C 
BRANCH  16  17
ATOM     17  C   UNL     1      89.427  99.937  68.938  1.00  0.00    -0.040 A 
ATOM     18  C   UNL     1      89.671  98.564  68.917  1.00  0.00     0.004 A 
ATOM     19  C   UNL     1      88.872 100.564  67.823  1.00  0.00     0.004 A 
ATOM     20  C   UNL     1      89.360  97.817  67.781  1.00  0.00     0.000 A 
ATOM     21  C   UNL     1      88.561  99.816  66.686  1.00  0.00     0.000 A 
ATOM     22  C   UNL     1      88.805  98.444  66.666  1.00  0.00     0.000 A 
ENDBRANCH  16  17
ENDBRANCH   7  16
BRANCH  15  23
ATOM     23  C   UNL     1      92.501 102.838  67.378  1.00  0.00    -0.046 C 
ATOM     24  C   UNL     1      93.020 104.165  66.907  1.00  0.00     0.042 C 
ATOM     25  C   UNL     1      92.044 101.912  66.522  1.00  0.00     0.010 C 
ENDBRANCH  15  23
ENDBRANCH   3   4
BRANCH   2  26
ATOM     26  C   UNL     1      95.480 100.326  73.247  1.00  0.00     0.078 C 
BRANCH  26  27
ATOM     27  C   UNL     1      94.894 101.732  73.357  1.00  0.00     0.140 C 
ATOM     28  C   UNL     1      93.383 101.760  73.049  1.00  0.00     0.086 CG0
ATOM     29  C   UNL     1      94.948 102.274  74.770  1.00  0.00     0.190 C 
ATOM     30  C   UNL     1      92.815 102.603  74.157  1.00  0.00    -0.010 C 
ATOM     31  G   UNL     1      92.989 102.070  71.576  1.00  0.00     0.000 G0
ATOM     32  O   UNL     1      95.931 102.261  75.496  1.00  0.00    -0.291 OA
ATOM     33  C   UNL     1      93.661 102.885  75.153  1.00  0.00    -0.008 C 
ATOM     34  C   UNL     1      93.431 103.607  76.421  1.00  0.00     0.048 C 
BRANCH  27  35
ATOM     35  O   UNL     1      95.649 102.669  72.607  1.00  0.00    -0.381 OA
ATOM     36  H   UNL     1      96.526 102.756  73.018  1.00  0.00     0.212 HD
ENDBRANCH  27  35
ENDBRANCH  26  27
ENDBRANCH   2  26
ENDBRANCH   1   2
BRANCH   1  37
ATOM     37  O   UNL     1      95.805  97.753  73.503  1.00  0.00    -0.461 OA
BRANCH  37  38
ATOM     38  C   UNL     1      95.248  96.610  74.029  1.00  0.00     0.310 C 
ATOM     39  O   UNL     1      95.109  95.555  73.427  1.00  0.00    -0.252 OA
BRANCH  38  40
ATOM     40  C   UNL     1      94.837  96.862  75.460  1.00  0.00     0.158 C 
BRANCH  40  41
ATOM     41  C   UNL     1      94.041  95.728  76.052  1.00  0.00    -0.037 A 
ATOM     42  C   UNL     1      94.620  94.467  76.191  1.00  0.00     0.008 A 
ATOM     43  C   UNL     1      92.724  95.939  76.460  1.00  0.00     0.008 A 
ATOM     44  C   UNL     1      93.883  93.416  76.737  1.00  0.00     0.046 A 
ATOM     45  C   UNL     1      91.986  94.889  77.008  1.00  0.00     0.046 A 
ATOM     46  C   UNL     1      92.565  93.628  77.146  1.00  0.00     0.115 A 
BRANCH  46  47
ATOM     47  O   UNL     1      91.846  92.603  77.679  1.00  0.00    -0.508 OA
ATOM     48  H   UNL     1      90.910  92.865  77.726  1.00  0.00     0.293 HD
ENDBRANCH  46  47
ENDBRANCH  40  41
ENDBRANCH  38  40
ENDBRANCH  37  38
ENDBRANCH   1  37
TORSDOF 10
ENDMDL
MODEL 6
REMARK VINA RESULT:    -6.596     30.057     34.802
REMARK INTER + INTRA:         -11.620
REMARK INTER:                  -9.982
REMARK INTRA:                  -1.637
REMARK UNBOUND:                -0.397
REMARK SMILES C=C(C)[C@]12C[C@@H](C)[C@@]34O[C@](Cc5ccccc5)(O[C@@H]1[C@@H]3C=C(COC(=O)Cc1ccc(O)cc1)C[C@]1(O)C(=O)C(C)=C[C@@H]41)O2
REMARK SMILES IDX 23 1 22 2 21 3 20 4 9 5 8 6 10 7 6 8 18 10 44 11 19 12 5 13
REMARK SMILES IDX 7 14 4 15 11 16 12 17 13 18 17 19 14 20 16 21 15 22 2 23
REMARK SMILES IDX 3 24 1 25 35 26 36 27 43 28 38 29 42 30 39 32 40 33 41 34
REMARK SMILES IDX 37 35 24 37 25 38 26 39 27 40 28 41 29 42 34 43 30 44 33 45
REMARK SMILES IDX 31 46 32 47
REMARK H PARENT 37 36 32 48
REMARK Flexibility Score: 90.00
ROOT
ATOM      1  C   UNL     1      58.596  88.050  72.911  1.00  0.00     0.264 C 
ENDROOT
BRANCH   1   2
ATOM      2  C   UNL     1      59.745  87.396  73.643  1.00  0.00    -0.033 C 
ATOM      3  C   UNL     1      60.396  86.367  73.062  1.00  0.00    -0.015 C 
BRANCH   3   4
ATOM      4  C   UNL     1      61.518  85.501  73.612  1.00  0.00     0.078 C 
ATOM      5  O   UNL     1      63.646  86.537  72.893  1.00  0.00    -0.319 OA
ATOM      6  C   UNL     1      62.849  86.204  74.072  1.00  0.00     0.095 CG0
ATOM      7  C   UNL     1      63.702  85.515  71.879  1.00  0.00     0.289 C 
ATOM      8  C   UNL     1      63.649  85.173  74.971  1.00  0.00     0.023 C 
ATOM      9  G   UNL     1      62.547  87.578  74.738  1.00  0.00     0.000 G0
ATOM     10  O   UNL     1      62.397  85.166  71.424  1.00  0.00    -0.320 OA
ATOM     11  O   UNL     1      64.279  84.304  72.361  1.00  0.00    -0.313 OA
ATOM     12  C   UNL     1      61.921  84.434  72.565  1.00  0.00     0.170 C 
ATOM     13  C   UNL     1      63.422  83.705  74.498  1.00  0.00     0.049 C 
ATOM     14  C   UNL     1      65.159  85.440  75.098  1.00  0.00     0.011 C 
ATOM     15  C   UNL     1      63.172  83.628  72.991  1.00  0.00     0.122 C 
BRANCH   7  16
ATOM     16  C   UNL     1      64.525  86.041  70.720  1.00  0.00     0.135 C 
BRANCH  16  17
ATOM     17  C   UNL     1      65.924  85.476  70.717  1.00  0.00    -0.040 A 
ATOM     18  C   UNL     1      66.877  85.968  71.607  1.00  0.00     0.004 A 
ATOM     19  C   UNL     1      66.262  84.461  69.823  1.00  0.00     0.004 A 
ATOM     20  C   UNL     1      68.171  85.444  71.604  1.00  0.00     0.000 A 
ATOM     21  C   UNL     1      67.555  83.937  69.820  1.00  0.00     0.000 A 
ATOM     22  C   UNL     1      68.509  84.429  70.710  1.00  0.00     0.000 A 
ENDBRANCH  16  17
ENDBRANCH   7  16
BRANCH  15  23
ATOM     23  C   UNL     1      63.132  82.222  72.488  1.00  0.00    -0.046 C 
ATOM     24  C   UNL     1      63.981  81.924  71.287  1.00  0.00     0.042 C 
ATOM     25  C   UNL     1      62.381  81.279  73.075  1.00  0.00     0.010 C 
ENDBRANCH  15  23
ENDBRANCH   3   4
BRANCH   2  26
ATOM     26  C   UNL     1      60.026  88.026  74.995  1.00  0.00     0.078 C 
BRANCH  26  27
ATOM     27  C   UNL     1      61.306  87.599  75.711  1.00  0.00     0.140 C 
ATOM     28  C   UNL     1      62.526  87.581  74.767  1.00  0.00     0.086 CG0
ATOM     29  C   UNL     1      61.732  88.588  76.775  1.00  0.00     0.190 C 
ATOM     30  C   UNL     1      63.594  88.278  75.562  1.00  0.00    -0.010 C 
ATOM     31  G   UNL     1      62.846  86.219  74.085  1.00  0.00     0.000 G0
ATOM     32  O   UNL     1      61.005  89.058  77.637  1.00  0.00    -0.291 OA
ATOM     33  C   UNL     1      63.176  88.877  76.681  1.00  0.00    -0.008 C 
ATOM     34  C   UNL     1      63.919  89.709  77.650  1.00  0.00     0.048 C 
BRANCH  27  35
ATOM     35  O   UNL     1      61.120  86.390  76.428  1.00  0.00    -0.381 OA
ATOM     36  H   UNL     1      60.796  86.608  77.318  1.00  0.00     0.212 HD
ENDBRANCH  27  35
ENDBRANCH  26  27
ENDBRANCH   2  26
ENDBRANCH   1   2
BRANCH   1  37
ATOM     37  O   UNL     1      57.390  87.409  73.267  1.00  0.00    -0.461 OA
BRANCH  37  38
ATOM     38  C   UNL     1      56.470  88.177  73.942  1.00  0.00     0.310 C 
ATOM     39  O   UNL     1      56.135  89.310  73.627  1.00  0.00    -0.252 OA
BRANCH  38  40
ATOM     40  C   UNL     1      55.941  87.404  75.127  1.00  0.00     0.158 C 
BRANCH  40  41
ATOM     41  C   UNL     1      56.696  87.690  76.399  1.00  0.00    -0.037 A 
ATOM     42  C   UNL     1      57.419  86.674  77.024  1.00  0.00     0.008 A 
ATOM     43  C   UNL     1      56.671  88.969  76.953  1.00  0.00     0.008 A 
ATOM     44  C   UNL     1      58.117  86.938  78.203  1.00  0.00     0.046 A 
ATOM     45  C   UNL     1      57.369  89.234  78.132  1.00  0.00     0.046 A 
ATOM     46  C   UNL     1      58.092  88.219  78.757  1.00  0.00     0.115 A 
BRANCH  46  47
ATOM     47  O   UNL     1      58.773  88.476  79.907  1.00  0.00    -0.508 OA
ATOM     48  H   UNL     1      58.884  89.438  79.999  1.00  0.00     0.293 HD
ENDBRANCH  46  47
ENDBRANCH  40  41
ENDBRANCH  38  40
ENDBRANCH  37  38
ENDBRANCH   1  37
TORSDOF 10
ENDMDL
MODEL 7
REMARK VINA RESULT:    -6.524     22.584     26.775
REMARK INTER + INTRA:         -11.498
REMARK INTER:                  -9.583
REMARK INTRA:                  -1.915
REMARK UNBOUND:                -0.397
REMARK SMILES C=C(C)[C@]12C[C@@H](C)[C@@]34O[C@](Cc5ccccc5)(O[C@@H]1[C@@H]3C=C(COC(=O)Cc1ccc(O)cc1)C[C@]1(O)C(=O)C(C)=C[C@@H]41)O2
REMARK SMILES IDX 23 1 22 2 21 3 20 4 9 5 8 6 10 7 6 8 18 10 44 11 19 12 5 13
REMARK SMILES IDX 7 14 4 15 11 16 12 17 13 18 17 19 14 20 16 21 15 22 2 23
REMARK SMILES IDX 3 24 1 25 35 26 36 27 43 28 38 29 42 30 39 32 40 33 41 34
REMARK SMILES IDX 37 35 24 37 25 38 26 39 27 40 28 41 29 42 34 43 30 44 33 45
REMARK SMILES IDX 31 46 32 47
REMARK H PARENT 37 36 32 48
REMARK Flexibility Score: 90.00
ROOT
ATOM      1  C   UNL     1      88.524 103.760  67.656  1.00  0.00     0.264 C 
ENDROOT
BRANCH   1   2
ATOM      2  C   UNL     1      89.960 103.870  68.115  1.00  0.00    -0.033 C 
ATOM      3  C   UNL     1      90.261 103.607  69.404  1.00  0.00    -0.015 C 
BRANCH   3   4
ATOM      4  C   UNL     1      91.595 103.717  70.124  1.00  0.00     0.078 C 
ATOM      5  O   UNL     1      92.673 101.496  69.989  1.00  0.00    -0.319 OA
ATOM      6  C   UNL     1      92.814 102.890  69.573  1.00  0.00     0.095 CG0
ATOM      7  C   UNL     1      92.246 101.300  71.351  1.00  0.00     0.289 C 
ATOM      8  C   UNL     1      94.132 103.495  70.211  1.00  0.00     0.023 C 
ATOM      9  G   UNL     1      92.788 102.835  68.018  1.00  0.00     0.000 G0
ATOM     10  O   UNL     1      91.000 101.945  71.600  1.00  0.00    -0.320 OA
ATOM     11  O   UNL     1      93.162 101.855  72.292  1.00  0.00    -0.313 OA
ATOM     12  C   UNL     1      91.425 103.317  71.611  1.00  0.00     0.170 C 
ATOM     13  C   UNL     1      93.876 104.032  71.652  1.00  0.00     0.049 C 
ATOM     14  C   UNL     1      95.351 102.557  70.225  1.00  0.00     0.011 C 
ATOM     15  C   UNL     1      92.776 103.243  72.363  1.00  0.00     0.122 C 
BRANCH   7  16
ATOM     16  C   UNL     1      92.110  99.810  71.596  1.00  0.00     0.135 C 
BRANCH  16  17
ATOM     17  C   UNL     1      93.389  99.204  72.119  1.00  0.00    -0.040 A 
ATOM     18  C   UNL     1      93.522  98.920  73.477  1.00  0.00     0.004 A 
ATOM     19  C   UNL     1      94.437  98.928  71.241  1.00  0.00     0.004 A 
ATOM     20  C   UNL     1      94.705  98.358  73.960  1.00  0.00     0.000 A 
ATOM     21  C   UNL     1      95.620  98.366  71.724  1.00  0.00     0.000 A 
ATOM     22  C   UNL     1      95.754  98.082  73.083  1.00  0.00     0.000 A 
ENDBRANCH  16  17
ENDBRANCH   7  16
BRANCH  15  23
ATOM     23  C   UNL     1      92.638 103.619  73.802  1.00  0.00    -0.046 C 
ATOM     24  C   UNL     1      91.865 104.873  74.088  1.00  0.00     0.042 C 
ATOM     25  C   UNL     1      93.176 102.880  74.784  1.00  0.00     0.010 C 
ENDBRANCH  15  23
ENDBRANCH   3   4
BRANCH   2  26
ATOM     26  C   UNL     1      90.911 104.273  67.005  1.00  0.00     0.078 C 
BRANCH  26  27
ATOM     27  C   UNL     1      92.407 104.171  67.296  1.00  0.00     0.140 C 
ATOM     28  C   UNL     1      92.775 102.851  68.006  1.00  0.00     0.086 CG0
ATOM     29  C   UNL     1      93.240 104.104  66.033  1.00  0.00     0.190 C 
ATOM     30  C   UNL     1      93.985 102.374  67.252  1.00  0.00    -0.010 C 
ATOM     31  G   UNL     1      92.812 102.897  69.561  1.00  0.00     0.000 G0
ATOM     32  O   UNL     1      93.135 104.855  65.075  1.00  0.00    -0.291 OA
ATOM     33  C   UNL     1      94.257 103.039  66.125  1.00  0.00    -0.008 C 
ATOM     34  C   UNL     1      95.301 102.800  65.108  1.00  0.00     0.048 C 
BRANCH  27  35
ATOM     35  O   UNL     1      92.887 105.330  67.957  1.00  0.00    -0.381 OA
ATOM     36  H   UNL     1      93.296 105.057  68.796  1.00  0.00     0.212 HD
ENDBRANCH  27  35
ENDBRANCH  26  27
ENDBRANCH   2  26
ENDBRANCH   1   2
BRANCH   1  37
ATOM     37  O   UNL     1      88.485 103.128  66.394  1.00  0.00    -0.461 OA
BRANCH  37  38
ATOM     38  C   UNL     1      88.058 101.820  66.383  1.00  0.00     0.310 C 
ATOM     39  O   UNL     1      86.893 101.460  66.479  1.00  0.00    -0.252 OA
BRANCH  38  40
ATOM     40  C   UNL     1      89.249 100.903  66.234  1.00  0.00     0.158 C 
BRANCH  40  41
ATOM     41  C   UNL     1      89.363  99.902  67.355  1.00  0.00    -0.037 A 
ATOM     42  C   UNL     1      89.303 100.329  68.681  1.00  0.00     0.008 A 
ATOM     43  C   UNL     1      89.528  98.547  67.066  1.00  0.00     0.008 A 
ATOM     44  C   UNL     1      89.410  99.403  69.719  1.00  0.00     0.046 A 
ATOM     45  C   UNL     1      89.634  97.620  68.104  1.00  0.00     0.046 A 
ATOM     46  C   UNL     1      89.576  98.048  69.429  1.00  0.00     0.115 A 
BRANCH  46  47
ATOM     47  O   UNL     1      89.680  97.144  70.442  1.00  0.00    -0.508 OA
ATOM     48  H   UNL     1      88.806  96.749  70.603  1.00  0.00     0.293 HD
ENDBRANCH  46  47
ENDBRANCH  40  41
ENDBRANCH  38  40
ENDBRANCH  37  38
ENDBRANCH   1  37
TORSDOF 10
ENDMDL
MODEL 8
REMARK VINA RESULT:    -6.429     25.695     29.695
REMARK INTER + INTRA:         -11.336
REMARK INTER:                  -9.192
REMARK INTRA:                  -2.144
REMARK UNBOUND:                -0.397
REMARK SMILES C=C(C)[C@]12C[C@@H](C)[C@@]34O[C@](Cc5ccccc5)(O[C@@H]1[C@@H]3C=C(COC(=O)Cc1ccc(O)cc1)C[C@]1(O)C(=O)C(C)=C[C@@H]41)O2
REMARK SMILES IDX 23 1 22 2 21 3 20 4 9 5 8 6 10 7 6 8 18 10 44 11 19 12 5 13
REMARK SMILES IDX 7 14 4 15 11 16 12 17 13 18 17 19 14 20 16 21 15 22 2 23
REMARK SMILES IDX 3 24 1 25 35 26 36 27 43 28 38 29 42 30 39 32 40 33 41 34
REMARK SMILES IDX 37 35 24 37 25 38 26 39 27 40 28 41 29 42 34 43 30 44 33 45
REMARK SMILES IDX 31 46 32 47
REMARK H PARENT 37 36 32 48
REMARK Flexibility Score: 90.00
ROOT
ATOM      1  C   UNL     1      68.791  89.161  70.846  1.00  0.00     0.264 C 
ENDROOT
BRANCH   1   2
ATOM      2  C   UNL     1      69.503  89.085  69.515  1.00  0.00    -0.033 C 
ATOM      3  C   UNL     1      70.851  89.048  69.490  1.00  0.00    -0.015 C 
BRANCH   3   4
ATOM      4  C   UNL     1      71.795  89.047  68.298  1.00  0.00     0.078 C 
ATOM      5  O   UNL     1      72.281  86.681  67.765  1.00  0.00    -0.319 OA
ATOM      6  C   UNL     1      71.659  87.894  67.237  1.00  0.00     0.095 CG0
ATOM      7  C   UNL     1      73.540  86.877  68.436  1.00  0.00     0.289 C 
ATOM      8  C   UNL     1      72.431  88.352  65.931  1.00  0.00     0.023 C 
ATOM      9  G   UNL     1      70.166  87.507  67.029  1.00  0.00     0.000 G0
ATOM     10  O   UNL     1      73.413  87.795  69.519  1.00  0.00    -0.320 OA
ATOM     11  O   UNL     1      74.532  87.432  67.575  1.00  0.00    -0.313 OA
ATOM     12  C   UNL     1      73.264  89.024  68.790  1.00  0.00     0.170 C 
ATOM     13  C   UNL     1      73.671  89.231  66.278  1.00  0.00     0.049 C 
ATOM     14  C   UNL     1      72.860  87.217  64.984  1.00  0.00     0.011 C 
ATOM     15  C   UNL     1      74.275  88.851  67.631  1.00  0.00     0.122 C 
BRANCH   7  16
ATOM     16  C   UNL     1      74.016  85.535  68.954  1.00  0.00     0.135 C 
BRANCH  16  17
ATOM     17  C   UNL     1      75.180  85.000  68.157  1.00  0.00    -0.040 A 
ATOM     18  C   UNL     1      76.485  85.326  68.524  1.00  0.00     0.004 A 
ATOM     19  C   UNL     1      74.949  84.179  67.053  1.00  0.00     0.004 A 
ATOM     20  C   UNL     1      77.561  84.831  67.787  1.00  0.00     0.000 A 
ATOM     21  C   UNL     1      76.025  83.684  66.316  1.00  0.00     0.000 A 
ATOM     22  C   UNL     1      77.331  84.010  66.683  1.00  0.00     0.000 A 
ENDBRANCH  16  17
ENDBRANCH   7  16
BRANCH  15  23
ATOM     23  C   UNL     1      75.565  89.553  67.901  1.00  0.00    -0.046 C 
ATOM     24  C   UNL     1      76.702  89.228  66.978  1.00  0.00     0.042 C 
ATOM     25  C   UNL     1      75.701  90.424  68.912  1.00  0.00     0.010 C 
ENDBRANCH  15  23
ENDBRANCH   3   4
BRANCH   2  26
ATOM     26  C   UNL     1      68.554  89.052  68.332  1.00  0.00     0.078 C 
BRANCH  26  27
ATOM     27  C   UNL     1      69.146  88.692  66.971  1.00  0.00     0.140 C 
ATOM     28  C   UNL     1      70.147  87.521  67.062  1.00  0.00     0.086 CG0
ATOM     29  C   UNL     1      68.106  88.157  66.009  1.00  0.00     0.190 C 
ATOM     30  C   UNL     1      69.747  86.630  65.919  1.00  0.00    -0.010 C 
ATOM     31  G   UNL     1      71.643  87.910  67.240  1.00  0.00     0.000 G0
ATOM     32  O   UNL     1      67.024  88.675  65.778  1.00  0.00    -0.291 OA
ATOM     33  C   UNL     1      68.592  86.944  65.325  1.00  0.00    -0.008 C 
ATOM     34  C   UNL     1      67.861  86.255  64.241  1.00  0.00     0.048 C 
BRANCH  27  35
ATOM     35  O   UNL     1      69.662  89.836  66.311  1.00  0.00    -0.381 OA
ATOM     36  H   UNL     1      70.530  89.608  65.936  1.00  0.00     0.212 HD
ENDBRANCH  27  35
ENDBRANCH  26  27
ENDBRANCH   2  26
ENDBRANCH   1   2
BRANCH   1  37
ATOM     37  O   UNL     1      67.416  88.904  70.654  1.00  0.00    -0.461 OA
BRANCH  37  38
ATOM     38  C   UNL     1      66.848  87.976  71.497  1.00  0.00     0.310 C 
ATOM     39  O   UNL     1      66.960  87.973  72.715  1.00  0.00    -0.252 OA
BRANCH  38  40
ATOM     40  C   UNL     1      66.069  86.969  70.686  1.00  0.00     0.158 C 
BRANCH  40  41
ATOM     41  C   UNL     1      66.954  86.039  69.897  1.00  0.00    -0.037 A 
ATOM     42  C   UNL     1      66.538  85.572  68.650  1.00  0.00     0.008 A 
ATOM     43  C   UNL     1      68.188  85.646  70.412  1.00  0.00     0.008 A 
ATOM     44  C   UNL     1      67.356  84.710  67.920  1.00  0.00     0.046 A 
ATOM     45  C   UNL     1      69.008  84.784  69.682  1.00  0.00     0.046 A 
ATOM     46  C   UNL     1      68.592  84.316  68.436  1.00  0.00     0.115 A 
BRANCH  46  47
ATOM     47  O   UNL     1      69.390  83.476  67.723  1.00  0.00    -0.508 OA
ATOM     48  H   UNL     1      68.832  82.918  67.154  1.00  0.00     0.293 HD
ENDBRANCH  46  47
ENDBRANCH  40  41
ENDBRANCH  38  40
ENDBRANCH  37  38
ENDBRANCH   1  37
TORSDOF 10
ENDMDL
MODEL 9
REMARK VINA RESULT:    -6.425     26.135     29.809
REMARK INTER + INTRA:         -11.329
REMARK INTER:                 -10.585
REMARK INTRA:                  -0.744
REMARK UNBOUND:                -0.397
REMARK SMILES C=C(C)[C@]12C[C@@H](C)[C@@]34O[C@](Cc5ccccc5)(O[C@@H]1[C@@H]3C=C(COC(=O)Cc1ccc(O)cc1)C[C@]1(O)C(=O)C(C)=C[C@@H]41)O2
REMARK SMILES IDX 23 1 22 2 21 3 20 4 9 5 8 6 10 7 6 8 18 10 44 11 19 12 5 13
REMARK SMILES IDX 7 14 4 15 11 16 12 17 13 18 17 19 14 20 16 21 15 22 2 23
REMARK SMILES IDX 3 24 1 25 35 26 36 27 43 28 38 29 42 30 39 32 40 33 41 34
REMARK SMILES IDX 37 35 24 37 25 38 26 39 27 40 28 41 29 42 34 43 30 44 33 45
REMARK SMILES IDX 31 46 32 47
REMARK H PARENT 37 36 32 48
REMARK Flexibility Score: 90.00
ROOT
ATOM      1  C   UNL     1      71.304  89.589  67.814  1.00  0.00     0.264 C 
ENDROOT
BRANCH   1   2
ATOM      2  C   UNL     1      70.799  88.264  68.337  1.00  0.00    -0.033 C 
ATOM      3  C   UNL     1      69.804  88.251  69.248  1.00  0.00    -0.015 C 
BRANCH   3   4
ATOM      4  C   UNL     1      69.178  87.073  69.977  1.00  0.00     0.078 C 
ATOM      5  O   UNL     1      67.217  86.362  68.649  1.00  0.00    -0.319 OA
ATOM      6  C   UNL     1      68.528  85.923  69.123  1.00  0.00     0.095 CG0
ATOM      7  C   UNL     1      66.413  87.060  69.621  1.00  0.00     0.289 C 
ATOM      8  C   UNL     1      68.349  84.665  70.069  1.00  0.00     0.023 C 
ATOM      9  G   UNL     1      69.345  85.670  67.823  1.00  0.00     0.000 G0
ATOM     10  O   UNL     1      67.090  88.209  70.122  1.00  0.00    -0.320 OA
ATOM     11  O   UNL     1      66.122  86.256  70.761  1.00  0.00    -0.313 OA
ATOM     12  C   UNL     1      68.081  87.577  70.947  1.00  0.00     0.170 C 
ATOM     13  C   UNL     1      68.048  85.093  71.538  1.00  0.00     0.049 C 
ATOM     14  C   UNL     1      67.299  83.638  69.612  1.00  0.00     0.011 C 
ATOM     15  C   UNL     1      67.287  86.418  71.597  1.00  0.00     0.122 C 
BRANCH   7  16
ATOM     16  C   UNL     1      65.118  87.477  68.954  1.00  0.00     0.135 C 
BRANCH  16  17
ATOM     17  C   UNL     1      64.189  86.308  68.739  1.00  0.00    -0.040 A 
ATOM     18  C   UNL     1      64.249  85.577  67.553  1.00  0.00     0.004 A 
ATOM     19  C   UNL     1      63.270  85.958  69.728  1.00  0.00     0.004 A 
ATOM     20  C   UNL     1      63.390  84.495  67.355  1.00  0.00     0.000 A 
ATOM     21  C   UNL     1      62.412  84.876  69.531  1.00  0.00     0.000 A 
ATOM     22  C   UNL     1      62.472  84.146  68.344  1.00  0.00     0.000 A 
ENDBRANCH  16  17
ENDBRANCH   7  16
BRANCH  15  23
ATOM     23  C   UNL     1      66.830  86.756  72.979  1.00  0.00    -0.046 C 
ATOM     24  C   UNL     1      66.115  88.066  73.138  1.00  0.00     0.042 C 
ATOM     25  C   UNL     1      67.046  85.937  74.018  1.00  0.00     0.010 C 
ENDBRANCH  15  23
ENDBRANCH   3   4
BRANCH   2  26
ATOM     26  C   UNL     1      71.514  87.072  67.729  1.00  0.00     0.078 C 
BRANCH  26  27
ATOM     27  C   UNL     1      70.910  85.692  67.982  1.00  0.00     0.140 C 
ATOM     28  C   UNL     1      69.374  85.691  67.830  1.00  0.00     0.086 CG0
ATOM     29  C   UNL     1      71.340  84.673  66.949  1.00  0.00     0.190 C 
ATOM     30  C   UNL     1      69.106  84.467  66.999  1.00  0.00    -0.010 C 
ATOM     31  G   UNL     1      68.556  85.923  69.134  1.00  0.00     0.000 G0
ATOM     32  O   UNL     1      72.490  84.474  66.586  1.00  0.00    -0.291 OA
ATOM     33  C   UNL     1      70.187  83.889  66.467  1.00  0.00    -0.008 C 
ATOM     34  C   UNL     1      70.294  82.738  65.546  1.00  0.00     0.048 C 
BRANCH  27  35
ATOM     35  O   UNL     1      71.364  85.144  69.208  1.00  0.00    -0.381 OA
ATOM     36  H   UNL     1      70.741  84.450  69.484  1.00  0.00     0.212 HD
ENDBRANCH  27  35
ENDBRANCH  26  27
ENDBRANCH   2  26
ENDBRANCH   1   2
BRANCH   1  37
ATOM     37  O   UNL     1      72.411  89.365  66.968  1.00  0.00    -0.461 OA
BRANCH  37  38
ATOM     38  C   UNL     1      73.455  90.255  67.085  1.00  0.00     0.310 C 
ATOM     39  O   UNL     1      73.723  91.132  66.276  1.00  0.00    -0.252 OA
BRANCH  38  40
ATOM     40  C   UNL     1      74.211  89.979  68.362  1.00  0.00     0.158 C 
BRANCH  40  41
ATOM     41  C   UNL     1      75.179  88.831  68.235  1.00  0.00    -0.037 A 
ATOM     42  C   UNL     1      76.476  89.060  67.775  1.00  0.00     0.008 A 
ATOM     43  C   UNL     1      74.779  87.540  68.577  1.00  0.00     0.008 A 
ATOM     44  C   UNL     1      77.373  87.997  67.657  1.00  0.00     0.046 A 
ATOM     45  C   UNL     1      75.675  86.477  68.459  1.00  0.00     0.046 A 
ATOM     46  C   UNL     1      76.972  86.705  67.999  1.00  0.00     0.115 A 
BRANCH  46  47
ATOM     47  O   UNL     1      77.846  85.669  67.883  1.00  0.00    -0.508 OA
ATOM     48  H   UNL     1      78.644  85.979  67.420  1.00  0.00     0.293 HD
ENDBRANCH  46  47
ENDBRANCH  40  41
ENDBRANCH  38  40
ENDBRANCH  37  38
ENDBRANCH   1  37
TORSDOF 10
ENDMDL
MODEL 10
REMARK VINA RESULT:    -6.266      2.486      6.540
REMARK INTER + INTRA:         -11.059
REMARK INTER:                  -9.293
REMARK INTRA:                  -1.767
REMARK UNBOUND:                -0.397
REMARK SMILES C=C(C)[C@]12C[C@@H](C)[C@@]34O[C@](Cc5ccccc5)(O[C@@H]1[C@@H]3C=C(COC(=O)Cc1ccc(O)cc1)C[C@]1(O)C(=O)C(C)=C[C@@H]41)O2
REMARK SMILES IDX 23 1 22 2 21 3 20 4 9 5 8 6 10 7 6 8 18 10 44 11 19 12 5 13
REMARK SMILES IDX 7 14 4 15 11 16 12 17 13 18 17 19 14 20 16 21 15 22 2 23
REMARK SMILES IDX 3 24 1 25 35 26 36 27 43 28 38 29 42 30 39 32 40 33 41 34
REMARK SMILES IDX 37 35 24 37 25 38 26 39 27 40 28 41 29 42 34 43 30 44 33 45
REMARK SMILES IDX 31 46 32 47
REMARK H PARENT 37 36 32 48
REMARK Flexibility Score: 90.00
ROOT
ATOM      1  C   UNL     1      95.141  77.797  84.619  1.00  0.00     0.264 C 
ENDROOT
BRANCH   1   2
ATOM      2  C   UNL     1      93.898  78.286  85.325  1.00  0.00    -0.033 C 
ATOM      3  C   UNL     1      94.016  79.204  86.307  1.00  0.00    -0.015 C 
BRANCH   3   4
ATOM      4  C   UNL     1      92.945  79.793  87.211  1.00  0.00     0.078 C 
ATOM      5  O   UNL     1      92.140  81.861  86.120  1.00  0.00    -0.319 OA
ATOM      6  C   UNL     1      91.723  80.526  86.545  1.00  0.00     0.095 CG0
ATOM      7  C   UNL     1      92.964  82.577  87.061  1.00  0.00     0.289 C 
ATOM      8  C   UNL     1      90.586  80.656  87.640  1.00  0.00     0.023 C 
ATOM      9  G   UNL     1      91.303  79.813  85.226  1.00  0.00     0.000 G0
ATOM     10  O   UNL     1      94.145  81.844  87.376  1.00  0.00    -0.320 OA
ATOM     11  O   UNL     1      92.303  82.795  88.305  1.00  0.00    -0.313 OA
ATOM     12  C   UNL     1      93.585  80.805  88.194  1.00  0.00     0.170 C 
ATOM     13  C   UNL     1      91.186  80.838  89.068  1.00  0.00     0.049 C 
ATOM     14  C   UNL     1      89.541  81.755  87.382  1.00  0.00     0.011 C 
ATOM     15  C   UNL     1      92.529  81.569  89.029  1.00  0.00     0.122 C 
BRANCH   7  16
ATOM     16  C   UNL     1      93.336  83.911  86.446  1.00  0.00     0.135 C 
BRANCH  16  17
ATOM     17  C   UNL     1      94.161  84.756  87.384  1.00  0.00    -0.040 A 
ATOM     18  C   UNL     1      95.540  84.858  87.203  1.00  0.00     0.004 A 
ATOM     19  C   UNL     1      93.544  85.437  88.433  1.00  0.00     0.004 A 
ATOM     20  C   UNL     1      96.303  85.640  88.070  1.00  0.00     0.000 A 
ATOM     21  C   UNL     1      94.307  86.219  89.301  1.00  0.00     0.000 A 
ATOM     22  C   UNL     1      95.685  86.320  89.120  1.00  0.00     0.000 A 
ENDBRANCH  16  17
ENDBRANCH   7  16
BRANCH  15  23
ATOM     23  C   UNL     1      93.034  81.914  90.392  1.00  0.00    -0.046 C 
ATOM     24  C   UNL     1      94.486  82.277  90.488  1.00  0.00     0.042 C 
ATOM     25  C   UNL     1      92.235  81.900  91.469  1.00  0.00     0.010 C 
ENDBRANCH  15  23
ENDBRANCH   3   4
BRANCH   2  26
ATOM     26  C   UNL     1      92.624  77.650  84.800  1.00  0.00     0.078 C 
BRANCH  26  27
ATOM     27  C   UNL     1      91.300  78.250  85.268  1.00  0.00     0.140 C 
ATOM     28  C   UNL     1      91.309  79.792  85.222  1.00  0.00     0.086 CG0
ATOM     29  C   UNL     1      90.149  77.904  84.347  1.00  0.00     0.190 C 
ATOM     30  C   UNL     1      89.995  80.131  84.575  1.00  0.00    -0.010 C 
ATOM     31  G   UNL     1      91.721  80.514  86.538  1.00  0.00     0.000 G0
ATOM     32  O   UNL     1      89.884  76.785  83.935  1.00  0.00    -0.291 OA
ATOM     33  C   UNL     1      89.333  79.096  84.049  1.00  0.00    -0.008 C 
ATOM     34  C   UNL     1      88.073  79.066  83.278  1.00  0.00     0.048 C 
BRANCH  27  35
ATOM     35  O   UNL     1      90.903  77.717  86.521  1.00  0.00    -0.381 OA
ATOM     36  H   UNL     1      90.757  76.761  86.415  1.00  0.00     0.212 HD
ENDBRANCH  27  35
ENDBRANCH  26  27
ENDBRANCH   2  26
ENDBRANCH   1   2
BRANCH   1  37
ATOM     37  O   UNL     1      96.216  77.766  85.533  1.00  0.00    -0.461 OA
BRANCH  37  38
ATOM     38  C   UNL     1      97.464  78.019  85.012  1.00  0.00     0.310 C 
ATOM     39  O   UNL     1      98.124  77.228  84.353  1.00  0.00    -0.252 OA
BRANCH  38  40
ATOM     40  C   UNL     1      97.888  79.421  85.379  1.00  0.00     0.158 C 
BRANCH  40  41
ATOM     41  C   UNL     1      97.246  80.475  84.515  1.00  0.00    -0.037 A 
ATOM     42  C   UNL     1      97.317  80.376  83.125  1.00  0.00     0.008 A 
ATOM     43  C   UNL     1      96.581  81.550  85.104  1.00  0.00     0.008 A 
ATOM     44  C   UNL     1      96.724  81.353  82.325  1.00  0.00     0.046 A 
ATOM     45  C   UNL     1      95.986  82.527  84.304  1.00  0.00     0.046 A 
ATOM     46  C   UNL     1      96.058  82.428  82.915  1.00  0.00     0.115 A 
BRANCH  46  47
ATOM     47  O   UNL     1      95.479  83.380  82.134  1.00  0.00    -0.508 OA
ATOM     48  H   UNL     1      96.158  84.026  81.868  1.00  0.00     0.293 HD
ENDBRANCH  46  47
ENDBRANCH  40  41
ENDBRANCH  38  40
ENDBRANCH  37  38
ENDBRANCH   1  37
TORSDOF 10
ENDMDL
