MODEL 1
REMARK VINA RESULT:    -7.140      0.000      0.000
REMARK INTER + INTRA:          -8.694
REMARK INTER:                  -8.392
REMARK INTRA:                  -0.302
REMARK UNBOUND:                -0.302
REMARK SMILES O=C(/C=C/C=C/c1ccc2c(c1)OCO2)N1CCCCC1
REMARK SMILES IDX 3 1 4 2 2 3 1 4 16 5 17 6 21 7 18 8 20 9 19 10 5 11 6 12
REMARK SMILES IDX 7 13 12 14 8 15 11 16 9 17 13 18 10 19 14 20 15 21
REMARK H PARENT
REMARK Flexibility Score: inf
ROOT
ATOM      1  C   UNL     1      97.339  81.659  78.297  1.00  0.00     0.071 C 
ATOM      2  C   UNL     1      97.678  81.625  79.584  1.00  0.00     0.006 C 
ENDROOT
BRANCH   1   3
ATOM      3  C   UNL     1      98.364  81.297  77.298  1.00  0.00     0.246 C 
ATOM      4  O   UNL     1      99.247  80.512  77.648  1.00  0.00    -0.270 OA
ATOM      5  N   UNL     1      98.268  81.870  76.032  1.00  0.00    -0.339 N 
ATOM      6  C   UNL     1      99.275  81.534  75.020  1.00  0.00     0.120 C 
ATOM      7  C   UNL     1      97.258  82.844  75.592  1.00  0.00     0.120 C 
ATOM      8  C   UNL     1      98.627  81.051  73.727  1.00  0.00     0.022 C 
ATOM      9  C   UNL     1      96.586  82.396  74.294  1.00  0.00     0.022 C 
ATOM     10  C   UNL     1      97.611  82.066  73.213  1.00  0.00     0.004 C 
ENDBRANCH   1   3
BRANCH   2  11
ATOM     11  C   UNL     1      96.743  81.963  80.636  1.00  0.00     0.001 C 
ATOM     12  C   UNL     1      97.071  81.935  81.937  1.00  0.00     0.008 C 
BRANCH  12  13
ATOM     13  C   UNL     1      96.159  82.261  83.046  1.00  0.00    -0.022 A 
ATOM     14  C   UNL     1      96.098  83.569  83.509  1.00  0.00     0.058 A 
ATOM     15  C   UNL     1      95.378  81.245  83.602  1.00  0.00     0.012 A 
ATOM     16  C   UNL     1      95.228  83.825  84.549  1.00  0.00     0.166 A 
ATOM     17  C   UNL     1      94.506  81.532  84.654  1.00  0.00     0.051 A 
ATOM     18  O   UNL     1      95.025  85.034  85.141  1.00  0.00    -0.454 OA
ATOM     19  C   UNL     1      94.453  82.834  85.106  1.00  0.00     0.165 A 
ATOM     20  C   UNL     1      94.036  84.692  86.133  1.00  0.00     0.468 C 
ATOM     21  O   UNL     1      93.668  83.298  86.117  1.00  0.00    -0.454 OA
ENDBRANCH  12  13
ENDBRANCH   2  11
TORSDOF 3
ENDMDL
MODEL 2
REMARK VINA RESULT:    -7.064      3.142      9.353
REMARK INTER + INTRA:          -8.605
REMARK INTER:                  -8.281
REMARK INTRA:                  -0.324
REMARK UNBOUND:                -0.302
REMARK SMILES O=C(/C=C/C=C/c1ccc2c(c1)OCO2)N1CCCCC1
REMARK SMILES IDX 3 1 4 2 2 3 1 4 16 5 17 6 21 7 18 8 20 9 19 10 5 11 6 12
REMARK SMILES IDX 7 13 12 14 8 15 11 16 9 17 13 18 10 19 14 20 15 21
REMARK H PARENT
REMARK Flexibility Score: inf
ROOT
ATOM      1  C   UNL     1      95.227  81.862  83.518  1.00  0.00     0.071 C 
ATOM      2  C   UNL     1      96.380  82.050  82.879  1.00  0.00     0.006 C 
ENDROOT
BRANCH   1   3
ATOM      3  C   UNL     1      95.269  81.641  84.977  1.00  0.00     0.246 C 
ATOM      4  O   UNL     1      96.366  81.714  85.533  1.00  0.00    -0.270 OA
ATOM      5  N   UNL     1      94.068  81.358  85.627  1.00  0.00    -0.339 N 
ATOM      6  C   UNL     1      94.079  81.128  87.074  1.00  0.00     0.120 C 
ATOM      7  C   UNL     1      92.749  81.218  84.992  1.00  0.00     0.120 C 
ATOM      8  C   UNL     1      93.070  82.021  87.788  1.00  0.00     0.022 C 
ATOM      9  C   UNL     1      91.707  82.097  85.683  1.00  0.00     0.022 C 
ATOM     10  C   UNL     1      91.676  81.857  87.190  1.00  0.00     0.004 C 
ENDBRANCH   1   3
BRANCH   2  11
ATOM     11  C   UNL     1      96.441  82.274  81.451  1.00  0.00     0.001 C 
ATOM     12  C   UNL     1      97.209  81.538  80.632  1.00  0.00     0.008 C 
BRANCH  12  13
ATOM     13  C   UNL     1      97.314  81.728  79.175  1.00  0.00    -0.022 A 
ATOM     14  C   UNL     1      96.315  82.427  78.511  1.00  0.00     0.058 A 
ATOM     15  C   UNL     1      98.418  81.200  78.501  1.00  0.00     0.012 A 
ATOM     16  C   UNL     1      96.458  82.580  77.147  1.00  0.00     0.166 A 
ATOM     17  C   UNL     1      98.537  81.369  77.120  1.00  0.00     0.051 A 
ATOM     18  O   UNL     1      95.591  83.228  76.321  1.00  0.00    -0.454 OA
ATOM     19  C   UNL     1      97.540  82.065  76.470  1.00  0.00     0.165 A 
ATOM     20  C   UNL     1      96.249  83.063  75.049  1.00  0.00     0.468 C 
ATOM     21  O   UNL     1      97.486  82.326  75.135  1.00  0.00    -0.454 OA
ENDBRANCH  12  13
ENDBRANCH   2  11
TORSDOF 3
ENDMDL
MODEL 3
REMARK VINA RESULT:    -7.040      3.082      9.082
REMARK INTER + INTRA:          -8.577
REMARK INTER:                  -8.206
REMARK INTRA:                  -0.370
REMARK UNBOUND:                -0.302
REMARK SMILES O=C(/C=C/C=C/c1ccc2c(c1)OCO2)N1CCCCC1
REMARK SMILES IDX 3 1 4 2 2 3 1 4 16 5 17 6 21 7 18 8 20 9 19 10 5 11 6 12
REMARK SMILES IDX 7 13 12 14 8 15 11 16 9 17 13 18 10 19 14 20 15 21
REMARK H PARENT
REMARK Flexibility Score: inf
ROOT
ATOM      1  C   UNL     1      97.382  81.021  82.279  1.00  0.00     0.071 C 
ATOM      2  C   UNL     1      96.870  82.165  81.829  1.00  0.00     0.006 C 
ENDROOT
BRANCH   1   3
ATOM      3  C   UNL     1      97.595  80.879  83.733  1.00  0.00     0.246 C 
ATOM      4  O   UNL     1      98.696  81.200  84.182  1.00  0.00    -0.270 OA
ATOM      5  N   UNL     1      96.538  80.387  84.499  1.00  0.00    -0.339 N 
ATOM      6  C   UNL     1      96.721  80.230  85.945  1.00  0.00     0.120 C 
ATOM      7  C   UNL     1      95.228  79.952  83.994  1.00  0.00     0.120 C 
ATOM      8  C   UNL     1      95.613  80.929  86.726  1.00  0.00     0.022 C 
ATOM      9  C   UNL     1      94.089  80.630  84.755  1.00  0.00     0.022 C 
ATOM     10  C   UNL     1      94.238  80.457  86.264  1.00  0.00     0.004 C 
ENDBRANCH   1   3
BRANCH   2  11
ATOM     11  C   UNL     1      96.626  82.398  80.422  1.00  0.00     0.001 C 
ATOM     12  C   UNL     1      97.381  81.855  79.454  1.00  0.00     0.008 C 
BRANCH  12  13
ATOM     13  C   UNL     1      97.183  82.065  78.010  1.00  0.00    -0.022 A 
ATOM     14  C   UNL     1      98.170  81.653  77.125  1.00  0.00     0.058 A 
ATOM     15  C   UNL     1      96.005  82.675  77.569  1.00  0.00     0.012 A 
ATOM     16  C   UNL     1      97.939  81.871  75.783  1.00  0.00     0.166 A 
ATOM     17  C   UNL     1      95.797  82.883  76.204  1.00  0.00     0.051 A 
ATOM     18  O   UNL     1      98.780  81.542  74.764  1.00  0.00    -0.454 OA
ATOM     19  C   UNL     1      96.784  82.470  75.334  1.00  0.00     0.165 A 
ATOM     20  C   UNL     1      98.024  82.001  73.624  1.00  0.00     0.468 C 
ATOM     21  O   UNL     1      96.757  82.590  73.979  1.00  0.00    -0.454 OA
ENDBRANCH  12  13
ENDBRANCH   2  11
TORSDOF 3
ENDMDL
MODEL 4
REMARK VINA RESULT:    -6.833      2.505      3.414
REMARK INTER + INTRA:          -8.333
REMARK INTER:                  -8.017
REMARK INTRA:                  -0.316
REMARK UNBOUND:                -0.302
REMARK SMILES O=C(/C=C/C=C/c1ccc2c(c1)OCO2)N1CCCCC1
REMARK SMILES IDX 3 1 4 2 2 3 1 4 16 5 17 6 21 7 18 8 20 9 19 10 5 11 6 12
REMARK SMILES IDX 7 13 12 14 8 15 11 16 9 17 13 18 10 19 14 20 15 21
REMARK H PARENT
REMARK Flexibility Score: inf
ROOT
ATOM      1  C   UNL     1      97.587  81.781  77.053  1.00  0.00     0.071 C 
ATOM      2  C   UNL     1      96.835  82.179  78.077  1.00  0.00     0.006 C 
ENDROOT
BRANCH   1   3
ATOM      3  C   UNL     1      97.305  82.351  75.721  1.00  0.00     0.246 C 
ATOM      4  O   UNL     1      96.193  82.848  75.538  1.00  0.00    -0.270 OA
ATOM      5  N   UNL     1      98.312  82.284  74.759  1.00  0.00    -0.339 N 
ATOM      6  C   UNL     1      98.059  82.836  73.425  1.00  0.00     0.120 C 
ATOM      7  C   UNL     1      99.632  81.659  74.926  1.00  0.00     0.120 C 
ATOM      8  C   UNL     1      99.147  83.822  73.015  1.00  0.00     0.022 C 
ATOM      9  C   UNL     1     100.753  82.617  74.520  1.00  0.00     0.022 C 
ATOM     10  C   UNL     1     100.530  83.186  73.122  1.00  0.00     0.004 C 
ENDBRANCH   1   3
BRANCH   2  11
ATOM     11  C   UNL     1      97.035  81.678  79.420  1.00  0.00     0.001 C 
ATOM     12  C   UNL     1      96.623  82.341  80.512  1.00  0.00     0.008 C 
BRANCH  12  13
ATOM     13  C   UNL     1      96.807  81.881  81.899  1.00  0.00    -0.022 A 
ATOM     14  C   UNL     1      97.811  80.964  82.179  1.00  0.00     0.058 A 
ATOM     15  C   UNL     1      95.965  82.380  82.896  1.00  0.00     0.012 A 
ATOM     16  C   UNL     1      97.945  80.564  83.493  1.00  0.00     0.166 A 
ATOM     17  C   UNL     1      96.123  81.958  84.218  1.00  0.00     0.051 A 
ATOM     18  O   UNL     1      98.863  79.677  83.967  1.00  0.00    -0.454 OA
ATOM     19  C   UNL     1      97.124  81.047  84.485  1.00  0.00     0.165 A 
ATOM     20  C   UNL     1      98.526  79.657  85.369  1.00  0.00     0.468 C 
ATOM     21  O   UNL     1      97.424  80.524  85.705  1.00  0.00    -0.454 OA
ENDBRANCH  12  13
ENDBRANCH   2  11
TORSDOF 3
ENDMDL
MODEL 5
REMARK VINA RESULT:    -6.683      1.980      3.078
REMARK INTER + INTRA:          -8.157
REMARK INTER:                  -7.775
REMARK INTRA:                  -0.381
REMARK UNBOUND:                -0.302
REMARK SMILES O=C(/C=C/C=C/c1ccc2c(c1)OCO2)N1CCCCC1
REMARK SMILES IDX 3 1 4 2 2 3 1 4 16 5 17 6 21 7 18 8 20 9 19 10 5 11 6 12
REMARK SMILES IDX 7 13 12 14 8 15 11 16 9 17 13 18 10 19 14 20 15 21
REMARK H PARENT
REMARK Flexibility Score: inf
ROOT
ATOM      1  C   UNL     1      97.575  82.189  76.375  1.00  0.00     0.071 C 
ATOM      2  C   UNL     1      96.426  82.438  77.000  1.00  0.00     0.006 C 
ENDROOT
BRANCH   1   3
ATOM      3  C   UNL     1      97.582  82.216  74.898  1.00  0.00     0.246 C 
ATOM      4  O   UNL     1      96.599  82.697  74.333  1.00  0.00    -0.270 OA
ATOM      5  N   UNL     1      98.696  81.692  74.244  1.00  0.00    -0.339 N 
ATOM      6  C   UNL     1      98.729  81.700  72.779  1.00  0.00     0.120 C 
ATOM      7  C   UNL     1      99.866  81.070  74.883  1.00  0.00     0.120 C 
ATOM      8  C   UNL     1     100.005  82.350  72.254  1.00  0.00     0.022 C 
ATOM      9  C   UNL     1     101.167  81.694  74.379  1.00  0.00     0.022 C 
ATOM     10  C   UNL     1     101.242  81.689  72.855  1.00  0.00     0.004 C 
ENDBRANCH   1   3
BRANCH   2  11
ATOM     11  C   UNL     1      96.319  82.434  78.444  1.00  0.00     0.001 C 
ATOM     12  C   UNL     1      97.164  81.750  79.233  1.00  0.00     0.008 C 
BRANCH  12  13
ATOM     13  C   UNL     1      97.096  81.705  80.703  1.00  0.00    -0.022 A 
ATOM     14  C   UNL     1      96.315  82.637  81.372  1.00  0.00     0.058 A 
ATOM     15  C   UNL     1      97.821  80.724  81.385  1.00  0.00     0.012 A 
ATOM     16  C   UNL     1      96.283  82.554  82.749  1.00  0.00     0.166 A 
ATOM     17  C   UNL     1      97.771  80.663  82.779  1.00  0.00     0.051 A 
ATOM     18  O   UNL     1      95.581  83.371  83.582  1.00  0.00    -0.454 OA
ATOM     19  C   UNL     1      96.991  81.593  83.434  1.00  0.00     0.165 A 
ATOM     20  C   UNL     1      95.928  82.817  84.868  1.00  0.00     0.468 C 
ATOM     21  O   UNL     1      96.823  81.689  84.781  1.00  0.00    -0.454 OA
ENDBRANCH  12  13
ENDBRANCH   2  11
TORSDOF 3
ENDMDL
MODEL 6
REMARK VINA RESULT:    -6.641      3.621     10.059
REMARK INTER + INTRA:          -8.108
REMARK INTER:                  -7.784
REMARK INTRA:                  -0.324
REMARK UNBOUND:                -0.302
REMARK SMILES O=C(/C=C/C=C/c1ccc2c(c1)OCO2)N1CCCCC1
REMARK SMILES IDX 3 1 4 2 2 3 1 4 16 5 17 6 21 7 18 8 20 9 19 10 5 11 6 12
REMARK SMILES IDX 7 13 12 14 8 15 11 16 9 17 13 18 10 19 14 20 15 21
REMARK H PARENT
REMARK Flexibility Score: inf
ROOT
ATOM      1  C   UNL     1      94.899  84.398  85.575  1.00  0.00     0.071 C 
ATOM      2  C   UNL     1      94.832  83.168  85.070  1.00  0.00     0.006 C 
ENDROOT
BRANCH   1   3
ATOM      3  C   UNL     1      94.130  84.687  86.802  1.00  0.00     0.246 C 
ATOM      4  O   UNL     1      93.048  84.117  86.943  1.00  0.00    -0.270 OA
ATOM      5  N   UNL     1      94.677  85.589  87.714  1.00  0.00    -0.339 N 
ATOM      6  C   UNL     1      93.935  85.900  88.939  1.00  0.00     0.120 C 
ATOM      7  C   UNL     1      95.943  86.322  87.559  1.00  0.00     0.120 C 
ATOM      8  C   UNL     1      94.798  85.701  90.180  1.00  0.00     0.022 C 
ATOM      9  C   UNL     1      96.836  86.149  88.787  1.00  0.00     0.022 C 
ATOM     10  C   UNL     1      96.097  86.494  90.076  1.00  0.00     0.004 C 
ENDBRANCH   1   3
BRANCH   2  11
ATOM     11  C   UNL     1      95.549  82.788  83.871  1.00  0.00     0.001 C 
ATOM     12  C   UNL     1      95.587  81.525  83.416  1.00  0.00     0.008 C 
BRANCH  12  13
ATOM     13  C   UNL     1      96.307  81.084  82.209  1.00  0.00    -0.022 A 
ATOM     14  C   UNL     1      96.671  82.026  81.257  1.00  0.00     0.058 A 
ATOM     15  C   UNL     1      96.603  79.727  82.056  1.00  0.00     0.012 A 
ATOM     16  C   UNL     1      97.343  81.564  80.145  1.00  0.00     0.166 A 
ATOM     17  C   UNL     1      97.285  79.287  80.919  1.00  0.00     0.051 A 
ATOM     18  O   UNL     1      97.782  82.325  79.104  1.00  0.00    -0.454 OA
ATOM     19  C   UNL     1      97.643  80.231  79.980  1.00  0.00     0.165 A 
ATOM     20  C   UNL     1      98.391  81.321  78.267  1.00  0.00     0.468 C 
ATOM     21  O   UNL     1      98.306  79.990  78.816  1.00  0.00    -0.454 OA
ENDBRANCH  12  13
ENDBRANCH   2  11
TORSDOF 3
ENDMDL
MODEL 7
REMARK VINA RESULT:    -6.382      3.657      8.795
REMARK INTER + INTRA:          -7.803
REMARK INTER:                  -7.384
REMARK INTRA:                  -0.419
REMARK UNBOUND:                -0.302
REMARK SMILES O=C(/C=C/C=C/c1ccc2c(c1)OCO2)N1CCCCC1
REMARK SMILES IDX 3 1 4 2 2 3 1 4 16 5 17 6 21 7 18 8 20 9 19 10 5 11 6 12
REMARK SMILES IDX 7 13 12 14 8 15 11 16 9 17 13 18 10 19 14 20 15 21
REMARK H PARENT
REMARK Flexibility Score: inf
ROOT
ATOM      1  C   UNL     1      98.154  80.302  81.974  1.00  0.00     0.071 C 
ATOM      2  C   UNL     1      97.319  81.327  81.817  1.00  0.00     0.006 C 
ENDROOT
BRANCH   1   3
ATOM      3  C   UNL     1      98.427  79.832  83.347  1.00  0.00     0.246 C 
ATOM      4  O   UNL     1      98.837  80.660  84.161  1.00  0.00    -0.270 OA
ATOM      5  N   UNL     1      98.207  78.484  83.628  1.00  0.00    -0.339 N 
ATOM      6  C   UNL     1      98.475  77.987  84.981  1.00  0.00     0.120 C 
ATOM      7  C   UNL     1      97.762  77.459  82.672  1.00  0.00     0.120 C 
ATOM      8  C   UNL     1      97.270  77.245  85.550  1.00  0.00     0.022 C 
ATOM      9  C   UNL     1      96.555  76.689  83.210  1.00  0.00     0.022 C 
ATOM     10  C   UNL     1      96.816  76.135  84.607  1.00  0.00     0.004 C 
ENDBRANCH   1   3
BRANCH   2  11
ATOM     11  C   UNL     1      96.990  81.859  80.512  1.00  0.00     0.001 C 
ATOM     12  C   UNL     1      97.583  81.435  79.384  1.00  0.00     0.008 C 
BRANCH  12  13
ATOM     13  C   UNL     1      97.292  81.946  78.034  1.00  0.00    -0.022 A 
ATOM     14  C   UNL     1      98.219  81.741  77.020  1.00  0.00     0.058 A 
ATOM     15  C   UNL     1      96.091  82.624  77.810  1.00  0.00     0.012 A 
ATOM     16  C   UNL     1      97.902  82.238  75.773  1.00  0.00     0.166 A 
ATOM     17  C   UNL     1      95.796  83.116  76.537  1.00  0.00     0.051 A 
ATOM     18  O   UNL     1      98.674  82.142  74.655  1.00  0.00    -0.454 OA
ATOM     19  C   UNL     1      96.723  82.907  75.537  1.00  0.00     0.165 A 
ATOM     20  C   UNL     1      97.848  82.826  73.691  1.00  0.00     0.468 C 
ATOM     21  O   UNL     1      96.608  83.314  74.243  1.00  0.00    -0.454 OA
ENDBRANCH  12  13
ENDBRANCH   2  11
TORSDOF 3
ENDMDL
MODEL 8
REMARK VINA RESULT:    -6.293     24.085     26.308
REMARK INTER + INTRA:          -7.698
REMARK INTER:                  -7.366
REMARK INTRA:                  -0.333
REMARK UNBOUND:                -0.302
REMARK SMILES O=C(/C=C/C=C/c1ccc2c(c1)OCO2)N1CCCCC1
REMARK SMILES IDX 3 1 4 2 2 3 1 4 16 5 17 6 21 7 18 8 20 9 19 10 5 11 6 12
REMARK SMILES IDX 7 13 12 14 8 15 11 16 9 17 13 18 10 19 14 20 15 21
REMARK H PARENT
REMARK Flexibility Score: inf
ROOT
ATOM      1  C   UNL     1      75.258  92.628  70.811  1.00  0.00     0.071 C 
ATOM      2  C   UNL     1      74.704  91.773  69.954  1.00  0.00     0.006 C 
ENDROOT
BRANCH   1   3
ATOM      3  C   UNL     1      74.399  93.673  71.403  1.00  0.00     0.246 C 
ATOM      4  O   UNL     1      73.439  94.064  70.738  1.00  0.00    -0.270 OA
ATOM      5  N   UNL     1      74.734  94.150  72.669  1.00  0.00    -0.339 N 
ATOM      6  C   UNL     1      73.903  95.192  73.280  1.00  0.00     0.120 C 
ATOM      7  C   UNL     1      75.896  93.741  73.472  1.00  0.00     0.120 C 
ATOM      8  C   UNL     1      73.444  94.790  74.678  1.00  0.00     0.022 C 
ATOM      9  C   UNL     1      75.477  93.333  74.884  1.00  0.00     0.022 C 
ATOM     10  C   UNL     1      74.633  94.412  75.556  1.00  0.00     0.004 C 
ENDBRANCH   1   3
BRANCH   2  11
ATOM     11  C   UNL     1      75.464  90.715  69.323  1.00  0.00     0.001 C 
ATOM     12  C   UNL     1      74.933  89.519  69.021  1.00  0.00     0.008 C 
BRANCH  12  13
ATOM     13  C   UNL     1      75.662  88.408  68.387  1.00  0.00    -0.022 A 
ATOM     14  C   UNL     1      75.156  87.120  68.494  1.00  0.00     0.058 A 
ATOM     15  C   UNL     1      76.844  88.681  67.694  1.00  0.00     0.012 A 
ATOM     16  C   UNL     1      75.873  86.112  67.883  1.00  0.00     0.166 A 
ATOM     17  C   UNL     1      77.551  87.641  67.085  1.00  0.00     0.051 A 
ATOM     18  O   UNL     1      75.546  84.790  67.876  1.00  0.00    -0.454 OA
ATOM     19  C   UNL     1      77.039  86.365  67.197  1.00  0.00     0.165 A 
ATOM     20  C   UNL     1      76.636  84.241  67.108  1.00  0.00     0.468 C 
ATOM     21  O   UNL     1      77.587  85.235  66.674  1.00  0.00    -0.454 OA
ENDBRANCH  12  13
ENDBRANCH   2  11
TORSDOF 3
ENDMDL
MODEL 9
REMARK VINA RESULT:    -6.203      8.954     11.387
REMARK INTER + INTRA:          -7.592
REMARK INTER:                  -7.251
REMARK INTRA:                  -0.341
REMARK UNBOUND:                -0.302
REMARK SMILES O=C(/C=C/C=C/c1ccc2c(c1)OCO2)N1CCCCC1
REMARK SMILES IDX 3 1 4 2 2 3 1 4 16 5 17 6 21 7 18 8 20 9 19 10 5 11 6 12
REMARK SMILES IDX 7 13 12 14 8 15 11 16 9 17 13 18 10 19 14 20 15 21
REMARK H PARENT
REMARK Flexibility Score: inf
ROOT
ATOM      1  C   UNL     1      94.126  85.511  88.446  1.00  0.00     0.071 C 
ATOM      2  C   UNL     1      94.199  84.539  87.539  1.00  0.00     0.006 C 
ENDROOT
BRANCH   1   3
ATOM      3  C   UNL     1      95.199  86.524  88.467  1.00  0.00     0.246 C 
ATOM      4  O   UNL     1      96.184  86.324  87.755  1.00  0.00    -0.270 OA
ATOM      5  N   UNL     1      95.029  87.634  89.293  1.00  0.00    -0.339 N 
ATOM      6  C   UNL     1      96.081  88.654  89.339  1.00  0.00     0.120 C 
ATOM      7  C   UNL     1      93.890  87.884  90.188  1.00  0.00     0.120 C 
ATOM      8  C   UNL     1      95.518  90.047  89.075  1.00  0.00     0.022 C 
ATOM      9  C   UNL     1      93.299  89.275  89.957  1.00  0.00     0.022 C 
ATOM     10  C   UNL     1      94.368  90.361  90.027  1.00  0.00     0.004 C 
ENDBRANCH   1   3
BRANCH   2  11
ATOM     11  C   UNL     1      93.195  83.500  87.440  1.00  0.00     0.001 C 
ATOM     12  C   UNL     1      92.224  83.514  86.513  1.00  0.00     0.008 C 
BRANCH  12  13
ATOM     13  C   UNL     1      91.175  82.490  86.373  1.00  0.00    -0.022 A 
ATOM     14  C   UNL     1      91.067  81.792  85.178  1.00  0.00     0.058 A 
ATOM     15  C   UNL     1      90.317  82.249  87.449  1.00  0.00     0.012 A 
ATOM     16  C   UNL     1      90.069  80.843  85.096  1.00  0.00     0.166 A 
ATOM     17  C   UNL     1      89.315  81.282  87.338  1.00  0.00     0.051 A 
ATOM     18  O   UNL     1      89.801  80.059  84.015  1.00  0.00    -0.454 OA
ATOM     19  C   UNL     1      89.217  80.594  86.147  1.00  0.00     0.165 A 
ATOM     20  C   UNL     1      88.684  79.289  84.505  1.00  0.00     0.468 C 
ATOM     21  O   UNL     1      88.308  79.623  85.857  1.00  0.00    -0.454 OA
ENDBRANCH  12  13
ENDBRANCH   2  11
TORSDOF 3
ENDMDL
MODEL 10
REMARK VINA RESULT:    -6.197     17.664     20.614
REMARK INTER + INTRA:          -7.585
REMARK INTER:                  -7.182
REMARK INTRA:                  -0.403
REMARK UNBOUND:                -0.302
REMARK SMILES O=C(/C=C/C=C/c1ccc2c(c1)OCO2)N1CCCCC1
REMARK SMILES IDX 3 1 4 2 2 3 1 4 16 5 17 6 21 7 18 8 20 9 19 10 5 11 6 12
REMARK SMILES IDX 7 13 12 14 8 15 11 16 9 17 13 18 10 19 14 20 15 21
REMARK H PARENT
REMARK Flexibility Score: inf
ROOT
ATOM      1  C   UNL     1      84.883  68.846  71.835  1.00  0.00     0.071 C 
ATOM      2  C   UNL     1      84.788  70.170  71.731  1.00  0.00     0.006 C 
ENDROOT
BRANCH   1   3
ATOM      3  C   UNL     1      83.933  68.148  72.724  1.00  0.00     0.246 C 
ATOM      4  O   UNL     1      83.847  68.544  73.887  1.00  0.00    -0.270 OA
ATOM      5  N   UNL     1      83.203  67.088  72.190  1.00  0.00    -0.339 N 
ATOM      6  C   UNL     1      82.256  66.372  73.050  1.00  0.00     0.120 C 
ATOM      7  C   UNL     1      83.312  66.559  70.822  1.00  0.00     0.120 C 
ATOM      8  C   UNL     1      80.871  66.302  72.416  1.00  0.00     0.022 C 
ATOM      9  C   UNL     1      81.941  66.469  70.153  1.00  0.00     0.022 C 
ATOM     10  C   UNL     1      80.941  65.704  71.014  1.00  0.00     0.004 C 
ENDBRANCH   1   3
BRANCH   2  11
ATOM     11  C   UNL     1      85.674  70.942  70.886  1.00  0.00     0.001 C 
ATOM     12  C   UNL     1      86.893  70.510  70.526  1.00  0.00     0.008 C 
BRANCH  12  13
ATOM     13  C   UNL     1      87.837  71.256  69.676  1.00  0.00    -0.022 A 
ATOM     14  C   UNL     1      89.094  71.567  70.175  1.00  0.00     0.058 A 
ATOM     15  C   UNL     1      87.439  71.632  68.390  1.00  0.00     0.012 A 
ATOM     16  C   UNL     1      89.943  72.267  69.341  1.00  0.00     0.166 A 
ATOM     17  C   UNL     1      88.319  72.340  67.568  1.00  0.00     0.051 A 
ATOM     18  O   UNL     1      91.209  72.665  69.644  1.00  0.00    -0.454 OA
ATOM     19  C   UNL     1      89.566  72.643  68.073  1.00  0.00     0.165 A 
ATOM     20  C   UNL     1      91.586  73.334  68.423  1.00  0.00     0.468 C 
ATOM     21  O   UNL     1      90.548  73.324  67.421  1.00  0.00    -0.454 OA
ENDBRANCH  12  13
ENDBRANCH   2  11
TORSDOF 3
ENDMDL
