MODEL 1
REMARK VINA RESULT:    -8.115      0.000      0.000
REMARK INTER + INTRA:          -9.913
REMARK INTER:                  -9.538
REMARK INTRA:                  -0.375
REMARK UNBOUND:                -0.375
REMARK SMILES O=C(/C=C/C=C/c1ccc2c(c1)OCO2)N1CCCCC1
REMARK SMILES IDX 3 1 4 2 2 3 1 4 16 5 17 6 21 7 18 8 20 9 19 10 5 11 6 12
REMARK SMILES IDX 7 13 12 14 8 15 11 16 9 17 13 18 10 19 14 20 15 21
REMARK H PARENT
REMARK Flexibility Score: inf
ROOT
ATOM      1  C   UNL     1      91.009  91.732  75.971  1.00  0.00     0.071 C 
ATOM      2  C   UNL     1      91.000  92.541  77.028  1.00  0.00     0.006 C 
ENDROOT
BRANCH   1   3
ATOM      3  C   UNL     1      89.727  91.137  75.541  1.00  0.00     0.246 C 
ATOM      4  O   UNL     1      88.806  91.118  76.359  1.00  0.00    -0.270 OA
ATOM      5  N   UNL     1      89.648  90.632  74.244  1.00  0.00    -0.339 N 
ATOM      6  C   UNL     1      88.390  90.030  73.791  1.00  0.00     0.120 C 
ATOM      7  C   UNL     1      90.737  90.596  73.257  1.00  0.00     0.120 C 
ATOM      8  C   UNL     1      87.916  90.650  72.481  1.00  0.00     0.022 C 
ATOM      9  C   UNL     1      90.298  91.207  71.926  1.00  0.00     0.022 C 
ATOM     10  C   UNL     1      89.005  90.578  71.416  1.00  0.00     0.004 C 
ENDBRANCH   1   3
BRANCH   2  11
ATOM     11  C   UNL     1      92.205  93.172  77.524  1.00  0.00     0.001 C 
ATOM     12  C   UNL     1      93.142  93.689  76.712  1.00  0.00     0.008 C 
BRANCH  12  13
ATOM     13  C   UNL     1      94.387  94.332  77.162  1.00  0.00    -0.022 A 
ATOM     14  C   UNL     1      94.676  94.370  78.520  1.00  0.00     0.058 A 
ATOM     15  C   UNL     1      95.245  94.888  76.210  1.00  0.00     0.012 A 
ATOM     16  C   UNL     1      95.855  94.983  78.892  1.00  0.00     0.166 A 
ATOM     17  C   UNL     1      96.432  95.503  76.615  1.00  0.00     0.051 A 
ATOM     18  O   UNL     1      96.313  95.123  80.167  1.00  0.00    -0.454 OA
ATOM     19  C   UNL     1      96.710  95.534  77.966  1.00  0.00     0.165 A 
ATOM     20  C   UNL     1      97.552  95.824  79.938  1.00  0.00     0.468 C 
ATOM     21  O   UNL     1      97.810  96.088  78.543  1.00  0.00    -0.454 OA
ENDBRANCH  12  13
ENDBRANCH   2  11
TORSDOF 3
ENDMDL
MODEL 2
REMARK VINA RESULT:    -7.831      2.746      9.028
REMARK INTER + INTRA:          -9.579
REMARK INTER:                  -9.177
REMARK INTRA:                  -0.402
REMARK UNBOUND:                -0.375
REMARK SMILES O=C(/C=C/C=C/c1ccc2c(c1)OCO2)N1CCCCC1
REMARK SMILES IDX 3 1 4 2 2 3 1 4 16 5 17 6 21 7 18 8 20 9 19 10 5 11 6 12
REMARK SMILES IDX 7 13 12 14 8 15 11 16 9 17 13 18 10 19 14 20 15 21
REMARK H PARENT
REMARK Flexibility Score: inf
ROOT
ATOM      1  C   UNL     1      94.908  94.256  75.424  1.00  0.00     0.071 C 
ATOM      2  C   UNL     1      93.710  94.821  75.290  1.00  0.00     0.006 C 
ENDROOT
BRANCH   1   3
ATOM      3  C   UNL     1      96.008  95.081  75.961  1.00  0.00     0.246 C 
ATOM      4  O   UNL     1      96.602  95.820  75.175  1.00  0.00    -0.270 OA
ATOM      5  N   UNL     1      96.305  94.964  77.318  1.00  0.00    -0.339 N 
ATOM      6  C   UNL     1      97.397  95.767  77.879  1.00  0.00     0.120 C 
ATOM      7  C   UNL     1      95.651  94.061  78.277  1.00  0.00     0.120 C 
ATOM      8  C   UNL     1      96.936  96.560  79.098  1.00  0.00     0.022 C 
ATOM      9  C   UNL     1      95.177  94.820  79.516  1.00  0.00     0.022 C 
ATOM     10  C   UNL     1      96.301  95.643  80.139  1.00  0.00     0.004 C 
ENDBRANCH   1   3
BRANCH   2  11
ATOM     11  C   UNL     1      92.570  94.094  74.772  1.00  0.00     0.001 C 
ATOM     12  C   UNL     1      92.189  92.900  75.255  1.00  0.00     0.008 C 
BRANCH  12  13
ATOM     13  C   UNL     1      91.045  92.116  74.762  1.00  0.00    -0.022 A 
ATOM     14  C   UNL     1      90.268  92.629  73.732  1.00  0.00     0.058 A 
ATOM     15  C   UNL     1      90.774  90.875  75.343  1.00  0.00     0.012 A 
ATOM     16  C   UNL     1      89.208  91.856  73.304  1.00  0.00     0.166 A 
ATOM     17  C   UNL     1      89.694  90.114  74.890  1.00  0.00     0.051 A 
ATOM     18  O   UNL     1      88.332  92.182  72.314  1.00  0.00    -0.454 OA
ATOM     19  C   UNL     1      88.928  90.633  73.867  1.00  0.00     0.165 A 
ATOM     20  C   UNL     1      87.470  91.026  72.317  1.00  0.00     0.468 C 
ATOM     21  O   UNL     1      87.843  90.038  73.300  1.00  0.00    -0.454 OA
ENDBRANCH  12  13
ENDBRANCH   2  11
TORSDOF 3
ENDMDL
MODEL 3
REMARK VINA RESULT:    -7.777      2.757      9.180
REMARK INTER + INTRA:          -9.516
REMARK INTER:                  -9.137
REMARK INTRA:                  -0.379
REMARK UNBOUND:                -0.375
REMARK SMILES O=C(/C=C/C=C/c1ccc2c(c1)OCO2)N1CCCCC1
REMARK SMILES IDX 3 1 4 2 2 3 1 4 16 5 17 6 21 7 18 8 20 9 19 10 5 11 6 12
REMARK SMILES IDX 7 13 12 14 8 15 11 16 9 17 13 18 10 19 14 20 15 21
REMARK H PARENT
REMARK Flexibility Score: inf
ROOT
ATOM      1  C   UNL     1      95.567  94.420  77.643  1.00  0.00     0.071 C 
ATOM      2  C   UNL     1      94.293  94.641  77.328  1.00  0.00     0.006 C 
ENDROOT
BRANCH   1   3
ATOM      3  C   UNL     1      96.344  95.535  78.219  1.00  0.00     0.246 C 
ATOM      4  O   UNL     1      96.754  96.402  77.446  1.00  0.00    -0.270 OA
ATOM      5  N   UNL     1      96.565  95.530  79.596  1.00  0.00    -0.339 N 
ATOM      6  C   UNL     1      97.338  96.622  80.196  1.00  0.00     0.120 C 
ATOM      7  C   UNL     1      96.131  94.492  80.542  1.00  0.00     0.120 C 
ATOM      8  C   UNL     1      96.584  97.267  81.354  1.00  0.00     0.022 C 
ATOM      9  C   UNL     1      95.373  95.101  81.722  1.00  0.00     0.022 C 
ATOM     10  C   UNL     1      96.168  96.223  82.384  1.00  0.00     0.004 C 
ENDBRANCH   1   3
BRANCH   2  11
ATOM     11  C   UNL     1      93.451  93.611  76.758  1.00  0.00     0.001 C 
ATOM     12  C   UNL     1      92.243  93.302  77.256  1.00  0.00     0.008 C 
BRANCH  12  13
ATOM     13  C   UNL     1      91.350  92.259  76.721  1.00  0.00    -0.022 A 
ATOM     14  C   UNL     1      91.688  91.626  75.533  1.00  0.00     0.058 A 
ATOM     15  C   UNL     1      90.188  91.936  77.426  1.00  0.00     0.012 A 
ATOM     16  C   UNL     1      90.821  90.656  75.073  1.00  0.00     0.166 A 
ATOM     17  C   UNL     1      89.328  90.950  76.937  1.00  0.00     0.051 A 
ATOM     18  O   UNL     1      90.972  89.926  73.934  1.00  0.00    -0.454 OA
ATOM     19  C   UNL     1      89.672  90.327  75.756  1.00  0.00     0.165 A 
ATOM     20  C   UNL     1      89.790  89.101  73.977  1.00  0.00     0.468 C 
ATOM     21  O   UNL     1      88.961  89.350  75.130  1.00  0.00    -0.454 OA
ENDBRANCH  12  13
ENDBRANCH   2  11
TORSDOF 3
ENDMDL
MODEL 4
REMARK VINA RESULT:    -7.728      1.713      2.423
REMARK INTER + INTRA:          -9.459
REMARK INTER:                  -9.104
REMARK INTRA:                  -0.354
REMARK UNBOUND:                -0.375
REMARK SMILES O=C(/C=C/C=C/c1ccc2c(c1)OCO2)N1CCCCC1
REMARK SMILES IDX 3 1 4 2 2 3 1 4 16 5 17 6 21 7 18 8 20 9 19 10 5 11 6 12
REMARK SMILES IDX 7 13 12 14 8 15 11 16 9 17 13 18 10 19 14 20 15 21
REMARK H PARENT
REMARK Flexibility Score: inf
ROOT
ATOM      1  C   UNL     1      90.936  92.919  76.575  1.00  0.00     0.071 C 
ATOM      2  C   UNL     1      92.192  93.277  76.315  1.00  0.00     0.006 C 
ENDROOT
BRANCH   1   3
ATOM      3  C   UNL     1      90.146  92.315  75.483  1.00  0.00     0.246 C 
ATOM      4  O   UNL     1      89.955  92.996  74.475  1.00  0.00    -0.270 OA
ATOM      5  N   UNL     1      89.665  91.020  75.669  1.00  0.00    -0.339 N 
ATOM      6  C   UNL     1      88.872  90.396  74.606  1.00  0.00     0.120 C 
ATOM      7  C   UNL     1      89.833  90.196  76.875  1.00  0.00     0.120 C 
ATOM      8  C   UNL     1      89.435  89.033  74.219  1.00  0.00     0.022 C 
ATOM      9  C   UNL     1      90.393  88.816  76.528  1.00  0.00     0.022 C 
ATOM     10  C   UNL     1      89.569  88.130  75.442  1.00  0.00     0.004 C 
ENDBRANCH   1   3
BRANCH   2  11
ATOM     11  C   UNL     1      93.045  93.877  77.319  1.00  0.00     0.001 C 
ATOM     12  C   UNL     1      94.367  94.038  77.147  1.00  0.00     0.008 C 
BRANCH  12  13
ATOM     13  C   UNL     1      95.280  94.633  78.137  1.00  0.00    -0.022 A 
ATOM     14  C   UNL     1      95.110  94.331  79.481  1.00  0.00     0.058 A 
ATOM     15  C   UNL     1      96.295  95.486  77.696  1.00  0.00     0.012 A 
ATOM     16  C   UNL     1      95.991  94.912  80.370  1.00  0.00     0.166 A 
ATOM     17  C   UNL     1      97.172  96.061  78.618  1.00  0.00     0.051 A 
ATOM     18  O   UNL     1      95.989  94.743  81.721  1.00  0.00    -0.454 OA
ATOM     19  C   UNL     1      96.995  95.754  79.951  1.00  0.00     0.165 A 
ATOM     20  C   UNL     1      97.104  95.573  82.104  1.00  0.00     0.468 C 
ATOM     21  O   UNL     1      97.747  96.218  80.985  1.00  0.00    -0.454 OA
ENDBRANCH  12  13
ENDBRANCH   2  11
TORSDOF 3
ENDMDL
MODEL 5
REMARK VINA RESULT:    -7.370      2.890      9.218
REMARK INTER + INTRA:          -9.037
REMARK INTER:                  -8.710
REMARK INTRA:                  -0.327
REMARK UNBOUND:                -0.375
REMARK SMILES O=C(/C=C/C=C/c1ccc2c(c1)OCO2)N1CCCCC1
REMARK SMILES IDX 3 1 4 2 2 3 1 4 16 5 17 6 21 7 18 8 20 9 19 10 5 11 6 12
REMARK SMILES IDX 7 13 12 14 8 15 11 16 9 17 13 18 10 19 14 20 15 21
REMARK H PARENT
REMARK Flexibility Score: inf
ROOT
ATOM      1  C   UNL     1      94.551  94.833  76.096  1.00  0.00     0.071 C 
ATOM      2  C   UNL     1      93.712  93.801  76.164  1.00  0.00     0.006 C 
ENDROOT
BRANCH   1   3
ATOM      3  C   UNL     1      95.676  94.878  77.050  1.00  0.00     0.246 C 
ATOM      4  O   UNL     1      95.703  94.026  77.939  1.00  0.00    -0.270 OA
ATOM      5  N   UNL     1      96.629  95.883  76.884  1.00  0.00    -0.339 N 
ATOM      6  C   UNL     1      97.755  95.956  77.820  1.00  0.00     0.120 C 
ATOM      7  C   UNL     1      96.606  96.942  75.865  1.00  0.00     0.120 C 
ATOM      8  C   UNL     1      99.090  95.987  77.083  1.00  0.00     0.022 C 
ATOM      9  C   UNL     1      97.931  97.007  75.105  1.00  0.00     0.022 C 
ATOM     10  C   UNL     1      99.121  97.113  76.055  1.00  0.00     0.004 C 
ENDBRANCH   1   3
BRANCH   2  11
ATOM     11  C   UNL     1      92.580  93.669  75.273  1.00  0.00     0.001 C 
ATOM     12  C   UNL     1      91.790  92.583  75.257  1.00  0.00     0.008 C 
BRANCH  12  13
ATOM     13  C   UNL     1      90.632  92.394  74.367  1.00  0.00    -0.022 A 
ATOM     14  C   UNL     1      89.833  91.270  74.527  1.00  0.00     0.058 A 
ATOM     15  C   UNL     1      90.370  93.351  73.384  1.00  0.00     0.012 A 
ATOM     16  C   UNL     1      88.760  91.137  73.670  1.00  0.00     0.166 A 
ATOM     17  C   UNL     1      89.277  93.191  72.529  1.00  0.00     0.051 A 
ATOM     18  O   UNL     1      87.865  90.112  73.665  1.00  0.00    -0.454 OA
ATOM     19  C   UNL     1      88.489  92.072  72.697  1.00  0.00     0.165 A 
ATOM     20  C   UNL     1      87.000  90.506  72.581  1.00  0.00     0.468 C 
ATOM     21  O   UNL     1      87.390  91.749  71.962  1.00  0.00    -0.454 OA
ENDBRANCH  12  13
ENDBRANCH   2  11
TORSDOF 3
ENDMDL
MODEL 6
REMARK VINA RESULT:    -7.264      3.402      8.623
REMARK INTER + INTRA:          -8.912
REMARK INTER:                  -8.557
REMARK INTRA:                  -0.355
REMARK UNBOUND:                -0.375
REMARK SMILES O=C(/C=C/C=C/c1ccc2c(c1)OCO2)N1CCCCC1
REMARK SMILES IDX 3 1 4 2 2 3 1 4 16 5 17 6 21 7 18 8 20 9 19 10 5 11 6 12
REMARK SMILES IDX 7 13 12 14 8 15 11 16 9 17 13 18 10 19 14 20 15 21
REMARK H PARENT
REMARK Flexibility Score: inf
ROOT
ATOM      1  C   UNL     1      95.791  95.747  75.424  1.00  0.00     0.071 C 
ATOM      2  C   UNL     1      95.756  94.419  75.324  1.00  0.00     0.006 C 
ENDROOT
BRANCH   1   3
ATOM      3  C   UNL     1      97.112  96.408  75.431  1.00  0.00     0.246 C 
ATOM      4  O   UNL     1      97.663  96.566  76.520  1.00  0.00    -0.270 OA
ATOM      5  N   UNL     1      97.642  96.812  74.207  1.00  0.00    -0.339 N 
ATOM      6  C   UNL     1      98.948  97.476  74.182  1.00  0.00     0.120 C 
ATOM      7  C   UNL     1      96.993  96.682  72.893  1.00  0.00     0.120 C 
ATOM      8  C   UNL     1      99.901  96.795  73.206  1.00  0.00     0.022 C 
ATOM      9  C   UNL     1      97.921  96.005  71.884  1.00  0.00     0.022 C 
ATOM     10  C   UNL     1      99.280  96.694  71.816  1.00  0.00     0.004 C 
ENDBRANCH   1   3
BRANCH   2  11
ATOM     11  C   UNL     1      94.510  93.682  75.310  1.00  0.00     0.001 C 
ATOM     12  C   UNL     1      93.613  93.751  76.306  1.00  0.00     0.008 C 
BRANCH  12  13
ATOM     13  C   UNL     1      92.337  93.017  76.346  1.00  0.00    -0.022 A 
ATOM     14  C   UNL     1      91.844  92.456  75.177  1.00  0.00     0.058 A 
ATOM     15  C   UNL     1      91.657  92.907  77.562  1.00  0.00     0.012 A 
ATOM     16  C   UNL     1      90.645  91.778  75.265  1.00  0.00     0.166 A 
ATOM     17  C   UNL     1      90.445  92.215  77.622  1.00  0.00     0.051 A 
ATOM     18  O   UNL     1      89.999  91.162  74.236  1.00  0.00    -0.454 OA
ATOM     19  C   UNL     1      89.964  91.661  76.455  1.00  0.00     0.165 A 
ATOM     20  C   UNL     1      88.836  90.644  74.913  1.00  0.00     0.468 C 
ATOM     21  O   UNL     1      88.807  90.957  76.321  1.00  0.00    -0.454 OA
ENDBRANCH  12  13
ENDBRANCH   2  11
TORSDOF 3
ENDMDL
MODEL 7
REMARK VINA RESULT:    -6.976     26.616     28.887
REMARK INTER + INTRA:          -8.574
REMARK INTER:                  -8.196
REMARK INTRA:                  -0.378
REMARK UNBOUND:                -0.375
REMARK SMILES O=C(/C=C/C=C/c1ccc2c(c1)OCO2)N1CCCCC1
REMARK SMILES IDX 3 1 4 2 2 3 1 4 16 5 17 6 21 7 18 8 20 9 19 10 5 11 6 12
REMARK SMILES IDX 7 13 12 14 8 15 11 16 9 17 13 18 10 19 14 20 15 21
REMARK H PARENT
REMARK Flexibility Score: inf
ROOT
ATOM      1  C   UNL     1      63.249  84.088  76.036  1.00  0.00     0.071 C 
ATOM      2  C   UNL     1      63.789  85.297  75.890  1.00  0.00     0.006 C 
ENDROOT
BRANCH   1   3
ATOM      3  C   UNL     1      62.683  83.431  74.841  1.00  0.00     0.246 C 
ATOM      4  O   UNL     1      61.810  84.036  74.219  1.00  0.00    -0.270 OA
ATOM      5  N   UNL     1      63.171  82.170  74.502  1.00  0.00    -0.339 N 
ATOM      6  C   UNL     1      62.625  81.490  73.323  1.00  0.00     0.120 C 
ATOM      7  C   UNL     1      64.178  81.398  75.245  1.00  0.00     0.120 C 
ATOM      8  C   UNL     1      63.732  81.044  72.374  1.00  0.00     0.022 C 
ATOM      9  C   UNL     1      65.306  80.930  74.325  1.00  0.00     0.022 C 
ATOM     10  C   UNL     1      64.766  80.192  73.102  1.00  0.00     0.004 C 
ENDBRANCH   1   3
BRANCH   2  11
ATOM     11  C   UNL     1      64.367  86.020  77.002  1.00  0.00     0.001 C 
ATOM     12  C   UNL     1      65.487  85.620  77.626  1.00  0.00     0.008 C 
BRANCH  12  13
ATOM     13  C   UNL     1      66.113  86.312  78.765  1.00  0.00    -0.022 A 
ATOM     14  C   UNL     1      66.048  87.697  78.831  1.00  0.00     0.058 A 
ATOM     15  C   UNL     1      66.755  85.555  79.748  1.00  0.00     0.012 A 
ATOM     16  C   UNL     1      66.649  88.301  79.917  1.00  0.00     0.166 A 
ATOM     17  C   UNL     1      67.355  86.192  80.837  1.00  0.00     0.051 A 
ATOM     18  O   UNL     1      66.696  89.639  80.162  1.00  0.00    -0.454 OA
ATOM     19  C   UNL     1      67.285  87.568  80.894  1.00  0.00     0.165 A 
ATOM     20  C   UNL     1      67.432  89.666  81.402  1.00  0.00     0.468 C 
ATOM     21  O   UNL     1      67.809  88.356  81.872  1.00  0.00    -0.454 OA
ENDBRANCH  12  13
ENDBRANCH   2  11
TORSDOF 3
ENDMDL
MODEL 8
REMARK VINA RESULT:    -6.973     12.374     13.985
REMARK INTER + INTRA:          -8.571
REMARK INTER:                  -8.211
REMARK INTRA:                  -0.359
REMARK UNBOUND:                -0.375
REMARK SMILES O=C(/C=C/C=C/c1ccc2c(c1)OCO2)N1CCCCC1
REMARK SMILES IDX 3 1 4 2 2 3 1 4 16 5 17 6 21 7 18 8 20 9 19 10 5 11 6 12
REMARK SMILES IDX 7 13 12 14 8 15 11 16 9 17 13 18 10 19 14 20 15 21
REMARK H PARENT
REMARK Flexibility Score: inf
ROOT
ATOM      1  C   UNL     1      96.215  83.145  84.085  1.00  0.00     0.071 C 
ATOM      2  C   UNL     1      96.376  82.092  83.286  1.00  0.00     0.006 C 
ENDROOT
BRANCH   1   3
ATOM      3  C   UNL     1      95.464  82.955  85.342  1.00  0.00     0.246 C 
ATOM      4  O   UNL     1      95.452  81.826  85.832  1.00  0.00    -0.270 OA
ATOM      5  N   UNL     1      94.816  84.063  85.885  1.00  0.00    -0.339 N 
ATOM      6  C   UNL     1      94.058  83.904  87.130  1.00  0.00     0.120 C 
ATOM      7  C   UNL     1      94.770  85.414  85.306  1.00  0.00     0.120 C 
ATOM      8  C   UNL     1      94.487  84.926  88.178  1.00  0.00     0.022 C 
ATOM      9  C   UNL     1      95.190  86.469  86.328  1.00  0.00     0.022 C 
ATOM     10  C   UNL     1      94.396  86.345  87.626  1.00  0.00     0.004 C 
ENDBRANCH   1   3
BRANCH   2  11
ATOM     11  C   UNL     1      97.096  82.179  82.033  1.00  0.00     0.001 C 
ATOM     12  C   UNL     1      96.503  82.512  80.876  1.00  0.00     0.008 C 
BRANCH  12  13
ATOM     13  C   UNL     1      97.185  82.608  79.574  1.00  0.00    -0.022 A 
ATOM     14  C   UNL     1      96.424  82.646  78.414  1.00  0.00     0.058 A 
ATOM     15  C   UNL     1      98.581  82.657  79.543  1.00  0.00     0.012 A 
ATOM     16  C   UNL     1      97.108  82.737  77.219  1.00  0.00     0.166 A 
ATOM     17  C   UNL     1      99.248  82.748  78.319  1.00  0.00     0.051 A 
ATOM     18  O   UNL     1      96.547  82.785  75.980  1.00  0.00    -0.454 OA
ATOM     19  C   UNL     1      98.483  82.786  77.173  1.00  0.00     0.165 A 
ATOM     20  C   UNL     1      97.722  82.871  75.149  1.00  0.00     0.468 C 
ATOM     21  O   UNL     1      98.954  82.872  75.899  1.00  0.00    -0.454 OA
ENDBRANCH  12  13
ENDBRANCH   2  11
TORSDOF 3
ENDMDL
MODEL 9
REMARK VINA RESULT:    -6.963     21.706     25.397
REMARK INTER + INTRA:          -8.559
REMARK INTER:                  -8.230
REMARK INTRA:                  -0.329
REMARK UNBOUND:                -0.375
REMARK SMILES O=C(/C=C/C=C/c1ccc2c(c1)OCO2)N1CCCCC1
REMARK SMILES IDX 3 1 4 2 2 3 1 4 16 5 17 6 21 7 18 8 20 9 19 10 5 11 6 12
REMARK SMILES IDX 7 13 12 14 8 15 11 16 9 17 13 18 10 19 14 20 15 21
REMARK H PARENT
REMARK Flexibility Score: inf
ROOT
ATOM      1  C   UNL     1      83.963  69.040  71.881  1.00  0.00     0.071 C 
ATOM      2  C   UNL     1      85.230  69.096  71.475  1.00  0.00     0.006 C 
ENDROOT
BRANCH   1   3
ATOM      3  C   UNL     1      83.574  67.948  72.795  1.00  0.00     0.246 C 
ATOM      4  O   UNL     1      84.089  67.931  73.914  1.00  0.00    -0.270 OA
ATOM      5  N   UNL     1      82.656  67.008  72.330  1.00  0.00    -0.339 N 
ATOM      6  C   UNL     1      82.254  65.908  73.213  1.00  0.00     0.120 C 
ATOM      7  C   UNL     1      82.055  66.970  70.988  1.00  0.00     0.120 C 
ATOM      8  C   UNL     1      80.737  65.816  73.333  1.00  0.00     0.022 C 
ATOM      9  C   UNL     1      80.532  66.873  71.066  1.00  0.00     0.022 C 
ATOM     10  C   UNL     1      80.085  65.718  71.957  1.00  0.00     0.004 C 
ENDBRANCH   1   3
BRANCH   2  11
ATOM     11  C   UNL     1      85.706  70.128  70.579  1.00  0.00     0.001 C 
ATOM     12  C   UNL     1      86.945  70.125  70.059  1.00  0.00     0.008 C 
BRANCH  12  13
ATOM     13  C   UNL     1      87.482  71.152  69.152  1.00  0.00    -0.022 A 
ATOM     14  C   UNL     1      88.697  71.752  69.454  1.00  0.00     0.058 A 
ATOM     15  C   UNL     1      86.754  71.496  68.010  1.00  0.00     0.012 A 
ATOM     16  C   UNL     1      89.160  72.708  68.574  1.00  0.00     0.166 A 
ATOM     17  C   UNL     1      87.246  72.468  67.136  1.00  0.00     0.051 A 
ATOM     18  O   UNL     1      90.322  73.407  68.693  1.00  0.00    -0.454 OA
ATOM     19  C   UNL     1      88.454  73.057  67.445  1.00  0.00     0.165 A 
ATOM     20  C   UNL     1      90.267  74.235  67.513  1.00  0.00     0.468 C 
ATOM     21  O   UNL     1      89.085  74.018  66.717  1.00  0.00    -0.454 OA
ENDBRANCH  12  13
ENDBRANCH   2  11
TORSDOF 3
ENDMDL
MODEL 10
REMARK VINA RESULT:    -6.719     12.287     13.147
REMARK INTER + INTRA:          -8.272
REMARK INTER:                  -7.914
REMARK INTRA:                  -0.359
REMARK UNBOUND:                -0.375
REMARK SMILES O=C(/C=C/C=C/c1ccc2c(c1)OCO2)N1CCCCC1
REMARK SMILES IDX 3 1 4 2 2 3 1 4 16 5 17 6 21 7 18 8 20 9 19 10 5 11 6 12
REMARK SMILES IDX 7 13 12 14 8 15 11 16 9 17 13 18 10 19 14 20 15 21
REMARK H PARENT
REMARK Flexibility Score: inf
ROOT
ATOM      1  C   UNL     1      98.881  82.381  79.770  1.00  0.00     0.071 C 
ATOM      2  C   UNL     1      97.854  81.626  80.155  1.00  0.00     0.006 C 
ENDROOT
BRANCH   1   3
ATOM      3  C   UNL     1      99.642  81.963  78.576  1.00  0.00     0.246 C 
ATOM      4  O   UNL     1     100.648  81.276  78.754  1.00  0.00    -0.270 OA
ATOM      5  N   UNL     1      99.174  82.378  77.330  1.00  0.00    -0.339 N 
ATOM      6  C   UNL     1      99.911  81.983  76.126  1.00  0.00     0.120 C 
ATOM      7  C   UNL     1      98.005  83.235  77.082  1.00  0.00     0.120 C 
ATOM      8  C   UNL     1      98.995  81.317  75.105  1.00  0.00     0.022 C 
ATOM      9  C   UNL     1      97.062  82.601  76.059  1.00  0.00     0.022 C 
ATOM     10  C   UNL     1      97.798  82.206  74.782  1.00  0.00     0.004 C 
ENDBRANCH   1   3
BRANCH   2  11
ATOM     11  C   UNL     1      97.049  81.953  81.313  1.00  0.00     0.001 C 
ATOM     12  C   UNL     1      97.300  83.016  82.095  1.00  0.00     0.008 C 
BRANCH  12  13
ATOM     13  C   UNL     1      96.520  83.389  83.287  1.00  0.00    -0.022 A 
ATOM     14  C   UNL     1      96.395  84.732  83.619  1.00  0.00     0.058 A 
ATOM     15  C   UNL     1      95.926  82.382  84.051  1.00  0.00     0.012 A 
ATOM     16  C   UNL     1      95.655  85.032  84.744  1.00  0.00     0.166 A 
ATOM     17  C   UNL     1      95.181  82.714  85.185  1.00  0.00     0.051 A 
ATOM     18  O   UNL     1      95.418  86.280  85.234  1.00  0.00    -0.454 OA
ATOM     19  C   UNL     1      95.064  84.050  85.506  1.00  0.00     0.165 A 
ATOM     20  C   UNL     1      94.612  85.973  86.390  1.00  0.00     0.468 C 
ATOM     21  O   UNL     1      94.383  84.560  86.569  1.00  0.00    -0.454 OA
ENDBRANCH  12  13
ENDBRANCH   2  11
TORSDOF 3
ENDMDL
