MODEL 1
REMARK VINA RESULT:    -6.347      0.000      0.000
REMARK INTER + INTRA:         -10.686
REMARK INTER:                  -9.873
REMARK INTRA:                  -0.813
REMARK UNBOUND:                -0.813
REMARK SMILES COc1cc(CNC(=O)CCCC/C=C/C(C)C)ccc1O
REMARK SMILES IDX 10 1 8 2 7 3 9 5 6 6 5 7 3 8 21 9 4 10 20 11 19 12 2 13 1 14
REMARK SMILES IDX 22 15 11 17 12 18 13 19 14 20 15 21 16 22 17 23 18 24
REMARK H PARENT 7 4 22 16
REMARK Flexibility Score: inf
ROOT
ATOM      1  C   UNL     1      96.557  81.505  76.970  1.00  0.00     0.100 C 
ENDROOT
BRANCH   1   2
ATOM      2  C   UNL     1      97.292  81.531  78.250  1.00  0.00     0.220 C 
ATOM      3  N   UNL     1      97.044  80.595  79.209  1.00  0.00    -0.352 N 
ATOM      4  H   UNL     1      96.323  79.927  78.976  1.00  0.00     0.163 HD
ATOM      5  O   UNL     1      98.161  82.421  78.416  1.00  0.00    -0.275 OA
BRANCH   3   6
ATOM      6  C   UNL     1      97.721  80.514  80.463  1.00  0.00     0.151 C 
BRANCH   6   7
ATOM      7  C   UNL     1      96.883  81.047  81.572  1.00  0.00    -0.025 A 
ATOM      8  C   UNL     1      95.444  80.653  83.531  1.00  0.00     0.160 A 
ATOM      9  C   UNL     1      95.296  82.045  83.703  1.00  0.00     0.157 A 
ATOM     10  C   UNL     1      96.233  80.167  82.467  1.00  0.00     0.056 A 
ATOM     11  C   UNL     1      95.922  82.934  82.807  1.00  0.00     0.050 A 
ATOM     12  C   UNL     1      96.718  82.439  81.755  1.00  0.00     0.009 A 
BRANCH   8  13
ATOM     13  O   UNL     1      94.783  79.783  84.360  1.00  0.00    -0.493 OA
ATOM     14  C   UNL     1      95.315  78.446  84.353  1.00  0.00     0.278 C 
ENDBRANCH   8  13
BRANCH   9  15
ATOM     15  O   UNL     1      94.554  82.545  84.724  1.00  0.00    -0.504 OA
ATOM     16  H   UNL     1      95.074  83.186  85.214  1.00  0.00     0.293 HD
ENDBRANCH   9  15
ENDBRANCH   6   7
ENDBRANCH   3   6
ENDBRANCH   1   2
BRANCH   1  17
ATOM     17  C   UNL     1      95.920  82.883  76.647  1.00  0.00     0.010 C 
BRANCH  17  18
ATOM     18  C   UNL     1      96.301  83.409  75.235  1.00  0.00     0.005 C 
BRANCH  18  19
ATOM     19  C   UNL     1      96.693  82.263  74.264  1.00  0.00     0.027 C 
BRANCH  19  20
ATOM     20  C   UNL     1      97.974  82.508  73.618  1.00  0.00    -0.031 C 
ATOM     21  C   UNL     1      98.509  83.729  73.438  1.00  0.00    -0.028 C 
BRANCH  21  22
ATOM     22  C   UNL     1      99.809  83.950  72.804  1.00  0.00     0.005 C 
ATOM     23  C   UNL     1     100.939  84.186  73.844  1.00  0.00     0.012 C 
ATOM     24  C   UNL     1     100.157  82.763  71.868  1.00  0.00     0.012 C 
ENDBRANCH  21  22
ENDBRANCH  19  20
ENDBRANCH  18  19
ENDBRANCH  17  18
ENDBRANCH   1  17
TORSDOF 10
ENDMDL
MODEL 2
REMARK VINA RESULT:    -6.192     24.963     27.035
REMARK INTER + INTRA:         -10.445
REMARK INTER:                  -9.292
REMARK INTRA:                  -1.153
REMARK UNBOUND:                -0.813
REMARK SMILES COc1cc(CNC(=O)CCCC/C=C/C(C)C)ccc1O
REMARK SMILES IDX 10 1 8 2 7 3 9 5 6 6 5 7 3 8 21 9 4 10 20 11 19 12 2 13 1 14
REMARK SMILES IDX 22 15 11 17 12 18 13 19 14 20 15 21 16 22 17 23 18 24
REMARK H PARENT 7 4 22 16
REMARK Flexibility Score: inf
ROOT
ATOM      1  C   UNL     1      69.853  84.380  66.137  1.00  0.00     0.100 C 
ENDROOT
BRANCH   1   2
ATOM      2  C   UNL     1      70.480  84.779  67.412  1.00  0.00     0.220 C 
ATOM      3  N   UNL     1      71.678  85.429  67.420  1.00  0.00    -0.352 N 
ATOM      4  H   UNL     1      72.087  85.581  66.508  1.00  0.00     0.163 HD
ATOM      5  O   UNL     1      69.869  84.524  68.478  1.00  0.00    -0.275 OA
BRANCH   3   6
ATOM      6  C   UNL     1      72.350  85.884  68.594  1.00  0.00     0.151 C 
BRANCH   6   7
ATOM      7  C   UNL     1      73.829  85.842  68.428  1.00  0.00    -0.025 A 
ATOM      8  C   UNL     1      75.841  86.402  67.124  1.00  0.00     0.160 A 
ATOM      9  C   UNL     1      76.648  85.789  68.105  1.00  0.00     0.157 A 
ATOM     10  C   UNL     1      74.441  86.421  67.294  1.00  0.00     0.056 A 
ATOM     11  C   UNL     1      76.051  85.190  69.232  1.00  0.00     0.050 A 
ATOM     12  C   UNL     1      74.652  85.225  69.398  1.00  0.00     0.009 A 
BRANCH   8  13
ATOM     13  O   UNL     1      76.413  86.928  65.994  1.00  0.00    -0.493 OA
ATOM     14  C   UNL     1      76.456  88.366  65.972  1.00  0.00     0.278 C 
ENDBRANCH   8  13
BRANCH   9  15
ATOM     15  O   UNL     1      78.000  85.764  67.979  1.00  0.00    -0.504 OA
ATOM     16  H   UNL     1      78.294  86.556  67.522  1.00  0.00     0.293 HD
ENDBRANCH   9  15
ENDBRANCH   6   7
ENDBRANCH   3   6
ENDBRANCH   1   2
BRANCH   1  17
ATOM     17  C   UNL     1      69.823  82.837  65.972  1.00  0.00     0.010 C 
BRANCH  17  18
ATOM     18  C   UNL     1      70.522  82.353  64.671  1.00  0.00     0.005 C 
BRANCH  18  19
ATOM     19  C   UNL     1      71.291  81.020  64.874  1.00  0.00     0.027 C 
BRANCH  19  20
ATOM     20  C   UNL     1      72.713  81.160  64.596  1.00  0.00    -0.031 C 
ATOM     21  C   UNL     1      73.625  81.555  65.503  1.00  0.00    -0.028 C 
BRANCH  21  22
ATOM     22  C   UNL     1      75.053  81.670  65.207  1.00  0.00     0.005 C 
ATOM     23  C   UNL     1      75.343  81.632  63.681  1.00  0.00     0.012 C 
ATOM     24  C   UNL     1      75.630  82.958  65.848  1.00  0.00     0.012 C 
ENDBRANCH  21  22
ENDBRANCH  19  20
ENDBRANCH  18  19
ENDBRANCH  17  18
ENDBRANCH   1  17
TORSDOF 10
ENDMDL
MODEL 3
REMARK VINA RESULT:    -6.172     23.936     26.221
REMARK INTER + INTRA:         -10.413
REMARK INTER:                  -9.095
REMARK INTRA:                  -1.318
REMARK UNBOUND:                -0.813
REMARK SMILES COc1cc(CNC(=O)CCCC/C=C/C(C)C)ccc1O
REMARK SMILES IDX 10 1 8 2 7 3 9 5 6 6 5 7 3 8 21 9 4 10 20 11 19 12 2 13 1 14
REMARK SMILES IDX 22 15 11 17 12 18 13 19 14 20 15 21 16 22 17 23 18 24
REMARK H PARENT 7 4 22 16
REMARK Flexibility Score: inf
ROOT
ATOM      1  C   UNL     1      76.804  85.153  69.222  1.00  0.00     0.100 C 
ENDROOT
BRANCH   1   2
ATOM      2  C   UNL     1      77.089  84.953  67.788  1.00  0.00     0.220 C 
ATOM      3  N   UNL     1      76.647  83.837  67.144  1.00  0.00    -0.352 N 
ATOM      4  H   UNL     1      76.149  83.178  67.726  1.00  0.00     0.163 HD
ATOM      5  O   UNL     1      77.726  85.848  67.181  1.00  0.00    -0.275 OA
BRANCH   3   6
ATOM      6  C   UNL     1      76.843  83.565  65.756  1.00  0.00     0.151 C 
BRANCH   6   7
ATOM      7  C   UNL     1      75.638  82.937  65.147  1.00  0.00    -0.025 A 
ATOM      8  C   UNL     1      73.214  82.504  65.185  1.00  0.00     0.160 A 
ATOM      9  C   UNL     1      73.327  81.764  63.990  1.00  0.00     0.157 A 
ATOM     10  C   UNL     1      74.369  83.081  65.753  1.00  0.00     0.056 A 
ATOM     11  C   UNL     1      74.589  81.596  63.385  1.00  0.00     0.050 A 
ATOM     12  C   UNL     1      75.734  82.186  63.953  1.00  0.00     0.009 A 
BRANCH   8  13
ATOM     13  O   UNL     1      72.000  82.616  65.813  1.00  0.00    -0.493 OA
ATOM     14  C   UNL     1      71.396  83.917  65.696  1.00  0.00     0.278 C 
ENDBRANCH   8  13
BRANCH   9  15
ATOM     15  O   UNL     1      72.233  81.207  63.410  1.00  0.00    -0.504 OA
ATOM     16  H   UNL     1      72.333  81.222  62.455  1.00  0.00     0.293 HD
ENDBRANCH   9  15
ENDBRANCH   6   7
ENDBRANCH   3   6
ENDBRANCH   1   2
BRANCH   1  17
ATOM     17  C   UNL     1      75.446  84.520  69.629  1.00  0.00     0.010 C 
BRANCH  17  18
ATOM     18  C   UNL     1      74.293  85.560  69.706  1.00  0.00     0.005 C 
BRANCH  18  19
ATOM     19  C   UNL     1      73.755  85.951  68.303  1.00  0.00     0.027 C 
BRANCH  19  20
ATOM     20  C   UNL     1      74.256  87.245  67.866  1.00  0.00    -0.031 C 
ATOM     21  C   UNL     1      74.717  88.197  68.698  1.00  0.00    -0.028 C 
BRANCH  21  22
ATOM     22  C   UNL     1      75.234  89.485  68.235  1.00  0.00     0.005 C 
ATOM     23  C   UNL     1      75.285  90.542  69.373  1.00  0.00     0.012 C 
ATOM     24  C   UNL     1      76.631  89.300  67.588  1.00  0.00     0.012 C 
ENDBRANCH  21  22
ENDBRANCH  19  20
ENDBRANCH  18  19
ENDBRANCH  17  18
ENDBRANCH   1  17
TORSDOF 10
ENDMDL
MODEL 4
REMARK VINA RESULT:    -6.127     16.581     19.917
REMARK INTER + INTRA:         -10.343
REMARK INTER:                  -9.656
REMARK INTRA:                  -0.686
REMARK UNBOUND:                -0.813
REMARK SMILES COc1cc(CNC(=O)CCCC/C=C/C(C)C)ccc1O
REMARK SMILES IDX 10 1 8 2 7 3 9 5 6 6 5 7 3 8 21 9 4 10 20 11 19 12 2 13 1 14
REMARK SMILES IDX 22 15 11 17 12 18 13 19 14 20 15 21 16 22 17 23 18 24
REMARK H PARENT 7 4 22 16
REMARK Flexibility Score: inf
ROOT
ATOM      1  C   UNL     1      93.880  98.374  74.018  1.00  0.00     0.100 C 
ENDROOT
BRANCH   1   2
ATOM      2  C   UNL     1      93.821  98.946  72.659  1.00  0.00     0.220 C 
ATOM      3  N   UNL     1      92.802  99.777  72.302  1.00  0.00    -0.352 N 
ATOM      4  H   UNL     1      92.110  99.936  73.021  1.00  0.00     0.163 HD
ATOM      5  O   UNL     1      94.744  98.663  71.857  1.00  0.00    -0.275 OA
BRANCH   3   6
ATOM      6  C   UNL     1      92.671 100.406  71.027  1.00  0.00     0.151 C 
BRANCH   6   7
ATOM      7  C   UNL     1      91.557  99.813  70.237  1.00  0.00    -0.025 A 
ATOM      8  C   UNL     1      90.343  99.587  68.107  1.00  0.00     0.160 A 
ATOM      9  C   UNL     1      89.451  98.677  68.712  1.00  0.00     0.157 A 
ATOM     10  C   UNL     1      91.385 100.147  68.875  1.00  0.00     0.056 A 
ATOM     11  C   UNL     1      89.598  98.349  70.074  1.00  0.00     0.050 A 
ATOM     12  C   UNL     1      90.649  98.905  70.829  1.00  0.00     0.009 A 
BRANCH   8  13
ATOM     13  O   UNL     1      90.164  99.959  66.799  1.00  0.00    -0.493 OA
ATOM     14  C   UNL     1      89.265 101.070  66.623  1.00  0.00     0.278 C 
ENDBRANCH   8  13
BRANCH   9  15
ATOM     15  O   UNL     1      88.445  98.109  67.997  1.00  0.00    -0.504 OA
ATOM     16  H   UNL     1      87.601  98.335  68.396  1.00  0.00     0.293 HD
ENDBRANCH   9  15
ENDBRANCH   6   7
ENDBRANCH   3   6
ENDBRANCH   1   2
BRANCH   1  17
ATOM     17  C   UNL     1      94.196  96.855  73.986  1.00  0.00     0.010 C 
BRANCH  17  18
ATOM     18  C   UNL     1      94.880  96.352  75.289  1.00  0.00     0.005 C 
BRANCH  18  19
ATOM     19  C   UNL     1      94.514  94.879  75.618  1.00  0.00     0.027 C 
BRANCH  19  20
ATOM     20  C   UNL     1      93.200  94.766  76.233  1.00  0.00    -0.031 C 
ATOM     21  C   UNL     1      92.293  93.827  75.910  1.00  0.00    -0.028 C 
BRANCH  21  22
ATOM     22  C   UNL     1      90.985  93.720  76.556  1.00  0.00     0.005 C 
ATOM     23  C   UNL     1      91.043  92.896  77.872  1.00  0.00     0.012 C 
ATOM     24  C   UNL     1      90.396  95.131  76.812  1.00  0.00     0.012 C 
ENDBRANCH  21  22
ENDBRANCH  19  20
ENDBRANCH  18  19
ENDBRANCH  17  18
ENDBRANCH   1  17
TORSDOF 10
ENDMDL
MODEL 5
REMARK VINA RESULT:    -6.083     14.517     16.285
REMARK INTER + INTRA:         -10.275
REMARK INTER:                  -9.516
REMARK INTRA:                  -0.759
REMARK UNBOUND:                -0.813
REMARK SMILES COc1cc(CNC(=O)CCCC/C=C/C(C)C)ccc1O
REMARK SMILES IDX 10 1 8 2 7 3 9 5 6 6 5 7 3 8 21 9 4 10 20 11 19 12 2 13 1 14
REMARK SMILES IDX 22 15 11 17 12 18 13 19 14 20 15 21 16 22 17 23 18 24
REMARK H PARENT 7 4 22 16
REMARK Flexibility Score: inf
ROOT
ATOM      1  C   UNL     1      95.983  95.767  81.633  1.00  0.00     0.100 C 
ENDROOT
BRANCH   1   2
ATOM      2  C   UNL     1      95.847  95.261  80.253  1.00  0.00     0.220 C 
ATOM      3  N   UNL     1      95.110  94.143  79.997  1.00  0.00    -0.352 N 
ATOM      4  H   UNL     1      94.706  93.702  80.812  1.00  0.00     0.163 HD
ATOM      5  O   UNL     1      96.406  95.900  79.330  1.00  0.00    -0.275 OA
BRANCH   3   6
ATOM      6  C   UNL     1      94.890  93.592  78.698  1.00  0.00     0.151 C 
BRANCH   6   7
ATOM      7  C   UNL     1      93.580  94.019  78.138  1.00  0.00    -0.025 A 
ATOM      8  C   UNL     1      91.210  93.545  77.664  1.00  0.00     0.160 A 
ATOM      9  C   UNL     1      91.068  94.826  77.091  1.00  0.00     0.157 A 
ATOM     10  C   UNL     1      92.464  93.154  78.179  1.00  0.00     0.056 A 
ATOM     11  C   UNL     1      92.176  95.693  77.025  1.00  0.00     0.050 A 
ATOM     12  C   UNL     1      93.421  95.298  77.553  1.00  0.00     0.009 A 
BRANCH   8  13
ATOM     13  O   UNL     1      90.151  92.673  77.671  1.00  0.00    -0.493 OA
ATOM     14  C   UNL     1      90.157  91.734  76.580  1.00  0.00     0.278 C 
ENDBRANCH   8  13
BRANCH   9  15
ATOM     15  O   UNL     1      89.872  95.239  76.598  1.00  0.00    -0.504 OA
ATOM     16  H   UNL     1      89.912  95.267  75.639  1.00  0.00     0.293 HD
ENDBRANCH   9  15
ENDBRANCH   6   7
ENDBRANCH   3   6
ENDBRANCH   1   2
BRANCH   1  17
ATOM     17  C   UNL     1      96.106  97.314  81.665  1.00  0.00     0.010 C 
BRANCH  17  18
ATOM     18  C   UNL     1      97.571  97.801  81.850  1.00  0.00     0.005 C 
BRANCH  18  19
ATOM     19  C   UNL     1      97.849  99.134  81.105  1.00  0.00     0.027 C 
BRANCH  19  20
ATOM     20  C   UNL     1      96.672  99.988  81.054  1.00  0.00    -0.031 C 
ATOM     21  C   UNL     1      96.665 101.287  81.405  1.00  0.00    -0.028 C 
BRANCH  21  22
ATOM     22  C   UNL     1      95.473 102.132  81.327  1.00  0.00     0.005 C 
ATOM     23  C   UNL     1      94.960 102.294  79.869  1.00  0.00     0.012 C 
ATOM     24  C   UNL     1      94.358 101.572  82.247  1.00  0.00     0.012 C 
ENDBRANCH  21  22
ENDBRANCH  19  20
ENDBRANCH  18  19
ENDBRANCH  17  18
ENDBRANCH   1  17
TORSDOF 10
ENDMDL
MODEL 6
REMARK VINA RESULT:    -6.076      3.262      9.778
REMARK INTER + INTRA:         -10.263
REMARK INTER:                  -9.495
REMARK INTRA:                  -0.768
REMARK UNBOUND:                -0.813
REMARK SMILES COc1cc(CNC(=O)CCCC/C=C/C(C)C)ccc1O
REMARK SMILES IDX 10 1 8 2 7 3 9 5 6 6 5 7 3 8 21 9 4 10 20 11 19 12 2 13 1 14
REMARK SMILES IDX 22 15 11 17 12 18 13 19 14 20 15 21 16 22 17 23 18 24
REMARK H PARENT 7 4 22 16
REMARK Flexibility Score: inf
ROOT
ATOM      1  C   UNL     1      96.180  82.266  77.525  1.00  0.00     0.100 C 
ENDROOT
BRANCH   1   2
ATOM      2  C   UNL     1      96.350  82.926  76.216  1.00  0.00     0.220 C 
ATOM      3  N   UNL     1      97.500  82.762  75.503  1.00  0.00    -0.352 N 
ATOM      4  H   UNL     1      98.202  82.190  75.952  1.00  0.00     0.163 HD
ATOM      5  O   UNL     1      95.401  83.617  75.773  1.00  0.00    -0.275 OA
BRANCH   3   6
ATOM      6  C   UNL     1      97.749  83.330  74.217  1.00  0.00     0.151 C 
BRANCH   6   7
ATOM      7  C   UNL     1      99.179  83.189  73.825  1.00  0.00    -0.025 A 
ATOM      8  C   UNL     1     101.092  83.916  72.458  1.00  0.00     0.160 A 
ATOM      9  C   UNL     1     101.907  82.948  73.081  1.00  0.00     0.157 A 
ATOM     10  C   UNL     1      99.737  84.026  72.833  1.00  0.00     0.056 A 
ATOM     11  C   UNL     1     101.359  82.093  74.058  1.00  0.00     0.050 A 
ATOM     12  C   UNL     1     100.007  82.219  74.435  1.00  0.00     0.009 A 
BRANCH   8  13
ATOM     13  O   UNL     1     101.604  84.706  71.460  1.00  0.00    -0.493 OA
ATOM     14  C   UNL     1     101.315  84.234  70.131  1.00  0.00     0.278 C 
ENDBRANCH   8  13
BRANCH   9  15
ATOM     15  O   UNL     1     103.218  82.825  72.752  1.00  0.00    -0.504 OA
ATOM     16  H   UNL     1     103.368  81.967  72.347  1.00  0.00     0.293 HD
ENDBRANCH   9  15
ENDBRANCH   6   7
ENDBRANCH   3   6
ENDBRANCH   1   2
BRANCH   1  17
ATOM     17  C   UNL     1      97.542  82.052  78.239  1.00  0.00     0.010 C 
BRANCH  17  18
ATOM     18  C   UNL     1      97.793  80.568  78.631  1.00  0.00     0.005 C 
BRANCH  18  19
ATOM     19  C   UNL     1      97.930  80.378  80.166  1.00  0.00     0.027 C 
BRANCH  19  20
ATOM     20  C   UNL     1      97.210  81.400  80.910  1.00  0.00    -0.031 C 
ATOM     21  C   UNL     1      96.511  81.164  82.035  1.00  0.00    -0.028 C 
BRANCH  21  22
ATOM     22  C   UNL     1      95.810  82.211  82.779  1.00  0.00     0.005 C 
ATOM     23  C   UNL     1      95.390  81.744  84.200  1.00  0.00     0.012 C 
ATOM     24  C   UNL     1      96.683  83.491  82.853  1.00  0.00     0.012 C 
ENDBRANCH  21  22
ENDBRANCH  19  20
ENDBRANCH  18  19
ENDBRANCH  17  18
ENDBRANCH   1  17
TORSDOF 10
ENDMDL
MODEL 7
REMARK VINA RESULT:    -5.951      2.411      3.808
REMARK INTER + INTRA:         -10.069
REMARK INTER:                  -9.273
REMARK INTRA:                  -0.796
REMARK UNBOUND:                -0.813
REMARK SMILES COc1cc(CNC(=O)CCCC/C=C/C(C)C)ccc1O
REMARK SMILES IDX 10 1 8 2 7 3 9 5 6 6 5 7 3 8 21 9 4 10 20 11 19 12 2 13 1 14
REMARK SMILES IDX 22 15 11 17 12 18 13 19 14 20 15 21 16 22 17 23 18 24
REMARK H PARENT 7 4 22 16
REMARK Flexibility Score: inf
ROOT
ATOM      1  C   UNL     1      98.224  77.777  79.686  1.00  0.00     0.100 C 
ENDROOT
BRANCH   1   2
ATOM      2  C   UNL     1      97.298  77.891  80.829  1.00  0.00     0.220 C 
ATOM      3  N   UNL     1      97.145  79.078  81.480  1.00  0.00    -0.352 N 
ATOM      4  H   UNL     1      97.721  79.832  81.132  1.00  0.00     0.163 HD
ATOM      5  O   UNL     1      96.644  76.874  81.165  1.00  0.00    -0.275 OA
BRANCH   3   6
ATOM      6  C   UNL     1      96.253  79.300  82.573  1.00  0.00     0.151 C 
BRANCH   6   7
ATOM      7  C   UNL     1      96.131  80.748  82.893  1.00  0.00    -0.025 A 
ATOM      8  C   UNL     1      95.249  82.544  84.328  1.00  0.00     0.160 A 
ATOM      9  C   UNL     1      95.902  83.505  83.529  1.00  0.00     0.157 A 
ATOM     10  C   UNL     1      95.367  81.177  84.002  1.00  0.00     0.056 A 
ATOM     11  C   UNL     1      96.651  83.094  82.408  1.00  0.00     0.050 A 
ATOM     12  C   UNL     1      96.773  81.726  82.097  1.00  0.00     0.009 A 
BRANCH   8  13
ATOM     13  O   UNL     1      94.465  82.943  85.381  1.00  0.00    -0.493 OA
ATOM     14  C   UNL     1      95.152  82.974  86.646  1.00  0.00     0.278 C 
ENDBRANCH   8  13
BRANCH   9  15
ATOM     15  O   UNL     1      95.820  84.828  83.823  1.00  0.00    -0.504 OA
ATOM     16  H   UNL     1      96.624  85.109  84.266  1.00  0.00     0.293 HD
ENDBRANCH   9  15
ENDBRANCH   6   7
ENDBRANCH   3   6
ENDBRANCH   1   2
BRANCH   1  17
ATOM     17  C   UNL     1      98.764  79.165  79.247  1.00  0.00     0.010 C 
BRANCH  17  18
ATOM     18  C   UNL     1      97.758  79.952  78.360  1.00  0.00     0.005 C 
BRANCH  18  19
ATOM     19  C   UNL     1      98.054  81.476  78.341  1.00  0.00     0.027 C 
BRANCH  19  20
ATOM     20  C   UNL     1      97.385  82.150  77.239  1.00  0.00    -0.031 C 
ATOM     21  C   UNL     1      97.916  82.303  76.012  1.00  0.00    -0.028 C 
BRANCH  21  22
ATOM     22  C   UNL     1      97.217  82.968  74.913  1.00  0.00     0.005 C 
ATOM     23  C   UNL     1      96.767  81.968  73.811  1.00  0.00     0.012 C 
ATOM     24  C   UNL     1      96.009  83.774  75.455  1.00  0.00     0.012 C 
ENDBRANCH  21  22
ENDBRANCH  19  20
ENDBRANCH  18  19
ENDBRANCH  17  18
ENDBRANCH   1  17
TORSDOF 10
ENDMDL
MODEL 8
REMARK VINA RESULT:    -5.877      1.046      2.065
REMARK INTER + INTRA:          -9.954
REMARK INTER:                  -9.345
REMARK INTRA:                  -0.609
REMARK UNBOUND:                -0.813
REMARK SMILES COc1cc(CNC(=O)CCCC/C=C/C(C)C)ccc1O
REMARK SMILES IDX 10 1 8 2 7 3 9 5 6 6 5 7 3 8 21 9 4 10 20 11 19 12 2 13 1 14
REMARK SMILES IDX 22 15 11 17 12 18 13 19 14 20 15 21 16 22 17 23 18 24
REMARK H PARENT 7 4 22 16
REMARK Flexibility Score: inf
ROOT
ATOM      1  C   UNL     1      96.240  81.810  77.150  1.00  0.00     0.100 C 
ENDROOT
BRANCH   1   2
ATOM      2  C   UNL     1      97.256  81.817  78.220  1.00  0.00     0.220 C 
ATOM      3  N   UNL     1      96.884  81.712  79.527  1.00  0.00    -0.352 N 
ATOM      4  H   UNL     1      95.887  81.657  79.684  1.00  0.00     0.163 HD
ATOM      5  O   UNL     1      98.464  81.897  77.890  1.00  0.00    -0.275 OA
BRANCH   3   6
ATOM      6  C   UNL     1      97.788  81.677  80.632  1.00  0.00     0.151 C 
BRANCH   6   7
ATOM      7  C   UNL     1      97.091  81.318  81.897  1.00  0.00    -0.025 A 
ATOM      8  C   UNL     1      96.321  81.936  84.152  1.00  0.00     0.160 A 
ATOM      9  C   UNL     1      95.749  80.656  84.309  1.00  0.00     0.157 A 
ATOM     10  C   UNL     1      96.988  82.254  82.951  1.00  0.00     0.056 A 
ATOM     11  C   UNL     1      95.862  79.706  83.274  1.00  0.00     0.050 A 
ATOM     12  C   UNL     1      96.519  80.036  82.073  1.00  0.00     0.009 A 
BRANCH   8  13
ATOM     13  O   UNL     1      96.271  82.842  85.181  1.00  0.00    -0.493 OA
ATOM     14  C   UNL     1      95.236  83.832  85.042  1.00  0.00     0.278 C 
ENDBRANCH   8  13
BRANCH   9  15
ATOM     15  O   UNL     1      95.089  80.323  85.448  1.00  0.00    -0.504 OA
ATOM     16  H   UNL     1      95.074  81.077  86.042  1.00  0.00     0.293 HD
ENDBRANCH   9  15
ENDBRANCH   6   7
ENDBRANCH   3   6
ENDBRANCH   1   2
BRANCH   1  17
ATOM     17  C   UNL     1      95.586  83.206  76.973  1.00  0.00     0.010 C 
BRANCH  17  18
ATOM     18  C   UNL     1      95.977  83.892  75.634  1.00  0.00     0.005 C 
BRANCH  18  19
ATOM     19  C   UNL     1      96.524  82.881  74.590  1.00  0.00     0.027 C 
BRANCH  19  20
ATOM     20  C   UNL     1      97.930  83.110  74.291  1.00  0.00    -0.031 C 
ATOM     21  C   UNL     1      98.478  82.960  73.072  1.00  0.00    -0.028 C 
BRANCH  21  22
ATOM     22  C   UNL     1      99.890  83.215  72.790  1.00  0.00     0.005 C 
ATOM     23  C   UNL     1     100.505  82.146  71.845  1.00  0.00     0.012 C 
ATOM     24  C   UNL     1     100.071  84.640  72.204  1.00  0.00     0.012 C 
ENDBRANCH  21  22
ENDBRANCH  19  20
ENDBRANCH  18  19
ENDBRANCH  17  18
ENDBRANCH   1  17
TORSDOF 10
ENDMDL
MODEL 9
REMARK VINA RESULT:    -5.713     19.712     21.562
REMARK INTER + INTRA:          -9.699
REMARK INTER:                  -8.116
REMARK INTRA:                  -1.583
REMARK UNBOUND:                -0.813
REMARK SMILES COc1cc(CNC(=O)CCCC/C=C/C(C)C)ccc1O
REMARK SMILES IDX 10 1 8 2 7 3 9 5 6 6 5 7 3 8 21 9 4 10 20 11 19 12 2 13 1 14
REMARK SMILES IDX 22 15 11 17 12 18 13 19 14 20 15 21 16 22 17 23 18 24
REMARK H PARENT 7 4 22 16
REMARK Flexibility Score: inf
ROOT
ATOM      1  C   UNL     1      82.277  65.152  76.425  1.00  0.00     0.100 C 
ENDROOT
BRANCH   1   2
ATOM      2  C   UNL     1      83.605  65.704  76.095  1.00  0.00     0.220 C 
ATOM      3  N   UNL     1      83.728  66.723  75.199  1.00  0.00    -0.352 N 
ATOM      4  H   UNL     1      82.860  67.032  74.783  1.00  0.00     0.163 HD
ATOM      5  O   UNL     1      84.607  65.224  76.679  1.00  0.00    -0.275 OA
BRANCH   3   6
ATOM      6  C   UNL     1      84.960  67.346  74.836  1.00  0.00     0.151 C 
BRANCH   6   7
ATOM      7  C   UNL     1      84.764  68.365  73.769  1.00  0.00    -0.025 A 
ATOM      8  C   UNL     1      85.100  70.653  72.923  1.00  0.00     0.160 A 
ATOM      9  C   UNL     1      84.416  70.316  71.737  1.00  0.00     0.157 A 
ATOM     10  C   UNL     1      85.265  69.677  73.928  1.00  0.00     0.056 A 
ATOM     11  C   UNL     1      83.893  69.018  71.573  1.00  0.00     0.050 A 
ATOM     12  C   UNL     1      84.073  68.046  72.577  1.00  0.00     0.009 A 
BRANCH   8  13
ATOM     13  O   UNL     1      85.553  71.934  73.115  1.00  0.00    -0.493 OA
ATOM     14  C   UNL     1      85.856  72.249  74.486  1.00  0.00     0.278 C 
ENDBRANCH   8  13
BRANCH   9  15
ATOM     15  O   UNL     1      84.250  71.228  70.745  1.00  0.00    -0.504 OA
ATOM     16  H   UNL     1      83.573  71.859  70.999  1.00  0.00     0.293 HD
ENDBRANCH   9  15
ENDBRANCH   6   7
ENDBRANCH   3   6
ENDBRANCH   1   2
BRANCH   1  17
ATOM     17  C   UNL     1      81.715  64.283  75.267  1.00  0.00     0.010 C 
BRANCH  17  18
ATOM     18  C   UNL     1      80.335  64.782  74.752  1.00  0.00     0.005 C 
BRANCH  18  19
ATOM     19  C   UNL     1      80.467  65.993  73.789  1.00  0.00     0.027 C 
BRANCH  19  20
ATOM     20  C   UNL     1      81.249  65.668  72.605  1.00  0.00    -0.031 C 
ATOM     21  C   UNL     1      80.860  65.934  71.345  1.00  0.00    -0.028 C 
BRANCH  21  22
ATOM     22  C   UNL     1      81.671  65.616  70.171  1.00  0.00     0.005 C 
ATOM     23  C   UNL     1      81.916  66.858  69.269  1.00  0.00     0.012 C 
ATOM     24  C   UNL     1      83.015  64.975  70.605  1.00  0.00     0.012 C 
ENDBRANCH  21  22
ENDBRANCH  19  20
ENDBRANCH  18  19
ENDBRANCH  17  18
ENDBRANCH   1  17
TORSDOF 10
ENDMDL
MODEL 10
REMARK VINA RESULT:    -5.710     14.919     16.676
REMARK INTER + INTRA:          -9.694
REMARK INTER:                  -9.146
REMARK INTRA:                  -0.548
REMARK UNBOUND:                -0.813
REMARK SMILES COc1cc(CNC(=O)CCCC/C=C/C(C)C)ccc1O
REMARK SMILES IDX 10 1 8 2 7 3 9 5 6 6 5 7 3 8 21 9 4 10 20 11 19 12 2 13 1 14
REMARK SMILES IDX 22 15 11 17 12 18 13 19 14 20 15 21 16 22 17 23 18 24
REMARK H PARENT 7 4 22 16
REMARK Flexibility Score: inf
ROOT
ATOM      1  C   UNL     1      94.520  99.317  73.511  1.00  0.00     0.100 C 
ENDROOT
BRANCH   1   2
ATOM      2  C   UNL     1      95.144  97.987  73.652  1.00  0.00     0.220 C 
ATOM      3  N   UNL     1      94.478  96.973  74.271  1.00  0.00    -0.352 N 
ATOM      4  H   UNL     1      93.566  97.218  74.630  1.00  0.00     0.163 HD
ATOM      5  O   UNL     1      96.289  97.816  73.166  1.00  0.00    -0.275 OA
BRANCH   3   6
ATOM      6  C   UNL     1      94.980  95.645  74.430  1.00  0.00     0.151 C 
BRANCH   6   7
ATOM      7  C   UNL     1      94.333  94.950  75.577  1.00  0.00    -0.025 A 
ATOM      8  C   UNL     1      92.470  93.622  76.484  1.00  0.00     0.160 A 
ATOM      9  C   UNL     1      93.097  93.604  77.748  1.00  0.00     0.157 A 
ATOM     10  C   UNL     1      93.092  94.296  75.413  1.00  0.00     0.056 A 
ATOM     11  C   UNL     1      94.325  94.269  77.931  1.00  0.00     0.050 A 
ATOM     12  C   UNL     1      94.944  94.930  76.852  1.00  0.00     0.009 A 
BRANCH   8  13
ATOM     13  O   UNL     1      91.243  93.032  76.317  1.00  0.00    -0.493 OA
ATOM     14  C   UNL     1      91.283  91.789  75.591  1.00  0.00     0.278 C 
ENDBRANCH   8  13
BRANCH   9  15
ATOM     15  O   UNL     1      92.531  92.953  78.797  1.00  0.00    -0.504 OA
ATOM     16  H   UNL     1      92.737  92.017  78.742  1.00  0.00     0.293 HD
ENDBRANCH   9  15
ENDBRANCH   6   7
ENDBRANCH   3   6
ENDBRANCH   1   2
BRANCH   1  17
ATOM     17  C   UNL     1      93.024  99.208  73.112  1.00  0.00     0.010 C 
BRANCH  17  18
ATOM     18  C   UNL     1      92.795  99.338  71.580  1.00  0.00     0.005 C 
BRANCH  18  19
ATOM     19  C   UNL     1      91.391  99.907  71.239  1.00  0.00     0.027 C 
BRANCH  19  20
ATOM     20  C   UNL     1      90.766  99.195  70.135  1.00  0.00    -0.031 C 
ATOM     21  C   UNL     1      90.198  99.795  69.073  1.00  0.00    -0.028 C 
BRANCH  21  22
ATOM     22  C   UNL     1      89.592  99.059  67.964  1.00  0.00     0.005 C 
ATOM     23  C   UNL     1      89.584  97.524  68.210  1.00  0.00     0.012 C 
ATOM     24  C   UNL     1      88.158  99.583  67.692  1.00  0.00     0.012 C 
ENDBRANCH  21  22
ENDBRANCH  19  20
ENDBRANCH  18  19
ENDBRANCH  17  18
ENDBRANCH   1  17
TORSDOF 10
ENDMDL
