MODEL 1
REMARK VINA RESULT:    -6.612      0.000      0.000
REMARK INTER + INTRA:         -12.023
REMARK INTER:                 -10.670
REMARK INTRA:                  -1.353
REMARK UNBOUND:                -1.353
REMARK SMILES COc1cc(CNC(=O)CCCCCCC(C)C)ccc1O
REMARK SMILES IDX 11 1 10 2 8 3 7 4 9 6 6 7 5 8 3 9 21 10 4 11 20 12 19 13
REMARK SMILES IDX 2 14 1 15 22 16 12 18 13 19 14 20 15 21 16 22 17 23 18 24
REMARK H PARENT 7 5 22 17
REMARK Flexibility Score: inf
ROOT
ATOM      1  C   UNL     1      90.339  91.585  77.452  1.00  0.00     0.010 C 
ENDROOT
BRANCH   1   2
ATOM      2  C   UNL     1      89.590  92.929  77.235  1.00  0.00     0.100 C 
BRANCH   2   3
ATOM      3  C   UNL     1      90.357  93.900  76.423  1.00  0.00     0.220 C 
ATOM      4  N   UNL     1      91.561  93.551  75.885  1.00  0.00    -0.352 N 
ATOM      5  H   UNL     1      91.876  92.623  76.126  1.00  0.00     0.163 HD
ATOM      6  O   UNL     1      89.865  95.038  76.223  1.00  0.00    -0.275 OA
BRANCH   4   7
ATOM      7  C   UNL     1      92.361  94.383  75.039  1.00  0.00     0.151 C 
BRANCH   7   8
ATOM      8  C   UNL     1      93.666  94.759  75.650  1.00  0.00    -0.025 A 
ATOM      9  C   UNL     1      95.360  94.456  77.407  1.00  0.00     0.160 A 
ATOM     10  C   UNL     1      96.172  95.437  76.796  1.00  0.00     0.157 A 
ATOM     11  C   UNL     1      94.107  94.139  76.841  1.00  0.00     0.056 A 
ATOM     12  C   UNL     1      95.726  96.089  75.632  1.00  0.00     0.050 A 
ATOM     13  C   UNL     1      94.487  95.746  75.056  1.00  0.00     0.009 A 
BRANCH   9  14
ATOM     14  O   UNL     1      95.767  93.844  78.561  1.00  0.00    -0.493 OA
ATOM     15  C   UNL     1      95.228  94.442  79.755  1.00  0.00     0.278 C 
ENDBRANCH   9  14
BRANCH  10  16
ATOM     16  O   UNL     1      97.382  95.764  77.320  1.00  0.00    -0.504 OA
ATOM     17  H   UNL     1      98.078  95.423  76.753  1.00  0.00     0.293 HD
ENDBRANCH  10  16
ENDBRANCH   7   8
ENDBRANCH   4   7
ENDBRANCH   2   3
ENDBRANCH   1   2
BRANCH   1  18
ATOM     18  C   UNL     1      89.772  90.445  76.558  1.00  0.00     0.001 C 
BRANCH  18  19
ATOM     19  C   UNL     1      90.809  89.858  75.560  1.00  0.00     0.000 C 
BRANCH  19  20
ATOM     20  C   UNL     1      90.722  90.550  74.171  1.00  0.00     0.000 C 
BRANCH  20  21
ATOM     21  C   UNL     1      89.330  91.163  73.850  1.00  0.00     0.003 C 
BRANCH  21  22
ATOM     22  C   UNL     1      89.268  91.971  72.513  1.00  0.00    -0.017 C 
ATOM     23  C   UNL     1      90.266  91.384  71.476  1.00  0.00     0.007 C 
ATOM     24  C   UNL     1      89.507  93.499  72.695  1.00  0.00     0.007 C 
ENDBRANCH  21  22
ENDBRANCH  20  21
ENDBRANCH  19  20
ENDBRANCH  18  19
ENDBRANCH   1  18
TORSDOF 11
ENDMDL
MODEL 2
REMARK VINA RESULT:    -6.149      1.234      2.248
REMARK INTER + INTRA:         -11.276
REMARK INTER:                  -9.895
REMARK INTRA:                  -1.381
REMARK UNBOUND:                -1.353
REMARK SMILES COc1cc(CNC(=O)CCCCCCC(C)C)ccc1O
REMARK SMILES IDX 11 1 10 2 8 3 7 4 9 6 6 7 5 8 3 9 21 10 4 11 20 12 19 13
REMARK SMILES IDX 2 14 1 15 22 16 12 18 13 19 14 20 15 21 16 22 17 23 18 24
REMARK H PARENT 7 5 22 17
REMARK Flexibility Score: inf
ROOT
ATOM      1  C   UNL     1      90.620  90.569  77.031  1.00  0.00     0.010 C 
ENDROOT
BRANCH   1   2
ATOM      2  C   UNL     1      90.050  91.919  77.547  1.00  0.00     0.100 C 
BRANCH   2   3
ATOM      3  C   UNL     1      90.721  93.100  76.959  1.00  0.00     0.220 C 
ATOM      4  N   UNL     1      92.052  93.060  76.662  1.00  0.00    -0.352 N 
ATOM      5  H   UNL     1      92.514  92.199  76.916  1.00  0.00     0.163 HD
ATOM      6  O   UNL     1      90.035  94.124  76.719  1.00  0.00    -0.275 OA
BRANCH   4   7
ATOM      7  C   UNL     1      92.792  94.116  76.040  1.00  0.00     0.151 C 
BRANCH   7   8
ATOM      8  C   UNL     1      94.025  94.487  76.787  1.00  0.00    -0.025 A 
ATOM      9  C   UNL     1      96.292  95.440  76.816  1.00  0.00     0.160 A 
ATOM     10  C   UNL     1      96.362  95.237  78.211  1.00  0.00     0.157 A 
ATOM     11  C   UNL     1      95.134  95.047  76.113  1.00  0.00     0.056 A 
ATOM     12  C   UNL     1      95.280  94.645  78.888  1.00  0.00     0.050 A 
ATOM     13  C   UNL     1      94.115  94.282  78.184  1.00  0.00     0.009 A 
BRANCH   9  14
ATOM     14  O   UNL     1      97.354  95.979  76.142  1.00  0.00    -0.493 OA
ATOM     15  C   UNL     1      97.187  97.370  75.814  1.00  0.00     0.278 C 
ENDBRANCH   9  14
BRANCH  10  16
ATOM     16  O   UNL     1      97.466  95.605  78.914  1.00  0.00    -0.504 OA
ATOM     17  H   UNL     1      98.220  95.091  78.615  1.00  0.00     0.293 HD
ENDBRANCH  10  16
ENDBRANCH   7   8
ENDBRANCH   4   7
ENDBRANCH   2   3
ENDBRANCH   1   2
BRANCH   1  18
ATOM     18  C   UNL     1      89.522  89.677  76.383  1.00  0.00     0.001 C 
BRANCH  18  19
ATOM     19  C   UNL     1      88.630  90.429  75.356  1.00  0.00     0.000 C 
BRANCH  19  20
ATOM     20  C   UNL     1      88.690  89.765  73.952  1.00  0.00     0.000 C 
BRANCH  20  21
ATOM     21  C   UNL     1      89.447  90.601  72.883  1.00  0.00     0.003 C 
BRANCH  21  22
ATOM     22  C   UNL     1      90.222  91.835  73.452  1.00  0.00    -0.017 C 
ATOM     23  C   UNL     1      89.746  93.142  72.759  1.00  0.00     0.007 C 
ATOM     24  C   UNL     1      91.770  91.699  73.356  1.00  0.00     0.007 C 
ENDBRANCH  21  22
ENDBRANCH  20  21
ENDBRANCH  19  20
ENDBRANCH  18  19
ENDBRANCH   1  18
TORSDOF 11
ENDMDL
MODEL 3
REMARK VINA RESULT:    -6.050      3.022      6.833
REMARK INTER + INTRA:         -11.116
REMARK INTER:                 -10.252
REMARK INTRA:                  -0.864
REMARK UNBOUND:                -1.353
REMARK SMILES COc1cc(CNC(=O)CCCCCCC(C)C)ccc1O
REMARK SMILES IDX 11 1 10 2 8 3 7 4 9 6 6 7 5 8 3 9 21 10 4 11 20 12 19 13
REMARK SMILES IDX 2 14 1 15 22 16 12 18 13 19 14 20 15 21 16 22 17 23 18 24
REMARK H PARENT 7 5 22 17
REMARK Flexibility Score: inf
ROOT
ATOM      1  C   UNL     1      91.351  94.303  74.733  1.00  0.00     0.010 C 
ENDROOT
BRANCH   1   2
ATOM      2  C   UNL     1      90.532  93.782  73.519  1.00  0.00     0.100 C 
BRANCH   2   3
ATOM      3  C   UNL     1      90.483  92.305  73.437  1.00  0.00     0.220 C 
ATOM      4  N   UNL     1      89.303  91.644  73.611  1.00  0.00    -0.352 N 
ATOM      5  H   UNL     1      88.517  92.237  73.836  1.00  0.00     0.163 HD
ATOM      6  O   UNL     1      91.542  91.682  73.180  1.00  0.00    -0.275 OA
BRANCH   4   7
ATOM      7  C   UNL     1      89.124  90.228  73.497  1.00  0.00     0.151 C 
BRANCH   7   8
ATOM      8  C   UNL     1      89.658  89.474  74.664  1.00  0.00    -0.025 A 
ATOM      9  C   UNL     1      89.901  89.207  77.097  1.00  0.00     0.160 A 
ATOM     10  C   UNL     1      90.635  88.018  76.895  1.00  0.00     0.157 A 
ATOM     11  C   UNL     1      89.435  89.935  75.982  1.00  0.00     0.056 A 
ATOM     12  C   UNL     1      90.897  87.570  75.588  1.00  0.00     0.050 A 
ATOM     13  C   UNL     1      90.403  88.286  74.480  1.00  0.00     0.009 A 
BRANCH   9  14
ATOM     14  O   UNL     1      89.675  89.673  78.364  1.00  0.00    -0.493 OA
ATOM     15  C   UNL     1      90.214  90.985  78.604  1.00  0.00     0.278 C 
ENDBRANCH   9  14
BRANCH  10  16
ATOM     16  O   UNL     1      91.098  87.297  77.951  1.00  0.00    -0.504 OA
ATOM     17  H   UNL     1      92.025  87.091  77.815  1.00  0.00     0.293 HD
ENDBRANCH  10  16
ENDBRANCH   7   8
ENDBRANCH   4   7
ENDBRANCH   2   3
ENDBRANCH   1   2
BRANCH   1  18
ATOM     18  C   UNL     1      91.254  93.350  75.958  1.00  0.00     0.001 C 
BRANCH  18  19
ATOM     19  C   UNL     1      92.576  93.234  76.768  1.00  0.00     0.000 C 
BRANCH  19  20
ATOM     20  C   UNL     1      93.505  94.456  76.524  1.00  0.00     0.000 C 
BRANCH  20  21
ATOM     21  C   UNL     1      94.970  94.082  76.166  1.00  0.00     0.003 C 
BRANCH  21  22
ATOM     22  C   UNL     1      95.958  95.293  76.117  1.00  0.00    -0.017 C 
ATOM     23  C   UNL     1      96.356  95.612  74.649  1.00  0.00     0.007 C 
ATOM     24  C   UNL     1      97.228  95.099  76.996  1.00  0.00     0.007 C 
ENDBRANCH  21  22
ENDBRANCH  20  21
ENDBRANCH  19  20
ENDBRANCH  18  19
ENDBRANCH   1  18
TORSDOF 11
ENDMDL
MODEL 4
REMARK VINA RESULT:    -6.019      2.931      6.938
REMARK INTER + INTRA:         -11.066
REMARK INTER:                 -10.409
REMARK INTRA:                  -0.657
REMARK UNBOUND:                -1.353
REMARK SMILES COc1cc(CNC(=O)CCCCCCC(C)C)ccc1O
REMARK SMILES IDX 11 1 10 2 8 3 7 4 9 6 6 7 5 8 3 9 21 10 4 11 20 12 19 13
REMARK SMILES IDX 2 14 1 15 22 16 12 18 13 19 14 20 15 21 16 22 17 23 18 24
REMARK H PARENT 7 5 22 17
REMARK Flexibility Score: inf
ROOT
ATOM      1  C   UNL     1      91.871  92.352  73.673  1.00  0.00     0.010 C 
ENDROOT
BRANCH   1   2
ATOM      2  C   UNL     1      91.076  91.520  72.629  1.00  0.00     0.100 C 
BRANCH   2   3
ATOM      3  C   UNL     1      90.196  90.499  73.241  1.00  0.00     0.220 C 
ATOM      4  N   UNL     1      90.733  89.434  73.903  1.00  0.00    -0.352 N 
ATOM      5  H   UNL     1      91.742  89.395  73.890  1.00  0.00     0.163 HD
ATOM      6  O   UNL     1      88.953  90.650  73.159  1.00  0.00    -0.275 OA
BRANCH   4   7
ATOM      7  C   UNL     1      89.984  88.420  74.581  1.00  0.00     0.151 C 
BRANCH   7   8
ATOM      8  C   UNL     1      89.931  88.617  76.056  1.00  0.00    -0.025 A 
ATOM      9  C   UNL     1      89.924  90.118  78.004  1.00  0.00     0.160 A 
ATOM     10  C   UNL     1      89.787  89.006  78.863  1.00  0.00     0.157 A 
ATOM     11  C   UNL     1      90.014  89.914  76.611  1.00  0.00     0.056 A 
ATOM     12  C   UNL     1      89.742  87.707  78.325  1.00  0.00     0.050 A 
ATOM     13  C   UNL     1      89.803  87.513  76.931  1.00  0.00     0.009 A 
BRANCH   9  14
ATOM     14  O   UNL     1      90.008  91.383  78.520  1.00  0.00    -0.493 OA
ATOM     15  C   UNL     1      91.058  92.177  77.939  1.00  0.00     0.278 C 
ENDBRANCH   9  14
BRANCH  10  16
ATOM     16  O   UNL     1      89.699  89.171  80.209  1.00  0.00    -0.504 OA
ATOM     17  H   UNL     1      88.961  88.659  80.547  1.00  0.00     0.293 HD
ENDBRANCH  10  16
ENDBRANCH   7   8
ENDBRANCH   4   7
ENDBRANCH   2   3
ENDBRANCH   1   2
BRANCH   1  18
ATOM     18  C   UNL     1      91.119  93.650  74.085  1.00  0.00     0.001 C 
BRANCH  18  19
ATOM     19  C   UNL     1      91.606  94.255  75.432  1.00  0.00     0.000 C 
BRANCH  19  20
ATOM     20  C   UNL     1      93.145  94.474  75.437  1.00  0.00     0.000 C 
BRANCH  20  21
ATOM     21  C   UNL     1      93.839  94.080  76.770  1.00  0.00     0.003 C 
BRANCH  21  22
ATOM     22  C   UNL     1      95.301  94.615  76.925  1.00  0.00    -0.017 C 
ATOM     23  C   UNL     1      96.299  93.695  76.167  1.00  0.00     0.007 C 
ATOM     24  C   UNL     1      95.746  94.799  78.406  1.00  0.00     0.007 C 
ENDBRANCH  21  22
ENDBRANCH  20  21
ENDBRANCH  19  20
ENDBRANCH  18  19
ENDBRANCH   1  18
TORSDOF 11
ENDMDL
MODEL 5
REMARK VINA RESULT:    -5.797      1.400      2.864
REMARK INTER + INTRA:         -10.709
REMARK INTER:                  -9.710
REMARK INTRA:                  -0.999
REMARK UNBOUND:                -1.353
REMARK SMILES COc1cc(CNC(=O)CCCCCCC(C)C)ccc1O
REMARK SMILES IDX 11 1 10 2 8 3 7 4 9 6 6 7 5 8 3 9 21 10 4 11 20 12 19 13
REMARK SMILES IDX 2 14 1 15 22 16 12 18 13 19 14 20 15 21 16 22 17 23 18 24
REMARK H PARENT 7 5 22 17
REMARK Flexibility Score: inf
ROOT
ATOM      1  C   UNL     1      90.226  92.251  72.970  1.00  0.00     0.010 C 
ENDROOT
BRANCH   1   2
ATOM      2  C   UNL     1      90.507  93.622  73.643  1.00  0.00     0.100 C 
BRANCH   2   3
ATOM      3  C   UNL     1      90.855  93.510  75.077  1.00  0.00     0.220 C 
ATOM      4  N   UNL     1      92.161  93.523  75.472  1.00  0.00    -0.352 N 
ATOM      5  H   UNL     1      92.829  93.569  74.717  1.00  0.00     0.163 HD
ATOM      6  O   UNL     1      89.926  93.427  75.917  1.00  0.00    -0.275 OA
BRANCH   4   7
ATOM      7  C   UNL     1      92.614  93.479  76.830  1.00  0.00     0.151 C 
BRANCH   7   8
ATOM      8  C   UNL     1      93.971  94.063  77.015  1.00  0.00    -0.025 A 
ATOM      9  C   UNL     1      95.805  94.761  78.498  1.00  0.00     0.160 A 
ATOM     10  C   UNL     1      96.574  95.134  77.374  1.00  0.00     0.157 A 
ATOM     11  C   UNL     1      94.504  94.247  78.311  1.00  0.00     0.056 A 
ATOM     12  C   UNL     1      96.039  94.992  76.081  1.00  0.00     0.050 A 
ATOM     13  C   UNL     1      94.751  94.451  75.900  1.00  0.00     0.009 A 
BRANCH   9  14
ATOM     14  O   UNL     1      96.300  94.932  79.762  1.00  0.00    -0.493 OA
ATOM     15  C   UNL     1      95.339  95.457  80.695  1.00  0.00     0.278 C 
ENDBRANCH   9  14
BRANCH  10  16
ATOM     16  O   UNL     1      97.829  95.634  77.524  1.00  0.00    -0.504 OA
ATOM     17  H   UNL     1      98.140  95.973  76.682  1.00  0.00     0.293 HD
ENDBRANCH  10  16
ENDBRANCH   7   8
ENDBRANCH   4   7
ENDBRANCH   2   3
ENDBRANCH   1   2
BRANCH   1  18
ATOM     18  C   UNL     1      88.792  92.173  72.373  1.00  0.00     0.001 C 
BRANCH  18  19
ATOM     19  C   UNL     1      88.136  90.769  72.498  1.00  0.00     0.000 C 
BRANCH  19  20
ATOM     20  C   UNL     1      89.107  89.740  73.142  1.00  0.00     0.000 C 
BRANCH  20  21
ATOM     21  C   UNL     1      88.910  89.548  74.672  1.00  0.00     0.003 C 
BRANCH  21  22
ATOM     22  C   UNL     1      90.196  89.103  75.443  1.00  0.00    -0.017 C 
ATOM     23  C   UNL     1      90.474  90.060  76.635  1.00  0.00     0.007 C 
ATOM     24  C   UNL     1      91.457  88.979  74.537  1.00  0.00     0.007 C 
ENDBRANCH  21  22
ENDBRANCH  20  21
ENDBRANCH  19  20
ENDBRANCH  18  19
ENDBRANCH   1  18
TORSDOF 11
ENDMDL
MODEL 6
REMARK VINA RESULT:    -5.735     14.225     16.245
REMARK INTER + INTRA:         -10.609
REMARK INTER:                  -8.994
REMARK INTRA:                  -1.614
REMARK UNBOUND:                -1.353
REMARK SMILES COc1cc(CNC(=O)CCCCCCC(C)C)ccc1O
REMARK SMILES IDX 11 1 10 2 8 3 7 4 9 6 6 7 5 8 3 9 21 10 4 11 20 12 19 13
REMARK SMILES IDX 2 14 1 15 22 16 12 18 13 19 14 20 15 21 16 22 17 23 18 24
REMARK H PARENT 7 5 22 17
REMARK Flexibility Score: inf
ROOT
ATOM      1  C   UNL     1      81.938  85.915  87.465  1.00  0.00     0.010 C 
ENDROOT
BRANCH   1   2
ATOM      2  C   UNL     1      80.613  86.599  87.903  1.00  0.00     0.100 C 
BRANCH   2   3
ATOM      3  C   UNL     1      80.820  87.743  88.819  1.00  0.00     0.220 C 
ATOM      4  N   UNL     1      80.379  88.988  88.478  1.00  0.00    -0.352 N 
ATOM      5  H   UNL     1      79.959  89.049  87.562  1.00  0.00     0.163 HD
ATOM      6  O   UNL     1      81.386  87.536  89.921  1.00  0.00    -0.275 OA
BRANCH   4   7
ATOM      7  C   UNL     1      80.471  90.152  89.305  1.00  0.00     0.151 C 
BRANCH   7   8
ATOM      8  C   UNL     1      81.459  91.148  88.807  1.00  0.00    -0.025 A 
ATOM      9  C   UNL     1      83.379  91.712  87.377  1.00  0.00     0.160 A 
ATOM     10  C   UNL     1      83.319  93.051  87.821  1.00  0.00     0.157 A 
ATOM     11  C   UNL     1      82.462  90.769  87.886  1.00  0.00     0.056 A 
ATOM     12  C   UNL     1      82.351  93.433  88.766  1.00  0.00     0.050 A 
ATOM     13  C   UNL     1      81.420  92.492  89.249  1.00  0.00     0.009 A 
BRANCH   9  14
ATOM     14  O   UNL     1      84.342  91.322  86.487  1.00  0.00    -0.493 OA
ATOM     15  C   UNL     1      84.747  89.949  86.636  1.00  0.00     0.278 C 
ENDBRANCH   9  14
BRANCH  10  16
ATOM     16  O   UNL     1      84.191  93.981  87.348  1.00  0.00    -0.504 OA
ATOM     17  H   UNL     1      84.741  94.298  88.068  1.00  0.00     0.293 HD
ENDBRANCH  10  16
ENDBRANCH   7   8
ENDBRANCH   4   7
ENDBRANCH   2   3
ENDBRANCH   1   2
BRANCH   1  18
ATOM     18  C   UNL     1      82.023  85.733  85.923  1.00  0.00     0.001 C 
BRANCH  18  19
ATOM     19  C   UNL     1      80.646  85.814  85.206  1.00  0.00     0.000 C 
BRANCH  19  20
ATOM     20  C   UNL     1      80.707  86.734  83.953  1.00  0.00     0.000 C 
BRANCH  20  21
ATOM     21  C   UNL     1      79.802  87.993  84.043  1.00  0.00     0.003 C 
BRANCH  21  22
ATOM     22  C   UNL     1      80.373  89.143  84.936  1.00  0.00    -0.017 C 
ATOM     23  C   UNL     1      79.300  90.247  85.153  1.00  0.00     0.007 C 
ATOM     24  C   UNL     1      81.691  89.764  84.387  1.00  0.00     0.007 C 
ENDBRANCH  21  22
ENDBRANCH  20  21
ENDBRANCH  19  20
ENDBRANCH  18  19
ENDBRANCH   1  18
TORSDOF 11
ENDMDL
MODEL 7
REMARK VINA RESULT:    -5.658     13.967     16.619
REMARK INTER + INTRA:         -10.484
REMARK INTER:                  -8.883
REMARK INTRA:                  -1.601
REMARK UNBOUND:                -1.353
REMARK SMILES COc1cc(CNC(=O)CCCCCCC(C)C)ccc1O
REMARK SMILES IDX 11 1 10 2 8 3 7 4 9 6 6 7 5 8 3 9 21 10 4 11 20 12 19 13
REMARK SMILES IDX 2 14 1 15 22 16 12 18 13 19 14 20 15 21 16 22 17 23 18 24
REMARK H PARENT 7 5 22 17
REMARK Flexibility Score: inf
ROOT
ATOM      1  C   UNL     1      80.027  86.803  84.653  1.00  0.00     0.010 C 
ENDROOT
BRANCH   1   2
ATOM      2  C   UNL     1      80.830  85.902  85.631  1.00  0.00     0.100 C 
BRANCH   2   3
ATOM      3  C   UNL     1      80.843  86.412  87.020  1.00  0.00     0.220 C 
ATOM      4  N   UNL     1      80.112  87.515  87.356  1.00  0.00    -0.352 N 
ATOM      5  H   UNL     1      79.625  87.948  86.585  1.00  0.00     0.163 HD
ATOM      6  O   UNL     1      81.518  85.797  87.881  1.00  0.00    -0.275 OA
BRANCH   4   7
ATOM      7  C   UNL     1      80.002  88.063  88.674  1.00  0.00     0.151 C 
BRANCH   7   8
ATOM      8  C   UNL     1      81.143  88.947  89.039  1.00  0.00    -0.025 A 
ATOM      9  C   UNL     1      83.126  89.404  90.420  1.00  0.00     0.160 A 
ATOM     10  C   UNL     1      83.347  90.605  89.711  1.00  0.00     0.157 A 
ATOM     11  C   UNL     1      82.018  88.595  90.092  1.00  0.00     0.056 A 
ATOM     12  C   UNL     1      82.461  90.985  88.686  1.00  0.00     0.050 A 
ATOM     13  C   UNL     1      81.373  90.158  88.344  1.00  0.00     0.009 A 
BRANCH   9  14
ATOM     14  O   UNL     1      83.959  89.044  91.445  1.00  0.00    -0.493 OA
ATOM     15  C   UNL     1      83.313  88.272  92.473  1.00  0.00     0.278 C 
ENDBRANCH   9  14
BRANCH  10  16
ATOM     16  O   UNL     1      84.405  91.404  90.006  1.00  0.00    -0.504 OA
ATOM     17  H   UNL     1      84.561  92.010  89.278  1.00  0.00     0.293 HD
ENDBRANCH  10  16
ENDBRANCH   7   8
ENDBRANCH   4   7
ENDBRANCH   2   3
ENDBRANCH   1   2
BRANCH   1  18
ATOM     18  C   UNL     1      80.953  87.739  83.824  1.00  0.00     0.001 C 
BRANCH  18  19
ATOM     19  C   UNL     1      80.999  89.201  84.351  1.00  0.00     0.000 C 
BRANCH  19  20
ATOM     20  C   UNL     1      82.309  89.485  85.139  1.00  0.00     0.000 C 
BRANCH  20  21
ATOM     21  C   UNL     1      83.309  90.415  84.398  1.00  0.00     0.003 C 
BRANCH  21  22
ATOM     22  C   UNL     1      84.674  90.619  85.134  1.00  0.00    -0.017 C 
ATOM     23  C   UNL     1      84.892  89.504  86.195  1.00  0.00     0.007 C 
ATOM     24  C   UNL     1      84.831  92.026  85.782  1.00  0.00     0.007 C 
ENDBRANCH  21  22
ENDBRANCH  20  21
ENDBRANCH  19  20
ENDBRANCH  18  19
ENDBRANCH   1  18
TORSDOF 11
ENDMDL
MODEL 8
REMARK VINA RESULT:    -5.490     26.117     28.639
REMARK INTER + INTRA:         -10.213
REMARK INTER:                  -7.961
REMARK INTRA:                  -2.252
REMARK UNBOUND:                -1.353
REMARK SMILES COc1cc(CNC(=O)CCCCCCC(C)C)ccc1O
REMARK SMILES IDX 11 1 10 2 8 3 7 4 9 6 6 7 5 8 3 9 21 10 4 11 20 12 19 13
REMARK SMILES IDX 2 14 1 15 22 16 12 18 13 19 14 20 15 21 16 22 17 23 18 24
REMARK H PARENT 7 5 22 17
REMARK Flexibility Score: inf
ROOT
ATOM      1  C   UNL     1      80.191  65.105  73.185  1.00  0.00     0.010 C 
ENDROOT
BRANCH   1   2
ATOM      2  C   UNL     1      80.196  66.277  74.205  1.00  0.00     0.100 C 
BRANCH   2   3
ATOM      3  C   UNL     1      81.150  66.078  75.319  1.00  0.00     0.220 C 
ATOM      4  N   UNL     1      81.827  64.900  75.445  1.00  0.00    -0.352 N 
ATOM      5  H   UNL     1      81.584  64.200  74.760  1.00  0.00     0.163 HD
ATOM      6  O   UNL     1      81.338  67.022  76.125  1.00  0.00    -0.275 OA
BRANCH   4   7
ATOM      7  C   UNL     1      82.812  64.616  76.444  1.00  0.00     0.151 C 
BRANCH   7   8
ATOM      8  C   UNL     1      84.183  65.048  76.054  1.00  0.00    -0.025 A 
ATOM      9  C   UNL     1      85.983  66.723  76.105  1.00  0.00     0.160 A 
ATOM     10  C   UNL     1      86.810  65.859  75.354  1.00  0.00     0.157 A 
ATOM     11  C   UNL     1      84.672  66.319  76.433  1.00  0.00     0.056 A 
ATOM     12  C   UNL     1      86.322  64.608  74.938  1.00  0.00     0.050 A 
ATOM     13  C   UNL     1      85.022  64.199  75.294  1.00  0.00     0.009 A 
BRANCH   9  14
ATOM     14  O   UNL     1      86.435  67.959  76.481  1.00  0.00    -0.493 OA
ATOM     15  C   UNL     1      85.388  68.863  76.878  1.00  0.00     0.278 C 
ENDBRANCH   9  14
BRANCH  10  16
ATOM     16  O   UNL     1      88.077  66.223  75.023  1.00  0.00    -0.504 OA
ATOM     17  H   UNL     1      88.055  67.050  74.536  1.00  0.00     0.293 HD
ENDBRANCH  10  16
ENDBRANCH   7   8
ENDBRANCH   4   7
ENDBRANCH   2   3
ENDBRANCH   1   2
BRANCH   1  18
ATOM     18  C   UNL     1      80.300  65.605  71.716  1.00  0.00     0.001 C 
BRANCH  18  19
ATOM     19  C   UNL     1      80.347  67.153  71.583  1.00  0.00     0.000 C 
BRANCH  19  20
ATOM     20  C   UNL     1      81.770  67.652  71.207  1.00  0.00     0.000 C 
BRANCH  20  21
ATOM     21  C   UNL     1      82.467  68.487  72.318  1.00  0.00     0.003 C 
BRANCH  21  22
ATOM     22  C   UNL     1      83.589  67.725  73.096  1.00  0.00    -0.017 C 
ATOM     23  C   UNL     1      84.898  68.564  73.123  1.00  0.00     0.007 C 
ATOM     24  C   UNL     1      83.869  66.295  72.549  1.00  0.00     0.007 C 
ENDBRANCH  21  22
ENDBRANCH  20  21
ENDBRANCH  19  20
ENDBRANCH  18  19
ENDBRANCH   1  18
TORSDOF 11
ENDMDL
MODEL 9
REMARK VINA RESULT:    -5.462      2.693      7.401
REMARK INTER + INTRA:         -10.168
REMARK INTER:                  -9.131
REMARK INTRA:                  -1.038
REMARK UNBOUND:                -1.353
REMARK SMILES COc1cc(CNC(=O)CCCCCCC(C)C)ccc1O
REMARK SMILES IDX 11 1 10 2 8 3 7 4 9 6 6 7 5 8 3 9 21 10 4 11 20 12 19 13
REMARK SMILES IDX 2 14 1 15 22 16 12 18 13 19 14 20 15 21 16 22 17 23 18 24
REMARK H PARENT 7 5 22 17
REMARK Flexibility Score: inf
ROOT
ATOM      1  C   UNL     1      95.060  93.983  75.576  1.00  0.00     0.010 C 
ENDROOT
BRANCH   1   2
ATOM      2  C   UNL     1      93.949  94.720  76.374  1.00  0.00     0.100 C 
BRANCH   2   3
ATOM      3  C   UNL     1      92.597  94.538  75.799  1.00  0.00     0.220 C 
ATOM      4  N   UNL     1      92.427  93.820  74.651  1.00  0.00    -0.352 N 
ATOM      5  H   UNL     1      93.283  93.484  74.234  1.00  0.00     0.163 HD
ATOM      6  O   UNL     1      91.615  95.035  76.402  1.00  0.00    -0.275 OA
BRANCH   4   7
ATOM      7  C   UNL     1      91.167  93.529  74.037  1.00  0.00     0.151 C 
BRANCH   7   8
ATOM      8  C   UNL     1      90.764  92.102  74.171  1.00  0.00    -0.025 A 
ATOM      9  C   UNL     1      89.051  90.348  73.990  1.00  0.00     0.160 A 
ATOM     10  C   UNL     1      90.000  89.378  74.380  1.00  0.00     0.157 A 
ATOM     11  C   UNL     1      89.435  91.703  73.906  1.00  0.00     0.056 A 
ATOM     12  C   UNL     1      91.316  89.769  74.683  1.00  0.00     0.050 A 
ATOM     13  C   UNL     1      91.700  91.119  74.570  1.00  0.00     0.009 A 
BRANCH   9  14
ATOM     14  O   UNL     1      87.757  89.984  73.731  1.00  0.00    -0.493 OA
ATOM     15  C   UNL     1      87.229  90.546  72.516  1.00  0.00     0.278 C 
ENDBRANCH   9  14
BRANCH  10  16
ATOM     16  O   UNL     1      89.657  88.066  74.470  1.00  0.00    -0.504 OA
ATOM     17  H   UNL     1      89.653  87.800  75.393  1.00  0.00     0.293 HD
ENDBRANCH  10  16
ENDBRANCH   7   8
ENDBRANCH   4   7
ENDBRANCH   2   3
ENDBRANCH   1   2
BRANCH   1  18
ATOM     18  C   UNL     1      96.486  94.377  76.055  1.00  0.00     0.001 C 
BRANCH  18  19
ATOM     19  C   UNL     1      96.905  95.819  75.655  1.00  0.00     0.000 C 
BRANCH  19  20
ATOM     20  C   UNL     1      96.658  96.089  74.144  1.00  0.00     0.000 C 
BRANCH  20  21
ATOM     21  C   UNL     1      96.691  97.592  73.751  1.00  0.00     0.003 C 
BRANCH  21  22
ATOM     22  C   UNL     1      95.334  98.153  73.214  1.00  0.00    -0.017 C 
ATOM     23  C   UNL     1      94.140  97.373  73.832  1.00  0.00     0.007 C 
ATOM     24  C   UNL     1      95.233  98.164  71.660  1.00  0.00     0.007 C 
ENDBRANCH  21  22
ENDBRANCH  20  21
ENDBRANCH  19  20
ENDBRANCH  18  19
ENDBRANCH   1  18
TORSDOF 11
ENDMDL
MODEL 10
REMARK VINA RESULT:    -5.415      1.904      3.425
REMARK INTER + INTRA:         -10.092
REMARK INTER:                  -9.016
REMARK INTRA:                  -1.075
REMARK UNBOUND:                -1.353
REMARK SMILES COc1cc(CNC(=O)CCCCCCC(C)C)ccc1O
REMARK SMILES IDX 11 1 10 2 8 3 7 4 9 6 6 7 5 8 3 9 21 10 4 11 20 12 19 13
REMARK SMILES IDX 2 14 1 15 22 16 12 18 13 19 14 20 15 21 16 22 17 23 18 24
REMARK H PARENT 7 5 22 17
REMARK Flexibility Score: inf
ROOT
ATOM      1  C   UNL     1      90.478  93.519  74.222  1.00  0.00     0.010 C 
ENDROOT
BRANCH   1   2
ATOM      2  C   UNL     1      90.054  92.919  75.591  1.00  0.00     0.100 C 
BRANCH   2   3
ATOM      3  C   UNL     1      91.156  92.876  76.577  1.00  0.00     0.220 C 
ATOM      4  N   UNL     1      92.374  93.411  76.274  1.00  0.00    -0.352 N 
ATOM      5  H   UNL     1      92.451  93.778  75.336  1.00  0.00     0.163 HD
ATOM      6  O   UNL     1      90.938  92.361  77.701  1.00  0.00    -0.275 OA
BRANCH   4   7
ATOM      7  C   UNL     1      93.492  93.479  77.165  1.00  0.00     0.151 C 
BRANCH   7   8
ATOM      8  C   UNL     1      94.640  94.247  76.609  1.00  0.00    -0.025 A 
ATOM      9  C   UNL     1      95.498  96.130  75.280  1.00  0.00     0.160 A 
ATOM     10  C   UNL     1      96.822  95.743  75.582  1.00  0.00     0.157 A 
ATOM     11  C   UNL     1      94.420  95.370  75.780  1.00  0.00     0.056 A 
ATOM     12  C   UNL     1      97.055  94.604  76.375  1.00  0.00     0.050 A 
ATOM     13  C   UNL     1      95.973  93.867  76.894  1.00  0.00     0.009 A 
BRANCH   9  14
ATOM     14  O   UNL     1      95.261  97.213  74.478  1.00  0.00    -0.493 OA
ATOM     15  C   UNL     1      94.057  97.103  73.697  1.00  0.00     0.278 C 
ENDBRANCH   9  14
BRANCH  10  16
ATOM     16  O   UNL     1      97.880  96.455  75.114  1.00  0.00    -0.504 OA
ATOM     17  H   UNL     1      98.232  97.004  75.818  1.00  0.00     0.293 HD
ENDBRANCH  10  16
ENDBRANCH   7   8
ENDBRANCH   4   7
ENDBRANCH   2   3
ENDBRANCH   1   2
BRANCH   1  18
ATOM     18  C   UNL     1      90.223  92.535  73.045  1.00  0.00     0.001 C 
BRANCH  18  19
ATOM     19  C   UNL     1      90.444  91.042  73.418  1.00  0.00     0.000 C 
BRANCH  19  20
ATOM     20  C   UNL     1      89.112  90.240  73.379  1.00  0.00     0.000 C 
BRANCH  20  21
ATOM     21  C   UNL     1      89.077  89.019  74.340  1.00  0.00     0.003 C 
BRANCH  21  22
ATOM     22  C   UNL     1      90.398  88.783  75.142  1.00  0.00    -0.017 C 
ATOM     23  C   UNL     1      91.059  87.441  74.720  1.00  0.00     0.007 C 
ATOM     24  C   UNL     1      90.208  88.835  76.687  1.00  0.00     0.007 C 
ENDBRANCH  21  22
ENDBRANCH  20  21
ENDBRANCH  19  20
ENDBRANCH  18  19
ENDBRANCH   1  18
TORSDOF 11
ENDMDL
