MODEL 1
REMARK VINA RESULT:    -7.271      0.000      0.000
REMARK INTER + INTRA:         -13.557
REMARK INTER:                 -12.796
REMARK INTRA:                  -0.761
REMARK UNBOUND:                -0.761
REMARK SMILES C=C(C)[C@]12C[C@@H](C)[C@@]34O[C@](Cc5ccccc5)(O[C@@H]1[C@@H]3C=C(COC(=O)Cc1ccc(O)c(OC)c1)C[C@]1(O)C(=O)C(C)=C[C@@H]41)O2
REMARK SMILES IDX 23 1 22 2 21 3 20 4 9 5 8 6 10 7 6 8 18 9 46 10 19 11 5 12
REMARK SMILES IDX 7 13 4 14 45 15 38 16 44 17 40 18 42 20 41 21 43 22 39 23
REMARK SMILES IDX 11 25 12 26 13 27 17 28 14 29 16 30 15 31 2 32 3 33 1 34
REMARK SMILES IDX 37 35 24 37 25 38 26 39 27 40 28 41 36 42 29 43 33 44 30 45
REMARK SMILES IDX 31 46 34 47 35 48 32 49
REMARK H PARENT 39 24 32 50
REMARK Flexibility Score: 90.00
ROOT
ATOM      1  C   UNL     1      93.285  86.751  87.985  1.00  0.00     0.264 C 
ENDROOT
BRANCH   1   2
ATOM      2  C   UNL     1      93.592  85.273  88.048  1.00  0.00    -0.033 C 
ATOM      3  C   UNL     1      93.195  84.473  87.038  1.00  0.00    -0.015 C 
BRANCH   3   4
ATOM      4  C   UNL     1      93.312  82.964  86.900  1.00  0.00     0.078 C 
ATOM      5  O   UNL     1      95.431  82.512  85.706  1.00  0.00    -0.319 OA
ATOM      6  C   UNL     1      94.743  82.313  86.980  1.00  0.00     0.095 C 
ATOM      7  C   UNL     1      94.626  82.299  84.531  1.00  0.00     0.289 C 
ATOM      8  C   UNL     1      94.551  80.761  87.235  1.00  0.00     0.023 C 
ATOM      9  O   UNL     1      93.479  83.145  84.530  1.00  0.00    -0.320 OA
ATOM     10  O   UNL     1      94.123  80.968  84.454  1.00  0.00    -0.313 OA
ATOM     11  C   UNL     1      92.697  82.510  85.553  1.00  0.00     0.170 C 
ATOM     12  C   UNL     1      93.260  80.224  86.543  1.00  0.00     0.049 C 
ATOM     13  C   UNL     1      95.745  79.875  86.846  1.00  0.00     0.011 C 
ATOM     14  C   UNL     1      92.934  81.006  85.270  1.00  0.00     0.122 C 
BRANCH   6  15
ATOM     15  C   UNL     1      95.630  83.057  88.021  1.00  0.00     0.086 C 
ATOM     16  C   UNL     1      94.942  83.446  89.346  1.00  0.00     0.140 CG0
ATOM     17  C   UNL     1      96.922  82.432  88.468  1.00  0.00    -0.010 C 
ATOM     18  C   UNL     1      96.065  83.302  90.351  1.00  0.00     0.190 C 
ATOM     19  G   UNL     1      94.370  84.862  89.305  1.00  0.00     0.000 G0
ATOM     20  C   UNL     1      97.208  82.576  89.766  1.00  0.00    -0.008 C 
ATOM     21  O   UNL     1      96.031  83.684  91.511  1.00  0.00    -0.291 OA
ATOM     22  C   UNL     1      98.409  82.172  90.525  1.00  0.00     0.048 C 
BRANCH  16  23
ATOM     23  O   UNL     1      93.973  82.509  89.786  1.00  0.00    -0.381 OA
ATOM     24  H   UNL     1      93.957  82.516  90.757  1.00  0.00     0.212 HD
ENDBRANCH  16  23
ENDBRANCH   6  15
BRANCH   7  25
ATOM     25  C   UNL     1      95.478  82.590  83.312  1.00  0.00     0.135 C 
BRANCH  25  26
ATOM     26  C   UNL     1      96.603  81.597  83.159  1.00  0.00    -0.040 A 
ATOM     27  C   UNL     1      96.697  80.822  82.003  1.00  0.00     0.004 A 
ATOM     28  C   UNL     1      97.551  81.455  84.172  1.00  0.00     0.004 A 
ATOM     29  C   UNL     1      97.738  79.903  81.861  1.00  0.00     0.000 A 
ATOM     30  C   UNL     1      98.592  80.537  84.031  1.00  0.00     0.000 A 
ATOM     31  C   UNL     1      98.685  79.761  82.875  1.00  0.00     0.000 A 
ENDBRANCH  25  26
ENDBRANCH   7  25
BRANCH  14  32
ATOM     32  C   UNL     1      91.811  80.397  84.494  1.00  0.00    -0.046 C 
ATOM     33  C   UNL     1      91.835  78.904  84.355  1.00  0.00     0.042 C 
ATOM     34  C   UNL     1      90.837  81.143  83.952  1.00  0.00     0.010 C 
ENDBRANCH  14  32
ENDBRANCH   3   4
BRANCH   2  35
ATOM     35  C   UNL     1      94.351  84.877  89.301  1.00  0.00     0.078 CG0
ATOM     36  G   UNL     1      94.962  83.477  89.333  1.00  0.00     0.000 G0
ENDBRANCH   2  35
ENDBRANCH   1   2
BRANCH   1  37
ATOM     37  O   UNL     1      94.202  87.454  88.795  1.00  0.00    -0.461 OA
BRANCH  37  38
ATOM     38  C   UNL     1      94.484  88.746  88.415  1.00  0.00     0.310 C 
ATOM     39  O   UNL     1      95.602  89.178  88.172  1.00  0.00    -0.252 OA
BRANCH  38  40
ATOM     40  C   UNL     1      93.203  89.543  88.346  1.00  0.00     0.158 C 
BRANCH  40  41
ATOM     41  C   UNL     1      93.004  90.441  89.539  1.00  0.00    -0.033 A 
ATOM     42  C   UNL     1      93.639  91.683  89.591  1.00  0.00     0.054 A 
ATOM     43  C   UNL     1      92.185  90.032  90.592  1.00  0.00     0.008 A 
ATOM     44  C   UNL     1      93.455  92.515  90.696  1.00  0.00     0.160 A 
ATOM     45  C   UNL     1      92.001  90.864  91.697  1.00  0.00     0.050 A 
ATOM     46  C   UNL     1      92.636  92.105  91.749  1.00  0.00     0.157 A 
BRANCH  44  47
ATOM     47  O   UNL     1      94.080  93.724  90.735  1.00  0.00    -0.493 OA
ATOM     48  C   UNL     1      93.931  94.568  89.594  1.00  0.00     0.278 C 
ENDBRANCH  44  47
BRANCH  46  49
ATOM     49  O   UNL     1      92.448  92.909  92.832  1.00  0.00    -0.504 OA
ATOM     50  H   UNL     1      92.406  93.834  92.536  1.00  0.00     0.293 HD
ENDBRANCH  46  49
ENDBRANCH  40  41
ENDBRANCH  38  40
ENDBRANCH  37  38
ENDBRANCH   1  37
TORSDOF 11
ENDMDL
MODEL 2
REMARK VINA RESULT:    -6.433      6.740     11.197
REMARK INTER + INTRA:         -12.083
REMARK INTER:                 -11.451
REMARK INTRA:                  -0.633
REMARK UNBOUND:                -0.761
REMARK SMILES C=C(C)[C@]12C[C@@H](C)[C@@]34O[C@](Cc5ccccc5)(O[C@@H]1[C@@H]3C=C(COC(=O)Cc1ccc(O)c(OC)c1)C[C@]1(O)C(=O)C(C)=C[C@@H]41)O2
REMARK SMILES IDX 23 1 22 2 21 3 20 4 9 5 8 6 10 7 6 8 18 9 46 10 19 11 5 12
REMARK SMILES IDX 7 13 4 14 45 15 38 16 44 17 40 18 42 20 41 21 43 22 39 23
REMARK SMILES IDX 11 25 12 26 13 27 17 28 14 29 16 30 15 31 2 32 3 33 1 34
REMARK SMILES IDX 37 35 24 37 25 38 26 39 27 40 28 41 36 42 29 43 33 44 30 45
REMARK SMILES IDX 31 46 34 47 35 48 32 49
REMARK H PARENT 39 24 32 50
REMARK Flexibility Score: 90.00
ROOT
ATOM      1  C   UNL     1      96.846  76.403  82.556  1.00  0.00     0.264 C 
ENDROOT
BRANCH   1   2
ATOM      2  C   UNL     1      97.163  76.935  81.178  1.00  0.00    -0.033 C 
ATOM      3  C   UNL     1      97.372  78.257  81.013  1.00  0.00    -0.015 C 
BRANCH   3   4
ATOM      4  C   UNL     1      97.627  79.041  79.737  1.00  0.00     0.078 C 
ATOM      5  O   UNL     1     100.080  79.154  79.438  1.00  0.00    -0.319 OA
ATOM      6  C   UNL     1      98.853  78.632  78.839  1.00  0.00     0.095 C 
ATOM      7  C   UNL     1      99.995  80.500  79.943  1.00  0.00     0.289 C 
ATOM      8  C   UNL     1      98.646  79.292  77.413  1.00  0.00     0.023 C 
ATOM      9  O   UNL     1      98.962  80.622  80.917  1.00  0.00    -0.320 OA
ATOM     10  O   UNL     1      99.676  81.442  78.922  1.00  0.00    -0.313 OA
ATOM     11  C   UNL     1      97.806  80.543  80.069  1.00  0.00     0.170 C 
ATOM     12  C   UNL     1      97.916  80.667  77.521  1.00  0.00     0.049 C 
ATOM     13  C   UNL     1      99.920  79.454  76.569  1.00  0.00     0.011 C 
ATOM     14  C   UNL     1      98.237  81.376  78.837  1.00  0.00     0.122 C 
BRANCH   6  15
ATOM     15  C   UNL     1      99.047  77.088  78.839  1.00  0.00     0.086 C 
ATOM     16  C   UNL     1      97.762  76.242  78.730  1.00  0.00     0.140 CG0
ATOM     17  C   UNL     1      99.965  76.461  77.828  1.00  0.00    -0.010 C 
ATOM     18  C   UNL     1      98.226  75.046  77.925  1.00  0.00     0.190 C 
ATOM     19  G   UNL     1      97.213  75.847  80.100  1.00  0.00     0.000 G0
ATOM     20  C   UNL     1      99.546  75.299  77.316  1.00  0.00    -0.008 C 
ATOM     21  O   UNL     1      97.586  74.021  77.747  1.00  0.00    -0.291 OA
ATOM     22  C   UNL     1     100.215  74.376  76.377  1.00  0.00     0.048 C 
BRANCH  16  23
ATOM     23  O   UNL     1      96.756  76.827  77.919  1.00  0.00    -0.381 OA
ATOM     24  H   UNL     1      95.923  76.353  78.074  1.00  0.00     0.212 HD
ENDBRANCH  16  23
ENDBRANCH   6  15
BRANCH   7  25
ATOM     25  C   UNL     1     101.330  80.860  80.564  1.00  0.00     0.135 C 
BRANCH  25  26
ATOM     26  C   UNL     1     102.438  80.893  79.542  1.00  0.00    -0.040 A 
ATOM     27  C   UNL     1     103.729  80.504  79.901  1.00  0.00     0.004 A 
ATOM     28  C   UNL     1     102.173  81.311  78.238  1.00  0.00     0.004 A 
ATOM     29  C   UNL     1     104.755  80.535  78.955  1.00  0.00     0.000 A 
ATOM     30  C   UNL     1     103.199  81.342  77.293  1.00  0.00     0.000 A 
ATOM     31  C   UNL     1     104.489  80.954  77.652  1.00  0.00     0.000 A 
ENDBRANCH  25  26
ENDBRANCH   7  25
BRANCH  14  32
ATOM     32  C   UNL     1      97.699  82.769  78.884  1.00  0.00    -0.046 C 
ATOM     33  C   UNL     1      97.298  83.278  80.237  1.00  0.00     0.042 C 
ATOM     34  C   UNL     1      97.581  83.522  77.780  1.00  0.00     0.010 C 
ENDBRANCH  14  32
ENDBRANCH   3   4
BRANCH   2  35
ATOM     35  C   UNL     1      97.212  75.850  80.119  1.00  0.00     0.078 CG0
ATOM     36  G   UNL     1      97.772  76.234  78.750  1.00  0.00     0.000 G0
ENDBRANCH   2  35
ENDBRANCH   1   2
BRANCH   1  37
ATOM     37  O   UNL     1      96.413  77.465  83.379  1.00  0.00    -0.461 OA
BRANCH  37  38
ATOM     38  C   UNL     1      95.119  77.391  83.837  1.00  0.00     0.310 C 
ATOM     39  O   UNL     1      94.207  76.800  83.275  1.00  0.00    -0.252 OA
BRANCH  38  40
ATOM     40  C   UNL     1      95.000  78.149  85.138  1.00  0.00     0.158 C 
BRANCH  40  41
ATOM     41  C   UNL     1      94.332  79.491  84.978  1.00  0.00    -0.033 A 
ATOM     42  C   UNL     1      94.987  80.519  84.299  1.00  0.00     0.054 A 
ATOM     43  C   UNL     1      93.060  79.705  85.508  1.00  0.00     0.008 A 
ATOM     44  C   UNL     1      94.369  81.761  84.150  1.00  0.00     0.160 A 
ATOM     45  C   UNL     1      92.442  80.946  85.360  1.00  0.00     0.050 A 
ATOM     46  C   UNL     1      93.096  81.974  84.681  1.00  0.00     0.157 A 
BRANCH  44  47
ATOM     47  O   UNL     1      95.018  82.756  83.485  1.00  0.00    -0.493 OA
ATOM     48  C   UNL     1      96.136  83.352  84.141  1.00  0.00     0.278 C 
ENDBRANCH  44  47
BRANCH  46  49
ATOM     49  O   UNL     1      92.482  83.182  84.542  1.00  0.00    -0.504 OA
ATOM     50  H   UNL     1      93.054  83.873  84.917  1.00  0.00     0.293 HD
ENDBRANCH  46  49
ENDBRANCH  40  41
ENDBRANCH  38  40
ENDBRANCH  37  38
ENDBRANCH   1  37
TORSDOF 11
ENDMDL
MODEL 3
REMARK VINA RESULT:    -6.432      6.685     10.607
REMARK INTER + INTRA:         -12.081
REMARK INTER:                 -11.167
REMARK INTRA:                  -0.914
REMARK UNBOUND:                -0.761
REMARK SMILES C=C(C)[C@]12C[C@@H](C)[C@@]34O[C@](Cc5ccccc5)(O[C@@H]1[C@@H]3C=C(COC(=O)Cc1ccc(O)c(OC)c1)C[C@]1(O)C(=O)C(C)=C[C@@H]41)O2
REMARK SMILES IDX 23 1 22 2 21 3 20 4 9 5 8 6 10 7 6 8 18 9 46 10 19 11 5 12
REMARK SMILES IDX 7 13 4 14 45 15 38 16 44 17 40 18 42 20 41 21 43 22 39 23
REMARK SMILES IDX 11 25 12 26 13 27 17 28 14 29 16 30 15 31 2 32 3 33 1 34
REMARK SMILES IDX 37 35 24 37 25 38 26 39 27 40 28 41 36 42 29 43 33 44 30 45
REMARK SMILES IDX 31 46 34 47 35 48 32 49
REMARK H PARENT 39 24 32 50
REMARK Flexibility Score: 90.00
ROOT
ATOM      1  C   UNL     1      96.790  77.042  83.561  1.00  0.00     0.264 C 
ENDROOT
BRANCH   1   2
ATOM      2  C   UNL     1      97.164  77.381  82.137  1.00  0.00    -0.033 C 
ATOM      3  C   UNL     1      97.258  78.675  81.769  1.00  0.00    -0.015 C 
BRANCH   3   4
ATOM      4  C   UNL     1      97.538  79.271  80.400  1.00  0.00     0.078 C 
ATOM      5  O   UNL     1      99.985  79.594  80.241  1.00  0.00    -0.319 OA
ATOM      6  C   UNL     1      98.865  78.858  79.660  1.00  0.00     0.095 C 
ATOM      7  C   UNL     1      99.735  80.986  80.512  1.00  0.00     0.289 C 
ATOM      8  C   UNL     1      98.709  79.259  78.135  1.00  0.00     0.023 C 
ATOM      9  O   UNL     1      98.620  81.150  81.385  1.00  0.00    -0.320 OA
ATOM     10  O   UNL     1      99.410  81.716  79.332  1.00  0.00    -0.313 OA
ATOM     11  C   UNL     1      97.548  80.817  80.491  1.00  0.00     0.170 C 
ATOM     12  C   UNL     1      97.847  80.549  77.969  1.00  0.00     0.049 C 
ATOM     13  C   UNL     1     100.025  79.420  77.358  1.00  0.00     0.011 C 
ATOM     14  C   UNL     1      97.995  81.486  79.168  1.00  0.00     0.122 C 
BRANCH   6  15
ATOM     15  C   UNL     1      99.202  77.362  79.927  1.00  0.00     0.086 C 
ATOM     16  C   UNL     1      98.014  76.379  79.884  1.00  0.00     0.140 CG0
ATOM     17  C   UNL     1     100.248  76.682  79.089  1.00  0.00    -0.010 C 
ATOM     18  C   UNL     1      98.647  75.127  79.316  1.00  0.00     0.190 C 
ATOM     19  G   UNL     1      97.404  76.151  81.266  1.00  0.00     0.000 G0
ATOM     20  C   UNL     1      99.979  75.417  78.752  1.00  0.00    -0.008 C 
ATOM     21  O   UNL     1      98.122  74.024  79.273  1.00  0.00    -0.291 OA
ATOM     22  C   UNL     1     100.800  74.432  78.019  1.00  0.00     0.048 C 
BRANCH  16  23
ATOM     23  O   UNL     1      97.021  76.719  78.930  1.00  0.00    -0.381 OA
ATOM     24  H   UNL     1      97.135  76.149  78.152  1.00  0.00     0.212 HD
ENDBRANCH  16  23
ENDBRANCH   6  15
BRANCH   7  25
ATOM     25  C   UNL     1     100.976  81.578  81.148  1.00  0.00     0.135 C 
BRANCH  25  26
ATOM     26  C   UNL     1     102.168  80.662  81.021  1.00  0.00    -0.040 A 
ATOM     27  C   UNL     1     102.943  80.684  79.861  1.00  0.00     0.004 A 
ATOM     28  C   UNL     1     102.496  79.794  82.062  1.00  0.00     0.004 A 
ATOM     29  C   UNL     1     104.046  79.837  79.743  1.00  0.00     0.000 A 
ATOM     30  C   UNL     1     103.598  78.947  81.944  1.00  0.00     0.000 A 
ATOM     31  C   UNL     1     104.373  78.969  80.784  1.00  0.00     0.000 A 
ENDBRANCH  25  26
ENDBRANCH   7  25
BRANCH  14  32
ATOM     32  C   UNL     1      97.326  82.805  78.952  1.00  0.00    -0.046 C 
ATOM     33  C   UNL     1      96.953  83.569  80.187  1.00  0.00     0.042 C 
ATOM     34  C   UNL     1      97.073  83.279  77.722  1.00  0.00     0.010 C 
ENDBRANCH  14  32
ENDBRANCH   3   4
BRANCH   2  35
ATOM     35  C   UNL     1      97.403  76.154  81.276  1.00  0.00     0.078 CG0
ATOM     36  G   UNL     1      97.981  76.381  79.880  1.00  0.00     0.000 G0
ENDBRANCH   2  35
ENDBRANCH   1   2
BRANCH   1  37
ATOM     37  O   UNL     1      96.326  78.205  84.211  1.00  0.00    -0.461 OA
BRANCH  37  38
ATOM     38  C   UNL     1      95.432  78.012  85.238  1.00  0.00     0.310 C 
ATOM     39  O   UNL     1      95.736  77.750  86.394  1.00  0.00    -0.252 OA
BRANCH  38  40
ATOM     40  C   UNL     1      94.023  78.174  84.719  1.00  0.00     0.158 C 
BRANCH  40  41
ATOM     41  C   UNL     1      93.561  79.609  84.709  1.00  0.00    -0.033 A 
ATOM     42  C   UNL     1      92.197  79.902  84.706  1.00  0.00     0.054 A 
ATOM     43  C   UNL     1      94.497  80.643  84.704  1.00  0.00     0.008 A 
ATOM     44  C   UNL     1      91.769  81.230  84.697  1.00  0.00     0.160 A 
ATOM     45  C   UNL     1      94.069  81.971  84.695  1.00  0.00     0.050 A 
ATOM     46  C   UNL     1      92.706  82.264  84.691  1.00  0.00     0.157 A 
BRANCH  44  47
ATOM     47  O   UNL     1      90.435  81.504  84.694  1.00  0.00    -0.493 OA
ATOM     48  C   UNL     1      89.608  80.686  83.867  1.00  0.00     0.278 C 
ENDBRANCH  44  47
BRANCH  46  49
ATOM     49  O   UNL     1      92.300  83.564  84.684  1.00  0.00    -0.504 OA
ATOM     50  H   UNL     1      92.655  84.002  83.892  1.00  0.00     0.293 HD
ENDBRANCH  46  49
ENDBRANCH  40  41
ENDBRANCH  38  40
ENDBRANCH  37  38
ENDBRANCH   1  37
TORSDOF 11
ENDMDL
MODEL 4
REMARK VINA RESULT:    -6.396      8.413     14.477
REMARK INTER + INTRA:         -12.018
REMARK INTER:                 -10.102
REMARK INTRA:                  -1.916
REMARK UNBOUND:                -0.761
REMARK SMILES C=C(C)[C@]12C[C@@H](C)[C@@]34O[C@](Cc5ccccc5)(O[C@@H]1[C@@H]3C=C(COC(=O)Cc1ccc(O)c(OC)c1)C[C@]1(O)C(=O)C(C)=C[C@@H]41)O2
REMARK SMILES IDX 23 1 22 2 21 3 20 4 9 5 8 6 10 7 6 8 18 9 46 10 19 11 5 12
REMARK SMILES IDX 7 13 4 14 45 15 38 16 44 17 40 18 42 20 41 21 43 22 39 23
REMARK SMILES IDX 11 25 12 26 13 27 17 28 14 29 16 30 15 31 2 32 3 33 1 34
REMARK SMILES IDX 37 35 24 37 25 38 26 39 27 40 28 41 36 42 29 43 33 44 30 45
REMARK SMILES IDX 31 46 34 47 35 48 32 49
REMARK H PARENT 39 24 32 50
REMARK Flexibility Score: 90.00
ROOT
ATOM      1  C   UNL     1      98.273  84.025  75.469  1.00  0.00     0.264 C 
ENDROOT
BRANCH   1   2
ATOM      2  C   UNL     1      99.343  83.125  74.895  1.00  0.00    -0.033 C 
ATOM      3  C   UNL     1     100.449  82.871  75.622  1.00  0.00    -0.015 C 
BRANCH   3   4
ATOM      4  C   UNL     1     101.688  82.073  75.246  1.00  0.00     0.078 C 
ATOM      5  O   UNL     1     101.309  79.751  76.011  1.00  0.00    -0.319 OA
ATOM      6  C   UNL     1     101.508  80.569  74.817  1.00  0.00     0.095 C 
ATOM      7  C   UNL     1     102.165  80.068  77.125  1.00  0.00     0.289 C 
ATOM      8  C   UNL     1     102.840  80.116  74.088  1.00  0.00     0.023 C 
ATOM      9  O   UNL     1     102.023  81.431  77.516  1.00  0.00    -0.320 OA
ATOM     10  O   UNL     1     103.545  79.900  76.811  1.00  0.00    -0.313 OA
ATOM     11  C   UNL     1     102.694  82.078  76.423  1.00  0.00     0.170 C 
ATOM     12  C   UNL     1     104.091  80.828  74.689  1.00  0.00     0.049 C 
ATOM     13  C   UNL     1     103.086  78.599  74.046  1.00  0.00     0.011 C 
ATOM     14  C   UNL     1     103.904  81.143  76.174  1.00  0.00     0.122 C 
BRANCH   6  15
ATOM     15  C   UNL     1     100.200  80.382  73.996  1.00  0.00     0.086 C 
ATOM     16  C   UNL     1      99.893  81.472  72.948  1.00  0.00     0.140 CG0
ATOM     17  C   UNL     1      99.980  79.101  73.242  1.00  0.00    -0.010 C 
ATOM     18  C   UNL     1      99.219  80.684  71.845  1.00  0.00     0.190 C 
ATOM     19  G   UNL     1      98.998  82.577  73.509  1.00  0.00     0.000 G0
ATOM     20  C   UNL     1      99.406  79.234  72.042  1.00  0.00    -0.008 C 
ATOM     21  O   UNL     1      98.638  81.165  70.884  1.00  0.00    -0.291 OA
ATOM     22  C   UNL     1      98.971  78.204  71.075  1.00  0.00     0.048 C 
BRANCH  16  23
ATOM     23  O   UNL     1     101.048  82.009  72.323  1.00  0.00    -0.381 OA
ATOM     24  H   UNL     1     100.773  82.741  71.747  1.00  0.00     0.212 HD
ENDBRANCH  16  23
ENDBRANCH   6  15
BRANCH   7  25
ATOM     25  C   UNL     1     101.796  79.162  78.282  1.00  0.00     0.135 C 
BRANCH  25  26
ATOM     26  C   UNL     1     102.108  79.793  79.616  1.00  0.00    -0.040 A 
ATOM     27  C   UNL     1     103.435  79.979  80.006  1.00  0.00     0.004 A 
ATOM     28  C   UNL     1     101.072  80.192  80.459  1.00  0.00     0.004 A 
ATOM     29  C   UNL     1     103.725  80.562  81.240  1.00  0.00     0.000 A 
ATOM     30  C   UNL     1     101.361  80.776  81.693  1.00  0.00     0.000 A 
ATOM     31  C   UNL     1     102.688  80.961  82.083  1.00  0.00     0.000 A 
ENDBRANCH  25  26
ENDBRANCH   7  25
BRANCH  14  32
ATOM     32  C   UNL     1     105.152  81.658  76.813  1.00  0.00    -0.046 C 
ATOM     33  C   UNL     1     105.914  82.693  76.041  1.00  0.00     0.042 C 
ATOM     34  C   UNL     1     105.568  81.219  78.011  1.00  0.00     0.010 C 
ENDBRANCH  14  32
ENDBRANCH   3   4
BRANCH   2  35
ATOM     35  C   UNL     1      99.001  82.602  73.513  1.00  0.00     0.078 CG0
ATOM     36  G   UNL     1      99.877  81.482  72.954  1.00  0.00     0.000 G0
ENDBRANCH   2  35
ENDBRANCH   1   2
BRANCH   1  37
ATOM     37  O   UNL     1      97.316  83.239  76.147  1.00  0.00    -0.461 OA
BRANCH  37  38
ATOM     38  C   UNL     1      97.031  83.609  77.441  1.00  0.00     0.310 C 
ATOM     39  O   UNL     1      95.998  84.155  77.804  1.00  0.00    -0.252 OA
BRANCH  38  40
ATOM     40  C   UNL     1      98.188  83.238  78.338  1.00  0.00     0.158 C 
BRANCH  40  41
ATOM     41  C   UNL     1      97.901  82.035  79.200  1.00  0.00    -0.033 A 
ATOM     42  C   UNL     1      97.399  82.206  80.491  1.00  0.00     0.054 A 
ATOM     43  C   UNL     1      98.136  80.752  78.707  1.00  0.00     0.008 A 
ATOM     44  C   UNL     1      97.133  81.093  81.288  1.00  0.00     0.160 A 
ATOM     45  C   UNL     1      97.870  79.639  79.505  1.00  0.00     0.050 A 
ATOM     46  C   UNL     1      97.369  79.809  80.795  1.00  0.00     0.157 A 
BRANCH  44  47
ATOM     47  O   UNL     1      96.643  81.272  82.547  1.00  0.00    -0.493 OA
ATOM     48  C   UNL     1      96.393  82.615  82.960  1.00  0.00     0.278 C 
ENDBRANCH  44  47
BRANCH  46  49
ATOM     49  O   UNL     1      97.112  78.715  81.565  1.00  0.00    -0.504 OA
ATOM     50  H   UNL     1      97.465  78.866  82.458  1.00  0.00     0.293 HD
ENDBRANCH  46  49
ENDBRANCH  40  41
ENDBRANCH  38  40
ENDBRANCH  37  38
ENDBRANCH   1  37
TORSDOF 11
ENDMDL
MODEL 5
REMARK VINA RESULT:    -6.315     14.334     18.516
REMARK INTER + INTRA:         -11.874
REMARK INTER:                  -9.335
REMARK INTRA:                  -2.539
REMARK UNBOUND:                -0.761
REMARK SMILES C=C(C)[C@]12C[C@@H](C)[C@@]34O[C@](Cc5ccccc5)(O[C@@H]1[C@@H]3C=C(COC(=O)Cc1ccc(O)c(OC)c1)C[C@]1(O)C(=O)C(C)=C[C@@H]41)O2
REMARK SMILES IDX 23 1 22 2 21 3 20 4 9 5 8 6 10 7 6 8 18 9 46 10 19 11 5 12
REMARK SMILES IDX 7 13 4 14 45 15 38 16 44 17 40 18 42 20 41 21 43 22 39 23
REMARK SMILES IDX 11 25 12 26 13 27 17 28 14 29 16 30 15 31 2 32 3 33 1 34
REMARK SMILES IDX 37 35 24 37 25 38 26 39 27 40 28 41 36 42 29 43 33 44 30 45
REMARK SMILES IDX 31 46 34 47 35 48 32 49
REMARK H PARENT 39 24 32 50
REMARK Flexibility Score: 90.00
ROOT
ATOM      1  C   UNL     1      94.183  99.546  74.231  1.00  0.00     0.264 C 
ENDROOT
BRANCH   1   2
ATOM      2  C   UNL     1      94.498  98.379  75.137  1.00  0.00    -0.033 C 
ATOM      3  C   UNL     1      95.432  98.524  76.099  1.00  0.00    -0.015 C 
BRANCH   3   4
ATOM      4  C   UNL     1      95.979  97.496  77.075  1.00  0.00     0.078 C 
ATOM      5  O   UNL     1      94.611  97.654  79.130  1.00  0.00    -0.319 OA
ATOM      6  C   UNL     1      94.969  96.759  78.031  1.00  0.00     0.095 C 
ATOM      7  C   UNL     1      95.704  98.398  79.700  1.00  0.00     0.289 C 
ATOM      8  C   UNL     1      95.704  95.483  78.614  1.00  0.00     0.023 C 
ATOM      9  O   UNL     1      96.365  99.184  78.711  1.00  0.00    -0.320 OA
ATOM     10  O   UNL     1      96.707  97.550  80.251  1.00  0.00    -0.313 OA
ATOM     11  C   UNL     1      97.048  98.151  77.984  1.00  0.00     0.170 C 
ATOM     12  C   UNL     1      97.232  95.738  78.800  1.00  0.00     0.049 C 
ATOM     13  C   UNL     1      95.117  94.921  79.919  1.00  0.00     0.011 C 
ATOM     14  C   UNL     1      97.526  97.206  79.114  1.00  0.00     0.122 C 
BRANCH   6  15
ATOM     15  C   UNL     1      93.622  96.481  77.302  1.00  0.00     0.086 C 
ATOM     16  C   UNL     1      93.728  95.971  75.850  1.00  0.00     0.140 CG0
ATOM     17  C   UNL     1      92.625  95.547  77.929  1.00  0.00    -0.010 C 
ATOM     18  C   UNL     1      92.541  95.038  75.745  1.00  0.00     0.190 C 
ATOM     19  G   UNL     1      93.668  97.110  74.833  1.00  0.00     0.000 G0
ATOM     20  C   UNL     1      91.981  94.742  77.078  1.00  0.00    -0.008 C 
ATOM     21  O   UNL     1      92.118  94.542  74.711  1.00  0.00    -0.291 OA
ATOM     22  C   UNL     1      90.894  93.772  77.323  1.00  0.00     0.048 C 
BRANCH  16  23
ATOM     23  O   UNL     1      94.844  95.128  75.618  1.00  0.00    -0.381 OA
ATOM     24  H   UNL     1      95.622  95.686  75.454  1.00  0.00     0.212 HD
ENDBRANCH  16  23
ENDBRANCH   6  15
BRANCH   7  25
ATOM     25  C   UNL     1      95.151  99.300  80.785  1.00  0.00     0.135 C 
BRANCH  25  26
ATOM     26  C   UNL     1      96.234  99.807  81.704  1.00  0.00    -0.040 A 
ATOM     27  C   UNL     1      96.628  99.045  82.804  1.00  0.00     0.004 A 
ATOM     28  C   UNL     1      96.842 101.037  81.455  1.00  0.00     0.004 A 
ATOM     29  C   UNL     1      97.630  99.514  83.655  1.00  0.00     0.000 A 
ATOM     30  C   UNL     1      97.843 101.506  82.306  1.00  0.00     0.000 A 
ATOM     31  C   UNL     1      98.237 100.744  83.406  1.00  0.00     0.000 A 
ENDBRANCH  25  26
ENDBRANCH   7  25
BRANCH  14  32
ATOM     32  C   UNL     1      98.956  97.440  79.476  1.00  0.00    -0.046 C 
ATOM     33  C   UNL     1      99.934  96.401  79.015  1.00  0.00     0.042 C 
ATOM     34  C   UNL     1      99.344  98.519  80.173  1.00  0.00     0.010 C 
ENDBRANCH  14  32
ENDBRANCH   3   4
BRANCH   2  35
ATOM     35  C   UNL     1      93.672  97.145  74.826  1.00  0.00     0.078 CG0
ATOM     36  G   UNL     1      93.744  95.988  75.822  1.00  0.00     0.000 G0
ENDBRANCH   2  35
ENDBRANCH   1   2
BRANCH   1  37
ATOM     37  O   UNL     1      95.381 100.207  73.887  1.00  0.00    -0.461 OA
BRANCH  37  38
ATOM     38  C   UNL     1      96.082  99.683  72.825  1.00  0.00     0.310 C 
ATOM     39  O   UNL     1      95.676  98.799  72.083  1.00  0.00    -0.252 OA
BRANCH  38  40
ATOM     40  C   UNL     1      97.425 100.367  72.721  1.00  0.00     0.158 C 
BRANCH  40  41
ATOM     41  C   UNL     1      98.350 100.024  73.861  1.00  0.00    -0.033 A 
ATOM     42  C   UNL     1      98.687 100.998  74.802  1.00  0.00     0.054 A 
ATOM     43  C   UNL     1      98.868  98.735  73.975  1.00  0.00     0.008 A 
ATOM     44  C   UNL     1      99.543 100.681  75.857  1.00  0.00     0.160 A 
ATOM     45  C   UNL     1      99.723  98.418  75.030  1.00  0.00     0.050 A 
ATOM     46  C   UNL     1     100.061  99.390  75.971  1.00  0.00     0.157 A 
BRANCH  44  47
ATOM     47  O   UNL     1      99.865 101.640  76.769  1.00  0.00    -0.493 OA
ATOM     48  C   UNL     1      98.803 102.466  77.243  1.00  0.00     0.278 C 
ENDBRANCH  44  47
BRANCH  46  49
ATOM     49  O   UNL     1     100.897  99.069  76.997  1.00  0.00    -0.504 OA
ATOM     50  H   UNL     1     101.718  99.581  76.909  1.00  0.00     0.293 HD
ENDBRANCH  46  49
ENDBRANCH  40  41
ENDBRANCH  38  40
ENDBRANCH  37  38
ENDBRANCH   1  37
TORSDOF 11
ENDMDL
MODEL 6
REMARK VINA RESULT:    -6.281      5.805     10.372
REMARK INTER + INTRA:         -11.816
REMARK INTER:                 -10.273
REMARK INTRA:                  -1.543
REMARK UNBOUND:                -0.761
REMARK SMILES C=C(C)[C@]12C[C@@H](C)[C@@]34O[C@](Cc5ccccc5)(O[C@@H]1[C@@H]3C=C(COC(=O)Cc1ccc(O)c(OC)c1)C[C@]1(O)C(=O)C(C)=C[C@@H]41)O2
REMARK SMILES IDX 23 1 22 2 21 3 20 4 9 5 8 6 10 7 6 8 18 9 46 10 19 11 5 12
REMARK SMILES IDX 7 13 4 14 45 15 38 16 44 17 40 18 42 20 41 21 43 22 39 23
REMARK SMILES IDX 11 25 12 26 13 27 17 28 14 29 16 30 15 31 2 32 3 33 1 34
REMARK SMILES IDX 37 35 24 37 25 38 26 39 27 40 28 41 36 42 29 43 33 44 30 45
REMARK SMILES IDX 31 46 34 47 35 48 32 49
REMARK H PARENT 39 24 32 50
REMARK Flexibility Score: 90.00
ROOT
ATOM      1  C   UNL     1      98.615  78.592  80.438  1.00  0.00     0.264 C 
ENDROOT
BRANCH   1   2
ATOM      2  C   UNL     1      98.138  78.369  81.854  1.00  0.00    -0.033 C 
ATOM      3  C   UNL     1      98.610  79.158  82.841  1.00  0.00    -0.015 C 
BRANCH   3   4
ATOM      4  C   UNL     1      98.351  79.090  84.337  1.00  0.00     0.078 C 
ATOM      5  O   UNL     1      96.435  80.584  84.804  1.00  0.00    -0.319 OA
ATOM      6  C   UNL     1      96.864  79.188  84.844  1.00  0.00     0.095 C 
ATOM      7  C   UNL     1      97.404  81.540  85.275  1.00  0.00     0.289 C 
ATOM      8  C   UNL     1      96.834  78.674  86.343  1.00  0.00     0.023 C 
ATOM      9  O   UNL     1      98.621  81.449  84.539  1.00  0.00    -0.320 OA
ATOM     10  O   UNL     1      97.761  81.322  86.638  1.00  0.00    -0.313 OA
ATOM     11  C   UNL     1      99.137  80.213  85.058  1.00  0.00     0.170 C 
ATOM     12  C   UNL     1      98.157  79.021  87.093  1.00  0.00     0.049 C 
ATOM     13  C   UNL     1      95.634  79.147  87.179  1.00  0.00     0.011 C 
ATOM     14  C   UNL     1      98.786  80.310  86.564  1.00  0.00     0.122 C 
BRANCH   6  15
ATOM     15  C   UNL     1      95.899  78.456  83.867  1.00  0.00     0.086 C 
ATOM     16  C   UNL     1      96.377  77.090  83.335  1.00  0.00     0.140 CG0
ATOM     17  C   UNL     1      94.483  78.188  84.294  1.00  0.00    -0.010 C 
ATOM     18  C   UNL     1      95.082  76.315  83.214  1.00  0.00     0.190 C 
ATOM     19  G   UNL     1      97.111  77.215  82.000  1.00  0.00     0.000 G0
ATOM     20  C   UNL     1      93.985  77.005  83.918  1.00  0.00    -0.008 C 
ATOM     21  O   UNL     1      94.952  75.236  82.656  1.00  0.00    -0.291 OA
ATOM     22  C   UNL     1      92.628  76.447  84.086  1.00  0.00     0.048 C 
BRANCH  16  23
ATOM     23  O   UNL     1      97.133  76.341  84.272  1.00  0.00    -0.381 OA
ATOM     24  H   UNL     1      97.846  75.883  83.796  1.00  0.00     0.212 HD
ENDBRANCH  16  23
ENDBRANCH   6  15
BRANCH   7  25
ATOM     25  C   UNL     1      96.815  82.928  85.122  1.00  0.00     0.135 C 
BRANCH  25  26
ATOM     26  C   UNL     1      95.339  82.953  85.429  1.00  0.00    -0.040 A 
ATOM     27  C   UNL     1      94.902  83.150  86.739  1.00  0.00     0.004 A 
ATOM     28  C   UNL     1      94.410  82.781  84.403  1.00  0.00     0.004 A 
ATOM     29  C   UNL     1      93.536  83.173  87.024  1.00  0.00     0.000 A 
ATOM     30  C   UNL     1      93.044  82.804  84.687  1.00  0.00     0.000 A 
ATOM     31  C   UNL     1      92.608  83.000  85.998  1.00  0.00     0.000 A 
ENDBRANCH  25  26
ENDBRANCH   7  25
BRANCH  14  32
ATOM     32  C   UNL     1      99.951  80.760  87.384  1.00  0.00    -0.046 C 
ATOM     33  C   UNL     1     100.638  79.702  88.194  1.00  0.00     0.042 C 
ATOM     34  C   UNL     1     100.359  82.038  87.395  1.00  0.00     0.010 C 
ENDBRANCH  14  32
ENDBRANCH   3   4
BRANCH   2  35
ATOM     35  C   UNL     1      97.137  77.235  81.973  1.00  0.00     0.078 CG0
ATOM     36  G   UNL     1      96.406  77.086  83.307  1.00  0.00     0.000 G0
ENDBRANCH   2  35
ENDBRANCH   1   2
BRANCH   1  37
ATOM     37  O   UNL     1      99.763  79.413  80.456  1.00  0.00    -0.461 OA
BRANCH  37  38
ATOM     38  C   UNL     1     100.430  79.552  79.261  1.00  0.00     0.310 C 
ATOM     39  O   UNL     1     100.754  78.630  78.525  1.00  0.00    -0.252 OA
BRANCH  38  40
ATOM     40  C   UNL     1     100.700  81.015  79.001  1.00  0.00     0.158 C 
BRANCH  40  41
ATOM     41  C   UNL     1      99.449  81.798  78.694  1.00  0.00    -0.033 A 
ATOM     42  C   UNL     1      98.725  82.390  79.729  1.00  0.00     0.054 A 
ATOM     43  C   UNL     1      99.015  81.931  77.375  1.00  0.00     0.008 A 
ATOM     44  C   UNL     1      97.567  83.115  79.445  1.00  0.00     0.160 A 
ATOM     45  C   UNL     1      97.857  82.655  77.091  1.00  0.00     0.050 A 
ATOM     46  C   UNL     1      97.133  83.247  78.125  1.00  0.00     0.157 A 
BRANCH  44  47
ATOM     47  O   UNL     1      96.868  83.688  80.464  1.00  0.00    -0.493 OA
ATOM     48  C   UNL     1      96.690  82.909  81.646  1.00  0.00     0.278 C 
ENDBRANCH  44  47
BRANCH  46  49
ATOM     49  O   UNL     1      96.005  83.953  77.836  1.00  0.00    -0.504 OA
ATOM     50  H   UNL     1      96.254  84.856  77.579  1.00  0.00     0.293 HD
ENDBRANCH  46  49
ENDBRANCH  40  41
ENDBRANCH  38  40
ENDBRANCH  37  38
ENDBRANCH   1  37
TORSDOF 11
ENDMDL
MODEL 7
REMARK VINA RESULT:    -6.264      1.797      2.391
REMARK INTER + INTRA:         -11.785
REMARK INTER:                 -10.857
REMARK INTRA:                  -0.928
REMARK UNBOUND:                -0.761
REMARK SMILES C=C(C)[C@]12C[C@@H](C)[C@@]34O[C@](Cc5ccccc5)(O[C@@H]1[C@@H]3C=C(COC(=O)Cc1ccc(O)c(OC)c1)C[C@]1(O)C(=O)C(C)=C[C@@H]41)O2
REMARK SMILES IDX 23 1 22 2 21 3 20 4 9 5 8 6 10 7 6 8 18 9 46 10 19 11 5 12
REMARK SMILES IDX 7 13 4 14 45 15 38 16 44 17 40 18 42 20 41 21 43 22 39 23
REMARK SMILES IDX 11 25 12 26 13 27 17 28 14 29 16 30 15 31 2 32 3 33 1 34
REMARK SMILES IDX 37 35 24 37 25 38 26 39 27 40 28 41 36 42 29 43 33 44 30 45
REMARK SMILES IDX 31 46 34 47 35 48 32 49
REMARK H PARENT 39 24 32 50
REMARK Flexibility Score: 90.00
ROOT
ATOM      1  C   UNL     1      93.145  86.489  87.797  1.00  0.00     0.264 C 
ENDROOT
BRANCH   1   2
ATOM      2  C   UNL     1      93.373  84.999  87.907  1.00  0.00    -0.033 C 
ATOM      3  C   UNL     1      92.989  84.197  86.894  1.00  0.00    -0.015 C 
BRANCH   3   4
ATOM      4  C   UNL     1      93.035  82.681  86.793  1.00  0.00     0.078 C 
ATOM      5  O   UNL     1      95.185  82.095  85.718  1.00  0.00    -0.319 OA
ATOM      6  C   UNL     1      94.426  81.961  86.959  1.00  0.00     0.095 C 
ATOM      7  C   UNL     1      94.429  81.896  84.508  1.00  0.00     0.289 C 
ATOM      8  C   UNL     1      94.142  80.427  87.236  1.00  0.00     0.023 C 
ATOM      9  O   UNL     1      93.329  82.798  84.432  1.00  0.00    -0.320 OA
ATOM     10  O   UNL     1      93.863  80.590  84.434  1.00  0.00    -0.313 OA
ATOM     11  C   UNL     1      92.465  82.227  85.427  1.00  0.00     0.170 C 
ATOM     12  C   UNL     1      92.861  79.940  86.491  1.00  0.00     0.049 C 
ATOM     13  C   UNL     1      95.307  79.474  86.927  1.00  0.00     0.011 C 
ATOM     14  C   UNL     1      92.638  80.706  85.187  1.00  0.00     0.122 C 
BRANCH   6  15
ATOM     15  C   UNL     1      95.297  82.684  88.027  1.00  0.00     0.086 C 
ATOM     16  C   UNL     1      94.564  83.144  89.305  1.00  0.00     0.140 CG0
ATOM     17  C   UNL     1      96.528  82.003  88.557  1.00  0.00    -0.010 C 
ATOM     18  C   UNL     1      95.624  82.968  90.371  1.00  0.00     0.190 C 
ATOM     19  G   UNL     1      94.073  84.587  89.200  1.00  0.00     0.000 G0
ATOM     20  C   UNL     1      96.754  82.166  89.865  1.00  0.00    -0.008 C 
ATOM     21  O   UNL     1      95.550  83.381  91.518  1.00  0.00    -0.291 OA
ATOM     22  C   UNL     1      97.891  81.719  90.696  1.00  0.00     0.048 C 
BRANCH  16  23
ATOM     23  O   UNL     1      93.523  82.272  89.715  1.00  0.00    -0.381 OA
ATOM     24  H   UNL     1      93.438  82.329  90.681  1.00  0.00     0.212 HD
ENDBRANCH  16  23
ENDBRANCH   6  15
BRANCH   7  25
ATOM     25  C   UNL     1      95.354  82.114  83.328  1.00  0.00     0.135 C 
BRANCH  25  26
ATOM     26  C   UNL     1      96.519  81.156  83.338  1.00  0.00    -0.040 A 
ATOM     27  C   UNL     1      96.332  79.827  82.956  1.00  0.00     0.004 A 
ATOM     28  C   UNL     1      97.783  81.598  83.726  1.00  0.00     0.004 A 
ATOM     29  C   UNL     1      97.409  78.941  82.965  1.00  0.00     0.000 A 
ATOM     30  C   UNL     1      98.861  80.712  83.735  1.00  0.00     0.000 A 
ATOM     31  C   UNL     1      98.673  79.383  83.354  1.00  0.00     0.000 A 
ENDBRANCH  25  26
ENDBRANCH   7  25
BRANCH  14  32
ATOM     32  C   UNL     1      91.526  80.136  84.369  1.00  0.00    -0.046 C 
ATOM     33  C   UNL     1      90.428  81.086  83.991  1.00  0.00     0.042 C 
ATOM     34  C   UNL     1      91.510  78.849  83.993  1.00  0.00     0.010 C 
ENDBRANCH  14  32
ENDBRANCH   3   4
BRANCH   2  35
ATOM     35  C   UNL     1      94.042  84.594  89.207  1.00  0.00     0.078 CG0
ATOM     36  G   UNL     1      94.544  83.156  89.316  1.00  0.00     0.000 G0
ENDBRANCH   2  35
ENDBRANCH   1   2
BRANCH   1  37
ATOM     37  O   UNL     1      92.945  87.027  89.086  1.00  0.00    -0.461 OA
BRANCH  37  38
ATOM     38  C   UNL     1      93.585  88.214  89.356  1.00  0.00     0.310 C 
ATOM     39  O   UNL     1      93.557  89.206  88.640  1.00  0.00    -0.252 OA
BRANCH  38  40
ATOM     40  C   UNL     1      94.325  88.102  90.668  1.00  0.00     0.158 C 
BRANCH  40  41
ATOM     41  C   UNL     1      93.404  87.939  91.850  1.00  0.00    -0.033 A 
ATOM     42  C   UNL     1      92.843  89.064  92.456  1.00  0.00     0.054 A 
ATOM     43  C   UNL     1      93.112  86.665  92.337  1.00  0.00     0.008 A 
ATOM     44  C   UNL     1      91.990  88.913  93.550  1.00  0.00     0.160 A 
ATOM     45  C   UNL     1      92.259  86.515  93.431  1.00  0.00     0.050 A 
ATOM     46  C   UNL     1      91.699  87.638  94.038  1.00  0.00     0.157 A 
BRANCH  44  47
ATOM     47  O   UNL     1      91.449  90.018  94.135  1.00  0.00    -0.493 OA
ATOM     48  C   UNL     1      92.203  90.636  95.176  1.00  0.00     0.278 C 
ENDBRANCH  44  47
BRANCH  46  49
ATOM     49  O   UNL     1      90.867  87.479  95.104  1.00  0.00    -0.504 OA
ATOM     50  H   UNL     1      90.647  88.354  95.467  1.00  0.00     0.293 HD
ENDBRANCH  46  49
ENDBRANCH  40  41
ENDBRANCH  38  40
ENDBRANCH  37  38
ENDBRANCH   1  37
TORSDOF 11
ENDMDL
MODEL 8
REMARK VINA RESULT:    -6.152      5.605      9.038
REMARK INTER + INTRA:         -11.588
REMARK INTER:                 -10.548
REMARK INTRA:                  -1.040
REMARK UNBOUND:                -0.761
REMARK SMILES C=C(C)[C@]12C[C@@H](C)[C@@]34O[C@](Cc5ccccc5)(O[C@@H]1[C@@H]3C=C(COC(=O)Cc1ccc(O)c(OC)c1)C[C@]1(O)C(=O)C(C)=C[C@@H]41)O2
REMARK SMILES IDX 23 1 22 2 21 3 20 4 9 5 8 6 10 7 6 8 18 9 46 10 19 11 5 12
REMARK SMILES IDX 7 13 4 14 45 15 38 16 44 17 40 18 42 20 41 21 43 22 39 23
REMARK SMILES IDX 11 25 12 26 13 27 17 28 14 29 16 30 15 31 2 32 3 33 1 34
REMARK SMILES IDX 37 35 24 37 25 38 26 39 27 40 28 41 36 42 29 43 33 44 30 45
REMARK SMILES IDX 31 46 34 47 35 48 32 49
REMARK H PARENT 39 24 32 50
REMARK Flexibility Score: 90.00
ROOT
ATOM      1  C   UNL     1      96.035  77.744  84.312  1.00  0.00     0.264 C 
ENDROOT
BRANCH   1   2
ATOM      2  C   UNL     1      97.369  78.042  83.669  1.00  0.00    -0.033 C 
ATOM      3  C   UNL     1      97.407  78.437  82.381  1.00  0.00    -0.015 C 
BRANCH   3   4
ATOM      4  C   UNL     1      98.608  78.719  81.493  1.00  0.00     0.078 C 
ATOM      5  O   UNL     1      99.091  81.138  81.680  1.00  0.00    -0.319 OA
ATOM      6  C   UNL     1      99.641  79.813  81.956  1.00  0.00     0.095 C 
ATOM      7  C   UNL     1      98.438  81.281  80.404  1.00  0.00     0.289 C 
ATOM      8  C   UNL     1     100.966  79.611  81.111  1.00  0.00     0.023 C 
ATOM      9  O   UNL     1      97.377  80.342  80.258  1.00  0.00    -0.320 OA
ATOM     10  O   UNL     1      99.323  81.035  79.314  1.00  0.00    -0.313 OA
ATOM     11  C   UNL     1      98.132  79.134  80.079  1.00  0.00     0.170 C 
ATOM     12  C   UNL     1     100.653  79.095  79.672  1.00  0.00     0.049 C 
ATOM     13  C   UNL     1     101.888  80.838  81.025  1.00  0.00     0.011 C 
ATOM     14  C   UNL     1      99.299  79.600  79.173  1.00  0.00     0.122 C 
BRANCH   6  15
ATOM     15  C   UNL     1      99.823  79.782  83.501  1.00  0.00     0.086 C 
ATOM     16  C   UNL     1      99.926  78.384  84.146  1.00  0.00     0.140 CG0
ATOM     17  C   UNL     1     100.961  80.539  84.125  1.00  0.00    -0.010 C 
ATOM     18  C   UNL     1     100.888  78.623  85.290  1.00  0.00     0.190 C 
ATOM     19  G   UNL     1      98.569  77.865  84.620  1.00  0.00     0.000 G0
ATOM     20  C   UNL     1     101.563  79.927  85.150  1.00  0.00    -0.008 C 
ATOM     21  O   UNL     1     101.128  77.833  86.190  1.00  0.00    -0.291 OA
ATOM     22  C   UNL     1     102.644  80.400  86.039  1.00  0.00     0.048 C 
BRANCH  16  23
ATOM     23  O   UNL     1     100.592  77.427  83.337  1.00  0.00    -0.381 OA
ATOM     24  H   UNL     1     100.780  77.832  82.475  1.00  0.00     0.212 HD
ENDBRANCH  16  23
ENDBRANCH   6  15
BRANCH   7  25
ATOM     25  C   UNL     1      97.892  82.691  80.305  1.00  0.00     0.135 C 
BRANCH  25  26
ATOM     26  C   UNL     1      97.717  83.130  78.872  1.00  0.00    -0.040 A 
ATOM     27  C   UNL     1      98.801  83.091  77.994  1.00  0.00     0.004 A 
ATOM     28  C   UNL     1      96.473  83.573  78.424  1.00  0.00     0.004 A 
ATOM     29  C   UNL     1      98.640  83.497  76.669  1.00  0.00     0.000 A 
ATOM     30  C   UNL     1      96.312  83.978  77.099  1.00  0.00     0.000 A 
ATOM     31  C   UNL     1      97.396  83.940  76.222  1.00  0.00     0.000 A 
ENDBRANCH  25  26
ENDBRANCH   7  25
BRANCH  14  32
ATOM     32  C   UNL     1      99.058  79.272  77.735  1.00  0.00    -0.046 C 
ATOM     33  C   UNL     1     100.268  78.906  76.928  1.00  0.00     0.042 C 
ATOM     34  C   UNL     1      97.830  79.304  77.196  1.00  0.00     0.010 C 
ENDBRANCH  14  32
ENDBRANCH   3   4
BRANCH   2  35
ATOM     35  C   UNL     1      98.540  77.852  84.615  1.00  0.00     0.078 CG0
ATOM     36  G   UNL     1      99.905  78.357  84.148  1.00  0.00     0.000 G0
ENDBRANCH   2  35
ENDBRANCH   1   2
BRANCH   1  37
ATOM     37  O   UNL     1      95.417  78.956  84.688  1.00  0.00    -0.461 OA
BRANCH  37  38
ATOM     38  C   UNL     1      94.073  78.891  84.972  1.00  0.00     0.310 C 
ATOM     39  O   UNL     1      93.480  77.887  85.341  1.00  0.00    -0.252 OA
BRANCH  38  40
ATOM     40  C   UNL     1      93.446  80.249  84.758  1.00  0.00     0.158 C 
BRANCH  40  41
ATOM     41  C   UNL     1      94.424  81.382  84.929  1.00  0.00    -0.033 A 
ATOM     42  C   UNL     1      94.821  81.774  86.208  1.00  0.00     0.054 A 
ATOM     43  C   UNL     1      94.934  82.039  83.809  1.00  0.00     0.008 A 
ATOM     44  C   UNL     1      95.727  82.823  86.367  1.00  0.00     0.160 A 
ATOM     45  C   UNL     1      95.840  83.088  83.968  1.00  0.00     0.050 A 
ATOM     46  C   UNL     1      96.237  83.480  85.246  1.00  0.00     0.157 A 
BRANCH  44  47
ATOM     47  O   UNL     1      96.106  83.197  87.620  1.00  0.00    -0.493 OA
ATOM     48  C   UNL     1      96.993  82.322  88.317  1.00  0.00     0.278 C 
ENDBRANCH  44  47
BRANCH  46  49
ATOM     49  O   UNL     1      97.122  84.504  85.388  1.00  0.00    -0.504 OA
ATOM     50  H   UNL     1      97.394  84.561  86.320  1.00  0.00     0.293 HD
ENDBRANCH  46  49
ENDBRANCH  40  41
ENDBRANCH  38  40
ENDBRANCH  37  38
ENDBRANCH   1  37
TORSDOF 11
ENDMDL
MODEL 9
REMARK VINA RESULT:    -6.078      7.408     11.525
REMARK INTER + INTRA:         -11.457
REMARK INTER:                 -10.014
REMARK INTRA:                  -1.443
REMARK UNBOUND:                -0.761
REMARK SMILES C=C(C)[C@]12C[C@@H](C)[C@@]34O[C@](Cc5ccccc5)(O[C@@H]1[C@@H]3C=C(COC(=O)Cc1ccc(O)c(OC)c1)C[C@]1(O)C(=O)C(C)=C[C@@H]41)O2
REMARK SMILES IDX 23 1 22 2 21 3 20 4 9 5 8 6 10 7 6 8 18 9 46 10 19 11 5 12
REMARK SMILES IDX 7 13 4 14 45 15 38 16 44 17 40 18 42 20 41 21 43 22 39 23
REMARK SMILES IDX 11 25 12 26 13 27 17 28 14 29 16 30 15 31 2 32 3 33 1 34
REMARK SMILES IDX 37 35 24 37 25 38 26 39 27 40 28 41 36 42 29 43 33 44 30 45
REMARK SMILES IDX 31 46 34 47 35 48 32 49
REMARK H PARENT 39 24 32 50
REMARK Flexibility Score: 90.00
ROOT
ATOM      1  C   UNL     1     101.731  81.080  78.821  1.00  0.00     0.264 C 
ENDROOT
BRANCH   1   2
ATOM      2  C   UNL     1     101.389  81.035  80.292  1.00  0.00    -0.033 C 
ATOM      3  C   UNL     1     100.107  81.194  80.675  1.00  0.00    -0.015 C 
BRANCH   3   4
ATOM      4  C   UNL     1      99.520  81.265  82.076  1.00  0.00     0.078 C 
ATOM      5  O   UNL     1      98.854  78.965  82.697  1.00  0.00    -0.319 OA
ATOM      6  C   UNL     1      99.762  80.054  83.052  1.00  0.00     0.095 C 
ATOM      7  C   UNL     1      97.505  79.364  82.390  1.00  0.00     0.289 C 
ATOM      8  C   UNL     1      99.436  80.549  84.521  1.00  0.00     0.023 C 
ATOM      9  O   UNL     1      97.474  80.307  81.322  1.00  0.00    -0.320 OA
ATOM     10  O   UNL     1      96.867  80.007  83.490  1.00  0.00    -0.313 OA
ATOM     11  C   UNL     1      97.987  81.467  81.995  1.00  0.00     0.170 C 
ATOM     12  C   UNL     1      98.290  81.607  84.527  1.00  0.00     0.049 C 
ATOM     13  C   UNL     1      99.113  79.439  85.535  1.00  0.00     0.011 C 
ATOM     14  C   UNL     1      97.303  81.378  83.382  1.00  0.00     0.122 C 
BRANCH   6  15
ATOM     15  C   UNL     1     101.184  79.456  82.847  1.00  0.00     0.086 C 
ATOM     16  C   UNL     1     102.331  80.473  82.674  1.00  0.00     0.140 CG0
ATOM     17  C   UNL     1     101.727  78.486  83.859  1.00  0.00    -0.010 C 
ATOM     18  C   UNL     1     103.493  79.772  83.345  1.00  0.00     0.190 C 
ATOM     19  G   UNL     1     102.606  80.787  81.204  1.00  0.00     0.000 G0
ATOM     20  C   UNL     1     103.028  78.619  84.139  1.00  0.00    -0.008 C 
ATOM     21  O   UNL     1     104.661  80.126  83.290  1.00  0.00    -0.291 OA
ATOM     22  C   UNL     1     103.903  77.804  85.006  1.00  0.00     0.048 C 
BRANCH  16  23
ATOM     23  O   UNL     1     102.166  81.659  83.434  1.00  0.00    -0.381 OA
ATOM     24  H   UNL     1     101.987  82.393  82.824  1.00  0.00     0.212 HD
ENDBRANCH  16  23
ENDBRANCH   6  15
BRANCH   7  25
ATOM     25  C   UNL     1      96.720  78.126  82.003  1.00  0.00     0.135 C 
BRANCH  25  26
ATOM     26  C   UNL     1      96.172  77.405  83.209  1.00  0.00    -0.040 A 
ATOM     27  C   UNL     1      97.007  76.586  83.970  1.00  0.00     0.004 A 
ATOM     28  C   UNL     1      94.832  77.557  83.564  1.00  0.00     0.004 A 
ATOM     29  C   UNL     1      96.500  75.918  85.086  1.00  0.00     0.000 A 
ATOM     30  C   UNL     1      94.326  76.889  84.680  1.00  0.00     0.000 A 
ATOM     31  C   UNL     1      95.161  76.070  85.440  1.00  0.00     0.000 A 
ENDBRANCH  25  26
ENDBRANCH   7  25
BRANCH  14  32
ATOM     32  C   UNL     1      96.102  82.262  83.473  1.00  0.00    -0.046 C 
ATOM     33  C   UNL     1      95.044  81.844  84.451  1.00  0.00     0.042 C 
ATOM     34  C   UNL     1      95.977  83.368  82.723  1.00  0.00     0.010 C 
ENDBRANCH  14  32
ENDBRANCH   3   4
BRANCH   2  35
ATOM     35  C   UNL     1     102.598  80.797  81.177  1.00  0.00     0.078 CG0
ATOM     36  G   UNL     1     102.336  80.483  82.649  1.00  0.00     0.000 G0
ENDBRANCH   2  35
ENDBRANCH   1   2
BRANCH   1  37
ATOM     37  O   UNL     1     100.934  80.144  78.127  1.00  0.00    -0.461 OA
BRANCH  37  38
ATOM     38  C   UNL     1     100.609  80.465  76.830  1.00  0.00     0.310 C 
ATOM     39  O   UNL     1     100.219  79.670  75.986  1.00  0.00    -0.252 OA
BRANCH  38  40
ATOM     40  C   UNL     1     100.809  81.947  76.611  1.00  0.00     0.158 C 
BRANCH  40  41
ATOM     41  C   UNL     1      99.551  82.651  76.175  1.00  0.00    -0.033 A 
ATOM     42  C   UNL     1      99.314  82.880  74.819  1.00  0.00     0.054 A 
ATOM     43  C   UNL     1      98.623  83.075  77.126  1.00  0.00     0.008 A 
ATOM     44  C   UNL     1      98.149  83.532  74.414  1.00  0.00     0.160 A 
ATOM     45  C   UNL     1      97.458  83.728  76.722  1.00  0.00     0.050 A 
ATOM     46  C   UNL     1      97.221  83.956  75.367  1.00  0.00     0.157 A 
BRANCH  44  47
ATOM     47  O   UNL     1      97.929  83.750  73.088  1.00  0.00    -0.493 OA
ATOM     48  C   UNL     1      98.874  83.195  72.175  1.00  0.00     0.278 C 
ENDBRANCH  44  47
BRANCH  46  49
ATOM     49  O   UNL     1      96.079  84.593  74.984  1.00  0.00    -0.504 OA
ATOM     50  H   UNL     1      96.040  84.617  74.013  1.00  0.00     0.293 HD
ENDBRANCH  46  49
ENDBRANCH  40  41
ENDBRANCH  38  40
ENDBRANCH  37  38
ENDBRANCH   1  37
TORSDOF 11
ENDMDL
MODEL 10
REMARK VINA RESULT:    -5.789      8.279     14.206
REMARK INTER + INTRA:         -10.949
REMARK INTER:                  -9.124
REMARK INTRA:                  -1.826
REMARK UNBOUND:                -0.761
REMARK SMILES C=C(C)[C@]12C[C@@H](C)[C@@]34O[C@](Cc5ccccc5)(O[C@@H]1[C@@H]3C=C(COC(=O)Cc1ccc(O)c(OC)c1)C[C@]1(O)C(=O)C(C)=C[C@@H]41)O2
REMARK SMILES IDX 23 1 22 2 21 3 20 4 9 5 8 6 10 7 6 8 18 9 46 10 19 11 5 12
REMARK SMILES IDX 7 13 4 14 45 15 38 16 44 17 40 18 42 20 41 21 43 22 39 23
REMARK SMILES IDX 11 25 12 26 13 27 17 28 14 29 16 30 15 31 2 32 3 33 1 34
REMARK SMILES IDX 37 35 24 37 25 38 26 39 27 40 28 41 36 42 29 43 33 44 30 45
REMARK SMILES IDX 31 46 34 47 35 48 32 49
REMARK H PARENT 39 24 32 50
REMARK Flexibility Score: 90.00
ROOT
ATOM      1  C   UNL     1      98.528  83.937  75.899  1.00  0.00     0.264 C 
ENDROOT
BRANCH   1   2
ATOM      2  C   UNL     1      99.575  83.005  75.336  1.00  0.00    -0.033 C 
ATOM      3  C   UNL     1     100.559  82.556  76.141  1.00  0.00    -0.015 C 
BRANCH   3   4
ATOM      4  C   UNL     1     101.758  81.684  75.805  1.00  0.00     0.078 C 
ATOM      5  O   UNL     1     101.077  79.339  76.200  1.00  0.00    -0.319 OA
ATOM      6  C   UNL     1     101.500  80.272  75.158  1.00  0.00     0.095 C 
ATOM      7  C   UNL     1     101.809  79.423  77.437  1.00  0.00     0.289 C 
ATOM      8  C   UNL     1     102.868  79.774  74.533  1.00  0.00     0.023 C 
ATOM      9  O   UNL     1     101.741  80.734  77.990  1.00  0.00    -0.320 OA
ATOM     10  O   UNL     1     103.197  79.149  77.264  1.00  0.00    -0.313 OA
ATOM     11  C   UNL     1     102.602  81.436  77.080  1.00  0.00     0.170 C 
ATOM     12  C   UNL     1     104.091  80.269  75.364  1.00  0.00     0.049 C 
ATOM     13  C   UNL     1     102.979  78.256  74.314  1.00  0.00     0.011 C 
ATOM     14  C   UNL     1     103.744  80.417  76.846  1.00  0.00     0.122 C 
BRANCH   6  15
ATOM     15  C   UNL     1     100.295  80.329  74.175  1.00  0.00     0.086 C 
ATOM     16  C   UNL     1     100.225  81.566  73.256  1.00  0.00     0.140 CG0
ATOM     17  C   UNL     1     100.059  79.181  73.233  1.00  0.00    -0.010 C 
ATOM     18  C   UNL     1      99.629  80.997  71.986  1.00  0.00     0.190 C 
ATOM     19  G   UNL     1      99.369  82.681  73.856  1.00  0.00     0.000 G0
ATOM     20  C   UNL     1      99.657  79.522  72.004  1.00  0.00    -0.008 C 
ATOM     21  O   UNL     1      99.221  81.652  71.040  1.00  0.00    -0.291 OA
ATOM     22  C   UNL     1      99.258  78.672  70.863  1.00  0.00     0.048 C 
BRANCH  16  23
ATOM     23  O   UNL     1     101.493  82.051  72.847  1.00  0.00    -0.381 OA
ATOM     24  H   UNL     1     102.102  81.991  73.602  1.00  0.00     0.212 HD
ENDBRANCH  16  23
ENDBRANCH   6  15
BRANCH   7  25
ATOM     25  C   UNL     1     101.214  78.425  78.410  1.00  0.00     0.135 C 
BRANCH  25  26
ATOM     26  C   UNL     1     100.164  77.559  77.761  1.00  0.00    -0.040 A 
ATOM     27  C   UNL     1     100.537  76.592  76.827  1.00  0.00     0.004 A 
ATOM     28  C   UNL     1      98.820  77.724  78.094  1.00  0.00     0.004 A 
ATOM     29  C   UNL     1      99.566  75.791  76.226  1.00  0.00     0.000 A 
ATOM     30  C   UNL     1      97.848  76.923  77.493  1.00  0.00     0.000 A 
ATOM     31  C   UNL     1      98.222  75.956  76.559  1.00  0.00     0.000 A 
ENDBRANCH  25  26
ENDBRANCH   7  25
BRANCH  14  32
ATOM     32  C   UNL     1     104.942  80.712  77.689  1.00  0.00    -0.046 C 
ATOM     33  C   UNL     1     105.971  81.620  77.083  1.00  0.00     0.042 C 
ATOM     34  C   UNL     1     105.090  80.196  78.918  1.00  0.00     0.010 C 
ENDBRANCH  14  32
ENDBRANCH   3   4
BRANCH   2  35
ATOM     35  C   UNL     1      99.357  82.680  73.870  1.00  0.00     0.078 CG0
ATOM     36  G   UNL     1     100.219  81.574  73.264  1.00  0.00     0.000 G0
ENDBRANCH   2  35
ENDBRANCH   1   2
BRANCH   1  37
ATOM     37  O   UNL     1      97.494  83.178  76.486  1.00  0.00    -0.461 OA
BRANCH  37  38
ATOM     38  C   UNL     1      96.852  83.752  77.559  1.00  0.00     0.310 C 
ATOM     39  O   UNL     1      95.707  84.182  77.545  1.00  0.00    -0.252 OA
BRANCH  38  40
ATOM     40  C   UNL     1      97.779  83.768  78.752  1.00  0.00     0.158 C 
BRANCH  40  41
ATOM     41  C   UNL     1      97.556  82.607  79.686  1.00  0.00    -0.033 A 
ATOM     42  C   UNL     1      96.905  82.808  80.904  1.00  0.00     0.054 A 
ATOM     43  C   UNL     1      97.999  81.333  79.334  1.00  0.00     0.008 A 
ATOM     44  C   UNL     1      96.698  81.733  81.769  1.00  0.00     0.160 A 
ATOM     45  C   UNL     1      97.792  80.258  80.199  1.00  0.00     0.050 A 
ATOM     46  C   UNL     1      97.142  80.458  81.416  1.00  0.00     0.157 A 
BRANCH  44  47
ATOM     47  O   UNL     1      96.062  81.941  82.956  1.00  0.00    -0.493 OA
ATOM     48  C   UNL     1      96.372  83.145  83.655  1.00  0.00     0.278 C 
ENDBRANCH  44  47
BRANCH  46  49
ATOM     49  O   UNL     1      96.945  79.401  82.252  1.00  0.00    -0.504 OA
ATOM     50  H   UNL     1      97.808  79.067  82.549  1.00  0.00     0.293 HD
ENDBRANCH  46  49
ENDBRANCH  40  41
ENDBRANCH  38  40
ENDBRANCH  37  38
ENDBRANCH   1  37
TORSDOF 11
ENDMDL
