MODEL 1
REMARK VINA RESULT:    -6.785      0.000      0.000
REMARK INTER + INTRA:         -12.112
REMARK INTER:                 -10.554
REMARK INTRA:                  -1.559
REMARK UNBOUND:                -1.559
REMARK SMILES COc1cc(CNC(=O)CCCCCC(C)C)ccc1O
REMARK SMILES IDX 10 1 8 2 7 3 9 5 6 6 5 7 3 8 20 9 4 10 19 11 18 12 2 13 1 14
REMARK SMILES IDX 21 15 11 17 12 18 13 19 14 20 15 21 16 22 17 23
REMARK H PARENT 7 4 21 16
REMARK Flexibility Score: inf
ROOT
ATOM      1  C   UNL     1      90.108  87.696  77.111  1.00  0.00     0.100 C 
ENDROOT
BRANCH   1   2
ATOM      2  C   UNL     1      89.871  88.895  77.941  1.00  0.00     0.220 C 
ATOM      3  N   UNL     1      90.337  90.104  77.519  1.00  0.00    -0.352 N 
ATOM      4  H   UNL     1      90.941  90.068  76.710  1.00  0.00     0.163 HD
ATOM      5  O   UNL     1      89.207  88.781  79.000  1.00  0.00    -0.275 OA
BRANCH   3   6
ATOM      6  C   UNL     1      90.034  91.360  78.128  1.00  0.00     0.151 C 
BRANCH   6   7
ATOM      7  C   UNL     1      90.713  92.508  77.469  1.00  0.00    -0.025 A 
ATOM      8  C   UNL     1      92.776  93.655  76.780  1.00  0.00     0.160 A 
ATOM      9  C   UNL     1      92.007  94.660  76.157  1.00  0.00     0.157 A 
ATOM     10  C   UNL     1      92.125  92.596  77.448  1.00  0.00     0.056 A 
ATOM     11  C   UNL     1      90.601  94.596  76.195  1.00  0.00     0.050 A 
ATOM     12  C   UNL     1      89.959  93.526  76.841  1.00  0.00     0.009 A 
BRANCH   8  13
ATOM     13  O   UNL     1      94.145  93.708  76.771  1.00  0.00    -0.493 OA
ATOM     14  C   UNL     1      94.708  94.398  77.904  1.00  0.00     0.278 C 
ENDBRANCH   8  13
BRANCH   9  15
ATOM     15  O   UNL     1      92.622  95.683  75.513  1.00  0.00    -0.504 OA
ATOM     16  H   UNL     1      93.565  95.650  75.689  1.00  0.00     0.293 HD
ENDBRANCH   9  15
ENDBRANCH   6   7
ENDBRANCH   3   6
ENDBRANCH   1   2
BRANCH   1  17
ATOM     17  C   UNL     1      89.584  87.814  75.655  1.00  0.00     0.010 C 
BRANCH  17  18
ATOM     18  C   UNL     1      90.733  88.125  74.656  1.00  0.00     0.001 C 
BRANCH  18  19
ATOM     19  C   UNL     1      90.329  89.132  73.547  1.00  0.00     0.000 C 
BRANCH  19  20
ATOM     20  C   UNL     1      89.613  90.387  74.124  1.00  0.00     0.003 C 
BRANCH  20  21
ATOM     21  C   UNL     1      90.315  91.749  73.812  1.00  0.00    -0.017 C 
ATOM     22  C   UNL     1      89.794  92.349  72.473  1.00  0.00     0.007 C 
ATOM     23  C   UNL     1      91.867  91.635  73.779  1.00  0.00     0.007 C 
ENDBRANCH  20  21
ENDBRANCH  19  20
ENDBRANCH  18  19
ENDBRANCH  17  18
ENDBRANCH   1  17
TORSDOF 10
ENDMDL
MODEL 2
REMARK VINA RESULT:    -6.009      2.522      6.530
REMARK INTER + INTRA:         -10.905
REMARK INTER:                  -9.966
REMARK INTRA:                  -0.939
REMARK UNBOUND:                -1.559
REMARK SMILES COc1cc(CNC(=O)CCCCCC(C)C)ccc1O
REMARK SMILES IDX 10 1 8 2 7 3 9 5 6 6 5 7 3 8 20 9 4 10 19 11 18 12 2 13 1 14
REMARK SMILES IDX 21 15 11 17 12 18 13 19 14 20 15 21 16 22 17 23
REMARK H PARENT 7 4 21 16
REMARK Flexibility Score: inf
ROOT
ATOM      1  C   UNL     1      91.937  94.789  76.516  1.00  0.00     0.100 C 
ENDROOT
BRANCH   1   2
ATOM      2  C   UNL     1      90.822  93.823  76.433  1.00  0.00     0.220 C 
ATOM      3  N   UNL     1      90.782  92.770  77.298  1.00  0.00    -0.352 N 
ATOM      4  H   UNL     1      91.611  92.653  77.863  1.00  0.00     0.163 HD
ATOM      5  O   UNL     1      89.910  94.016  75.592  1.00  0.00    -0.275 OA
BRANCH   3   6
ATOM      6  C   UNL     1      89.686  91.867  77.443  1.00  0.00     0.151 C 
BRANCH   6   7
ATOM      7  C   UNL     1      89.922  90.552  76.788  1.00  0.00    -0.025 A 
ATOM      8  C   UNL     1      90.215  89.206  74.751  1.00  0.00     0.160 A 
ATOM      9  C   UNL     1      90.437  88.060  75.543  1.00  0.00     0.157 A 
ATOM     10  C   UNL     1      89.941  90.440  75.378  1.00  0.00     0.056 A 
ATOM     11  C   UNL     1      90.394  88.154  76.946  1.00  0.00     0.050 A 
ATOM     12  C   UNL     1      90.144  89.390  77.565  1.00  0.00     0.009 A 
BRANCH   8  13
ATOM     13  O   UNL     1      90.233  89.132  73.383  1.00  0.00    -0.493 OA
ATOM     14  C   UNL     1      90.360  90.411  72.733  1.00  0.00     0.278 C 
ENDBRANCH   8  13
BRANCH   9  15
ATOM     15  O   UNL     1      90.700  86.868  74.951  1.00  0.00    -0.504 OA
ATOM     16  H   UNL     1      90.169  86.781  74.156  1.00  0.00     0.293 HD
ENDBRANCH   9  15
ENDBRANCH   6   7
ENDBRANCH   3   6
ENDBRANCH   1   2
BRANCH   1  17
ATOM     17  C   UNL     1      93.329  94.188  76.184  1.00  0.00     0.010 C 
BRANCH  17  18
ATOM     18  C   UNL     1      94.221  94.076  77.450  1.00  0.00     0.001 C 
BRANCH  18  19
ATOM     19  C   UNL     1      95.737  93.993  77.131  1.00  0.00     0.000 C 
BRANCH  19  20
ATOM     20  C   UNL     1      96.042  94.311  75.638  1.00  0.00     0.003 C 
BRANCH  20  21
ATOM     21  C   UNL     1      96.609  95.743  75.371  1.00  0.00    -0.017 C 
ATOM     22  C   UNL     1      97.053  96.422  76.700  1.00  0.00     0.007 C 
ATOM     23  C   UNL     1      95.603  96.659  74.614  1.00  0.00     0.007 C 
ENDBRANCH  20  21
ENDBRANCH  19  20
ENDBRANCH  18  19
ENDBRANCH  17  18
ENDBRANCH   1  17
TORSDOF 10
ENDMDL
MODEL 3
REMARK VINA RESULT:    -5.993      3.588      6.798
REMARK INTER + INTRA:         -10.880
REMARK INTER:                 -10.114
REMARK INTRA:                  -0.766
REMARK UNBOUND:                -1.559
REMARK SMILES COc1cc(CNC(=O)CCCCCC(C)C)ccc1O
REMARK SMILES IDX 10 1 8 2 7 3 9 5 6 6 5 7 3 8 20 9 4 10 19 11 18 12 2 13 1 14
REMARK SMILES IDX 21 15 11 17 12 18 13 19 14 20 15 21 16 22 17 23
REMARK H PARENT 7 4 21 16
REMARK Flexibility Score: inf
ROOT
ATOM      1  C   UNL     1      94.171  95.584  74.836  1.00  0.00     0.100 C 
ENDROOT
BRANCH   1   2
ATOM      2  C   UNL     1      95.405  95.154  75.525  1.00  0.00     0.220 C 
ATOM      3  N   UNL     1      95.970  95.970  76.459  1.00  0.00    -0.352 N 
ATOM      4  H   UNL     1      95.563  96.892  76.519  1.00  0.00     0.163 HD
ATOM      5  O   UNL     1      95.886  94.024  75.264  1.00  0.00    -0.275 OA
BRANCH   3   6
ATOM      6  C   UNL     1      97.054  95.611  77.317  1.00  0.00     0.151 C 
BRANCH   6   7
ATOM      7  C   UNL     1      96.608  95.148  78.658  1.00  0.00    -0.025 A 
ATOM      8  C   UNL     1      96.697  95.316  81.110  1.00  0.00     0.160 A 
ATOM      9  C   UNL     1      95.710  94.313  81.213  1.00  0.00     0.157 A 
ATOM     10  C   UNL     1      97.153  95.714  79.835  1.00  0.00     0.056 A 
ATOM     11  C   UNL     1      95.180  93.724  80.049  1.00  0.00     0.050 A 
ATOM     12  C   UNL     1      95.621  94.142  78.782  1.00  0.00     0.009 A 
BRANCH   8  13
ATOM     13  O   UNL     1      97.240  95.888  82.231  1.00  0.00    -0.493 OA
ATOM     14  C   UNL     1      96.526  97.050  82.696  1.00  0.00     0.278 C 
ENDBRANCH   8  13
BRANCH   9  15
ATOM     15  O   UNL     1      95.266  93.922  82.433  1.00  0.00    -0.504 OA
ATOM     16  H   UNL     1      95.238  92.963  82.472  1.00  0.00     0.293 HD
ENDBRANCH   9  15
ENDBRANCH   6   7
ENDBRANCH   3   6
ENDBRANCH   1   2
BRANCH   1  17
ATOM     17  C   UNL     1      92.968  94.620  75.022  1.00  0.00     0.010 C 
BRANCH  17  18
ATOM     18  C   UNL     1      92.266  94.836  76.391  1.00  0.00     0.001 C 
BRANCH  18  19
ATOM     19  C   UNL     1      91.695  93.531  77.004  1.00  0.00     0.000 C 
BRANCH  19  20
ATOM     20  C   UNL     1      90.170  93.372  76.736  1.00  0.00     0.003 C 
BRANCH  20  21
ATOM     21  C   UNL     1      89.521  92.091  77.354  1.00  0.00    -0.017 C 
ATOM     22  C   UNL     1      90.513  91.375  78.317  1.00  0.00     0.007 C 
ATOM     23  C   UNL     1      89.010  91.093  76.275  1.00  0.00     0.007 C 
ENDBRANCH  20  21
ENDBRANCH  19  20
ENDBRANCH  18  19
ENDBRANCH  17  18
ENDBRANCH   1  17
TORSDOF 10
ENDMDL
MODEL 4
REMARK VINA RESULT:    -5.921      3.357      5.862
REMARK INTER + INTRA:         -10.768
REMARK INTER:                  -9.952
REMARK INTRA:                  -0.816
REMARK UNBOUND:                -1.559
REMARK SMILES COc1cc(CNC(=O)CCCCCC(C)C)ccc1O
REMARK SMILES IDX 10 1 8 2 7 3 9 5 6 6 5 7 3 8 20 9 4 10 19 11 18 12 2 13 1 14
REMARK SMILES IDX 21 15 11 17 12 18 13 19 14 20 15 21 16 22 17 23
REMARK H PARENT 7 4 21 16
REMARK Flexibility Score: inf
ROOT
ATOM      1  C   UNL     1      91.731  93.920  76.814  1.00  0.00     0.100 C 
ENDROOT
BRANCH   1   2
ATOM      2  C   UNL     1      93.162  94.286  76.809  1.00  0.00     0.220 C 
ATOM      3  N   UNL     1      93.955  93.905  77.850  1.00  0.00    -0.352 N 
ATOM      4  H   UNL     1      93.462  93.500  78.633  1.00  0.00     0.163 HD
ATOM      5  O   UNL     1      93.629  94.906  75.822  1.00  0.00    -0.275 OA
BRANCH   3   6
ATOM      6  C   UNL     1      95.376  94.038  77.894  1.00  0.00     0.151 C 
BRANCH   6   7
ATOM      7  C   UNL     1      95.884  94.445  79.231  1.00  0.00    -0.025 A 
ATOM      8  C   UNL     1      97.101  96.038  80.656  1.00  0.00     0.160 A 
ATOM      9  C   UNL     1      96.794  95.254  81.789  1.00  0.00     0.157 A 
ATOM     10  C   UNL     1      96.660  95.618  79.383  1.00  0.00     0.056 A 
ATOM     11  C   UNL     1      96.046  94.072  81.647  1.00  0.00     0.050 A 
ATOM     12  C   UNL     1      95.589  93.672  80.379  1.00  0.00     0.009 A 
BRANCH   8  13
ATOM     13  O   UNL     1      97.845  97.182  80.771  1.00  0.00    -0.493 OA
ATOM     14  C   UNL     1      97.115  98.385  80.461  1.00  0.00     0.278 C 
ENDBRANCH   8  13
BRANCH   9  15
ATOM     15  O   UNL     1      97.215  95.647  83.018  1.00  0.00    -0.504 OA
ATOM     16  H   UNL     1      97.201  96.606  83.070  1.00  0.00     0.293 HD
ENDBRANCH   9  15
ENDBRANCH   6   7
ENDBRANCH   3   6
ENDBRANCH   1   2
BRANCH   1  17
ATOM     17  C   UNL     1      91.422  92.562  77.500  1.00  0.00     0.010 C 
BRANCH  17  18
ATOM     18  C   UNL     1      89.900  92.251  77.494  1.00  0.00     0.001 C 
BRANCH  18  19
ATOM     19  C   UNL     1      89.502  91.139  76.486  1.00  0.00     0.000 C 
BRANCH  19  20
ATOM     20  C   UNL     1      90.658  90.126  76.242  1.00  0.00     0.003 C 
BRANCH  20  21
ATOM     21  C   UNL     1      91.038  89.907  74.742  1.00  0.00    -0.017 C 
ATOM     22  C   UNL     1      91.782  91.150  74.170  1.00  0.00     0.007 C 
ATOM     23  C   UNL     1      89.809  89.564  73.851  1.00  0.00     0.007 C 
ENDBRANCH  20  21
ENDBRANCH  19  20
ENDBRANCH  18  19
ENDBRANCH  17  18
ENDBRANCH   1  17
TORSDOF 10
ENDMDL
MODEL 5
REMARK VINA RESULT:    -5.916      2.550      7.461
REMARK INTER + INTRA:         -10.761
REMARK INTER:                 -10.034
REMARK INTRA:                  -0.727
REMARK UNBOUND:                -1.559
REMARK SMILES COc1cc(CNC(=O)CCCCCC(C)C)ccc1O
REMARK SMILES IDX 10 1 8 2 7 3 9 5 6 6 5 7 3 8 20 9 4 10 19 11 18 12 2 13 1 14
REMARK SMILES IDX 21 15 11 17 12 18 13 19 14 20 15 21 16 22 17 23
REMARK H PARENT 7 4 21 16
REMARK Flexibility Score: inf
ROOT
ATOM      1  C   UNL     1      95.327  93.991  75.236  1.00  0.00     0.100 C 
ENDROOT
BRANCH   1   2
ATOM      2  C   UNL     1      93.856  94.063  75.116  1.00  0.00     0.220 C 
ATOM      3  N   UNL     1      93.166  92.973  74.678  1.00  0.00    -0.352 N 
ATOM      4  H   UNL     1      93.740  92.217  74.333  1.00  0.00     0.163 HD
ATOM      5  O   UNL     1      93.268  95.116  75.463  1.00  0.00    -0.275 OA
BRANCH   3   6
ATOM      6  C   UNL     1      91.744  92.845  74.679  1.00  0.00     0.151 C 
BRANCH   6   7
ATOM      7  C   UNL     1      91.234  91.994  75.788  1.00  0.00    -0.025 A 
ATOM      8  C   UNL     1      90.416  89.825  76.608  1.00  0.00     0.160 A 
ATOM      9  C   UNL     1      90.328  90.354  77.913  1.00  0.00     0.157 A 
ATOM     10  C   UNL     1      90.851  90.653  75.551  1.00  0.00     0.056 A 
ATOM     11  C   UNL     1      90.681  91.695  78.155  1.00  0.00     0.050 A 
ATOM     12  C   UNL     1      91.136  92.507  77.102  1.00  0.00     0.009 A 
BRANCH   8  13
ATOM     13  O   UNL     1      90.058  88.528  76.347  1.00  0.00    -0.493 OA
ATOM     14  C   UNL     1      91.152  87.699  75.909  1.00  0.00     0.278 C 
ENDBRANCH   8  13
BRANCH   9  15
ATOM     15  O   UNL     1      89.909  89.568  78.935  1.00  0.00    -0.504 OA
ATOM     16  H   UNL     1      89.734  90.111  79.707  1.00  0.00     0.293 HD
ENDBRANCH   9  15
ENDBRANCH   6   7
ENDBRANCH   3   6
ENDBRANCH   1   2
BRANCH   1  17
ATOM     17  C   UNL     1      95.835  93.630  76.657  1.00  0.00     0.010 C 
BRANCH  17  18
ATOM     18  C   UNL     1      96.207  94.900  77.472  1.00  0.00     0.001 C 
BRANCH  18  19
ATOM     19  C   UNL     1      95.581  94.926  78.891  1.00  0.00     0.000 C 
BRANCH  19  20
ATOM     20  C   UNL     1      96.288  95.949  79.828  1.00  0.00     0.003 C 
BRANCH  20  21
ATOM     21  C   UNL     1      96.594  95.423  81.268  1.00  0.00    -0.017 C 
ATOM     22  C   UNL     1      95.712  94.185  81.606  1.00  0.00     0.007 C 
ATOM     23  C   UNL     1      96.421  96.517  82.361  1.00  0.00     0.007 C 
ENDBRANCH  20  21
ENDBRANCH  19  20
ENDBRANCH  18  19
ENDBRANCH  17  18
ENDBRANCH   1  17
TORSDOF 10
ENDMDL
MODEL 6
REMARK VINA RESULT:    -5.603      2.738      7.180
REMARK INTER + INTRA:         -10.273
REMARK INTER:                  -9.420
REMARK INTRA:                  -0.853
REMARK UNBOUND:                -1.559
REMARK SMILES COc1cc(CNC(=O)CCCCCC(C)C)ccc1O
REMARK SMILES IDX 10 1 8 2 7 3 9 5 6 6 5 7 3 8 20 9 4 10 19 11 18 12 2 13 1 14
REMARK SMILES IDX 21 15 11 17 12 18 13 19 14 20 15 21 16 22 17 23
REMARK H PARENT 7 4 21 16
REMARK Flexibility Score: inf
ROOT
ATOM      1  C   UNL     1      94.364  94.589  75.469  1.00  0.00     0.100 C 
ENDROOT
BRANCH   1   2
ATOM      2  C   UNL     1      93.171  94.320  76.299  1.00  0.00     0.220 C 
ATOM      3  N   UNL     1      91.955  94.783  75.892  1.00  0.00    -0.352 N 
ATOM      4  H   UNL     1      91.982  95.406  75.097  1.00  0.00     0.163 HD
ATOM      5  O   UNL     1      93.297  93.633  77.341  1.00  0.00    -0.275 OA
BRANCH   3   6
ATOM      6  C   UNL     1      90.706  94.453  76.499  1.00  0.00     0.151 C 
BRANCH   6   7
ATOM      7  C   UNL     1      90.146  93.161  76.017  1.00  0.00    -0.025 A 
ATOM      8  C   UNL     1      89.611  91.625  74.173  1.00  0.00     0.160 A 
ATOM      9  C   UNL     1      89.141  90.674  75.104  1.00  0.00     0.157 A 
ATOM     10  C   UNL     1      90.093  92.869  74.634  1.00  0.00     0.056 A 
ATOM     11  C   UNL     1      89.164  90.966  76.481  1.00  0.00     0.050 A 
ATOM     12  C   UNL     1      89.668  92.197  76.934  1.00  0.00     0.009 A 
BRANCH   8  13
ATOM     13  O   UNL     1      89.579  91.369  72.827  1.00  0.00    -0.493 OA
ATOM     14  C   UNL     1      89.813  92.530  72.008  1.00  0.00     0.278 C 
ENDBRANCH   8  13
BRANCH   9  15
ATOM     15  O   UNL     1      88.674  89.476  74.672  1.00  0.00    -0.504 OA
ATOM     16  H   UNL     1      89.390  88.838  74.663  1.00  0.00     0.293 HD
ENDBRANCH   9  15
ENDBRANCH   6   7
ENDBRANCH   3   6
ENDBRANCH   1   2
BRANCH   1  17
ATOM     17  C   UNL     1      95.664  93.913  75.983  1.00  0.00     0.010 C 
BRANCH  17  18
ATOM     18  C   UNL     1      96.758  94.962  76.326  1.00  0.00     0.001 C 
BRANCH  18  19
ATOM     19  C   UNL     1      96.347  95.930  77.467  1.00  0.00     0.000 C 
BRANCH  19  20
ATOM     20  C   UNL     1      97.328  95.868  78.674  1.00  0.00     0.003 C 
BRANCH  20  21
ATOM     21  C   UNL     1      96.658  95.571  80.055  1.00  0.00    -0.017 C 
ATOM     22  C   UNL     1      95.357  94.734  79.873  1.00  0.00     0.007 C 
ATOM     23  C   UNL     1      96.352  96.863  80.868  1.00  0.00     0.007 C 
ENDBRANCH  20  21
ENDBRANCH  19  20
ENDBRANCH  18  19
ENDBRANCH  17  18
ENDBRANCH   1  17
TORSDOF 10
ENDMDL
MODEL 7
REMARK VINA RESULT:    -5.453      3.044      5.427
REMARK INTER + INTRA:         -10.040
REMARK INTER:                  -9.135
REMARK INTRA:                  -0.904
REMARK UNBOUND:                -1.559
REMARK SMILES COc1cc(CNC(=O)CCCCCC(C)C)ccc1O
REMARK SMILES IDX 10 1 8 2 7 3 9 5 6 6 5 7 3 8 20 9 4 10 19 11 18 12 2 13 1 14
REMARK SMILES IDX 21 15 11 17 12 18 13 19 14 20 15 21 16 22 17 23
REMARK H PARENT 7 4 21 16
REMARK Flexibility Score: inf
ROOT
ATOM      1  C   UNL     1      91.432  93.681  76.829  1.00  0.00     0.100 C 
ENDROOT
BRANCH   1   2
ATOM      2  C   UNL     1      92.883  93.863  76.612  1.00  0.00     0.220 C 
ATOM      3  N   UNL     1      93.734  93.775  77.673  1.00  0.00    -0.352 N 
ATOM      4  H   UNL     1      93.284  93.719  78.575  1.00  0.00     0.163 HD
ATOM      5  O   UNL     1      93.305  94.053  75.445  1.00  0.00    -0.275 OA
BRANCH   3   6
ATOM      6  C   UNL     1      95.159  93.757  77.583  1.00  0.00     0.151 C 
BRANCH   6   7
ATOM      7  C   UNL     1      95.796  94.969  78.164  1.00  0.00    -0.025 A 
ATOM      8  C   UNL     1      96.388  96.338  80.119  1.00  0.00     0.160 A 
ATOM      9  C   UNL     1      97.068  97.243  79.277  1.00  0.00     0.157 A 
ATOM     10  C   UNL     1      95.741  95.218  79.556  1.00  0.00     0.056 A 
ATOM     11  C   UNL     1      97.107  97.020  77.888  1.00  0.00     0.050 A 
ATOM     12  C   UNL     1      96.481  95.889  77.336  1.00  0.00     0.009 A 
BRANCH   8  13
ATOM     13  O   UNL     1      96.321  96.548  81.472  1.00  0.00    -0.493 OA
ATOM     14  C   UNL     1      97.248  95.748  82.231  1.00  0.00     0.278 C 
ENDBRANCH   8  13
BRANCH   9  15
ATOM     15  O   UNL     1      97.691  98.325  79.808  1.00  0.00    -0.504 OA
ATOM     16  H   UNL     1      97.917  98.147  80.724  1.00  0.00     0.293 HD
ENDBRANCH   9  15
ENDBRANCH   6   7
ENDBRANCH   3   6
ENDBRANCH   1   2
BRANCH   1  17
ATOM     17  C   UNL     1      91.058  92.383  77.593  1.00  0.00     0.010 C 
BRANCH  17  18
ATOM     18  C   UNL     1      89.633  91.890  77.221  1.00  0.00     0.001 C 
BRANCH  18  19
ATOM     19  C   UNL     1      89.609  90.447  76.651  1.00  0.00     0.000 C 
BRANCH  19  20
ATOM     20  C   UNL     1      89.419  90.428  75.107  1.00  0.00     0.003 C 
BRANCH  20  21
ATOM     21  C   UNL     1      90.652  89.909  74.296  1.00  0.00    -0.017 C 
ATOM     22  C   UNL     1      91.175  88.564  74.882  1.00  0.00     0.007 C 
ATOM     23  C   UNL     1      91.810  90.947  74.227  1.00  0.00     0.007 C 
ENDBRANCH  20  21
ENDBRANCH  19  20
ENDBRANCH  18  19
ENDBRANCH  17  18
ENDBRANCH   1  17
TORSDOF 10
ENDMDL
MODEL 8
REMARK VINA RESULT:    -5.253      3.429      8.098
REMARK INTER + INTRA:          -9.729
REMARK INTER:                  -9.016
REMARK INTRA:                  -0.713
REMARK UNBOUND:                -1.559
REMARK SMILES COc1cc(CNC(=O)CCCCCC(C)C)ccc1O
REMARK SMILES IDX 10 1 8 2 7 3 9 5 6 6 5 7 3 8 20 9 4 10 19 11 18 12 2 13 1 14
REMARK SMILES IDX 21 15 11 17 12 18 13 19 14 20 15 21 16 22 17 23
REMARK H PARENT 7 4 21 16
REMARK Flexibility Score: inf
ROOT
ATOM      1  C   UNL     1      95.937  94.091  78.592  1.00  0.00     0.100 C 
ENDROOT
BRANCH   1   2
ATOM      2  C   UNL     1      95.006  94.402  77.487  1.00  0.00     0.220 C 
ATOM      3  N   UNL     1      93.695  94.050  77.598  1.00  0.00    -0.352 N 
ATOM      4  H   UNL     1      93.476  93.469  78.395  1.00  0.00     0.163 HD
ATOM      5  O   UNL     1      95.437  95.024  76.485  1.00  0.00    -0.275 OA
BRANCH   3   6
ATOM      6  C   UNL     1      92.660  94.437  76.693  1.00  0.00     0.151 C 
BRANCH   6   7
ATOM      7  C   UNL     1      91.638  93.377  76.486  1.00  0.00    -0.025 A 
ATOM      8  C   UNL     1      90.146  92.116  74.991  1.00  0.00     0.160 A 
ATOM      9  C   UNL     1      89.740  91.313  76.078  1.00  0.00     0.157 A 
ATOM     10  C   UNL     1      91.078  93.155  75.205  1.00  0.00     0.056 A 
ATOM     11  C   UNL     1      90.270  91.543  77.361  1.00  0.00     0.050 A 
ATOM     12  C   UNL     1      91.216  92.562  77.563  1.00  0.00     0.009 A 
BRANCH   8  13
ATOM     13  O   UNL     1      89.627  91.922  73.738  1.00  0.00    -0.493 OA
ATOM     14  C   UNL     1      90.567  91.368  72.798  1.00  0.00     0.278 C 
ENDBRANCH   8  13
BRANCH   9  15
ATOM     15  O   UNL     1      88.843  90.314  75.883  1.00  0.00    -0.504 OA
ATOM     16  H   UNL     1      89.164  89.510  76.300  1.00  0.00     0.293 HD
ENDBRANCH   9  15
ENDBRANCH   6   7
ENDBRANCH   3   6
ENDBRANCH   1   2
BRANCH   1  17
ATOM     17  C   UNL     1      95.241  93.773  79.943  1.00  0.00     0.010 C 
BRANCH  17  18
ATOM     18  C   UNL     1      95.628  94.801  81.042  1.00  0.00     0.001 C 
BRANCH  18  19
ATOM     19  C   UNL     1      97.140  95.147  81.058  1.00  0.00     0.000 C 
BRANCH  19  20
ATOM     20  C   UNL     1      97.392  96.683  81.093  1.00  0.00     0.003 C 
BRANCH  20  21
ATOM     21  C   UNL     1      96.337  97.506  81.901  1.00  0.00    -0.017 C 
ATOM     22  C   UNL     1      96.313  98.991  81.431  1.00  0.00     0.007 C 
ATOM     23  C   UNL     1      96.565  97.437  83.439  1.00  0.00     0.007 C 
ENDBRANCH  20  21
ENDBRANCH  19  20
ENDBRANCH  18  19
ENDBRANCH  17  18
ENDBRANCH   1  17
TORSDOF 10
ENDMDL
MODEL 9
REMARK VINA RESULT:    -5.152     24.734     27.370
REMARK INTER + INTRA:          -9.573
REMARK INTER:                  -8.916
REMARK INTRA:                  -0.657
REMARK UNBOUND:                -1.559
REMARK SMILES COc1cc(CNC(=O)CCCCCC(C)C)ccc1O
REMARK SMILES IDX 10 1 8 2 7 3 9 5 6 6 5 7 3 8 20 9 4 10 19 11 18 12 2 13 1 14
REMARK SMILES IDX 21 15 11 17 12 18 13 19 14 20 15 21 16 22 17 23
REMARK H PARENT 7 4 21 16
REMARK Flexibility Score: inf
ROOT
ATOM      1  C   UNL     1      82.192  64.738  76.332  1.00  0.00     0.100 C 
ENDROOT
BRANCH   1   2
ATOM      2  C   UNL     1      83.569  64.652  76.860  1.00  0.00     0.220 C 
ATOM      3  N   UNL     1      83.867  63.716  77.804  1.00  0.00    -0.352 N 
ATOM      4  H   UNL     1      83.070  63.221  78.178  1.00  0.00     0.163 HD
ATOM      5  O   UNL     1      84.449  65.418  76.395  1.00  0.00    -0.275 OA
BRANCH   3   6
ATOM      6  C   UNL     1      85.181  63.409  78.271  1.00  0.00     0.151 C 
BRANCH   6   7
ATOM      7  C   UNL     1      85.550  64.150  79.508  1.00  0.00    -0.025 A 
ATOM      8  C   UNL     1      86.581  66.098  80.599  1.00  0.00     0.160 A 
ATOM      9  C   UNL     1      86.193  65.595  81.858  1.00  0.00     0.157 A 
ATOM     10  C   UNL     1      86.274  65.363  79.433  1.00  0.00     0.056 A 
ATOM     11  C   UNL     1      85.496  64.375  81.946  1.00  0.00     0.050 A 
ATOM     12  C   UNL     1      85.172  63.661  80.780  1.00  0.00     0.009 A 
BRANCH   8  13
ATOM     13  O   UNL     1      87.277  67.273  80.493  1.00  0.00    -0.493 OA
ATOM     14  C   UNL     1      87.087  67.951  79.236  1.00  0.00     0.278 C 
ENDBRANCH   8  13
BRANCH   9  15
ATOM     15  O   UNL     1      86.485  66.291  82.985  1.00  0.00    -0.504 OA
ATOM     16  H   UNL     1      86.601  67.219  82.767  1.00  0.00     0.293 HD
ENDBRANCH   9  15
ENDBRANCH   6   7
ENDBRANCH   3   6
ENDBRANCH   1   2
BRANCH   1  17
ATOM     17  C   UNL     1      81.655  66.187  76.182  1.00  0.00     0.010 C 
BRANCH  17  18
ATOM     18  C   UNL     1      80.731  66.330  74.941  1.00  0.00     0.001 C 
BRANCH  18  19
ATOM     19  C   UNL     1      81.360  65.772  73.637  1.00  0.00     0.000 C 
BRANCH  19  20
ATOM     20  C   UNL     1      80.289  65.478  72.546  1.00  0.00     0.003 C 
BRANCH  20  21
ATOM     21  C   UNL     1      80.065  66.631  71.514  1.00  0.00    -0.017 C 
ATOM     22  C   UNL     1      79.739  66.058  70.104  1.00  0.00     0.007 C 
ATOM     23  C   UNL     1      81.273  67.608  71.427  1.00  0.00     0.007 C 
ENDBRANCH  20  21
ENDBRANCH  19  20
ENDBRANCH  18  19
ENDBRANCH  17  18
ENDBRANCH   1  17
TORSDOF 10
ENDMDL
MODEL 10
REMARK VINA RESULT:    -5.075      3.042      5.276
REMARK INTER + INTRA:          -9.452
REMARK INTER:                  -8.563
REMARK INTRA:                  -0.889
REMARK UNBOUND:                -1.559
REMARK SMILES COc1cc(CNC(=O)CCCCCC(C)C)ccc1O
REMARK SMILES IDX 10 1 8 2 7 3 9 5 6 6 5 7 3 8 20 9 4 10 19 11 18 12 2 13 1 14
REMARK SMILES IDX 21 15 11 17 12 18 13 19 14 20 15 21 16 22 17 23
REMARK H PARENT 7 4 21 16
REMARK Flexibility Score: inf
ROOT
ATOM      1  C   UNL     1      91.570  93.634  76.843  1.00  0.00     0.100 C 
ENDROOT
BRANCH   1   2
ATOM      2  C   UNL     1      93.015  93.603  76.533  1.00  0.00     0.220 C 
ATOM      3  N   UNL     1      93.918  93.826  77.529  1.00  0.00    -0.352 N 
ATOM      4  H   UNL     1      93.518  94.135  78.404  1.00  0.00     0.163 HD
ATOM      5  O   UNL     1      93.381  93.328  75.365  1.00  0.00    -0.275 OA
BRANCH   3   6
ATOM      6  C   UNL     1      95.331  93.657  77.410  1.00  0.00     0.151 C 
BRANCH   6   7
ATOM      7  C   UNL     1      96.047  94.922  77.096  1.00  0.00    -0.025 A 
ATOM      8  C   UNL     1      96.971  96.498  75.450  1.00  0.00     0.160 A 
ATOM      9  C   UNL     1      97.352  97.365  76.496  1.00  0.00     0.157 A 
ATOM     10  C   UNL     1      96.339  95.274  75.757  1.00  0.00     0.056 A 
ATOM     11  C   UNL     1      97.090  97.012  77.833  1.00  0.00     0.050 A 
ATOM     12  C   UNL     1      96.438  95.804  78.131  1.00  0.00     0.009 A 
BRANCH   8  13
ATOM     13  O   UNL     1      97.234  96.813  74.142  1.00  0.00    -0.493 OA
ATOM     14  C   UNL     1      96.115  97.396  73.448  1.00  0.00     0.278 C 
ENDBRANCH   8  13
BRANCH   9  15
ATOM     15  O   UNL     1      97.962  98.542  76.211  1.00  0.00    -0.504 OA
ATOM     16  H   UNL     1      98.713  98.382  75.635  1.00  0.00     0.293 HD
ENDBRANCH   9  15
ENDBRANCH   6   7
ENDBRANCH   3   6
ENDBRANCH   1   2
BRANCH   1  17
ATOM     17  C   UNL     1      91.041  92.358  77.551  1.00  0.00     0.010 C 
BRANCH  17  18
ATOM     18  C   UNL     1      89.570  92.051  77.154  1.00  0.00     0.001 C 
BRANCH  18  19
ATOM     19  C   UNL     1      89.381  90.642  76.532  1.00  0.00     0.000 C 
BRANCH  19  20
ATOM     20  C   UNL     1      88.819  90.710  75.082  1.00  0.00     0.003 C 
BRANCH  20  21
ATOM     21  C   UNL     1      89.829  90.297  73.962  1.00  0.00    -0.017 C 
ATOM     22  C   UNL     1      90.493  88.927  74.291  1.00  0.00     0.007 C 
ATOM     23  C   UNL     1      90.924  91.374  73.709  1.00  0.00     0.007 C 
ENDBRANCH  20  21
ENDBRANCH  19  20
ENDBRANCH  18  19
ENDBRANCH  17  18
ENDBRANCH   1  17
TORSDOF 10
ENDMDL
