MODEL 1
REMARK VINA RESULT:    -5.545      0.000      0.000
REMARK INTER + INTRA:          -9.775
REMARK INTER:                  -8.948
REMARK INTRA:                  -0.827
REMARK UNBOUND:                -0.827
REMARK SMILES CCCCCCCCC(=O)NCc1ccc(O)c(OC)c1
REMARK SMILES IDX 7 1 6 2 5 3 4 4 3 5 2 6 1 7 8 8 9 9 10 10 11 11 12 13 13 14
REMARK SMILES IDX 21 15 14 16 18 17 15 18 16 19 19 20 20 21 17 22
REMARK H PARENT 11 12 17 23
REMARK Flexibility Score: inf
ROOT
ATOM      1  C   UNL     1      94.916  96.726  75.117  1.00  0.00     0.010 C 
ENDROOT
BRANCH   1   2
ATOM      2  C   UNL     1      94.206  96.051  76.325  1.00  0.00     0.001 C 
BRANCH   2   3
ATOM      3  C   UNL     1      92.787  96.640  76.578  1.00  0.00     0.000 C 
BRANCH   3   4
ATOM      4  C   UNL     1      91.708  95.565  76.890  1.00  0.00    -0.000 C 
BRANCH   4   5
ATOM      5  C   UNL     1      91.720  95.117  78.379  1.00  0.00    -0.000 C 
BRANCH   5   6
ATOM      6  C   UNL     1      91.041  93.737  78.592  1.00  0.00    -0.003 C 
ATOM      7  C   UNL     1      89.551  93.732  78.183  1.00  0.00     0.004 C 
ENDBRANCH   5   6
ENDBRANCH   4   5
ENDBRANCH   3   4
ENDBRANCH   2   3
ENDBRANCH   1   2
BRANCH   1   8
ATOM      8  C   UNL     1      95.311  98.209  75.367  1.00  0.00     0.100 C 
BRANCH   8   9
ATOM      9  C   UNL     1      96.170  98.343  76.568  1.00  0.00     0.220 C 
ATOM     10  O   UNL     1      97.415  98.292  76.418  1.00  0.00    -0.275 OA
ATOM     11  N   UNL     1      95.616  98.546  77.799  1.00  0.00    -0.352 N 
ATOM     12  H   UNL     1      94.608  98.484  77.819  1.00  0.00     0.163 HD
BRANCH  11  13
ATOM     13  C   UNL     1      96.335  98.830  79.003  1.00  0.00     0.151 C 
BRANCH  13  14
ATOM     14  C   UNL     1      95.975  97.943  80.141  1.00  0.00    -0.025 A 
ATOM     15  C   UNL     1      96.000  96.536  79.983  1.00  0.00     0.056 A 
ATOM     16  C   UNL     1      95.602  98.482  81.394  1.00  0.00     0.009 A 
ATOM     17  C   UNL     1      95.678  95.680  81.061  1.00  0.00     0.160 A 
ATOM     18  C   UNL     1      95.281  97.636  82.470  1.00  0.00     0.050 A 
ATOM     19  C   UNL     1      95.310  96.238  82.307  1.00  0.00     0.157 A 
BRANCH  17  20
ATOM     20  O   UNL     1      95.661  94.318  80.894  1.00  0.00    -0.493 OA
ATOM     21  C   UNL     1      95.083  93.885  79.650  1.00  0.00     0.278 C 
ENDBRANCH  17  20
BRANCH  19  22
ATOM     22  O   UNL     1      94.972  95.429  83.344  1.00  0.00    -0.504 OA
ATOM     23  H   UNL     1      94.279  94.826  83.066  1.00  0.00     0.293 HD
ENDBRANCH  19  22
ENDBRANCH  13  14
ENDBRANCH  11  13
ENDBRANCH   8   9
ENDBRANCH   1   8
TORSDOF 11
ENDMDL
MODEL 2
REMARK VINA RESULT:    -5.478     31.883     34.255
REMARK INTER + INTRA:          -9.667
REMARK INTER:                  -8.965
REMARK INTRA:                  -0.701
REMARK UNBOUND:                -0.827
REMARK SMILES CCCCCCCCC(=O)NCc1ccc(O)c(OC)c1
REMARK SMILES IDX 7 1 6 2 5 3 4 4 3 5 2 6 1 7 8 8 9 9 10 10 11 11 12 13 13 14
REMARK SMILES IDX 21 15 14 16 18 17 15 18 16 19 19 20 20 21 17 22
REMARK H PARENT 11 12 17 23
REMARK Flexibility Score: inf
ROOT
ATOM      1  C   UNL     1      63.626  81.847  71.860  1.00  0.00     0.010 C 
ENDROOT
BRANCH   1   2
ATOM      2  C   UNL     1      64.945  81.643  71.062  1.00  0.00     0.001 C 
BRANCH   2   3
ATOM      3  C   UNL     1      64.903  82.334  69.667  1.00  0.00     0.000 C 
BRANCH   3   4
ATOM      4  C   UNL     1      63.995  81.609  68.635  1.00  0.00    -0.000 C 
BRANCH   4   5
ATOM      5  C   UNL     1      62.671  82.376  68.357  1.00  0.00    -0.000 C 
BRANCH   5   6
ATOM      6  C   UNL     1      62.704  83.834  68.889  1.00  0.00    -0.003 C 
ATOM      7  C   UNL     1      61.416  84.225  69.648  1.00  0.00     0.004 C 
ENDBRANCH   5   6
ENDBRANCH   4   5
ENDBRANCH   3   4
ENDBRANCH   2   3
ENDBRANCH   1   2
BRANCH   1   8
ATOM      8  C   UNL     1      63.670  81.278  73.306  1.00  0.00     0.100 C 
BRANCH   8   9
ATOM      9  C   UNL     1      62.787  82.046  74.216  1.00  0.00     0.220 C 
ATOM     10  O   UNL     1      61.551  81.836  74.164  1.00  0.00    -0.275 OA
ATOM     11  N   UNL     1      63.314  82.937  75.106  1.00  0.00    -0.352 N 
ATOM     12  H   UNL     1      64.307  83.092  75.003  1.00  0.00     0.163 HD
BRANCH  11  13
ATOM     13  C   UNL     1      62.587  83.630  76.125  1.00  0.00     0.151 C 
BRANCH  13  14
ATOM     14  C   UNL     1      63.378  83.885  77.359  1.00  0.00    -0.025 A 
ATOM     15  C   UNL     1      62.720  84.177  78.578  1.00  0.00     0.056 A 
ATOM     16  C   UNL     1      64.791  83.845  77.338  1.00  0.00     0.009 A 
ATOM     17  C   UNL     1      63.458  84.404  79.763  1.00  0.00     0.160 A 
ATOM     18  C   UNL     1      65.530  84.070  78.514  1.00  0.00     0.050 A 
ATOM     19  C   UNL     1      64.869  84.357  79.724  1.00  0.00     0.157 A 
BRANCH  17  20
ATOM     20  O   UNL     1      62.820  84.728  80.934  1.00  0.00    -0.493 OA
ATOM     21  C   UNL     1      62.636  86.141  81.133  1.00  0.00     0.278 C 
ENDBRANCH  17  20
BRANCH  19  22
ATOM     22  O   UNL     1      65.592  84.599  80.847  1.00  0.00    -0.504 OA
ATOM     23  H   UNL     1      65.292  85.417  81.251  1.00  0.00     0.293 HD
ENDBRANCH  19  22
ENDBRANCH  13  14
ENDBRANCH  11  13
ENDBRANCH   8   9
ENDBRANCH   1   8
TORSDOF 11
ENDMDL
MODEL 3
REMARK VINA RESULT:    -5.411     22.611     26.173
REMARK INTER + INTRA:          -9.559
REMARK INTER:                  -8.674
REMARK INTRA:                  -0.885
REMARK UNBOUND:                -0.827
REMARK SMILES CCCCCCCCC(=O)NCc1ccc(O)c(OC)c1
REMARK SMILES IDX 7 1 6 2 5 3 4 4 3 5 2 6 1 7 8 8 9 9 10 10 11 11 12 13 13 14
REMARK SMILES IDX 21 15 14 16 18 17 15 18 16 19 19 20 20 21 17 22
REMARK H PARENT 11 12 17 23
REMARK Flexibility Score: inf
ROOT
ATOM      1  C   UNL     1      74.696  81.454  64.359  1.00  0.00     0.010 C 
ENDROOT
BRANCH   1   2
ATOM      2  C   UNL     1      73.454  80.569  64.669  1.00  0.00     0.001 C 
BRANCH   2   3
ATOM      3  C   UNL     1      72.120  81.264  64.264  1.00  0.00     0.000 C 
BRANCH   3   4
ATOM      4  C   UNL     1      71.857  82.600  65.015  1.00  0.00    -0.000 C 
BRANCH   4   5
ATOM      5  C   UNL     1      71.768  82.414  66.557  1.00  0.00    -0.000 C 
BRANCH   5   6
ATOM      6  C   UNL     1      70.313  82.525  67.087  1.00  0.00    -0.003 C 
ATOM      7  C   UNL     1      69.327  83.064  66.027  1.00  0.00     0.004 C 
ENDBRANCH   5   6
ENDBRANCH   4   5
ENDBRANCH   3   4
ENDBRANCH   2   3
ENDBRANCH   1   2
BRANCH   1   8
ATOM      8  C   UNL     1      75.846  81.310  65.395  1.00  0.00     0.100 C 
BRANCH   8   9
ATOM      9  C   UNL     1      76.722  82.506  65.398  1.00  0.00     0.220 C 
ATOM     10  O   UNL     1      76.646  83.302  64.432  1.00  0.00    -0.275 OA
ATOM     11  N   UNL     1      77.566  82.744  66.445  1.00  0.00    -0.352 N 
ATOM     12  H   UNL     1      77.611  81.999  67.124  1.00  0.00     0.163 HD
BRANCH  11  13
ATOM     13  C   UNL     1      78.353  83.925  66.632  1.00  0.00     0.151 C 
BRANCH  13  14
ATOM     14  C   UNL     1      77.745  84.911  67.565  1.00  0.00    -0.025 A 
ATOM     15  C   UNL     1      76.884  84.474  68.601  1.00  0.00     0.056 A 
ATOM     16  C   UNL     1      78.010  86.294  67.437  1.00  0.00     0.009 A 
ATOM     17  C   UNL     1      76.313  85.397  69.507  1.00  0.00     0.160 A 
ATOM     18  C   UNL     1      77.446  87.217  68.335  1.00  0.00     0.050 A 
ATOM     19  C   UNL     1      76.593  86.775  69.364  1.00  0.00     0.157 A 
BRANCH  17  20
ATOM     20  O   UNL     1      75.445  84.976  70.483  1.00  0.00    -0.493 OA
ATOM     21  C   UNL     1      76.022  84.057  71.427  1.00  0.00     0.278 C 
ENDBRANCH  17  20
BRANCH  19  22
ATOM     22  O   UNL     1      76.031  87.676  70.210  1.00  0.00    -0.504 OA
ATOM     23  H   UNL     1      76.204  87.415  71.117  1.00  0.00     0.293 HD
ENDBRANCH  19  22
ENDBRANCH  13  14
ENDBRANCH  11  13
ENDBRANCH   8   9
ENDBRANCH   1   8
TORSDOF 11
ENDMDL
MODEL 4
REMARK VINA RESULT:    -5.230     12.833     14.713
REMARK INTER + INTRA:          -9.267
REMARK INTER:                  -8.633
REMARK INTRA:                  -0.634
REMARK UNBOUND:                -0.827
REMARK SMILES CCCCCCCCC(=O)NCc1ccc(O)c(OC)c1
REMARK SMILES IDX 7 1 6 2 5 3 4 4 3 5 2 6 1 7 8 8 9 9 10 10 11 11 12 13 13 14
REMARK SMILES IDX 21 15 14 16 18 17 15 18 16 19 19 20 20 21 17 22
REMARK H PARENT 11 12 17 23
REMARK Flexibility Score: inf
ROOT
ATOM      1  C   UNL     1      96.158  89.057  89.166  1.00  0.00     0.010 C 
ENDROOT
BRANCH   1   2
ATOM      2  C   UNL     1      95.732  90.200  90.132  1.00  0.00     0.001 C 
BRANCH   2   3
ATOM      3  C   UNL     1      94.567  91.056  89.554  1.00  0.00     0.000 C 
BRANCH   3   4
ATOM      4  C   UNL     1      93.207  90.832  90.274  1.00  0.00    -0.000 C 
BRANCH   4   5
ATOM      5  C   UNL     1      92.866  91.968  91.279  1.00  0.00    -0.000 C 
BRANCH   5   6
ATOM      6  C   UNL     1      93.755  93.225  91.082  1.00  0.00    -0.003 C 
ATOM      7  C   UNL     1      92.939  94.488  90.727  1.00  0.00     0.004 C 
ENDBRANCH   5   6
ENDBRANCH   4   5
ENDBRANCH   3   4
ENDBRANCH   2   3
ENDBRANCH   1   2
BRANCH   1   8
ATOM      8  C   UNL     1      95.879  87.631  89.718  1.00  0.00     0.100 C 
BRANCH   8   9
ATOM      9  C   UNL     1      95.410  86.720  88.646  1.00  0.00     0.220 C 
ATOM     10  O   UNL     1      94.334  86.100  88.820  1.00  0.00    -0.275 OA
ATOM     11  N   UNL     1      96.123  86.585  87.489  1.00  0.00    -0.352 N 
ATOM     12  H   UNL     1      97.014  87.059  87.490  1.00  0.00     0.163 HD
BRANCH  11  13
ATOM     13  C   UNL     1      95.708  85.853  86.332  1.00  0.00     0.151 C 
BRANCH  13  14
ATOM     14  C   UNL     1      96.730  84.899  85.825  1.00  0.00    -0.025 A 
ATOM     15  C   UNL     1      97.837  84.545  86.633  1.00  0.00     0.056 A 
ATOM     16  C   UNL     1      96.620  84.333  84.534  1.00  0.00     0.009 A 
ATOM     17  C   UNL     1      98.808  83.626  86.172  1.00  0.00     0.160 A 
ATOM     18  C   UNL     1      97.581  83.418  84.070  1.00  0.00     0.050 A 
ATOM     19  C   UNL     1      98.679  83.068  84.880  1.00  0.00     0.157 A 
BRANCH  17  20
ATOM     20  O   UNL     1      99.902  83.317  86.940  1.00  0.00    -0.493 OA
ATOM     21  C   UNL     1      99.612  83.153  88.339  1.00  0.00     0.278 C 
ENDBRANCH  17  20
BRANCH  19  22
ATOM     22  O   UNL     1      99.616  82.205  84.412  1.00  0.00    -0.504 OA
ATOM     23  H   UNL     1     100.266  82.688  83.895  1.00  0.00     0.293 HD
ENDBRANCH  19  22
ENDBRANCH  13  14
ENDBRANCH  11  13
ENDBRANCH   8   9
ENDBRANCH   1   8
TORSDOF 11
ENDMDL
MODEL 5
REMARK VINA RESULT:    -5.188     22.460     25.880
REMARK INTER + INTRA:          -9.200
REMARK INTER:                  -8.137
REMARK INTRA:                  -1.062
REMARK UNBOUND:                -0.827
REMARK SMILES CCCCCCCCC(=O)NCc1ccc(O)c(OC)c1
REMARK SMILES IDX 7 1 6 2 5 3 4 4 3 5 2 6 1 7 8 8 9 9 10 10 11 11 12 13 13 14
REMARK SMILES IDX 21 15 14 16 18 17 15 18 16 19 19 20 20 21 17 22
REMARK H PARENT 11 12 17 23
REMARK Flexibility Score: inf
ROOT
ATOM      1  C   UNL     1      75.063  82.260  63.779  1.00  0.00     0.010 C 
ENDROOT
BRANCH   1   2
ATOM      2  C   UNL     1      74.538  80.850  63.384  1.00  0.00     0.001 C 
BRANCH   2   3
ATOM      3  C   UNL     1      73.021  80.678  63.693  1.00  0.00     0.000 C 
BRANCH   3   4
ATOM      4  C   UNL     1      72.688  80.672  65.212  1.00  0.00    -0.000 C 
BRANCH   4   5
ATOM      5  C   UNL     1      71.608  81.724  65.594  1.00  0.00    -0.000 C 
BRANCH   5   6
ATOM      6  C   UNL     1      72.156  83.176  65.570  1.00  0.00    -0.003 C 
ATOM      7  C   UNL     1      73.096  83.482  66.756  1.00  0.00     0.004 C 
ENDBRANCH   5   6
ENDBRANCH   4   5
ENDBRANCH   3   4
ENDBRANCH   2   3
ENDBRANCH   1   2
BRANCH   1   8
ATOM      8  C   UNL     1      76.588  82.303  64.074  1.00  0.00     0.100 C 
BRANCH   8   9
ATOM      9  C   UNL     1      76.853  82.439  65.527  1.00  0.00     0.220 C 
ATOM     10  O   UNL     1      76.110  81.822  66.328  1.00  0.00    -0.275 OA
ATOM     11  N   UNL     1      77.899  83.193  65.974  1.00  0.00    -0.352 N 
ATOM     12  H   UNL     1      78.377  83.714  65.253  1.00  0.00     0.163 HD
BRANCH  11  13
ATOM     13  C   UNL     1      78.341  83.288  67.332  1.00  0.00     0.151 C 
BRANCH  13  14
ATOM     14  C   UNL     1      77.920  84.540  68.015  1.00  0.00    -0.025 A 
ATOM     15  C   UNL     1      77.722  85.727  67.270  1.00  0.00     0.056 A 
ATOM     16  C   UNL     1      77.713  84.571  69.414  1.00  0.00     0.009 A 
ATOM     17  C   UNL     1      77.304  86.920  67.903  1.00  0.00     0.160 A 
ATOM     18  C   UNL     1      77.296  85.754  70.050  1.00  0.00     0.050 A 
ATOM     19  C   UNL     1      77.099  86.930  69.301  1.00  0.00     0.157 A 
BRANCH  17  20
ATOM     20  O   UNL     1      77.154  88.080  67.185  1.00  0.00    -0.493 OA
ATOM     21  C   UNL     1      75.986  88.105  66.346  1.00  0.00     0.278 C 
ENDBRANCH  17  20
BRANCH  19  22
ATOM     22  O   UNL     1      76.723  88.074  69.928  1.00  0.00    -0.504 OA
ATOM     23  H   UNL     1      77.500  88.519  70.275  1.00  0.00     0.293 HD
ENDBRANCH  19  22
ENDBRANCH  13  14
ENDBRANCH  11  13
ENDBRANCH   8   9
ENDBRANCH   1   8
TORSDOF 11
ENDMDL
MODEL 6
REMARK VINA RESULT:    -5.179     23.515     26.722
REMARK INTER + INTRA:          -9.185
REMARK INTER:                  -7.995
REMARK INTRA:                  -1.190
REMARK UNBOUND:                -0.827
REMARK SMILES CCCCCCCCC(=O)NCc1ccc(O)c(OC)c1
REMARK SMILES IDX 7 1 6 2 5 3 4 4 3 5 2 6 1 7 8 8 9 9 10 10 11 11 12 13 13 14
REMARK SMILES IDX 21 15 14 16 18 17 15 18 16 19 19 20 20 21 17 22
REMARK H PARENT 11 12 17 23
REMARK Flexibility Score: inf
ROOT
ATOM      1  C   UNL     1      71.640  83.392  67.210  1.00  0.00     0.010 C 
ENDROOT
BRANCH   1   2
ATOM      2  C   UNL     1      72.448  84.707  67.407  1.00  0.00     0.001 C 
BRANCH   2   3
ATOM      3  C   UNL     1      71.611  85.812  68.116  1.00  0.00     0.000 C 
BRANCH   3   4
ATOM      4  C   UNL     1      71.765  85.819  69.664  1.00  0.00    -0.000 C 
BRANCH   4   5
ATOM      5  C   UNL     1      70.467  85.381  70.398  1.00  0.00    -0.000 C 
BRANCH   5   6
ATOM      6  C   UNL     1      70.426  83.854  70.678  1.00  0.00    -0.003 C 
ATOM      7  C   UNL     1      69.168  83.171  70.098  1.00  0.00     0.004 C 
ENDBRANCH   5   6
ENDBRANCH   4   5
ENDBRANCH   3   4
ENDBRANCH   2   3
ENDBRANCH   1   2
BRANCH   1   8
ATOM      8  C   UNL     1      71.719  82.816  65.769  1.00  0.00     0.100 C 
BRANCH   8   9
ATOM      9  C   UNL     1      73.116  82.489  65.394  1.00  0.00     0.220 C 
ATOM     10  O   UNL     1      73.508  82.786  64.240  1.00  0.00    -0.275 OA
ATOM     11  N   UNL     1      73.958  81.905  66.296  1.00  0.00    -0.352 N 
ATOM     12  H   UNL     1      73.517  81.630  67.162  1.00  0.00     0.163 HD
BRANCH  11  13
ATOM     13  C   UNL     1      75.357  81.670  66.104  1.00  0.00     0.151 C 
BRANCH  13  14
ATOM     14  C   UNL     1      76.231  82.665  66.781  1.00  0.00    -0.025 A 
ATOM     15  C   UNL     1      75.791  83.318  67.957  1.00  0.00     0.056 A 
ATOM     16  C   UNL     1      77.510  82.979  66.264  1.00  0.00     0.009 A 
ATOM     17  C   UNL     1      76.618  84.252  68.621  1.00  0.00     0.160 A 
ATOM     18  C   UNL     1      78.338  83.907  66.921  1.00  0.00     0.050 A 
ATOM     19  C   UNL     1      77.894  84.550  68.092  1.00  0.00     0.157 A 
BRANCH  17  20
ATOM     20  O   UNL     1      76.173  84.915  69.737  1.00  0.00    -0.493 OA
ATOM     21  C   UNL     1      76.292  84.161  70.956  1.00  0.00     0.278 C 
ENDBRANCH  17  20
BRANCH  19  22
ATOM     22  O   UNL     1      78.690  85.465  68.703  1.00  0.00    -0.504 OA
ATOM     23  H   UNL     1      79.446  85.021  69.094  1.00  0.00     0.293 HD
ENDBRANCH  19  22
ENDBRANCH  13  14
ENDBRANCH  11  13
ENDBRANCH   8   9
ENDBRANCH   1   8
TORSDOF 11
ENDMDL
MODEL 7
REMARK VINA RESULT:    -5.146     34.386     36.110
REMARK INTER + INTRA:          -9.131
REMARK INTER:                  -7.080
REMARK INTRA:                  -2.051
REMARK UNBOUND:                -0.827
REMARK SMILES CCCCCCCCC(=O)NCc1ccc(O)c(OC)c1
REMARK SMILES IDX 7 1 6 2 5 3 4 4 3 5 2 6 1 7 8 8 9 9 10 10 11 11 12 13 13 14
REMARK SMILES IDX 21 15 14 16 18 17 15 18 16 19 19 20 20 21 17 22
REMARK H PARENT 11 12 17 23
REMARK Flexibility Score: inf
ROOT
ATOM      1  C   UNL     1      63.520  81.757  73.783  1.00  0.00     0.010 C 
ENDROOT
BRANCH   1   2
ATOM      2  C   UNL     1      61.966  81.707  73.749  1.00  0.00     0.001 C 
BRANCH   2   3
ATOM      3  C   UNL     1      61.338  83.101  73.454  1.00  0.00     0.000 C 
BRANCH   3   4
ATOM      4  C   UNL     1      62.184  84.294  73.983  1.00  0.00    -0.000 C 
BRANCH   4   5
ATOM      5  C   UNL     1      62.127  85.532  73.044  1.00  0.00    -0.000 C 
BRANCH   5   6
ATOM      6  C   UNL     1      60.994  86.521  73.429  1.00  0.00    -0.003 C 
ATOM      7  C   UNL     1      61.338  87.989  73.091  1.00  0.00     0.004 C 
ENDBRANCH   5   6
ENDBRANCH   4   5
ENDBRANCH   3   4
ENDBRANCH   2   3
ENDBRANCH   1   2
BRANCH   1   8
ATOM      8  C   UNL     1      64.193  81.329  72.449  1.00  0.00     0.100 C 
BRANCH   8   9
ATOM      9  C   UNL     1      64.167  82.428  71.454  1.00  0.00     0.220 C 
ATOM     10  O   UNL     1      64.960  83.388  71.606  1.00  0.00    -0.275 OA
ATOM     11  N   UNL     1      63.318  82.377  70.386  1.00  0.00    -0.352 N 
ATOM     12  H   UNL     1      62.665  81.607  70.408  1.00  0.00     0.163 HD
BRANCH  11  13
ATOM     13  C   UNL     1      63.296  83.298  69.291  1.00  0.00     0.151 C 
BRANCH  13  14
ATOM     14  C   UNL     1      62.320  84.408  69.457  1.00  0.00    -0.025 A 
ATOM     15  C   UNL     1      60.965  84.126  69.754  1.00  0.00     0.056 A 
ATOM     16  C   UNL     1      62.722  85.756  69.319  1.00  0.00     0.009 A 
ATOM     17  C   UNL     1      60.029  85.171  69.932  1.00  0.00     0.160 A 
ATOM     18  C   UNL     1      61.796  86.800  69.497  1.00  0.00     0.050 A 
ATOM     19  C   UNL     1      60.451  86.513  69.795  1.00  0.00     0.157 A 
BRANCH  17  20
ATOM     20  O   UNL     1      58.708  84.895  70.179  1.00  0.00    -0.493 OA
ATOM     21  C   UNL     1      58.438  84.456  71.522  1.00  0.00     0.278 C 
ENDBRANCH  17  20
BRANCH  19  22
ATOM     22  O   UNL     1      59.559  87.526  69.937  1.00  0.00    -0.504 OA
ATOM     23  H   UNL     1      59.819  88.262  69.378  1.00  0.00     0.293 HD
ENDBRANCH  19  22
ENDBRANCH  13  14
ENDBRANCH  11  13
ENDBRANCH   8   9
ENDBRANCH   1   8
TORSDOF 11
ENDMDL
MODEL 8
REMARK VINA RESULT:    -5.102      2.265      4.599
REMARK INTER + INTRA:          -9.060
REMARK INTER:                  -7.515
REMARK INTRA:                  -1.545
REMARK UNBOUND:                -0.827
REMARK SMILES CCCCCCCCC(=O)NCc1ccc(O)c(OC)c1
REMARK SMILES IDX 7 1 6 2 5 3 4 4 3 5 2 6 1 7 8 8 9 9 10 10 11 11 12 13 13 14
REMARK SMILES IDX 21 15 14 16 18 17 15 18 16 19 19 20 20 21 17 22
REMARK H PARENT 11 12 17 23
REMARK Flexibility Score: inf
ROOT
ATOM      1  C   UNL     1      93.188  95.157  76.710  1.00  0.00     0.010 C 
ENDROOT
BRANCH   1   2
ATOM      2  C   UNL     1      93.488  96.504  75.993  1.00  0.00     0.001 C 
BRANCH   2   3
ATOM      3  C   UNL     1      94.911  96.529  75.360  1.00  0.00     0.000 C 
BRANCH   3   4
ATOM      4  C   UNL     1      95.542  97.949  75.293  1.00  0.00    -0.000 C 
BRANCH   4   5
ATOM      5  C   UNL     1      95.189  98.821  76.532  1.00  0.00    -0.000 C 
BRANCH   5   6
ATOM      6  C   UNL     1      96.289  98.772  77.627  1.00  0.00    -0.003 C 
ATOM      7  C   UNL     1      95.913  97.859  78.815  1.00  0.00     0.004 C 
ENDBRANCH   5   6
ENDBRANCH   4   5
ENDBRANCH   3   4
ENDBRANCH   2   3
ENDBRANCH   1   2
BRANCH   1   8
ATOM      8  C   UNL     1      92.964  95.296  78.242  1.00  0.00     0.100 C 
BRANCH   8   9
ATOM      9  C   UNL     1      94.093  94.713  79.008  1.00  0.00     0.220 C 
ATOM     10  O   UNL     1      95.076  94.265  78.370  1.00  0.00    -0.275 OA
ATOM     11  N   UNL     1      94.069  94.694  80.373  1.00  0.00    -0.352 N 
ATOM     12  H   UNL     1      93.196  94.999  80.779  1.00  0.00     0.163 HD
BRANCH  11  13
ATOM     13  C   UNL     1      95.148  94.292  81.222  1.00  0.00     0.151 C 
BRANCH  13  14
ATOM     14  C   UNL     1      96.027  95.413  81.649  1.00  0.00    -0.025 A 
ATOM     15  C   UNL     1      95.522  96.434  82.490  1.00  0.00     0.056 A 
ATOM     16  C   UNL     1      97.374  95.483  81.224  1.00  0.00     0.009 A 
ATOM     17  C   UNL     1      96.351  97.496  82.918  1.00  0.00     0.160 A 
ATOM     18  C   UNL     1      98.203  96.537  81.647  1.00  0.00     0.050 A 
ATOM     19  C   UNL     1      97.695  97.547  82.486  1.00  0.00     0.157 A 
BRANCH  17  20
ATOM     20  O   UNL     1      95.848  98.507  83.698  1.00  0.00    -0.493 OA
ATOM     21  C   UNL     1      95.192  99.552  82.958  1.00  0.00     0.278 C 
ENDBRANCH  17  20
BRANCH  19  22
ATOM     22  O   UNL     1      98.496  98.575  82.866  1.00  0.00    -0.504 OA
ATOM     23  H   UNL     1      98.155  98.964  83.675  1.00  0.00     0.293 HD
ENDBRANCH  19  22
ENDBRANCH  13  14
ENDBRANCH  11  13
ENDBRANCH   8   9
ENDBRANCH   1   8
TORSDOF 11
ENDMDL
MODEL 9
REMARK VINA RESULT:    -5.063     22.306     26.221
REMARK INTER + INTRA:          -8.997
REMARK INTER:                  -7.846
REMARK INTRA:                  -1.151
REMARK UNBOUND:                -0.827
REMARK SMILES CCCCCCCCC(=O)NCc1ccc(O)c(OC)c1
REMARK SMILES IDX 7 1 6 2 5 3 4 4 3 5 2 6 1 7 8 8 9 9 10 10 11 11 12 13 13 14
REMARK SMILES IDX 21 15 14 16 18 17 15 18 16 19 19 20 20 21 17 22
REMARK H PARENT 11 12 17 23
REMARK Flexibility Score: inf
ROOT
ATOM      1  C   UNL     1      77.134  87.072  69.748  1.00  0.00     0.010 C 
ENDROOT
BRANCH   1   2
ATOM      2  C   UNL     1      75.814  87.376  68.981  1.00  0.00     0.001 C 
BRANCH   2   3
ATOM      3  C   UNL     1      76.014  88.441  67.864  1.00  0.00     0.000 C 
BRANCH   3   4
ATOM      4  C   UNL     1      75.807  87.888  66.426  1.00  0.00    -0.000 C 
BRANCH   4   5
ATOM      5  C   UNL     1      77.075  87.184  65.865  1.00  0.00    -0.000 C 
BRANCH   5   6
ATOM      6  C   UNL     1      76.839  86.556  64.465  1.00  0.00    -0.003 C 
ATOM      7  C   UNL     1      75.677  87.223  63.697  1.00  0.00     0.004 C 
ENDBRANCH   5   6
ENDBRANCH   4   5
ENDBRANCH   3   4
ENDBRANCH   2   3
ENDBRANCH   1   2
BRANCH   1   8
ATOM      8  C   UNL     1      77.403  85.556  69.960  1.00  0.00     0.100 C 
BRANCH   8   9
ATOM      9  C   UNL     1      77.637  84.863  68.671  1.00  0.00     0.220 C 
ATOM     10  O   UNL     1      78.717  85.075  68.068  1.00  0.00    -0.275 OA
ATOM     11  N   UNL     1      76.709  83.994  68.171  1.00  0.00    -0.352 N 
ATOM     12  H   UNL     1      75.844  83.964  68.690  1.00  0.00     0.163 HD
BRANCH  11  13
ATOM     13  C   UNL     1      76.877  83.163  67.018  1.00  0.00     0.151 C 
BRANCH  13  14
ATOM     14  C   UNL     1      75.598  82.691  66.426  1.00  0.00    -0.025 A 
ATOM     15  C   UNL     1      74.420  83.465  66.563  1.00  0.00     0.056 A 
ATOM     16  C   UNL     1      75.531  81.467  65.721  1.00  0.00     0.009 A 
ATOM     17  C   UNL     1      73.201  83.038  65.990  1.00  0.00     0.160 A 
ATOM     18  C   UNL     1      74.321  81.037  65.148  1.00  0.00     0.050 A 
ATOM     19  C   UNL     1      73.154  81.813  65.287  1.00  0.00     0.157 A 
BRANCH  17  20
ATOM     20  O   UNL     1      72.052  83.768  66.161  1.00  0.00    -0.493 OA
ATOM     21  C   UNL     1      71.706  84.010  67.536  1.00  0.00     0.278 C 
ENDBRANCH  17  20
BRANCH  19  22
ATOM     22  O   UNL     1      71.985  81.376  64.753  1.00  0.00    -0.504 OA
ATOM     23  H   UNL     1      72.133  81.089  63.849  1.00  0.00     0.293 HD
ENDBRANCH  19  22
ENDBRANCH  13  14
ENDBRANCH  11  13
ENDBRANCH   8   9
ENDBRANCH   1   8
TORSDOF 11
ENDMDL
MODEL 10
REMARK VINA RESULT:    -4.973     17.848     20.949
REMARK INTER + INTRA:          -8.853
REMARK INTER:                  -8.042
REMARK INTRA:                  -0.811
REMARK UNBOUND:                -0.827
REMARK SMILES CCCCCCCCC(=O)NCc1ccc(O)c(OC)c1
REMARK SMILES IDX 7 1 6 2 5 3 4 4 3 5 2 6 1 7 8 8 9 9 10 10 11 11 12 13 13 14
REMARK SMILES IDX 21 15 14 16 18 17 15 18 16 19 19 20 20 21 17 22
REMARK H PARENT 11 12 17 23
REMARK Flexibility Score: inf
ROOT
ATOM      1  C   UNL     1      75.465  87.818  70.090  1.00  0.00     0.010 C 
ENDROOT
BRANCH   1   2
ATOM      2  C   UNL     1      75.129  86.330  70.395  1.00  0.00     0.001 C 
BRANCH   2   3
ATOM      3  C   UNL     1      76.338  85.386  70.128  1.00  0.00     0.000 C 
BRANCH   3   4
ATOM      4  C   UNL     1      77.645  86.135  69.740  1.00  0.00    -0.000 C 
BRANCH   4   5
ATOM      5  C   UNL     1      78.340  85.522  68.492  1.00  0.00    -0.000 C 
BRANCH   5   6
ATOM      6  C   UNL     1      77.689  85.983  67.160  1.00  0.00    -0.003 C 
ATOM      7  C   UNL     1      77.640  87.520  67.017  1.00  0.00     0.004 C 
ENDBRANCH   5   6
ENDBRANCH   4   5
ENDBRANCH   3   4
ENDBRANCH   2   3
ENDBRANCH   1   2
BRANCH   1   8
ATOM      8  C   UNL     1      74.718  88.832  71.000  1.00  0.00     0.100 C 
BRANCH   8   9
ATOM      9  C   UNL     1      74.863  90.219  70.496  1.00  0.00     0.220 C 
ATOM     10  O   UNL     1      74.258  90.536  69.444  1.00  0.00    -0.275 OA
ATOM     11  N   UNL     1      75.613  91.132  71.181  1.00  0.00    -0.352 N 
ATOM     12  H   UNL     1      76.124  90.749  71.963  1.00  0.00     0.163 HD
BRANCH  11  13
ATOM     13  C   UNL     1      75.715  92.526  70.877  1.00  0.00     0.151 C 
BRANCH  13  14
ATOM     14  C   UNL     1      76.507  93.301  71.869  1.00  0.00    -0.025 A 
ATOM     15  C   UNL     1      76.549  94.715  71.800  1.00  0.00     0.056 A 
ATOM     16  C   UNL     1      77.232  92.647  72.892  1.00  0.00     0.009 A 
ATOM     17  C   UNL     1      77.283  95.466  72.747  1.00  0.00     0.160 A 
ATOM     18  C   UNL     1      77.963  93.388  73.837  1.00  0.00     0.050 A 
ATOM     19  C   UNL     1      77.998  94.794  73.764  1.00  0.00     0.157 A 
BRANCH  17  20
ATOM     20  O   UNL     1      77.357  96.833  72.653  1.00  0.00    -0.493 OA
ATOM     21  C   UNL     1      77.956  97.308  71.434  1.00  0.00     0.278 C 
ENDBRANCH  17  20
BRANCH  19  22
ATOM     22  O   UNL     1      78.730  95.499  74.664  1.00  0.00    -0.504 OA
ATOM     23  H   UNL     1      79.664  95.378  74.482  1.00  0.00     0.293 HD
ENDBRANCH  19  22
ENDBRANCH  13  14
ENDBRANCH  11  13
ENDBRANCH   8   9
ENDBRANCH   1   8
TORSDOF 11
ENDMDL
