MODEL 1
REMARK VINA RESULT:    -6.798      0.000      0.000
REMARK INTER + INTRA:         -11.602
REMARK INTER:                 -10.970
REMARK INTRA:                  -0.632
REMARK UNBOUND:                -0.632
REMARK SMILES COc1cc(CNC(=O)CCCCC/C=C/C(C)C)ccc1O
REMARK SMILES IDX 11 1 10 2 8 3 7 4 9 6 6 7 5 8 3 9 22 10 4 11 21 12 20 13
REMARK SMILES IDX 2 14 1 15 23 16 12 18 13 19 14 20 15 21 16 22 17 23 18 24
REMARK SMILES IDX 19 25
REMARK H PARENT 7 5 23 17
REMARK Flexibility Score: inf
ROOT
ATOM      1  C   UNL     1      94.998  97.827  72.584  1.00  0.00     0.010 C 
ENDROOT
BRANCH   1   2
ATOM      2  C   UNL     1      95.199  97.706  74.116  1.00  0.00     0.100 C 
BRANCH   2   3
ATOM      3  C   UNL     1      95.447  96.328  74.581  1.00  0.00     0.220 C 
ATOM      4  N   UNL     1      94.485  95.666  75.282  1.00  0.00    -0.352 N 
ATOM      5  H   UNL     1      93.667  96.218  75.500  1.00  0.00     0.163 HD
ATOM      6  O   UNL     1      96.536  95.784  74.280  1.00  0.00    -0.275 OA
BRANCH   4   7
ATOM      7  C   UNL     1      94.556  94.305  75.705  1.00  0.00     0.151 C 
BRANCH   7   8
ATOM      8  C   UNL     1      93.216  93.673  75.824  1.00  0.00    -0.025 A 
ATOM      9  C   UNL     1      91.199  92.729  74.780  1.00  0.00     0.160 A 
ATOM     10  C   UNL     1      90.638  92.517  76.059  1.00  0.00     0.157 A 
ATOM     11  C   UNL     1      92.478  93.313  74.673  1.00  0.00     0.056 A 
ATOM     12  C   UNL     1      91.370  92.855  77.211  1.00  0.00     0.050 A 
ATOM     13  C   UNL     1      92.654  93.420  77.095  1.00  0.00     0.009 A 
BRANCH   9  14
ATOM     14  O   UNL     1      90.532  92.322  73.655  1.00  0.00    -0.493 OA
ATOM     15  C   UNL     1      89.790  93.366  73.003  1.00  0.00     0.278 C 
ENDBRANCH   9  14
BRANCH  10  16
ATOM     16  O   UNL     1      89.399  91.984  76.205  1.00  0.00    -0.504 OA
ATOM     17  H   UNL     1      89.298  91.241  75.605  1.00  0.00     0.293 HD
ENDBRANCH  10  16
ENDBRANCH   7   8
ENDBRANCH   4   7
ENDBRANCH   2   3
ENDBRANCH   1   2
BRANCH   1  18
ATOM     18  C   UNL     1      93.547  98.255  72.243  1.00  0.00     0.001 C 
BRANCH  18  19
ATOM     19  C   UNL     1      93.328  98.574  70.742  1.00  0.00     0.004 C 
BRANCH  19  20
ATOM     20  C   UNL     1      91.849  98.956  70.454  1.00  0.00     0.027 C 
BRANCH  20  21
ATOM     21  C   UNL     1      91.435  98.697  69.085  1.00  0.00    -0.031 C 
ATOM     22  C   UNL     1      90.189  98.299  68.774  1.00  0.00    -0.028 C 
BRANCH  22  23
ATOM     23  C   UNL     1      89.740  98.037  67.409  1.00  0.00     0.005 C 
ATOM     24  C   UNL     1      90.550  98.895  66.402  1.00  0.00     0.012 C 
ATOM     25  C   UNL     1      89.832  96.518  67.097  1.00  0.00     0.012 C 
ENDBRANCH  22  23
ENDBRANCH  20  21
ENDBRANCH  19  20
ENDBRANCH  18  19
ENDBRANCH   1  18
TORSDOF 11
ENDMDL
MODEL 2
REMARK VINA RESULT:    -5.916     16.111     18.349
REMARK INTER + INTRA:         -10.179
REMARK INTER:                  -9.362
REMARK INTRA:                  -0.818
REMARK UNBOUND:                -0.632
REMARK SMILES COc1cc(CNC(=O)CCCCC/C=C/C(C)C)ccc1O
REMARK SMILES IDX 11 1 10 2 8 3 7 4 9 6 6 7 5 8 3 9 22 10 4 11 21 12 20 13
REMARK SMILES IDX 2 14 1 15 23 16 12 18 13 19 14 20 15 21 16 22 17 23 18 24
REMARK SMILES IDX 19 25
REMARK H PARENT 7 5 23 17
REMARK Flexibility Score: inf
ROOT
ATOM      1  C   UNL     1      95.587  81.503  83.603  1.00  0.00     0.010 C 
ENDROOT
BRANCH   1   2
ATOM      2  C   UNL     1      95.719  82.026  85.057  1.00  0.00     0.100 C 
BRANCH   2   3
ATOM      3  C   UNL     1      94.429  82.307  85.714  1.00  0.00     0.220 C 
ATOM      4  N   UNL     1      93.265  82.110  85.034  1.00  0.00    -0.352 N 
ATOM      5  H   UNL     1      93.382  81.843  84.066  1.00  0.00     0.163 HD
ATOM      6  O   UNL     1      94.439  82.686  86.909  1.00  0.00    -0.275 OA
BRANCH   4   7
ATOM      7  C   UNL     1      91.954  82.249  85.578  1.00  0.00     0.151 C 
BRANCH   7   8
ATOM      8  C   UNL     1      91.105  81.053  85.337  1.00  0.00    -0.025 A 
ATOM      9  C   UNL     1      88.887  80.033  85.042  1.00  0.00     0.160 A 
ATOM     10  C   UNL     1      89.488  78.760  84.931  1.00  0.00     0.157 A 
ATOM     11  C   UNL     1      89.697  81.167  85.253  1.00  0.00     0.056 A 
ATOM     12  C   UNL     1      90.888  78.638  84.996  1.00  0.00     0.050 A 
ATOM     13  C   UNL     1      91.692  79.777  85.187  1.00  0.00     0.009 A 
BRANCH   9  14
ATOM     14  O   UNL     1      87.533  80.174  84.893  1.00  0.00    -0.493 OA
ATOM     15  C   UNL     1      87.144  80.908  83.720  1.00  0.00     0.278 C 
ENDBRANCH   9  14
BRANCH  10  16
ATOM     16  O   UNL     1      88.742  77.641  84.756  1.00  0.00    -0.504 OA
ATOM     17  H   UNL     1      88.635  77.472  83.816  1.00  0.00     0.293 HD
ENDBRANCH  10  16
ENDBRANCH   7   8
ENDBRANCH   4   7
ENDBRANCH   2   3
ENDBRANCH   1   2
BRANCH   1  18
ATOM     18  C   UNL     1      96.763  80.562  83.238  1.00  0.00     0.001 C 
BRANCH  18  19
ATOM     19  C   UNL     1      97.440  80.906  81.887  1.00  0.00     0.004 C 
BRANCH  19  20
ATOM     20  C   UNL     1      97.109  82.358  81.441  1.00  0.00     0.027 C 
BRANCH  20  21
ATOM     21  C   UNL     1      97.068  82.531  79.999  1.00  0.00    -0.031 C 
ATOM     22  C   UNL     1      98.177  82.736  79.267  1.00  0.00    -0.028 C 
BRANCH  22  23
ATOM     23  C   UNL     1      98.170  82.908  77.817  1.00  0.00     0.005 C 
ATOM     24  C   UNL     1      99.566  82.572  77.228  1.00  0.00     0.012 C 
ATOM     25  C   UNL     1      97.041  82.052  77.180  1.00  0.00     0.012 C 
ENDBRANCH  22  23
ENDBRANCH  20  21
ENDBRANCH  19  20
ENDBRANCH  18  19
ENDBRANCH   1  18
TORSDOF 11
ENDMDL
MODEL 3
REMARK VINA RESULT:    -5.889     14.818     17.679
REMARK INTER + INTRA:         -10.137
REMARK INTER:                  -9.382
REMARK INTRA:                  -0.755
REMARK UNBOUND:                -0.632
REMARK SMILES COc1cc(CNC(=O)CCCCC/C=C/C(C)C)ccc1O
REMARK SMILES IDX 11 1 10 2 8 3 7 4 9 6 6 7 5 8 3 9 22 10 4 11 21 12 20 13
REMARK SMILES IDX 2 14 1 15 23 16 12 18 13 19 14 20 15 21 16 22 17 23 18 24
REMARK SMILES IDX 19 25
REMARK H PARENT 7 5 23 17
REMARK Flexibility Score: inf
ROOT
ATOM      1  C   UNL     1      77.315  93.842  64.198  1.00  0.00     0.010 C 
ENDROOT
BRANCH   1   2
ATOM      2  C   UNL     1      76.542  92.877  65.133  1.00  0.00     0.100 C 
BRANCH   2   3
ATOM      3  C   UNL     1      76.251  91.562  64.531  1.00  0.00     0.220 C 
ATOM      4  N   UNL     1      77.268  90.804  64.036  1.00  0.00    -0.352 N 
ATOM      5  H   UNL     1      78.175  91.250  64.055  1.00  0.00     0.163 HD
ATOM      6  O   UNL     1      75.065  91.157  64.529  1.00  0.00    -0.275 OA
BRANCH   4   7
ATOM      7  C   UNL     1      77.139  89.481  63.518  1.00  0.00     0.151 C 
BRANCH   7   8
ATOM      8  C   UNL     1      77.571  88.442  64.488  1.00  0.00    -0.025 A 
ATOM      9  C   UNL     1      78.030  86.088  65.035  1.00  0.00     0.160 A 
ATOM     10  C   UNL     1      78.344  86.458  66.361  1.00  0.00     0.157 A 
ATOM     11  C   UNL     1      77.638  87.079  64.113  1.00  0.00     0.056 A 
ATOM     12  C   UNL     1      78.298  87.812  66.741  1.00  0.00     0.050 A 
ATOM     13  C   UNL     1      77.924  88.798  65.809  1.00  0.00     0.009 A 
BRANCH   9  14
ATOM     14  O   UNL     1      78.157  84.785  64.631  1.00  0.00    -0.493 OA
ATOM     15  C   UNL     1      76.906  84.099  64.461  1.00  0.00     0.278 C 
ENDBRANCH   9  14
BRANCH  10  16
ATOM     16  O   UNL     1      78.699  85.532  67.286  1.00  0.00    -0.504 OA
ATOM     17  H   UNL     1      79.641  85.598  67.460  1.00  0.00     0.293 HD
ENDBRANCH  10  16
ENDBRANCH   7   8
ENDBRANCH   4   7
ENDBRANCH   2   3
ENDBRANCH   1   2
BRANCH   1  18
ATOM     18  C   UNL     1      78.729  94.148  64.756  1.00  0.00     0.001 C 
BRANCH  18  19
ATOM     19  C   UNL     1      78.870  95.572  65.350  1.00  0.00     0.004 C 
BRANCH  19  20
ATOM     20  C   UNL     1      79.794  95.577  66.600  1.00  0.00     0.027 C 
BRANCH  20  21
ATOM     21  C   UNL     1      79.078  95.433  67.856  1.00  0.00    -0.031 C 
ATOM     22  C   UNL     1      79.514  95.991  69.000  1.00  0.00    -0.028 C 
BRANCH  22  23
ATOM     23  C   UNL     1      78.816  95.870  70.277  1.00  0.00     0.005 C 
ATOM     24  C   UNL     1      78.632  97.268  70.923  1.00  0.00     0.012 C 
ATOM     25  C   UNL     1      77.466  95.127  70.082  1.00  0.00     0.012 C 
ENDBRANCH  22  23
ENDBRANCH  20  21
ENDBRANCH  19  20
ENDBRANCH  18  19
ENDBRANCH   1  18
TORSDOF 11
ENDMDL
MODEL 4
REMARK VINA RESULT:    -5.846     27.743     31.635
REMARK INTER + INTRA:         -10.066
REMARK INTER:                  -8.948
REMARK INTRA:                  -1.118
REMARK UNBOUND:                -0.632
REMARK SMILES COc1cc(CNC(=O)CCCCC/C=C/C(C)C)ccc1O
REMARK SMILES IDX 11 1 10 2 8 3 7 4 9 6 6 7 5 8 3 9 22 10 4 11 21 12 20 13
REMARK SMILES IDX 2 14 1 15 23 16 12 18 13 19 14 20 15 21 16 22 17 23 18 24
REMARK SMILES IDX 19 25
REMARK H PARENT 7 5 23 17
REMARK Flexibility Score: inf
ROOT
ATOM      1  C   UNL     1      84.601  63.320  78.486  1.00  0.00     0.010 C 
ENDROOT
BRANCH   1   2
ATOM      2  C   UNL     1      84.419  63.350  76.946  1.00  0.00     0.100 C 
BRANCH   2   3
ATOM      3  C   UNL     1      83.738  64.559  76.446  1.00  0.00     0.220 C 
ATOM      4  N   UNL     1      82.422  64.762  76.728  1.00  0.00    -0.352 N 
ATOM      5  H   UNL     1      81.974  64.000  77.219  1.00  0.00     0.163 HD
ATOM      6  O   UNL     1      84.411  65.397  75.800  1.00  0.00    -0.275 OA
BRANCH   4   7
ATOM      7  C   UNL     1      81.671  65.927  76.390  1.00  0.00     0.151 C 
BRANCH   7   8
ATOM      8  C   UNL     1      81.218  65.926  74.975  1.00  0.00    -0.025 A 
ATOM      9  C   UNL     1      80.952  67.074  72.816  1.00  0.00     0.160 A 
ATOM     10  C   UNL     1      80.303  65.935  72.292  1.00  0.00     0.157 A 
ATOM     11  C   UNL     1      81.395  67.064  74.155  1.00  0.00     0.056 A 
ATOM     12  C   UNL     1      80.136  64.791  73.093  1.00  0.00     0.050 A 
ATOM     13  C   UNL     1      80.600  64.782  74.422  1.00  0.00     0.009 A 
BRANCH   9  14
ATOM     14  O   UNL     1      81.197  68.160  72.019  1.00  0.00    -0.493 OA
ATOM     15  C   UNL     1      82.449  68.101  71.315  1.00  0.00     0.278 C 
ENDBRANCH   9  14
BRANCH  10  16
ATOM     16  O   UNL     1      79.836  65.914  71.018  1.00  0.00    -0.504 OA
ATOM     17  H   UNL     1      79.280  66.683  70.869  1.00  0.00     0.293 HD
ENDBRANCH  10  16
ENDBRANCH   7   8
ENDBRANCH   4   7
ENDBRANCH   2   3
ENDBRANCH   1   2
BRANCH   1  18
ATOM     18  C   UNL     1      86.060  63.658  78.883  1.00  0.00     0.001 C 
BRANCH  18  19
ATOM     19  C   UNL     1      86.180  64.867  79.845  1.00  0.00     0.004 C 
BRANCH  19  20
ATOM     20  C   UNL     1      86.964  66.038  79.189  1.00  0.00     0.027 C 
BRANCH  20  21
ATOM     21  C   UNL     1      86.111  67.078  78.641  1.00  0.00    -0.031 C 
ATOM     22  C   UNL     1      86.592  68.074  77.876  1.00  0.00    -0.028 C 
BRANCH  22  23
ATOM     23  C   UNL     1      85.760  69.131  77.306  1.00  0.00     0.005 C 
ATOM     24  C   UNL     1      86.518  69.855  76.162  1.00  0.00     0.012 C 
ATOM     25  C   UNL     1      84.399  68.549  76.835  1.00  0.00     0.012 C 
ENDBRANCH  22  23
ENDBRANCH  20  21
ENDBRANCH  19  20
ENDBRANCH  18  19
ENDBRANCH   1  18
TORSDOF 11
ENDMDL
MODEL 5
REMARK VINA RESULT:    -5.775     28.744     31.259
REMARK INTER + INTRA:          -9.951
REMARK INTER:                  -8.731
REMARK INTRA:                  -1.220
REMARK UNBOUND:                -0.632
REMARK SMILES COc1cc(CNC(=O)CCCCC/C=C/C(C)C)ccc1O
REMARK SMILES IDX 11 1 10 2 8 3 7 4 9 6 6 7 5 8 3 9 22 10 4 11 21 12 20 13
REMARK SMILES IDX 2 14 1 15 23 16 12 18 13 19 14 20 15 21 16 22 17 23 18 24
REMARK SMILES IDX 19 25
REMARK H PARENT 7 5 23 17
REMARK Flexibility Score: inf
ROOT
ATOM      1  C   UNL     1      83.972  67.220  71.643  1.00  0.00     0.010 C 
ENDROOT
BRANCH   1   2
ATOM      2  C   UNL     1      83.595  68.129  72.841  1.00  0.00     0.100 C 
BRANCH   2   3
ATOM      3  C   UNL     1      84.663  68.271  73.848  1.00  0.00     0.220 C 
ATOM      4  N   UNL     1      84.424  67.925  75.143  1.00  0.00    -0.352 N 
ATOM      5  H   UNL     1      83.470  67.653  75.338  1.00  0.00     0.163 HD
ATOM      6  O   UNL     1      85.789  68.673  73.469  1.00  0.00    -0.275 OA
BRANCH   4   7
ATOM      7  C   UNL     1      85.391  67.921  76.192  1.00  0.00     0.151 C 
BRANCH   7   8
ATOM      8  C   UNL     1      85.330  66.689  77.021  1.00  0.00    -0.025 A 
ATOM      9  C   UNL     1      85.879  65.476  79.089  1.00  0.00     0.160 A 
ATOM     10  C   UNL     1      85.256  64.318  78.574  1.00  0.00     0.157 A 
ATOM     11  C   UNL     1      85.919  66.648  78.306  1.00  0.00     0.056 A 
ATOM     12  C   UNL     1      84.652  64.352  77.304  1.00  0.00     0.050 A 
ATOM     13  C   UNL     1      84.679  65.532  76.538  1.00  0.00     0.009 A 
BRANCH   9  14
ATOM     14  O   UNL     1      86.394  65.480  80.358  1.00  0.00    -0.493 OA
ATOM     15  C   UNL     1      87.697  66.077  80.463  1.00  0.00     0.278 C 
ENDBRANCH   9  14
BRANCH  10  16
ATOM     16  O   UNL     1      85.221  63.162  79.284  1.00  0.00    -0.504 OA
ATOM     17  H   UNL     1      84.626  62.542  78.855  1.00  0.00     0.293 HD
ENDBRANCH  10  16
ENDBRANCH   7   8
ENDBRANCH   4   7
ENDBRANCH   2   3
ENDBRANCH   1   2
BRANCH   1  18
ATOM     18  C   UNL     1      82.742  66.942  70.742  1.00  0.00     0.001 C 
BRANCH  18  19
ATOM     19  C   UNL     1      81.416  67.515  71.303  1.00  0.00     0.004 C 
BRANCH  19  20
ATOM     20  C   UNL     1      80.238  66.521  71.101  1.00  0.00     0.027 C 
BRANCH  20  21
ATOM     21  C   UNL     1      80.128  65.524  72.151  1.00  0.00    -0.031 C 
ATOM     22  C   UNL     1      80.981  65.476  73.190  1.00  0.00    -0.028 C 
BRANCH  22  23
ATOM     23  C   UNL     1      80.894  64.490  74.264  1.00  0.00     0.005 C 
ATOM     24  C   UNL     1      79.756  63.476  73.972  1.00  0.00     0.012 C 
ATOM     25  C   UNL     1      82.267  63.794  74.467  1.00  0.00     0.012 C 
ENDBRANCH  22  23
ENDBRANCH  20  21
ENDBRANCH  19  20
ENDBRANCH  18  19
ENDBRANCH   1  18
TORSDOF 11
ENDMDL
MODEL 6
REMARK VINA RESULT:    -5.561     15.186     18.659
REMARK INTER + INTRA:          -9.607
REMARK INTER:                  -9.019
REMARK INTRA:                  -0.588
REMARK UNBOUND:                -0.632
REMARK SMILES COc1cc(CNC(=O)CCCCC/C=C/C(C)C)ccc1O
REMARK SMILES IDX 11 1 10 2 8 3 7 4 9 6 6 7 5 8 3 9 22 10 4 11 21 12 20 13
REMARK SMILES IDX 2 14 1 15 23 16 12 18 13 19 14 20 15 21 16 22 17 23 18 24
REMARK SMILES IDX 19 25
REMARK H PARENT 7 5 23 17
REMARK Flexibility Score: inf
ROOT
ATOM      1  C   UNL     1      95.922  81.244  84.542  1.00  0.00     0.010 C 
ENDROOT
BRANCH   1   2
ATOM      2  C   UNL     1      96.968  82.359  84.282  1.00  0.00     0.100 C 
BRANCH   2   3
ATOM      3  C   UNL     1      97.958  82.023  83.242  1.00  0.00     0.220 C 
ATOM      4  N   UNL     1      97.978  82.721  82.073  1.00  0.00    -0.352 N 
ATOM      5  H   UNL     1      97.234  83.398  81.974  1.00  0.00     0.163 HD
ATOM      6  O   UNL     1      98.791  81.117  83.484  1.00  0.00    -0.275 OA
BRANCH   4   7
ATOM      7  C   UNL     1      98.938  82.565  81.030  1.00  0.00     0.151 C 
BRANCH   7   8
ATOM      8  C   UNL     1      98.322  82.586  79.677  1.00  0.00    -0.025 A 
ATOM      9  C   UNL     1      98.514  82.918  77.248  1.00  0.00     0.160 A 
ATOM     10  C   UNL     1      97.130  82.678  77.107  1.00  0.00     0.157 A 
ATOM     11  C   UNL     1      99.097  82.879  78.531  1.00  0.00     0.056 A 
ATOM     12  C   UNL     1      96.352  82.369  78.238  1.00  0.00     0.050 A 
ATOM     13  C   UNL     1      96.946  82.313  79.513  1.00  0.00     0.009 A 
BRANCH   9  14
ATOM     14  O   UNL     1      99.295  83.133  76.144  1.00  0.00    -0.493 OA
ATOM     15  C   UNL     1      99.804  81.932  75.541  1.00  0.00     0.278 C 
ENDBRANCH   9  14
BRANCH  10  16
ATOM     16  O   UNL     1      96.524  82.734  75.894  1.00  0.00    -0.504 OA
ATOM     17  H   UNL     1      96.991  83.358  75.333  1.00  0.00     0.293 HD
ENDBRANCH  10  16
ENDBRANCH   7   8
ENDBRANCH   4   7
ENDBRANCH   2   3
ENDBRANCH   1   2
BRANCH   1  18
ATOM     18  C   UNL     1      94.538  81.846  84.895  1.00  0.00     0.001 C 
BRANCH  18  19
ATOM     19  C   UNL     1      93.473  80.784  85.266  1.00  0.00     0.004 C 
BRANCH  19  20
ATOM     20  C   UNL     1      92.047  81.402  85.309  1.00  0.00     0.027 C 
BRANCH  20  21
ATOM     21  C   UNL     1      90.996  80.476  84.924  1.00  0.00    -0.031 C 
ATOM     22  C   UNL     1      91.035  79.171  85.247  1.00  0.00    -0.028 C 
BRANCH  22  23
ATOM     23  C   UNL     1      89.992  78.215  84.879  1.00  0.00     0.005 C 
ATOM     24  C   UNL     1      88.932  78.898  83.975  1.00  0.00     0.012 C 
ATOM     25  C   UNL     1      90.623  76.965  84.209  1.00  0.00     0.012 C 
ENDBRANCH  22  23
ENDBRANCH  20  21
ENDBRANCH  19  20
ENDBRANCH  18  19
ENDBRANCH   1  18
TORSDOF 11
ENDMDL
MODEL 7
REMARK VINA RESULT:    -5.524     15.292     18.615
REMARK INTER + INTRA:          -9.546
REMARK INTER:                  -8.736
REMARK INTRA:                  -0.810
REMARK UNBOUND:                -0.632
REMARK SMILES COc1cc(CNC(=O)CCCCC/C=C/C(C)C)ccc1O
REMARK SMILES IDX 11 1 10 2 8 3 7 4 9 6 6 7 5 8 3 9 22 10 4 11 21 12 20 13
REMARK SMILES IDX 2 14 1 15 23 16 12 18 13 19 14 20 15 21 16 22 17 23 18 24
REMARK SMILES IDX 19 25
REMARK H PARENT 7 5 23 17
REMARK Flexibility Score: inf
ROOT
ATOM      1  C   UNL     1      95.727  81.408  83.735  1.00  0.00     0.010 C 
ENDROOT
BRANCH   1   2
ATOM      2  C   UNL     1      95.661  82.110  85.116  1.00  0.00     0.100 C 
BRANCH   2   3
ATOM      3  C   UNL     1      94.294  82.460  85.547  1.00  0.00     0.220 C 
ATOM      4  N   UNL     1      93.223  81.874  84.944  1.00  0.00    -0.352 N 
ATOM      5  H   UNL     1      93.454  81.273  84.165  1.00  0.00     0.163 HD
ATOM      6  O   UNL     1      94.157  83.267  86.496  1.00  0.00    -0.275 OA
BRANCH   4   7
ATOM      7  C   UNL     1      91.859  82.048  85.325  1.00  0.00     0.151 C 
BRANCH   7   8
ATOM      8  C   UNL     1      91.057  80.808  85.159  1.00  0.00    -0.025 A 
ATOM      9  C   UNL     1      90.900  78.354  85.119  1.00  0.00     0.160 A 
ATOM     10  C   UNL     1      89.531  78.448  84.789  1.00  0.00     0.157 A 
ATOM     11  C   UNL     1      91.654  79.533  85.293  1.00  0.00     0.056 A 
ATOM     12  C   UNL     1      88.922  79.711  84.670  1.00  0.00     0.050 A 
ATOM     13  C   UNL     1      89.677  80.883  84.864  1.00  0.00     0.009 A 
BRANCH   9  14
ATOM     14  O   UNL     1      91.481  77.131  85.323  1.00  0.00    -0.493 OA
ATOM     15  C   UNL     1      91.775  76.842  86.700  1.00  0.00     0.278 C 
ENDBRANCH   9  14
BRANCH  10  16
ATOM     16  O   UNL     1      88.777  77.338  84.585  1.00  0.00    -0.504 OA
ATOM     17  H   UNL     1      88.134  77.511  83.893  1.00  0.00     0.293 HD
ENDBRANCH  10  16
ENDBRANCH   7   8
ENDBRANCH   4   7
ENDBRANCH   2   3
ENDBRANCH   1   2
BRANCH   1  18
ATOM     18  C   UNL     1      97.123  80.779  83.493  1.00  0.00     0.001 C 
BRANCH  18  19
ATOM     19  C   UNL     1      97.788  81.230  82.168  1.00  0.00     0.004 C 
BRANCH  19  20
ATOM     20  C   UNL     1      97.176  82.562  81.651  1.00  0.00     0.027 C 
BRANCH  20  21
ATOM     21  C   UNL     1      96.634  82.473  80.306  1.00  0.00    -0.031 C 
ATOM     22  C   UNL     1      97.373  82.738  79.214  1.00  0.00    -0.028 C 
BRANCH  22  23
ATOM     23  C   UNL     1      96.859  82.653  77.849  1.00  0.00     0.005 C 
ATOM     24  C   UNL     1      97.735  83.503  76.891  1.00  0.00     0.012 C 
ATOM     25  C   UNL     1      96.767  81.168  77.403  1.00  0.00     0.012 C 
ENDBRANCH  22  23
ENDBRANCH  20  21
ENDBRANCH  19  20
ENDBRANCH  18  19
ENDBRANCH   1  18
TORSDOF 11
ENDMDL
MODEL 8
REMARK VINA RESULT:    -5.524     36.483     40.680
REMARK INTER + INTRA:          -9.546
REMARK INTER:                  -8.694
REMARK INTRA:                  -0.852
REMARK UNBOUND:                -0.632
REMARK SMILES COc1cc(CNC(=O)CCCCC/C=C/C(C)C)ccc1O
REMARK SMILES IDX 11 1 10 2 8 3 7 4 9 6 6 7 5 8 3 9 22 10 4 11 21 12 20 13
REMARK SMILES IDX 2 14 1 15 23 16 12 18 13 19 14 20 15 21 16 22 17 23 18 24
REMARK SMILES IDX 19 25
REMARK H PARENT 7 5 23 17
REMARK Flexibility Score: inf
ROOT
ATOM      1  C   UNL     1      70.581  64.380  82.794  1.00  0.00     0.010 C 
ENDROOT
BRANCH   1   2
ATOM      2  C   UNL     1      69.205  63.805  82.372  1.00  0.00     0.100 C 
BRANCH   2   3
ATOM      3  C   UNL     1      68.603  64.481  81.208  1.00  0.00     0.220 C 
ATOM      4  N   UNL     1      67.720  63.811  80.416  1.00  0.00    -0.352 N 
ATOM      5  H   UNL     1      67.594  62.837  80.656  1.00  0.00     0.163 HD
ATOM      6  O   UNL     1      68.895  65.682  81.000  1.00  0.00    -0.275 OA
BRANCH   4   7
ATOM      7  C   UNL     1      66.995  64.372  79.323  1.00  0.00     0.151 C 
BRANCH   7   8
ATOM      8  C   UNL     1      65.530  64.155  79.436  1.00  0.00    -0.025 A 
ATOM      9  C   UNL     1      63.319  63.911  78.387  1.00  0.00     0.160 A 
ATOM     10  C   UNL     1      62.727  63.795  79.664  1.00  0.00     0.157 A 
ATOM     11  C   UNL     1      64.712  64.099  78.284  1.00  0.00     0.056 A 
ATOM     12  C   UNL     1      63.532  63.833  80.817  1.00  0.00     0.050 A 
ATOM     13  C   UNL     1      64.925  64.001  80.704  1.00  0.00     0.009 A 
BRANCH   9  14
ATOM     14  O   UNL     1      62.556  63.788  77.257  1.00  0.00    -0.493 OA
ATOM     15  C   UNL     1      62.505  64.976  76.450  1.00  0.00     0.278 C 
ENDBRANCH   9  14
BRANCH  10  16
ATOM     16  O   UNL     1      61.387  63.642  79.808  1.00  0.00    -0.504 OA
ATOM     17  H   UNL     1      61.180  63.490  80.734  1.00  0.00     0.293 HD
ENDBRANCH  10  16
ENDBRANCH   7   8
ENDBRANCH   4   7
ENDBRANCH   2   3
ENDBRANCH   1   2
BRANCH   1  18
ATOM     18  C   UNL     1      71.418  63.324  83.560  1.00  0.00     0.001 C 
BRANCH  18  19
ATOM     19  C   UNL     1      72.811  63.060  82.935  1.00  0.00     0.004 C 
BRANCH  19  20
ATOM     20  C   UNL     1      73.010  63.876  81.627  1.00  0.00     0.027 C 
BRANCH  20  21
ATOM     21  C   UNL     1      74.064  64.872  81.715  1.00  0.00    -0.031 C 
ATOM     22  C   UNL     1      74.828  65.016  82.812  1.00  0.00    -0.028 C 
BRANCH  22  23
ATOM     23  C   UNL     1      75.899  66.002  82.930  1.00  0.00     0.005 C 
ATOM     24  C   UNL     1      77.261  65.294  83.154  1.00  0.00     0.012 C 
ATOM     25  C   UNL     1      75.914  66.929  81.683  1.00  0.00     0.012 C 
ENDBRANCH  22  23
ENDBRANCH  20  21
ENDBRANCH  19  20
ENDBRANCH  18  19
ENDBRANCH   1  18
TORSDOF 11
ENDMDL
MODEL 9
REMARK VINA RESULT:    -5.505     17.428     19.428
REMARK INTER + INTRA:          -9.516
REMARK INTER:                  -8.362
REMARK INTRA:                  -1.153
REMARK UNBOUND:                -0.632
REMARK SMILES COc1cc(CNC(=O)CCCCC/C=C/C(C)C)ccc1O
REMARK SMILES IDX 11 1 10 2 8 3 7 4 9 6 6 7 5 8 3 9 22 10 4 11 21 12 20 13
REMARK SMILES IDX 2 14 1 15 23 16 12 18 13 19 14 20 15 21 16 22 17 23 18 24
REMARK SMILES IDX 19 25
REMARK H PARENT 7 5 23 17
REMARK Flexibility Score: inf
ROOT
ATOM      1  C   UNL     1      83.410  89.806  90.258  1.00  0.00     0.010 C 
ENDROOT
BRANCH   1   2
ATOM      2  C   UNL     1      83.880  90.543  88.977  1.00  0.00     0.100 C 
BRANCH   2   3
ATOM      3  C   UNL     1      82.844  90.652  87.933  1.00  0.00     0.220 C 
ATOM      4  N   UNL     1      81.726  89.877  88.004  1.00  0.00    -0.352 N 
ATOM      5  H   UNL     1      81.725  89.207  88.760  1.00  0.00     0.163 HD
ATOM      6  O   UNL     1      83.005  91.495  87.019  1.00  0.00    -0.275 OA
BRANCH   4   7
ATOM      7  C   UNL     1      80.608  89.951  87.120  1.00  0.00     0.151 C 
BRANCH   7   8
ATOM      8  C   UNL     1      80.657  88.921  86.050  1.00  0.00    -0.025 A 
ATOM      9  C   UNL     1      81.541  86.805  85.160  1.00  0.00     0.160 A 
ATOM     10  C   UNL     1      80.785  86.987  83.981  1.00  0.00     0.157 A 
ATOM     11  C   UNL     1      81.478  87.776  86.180  1.00  0.00     0.056 A 
ATOM     12  C   UNL     1      79.951  88.112  83.848  1.00  0.00     0.050 A 
ATOM     13  C   UNL     1      79.879  89.067  84.880  1.00  0.00     0.009 A 
BRANCH   9  14
ATOM     14  O   UNL     1      82.287  85.670  85.336  1.00  0.00    -0.493 OA
ATOM     15  C   UNL     1      82.590  85.374  86.709  1.00  0.00     0.278 C 
ENDBRANCH   9  14
BRANCH  10  16
ATOM     16  O   UNL     1      80.839  86.090  82.964  1.00  0.00    -0.504 OA
ATOM     17  H   UNL     1      80.245  86.368  82.262  1.00  0.00     0.293 HD
ENDBRANCH  10  16
ENDBRANCH   7   8
ENDBRANCH   4   7
ENDBRANCH   2   3
ENDBRANCH   1   2
BRANCH   1  18
ATOM     18  C   UNL     1      83.335  90.776  91.465  1.00  0.00     0.001 C 
BRANCH  18  19
ATOM     19  C   UNL     1      83.620  92.254  91.096  1.00  0.00     0.004 C 
BRANCH  19  20
ATOM     20  C   UNL     1      82.335  93.122  91.201  1.00  0.00     0.027 C 
BRANCH  20  21
ATOM     21  C   UNL     1      82.379  94.330  90.395  1.00  0.00    -0.031 C 
ATOM     22  C   UNL     1      82.431  94.296  89.051  1.00  0.00    -0.028 C 
BRANCH  22  23
ATOM     23  C   UNL     1      82.471  95.491  88.212  1.00  0.00     0.005 C 
ATOM     24  C   UNL     1      82.588  96.763  89.093  1.00  0.00     0.012 C 
ATOM     25  C   UNL     1      83.623  95.383  87.177  1.00  0.00     0.012 C 
ENDBRANCH  22  23
ENDBRANCH  20  21
ENDBRANCH  19  20
ENDBRANCH  18  19
ENDBRANCH   1  18
TORSDOF 11
ENDMDL
MODEL 10
REMARK VINA RESULT:    -5.434      8.388     11.008
REMARK INTER + INTRA:          -9.402
REMARK INTER:                  -8.696
REMARK INTRA:                  -0.706
REMARK UNBOUND:                -0.632
REMARK SMILES COc1cc(CNC(=O)CCCCC/C=C/C(C)C)ccc1O
REMARK SMILES IDX 11 1 10 2 8 3 7 4 9 6 6 7 5 8 3 9 22 10 4 11 21 12 20 13
REMARK SMILES IDX 2 14 1 15 23 16 12 18 13 19 14 20 15 21 16 22 17 23 18 24
REMARK SMILES IDX 19 25
REMARK H PARENT 7 5 23 17
REMARK Flexibility Score: inf
ROOT
ATOM      1  C   UNL     1      95.784  94.751  80.614  1.00  0.00     0.010 C 
ENDROOT
BRANCH   1   2
ATOM      2  C   UNL     1      95.742  96.277  80.887  1.00  0.00     0.100 C 
BRANCH   2   3
ATOM      3  C   UNL     1      96.723  96.734  81.888  1.00  0.00     0.220 C 
ATOM      4  N   UNL     1      96.621  97.986  82.415  1.00  0.00    -0.352 N 
ATOM      5  H   UNL     1      95.891  98.556  82.009  1.00  0.00     0.163 HD
ATOM      6  O   UNL     1      97.612  95.932  82.261  1.00  0.00    -0.275 OA
BRANCH   4   7
ATOM      7  C   UNL     1      97.439  98.518  83.456  1.00  0.00     0.151 C 
BRANCH   7   8
ATOM      8  C   UNL     1      96.690  98.726  84.722  1.00  0.00    -0.025 A 
ATOM      9  C   UNL     1      95.441 100.197  86.247  1.00  0.00     0.160 A 
ATOM     10  C   UNL     1      95.309  99.131  87.165  1.00  0.00     0.157 A 
ATOM     11  C   UNL     1      96.137  99.989  85.039  1.00  0.00     0.056 A 
ATOM     12  C   UNL     1      95.841  97.867  86.852  1.00  0.00     0.050 A 
ATOM     13  C   UNL     1      96.517  97.663  85.635  1.00  0.00     0.009 A 
BRANCH   9  14
ATOM     14  O   UNL     1      94.853 101.407  86.502  1.00  0.00    -0.493 OA
ATOM     15  C   UNL     1      93.586 101.594  85.848  1.00  0.00     0.278 C 
ENDBRANCH   9  14
BRANCH  10  16
ATOM     16  O   UNL     1      94.672  99.297  88.351  1.00  0.00    -0.504 OA
ATOM     17  H   UNL     1      94.460 100.226  88.472  1.00  0.00     0.293 HD
ENDBRANCH  10  16
ENDBRANCH   7   8
ENDBRANCH   4   7
ENDBRANCH   2   3
ENDBRANCH   1   2
BRANCH   1  18
ATOM     18  C   UNL     1      94.887  94.373  79.408  1.00  0.00     0.001 C 
BRANCH  18  19
ATOM     19  C   UNL     1      95.674  94.139  78.094  1.00  0.00     0.004 C 
BRANCH  19  20
ATOM     20  C   UNL     1      94.881  94.651  76.859  1.00  0.00     0.027 C 
BRANCH  20  21
ATOM     21  C   UNL     1      93.661  93.907  76.598  1.00  0.00    -0.031 C 
ATOM     22  C   UNL     1      92.443  94.468  76.692  1.00  0.00    -0.028 C 
BRANCH  22  23
ATOM     23  C   UNL     1      91.198  93.749  76.431  1.00  0.00     0.005 C 
ATOM     24  C   UNL     1      90.927  92.717  77.558  1.00  0.00     0.012 C 
ATOM     25  C   UNL     1      90.026  94.751  76.255  1.00  0.00     0.012 C 
ENDBRANCH  22  23
ENDBRANCH  20  21
ENDBRANCH  19  20
ENDBRANCH  18  19
ENDBRANCH   1  18
TORSDOF 11
ENDMDL
