MODEL 1
REMARK VINA RESULT:    -6.571      0.000      0.000
REMARK INTER + INTRA:         -10.934
REMARK INTER:                 -10.221
REMARK INTRA:                  -0.713
REMARK UNBOUND:                -0.713
REMARK SMILES CCCCC/C=C/C(=O)CCc1ccc(O)c(OC)c1
REMARK SMILES IDX 6 1 7 2 8 3 9 4 10 5 11 6 12 7 17 8 20 9 15 10 14 11 13 12
REMARK SMILES IDX 18 13 19 14 16 15 5 17 4 18 3 19 2 20 1 21
REMARK H PARENT 16 16
REMARK Flexibility Score: inf
ROOT
ATOM      1  C   UNL     1      93.938  94.388  77.092  1.00  0.00    -0.023 C 
ATOM      2  C   UNL     1      93.204  93.271  77.031  1.00  0.00     0.043 C 
ENDROOT
BRANCH   2   3
ATOM      3  C   UNL     1      91.718  93.358  77.049  1.00  0.00     0.155 C 
ATOM      4  O   UNL     1      91.110  94.207  76.400  1.00  0.00    -0.295 OA
BRANCH   3   5
ATOM      5  C   UNL     1      90.994  92.377  77.950  1.00  0.00     0.085 C 
BRANCH   5   6
ATOM      6  C   UNL     1      89.758  91.797  77.260  1.00  0.00     0.044 C 
BRANCH   6   7
ATOM      7  C   UNL     1      90.024  90.464  76.602  1.00  0.00    -0.044 A 
ATOM      8  C   UNL     1      90.425  89.173  74.619  1.00  0.00     0.160 A 
ATOM      9  C   UNL     1      90.179  90.405  75.226  1.00  0.00     0.054 A 
ATOM     10  C   UNL     1      90.512  88.018  75.395  1.00  0.00     0.157 A 
ATOM     11  C   UNL     1      90.353  88.094  76.779  1.00  0.00     0.050 A 
ATOM     12  C   UNL     1      90.107  89.325  77.386  1.00  0.00     0.008 A 
BRANCH   8  13
ATOM     13  O   UNL     1      90.578  89.112  73.266  1.00  0.00    -0.493 OA
ATOM     14  C   UNL     1      89.681  89.891  72.477  1.00  0.00     0.278 C 
ENDBRANCH   8  13
BRANCH  10  15
ATOM     15  O   UNL     1      90.752  86.809  74.814  1.00  0.00    -0.504 OA
ATOM     16  H   UNL     1      90.086  86.667  74.119  1.00  0.00     0.293 HD
ENDBRANCH  10  15
ENDBRANCH   6   7
ENDBRANCH   5   6
ENDBRANCH   3   5
ENDBRANCH   2   3
BRANCH   1  17
ATOM     17  C   UNL     1      95.439  94.385  77.080  1.00  0.00     0.027 C 
BRANCH  17  18
ATOM     18  C   UNL     1      96.051  95.420  78.031  1.00  0.00     0.004 C 
BRANCH  18  19
ATOM     19  C   UNL     1      96.256  94.898  79.456  1.00  0.00     0.000 C 
BRANCH  19  20
ATOM     20  C   UNL     1      95.193  95.454  80.405  1.00  0.00    -0.003 C 
ATOM     21  C   UNL     1      95.468  95.053  81.846  1.00  0.00     0.004 C 
ENDBRANCH  19  20
ENDBRANCH  18  19
ENDBRANCH  17  18
ENDBRANCH   1  17
TORSDOF 10
ENDMDL
MODEL 2
REMARK VINA RESULT:    -6.313      1.183      2.109
REMARK INTER + INTRA:         -10.532
REMARK INTER:                  -9.800
REMARK INTRA:                  -0.732
REMARK UNBOUND:                -0.713
REMARK SMILES CCCCC/C=C/C(=O)CCc1ccc(O)c(OC)c1
REMARK SMILES IDX 6 1 7 2 8 3 9 4 10 5 11 6 12 7 17 8 20 9 15 10 14 11 13 12
REMARK SMILES IDX 18 13 19 14 16 15 5 17 4 18 3 19 2 20 1 21
REMARK H PARENT 16 16
REMARK Flexibility Score: inf
ROOT
ATOM      1  C   UNL     1      94.315  94.543  77.150  1.00  0.00    -0.023 C 
ATOM      2  C   UNL     1      93.357  93.611  77.079  1.00  0.00     0.043 C 
ENDROOT
BRANCH   2   3
ATOM      3  C   UNL     1      91.972  93.999  76.699  1.00  0.00     0.155 C 
ATOM      4  O   UNL     1      91.744  94.961  75.969  1.00  0.00    -0.295 OA
BRANCH   3   5
ATOM      5  C   UNL     1      90.850  93.176  77.302  1.00  0.00     0.085 C 
BRANCH   5   6
ATOM      6  C   UNL     1      89.935  92.605  76.218  1.00  0.00     0.044 C 
BRANCH   6   7
ATOM      7  C   UNL     1      90.361  91.233  75.752  1.00  0.00    -0.044 A 
ATOM      8  C   UNL     1      90.255  88.845  75.962  1.00  0.00     0.160 A 
ATOM      9  C   UNL     1      89.861  90.112  76.394  1.00  0.00     0.054 A 
ATOM     10  C   UNL     1      91.144  88.716  74.896  1.00  0.00     0.157 A 
ATOM     11  C   UNL     1      91.639  89.855  74.259  1.00  0.00     0.050 A 
ATOM     12  C   UNL     1      91.245  91.122  74.691  1.00  0.00     0.008 A 
BRANCH   8  13
ATOM     13  O   UNL     1      89.764  87.741  76.592  1.00  0.00    -0.493 OA
ATOM     14  C   UNL     1      89.935  87.671  78.006  1.00  0.00     0.278 C 
ENDBRANCH   8  13
BRANCH  10  15
ATOM     15  O   UNL     1      91.536  87.485  74.465  1.00  0.00    -0.504 OA
ATOM     16  H   UNL     1      91.891  86.994  75.226  1.00  0.00     0.293 HD
ENDBRANCH  10  15
ENDBRANCH   6   7
ENDBRANCH   5   6
ENDBRANCH   3   5
ENDBRANCH   2   3
BRANCH   1  17
ATOM     17  C   UNL     1      95.735  94.233  77.526  1.00  0.00     0.027 C 
BRANCH  17  18
ATOM     18  C   UNL     1      96.454  95.414  78.188  1.00  0.00     0.004 C 
BRANCH  18  19
ATOM     19  C   UNL     1      96.378  95.399  79.718  1.00  0.00     0.000 C 
BRANCH  19  20
ATOM     20  C   UNL     1      95.999  94.011  80.238  1.00  0.00    -0.003 C 
ATOM     21  C   UNL     1      95.782  94.020  81.742  1.00  0.00     0.004 C 
ENDBRANCH  19  20
ENDBRANCH  18  19
ENDBRANCH  17  18
ENDBRANCH   1  17
TORSDOF 10
ENDMDL
MODEL 3
REMARK VINA RESULT:    -6.193      2.810      3.953
REMARK INTER + INTRA:         -10.346
REMARK INTER:                  -9.680
REMARK INTRA:                  -0.666
REMARK UNBOUND:                -0.713
REMARK SMILES CCCCC/C=C/C(=O)CCc1ccc(O)c(OC)c1
REMARK SMILES IDX 6 1 7 2 8 3 9 4 10 5 11 6 12 7 17 8 20 9 15 10 14 11 13 12
REMARK SMILES IDX 18 13 19 14 16 15 5 17 4 18 3 19 2 20 1 21
REMARK H PARENT 16 16
REMARK Flexibility Score: inf
ROOT
ATOM      1  C   UNL     1      93.789  96.278  74.408  1.00  0.00    -0.023 C 
ATOM      2  C   UNL     1      93.742  95.225  75.233  1.00  0.00     0.043 C 
ENDROOT
BRANCH   2   3
ATOM      3  C   UNL     1      92.519  94.379  75.286  1.00  0.00     0.155 C 
ATOM      4  O   UNL     1      92.271  93.542  74.420  1.00  0.00    -0.295 OA
BRANCH   3   5
ATOM      5  C   UNL     1      91.566  94.638  76.437  1.00  0.00     0.085 C 
BRANCH   5   6
ATOM      6  C   UNL     1      90.183  94.048  76.157  1.00  0.00     0.044 C 
BRANCH   6   7
ATOM      7  C   UNL     1      90.061  92.607  76.591  1.00  0.00    -0.044 A 
ATOM      8  C   UNL     1      89.489  90.331  76.089  1.00  0.00     0.160 A 
ATOM      9  C   UNL     1      89.601  91.662  75.687  1.00  0.00     0.054 A 
ATOM     10  C   UNL     1      89.837  89.962  77.388  1.00  0.00     0.157 A 
ATOM     11  C   UNL     1      90.297  90.925  78.287  1.00  0.00     0.050 A 
ATOM     12  C   UNL     1      90.410  92.256  77.885  1.00  0.00     0.008 A 
BRANCH   8  13
ATOM     13  O   UNL     1      89.038  89.400  75.202  1.00  0.00    -0.493 OA
ATOM     14  C   UNL     1      89.944  88.981  74.184  1.00  0.00     0.278 C 
ENDBRANCH   8  13
BRANCH  10  15
ATOM     15  O   UNL     1      89.732  88.665  77.792  1.00  0.00    -0.504 OA
ATOM     16  H   UNL     1      89.056  88.229  77.245  1.00  0.00     0.293 HD
ENDBRANCH  10  15
ENDBRANCH   6   7
ENDBRANCH   5   6
ENDBRANCH   3   5
ENDBRANCH   2   3
BRANCH   1  17
ATOM     17  C   UNL     1      94.984  97.180  74.296  1.00  0.00     0.027 C 
BRANCH  17  18
ATOM     18  C   UNL     1      96.067  96.875  75.337  1.00  0.00     0.004 C 
BRANCH  18  19
ATOM     19  C   UNL     1      97.403  96.443  74.724  1.00  0.00     0.000 C 
BRANCH  19  20
ATOM     20  C   UNL     1      97.321  96.398  73.197  1.00  0.00    -0.003 C 
ATOM     21  C   UNL     1      98.678  96.643  72.558  1.00  0.00     0.004 C 
ENDBRANCH  19  20
ENDBRANCH  18  19
ENDBRANCH  17  18
ENDBRANCH   1  17
TORSDOF 10
ENDMDL
MODEL 4
REMARK VINA RESULT:    -5.912     13.330     16.169
REMARK INTER + INTRA:          -9.908
REMARK INTER:                  -8.233
REMARK INTRA:                  -1.675
REMARK UNBOUND:                -0.713
REMARK SMILES CCCCC/C=C/C(=O)CCc1ccc(O)c(OC)c1
REMARK SMILES IDX 6 1 7 2 8 3 9 4 10 5 11 6 12 7 17 8 20 9 15 10 14 11 13 12
REMARK SMILES IDX 18 13 19 14 16 15 5 17 4 18 3 19 2 20 1 21
REMARK H PARENT 16 16
REMARK Flexibility Score: inf
ROOT
ATOM      1  C   UNL     1      80.092  86.416  86.602  1.00  0.00    -0.023 C 
ATOM      2  C   UNL     1      81.130  86.578  87.432  1.00  0.00     0.043 C 
ENDROOT
BRANCH   2   3
ATOM      3  C   UNL     1      80.891  86.784  88.886  1.00  0.00     0.155 C 
ATOM      4  O   UNL     1      80.092  86.095  89.517  1.00  0.00    -0.295 OA
BRANCH   3   5
ATOM      5  C   UNL     1      81.646  87.925  89.541  1.00  0.00     0.085 C 
BRANCH   5   6
ATOM      6  C   UNL     1      80.954  89.265  89.289  1.00  0.00     0.044 C 
BRANCH   6   7
ATOM      7  C   UNL     1      81.869  90.289  88.659  1.00  0.00    -0.044 A 
ATOM      8  C   UNL     1      83.809  90.808  87.346  1.00  0.00     0.160 A 
ATOM      9  C   UNL     1      82.965  89.862  87.927  1.00  0.00     0.054 A 
ATOM     10  C   UNL     1      83.546  92.168  87.503  1.00  0.00     0.157 A 
ATOM     11  C   UNL     1      82.438  92.583  88.243  1.00  0.00     0.050 A 
ATOM     12  C   UNL     1      81.594  91.637  88.825  1.00  0.00     0.008 A 
BRANCH   8  13
ATOM     13  O   UNL     1      84.888  90.390  86.625  1.00  0.00    -0.493 OA
ATOM     14  C   UNL     1      84.737  89.190  85.870  1.00  0.00     0.278 C 
ENDBRANCH   8  13
BRANCH  10  15
ATOM     15  O   UNL     1      84.363  93.101  86.939  1.00  0.00    -0.504 OA
ATOM     16  H   UNL     1      84.408  92.930  85.983  1.00  0.00     0.293 HD
ENDBRANCH  10  15
ENDBRANCH   6   7
ENDBRANCH   5   6
ENDBRANCH   3   5
ENDBRANCH   2   3
BRANCH   1  17
ATOM     17  C   UNL     1      80.249  86.203  85.124  1.00  0.00     0.027 C 
BRANCH  17  18
ATOM     18  C   UNL     1      79.969  87.466  84.302  1.00  0.00     0.004 C 
BRANCH  18  19
ATOM     19  C   UNL     1      81.231  88.256  83.942  1.00  0.00     0.000 C 
BRANCH  19  20
ATOM     20  C   UNL     1      81.216  89.643  84.586  1.00  0.00    -0.003 C 
ATOM     21  C   UNL     1      79.884  89.931  85.259  1.00  0.00     0.004 C 
ENDBRANCH  19  20
ENDBRANCH  18  19
ENDBRANCH  17  18
ENDBRANCH   1  17
TORSDOF 10
ENDMDL
MODEL 5
REMARK VINA RESULT:    -5.810      3.593      4.803
REMARK INTER + INTRA:          -9.749
REMARK INTER:                  -9.161
REMARK INTRA:                  -0.588
REMARK UNBOUND:                -0.713
REMARK SMILES CCCCC/C=C/C(=O)CCc1ccc(O)c(OC)c1
REMARK SMILES IDX 6 1 7 2 8 3 9 4 10 5 11 6 12 7 17 8 20 9 15 10 14 11 13 12
REMARK SMILES IDX 18 13 19 14 16 15 5 17 4 18 3 19 2 20 1 21
REMARK H PARENT 16 16
REMARK Flexibility Score: inf
ROOT
ATOM      1  C   UNL     1      93.868  96.064  74.608  1.00  0.00    -0.023 C 
ATOM      2  C   UNL     1      94.213  95.024  75.377  1.00  0.00     0.043 C 
ENDROOT
BRANCH   2   3
ATOM      3  C   UNL     1      93.264  93.892  75.563  1.00  0.00     0.155 C 
ATOM      4  O   UNL     1      93.117  93.022  74.707  1.00  0.00    -0.295 OA
BRANCH   3   5
ATOM      5  C   UNL     1      92.449  93.896  76.841  1.00  0.00     0.085 C 
BRANCH   5   6
ATOM      6  C   UNL     1      90.977  93.587  76.561  1.00  0.00     0.044 C 
BRANCH   6   7
ATOM      7  C   UNL     1      90.586  92.183  76.959  1.00  0.00    -0.044 A 
ATOM      8  C   UNL     1      89.818  89.993  76.351  1.00  0.00     0.160 A 
ATOM      9  C   UNL     1      90.179  91.289  75.982  1.00  0.00     0.054 A 
ATOM     10  C   UNL     1      89.869  89.608  77.690  1.00  0.00     0.157 A 
ATOM     11  C   UNL     1      90.281  90.520  78.662  1.00  0.00     0.050 A 
ATOM     12  C   UNL     1      90.641  91.817  78.294  1.00  0.00     0.008 A 
BRANCH   8  13
ATOM     13  O   UNL     1      89.417  89.111  75.392  1.00  0.00    -0.493 OA
ATOM     14  C   UNL     1      89.132  89.644  74.100  1.00  0.00     0.278 C 
ENDBRANCH   8  13
BRANCH  10  15
ATOM     15  O   UNL     1      89.520  88.345  78.062  1.00  0.00    -0.504 OA
ATOM     16  H   UNL     1      90.330  87.810  78.123  1.00  0.00     0.293 HD
ENDBRANCH  10  15
ENDBRANCH   6   7
ENDBRANCH   5   6
ENDBRANCH   3   5
ENDBRANCH   2   3
BRANCH   1  17
ATOM     17  C   UNL     1      94.767  97.243  74.371  1.00  0.00     0.027 C 
BRANCH  17  18
ATOM     18  C   UNL     1      95.094  97.462  72.891  1.00  0.00     0.004 C 
BRANCH  18  19
ATOM     19  C   UNL     1      94.475  98.736  72.307  1.00  0.00     0.000 C 
BRANCH  19  20
ATOM     20  C   UNL     1      93.743  98.443  70.996  1.00  0.00    -0.003 C 
ATOM     21  C   UNL     1      92.527  99.339  70.824  1.00  0.00     0.004 C 
ENDBRANCH  19  20
ENDBRANCH  18  19
ENDBRANCH  17  18
ENDBRANCH   1  17
TORSDOF 10
ENDMDL
MODEL 6
REMARK VINA RESULT:    -5.673     23.592     27.651
REMARK INTER + INTRA:          -9.537
REMARK INTER:                  -7.637
REMARK INTRA:                  -1.900
REMARK UNBOUND:                -0.713
REMARK SMILES CCCCC/C=C/C(=O)CCc1ccc(O)c(OC)c1
REMARK SMILES IDX 6 1 7 2 8 3 9 4 10 5 11 6 12 7 17 8 20 9 15 10 14 11 13 12
REMARK SMILES IDX 18 13 19 14 16 15 5 17 4 18 3 19 2 20 1 21
REMARK H PARENT 16 16
REMARK Flexibility Score: inf
ROOT
ATOM      1  C   UNL     1      80.284  65.084  72.765  1.00  0.00    -0.023 C 
ATOM      2  C   UNL     1      80.275  66.408  72.568  1.00  0.00     0.043 C 
ENDROOT
BRANCH   2   3
ATOM      3  C   UNL     1      80.366  66.953  71.186  1.00  0.00     0.155 C 
ATOM      4  O   UNL     1      79.531  66.682  70.325  1.00  0.00    -0.295 OA
BRANCH   3   5
ATOM      5  C   UNL     1      81.573  67.818  70.878  1.00  0.00     0.085 C 
BRANCH   5   6
ATOM      6  C   UNL     1      82.809  66.964  70.590  1.00  0.00     0.044 C 
BRANCH   6   7
ATOM      7  C   UNL     1      83.683  66.767  71.806  1.00  0.00    -0.044 A 
ATOM      8  C   UNL     1      84.965  67.693  73.611  1.00  0.00     0.160 A 
ATOM      9  C   UNL     1      84.158  67.876  72.488  1.00  0.00     0.054 A 
ATOM     10  C   UNL     1      85.286  66.405  74.038  1.00  0.00     0.157 A 
ATOM     11  C   UNL     1      84.800  65.298  73.340  1.00  0.00     0.050 A 
ATOM     12  C   UNL     1      83.993  65.481  72.217  1.00  0.00     0.008 A 
BRANCH   8  13
ATOM     13  O   UNL     1      85.433  68.782  74.283  1.00  0.00    -0.493 OA
ATOM     14  C   UNL     1      86.166  69.744  73.528  1.00  0.00     0.278 C 
ENDBRANCH   8  13
BRANCH  10  15
ATOM     15  O   UNL     1      86.072  66.214  75.133  1.00  0.00    -0.504 OA
ATOM     16  H   UNL     1      85.644  66.641  75.895  1.00  0.00     0.293 HD
ENDBRANCH  10  15
ENDBRANCH   6   7
ENDBRANCH   5   6
ENDBRANCH   3   5
ENDBRANCH   2   3
BRANCH   1  17
ATOM     17  C   UNL     1      80.196  64.457  74.126  1.00  0.00     0.027 C 
BRANCH  17  18
ATOM     18  C   UNL     1      81.545  64.399  74.850  1.00  0.00     0.004 C 
BRANCH  18  19
ATOM     19  C   UNL     1      81.576  65.200  76.155  1.00  0.00     0.000 C 
BRANCH  19  20
ATOM     20  C   UNL     1      81.852  66.681  75.888  1.00  0.00    -0.003 C 
ATOM     21  C   UNL     1      83.040  67.181  76.695  1.00  0.00     0.004 C 
ENDBRANCH  19  20
ENDBRANCH  18  19
ENDBRANCH  17  18
ENDBRANCH   1  17
TORSDOF 10
ENDMDL
MODEL 7
REMARK VINA RESULT:    -5.666     10.755     12.833
REMARK INTER + INTRA:          -9.525
REMARK INTER:                  -8.396
REMARK INTRA:                  -1.129
REMARK UNBOUND:                -0.713
REMARK SMILES CCCCC/C=C/C(=O)CCc1ccc(O)c(OC)c1
REMARK SMILES IDX 6 1 7 2 8 3 9 4 10 5 11 6 12 7 17 8 20 9 15 10 14 11 13 12
REMARK SMILES IDX 18 13 19 14 16 15 5 17 4 18 3 19 2 20 1 21
REMARK H PARENT 16 16
REMARK Flexibility Score: inf
ROOT
ATOM      1  C   UNL     1      99.867  81.817  76.486  1.00  0.00    -0.023 C 
ATOM      2  C   UNL     1      98.932  82.617  75.959  1.00  0.00     0.043 C 
ENDROOT
BRANCH   2   3
ATOM      3  C   UNL     1      97.491  82.303  76.155  1.00  0.00     0.155 C 
ATOM      4  O   UNL     1      96.636  82.642  75.339  1.00  0.00    -0.295 OA
BRANCH   3   5
ATOM      5  C   UNL     1      97.123  81.588  77.441  1.00  0.00     0.085 C 
BRANCH   5   6
ATOM      6  C   UNL     1      96.585  82.567  78.486  1.00  0.00     0.044 C 
BRANCH   6   7
ATOM      7  C   UNL     1      97.302  82.465  79.811  1.00  0.00    -0.044 A 
ATOM      8  C   UNL     1      97.307  82.751  82.194  1.00  0.00     0.160 A 
ATOM      9  C   UNL     1      96.645  82.847  80.970  1.00  0.00     0.054 A 
ATOM     10  C   UNL     1      98.617  82.276  82.243  1.00  0.00     0.157 A 
ATOM     11  C   UNL     1      99.266  81.895  81.067  1.00  0.00     0.050 A 
ATOM     12  C   UNL     1      98.603  81.991  79.843  1.00  0.00     0.008 A 
BRANCH   8  13
ATOM     13  O   UNL     1      96.663  83.126  83.335  1.00  0.00    -0.493 OA
ATOM     14  C   UNL     1      96.490  84.525  83.551  1.00  0.00     0.278 C 
ENDBRANCH   8  13
BRANCH  10  15
ATOM     15  O   UNL     1      99.274  82.178  83.432  1.00  0.00    -0.504 OA
ATOM     16  H   UNL     1      98.639  81.888  84.109  1.00  0.00     0.293 HD
ENDBRANCH  10  15
ENDBRANCH   6   7
ENDBRANCH   5   6
ENDBRANCH   3   5
ENDBRANCH   2   3
BRANCH   1  17
ATOM     17  C   UNL     1     101.340  82.064  76.333  1.00  0.00     0.027 C 
BRANCH  17  18
ATOM     18  C   UNL     1     101.715  82.633  74.961  1.00  0.00     0.004 C 
BRANCH  18  19
ATOM     19  C   UNL     1     102.014  84.136  74.980  1.00  0.00     0.000 C 
BRANCH  19  20
ATOM     20  C   UNL     1     101.173  84.878  73.940  1.00  0.00    -0.003 C 
ATOM     21  C   UNL     1     100.802  83.975  72.775  1.00  0.00     0.004 C 
ENDBRANCH  19  20
ENDBRANCH  18  19
ENDBRANCH  17  18
ENDBRANCH   1  17
TORSDOF 10
ENDMDL
MODEL 8
REMARK VINA RESULT:    -5.663     13.873     16.394
REMARK INTER + INTRA:          -9.521
REMARK INTER:                  -7.655
REMARK INTRA:                  -1.866
REMARK UNBOUND:                -0.713
REMARK SMILES CCCCC/C=C/C(=O)CCc1ccc(O)c(OC)c1
REMARK SMILES IDX 6 1 7 2 8 3 9 4 10 5 11 6 12 7 17 8 20 9 15 10 14 11 13 12
REMARK SMILES IDX 18 13 19 14 16 15 5 17 4 18 3 19 2 20 1 21
REMARK H PARENT 16 16
REMARK Flexibility Score: inf
ROOT
ATOM      1  C   UNL     1      81.942  89.347  84.940  1.00  0.00    -0.023 C 
ATOM      2  C   UNL     1      83.250  89.185  84.706  1.00  0.00     0.043 C 
ENDROOT
BRANCH   2   3
ATOM      3  C   UNL     1      84.248  89.691  85.688  1.00  0.00     0.155 C 
ATOM      4  O   UNL     1      85.367  89.193  85.790  1.00  0.00    -0.295 OA
BRANCH   3   5
ATOM      5  C   UNL     1      83.794  90.819  86.593  1.00  0.00     0.085 C 
BRANCH   5   6
ATOM      6  C   UNL     1      83.692  90.357  88.048  1.00  0.00     0.044 C 
BRANCH   6   7
ATOM      7  C   UNL     1      82.281  90.002  88.454  1.00  0.00    -0.044 A 
ATOM      8  C   UNL     1      80.762  88.578  89.648  1.00  0.00     0.160 A 
ATOM      9  C   UNL     1      82.066  88.905  89.273  1.00  0.00     0.054 A 
ATOM     10  C   UNL     1      79.692  89.351  89.200  1.00  0.00     0.157 A 
ATOM     11  C   UNL     1      79.925  90.453  88.375  1.00  0.00     0.050 A 
ATOM     12  C   UNL     1      81.229  90.780  88.000  1.00  0.00     0.008 A 
BRANCH   8  13
ATOM     13  O   UNL     1      80.548  87.500  90.453  1.00  0.00    -0.493 OA
ATOM     14  C   UNL     1      80.700  87.698  91.857  1.00  0.00     0.278 C 
ENDBRANCH   8  13
BRANCH  10  15
ATOM     15  O   UNL     1      78.415  89.043  89.559  1.00  0.00    -0.504 OA
ATOM     16  H   UNL     1      78.175  88.200  89.138  1.00  0.00     0.293 HD
ENDBRANCH  10  15
ENDBRANCH   6   7
ENDBRANCH   5   6
ENDBRANCH   3   5
ENDBRANCH   2   3
BRANCH   1  17
ATOM     17  C   UNL     1      80.875  88.867  84.001  1.00  0.00     0.027 C 
BRANCH  17  18
ATOM     18  C   UNL     1      79.775  88.062  84.701  1.00  0.00     0.004 C 
BRANCH  18  19
ATOM     19  C   UNL     1      80.208  87.473  86.047  1.00  0.00     0.000 C 
BRANCH  19  20
ATOM     20  C   UNL     1      80.702  86.034  85.886  1.00  0.00    -0.003 C 
ATOM     21  C   UNL     1      82.093  85.854  86.472  1.00  0.00     0.004 C 
ENDBRANCH  19  20
ENDBRANCH  18  19
ENDBRANCH  17  18
ENDBRANCH   1  17
TORSDOF 10
ENDMDL
MODEL 9
REMARK VINA RESULT:    -5.650      5.434      7.659
REMARK INTER + INTRA:          -9.501
REMARK INTER:                  -8.953
REMARK INTRA:                  -0.547
REMARK UNBOUND:                -0.713
REMARK SMILES CCCCC/C=C/C(=O)CCc1ccc(O)c(OC)c1
REMARK SMILES IDX 6 1 7 2 8 3 9 4 10 5 11 6 12 7 17 8 20 9 15 10 14 11 13 12
REMARK SMILES IDX 18 13 19 14 16 15 5 17 4 18 3 19 2 20 1 21
REMARK H PARENT 16 16
REMARK Flexibility Score: inf
ROOT
ATOM      1  C   UNL     1      93.914  98.246  71.416  1.00  0.00    -0.023 C 
ATOM      2  C   UNL     1      93.613  98.462  72.703  1.00  0.00     0.043 C 
ENDROOT
BRANCH   2   3
ATOM      3  C   UNL     1      94.317  97.698  73.768  1.00  0.00     0.155 C 
ATOM      4  O   UNL     1      95.185  98.212  74.470  1.00  0.00    -0.295 OA
BRANCH   3   5
ATOM      5  C   UNL     1      93.945  96.234  73.908  1.00  0.00     0.085 C 
BRANCH   5   6
ATOM      6  C   UNL     1      94.172  95.738  75.336  1.00  0.00     0.044 C 
BRANCH   6   7
ATOM      7  C   UNL     1      93.241  94.612  75.722  1.00  0.00    -0.044 A 
ATOM      8  C   UNL     1      91.585  92.988  75.107  1.00  0.00     0.160 A 
ATOM      9  C   UNL     1      92.444  94.028  74.751  1.00  0.00     0.054 A 
ATOM     10  C   UNL     1      91.534  92.546  76.429  1.00  0.00     0.157 A 
ATOM     11  C   UNL     1      92.343  93.146  77.396  1.00  0.00     0.050 A 
ATOM     12  C   UNL     1      93.201  94.186  77.039  1.00  0.00     0.008 A 
BRANCH   8  13
ATOM     13  O   UNL     1      90.801  92.411  74.154  1.00  0.00    -0.493 OA
ATOM     14  C   UNL     1      91.430  91.486  73.269  1.00  0.00     0.278 C 
ENDBRANCH   8  13
BRANCH  10  15
ATOM     15  O   UNL     1      90.700  91.532  76.789  1.00  0.00    -0.504 OA
ATOM     16  H   UNL     1      89.819  91.715  76.419  1.00  0.00     0.293 HD
ENDBRANCH  10  15
ENDBRANCH   6   7
ENDBRANCH   5   6
ENDBRANCH   3   5
ENDBRANCH   2   3
BRANCH   1  17
ATOM     17  C   UNL     1      93.249  98.975  70.284  1.00  0.00     0.027 C 
BRANCH  17  18
ATOM     18  C   UNL     1      91.725  98.815  70.278  1.00  0.00     0.004 C 
BRANCH  18  19
ATOM     19  C   UNL     1      91.112  98.833  68.875  1.00  0.00     0.000 C 
BRANCH  19  20
ATOM     20  C   UNL     1      90.139  97.669  68.683  1.00  0.00    -0.003 C 
ATOM     21  C   UNL     1      89.823  97.442  67.214  1.00  0.00     0.004 C 
ENDBRANCH  19  20
ENDBRANCH  18  19
ENDBRANCH  17  18
ENDBRANCH   1  17
TORSDOF 10
ENDMDL
MODEL 10
REMARK VINA RESULT:    -5.564      2.499      3.917
REMARK INTER + INTRA:          -9.367
REMARK INTER:                  -8.696
REMARK INTRA:                  -0.671
REMARK UNBOUND:                -0.713
REMARK SMILES CCCCC/C=C/C(=O)CCc1ccc(O)c(OC)c1
REMARK SMILES IDX 6 1 7 2 8 3 9 4 10 5 11 6 12 7 17 8 20 9 15 10 14 11 13 12
REMARK SMILES IDX 18 13 19 14 16 15 5 17 4 18 3 19 2 20 1 21
REMARK H PARENT 16 16
REMARK Flexibility Score: inf
ROOT
ATOM      1  C   UNL     1      94.313  94.481  75.948  1.00  0.00    -0.023 C 
ATOM      2  C   UNL     1      93.211  93.769  75.680  1.00  0.00     0.043 C 
ENDROOT
BRANCH   2   3
ATOM      3  C   UNL     1      92.192  93.551  76.742  1.00  0.00     0.155 C 
ATOM      4  O   UNL     1      92.503  93.179  77.872  1.00  0.00    -0.295 OA
BRANCH   3   5
ATOM      5  C   UNL     1      90.744  93.760  76.344  1.00  0.00     0.085 C 
BRANCH   5   6
ATOM      6  C   UNL     1      90.370  92.897  75.139  1.00  0.00     0.044 C 
BRANCH   6   7
ATOM      7  C   UNL     1      90.514  91.418  75.408  1.00  0.00    -0.044 A 
ATOM      8  C   UNL     1      90.105  89.516  76.813  1.00  0.00     0.160 A 
ATOM      9  C   UNL     1      89.972  90.882  76.565  1.00  0.00     0.054 A 
ATOM     10  C   UNL     1      90.779  88.703  75.901  1.00  0.00     0.157 A 
ATOM     11  C   UNL     1      91.320  89.258  74.741  1.00  0.00     0.050 A 
ATOM     12  C   UNL     1      91.187  90.624  74.493  1.00  0.00     0.008 A 
BRANCH   8  13
ATOM     13  O   UNL     1      89.572  88.986  77.950  1.00  0.00    -0.493 OA
ATOM     14  C   UNL     1      89.995  89.553  79.189  1.00  0.00     0.278 C 
ENDBRANCH   8  13
BRANCH  10  15
ATOM     15  O   UNL     1      90.915  87.368  76.132  1.00  0.00    -0.504 OA
ATOM     16  H   UNL     1      90.476  86.887  75.410  1.00  0.00     0.293 HD
ENDBRANCH  10  15
ENDBRANCH   6   7
ENDBRANCH   5   6
ENDBRANCH   3   5
ENDBRANCH   2   3
BRANCH   1  17
ATOM     17  C   UNL     1      95.386  94.745  74.933  1.00  0.00     0.027 C 
BRANCH  17  18
ATOM     18  C   UNL     1      96.025  96.131  75.079  1.00  0.00     0.004 C 
BRANCH  18  19
ATOM     19  C   UNL     1      97.086  96.433  74.016  1.00  0.00     0.000 C 
BRANCH  19  20
ATOM     20  C   UNL     1      96.581  97.473  73.014  1.00  0.00    -0.003 C 
ATOM     21  C   UNL     1      95.122  97.821  73.260  1.00  0.00     0.004 C 
ENDBRANCH  19  20
ENDBRANCH  18  19
ENDBRANCH  17  18
ENDBRANCH   1  17
TORSDOF 10
ENDMDL
