MODEL 1
REMARK VINA RESULT:    -5.801      0.000      0.000
REMARK INTER + INTRA:         -11.326
REMARK INTER:                  -9.531
REMARK INTRA:                  -1.795
REMARK UNBOUND:                -1.795
REMARK SMILES CCCCC[C@H](O)CC(=O)CCc1ccc(O)c(OC)c1
REMARK SMILES IDX 8 1 6 2 7 3 5 5 4 6 3 7 2 8 1 9 9 10 10 11 11 12 12 13 13 14
REMARK SMILES IDX 21 15 14 16 18 17 15 18 16 19 19 20 20 21 17 22
REMARK H PARENT 7 4 17 23
REMARK Flexibility Score: inf
ROOT
ATOM      1  C   UNL     1      81.569  87.192  84.423  1.00  0.00     0.107 C 
ENDROOT
BRANCH   1   2
ATOM      2  C   UNL     1      81.357  85.850  85.129  1.00  0.00     0.121 C 
BRANCH   2   3
ATOM      3  O   UNL     1      81.722  84.783  84.258  1.00  0.00    -0.393 OA
ATOM      4  H   UNL     1      82.070  84.057  84.806  1.00  0.00     0.210 HD
ENDBRANCH   2   3
BRANCH   2   5
ATOM      5  C   UNL     1      82.148  85.729  86.437  1.00  0.00     0.032 C 
BRANCH   5   6
ATOM      6  C   UNL     1      81.606  86.661  87.527  1.00  0.00     0.003 C 
BRANCH   6   7
ATOM      7  C   UNL     1      80.101  86.505  87.765  1.00  0.00    -0.000 C 
BRANCH   7   8
ATOM      8  C   UNL     1      79.585  87.299  88.965  1.00  0.00    -0.003 C 
ATOM      9  C   UNL     1      79.519  86.434  90.214  1.00  0.00     0.004 C 
ENDBRANCH   7   8
ENDBRANCH   6   7
ENDBRANCH   5   6
ENDBRANCH   2   5
ENDBRANCH   1   2
BRANCH   1  10
ATOM     10  C   UNL     1      80.275  87.814  83.924  1.00  0.00     0.135 C 
ATOM     11  O   UNL     1      79.727  87.400  82.901  1.00  0.00    -0.300 OA
BRANCH  10  12
ATOM     12  C   UNL     1      79.681  88.927  84.773  1.00  0.00     0.080 C 
BRANCH  12  13
ATOM     13  C   UNL     1      80.568  90.170  84.865  1.00  0.00     0.043 C 
BRANCH  13  14
ATOM     14  C   UNL     1      81.386  90.221  86.133  1.00  0.00    -0.044 A 
ATOM     15  C   UNL     1      82.780  90.222  86.065  1.00  0.00     0.054 A 
ATOM     16  C   UNL     1      80.748  90.266  87.373  1.00  0.00     0.008 A 
ATOM     17  C   UNL     1      83.534  90.269  87.238  1.00  0.00     0.160 A 
ATOM     18  C   UNL     1      81.502  90.314  88.545  1.00  0.00     0.050 A 
ATOM     19  C   UNL     1      82.896  90.315  88.477  1.00  0.00     0.157 A 
BRANCH  17  20
ATOM     20  O   UNL     1      84.894  90.269  87.159  1.00  0.00    -0.493 OA
ATOM     21  C   UNL     1      85.477  89.670  86.003  1.00  0.00     0.278 C 
ENDBRANCH  17  20
BRANCH  19  22
ATOM     22  O   UNL     1      83.622  90.362  89.629  1.00  0.00    -0.504 OA
ATOM     23  H   UNL     1      83.352  89.625  90.204  1.00  0.00     0.293 HD
ENDBRANCH  19  22
ENDBRANCH  13  14
ENDBRANCH  12  13
ENDBRANCH  10  12
ENDBRANCH   1  10
TORSDOF 12
ENDMDL
MODEL 2
REMARK VINA RESULT:    -5.702      1.455      3.426
REMARK INTER + INTRA:         -11.163
REMARK INTER:                  -9.475
REMARK INTRA:                  -1.688
REMARK UNBOUND:                -1.795
REMARK SMILES CCCCC[C@H](O)CC(=O)CCc1ccc(O)c(OC)c1
REMARK SMILES IDX 8 1 6 2 7 3 5 5 4 6 3 7 2 8 1 9 9 10 10 11 11 12 12 13 13 14
REMARK SMILES IDX 21 15 14 16 18 17 15 18 16 19 19 20 20 21 17 22
REMARK H PARENT 7 4 17 23
REMARK Flexibility Score: inf
ROOT
ATOM      1  C   UNL     1      80.581  86.029  86.030  1.00  0.00     0.107 C 
ENDROOT
BRANCH   1   2
ATOM      2  C   UNL     1      81.220  86.197  84.649  1.00  0.00     0.121 C 
BRANCH   2   3
ATOM      3  O   UNL     1      81.525  84.918  84.098  1.00  0.00    -0.393 OA
ATOM      4  H   UNL     1      80.761  84.336  84.257  1.00  0.00     0.210 HD
ENDBRANCH   2   3
BRANCH   2   5
ATOM      5  C   UNL     1      80.331  86.970  83.667  1.00  0.00     0.032 C 
BRANCH   5   6
ATOM      6  C   UNL     1      79.469  88.022  84.376  1.00  0.00     0.003 C 
BRANCH   6   7
ATOM      7  C   UNL     1      80.192  89.356  84.589  1.00  0.00    -0.000 C 
BRANCH   7   8
ATOM      8  C   UNL     1      81.710  89.257  84.455  1.00  0.00    -0.003 C 
ATOM      9  C   UNL     1      82.340  90.628  84.262  1.00  0.00     0.004 C 
ENDBRANCH   7   8
ENDBRANCH   6   7
ENDBRANCH   5   6
ENDBRANCH   2   5
ENDBRANCH   1   2
BRANCH   1  10
ATOM     10  C   UNL     1      81.604  85.857  87.142  1.00  0.00     0.135 C 
ATOM     11  O   UNL     1      82.543  85.071  87.022  1.00  0.00    -0.300 OA
BRANCH  10  12
ATOM     12  C   UNL     1      81.426  86.734  88.372  1.00  0.00     0.080 C 
BRANCH  12  13
ATOM     13  C   UNL     1      80.597  87.994  88.115  1.00  0.00     0.043 C 
BRANCH  13  14
ATOM     14  C   UNL     1      81.429  89.254  88.089  1.00  0.00    -0.044 A 
ATOM     15  C   UNL     1      82.781  89.191  87.752  1.00  0.00     0.054 A 
ATOM     16  C   UNL     1      80.844  90.482  88.401  1.00  0.00     0.008 A 
ATOM     17  C   UNL     1      83.548  90.356  87.726  1.00  0.00     0.160 A 
ATOM     18  C   UNL     1      81.611  91.647  88.376  1.00  0.00     0.050 A 
ATOM     19  C   UNL     1      82.963  91.584  88.039  1.00  0.00     0.157 A 
BRANCH  17  20
ATOM     20  O   UNL     1      84.868  90.282  87.396  1.00  0.00    -0.493 OA
ATOM     21  C   UNL     1      85.198  89.577  86.201  1.00  0.00     0.278 C 
ENDBRANCH  17  20
BRANCH  19  22
ATOM     22  O   UNL     1      83.702  92.728  88.018  1.00  0.00    -0.504 OA
ATOM     23  H   UNL     1      83.192  93.442  88.439  1.00  0.00     0.293 HD
ENDBRANCH  19  22
ENDBRANCH  13  14
ENDBRANCH  12  13
ENDBRANCH  10  12
ENDBRANCH   1  10
TORSDOF 12
ENDMDL
MODEL 3
REMARK VINA RESULT:    -5.439      3.300      5.300
REMARK INTER + INTRA:         -10.731
REMARK INTER:                  -9.496
REMARK INTRA:                  -1.235
REMARK UNBOUND:                -1.795
REMARK SMILES CCCCC[C@H](O)CC(=O)CCc1ccc(O)c(OC)c1
REMARK SMILES IDX 8 1 6 2 7 3 5 5 4 6 3 7 2 8 1 9 9 10 10 11 11 12 12 13 13 14
REMARK SMILES IDX 21 15 14 16 18 17 15 18 16 19 19 20 20 21 17 22
REMARK H PARENT 7 4 17 23
REMARK Flexibility Score: inf
ROOT
ATOM      1  C   UNL     1      83.435  90.265  84.546  1.00  0.00     0.107 C 
ENDROOT
BRANCH   1   2
ATOM      2  C   UNL     1      83.075  88.841  84.979  1.00  0.00     0.121 C 
BRANCH   2   3
ATOM      3  O   UNL     1      84.079  88.334  85.855  1.00  0.00    -0.393 OA
ATOM      4  H   UNL     1      83.736  87.518  86.259  1.00  0.00     0.210 HD
ENDBRANCH   2   3
BRANCH   2   5
ATOM      5  C   UNL     1      81.709  88.752  85.671  1.00  0.00     0.032 C 
BRANCH   5   6
ATOM      6  C   UNL     1      80.619  89.502  84.895  1.00  0.00     0.003 C 
BRANCH   6   7
ATOM      7  C   UNL     1      79.425  88.618  84.521  1.00  0.00    -0.000 C 
BRANCH   7   8
ATOM      8  C   UNL     1      79.811  87.181  84.176  1.00  0.00    -0.003 C 
ATOM      9  C   UNL     1      80.170  87.042  82.704  1.00  0.00     0.004 C 
ENDBRANCH   7   8
ENDBRANCH   6   7
ENDBRANCH   5   6
ENDBRANCH   2   5
ENDBRANCH   1   2
BRANCH   1  10
ATOM     10  C   UNL     1      84.843  90.672  84.949  1.00  0.00     0.135 C 
ATOM     11  O   UNL     1      85.826  90.117  84.458  1.00  0.00    -0.300 OA
BRANCH  10  12
ATOM     12  C   UNL     1      84.964  91.816  85.943  1.00  0.00     0.080 C 
BRANCH  12  13
ATOM     13  C   UNL     1      83.935  91.760  87.074  1.00  0.00     0.043 C 
BRANCH  13  14
ATOM     14  C   UNL     1      83.513  93.127  87.558  1.00  0.00    -0.044 A 
ATOM     15  C   UNL     1      82.646  93.246  88.644  1.00  0.00     0.054 A 
ATOM     16  C   UNL     1      83.990  94.271  86.918  1.00  0.00     0.008 A 
ATOM     17  C   UNL     1      82.257  94.509  89.091  1.00  0.00     0.160 A 
ATOM     18  C   UNL     1      83.602  95.534  87.365  1.00  0.00     0.050 A 
ATOM     19  C   UNL     1      82.735  95.653  88.451  1.00  0.00     0.157 A 
BRANCH  17  20
ATOM     20  O   UNL     1      81.409  94.612  90.152  1.00  0.00    -0.493 OA
ATOM     21  C   UNL     1      80.180  93.893  90.072  1.00  0.00     0.278 C 
ENDBRANCH  17  20
BRANCH  19  22
ATOM     22  O   UNL     1      82.362  96.891  88.878  1.00  0.00    -0.504 OA
ATOM     23  H   UNL     1      83.071  97.263  89.431  1.00  0.00     0.293 HD
ENDBRANCH  19  22
ENDBRANCH  13  14
ENDBRANCH  12  13
ENDBRANCH  10  12
ENDBRANCH   1  10
TORSDOF 12
ENDMDL
MODEL 4
REMARK VINA RESULT:    -5.343      1.564      2.619
REMARK INTER + INTRA:         -10.573
REMARK INTER:                  -8.797
REMARK INTRA:                  -1.776
REMARK UNBOUND:                -1.795
REMARK SMILES CCCCC[C@H](O)CC(=O)CCc1ccc(O)c(OC)c1
REMARK SMILES IDX 8 1 6 2 7 3 5 5 4 6 3 7 2 8 1 9 9 10 10 11 11 12 12 13 13 14
REMARK SMILES IDX 21 15 14 16 18 17 15 18 16 19 19 20 20 21 17 22
REMARK H PARENT 7 4 17 23
REMARK Flexibility Score: inf
ROOT
ATOM      1  C   UNL     1      80.428  87.510  84.171  1.00  0.00     0.107 C 
ENDROOT
BRANCH   1   2
ATOM      2  C   UNL     1      80.501  86.192  84.946  1.00  0.00     0.121 C 
BRANCH   2   3
ATOM      3  O   UNL     1      81.410  85.302  84.301  1.00  0.00    -0.393 OA
ATOM      4  H   UNL     1      80.911  84.799  83.634  1.00  0.00     0.210 HD
ENDBRANCH   2   3
BRANCH   2   5
ATOM      5  C   UNL     1      80.927  86.378  86.407  1.00  0.00     0.032 C 
BRANCH   5   6
ATOM      6  C   UNL     1      79.723  86.521  87.346  1.00  0.00     0.003 C 
BRANCH   6   7
ATOM      7  C   UNL     1      79.925  87.578  88.436  1.00  0.00    -0.000 C 
BRANCH   7   8
ATOM      8  C   UNL     1      80.606  87.039  89.692  1.00  0.00    -0.003 C 
ATOM      9  C   UNL     1      81.930  87.742  89.950  1.00  0.00     0.004 C 
ENDBRANCH   7   8
ENDBRANCH   6   7
ENDBRANCH   5   6
ENDBRANCH   2   5
ENDBRANCH   1   2
BRANCH   1  10
ATOM     10  C   UNL     1      81.621  88.416  84.424  1.00  0.00     0.135 C 
ATOM     11  O   UNL     1      82.771  87.980  84.364  1.00  0.00    -0.300 OA
BRANCH  10  12
ATOM     12  C   UNL     1      81.319  89.880  84.705  1.00  0.00     0.080 C 
BRANCH  12  13
ATOM     13  C   UNL     1      80.658  90.122  86.063  1.00  0.00     0.043 C 
BRANCH  13  14
ATOM     14  C   UNL     1      81.650  90.454  87.153  1.00  0.00    -0.044 A 
ATOM     15  C   UNL     1      81.217  91.071  88.326  1.00  0.00     0.054 A 
ATOM     16  C   UNL     1      83.000  90.143  86.985  1.00  0.00     0.008 A 
ATOM     17  C   UNL     1      82.135  91.377  89.332  1.00  0.00     0.160 A 
ATOM     18  C   UNL     1      83.917  90.449  87.991  1.00  0.00     0.050 A 
ATOM     19  C   UNL     1      83.484  91.066  89.164  1.00  0.00     0.157 A 
BRANCH  17  20
ATOM     20  O   UNL     1      81.700  91.980  90.474  1.00  0.00    -0.493 OA
ATOM     21  C   UNL     1      81.376  91.131  91.573  1.00  0.00     0.278 C 
ENDBRANCH  17  20
BRANCH  19  22
ATOM     22  O   UNL     1      84.389  91.359  90.139  1.00  0.00    -0.504 OA
ATOM     23  H   UNL     1      85.248  91.555  89.726  1.00  0.00     0.293 HD
ENDBRANCH  19  22
ENDBRANCH  13  14
ENDBRANCH  12  13
ENDBRANCH  10  12
ENDBRANCH   1  10
TORSDOF 12
ENDMDL
MODEL 5
REMARK VINA RESULT:    -5.301      2.239      4.761
REMARK INTER + INTRA:         -10.505
REMARK INTER:                  -8.712
REMARK INTRA:                  -1.793
REMARK UNBOUND:                -1.795
REMARK SMILES CCCCC[C@H](O)CC(=O)CCc1ccc(O)c(OC)c1
REMARK SMILES IDX 8 1 6 2 7 3 5 5 4 6 3 7 2 8 1 9 9 10 10 11 11 12 12 13 13 14
REMARK SMILES IDX 21 15 14 16 18 17 15 18 16 19 19 20 20 21 17 22
REMARK H PARENT 7 4 17 23
REMARK Flexibility Score: inf
ROOT
ATOM      1  C   UNL     1      83.746  90.789  84.775  1.00  0.00     0.107 C 
ENDROOT
BRANCH   1   2
ATOM      2  C   UNL     1      82.790  89.701  84.277  1.00  0.00     0.121 C 
BRANCH   2   3
ATOM      3  O   UNL     1      83.202  88.431  84.777  1.00  0.00    -0.393 OA
ATOM      4  H   UNL     1      83.658  88.578  85.624  1.00  0.00     0.210 HD
ENDBRANCH   2   3
BRANCH   2   5
ATOM      5  C   UNL     1      81.332  89.954  84.679  1.00  0.00     0.032 C 
BRANCH   5   6
ATOM      6  C   UNL     1      80.525  88.652  84.767  1.00  0.00     0.003 C 
BRANCH   6   7
ATOM      7  C   UNL     1      80.227  88.031  83.398  1.00  0.00    -0.000 C 
BRANCH   7   8
ATOM      8  C   UNL     1      80.493  86.528  83.337  1.00  0.00    -0.003 C 
ATOM      9  C   UNL     1      80.727  85.950  84.724  1.00  0.00     0.004 C 
ENDBRANCH   7   8
ENDBRANCH   6   7
ENDBRANCH   5   6
ENDBRANCH   2   5
ENDBRANCH   1   2
BRANCH   1  10
ATOM     10  C   UNL     1      84.896  90.239  85.602  1.00  0.00     0.135 C 
ATOM     11  O   UNL     1      85.924  89.829  85.062  1.00  0.00    -0.300 OA
BRANCH  10  12
ATOM     12  C   UNL     1      84.724  90.266  87.113  1.00  0.00     0.080 C 
BRANCH  12  13
ATOM     13  C   UNL     1      83.574  91.158  87.585  1.00  0.00     0.043 C 
BRANCH  13  14
ATOM     14  C   UNL     1      82.340  90.378  87.971  1.00  0.00    -0.044 A 
ATOM     15  C   UNL     1      81.148  91.049  88.243  1.00  0.00     0.054 A 
ATOM     16  C   UNL     1      82.393  88.987  88.057  1.00  0.00     0.008 A 
ATOM     17  C   UNL     1      80.008  90.327  88.599  1.00  0.00     0.160 A 
ATOM     18  C   UNL     1      81.254  88.265  88.413  1.00  0.00     0.050 A 
ATOM     19  C   UNL     1      80.061  88.936  88.684  1.00  0.00     0.157 A 
BRANCH  17  20
ATOM     20  O   UNL     1      78.849  90.993  88.862  1.00  0.00    -0.493 OA
ATOM     21  C   UNL     1      78.940  92.148  89.695  1.00  0.00     0.278 C 
ENDBRANCH  17  20
BRANCH  19  22
ATOM     22  O   UNL     1      78.955  88.221  89.031  1.00  0.00    -0.504 OA
ATOM     23  H   UNL     1      78.355  88.175  88.267  1.00  0.00     0.293 HD
ENDBRANCH  19  22
ENDBRANCH  13  14
ENDBRANCH  12  13
ENDBRANCH  10  12
ENDBRANCH   1  10
TORSDOF 12
ENDMDL
MODEL 6
REMARK VINA RESULT:    -5.194      2.300      4.378
REMARK INTER + INTRA:         -10.329
REMARK INTER:                  -8.771
REMARK INTRA:                  -1.558
REMARK UNBOUND:                -1.795
REMARK SMILES CCCCC[C@H](O)CC(=O)CCc1ccc(O)c(OC)c1
REMARK SMILES IDX 8 1 6 2 7 3 5 5 4 6 3 7 2 8 1 9 9 10 10 11 11 12 12 13 13 14
REMARK SMILES IDX 21 15 14 16 18 17 15 18 16 19 19 20 20 21 17 22
REMARK H PARENT 7 4 17 23
REMARK Flexibility Score: inf
ROOT
ATOM      1  C   UNL     1      83.564  90.669  84.389  1.00  0.00     0.107 C 
ENDROOT
BRANCH   1   2
ATOM      2  C   UNL     1      82.600  89.507  84.635  1.00  0.00     0.121 C 
BRANCH   2   3
ATOM      3  O   UNL     1      83.332  88.342  85.011  1.00  0.00    -0.393 OA
ATOM      4  H   UNL     1      82.856  87.915  85.744  1.00  0.00     0.210 HD
ENDBRANCH   2   3
BRANCH   2   5
ATOM      5  C   UNL     1      81.553  89.814  85.713  1.00  0.00     0.032 C 
BRANCH   5   6
ATOM      6  C   UNL     1      80.573  88.651  85.913  1.00  0.00     0.003 C 
BRANCH   6   7
ATOM      7  C   UNL     1      79.665  88.409  84.703  1.00  0.00    -0.000 C 
BRANCH   7   8
ATOM      8  C   UNL     1      79.763  86.993  84.138  1.00  0.00    -0.003 C 
ATOM      9  C   UNL     1      80.411  86.990  82.762  1.00  0.00     0.004 C 
ENDBRANCH   7   8
ENDBRANCH   6   7
ENDBRANCH   5   6
ENDBRANCH   2   5
ENDBRANCH   1   2
BRANCH   1  10
ATOM     10  C   UNL     1      84.939  90.442  84.997  1.00  0.00     0.135 C 
ATOM     11  O   UNL     1      85.856  89.965  84.328  1.00  0.00    -0.300 OA
BRANCH  10  12
ATOM     12  C   UNL     1      85.125  90.874  86.443  1.00  0.00     0.080 C 
BRANCH  12  13
ATOM     13  C   UNL     1      84.300  92.104  86.828  1.00  0.00     0.043 C 
BRANCH  13  14
ATOM     14  C   UNL     1      83.367  91.851  87.988  1.00  0.00    -0.044 A 
ATOM     15  C   UNL     1      83.371  90.612  88.630  1.00  0.00     0.054 A 
ATOM     16  C   UNL     1      82.501  92.856  88.418  1.00  0.00     0.008 A 
ATOM     17  C   UNL     1      82.510  90.380  89.702  1.00  0.00     0.160 A 
ATOM     18  C   UNL     1      81.639  92.624  89.490  1.00  0.00     0.050 A 
ATOM     19  C   UNL     1      81.643  91.386  90.132  1.00  0.00     0.157 A 
BRANCH  17  20
ATOM     20  O   UNL     1      82.522  89.166  90.321  1.00  0.00    -0.493 OA
ATOM     21  C   UNL     1      81.888  88.085  89.640  1.00  0.00     0.278 C 
ENDBRANCH  17  20
BRANCH  19  22
ATOM     22  O   UNL     1      80.797  91.170  91.177  1.00  0.00    -0.504 OA
ATOM     23  H   UNL     1      79.887  91.362  90.893  1.00  0.00     0.293 HD
ENDBRANCH  19  22
ENDBRANCH  13  14
ENDBRANCH  12  13
ENDBRANCH  10  12
ENDBRANCH   1  10
TORSDOF 12
ENDMDL
MODEL 7
REMARK VINA RESULT:    -5.176      2.044      3.825
REMARK INTER + INTRA:         -10.299
REMARK INTER:                  -8.802
REMARK INTRA:                  -1.497
REMARK UNBOUND:                -1.795
REMARK SMILES CCCCC[C@H](O)CC(=O)CCc1ccc(O)c(OC)c1
REMARK SMILES IDX 8 1 6 2 7 3 5 5 4 6 3 7 2 8 1 9 9 10 10 11 11 12 12 13 13 14
REMARK SMILES IDX 21 15 14 16 18 17 15 18 16 19 19 20 20 21 17 22
REMARK H PARENT 7 4 17 23
REMARK Flexibility Score: inf
ROOT
ATOM      1  C   UNL     1      81.765  90.098  84.554  1.00  0.00     0.107 C 
ENDROOT
BRANCH   1   2
ATOM      2  C   UNL     1      80.781  89.335  85.445  1.00  0.00     0.121 C 
BRANCH   2   3
ATOM      3  O   UNL     1      80.345  90.174  86.512  1.00  0.00    -0.393 OA
ATOM      4  H   UNL     1      79.375  90.121  86.555  1.00  0.00     0.210 HD
ENDBRANCH   2   3
BRANCH   2   5
ATOM      5  C   UNL     1      79.558  88.816  84.679  1.00  0.00     0.032 C 
BRANCH   5   6
ATOM      6  C   UNL     1      79.840  87.481  83.979  1.00  0.00     0.003 C 
BRANCH   6   7
ATOM      7  C   UNL     1      79.907  86.293  84.943  1.00  0.00    -0.000 C 
BRANCH   7   8
ATOM      8  C   UNL     1      81.303  85.687  85.073  1.00  0.00    -0.003 C 
ATOM      9  C   UNL     1      81.839  85.829  86.490  1.00  0.00     0.004 C 
ENDBRANCH   7   8
ENDBRANCH   6   7
ENDBRANCH   5   6
ENDBRANCH   2   5
ENDBRANCH   1   2
BRANCH   1  10
ATOM     10  C   UNL     1      83.207  89.658  84.747  1.00  0.00     0.135 C 
ATOM     11  O   UNL     1      83.503  88.464  84.800  1.00  0.00    -0.300 OA
BRANCH  10  12
ATOM     12  C   UNL     1      84.252  90.760  84.824  1.00  0.00     0.080 C 
BRANCH  12  13
ATOM     13  C   UNL     1      84.933  90.869  86.190  1.00  0.00     0.043 C 
BRANCH  13  14
ATOM     14  C   UNL     1      83.952  91.004  87.330  1.00  0.00    -0.044 A 
ATOM     15  C   UNL     1      83.724  89.926  88.186  1.00  0.00     0.054 A 
ATOM     16  C   UNL     1      83.274  92.207  87.527  1.00  0.00     0.008 A 
ATOM     17  C   UNL     1      82.818  90.053  89.240  1.00  0.00     0.160 A 
ATOM     18  C   UNL     1      82.368  92.334  88.581  1.00  0.00     0.050 A 
ATOM     19  C   UNL     1      82.140  91.256  89.437  1.00  0.00     0.157 A 
BRANCH  17  20
ATOM     20  O   UNL     1      82.603  88.993  90.069  1.00  0.00    -0.493 OA
ATOM     21  C   UNL     1      81.701  87.986  89.613  1.00  0.00     0.278 C 
ENDBRANCH  17  20
BRANCH  19  22
ATOM     22  O   UNL     1      81.254  91.391  90.462  1.00  0.00    -0.504 OA
ATOM     23  H   UNL     1      81.693  91.842  91.203  1.00  0.00     0.293 HD
ENDBRANCH  19  22
ENDBRANCH  13  14
ENDBRANCH  12  13
ENDBRANCH  10  12
ENDBRANCH   1  10
TORSDOF 12
ENDMDL
MODEL 8
REMARK VINA RESULT:    -5.176      1.393      2.481
REMARK INTER + INTRA:         -10.299
REMARK INTER:                  -9.187
REMARK INTRA:                  -1.112
REMARK UNBOUND:                -1.795
REMARK SMILES CCCCC[C@H](O)CC(=O)CCc1ccc(O)c(OC)c1
REMARK SMILES IDX 8 1 6 2 7 3 5 5 4 6 3 7 2 8 1 9 9 10 10 11 11 12 12 13 13 14
REMARK SMILES IDX 21 15 14 16 18 17 15 18 16 19 19 20 20 21 17 22
REMARK H PARENT 7 4 17 23
REMARK Flexibility Score: inf
ROOT
ATOM      1  C   UNL     1      81.887  86.745  85.840  1.00  0.00     0.107 C 
ENDROOT
BRANCH   1   2
ATOM      2  C   UNL     1      81.655  85.874  87.077  1.00  0.00     0.121 C 
BRANCH   2   3
ATOM      3  O   UNL     1      82.810  85.075  87.328  1.00  0.00    -0.393 OA
ATOM      4  H   UNL     1      83.330  85.038  86.507  1.00  0.00     0.210 HD
ENDBRANCH   2   3
BRANCH   2   5
ATOM      5  C   UNL     1      81.323  86.690  88.332  1.00  0.00     0.032 C 
BRANCH   5   6
ATOM      6  C   UNL     1      79.833  86.622  88.686  1.00  0.00     0.003 C 
BRANCH   6   7
ATOM      7  C   UNL     1      79.305  87.904  89.338  1.00  0.00    -0.000 C 
BRANCH   7   8
ATOM      8  C   UNL     1      79.075  87.777  90.843  1.00  0.00    -0.003 C 
ATOM      9  C   UNL     1      79.065  86.320  91.280  1.00  0.00     0.004 C 
ENDBRANCH   7   8
ENDBRANCH   6   7
ENDBRANCH   5   6
ENDBRANCH   2   5
ENDBRANCH   1   2
BRANCH   1  10
ATOM     10  C   UNL     1      80.595  87.246  85.214  1.00  0.00     0.135 C 
ATOM     11  O   UNL     1      79.859  86.485  84.587  1.00  0.00    -0.300 OA
BRANCH  10  12
ATOM     12  C   UNL     1      80.248  88.709  85.445  1.00  0.00     0.080 C 
BRANCH  12  13
ATOM     13  C   UNL     1      81.021  89.673  84.543  1.00  0.00     0.043 C 
BRANCH  13  14
ATOM     14  C   UNL     1      82.340  90.108  85.135  1.00  0.00    -0.044 A 
ATOM     15  C   UNL     1      82.445  90.352  86.504  1.00  0.00     0.054 A 
ATOM     16  C   UNL     1      83.455  90.265  84.311  1.00  0.00     0.008 A 
ATOM     17  C   UNL     1      83.665  90.753  87.049  1.00  0.00     0.160 A 
ATOM     18  C   UNL     1      84.675  90.666  84.856  1.00  0.00     0.050 A 
ATOM     19  C   UNL     1      84.780  90.910  86.226  1.00  0.00     0.157 A 
BRANCH  17  20
ATOM     20  O   UNL     1      83.754  90.989  88.388  1.00  0.00    -0.493 OA
ATOM     21  C   UNL     1      83.397  89.919  89.261  1.00  0.00     0.278 C 
ENDBRANCH  17  20
BRANCH  19  22
ATOM     22  O   UNL     1      85.976  91.301  86.746  1.00  0.00    -0.504 OA
ATOM     23  H   UNL     1      85.839  92.090  87.298  1.00  0.00     0.293 HD
ENDBRANCH  19  22
ENDBRANCH  13  14
ENDBRANCH  12  13
ENDBRANCH  10  12
ENDBRANCH   1  10
TORSDOF 12
ENDMDL
MODEL 9
REMARK VINA RESULT:    -5.173     17.319     20.124
REMARK INTER + INTRA:         -10.294
REMARK INTER:                  -8.570
REMARK INTRA:                  -1.724
REMARK UNBOUND:                -1.795
REMARK SMILES CCCCC[C@H](O)CC(=O)CCc1ccc(O)c(OC)c1
REMARK SMILES IDX 8 1 6 2 7 3 5 5 4 6 3 7 2 8 1 9 9 10 10 11 11 12 12 13 13 14
REMARK SMILES IDX 21 15 14 16 18 17 15 18 16 19 19 20 20 21 17 22
REMARK H PARENT 7 4 17 23
REMARK Flexibility Score: inf
ROOT
ATOM      1  C   UNL     1      98.483  81.507  75.665  1.00  0.00     0.107 C 
ENDROOT
BRANCH   1   2
ATOM      2  C   UNL     1      99.718  82.380  75.897  1.00  0.00     0.121 C 
BRANCH   2   3
ATOM      3  O   UNL     1      99.460  83.711  75.457  1.00  0.00    -0.393 OA
ATOM      4  H   UNL     1      98.853  83.660  74.698  1.00  0.00     0.210 HD
ENDBRANCH   2   3
BRANCH   2   5
ATOM      5  C   UNL     1     100.164  82.411  77.364  1.00  0.00     0.032 C 
BRANCH   5   6
ATOM      6  C   UNL     1     100.730  81.062  77.823  1.00  0.00     0.003 C 
BRANCH   6   7
ATOM      7  C   UNL     1     102.241  80.931  77.601  1.00  0.00    -0.000 C 
BRANCH   7   8
ATOM      8  C   UNL     1     102.992  80.375  78.809  1.00  0.00    -0.003 C 
ATOM      9  C   UNL     1     102.189  80.551  80.089  1.00  0.00     0.004 C 
ENDBRANCH   7   8
ENDBRANCH   6   7
ENDBRANCH   5   6
ENDBRANCH   2   5
ENDBRANCH   1   2
BRANCH   1  10
ATOM     10  C   UNL     1      97.218  82.092  76.272  1.00  0.00     0.135 C 
ATOM     11  O   UNL     1      96.667  83.069  75.767  1.00  0.00    -0.300 OA
BRANCH  10  12
ATOM     12  C   UNL     1      96.656  81.381  77.494  1.00  0.00     0.080 C 
BRANCH  12  13
ATOM     13  C   UNL     1      96.317  82.322  78.651  1.00  0.00     0.043 C 
BRANCH  13  14
ATOM     14  C   UNL     1      97.098  82.021  79.908  1.00  0.00    -0.044 A 
ATOM     15  C   UNL     1      97.081  82.922  80.973  1.00  0.00     0.054 A 
ATOM     16  C   UNL     1      97.835  80.841  80.004  1.00  0.00     0.008 A 
ATOM     17  C   UNL     1      97.802  82.641  82.134  1.00  0.00     0.160 A 
ATOM     18  C   UNL     1      98.556  80.560  81.165  1.00  0.00     0.050 A 
ATOM     19  C   UNL     1      98.540  81.461  82.230  1.00  0.00     0.157 A 
BRANCH  17  20
ATOM     20  O   UNL     1      97.779  83.529  83.167  1.00  0.00    -0.493 OA
ATOM     21  C   UNL     1      96.497  83.959  83.624  1.00  0.00     0.278 C 
ENDBRANCH  17  20
BRANCH  19  22
ATOM     22  O   UNL     1      99.247  81.177  83.358  1.00  0.00    -0.504 OA
ATOM     23  H   UNL     1      98.627  81.014  84.089  1.00  0.00     0.293 HD
ENDBRANCH  19  22
ENDBRANCH  13  14
ENDBRANCH  12  13
ENDBRANCH  10  12
ENDBRANCH   1  10
TORSDOF 12
ENDMDL
MODEL 10
REMARK VINA RESULT:    -5.009     22.980     25.563
REMARK INTER + INTRA:         -10.024
REMARK INTER:                  -9.223
REMARK INTRA:                  -0.801
REMARK UNBOUND:                -1.795
REMARK SMILES CCCCC[C@H](O)CC(=O)CCc1ccc(O)c(OC)c1
REMARK SMILES IDX 8 1 6 2 7 3 5 5 4 6 3 7 2 8 1 9 9 10 10 11 11 12 12 13 13 14
REMARK SMILES IDX 21 15 14 16 18 17 15 18 16 19 19 20 20 21 17 22
REMARK H PARENT 7 4 17 23
REMARK Flexibility Score: inf
ROOT
ATOM      1  C   UNL     1      83.150  65.820  75.343  1.00  0.00     0.107 C 
ENDROOT
BRANCH   1   2
ATOM      2  C   UNL     1      81.705  66.170  75.711  1.00  0.00     0.121 C 
BRANCH   2   3
ATOM      3  O   UNL     1      81.693  67.085  76.804  1.00  0.00    -0.393 OA
ATOM      4  H   UNL     1      80.789  67.436  76.888  1.00  0.00     0.210 HD
ENDBRANCH   2   3
BRANCH   2   5
ATOM      5  C   UNL     1      80.916  66.770  74.541  1.00  0.00     0.032 C 
BRANCH   5   6
ATOM      6  C   UNL     1      80.038  65.725  73.842  1.00  0.00     0.003 C 
BRANCH   6   7
ATOM      7  C   UNL     1      80.585  65.288  72.478  1.00  0.00    -0.000 C 
BRANCH   7   8
ATOM      8  C   UNL     1      80.038  66.105  71.309  1.00  0.00    -0.003 C 
ATOM      9  C   UNL     1      80.904  67.325  71.033  1.00  0.00     0.004 C 
ENDBRANCH   7   8
ENDBRANCH   6   7
ENDBRANCH   5   6
ENDBRANCH   2   5
ENDBRANCH   1   2
BRANCH   1  10
ATOM     10  C   UNL     1      83.424  64.325  75.361  1.00  0.00     0.135 C 
ATOM     11  O   UNL     1      82.707  63.543  74.738  1.00  0.00    -0.300 OA
BRANCH  10  12
ATOM     12  C   UNL     1      84.644  63.866  76.145  1.00  0.00     0.080 C 
BRANCH  12  13
ATOM     13  C   UNL     1      84.303  63.210  77.484  1.00  0.00     0.043 C 
BRANCH  13  14
ATOM     14  C   UNL     1      84.964  63.889  78.661  1.00  0.00    -0.044 A 
ATOM     15  C   UNL     1      85.651  65.089  78.479  1.00  0.00     0.054 A 
ATOM     16  C   UNL     1      84.886  63.315  79.930  1.00  0.00     0.008 A 
ATOM     17  C   UNL     1      86.260  65.715  79.566  1.00  0.00     0.160 A 
ATOM     18  C   UNL     1      85.495  63.941  81.018  1.00  0.00     0.050 A 
ATOM     19  C   UNL     1      86.182  65.141  80.836  1.00  0.00     0.157 A 
BRANCH  17  20
ATOM     20  O   UNL     1      86.929  66.887  79.376  1.00  0.00    -0.493 OA
ATOM     21  C   UNL     1      86.391  67.791  78.412  1.00  0.00     0.278 C 
ENDBRANCH  17  20
BRANCH  19  22
ATOM     22  O   UNL     1      86.773  65.744  81.905  1.00  0.00    -0.504 OA
ATOM     23  H   UNL     1      86.506  66.679  81.929  1.00  0.00     0.293 HD
ENDBRANCH  19  22
ENDBRANCH  13  14
ENDBRANCH  12  13
ENDBRANCH  10  12
ENDBRANCH   1  10
TORSDOF 12
ENDMDL
