MODEL 1
REMARK VINA RESULT:    -5.548      0.000      0.000
REMARK INTER + INTRA:          -9.733
REMARK INTER:                  -8.953
REMARK INTRA:                  -0.780
REMARK UNBOUND:                -0.780
REMARK SMILES CCCCCCCCC(=O)NCc1ccc(O)c(OC)c1
REMARK SMILES IDX 7 1 6 2 5 3 4 4 3 5 2 6 1 7 8 8 9 9 10 10 11 11 12 13 13 14
REMARK SMILES IDX 21 15 14 16 18 17 15 18 16 19 19 20 20 21 17 22
REMARK H PARENT 11 12 17 23
REMARK Flexibility Score: inf
ROOT
ATOM      1  C   UNL     1      96.543  82.863  85.341  1.00  0.00     0.010 C 
ENDROOT
BRANCH   1   2
ATOM      2  C   UNL     1      97.919  82.154  85.191  1.00  0.00     0.001 C 
BRANCH   2   3
ATOM      3  C   UNL     1      98.115  81.541  83.773  1.00  0.00     0.000 C 
BRANCH   3   4
ATOM      4  C   UNL     1      98.889  82.466  82.792  1.00  0.00    -0.000 C 
BRANCH   4   5
ATOM      5  C   UNL     1      97.944  83.263  81.848  1.00  0.00    -0.000 C 
BRANCH   5   6
ATOM      6  C   UNL     1      98.382  83.185  80.361  1.00  0.00    -0.003 C 
ATOM      7  C   UNL     1      97.236  83.514  79.379  1.00  0.00     0.004 C 
ENDBRANCH   5   6
ENDBRANCH   4   5
ENDBRANCH   3   4
ENDBRANCH   2   3
ENDBRANCH   1   2
BRANCH   1   8
ATOM      8  C   UNL     1      96.638  84.413  85.419  1.00  0.00     0.100 C 
BRANCH   8   9
ATOM      9  C   UNL     1      95.560  84.978  86.265  1.00  0.00     0.220 C 
ATOM     10  O   UNL     1      95.450  86.226  86.335  1.00  0.00    -0.275 OA
ATOM     11  N   UNL     1      94.692  84.155  86.925  1.00  0.00    -0.352 N 
ATOM     12  H   UNL     1      94.924  83.174  86.870  1.00  0.00     0.163 HD
BRANCH  11  13
ATOM     13  C   UNL     1      93.533  84.574  87.652  1.00  0.00     0.151 C 
BRANCH  13  14
ATOM     14  C   UNL     1      92.429  83.577  87.649  1.00  0.00    -0.025 A 
ATOM     15  C   UNL     1      92.465  82.477  86.759  1.00  0.00     0.056 A 
ATOM     16  C   UNL     1      91.328  83.710  88.526  1.00  0.00     0.009 A 
ATOM     17  C   UNL     1      91.432  81.512  86.757  1.00  0.00     0.160 A 
ATOM     18  C   UNL     1      90.297  82.753  88.529  1.00  0.00     0.050 A 
ATOM     19  C   UNL     1      90.341  81.660  87.643  1.00  0.00     0.157 A 
BRANCH  17  20
ATOM     20  O   UNL     1      91.447  80.470  85.865  1.00  0.00    -0.493 OA
ATOM     21  C   UNL     1      92.222  79.337  86.297  1.00  0.00     0.278 C 
ENDBRANCH  17  20
BRANCH  19  22
ATOM     22  O   UNL     1      89.327  80.756  87.635  1.00  0.00    -0.504 OA
ATOM     23  H   UNL     1      89.680  79.881  87.459  1.00  0.00     0.293 HD
ENDBRANCH  19  22
ENDBRANCH  13  14
ENDBRANCH  11  13
ENDBRANCH   8   9
ENDBRANCH   1   8
TORSDOF 11
ENDMDL
MODEL 2
REMARK VINA RESULT:    -5.390     24.693     26.658
REMARK INTER + INTRA:          -9.478
REMARK INTER:                  -8.760
REMARK INTRA:                  -0.718
REMARK UNBOUND:                -0.780
REMARK SMILES CCCCCCCCC(=O)NCc1ccc(O)c(OC)c1
REMARK SMILES IDX 7 1 6 2 5 3 4 4 3 5 2 6 1 7 8 8 9 9 10 10 11 11 12 13 13 14
REMARK SMILES IDX 21 15 14 16 18 17 15 18 16 19 19 20 20 21 17 22
REMARK H PARENT 11 12 17 23
REMARK Flexibility Score: inf
ROOT
ATOM      1  C   UNL     1      76.225  87.560  69.429  1.00  0.00     0.010 C 
ENDROOT
BRANCH   1   2
ATOM      2  C   UNL     1      75.233  86.904  70.432  1.00  0.00     0.001 C 
BRANCH   2   3
ATOM      3  C   UNL     1      74.142  87.902  70.919  1.00  0.00     0.000 C 
BRANCH   3   4
ATOM      4  C   UNL     1      74.665  89.353  71.121  1.00  0.00    -0.000 C 
BRANCH   4   5
ATOM      5  C   UNL     1      73.707  90.221  71.986  1.00  0.00    -0.000 C 
BRANCH   5   6
ATOM      6  C   UNL     1      72.732  89.364  72.838  1.00  0.00    -0.003 C 
ATOM      7  C   UNL     1      71.332  90.003  72.973  1.00  0.00     0.004 C 
ENDBRANCH   5   6
ENDBRANCH   4   5
ENDBRANCH   3   4
ENDBRANCH   2   3
ENDBRANCH   1   2
BRANCH   1   8
ATOM      8  C   UNL     1      77.636  86.909  69.422  1.00  0.00     0.100 C 
BRANCH   8   9
ATOM      9  C   UNL     1      77.839  86.074  68.213  1.00  0.00     0.220 C 
ATOM     10  O   UNL     1      78.049  86.651  67.119  1.00  0.00    -0.275 OA
ATOM     11  N   UNL     1      77.827  84.711  68.301  1.00  0.00    -0.352 N 
ATOM     12  H   UNL     1      77.564  84.354  69.208  1.00  0.00     0.163 HD
BRANCH  11  13
ATOM     13  C   UNL     1      78.148  83.803  67.243  1.00  0.00     0.151 C 
BRANCH  13  14
ATOM     14  C   UNL     1      76.965  83.108  66.668  1.00  0.00    -0.025 A 
ATOM     15  C   UNL     1      75.659  83.581  66.939  1.00  0.00     0.056 A 
ATOM     16  C   UNL     1      77.121  81.966  65.848  1.00  0.00     0.009 A 
ATOM     17  C   UNL     1      74.527  82.941  66.385  1.00  0.00     0.160 A 
ATOM     18  C   UNL     1      75.998  81.326  65.293  1.00  0.00     0.050 A 
ATOM     19  C   UNL     1      74.702  81.804  65.564  1.00  0.00     0.157 A 
BRANCH  17  20
ATOM     20  O   UNL     1      73.260  83.377  66.682  1.00  0.00    -0.493 OA
ATOM     21  C   UNL     1      73.218  84.631  67.386  1.00  0.00     0.278 C 
ENDBRANCH  17  20
BRANCH  19  22
ATOM     22  O   UNL     1      73.623  81.163  65.047  1.00  0.00    -0.504 OA
ATOM     23  H   UNL     1      73.378  80.434  65.621  1.00  0.00     0.293 HD
ENDBRANCH  19  22
ENDBRANCH  13  14
ENDBRANCH  11  13
ENDBRANCH   8   9
ENDBRANCH   1   8
TORSDOF 11
ENDMDL
MODEL 3
REMARK VINA RESULT:    -5.313     33.544     35.425
REMARK INTER + INTRA:          -9.354
REMARK INTER:                  -7.972
REMARK INTRA:                  -1.383
REMARK UNBOUND:                -0.780
REMARK SMILES CCCCCCCCC(=O)NCc1ccc(O)c(OC)c1
REMARK SMILES IDX 7 1 6 2 5 3 4 4 3 5 2 6 1 7 8 8 9 9 10 10 11 11 12 13 13 14
REMARK SMILES IDX 21 15 14 16 18 17 15 18 16 19 19 20 20 21 17 22
REMARK H PARENT 11 12 17 23
REMARK Flexibility Score: inf
ROOT
ATOM      1  C   UNL     1      64.018  85.439  67.626  1.00  0.00     0.010 C 
ENDROOT
BRANCH   1   2
ATOM      2  C   UNL     1      63.517  85.924  69.017  1.00  0.00     0.001 C 
BRANCH   2   3
ATOM      3  C   UNL     1      62.007  85.613  69.240  1.00  0.00     0.000 C 
BRANCH   3   4
ATOM      4  C   UNL     1      61.205  86.802  69.841  1.00  0.00    -0.000 C 
BRANCH   4   5
ATOM      5  C   UNL     1      59.746  86.413  70.216  1.00  0.00    -0.000 C 
BRANCH   5   6
ATOM      6  C   UNL     1      59.533  84.876  70.262  1.00  0.00    -0.003 C 
ATOM      7  C   UNL     1      58.350  84.461  71.164  1.00  0.00     0.004 C 
ENDBRANCH   5   6
ENDBRANCH   4   5
ENDBRANCH   3   4
ENDBRANCH   2   3
ENDBRANCH   1   2
BRANCH   1   8
ATOM      8  C   UNL     1      63.956  83.897  67.438  1.00  0.00     0.100 C 
BRANCH   8   9
ATOM      9  C   UNL     1      64.647  83.190  68.543  1.00  0.00     0.220 C 
ATOM     10  O   UNL     1      65.896  83.278  68.617  1.00  0.00    -0.275 OA
ATOM     11  N   UNL     1      63.933  82.486  69.469  1.00  0.00    -0.352 N 
ATOM     12  H   UNL     1      62.947  82.408  69.266  1.00  0.00     0.163 HD
BRANCH  11  13
ATOM     13  C   UNL     1      64.466  81.882  70.653  1.00  0.00     0.151 C 
BRANCH  13  14
ATOM     14  C   UNL     1      63.662  82.146  71.876  1.00  0.00    -0.025 A 
ATOM     15  C   UNL     1      62.835  83.292  71.952  1.00  0.00     0.056 A 
ATOM     16  C   UNL     1      63.710  81.265  72.981  1.00  0.00     0.009 A 
ATOM     17  C   UNL     1      62.052  83.547  73.101  1.00  0.00     0.160 A 
ATOM     18  C   UNL     1      62.933  81.512  74.127  1.00  0.00     0.050 A 
ATOM     19  C   UNL     1      62.110  82.653  74.194  1.00  0.00     0.157 A 
BRANCH  17  20
ATOM     20  O   UNL     1      61.284  84.680  73.190  1.00  0.00    -0.493 OA
ATOM     21  C   UNL     1      62.041  85.894  73.347  1.00  0.00     0.278 C 
ENDBRANCH  17  20
BRANCH  19  22
ATOM     22  O   UNL     1      61.385  82.897  75.316  1.00  0.00    -0.504 OA
ATOM     23  H   UNL     1      61.951  82.817  76.087  1.00  0.00     0.293 HD
ENDBRANCH  19  22
ENDBRANCH  13  14
ENDBRANCH  11  13
ENDBRANCH   8   9
ENDBRANCH   1   8
TORSDOF 11
ENDMDL
MODEL 4
REMARK VINA RESULT:    -5.259     32.706     35.657
REMARK INTER + INTRA:          -9.266
REMARK INTER:                  -7.821
REMARK INTRA:                  -1.445
REMARK UNBOUND:                -0.780
REMARK SMILES CCCCCCCCC(=O)NCc1ccc(O)c(OC)c1
REMARK SMILES IDX 7 1 6 2 5 3 4 4 3 5 2 6 1 7 8 8 9 9 10 10 11 11 12 13 13 14
REMARK SMILES IDX 21 15 14 16 18 17 15 18 16 19 19 20 20 21 17 22
REMARK H PARENT 11 12 17 23
REMARK Flexibility Score: inf
ROOT
ATOM      1  C   UNL     1      60.569  86.038  73.696  1.00  0.00     0.010 C 
ENDROOT
BRANCH   1   2
ATOM      2  C   UNL     1      59.135  86.129  73.099  1.00  0.00     0.001 C 
BRANCH   2   3
ATOM      3  C   UNL     1      59.087  87.009  71.815  1.00  0.00     0.000 C 
BRANCH   3   4
ATOM      4  C   UNL     1      58.731  86.217  70.525  1.00  0.00    -0.000 C 
BRANCH   4   5
ATOM      5  C   UNL     1      59.135  84.718  70.611  1.00  0.00    -0.000 C 
BRANCH   5   6
ATOM      6  C   UNL     1      60.356  84.378  69.714  1.00  0.00    -0.003 C 
ATOM      7  C   UNL     1      61.580  85.276  70.000  1.00  0.00     0.004 C 
ENDBRANCH   5   6
ENDBRANCH   4   5
ENDBRANCH   3   4
ENDBRANCH   2   3
ENDBRANCH   1   2
BRANCH   1   8
ATOM      8  C   UNL     1      60.678  85.105  74.934  1.00  0.00     0.100 C 
BRANCH   8   9
ATOM      9  C   UNL     1      61.478  83.894  74.630  1.00  0.00     0.220 C 
ATOM     10  O   UNL     1      61.815  83.149  75.581  1.00  0.00    -0.275 OA
ATOM     11  N   UNL     1      61.812  83.589  73.342  1.00  0.00    -0.352 N 
ATOM     12  H   UNL     1      61.567  84.299  72.667  1.00  0.00     0.163 HD
BRANCH  11  13
ATOM     13  C   UNL     1      62.454  82.386  72.907  1.00  0.00     0.151 C 
BRANCH  13  14
ATOM     14  C   UNL     1      63.533  82.608  71.908  1.00  0.00    -0.025 A 
ATOM     15  C   UNL     1      63.356  82.196  70.565  1.00  0.00     0.056 A 
ATOM     16  C   UNL     1      64.750  83.226  72.277  1.00  0.00     0.009 A 
ATOM     17  C   UNL     1      64.365  82.416  69.600  1.00  0.00     0.160 A 
ATOM     18  C   UNL     1      65.758  83.448  71.321  1.00  0.00     0.050 A 
ATOM     19  C   UNL     1      65.573  83.039  69.987  1.00  0.00     0.157 A 
BRANCH  17  20
ATOM     20  O   UNL     1      64.208  81.978  68.309  1.00  0.00    -0.493 OA
ATOM     21  C   UNL     1      62.877  82.142  67.789  1.00  0.00     0.278 C 
ENDBRANCH  17  20
BRANCH  19  22
ATOM     22  O   UNL     1      66.563  83.233  69.078  1.00  0.00    -0.504 OA
ATOM     23  H   UNL     1      66.805  82.391  68.683  1.00  0.00     0.293 HD
ENDBRANCH  19  22
ENDBRANCH  13  14
ENDBRANCH  11  13
ENDBRANCH   8   9
ENDBRANCH   1   8
TORSDOF 11
ENDMDL
MODEL 5
REMARK VINA RESULT:    -5.149      3.928      6.337
REMARK INTER + INTRA:          -9.089
REMARK INTER:                  -8.182
REMARK INTRA:                  -0.906
REMARK UNBOUND:                -0.780
REMARK SMILES CCCCCCCCC(=O)NCc1ccc(O)c(OC)c1
REMARK SMILES IDX 7 1 6 2 5 3 4 4 3 5 2 6 1 7 8 8 9 9 10 10 11 11 12 13 13 14
REMARK SMILES IDX 21 15 14 16 18 17 15 18 16 19 19 20 20 21 17 22
REMARK H PARENT 11 12 17 23
REMARK Flexibility Score: inf
ROOT
ATOM      1  C   UNL     1      99.039  80.671  79.108  1.00  0.00     0.010 C 
ENDROOT
BRANCH   1   2
ATOM      2  C   UNL     1     100.302  80.878  78.223  1.00  0.00     0.001 C 
BRANCH   2   3
ATOM      3  C   UNL     1     100.527  82.376  77.861  1.00  0.00     0.000 C 
BRANCH   3   4
ATOM      4  C   UNL     1     100.762  82.625  76.344  1.00  0.00    -0.000 C 
BRANCH   4   5
ATOM      5  C   UNL     1      99.733  83.617  75.732  1.00  0.00    -0.000 C 
BRANCH   5   6
ATOM      6  C   UNL     1      98.277  83.318  76.183  1.00  0.00    -0.003 C 
ATOM      7  C   UNL     1      97.617  84.511  76.909  1.00  0.00     0.004 C 
ENDBRANCH   5   6
ENDBRANCH   4   5
ENDBRANCH   3   4
ENDBRANCH   2   3
ENDBRANCH   1   2
BRANCH   1   8
ATOM      8  C   UNL     1      98.361  81.995  79.558  1.00  0.00     0.100 C 
BRANCH   8   9
ATOM      9  C   UNL     1      98.904  82.466  80.855  1.00  0.00     0.220 C 
ATOM     10  O   UNL     1      99.348  83.638  80.924  1.00  0.00    -0.275 OA
ATOM     11  N   UNL     1      98.892  81.650  81.950  1.00  0.00    -0.352 N 
ATOM     12  H   UNL     1      98.595  80.704  81.762  1.00  0.00     0.163 HD
BRANCH  11  13
ATOM     13  C   UNL     1      99.254  82.032  83.280  1.00  0.00     0.151 C 
BRANCH  13  14
ATOM     14  C   UNL     1      98.107  82.496  84.106  1.00  0.00    -0.025 A 
ATOM     15  C   UNL     1      97.463  81.604  84.996  1.00  0.00     0.056 A 
ATOM     16  C   UNL     1      97.638  83.827  84.015  1.00  0.00     0.009 A 
ATOM     17  C   UNL     1      96.382  82.036  85.799  1.00  0.00     0.160 A 
ATOM     18  C   UNL     1      96.565  84.263  84.813  1.00  0.00     0.050 A 
ATOM     19  C   UNL     1      95.930  83.371  85.698  1.00  0.00     0.157 A 
BRANCH  17  20
ATOM     20  O   UNL     1      95.732  81.158  86.630  1.00  0.00    -0.493 OA
ATOM     21  C   UNL     1      96.374  80.968  87.904  1.00  0.00     0.278 C 
ENDBRANCH  17  20
BRANCH  19  22
ATOM     22  O   UNL     1      94.877  83.793  86.443  1.00  0.00    -0.504 OA
ATOM     23  H   UNL     1      95.185  84.050  87.316  1.00  0.00     0.293 HD
ENDBRANCH  19  22
ENDBRANCH  13  14
ENDBRANCH  11  13
ENDBRANCH   8   9
ENDBRANCH   1   8
TORSDOF 11
ENDMDL
MODEL 6
REMARK VINA RESULT:    -5.069      2.223      3.359
REMARK INTER + INTRA:          -8.960
REMARK INTER:                  -8.514
REMARK INTRA:                  -0.446
REMARK UNBOUND:                -0.780
REMARK SMILES CCCCCCCCC(=O)NCc1ccc(O)c(OC)c1
REMARK SMILES IDX 7 1 6 2 5 3 4 4 3 5 2 6 1 7 8 8 9 9 10 10 11 11 12 13 13 14
REMARK SMILES IDX 21 15 14 16 18 17 15 18 16 19 19 20 20 21 17 22
REMARK H PARENT 11 12 17 23
REMARK Flexibility Score: inf
ROOT
ATOM      1  C   UNL     1      98.365  82.595  82.563  1.00  0.00     0.010 C 
ENDROOT
BRANCH   1   2
ATOM      2  C   UNL     1      98.098  83.563  81.374  1.00  0.00     0.001 C 
BRANCH   2   3
ATOM      3  C   UNL     1      98.204  82.847  79.996  1.00  0.00     0.000 C 
BRANCH   3   4
ATOM      4  C   UNL     1      97.349  83.509  78.878  1.00  0.00    -0.000 C 
BRANCH   4   5
ATOM      5  C   UNL     1      98.092  83.571  77.513  1.00  0.00    -0.000 C 
BRANCH   5   6
ATOM      6  C   UNL     1      99.207  82.497  77.391  1.00  0.00    -0.003 C 
ATOM      7  C   UNL     1     100.577  83.096  77.003  1.00  0.00     0.004 C 
ENDBRANCH   5   6
ENDBRANCH   4   5
ENDBRANCH   3   4
ENDBRANCH   2   3
ENDBRANCH   1   2
BRANCH   1   8
ATOM      8  C   UNL     1      98.003  83.190  83.952  1.00  0.00     0.100 C 
BRANCH   8   9
ATOM      9  C   UNL     1      97.220  82.227  84.764  1.00  0.00     0.220 C 
ATOM     10  O   UNL     1      97.476  81.005  84.648  1.00  0.00    -0.275 OA
ATOM     11  N   UNL     1      96.266  82.669  85.635  1.00  0.00    -0.352 N 
ATOM     12  H   UNL     1      96.082  83.661  85.585  1.00  0.00     0.163 HD
BRANCH  11  13
ATOM     13  C   UNL     1      95.547  81.858  86.569  1.00  0.00     0.151 C 
BRANCH  13  14
ATOM     14  C   UNL     1      94.273  82.467  87.039  1.00  0.00    -0.025 A 
ATOM     15  C   UNL     1      93.032  81.968  86.575  1.00  0.00     0.056 A 
ATOM     16  C   UNL     1      94.277  83.550  87.948  1.00  0.00     0.009 A 
ATOM     17  C   UNL     1      91.813  82.525  87.026  1.00  0.00     0.160 A 
ATOM     18  C   UNL     1      93.068  84.108  88.401  1.00  0.00     0.050 A 
ATOM     19  C   UNL     1      91.837  83.605  87.938  1.00  0.00     0.157 A 
BRANCH  17  20
ATOM     20  O   UNL     1      90.613  82.068  86.544  1.00  0.00    -0.493 OA
ATOM     21  C   UNL     1      90.073  80.951  87.271  1.00  0.00     0.278 C 
ENDBRANCH  17  20
BRANCH  19  22
ATOM     22  O   UNL     1      90.676  84.168  88.360  1.00  0.00    -0.504 OA
ATOM     23  H   UNL     1      89.979  83.976  87.728  1.00  0.00     0.293 HD
ENDBRANCH  19  22
ENDBRANCH  13  14
ENDBRANCH  11  13
ENDBRANCH   8   9
ENDBRANCH   1   8
TORSDOF 11
ENDMDL
MODEL 7
REMARK VINA RESULT:    -5.029     23.507     25.176
REMARK INTER + INTRA:          -8.896
REMARK INTER:                  -8.371
REMARK INTRA:                  -0.525
REMARK UNBOUND:                -0.780
REMARK SMILES CCCCCCCCC(=O)NCc1ccc(O)c(OC)c1
REMARK SMILES IDX 7 1 6 2 5 3 4 4 3 5 2 6 1 7 8 8 9 9 10 10 11 11 12 13 13 14
REMARK SMILES IDX 21 15 14 16 18 17 15 18 16 19 19 20 20 21 17 22
REMARK H PARENT 11 12 17 23
REMARK Flexibility Score: inf
ROOT
ATOM      1  C   UNL     1      74.708  91.472  70.936  1.00  0.00     0.010 C 
ENDROOT
BRANCH   1   2
ATOM      2  C   UNL     1      75.241  92.702  71.725  1.00  0.00     0.001 C 
BRANCH   2   3
ATOM      3  C   UNL     1      76.769  92.602  72.011  1.00  0.00     0.000 C 
BRANCH   3   4
ATOM      4  C   UNL     1      77.478  93.982  72.116  1.00  0.00    -0.000 C 
BRANCH   4   5
ATOM      5  C   UNL     1      77.986  94.287  73.554  1.00  0.00    -0.000 C 
BRANCH   5   6
ATOM      6  C   UNL     1      77.690  93.132  74.548  1.00  0.00    -0.003 C 
ATOM      7  C   UNL     1      77.745  93.582  76.025  1.00  0.00     0.004 C 
ENDBRANCH   5   6
ENDBRANCH   4   5
ENDBRANCH   3   4
ENDBRANCH   2   3
ENDBRANCH   1   2
BRANCH   1   8
ATOM      8  C   UNL     1      75.729  90.305  70.824  1.00  0.00     0.100 C 
BRANCH   8   9
ATOM      9  C   UNL     1      75.044  89.003  70.642  1.00  0.00     0.220 C 
ATOM     10  O   UNL     1      73.789  88.988  70.630  1.00  0.00    -0.275 OA
ATOM     11  N   UNL     1      75.765  87.858  70.463  1.00  0.00    -0.352 N 
ATOM     12  H   UNL     1      76.762  87.971  70.578  1.00  0.00     0.163 HD
BRANCH  11  13
ATOM     13  C   UNL     1      75.227  86.573  70.139  1.00  0.00     0.151 C 
BRANCH  13  14
ATOM     14  C   UNL     1      76.155  85.711  69.360  1.00  0.00    -0.025 A 
ATOM     15  C   UNL     1      75.651  84.638  68.586  1.00  0.00     0.056 A 
ATOM     16  C   UNL     1      77.550  85.942  69.379  1.00  0.00     0.009 A 
ATOM     17  C   UNL     1      76.520  83.821  67.826  1.00  0.00     0.160 A 
ATOM     18  C   UNL     1      78.419  85.134  68.624  1.00  0.00     0.050 A 
ATOM     19  C   UNL     1      77.910  84.070  67.854  1.00  0.00     0.157 A 
BRANCH  17  20
ATOM     20  O   UNL     1      76.033  82.756  67.111  1.00  0.00    -0.493 OA
ATOM     21  C   UNL     1      75.771  83.047  65.727  1.00  0.00     0.278 C 
ENDBRANCH  17  20
BRANCH  19  22
ATOM     22  O   UNL     1      78.760  83.278  67.151  1.00  0.00    -0.504 OA
ATOM     23  H   UNL     1      79.650  83.634  67.209  1.00  0.00     0.293 HD
ENDBRANCH  19  22
ENDBRANCH  13  14
ENDBRANCH  11  13
ENDBRANCH   8   9
ENDBRANCH   1   8
TORSDOF 11
ENDMDL
MODEL 8
REMARK VINA RESULT:    -5.014      4.974      9.464
REMARK INTER + INTRA:          -8.871
REMARK INTER:                  -8.287
REMARK INTRA:                  -0.584
REMARK UNBOUND:                -0.780
REMARK SMILES CCCCCCCCC(=O)NCc1ccc(O)c(OC)c1
REMARK SMILES IDX 7 1 6 2 5 3 4 4 3 5 2 6 1 7 8 8 9 9 10 10 11 11 12 13 13 14
REMARK SMILES IDX 21 15 14 16 18 17 15 18 16 19 19 20 20 21 17 22
REMARK H PARENT 11 12 17 23
REMARK Flexibility Score: inf
ROOT
ATOM      1  C   UNL     1      97.439  81.814  84.340  1.00  0.00     0.010 C 
ENDROOT
BRANCH   1   2
ATOM      2  C   UNL     1      97.288  82.145  85.852  1.00  0.00     0.001 C 
BRANCH   2   3
ATOM      3  C   UNL     1      96.232  83.259  86.109  1.00  0.00     0.000 C 
BRANCH   3   4
ATOM      4  C   UNL     1      96.745  84.694  85.799  1.00  0.00    -0.000 C 
BRANCH   4   5
ATOM      5  C   UNL     1      95.733  85.798  86.217  1.00  0.00    -0.000 C 
BRANCH   5   6
ATOM      6  C   UNL     1      95.807  86.131  87.731  1.00  0.00    -0.003 C 
ATOM      7  C   UNL     1      94.519  85.748  88.493  1.00  0.00     0.004 C 
ENDBRANCH   5   6
ENDBRANCH   4   5
ENDBRANCH   3   4
ENDBRANCH   2   3
ENDBRANCH   1   2
BRANCH   1   8
ATOM      8  C   UNL     1      98.666  80.919  84.010  1.00  0.00     0.100 C 
BRANCH   8   9
ATOM      9  C   UNL     1      99.517  81.534  82.963  1.00  0.00     0.220 C 
ATOM     10  O   UNL     1     100.587  82.085  83.314  1.00  0.00    -0.275 OA
ATOM     11  N   UNL     1      99.153  81.472  81.648  1.00  0.00    -0.352 N 
ATOM     12  H   UNL     1      98.235  81.084  81.487  1.00  0.00     0.163 HD
BRANCH  11  13
ATOM     13  C   UNL     1      99.950  81.898  80.539  1.00  0.00     0.151 C 
BRANCH  13  14
ATOM     14  C   UNL     1      99.181  82.612  79.485  1.00  0.00    -0.025 A 
ATOM     15  C   UNL     1      99.708  82.731  78.177  1.00  0.00     0.056 A 
ATOM     16  C   UNL     1      97.919  83.184  79.768  1.00  0.00     0.009 A 
ATOM     17  C   UNL     1      98.980  83.392  77.160  1.00  0.00     0.160 A 
ATOM     18  C   UNL     1      97.190  83.841  78.760  1.00  0.00     0.050 A 
ATOM     19  C   UNL     1      97.719  83.954  77.460  1.00  0.00     0.157 A 
BRANCH  17  20
ATOM     20  O   UNL     1      99.511  83.543  75.903  1.00  0.00    -0.493 OA
ATOM     21  C   UNL     1     100.676  82.737  75.655  1.00  0.00     0.278 C 
ENDBRANCH  17  20
BRANCH  19  22
ATOM     22  O   UNL     1      97.020  84.614  76.502  1.00  0.00    -0.504 OA
ATOM     23  H   UNL     1      96.567  85.364  76.895  1.00  0.00     0.293 HD
ENDBRANCH  19  22
ENDBRANCH  13  14
ENDBRANCH  11  13
ENDBRANCH   8   9
ENDBRANCH   1   8
TORSDOF 11
ENDMDL
MODEL 9
REMARK VINA RESULT:    -5.006     26.111     28.116
REMARK INTER + INTRA:          -8.858
REMARK INTER:                  -7.908
REMARK INTRA:                  -0.950
REMARK UNBOUND:                -0.780
REMARK SMILES CCCCCCCCC(=O)NCc1ccc(O)c(OC)c1
REMARK SMILES IDX 7 1 6 2 5 3 4 4 3 5 2 6 1 7 8 8 9 9 10 10 11 11 12 13 13 14
REMARK SMILES IDX 21 15 14 16 18 17 15 18 16 19 19 20 20 21 17 22
REMARK H PARENT 11 12 17 23
REMARK Flexibility Score: inf
ROOT
ATOM      1  C   UNL     1      74.221  81.491  63.267  1.00  0.00     0.010 C 
ENDROOT
BRANCH   1   2
ATOM      2  C   UNL     1      73.081  80.445  63.433  1.00  0.00     0.001 C 
BRANCH   2   3
ATOM      3  C   UNL     1      72.367  80.565  64.811  1.00  0.00     0.000 C 
BRANCH   3   4
ATOM      4  C   UNL     1      71.750  81.967  65.077  1.00  0.00    -0.000 C 
BRANCH   4   5
ATOM      5  C   UNL     1      72.446  82.717  66.249  1.00  0.00    -0.000 C 
BRANCH   5   6
ATOM      6  C   UNL     1      71.431  83.308  67.265  1.00  0.00    -0.003 C 
ATOM      7  C   UNL     1      70.094  82.534  67.297  1.00  0.00     0.004 C 
ENDBRANCH   5   6
ENDBRANCH   4   5
ENDBRANCH   3   4
ENDBRANCH   2   3
ENDBRANCH   1   2
BRANCH   1   8
ATOM      8  C   UNL     1      75.642  80.923  63.543  1.00  0.00     0.100 C 
BRANCH   8   9
ATOM      9  C   UNL     1      76.431  81.838  64.403  1.00  0.00     0.220 C 
ATOM     10  O   UNL     1      77.089  81.344  65.350  1.00  0.00    -0.275 OA
ATOM     11  N   UNL     1      76.460  83.178  64.146  1.00  0.00    -0.352 N 
ATOM     12  H   UNL     1      75.829  83.478  63.418  1.00  0.00     0.163 HD
BRANCH  11  13
ATOM     13  C   UNL     1      77.288  84.138  64.810  1.00  0.00     0.151 C 
BRANCH  13  14
ATOM     14  C   UNL     1      77.010  84.269  66.265  1.00  0.00    -0.025 A 
ATOM     15  C   UNL     1      75.708  84.595  66.715  1.00  0.00     0.056 A 
ATOM     16  C   UNL     1      78.033  84.075  67.221  1.00  0.00     0.009 A 
ATOM     17  C   UNL     1      75.424  84.706  68.096  1.00  0.00     0.160 A 
ATOM     18  C   UNL     1      77.757  84.182  68.596  1.00  0.00     0.050 A 
ATOM     19  C   UNL     1      76.459  84.504  69.037  1.00  0.00     0.157 A 
BRANCH  17  20
ATOM     20  O   UNL     1      74.172  85.063  68.528  1.00  0.00    -0.493 OA
ATOM     21  C   UNL     1      73.869  86.460  68.365  1.00  0.00     0.278 C 
ENDBRANCH  17  20
BRANCH  19  22
ATOM     22  O   UNL     1      76.209  84.633  70.365  1.00  0.00    -0.504 OA
ATOM     23  H   UNL     1      76.951  85.070  70.789  1.00  0.00     0.293 HD
ENDBRANCH  19  22
ENDBRANCH  13  14
ENDBRANCH  11  13
ENDBRANCH   8   9
ENDBRANCH   1   8
TORSDOF 11
ENDMDL
MODEL 10
REMARK VINA RESULT:    -4.969     24.306     25.790
REMARK INTER + INTRA:          -8.798
REMARK INTER:                  -7.856
REMARK INTRA:                  -0.942
REMARK UNBOUND:                -0.780
REMARK SMILES CCCCCCCCC(=O)NCc1ccc(O)c(OC)c1
REMARK SMILES IDX 7 1 6 2 5 3 4 4 3 5 2 6 1 7 8 8 9 9 10 10 11 11 12 13 13 14
REMARK SMILES IDX 21 15 14 16 18 17 15 18 16 19 19 20 20 21 17 22
REMARK H PARENT 11 12 17 23
REMARK Flexibility Score: inf
ROOT
ATOM      1  C   UNL     1      74.441  88.393  71.065  1.00  0.00     0.010 C 
ENDROOT
BRANCH   1   2
ATOM      2  C   UNL     1      74.250  86.990  70.418  1.00  0.00     0.001 C 
BRANCH   2   3
ATOM      3  C   UNL     1      75.509  86.089  70.585  1.00  0.00     0.000 C 
BRANCH   3   4
ATOM      4  C   UNL     1      76.223  85.755  69.244  1.00  0.00    -0.000 C 
BRANCH   4   5
ATOM      5  C   UNL     1      77.751  86.042  69.291  1.00  0.00    -0.000 C 
BRANCH   5   6
ATOM      6  C   UNL     1      78.241  86.857  68.064  1.00  0.00    -0.003 C 
ATOM      7  C   UNL     1      77.111  87.665  67.389  1.00  0.00     0.004 C 
ENDBRANCH   5   6
ENDBRANCH   4   5
ENDBRANCH   3   4
ENDBRANCH   2   3
ENDBRANCH   1   2
BRANCH   1   8
ATOM      8  C   UNL     1      75.638  89.196  70.484  1.00  0.00     0.100 C 
BRANCH   8   9
ATOM      9  C   UNL     1      75.363  90.653  70.487  1.00  0.00     0.220 C 
ATOM     10  O   UNL     1      74.922  91.177  69.436  1.00  0.00    -0.275 OA
ATOM     11  N   UNL     1      75.560  91.394  71.617  1.00  0.00    -0.352 N 
ATOM     12  H   UNL     1      75.998  90.891  72.375  1.00  0.00     0.163 HD
BRANCH  11  13
ATOM     13  C   UNL     1      75.202  92.768  71.788  1.00  0.00     0.151 C 
BRANCH  13  14
ATOM     14  C   UNL     1      76.309  93.719  71.500  1.00  0.00    -0.025 A 
ATOM     15  C   UNL     1      76.199  94.635  70.427  1.00  0.00     0.056 A 
ATOM     16  C   UNL     1      77.485  93.723  72.284  1.00  0.00     0.009 A 
ATOM     17  C   UNL     1      77.236  95.557  70.151  1.00  0.00     0.160 A 
ATOM     18  C   UNL     1      78.520  94.638  72.016  1.00  0.00     0.050 A 
ATOM     19  C   UNL     1      78.403  95.549  70.948  1.00  0.00     0.157 A 
BRANCH  17  20
ATOM     20  O   UNL     1      77.146  96.416  69.085  1.00  0.00    -0.493 OA
ATOM     21  C   UNL     1      77.358  95.791  67.807  1.00  0.00     0.278 C 
ENDBRANCH  17  20
BRANCH  19  22
ATOM     22  O   UNL     1      79.419  96.409  70.681  1.00  0.00    -0.504 OA
ATOM     23  H   UNL     1      79.260  97.241  71.132  1.00  0.00     0.293 HD
ENDBRANCH  19  22
ENDBRANCH  13  14
ENDBRANCH  11  13
ENDBRANCH   8   9
ENDBRANCH   1   8
TORSDOF 11
ENDMDL
