MODEL 1
REMARK VINA RESULT:    -6.916      0.000      0.000
REMARK INTER + INTRA:         -13.157
REMARK INTER:                 -11.364
REMARK INTRA:                  -1.793
REMARK UNBOUND:                -1.793
REMARK SMILES CCCCC[C@H](O)CC(=O)CCc1ccc(O)c(OC)c1
REMARK SMILES IDX 8 1 6 2 7 3 5 5 4 6 3 7 2 8 1 9 9 10 10 11 11 12 12 13 13 14
REMARK SMILES IDX 21 15 14 16 18 17 15 18 16 19 19 20 20 21 17 22
REMARK H PARENT 7 4 17 23
REMARK Flexibility Score: inf
ROOT
ATOM      1  C   UNL     1      90.689  92.928  73.193  1.00  0.00     0.107 C 
ENDROOT
BRANCH   1   2
ATOM      2  C   UNL     1      91.722  92.120  73.981  1.00  0.00     0.121 C 
BRANCH   2   3
ATOM      3  O   UNL     1      92.278  91.103  73.150  1.00  0.00    -0.393 OA
ATOM      4  H   UNL     1      91.687  90.331  73.189  1.00  0.00     0.210 HD
ENDBRANCH   2   3
BRANCH   2   5
ATOM      5  C   UNL     1      92.855  92.984  74.547  1.00  0.00     0.032 C 
BRANCH   5   6
ATOM      6  C   UNL     1      92.325  94.153  75.387  1.00  0.00     0.003 C 
BRANCH   6   7
ATOM      7  C   UNL     1      91.961  93.754  76.820  1.00  0.00    -0.000 C 
BRANCH   7   8
ATOM      8  C   UNL     1      90.457  93.621  77.056  1.00  0.00    -0.003 C 
ATOM      9  C   UNL     1      89.675  94.625  76.222  1.00  0.00     0.004 C 
ENDBRANCH   7   8
ENDBRANCH   6   7
ENDBRANCH   5   6
ENDBRANCH   2   5
ENDBRANCH   1   2
BRANCH   1  10
ATOM     10  C   UNL     1      89.894  92.082  72.211  1.00  0.00     0.135 C 
ATOM     11  O   UNL     1      90.436  91.575  71.229  1.00  0.00    -0.300 OA
BRANCH  10  12
ATOM     12  C   UNL     1      88.424  91.865  72.534  1.00  0.00     0.080 C 
BRANCH  12  13
ATOM     13  C   UNL     1      88.087  90.426  72.931  1.00  0.00     0.043 C 
BRANCH  13  14
ATOM     14  C   UNL     1      88.689  90.021  74.256  1.00  0.00    -0.044 A 
ATOM     15  C   UNL     1      89.432  88.845  74.354  1.00  0.00     0.054 A 
ATOM     16  C   UNL     1      88.500  90.824  75.381  1.00  0.00     0.008 A 
ATOM     17  C   UNL     1      89.988  88.473  75.579  1.00  0.00     0.160 A 
ATOM     18  C   UNL     1      89.055  90.452  76.605  1.00  0.00     0.050 A 
ATOM     19  C   UNL     1      89.799  89.276  76.704  1.00  0.00     0.157 A 
BRANCH  17  20
ATOM     20  O   UNL     1      90.712  87.322  75.663  1.00  0.00    -0.493 OA
ATOM     21  C   UNL     1      91.678  87.087  74.640  1.00  0.00     0.278 C 
ENDBRANCH  17  20
BRANCH  19  22
ATOM     22  O   UNL     1      90.337  88.923  77.904  1.00  0.00    -0.504 OA
ATOM     23  H   UNL     1      91.269  88.679  77.775  1.00  0.00     0.293 HD
ENDBRANCH  19  22
ENDBRANCH  13  14
ENDBRANCH  12  13
ENDBRANCH  10  12
ENDBRANCH   1  10
TORSDOF 12
ENDMDL
MODEL 2
REMARK VINA RESULT:    -5.724      1.642      3.839
REMARK INTER + INTRA:         -11.198
REMARK INTER:                  -9.532
REMARK INTRA:                  -1.666
REMARK UNBOUND:                -1.793
REMARK SMILES CCCCC[C@H](O)CC(=O)CCc1ccc(O)c(OC)c1
REMARK SMILES IDX 8 1 6 2 7 3 5 5 4 6 3 7 2 8 1 9 9 10 10 11 11 12 12 13 13 14
REMARK SMILES IDX 21 15 14 16 18 17 15 18 16 19 19 20 20 21 17 22
REMARK H PARENT 7 4 17 23
REMARK Flexibility Score: inf
ROOT
ATOM      1  C   UNL     1      91.185  93.715  74.664  1.00  0.00     0.107 C 
ENDROOT
BRANCH   1   2
ATOM      2  C   UNL     1      91.937  92.700  73.800  1.00  0.00     0.121 C 
BRANCH   2   3
ATOM      3  O   UNL     1      92.467  91.663  74.622  1.00  0.00    -0.393 OA
ATOM      4  H   UNL     1      91.853  91.530  75.366  1.00  0.00     0.210 HD
ENDBRANCH   2   3
BRANCH   2   5
ATOM      5  C   UNL     1      91.062  92.079  72.704  1.00  0.00     0.032 C 
BRANCH   5   6
ATOM      6  C   UNL     1      89.608  91.906  73.157  1.00  0.00     0.003 C 
BRANCH   6   7
ATOM      7  C   UNL     1      89.042  90.513  72.860  1.00  0.00    -0.000 C 
BRANCH   7   8
ATOM      8  C   UNL     1      87.822  90.532  71.940  1.00  0.00    -0.003 C 
ATOM      9  C   UNL     1      86.539  90.757  72.725  1.00  0.00     0.004 C 
ENDBRANCH   7   8
ENDBRANCH   6   7
ENDBRANCH   5   6
ENDBRANCH   2   5
ENDBRANCH   1   2
BRANCH   1  10
ATOM     10  C   UNL     1      91.700  93.779  76.092  1.00  0.00     0.135 C 
ATOM     11  O   UNL     1      92.863  94.105  76.332  1.00  0.00    -0.300 OA
BRANCH  10  12
ATOM     12  C   UNL     1      90.699  93.465  77.193  1.00  0.00     0.080 C 
BRANCH  12  13
ATOM     13  C   UNL     1      89.602  92.488  76.767  1.00  0.00     0.043 C 
BRANCH  13  14
ATOM     14  C   UNL     1      89.822  91.087  77.286  1.00  0.00    -0.044 A 
ATOM     15  C   UNL     1      89.901  90.017  76.396  1.00  0.00     0.054 A 
ATOM     16  C   UNL     1      89.947  90.864  78.658  1.00  0.00     0.008 A 
ATOM     17  C   UNL     1      90.106  88.724  76.877  1.00  0.00     0.160 A 
ATOM     18  C   UNL     1      90.151  89.571  79.139  1.00  0.00     0.050 A 
ATOM     19  C   UNL     1      90.230  88.501  78.248  1.00  0.00     0.157 A 
BRANCH  17  20
ATOM     20  O   UNL     1      90.180  87.686  75.997  1.00  0.00    -0.493 OA
ATOM     21  C   UNL     1      89.192  87.635  74.970  1.00  0.00     0.278 C 
ENDBRANCH  17  20
BRANCH  19  22
ATOM     22  O   UNL     1      90.430  87.243  78.730  1.00  0.00    -0.504 OA
ATOM     23  H   UNL     1      89.630  86.713  78.574  1.00  0.00     0.293 HD
ENDBRANCH  19  22
ENDBRANCH  13  14
ENDBRANCH  12  13
ENDBRANCH  10  12
ENDBRANCH   1  10
TORSDOF 12
ENDMDL
MODEL 3
REMARK VINA RESULT:    -5.584     12.513     14.938
REMARK INTER + INTRA:         -10.967
REMARK INTER:                  -9.150
REMARK INTRA:                  -1.817
REMARK UNBOUND:                -1.793
REMARK SMILES CCCCC[C@H](O)CC(=O)CCc1ccc(O)c(OC)c1
REMARK SMILES IDX 8 1 6 2 7 3 5 5 4 6 3 7 2 8 1 9 9 10 10 11 11 12 12 13 13 14
REMARK SMILES IDX 21 15 14 16 18 17 15 18 16 19 19 20 20 21 17 22
REMARK H PARENT 7 4 17 23
REMARK Flexibility Score: inf
ROOT
ATOM      1  C   UNL     1      83.717  91.701  86.929  1.00  0.00     0.107 C 
ENDROOT
BRANCH   1   2
ATOM      2  C   UNL     1      83.333  90.927  88.192  1.00  0.00     0.121 C 
BRANCH   2   3
ATOM      3  O   UNL     1      84.333  91.107  89.192  1.00  0.00    -0.393 OA
ATOM      4  H   UNL     1      83.941  91.626  89.916  1.00  0.00     0.210 HD
ENDBRANCH   2   3
BRANCH   2   5
ATOM      5  C   UNL     1      81.971  91.344  88.760  1.00  0.00     0.032 C 
BRANCH   5   6
ATOM      6  C   UNL     1      81.334  90.234  89.605  1.00  0.00     0.003 C 
BRANCH   6   7
ATOM      7  C   UNL     1      81.329  88.869  88.909  1.00  0.00    -0.000 C 
BRANCH   7   8
ATOM      8  C   UNL     1      79.964  88.472  88.350  1.00  0.00    -0.003 C 
ATOM      9  C   UNL     1      79.800  86.961  88.307  1.00  0.00     0.004 C 
ENDBRANCH   7   8
ENDBRANCH   6   7
ENDBRANCH   5   6
ENDBRANCH   2   5
ENDBRANCH   1   2
BRANCH   1  10
ATOM     10  C   UNL     1      84.614  90.907  85.994  1.00  0.00     0.135 C 
ATOM     11  O   UNL     1      85.804  90.731  86.256  1.00  0.00    -0.300 OA
BRANCH  10  12
ATOM     12  C   UNL     1      83.956  90.314  84.757  1.00  0.00     0.080 C 
BRANCH  12  13
ATOM     13  C   UNL     1      82.454  90.590  84.667  1.00  0.00     0.043 C 
BRANCH  13  14
ATOM     14  C   UNL     1      81.619  89.332  84.687  1.00  0.00    -0.044 A 
ATOM     15  C   UNL     1      82.224  88.096  84.915  1.00  0.00     0.054 A 
ATOM     16  C   UNL     1      80.241  89.407  84.479  1.00  0.00     0.008 A 
ATOM     17  C   UNL     1      81.451  86.935  84.934  1.00  0.00     0.160 A 
ATOM     18  C   UNL     1      79.468  88.246  84.498  1.00  0.00     0.050 A 
ATOM     19  C   UNL     1      80.073  87.010  84.725  1.00  0.00     0.157 A 
BRANCH  17  20
ATOM     20  O   UNL     1      82.053  85.733  85.156  1.00  0.00    -0.493 OA
ATOM     21  C   UNL     1      82.531  85.482  86.476  1.00  0.00     0.278 C 
ENDBRANCH  17  20
BRANCH  19  22
ATOM     22  O   UNL     1      79.308  85.883  84.742  1.00  0.00    -0.504 OA
ATOM     23  H   UNL     1      78.381  86.127  84.577  1.00  0.00     0.293 HD
ENDBRANCH  19  22
ENDBRANCH  13  14
ENDBRANCH  12  13
ENDBRANCH  10  12
ENDBRANCH   1  10
TORSDOF 12
ENDMDL
MODEL 4
REMARK VINA RESULT:    -5.493     12.704     14.990
REMARK INTER + INTRA:         -10.819
REMARK INTER:                  -9.942
REMARK INTRA:                  -0.877
REMARK UNBOUND:                -1.793
REMARK SMILES CCCCC[C@H](O)CC(=O)CCc1ccc(O)c(OC)c1
REMARK SMILES IDX 8 1 6 2 7 3 5 5 4 6 3 7 2 8 1 9 9 10 10 11 11 12 12 13 13 14
REMARK SMILES IDX 21 15 14 16 18 17 15 18 16 19 19 20 20 21 17 22
REMARK H PARENT 7 4 17 23
REMARK Flexibility Score: inf
ROOT
ATOM      1  C   UNL     1      80.932  90.211  84.637  1.00  0.00     0.107 C 
ENDROOT
BRANCH   1   2
ATOM      2  C   UNL     1      81.038  90.292  86.162  1.00  0.00     0.121 C 
BRANCH   2   3
ATOM      3  O   UNL     1      79.793  89.925  86.753  1.00  0.00    -0.393 OA
ATOM      4  H   UNL     1      79.152  89.785  86.034  1.00  0.00     0.210 HD
ENDBRANCH   2   3
BRANCH   2   5
ATOM      5  C   UNL     1      82.149  89.403  86.734  1.00  0.00     0.032 C 
BRANCH   5   6
ATOM      6  C   UNL     1      83.469  90.167  86.901  1.00  0.00     0.003 C 
BRANCH   6   7
ATOM      7  C   UNL     1      84.606  89.608  86.041  1.00  0.00    -0.000 C 
BRANCH   7   8
ATOM      8  C   UNL     1      84.924  90.462  84.815  1.00  0.00    -0.003 C 
ATOM      9  C   UNL     1      85.279  91.888  85.210  1.00  0.00     0.004 C 
ENDBRANCH   7   8
ENDBRANCH   6   7
ENDBRANCH   5   6
ENDBRANCH   2   5
ENDBRANCH   1   2
BRANCH   1  10
ATOM     10  C   UNL     1      81.011  88.788  84.109  1.00  0.00     0.135 C 
ATOM     11  O   UNL     1      82.094  88.278  83.823  1.00  0.00    -0.300 OA
BRANCH  10  12
ATOM     12  C   UNL     1      79.698  88.027  84.000  1.00  0.00     0.080 C 
BRANCH  12  13
ATOM     13  C   UNL     1      79.825  86.535  84.311  1.00  0.00     0.043 C 
BRANCH  13  14
ATOM     14  C   UNL     1      80.592  86.258  85.582  1.00  0.00    -0.044 A 
ATOM     15  C   UNL     1      80.052  86.619  86.816  1.00  0.00     0.054 A 
ATOM     16  C   UNL     1      81.842  85.640  85.521  1.00  0.00     0.008 A 
ATOM     17  C   UNL     1      80.762  86.362  87.989  1.00  0.00     0.160 A 
ATOM     18  C   UNL     1      82.551  85.383  86.694  1.00  0.00     0.050 A 
ATOM     19  C   UNL     1      82.011  85.745  87.928  1.00  0.00     0.157 A 
BRANCH  17  20
ATOM     20  O   UNL     1      80.224  86.720  89.189  1.00  0.00    -0.493 OA
ATOM     21  C   UNL     1      78.944  87.350  89.164  1.00  0.00     0.278 C 
ENDBRANCH  17  20
BRANCH  19  22
ATOM     22  O   UNL     1      82.713  85.489  89.067  1.00  0.00    -0.504 OA
ATOM     23  H   UNL     1      83.560  85.965  89.031  1.00  0.00     0.293 HD
ENDBRANCH  19  22
ENDBRANCH  13  14
ENDBRANCH  12  13
ENDBRANCH  10  12
ENDBRANCH   1  10
TORSDOF 12
ENDMDL
MODEL 5
REMARK VINA RESULT:    -5.462      3.329      5.209
REMARK INTER + INTRA:         -10.767
REMARK INTER:                  -9.747
REMARK INTRA:                  -1.020
REMARK UNBOUND:                -1.793
REMARK SMILES CCCCC[C@H](O)CC(=O)CCc1ccc(O)c(OC)c1
REMARK SMILES IDX 8 1 6 2 7 3 5 5 4 6 3 7 2 8 1 9 9 10 10 11 11 12 12 13 13 14
REMARK SMILES IDX 21 15 14 16 18 17 15 18 16 19 19 20 20 21 17 22
REMARK H PARENT 7 4 17 23
REMARK Flexibility Score: inf
ROOT
ATOM      1  C   UNL     1      94.522  95.670  75.237  1.00  0.00     0.107 C 
ENDROOT
BRANCH   1   2
ATOM      2  C   UNL     1      96.028  95.430  75.359  1.00  0.00     0.121 C 
BRANCH   2   3
ATOM      3  O   UNL     1      96.637  95.514  74.073  1.00  0.00    -0.393 OA
ATOM      4  H   UNL     1      97.384  96.134  74.137  1.00  0.00     0.210 HD
ENDBRANCH   2   3
BRANCH   2   5
ATOM      5  C   UNL     1      96.718  96.417  76.310  1.00  0.00     0.032 C 
BRANCH   5   6
ATOM      6  C   UNL     1      97.260  95.724  77.566  1.00  0.00     0.003 C 
BRANCH   6   7
ATOM      7  C   UNL     1      96.209  95.559  78.669  1.00  0.00    -0.000 C 
BRANCH   7   8
ATOM      8  C   UNL     1      95.827  94.105  78.937  1.00  0.00    -0.003 C 
ATOM      9  C   UNL     1      95.590  93.859  80.419  1.00  0.00     0.004 C 
ENDBRANCH   7   8
ENDBRANCH   6   7
ENDBRANCH   5   6
ENDBRANCH   2   5
ENDBRANCH   1   2
BRANCH   1  10
ATOM     10  C   UNL     1      93.691  94.463  75.641  1.00  0.00     0.135 C 
ATOM     11  O   UNL     1      93.813  93.387  75.057  1.00  0.00    -0.300 OA
BRANCH  10  12
ATOM     12  C   UNL     1      92.749  94.648  76.821  1.00  0.00     0.080 C 
BRANCH  12  13
ATOM     13  C   UNL     1      91.288  94.850  76.415  1.00  0.00     0.043 C 
BRANCH  13  14
ATOM     14  C   UNL     1      90.583  93.557  76.078  1.00  0.00    -0.044 A 
ATOM     15  C   UNL     1      90.303  93.240  74.749  1.00  0.00     0.054 A 
ATOM     16  C   UNL     1      90.212  92.680  77.098  1.00  0.00     0.008 A 
ATOM     17  C   UNL     1      89.652  92.046  74.440  1.00  0.00     0.160 A 
ATOM     18  C   UNL     1      89.561  91.485  76.788  1.00  0.00     0.050 A 
ATOM     19  C   UNL     1      89.281  91.169  75.459  1.00  0.00     0.157 A 
BRANCH  17  20
ATOM     20  O   UNL     1      89.384  91.747  73.138  1.00  0.00    -0.493 OA
ATOM     21  C   UNL     1      89.459  92.818  72.198  1.00  0.00     0.278 C 
ENDBRANCH  17  20
BRANCH  19  22
ATOM     22  O   UNL     1      88.646  89.999  75.169  1.00  0.00    -0.504 OA
ATOM     23  H   UNL     1      88.651  89.866  74.206  1.00  0.00     0.293 HD
ENDBRANCH  19  22
ENDBRANCH  13  14
ENDBRANCH  12  13
ENDBRANCH  10  12
ENDBRANCH   1  10
TORSDOF 12
ENDMDL
MODEL 6
REMARK VINA RESULT:    -5.442      3.261      5.052
REMARK INTER + INTRA:         -10.734
REMARK INTER:                  -9.589
REMARK INTRA:                  -1.145
REMARK UNBOUND:                -1.793
REMARK SMILES CCCCC[C@H](O)CC(=O)CCc1ccc(O)c(OC)c1
REMARK SMILES IDX 8 1 6 2 7 3 5 5 4 6 3 7 2 8 1 9 9 10 10 11 11 12 12 13 13 14
REMARK SMILES IDX 21 15 14 16 18 17 15 18 16 19 19 20 20 21 17 22
REMARK H PARENT 7 4 17 23
REMARK Flexibility Score: inf
ROOT
ATOM      1  C   UNL     1      93.978  93.900  76.122  1.00  0.00     0.107 C 
ENDROOT
BRANCH   1   2
ATOM      2  C   UNL     1      95.184  94.253  76.995  1.00  0.00     0.121 C 
BRANCH   2   3
ATOM      3  O   UNL     1      95.277  93.338  78.085  1.00  0.00    -0.393 OA
ATOM      4  H   UNL     1      94.395  92.949  78.223  1.00  0.00     0.210 HD
ENDBRANCH   2   3
BRANCH   2   5
ATOM      5  C   UNL     1      96.508  94.250  76.220  1.00  0.00     0.032 C 
BRANCH   5   6
ATOM      6  C   UNL     1      97.183  95.627  76.228  1.00  0.00     0.003 C 
BRANCH   6   7
ATOM      7  C   UNL     1      96.298  96.740  75.660  1.00  0.00    -0.000 C 
BRANCH   7   8
ATOM      8  C   UNL     1      96.037  96.609  74.160  1.00  0.00    -0.003 C 
ATOM      9  C   UNL     1      97.333  96.417  73.387  1.00  0.00     0.004 C 
ENDBRANCH   7   8
ENDBRANCH   6   7
ENDBRANCH   5   6
ENDBRANCH   2   5
ENDBRANCH   1   2
BRANCH   1  10
ATOM     10  C   UNL     1      92.667  93.895  76.891  1.00  0.00     0.135 C 
ATOM     11  O   UNL     1      92.523  93.192  77.891  1.00  0.00    -0.300 OA
BRANCH  10  12
ATOM     12  C   UNL     1      91.577  94.829  76.388  1.00  0.00     0.080 C 
BRANCH  12  13
ATOM     13  C   UNL     1      90.190  94.185  76.339  1.00  0.00     0.043 C 
BRANCH  13  14
ATOM     14  C   UNL     1      90.107  93.029  75.371  1.00  0.00    -0.044 A 
ATOM     15  C   UNL     1      89.794  91.751  75.836  1.00  0.00     0.054 A 
ATOM     16  C   UNL     1      90.342  93.240  74.012  1.00  0.00     0.008 A 
ATOM     17  C   UNL     1      89.717  90.684  74.940  1.00  0.00     0.160 A 
ATOM     18  C   UNL     1      90.265  92.173  73.117  1.00  0.00     0.050 A 
ATOM     19  C   UNL     1      89.953  90.895  73.581  1.00  0.00     0.157 A 
BRANCH  17  20
ATOM     20  O   UNL     1      89.412  89.441  75.405  1.00  0.00    -0.493 OA
ATOM     21  C   UNL     1      90.184  88.951  76.500  1.00  0.00     0.278 C 
ENDBRANCH  17  20
BRANCH  19  22
ATOM     22  O   UNL     1      89.880  89.861  72.698  1.00  0.00    -0.504 OA
ATOM     23  H   UNL     1      89.975  90.209  71.794  1.00  0.00     0.293 HD
ENDBRANCH  19  22
ENDBRANCH  13  14
ENDBRANCH  12  13
ENDBRANCH  10  12
ENDBRANCH   1  10
TORSDOF 12
ENDMDL
MODEL 7
REMARK VINA RESULT:    -5.176      3.362      4.974
REMARK INTER + INTRA:         -10.297
REMARK INTER:                  -9.355
REMARK INTRA:                  -0.942
REMARK UNBOUND:                -1.793
REMARK SMILES CCCCC[C@H](O)CC(=O)CCc1ccc(O)c(OC)c1
REMARK SMILES IDX 8 1 6 2 7 3 5 5 4 6 3 7 2 8 1 9 9 10 10 11 11 12 12 13 13 14
REMARK SMILES IDX 21 15 14 16 18 17 15 18 16 19 19 20 20 21 17 22
REMARK H PARENT 7 4 17 23
REMARK Flexibility Score: inf
ROOT
ATOM      1  C   UNL     1      94.178  93.968  75.227  1.00  0.00     0.107 C 
ENDROOT
BRANCH   1   2
ATOM      2  C   UNL     1      95.442  94.690  75.700  1.00  0.00     0.121 C 
BRANCH   2   3
ATOM      3  O   UNL     1      96.145  93.874  76.633  1.00  0.00    -0.393 OA
ATOM      4  H   UNL     1      95.511  93.241  77.013  1.00  0.00     0.210 HD
ENDBRANCH   2   3
BRANCH   2   5
ATOM      5  C   UNL     1      96.384  95.068  74.550  1.00  0.00     0.032 C 
BRANCH   5   6
ATOM      6  C   UNL     1      96.604  96.582  74.458  1.00  0.00     0.003 C 
BRANCH   6   7
ATOM      7  C   UNL     1      95.368  97.400  74.848  1.00  0.00    -0.000 C 
BRANCH   7   8
ATOM      8  C   UNL     1      94.354  97.555  73.716  1.00  0.00    -0.003 C 
ATOM      9  C   UNL     1      95.033  97.961  72.417  1.00  0.00     0.004 C 
ENDBRANCH   7   8
ENDBRANCH   6   7
ENDBRANCH   5   6
ENDBRANCH   2   5
ENDBRANCH   1   2
BRANCH   1  10
ATOM     10  C   UNL     1      93.123  93.840  76.314  1.00  0.00     0.135 C 
ATOM     11  O   UNL     1      93.382  94.125  77.483  1.00  0.00    -0.300 OA
BRANCH  10  12
ATOM     12  C   UNL     1      91.739  93.393  75.871  1.00  0.00     0.080 C 
BRANCH  12  13
ATOM     13  C   UNL     1      90.762  93.180  77.029  1.00  0.00     0.043 C 
BRANCH  13  14
ATOM     14  C   UNL     1      90.468  91.723  77.295  1.00  0.00    -0.044 A 
ATOM     15  C   UNL     1      90.277  91.277  78.603  1.00  0.00     0.054 A 
ATOM     16  C   UNL     1      90.388  90.823  76.233  1.00  0.00     0.008 A 
ATOM     17  C   UNL     1      90.005  89.931  78.848  1.00  0.00     0.160 A 
ATOM     18  C   UNL     1      90.115  89.476  76.477  1.00  0.00     0.050 A 
ATOM     19  C   UNL     1      89.925  89.031  77.785  1.00  0.00     0.157 A 
BRANCH  17  20
ATOM     20  O   UNL     1      89.822  89.507  80.130  1.00  0.00    -0.493 OA
ATOM     21  C   UNL     1      90.892  89.730  81.046  1.00  0.00     0.278 C 
ENDBRANCH  17  20
BRANCH  19  22
ATOM     22  O   UNL     1      89.660  87.714  78.012  1.00  0.00    -0.504 OA
ATOM     23  H   UNL     1      89.360  87.605  78.931  1.00  0.00     0.293 HD
ENDBRANCH  19  22
ENDBRANCH  13  14
ENDBRANCH  12  13
ENDBRANCH  10  12
ENDBRANCH   1  10
TORSDOF 12
ENDMDL
MODEL 8
REMARK VINA RESULT:    -5.139      3.464      4.882
REMARK INTER + INTRA:         -10.237
REMARK INTER:                  -9.414
REMARK INTRA:                  -0.823
REMARK UNBOUND:                -1.793
REMARK SMILES CCCCC[C@H](O)CC(=O)CCc1ccc(O)c(OC)c1
REMARK SMILES IDX 8 1 6 2 7 3 5 5 4 6 3 7 2 8 1 9 9 10 10 11 11 12 12 13 13 14
REMARK SMILES IDX 21 15 14 16 18 17 15 18 16 19 19 20 20 21 17 22
REMARK H PARENT 7 4 17 23
REMARK Flexibility Score: inf
ROOT
ATOM      1  C   UNL     1      94.796  93.860  75.560  1.00  0.00     0.107 C 
ENDROOT
BRANCH   1   2
ATOM      2  C   UNL     1      95.346  94.379  76.891  1.00  0.00     0.121 C 
BRANCH   2   3
ATOM      3  O   UNL     1      95.436  93.308  77.828  1.00  0.00    -0.393 OA
ATOM      4  H   UNL     1      94.746  92.659  77.604  1.00  0.00     0.210 HD
ENDBRANCH   2   3
BRANCH   2   5
ATOM      5  C   UNL     1      96.719  95.047  76.754  1.00  0.00     0.032 C 
BRANCH   5   6
ATOM      6  C   UNL     1      96.629  96.416  76.068  1.00  0.00     0.003 C 
BRANCH   6   7
ATOM      7  C   UNL     1      97.565  96.553  74.863  1.00  0.00    -0.000 C 
BRANCH   7   8
ATOM      8  C   UNL     1      96.832  96.652  73.527  1.00  0.00    -0.003 C 
ATOM      9  C   UNL     1      97.684  96.120  72.385  1.00  0.00     0.004 C 
ENDBRANCH   7   8
ENDBRANCH   6   7
ENDBRANCH   5   6
ENDBRANCH   2   5
ENDBRANCH   1   2
BRANCH   1  10
ATOM     10  C   UNL     1      93.474  94.501  75.171  1.00  0.00     0.135 C 
ATOM     11  O   UNL     1      93.428  95.666  74.775  1.00  0.00    -0.300 OA
BRANCH  10  12
ATOM     12  C   UNL     1      92.238  93.619  75.255  1.00  0.00     0.080 C 
BRANCH  12  13
ATOM     13  C   UNL     1      91.746  93.384  76.684  1.00  0.00     0.043 C 
BRANCH  13  14
ATOM     14  C   UNL     1      91.170  92.003  76.892  1.00  0.00    -0.044 A 
ATOM     15  C   UNL     1      91.160  91.086  75.841  1.00  0.00     0.054 A 
ATOM     16  C   UNL     1      90.649  91.645  78.135  1.00  0.00     0.008 A 
ATOM     17  C   UNL     1      90.629  89.810  76.035  1.00  0.00     0.160 A 
ATOM     18  C   UNL     1      90.118  90.370  78.329  1.00  0.00     0.050 A 
ATOM     19  C   UNL     1      90.108  89.453  77.278  1.00  0.00     0.157 A 
BRANCH  17  20
ATOM     20  O   UNL     1      90.624  88.923  75.001  1.00  0.00    -0.493 OA
ATOM     21  C   UNL     1      91.710  88.000  74.933  1.00  0.00     0.278 C 
ENDBRANCH  17  20
BRANCH  19  22
ATOM     22  O   UNL     1      89.587  88.210  77.479  1.00  0.00    -0.504 OA
ATOM     23  H   UNL     1      90.300  87.607  77.749  1.00  0.00     0.293 HD
ENDBRANCH  19  22
ENDBRANCH  13  14
ENDBRANCH  12  13
ENDBRANCH  10  12
ENDBRANCH   1  10
TORSDOF 12
ENDMDL
MODEL 9
REMARK VINA RESULT:    -5.084      5.004      7.896
REMARK INTER + INTRA:         -10.147
REMARK INTER:                  -8.579
REMARK INTRA:                  -1.568
REMARK UNBOUND:                -1.793
REMARK SMILES CCCCC[C@H](O)CC(=O)CCc1ccc(O)c(OC)c1
REMARK SMILES IDX 8 1 6 2 7 3 5 5 4 6 3 7 2 8 1 9 9 10 10 11 11 12 12 13 13 14
REMARK SMILES IDX 21 15 14 16 18 17 15 18 16 19 19 20 20 21 17 22
REMARK H PARENT 7 4 17 23
REMARK Flexibility Score: inf
ROOT
ATOM      1  C   UNL     1      95.489  95.613  81.032  1.00  0.00     0.107 C 
ENDROOT
BRANCH   1   2
ATOM      2  C   UNL     1      96.918  96.157  80.960  1.00  0.00     0.121 C 
BRANCH   2   3
ATOM      3  O   UNL     1      97.850  95.083  81.054  1.00  0.00    -0.393 OA
ATOM      4  H   UNL     1      97.565  94.504  81.783  1.00  0.00     0.210 HD
ENDBRANCH   2   3
BRANCH   2   5
ATOM      5  C   UNL     1      97.193  96.953  79.678  1.00  0.00     0.032 C 
BRANCH   5   6
ATOM      6  C   UNL     1      98.231  96.265  78.784  1.00  0.00     0.003 C 
BRANCH   6   7
ATOM      7  C   UNL     1      97.646  95.739  77.469  1.00  0.00    -0.000 C 
BRANCH   7   8
ATOM      8  C   UNL     1      98.122  96.506  76.237  1.00  0.00    -0.003 C 
ATOM      9  C   UNL     1      97.238  96.222  75.032  1.00  0.00     0.004 C 
ENDBRANCH   7   8
ENDBRANCH   6   7
ENDBRANCH   5   6
ENDBRANCH   2   5
ENDBRANCH   1   2
BRANCH   1  10
ATOM     10  C   UNL     1      95.410  94.115  80.784  1.00  0.00     0.135 C 
ATOM     11  O   UNL     1      95.452  93.316  81.720  1.00  0.00    -0.300 OA
BRANCH  10  12
ATOM     12  C   UNL     1      95.231  93.671  79.341  1.00  0.00     0.080 C 
BRANCH  12  13
ATOM     13  C   UNL     1      94.457  94.671  78.481  1.00  0.00     0.043 C 
BRANCH  13  14
ATOM     14  C   UNL     1      93.765  94.028  77.303  1.00  0.00    -0.044 A 
ATOM     15  C   UNL     1      92.594  93.295  77.496  1.00  0.00     0.054 A 
ATOM     16  C   UNL     1      94.297  94.168  76.021  1.00  0.00     0.008 A 
ATOM     17  C   UNL     1      91.955  92.702  76.407  1.00  0.00     0.160 A 
ATOM     18  C   UNL     1      93.658  93.575  74.931  1.00  0.00     0.050 A 
ATOM     19  C   UNL     1      92.488  92.842  75.125  1.00  0.00     0.157 A 
BRANCH  17  20
ATOM     20  O   UNL     1      90.813  91.987  76.608  1.00  0.00    -0.493 OA
ATOM     21  C   UNL     1      89.713  92.676  77.201  1.00  0.00     0.278 C 
ENDBRANCH  17  20
BRANCH  19  22
ATOM     22  O   UNL     1      91.873  92.267  74.054  1.00  0.00    -0.504 OA
ATOM     23  H   UNL     1      92.341  91.447  73.822  1.00  0.00     0.293 HD
ENDBRANCH  19  22
ENDBRANCH  13  14
ENDBRANCH  12  13
ENDBRANCH  10  12
ENDBRANCH   1  10
TORSDOF 12
ENDMDL
MODEL 10
REMARK VINA RESULT:    -5.038      6.052      9.051
REMARK INTER + INTRA:         -10.071
REMARK INTER:                  -8.962
REMARK INTRA:                  -1.109
REMARK UNBOUND:                -1.793
REMARK SMILES CCCCC[C@H](O)CC(=O)CCc1ccc(O)c(OC)c1
REMARK SMILES IDX 8 1 6 2 7 3 5 5 4 6 3 7 2 8 1 9 9 10 10 11 11 12 12 13 13 14
REMARK SMILES IDX 21 15 14 16 18 17 15 18 16 19 19 20 20 21 17 22
REMARK H PARENT 7 4 17 23
REMARK Flexibility Score: inf
ROOT
ATOM      1  C   UNL     1      94.621  95.034  76.019  1.00  0.00     0.107 C 
ENDROOT
BRANCH   1   2
ATOM      2  C   UNL     1      93.527  94.031  76.391  1.00  0.00     0.121 C 
BRANCH   2   3
ATOM      3  O   UNL     1      93.858  93.388  77.620  1.00  0.00    -0.393 OA
ATOM      4  H   UNL     1      93.394  92.534  77.644  1.00  0.00     0.210 HD
ENDBRANCH   2   3
BRANCH   2   5
ATOM      5  C   UNL     1      92.140  94.674  76.516  1.00  0.00     0.032 C 
BRANCH   5   6
ATOM      6  C   UNL     1      91.022  93.725  76.065  1.00  0.00     0.003 C 
BRANCH   6   7
ATOM      7  C   UNL     1      90.140  93.237  77.218  1.00  0.00    -0.000 C 
BRANCH   7   8
ATOM      8  C   UNL     1      90.655  91.964  77.887  1.00  0.00    -0.003 C 
ATOM      9  C   UNL     1      90.101  90.719  77.211  1.00  0.00     0.004 C 
ENDBRANCH   7   8
ENDBRANCH   6   7
ENDBRANCH   5   6
ENDBRANCH   2   5
ENDBRANCH   1   2
BRANCH   1  10
ATOM     10  C   UNL     1      96.022  94.454  76.122  1.00  0.00     0.135 C 
ATOM     11  O   UNL     1      96.266  93.316  75.723  1.00  0.00    -0.300 OA
BRANCH  10  12
ATOM     12  C   UNL     1      97.096  95.364  76.697  1.00  0.00     0.080 C 
BRANCH  12  13
ATOM     13  C   UNL     1      96.543  96.501  77.558  1.00  0.00     0.043 C 
BRANCH  13  14
ATOM     14  C   UNL     1      96.688  96.246  79.040  1.00  0.00    -0.044 A 
ATOM     15  C   UNL     1      97.800  96.734  79.726  1.00  0.00     0.054 A 
ATOM     16  C   UNL     1      95.710  95.522  79.721  1.00  0.00     0.008 A 
ATOM     17  C   UNL     1      97.933  96.499  81.095  1.00  0.00     0.160 A 
ATOM     18  C   UNL     1      95.843  95.286  81.090  1.00  0.00     0.050 A 
ATOM     19  C   UNL     1      96.954  95.775  81.776  1.00  0.00     0.157 A 
BRANCH  17  20
ATOM     20  O   UNL     1      99.023  96.980  81.754  1.00  0.00    -0.493 OA
ATOM     21  C   UNL     1     100.271  96.337  81.500  1.00  0.00     0.278 C 
ENDBRANCH  17  20
BRANCH  19  22
ATOM     22  O   UNL     1      97.073  95.538  83.112  1.00  0.00    -0.504 OA
ATOM     23  H   UNL     1      97.451  96.325  83.541  1.00  0.00     0.293 HD
ENDBRANCH  19  22
ENDBRANCH  13  14
ENDBRANCH  12  13
ENDBRANCH  10  12
ENDBRANCH   1  10
TORSDOF 12
ENDMDL
