MODEL 1
REMARK VINA RESULT:    -7.340      0.000      0.000
REMARK INTER + INTRA:         -13.067
REMARK INTER:                 -12.489
REMARK INTRA:                  -0.578
REMARK UNBOUND:                -0.578
REMARK SMILES C=C(C)[C@]12C[C@@H](C)[C@@]34O[C@](Cc5ccccc5)(O[C@@H]1[C@@H]3C=C(COC(=O)Cc1ccc(O)cc1)C[C@]1(O)C(=O)C(C)=C[C@@H]41)O2
REMARK SMILES IDX 23 1 22 2 21 3 20 4 9 5 8 6 10 7 6 8 18 10 44 11 19 12 5 13
REMARK SMILES IDX 7 14 4 15 11 16 12 17 13 18 17 19 14 20 16 21 15 22 2 23
REMARK SMILES IDX 3 24 1 25 35 26 36 27 43 28 38 29 42 30 39 32 40 33 41 34
REMARK SMILES IDX 37 35 24 37 25 38 26 39 27 40 28 41 29 42 34 43 30 44 33 45
REMARK SMILES IDX 31 46 32 47
REMARK H PARENT 37 36 32 48
REMARK Flexibility Score: 90.00
ROOT
ATOM      1  C   UNL     1      62.910  84.174  80.366  1.00  0.00     0.264 C 
ENDROOT
BRANCH   1   2
ATOM      2  C   UNL     1      63.534  84.574  79.049  1.00  0.00    -0.033 C 
ATOM      3  C   UNL     1      63.126  83.967  77.915  1.00  0.00    -0.015 C 
BRANCH   3   4
ATOM      4  C   UNL     1      63.641  84.131  76.494  1.00  0.00     0.078 C 
ATOM      5  O   UNL     1      62.227  85.844  75.408  1.00  0.00    -0.319 OA
ATOM      6  C   UNL     1      63.594  85.561  75.841  1.00  0.00     0.095 CG0
ATOM      7  C   UNL     1      61.547  84.751  74.762  1.00  0.00     0.289 C 
ATOM      8  C   UNL     1      64.550  85.543  74.578  1.00  0.00     0.023 C 
ATOM      9  G   UNL     1      63.902  86.662  76.897  1.00  0.00     0.000 G0
ATOM     10  O   UNL     1      61.496  83.603  75.604  1.00  0.00    -0.320 OA
ATOM     11  O   UNL     1      62.210  84.327  73.573  1.00  0.00    -0.313 OA
ATOM     12  C   UNL     1      62.869  83.184  75.542  1.00  0.00     0.170 C 
ATOM     13  C   UNL     1      64.561  84.145  73.888  1.00  0.00     0.049 C 
ATOM     14  C   UNL     1      64.273  86.629  73.524  1.00  0.00     0.011 C 
ATOM     15  C   UNL     1      63.224  83.421  74.054  1.00  0.00     0.122 C 
BRANCH   7  16
ATOM     16  C   UNL     1      60.140  85.201  74.422  1.00  0.00     0.135 C 
BRANCH  16  17
ATOM     17  C   UNL     1      60.009  85.606  72.975  1.00  0.00    -0.040 A 
ATOM     18  C   UNL     1      59.383  84.754  72.066  1.00  0.00     0.004 A 
ATOM     19  C   UNL     1      60.514  86.833  72.548  1.00  0.00     0.004 A 
ATOM     20  C   UNL     1      59.261  85.129  70.728  1.00  0.00     0.000 A 
ATOM     21  C   UNL     1      60.392  87.209  71.209  1.00  0.00     0.000 A 
ATOM     22  C   UNL     1      59.766  86.357  70.300  1.00  0.00     0.000 A 
ENDBRANCH  16  17
ENDBRANCH   7  16
BRANCH  15  23
ATOM     23  C   UNL     1      63.149  82.163  73.252  1.00  0.00    -0.046 C 
ATOM     24  C   UNL     1      64.224  81.968  72.224  1.00  0.00     0.042 C 
ATOM     25  C   UNL     1      62.176  81.259  73.439  1.00  0.00     0.010 C 
ENDBRANCH  15  23
ENDBRANCH   3   4
BRANCH   2  26
ATOM     26  C   UNL     1      64.579  85.664  79.192  1.00  0.00     0.078 C 
BRANCH  26  27
ATOM     27  C   UNL     1      65.080  86.324  77.909  1.00  0.00     0.140 C 
ATOM     28  C   UNL     1      63.929  86.654  76.935  1.00  0.00     0.086 CG0
ATOM     29  C   UNL     1      65.695  87.685  78.158  1.00  0.00     0.190 C 
ATOM     30  C   UNL     1      64.233  88.060  76.499  1.00  0.00    -0.010 C 
ATOM     31  G   UNL     1      63.608  85.574  75.862  1.00  0.00     0.000 G0
ATOM     32  O   UNL     1      66.530  87.938  79.014  1.00  0.00    -0.291 OA
ATOM     33  C   UNL     1      65.200  88.676  77.185  1.00  0.00    -0.008 C 
ATOM     34  C   UNL     1      65.700  90.063  77.088  1.00  0.00     0.048 C 
BRANCH  27  35
ATOM     35  O   UNL     1      66.133  85.579  77.319  1.00  0.00    -0.381 OA
ATOM     36  H   UNL     1      65.836  85.265  76.448  1.00  0.00     0.212 HD
ENDBRANCH  27  35
ENDBRANCH  26  27
ENDBRANCH   2  26
ENDBRANCH   1   2
BRANCH   1  37
ATOM     37  O   UNL     1      63.753  84.578  81.424  1.00  0.00    -0.461 OA
BRANCH  37  38
ATOM     38  C   UNL     1      63.713  83.805  82.562  1.00  0.00     0.310 C 
ATOM     39  O   UNL     1      63.192  84.137  83.617  1.00  0.00    -0.252 OA
BRANCH  38  40
ATOM     40  C   UNL     1      64.409  82.491  82.303  1.00  0.00     0.158 C 
BRANCH  40  41
ATOM     41  C   UNL     1      63.596  81.299  82.737  1.00  0.00    -0.037 A 
ATOM     42  C   UNL     1      62.450  80.941  82.026  1.00  0.00     0.008 A 
ATOM     43  C   UNL     1      63.987  80.554  83.848  1.00  0.00     0.008 A 
ATOM     44  C   UNL     1      61.696  79.838  82.428  1.00  0.00     0.046 A 
ATOM     45  C   UNL     1      63.234  79.451  84.250  1.00  0.00     0.046 A 
ATOM     46  C   UNL     1      62.088  79.093  83.541  1.00  0.00     0.115 A 
BRANCH  46  47
ATOM     47  O   UNL     1      61.352  78.018  83.933  1.00  0.00    -0.508 OA
ATOM     48  H   UNL     1      61.954  77.282  84.139  1.00  0.00     0.293 HD
ENDBRANCH  46  47
ENDBRANCH  40  41
ENDBRANCH  38  40
ENDBRANCH  37  38
ENDBRANCH   1  37
TORSDOF 10
ENDMDL
MODEL 2
REMARK VINA RESULT:    -7.223     15.284     19.493
REMARK INTER + INTRA:         -12.868
REMARK INTER:                 -10.509
REMARK INTRA:                  -2.360
REMARK UNBOUND:                -0.578
REMARK SMILES C=C(C)[C@]12C[C@@H](C)[C@@]34O[C@](Cc5ccccc5)(O[C@@H]1[C@@H]3C=C(COC(=O)Cc1ccc(O)cc1)C[C@]1(O)C(=O)C(C)=C[C@@H]41)O2
REMARK SMILES IDX 23 1 22 2 21 3 20 4 9 5 8 6 10 7 6 8 18 10 44 11 19 12 5 13
REMARK SMILES IDX 7 14 4 15 11 16 12 17 13 18 17 19 14 20 16 21 15 22 2 23
REMARK SMILES IDX 3 24 1 25 35 26 36 27 43 28 38 29 42 30 39 32 40 33 41 34
REMARK SMILES IDX 37 35 24 37 25 38 26 39 27 40 28 41 29 42 34 43 30 44 33 45
REMARK SMILES IDX 31 46 32 47
REMARK H PARENT 37 36 32 48
REMARK Flexibility Score: 90.00
ROOT
ATOM      1  C   UNL     1      69.323  66.513  80.928  1.00  0.00     0.264 C 
ENDROOT
BRANCH   1   2
ATOM      2  C   UNL     1      67.879  66.073  80.860  1.00  0.00    -0.033 C 
ATOM      3  C   UNL     1      66.963  66.695  81.632  1.00  0.00    -0.015 C 
BRANCH   3   4
ATOM      4  C   UNL     1      65.482  66.397  81.804  1.00  0.00     0.078 C 
ATOM      5  O   UNL     1      64.265  67.846  80.212  1.00  0.00    -0.319 OA
ATOM      6  C   UNL     1      64.556  66.450  80.534  1.00  0.00     0.095 CG0
ATOM      7  C   UNL     1      63.964  68.688  81.341  1.00  0.00     0.289 C 
ATOM      8  C   UNL     1      63.205  65.704  80.893  1.00  0.00     0.023 C 
ATOM      9  G   UNL     1      65.304  65.911  79.280  1.00  0.00     0.000 G0
ATOM     10  O   UNL     1      65.027  68.684  82.289  1.00  0.00    -0.320 OA
ATOM     11  O   UNL     1      62.811  68.246  82.054  1.00  0.00    -0.313 OA
ATOM     12  C   UNL     1      64.867  67.368  82.841  1.00  0.00     0.170 C 
ATOM     13  C   UNL     1      62.831  65.891  82.396  1.00  0.00     0.049 C 
ATOM     14  C   UNL     1      61.995  66.068  80.017  1.00  0.00     0.011 C 
ATOM     15  C   UNL     1      63.328  67.231  82.940  1.00  0.00     0.122 C 
BRANCH   7  16
ATOM     16  C   UNL     1      63.734  70.098  80.834  1.00  0.00     0.135 C 
BRANCH  16  17
ATOM     17  C   UNL     1      62.817  70.883  81.739  1.00  0.00    -0.040 A 
ATOM     18  C   UNL     1      63.349  71.650  82.775  1.00  0.00     0.004 A 
ATOM     19  C   UNL     1      61.438  70.840  81.540  1.00  0.00     0.004 A 
ATOM     20  C   UNL     1      62.501  72.377  83.612  1.00  0.00     0.000 A 
ATOM     21  C   UNL     1      60.590  71.566  82.377  1.00  0.00     0.000 A 
ATOM     22  C   UNL     1      61.121  72.334  83.412  1.00  0.00     0.000 A 
ENDBRANCH  16  17
ENDBRANCH   7  16
BRANCH  15  23
ATOM     23  C   UNL     1      62.827  67.512  84.319  1.00  0.00    -0.046 C 
ATOM     24  C   UNL     1      61.606  68.378  84.416  1.00  0.00     0.042 C 
ATOM     25  C   UNL     1      63.433  67.018  85.408  1.00  0.00     0.010 C 
ENDBRANCH  15  23
ENDBRANCH   3   4
BRANCH   2  26
ATOM     26  C   UNL     1      67.647  64.940  79.879  1.00  0.00     0.078 C 
BRANCH  26  27
ATOM     27  C   UNL     1      66.199  64.625  79.505  1.00  0.00     0.140 C 
ATOM     28  C   UNL     1      65.360  65.903  79.294  1.00  0.00     0.086 CG0
ATOM     29  C   UNL     1      66.084  63.935  78.163  1.00  0.00     0.190 C 
ATOM     30  C   UNL     1      64.617  65.625  78.017  1.00  0.00    -0.010 C 
ATOM     31  G   UNL     1      64.579  66.423  80.535  1.00  0.00     0.000 G0
ATOM     32  O   UNL     1      66.741  62.968  77.805  1.00  0.00    -0.291 OA
ATOM     33  C   UNL     1      65.019  64.543  77.344  1.00  0.00    -0.008 C 
ATOM     34  C   UNL     1      64.579  64.020  76.034  1.00  0.00     0.048 C 
BRANCH  27  35
ATOM     35  O   UNL     1      65.619  63.703  80.412  1.00  0.00    -0.381 OA
ATOM     36  H   UNL     1      66.307  63.407  81.032  1.00  0.00     0.212 HD
ENDBRANCH  27  35
ENDBRANCH  26  27
ENDBRANCH   2  26
ENDBRANCH   1   2
BRANCH   1  37
ATOM     37  O   UNL     1      70.151  65.377  81.052  1.00  0.00    -0.461 OA
BRANCH  37  38
ATOM     38  C   UNL     1      70.927  65.313  82.187  1.00  0.00     0.310 C 
ATOM     39  O   UNL     1      71.761  66.144  82.516  1.00  0.00    -0.252 OA
BRANCH  38  40
ATOM     40  C   UNL     1      70.588  64.060  82.958  1.00  0.00     0.158 C 
BRANCH  40  41
ATOM     41  C   UNL     1      69.243  64.131  83.634  1.00  0.00    -0.037 A 
ATOM     42  C   UNL     1      69.073  64.926  84.768  1.00  0.00     0.008 A 
ATOM     43  C   UNL     1      68.168  63.402  83.127  1.00  0.00     0.008 A 
ATOM     44  C   UNL     1      67.828  64.992  85.394  1.00  0.00     0.046 A 
ATOM     45  C   UNL     1      66.922  63.468  83.752  1.00  0.00     0.046 A 
ATOM     46  C   UNL     1      66.753  64.262  84.886  1.00  0.00     0.115 A 
BRANCH  46  47
ATOM     47  O   UNL     1      65.539  64.326  85.497  1.00  0.00    -0.508 OA
ATOM     48  H   UNL     1      65.458  65.184  85.949  1.00  0.00     0.293 HD
ENDBRANCH  46  47
ENDBRANCH  40  41
ENDBRANCH  38  40
ENDBRANCH  37  38
ENDBRANCH   1  37
TORSDOF 10
ENDMDL
MODEL 3
REMARK VINA RESULT:    -7.154     12.271     16.298
REMARK INTER + INTRA:         -12.751
REMARK INTER:                 -10.467
REMARK INTRA:                  -2.284
REMARK UNBOUND:                -0.578
REMARK SMILES C=C(C)[C@]12C[C@@H](C)[C@@]34O[C@](Cc5ccccc5)(O[C@@H]1[C@@H]3C=C(COC(=O)Cc1ccc(O)cc1)C[C@]1(O)C(=O)C(C)=C[C@@H]41)O2
REMARK SMILES IDX 23 1 22 2 21 3 20 4 9 5 8 6 10 7 6 8 18 10 44 11 19 12 5 13
REMARK SMILES IDX 7 14 4 15 11 16 12 17 13 18 17 19 14 20 16 21 15 22 2 23
REMARK SMILES IDX 3 24 1 25 35 26 36 27 43 28 38 29 42 30 39 32 40 33 41 34
REMARK SMILES IDX 37 35 24 37 25 38 26 39 27 40 28 41 29 42 34 43 30 44 33 45
REMARK SMILES IDX 31 46 32 47
REMARK H PARENT 37 36 32 48
REMARK Flexibility Score: 90.00
ROOT
ATOM      1  C   UNL     1      74.655  89.053  64.947  1.00  0.00     0.264 C 
ENDROOT
BRANCH   1   2
ATOM      2  C   UNL     1      74.076  89.234  66.331  1.00  0.00    -0.033 C 
ATOM      3  C   UNL     1      73.532  88.172  66.962  1.00  0.00    -0.015 C 
BRANCH   3   4
ATOM      4  C   UNL     1      72.825  88.107  68.306  1.00  0.00     0.078 C 
ATOM      5  O   UNL     1      74.544  87.565  69.999  1.00  0.00    -0.319 OA
ATOM      6  C   UNL     1      73.599  88.599  69.584  1.00  0.00     0.095 CG0
ATOM      7  C   UNL     1      74.039  86.217  69.957  1.00  0.00     0.289 C 
ATOM      8  C   UNL     1      72.532  88.825  70.733  1.00  0.00     0.023 C 
ATOM      9  G   UNL     1      74.492  89.830  69.249  1.00  0.00     0.000 G0
ATOM     10  O   UNL     1      73.584  85.875  68.650  1.00  0.00    -0.320 OA
ATOM     11  O   UNL     1      72.917  86.031  70.817  1.00  0.00    -0.313 OA
ATOM     12  C   UNL     1      72.377  86.652  68.594  1.00  0.00     0.170 C 
ATOM     13  C   UNL     1      71.351  87.812  70.625  1.00  0.00     0.049 C 
ATOM     14  C   UNL     1      73.090  88.807  72.166  1.00  0.00     0.011 C 
ATOM     15  C   UNL     1      71.801  86.481  70.021  1.00  0.00     0.122 C 
BRANCH   7  16
ATOM     16  C   UNL     1      75.155  85.278  70.373  1.00  0.00     0.135 C 
BRANCH  16  17
ATOM     17  C   UNL     1      76.270  85.240  69.358  1.00  0.00    -0.040 A 
ATOM     18  C   UNL     1      76.828  84.020  68.980  1.00  0.00     0.004 A 
ATOM     19  C   UNL     1      76.743  86.427  68.799  1.00  0.00     0.004 A 
ATOM     20  C   UNL     1      77.860  83.985  68.042  1.00  0.00     0.000 A 
ATOM     21  C   UNL     1      77.775  86.392  67.860  1.00  0.00     0.000 A 
ATOM     22  C   UNL     1      78.333  85.172  67.482  1.00  0.00     0.000 A 
ENDBRANCH  16  17
ENDBRANCH   7  16
BRANCH  15  23
ATOM     23  C   UNL     1      70.734  85.437  70.075  1.00  0.00    -0.046 C 
ATOM     24  C   UNL     1      69.625  85.674  71.056  1.00  0.00     0.042 C 
ATOM     25  C   UNL     1      70.766  84.350  69.290  1.00  0.00     0.010 C 
ENDBRANCH  15  23
ENDBRANCH   3   4
BRANCH   2  26
ATOM     26  C   UNL     1      74.199  90.655  66.848  1.00  0.00     0.078 C 
BRANCH  26  27
ATOM     27  C   UNL     1      73.839  90.899  68.312  1.00  0.00     0.140 C 
ATOM     28  C   UNL     1      74.470  89.849  69.251  1.00  0.00     0.086 CG0
ATOM     29  C   UNL     1      74.414  92.196  68.842  1.00  0.00     0.190 C 
ATOM     30  C   UNL     1      75.035  90.676  70.372  1.00  0.00    -0.010 C 
ATOM     31  G   UNL     1      73.588  88.611  69.585  1.00  0.00     0.000 G0
ATOM     32  O   UNL     1      74.334  93.283  68.291  1.00  0.00    -0.291 OA
ATOM     33  C   UNL     1      75.044  91.996  70.161  1.00  0.00    -0.008 C 
ATOM     34  C   UNL     1      75.588  93.088  70.993  1.00  0.00     0.048 C 
BRANCH  27  35
ATOM     35  O   UNL     1      72.441  91.054  68.484  1.00  0.00    -0.381 OA
ATOM     36  H   UNL     1      71.989  90.404  67.919  1.00  0.00     0.212 HD
ENDBRANCH  27  35
ENDBRANCH  26  27
ENDBRANCH   2  26
ENDBRANCH   1   2
BRANCH   1  37
ATOM     37  O   UNL     1      75.670  88.073  64.991  1.00  0.00    -0.461 OA
BRANCH  37  38
ATOM     38  C   UNL     1      75.619  87.101  64.018  1.00  0.00     0.310 C 
ATOM     39  O   UNL     1      74.817  87.072  63.096  1.00  0.00    -0.252 OA
BRANCH  38  40
ATOM     40  C   UNL     1      76.704  86.081  64.268  1.00  0.00     0.158 C 
BRANCH  40  41
ATOM     41  C   UNL     1      76.172  84.777  64.803  1.00  0.00    -0.037 A 
ATOM     42  C   UNL     1      76.807  83.578  64.477  1.00  0.00     0.008 A 
ATOM     43  C   UNL     1      75.045  84.767  65.624  1.00  0.00     0.008 A 
ATOM     44  C   UNL     1      76.314  82.370  64.972  1.00  0.00     0.046 A 
ATOM     45  C   UNL     1      74.552  83.559  66.119  1.00  0.00     0.046 A 
ATOM     46  C   UNL     1      75.186  82.361  65.793  1.00  0.00     0.115 A 
BRANCH  46  47
ATOM     47  O   UNL     1      74.705  81.183  66.275  1.00  0.00    -0.508 OA
ATOM     48  H   UNL     1      75.405  80.743  66.790  1.00  0.00     0.293 HD
ENDBRANCH  46  47
ENDBRANCH  40  41
ENDBRANCH  38  40
ENDBRANCH  37  38
ENDBRANCH   1  37
TORSDOF 10
ENDMDL
MODEL 4
REMARK VINA RESULT:    -7.127      6.362     10.401
REMARK INTER + INTRA:         -12.705
REMARK INTER:                 -11.745
REMARK INTRA:                  -0.960
REMARK UNBOUND:                -0.578
REMARK SMILES C=C(C)[C@]12C[C@@H](C)[C@@]34O[C@](Cc5ccccc5)(O[C@@H]1[C@@H]3C=C(COC(=O)Cc1ccc(O)cc1)C[C@]1(O)C(=O)C(C)=C[C@@H]41)O2
REMARK SMILES IDX 23 1 22 2 21 3 20 4 9 5 8 6 10 7 6 8 18 10 44 11 19 12 5 13
REMARK SMILES IDX 7 14 4 15 11 16 12 17 13 18 17 19 14 20 16 21 15 22 2 23
REMARK SMILES IDX 3 24 1 25 35 26 36 27 43 28 38 29 42 30 39 32 40 33 41 34
REMARK SMILES IDX 37 35 24 37 25 38 26 39 27 40 28 41 29 42 34 43 30 44 33 45
REMARK SMILES IDX 31 46 32 47
REMARK H PARENT 37 36 32 48
REMARK Flexibility Score: 90.00
ROOT
ATOM      1  C   UNL     1      68.583  86.879  72.052  1.00  0.00     0.264 C 
ENDROOT
BRANCH   1   2
ATOM      2  C   UNL     1      67.946  85.633  71.483  1.00  0.00    -0.033 C 
ATOM      3  C   UNL     1      66.716  85.270  71.903  1.00  0.00    -0.015 C 
BRANCH   3   4
ATOM      4  C   UNL     1      65.900  84.038  71.549  1.00  0.00     0.078 C 
ATOM      5  O   UNL     1      64.447  84.659  69.646  1.00  0.00    -0.319 OA
ATOM      6  C   UNL     1      65.549  83.781  70.037  1.00  0.00     0.095 CG0
ATOM      7  C   UNL     1      63.381  84.773  70.608  1.00  0.00     0.289 C 
ATOM      8  C   UNL     1      65.090  82.271  69.901  1.00  0.00     0.023 C 
ATOM      9  G   UNL     1      66.729  84.207  69.116  1.00  0.00     0.000 G0
ATOM     10  O   UNL     1      63.865  85.235  71.865  1.00  0.00    -0.320 OA
ATOM     11  O   UNL     1      62.754  83.520  70.874  1.00  0.00    -0.313 OA
ATOM     12  C   UNL     1      64.555  84.059  72.317  1.00  0.00     0.170 C 
ATOM     13  C   UNL     1      64.348  81.781  71.181  1.00  0.00     0.049 C 
ATOM     14  C   UNL     1      64.236  81.949  68.662  1.00  0.00     0.011 C 
ATOM     15  C   UNL     1      63.602  82.922  71.875  1.00  0.00     0.122 C 
BRANCH   7  16
ATOM     16  C   UNL     1      62.353  85.746  70.064  1.00  0.00     0.135 C 
BRANCH  16  17
ATOM     17  C   UNL     1      60.952  85.387  70.491  1.00  0.00    -0.040 A 
ATOM     18  C   UNL     1      60.441  85.876  71.692  1.00  0.00     0.004 A 
ATOM     19  C   UNL     1      60.168  84.565  69.682  1.00  0.00     0.004 A 
ATOM     20  C   UNL     1      59.144  85.544  72.086  1.00  0.00     0.000 A 
ATOM     21  C   UNL     1      58.871  84.233  70.076  1.00  0.00     0.000 A 
ATOM     22  C   UNL     1      58.360  84.722  71.277  1.00  0.00     0.000 A 
ENDBRANCH  16  17
ENDBRANCH   7  16
BRANCH  15  23
ATOM     23  C   UNL     1      62.739  82.444  72.998  1.00  0.00    -0.046 C 
ATOM     24  C   UNL     1      63.241  81.252  73.757  1.00  0.00     0.042 C 
ATOM     25  C   UNL     1      61.582  83.047  73.309  1.00  0.00     0.010 C 
ENDBRANCH  15  23
ENDBRANCH   3   4
BRANCH   2  26
ATOM     26  C   UNL     1      68.820  84.931  70.461  1.00  0.00     0.078 C 
BRANCH  26  27
ATOM     27  C   UNL     1      68.167  83.838  69.617  1.00  0.00     0.140 C 
ATOM     28  C   UNL     1      66.753  84.234  69.141  1.00  0.00     0.086 CG0
ATOM     29  C   UNL     1      68.895  83.601  68.310  1.00  0.00     0.190 C 
ATOM     30  C   UNL     1      66.755  83.856  67.686  1.00  0.00    -0.010 C 
ATOM     31  G   UNL     1      65.572  83.779  70.047  1.00  0.00     0.000 G0
ATOM     32  O   UNL     1      70.100  83.443  68.190  1.00  0.00    -0.291 OA
ATOM     33  C   UNL     1      67.947  83.523  67.183  1.00  0.00    -0.008 C 
ATOM     34  C   UNL     1      68.333  83.182  65.798  1.00  0.00     0.048 C 
BRANCH  27  35
ATOM     35  O   UNL     1      68.220  82.579  70.267  1.00  0.00    -0.381 OA
ATOM     36  H   UNL     1      68.794  82.661  71.047  1.00  0.00     0.212 HD
ENDBRANCH  27  35
ENDBRANCH  26  27
ENDBRANCH   2  26
ENDBRANCH   1   2
BRANCH   1  37
ATOM     37  O   UNL     1      69.197  87.607  71.010  1.00  0.00    -0.461 OA
BRANCH  37  38
ATOM     38  C   UNL     1      70.492  88.014  71.233  1.00  0.00     0.310 C 
ATOM     39  O   UNL     1      70.975  88.246  72.333  1.00  0.00    -0.252 OA
BRANCH  38  40
ATOM     40  C   UNL     1      71.219  88.128  69.915  1.00  0.00     0.158 C 
BRANCH  40  41
ATOM     41  C   UNL     1      72.460  87.276  69.853  1.00  0.00    -0.037 A 
ATOM     42  C   UNL     1      73.688  87.802  70.256  1.00  0.00     0.008 A 
ATOM     43  C   UNL     1      72.383  85.962  69.392  1.00  0.00     0.008 A 
ATOM     44  C   UNL     1      74.838  87.014  70.198  1.00  0.00     0.046 A 
ATOM     45  C   UNL     1      73.532  85.173  69.334  1.00  0.00     0.046 A 
ATOM     46  C   UNL     1      74.760  85.699  69.737  1.00  0.00     0.115 A 
BRANCH  46  47
ATOM     47  O   UNL     1      75.881  84.931  69.679  1.00  0.00    -0.508 OA
ATOM     48  H   UNL     1      75.817  84.336  68.912  1.00  0.00     0.293 HD
ENDBRANCH  46  47
ENDBRANCH  40  41
ENDBRANCH  38  40
ENDBRANCH  37  38
ENDBRANCH   1  37
TORSDOF 10
ENDMDL
MODEL 5
REMARK VINA RESULT:    -6.933      4.257      8.211
REMARK INTER + INTRA:         -12.374
REMARK INTER:                 -10.278
REMARK INTRA:                  -2.096
REMARK UNBOUND:                -0.578
REMARK SMILES C=C(C)[C@]12C[C@@H](C)[C@@]34O[C@](Cc5ccccc5)(O[C@@H]1[C@@H]3C=C(COC(=O)Cc1ccc(O)cc1)C[C@]1(O)C(=O)C(C)=C[C@@H]41)O2
REMARK SMILES IDX 23 1 22 2 21 3 20 4 9 5 8 6 10 7 6 8 18 10 44 11 19 12 5 13
REMARK SMILES IDX 7 14 4 15 11 16 12 17 13 18 17 19 14 20 16 21 15 22 2 23
REMARK SMILES IDX 3 24 1 25 35 26 36 27 43 28 38 29 42 30 39 32 40 33 41 34
REMARK SMILES IDX 37 35 24 37 25 38 26 39 27 40 28 41 29 42 34 43 30 44 33 45
REMARK SMILES IDX 31 46 32 47
REMARK H PARENT 37 36 32 48
REMARK Flexibility Score: 90.00
ROOT
ATOM      1  C   UNL     1      63.454  90.060  71.950  1.00  0.00     0.264 C 
ENDROOT
BRANCH   1   2
ATOM      2  C   UNL     1      62.633  88.963  71.312  1.00  0.00    -0.033 C 
ATOM      3  C   UNL     1      62.893  87.677  71.628  1.00  0.00    -0.015 C 
BRANCH   3   4
ATOM      4  C   UNL     1      62.273  86.403  71.076  1.00  0.00     0.078 C 
ATOM      5  O   UNL     1      60.370  85.832  72.550  1.00  0.00    -0.319 OA
ATOM      6  C   UNL     1      60.714  86.223  71.184  1.00  0.00     0.095 CG0
ATOM      7  C   UNL     1      61.237  84.847  73.144  1.00  0.00     0.289 C 
ATOM      8  C   UNL     1      60.295  85.065  70.187  1.00  0.00     0.023 C 
ATOM      9  G   UNL     1      59.984  87.582  70.974  1.00  0.00     0.000 G0
ATOM     10  O   UNL     1      62.591  85.289  73.157  1.00  0.00    -0.320 OA
ATOM     11  O   UNL     1      61.240  83.619  72.419  1.00  0.00    -0.313 OA
ATOM     12  C   UNL     1      62.909  85.169  71.762  1.00  0.00     0.170 C 
ATOM     13  C   UNL     1      61.408  83.978  70.073  1.00  0.00     0.049 C 
ATOM     14  C   UNL     1      58.949  84.386  70.490  1.00  0.00     0.011 C 
ATOM     15  C   UNL     1      62.205  83.846  71.371  1.00  0.00     0.122 C 
BRANCH   7  16
ATOM     16  C   UNL     1      60.766  84.594  74.562  1.00  0.00     0.135 C 
BRANCH  16  17
ATOM     17  C   UNL     1      61.869  84.799  75.571  1.00  0.00    -0.040 A 
ATOM     18  C   UNL     1      62.126  86.073  76.075  1.00  0.00     0.004 A 
ATOM     19  C   UNL     1      62.632  83.712  75.998  1.00  0.00     0.004 A 
ATOM     20  C   UNL     1      63.146  86.262  77.008  1.00  0.00     0.000 A 
ATOM     21  C   UNL     1      63.652  83.901  76.931  1.00  0.00     0.000 A 
ATOM     22  C   UNL     1      63.909  85.175  77.435  1.00  0.00     0.000 A 
ENDBRANCH  16  17
ENDBRANCH   7  16
BRANCH  15  23
ATOM     23  C   UNL     1      63.153  82.692  71.347  1.00  0.00    -0.046 C 
ATOM     24  C   UNL     1      64.074  82.616  70.165  1.00  0.00     0.042 C 
ATOM     25  C   UNL     1      63.180  81.775  72.326  1.00  0.00     0.010 C 
ENDBRANCH  15  23
ENDBRANCH   3   4
BRANCH   2  26
ATOM     26  C   UNL     1      61.572  89.487  70.363  1.00  0.00     0.078 C 
BRANCH  26  27
ATOM     27  C   UNL     1      60.560  88.480  69.822  1.00  0.00     0.140 C 
ATOM     28  C   UNL     1      59.977  87.583  70.935  1.00  0.00     0.086 CG0
ATOM     29  C   UNL     1      59.321  89.146  69.261  1.00  0.00     0.190 C 
ATOM     30  C   UNL     1      58.501  87.591  70.653  1.00  0.00    -0.010 C 
ATOM     31  G   UNL     1      60.703  86.227  71.172  1.00  0.00     0.000 G0
ATOM     32  O   UNL     1      59.316  90.083  68.476  1.00  0.00    -0.291 OA
ATOM     33  C   UNL     1      58.097  88.477  69.739  1.00  0.00    -0.008 C 
ATOM     34  C   UNL     1      56.734  88.814  69.277  1.00  0.00     0.048 C 
BRANCH  27  35
ATOM     35  O   UNL     1      61.084  87.757  68.721  1.00  0.00    -0.381 OA
ATOM     36  H   UNL     1      60.340  87.429  68.188  1.00  0.00     0.212 HD
ENDBRANCH  27  35
ENDBRANCH  26  27
ENDBRANCH   2  26
ENDBRANCH   1   2
BRANCH   1  37
ATOM     37  O   UNL     1      64.752  89.575  72.220  1.00  0.00    -0.461 OA
BRANCH  37  38
ATOM     38  C   UNL     1      65.230  89.794  73.491  1.00  0.00     0.310 C 
ATOM     39  O   UNL     1      66.058  90.642  73.793  1.00  0.00    -0.252 OA
BRANCH  38  40
ATOM     40  C   UNL     1      64.576  88.828  74.449  1.00  0.00     0.158 C 
BRANCH  40  41
ATOM     41  C   UNL     1      65.563  87.915  75.129  1.00  0.00    -0.037 A 
ATOM     42  C   UNL     1      66.128  88.283  76.350  1.00  0.00     0.008 A 
ATOM     43  C   UNL     1      65.913  86.701  74.537  1.00  0.00     0.008 A 
ATOM     44  C   UNL     1      67.043  87.438  76.979  1.00  0.00     0.046 A 
ATOM     45  C   UNL     1      66.827  85.855  75.166  1.00  0.00     0.046 A 
ATOM     46  C   UNL     1      67.392  86.224  76.386  1.00  0.00     0.115 A 
BRANCH  46  47
ATOM     47  O   UNL     1      68.285  85.400  77.000  1.00  0.00    -0.508 OA
ATOM     48  H   UNL     1      67.837  84.935  77.727  1.00  0.00     0.293 HD
ENDBRANCH  46  47
ENDBRANCH  40  41
ENDBRANCH  38  40
ENDBRANCH  37  38
ENDBRANCH   1  37
TORSDOF 10
ENDMDL
MODEL 6
REMARK VINA RESULT:    -6.926     11.407     15.143
REMARK INTER + INTRA:         -12.362
REMARK INTER:                 -11.834
REMARK INTRA:                  -0.528
REMARK UNBOUND:                -0.578
REMARK SMILES C=C(C)[C@]12C[C@@H](C)[C@@]34O[C@](Cc5ccccc5)(O[C@@H]1[C@@H]3C=C(COC(=O)Cc1ccc(O)cc1)C[C@]1(O)C(=O)C(C)=C[C@@H]41)O2
REMARK SMILES IDX 23 1 22 2 21 3 20 4 9 5 8 6 10 7 6 8 18 10 44 11 19 12 5 13
REMARK SMILES IDX 7 14 4 15 11 16 12 17 13 18 17 19 14 20 16 21 15 22 2 23
REMARK SMILES IDX 3 24 1 25 35 26 36 27 43 28 38 29 42 30 39 32 40 33 41 34
REMARK SMILES IDX 37 35 24 37 25 38 26 39 27 40 28 41 29 42 34 43 30 44 33 45
REMARK SMILES IDX 31 46 32 47
REMARK H PARENT 37 36 32 48
REMARK Flexibility Score: 90.00
ROOT
ATOM      1  C   UNL     1      70.681  83.800  68.354  1.00  0.00     0.264 C 
ENDROOT
BRANCH   1   2
ATOM      2  C   UNL     1      71.681  84.253  67.315  1.00  0.00    -0.033 C 
ATOM      3  C   UNL     1      72.025  85.556  67.256  1.00  0.00    -0.015 C 
BRANCH   3   4
ATOM      4  C   UNL     1      72.937  86.269  66.271  1.00  0.00     0.078 C 
ATOM      5  O   UNL     1      75.209  86.252  67.248  1.00  0.00    -0.319 OA
ATOM      6  C   UNL     1      74.419  85.763  66.120  1.00  0.00     0.095 CG0
ATOM      7  C   UNL     1      74.966  87.623  67.620  1.00  0.00     0.289 C 
ATOM      8  C   UNL     1      74.997  86.367  64.774  1.00  0.00     0.023 C 
ATOM      9  G   UNL     1      74.488  84.213  66.241  1.00  0.00     0.000 G0
ATOM     10  O   UNL     1      73.594  87.837  67.939  1.00  0.00    -0.320 OA
ATOM     11  O   UNL     1      75.263  88.533  66.564  1.00  0.00    -0.313 OA
ATOM     12  C   UNL     1      73.018  87.775  66.624  1.00  0.00     0.170 C 
ATOM     13  C   UNL     1      74.403  87.777  64.478  1.00  0.00     0.049 C 
ATOM     14  C   UNL     1      76.532  86.431  64.684  1.00  0.00     0.011 C 
ATOM     15  C   UNL     1      74.062  88.530  65.765  1.00  0.00     0.122 C 
BRANCH   7  16
ATOM     16  C   UNL     1      75.829  87.947  68.824  1.00  0.00     0.135 C 
BRANCH  16  17
ATOM     17  C   UNL     1      76.265  86.705  69.559  1.00  0.00    -0.040 A 
ATOM     18  C   UNL     1      77.563  86.221  69.402  1.00  0.00     0.004 A 
ATOM     19  C   UNL     1      75.369  86.041  70.397  1.00  0.00     0.004 A 
ATOM     20  C   UNL     1      77.967  85.072  70.084  1.00  0.00     0.000 A 
ATOM     21  C   UNL     1      75.773  84.892  71.078  1.00  0.00     0.000 A 
ATOM     22  C   UNL     1      77.071  84.408  70.921  1.00  0.00     0.000 A 
ENDBRANCH  16  17
ENDBRANCH   7  16
BRANCH  15  23
ATOM     23  C   UNL     1      73.662  89.947  65.513  1.00  0.00    -0.046 C 
ATOM     24  C   UNL     1      74.653  90.997  65.920  1.00  0.00     0.042 C 
ATOM     25  C   UNL     1      72.484  90.263  64.955  1.00  0.00     0.010 C 
ENDBRANCH  15  23
ENDBRANCH   3   4
BRANCH   2  26
ATOM     26  C   UNL     1      72.189  83.119  66.444  1.00  0.00     0.078 C 
BRANCH  26  27
ATOM     27  C   UNL     1      73.361  83.426  65.514  1.00  0.00     0.140 C 
ATOM     28  C   UNL     1      74.481  84.214  66.226  1.00  0.00     0.086 CG0
ATOM     29  C   UNL     1      74.083  82.175  65.059  1.00  0.00     0.190 C 
ATOM     30  C   UNL     1      75.734  83.499  65.806  1.00  0.00    -0.010 C 
ATOM     31  G   UNL     1      74.410  85.765  66.106  1.00  0.00     0.000 G0
ATOM     32  O   UNL     1      73.549  81.174  64.607  1.00  0.00    -0.291 OA
ATOM     33  C   UNL     1      75.545  82.336  65.174  1.00  0.00    -0.008 C 
ATOM     34  C   UNL     1      76.528  81.341  64.698  1.00  0.00     0.048 C 
BRANCH  27  35
ATOM     35  O   UNL     1      72.922  84.021  64.305  1.00  0.00    -0.381 OA
ATOM     36  H   UNL     1      73.540  83.771  63.597  1.00  0.00     0.212 HD
ENDBRANCH  27  35
ENDBRANCH  26  27
ENDBRANCH   2  26
ENDBRANCH   1   2
BRANCH   1  37
ATOM     37  O   UNL     1      69.925  84.910  68.789  1.00  0.00    -0.461 OA
BRANCH  37  38
ATOM     38  C   UNL     1      70.154  85.335  70.077  1.00  0.00     0.310 C 
ATOM     39  O   UNL     1      70.557  86.447  70.389  1.00  0.00    -0.252 OA
BRANCH  38  40
ATOM     40  C   UNL     1      69.832  84.218  71.040  1.00  0.00     0.158 C 
BRANCH  40  41
ATOM     41  C   UNL     1      68.361  84.115  71.351  1.00  0.00    -0.037 A 
ATOM     42  C   UNL     1      67.799  84.918  72.343  1.00  0.00     0.008 A 
ATOM     43  C   UNL     1      67.560  83.217  70.646  1.00  0.00     0.008 A 
ATOM     44  C   UNL     1      66.438  84.822  72.631  1.00  0.00     0.046 A 
ATOM     45  C   UNL     1      66.198  83.121  70.933  1.00  0.00     0.046 A 
ATOM     46  C   UNL     1      65.637  83.923  71.926  1.00  0.00     0.115 A 
BRANCH  46  47
ATOM     47  O   UNL     1      64.309  83.830  72.207  1.00  0.00    -0.508 OA
ATOM     48  H   UNL     1      63.803  84.240  71.483  1.00  0.00     0.293 HD
ENDBRANCH  46  47
ENDBRANCH  40  41
ENDBRANCH  38  40
ENDBRANCH  37  38
ENDBRANCH   1  37
TORSDOF 10
ENDMDL
MODEL 7
REMARK VINA RESULT:    -6.715      4.889      7.985
REMARK INTER + INTRA:         -12.004
REMARK INTER:                 -10.632
REMARK INTRA:                  -1.371
REMARK UNBOUND:                -0.578
REMARK SMILES C=C(C)[C@]12C[C@@H](C)[C@@]34O[C@](Cc5ccccc5)(O[C@@H]1[C@@H]3C=C(COC(=O)Cc1ccc(O)cc1)C[C@]1(O)C(=O)C(C)=C[C@@H]41)O2
REMARK SMILES IDX 23 1 22 2 21 3 20 4 9 5 8 6 10 7 6 8 18 10 44 11 19 12 5 13
REMARK SMILES IDX 7 14 4 15 11 16 12 17 13 18 17 19 14 20 16 21 15 22 2 23
REMARK SMILES IDX 3 24 1 25 35 26 36 27 43 28 38 29 42 30 39 32 40 33 41 34
REMARK SMILES IDX 37 35 24 37 25 38 26 39 27 40 28 41 29 42 34 43 30 44 33 45
REMARK SMILES IDX 31 46 32 47
REMARK H PARENT 37 36 32 48
REMARK Flexibility Score: 90.00
ROOT
ATOM      1  C   UNL     1      68.361  87.062  72.295  1.00  0.00     0.264 C 
ENDROOT
BRANCH   1   2
ATOM      2  C   UNL     1      67.720  85.818  71.724  1.00  0.00    -0.033 C 
ATOM      3  C   UNL     1      66.500  85.445  72.163  1.00  0.00    -0.015 C 
BRANCH   3   4
ATOM      4  C   UNL     1      65.683  84.212  71.809  1.00  0.00     0.078 C 
ATOM      5  O   UNL     1      64.233  84.831  69.904  1.00  0.00    -0.319 OA
ATOM      6  C   UNL     1      65.334  83.954  70.297  1.00  0.00     0.095 CG0
ATOM      7  C   UNL     1      63.166  84.948  70.864  1.00  0.00     0.289 C 
ATOM      8  C   UNL     1      64.874  82.444  70.163  1.00  0.00     0.023 C 
ATOM      9  G   UNL     1      66.515  84.377  69.377  1.00  0.00     0.000 G0
ATOM     10  O   UNL     1      63.649  85.412  72.121  1.00  0.00    -0.320 OA
ATOM     11  O   UNL     1      62.537  83.697  71.131  1.00  0.00    -0.313 OA
ATOM     12  C   UNL     1      64.337  84.236  72.575  1.00  0.00     0.170 C 
ATOM     13  C   UNL     1      64.130  81.956  71.443  1.00  0.00     0.049 C 
ATOM     14  C   UNL     1      64.021  82.120  68.924  1.00  0.00     0.011 C 
ATOM     15  C   UNL     1      63.384  83.099  72.134  1.00  0.00     0.122 C 
BRANCH   7  16
ATOM     16  C   UNL     1      62.140  85.921  70.318  1.00  0.00     0.135 C 
BRANCH  16  17
ATOM     17  C   UNL     1      60.740  85.576  70.760  1.00  0.00    -0.040 A 
ATOM     18  C   UNL     1      59.975  84.678  70.016  1.00  0.00     0.004 A 
ATOM     19  C   UNL     1      60.211  86.155  71.913  1.00  0.00     0.004 A 
ATOM     20  C   UNL     1      58.680  84.358  70.426  1.00  0.00     0.000 A 
ATOM     21  C   UNL     1      58.916  85.835  72.323  1.00  0.00     0.000 A 
ATOM     22  C   UNL     1      58.151  84.937  71.579  1.00  0.00     0.000 A 
ENDBRANCH  16  17
ENDBRANCH   7  16
BRANCH  15  23
ATOM     23  C   UNL     1      62.519  82.624  73.257  1.00  0.00    -0.046 C 
ATOM     24  C   UNL     1      62.500  81.143  73.496  1.00  0.00     0.042 C 
ATOM     25  C   UNL     1      61.802  83.472  74.007  1.00  0.00     0.010 C 
ENDBRANCH  15  23
ENDBRANCH   3   4
BRANCH   2  26
ATOM     26  C   UNL     1      68.578  85.133  70.677  1.00  0.00     0.078 C 
BRANCH  26  27
ATOM     27  C   UNL     1      67.933  84.003  69.877  1.00  0.00     0.140 C 
ATOM     28  C   UNL     1      66.522  84.374  69.374  1.00  0.00     0.086 CG0
ATOM     29  C   UNL     1      68.671  83.710  68.587  1.00  0.00     0.190 C 
ATOM     30  C   UNL     1      66.535  83.933  67.937  1.00  0.00    -0.010 C 
ATOM     31  G   UNL     1      65.336  83.957  70.291  1.00  0.00     0.000 G0
ATOM     32  O   UNL     1      69.878  83.549  68.483  1.00  0.00    -0.291 OA
ATOM     33  C   UNL     1      67.732  83.580  67.457  1.00  0.00    -0.008 C 
ATOM     34  C   UNL     1      68.129  83.179  66.092  1.00  0.00     0.048 C 
BRANCH  27  35
ATOM     35  O   UNL     1      67.984  82.774  70.582  1.00  0.00    -0.381 OA
ATOM     36  H   UNL     1      67.250  82.756  71.220  1.00  0.00     0.212 HD
ENDBRANCH  27  35
ENDBRANCH  26  27
ENDBRANCH   2  26
ENDBRANCH   1   2
BRANCH   1  37
ATOM     37  O   UNL     1      67.706  88.202  71.783  1.00  0.00    -0.461 OA
BRANCH  37  38
ATOM     38  C   UNL     1      67.202  89.082  72.714  1.00  0.00     0.310 C 
ATOM     39  O   UNL     1      66.603  90.115  72.451  1.00  0.00    -0.252 OA
BRANCH  38  40
ATOM     40  C   UNL     1      67.503  88.573  74.103  1.00  0.00     0.158 C 
BRANCH  40  41
ATOM     41  C   UNL     1      66.341  87.847  74.728  1.00  0.00    -0.037 A 
ATOM     42  C   UNL     1      65.042  88.099  74.286  1.00  0.00     0.008 A 
ATOM     43  C   UNL     1      66.562  86.923  75.749  1.00  0.00     0.008 A 
ATOM     44  C   UNL     1      63.965  87.428  74.866  1.00  0.00     0.046 A 
ATOM     45  C   UNL     1      65.486  86.251  76.328  1.00  0.00     0.046 A 
ATOM     46  C   UNL     1      64.187  86.503  75.887  1.00  0.00     0.115 A 
BRANCH  46  47
ATOM     47  O   UNL     1      63.137  85.849  76.453  1.00  0.00    -0.508 OA
ATOM     48  H   UNL     1      62.356  85.953  75.882  1.00  0.00     0.293 HD
ENDBRANCH  46  47
ENDBRANCH  40  41
ENDBRANCH  38  40
ENDBRANCH  37  38
ENDBRANCH   1  37
TORSDOF 10
ENDMDL
MODEL 8
REMARK VINA RESULT:    -6.629      6.005      9.961
REMARK INTER + INTRA:         -11.857
REMARK INTER:                  -9.910
REMARK INTRA:                  -1.947
REMARK UNBOUND:                -0.578
REMARK SMILES C=C(C)[C@]12C[C@@H](C)[C@@]34O[C@](Cc5ccccc5)(O[C@@H]1[C@@H]3C=C(COC(=O)Cc1ccc(O)cc1)C[C@]1(O)C(=O)C(C)=C[C@@H]41)O2
REMARK SMILES IDX 23 1 22 2 21 3 20 4 9 5 8 6 10 7 6 8 18 10 44 11 19 12 5 13
REMARK SMILES IDX 7 14 4 15 11 16 12 17 13 18 17 19 14 20 16 21 15 22 2 23
REMARK SMILES IDX 3 24 1 25 35 26 36 27 43 28 38 29 42 30 39 32 40 33 41 34
REMARK SMILES IDX 37 35 24 37 25 38 26 39 27 40 28 41 29 42 34 43 30 44 33 45
REMARK SMILES IDX 31 46 32 47
REMARK H PARENT 37 36 32 48
REMARK Flexibility Score: 90.00
ROOT
ATOM      1  C   UNL     1      63.417  88.379  71.865  1.00  0.00     0.264 C 
ENDROOT
BRANCH   1   2
ATOM      2  C   UNL     1      63.355  86.985  71.286  1.00  0.00    -0.033 C 
ATOM      3  C   UNL     1      64.151  86.668  70.244  1.00  0.00    -0.015 C 
BRANCH   3   4
ATOM      4  C   UNL     1      64.224  85.378  69.442  1.00  0.00     0.078 C 
ATOM      5  O   UNL     1      65.973  83.977  70.488  1.00  0.00    -0.319 OA
ATOM      6  C   UNL     1      64.541  84.040  70.205  1.00  0.00     0.095 CG0
ATOM      7  C   UNL     1      66.832  84.395  69.409  1.00  0.00     0.289 C 
ATOM      8  C   UNL     1      64.143  82.838  69.252  1.00  0.00     0.023 C 
ATOM      9  G   UNL     1      63.867  84.030  71.609  1.00  0.00     0.000 G0
ATOM     10  O   UNL     1      66.538  85.727  68.999  1.00  0.00    -0.320 OA
ATOM     11  O   UNL     1      66.670  83.588  68.245  1.00  0.00    -0.313 OA
ATOM     12  C   UNL     1      65.288  85.512  68.325  1.00  0.00     0.170 C 
ATOM     13  C   UNL     1      64.375  83.197  67.752  1.00  0.00     0.049 C 
ATOM     14  C   UNL     1      64.820  81.493  69.565  1.00  0.00     0.011 C 
ATOM     15  C   UNL     1      65.535  84.179  67.578  1.00  0.00     0.122 C 
BRANCH   7  16
ATOM     16  C   UNL     1      68.268  84.310  69.886  1.00  0.00     0.135 C 
BRANCH  16  17
ATOM     17  C   UNL     1      69.232  84.097  68.745  1.00  0.00    -0.040 A 
ATOM     18  C   UNL     1      69.676  85.185  67.994  1.00  0.00     0.004 A 
ATOM     19  C   UNL     1      69.679  82.811  68.442  1.00  0.00     0.004 A 
ATOM     20  C   UNL     1      70.567  84.988  66.939  1.00  0.00     0.000 A 
ATOM     21  C   UNL     1      70.571  82.614  67.387  1.00  0.00     0.000 A 
ATOM     22  C   UNL     1      71.014  83.702  66.637  1.00  0.00     0.000 A 
ENDBRANCH  16  17
ENDBRANCH   7  16
BRANCH  15  23
ATOM     23  C   UNL     1      65.892  84.396  66.144  1.00  0.00    -0.046 C 
ATOM     24  C   UNL     1      65.020  85.349  65.382  1.00  0.00     0.042 C 
ATOM     25  C   UNL     1      66.934  83.775  65.571  1.00  0.00     0.010 C 
ENDBRANCH  15  23
ENDBRANCH   3   4
BRANCH   2  26
ATOM     26  C   UNL     1      62.359  86.088  71.998  1.00  0.00     0.078 C 
BRANCH  26  27
ATOM     27  C   UNL     1      62.404  84.597  71.669  1.00  0.00     0.140 C 
ATOM     28  C   UNL     1      63.847  84.054  71.613  1.00  0.00     0.086 CG0
ATOM     29  C   UNL     1      61.778  83.745  72.753  1.00  0.00     0.190 C 
ATOM     30  C   UNL     1      63.772  82.778  72.404  1.00  0.00    -0.010 C 
ATOM     31  G   UNL     1      64.523  84.046  70.211  1.00  0.00     0.000 G0
ATOM     32  O   UNL     1      60.688  83.943  73.268  1.00  0.00    -0.291 OA
ATOM     33  C   UNL     1      62.634  82.588  73.078  1.00  0.00    -0.008 C 
ATOM     34  C   UNL     1      62.247  81.507  74.007  1.00  0.00     0.048 C 
BRANCH  27  35
ATOM     35  O   UNL     1      61.635  84.297  70.516  1.00  0.00    -0.381 OA
ATOM     36  H   UNL     1      62.121  83.645  69.984  1.00  0.00     0.212 HD
ENDBRANCH  27  35
ENDBRANCH  26  27
ENDBRANCH   2  26
ENDBRANCH   1   2
BRANCH   1  37
ATOM     37  O   UNL     1      62.107  88.889  71.997  1.00  0.00    -0.461 OA
BRANCH  37  38
ATOM     38  C   UNL     1      61.596  89.543  70.900  1.00  0.00     0.310 C 
ATOM     39  O   UNL     1      62.265  90.063  70.018  1.00  0.00    -0.252 OA
BRANCH  38  40
ATOM     40  C   UNL     1      60.088  89.518  70.956  1.00  0.00     0.158 C 
BRANCH  40  41
ATOM     41  C   UNL     1      59.529  88.128  71.118  1.00  0.00    -0.037 A 
ATOM     42  C   UNL     1      59.546  87.239  70.042  1.00  0.00     0.008 A 
ATOM     43  C   UNL     1      58.993  87.729  72.342  1.00  0.00     0.008 A 
ATOM     44  C   UNL     1      59.028  85.953  70.192  1.00  0.00     0.046 A 
ATOM     45  C   UNL     1      58.475  86.442  72.492  1.00  0.00     0.046 A 
ATOM     46  C   UNL     1      58.492  85.554  71.417  1.00  0.00     0.115 A 
BRANCH  46  47
ATOM     47  O   UNL     1      57.986  84.300  71.563  1.00  0.00    -0.508 OA
ATOM     48  H   UNL     1      57.127  84.356  72.016  1.00  0.00     0.293 HD
ENDBRANCH  46  47
ENDBRANCH  40  41
ENDBRANCH  38  40
ENDBRANCH  37  38
ENDBRANCH   1  37
TORSDOF 10
ENDMDL
MODEL 9
REMARK VINA RESULT:    -6.458     15.387     19.419
REMARK INTER + INTRA:         -11.566
REMARK INTER:                 -11.215
REMARK INTRA:                  -0.351
REMARK UNBOUND:                -0.578
REMARK SMILES C=C(C)[C@]12C[C@@H](C)[C@@]34O[C@](Cc5ccccc5)(O[C@@H]1[C@@H]3C=C(COC(=O)Cc1ccc(O)cc1)C[C@]1(O)C(=O)C(C)=C[C@@H]41)O2
REMARK SMILES IDX 23 1 22 2 21 3 20 4 9 5 8 6 10 7 6 8 18 10 44 11 19 12 5 13
REMARK SMILES IDX 7 14 4 15 11 16 12 17 13 18 17 19 14 20 16 21 15 22 2 23
REMARK SMILES IDX 3 24 1 25 35 26 36 27 43 28 38 29 42 30 39 32 40 33 41 34
REMARK SMILES IDX 37 35 24 37 25 38 26 39 27 40 28 41 29 42 34 43 30 44 33 45
REMARK SMILES IDX 31 46 32 47
REMARK H PARENT 37 36 32 48
REMARK Flexibility Score: 90.00
ROOT
ATOM      1  C   UNL     1      69.052  66.182  82.064  1.00  0.00     0.264 C 
ENDROOT
BRANCH   1   2
ATOM      2  C   UNL     1      67.631  65.838  81.683  1.00  0.00    -0.033 C 
ATOM      3  C   UNL     1      66.611  66.442  82.328  1.00  0.00    -0.015 C 
BRANCH   3   4
ATOM      4  C   UNL     1      65.114  66.219  82.189  1.00  0.00     0.078 C 
ATOM      5  O   UNL     1      64.301  67.825  80.493  1.00  0.00    -0.319 OA
ATOM      6  C   UNL     1      64.459  66.399  80.770  1.00  0.00     0.095 CG0
ATOM      7  C   UNL     1      63.820  68.617  81.597  1.00  0.00     0.289 C 
ATOM      8  C   UNL     1      63.032  65.712  80.810  1.00  0.00     0.023 C 
ATOM      9  G   UNL     1      65.415  65.891  79.651  1.00  0.00     0.000 G0
ATOM     10  O   UNL     1      64.675  68.497  82.731  1.00  0.00    -0.320 OA
ATOM     11  O   UNL     1      62.531  68.201  82.041  1.00  0.00    -0.313 OA
ATOM     12  C   UNL     1      64.350  67.162  83.151  1.00  0.00     0.170 C 
ATOM     13  C   UNL     1      62.378  65.833  82.220  1.00  0.00     0.049 C 
ATOM     14  C   UNL     1      62.036  66.195  79.742  1.00  0.00     0.011 C 
ATOM     15  C   UNL     1      62.817  67.109  82.940  1.00  0.00     0.122 C 
BRANCH   7  16
ATOM     16  C   UNL     1      63.758  70.064  81.152  1.00  0.00     0.135 C 
BRANCH  16  17
ATOM     17  C   UNL     1      62.887  70.899  82.058  1.00  0.00    -0.040 A 
ATOM     18  C   UNL     1      61.519  70.999  81.811  1.00  0.00     0.004 A 
ATOM     19  C   UNL     1      63.452  71.569  83.142  1.00  0.00     0.004 A 
ATOM     20  C   UNL     1      60.713  71.770  82.650  1.00  0.00     0.000 A 
ATOM     21  C   UNL     1      62.647  72.341  83.981  1.00  0.00     0.000 A 
ATOM     22  C   UNL     1      61.278  72.441  83.734  1.00  0.00     0.000 A 
ENDBRANCH  16  17
ENDBRANCH   7  16
BRANCH  15  23
ATOM     23  C   UNL     1      62.067  67.338  84.211  1.00  0.00    -0.046 C 
ATOM     24  C   UNL     1      61.182  66.216  84.669  1.00  0.00     0.042 C 
ATOM     25  C   UNL     1      62.177  68.481  84.904  1.00  0.00     0.010 C 
ENDBRANCH  15  23
ENDBRANCH   3   4
BRANCH   2  26
ATOM     26  C   UNL     1      67.544  64.815  80.566  1.00  0.00     0.078 C 
BRANCH  26  27
ATOM     27  C   UNL     1      66.167  64.564  79.955  1.00  0.00     0.140 C 
ATOM     28  C   UNL     1      65.412  65.876  79.656  1.00  0.00     0.086 CG0
ATOM     29  C   UNL     1      66.247  63.917  78.589  1.00  0.00     0.190 C 
ATOM     30  C   UNL     1      64.876  65.662  78.268  1.00  0.00    -0.010 C 
ATOM     31  G   UNL     1      64.457  66.388  80.774  1.00  0.00     0.000 G0
ATOM     32  O   UNL     1      66.923  62.938  78.308  1.00  0.00    -0.291 OA
ATOM     33  C   UNL     1      65.347  64.586  77.632  1.00  0.00    -0.008 C 
ATOM     34  C   UNL     1      65.108  64.117  76.251  1.00  0.00     0.048 C 
BRANCH  27  35
ATOM     35  O   UNL     1      65.420  63.637  80.725  1.00  0.00    -0.381 OA
ATOM     36  H   UNL     1      65.590  62.744  80.380  1.00  0.00     0.212 HD
ENDBRANCH  27  35
ENDBRANCH  26  27
ENDBRANCH   2  26
ENDBRANCH   1   2
BRANCH   1  37
ATOM     37  O   UNL     1      69.407  65.473  83.232  1.00  0.00    -0.461 OA
BRANCH  37  38
ATOM     38  C   UNL     1      70.429  66.009  83.981  1.00  0.00     0.310 C 
ATOM     39  O   UNL     1      70.614  65.796  85.171  1.00  0.00    -0.252 OA
BRANCH  38  40
ATOM     40  C   UNL     1      71.281  66.898  83.108  1.00  0.00     0.158 C 
BRANCH  40  41
ATOM     41  C   UNL     1      72.314  67.671  83.886  1.00  0.00    -0.037 A 
ATOM     42  C   UNL     1      73.661  67.320  83.798  1.00  0.00     0.008 A 
ATOM     43  C   UNL     1      71.924  68.737  84.696  1.00  0.00     0.008 A 
ATOM     44  C   UNL     1      74.618  68.035  84.519  1.00  0.00     0.046 A 
ATOM     45  C   UNL     1      72.880  69.453  85.417  1.00  0.00     0.046 A 
ATOM     46  C   UNL     1      74.227  69.101  85.329  1.00  0.00     0.115 A 
BRANCH  46  47
ATOM     47  O   UNL     1      75.160  69.798  86.033  1.00  0.00    -0.508 OA
ATOM     48  H   UNL     1      76.041  69.435  85.835  1.00  0.00     0.293 HD
ENDBRANCH  46  47
ENDBRANCH  40  41
ENDBRANCH  38  40
ENDBRANCH  37  38
ENDBRANCH   1  37
TORSDOF 10
ENDMDL
MODEL 10
REMARK VINA RESULT:    -6.440      2.854      4.543
REMARK INTER + INTRA:         -11.535
REMARK INTER:                 -11.083
REMARK INTRA:                  -0.452
REMARK UNBOUND:                -0.578
REMARK SMILES C=C(C)[C@]12C[C@@H](C)[C@@]34O[C@](Cc5ccccc5)(O[C@@H]1[C@@H]3C=C(COC(=O)Cc1ccc(O)cc1)C[C@]1(O)C(=O)C(C)=C[C@@H]41)O2
REMARK SMILES IDX 23 1 22 2 21 3 20 4 9 5 8 6 10 7 6 8 18 10 44 11 19 12 5 13
REMARK SMILES IDX 7 14 4 15 11 16 12 17 13 18 17 19 14 20 16 21 15 22 2 23
REMARK SMILES IDX 3 24 1 25 35 26 36 27 43 28 38 29 42 30 39 32 40 33 41 34
REMARK SMILES IDX 37 35 24 37 25 38 26 39 27 40 28 41 29 42 34 43 30 44 33 45
REMARK SMILES IDX 31 46 32 47
REMARK H PARENT 37 36 32 48
REMARK Flexibility Score: 90.00
ROOT
ATOM      1  C   UNL     1      65.363  84.634  79.747  1.00  0.00     0.264 C 
ENDROOT
BRANCH   1   2
ATOM      2  C   UNL     1      65.517  84.933  78.274  1.00  0.00    -0.033 C 
ATOM      3  C   UNL     1      64.807  84.218  77.378  1.00  0.00    -0.015 C 
BRANCH   3   4
ATOM      4  C   UNL     1      64.837  84.270  75.859  1.00  0.00     0.078 C 
ATOM      5  O   UNL     1      63.082  85.865  75.157  1.00  0.00    -0.319 OA
ATOM      6  C   UNL     1      64.526  85.640  75.151  1.00  0.00     0.095 CG0
ATOM      7  C   UNL     1      62.279  84.711  74.845  1.00  0.00     0.289 C 
ATOM      8  C   UNL     1      65.033  85.532  73.653  1.00  0.00     0.023 C 
ATOM      9  G   UNL     1      65.108  86.830  75.968  1.00  0.00     0.000 G0
ATOM     10  O   UNL     1      62.544  83.637  75.742  1.00  0.00    -0.320 OA
ATOM     11  O   UNL     1      62.547  84.200  73.541  1.00  0.00    -0.313 OA
ATOM     12  C   UNL     1      63.843  83.236  75.277  1.00  0.00     0.170 C 
ATOM     13  C   UNL     1      64.883  84.081  73.102  1.00  0.00     0.049 C 
ATOM     14  C   UNL     1      64.391  86.521  72.665  1.00  0.00     0.011 C 
ATOM     15  C   UNL     1      63.698  83.353  73.740  1.00  0.00     0.122 C 
BRANCH   7  16
ATOM     16  C   UNL     1      60.819  85.109  74.940  1.00  0.00     0.135 C 
BRANCH  16  17
ATOM     17  C   UNL     1      60.221  85.397  73.585  1.00  0.00    -0.040 A 
ATOM     18  C   UNL     1      60.245  84.420  72.590  1.00  0.00     0.004 A 
ATOM     19  C   UNL     1      59.646  86.641  73.328  1.00  0.00     0.004 A 
ATOM     20  C   UNL     1      59.691  84.687  71.337  1.00  0.00     0.000 A 
ATOM     21  C   UNL     1      59.092  86.907  72.075  1.00  0.00     0.000 A 
ATOM     22  C   UNL     1      59.116  85.931  71.080  1.00  0.00     0.000 A 
ENDBRANCH  16  17
ENDBRANCH   7  16
BRANCH  15  23
ATOM     23  C   UNL     1      63.425  82.031  73.099  1.00  0.00    -0.046 C 
ATOM     24  C   UNL     1      64.244  81.701  71.886  1.00  0.00     0.042 C 
ATOM     25  C   UNL     1      62.501  81.187  73.581  1.00  0.00     0.010 C 
ENDBRANCH  15  23
ENDBRANCH   3   4
BRANCH   2  26
ATOM     26  C   UNL     1      66.495  86.060  77.995  1.00  0.00     0.078 C 
BRANCH  26  27
ATOM     27  C   UNL     1      66.543  86.604  76.568  1.00  0.00     0.140 C 
ATOM     28  C   UNL     1      65.133  86.821  75.978  1.00  0.00     0.086 CG0
ATOM     29  C   UNL     1      67.141  87.993  76.498  1.00  0.00     0.190 C 
ATOM     30  C   UNL     1      65.222  88.184  75.352  1.00  0.00    -0.010 C 
ATOM     31  G   UNL     1      64.547  85.638  75.154  1.00  0.00     0.000 G0
ATOM     32  O   UNL     1      68.187  88.341  77.026  1.00  0.00    -0.291 OA
ATOM     33  C   UNL     1      66.324  88.880  75.647  1.00  0.00    -0.008 C 
ATOM     34  C   UNL     1      66.705  90.260  75.283  1.00  0.00     0.048 C 
BRANCH  27  35
ATOM     35  O   UNL     1      67.395  85.826  75.745  1.00  0.00    -0.381 OA
ATOM     36  H   UNL     1      67.631  85.016  76.227  1.00  0.00     0.212 HD
ENDBRANCH  27  35
ENDBRANCH  26  27
ENDBRANCH   2  26
ENDBRANCH   1   2
BRANCH   1  37
ATOM     37  O   UNL     1      64.833  85.767  80.401  1.00  0.00    -0.461 OA
BRANCH  37  38
ATOM     38  C   UNL     1      63.521  85.677  80.806  1.00  0.00     0.310 C 
ATOM     39  O   UNL     1      62.812  84.690  80.674  1.00  0.00    -0.252 OA
BRANCH  38  40
ATOM     40  C   UNL     1      63.098  86.982  81.437  1.00  0.00     0.158 C 
BRANCH  40  41
ATOM     41  C   UNL     1      63.327  88.170  80.539  1.00  0.00    -0.037 A 
ATOM     42  C   UNL     1      64.520  88.888  80.622  1.00  0.00     0.008 A 
ATOM     43  C   UNL     1      62.346  88.554  79.626  1.00  0.00     0.008 A 
ATOM     44  C   UNL     1      64.732  89.989  79.792  1.00  0.00     0.046 A 
ATOM     45  C   UNL     1      62.557  89.654  78.795  1.00  0.00     0.046 A 
ATOM     46  C   UNL     1      63.750  90.372  78.878  1.00  0.00     0.115 A 
BRANCH  46  47
ATOM     47  O   UNL     1      63.956  91.446  78.068  1.00  0.00    -0.508 OA
ATOM     48  H   UNL     1      63.292  92.128  78.273  1.00  0.00     0.293 HD
ENDBRANCH  46  47
ENDBRANCH  40  41
ENDBRANCH  38  40
ENDBRANCH  37  38
ENDBRANCH   1  37
TORSDOF 10
ENDMDL
