MODEL 1
REMARK VINA RESULT:    -7.217      0.000      0.000
REMARK INTER + INTRA:         -13.793
REMARK INTER:                 -12.702
REMARK INTRA:                  -1.091
REMARK UNBOUND:                -1.091
REMARK SMILES C=C(C)[C@]12C[C@@H](C)[C@@]34O[C@](Cc5ccccc5)(O[C@@H]1[C@@H]3C=C(COC(=O)Cc1ccc(O)c(OC)c1)C[C@]1(O)C(=O)C(C)=C[C@@H]41)O2
REMARK SMILES IDX 23 1 22 2 21 3 20 4 9 5 8 6 10 7 6 8 18 9 46 10 19 11 5 12
REMARK SMILES IDX 7 13 4 14 45 15 38 16 44 17 40 18 42 20 41 21 43 22 39 23
REMARK SMILES IDX 11 25 12 26 13 27 17 28 14 29 16 30 15 31 2 32 3 33 1 34
REMARK SMILES IDX 37 35 24 37 25 38 26 39 27 40 28 41 36 42 29 43 33 44 30 45
REMARK SMILES IDX 31 46 34 47 35 48 32 49
REMARK H PARENT 39 24 32 50
REMARK Flexibility Score: 90.00
ROOT
ATOM      1  C   UNL     1      76.848  86.531  64.822  1.00  0.00     0.264 C 
ENDROOT
BRANCH   1   2
ATOM      2  C   UNL     1      76.666  87.008  66.244  1.00  0.00    -0.033 C 
ATOM      3  C   UNL     1      75.984  88.147  66.475  1.00  0.00    -0.015 C 
BRANCH   3   4
ATOM      4  C   UNL     1      75.731  88.871  67.787  1.00  0.00     0.078 C 
ATOM      5  O   UNL     1      73.578  88.032  68.670  1.00  0.00    -0.319 OA
ATOM      6  C   UNL     1      75.011  88.088  68.948  1.00  0.00     0.095 C 
ATOM      7  C   UNL     1      72.996  89.255  68.180  1.00  0.00     0.289 C 
ATOM      8  C   UNL     1      75.253  88.893  70.292  1.00  0.00     0.023 C 
ATOM      9  O   UNL     1      73.643  89.694  66.988  1.00  0.00    -0.320 OA
ATOM     10  O   UNL     1      73.132  90.329  69.108  1.00  0.00    -0.313 OA
ATOM     11  C   UNL     1      74.892  90.148  67.531  1.00  0.00     0.170 C 
ATOM     12  C   UNL     1      75.322  90.430  70.032  1.00  0.00     0.049 C 
ATOM     13  C   UNL     1      74.249  88.610  71.421  1.00  0.00     0.011 C 
ATOM     14  C   UNL     1      74.453  90.843  68.844  1.00  0.00     0.122 C 
BRANCH   6  15
ATOM     15  C   UNL     1      75.461  86.599  68.971  1.00  0.00     0.086 C 
ATOM     16  C   UNL     1      76.968  86.341  68.767  1.00  0.00     0.140 CG0
ATOM     17  C   UNL     1      75.117  85.744  70.158  1.00  0.00    -0.010 C 
ATOM     18  C   UNL     1      77.213  85.129  69.641  1.00  0.00     0.190 C 
ATOM     19  G   UNL     1      77.317  86.085  67.302  1.00  0.00     0.000 G0
ATOM     20  C   UNL     1      76.070  84.888  70.543  1.00  0.00    -0.008 C 
ATOM     21  O   UNL     1      78.233  84.457  69.651  1.00  0.00    -0.291 OA
ATOM     22  C   UNL     1      76.051  83.854  71.598  1.00  0.00     0.048 C 
BRANCH  16  23
ATOM     23  O   UNL     1      77.803  87.339  69.332  1.00  0.00    -0.381 OA
ATOM     24  H   UNL     1      77.755  88.131  68.772  1.00  0.00     0.212 HD
ENDBRANCH  16  23
ENDBRANCH   6  15
BRANCH   7  25
ATOM     25  C   UNL     1      71.527  89.007  67.905  1.00  0.00     0.135 C 
BRANCH  25  26
ATOM     26  C   UNL     1      70.916  88.060  68.908  1.00  0.00    -0.040 A 
ATOM     27  C   UNL     1      70.265  86.906  68.471  1.00  0.00     0.004 A 
ATOM     28  C   UNL     1      71.003  88.337  70.272  1.00  0.00     0.004 A 
ATOM     29  C   UNL     1      69.700  86.030  69.398  1.00  0.00     0.000 A 
ATOM     30  C   UNL     1      70.438  87.462  71.199  1.00  0.00     0.000 A 
ATOM     31  C   UNL     1      69.786  86.308  70.762  1.00  0.00     0.000 A 
ENDBRANCH  25  26
ENDBRANCH   7  25
BRANCH  14  32
ATOM     32  C   UNL     1      74.359  92.326  68.689  1.00  0.00    -0.046 C 
ATOM     33  C   UNL     1      74.813  92.885  67.373  1.00  0.00     0.042 C 
ATOM     34  C   UNL     1      73.895  93.113  69.671  1.00  0.00     0.010 C 
ENDBRANCH  14  32
ENDBRANCH   3   4
BRANCH   2  35
ATOM     35  C   UNL     1      77.304  86.086  67.267  1.00  0.00     0.078 CG0
ATOM     36  G   UNL     1      76.967  86.334  68.737  1.00  0.00     0.000 G0
ENDBRANCH   2  35
ENDBRANCH   1   2
BRANCH   1  37
ATOM     37  O   UNL     1      77.230  85.172  64.831  1.00  0.00    -0.461 OA
BRANCH  37  38
ATOM     38  C   UNL     1      76.547  84.342  63.972  1.00  0.00     0.310 C 
ATOM     39  O   UNL     1      75.915  84.713  62.992  1.00  0.00    -0.252 OA
BRANCH  38  40
ATOM     40  C   UNL     1      76.699  82.910  64.426  1.00  0.00     0.158 C 
BRANCH  40  41
ATOM     41  C   UNL     1      75.417  82.124  64.331  1.00  0.00    -0.033 A 
ATOM     42  C   UNL     1      74.439  82.263  65.316  1.00  0.00     0.054 A 
ATOM     43  C   UNL     1      75.208  81.257  63.259  1.00  0.00     0.008 A 
ATOM     44  C   UNL     1      73.252  81.536  65.228  1.00  0.00     0.160 A 
ATOM     45  C   UNL     1      74.021  80.529  63.171  1.00  0.00     0.050 A 
ATOM     46  C   UNL     1      73.043  80.668  64.155  1.00  0.00     0.157 A 
BRANCH  44  47
ATOM     47  O   UNL     1      72.304  81.680  66.196  1.00  0.00    -0.493 OA
ATOM     48  C   UNL     1      71.188  82.515  65.891  1.00  0.00     0.278 C 
ENDBRANCH  44  47
BRANCH  46  49
ATOM     49  O   UNL     1      71.888  79.953  64.058  1.00  0.00    -0.504 OA
ATOM     50  H   UNL     1      71.216  80.496  63.613  1.00  0.00     0.293 HD
ENDBRANCH  46  49
ENDBRANCH  40  41
ENDBRANCH  38  40
ENDBRANCH  37  38
ENDBRANCH   1  37
TORSDOF 11
ENDMDL
MODEL 2
REMARK VINA RESULT:    -7.189     25.070     28.457
REMARK INTER + INTRA:         -13.744
REMARK INTER:                 -13.260
REMARK INTRA:                  -0.484
REMARK UNBOUND:                -1.091
REMARK SMILES C=C(C)[C@]12C[C@@H](C)[C@@]34O[C@](Cc5ccccc5)(O[C@@H]1[C@@H]3C=C(COC(=O)Cc1ccc(O)c(OC)c1)C[C@]1(O)C(=O)C(C)=C[C@@H]41)O2
REMARK SMILES IDX 23 1 22 2 21 3 20 4 9 5 8 6 10 7 6 8 18 9 46 10 19 11 5 12
REMARK SMILES IDX 7 13 4 14 45 15 38 16 44 17 40 18 42 20 41 21 43 22 39 23
REMARK SMILES IDX 11 25 12 26 13 27 17 28 14 29 16 30 15 31 2 32 3 33 1 34
REMARK SMILES IDX 37 35 24 37 25 38 26 39 27 40 28 41 36 42 29 43 33 44 30 45
REMARK SMILES IDX 31 46 34 47 35 48 32 49
REMARK H PARENT 39 24 32 50
REMARK Flexibility Score: 90.00
ROOT
ATOM      1  C   UNL     1      97.943  82.738  85.787  1.00  0.00     0.264 C 
ENDROOT
BRANCH   1   2
ATOM      2  C   UNL     1      96.586  83.222  86.241  1.00  0.00    -0.033 C 
ATOM      3  C   UNL     1      95.552  82.357  86.268  1.00  0.00    -0.015 C 
BRANCH   3   4
ATOM      4  C   UNL     1      94.092  82.609  86.606  1.00  0.00     0.078 C 
ATOM      5  O   UNL     1      93.827  82.170  89.026  1.00  0.00    -0.319 OA
ATOM      6  C   UNL     1      93.745  83.221  88.015  1.00  0.00     0.095 C 
ATOM      7  C   UNL     1      93.254  80.904  88.648  1.00  0.00     0.289 C 
ATOM      8  C   UNL     1      92.259  83.767  87.947  1.00  0.00     0.023 C 
ATOM      9  O   UNL     1      93.857  80.398  87.460  1.00  0.00    -0.320 OA
ATOM     10  O   UNL     1      91.862  81.005  88.360  1.00  0.00    -0.313 OA
ATOM     11  C   UNL     1      93.290  81.290  86.489  1.00  0.00     0.170 C 
ATOM     12  C   UNL     1      91.373  82.897  87.003  1.00  0.00     0.049 C 
ATOM     13  C   UNL     1      91.553  83.931  89.303  1.00  0.00     0.011 C 
ATOM     14  C   UNL     1      91.829  81.438  86.984  1.00  0.00     0.122 C 
BRANCH   6  15
ATOM     15  C   UNL     1      94.820  84.260  88.446  1.00  0.00     0.086 C 
ATOM     16  C   UNL     1      95.309  85.228  87.348  1.00  0.00     0.140 CG0
ATOM     17  C   UNL     1      94.542  85.167  89.612  1.00  0.00    -0.010 C 
ATOM     18  C   UNL     1      95.567  86.501  88.126  1.00  0.00     0.190 C 
ATOM     19  G   UNL     1      96.561  84.711  86.640  1.00  0.00     0.000 G0
ATOM     20  C   UNL     1      94.974  86.425  89.475  1.00  0.00    -0.008 C 
ATOM     21  O   UNL     1      96.141  87.489  87.696  1.00  0.00    -0.291 OA
ATOM     22  C   UNL     1      94.950  87.549  90.433  1.00  0.00     0.048 C 
BRANCH  16  23
ATOM     23  O   UNL     1      94.303  85.597  86.419  1.00  0.00    -0.381 OA
ATOM     24  H   UNL     1      93.841  86.380  86.761  1.00  0.00     0.212 HD
ENDBRANCH  16  23
ENDBRANCH   6  15
BRANCH   7  25
ATOM     25  C   UNL     1      93.466  79.927  89.787  1.00  0.00     0.135 C 
BRANCH  25  26
ATOM     26  C   UNL     1      92.561  80.219  90.958  1.00  0.00    -0.040 A 
ATOM     27  C   UNL     1      92.994  81.065  91.979  1.00  0.00     0.004 A 
ATOM     28  C   UNL     1      91.291  79.645  91.019  1.00  0.00     0.004 A 
ATOM     29  C   UNL     1      92.157  81.335  93.063  1.00  0.00     0.000 A 
ATOM     30  C   UNL     1      90.455  79.915  92.102  1.00  0.00     0.000 A 
ATOM     31  C   UNL     1      90.888  80.761  93.124  1.00  0.00     0.000 A 
ENDBRANCH  25  26
ENDBRANCH   7  25
BRANCH  14  32
ATOM     32  C   UNL     1      90.890  80.552  86.234  1.00  0.00    -0.046 C 
ATOM     33  C   UNL     1      89.431  80.874  86.362  1.00  0.00     0.042 C 
ATOM     34  C   UNL     1      91.326  79.526  85.487  1.00  0.00     0.010 C 
ENDBRANCH  14  32
ENDBRANCH   3   4
BRANCH   2  35
ATOM     35  C   UNL     1      96.578  84.688  86.631  1.00  0.00     0.078 CG0
ATOM     36  G   UNL     1      95.326  85.219  87.329  1.00  0.00     0.000 G0
ENDBRANCH   2  35
ENDBRANCH   1   2
BRANCH   1  37
ATOM     37  O   UNL     1      98.298  83.397  84.590  1.00  0.00    -0.461 OA
BRANCH  37  38
ATOM     38  C   UNL     1      98.176  82.664  83.433  1.00  0.00     0.310 C 
ATOM     39  O   UNL     1      98.259  81.446  83.361  1.00  0.00    -0.252 OA
BRANCH  38  40
ATOM     40  C   UNL     1      97.926  83.595  82.270  1.00  0.00     0.158 C 
BRANCH  40  41
ATOM     41  C   UNL     1      98.470  83.068  80.967  1.00  0.00    -0.033 A 
ATOM     42  C   UNL     1      97.782  83.306  79.777  1.00  0.00     0.054 A 
ATOM     43  C   UNL     1      99.662  82.344  80.951  1.00  0.00     0.008 A 
ATOM     44  C   UNL     1      98.286  82.818  78.571  1.00  0.00     0.160 A 
ATOM     45  C   UNL     1     100.166  81.856  79.745  1.00  0.00     0.050 A 
ATOM     46  C   UNL     1      99.478  82.092  78.555  1.00  0.00     0.157 A 
BRANCH  44  47
ATOM     47  O   UNL     1      97.605  83.056  77.415  1.00  0.00    -0.493 OA
ATOM     48  C   UNL     1      97.797  84.328  76.799  1.00  0.00     0.278 C 
ENDBRANCH  44  47
BRANCH  46  49
ATOM     49  O   UNL     1      99.980  81.612  77.384  1.00  0.00    -0.504 OA
ATOM     50  H   UNL     1     100.090  80.649  77.457  1.00  0.00     0.293 HD
ENDBRANCH  46  49
ENDBRANCH  40  41
ENDBRANCH  38  40
ENDBRANCH  37  38
ENDBRANCH   1  37
TORSDOF 11
ENDMDL
MODEL 3
REMARK VINA RESULT:    -7.086      8.703     13.325
REMARK INTER + INTRA:         -13.561
REMARK INTER:                 -11.499
REMARK INTRA:                  -2.062
REMARK UNBOUND:                -1.091
REMARK SMILES C=C(C)[C@]12C[C@@H](C)[C@@]34O[C@](Cc5ccccc5)(O[C@@H]1[C@@H]3C=C(COC(=O)Cc1ccc(O)c(OC)c1)C[C@]1(O)C(=O)C(C)=C[C@@H]41)O2
REMARK SMILES IDX 23 1 22 2 21 3 20 4 9 5 8 6 10 7 6 8 18 9 46 10 19 11 5 12
REMARK SMILES IDX 7 13 4 14 45 15 38 16 44 17 40 18 42 20 41 21 43 22 39 23
REMARK SMILES IDX 11 25 12 26 13 27 17 28 14 29 16 30 15 31 2 32 3 33 1 34
REMARK SMILES IDX 37 35 24 37 25 38 26 39 27 40 28 41 36 42 29 43 33 44 30 45
REMARK SMILES IDX 31 46 34 47 35 48 32 49
REMARK H PARENT 39 24 32 50
REMARK Flexibility Score: 90.00
ROOT
ATOM      1  C   UNL     1      63.663  81.136  73.181  1.00  0.00     0.264 C 
ENDROOT
BRANCH   1   2
ATOM      2  C   UNL     1      63.213  82.302  74.030  1.00  0.00    -0.033 C 
ATOM      3  C   UNL     1      63.912  82.619  75.139  1.00  0.00    -0.015 C 
BRANCH   3   4
ATOM      4  C   UNL     1      63.627  83.680  76.188  1.00  0.00     0.078 C 
ATOM      5  O   UNL     1      64.822  85.729  75.484  1.00  0.00    -0.319 OA
ATOM      6  C   UNL     1      63.490  85.177  75.721  1.00  0.00     0.095 C 
ATOM      7  C   UNL     1      65.815  85.388  76.470  1.00  0.00     0.289 C 
ATOM      8  C   UNL     1      62.790  85.983  76.893  1.00  0.00     0.023 C 
ATOM      9  O   UNL     1      65.956  83.975  76.594  1.00  0.00    -0.320 OA
ATOM     10  O   UNL     1      65.468  85.855  77.771  1.00  0.00    -0.313 OA
ATOM     11  C   UNL     1      64.732  83.657  77.274  1.00  0.00     0.170 C 
ATOM     12  C   UNL     1      63.188  85.419  78.291  1.00  0.00     0.049 C 
ATOM     13  C   UNL     1      63.014  87.504  76.873  1.00  0.00     0.011 C 
ATOM     14  C   UNL     1      64.597  84.825  78.282  1.00  0.00     0.122 C 
BRANCH   6  15
ATOM     15  C   UNL     1      62.783  85.261  74.337  1.00  0.00     0.086 C 
ATOM     16  C   UNL     1      61.563  84.337  74.140  1.00  0.00     0.140 CG0
ATOM     17  C   UNL     1      62.297  86.592  73.838  1.00  0.00    -0.010 C 
ATOM     18  C   UNL     1      60.663  85.170  73.252  1.00  0.00     0.190 C 
ATOM     19  G   UNL     1      61.946  83.004  73.500  1.00  0.00     0.000 G0
ATOM     20  C   UNL     1      61.122  86.571  73.199  1.00  0.00    -0.008 C 
ATOM     21  O   UNL     1      59.658  84.768  72.686  1.00  0.00    -0.291 OA
ATOM     22  C   UNL     1      60.391  87.657  72.514  1.00  0.00     0.048 C 
BRANCH  16  23
ATOM     23  O   UNL     1      60.793  84.144  75.315  1.00  0.00    -0.381 OA
ATOM     24  H   UNL     1      60.872  83.214  75.585  1.00  0.00     0.212 HD
ENDBRANCH  16  23
ENDBRANCH   6  15
BRANCH   7  25
ATOM     25  C   UNL     1      67.135  86.000  76.047  1.00  0.00     0.135 C 
BRANCH  25  26
ATOM     26  C   UNL     1      66.968  86.966  74.901  1.00  0.00    -0.040 A 
ATOM     27  C   UNL     1      66.946  86.494  73.588  1.00  0.00     0.004 A 
ATOM     28  C   UNL     1      66.835  88.331  75.153  1.00  0.00     0.004 A 
ATOM     29  C   UNL     1      66.792  87.387  72.528  1.00  0.00     0.000 A 
ATOM     30  C   UNL     1      66.681  89.225  74.092  1.00  0.00     0.000 A 
ATOM     31  C   UNL     1      66.660  88.752  72.780  1.00  0.00     0.000 A 
ENDBRANCH  25  26
ENDBRANCH   7  25
BRANCH  14  32
ATOM     32  C   UNL     1      65.069  84.445  79.648  1.00  0.00    -0.046 C 
ATOM     33  C   UNL     1      66.553  84.322  79.826  1.00  0.00     0.042 C 
ATOM     34  C   UNL     1      64.214  84.225  80.658  1.00  0.00     0.010 C 
ENDBRANCH  14  32
ENDBRANCH   3   4
BRANCH   2  35
ATOM     35  C   UNL     1      61.977  82.993  73.485  1.00  0.00     0.078 CG0
ATOM     36  G   UNL     1      61.556  84.301  74.153  1.00  0.00     0.000 G0
ENDBRANCH   2  35
ENDBRANCH   1   2
BRANCH   1  37
ATOM     37  O   UNL     1      63.802  81.561  71.842  1.00  0.00    -0.461 OA
BRANCH  37  38
ATOM     38  C   UNL     1      65.079  81.862  71.429  1.00  0.00     0.310 C 
ATOM     39  O   UNL     1      65.794  81.127  70.762  1.00  0.00    -0.252 OA
BRANCH  38  40
ATOM     40  C   UNL     1      65.459  83.237  71.926  1.00  0.00     0.158 C 
BRANCH  40  41
ATOM     41  C   UNL     1      66.250  84.029  70.917  1.00  0.00    -0.033 A 
ATOM     42  C   UNL     1      67.645  84.023  70.963  1.00  0.00     0.054 A 
ATOM     43  C   UNL     1      65.589  84.768  69.936  1.00  0.00     0.008 A 
ATOM     44  C   UNL     1      68.377  84.756  70.029  1.00  0.00     0.160 A 
ATOM     45  C   UNL     1      66.321  85.502  69.002  1.00  0.00     0.050 A 
ATOM     46  C   UNL     1      67.715  85.496  69.049  1.00  0.00     0.157 A 
BRANCH  44  47
ATOM     47  O   UNL     1      69.738  84.742  70.085  1.00  0.00    -0.493 OA
ATOM     48  C   UNL     1      70.337  83.929  71.093  1.00  0.00     0.278 C 
ENDBRANCH  44  47
BRANCH  46  49
ATOM     49  O   UNL     1      68.419  86.214  68.131  1.00  0.00    -0.504 OA
ATOM     50  H   UNL     1      68.310  85.804  67.256  1.00  0.00     0.293 HD
ENDBRANCH  46  49
ENDBRANCH  40  41
ENDBRANCH  38  40
ENDBRANCH  37  38
ENDBRANCH   1  37
TORSDOF 11
ENDMDL
MODEL 4
REMARK VINA RESULT:    -7.042      7.834     12.709
REMARK INTER + INTRA:         -13.484
REMARK INTER:                 -11.071
REMARK INTRA:                  -2.413
REMARK UNBOUND:                -1.091
REMARK SMILES C=C(C)[C@]12C[C@@H](C)[C@@]34O[C@](Cc5ccccc5)(O[C@@H]1[C@@H]3C=C(COC(=O)Cc1ccc(O)c(OC)c1)C[C@]1(O)C(=O)C(C)=C[C@@H]41)O2
REMARK SMILES IDX 23 1 22 2 21 3 20 4 9 5 8 6 10 7 6 8 18 9 46 10 19 11 5 12
REMARK SMILES IDX 7 13 4 14 45 15 38 16 44 17 40 18 42 20 41 21 43 22 39 23
REMARK SMILES IDX 11 25 12 26 13 27 17 28 14 29 16 30 15 31 2 32 3 33 1 34
REMARK SMILES IDX 37 35 24 37 25 38 26 39 27 40 28 41 36 42 29 43 33 44 30 45
REMARK SMILES IDX 31 46 34 47 35 48 32 49
REMARK H PARENT 39 24 32 50
REMARK Flexibility Score: 90.00
ROOT
ATOM      1  C   UNL     1      66.887  88.608  73.398  1.00  0.00     0.264 C 
ENDROOT
BRANCH   1   2
ATOM      2  C   UNL     1      66.791  87.174  72.930  1.00  0.00    -0.033 C 
ATOM      3  C   UNL     1      65.630  86.507  73.084  1.00  0.00    -0.015 C 
BRANCH   3   4
ATOM      4  C   UNL     1      65.303  85.055  72.772  1.00  0.00     0.078 C 
ATOM      5  O   UNL     1      64.402  84.999  70.469  1.00  0.00    -0.319 OA
ATOM      6  C   UNL     1      65.513  84.540  71.300  1.00  0.00     0.095 C 
ATOM      7  C   UNL     1      63.098  84.895  71.072  1.00  0.00     0.289 C 
ATOM      8  C   UNL     1      65.516  82.956  71.341  1.00  0.00     0.023 C 
ATOM      9  O   UNL     1      63.037  85.617  72.299  1.00  0.00    -0.320 OA
ATOM     10  O   UNL     1      62.759  83.550  71.399  1.00  0.00    -0.313 OA
ATOM     11  C   UNL     1      63.827  84.759  73.136  1.00  0.00     0.170 C 
ATOM     12  C   UNL     1      64.565  82.412  72.450  1.00  0.00     0.049 C 
ATOM     13  C   UNL     1      65.199  82.261  70.008  1.00  0.00     0.011 C 
ATOM     14  C   UNL     1      63.377  83.346  72.686  1.00  0.00     0.122 C 
BRANCH   6  15
ATOM     15  C   UNL     1      66.772  85.195  70.660  1.00  0.00     0.086 C 
ATOM     16  C   UNL     1      68.017  85.301  71.566  1.00  0.00     0.140 CG0
ATOM     17  C   UNL     1      67.320  84.639  69.376  1.00  0.00    -0.010 C 
ATOM     18  C   UNL     1      69.152  85.114  70.582  1.00  0.00     0.190 C 
ATOM     19  G   UNL     1      68.089  86.643  72.293  1.00  0.00     0.000 G0
ATOM     20  C   UNL     1      68.654  84.605  69.290  1.00  0.00    -0.008 C 
ATOM     21  O   UNL     1      70.335  85.302  70.821  1.00  0.00    -0.291 OA
ATOM     22  C   UNL     1      69.525  84.208  68.164  1.00  0.00     0.048 C 
BRANCH  16  23
ATOM     23  O   UNL     1      68.166  84.216  72.466  1.00  0.00    -0.381 OA
ATOM     24  H   UNL     1      68.499  84.561  73.310  1.00  0.00     0.212 HD
ENDBRANCH  16  23
ENDBRANCH   6  15
BRANCH   7  25
ATOM     25  C   UNL     1      62.079  85.452  70.098  1.00  0.00     0.135 C 
BRANCH  25  26
ATOM     26  C   UNL     1      60.669  85.312  70.615  1.00  0.00    -0.040 A 
ATOM     27  C   UNL     1      59.778  84.442  69.985  1.00  0.00     0.004 A 
ATOM     28  C   UNL     1      60.255  86.050  71.724  1.00  0.00     0.004 A 
ATOM     29  C   UNL     1      58.473  84.313  70.463  1.00  0.00     0.000 A 
ATOM     30  C   UNL     1      58.951  85.920  72.202  1.00  0.00     0.000 A 
ATOM     31  C   UNL     1      58.060  85.051  71.571  1.00  0.00     0.000 A 
ENDBRANCH  25  26
ENDBRANCH   7  25
BRANCH  14  32
ATOM     32  C   UNL     1      62.360  82.761  73.609  1.00  0.00    -0.046 C 
ATOM     33  C   UNL     1      62.088  81.294  73.451  1.00  0.00     0.042 C 
ATOM     34  C   UNL     1      61.725  83.503  74.528  1.00  0.00     0.010 C 
ENDBRANCH  14  32
ENDBRANCH   3   4
BRANCH   2  35
ATOM     35  C   UNL     1      68.079  86.663  72.313  1.00  0.00     0.078 CG0
ATOM     36  G   UNL     1      68.019  85.324  71.578  1.00  0.00     0.000 G0
ENDBRANCH   2  35
ENDBRANCH   1   2
BRANCH   1  37
ATOM     37  O   UNL     1      66.461  88.690  74.741  1.00  0.00    -0.461 OA
BRANCH  37  38
ATOM     38  C   UNL     1      67.450  88.851  75.684  1.00  0.00     0.310 C 
ATOM     39  O   UNL     1      68.522  89.407  75.489  1.00  0.00    -0.252 OA
BRANCH  38  40
ATOM     40  C   UNL     1      67.005  88.238  76.991  1.00  0.00     0.158 C 
BRANCH  40  41
ATOM     41  C   UNL     1      66.546  86.810  76.844  1.00  0.00    -0.033 A 
ATOM     42  C   UNL     1      65.265  86.444  77.260  1.00  0.00     0.054 A 
ATOM     43  C   UNL     1      67.400  85.856  76.293  1.00  0.00     0.008 A 
ATOM     44  C   UNL     1      64.840  85.122  77.124  1.00  0.00     0.160 A 
ATOM     45  C   UNL     1      66.975  84.534  76.157  1.00  0.00     0.050 A 
ATOM     46  C   UNL     1      65.695  84.167  76.573  1.00  0.00     0.157 A 
BRANCH  44  47
ATOM     47  O   UNL     1      63.588  84.776  77.534  1.00  0.00    -0.493 OA
ATOM     48  C   UNL     1      62.526  85.665  77.194  1.00  0.00     0.278 C 
ENDBRANCH  44  47
BRANCH  46  49
ATOM     49  O   UNL     1      65.291  82.874  76.435  1.00  0.00    -0.504 OA
ATOM     50  H   UNL     1      66.039  82.340  76.120  1.00  0.00     0.293 HD
ENDBRANCH  46  49
ENDBRANCH  40  41
ENDBRANCH  38  40
ENDBRANCH  37  38
ENDBRANCH   1  37
TORSDOF 11
ENDMDL
MODEL 5
REMARK VINA RESULT:    -6.828     25.798     29.000
REMARK INTER + INTRA:         -13.107
REMARK INTER:                 -12.402
REMARK INTRA:                  -0.705
REMARK UNBOUND:                -1.091
REMARK SMILES C=C(C)[C@]12C[C@@H](C)[C@@]34O[C@](Cc5ccccc5)(O[C@@H]1[C@@H]3C=C(COC(=O)Cc1ccc(O)c(OC)c1)C[C@]1(O)C(=O)C(C)=C[C@@H]41)O2
REMARK SMILES IDX 23 1 22 2 21 3 20 4 9 5 8 6 10 7 6 8 18 9 46 10 19 11 5 12
REMARK SMILES IDX 7 13 4 14 45 15 38 16 44 17 40 18 42 20 41 21 43 22 39 23
REMARK SMILES IDX 11 25 12 26 13 27 17 28 14 29 16 30 15 31 2 32 3 33 1 34
REMARK SMILES IDX 37 35 24 37 25 38 26 39 27 40 28 41 36 42 29 43 33 44 30 45
REMARK SMILES IDX 31 46 34 47 35 48 32 49
REMARK H PARENT 39 24 32 50
REMARK Flexibility Score: 90.00
ROOT
ATOM      1  C   UNL     1      98.088  82.869  86.223  1.00  0.00     0.264 C 
ENDROOT
BRANCH   1   2
ATOM      2  C   UNL     1      96.710  83.331  86.635  1.00  0.00    -0.033 C 
ATOM      3  C   UNL     1      95.693  82.447  86.642  1.00  0.00    -0.015 C 
BRANCH   3   4
ATOM      4  C   UNL     1      94.219  82.674  86.938  1.00  0.00     0.078 C 
ATOM      5  O   UNL     1      93.898  82.264  89.357  1.00  0.00    -0.319 OA
ATOM      6  C   UNL     1      93.822  83.298  88.327  1.00  0.00     0.095 C 
ATOM      7  C   UNL     1      93.362  80.981  88.982  1.00  0.00     0.289 C 
ATOM      8  C   UNL     1      92.327  83.813  88.212  1.00  0.00     0.023 C 
ATOM      9  O   UNL     1      94.007  80.470  87.819  1.00  0.00    -0.320 OA
ATOM     10  O   UNL     1      91.976  81.049  88.656  1.00  0.00    -0.313 OA
ATOM     11  C   UNL     1      93.447  81.336  86.819  1.00  0.00     0.170 C 
ATOM     12  C   UNL     1      91.485  82.911  87.259  1.00  0.00     0.049 C 
ATOM     13  C   UNL     1      91.583  83.982  89.547  1.00  0.00     0.011 C 
ATOM     14  C   UNL     1      91.971  81.461  87.274  1.00  0.00     0.122 C 
BRANCH   6  15
ATOM     15  C   UNL     1      94.864  84.366  88.771  1.00  0.00     0.086 C 
ATOM     16  C   UNL     1      95.367  85.323  87.670  1.00  0.00     0.140 CG0
ATOM     17  C   UNL     1      94.535  85.287  89.912  1.00  0.00    -0.010 C 
ATOM     18  C   UNL     1      95.577  86.614  88.433  1.00  0.00     0.190 C 
ATOM     19  G   UNL     1      96.648  84.819  87.008  1.00  0.00     0.000 G0
ATOM     20  C   UNL     1      94.947  86.550  89.765  1.00  0.00    -0.008 C 
ATOM     21  O   UNL     1      96.145  87.606  88.002  1.00  0.00    -0.291 OA
ATOM     22  C   UNL     1      94.873  87.690  90.702  1.00  0.00     0.048 C 
BRANCH  16  23
ATOM     23  O   UNL     1      94.382  85.656  86.706  1.00  0.00    -0.381 OA
ATOM     24  H   UNL     1      94.350  86.624  86.622  1.00  0.00     0.212 HD
ENDBRANCH  16  23
ENDBRANCH   6  15
BRANCH   7  25
ATOM     25  C   UNL     1      93.563  80.025  90.141  1.00  0.00     0.135 C 
BRANCH  25  26
ATOM     26  C   UNL     1      92.481  78.976  90.202  1.00  0.00    -0.040 A 
ATOM     27  C   UNL     1      91.363  79.174  91.014  1.00  0.00     0.004 A 
ATOM     28  C   UNL     1      92.596  77.809  89.447  1.00  0.00     0.004 A 
ATOM     29  C   UNL     1      90.362  78.204  91.071  1.00  0.00     0.000 A 
ATOM     30  C   UNL     1      91.594  76.839  89.505  1.00  0.00     0.000 A 
ATOM     31  C   UNL     1      90.478  77.037  90.317  1.00  0.00     0.000 A 
ENDBRANCH  25  26
ENDBRANCH   7  25
BRANCH  14  32
ATOM     32  C   UNL     1      91.070  80.545  86.512  1.00  0.00    -0.046 C 
ATOM     33  C   UNL     1      91.645  79.212  86.137  1.00  0.00     0.042 C 
ATOM     34  C   UNL     1      89.817  80.894  86.183  1.00  0.00     0.010 C 
ENDBRANCH  14  32
ENDBRANCH   3   4
BRANCH   2  35
ATOM     35  C   UNL     1      96.663  84.801  87.010  1.00  0.00     0.078 CG0
ATOM     36  G   UNL     1      95.383  85.313  87.669  1.00  0.00     0.000 G0
ENDBRANCH   2  35
ENDBRANCH   1   2
BRANCH   1  37
ATOM     37  O   UNL     1      98.369  83.342  84.923  1.00  0.00    -0.461 OA
BRANCH  37  38
ATOM     38  C   UNL     1      98.018  82.510  83.884  1.00  0.00     0.310 C 
ATOM     39  O   UNL     1      97.835  81.305  83.981  1.00  0.00    -0.252 OA
BRANCH  38  40
ATOM     40  C   UNL     1      97.896  83.316  82.613  1.00  0.00     0.158 C 
BRANCH  40  41
ATOM     41  C   UNL     1      98.861  82.876  81.542  1.00  0.00    -0.033 A 
ATOM     42  C   UNL     1      99.995  82.139  81.887  1.00  0.00     0.054 A 
ATOM     43  C   UNL     1      98.621  83.205  80.208  1.00  0.00     0.008 A 
ATOM     44  C   UNL     1     100.888  81.731  80.896  1.00  0.00     0.160 A 
ATOM     45  C   UNL     1      99.515  82.797  79.218  1.00  0.00     0.050 A 
ATOM     46  C   UNL     1     100.649  82.061  79.561  1.00  0.00     0.157 A 
BRANCH  44  47
ATOM     47  O   UNL     1     101.992  81.012  81.244  1.00  0.00    -0.493 OA
ATOM     48  C   UNL     1     103.061  81.725  81.863  1.00  0.00     0.278 C 
ENDBRANCH  44  47
BRANCH  46  49
ATOM     49  O   UNL     1     101.513  81.668  78.586  1.00  0.00    -0.504 OA
ATOM     50  H   UNL     1     101.117  80.933  78.088  1.00  0.00     0.293 HD
ENDBRANCH  46  49
ENDBRANCH  40  41
ENDBRANCH  38  40
ENDBRANCH  37  38
ENDBRANCH   1  37
TORSDOF 11
ENDMDL
MODEL 6
REMARK VINA RESULT:    -6.761      4.430      8.150
REMARK INTER + INTRA:         -12.991
REMARK INTER:                 -12.064
REMARK INTRA:                  -0.927
REMARK UNBOUND:                -1.091
REMARK SMILES C=C(C)[C@]12C[C@@H](C)[C@@]34O[C@](Cc5ccccc5)(O[C@@H]1[C@@H]3C=C(COC(=O)Cc1ccc(O)c(OC)c1)C[C@]1(O)C(=O)C(C)=C[C@@H]41)O2
REMARK SMILES IDX 23 1 22 2 21 3 20 4 9 5 8 6 10 7 6 8 18 9 46 10 19 11 5 12
REMARK SMILES IDX 7 13 4 14 45 15 38 16 44 17 40 18 42 20 41 21 43 22 39 23
REMARK SMILES IDX 11 25 12 26 13 27 17 28 14 29 16 30 15 31 2 32 3 33 1 34
REMARK SMILES IDX 37 35 24 37 25 38 26 39 27 40 28 41 36 42 29 43 33 44 30 45
REMARK SMILES IDX 31 46 34 47 35 48 32 49
REMARK H PARENT 39 24 32 50
REMARK Flexibility Score: 90.00
ROOT
ATOM      1  C   UNL     1      68.740  83.108  68.795  1.00  0.00     0.264 C 
ENDROOT
BRANCH   1   2
ATOM      2  C   UNL     1      69.829  83.705  67.934  1.00  0.00    -0.033 C 
ATOM      3  C   UNL     1      70.204  84.984  68.139  1.00  0.00    -0.015 C 
BRANCH   3   4
ATOM      4  C   UNL     1      71.206  85.830  67.370  1.00  0.00     0.078 C 
ATOM      5  O   UNL     1      73.389  85.571  68.504  1.00  0.00    -0.319 OA
ATOM      6  C   UNL     1      72.687  85.311  67.249  1.00  0.00     0.095 C 
ATOM      7  C   UNL     1      73.141  86.861  69.093  1.00  0.00     0.289 C 
ATOM      8  C   UNL     1      73.386  86.123  66.081  1.00  0.00     0.023 C 
ATOM      9  O   UNL     1      71.750  87.060  69.336  1.00  0.00    -0.320 OA
ATOM     10  O   UNL     1      73.539  87.932  68.241  1.00  0.00    -0.313 OA
ATOM     11  C   UNL     1      71.284  87.246  67.990  1.00  0.00     0.170 C 
ATOM     12  C   UNL     1      72.840  87.582  65.994  1.00  0.00     0.049 C 
ATOM     13  C   UNL     1      74.922  86.154  66.125  1.00  0.00     0.011 C 
ATOM     14  C   UNL     1      72.409  88.108  67.363  1.00  0.00     0.122 C 
BRANCH   6  15
ATOM     15  C   UNL     1      72.720  83.763  67.099  1.00  0.00     0.086 C 
ATOM     16  C   UNL     1      71.668  83.149  66.151  1.00  0.00     0.140 CG0
ATOM     17  C   UNL     1      73.998  83.090  66.685  1.00  0.00    -0.010 C 
ATOM     18  C   UNL     1      72.413  81.973  65.556  1.00  0.00     0.190 C 
ATOM     19  G   UNL     1      70.401  82.726  66.892  1.00  0.00     0.000 G0
ATOM     20  C   UNL     1      73.857  82.063  65.841  1.00  0.00    -0.008 C 
ATOM     21  O   UNL     1      71.912  81.085  64.883  1.00  0.00    -0.291 OA
ATOM     22  C   UNL     1      74.868  81.132  65.297  1.00  0.00     0.048 C 
BRANCH  16  23
ATOM     23  O   UNL     1      71.365  83.961  65.028  1.00  0.00    -0.381 OA
ATOM     24  H   UNL     1      70.912  83.413  64.367  1.00  0.00     0.212 HD
ENDBRANCH  16  23
ENDBRANCH   6  15
BRANCH   7  25
ATOM     25  C   UNL     1      73.905  86.943  70.399  1.00  0.00     0.135 C 
BRANCH  25  26
ATOM     26  C   UNL     1      75.311  86.413  70.265  1.00  0.00    -0.040 A 
ATOM     27  C   UNL     1      76.326  87.243  69.787  1.00  0.00     0.004 A 
ATOM     28  C   UNL     1      75.598  85.096  70.620  1.00  0.00     0.004 A 
ATOM     29  C   UNL     1      77.627  86.754  69.663  1.00  0.00     0.000 A 
ATOM     30  C   UNL     1      76.899  84.607  70.496  1.00  0.00     0.000 A 
ATOM     31  C   UNL     1      77.912  85.436  70.017  1.00  0.00     0.000 A 
ENDBRANCH  25  26
ENDBRANCH   7  25
BRANCH  14  32
ATOM     32  C   UNL     1      72.055  89.559  67.336  1.00  0.00    -0.046 C 
ATOM     33  C   UNL     1      72.279  90.271  66.035  1.00  0.00     0.042 C 
ATOM     34  C   UNL     1      71.565  90.190  68.414  1.00  0.00     0.010 C 
ENDBRANCH  14  32
ENDBRANCH   3   4
BRANCH   2  35
ATOM     35  C   UNL     1      70.381  82.729  66.912  1.00  0.00     0.078 CG0
ATOM     36  G   UNL     1      71.655  83.138  66.174  1.00  0.00     0.000 G0
ENDBRANCH   2  35
ENDBRANCH   1   2
BRANCH   1  37
ATOM     37  O   UNL     1      67.491  83.300  68.168  1.00  0.00    -0.461 OA
BRANCH  37  38
ATOM     38  C   UNL     1      66.451  83.678  68.985  1.00  0.00     0.310 C 
ATOM     39  O   UNL     1      65.354  84.056  68.597  1.00  0.00    -0.252 OA
BRANCH  38  40
ATOM     40  C   UNL     1      66.873  83.552  70.430  1.00  0.00     0.158 C 
BRANCH  40  41
ATOM     41  C   UNL     1      65.757  83.091  71.331  1.00  0.00    -0.033 A 
ATOM     42  C   UNL     1      65.298  83.922  72.353  1.00  0.00     0.054 A 
ATOM     43  C   UNL     1      65.183  81.834  71.144  1.00  0.00     0.008 A 
ATOM     44  C   UNL     1      64.264  83.495  73.188  1.00  0.00     0.160 A 
ATOM     45  C   UNL     1      64.150  81.407  71.978  1.00  0.00     0.050 A 
ATOM     46  C   UNL     1      63.691  82.237  73.000  1.00  0.00     0.157 A 
BRANCH  44  47
ATOM     47  O   UNL     1      63.824  84.315  74.182  1.00  0.00    -0.493 OA
ATOM     48  C   UNL     1      62.846  85.293  73.831  1.00  0.00     0.278 C 
ENDBRANCH  44  47
BRANCH  46  49
ATOM     49  O   UNL     1      62.681  81.810  73.808  1.00  0.00    -0.504 OA
ATOM     50  H   UNL     1      63.052  81.544  74.666  1.00  0.00     0.293 HD
ENDBRANCH  46  49
ENDBRANCH  40  41
ENDBRANCH  38  40
ENDBRANCH  37  38
ENDBRANCH   1  37
TORSDOF 11
ENDMDL
MODEL 7
REMARK VINA RESULT:    -6.612      9.220     13.707
REMARK INTER + INTRA:         -12.728
REMARK INTER:                 -10.295
REMARK INTRA:                  -2.432
REMARK UNBOUND:                -1.091
REMARK SMILES C=C(C)[C@]12C[C@@H](C)[C@@]34O[C@](Cc5ccccc5)(O[C@@H]1[C@@H]3C=C(COC(=O)Cc1ccc(O)c(OC)c1)C[C@]1(O)C(=O)C(C)=C[C@@H]41)O2
REMARK SMILES IDX 23 1 22 2 21 3 20 4 9 5 8 6 10 7 6 8 18 9 46 10 19 11 5 12
REMARK SMILES IDX 7 13 4 14 45 15 38 16 44 17 40 18 42 20 41 21 43 22 39 23
REMARK SMILES IDX 11 25 12 26 13 27 17 28 14 29 16 30 15 31 2 32 3 33 1 34
REMARK SMILES IDX 37 35 24 37 25 38 26 39 27 40 28 41 36 42 29 43 33 44 30 45
REMARK SMILES IDX 31 46 34 47 35 48 32 49
REMARK H PARENT 39 24 32 50
REMARK Flexibility Score: 90.00
ROOT
ATOM      1  C   UNL     1      64.188  88.032  75.688  1.00  0.00     0.264 C 
ENDROOT
BRANCH   1   2
ATOM      2  C   UNL     1      63.024  87.295  75.068  1.00  0.00    -0.033 C 
ATOM      3  C   UNL     1      62.215  87.946  74.208  1.00  0.00    -0.015 C 
BRANCH   3   4
ATOM      4  C   UNL     1      60.950  87.461  73.519  1.00  0.00     0.078 C 
ATOM      5  O   UNL     1      61.635  86.518  71.337  1.00  0.00    -0.319 OA
ATOM      6  C   UNL     1      61.034  86.170  72.622  1.00  0.00     0.095 C 
ATOM      7  C   UNL     1      61.172  87.750  70.753  1.00  0.00     0.289 C 
ATOM      8  C   UNL     1      59.555  85.653  72.386  1.00  0.00     0.023 C 
ATOM      9  O   UNL     1      61.385  88.851  71.634  1.00  0.00    -0.320 OA
ATOM     10  O   UNL     1      59.771  87.733  70.492  1.00  0.00    -0.313 OA
ATOM     11  C   UNL     1      60.377  88.584  72.620  1.00  0.00     0.170 C 
ATOM     12  C   UNL     1      58.540  86.835  72.320  1.00  0.00     0.049 C 
ATOM     13  C   UNL     1      59.361  84.744  71.161  1.00  0.00     0.011 C 
ATOM     14  C   UNL     1      59.184  88.103  71.757  1.00  0.00     0.122 C 
BRANCH   6  15
ATOM     15  C   UNL     1      62.014  85.131  73.241  1.00  0.00     0.086 C 
ATOM     16  C   UNL     1      61.926  84.939  74.769  1.00  0.00     0.140 CG0
ATOM     17  C   UNL     1      62.027  83.724  72.712  1.00  0.00    -0.010 C 
ATOM     18  C   UNL     1      62.238  83.466  74.931  1.00  0.00     0.190 C 
ATOM     19  G   UNL     1      62.912  85.832  75.521  1.00  0.00     0.000 G0
ATOM     20  C   UNL     1      62.179  82.767  73.634  1.00  0.00    -0.008 C 
ATOM     21  O   UNL     1      62.460  82.902  75.992  1.00  0.00    -0.291 OA
ATOM     22  C   UNL     1      62.317  81.305  73.474  1.00  0.00     0.048 C 
BRANCH  16  23
ATOM     23  O   UNL     1      60.612  85.066  75.288  1.00  0.00    -0.381 OA
ATOM     24  H   UNL     1      60.635  85.694  76.029  1.00  0.00     0.212 HD
ENDBRANCH  16  23
ENDBRANCH   6  15
BRANCH   7  25
ATOM     25  C   UNL     1      61.926  87.977  69.459  1.00  0.00     0.135 C 
BRANCH  25  26
ATOM     26  C   UNL     1      63.076  87.014  69.298  1.00  0.00    -0.040 A 
ATOM     27  C   UNL     1      62.895  85.822  68.594  1.00  0.00     0.004 A 
ATOM     28  C   UNL     1      64.320  87.314  69.852  1.00  0.00     0.004 A 
ATOM     29  C   UNL     1      63.958  84.931  68.446  1.00  0.00     0.000 A 
ATOM     30  C   UNL     1      65.383  86.423  69.703  1.00  0.00     0.000 A 
ATOM     31  C   UNL     1      65.201  85.232  69.000  1.00  0.00     0.000 A 
ENDBRANCH  25  26
ENDBRANCH   7  25
BRANCH  14  32
ATOM     32  C   UNL     1      58.191  89.192  71.514  1.00  0.00    -0.046 C 
ATOM     33  C   UNL     1      58.174  90.308  72.515  1.00  0.00     0.042 C 
ATOM     34  C   UNL     1      57.362  89.174  70.459  1.00  0.00     0.010 C 
ENDBRANCH  14  32
ENDBRANCH   3   4
BRANCH   2  35
ATOM     35  C   UNL     1      62.927  85.850  75.518  1.00  0.00     0.078 CG0
ATOM     36  G   UNL     1      61.935  84.953  74.779  1.00  0.00     0.000 G0
ENDBRANCH   2  35
ENDBRANCH   1   2
BRANCH   1  37
ATOM     37  O   UNL     1      65.330  87.203  75.667  1.00  0.00    -0.461 OA
BRANCH  37  38
ATOM     38  C   UNL     1      66.159  87.336  74.577  1.00  0.00     0.310 C 
ATOM     39  O   UNL     1      66.030  88.174  73.695  1.00  0.00    -0.252 OA
BRANCH  38  40
ATOM     40  C   UNL     1      67.249  86.292  74.641  1.00  0.00     0.158 C 
BRANCH  40  41
ATOM     41  C   UNL     1      67.217  85.337  73.476  1.00  0.00    -0.033 A 
ATOM     42  C   UNL     1      68.375  85.104  72.733  1.00  0.00     0.054 A 
ATOM     43  C   UNL     1      66.031  84.686  73.140  1.00  0.00     0.008 A 
ATOM     44  C   UNL     1      68.346  84.220  71.655  1.00  0.00     0.160 A 
ATOM     45  C   UNL     1      66.001  83.802  72.061  1.00  0.00     0.050 A 
ATOM     46  C   UNL     1      67.158  83.569  71.318  1.00  0.00     0.157 A 
BRANCH  44  47
ATOM     47  O   UNL     1      69.483  84.001  70.937  1.00  0.00    -0.493 OA
ATOM     48  C   UNL     1      70.437  85.061  70.895  1.00  0.00     0.278 C 
ENDBRANCH  44  47
BRANCH  46  49
ATOM     49  O   UNL     1      67.118  82.703  70.268  1.00  0.00    -0.504 OA
ATOM     50  H   UNL     1      67.509  83.132  69.489  1.00  0.00     0.293 HD
ENDBRANCH  46  49
ENDBRANCH  40  41
ENDBRANCH  38  40
ENDBRANCH  37  38
ENDBRANCH   1  37
TORSDOF 11
ENDMDL
MODEL 8
REMARK VINA RESULT:    -6.590      2.647      6.957
REMARK INTER + INTRA:         -12.689
REMARK INTER:                 -10.408
REMARK INTRA:                  -2.281
REMARK UNBOUND:                -1.091
REMARK SMILES C=C(C)[C@]12C[C@@H](C)[C@@]34O[C@](Cc5ccccc5)(O[C@@H]1[C@@H]3C=C(COC(=O)Cc1ccc(O)c(OC)c1)C[C@]1(O)C(=O)C(C)=C[C@@H]41)O2
REMARK SMILES IDX 23 1 22 2 21 3 20 4 9 5 8 6 10 7 6 8 18 9 46 10 19 11 5 12
REMARK SMILES IDX 7 13 4 14 45 15 38 16 44 17 40 18 42 20 41 21 43 22 39 23
REMARK SMILES IDX 11 25 12 26 13 27 17 28 14 29 16 30 15 31 2 32 3 33 1 34
REMARK SMILES IDX 37 35 24 37 25 38 26 39 27 40 28 41 36 42 29 43 33 44 30 45
REMARK SMILES IDX 31 46 34 47 35 48 32 49
REMARK H PARENT 39 24 32 50
REMARK Flexibility Score: 90.00
ROOT
ATOM      1  C   UNL     1      69.834  86.638  71.035  1.00  0.00     0.264 C 
ENDROOT
BRANCH   1   2
ATOM      2  C   UNL     1      71.148  87.241  70.598  1.00  0.00    -0.033 C 
ATOM      3  C   UNL     1      72.174  86.426  70.280  1.00  0.00    -0.015 C 
BRANCH   3   4
ATOM      4  C   UNL     1      73.600  86.778  69.890  1.00  0.00     0.078 C 
ATOM      5  O   UNL     1      73.656  86.934  67.422  1.00  0.00    -0.319 OA
ATOM      6  C   UNL     1      73.828  87.714  68.646  1.00  0.00     0.095 C 
ATOM      7  C   UNL     1      74.256  85.625  67.437  1.00  0.00     0.289 C 
ATOM      8  C   UNL     1      75.315  88.255  68.718  1.00  0.00     0.023 C 
ATOM      9  O   UNL     1      73.755  84.839  68.515  1.00  0.00    -0.320 OA
ATOM     10  O   UNL     1      75.668  85.679  67.623  1.00  0.00    -0.313 OA
ATOM     11  C   UNL     1      74.406  85.483  69.621  1.00  0.00     0.170 C 
ATOM     12  C   UNL     1      76.277  87.201  69.348  1.00  0.00     0.049 C 
ATOM     13  C   UNL     1      75.902  88.751  67.386  1.00  0.00     0.011 C 
ATOM     14  C   UNL     1      75.819  85.771  69.054  1.00  0.00     0.122 C 
BRANCH   6  15
ATOM     15  C   UNL     1      72.722  88.807  68.568  1.00  0.00     0.086 C 
ATOM     16  C   UNL     1      72.329  89.472  69.903  1.00  0.00     0.140 CG0
ATOM     17  C   UNL     1      72.903  89.972  67.637  1.00  0.00    -0.010 C 
ATOM     18  C   UNL     1      72.010  90.890  69.479  1.00  0.00     0.190 C 
ATOM     19  G   UNL     1      71.140  88.778  70.566  1.00  0.00     0.000 G0
ATOM     20  C   UNL     1      72.487  91.152  68.108  1.00  0.00    -0.008 C 
ATOM     21  O   UNL     1      71.475  91.736  70.181  1.00  0.00    -0.291 OA
ATOM     22  C   UNL     1      72.433  92.474  67.451  1.00  0.00     0.048 C 
BRANCH  16  23
ATOM     23  O   UNL     1      73.410  89.625  70.809  1.00  0.00    -0.381 OA
ATOM     24  H   UNL     1      73.828  88.758  70.937  1.00  0.00     0.212 HD
ENDBRANCH  16  23
ENDBRANCH   6  15
BRANCH   7  25
ATOM     25  C   UNL     1      73.945  84.945  66.119  1.00  0.00     0.135 C 
BRANCH  25  26
ATOM     26  C   UNL     1      74.923  83.839  65.809  1.00  0.00    -0.040 A 
ATOM     27  C   UNL     1      74.707  82.555  66.310  1.00  0.00     0.004 A 
ATOM     28  C   UNL     1      76.043  84.100  65.020  1.00  0.00     0.004 A 
ATOM     29  C   UNL     1      75.611  81.533  66.023  1.00  0.00     0.000 A 
ATOM     30  C   UNL     1      76.948  83.077  64.733  1.00  0.00     0.000 A 
ATOM     31  C   UNL     1      76.731  81.794  65.235  1.00  0.00     0.000 A 
ENDBRANCH  25  26
ENDBRANCH   7  25
BRANCH  14  32
ATOM     32  C   UNL     1      76.817  84.748  69.489  1.00  0.00    -0.046 C 
ATOM     33  C   UNL     1      76.985  84.574  70.969  1.00  0.00     0.042 C 
ATOM     34  C   UNL     1      77.524  84.027  68.606  1.00  0.00     0.010 C 
ENDBRANCH  14  32
ENDBRANCH   3   4
BRANCH   2  35
ATOM     35  C   UNL     1      71.126  88.757  70.568  1.00  0.00     0.078 CG0
ATOM     36  G   UNL     1      72.300  89.460  69.888  1.00  0.00     0.000 G0
ENDBRANCH   2  35
ENDBRANCH   1   2
BRANCH   1  37
ATOM     37  O   UNL     1      70.049  85.312  71.468  1.00  0.00    -0.461 OA
BRANCH  37  38
ATOM     38  C   UNL     1      69.356  84.332  70.796  1.00  0.00     0.310 C 
ATOM     39  O   UNL     1      68.161  84.103  70.925  1.00  0.00    -0.252 OA
BRANCH  38  40
ATOM     40  C   UNL     1      70.296  83.587  69.878  1.00  0.00     0.158 C 
BRANCH  40  41
ATOM     41  C   UNL     1      69.995  83.812  68.419  1.00  0.00    -0.033 A 
ATOM     42  C   UNL     1      69.707  85.097  67.956  1.00  0.00     0.054 A 
ATOM     43  C   UNL     1      70.004  82.737  67.531  1.00  0.00     0.008 A 
ATOM     44  C   UNL     1      69.429  85.305  66.605  1.00  0.00     0.160 A 
ATOM     45  C   UNL     1      69.725  82.945  66.180  1.00  0.00     0.050 A 
ATOM     46  C   UNL     1      69.437  84.229  65.717  1.00  0.00     0.157 A 
BRANCH  44  47
ATOM     47  O   UNL     1      69.149  86.563  66.165  1.00  0.00    -0.493 OA
ATOM     48  C   UNL     1      68.204  87.319  66.921  1.00  0.00     0.278 C 
ENDBRANCH  44  47
BRANCH  46  49
ATOM     49  O   UNL     1      69.167  84.420  64.396  1.00  0.00    -0.504 OA
ATOM     50  H   UNL     1      69.522  85.283  64.122  1.00  0.00     0.293 HD
ENDBRANCH  46  49
ENDBRANCH  40  41
ENDBRANCH  38  40
ENDBRANCH  37  38
ENDBRANCH   1  37
TORSDOF 11
ENDMDL
MODEL 9
REMARK VINA RESULT:    -6.584      3.650      7.009
REMARK INTER + INTRA:         -12.678
REMARK INTER:                 -11.616
REMARK INTRA:                  -1.061
REMARK UNBOUND:                -1.091
REMARK SMILES C=C(C)[C@]12C[C@@H](C)[C@@]34O[C@](Cc5ccccc5)(O[C@@H]1[C@@H]3C=C(COC(=O)Cc1ccc(O)c(OC)c1)C[C@]1(O)C(=O)C(C)=C[C@@H]41)O2
REMARK SMILES IDX 23 1 22 2 21 3 20 4 9 5 8 6 10 7 6 8 18 9 46 10 19 11 5 12
REMARK SMILES IDX 7 13 4 14 45 15 38 16 44 17 40 18 42 20 41 21 43 22 39 23
REMARK SMILES IDX 11 25 12 26 13 27 17 28 14 29 16 30 15 31 2 32 3 33 1 34
REMARK SMILES IDX 37 35 24 37 25 38 26 39 27 40 28 41 36 42 29 43 33 44 30 45
REMARK SMILES IDX 31 46 34 47 35 48 32 49
REMARK H PARENT 39 24 32 50
REMARK Flexibility Score: 90.00
ROOT
ATOM      1  C   UNL     1      70.225  83.237  67.846  1.00  0.00     0.264 C 
ENDROOT
BRANCH   1   2
ATOM      2  C   UNL     1      71.350  83.840  67.038  1.00  0.00    -0.033 C 
ATOM      3  C   UNL     1      71.632  85.151  67.176  1.00  0.00    -0.015 C 
BRANCH   3   4
ATOM      4  C   UNL     1      72.647  86.004  66.433  1.00  0.00     0.078 C 
ATOM      5  O   UNL     1      74.728  85.978  67.771  1.00  0.00    -0.319 OA
ATOM      6  C   UNL     1      74.162  85.579  66.484  1.00  0.00     0.095 C 
ATOM      7  C   UNL     1      74.348  87.288  68.232  1.00  0.00     0.289 C 
ATOM      8  C   UNL     1      74.916  86.347  65.321  1.00  0.00     0.023 C 
ATOM      9  O   UNL     1      72.932  87.410  68.334  1.00  0.00    -0.320 OA
ATOM     10  O   UNL     1      74.759  88.317  67.335  1.00  0.00    -0.313 OA
ATOM     11  C   UNL     1      72.582  87.465  66.943  1.00  0.00     0.170 C 
ATOM     12  C   UNL     1      74.294  87.755  65.070  1.00  0.00     0.049 C 
ATOM     13  C   UNL     1      76.437  86.484  65.497  1.00  0.00     0.011 C 
ATOM     14  C   UNL     1      73.706  88.351  66.350  1.00  0.00     0.122 C 
BRANCH   6  15
ATOM     15  C   UNL     1      74.302  84.029  66.462  1.00  0.00     0.086 C 
ATOM     16  C   UNL     1      73.375  83.277  65.485  1.00  0.00     0.140 CG0
ATOM     17  C   UNL     1      75.650  83.415  66.207  1.00  0.00    -0.010 C 
ATOM     18  C   UNL     1      74.238  82.112  65.048  1.00  0.00     0.190 C 
ATOM     19  G   UNL     1      72.077  82.825  66.153  1.00  0.00     0.000 G0
ATOM     20  C   UNL     1      75.645  82.320  65.439  1.00  0.00    -0.008 C 
ATOM     21  O   UNL     1      73.851  81.145  64.410  1.00  0.00    -0.291 OA
ATOM     22  C   UNL     1      76.753  81.422  65.054  1.00  0.00     0.048 C 
BRANCH  16  23
ATOM     23  O   UNL     1      73.119  83.980  64.280  1.00  0.00    -0.381 OA
ATOM     24  H   UNL     1      72.792  84.867  64.505  1.00  0.00     0.212 HD
ENDBRANCH  16  23
ENDBRANCH   6  15
BRANCH   7  25
ATOM     25  C   UNL     1      74.982  87.518  69.589  1.00  0.00     0.135 C 
BRANCH  25  26
ATOM     26  C   UNL     1      75.856  86.362  70.007  1.00  0.00    -0.040 A 
ATOM     27  C   UNL     1      75.304  85.284  70.700  1.00  0.00     0.004 A 
ATOM     28  C   UNL     1      77.216  86.369  69.699  1.00  0.00     0.004 A 
ATOM     29  C   UNL     1      76.112  84.215  71.087  1.00  0.00     0.000 A 
ATOM     30  C   UNL     1      78.025  85.300  70.086  1.00  0.00     0.000 A 
ATOM     31  C   UNL     1      77.472  84.223  70.780  1.00  0.00     0.000 A 
ENDBRANCH  25  26
ENDBRANCH   7  25
BRANCH  14  32
ATOM     32  C   UNL     1      73.269  89.769  66.176  1.00  0.00    -0.046 C 
ATOM     33  C   UNL     1      74.207  90.819  66.692  1.00  0.00     0.042 C 
ATOM     34  C   UNL     1      72.104  90.086  65.591  1.00  0.00     0.010 C 
ENDBRANCH  14  32
ENDBRANCH   3   4
BRANCH   2  35
ATOM     35  C   UNL     1      72.046  82.833  66.142  1.00  0.00     0.078 CG0
ATOM     36  G   UNL     1      73.346  83.274  65.472  1.00  0.00     0.000 G0
ENDBRANCH   2  35
ENDBRANCH   1   2
BRANCH   1  37
ATOM     37  O   UNL     1      69.273  82.671  66.971  1.00  0.00    -0.461 OA
BRANCH  37  38
ATOM     38  C   UNL     1      68.164  83.438  66.700  1.00  0.00     0.310 C 
ATOM     39  O   UNL     1      67.542  83.427  65.647  1.00  0.00    -0.252 OA
BRANCH  38  40
ATOM     40  C   UNL     1      67.837  84.294  67.901  1.00  0.00     0.158 C 
BRANCH  40  41
ATOM     41  C   UNL     1      66.755  83.702  68.767  1.00  0.00    -0.033 A 
ATOM     42  C   UNL     1      65.415  83.844  68.404  1.00  0.00     0.054 A 
ATOM     43  C   UNL     1      67.092  83.012  69.931  1.00  0.00     0.008 A 
ATOM     44  C   UNL     1      64.413  83.296  69.206  1.00  0.00     0.160 A 
ATOM     45  C   UNL     1      66.091  82.464  70.733  1.00  0.00     0.050 A 
ATOM     46  C   UNL     1      64.752  82.606  70.371  1.00  0.00     0.157 A 
BRANCH  44  47
ATOM     47  O   UNL     1      63.109  83.442  68.841  1.00  0.00    -0.493 OA
ATOM     48  C   UNL     1      62.413  84.574  69.360  1.00  0.00     0.278 C 
ENDBRANCH  44  47
BRANCH  46  49
ATOM     49  O   UNL     1      63.782  82.066  71.160  1.00  0.00    -0.504 OA
ATOM     50  H   UNL     1      63.538  82.709  71.847  1.00  0.00     0.293 HD
ENDBRANCH  46  49
ENDBRANCH  40  41
ENDBRANCH  38  40
ENDBRANCH  37  38
ENDBRANCH   1  37
TORSDOF 11
ENDMDL
MODEL 10
REMARK VINA RESULT:    -6.207     25.334     29.196
REMARK INTER + INTRA:         -12.014
REMARK INTER:                 -11.219
REMARK INTRA:                  -0.795
REMARK UNBOUND:                -1.091
REMARK SMILES C=C(C)[C@]12C[C@@H](C)[C@@]34O[C@](Cc5ccccc5)(O[C@@H]1[C@@H]3C=C(COC(=O)Cc1ccc(O)c(OC)c1)C[C@]1(O)C(=O)C(C)=C[C@@H]41)O2
REMARK SMILES IDX 23 1 22 2 21 3 20 4 9 5 8 6 10 7 6 8 18 9 46 10 19 11 5 12
REMARK SMILES IDX 7 13 4 14 45 15 38 16 44 17 40 18 42 20 41 21 43 22 39 23
REMARK SMILES IDX 11 25 12 26 13 27 17 28 14 29 16 30 15 31 2 32 3 33 1 34
REMARK SMILES IDX 37 35 24 37 25 38 26 39 27 40 28 41 36 42 29 43 33 44 30 45
REMARK SMILES IDX 31 46 34 47 35 48 32 49
REMARK H PARENT 39 24 32 50
REMARK Flexibility Score: 90.00
ROOT
ATOM      1  C   UNL     1      97.854  83.143  86.476  1.00  0.00     0.264 C 
ENDROOT
BRANCH   1   2
ATOM      2  C   UNL     1      96.433  83.518  86.828  1.00  0.00    -0.033 C 
ATOM      3  C   UNL     1      95.455  82.600  86.687  1.00  0.00    -0.015 C 
BRANCH   3   4
ATOM      4  C   UNL     1      93.957  82.748  86.896  1.00  0.00     0.078 C 
ATOM      5  O   UNL     1      93.490  82.105  89.239  1.00  0.00    -0.319 OA
ATOM      6  C   UNL     1      93.441  83.227  88.304  1.00  0.00     0.095 C 
ATOM      7  C   UNL     1      93.033  80.844  88.713  1.00  0.00     0.289 C 
ATOM      8  C   UNL     1      91.938  83.697  88.129  1.00  0.00     0.023 C 
ATOM      9  O   UNL     1      93.776  80.466  87.557  1.00  0.00    -0.320 OA
ATOM     10  O   UNL     1      91.671  80.894  88.296  1.00  0.00    -0.313 OA
ATOM     11  C   UNL     1      93.250  81.401  86.603  1.00  0.00     0.170 C 
ATOM     12  C   UNL     1      91.200  82.859  87.041  1.00  0.00     0.049 C 
ATOM     13  C   UNL     1      91.098  83.716  89.417  1.00  0.00     0.011 C 
ATOM     14  C   UNL     1      91.743  81.432  86.960  1.00  0.00     0.122 C 
BRANCH   6  15
ATOM     15  C   UNL     1      94.406  84.284  88.915  1.00  0.00     0.086 C 
ATOM     16  C   UNL     1      94.953  85.348  87.941  1.00  0.00     0.140 CG0
ATOM     17  C   UNL     1      93.958  85.092  90.100  1.00  0.00    -0.010 C 
ATOM     18  C   UNL     1      95.057  86.574  88.823  1.00  0.00     0.190 C 
ATOM     19  G   UNL     1      96.299  84.943  87.341  1.00  0.00     0.000 G0
ATOM     20  C   UNL     1      94.331  86.376  90.092  1.00  0.00    -0.008 C 
ATOM     21  O   UNL     1      95.618  87.617  88.522  1.00  0.00    -0.291 OA
ATOM     22  C   UNL     1      94.144  87.428  91.112  1.00  0.00     0.048 C 
BRANCH  16  23
ATOM     23  O   UNL     1      94.032  85.732  86.934  1.00  0.00    -0.381 OA
ATOM     24  H   UNL     1      93.761  84.937  86.446  1.00  0.00     0.212 HD
ENDBRANCH  16  23
ENDBRANCH   6  15
BRANCH   7  25
ATOM     25  C   UNL     1      93.194  79.793  89.792  1.00  0.00     0.135 C 
BRANCH  25  26
ATOM     26  C   UNL     1      94.579  79.195  89.797  1.00  0.00    -0.040 A 
ATOM     27  C   UNL     1      94.802  77.948  89.214  1.00  0.00     0.004 A 
ATOM     28  C   UNL     1      95.636  79.890  90.383  1.00  0.00     0.004 A 
ATOM     29  C   UNL     1      96.083  77.395  89.218  1.00  0.00     0.000 A 
ATOM     30  C   UNL     1      96.917  79.338  90.388  1.00  0.00     0.000 A 
ATOM     31  C   UNL     1      97.140  78.090  89.805  1.00  0.00     0.000 A 
ENDBRANCH  25  26
ENDBRANCH   7  25
BRANCH  14  32
ATOM     32  C   UNL     1      90.934  80.560  86.056  1.00  0.00    -0.046 C 
ATOM     33  C   UNL     1      89.525  81.002  85.797  1.00  0.00     0.042 C 
ATOM     34  C   UNL     1      91.439  79.444  85.508  1.00  0.00     0.010 C 
ENDBRANCH  14  32
ENDBRANCH   3   4
BRANCH   2  35
ATOM     35  C   UNL     1      96.300  84.946  87.322  1.00  0.00     0.078 CG0
ATOM     36  G   UNL     1      94.960  85.350  87.936  1.00  0.00     0.000 G0
ENDBRANCH   2  35
ENDBRANCH   1   2
BRANCH   1  37
ATOM     37  O   UNL     1      97.931  82.847  85.098  1.00  0.00    -0.461 OA
BRANCH  37  38
ATOM     38  C   UNL     1      98.968  82.031  84.708  1.00  0.00     0.310 C 
ATOM     39  O   UNL     1     100.090  82.041  85.195  1.00  0.00    -0.252 OA
BRANCH  38  40
ATOM     40  C   UNL     1      98.506  81.127  83.590  1.00  0.00     0.158 C 
BRANCH  40  41
ATOM     41  C   UNL     1      98.926  81.616  82.227  1.00  0.00    -0.033 A 
ATOM     42  C   UNL     1      99.846  80.883  81.476  1.00  0.00     0.054 A 
ATOM     43  C   UNL     1      98.395  82.800  81.717  1.00  0.00     0.008 A 
ATOM     44  C   UNL     1     100.234  81.336  80.215  1.00  0.00     0.160 A 
ATOM     45  C   UNL     1      98.783  83.253  80.456  1.00  0.00     0.050 A 
ATOM     46  C   UNL     1      99.703  82.521  79.705  1.00  0.00     0.157 A 
BRANCH  44  47
ATOM     47  O   UNL     1     101.133  80.612  79.492  1.00  0.00    -0.493 OA
ATOM     48  C   UNL     1     101.223  79.217  79.778  1.00  0.00     0.278 C 
ENDBRANCH  44  47
BRANCH  46  49
ATOM     49  O   UNL     1     100.074  82.972  78.475  1.00  0.00    -0.504 OA
ATOM     50  H   UNL     1     100.975  82.663  78.283  1.00  0.00     0.293 HD
ENDBRANCH  46  49
ENDBRANCH  40  41
ENDBRANCH  38  40
ENDBRANCH  37  38
ENDBRANCH   1  37
TORSDOF 11
ENDMDL
