MODEL 1
REMARK VINA RESULT:    -5.894      0.000      0.000
REMARK INTER + INTRA:          -9.946
REMARK INTER:                  -9.168
REMARK INTRA:                  -0.777
REMARK UNBOUND:                -0.777
REMARK SMILES COc1cc(CNC(=O)CCCC/C=C/C(C)C)ccc1O
REMARK SMILES IDX 10 1 8 2 7 3 9 5 6 6 5 7 3 8 21 9 4 10 20 11 19 12 2 13 1 14
REMARK SMILES IDX 22 15 11 17 12 18 13 19 14 20 15 21 16 22 17 23 18 24
REMARK H PARENT 7 4 22 16
REMARK Flexibility Score: inf
ROOT
ATOM      1  C   UNL     1      93.808  83.615  85.586  1.00  0.00     0.100 C 
ENDROOT
BRANCH   1   2
ATOM      2  C   UNL     1      94.918  84.137  84.766  1.00  0.00     0.220 C 
ATOM      3  N   UNL     1      95.164  83.624  83.528  1.00  0.00    -0.352 N 
ATOM      4  H   UNL     1      94.554  82.868  83.250  1.00  0.00     0.163 HD
ATOM      5  O   UNL     1      95.608  85.076  85.232  1.00  0.00    -0.275 OA
BRANCH   3   6
ATOM      6  C   UNL     1      96.191  84.080  82.646  1.00  0.00     0.151 C 
BRANCH   6   7
ATOM      7  C   UNL     1      96.654  82.994  81.740  1.00  0.00    -0.025 A 
ATOM      8  C   UNL     1      97.033  80.600  81.306  1.00  0.00     0.160 A 
ATOM      9  C   UNL     1      97.516  80.909  80.018  1.00  0.00     0.157 A 
ATOM     10  C   UNL     1      96.609  81.644  82.155  1.00  0.00     0.056 A 
ATOM     11  C   UNL     1      97.586  82.252  79.597  1.00  0.00     0.050 A 
ATOM     12  C   UNL     1      97.149  83.287  80.447  1.00  0.00     0.009 A 
BRANCH   8  13
ATOM     13  O   UNL     1      97.025  79.300  81.744  1.00  0.00    -0.493 OA
ATOM     14  C   UNL     1      98.169  78.943  82.542  1.00  0.00     0.278 C 
ENDBRANCH   8  13
BRANCH   9  15
ATOM     15  O   UNL     1      97.920  79.927  79.171  1.00  0.00    -0.504 OA
ATOM     16  H   UNL     1      97.657  80.148  78.274  1.00  0.00     0.293 HD
ENDBRANCH   9  15
ENDBRANCH   6   7
ENDBRANCH   3   6
ENDBRANCH   1   2
BRANCH   1  17
ATOM     17  C   UNL     1      93.157  82.363  84.938  1.00  0.00     0.010 C 
BRANCH  17  18
ATOM     18  C   UNL     1      91.712  82.100  85.447  1.00  0.00     0.005 C 
BRANCH  18  19
ATOM     19  C   UNL     1      90.719  81.822  84.287  1.00  0.00     0.027 C 
BRANCH  19  20
ATOM     20  C   UNL     1      90.538  80.397  84.051  1.00  0.00    -0.031 C 
ATOM     21  C   UNL     1      91.542  79.502  84.027  1.00  0.00    -0.028 C 
BRANCH  21  22
ATOM     22  C   UNL     1      91.335  78.070  83.808  1.00  0.00     0.005 C 
ATOM     23  C   UNL     1      92.525  77.217  84.326  1.00  0.00     0.012 C 
ATOM     24  C   UNL     1      90.003  77.615  84.459  1.00  0.00     0.012 C 
ENDBRANCH  21  22
ENDBRANCH  19  20
ENDBRANCH  18  19
ENDBRANCH  17  18
ENDBRANCH   1  17
TORSDOF 10
ENDMDL
MODEL 2
REMARK VINA RESULT:    -5.850      3.226      8.078
REMARK INTER + INTRA:          -9.876
REMARK INTER:                  -9.353
REMARK INTRA:                  -0.522
REMARK UNBOUND:                -0.777
REMARK SMILES COc1cc(CNC(=O)CCCC/C=C/C(C)C)ccc1O
REMARK SMILES IDX 10 1 8 2 7 3 9 5 6 6 5 7 3 8 21 9 4 10 20 11 19 12 2 13 1 14
REMARK SMILES IDX 22 15 11 17 12 18 13 19 14 20 15 21 16 22 17 23 18 24
REMARK H PARENT 7 4 22 16
REMARK Flexibility Score: inf
ROOT
ATOM      1  C   UNL     1      96.274  83.929  82.456  1.00  0.00     0.100 C 
ENDROOT
BRANCH   1   2
ATOM      2  C   UNL     1      95.808  83.209  83.657  1.00  0.00     0.220 C 
ATOM      3  N   UNL     1      95.195  81.997  83.543  1.00  0.00    -0.352 N 
ATOM      4  H   UNL     1      95.074  81.668  82.595  1.00  0.00     0.163 HD
ATOM      5  O   UNL     1      96.015  83.732  84.779  1.00  0.00    -0.275 OA
BRANCH   3   6
ATOM      6  C   UNL     1      94.738  81.208  84.642  1.00  0.00     0.151 C 
BRANCH   6   7
ATOM      7  C   UNL     1      93.273  80.958  84.563  1.00  0.00    -0.025 A 
ATOM      8  C   UNL     1      91.377  79.388  84.591  1.00  0.00     0.160 A 
ATOM      9  C   UNL     1      90.481  80.465  84.435  1.00  0.00     0.157 A 
ATOM     10  C   UNL     1      92.763  79.643  84.651  1.00  0.00     0.056 A 
ATOM     11  C   UNL     1      90.976  81.780  84.326  1.00  0.00     0.050 A 
ATOM     12  C   UNL     1      92.361  82.027  84.399  1.00  0.00     0.009 A 
BRANCH   8  13
ATOM     13  O   UNL     1      90.904  78.100  84.631  1.00  0.00    -0.493 OA
ATOM     14  C   UNL     1      91.709  77.157  83.900  1.00  0.00     0.278 C 
ENDBRANCH   8  13
BRANCH   9  15
ATOM     15  O   UNL     1      89.140  80.255  84.386  1.00  0.00    -0.504 OA
ATOM     16  H   UNL     1      88.795  80.179  85.279  1.00  0.00     0.293 HD
ENDBRANCH   9  15
ENDBRANCH   6   7
ENDBRANCH   3   6
ENDBRANCH   1   2
BRANCH   1  17
ATOM     17  C   UNL     1      96.869  82.957  81.401  1.00  0.00     0.010 C 
BRANCH  17  18
ATOM     18  C   UNL     1      96.686  83.463  79.942  1.00  0.00     0.005 C 
BRANCH  18  19
ATOM     19  C   UNL     1      97.691  82.805  78.959  1.00  0.00     0.027 C 
BRANCH  19  20
ATOM     20  C   UNL     1      97.782  83.532  77.702  1.00  0.00    -0.031 C 
ATOM     21  C   UNL     1      98.647  83.232  76.716  1.00  0.00    -0.028 C 
BRANCH  21  22
ATOM     22  C   UNL     1      98.709  83.966  75.452  1.00  0.00     0.005 C 
ATOM     23  C   UNL     1     100.169  84.173  74.961  1.00  0.00     0.012 C 
ATOM     24  C   UNL     1      97.860  83.245  74.372  1.00  0.00     0.012 C 
ENDBRANCH  21  22
ENDBRANCH  19  20
ENDBRANCH  18  19
ENDBRANCH  17  18
ENDBRANCH   1  17
TORSDOF 10
ENDMDL
MODEL 3
REMARK VINA RESULT:    -5.741      1.691      2.823
REMARK INTER + INTRA:          -9.706
REMARK INTER:                  -8.828
REMARK INTRA:                  -0.878
REMARK UNBOUND:                -0.777
REMARK SMILES COc1cc(CNC(=O)CCCC/C=C/C(C)C)ccc1O
REMARK SMILES IDX 10 1 8 2 7 3 9 5 6 6 5 7 3 8 21 9 4 10 20 11 19 12 2 13 1 14
REMARK SMILES IDX 22 15 11 17 12 18 13 19 14 20 15 21 16 22 17 23 18 24
REMARK H PARENT 7 4 22 16
REMARK Flexibility Score: inf
ROOT
ATOM      1  C   UNL     1      95.297  83.044  86.384  1.00  0.00     0.100 C 
ENDROOT
BRANCH   1   2
ATOM      2  C   UNL     1      95.951  83.690  85.229  1.00  0.00     0.220 C 
ATOM      3  N   UNL     1      95.464  83.509  83.970  1.00  0.00    -0.352 N 
ATOM      4  H   UNL     1      94.662  82.897  83.906  1.00  0.00     0.163 HD
ATOM      5  O   UNL     1      96.946  84.423  85.446  1.00  0.00    -0.275 OA
BRANCH   3   6
ATOM      6  C   UNL     1      96.002  84.113  82.793  1.00  0.00     0.151 C 
BRANCH   6   7
ATOM      7  C   UNL     1      96.518  83.092  81.842  1.00  0.00    -0.025 A 
ATOM      8  C   UNL     1      97.434  82.512  79.631  1.00  0.00     0.160 A 
ATOM      9  C   UNL     1      97.524  81.160  80.022  1.00  0.00     0.157 A 
ATOM     10  C   UNL     1      96.931  83.464  80.542  1.00  0.00     0.056 A 
ATOM     11  C   UNL     1      97.098  80.771  81.307  1.00  0.00     0.050 A 
ATOM     12  C   UNL     1      96.608  81.730  82.214  1.00  0.00     0.009 A 
BRANCH   8  13
ATOM     13  O   UNL     1      97.786  82.885  78.358  1.00  0.00    -0.493 OA
ATOM     14  C   UNL     1      96.730  83.530  77.623  1.00  0.00     0.278 C 
ENDBRANCH   8  13
BRANCH   9  15
ATOM     15  O   UNL     1      98.016  80.221  79.173  1.00  0.00    -0.504 OA
ATOM     16  H   UNL     1      97.360  79.531  79.043  1.00  0.00     0.293 HD
ENDBRANCH   9  15
ENDBRANCH   6   7
ENDBRANCH   3   6
ENDBRANCH   1   2
BRANCH   1  17
ATOM     17  C   UNL     1      95.278  81.499  86.241  1.00  0.00     0.010 C 
BRANCH  17  18
ATOM     18  C   UNL     1      94.821  80.776  87.540  1.00  0.00     0.005 C 
BRANCH  18  19
ATOM     19  C   UNL     1      93.288  80.531  87.571  1.00  0.00     0.027 C 
BRANCH  19  20
ATOM     20  C   UNL     1      92.817  79.862  86.368  1.00  0.00    -0.031 C 
ATOM     21  C   UNL     1      91.967  80.412  85.481  1.00  0.00    -0.028 C 
BRANCH  21  22
ATOM     22  C   UNL     1      91.521  79.728  84.267  1.00  0.00     0.005 C 
ATOM     23  C   UNL     1      91.037  78.279  84.551  1.00  0.00     0.012 C 
ATOM     24  C   UNL     1      90.413  80.554  83.563  1.00  0.00     0.012 C 
ENDBRANCH  21  22
ENDBRANCH  19  20
ENDBRANCH  18  19
ENDBRANCH  17  18
ENDBRANCH   1  17
TORSDOF 10
ENDMDL
MODEL 4
REMARK VINA RESULT:    -5.686      3.008      7.798
REMARK INTER + INTRA:          -9.621
REMARK INTER:                  -8.927
REMARK INTRA:                  -0.694
REMARK UNBOUND:                -0.777
REMARK SMILES COc1cc(CNC(=O)CCCC/C=C/C(C)C)ccc1O
REMARK SMILES IDX 10 1 8 2 7 3 9 5 6 6 5 7 3 8 21 9 4 10 20 11 19 12 2 13 1 14
REMARK SMILES IDX 22 15 11 17 12 18 13 19 14 20 15 21 16 22 17 23 18 24
REMARK H PARENT 7 4 22 16
REMARK Flexibility Score: inf
ROOT
ATOM      1  C   UNL     1      96.666  83.388  83.536  1.00  0.00     0.100 C 
ENDROOT
BRANCH   1   2
ATOM      2  C   UNL     1      95.524  83.548  84.456  1.00  0.00     0.220 C 
ATOM      3  N   UNL     1      94.287  83.094  84.108  1.00  0.00    -0.352 N 
ATOM      4  H   UNL     1      94.228  82.678  83.189  1.00  0.00     0.163 HD
ATOM      5  O   UNL     1      95.730  84.090  85.568  1.00  0.00    -0.275 OA
BRANCH   3   6
ATOM      6  C   UNL     1      93.127  83.172  84.937  1.00  0.00     0.151 C 
BRANCH   6   7
ATOM      7  C   UNL     1      92.271  81.962  84.794  1.00  0.00    -0.025 A 
ATOM      8  C   UNL     1      90.084  80.949  84.294  1.00  0.00     0.160 A 
ATOM      9  C   UNL     1      90.630  79.665  84.499  1.00  0.00     0.157 A 
ATOM     10  C   UNL     1      90.907  82.084  84.445  1.00  0.00     0.056 A 
ATOM     11  C   UNL     1      91.984  79.529  84.866  1.00  0.00     0.050 A 
ATOM     12  C   UNL     1      92.801  80.668  85.003  1.00  0.00     0.009 A 
BRANCH   8  13
ATOM     13  O   UNL     1      88.751  81.090  84.001  1.00  0.00    -0.493 OA
ATOM     14  C   UNL     1      88.089  82.119  84.760  1.00  0.00     0.278 C 
ENDBRANCH   8  13
BRANCH   9  15
ATOM     15  O   UNL     1      89.868  78.552  84.348  1.00  0.00    -0.504 OA
ATOM     16  H   UNL     1      89.030  78.673  84.800  1.00  0.00     0.293 HD
ENDBRANCH   9  15
ENDBRANCH   6   7
ENDBRANCH   3   6
ENDBRANCH   1   2
BRANCH   1  17
ATOM     17  C   UNL     1      96.449  82.206  82.553  1.00  0.00     0.010 C 
BRANCH  17  18
ATOM     18  C   UNL     1      97.143  82.426  81.180  1.00  0.00     0.005 C 
BRANCH  18  19
ATOM     19  C   UNL     1      97.401  81.092  80.428  1.00  0.00     0.027 C 
BRANCH  19  20
ATOM     20  C   UNL     1      98.821  80.814  80.279  1.00  0.00    -0.031 C 
ATOM     21  C   UNL     1      99.723  81.705  79.827  1.00  0.00    -0.028 C 
BRANCH  21  22
ATOM     22  C   UNL     1     101.150  81.409  79.704  1.00  0.00     0.005 C 
ATOM     23  C   UNL     1     101.543  80.090  80.424  1.00  0.00     0.012 C 
ATOM     24  C   UNL     1     101.562  81.367  78.209  1.00  0.00     0.012 C 
ENDBRANCH  21  22
ENDBRANCH  19  20
ENDBRANCH  18  19
ENDBRANCH  17  18
ENDBRANCH   1  17
TORSDOF 10
ENDMDL
MODEL 5
REMARK VINA RESULT:    -5.682     23.147     25.011
REMARK INTER + INTRA:          -9.615
REMARK INTER:                  -8.747
REMARK INTRA:                  -0.868
REMARK UNBOUND:                -0.777
REMARK SMILES COc1cc(CNC(=O)CCCC/C=C/C(C)C)ccc1O
REMARK SMILES IDX 10 1 8 2 7 3 9 5 6 6 5 7 3 8 21 9 4 10 20 11 19 12 2 13 1 14
REMARK SMILES IDX 22 15 11 17 12 18 13 19 14 20 15 21 16 22 17 23 18 24
REMARK H PARENT 7 4 22 16
REMARK Flexibility Score: inf
ROOT
ATOM      1  C   UNL     1      72.527  91.397  72.343  1.00  0.00     0.100 C 
ENDROOT
BRANCH   1   2
ATOM      2  C   UNL     1      72.498  91.758  73.774  1.00  0.00     0.220 C 
ATOM      3  N   UNL     1      73.605  92.273  74.379  1.00  0.00    -0.352 N 
ATOM      4  H   UNL     1      74.417  92.357  73.783  1.00  0.00     0.163 HD
ATOM      5  O   UNL     1      71.425  91.598  74.404  1.00  0.00    -0.275 OA
BRANCH   3   6
ATOM      6  C   UNL     1      73.671  92.683  75.745  1.00  0.00     0.151 C 
BRANCH   6   7
ATOM      7  C   UNL     1      74.956  93.372  76.047  1.00  0.00    -0.025 A 
ATOM      8  C   UNL     1      77.095  94.320  75.281  1.00  0.00     0.160 A 
ATOM      9  C   UNL     1      77.401  94.701  76.603  1.00  0.00     0.157 A 
ATOM     10  C   UNL     1      75.878  93.658  75.016  1.00  0.00     0.056 A 
ATOM     11  C   UNL     1      76.500  94.405  77.646  1.00  0.00     0.050 A 
ATOM     12  C   UNL     1      75.282  93.754  77.370  1.00  0.00     0.009 A 
BRANCH   8  13
ATOM     13  O   UNL     1      77.997  94.547  74.273  1.00  0.00    -0.493 OA
ATOM     14  C   UNL     1      77.556  95.506  73.294  1.00  0.00     0.278 C 
ENDBRANCH   8  13
BRANCH   9  15
ATOM     15  O   UNL     1      78.558  95.352  76.891  1.00  0.00    -0.504 OA
ATOM     16  H   UNL     1      78.478  95.786  77.743  1.00  0.00     0.293 HD
ENDBRANCH   9  15
ENDBRANCH   6   7
ENDBRANCH   3   6
ENDBRANCH   1   2
BRANCH   1  17
ATOM     17  C   UNL     1      73.595  92.214  71.567  1.00  0.00     0.010 C 
BRANCH  17  18
ATOM     18  C   UNL     1      74.574  91.317  70.759  1.00  0.00     0.005 C 
BRANCH  18  19
ATOM     19  C   UNL     1      73.986  89.908  70.476  1.00  0.00     0.027 C 
BRANCH  19  20
ATOM     20  C   UNL     1      74.821  89.140  69.564  1.00  0.00    -0.031 C 
ATOM     21  C   UNL     1      76.016  89.553  69.104  1.00  0.00    -0.028 C 
BRANCH  21  22
ATOM     22  C   UNL     1      76.848  88.755  68.203  1.00  0.00     0.005 C 
ATOM     23  C   UNL     1      76.725  87.232  68.482  1.00  0.00     0.012 C 
ATOM     24  C   UNL     1      76.500  89.077  66.726  1.00  0.00     0.012 C 
ENDBRANCH  21  22
ENDBRANCH  19  20
ENDBRANCH  18  19
ENDBRANCH  17  18
ENDBRANCH   1  17
TORSDOF 10
ENDMDL
MODEL 6
REMARK VINA RESULT:    -5.512      3.228      7.844
REMARK INTER + INTRA:          -9.350
REMARK INTER:                  -8.488
REMARK INTRA:                  -0.862
REMARK UNBOUND:                -0.777
REMARK SMILES COc1cc(CNC(=O)CCCC/C=C/C(C)C)ccc1O
REMARK SMILES IDX 10 1 8 2 7 3 9 5 6 6 5 7 3 8 21 9 4 10 20 11 19 12 2 13 1 14
REMARK SMILES IDX 22 15 11 17 12 18 13 19 14 20 15 21 16 22 17 23 18 24
REMARK H PARENT 7 4 22 16
REMARK Flexibility Score: inf
ROOT
ATOM      1  C   UNL     1      96.623  83.205  83.368  1.00  0.00     0.100 C 
ENDROOT
BRANCH   1   2
ATOM      2  C   UNL     1      95.798  83.767  84.455  1.00  0.00     0.220 C 
ATOM      3  N   UNL     1      94.442  83.635  84.433  1.00  0.00    -0.352 N 
ATOM      4  H   UNL     1      94.073  83.158  83.622  1.00  0.00     0.163 HD
ATOM      5  O   UNL     1      96.383  84.344  85.404  1.00  0.00    -0.275 OA
BRANCH   3   6
ATOM      6  C   UNL     1      93.560  84.113  85.449  1.00  0.00     0.151 C 
BRANCH   6   7
ATOM      7  C   UNL     1      93.391  83.115  86.540  1.00  0.00    -0.025 A 
ATOM      8  C   UNL     1      93.571  82.513  88.921  1.00  0.00     0.160 A 
ATOM      9  C   UNL     1      93.057  81.231  88.636  1.00  0.00     0.157 A 
ATOM     10  C   UNL     1      93.736  83.441  87.872  1.00  0.00     0.056 A 
ATOM     11  C   UNL     1      92.728  80.885  87.311  1.00  0.00     0.050 A 
ATOM     12  C   UNL     1      92.884  81.822  86.271  1.00  0.00     0.009 A 
BRANCH   8  13
ATOM     13  O   UNL     1      93.955  82.832  90.199  1.00  0.00    -0.493 OA
ATOM     14  C   UNL     1      95.372  83.033  90.353  1.00  0.00     0.278 C 
ENDBRANCH   8  13
BRANCH   9  15
ATOM     15  O   UNL     1      92.875  80.318  89.625  1.00  0.00    -0.504 OA
ATOM     16  H   UNL     1      93.656  80.288  90.182  1.00  0.00     0.293 HD
ENDBRANCH   9  15
ENDBRANCH   6   7
ENDBRANCH   3   6
ENDBRANCH   1   2
BRANCH   1  17
ATOM     17  C   UNL     1      96.091  81.823  82.901  1.00  0.00     0.010 C 
BRANCH  17  18
ATOM     18  C   UNL     1      96.935  81.207  81.751  1.00  0.00     0.005 C 
BRANCH  18  19
ATOM     19  C   UNL     1      98.101  82.134  81.312  1.00  0.00     0.027 C 
BRANCH  19  20
ATOM     20  C   UNL     1      98.145  82.312  79.869  1.00  0.00    -0.031 C 
ATOM     21  C   UNL     1      97.639  83.378  79.223  1.00  0.00    -0.028 C 
BRANCH  21  22
ATOM     22  C   UNL     1      97.712  83.546  77.771  1.00  0.00     0.005 C 
ATOM     23  C   UNL     1      98.178  82.251  77.051  1.00  0.00     0.012 C 
ATOM     24  C   UNL     1      96.346  84.026  77.218  1.00  0.00     0.012 C 
ENDBRANCH  21  22
ENDBRANCH  19  20
ENDBRANCH  18  19
ENDBRANCH  17  18
ENDBRANCH   1  17
TORSDOF 10
ENDMDL
MODEL 7
REMARK VINA RESULT:    -5.451     22.861     24.887
REMARK INTER + INTRA:          -9.256
REMARK INTER:                  -8.763
REMARK INTRA:                  -0.493
REMARK UNBOUND:                -0.777
REMARK SMILES COc1cc(CNC(=O)CCCC/C=C/C(C)C)ccc1O
REMARK SMILES IDX 10 1 8 2 7 3 9 5 6 6 5 7 3 8 21 9 4 10 20 11 19 12 2 13 1 14
REMARK SMILES IDX 22 15 11 17 12 18 13 19 14 20 15 21 16 22 17 23 18 24
REMARK H PARENT 7 4 22 16
REMARK Flexibility Score: inf
ROOT
ATOM      1  C   UNL     1      74.076  91.208  69.667  1.00  0.00     0.100 C 
ENDROOT
BRANCH   1   2
ATOM      2  C   UNL     1      73.758  91.956  70.899  1.00  0.00     0.220 C 
ATOM      3  N   UNL     1      74.749  92.548  71.624  1.00  0.00    -0.352 N 
ATOM      4  H   UNL     1      75.683  92.409  71.262  1.00  0.00     0.163 HD
ATOM      5  O   UNL     1      72.555  92.047  71.243  1.00  0.00    -0.275 OA
BRANCH   3   6
ATOM      6  C   UNL     1      74.544  93.318  72.809  1.00  0.00     0.151 C 
BRANCH   6   7
ATOM      7  C   UNL     1      75.684  94.239  73.066  1.00  0.00    -0.025 A 
ATOM      8  C   UNL     1      77.649  94.870  74.410  1.00  0.00     0.160 A 
ATOM      9  C   UNL     1      77.876  95.973  73.561  1.00  0.00     0.157 A 
ATOM     10  C   UNL     1      76.556  94.015  74.156  1.00  0.00     0.056 A 
ATOM     11  C   UNL     1      77.004  96.219  72.482  1.00  0.00     0.050 A 
ATOM     12  C   UNL     1      75.922  95.354  72.229  1.00  0.00     0.009 A 
BRANCH   8  13
ATOM     13  O   UNL     1      78.456  94.663  75.500  1.00  0.00    -0.493 OA
ATOM     14  C   UNL     1      77.866  95.063  76.750  1.00  0.00     0.278 C 
ENDBRANCH   8  13
BRANCH   9  15
ATOM     15  O   UNL     1      78.927  96.807  73.769  1.00  0.00    -0.504 OA
ATOM     16  H   UNL     1      79.512  96.427  74.428  1.00  0.00     0.293 HD
ENDBRANCH   9  15
ENDBRANCH   6   7
ENDBRANCH   3   6
ENDBRANCH   1   2
BRANCH   1  17
ATOM     17  C   UNL     1      74.938  89.952  69.966  1.00  0.00     0.010 C 
BRANCH  17  18
ATOM     18  C   UNL     1      75.197  89.082  68.703  1.00  0.00     0.005 C 
BRANCH  18  19
ATOM     19  C   UNL     1      76.693  88.696  68.549  1.00  0.00     0.027 C 
BRANCH  19  20
ATOM     20  C   UNL     1      76.900  87.259  68.649  1.00  0.00    -0.031 C 
ATOM     21  C   UNL     1      77.224  86.468  67.609  1.00  0.00    -0.028 C 
BRANCH  21  22
ATOM     22  C   UNL     1      77.447  85.028  67.736  1.00  0.00     0.005 C 
ATOM     23  C   UNL     1      76.504  84.376  68.785  1.00  0.00     0.012 C 
ATOM     24  C   UNL     1      77.299  84.339  66.355  1.00  0.00     0.012 C 
ENDBRANCH  21  22
ENDBRANCH  19  20
ENDBRANCH  18  19
ENDBRANCH  17  18
ENDBRANCH   1  17
TORSDOF 10
ENDMDL
MODEL 8
REMARK VINA RESULT:    -5.449      2.456      5.105
REMARK INTER + INTRA:          -9.252
REMARK INTER:                  -8.262
REMARK INTRA:                  -0.991
REMARK UNBOUND:                -0.777
REMARK SMILES COc1cc(CNC(=O)CCCC/C=C/C(C)C)ccc1O
REMARK SMILES IDX 10 1 8 2 7 3 9 5 6 6 5 7 3 8 21 9 4 10 20 11 19 12 2 13 1 14
REMARK SMILES IDX 22 15 11 17 12 18 13 19 14 20 15 21 16 22 17 23 18 24
REMARK H PARENT 7 4 22 16
REMARK Flexibility Score: inf
ROOT
ATOM      1  C   UNL     1      94.162  76.132  84.257  1.00  0.00     0.100 C 
ENDROOT
BRANCH   1   2
ATOM      2  C   UNL     1      95.426  76.833  83.961  1.00  0.00     0.220 C 
ATOM      3  N   UNL     1      95.424  77.981  83.226  1.00  0.00    -0.352 N 
ATOM      4  H   UNL     1      94.515  78.276  82.898  1.00  0.00     0.163 HD
ATOM      5  O   UNL     1      96.490  76.356  84.423  1.00  0.00    -0.275 OA
BRANCH   3   6
ATOM      6  C   UNL     1      96.586  78.749  82.912  1.00  0.00     0.151 C 
BRANCH   6   7
ATOM      7  C   UNL     1      96.296  80.209  82.928  1.00  0.00    -0.025 A 
ATOM      8  C   UNL     1      95.148  82.140  83.935  1.00  0.00     0.160 A 
ATOM      9  C   UNL     1      95.748  82.993  82.986  1.00  0.00     0.157 A 
ATOM     10  C   UNL     1      95.425  80.758  83.896  1.00  0.00     0.056 A 
ATOM     11  C   UNL     1      96.603  82.458  82.002  1.00  0.00     0.050 A 
ATOM     12  C   UNL     1      96.883  81.078  81.979  1.00  0.00     0.009 A 
BRANCH   8  13
ATOM     13  O   UNL     1      94.263  82.647  84.853  1.00  0.00    -0.493 OA
ATOM     14  C   UNL     1      92.882  82.390  84.541  1.00  0.00     0.278 C 
ENDBRANCH   8  13
BRANCH   9  15
ATOM     15  O   UNL     1      95.512  84.331  83.004  1.00  0.00    -0.504 OA
ATOM     16  H   UNL     1      94.690  84.505  83.468  1.00  0.00     0.293 HD
ENDBRANCH   9  15
ENDBRANCH   6   7
ENDBRANCH   3   6
ENDBRANCH   1   2
BRANCH   1  17
ATOM     17  C   UNL     1      93.103  76.368  83.147  1.00  0.00     0.010 C 
BRANCH  17  18
ATOM     18  C   UNL     1      91.770  76.951  83.696  1.00  0.00     0.005 C 
BRANCH  18  19
ATOM     19  C   UNL     1      91.869  78.471  83.997  1.00  0.00     0.027 C 
BRANCH  19  20
ATOM     20  C   UNL     1      90.585  79.037  84.382  1.00  0.00    -0.031 C 
ATOM     21  C   UNL     1      90.113  80.214  83.932  1.00  0.00    -0.028 C 
BRANCH  21  22
ATOM     22  C   UNL     1      88.810  80.755  84.317  1.00  0.00     0.005 C 
ATOM     23  C   UNL     1      88.839  82.300  84.480  1.00  0.00     0.012 C 
ATOM     24  C   UNL     1      87.727  80.328  83.292  1.00  0.00     0.012 C 
ENDBRANCH  21  22
ENDBRANCH  19  20
ENDBRANCH  18  19
ENDBRANCH  17  18
ENDBRANCH   1  17
TORSDOF 10
ENDMDL
MODEL 9
REMARK VINA RESULT:    -5.354     17.894     20.485
REMARK INTER + INTRA:          -9.104
REMARK INTER:                  -8.344
REMARK INTRA:                  -0.760
REMARK UNBOUND:                -0.777
REMARK SMILES COc1cc(CNC(=O)CCCC/C=C/C(C)C)ccc1O
REMARK SMILES IDX 10 1 8 2 7 3 9 5 6 6 5 7 3 8 21 9 4 10 20 11 19 12 2 13 1 14
REMARK SMILES IDX 22 15 11 17 12 18 13 19 14 20 15 21 16 22 17 23 18 24
REMARK H PARENT 7 4 22 16
REMARK Flexibility Score: inf
ROOT
ATOM      1  C   UNL     1      93.959 100.420  72.594  1.00  0.00     0.100 C 
ENDROOT
BRANCH   1   2
ATOM      2  C   UNL     1      94.277  98.979  72.589  1.00  0.00     0.220 C 
ATOM      3  N   UNL     1      94.402  98.294  73.760  1.00  0.00    -0.352 N 
ATOM      4  H   UNL     1      94.284  98.851  74.595  1.00  0.00     0.163 HD
ATOM      5  O   UNL     1      94.405  98.405  71.480  1.00  0.00    -0.275 OA
BRANCH   3   6
ATOM      6  C   UNL     1      94.675  96.896  73.862  1.00  0.00     0.151 C 
BRANCH   6   7
ATOM      7  C   UNL     1      93.992  96.289  75.037  1.00  0.00    -0.025 A 
ATOM      8  C   UNL     1      92.382  94.674  75.963  1.00  0.00     0.160 A 
ATOM      9  C   UNL     1      92.695  95.108  77.268  1.00  0.00     0.157 A 
ATOM     10  C   UNL     1      93.031  95.269  74.861  1.00  0.00     0.056 A 
ATOM     11  C   UNL     1      93.637  96.138  77.457  1.00  0.00     0.050 A 
ATOM     12  C   UNL     1      94.289  96.718  76.352  1.00  0.00     0.009 A 
BRANCH   8  13
ATOM     13  O   UNL     1      91.417  93.718  75.770  1.00  0.00    -0.493 OA
ATOM     14  C   UNL     1      90.232  94.204  75.113  1.00  0.00     0.278 C 
ENDBRANCH   8  13
BRANCH   9  15
ATOM     15  O   UNL     1      92.098  94.547  78.351  1.00  0.00    -0.504 OA
ATOM     16  H   UNL     1      91.667  95.230  78.869  1.00  0.00     0.293 HD
ENDBRANCH   9  15
ENDBRANCH   6   7
ENDBRANCH   3   6
ENDBRANCH   1   2
BRANCH   1  17
ATOM     17  C   UNL     1      92.426 100.667  72.599  1.00  0.00     0.010 C 
BRANCH  17  18
ATOM     18  C   UNL     1      92.016 101.903  73.449  1.00  0.00     0.005 C 
BRANCH  18  19
ATOM     19  C   UNL     1      90.497 102.212  73.347  1.00  0.00     0.027 C 
BRANCH  19  20
ATOM     20  C   UNL     1      89.930 101.759  72.085  1.00  0.00    -0.031 C 
ATOM     21  C   UNL     1      89.457 102.580  71.131  1.00  0.00    -0.028 C 
BRANCH  21  22
ATOM     22  C   UNL     1      88.909 102.103  69.861  1.00  0.00     0.005 C 
ATOM     23  C   UNL     1      89.616 100.812  69.362  1.00  0.00     0.012 C 
ATOM     24  C   UNL     1      87.379 101.883  69.987  1.00  0.00     0.012 C 
ENDBRANCH  21  22
ENDBRANCH  19  20
ENDBRANCH  18  19
ENDBRANCH  17  18
ENDBRANCH   1  17
TORSDOF 10
ENDMDL
MODEL 10
REMARK VINA RESULT:    -5.234     17.726     20.584
REMARK INTER + INTRA:          -8.918
REMARK INTER:                  -8.282
REMARK INTRA:                  -0.636
REMARK UNBOUND:                -0.777
REMARK SMILES COc1cc(CNC(=O)CCCC/C=C/C(C)C)ccc1O
REMARK SMILES IDX 10 1 8 2 7 3 9 5 6 6 5 7 3 8 21 9 4 10 20 11 19 12 2 13 1 14
REMARK SMILES IDX 22 15 11 17 12 18 13 19 14 20 15 21 16 22 17 23 18 24
REMARK H PARENT 7 4 22 16
REMARK Flexibility Score: inf
ROOT
ATOM      1  C   UNL     1      94.440 100.791  73.974  1.00  0.00     0.100 C 
ENDROOT
BRANCH   1   2
ATOM      2  C   UNL     1      94.266  99.386  73.558  1.00  0.00     0.220 C 
ATOM      3  N   UNL     1      94.573  98.369  74.412  1.00  0.00    -0.352 N 
ATOM      4  H   UNL     1      94.938  98.660  75.308  1.00  0.00     0.163 HD
ATOM      5  O   UNL     1      93.808  99.161  72.412  1.00  0.00    -0.275 OA
BRANCH   3   6
ATOM      6  C   UNL     1      94.410  96.981  74.118  1.00  0.00     0.151 C 
BRANCH   6   7
ATOM      7  C   UNL     1      93.733  96.263  75.231  1.00  0.00    -0.025 A 
ATOM      8  C   UNL     1      92.153  94.538  76.002  1.00  0.00     0.160 A 
ATOM      9  C   UNL     1      92.446  94.869  77.342  1.00  0.00     0.157 A 
ATOM     10  C   UNL     1      92.797  95.239  74.961  1.00  0.00     0.056 A 
ATOM     11  C   UNL     1      93.362  95.901  77.627  1.00  0.00     0.050 A 
ATOM     12  C   UNL     1      94.008  96.586  76.580  1.00  0.00     0.009 A 
BRANCH   8  13
ATOM     13  O   UNL     1      91.214  93.580  75.720  1.00  0.00    -0.493 OA
ATOM     14  C   UNL     1      89.968  94.107  75.227  1.00  0.00     0.278 C 
ENDBRANCH   8  13
BRANCH   9  15
ATOM     15  O   UNL     1      91.854  94.205  78.368  1.00  0.00    -0.504 OA
ATOM     16  H   UNL     1      92.412  93.473  78.641  1.00  0.00     0.293 HD
ENDBRANCH   9  15
ENDBRANCH   6   7
ENDBRANCH   3   6
ENDBRANCH   1   2
BRANCH   1  17
ATOM     17  C   UNL     1      93.611 101.759  73.087  1.00  0.00     0.010 C 
BRANCH  17  18
ATOM     18  C   UNL     1      92.202 102.057  73.671  1.00  0.00     0.005 C 
BRANCH  18  19
ATOM     19  C   UNL     1      91.993 103.567  73.967  1.00  0.00     0.027 C 
BRANCH  19  20
ATOM     20  C   UNL     1      92.539 103.952  75.260  1.00  0.00    -0.031 C 
ATOM     21  C   UNL     1      91.820 104.522  76.244  1.00  0.00    -0.028 C 
BRANCH  21  22
ATOM     22  C   UNL     1      92.385 104.883  77.544  1.00  0.00     0.005 C 
ATOM     23  C   UNL     1      93.391 106.063  77.442  1.00  0.00     0.012 C 
ATOM     24  C   UNL     1      91.251 105.210  78.550  1.00  0.00     0.012 C 
ENDBRANCH  21  22
ENDBRANCH  19  20
ENDBRANCH  18  19
ENDBRANCH  17  18
ENDBRANCH   1  17
TORSDOF 10
ENDMDL
