MODEL 1
REMARK VINA RESULT:    -6.575      0.000      0.000
REMARK INTER + INTRA:         -11.049
REMARK INTER:                 -10.227
REMARK INTRA:                  -0.822
REMARK UNBOUND:                -0.822
REMARK SMILES COc1cc(CNC(=O)CCCC/C=C/C(C)C)ccc1O
REMARK SMILES IDX 10 1 8 2 7 3 9 5 6 6 5 7 3 8 21 9 4 10 20 11 19 12 2 13 1 14
REMARK SMILES IDX 22 15 11 17 12 18 13 19 14 20 15 21 16 22 17 23 18 24
REMARK H PARENT 7 4 22 16
REMARK Flexibility Score: inf
ROOT
ATOM      1  C   UNL     1      92.923  93.324  75.019  1.00  0.00     0.100 C 
ENDROOT
BRANCH   1   2
ATOM      2  C   UNL     1      93.874  94.372  75.437  1.00  0.00     0.220 C 
ATOM      3  N   UNL     1      94.901  94.076  76.283  1.00  0.00    -0.352 N 
ATOM      4  H   UNL     1      94.929  93.116  76.600  1.00  0.00     0.163 HD
ATOM      5  O   UNL     1      93.722  95.528  74.975  1.00  0.00    -0.275 OA
BRANCH   3   6
ATOM      6  C   UNL     1      95.890  95.007  76.722  1.00  0.00     0.151 C 
BRANCH   6   7
ATOM      7  C   UNL     1      96.112  94.918  78.191  1.00  0.00    -0.025 A 
ATOM      8  C   UNL     1      97.275  95.689  80.219  1.00  0.00     0.160 A 
ATOM      9  C   UNL     1      96.533  94.774  80.994  1.00  0.00     0.157 A 
ATOM     10  C   UNL     1      97.060  95.751  78.826  1.00  0.00     0.056 A 
ATOM     11  C   UNL     1      95.598  93.924  80.371  1.00  0.00     0.050 A 
ATOM     12  C   UNL     1      95.381  94.001  78.982  1.00  0.00     0.009 A 
BRANCH   8  13
ATOM     13  O   UNL     1      98.233  96.473  80.810  1.00  0.00    -0.493 OA
ATOM     14  C   UNL     1      99.556  95.907  80.779  1.00  0.00     0.278 C 
ENDBRANCH   8  13
BRANCH   9  15
ATOM     15  O   UNL     1      96.707  94.699  82.338  1.00  0.00    -0.504 OA
ATOM     16  H   UNL     1      96.691  93.779  82.613  1.00  0.00     0.293 HD
ENDBRANCH   9  15
ENDBRANCH   6   7
ENDBRANCH   3   6
ENDBRANCH   1   2
BRANCH   1  17
ATOM     17  C   UNL     1      91.567  93.451  75.764  1.00  0.00     0.010 C 
BRANCH  17  18
ATOM     18  C   UNL     1      91.589  92.799  77.175  1.00  0.00     0.005 C 
BRANCH  18  19
ATOM     19  C   UNL     1      90.187  92.300  77.617  1.00  0.00     0.027 C 
BRANCH  19  20
ATOM     20  C   UNL     1      90.073  90.851  77.541  1.00  0.00    -0.031 C 
ATOM     21  C   UNL     1      90.576  90.105  76.541  1.00  0.00    -0.028 C 
BRANCH  21  22
ATOM     22  C   UNL     1      90.466  88.647  76.495  1.00  0.00     0.005 C 
ATOM     23  C   UNL     1      89.938  88.053  77.830  1.00  0.00     0.012 C 
ATOM     24  C   UNL     1      89.571  88.214  75.305  1.00  0.00     0.012 C 
ENDBRANCH  21  22
ENDBRANCH  19  20
ENDBRANCH  18  19
ENDBRANCH  17  18
ENDBRANCH   1  17
TORSDOF 10
ENDMDL
MODEL 2
REMARK VINA RESULT:    -6.401      2.307      3.304
REMARK INTER + INTRA:         -10.778
REMARK INTER:                  -9.855
REMARK INTRA:                  -0.923
REMARK UNBOUND:                -0.822
REMARK SMILES COc1cc(CNC(=O)CCCC/C=C/C(C)C)ccc1O
REMARK SMILES IDX 10 1 8 2 7 3 9 5 6 6 5 7 3 8 21 9 4 10 20 11 19 12 2 13 1 14
REMARK SMILES IDX 22 15 11 17 12 18 13 19 14 20 15 21 16 22 17 23 18 24
REMARK H PARENT 7 4 22 16
REMARK Flexibility Score: inf
ROOT
ATOM      1  C   UNL     1      90.642  92.793  77.209  1.00  0.00     0.100 C 
ENDROOT
BRANCH   1   2
ATOM      2  C   UNL     1      91.978  92.937  76.601  1.00  0.00     0.220 C 
ATOM      3  N   UNL     1      92.916  93.742  77.175  1.00  0.00    -0.352 N 
ATOM      4  H   UNL     1      92.610  94.227  78.007  1.00  0.00     0.163 HD
ATOM      5  O   UNL     1      92.229  92.283  75.560  1.00  0.00    -0.275 OA
BRANCH   3   6
ATOM      6  C   UNL     1      94.245  93.925  76.684  1.00  0.00     0.151 C 
BRANCH   6   7
ATOM      7  C   UNL     1      95.140  94.492  77.729  1.00  0.00    -0.025 A 
ATOM      8  C   UNL     1      97.204  95.685  78.346  1.00  0.00     0.160 A 
ATOM      9  C   UNL     1      96.850  95.595  79.708  1.00  0.00     0.157 A 
ATOM     10  C   UNL     1      96.348  95.131  77.370  1.00  0.00     0.056 A 
ATOM     11  C   UNL     1      95.658  94.944  80.082  1.00  0.00     0.050 A 
ATOM     12  C   UNL     1      94.804  94.404  79.100  1.00  0.00     0.009 A 
BRANCH   8  13
ATOM     13  O   UNL     1      98.395  96.260  77.981  1.00  0.00    -0.493 OA
ATOM     14  C   UNL     1      98.275  97.622  77.532  1.00  0.00     0.278 C 
ENDBRANCH   8  13
BRANCH   9  15
ATOM     15  O   UNL     1      97.645  96.130  80.670  1.00  0.00    -0.504 OA
ATOM     16  H   UNL     1      97.860  97.037  80.442  1.00  0.00     0.293 HD
ENDBRANCH   9  15
ENDBRANCH   6   7
ENDBRANCH   3   6
ENDBRANCH   1   2
BRANCH   1  17
ATOM     17  C   UNL     1      90.320  91.311  77.540  1.00  0.00     0.010 C 
BRANCH  17  18
ATOM     18  C   UNL     1      89.168  90.733  76.671  1.00  0.00     0.005 C 
BRANCH  18  19
ATOM     19  C   UNL     1      89.670  89.674  75.652  1.00  0.00     0.027 C 
BRANCH  19  20
ATOM     20  C   UNL     1      89.473  90.102  74.276  1.00  0.00    -0.031 C 
ATOM     21  C   UNL     1      89.261  91.378  73.903  1.00  0.00    -0.028 C 
BRANCH  21  22
ATOM     22  C   UNL     1      89.085  91.788  72.511  1.00  0.00     0.005 C 
ATOM     23  C   UNL     1      89.334  93.309  72.309  1.00  0.00     0.012 C 
ATOM     24  C   UNL     1      90.004  90.950  71.585  1.00  0.00     0.012 C 
ENDBRANCH  21  22
ENDBRANCH  19  20
ENDBRANCH  18  19
ENDBRANCH  17  18
ENDBRANCH   1  17
TORSDOF 10
ENDMDL
MODEL 3
REMARK VINA RESULT:    -6.324      3.261      8.214
REMARK INTER + INTRA:         -10.659
REMARK INTER:                  -9.872
REMARK INTRA:                  -0.787
REMARK UNBOUND:                -0.822
REMARK SMILES COc1cc(CNC(=O)CCCC/C=C/C(C)C)ccc1O
REMARK SMILES IDX 10 1 8 2 7 3 9 5 6 6 5 7 3 8 21 9 4 10 20 11 19 12 2 13 1 14
REMARK SMILES IDX 22 15 11 17 12 18 13 19 14 20 15 21 16 22 17 23 18 24
REMARK H PARENT 7 4 22 16
REMARK Flexibility Score: inf
ROOT
ATOM      1  C   UNL     1      92.472  94.321  76.400  1.00  0.00     0.100 C 
ENDROOT
BRANCH   1   2
ATOM      2  C   UNL     1      91.863  93.173  75.700  1.00  0.00     0.220 C 
ATOM      3  N   UNL     1      90.529  92.922  75.813  1.00  0.00    -0.352 N 
ATOM      4  H   UNL     1      90.025  93.557  76.417  1.00  0.00     0.163 HD
ATOM      5  O   UNL     1      92.604  92.456  74.984  1.00  0.00    -0.275 OA
BRANCH   3   6
ATOM      6  C   UNL     1      89.840  91.860  75.153  1.00  0.00     0.151 C 
BRANCH   6   7
ATOM      7  C   UNL     1      89.945  90.584  75.913  1.00  0.00    -0.025 A 
ATOM      8  C   UNL     1      89.747  89.347  78.032  1.00  0.00     0.160 A 
ATOM      9  C   UNL     1      90.122  88.157  77.374  1.00  0.00     0.157 A 
ATOM     10  C   UNL     1      89.664  90.548  77.298  1.00  0.00     0.056 A 
ATOM     11  C   UNL     1      90.424  88.182  75.998  1.00  0.00     0.050 A 
ATOM     12  C   UNL     1      90.327  89.384  75.270  1.00  0.00     0.009 A 
BRANCH   8  13
ATOM     13  O   UNL     1      89.516  89.341  79.385  1.00  0.00    -0.493 OA
ATOM     14  C   UNL     1      90.450  90.131  80.143  1.00  0.00     0.278 C 
ENDBRANCH   8  13
BRANCH   9  15
ATOM     15  O   UNL     1      90.198  86.982  78.049  1.00  0.00    -0.504 OA
ATOM     16  H   UNL     1      89.380  86.493  77.935  1.00  0.00     0.293 HD
ENDBRANCH   9  15
ENDBRANCH   6   7
ENDBRANCH   3   6
ENDBRANCH   1   2
BRANCH   1  17
ATOM     17  C   UNL     1      93.917  94.005  76.869  1.00  0.00     0.010 C 
BRANCH  17  18
ATOM     18  C   UNL     1      94.979  94.944  76.231  1.00  0.00     0.005 C 
BRANCH  18  19
ATOM     19  C   UNL     1      96.215  95.147  77.148  1.00  0.00     0.027 C 
BRANCH  19  20
ATOM     20  C   UNL     1      95.882  95.001  78.557  1.00  0.00    -0.031 C 
ATOM     21  C   UNL     1      96.139  95.930  79.495  1.00  0.00    -0.028 C 
BRANCH  21  22
ATOM     22  C   UNL     1      95.777  95.770  80.903  1.00  0.00     0.005 C 
ATOM     23  C   UNL     1      95.921  94.299  81.385  1.00  0.00     0.012 C 
ATOM     24  C   UNL     1      96.621  96.726  81.786  1.00  0.00     0.012 C 
ENDBRANCH  21  22
ENDBRANCH  19  20
ENDBRANCH  18  19
ENDBRANCH  17  18
ENDBRANCH   1  17
TORSDOF 10
ENDMDL
MODEL 4
REMARK VINA RESULT:    -6.006     21.125     22.624
REMARK INTER + INTRA:         -10.164
REMARK INTER:                  -8.488
REMARK INTRA:                  -1.676
REMARK UNBOUND:                -0.822
REMARK SMILES COc1cc(CNC(=O)CCCC/C=C/C(C)C)ccc1O
REMARK SMILES IDX 10 1 8 2 7 3 9 5 6 6 5 7 3 8 21 9 4 10 20 11 19 12 2 13 1 14
REMARK SMILES IDX 22 15 11 17 12 18 13 19 14 20 15 21 16 22 17 23 18 24
REMARK H PARENT 7 4 22 16
REMARK Flexibility Score: inf
ROOT
ATOM      1  C   UNL     1      74.484  90.846  67.130  1.00  0.00     0.100 C 
ENDROOT
BRANCH   1   2
ATOM      2  C   UNL     1      75.059  90.190  65.940  1.00  0.00     0.220 C 
ATOM      3  N   UNL     1      76.409  90.140  65.763  1.00  0.00    -0.352 N 
ATOM      4  H   UNL     1      76.951  90.598  66.483  1.00  0.00     0.163 HD
ATOM      5  O   UNL     1      74.273  89.664  65.116  1.00  0.00    -0.275 OA
BRANCH   3   6
ATOM      6  C   UNL     1      77.065  89.503  64.666  1.00  0.00     0.151 C 
BRANCH   6   7
ATOM      7  C   UNL     1      77.497  88.122  65.015  1.00  0.00    -0.025 A 
ATOM      8  C   UNL     1      77.861  85.777  64.360  1.00  0.00     0.160 A 
ATOM      9  C   UNL     1      78.336  85.488  65.656  1.00  0.00     0.157 A 
ATOM     10  C   UNL     1      77.445  87.089  64.052  1.00  0.00     0.056 A 
ATOM     11  C   UNL     1      78.375  86.504  66.632  1.00  0.00     0.050 A 
ATOM     12  C   UNL     1      77.969  87.814  66.312  1.00  0.00     0.009 A 
BRANCH   8  13
ATOM     13  O   UNL     1      77.759  84.777  63.427  1.00  0.00    -0.493 OA
ATOM     14  C   UNL     1      76.437  84.220  63.306  1.00  0.00     0.278 C 
ENDBRANCH   8  13
BRANCH   9  15
ATOM     15  O   UNL     1      78.757  84.238  65.981  1.00  0.00    -0.504 OA
ATOM     16  H   UNL     1      79.509  84.298  66.576  1.00  0.00     0.293 HD
ENDBRANCH   9  15
ENDBRANCH   6   7
ENDBRANCH   3   6
ENDBRANCH   1   2
BRANCH   1  17
ATOM     17  C   UNL     1      75.154  90.347  68.439  1.00  0.00     0.010 C 
BRANCH  17  18
ATOM     18  C   UNL     1      74.176  89.561  69.357  1.00  0.00     0.005 C 
BRANCH  18  19
ATOM     19  C   UNL     1      73.431  88.431  68.596  1.00  0.00     0.027 C 
BRANCH  19  20
ATOM     20  C   UNL     1      74.347  87.438  68.057  1.00  0.00    -0.031 C 
ATOM     21  C   UNL     1      74.502  86.200  68.559  1.00  0.00    -0.028 C 
BRANCH  21  22
ATOM     22  C   UNL     1      75.415  85.210  67.988  1.00  0.00     0.005 C 
ATOM     23  C   UNL     1      75.695  84.034  68.965  1.00  0.00     0.012 C 
ATOM     24  C   UNL     1      74.862  84.687  66.637  1.00  0.00     0.012 C 
ENDBRANCH  21  22
ENDBRANCH  19  20
ENDBRANCH  18  19
ENDBRANCH  17  18
ENDBRANCH   1  17
TORSDOF 10
ENDMDL
MODEL 5
REMARK VINA RESULT:    -5.959     27.286     31.470
REMARK INTER + INTRA:         -10.091
REMARK INTER:                  -9.336
REMARK INTRA:                  -0.755
REMARK UNBOUND:                -0.822
REMARK SMILES COc1cc(CNC(=O)CCCC/C=C/C(C)C)ccc1O
REMARK SMILES IDX 10 1 8 2 7 3 9 5 6 6 5 7 3 8 21 9 4 10 20 11 19 12 2 13 1 14
REMARK SMILES IDX 22 15 11 17 12 18 13 19 14 20 15 21 16 22 17 23 18 24
REMARK H PARENT 7 4 22 16
REMARK Flexibility Score: inf
ROOT
ATOM      1  C   UNL     1      62.308  83.115  67.446  1.00  0.00     0.100 C 
ENDROOT
BRANCH   1   2
ATOM      2  C   UNL     1      63.213  84.179  66.967  1.00  0.00     0.220 C 
ATOM      3  N   UNL     1      64.522  84.195  67.346  1.00  0.00    -0.352 N 
ATOM      4  H   UNL     1      64.792  83.454  67.977  1.00  0.00     0.163 HD
ATOM      5  O   UNL     1      62.748  85.046  66.189  1.00  0.00    -0.275 OA
BRANCH   3   6
ATOM      6  C   UNL     1      65.483  85.158  66.914  1.00  0.00     0.151 C 
BRANCH   6   7
ATOM      7  C   UNL     1      66.820  84.904  67.517  1.00  0.00    -0.025 A 
ATOM      8  C   UNL     1      68.576  85.506  69.135  1.00  0.00     0.160 A 
ATOM      9  C   UNL     1      69.359  84.421  68.690  1.00  0.00     0.157 A 
ATOM     10  C   UNL     1      67.316  85.738  68.544  1.00  0.00     0.056 A 
ATOM     11  C   UNL     1      68.886  83.592  67.653  1.00  0.00     0.050 A 
ATOM     12  C   UNL     1      67.622  83.825  67.077  1.00  0.00     0.009 A 
BRANCH   8  13
ATOM     13  O   UNL     1      69.060  86.354  70.098  1.00  0.00    -0.493 OA
ATOM     14  C   UNL     1      69.382  87.670  69.612  1.00  0.00     0.278 C 
ENDBRANCH   8  13
BRANCH   9  15
ATOM     15  O   UNL     1      70.570  84.162  69.247  1.00  0.00    -0.504 OA
ATOM     16  H   UNL     1      70.452  83.637  70.042  1.00  0.00     0.293 HD
ENDBRANCH   9  15
ENDBRANCH   6   7
ENDBRANCH   3   6
ENDBRANCH   1   2
BRANCH   1  17
ATOM     17  C   UNL     1      63.097  81.881  67.959  1.00  0.00     0.010 C 
BRANCH  17  18
ATOM     18  C   UNL     1      62.532  81.313  69.292  1.00  0.00     0.005 C 
BRANCH  18  19
ATOM     19  C   UNL     1      62.609  82.342  70.452  1.00  0.00     0.027 C 
BRANCH  19  20
ATOM     20  C   UNL     1      62.665  81.695  71.754  1.00  0.00    -0.031 C 
ATOM     21  C   UNL     1      63.759  81.090  72.252  1.00  0.00    -0.028 C 
BRANCH  21  22
ATOM     22  C   UNL     1      63.798  80.463  73.572  1.00  0.00     0.005 C 
ATOM     23  C   UNL     1      65.248  80.128  74.023  1.00  0.00     0.012 C 
ATOM     24  C   UNL     1      63.089  81.365  74.616  1.00  0.00     0.012 C 
ENDBRANCH  21  22
ENDBRANCH  19  20
ENDBRANCH  18  19
ENDBRANCH  17  18
ENDBRANCH   1  17
TORSDOF 10
ENDMDL
MODEL 6
REMARK VINA RESULT:    -5.853     28.888     31.858
REMARK INTER + INTRA:          -9.925
REMARK INTER:                  -8.141
REMARK INTRA:                  -1.784
REMARK UNBOUND:                -0.822
REMARK SMILES COc1cc(CNC(=O)CCCC/C=C/C(C)C)ccc1O
REMARK SMILES IDX 10 1 8 2 7 3 9 5 6 6 5 7 3 8 21 9 4 10 20 11 19 12 2 13 1 14
REMARK SMILES IDX 22 15 11 17 12 18 13 19 14 20 15 21 16 22 17 23 18 24
REMARK H PARENT 7 4 22 16
REMARK Flexibility Score: inf
ROOT
ATOM      1  C   UNL     1      61.152  84.430  71.476  1.00  0.00     0.100 C 
ENDROOT
BRANCH   1   2
ATOM      2  C   UNL     1      61.215  84.893  72.875  1.00  0.00     0.220 C 
ATOM      3  N   UNL     1      62.205  84.458  73.704  1.00  0.00    -0.352 N 
ATOM      4  H   UNL     1      62.848  83.797  73.290  1.00  0.00     0.163 HD
ATOM      5  O   UNL     1      60.349  85.712  73.267  1.00  0.00    -0.275 OA
BRANCH   3   6
ATOM      6  C   UNL     1      62.372  84.870  75.061  1.00  0.00     0.151 C 
BRANCH   6   7
ATOM      7  C   UNL     1      63.769  85.307  75.332  1.00  0.00    -0.025 A 
ATOM      8  C   UNL     1      66.015  85.887  74.507  1.00  0.00     0.160 A 
ATOM      9  C   UNL     1      66.430  86.158  75.827  1.00  0.00     0.157 A 
ATOM     10  C   UNL     1      64.691  85.462  74.272  1.00  0.00     0.056 A 
ATOM     11  C   UNL     1      65.528  85.989  76.896  1.00  0.00     0.050 A 
ATOM     12  C   UNL     1      64.204  85.576  76.650  1.00  0.00     0.009 A 
BRANCH   8  13
ATOM     13  O   UNL     1      66.908  85.987  73.471  1.00  0.00    -0.493 OA
ATOM     14  C   UNL     1      66.610  87.044  72.539  1.00  0.00     0.278 C 
ENDBRANCH   8  13
BRANCH   9  15
ATOM     15  O   UNL     1      67.695  86.582  76.086  1.00  0.00    -0.504 OA
ATOM     16  H   UNL     1      67.886  87.361  75.559  1.00  0.00     0.293 HD
ENDBRANCH   9  15
ENDBRANCH   6   7
ENDBRANCH   3   6
ENDBRANCH   1   2
BRANCH   1  17
ATOM     17  C   UNL     1      62.521  83.880  70.993  1.00  0.00     0.010 C 
BRANCH  17  18
ATOM     18  C   UNL     1      62.406  82.495  70.296  1.00  0.00     0.005 C 
BRANCH  18  19
ATOM     19  C   UNL     1      62.311  81.328  71.315  1.00  0.00     0.027 C 
BRANCH  19  20
ATOM     20  C   UNL     1      63.374  81.381  72.308  1.00  0.00    -0.031 C 
ATOM     21  C   UNL     1      63.247  80.944  73.575  1.00  0.00    -0.028 C 
BRANCH  21  22
ATOM     22  C   UNL     1      64.335  80.989  74.551  1.00  0.00     0.005 C 
ATOM     23  C   UNL     1      65.576  81.757  74.016  1.00  0.00     0.012 C 
ATOM     24  C   UNL     1      63.835  81.607  75.883  1.00  0.00     0.012 C 
ENDBRANCH  21  22
ENDBRANCH  19  20
ENDBRANCH  18  19
ENDBRANCH  17  18
ENDBRANCH   1  17
TORSDOF 10
ENDMDL
MODEL 7
REMARK VINA RESULT:    -5.785     28.257     30.795
REMARK INTER + INTRA:          -9.820
REMARK INTER:                  -9.060
REMARK INTRA:                  -0.760
REMARK UNBOUND:                -0.822
REMARK SMILES COc1cc(CNC(=O)CCCC/C=C/C(C)C)ccc1O
REMARK SMILES IDX 10 1 8 2 7 3 9 5 6 6 5 7 3 8 21 9 4 10 20 11 19 12 2 13 1 14
REMARK SMILES IDX 22 15 11 17 12 18 13 19 14 20 15 21 16 22 17 23 18 24
REMARK H PARENT 7 4 22 16
REMARK Flexibility Score: inf
ROOT
ATOM      1  C   UNL     1      85.265  64.847  76.980  1.00  0.00     0.100 C 
ENDROOT
BRANCH   1   2
ATOM      2  C   UNL     1      84.063  65.681  76.787  1.00  0.00     0.220 C 
ATOM      3  N   UNL     1      82.837  65.103  76.646  1.00  0.00    -0.352 N 
ATOM      4  H   UNL     1      82.837  64.093  76.661  1.00  0.00     0.163 HD
ATOM      5  O   UNL     1      84.202  66.928  76.781  1.00  0.00    -0.275 OA
BRANCH   3   6
ATOM      6  C   UNL     1      81.612  65.820  76.487  1.00  0.00     0.151 C 
BRANCH   6   7
ATOM      7  C   UNL     1      81.167  65.833  75.067  1.00  0.00    -0.025 A 
ATOM      8  C   UNL     1      80.975  66.999  72.907  1.00  0.00     0.160 A 
ATOM      9  C   UNL     1      80.342  65.868  72.351  1.00  0.00     0.157 A 
ATOM     10  C   UNL     1      81.379  66.972  74.258  1.00  0.00     0.056 A 
ATOM     11  C   UNL     1      80.106  64.732  73.151  1.00  0.00     0.050 A 
ATOM     12  C   UNL     1      80.523  64.710  74.496  1.00  0.00     0.009 A 
BRANCH   8  13
ATOM     13  O   UNL     1      81.148  68.131  72.151  1.00  0.00    -0.493 OA
ATOM     14  C   UNL     1      82.390  68.167  71.423  1.00  0.00     0.278 C 
ENDBRANCH   8  13
BRANCH   9  15
ATOM     15  O   UNL     1      79.952  65.856  71.050  1.00  0.00    -0.504 OA
ATOM     16  H   UNL     1      79.179  66.414  70.942  1.00  0.00     0.293 HD
ENDBRANCH   9  15
ENDBRANCH   6   7
ENDBRANCH   3   6
ENDBRANCH   1   2
BRANCH   1  17
ATOM     17  C   UNL     1      85.560  64.606  78.485  1.00  0.00     0.010 C 
BRANCH  17  18
ATOM     18  C   UNL     1      85.140  63.188  78.964  1.00  0.00     0.005 C 
BRANCH  18  19
ATOM     19  C   UNL     1      84.901  63.129  80.497  1.00  0.00     0.027 C 
BRANCH  19  20
ATOM     20  C   UNL     1      85.801  64.009  81.225  1.00  0.00    -0.031 C 
ATOM     21  C   UNL     1      85.440  64.744  82.293  1.00  0.00    -0.028 C 
BRANCH  21  22
ATOM     22  C   UNL     1      86.367  65.608  83.023  1.00  0.00     0.005 C 
ATOM     23  C   UNL     1      87.575  64.820  83.603  1.00  0.00     0.012 C 
ATOM     24  C   UNL     1      86.849  66.767  82.113  1.00  0.00     0.012 C 
ENDBRANCH  21  22
ENDBRANCH  19  20
ENDBRANCH  18  19
ENDBRANCH  17  18
ENDBRANCH   1  17
TORSDOF 10
ENDMDL
MODEL 8
REMARK VINA RESULT:    -5.757     28.665     30.795
REMARK INTER + INTRA:          -9.777
REMARK INTER:                  -9.058
REMARK INTRA:                  -0.719
REMARK UNBOUND:                -0.822
REMARK SMILES COc1cc(CNC(=O)CCCC/C=C/C(C)C)ccc1O
REMARK SMILES IDX 10 1 8 2 7 3 9 5 6 6 5 7 3 8 21 9 4 10 20 11 19 12 2 13 1 14
REMARK SMILES IDX 22 15 11 17 12 18 13 19 14 20 15 21 16 22 17 23 18 24
REMARK H PARENT 7 4 22 16
REMARK Flexibility Score: inf
ROOT
ATOM      1  C   UNL     1      62.910  87.107  76.475  1.00  0.00     0.100 C 
ENDROOT
BRANCH   1   2
ATOM      2  C   UNL     1      63.615  87.710  77.622  1.00  0.00     0.220 C 
ATOM      3  N   UNL     1      63.493  87.174  78.869  1.00  0.00    -0.352 N 
ATOM      4  H   UNL     1      62.879  86.373  78.930  1.00  0.00     0.163 HD
ATOM      5  O   UNL     1      64.343  88.710  77.411  1.00  0.00    -0.275 OA
BRANCH   3   6
ATOM      6  C   UNL     1      64.156  87.662  80.035  1.00  0.00     0.151 C 
BRANCH   6   7
ATOM      7  C   UNL     1      65.119  86.663  80.575  1.00  0.00    -0.025 A 
ATOM      8  C   UNL     1      65.877  85.217  82.418  1.00  0.00     0.160 A 
ATOM      9  C   UNL     1      66.933  84.743  81.613  1.00  0.00     0.157 A 
ATOM     10  C   UNL     1      64.982  86.173  81.893  1.00  0.00     0.056 A 
ATOM     11  C   UNL     1      67.094  85.237  80.303  1.00  0.00     0.050 A 
ATOM     12  C   UNL     1      66.188  86.182  79.783  1.00  0.00     0.009 A 
BRANCH   8  13
ATOM     13  O   UNL     1      65.755  84.789  83.716  1.00  0.00    -0.493 OA
ATOM     14  C   UNL     1      64.494  85.118  84.326  1.00  0.00     0.278 C 
ENDBRANCH   8  13
BRANCH   9  15
ATOM     15  O   UNL     1      67.804  83.813  82.083  1.00  0.00    -0.504 OA
ATOM     16  H   UNL     1      67.487  82.935  81.860  1.00  0.00     0.293 HD
ENDBRANCH   9  15
ENDBRANCH   6   7
ENDBRANCH   3   6
ENDBRANCH   1   2
BRANCH   1  17
ATOM     17  C   UNL     1      62.519  85.631  76.755  1.00  0.00     0.010 C 
BRANCH  17  18
ATOM     18  C   UNL     1      63.081  84.644  75.694  1.00  0.00     0.005 C 
BRANCH  18  19
ATOM     19  C   UNL     1      62.351  83.275  75.714  1.00  0.00     0.027 C 
BRANCH  19  20
ATOM     20  C   UNL     1      62.921  82.335  74.761  1.00  0.00    -0.031 C 
ATOM     21  C   UNL     1      63.905  81.465  75.053  1.00  0.00    -0.028 C 
BRANCH  21  22
ATOM     22  C   UNL     1      64.450  80.516  74.083  1.00  0.00     0.005 C 
ATOM     23  C   UNL     1      63.944  80.791  72.640  1.00  0.00     0.012 C 
ATOM     24  C   UNL     1      66.000  80.525  74.137  1.00  0.00     0.012 C 
ENDBRANCH  21  22
ENDBRANCH  19  20
ENDBRANCH  18  19
ENDBRANCH  17  18
ENDBRANCH   1  17
TORSDOF 10
ENDMDL
MODEL 9
REMARK VINA RESULT:    -5.733     27.980     31.495
REMARK INTER + INTRA:          -9.738
REMARK INTER:                  -8.960
REMARK INTRA:                  -0.778
REMARK UNBOUND:                -0.822
REMARK SMILES COc1cc(CNC(=O)CCCC/C=C/C(C)C)ccc1O
REMARK SMILES IDX 10 1 8 2 7 3 9 5 6 6 5 7 3 8 21 9 4 10 20 11 19 12 2 13 1 14
REMARK SMILES IDX 22 15 11 17 12 18 13 19 14 20 15 21 16 22 17 23 18 24
REMARK H PARENT 7 4 22 16
REMARK Flexibility Score: inf
ROOT
ATOM      1  C   UNL     1      62.395  83.838  68.108  1.00  0.00     0.100 C 
ENDROOT
BRANCH   1   2
ATOM      2  C   UNL     1      63.383  84.772  67.535  1.00  0.00     0.220 C 
ATOM      3  N   UNL     1      64.456  85.181  68.270  1.00  0.00    -0.352 N 
ATOM      4  H   UNL     1      64.492  84.815  69.211  1.00  0.00     0.163 HD
ATOM      5  O   UNL     1      63.218  85.157  66.352  1.00  0.00    -0.275 OA
BRANCH   3   6
ATOM      6  C   UNL     1      65.482  86.055  67.798  1.00  0.00     0.151 C 
BRANCH   6   7
ATOM      7  C   UNL     1      66.835  85.560  68.171  1.00  0.00    -0.025 A 
ATOM      8  C   UNL     1      68.679  83.960  67.851  1.00  0.00     0.160 A 
ATOM      9  C   UNL     1      69.422  84.614  68.856  1.00  0.00     0.157 A 
ATOM     10  C   UNL     1      67.394  84.436  67.520  1.00  0.00     0.056 A 
ATOM     11  C   UNL     1      68.871  85.724  69.527  1.00  0.00     0.050 A 
ATOM     12  C   UNL     1      67.591  86.200  69.181  1.00  0.00     0.009 A 
BRANCH   8  13
ATOM     13  O   UNL     1      69.185  82.840  67.241  1.00  0.00    -0.493 OA
ATOM     14  C   UNL     1      69.471  83.013  65.841  1.00  0.00     0.278 C 
ENDBRANCH   8  13
BRANCH   9  15
ATOM     15  O   UNL     1      70.668  84.189  69.189  1.00  0.00    -0.504 OA
ATOM     16  H   UNL     1      70.938  84.600  70.014  1.00  0.00     0.293 HD
ENDBRANCH   9  15
ENDBRANCH   6   7
ENDBRANCH   3   6
ENDBRANCH   1   2
BRANCH   1  17
ATOM     17  C   UNL     1      62.809  82.359  67.882  1.00  0.00     0.010 C 
BRANCH  17  18
ATOM     18  C   UNL     1      62.501  81.451  69.107  1.00  0.00     0.005 C 
BRANCH  18  19
ATOM     19  C   UNL     1      62.692  82.195  70.456  1.00  0.00     0.027 C 
BRANCH  19  20
ATOM     20  C   UNL     1      63.289  81.341  71.472  1.00  0.00    -0.031 C 
ATOM     21  C   UNL     1      63.195  81.562  72.796  1.00  0.00    -0.028 C 
BRANCH  21  22
ATOM     22  C   UNL     1      63.787  80.679  73.800  1.00  0.00     0.005 C 
ATOM     23  C   UNL     1      65.202  80.185  73.390  1.00  0.00     0.012 C 
ATOM     24  C   UNL     1      63.826  81.387  75.180  1.00  0.00     0.012 C 
ENDBRANCH  21  22
ENDBRANCH  19  20
ENDBRANCH  18  19
ENDBRANCH  17  18
ENDBRANCH   1  17
TORSDOF 10
ENDMDL
MODEL 10
REMARK VINA RESULT:    -5.664     22.619     26.991
REMARK INTER + INTRA:          -9.632
REMARK INTER:                  -8.503
REMARK INTRA:                  -1.130
REMARK UNBOUND:                -0.822
REMARK SMILES COc1cc(CNC(=O)CCCC/C=C/C(C)C)ccc1O
REMARK SMILES IDX 10 1 8 2 7 3 9 5 6 6 5 7 3 8 21 9 4 10 20 11 19 12 2 13 1 14
REMARK SMILES IDX 22 15 11 17 12 18 13 19 14 20 15 21 16 22 17 23 18 24
REMARK H PARENT 7 4 22 16
REMARK Flexibility Score: inf
ROOT
ATOM      1  C   UNL     1      73.783  80.484  63.692  1.00  0.00     0.100 C 
ENDROOT
BRANCH   1   2
ATOM      2  C   UNL     1      72.405  81.009  63.728  1.00  0.00     0.220 C 
ATOM      3  N   UNL     1      72.177  82.352  63.772  1.00  0.00    -0.352 N 
ATOM      4  H   UNL     1      73.009  82.925  63.802  1.00  0.00     0.163 HD
ATOM      5  O   UNL     1      71.457  80.187  63.693  1.00  0.00    -0.275 OA
BRANCH   3   6
ATOM      6  C   UNL     1      70.885  82.960  63.778  1.00  0.00     0.151 C 
BRANCH   6   7
ATOM      7  C   UNL     1      70.489  83.389  65.147  1.00  0.00    -0.025 A 
ATOM      8  C   UNL     1      70.820  84.854  67.098  1.00  0.00     0.160 A 
ATOM      9  C   UNL     1      69.734  84.233  67.749  1.00  0.00     0.157 A 
ATOM     10  C   UNL     1      71.188  84.426  65.805  1.00  0.00     0.056 A 
ATOM     11  C   UNL     1      69.040  83.185  67.113  1.00  0.00     0.050 A 
ATOM     12  C   UNL     1      69.408  82.772  65.817  1.00  0.00     0.009 A 
BRANCH   8  13
ATOM     13  O   UNL     1      71.540  85.830  67.739  1.00  0.00    -0.493 OA
ATOM     14  C   UNL     1      72.903  85.463  68.021  1.00  0.00     0.278 C 
ENDBRANCH   8  13
BRANCH   9  15
ATOM     15  O   UNL     1      69.345  84.631  68.988  1.00  0.00    -0.504 OA
ATOM     16  H   UNL     1      68.443  84.957  68.952  1.00  0.00     0.293 HD
ENDBRANCH   9  15
ENDBRANCH   6   7
ENDBRANCH   3   6
ENDBRANCH   1   2
BRANCH   1  17
ATOM     17  C   UNL     1      74.594  80.917  64.944  1.00  0.00     0.010 C 
BRANCH  17  18
ATOM     18  C   UNL     1      76.061  81.305  64.609  1.00  0.00     0.005 C 
BRANCH  18  19
ATOM     19  C   UNL     1      76.177  82.747  64.045  1.00  0.00     0.027 C 
BRANCH  19  20
ATOM     20  C   UNL     1      76.699  83.680  65.031  1.00  0.00    -0.031 C 
ATOM     21  C   UNL     1      76.096  83.959  66.201  1.00  0.00    -0.028 C 
BRANCH  21  22
ATOM     22  C   UNL     1      76.649  84.887  67.187  1.00  0.00     0.005 C 
ATOM     23  C   UNL     1      76.687  84.276  68.615  1.00  0.00     0.012 C 
ATOM     24  C   UNL     1      78.061  85.356  66.749  1.00  0.00     0.012 C 
ENDBRANCH  21  22
ENDBRANCH  19  20
ENDBRANCH  18  19
ENDBRANCH  17  18
ENDBRANCH   1  17
TORSDOF 10
ENDMDL
