MODEL 1
REMARK VINA RESULT:    -6.081      0.000      0.000
REMARK INTER + INTRA:         -10.090
REMARK INTER:                  -9.459
REMARK INTRA:                  -0.631
REMARK UNBOUND:                -0.631
REMARK SMILES COc1cc(CNC(=O)CCCCCC(C)C)ccc1O
REMARK SMILES IDX 10 1 8 2 7 3 9 5 6 6 5 7 3 8 20 9 4 10 19 11 18 12 2 13 1 14
REMARK SMILES IDX 21 15 11 17 12 18 13 19 14 20 15 21 16 22 17 23
REMARK H PARENT 7 4 21 16
REMARK Flexibility Score: inf
ROOT
ATOM      1  C   UNL     1      93.907  98.926  73.757  1.00  0.00     0.100 C 
ENDROOT
BRANCH   1   2
ATOM      2  C   UNL     1      93.680  99.350  72.360  1.00  0.00     0.220 C 
ATOM      3  N   UNL     1      92.485  99.909  72.016  1.00  0.00    -0.352 N 
ATOM      4  H   UNL     1      91.776  99.871  72.734  1.00  0.00     0.163 HD
ATOM      5  O   UNL     1      94.610  99.226  71.527  1.00  0.00    -0.275 OA
BRANCH   3   6
ATOM      6  C   UNL     1      92.194 100.517  70.757  1.00  0.00     0.151 C 
BRANCH   6   7
ATOM      7  C   UNL     1      91.277  99.704  69.914  1.00  0.00    -0.025 A 
ATOM      8  C   UNL     1      90.345  99.140  67.710  1.00  0.00     0.160 A 
ATOM      9  C   UNL     1      89.580  98.111  68.299  1.00  0.00     0.157 A 
ATOM     10  C   UNL     1      91.174  99.942  68.523  1.00  0.00     0.056 A 
ATOM     11  C   UNL     1      89.655  97.883  69.685  1.00  0.00     0.050 A 
ATOM     12  C   UNL     1      90.501  98.669  70.486  1.00  0.00     0.009 A 
BRANCH   8  13
ATOM     13  O   UNL     1      90.271  99.392  66.365  1.00  0.00    -0.493 OA
ATOM     14  C   UNL     1      90.794 100.679  65.984  1.00  0.00     0.278 C 
ENDBRANCH   8  13
BRANCH   9  15
ATOM     15  O   UNL     1      88.778  97.336  67.526  1.00  0.00    -0.504 OA
ATOM     16  H   UNL     1      88.499  96.566  68.026  1.00  0.00     0.293 HD
ENDBRANCH   9  15
ENDBRANCH   6   7
ENDBRANCH   3   6
ENDBRANCH   1   2
BRANCH   1  17
ATOM     17  C   UNL     1      93.464  97.470  74.062  1.00  0.00     0.010 C 
BRANCH  17  18
ATOM     18  C   UNL     1      94.587  96.666  74.773  1.00  0.00     0.001 C 
BRANCH  18  19
ATOM     19  C   UNL     1      94.082  95.843  75.988  1.00  0.00     0.000 C 
BRANCH  19  20
ATOM     20  C   UNL     1      92.543  95.619  75.947  1.00  0.00     0.003 C 
BRANCH  20  21
ATOM     21  C   UNL     1      91.943  94.923  77.212  1.00  0.00    -0.017 C 
ATOM     22  C   UNL     1      92.849  93.746  77.680  1.00  0.00     0.007 C 
ATOM     23  C   UNL     1      90.486  94.422  76.994  1.00  0.00     0.007 C 
ENDBRANCH  20  21
ENDBRANCH  19  20
ENDBRANCH  18  19
ENDBRANCH  17  18
ENDBRANCH   1  17
TORSDOF 10
ENDMDL
MODEL 2
REMARK VINA RESULT:    -5.832     16.773     18.861
REMARK INTER + INTRA:          -9.702
REMARK INTER:                  -8.919
REMARK INTRA:                  -0.784
REMARK UNBOUND:                -0.631
REMARK SMILES COc1cc(CNC(=O)CCCCCC(C)C)ccc1O
REMARK SMILES IDX 10 1 8 2 7 3 9 5 6 6 5 7 3 8 20 9 4 10 19 11 18 12 2 13 1 14
REMARK SMILES IDX 21 15 11 17 12 18 13 19 14 20 15 21 16 22 17 23
REMARK H PARENT 7 4 21 16
REMARK Flexibility Score: inf
ROOT
ATOM      1  C   UNL     1      98.050  80.297  82.430  1.00  0.00     0.100 C 
ENDROOT
BRANCH   1   2
ATOM      2  C   UNL     1      98.538  80.077  81.053  1.00  0.00     0.220 C 
ATOM      3  N   UNL     1      98.201  80.963  80.074  1.00  0.00    -0.352 N 
ATOM      4  H   UNL     1      97.515  81.654  80.343  1.00  0.00     0.163 HD
ATOM      5  O   UNL     1      99.289  79.098  80.822  1.00  0.00    -0.275 OA
BRANCH   3   6
ATOM      6  C   UNL     1      98.738  80.969  78.751  1.00  0.00     0.151 C 
BRANCH   6   7
ATOM      7  C   UNL     1      97.875  81.686  77.773  1.00  0.00    -0.025 A 
ATOM      8  C   UNL     1      97.480  82.537  75.500  1.00  0.00     0.160 A 
ATOM      9  C   UNL     1      96.204  82.991  75.894  1.00  0.00     0.157 A 
ATOM     10  C   UNL     1      98.315  81.905  76.446  1.00  0.00     0.056 A 
ATOM     11  C   UNL     1      95.767  82.802  77.218  1.00  0.00     0.050 A 
ATOM     12  C   UNL     1      96.593  82.150  78.149  1.00  0.00     0.009 A 
BRANCH   8  13
ATOM     13  O   UNL     1      97.933  82.729  74.221  1.00  0.00    -0.493 OA
ATOM     14  C   UNL     1      97.672  81.620  73.339  1.00  0.00     0.278 C 
ENDBRANCH   8  13
BRANCH   9  15
ATOM     15  O   UNL     1      95.394  83.602  74.993  1.00  0.00    -0.504 OA
ATOM     16  H   UNL     1      95.655  83.349  74.105  1.00  0.00     0.293 HD
ENDBRANCH   9  15
ENDBRANCH   6   7
ENDBRANCH   3   6
ENDBRANCH   1   2
BRANCH   1  17
ATOM     17  C   UNL     1      96.859  81.288  82.535  1.00  0.00     0.010 C 
BRANCH  17  18
ATOM     18  C   UNL     1      97.219  82.525  83.403  1.00  0.00     0.001 C 
BRANCH  18  19
ATOM     19  C   UNL     1      96.385  83.786  83.054  1.00  0.00     0.000 C 
BRANCH  19  20
ATOM     20  C   UNL     1      95.368  84.147  84.176  1.00  0.00     0.003 C 
BRANCH  20  21
ATOM     21  C   UNL     1      95.315  83.138  85.369  1.00  0.00    -0.017 C 
ATOM     22  C   UNL     1      94.077  82.201  85.249  1.00  0.00     0.007 C 
ATOM     23  C   UNL     1      95.319  83.842  86.757  1.00  0.00     0.007 C 
ENDBRANCH  20  21
ENDBRANCH  19  20
ENDBRANCH  18  19
ENDBRANCH  17  18
ENDBRANCH   1  17
TORSDOF 10
ENDMDL
MODEL 3
REMARK VINA RESULT:    -5.817      4.771      7.424
REMARK INTER + INTRA:          -9.679
REMARK INTER:                  -8.264
REMARK INTRA:                  -1.416
REMARK UNBOUND:                -0.631
REMARK SMILES COc1cc(CNC(=O)CCCCCC(C)C)ccc1O
REMARK SMILES IDX 10 1 8 2 7 3 9 5 6 6 5 7 3 8 20 9 4 10 19 11 18 12 2 13 1 14
REMARK SMILES IDX 21 15 11 17 12 18 13 19 14 20 15 21 16 22 17 23
REMARK H PARENT 7 4 21 16
REMARK Flexibility Score: inf
ROOT
ATOM      1  C   UNL     1      89.830  98.057  69.377  1.00  0.00     0.100 C 
ENDROOT
BRANCH   1   2
ATOM      2  C   UNL     1      89.129  98.268  68.093  1.00  0.00     0.220 C 
ATOM      3  N   UNL     1      88.260  99.311  67.969  1.00  0.00    -0.352 N 
ATOM      4  H   UNL     1      88.056  99.799  68.829  1.00  0.00     0.163 HD
ATOM      5  O   UNL     1      89.381  97.505  67.129  1.00  0.00    -0.275 OA
BRANCH   3   6
ATOM      6  C   UNL     1      87.651  99.732  66.748  1.00  0.00     0.151 C 
BRANCH   6   7
ATOM      7  C   UNL     1      87.757 101.198  66.518  1.00  0.00    -0.025 A 
ATOM      8  C   UNL     1      86.687 103.388  66.193  1.00  0.00     0.160 A 
ATOM      9  C   UNL     1      87.958 104.000  66.146  1.00  0.00     0.157 A 
ATOM     10  C   UNL     1      86.595 101.990  66.359  1.00  0.00     0.056 A 
ATOM     11  C   UNL     1      89.121 103.218  66.276  1.00  0.00     0.050 A 
ATOM     12  C   UNL     1      89.022 101.830  66.466  1.00  0.00     0.009 A 
BRANCH   8  13
ATOM     13  O   UNL     1      85.543 104.129  66.049  1.00  0.00    -0.493 OA
ATOM     14  C   UNL     1      84.487 103.439  65.353  1.00  0.00     0.278 C 
ENDBRANCH   8  13
BRANCH   9  15
ATOM     15  O   UNL     1      88.058 105.343  65.984  1.00  0.00    -0.504 OA
ATOM     16  H   UNL     1      87.431 105.633  65.317  1.00  0.00     0.293 HD
ENDBRANCH   9  15
ENDBRANCH   6   7
ENDBRANCH   3   6
ENDBRANCH   1   2
BRANCH   1  17
ATOM     17  C   UNL     1      89.605  99.184  70.420  1.00  0.00     0.010 C 
BRANCH  17  18
ATOM     18  C   UNL     1      90.943  99.649  71.059  1.00  0.00     0.001 C 
BRANCH  18  19
ATOM     19  C   UNL     1      92.187  99.317  70.193  1.00  0.00     0.000 C 
BRANCH  19  20
ATOM     20  C   UNL     1      92.847 100.595  69.597  1.00  0.00     0.003 C 
BRANCH  20  21
ATOM     21  C   UNL     1      91.946 101.402  68.607  1.00  0.00    -0.017 C 
ATOM     22  C   UNL     1      92.710 101.709  67.285  1.00  0.00     0.007 C 
ATOM     23  C   UNL     1      91.399 102.721  69.226  1.00  0.00     0.007 C 
ENDBRANCH  20  21
ENDBRANCH  19  20
ENDBRANCH  18  19
ENDBRANCH  17  18
ENDBRANCH   1  17
TORSDOF 10
ENDMDL
MODEL 4
REMARK VINA RESULT:    -5.796      3.765      6.336
REMARK INTER + INTRA:          -9.646
REMARK INTER:                  -8.636
REMARK INTRA:                  -1.011
REMARK UNBOUND:                -0.631
REMARK SMILES COc1cc(CNC(=O)CCCCCC(C)C)ccc1O
REMARK SMILES IDX 10 1 8 2 7 3 9 5 6 6 5 7 3 8 20 9 4 10 19 11 18 12 2 13 1 14
REMARK SMILES IDX 21 15 11 17 12 18 13 19 14 20 15 21 16 22 17 23
REMARK H PARENT 7 4 21 16
REMARK Flexibility Score: inf
ROOT
ATOM      1  C   UNL     1      89.575  98.010  69.381  1.00  0.00     0.100 C 
ENDROOT
BRANCH   1   2
ATOM      2  C   UNL     1      89.218  98.372  67.994  1.00  0.00     0.220 C 
ATOM      3  N   UNL     1      88.089  99.098  67.760  1.00  0.00    -0.352 N 
ATOM      4  H   UNL     1      87.493  99.228  68.565  1.00  0.00     0.163 HD
ATOM      5  O   UNL     1      89.988  98.037  67.060  1.00  0.00    -0.275 OA
BRANCH   3   6
ATOM      6  C   UNL     1      87.719  99.659  66.500  1.00  0.00     0.151 C 
BRANCH   6   7
ATOM      7  C   UNL     1      87.918 101.132  66.436  1.00  0.00    -0.025 A 
ATOM      8  C   UNL     1      89.416 103.082  66.404  1.00  0.00     0.160 A 
ATOM      9  C   UNL     1      88.302 103.933  66.246  1.00  0.00     0.157 A 
ATOM     10  C   UNL     1      89.216 101.690  66.517  1.00  0.00     0.056 A 
ATOM     11  C   UNL     1      87.004 103.392  66.192  1.00  0.00     0.050 A 
ATOM     12  C   UNL     1      86.814 102.002  66.280  1.00  0.00     0.009 A 
BRANCH   8  13
ATOM     13  O   UNL     1      90.686 103.591  66.479  1.00  0.00    -0.493 OA
ATOM     14  C   UNL     1      91.580 103.077  65.473  1.00  0.00     0.278 C 
ENDBRANCH   8  13
BRANCH   9  15
ATOM     15  O   UNL     1      88.483 105.273  66.139  1.00  0.00    -0.504 OA
ATOM     16  H   UNL     1      87.847 105.728  66.697  1.00  0.00     0.293 HD
ENDBRANCH   9  15
ENDBRANCH   6   7
ENDBRANCH   3   6
ENDBRANCH   1   2
BRANCH   1  17
ATOM     17  C   UNL     1      90.621  98.951  70.037  1.00  0.00     0.010 C 
BRANCH  17  18
ATOM     18  C   UNL     1      89.940 100.099  70.833  1.00  0.00     0.001 C 
BRANCH  18  19
ATOM     19  C   UNL     1      90.932 101.195  71.305  1.00  0.00     0.000 C 
BRANCH  19  20
ATOM     20  C   UNL     1      92.414 100.802  71.038  1.00  0.00     0.003 C 
BRANCH  20  21
ATOM     21  C   UNL     1      93.295 100.639  72.319  1.00  0.00    -0.017 C 
ATOM     22  C   UNL     1      93.215  99.184  72.867  1.00  0.00     0.007 C 
ATOM     23  C   UNL     1      92.924 101.653  73.440  1.00  0.00     0.007 C 
ENDBRANCH  20  21
ENDBRANCH  19  20
ENDBRANCH  18  19
ENDBRANCH  17  18
ENDBRANCH   1  17
TORSDOF 10
ENDMDL
MODEL 5
REMARK VINA RESULT:    -5.704     16.700     18.927
REMARK INTER + INTRA:          -9.504
REMARK INTER:                  -7.298
REMARK INTRA:                  -2.206
REMARK UNBOUND:                -0.631
REMARK SMILES COc1cc(CNC(=O)CCCCCC(C)C)ccc1O
REMARK SMILES IDX 10 1 8 2 7 3 9 5 6 6 5 7 3 8 20 9 4 10 19 11 18 12 2 13 1 14
REMARK SMILES IDX 21 15 11 17 12 18 13 19 14 20 15 21 16 22 17 23
REMARK H PARENT 7 4 21 16
REMARK Flexibility Score: inf
ROOT
ATOM      1  C   UNL     1      96.825  82.149  77.922  1.00  0.00     0.100 C 
ENDROOT
BRANCH   1   2
ATOM      2  C   UNL     1      96.662  82.757  76.585  1.00  0.00     0.220 C 
ATOM      3  N   UNL     1      97.730  82.810  75.739  1.00  0.00    -0.352 N 
ATOM      4  H   UNL     1      98.611  82.538  76.150  1.00  0.00     0.163 HD
ATOM      5  O   UNL     1      95.530  83.176  76.240  1.00  0.00    -0.275 OA
BRANCH   3   6
ATOM      6  C   UNL     1      97.673  83.208  74.369  1.00  0.00     0.151 C 
BRANCH   6   7
ATOM      7  C   UNL     1      97.842  82.072  73.423  1.00  0.00    -0.025 A 
ATOM      8  C   UNL     1      99.216  80.830  71.805  1.00  0.00     0.160 A 
ATOM      9  C   UNL     1      98.188  79.872  71.672  1.00  0.00     0.157 A 
ATOM     10  C   UNL     1      99.029  81.933  72.665  1.00  0.00     0.056 A 
ATOM     11  C   UNL     1      96.993  80.014  72.400  1.00  0.00     0.050 A 
ATOM     12  C   UNL     1      96.823  81.102  73.273  1.00  0.00     0.009 A 
BRANCH   8  13
ATOM     13  O   UNL     1     100.379  80.720  71.090  1.00  0.00    -0.493 OA
ATOM     14  C   UNL     1     101.564  81.002  71.859  1.00  0.00     0.278 C 
ENDBRANCH   8  13
BRANCH   9  15
ATOM     15  O   UNL     1      98.357  78.809  70.846  1.00  0.00    -0.504 OA
ATOM     16  H   UNL     1      98.717  79.108  70.008  1.00  0.00     0.293 HD
ENDBRANCH   9  15
ENDBRANCH   6   7
ENDBRANCH   3   6
ENDBRANCH   1   2
BRANCH   1  17
ATOM     17  C   UNL     1      97.343  80.685  77.898  1.00  0.00     0.010 C 
BRANCH  17  18
ATOM     18  C   UNL     1      96.625  79.841  76.810  1.00  0.00     0.001 C 
BRANCH  18  19
ATOM     19  C   UNL     1      97.400  78.556  76.415  1.00  0.00     0.000 C 
BRANCH  19  20
ATOM     20  C   UNL     1      98.941  78.743  76.521  1.00  0.00     0.003 C 
BRANCH  20  21
ATOM     21  C   UNL     1      99.612  79.410  75.276  1.00  0.00    -0.017 C 
ATOM     22  C   UNL     1     100.295  78.340  74.373  1.00  0.00     0.007 C 
ATOM     23  C   UNL     1     100.638  80.515  75.662  1.00  0.00     0.007 C 
ENDBRANCH  20  21
ENDBRANCH  19  20
ENDBRANCH  18  19
ENDBRANCH  17  18
ENDBRANCH   1  17
TORSDOF 10
ENDMDL
MODEL 6
REMARK VINA RESULT:    -5.691     16.172     18.254
REMARK INTER + INTRA:          -9.483
REMARK INTER:                  -8.713
REMARK INTRA:                  -0.770
REMARK UNBOUND:                -0.631
REMARK SMILES COc1cc(CNC(=O)CCCCCC(C)C)ccc1O
REMARK SMILES IDX 10 1 8 2 7 3 9 5 6 6 5 7 3 8 20 9 4 10 19 11 18 12 2 13 1 14
REMARK SMILES IDX 21 15 11 17 12 18 13 19 14 20 15 21 16 22 17 23
REMARK H PARENT 7 4 21 16
REMARK Flexibility Score: inf
ROOT
ATOM      1  C   UNL     1      96.605  82.435  77.695  1.00  0.00     0.100 C 
ENDROOT
BRANCH   1   2
ATOM      2  C   UNL     1      96.529  83.038  76.349  1.00  0.00     0.220 C 
ATOM      3  N   UNL     1      97.531  82.807  75.454  1.00  0.00    -0.352 N 
ATOM      4  H   UNL     1      98.338  82.333  75.833  1.00  0.00     0.163 HD
ATOM      5  O   UNL     1      95.520  83.719  76.042  1.00  0.00    -0.275 OA
BRANCH   3   6
ATOM      6  C   UNL     1      97.505  83.180  74.076  1.00  0.00     0.151 C 
BRANCH   6   7
ATOM      7  C   UNL     1      98.855  83.199  73.450  1.00  0.00    -0.025 A 
ATOM      8  C   UNL     1     100.959  82.059  72.884  1.00  0.00     0.160 A 
ATOM      9  C   UNL     1     101.397  83.212  72.200  1.00  0.00     0.157 A 
ATOM     10  C   UNL     1      99.699  82.066  73.521  1.00  0.00     0.056 A 
ATOM     11  C   UNL     1     100.576  84.354  72.146  1.00  0.00     0.050 A 
ATOM     12  C   UNL     1      99.313  84.346  72.761  1.00  0.00     0.009 A 
BRANCH   8  13
ATOM     13  O   UNL     1     101.751  80.944  72.965  1.00  0.00    -0.493 OA
ATOM     14  C   UNL     1     102.471  80.831  74.208  1.00  0.00     0.278 C 
ENDBRANCH   8  13
BRANCH   9  15
ATOM     15  O   UNL     1     102.607  83.217  71.586  1.00  0.00    -0.504 OA
ATOM     16  H   UNL     1     103.085  84.014  71.826  1.00  0.00     0.293 HD
ENDBRANCH   9  15
ENDBRANCH   6   7
ENDBRANCH   3   6
ENDBRANCH   1   2
BRANCH   1  17
ATOM     17  C   UNL     1      97.855  81.544  77.926  1.00  0.00     0.010 C 
BRANCH  17  18
ATOM     18  C   UNL     1      97.461  80.111  78.380  1.00  0.00     0.001 C 
BRANCH  18  19
ATOM     19  C   UNL     1      97.914  79.776  79.826  1.00  0.00     0.000 C 
BRANCH  19  20
ATOM     20  C   UNL     1      97.968  81.040  80.733  1.00  0.00     0.003 C 
BRANCH  20  21
ATOM     21  C   UNL     1      96.682  81.296  81.585  1.00  0.00    -0.017 C 
ATOM     22  C   UNL     1      96.857  82.550  82.491  1.00  0.00     0.007 C 
ATOM     23  C   UNL     1      96.274  80.067  82.448  1.00  0.00     0.007 C 
ENDBRANCH  20  21
ENDBRANCH  19  20
ENDBRANCH  18  19
ENDBRANCH  17  18
ENDBRANCH   1  17
TORSDOF 10
ENDMDL
MODEL 7
REMARK VINA RESULT:    -5.651     21.139     23.842
REMARK INTER + INTRA:          -9.420
REMARK INTER:                  -8.216
REMARK INTRA:                  -1.204
REMARK UNBOUND:                -0.631
REMARK SMILES COc1cc(CNC(=O)CCCCCC(C)C)ccc1O
REMARK SMILES IDX 10 1 8 2 7 3 9 5 6 6 5 7 3 8 20 9 4 10 19 11 18 12 2 13 1 14
REMARK SMILES IDX 21 15 11 17 12 18 13 19 14 20 15 21 16 22 17 23
REMARK H PARENT 7 4 21 16
REMARK Flexibility Score: inf
ROOT
ATOM      1  C   UNL     1      69.786  84.232  66.359  1.00  0.00     0.100 C 
ENDROOT
BRANCH   1   2
ATOM      2  C   UNL     1      70.486  84.739  67.558  1.00  0.00     0.220 C 
ATOM      3  N   UNL     1      71.681  85.378  67.416  1.00  0.00    -0.352 N 
ATOM      4  H   UNL     1      72.074  85.343  66.486  1.00  0.00     0.163 HD
ATOM      5  O   UNL     1      69.943  84.606  68.682  1.00  0.00    -0.275 OA
BRANCH   3   6
ATOM      6  C   UNL     1      72.376  86.064  68.458  1.00  0.00     0.151 C 
BRANCH   6   7
ATOM      7  C   UNL     1      73.854  85.921  68.368  1.00  0.00    -0.025 A 
ATOM      8  C   UNL     1      75.984  86.448  67.257  1.00  0.00     0.160 A 
ATOM      9  C   UNL     1      76.676  85.702  68.235  1.00  0.00     0.157 A 
ATOM     10  C   UNL     1      74.577  86.537  67.319  1.00  0.00     0.056 A 
ATOM     11  C   UNL     1      75.965  85.063  69.267  1.00  0.00     0.050 A 
ATOM     12  C   UNL     1      74.566  85.175  69.337  1.00  0.00     0.009 A 
BRANCH   8  13
ATOM     13  O   UNL     1      76.655  87.062  66.233  1.00  0.00    -0.493 OA
ATOM     14  C   UNL     1      76.591  88.500  66.274  1.00  0.00     0.278 C 
ENDBRANCH   8  13
BRANCH   9  15
ATOM     15  O   UNL     1      78.028  85.609  68.184  1.00  0.00    -0.504 OA
ATOM     16  H   UNL     1      78.287  85.158  67.377  1.00  0.00     0.293 HD
ENDBRANCH   9  15
ENDBRANCH   6   7
ENDBRANCH   3   6
ENDBRANCH   1   2
BRANCH   1  17
ATOM     17  C   UNL     1      70.032  82.728  66.065  1.00  0.00     0.010 C 
BRANCH  17  18
ATOM     18  C   UNL     1      70.971  82.530  64.843  1.00  0.00     0.001 C 
BRANCH  18  19
ATOM     19  C   UNL     1      72.247  81.711  65.173  1.00  0.00     0.000 C 
BRANCH  19  20
ATOM     20  C   UNL     1      73.423  82.616  65.640  1.00  0.00     0.003 C 
BRANCH  20  21
ATOM     21  C   UNL     1      74.850  82.036  65.372  1.00  0.00    -0.017 C 
ATOM     22  C   UNL     1      75.950  83.074  65.741  1.00  0.00     0.007 C 
ATOM     23  C   UNL     1      75.041  81.555  63.904  1.00  0.00     0.007 C 
ENDBRANCH  20  21
ENDBRANCH  19  20
ENDBRANCH  18  19
ENDBRANCH  17  18
ENDBRANCH   1  17
TORSDOF 10
ENDMDL
MODEL 8
REMARK VINA RESULT:    -5.624     21.634     24.202
REMARK INTER + INTRA:          -9.379
REMARK INTER:                  -8.755
REMARK INTRA:                  -0.624
REMARK UNBOUND:                -0.631
REMARK SMILES COc1cc(CNC(=O)CCCCCC(C)C)ccc1O
REMARK SMILES IDX 10 1 8 2 7 3 9 5 6 6 5 7 3 8 20 9 4 10 19 11 18 12 2 13 1 14
REMARK SMILES IDX 21 15 11 17 12 18 13 19 14 20 15 21 16 22 17 23
REMARK H PARENT 7 4 21 16
REMARK Flexibility Score: inf
ROOT
ATOM      1  C   UNL     1      75.938  84.511  65.702  1.00  0.00     0.100 C 
ENDROOT
BRANCH   1   2
ATOM      2  C   UNL     1      75.469  83.192  65.227  1.00  0.00     0.220 C 
ATOM      3  N   UNL     1      74.643  82.451  66.018  1.00  0.00    -0.352 N 
ATOM      4  H   UNL     1      74.513  82.811  66.953  1.00  0.00     0.163 HD
ATOM      5  O   UNL     1      75.809  82.801  64.084  1.00  0.00    -0.275 OA
BRANCH   3   6
ATOM      6  C   UNL     1      73.982  81.250  65.618  1.00  0.00     0.151 C 
BRANCH   6   7
ATOM      7  C   UNL     1      72.672  81.497  64.956  1.00  0.00    -0.025 A 
ATOM      8  C   UNL     1      70.535  82.707  64.844  1.00  0.00     0.160 A 
ATOM      9  C   UNL     1      70.208  82.016  63.658  1.00  0.00     0.157 A 
ATOM     10  C   UNL     1      71.756  82.430  65.495  1.00  0.00     0.056 A 
ATOM     11  C   UNL     1      71.100  81.066  63.128  1.00  0.00     0.050 A 
ATOM     12  C   UNL     1      72.325  80.813  63.768  1.00  0.00     0.009 A 
BRANCH   8  13
ATOM     13  O   UNL     1      69.671  83.621  65.388  1.00  0.00    -0.493 OA
ATOM     14  C   UNL     1      69.907  83.887  66.784  1.00  0.00     0.278 C 
ENDBRANCH   8  13
BRANCH   9  15
ATOM     15  O   UNL     1      69.036  82.273  63.026  1.00  0.00    -0.504 OA
ATOM     16  H   UNL     1      68.635  83.060  63.401  1.00  0.00     0.293 HD
ENDBRANCH   9  15
ENDBRANCH   6   7
ENDBRANCH   3   6
ENDBRANCH   1   2
BRANCH   1  17
ATOM     17  C   UNL     1      76.456  84.515  67.166  1.00  0.00     0.010 C 
BRANCH  17  18
ATOM     18  C   UNL     1      77.447  85.684  67.419  1.00  0.00     0.001 C 
BRANCH  18  19
ATOM     19  C   UNL     1      76.751  86.996  67.869  1.00  0.00     0.000 C 
BRANCH  19  20
ATOM     20  C   UNL     1      77.534  88.263  67.417  1.00  0.00     0.003 C 
BRANCH  20  21
ATOM     21  C   UNL     1      76.671  89.560  67.285  1.00  0.00    -0.017 C 
ATOM     22  C   UNL     1      75.864  89.825  68.590  1.00  0.00     0.007 C 
ATOM     23  C   UNL     1      75.710  89.524  66.061  1.00  0.00     0.007 C 
ENDBRANCH  20  21
ENDBRANCH  19  20
ENDBRANCH  18  19
ENDBRANCH  17  18
ENDBRANCH   1  17
TORSDOF 10
ENDMDL
MODEL 9
REMARK VINA RESULT:    -5.564     19.191     21.649
REMARK INTER + INTRA:          -9.285
REMARK INTER:                  -7.665
REMARK INTRA:                  -1.620
REMARK UNBOUND:                -0.631
REMARK SMILES COc1cc(CNC(=O)CCCCCC(C)C)ccc1O
REMARK SMILES IDX 10 1 8 2 7 3 9 5 6 6 5 7 3 8 20 9 4 10 19 11 18 12 2 13 1 14
REMARK SMILES IDX 21 15 11 17 12 18 13 19 14 20 15 21 16 22 17 23
REMARK H PARENT 7 4 21 16
REMARK Flexibility Score: inf
ROOT
ATOM      1  C   UNL     1      75.294  89.388  68.685  1.00  0.00     0.100 C 
ENDROOT
BRANCH   1   2
ATOM      2  C   UNL     1      74.278  88.395  68.277  1.00  0.00     0.220 C 
ATOM      3  N   UNL     1      73.670  88.520  67.064  1.00  0.00    -0.352 N 
ATOM      4  H   UNL     1      73.870  89.381  66.574  1.00  0.00     0.163 HD
ATOM      5  O   UNL     1      74.028  87.431  69.041  1.00  0.00    -0.275 OA
BRANCH   3   6
ATOM      6  C   UNL     1      72.807  87.548  66.473  1.00  0.00     0.151 C 
BRANCH   6   7
ATOM      7  C   UNL     1      73.542  86.478  65.747  1.00  0.00    -0.025 A 
ATOM      8  C   UNL     1      74.116  84.104  65.458  1.00  0.00     0.160 A 
ATOM      9  C   UNL     1      74.889  84.432  64.323  1.00  0.00     0.157 A 
ATOM     10  C   UNL     1      73.463  85.131  66.173  1.00  0.00     0.056 A 
ATOM     11  C   UNL     1      74.996  85.772  63.907  1.00  0.00     0.050 A 
ATOM     12  C   UNL     1      74.324  86.786  64.609  1.00  0.00     0.009 A 
BRANCH   8  13
ATOM     13  O   UNL     1      74.015  82.809  65.892  1.00  0.00    -0.493 OA
ATOM     14  C   UNL     1      72.798  82.153  65.488  1.00  0.00     0.278 C 
ENDBRANCH   8  13
BRANCH   9  15
ATOM     15  O   UNL     1      75.522  83.453  63.630  1.00  0.00    -0.504 OA
ATOM     16  H   UNL     1      76.472  83.580  63.692  1.00  0.00     0.293 HD
ENDBRANCH   9  15
ENDBRANCH   6   7
ENDBRANCH   3   6
ENDBRANCH   1   2
BRANCH   1  17
ATOM     17  C   UNL     1      76.009  90.094  67.502  1.00  0.00     0.010 C 
BRANCH  17  18
ATOM     18  C   UNL     1      76.811  89.086  66.634  1.00  0.00     0.001 C 
BRANCH  18  19
ATOM     19  C   UNL     1      77.423  87.919  67.452  1.00  0.00     0.000 C 
BRANCH  19  20
ATOM     20  C   UNL     1      77.140  86.533  66.803  1.00  0.00     0.003 C 
BRANCH  20  21
ATOM     21  C   UNL     1      77.487  85.300  67.701  1.00  0.00    -0.017 C 
ATOM     22  C   UNL     1      77.530  83.993  66.856  1.00  0.00     0.007 C 
ATOM     23  C   UNL     1      76.508  85.130  68.898  1.00  0.00     0.007 C 
ENDBRANCH  20  21
ENDBRANCH  19  20
ENDBRANCH  18  19
ENDBRANCH  17  18
ENDBRANCH   1  17
TORSDOF 10
ENDMDL
MODEL 10
REMARK VINA RESULT:    -5.508     17.402     20.858
REMARK INTER + INTRA:          -9.199
REMARK INTER:                  -8.458
REMARK INTRA:                  -0.741
REMARK UNBOUND:                -0.631
REMARK SMILES COc1cc(CNC(=O)CCCCCC(C)C)ccc1O
REMARK SMILES IDX 10 1 8 2 7 3 9 5 6 6 5 7 3 8 20 9 4 10 19 11 18 12 2 13 1 14
REMARK SMILES IDX 21 15 11 17 12 18 13 19 14 20 15 21 16 22 17 23
REMARK H PARENT 7 4 21 16
REMARK Flexibility Score: inf
ROOT
ATOM      1  C   UNL     1      96.985  81.189  81.247  1.00  0.00     0.100 C 
ENDROOT
BRANCH   1   2
ATOM      2  C   UNL     1      96.624  81.920  82.480  1.00  0.00     0.220 C 
ATOM      3  N   UNL     1      96.236  81.221  83.583  1.00  0.00    -0.352 N 
ATOM      4  H   UNL     1      96.095  80.232  83.432  1.00  0.00     0.163 HD
ATOM      5  O   UNL     1      96.723  83.171  82.497  1.00  0.00    -0.275 OA
BRANCH   3   6
ATOM      6  C   UNL     1      96.029  81.781  84.880  1.00  0.00     0.151 C 
BRANCH   6   7
ATOM      7  C   UNL     1      94.590  81.958  85.217  1.00  0.00    -0.025 A 
ATOM      8  C   UNL     1      92.812  83.169  86.408  1.00  0.00     0.160 A 
ATOM      9  C   UNL     1      91.845  82.337  85.806  1.00  0.00     0.157 A 
ATOM     10  C   UNL     1      94.179  82.962  86.125  1.00  0.00     0.056 A 
ATOM     11  C   UNL     1      92.245  81.317  84.922  1.00  0.00     0.050 A 
ATOM     12  C   UNL     1      93.606  81.132  84.626  1.00  0.00     0.009 A 
BRANCH   8  13
ATOM     13  O   UNL     1      92.446  84.155  87.287  1.00  0.00    -0.493 OA
ATOM     14  C   UNL     1      93.556  84.768  87.970  1.00  0.00     0.278 C 
ENDBRANCH   8  13
BRANCH   9  15
ATOM     15  O   UNL     1      90.529  82.526  86.073  1.00  0.00    -0.504 OA
ATOM     16  H   UNL     1      90.330  82.195  86.952  1.00  0.00     0.293 HD
ENDBRANCH   9  15
ENDBRANCH   6   7
ENDBRANCH   3   6
ENDBRANCH   1   2
BRANCH   1  17
ATOM     17  C   UNL     1      97.000  82.067  79.966  1.00  0.00     0.010 C 
BRANCH  17  18
ATOM     18  C   UNL     1      98.126  81.632  78.988  1.00  0.00     0.001 C 
BRANCH  18  19
ATOM     19  C   UNL     1      97.709  80.474  78.043  1.00  0.00     0.000 C 
BRANCH  19  20
ATOM     20  C   UNL     1      96.649  80.922  76.996  1.00  0.00     0.003 C 
BRANCH  20  21
ATOM     21  C   UNL     1      96.997  82.237  76.225  1.00  0.00    -0.017 C 
ATOM     22  C   UNL     1      95.861  83.291  76.383  1.00  0.00     0.007 C 
ATOM     23  C   UNL     1      97.293  81.994  74.717  1.00  0.00     0.007 C 
ENDBRANCH  20  21
ENDBRANCH  19  20
ENDBRANCH  18  19
ENDBRANCH  17  18
ENDBRANCH   1  17
TORSDOF 10
ENDMDL
