MODEL 1
REMARK VINA RESULT:    -7.367      0.000      0.000
REMARK INTER + INTRA:         -13.767
REMARK INTER:                 -12.536
REMARK INTRA:                  -1.231
REMARK UNBOUND:                -1.231
REMARK SMILES C=C(C)[C@]12C[C@@H](C)[C@@]34O[C@](Cc5ccccc5)(O[C@@H]1[C@@H]3C=C(COC(=O)Cc1ccc(O)cc1)C[C@]1(O)C(=O)C(C)=C[C@@H]41)O2
REMARK SMILES IDX 23 1 22 2 21 3 20 4 9 5 8 6 10 7 6 8 18 10 44 11 19 12 5 13
REMARK SMILES IDX 7 14 4 15 11 16 12 17 13 18 17 19 14 20 16 21 15 22 2 23
REMARK SMILES IDX 3 24 1 25 35 26 36 27 43 28 38 29 42 30 39 32 40 33 41 34
REMARK SMILES IDX 37 35 24 37 25 38 26 39 27 40 28 41 29 42 34 43 30 44 33 45
REMARK SMILES IDX 31 46 32 47
REMARK H PARENT 37 36 32 48
REMARK Flexibility Score: 90.00
ROOT
ATOM      1  C   UNL     1      77.938  92.623  90.231  1.00  0.00     0.264 C 
ENDROOT
BRANCH   1   2
ATOM      2  C   UNL     1      78.273  91.208  89.818  1.00  0.00    -0.033 C 
ATOM      3  C   UNL     1      79.054  91.004  88.737  1.00  0.00    -0.015 C 
BRANCH   3   4
ATOM      4  C   UNL     1      79.469  89.698  88.078  1.00  0.00     0.078 C 
ATOM      5  O   UNL     1      81.636  89.046  89.075  1.00  0.00    -0.319 OA
ATOM      6  C   UNL     1      80.239  88.635  88.944  1.00  0.00     0.095 CG0
ATOM      7  C   UNL     1      82.244  89.548  87.870  1.00  0.00     0.289 C 
ATOM      8  C   UNL     1      80.170  87.251  88.177  1.00  0.00     0.023 C 
ATOM      9  G   UNL     1      79.702  88.617  90.405  1.00  0.00     0.000 G0
ATOM     10  O   UNL     1      81.522  90.661  87.350  1.00  0.00    -0.320 OA
ATOM     11  O   UNL     1      82.261  88.579  86.825  1.00  0.00    -0.313 OA
ATOM     12  C   UNL     1      80.357  89.991  86.844  1.00  0.00     0.170 C 
ATOM     13  C   UNL     1      80.174  87.452  86.631  1.00  0.00     0.049 C 
ATOM     14  C   UNL     1      81.252  86.227  88.560  1.00  0.00     0.011 C 
ATOM     15  C   UNL     1      80.954  88.703  86.225  1.00  0.00     0.122 C 
BRANCH   7  16
ATOM     16  C   UNL     1      83.665  89.965  88.194  1.00  0.00     0.135 C 
BRANCH  16  17
ATOM     17  C   UNL     1      84.401  90.463  86.975  1.00  0.00    -0.040 A 
ATOM     18  C   UNL     1      84.309  91.804  86.603  1.00  0.00     0.004 A 
ATOM     19  C   UNL     1      85.175  89.581  86.220  1.00  0.00     0.004 A 
ATOM     20  C   UNL     1      84.991  92.264  85.476  1.00  0.00     0.000 A 
ATOM     21  C   UNL     1      85.856  90.042  85.093  1.00  0.00     0.000 A 
ATOM     22  C   UNL     1      85.764  91.383  84.721  1.00  0.00     0.000 A 
ENDBRANCH  16  17
ENDBRANCH   7  16
BRANCH  15  23
ATOM     23  C   UNL     1      81.125  88.818  84.745  1.00  0.00    -0.046 C 
ATOM     24  C   UNL     1      82.085  89.869  84.270  1.00  0.00     0.042 C 
ATOM     25  C   UNL     1      80.460  88.028  83.891  1.00  0.00     0.010 C 
ENDBRANCH  15  23
ENDBRANCH   3   4
BRANCH   2  26
ATOM     26  C   UNL     1      77.659  90.161  90.728  1.00  0.00     0.078 C 
BRANCH  26  27
ATOM     27  C   UNL     1      78.154  88.724  90.572  1.00  0.00     0.140 C 
ATOM     28  C   UNL     1      79.687  88.649  90.411  1.00  0.00     0.086 CG0
ATOM     29  C   UNL     1      77.917  87.891  91.814  1.00  0.00     0.190 C 
ATOM     30  C   UNL     1      80.083  87.542  91.348  1.00  0.00    -0.010 C 
ATOM     31  G   UNL     1      80.223  88.641  88.950  1.00  0.00     0.000 G0
ATOM     32  O   UNL     1      76.862  87.818  92.427  1.00  0.00    -0.291 OA
ATOM     33  C   UNL     1      79.119  87.114  92.168  1.00  0.00    -0.008 C 
ATOM     34  C   UNL     1      79.170  86.115  93.256  1.00  0.00     0.048 C 
BRANCH  27  35
ATOM     35  O   UNL     1      77.438  88.036  89.561  1.00  0.00    -0.381 OA
ATOM     36  H   UNL     1      78.079  87.649  88.940  1.00  0.00     0.212 HD
ENDBRANCH  27  35
ENDBRANCH  26  27
ENDBRANCH   2  26
ENDBRANCH   1   2
BRANCH   1  37
ATOM     37  O   UNL     1      78.922  93.092  91.128  1.00  0.00    -0.461 OA
BRANCH  37  38
ATOM     38  C   UNL     1      79.159  94.447  91.116  1.00  0.00     0.310 C 
ATOM     39  O   UNL     1      78.304  95.308  90.959  1.00  0.00    -0.252 OA
BRANCH  38  40
ATOM     40  C   UNL     1      80.632  94.703  91.325  1.00  0.00     0.158 C 
BRANCH  40  41
ATOM     41  C   UNL     1      81.348  95.086  90.057  1.00  0.00    -0.037 A 
ATOM     42  C   UNL     1      82.196  94.172  89.431  1.00  0.00     0.008 A 
ATOM     43  C   UNL     1      81.165  96.354  89.507  1.00  0.00     0.008 A 
ATOM     44  C   UNL     1      82.861  94.526  88.257  1.00  0.00     0.046 A 
ATOM     45  C   UNL     1      81.829  96.710  88.332  1.00  0.00     0.046 A 
ATOM     46  C   UNL     1      82.677  95.796  87.707  1.00  0.00     0.115 A 
BRANCH  46  47
ATOM     47  O   UNL     1      83.325  96.142  86.562  1.00  0.00    -0.508 OA
ATOM     48  H   UNL     1      83.257  95.408  85.927  1.00  0.00     0.293 HD
ENDBRANCH  46  47
ENDBRANCH  40  41
ENDBRANCH  38  40
ENDBRANCH  37  38
ENDBRANCH   1  37
TORSDOF 10
ENDMDL
MODEL 2
REMARK VINA RESULT:    -7.225     18.513     24.000
REMARK INTER + INTRA:         -13.525
REMARK INTER:                 -13.115
REMARK INTRA:                  -0.411
REMARK UNBOUND:                -1.231
REMARK SMILES C=C(C)[C@]12C[C@@H](C)[C@@]34O[C@](Cc5ccccc5)(O[C@@H]1[C@@H]3C=C(COC(=O)Cc1ccc(O)cc1)C[C@]1(O)C(=O)C(C)=C[C@@H]41)O2
REMARK SMILES IDX 23 1 22 2 21 3 20 4 9 5 8 6 10 7 6 8 18 10 44 11 19 12 5 13
REMARK SMILES IDX 7 14 4 15 11 16 12 17 13 18 17 19 14 20 16 21 15 22 2 23
REMARK SMILES IDX 3 24 1 25 35 26 36 27 43 28 38 29 42 30 39 32 40 33 41 34
REMARK SMILES IDX 37 35 24 37 25 38 26 39 27 40 28 41 29 42 34 43 30 44 33 45
REMARK SMILES IDX 31 46 32 47
REMARK H PARENT 37 36 32 48
REMARK Flexibility Score: 90.00
ROOT
ATOM      1  C   UNL     1      93.995  98.282  70.844  1.00  0.00     0.264 C 
ENDROOT
BRANCH   1   2
ATOM      2  C   UNL     1      95.334  98.339  71.541  1.00  0.00    -0.033 C 
ATOM      3  C   UNL     1      95.387  98.179  72.880  1.00  0.00    -0.015 C 
BRANCH   3   4
ATOM      4  C   UNL     1      96.582  98.268  73.816  1.00  0.00     0.078 C 
ATOM      5  O   UNL     1      97.480  95.976  74.058  1.00  0.00    -0.319 OA
ATOM      6  C   UNL     1      97.805  97.312  73.561  1.00  0.00     0.095 CG0
ATOM      7  C   UNL     1      96.810  95.940  75.332  1.00  0.00     0.289 C 
ATOM      8  C   UNL     1      99.040  97.885  74.371  1.00  0.00     0.023 C 
ATOM      9  G   UNL     1      98.042  97.111  72.036  1.00  0.00     0.000 G0
ATOM     10  O   UNL     1      95.598  96.688  75.302  1.00  0.00    -0.320 OA
ATOM     11  O   UNL     1      97.593  96.519  76.373  1.00  0.00    -0.313 OA
ATOM     12  C   UNL     1      96.127  98.023  75.275  1.00  0.00     0.170 C 
ATOM     13  C   UNL     1      98.585  98.573  75.695  1.00  0.00     0.049 C 
ATOM     14  C   UNL     1     100.156  96.873  74.680  1.00  0.00     0.011 C 
ATOM     15  C   UNL     1      97.317  97.931  76.260  1.00  0.00     0.122 C 
BRANCH   7  16
ATOM     16  C   UNL     1      96.512  94.493  75.671  1.00  0.00     0.135 C 
BRANCH  16  17
ATOM     17  C   UNL     1      95.051  94.272  75.975  1.00  0.00    -0.040 A 
ATOM     18  C   UNL     1      94.603  94.283  77.295  1.00  0.00     0.004 A 
ATOM     19  C   UNL     1      94.148  94.056  74.934  1.00  0.00     0.004 A 
ATOM     20  C   UNL     1      93.252  94.079  77.576  1.00  0.00     0.000 A 
ATOM     21  C   UNL     1      92.797  93.852  75.215  1.00  0.00     0.000 A 
ATOM     22  C   UNL     1      92.349  93.864  76.535  1.00  0.00     0.000 A 
ENDBRANCH  16  17
ENDBRANCH   7  16
BRANCH  15  23
ATOM     23  C   UNL     1      96.966  98.451  77.616  1.00  0.00    -0.046 C 
ATOM     24  C   UNL     1      96.500  99.875  77.678  1.00  0.00     0.042 C 
ATOM     25  C   UNL     1      97.062  97.688  78.715  1.00  0.00     0.010 C 
ENDBRANCH  15  23
ENDBRANCH   3   4
BRANCH   2  26
ATOM     26  C   UNL     1      96.492  98.574  70.590  1.00  0.00     0.078 C 
BRANCH  26  27
ATOM     27  C   UNL     1      97.902  98.391  71.147  1.00  0.00     0.140 C 
ATOM     28  C   UNL     1      98.023  97.129  72.026  1.00  0.00     0.086 CG0
ATOM     29  C   UNL     1      98.926  98.131  70.063  1.00  0.00     0.190 C 
ATOM     30  C   UNL     1      99.294  96.487  71.544  1.00  0.00    -0.010 C 
ATOM     31  G   UNL     1      97.803  97.333  73.553  1.00  0.00     0.000 G0
ATOM     32  O   UNL     1      99.052  98.784  69.037  1.00  0.00    -0.291 OA
ATOM     33  C   UNL     1      99.810  97.009  70.427  1.00  0.00    -0.008 C 
ATOM     34  C   UNL     1     100.984  96.587  69.634  1.00  0.00     0.048 C 
BRANCH  27  35
ATOM     35  O   UNL     1      98.368  99.573  71.776  1.00  0.00    -0.381 OA
ATOM     36  H   UNL     1      97.955  99.637  72.654  1.00  0.00     0.212 HD
ENDBRANCH  27  35
ENDBRANCH  26  27
ENDBRANCH   2  26
ENDBRANCH   1   2
BRANCH   1  37
ATOM     37  O   UNL     1      93.458  99.585  70.757  1.00  0.00    -0.461 OA
BRANCH  37  38
ATOM     38  C   UNL     1      93.288 100.088  69.487  1.00  0.00     0.310 C 
ATOM     39  O   UNL     1      94.184 100.251  68.671  1.00  0.00    -0.252 OA
BRANCH  38  40
ATOM     40  C   UNL     1      91.829 100.406  69.262  1.00  0.00     0.158 C 
BRANCH  40  41
ATOM     41  C   UNL     1      91.125  99.371  68.424  1.00  0.00    -0.037 A 
ATOM     42  C   UNL     1      90.843  98.114  68.959  1.00  0.00     0.008 A 
ATOM     43  C   UNL     1      90.755  99.669  67.113  1.00  0.00     0.008 A 
ATOM     44  C   UNL     1      90.192  97.155  68.183  1.00  0.00     0.046 A 
ATOM     45  C   UNL     1      90.103  98.711  66.336  1.00  0.00     0.046 A 
ATOM     46  C   UNL     1      89.822  97.454  66.871  1.00  0.00     0.115 A 
BRANCH  46  47
ATOM     47  O   UNL     1      89.187  96.519  66.114  1.00  0.00    -0.508 OA
ATOM     48  H   UNL     1      89.617  96.473  65.242  1.00  0.00     0.293 HD
ENDBRANCH  46  47
ENDBRANCH  40  41
ENDBRANCH  38  40
ENDBRANCH  37  38
ENDBRANCH   1  37
TORSDOF 10
ENDMDL
MODEL 3
REMARK VINA RESULT:    -7.121     17.454     23.110
REMARK INTER + INTRA:         -13.348
REMARK INTER:                 -13.022
REMARK INTRA:                  -0.326
REMARK UNBOUND:                -1.231
REMARK SMILES C=C(C)[C@]12C[C@@H](C)[C@@]34O[C@](Cc5ccccc5)(O[C@@H]1[C@@H]3C=C(COC(=O)Cc1ccc(O)cc1)C[C@]1(O)C(=O)C(C)=C[C@@H]41)O2
REMARK SMILES IDX 23 1 22 2 21 3 20 4 9 5 8 6 10 7 6 8 18 10 44 11 19 12 5 13
REMARK SMILES IDX 7 14 4 15 11 16 12 17 13 18 17 19 14 20 16 21 15 22 2 23
REMARK SMILES IDX 3 24 1 25 35 26 36 27 43 28 38 29 42 30 39 32 40 33 41 34
REMARK SMILES IDX 37 35 24 37 25 38 26 39 27 40 28 41 29 42 34 43 30 44 33 45
REMARK SMILES IDX 31 46 32 47
REMARK H PARENT 37 36 32 48
REMARK Flexibility Score: 90.00
ROOT
ATOM      1  C   UNL     1      95.323  96.213  73.729  1.00  0.00     0.264 C 
ENDROOT
BRANCH   1   2
ATOM      2  C   UNL     1      95.262  97.698  73.453  1.00  0.00    -0.033 C 
ATOM      3  C   UNL     1      94.990  98.125  72.202  1.00  0.00    -0.015 C 
BRANCH   3   4
ATOM      4  C   UNL     1      94.947  99.542  71.655  1.00  0.00     0.078 C 
ATOM      5  O   UNL     1      92.610 100.325  71.861  1.00  0.00    -0.319 OA
ATOM      6  C   UNL     1      93.972 100.576  72.328  1.00  0.00     0.095 CG0
ATOM      7  C   UNL     1      92.485 100.051  70.452  1.00  0.00     0.289 C 
ATOM      8  C   UNL     1      94.422 102.026  71.875  1.00  0.00     0.023 C 
ATOM      9  G   UNL     1      93.902 100.349  73.867  1.00  0.00     0.000 G0
ATOM     10  O   UNL     1      93.278  98.931  70.069  1.00  0.00    -0.320 OA
ATOM     11  O   UNL     1      92.936 101.137  69.646  1.00  0.00    -0.313 OA
ATOM     12  C   UNL     1      94.589  99.513  70.148  1.00  0.00     0.170 C 
ATOM     13  C   UNL     1      95.004 102.018  70.428  1.00  0.00     0.049 C 
ATOM     14  C   UNL     1      93.344 103.118  71.984  1.00  0.00     0.011 C 
ATOM     15  C   UNL     1      94.362 100.930  69.566  1.00  0.00     0.122 C 
BRANCH   7  16
ATOM     16  C   UNL     1      91.025  99.773  70.151  1.00  0.00     0.135 C 
BRANCH  16  17
ATOM     17  C   UNL     1      90.839  99.116  68.806  1.00  0.00    -0.040 A 
ATOM     18  C   UNL     1      90.643  97.738  68.724  1.00  0.00     0.004 A 
ATOM     19  C   UNL     1      90.865  99.887  67.645  1.00  0.00     0.004 A 
ATOM     20  C   UNL     1      90.471  97.130  67.480  1.00  0.00     0.000 A 
ATOM     21  C   UNL     1      90.692  99.279  66.400  1.00  0.00     0.000 A 
ATOM     22  C   UNL     1      90.496  97.902  66.318  1.00  0.00     0.000 A 
ENDBRANCH  16  17
ENDBRANCH   7  16
BRANCH  15  23
ATOM     23  C   UNL     1      94.770 101.019  68.131  1.00  0.00    -0.046 C 
ATOM     24  C   UNL     1      96.210 100.722  67.833  1.00  0.00     0.042 C 
ATOM     25  C   UNL     1      93.899 101.347  67.165  1.00  0.00     0.010 C 
ENDBRANCH  15  23
ENDBRANCH   3   4
BRANCH   2  26
ATOM     26  C   UNL     1      95.523  98.544  74.685  1.00  0.00     0.078 C 
BRANCH  26  27
ATOM     27  C   UNL     1      95.275 100.046  74.564  1.00  0.00     0.140 C 
ATOM     28  C   UNL     1      93.927 100.363  73.884  1.00  0.00     0.086 CG0
ATOM     29  C   UNL     1      95.125 100.719  75.913  1.00  0.00     0.190 C 
ATOM     30  C   UNL     1      93.333 101.427  74.764  1.00  0.00    -0.010 C 
ATOM     31  G   UNL     1      93.971 100.582  72.344  1.00  0.00     0.000 G0
ATOM     32  O   UNL     1      95.881 100.578  76.862  1.00  0.00    -0.291 OA
ATOM     33  C   UNL     1      93.966 101.631  75.923  1.00  0.00    -0.008 C 
ATOM     34  C   UNL     1      93.624 102.523  77.050  1.00  0.00     0.048 C 
BRANCH  27  35
ATOM     35  O   UNL     1      96.383 100.709  73.977  1.00  0.00    -0.381 OA
ATOM     36  H   UNL     1      96.048 101.449  73.443  1.00  0.00     0.212 HD
ENDBRANCH  27  35
ENDBRANCH  26  27
ENDBRANCH   2  26
ENDBRANCH   1   2
BRANCH   1  37
ATOM     37  O   UNL     1      95.586  96.004  75.100  1.00  0.00    -0.461 OA
BRANCH  37  38
ATOM     38  C   UNL     1      95.309  94.747  75.587  1.00  0.00     0.310 C 
ATOM     39  O   UNL     1      95.867  93.718  75.233  1.00  0.00    -0.252 OA
BRANCH  38  40
ATOM     40  C   UNL     1      94.215  94.838  76.624  1.00  0.00     0.158 C 
BRANCH  40  41
ATOM     41  C   UNL     1      93.033  93.959  76.309  1.00  0.00    -0.037 A 
ATOM     42  C   UNL     1      92.724  93.654  74.983  1.00  0.00     0.008 A 
ATOM     43  C   UNL     1      92.247  93.450  77.342  1.00  0.00     0.008 A 
ATOM     44  C   UNL     1      91.629  92.840  74.691  1.00  0.00     0.046 A 
ATOM     45  C   UNL     1      91.152  92.635  77.051  1.00  0.00     0.046 A 
ATOM     46  C   UNL     1      90.843  92.331  75.726  1.00  0.00     0.115 A 
BRANCH  46  47
ATOM     47  O   UNL     1      89.774  91.538  75.441  1.00  0.00    -0.508 OA
ATOM     48  H   UNL     1      88.959  92.059  75.540  1.00  0.00     0.293 HD
ENDBRANCH  46  47
ENDBRANCH  40  41
ENDBRANCH  38  40
ENDBRANCH  37  38
ENDBRANCH   1  37
TORSDOF 10
ENDMDL
MODEL 4
REMARK VINA RESULT:    -6.734     18.679     24.163
REMARK INTER + INTRA:         -12.689
REMARK INTER:                 -12.985
REMARK INTRA:                   0.296
REMARK UNBOUND:                -1.231
REMARK SMILES C=C(C)[C@]12C[C@@H](C)[C@@]34O[C@](Cc5ccccc5)(O[C@@H]1[C@@H]3C=C(COC(=O)Cc1ccc(O)cc1)C[C@]1(O)C(=O)C(C)=C[C@@H]41)O2
REMARK SMILES IDX 23 1 22 2 21 3 20 4 9 5 8 6 10 7 6 8 18 10 44 11 19 12 5 13
REMARK SMILES IDX 7 14 4 15 11 16 12 17 13 18 17 19 14 20 16 21 15 22 2 23
REMARK SMILES IDX 3 24 1 25 35 26 36 27 43 28 38 29 42 30 39 32 40 33 41 34
REMARK SMILES IDX 37 35 24 37 25 38 26 39 27 40 28 41 29 42 34 43 30 44 33 45
REMARK SMILES IDX 31 46 32 47
REMARK H PARENT 37 36 32 48
REMARK Flexibility Score: 90.00
ROOT
ATOM      1  C   UNL     1      93.841  97.867  72.015  1.00  0.00     0.264 C 
ENDROOT
BRANCH   1   2
ATOM      2  C   UNL     1      93.608  99.333  71.727  1.00  0.00    -0.033 C 
ATOM      3  C   UNL     1      93.773  99.791  70.469  1.00  0.00    -0.015 C 
BRANCH   3   4
ATOM      4  C   UNL     1      93.675 101.214  69.940  1.00  0.00     0.078 C 
ATOM      5  O   UNL     1      91.348 101.538  69.170  1.00  0.00    -0.319 OA
ATOM      6  C   UNL     1      92.329 101.999  70.150  1.00  0.00     0.095 CG0
ATOM      7  C   UNL     1      91.854 101.349  67.834  1.00  0.00     0.289 C 
ATOM      8  C   UNL     1      92.628 103.536  69.907  1.00  0.00     0.023 C 
ATOM      9  G   UNL     1      91.694 101.651  71.528  1.00  0.00     0.000 G0
ATOM     10  O   UNL     1      92.938 100.425  67.817  1.00  0.00    -0.320 OA
ATOM     11  O   UNL     1      92.368 102.555  67.274  1.00  0.00    -0.313 OA
ATOM     12  C   UNL     1      93.964 101.230  68.419  1.00  0.00     0.170 C 
ATOM     13  C   UNL     1      93.730 103.741  68.824  1.00  0.00     0.049 C 
ATOM     14  C   UNL     1      91.404 104.401  69.559  1.00  0.00     0.011 C 
ATOM     15  C   UNL     1      93.716 102.619  67.783  1.00  0.00     0.122 C 
BRANCH   7  16
ATOM     16  C   UNL     1      90.724 100.831  66.967  1.00  0.00     0.135 C 
BRANCH  16  17
ATOM     17  C   UNL     1      90.446  99.369  67.213  1.00  0.00    -0.040 A 
ATOM     18  C   UNL     1      90.587  98.838  68.495  1.00  0.00     0.004 A 
ATOM     19  C   UNL     1      90.046  98.549  66.158  1.00  0.00     0.004 A 
ATOM     20  C   UNL     1      90.329  97.486  68.723  1.00  0.00     0.000 A 
ATOM     21  C   UNL     1      89.787  97.197  66.386  1.00  0.00     0.000 A 
ATOM     22  C   UNL     1      89.929  96.666  67.668  1.00  0.00     0.000 A 
ENDBRANCH  16  17
ENDBRANCH   7  16
BRANCH  15  23
ATOM     23  C   UNL     1      94.639 102.886  66.639  1.00  0.00    -0.046 C 
ATOM     24  C   UNL     1      95.964 102.185  66.680  1.00  0.00     0.042 C 
ATOM     25  C   UNL     1      94.302 103.707  65.633  1.00  0.00     0.010 C 
ENDBRANCH  15  23
ENDBRANCH   3   4
BRANCH   2  26
ATOM     26  C   UNL     1      93.191 100.122  72.954  1.00  0.00     0.078 C 
BRANCH  26  27
ATOM     27  C   UNL     1      92.662 101.536  72.728  1.00  0.00     0.140 C 
ATOM     28  C   UNL     1      91.697 101.613  71.526  1.00  0.00     0.086 CG0
ATOM     29  C   UNL     1      91.795 102.021  73.871  1.00  0.00     0.190 C 
ATOM     30  C   UNL     1      90.547 102.426  72.051  1.00  0.00    -0.010 C 
ATOM     31  G   UNL     1      92.336 101.989  70.157  1.00  0.00     0.000 G0
ATOM     32  O   UNL     1      92.086 101.957  75.056  1.00  0.00    -0.291 OA
ATOM     33  C   UNL     1      90.558 102.648  73.369  1.00  0.00    -0.008 C 
ATOM     34  C   UNL     1      89.564 103.325  74.227  1.00  0.00     0.048 C 
BRANCH  27  35
ATOM     35  O   UNL     1      93.716 102.483  72.677  1.00  0.00    -0.381 OA
ATOM     36  H   UNL     1      93.741 102.959  73.525  1.00  0.00     0.212 HD
ENDBRANCH  27  35
ENDBRANCH  26  27
ENDBRANCH   2  26
ENDBRANCH   1   2
BRANCH   1  37
ATOM     37  O   UNL     1      95.079  97.714  72.676  1.00  0.00    -0.461 OA
BRANCH  37  38
ATOM     38  C   UNL     1      95.018  97.401  74.015  1.00  0.00     0.310 C 
ATOM     39  O   UNL     1      95.550  98.042  74.911  1.00  0.00    -0.252 OA
BRANCH  38  40
ATOM     40  C   UNL     1      94.195  96.150  74.203  1.00  0.00     0.158 C 
BRANCH  40  41
ATOM     41  C   UNL     1      94.571  95.380  75.442  1.00  0.00    -0.037 A 
ATOM     42  C   UNL     1      93.576  94.818  76.243  1.00  0.00     0.008 A 
ATOM     43  C   UNL     1      95.913  95.229  75.790  1.00  0.00     0.008 A 
ATOM     44  C   UNL     1      93.924  94.106  77.392  1.00  0.00     0.046 A 
ATOM     45  C   UNL     1      96.261  94.516  76.938  1.00  0.00     0.046 A 
ATOM     46  C   UNL     1      95.267  93.955  77.738  1.00  0.00     0.115 A 
BRANCH  46  47
ATOM     47  O   UNL     1      95.606  93.261  78.859  1.00  0.00    -0.508 OA
ATOM     48  H   UNL     1      96.190  93.813  79.408  1.00  0.00     0.293 HD
ENDBRANCH  46  47
ENDBRANCH  40  41
ENDBRANCH  38  40
ENDBRANCH  37  38
ENDBRANCH   1  37
TORSDOF 10
ENDMDL
MODEL 5
REMARK VINA RESULT:    -6.521     17.020     21.431
REMARK INTER + INTRA:         -12.327
REMARK INTER:                 -12.017
REMARK INTRA:                  -0.310
REMARK UNBOUND:                -1.231
REMARK SMILES C=C(C)[C@]12C[C@@H](C)[C@@]34O[C@](Cc5ccccc5)(O[C@@H]1[C@@H]3C=C(COC(=O)Cc1ccc(O)cc1)C[C@]1(O)C(=O)C(C)=C[C@@H]41)O2
REMARK SMILES IDX 23 1 22 2 21 3 20 4 9 5 8 6 10 7 6 8 18 10 44 11 19 12 5 13
REMARK SMILES IDX 7 14 4 15 11 16 12 17 13 18 17 19 14 20 16 21 15 22 2 23
REMARK SMILES IDX 3 24 1 25 35 26 36 27 43 28 38 29 42 30 39 32 40 33 41 34
REMARK SMILES IDX 37 35 24 37 25 38 26 39 27 40 28 41 29 42 34 43 30 44 33 45
REMARK SMILES IDX 31 46 32 47
REMARK H PARENT 37 36 32 48
REMARK Flexibility Score: 90.00
ROOT
ATOM      1  C   UNL     1      93.013  94.399  75.854  1.00  0.00     0.264 C 
ENDROOT
BRANCH   1   2
ATOM      2  C   UNL     1      94.441  94.891  75.918  1.00  0.00    -0.033 C 
ATOM      3  C   UNL     1      94.998  95.440  74.818  1.00  0.00    -0.015 C 
BRANCH   3   4
ATOM      4  C   UNL     1      96.419  95.936  74.602  1.00  0.00     0.078 C 
ATOM      5  O   UNL     1      96.426  98.354  75.119  1.00  0.00    -0.319 OA
ATOM      6  C   UNL     1      96.970  97.066  75.547  1.00  0.00     0.095 CG0
ATOM      7  C   UNL     1      96.407  98.571  73.695  1.00  0.00     0.289 C 
ATOM      8  C   UNL     1      98.547  97.089  75.399  1.00  0.00     0.023 C 
ATOM      9  G   UNL     1      96.437  96.883  76.998  1.00  0.00     0.000 G0
ATOM     10  O   UNL     1      95.666  97.555  73.026  1.00  0.00    -0.320 OA
ATOM     11  O   UNL     1      97.713  98.536  73.124  1.00  0.00    -0.313 OA
ATOM     12  C   UNL     1      96.580  96.454  73.152  1.00  0.00     0.170 C 
ATOM     13  C   UNL     1      98.991  96.709  73.953  1.00  0.00     0.049 C 
ATOM     14  C   UNL     1      99.231  98.403  75.813  1.00  0.00     0.011 C 
ATOM     15  C   UNL     1      97.953  97.129  72.912  1.00  0.00     0.122 C 
BRANCH   7  16
ATOM     16  C   UNL     1      95.777  99.924  73.430  1.00  0.00     0.135 C 
BRANCH  16  17
ATOM     17  C   UNL     1      95.621 100.734  74.693  1.00  0.00    -0.040 A 
ATOM     18  C   UNL     1      94.376 100.827  75.313  1.00  0.00     0.004 A 
ATOM     19  C   UNL     1      96.724 101.389  75.240  1.00  0.00     0.004 A 
ATOM     20  C   UNL     1      94.233 101.576  76.482  1.00  0.00     0.000 A 
ATOM     21  C   UNL     1      96.581 102.138  76.409  1.00  0.00     0.000 A 
ATOM     22  C   UNL     1      95.336 102.231  77.029  1.00  0.00     0.000 A 
ENDBRANCH  16  17
ENDBRANCH   7  16
BRANCH  15  23
ATOM     23  C   UNL     1      98.435  96.940  71.511  1.00  0.00    -0.046 C 
ATOM     24  C   UNL     1      97.375  96.826  70.456  1.00  0.00     0.042 C 
ATOM     25  C   UNL     1      99.741  96.875  71.213  1.00  0.00     0.010 C 
ENDBRANCH  15  23
ENDBRANCH   3   4
BRANCH   2  26
ATOM     26  C   UNL     1      95.078  94.696  77.281  1.00  0.00     0.078 C 
BRANCH  26  27
ATOM     27  C   UNL     1      96.411  95.398  77.535  1.00  0.00     0.140 C 
ATOM     28  C   UNL     1      96.422  96.843  76.995  1.00  0.00     0.086 CG0
ATOM     29  C   UNL     1      96.688  95.600  79.009  1.00  0.00     0.190 C 
ATOM     30  C   UNL     1      97.021  97.634  78.124  1.00  0.00    -0.010 C 
ATOM     31  G   UNL     1      96.976  97.032  75.552  1.00  0.00     0.000 G0
ATOM     32  O   UNL     1      96.591  94.740  79.872  1.00  0.00    -0.291 OA
ATOM     33  C   UNL     1      97.157  96.973  79.277  1.00  0.00    -0.008 C 
ATOM     34  C   UNL     1      97.624  97.446  80.596  1.00  0.00     0.048 C 
BRANCH  27  35
ATOM     35  O   UNL     1      97.503  94.612  77.090  1.00  0.00    -0.381 OA
ATOM     36  H   UNL     1      97.830  94.088  77.841  1.00  0.00     0.212 HD
ENDBRANCH  27  35
ENDBRANCH  26  27
ENDBRANCH   2  26
ENDBRANCH   1   2
BRANCH   1  37
ATOM     37  O   UNL     1      92.952  93.079  76.352  1.00  0.00    -0.461 OA
BRANCH  37  38
ATOM     38  C   UNL     1      91.732  92.451  76.261  1.00  0.00     0.310 C 
ATOM     39  O   UNL     1      90.780  92.655  77.001  1.00  0.00    -0.252 OA
BRANCH  38  40
ATOM     40  C   UNL     1      91.751  91.476  75.108  1.00  0.00     0.158 C 
BRANCH  40  41
ATOM     41  C   UNL     1      90.512  91.549  74.255  1.00  0.00    -0.037 A 
ATOM     42  C   UNL     1      90.303  92.648  73.422  1.00  0.00     0.008 A 
ATOM     43  C   UNL     1      89.573  90.519  74.298  1.00  0.00     0.008 A 
ATOM     44  C   UNL     1      89.154  92.717  72.632  1.00  0.00     0.046 A 
ATOM     45  C   UNL     1      88.425  90.586  73.508  1.00  0.00     0.046 A 
ATOM     46  C   UNL     1      88.216  91.685  72.675  1.00  0.00     0.115 A 
BRANCH  46  47
ATOM     47  O   UNL     1      87.096  91.753  71.905  1.00  0.00    -0.508 OA
ATOM     48  H   UNL     1      87.149  92.542  71.340  1.00  0.00     0.293 HD
ENDBRANCH  46  47
ENDBRANCH  40  41
ENDBRANCH  38  40
ENDBRANCH  37  38
ENDBRANCH   1  37
TORSDOF 10
ENDMDL
MODEL 6
REMARK VINA RESULT:    -6.311     19.515     24.130
REMARK INTER + INTRA:         -11.969
REMARK INTER:                 -12.002
REMARK INTRA:                   0.032
REMARK UNBOUND:                -1.231
REMARK SMILES C=C(C)[C@]12C[C@@H](C)[C@@]34O[C@](Cc5ccccc5)(O[C@@H]1[C@@H]3C=C(COC(=O)Cc1ccc(O)cc1)C[C@]1(O)C(=O)C(C)=C[C@@H]41)O2
REMARK SMILES IDX 23 1 22 2 21 3 20 4 9 5 8 6 10 7 6 8 18 10 44 11 19 12 5 13
REMARK SMILES IDX 7 14 4 15 11 16 12 17 13 18 17 19 14 20 16 21 15 22 2 23
REMARK SMILES IDX 3 24 1 25 35 26 36 27 43 28 38 29 42 30 39 32 40 33 41 34
REMARK SMILES IDX 37 35 24 37 25 38 26 39 27 40 28 41 29 42 34 43 30 44 33 45
REMARK SMILES IDX 31 46 32 47
REMARK H PARENT 37 36 32 48
REMARK Flexibility Score: 90.00
ROOT
ATOM      1  C   UNL     1      93.425  98.525  71.040  1.00  0.00     0.264 C 
ENDROOT
BRANCH   1   2
ATOM      2  C   UNL     1      94.874  98.503  71.468  1.00  0.00    -0.033 C 
ATOM      3  C   UNL     1      95.177  98.649  72.775  1.00  0.00    -0.015 C 
BRANCH   3   4
ATOM      4  C   UNL     1      96.539  98.738  73.446  1.00  0.00     0.078 C 
ATOM      5  O   UNL     1      97.148  96.445  74.144  1.00  0.00    -0.319 OA
ATOM      6  C   UNL     1      97.543  97.541  73.261  1.00  0.00     0.095 CG0
ATOM      7  C   UNL     1      96.754  96.837  75.473  1.00  0.00     0.289 C 
ATOM      8  C   UNL     1      98.983  98.055  73.676  1.00  0.00     0.023 C 
ATOM      9  G   UNL     1      97.434  96.943  71.828  1.00  0.00     0.000 G0
ATOM     10  O   UNL     1      95.674  97.765  75.440  1.00  0.00    -0.320 OA
ATOM     11  O   UNL     1      97.805  97.493  76.179  1.00  0.00    -0.313 OA
ATOM     12  C   UNL     1      96.362  98.935  74.971  1.00  0.00     0.170 C 
ATOM     13  C   UNL     1      98.905  99.110  74.823  1.00  0.00     0.049 C 
ATOM     14  C   UNL     1      99.992  96.959  74.060  1.00  0.00     0.011 C 
ATOM     15  C   UNL     1      97.705  98.864  75.738  1.00  0.00     0.122 C 
BRANCH   7  16
ATOM     16  C   UNL     1      96.339  95.592  76.231  1.00  0.00     0.135 C 
BRANCH  16  17
ATOM     17  C   UNL     1      96.753  95.646  77.681  1.00  0.00    -0.040 A 
ATOM     18  C   UNL     1      95.807  95.443  78.685  1.00  0.00     0.004 A 
ATOM     19  C   UNL     1      98.083  95.901  78.015  1.00  0.00     0.004 A 
ATOM     20  C   UNL     1      96.191  95.493  80.025  1.00  0.00     0.000 A 
ATOM     21  C   UNL     1      98.466  95.951  79.356  1.00  0.00     0.000 A 
ATOM     22  C   UNL     1      97.520  95.747  80.360  1.00  0.00     0.000 A 
ENDBRANCH  16  17
ENDBRANCH   7  16
BRANCH  15  23
ATOM     23  C   UNL     1      97.711  99.747  76.943  1.00  0.00    -0.046 C 
ATOM     24  C   UNL     1      98.503 101.016  76.829  1.00  0.00     0.042 C 
ATOM     25  C   UNL     1      97.048  99.424  78.063  1.00  0.00     0.010 C 
ENDBRANCH  15  23
ENDBRANCH   3   4
BRANCH   2  26
ATOM     26  C   UNL     1      95.834  98.303  70.311  1.00  0.00     0.078 C 
BRANCH  26  27
ATOM     27  C   UNL     1      97.284  97.967  70.657  1.00  0.00     0.140 C 
ATOM     28  C   UNL     1      97.388  96.956  71.818  1.00  0.00     0.086 CG0
ATOM     29  C   UNL     1      97.996  97.246  69.533  1.00  0.00     0.190 C 
ATOM     30  C   UNL     1      98.407  95.965  71.328  1.00  0.00    -0.010 C 
ATOM     31  G   UNL     1      97.535  97.562  73.244  1.00  0.00     0.000 G0
ATOM     32  O   UNL     1      98.002  97.593  68.361  1.00  0.00    -0.291 OA
ATOM     33  C   UNL     1      98.748  96.084  70.041  1.00  0.00    -0.008 C 
ATOM     34  C   UNL     1      99.642  95.248  69.214  1.00  0.00     0.048 C 
BRANCH  27  35
ATOM     35  O   UNL     1      98.056  99.141  70.849  1.00  0.00    -0.381 OA
ATOM     36  H   UNL     1      97.704  99.616  71.622  1.00  0.00     0.212 HD
ENDBRANCH  27  35
ENDBRANCH  26  27
ENDBRANCH   2  26
ENDBRANCH   1   2
BRANCH   1  37
ATOM     37  O   UNL     1      93.003  99.864  70.890  1.00  0.00    -0.461 OA
BRANCH  37  38
ATOM     38  C   UNL     1      92.879 100.321  69.598  1.00  0.00     0.310 C 
ATOM     39  O   UNL     1      93.809 100.505  68.826  1.00  0.00    -0.252 OA
BRANCH  38  40
ATOM     40  C   UNL     1      91.421 100.556  69.284  1.00  0.00     0.158 C 
BRANCH  40  41
ATOM     41  C   UNL     1      90.824  99.477  68.419  1.00  0.00    -0.037 A 
ATOM     42  C   UNL     1      90.613  98.201  68.941  1.00  0.00     0.008 A 
ATOM     43  C   UNL     1      90.482  99.753  67.096  1.00  0.00     0.008 A 
ATOM     44  C   UNL     1      90.061  97.201  68.140  1.00  0.00     0.046 A 
ATOM     45  C   UNL     1      89.929  98.754  66.294  1.00  0.00     0.046 A 
ATOM     46  C   UNL     1      89.719  97.479  66.816  1.00  0.00     0.115 A 
BRANCH  46  47
ATOM     47  O   UNL     1      89.181  96.503  66.034  1.00  0.00    -0.508 OA
ATOM     48  H   UNL     1      89.334  95.640  66.456  1.00  0.00     0.293 HD
ENDBRANCH  46  47
ENDBRANCH  40  41
ENDBRANCH  38  40
ENDBRANCH  37  38
ENDBRANCH   1  37
TORSDOF 10
ENDMDL
MODEL 7
REMARK VINA RESULT:    -6.234     18.387     23.817
REMARK INTER + INTRA:         -11.839
REMARK INTER:                 -10.998
REMARK INTRA:                  -0.841
REMARK UNBOUND:                -1.231
REMARK SMILES C=C(C)[C@]12C[C@@H](C)[C@@]34O[C@](Cc5ccccc5)(O[C@@H]1[C@@H]3C=C(COC(=O)Cc1ccc(O)cc1)C[C@]1(O)C(=O)C(C)=C[C@@H]41)O2
REMARK SMILES IDX 23 1 22 2 21 3 20 4 9 5 8 6 10 7 6 8 18 10 44 11 19 12 5 13
REMARK SMILES IDX 7 14 4 15 11 16 12 17 13 18 17 19 14 20 16 21 15 22 2 23
REMARK SMILES IDX 3 24 1 25 35 26 36 27 43 28 38 29 42 30 39 32 40 33 41 34
REMARK SMILES IDX 37 35 24 37 25 38 26 39 27 40 28 41 29 42 34 43 30 44 33 45
REMARK SMILES IDX 31 46 32 47
REMARK H PARENT 37 36 32 48
REMARK Flexibility Score: 90.00
ROOT
ATOM      1  C   UNL     1      92.780  98.200  71.257  1.00  0.00     0.264 C 
ENDROOT
BRANCH   1   2
ATOM      2  C   UNL     1      94.245  98.244  71.623  1.00  0.00    -0.033 C 
ATOM      3  C   UNL     1      94.608  98.088  72.913  1.00  0.00    -0.015 C 
BRANCH   3   4
ATOM      4  C   UNL     1      95.989  98.166  73.543  1.00  0.00     0.078 C 
ATOM      5  O   UNL     1      96.898  95.866  73.574  1.00  0.00    -0.319 OA
ATOM      6  C   UNL     1      97.110  97.198  73.012  1.00  0.00     0.095 CG0
ATOM      7  C   UNL     1      96.544  95.836  74.970  1.00  0.00     0.289 C 
ATOM      8  C   UNL     1      98.505  97.761  73.510  1.00  0.00     0.023 C 
ATOM      9  G   UNL     1      96.982  96.996  71.474  1.00  0.00     0.000 G0
ATOM     10  O   UNL     1      95.364  96.595  75.221  1.00  0.00    -0.320 OA
ATOM     11  O   UNL     1      97.554  96.408  75.798  1.00  0.00    -0.313 OA
ATOM     12  C   UNL     1      95.885  97.925  75.069  1.00  0.00     0.170 C 
ATOM     13  C   UNL     1      98.378  98.453  74.902  1.00  0.00     0.049 C 
ATOM     14  C   UNL     1      99.653  96.738  73.552  1.00  0.00     0.011 C 
ATOM     15  C   UNL     1      97.272  97.822  75.749  1.00  0.00     0.122 C 
BRANCH   7  16
ATOM     16  C   UNL     1      96.320  94.392  75.372  1.00  0.00     0.135 C 
BRANCH  16  17
ATOM     17  C   UNL     1      94.908  94.147  75.842  1.00  0.00    -0.040 A 
ATOM     18  C   UNL     1      93.908  93.846  74.918  1.00  0.00     0.004 A 
ATOM     19  C   UNL     1      94.603  94.222  77.200  1.00  0.00     0.004 A 
ATOM     20  C   UNL     1      92.601  93.619  75.352  1.00  0.00     0.000 A 
ATOM     21  C   UNL     1      93.296  93.995  77.635  1.00  0.00     0.000 A 
ATOM     22  C   UNL     1      92.296  93.694  76.711  1.00  0.00     0.000 A 
ENDBRANCH  16  17
ENDBRANCH   7  16
BRANCH  15  23
ATOM     23  C   UNL     1      97.252  98.345  77.149  1.00  0.00    -0.046 C 
ATOM     24  C   UNL     1      97.077  97.325  78.234  1.00  0.00     0.042 C 
ATOM     25  C   UNL     1      97.382  99.652  77.419  1.00  0.00     0.010 C 
ENDBRANCH  15  23
ENDBRANCH   3   4
BRANCH   2  26
ATOM     26  C   UNL     1      95.152  98.460  70.425  1.00  0.00     0.078 C 
BRANCH  26  27
ATOM     27  C   UNL     1      96.651  98.264  70.641  1.00  0.00     0.140 C 
ATOM     28  C   UNL     1      96.962  97.001  71.470  1.00  0.00     0.086 CG0
ATOM     29  C   UNL     1      97.392  97.995  69.348  1.00  0.00     0.190 C 
ATOM     30  C   UNL     1      98.080  96.348  70.707  1.00  0.00    -0.010 C 
ATOM     31  G   UNL     1      97.104  97.208  73.006  1.00  0.00     0.000 G0
ATOM     32  O   UNL     1      97.283  98.646  68.320  1.00  0.00    -0.291 OA
ATOM     33  C   UNL     1      98.328  96.865  69.500  1.00  0.00    -0.008 C 
ATOM     34  C   UNL     1      99.281  96.433  68.457  1.00  0.00     0.048 C 
BRANCH  27  35
ATOM     35  O   UNL     1      97.261  99.442  71.141  1.00  0.00    -0.381 OA
ATOM     36  H   UNL     1      97.873  99.781  70.466  1.00  0.00     0.212 HD
ENDBRANCH  27  35
ENDBRANCH  26  27
ENDBRANCH   2  26
ENDBRANCH   1   2
BRANCH   1  37
ATOM     37  O   UNL     1      92.637  98.429  69.871  1.00  0.00    -0.461 OA
BRANCH  37  38
ATOM     38  C   UNL     1      91.356  98.650  69.420  1.00  0.00     0.310 C 
ATOM     39  O   UNL     1      90.360  98.062  69.819  1.00  0.00    -0.252 OA
BRANCH  38  40
ATOM     40  C   UNL     1      91.373  99.727  68.362  1.00  0.00     0.158 C 
BRANCH  40  41
ATOM     41  C   UNL     1      92.234 100.905  68.736  1.00  0.00    -0.037 A 
ATOM     42  C   UNL     1      93.268 101.310  67.891  1.00  0.00     0.008 A 
ATOM     43  C   UNL     1      91.999 101.591  69.927  1.00  0.00     0.008 A 
ATOM     44  C   UNL     1      94.066 102.400  68.238  1.00  0.00     0.046 A 
ATOM     45  C   UNL     1      92.796 102.682  70.274  1.00  0.00     0.046 A 
ATOM     46  C   UNL     1      93.830 103.087  69.430  1.00  0.00     0.115 A 
BRANCH  46  47
ATOM     47  O   UNL     1      94.608 104.150  69.767  1.00  0.00    -0.508 OA
ATOM     48  H   UNL     1      94.175 104.967  69.465  1.00  0.00     0.293 HD
ENDBRANCH  46  47
ENDBRANCH  40  41
ENDBRANCH  38  40
ENDBRANCH  37  38
ENDBRANCH   1  37
TORSDOF 10
ENDMDL
MODEL 8
REMARK VINA RESULT:    -6.185      2.086      6.328
REMARK INTER + INTRA:         -11.756
REMARK INTER:                 -10.200
REMARK INTRA:                  -1.556
REMARK UNBOUND:                -1.231
REMARK SMILES C=C(C)[C@]12C[C@@H](C)[C@@]34O[C@](Cc5ccccc5)(O[C@@H]1[C@@H]3C=C(COC(=O)Cc1ccc(O)cc1)C[C@]1(O)C(=O)C(C)=C[C@@H]41)O2
REMARK SMILES IDX 23 1 22 2 21 3 20 4 9 5 8 6 10 7 6 8 18 10 44 11 19 12 5 13
REMARK SMILES IDX 7 14 4 15 11 16 12 17 13 18 17 19 14 20 16 21 15 22 2 23
REMARK SMILES IDX 3 24 1 25 35 26 36 27 43 28 38 29 42 30 39 32 40 33 41 34
REMARK SMILES IDX 37 35 24 37 25 38 26 39 27 40 28 41 29 42 34 43 30 44 33 45
REMARK SMILES IDX 31 46 32 47
REMARK H PARENT 37 36 32 48
REMARK Flexibility Score: 90.00
ROOT
ATOM      1  C   UNL     1      83.670  93.110  87.315  1.00  0.00     0.264 C 
ENDROOT
BRANCH   1   2
ATOM      2  C   UNL     1      83.132  91.717  87.543  1.00  0.00    -0.033 C 
ATOM      3  C   UNL     1      82.602  91.403  88.743  1.00  0.00    -0.015 C 
BRANCH   3   4
ATOM      4  C   UNL     1      82.070  90.070  89.245  1.00  0.00     0.078 C 
ATOM      5  O   UNL     1      79.640  90.045  88.784  1.00  0.00    -0.319 OA
ATOM      6  C   UNL     1      80.900  89.384  88.449  1.00  0.00     0.095 CG0
ATOM      7  C   UNL     1      79.459  90.351  90.180  1.00  0.00     0.289 C 
ATOM      8  C   UNL     1      80.834  87.868  88.905  1.00  0.00     0.023 C 
ATOM      9  G   UNL     1      81.063  89.614  86.918  1.00  0.00     0.000 G0
ATOM     10  O   UNL     1      80.513  91.173  90.671  1.00  0.00    -0.320 OA
ATOM     11  O   UNL     1      79.469  89.182  90.997  1.00  0.00    -0.313 OA
ATOM     12  C   UNL     1      81.583  90.215  90.708  1.00  0.00     0.170 C 
ATOM     13  C   UNL     1      81.236  87.703  90.403  1.00  0.00     0.049 C 
ATOM     14  C   UNL     1      79.490  87.161  88.658  1.00  0.00     0.011 C 
ATOM     15  C   UNL     1      80.873  88.940  91.226  1.00  0.00     0.122 C 
BRANCH   7  16
ATOM     16  C   UNL     1      78.132  91.066  90.341  1.00  0.00     0.135 C 
BRANCH  16  17
ATOM     17  C   UNL     1      78.229  92.230  91.296  1.00  0.00    -0.040 A 
ATOM     18  C   UNL     1      78.220  93.536  90.807  1.00  0.00     0.004 A 
ATOM     19  C   UNL     1      78.327  91.999  92.668  1.00  0.00     0.004 A 
ATOM     20  C   UNL     1      78.309  94.613  91.691  1.00  0.00     0.000 A 
ATOM     21  C   UNL     1      78.415  93.075  93.551  1.00  0.00     0.000 A 
ATOM     22  C   UNL     1      78.406  94.381  93.062  1.00  0.00     0.000 A 
ENDBRANCH  16  17
ENDBRANCH   7  16
BRANCH  15  23
ATOM     23  C   UNL     1      81.083  88.737  92.691  1.00  0.00    -0.046 C 
ATOM     24  C   UNL     1      79.843  88.615  93.526  1.00  0.00     0.042 C 
ATOM     25  C   UNL     1      82.309  88.667  93.229  1.00  0.00     0.010 C 
ENDBRANCH  15  23
ENDBRANCH   3   4
BRANCH   2  26
ATOM     26  C   UNL     1      83.263  90.821  86.326  1.00  0.00     0.078 C 
BRANCH  26  27
ATOM     27  C   UNL     1      82.525  89.484  86.360  1.00  0.00     0.140 C 
ATOM     28  C   UNL     1      81.087  89.625  86.901  1.00  0.00     0.086 CG0
ATOM     29  C   UNL     1      82.297  88.911  84.977  1.00  0.00     0.190 C 
ATOM     30  C   UNL     1      80.267  88.825  85.927  1.00  0.00    -0.010 C 
ATOM     31  G   UNL     1      80.903  89.389  88.429  1.00  0.00     0.000 G0
ATOM     32  O   UNL     1      83.148  88.803  84.107  1.00  0.00    -0.291 OA
ATOM     33  C   UNL     1      80.910  88.434  84.823  1.00  0.00    -0.008 C 
ATOM     34  C   UNL     1      80.408  87.715  83.634  1.00  0.00     0.048 C 
BRANCH  27  35
ATOM     35  O   UNL     1      83.289  88.487  87.018  1.00  0.00    -0.381 OA
ATOM     36  H   UNL     1      82.682  87.801  87.344  1.00  0.00     0.212 HD
ENDBRANCH  27  35
ENDBRANCH  26  27
ENDBRANCH   2  26
ENDBRANCH   1   2
BRANCH   1  37
ATOM     37  O   UNL     1      82.910  94.033  88.066  1.00  0.00    -0.461 OA
BRANCH  37  38
ATOM     38  C   UNL     1      83.073  95.360  87.742  1.00  0.00     0.310 C 
ATOM     39  O   UNL     1      83.388  95.780  86.638  1.00  0.00    -0.252 OA
BRANCH  38  40
ATOM     40  C   UNL     1      82.802  96.212  88.959  1.00  0.00     0.158 C 
BRANCH  40  41
ATOM     41  C   UNL     1      83.195  95.538  90.248  1.00  0.00    -0.037 A 
ATOM     42  C   UNL     1      84.543  95.364  90.560  1.00  0.00     0.008 A 
ATOM     43  C   UNL     1      82.212  95.089  91.129  1.00  0.00     0.008 A 
ATOM     44  C   UNL     1      84.908  94.739  91.753  1.00  0.00     0.046 A 
ATOM     45  C   UNL     1      82.576  94.465  92.322  1.00  0.00     0.046 A 
ATOM     46  C   UNL     1      83.924  94.290  92.634  1.00  0.00     0.115 A 
BRANCH  46  47
ATOM     47  O   UNL     1      84.279  93.680  93.798  1.00  0.00    -0.508 OA
ATOM     48  H   UNL     1      83.569  93.807  94.451  1.00  0.00     0.293 HD
ENDBRANCH  46  47
ENDBRANCH  40  41
ENDBRANCH  38  40
ENDBRANCH  37  38
ENDBRANCH   1  37
TORSDOF 10
ENDMDL
MODEL 9
REMARK VINA RESULT:    -6.146     17.465     22.777
REMARK INTER + INTRA:         -11.688
REMARK INTER:                 -10.071
REMARK INTRA:                  -1.618
REMARK UNBOUND:                -1.231
REMARK SMILES C=C(C)[C@]12C[C@@H](C)[C@@]34O[C@](Cc5ccccc5)(O[C@@H]1[C@@H]3C=C(COC(=O)Cc1ccc(O)cc1)C[C@]1(O)C(=O)C(C)=C[C@@H]41)O2
REMARK SMILES IDX 23 1 22 2 21 3 20 4 9 5 8 6 10 7 6 8 18 10 44 11 19 12 5 13
REMARK SMILES IDX 7 14 4 15 11 16 12 17 13 18 17 19 14 20 16 21 15 22 2 23
REMARK SMILES IDX 3 24 1 25 35 26 36 27 43 28 38 29 42 30 39 32 40 33 41 34
REMARK SMILES IDX 37 35 24 37 25 38 26 39 27 40 28 41 29 42 34 43 30 44 33 45
REMARK SMILES IDX 31 46 32 47
REMARK H PARENT 37 36 32 48
REMARK Flexibility Score: 90.00
ROOT
ATOM      1  C   UNL     1      96.732  96.740  81.289  1.00  0.00     0.264 C 
ENDROOT
BRANCH   1   2
ATOM      2  C   UNL     1      97.917  97.104  80.425  1.00  0.00    -0.033 C 
ATOM      3  C   UNL     1      99.164  96.856  80.877  1.00  0.00    -0.015 C 
BRANCH   3   4
ATOM      4  C   UNL     1     100.505  97.191  80.244  1.00  0.00     0.078 C 
ATOM      5  O   UNL     1     101.197  95.212  78.931  1.00  0.00    -0.319 OA
ATOM      6  C   UNL     1     100.821  96.620  78.813  1.00  0.00     0.095 CG0
ATOM      7  C   UNL     1     102.081  94.902  80.025  1.00  0.00     0.289 C 
ATOM      8  C   UNL     1     102.043  97.441  78.228  1.00  0.00     0.023 C 
ATOM      9  G   UNL     1      99.540  96.606  77.928  1.00  0.00     0.000 G0
ATOM     10  O   UNL     1     101.519  95.297  81.273  1.00  0.00    -0.320 OA
ATOM     11  O   UNL     1     103.326  95.590  79.928  1.00  0.00    -0.313 OA
ATOM     12  C   UNL     1     101.655  96.723  81.170  1.00  0.00     0.170 C 
ATOM     13  C   UNL     1     103.029  97.879  79.353  1.00  0.00     0.049 C 
ATOM     14  C   UNL     1     102.830  96.745  77.104  1.00  0.00     0.011 C 
ATOM     15  C   UNL     1     103.047  96.880  80.511  1.00  0.00     0.122 C 
BRANCH   7  16
ATOM     16  C   UNL     1     102.329  93.406  80.025  1.00  0.00     0.135 C 
BRANCH  16  17
ATOM     17  C   UNL     1     103.385  93.008  79.023  1.00  0.00    -0.040 A 
ATOM     18  C   UNL     1     104.701  92.812  79.438  1.00  0.00     0.004 A 
ATOM     19  C   UNL     1     103.042  92.835  77.683  1.00  0.00     0.004 A 
ATOM     20  C   UNL     1     105.677  92.443  78.511  1.00  0.00     0.000 A 
ATOM     21  C   UNL     1     104.018  92.466  76.756  1.00  0.00     0.000 A 
ATOM     22  C   UNL     1     105.334  92.270  77.171  1.00  0.00     0.000 A 
ENDBRANCH  16  17
ENDBRANCH   7  16
BRANCH  15  23
ATOM     23  C   UNL     1     104.113  97.183  81.513  1.00  0.00    -0.046 C 
ATOM     24  C   UNL     1     105.189  96.150  81.668  1.00  0.00     0.042 C 
ATOM     25  C   UNL     1     104.107  98.313  82.235  1.00  0.00     0.010 C 
ENDBRANCH  15  23
ENDBRANCH   3   4
BRANCH   2  26
ATOM     26  C   UNL     1      97.520  97.723  79.098  1.00  0.00     0.078 C 
BRANCH  26  27
ATOM     27  C   UNL     1      98.613  97.873  78.042  1.00  0.00     0.140 C 
ATOM     28  C   UNL     1      99.512  96.622  77.951  1.00  0.00     0.086 CG0
ATOM     29  C   UNL     1      98.054  97.974  76.638  1.00  0.00     0.190 C 
ATOM     30  C   UNL     1      99.618  96.374  76.472  1.00  0.00    -0.010 C 
ATOM     31  G   UNL     1     100.806  96.644  78.816  1.00  0.00     0.000 G0
ATOM     32  O   UNL     1      97.146  98.714  76.290  1.00  0.00    -0.291 OA
ATOM     33  C   UNL     1      98.792  97.097  75.710  1.00  0.00    -0.008 C 
ATOM     34  C   UNL     1      98.567  97.059  74.250  1.00  0.00     0.048 C 
BRANCH  27  35
ATOM     35  O   UNL     1      99.331  99.084  78.208  1.00  0.00    -0.381 OA
ATOM     36  H   UNL     1      98.804  99.679  78.767  1.00  0.00     0.212 HD
ENDBRANCH  27  35
ENDBRANCH  26  27
ENDBRANCH   2  26
ENDBRANCH   1   2
BRANCH   1  37
ATOM     37  O   UNL     1      95.768  96.074  80.502  1.00  0.00    -0.461 OA
BRANCH  37  38
ATOM     38  C   UNL     1      95.338  94.854  80.972  1.00  0.00     0.310 C 
ATOM     39  O   UNL     1      94.820  94.665  82.063  1.00  0.00    -0.252 OA
BRANCH  38  40
ATOM     40  C   UNL     1      95.605  93.791  79.933  1.00  0.00     0.158 C 
BRANCH  40  41
ATOM     41  C   UNL     1      95.173  94.201  78.549  1.00  0.00    -0.037 A 
ATOM     42  C   UNL     1      96.106  94.722  77.652  1.00  0.00     0.008 A 
ATOM     43  C   UNL     1      93.840  94.059  78.164  1.00  0.00     0.008 A 
ATOM     44  C   UNL     1      95.705  95.102  76.371  1.00  0.00     0.046 A 
ATOM     45  C   UNL     1      93.439  94.438  76.882  1.00  0.00     0.046 A 
ATOM     46  C   UNL     1      94.372  94.960  75.986  1.00  0.00     0.115 A 
BRANCH  46  47
ATOM     47  O   UNL     1      93.981  95.331  74.736  1.00  0.00    -0.508 OA
ATOM     48  H   UNL     1      94.478  94.809  74.082  1.00  0.00     0.293 HD
ENDBRANCH  46  47
ENDBRANCH  40  41
ENDBRANCH  38  40
ENDBRANCH  37  38
ENDBRANCH   1  37
TORSDOF 10
ENDMDL
MODEL 10
REMARK VINA RESULT:    -5.969     20.194     23.874
REMARK INTER + INTRA:         -11.389
REMARK INTER:                 -11.019
REMARK INTRA:                  -0.370
REMARK UNBOUND:                -1.231
REMARK SMILES C=C(C)[C@]12C[C@@H](C)[C@@]34O[C@](Cc5ccccc5)(O[C@@H]1[C@@H]3C=C(COC(=O)Cc1ccc(O)cc1)C[C@]1(O)C(=O)C(C)=C[C@@H]41)O2
REMARK SMILES IDX 23 1 22 2 21 3 20 4 9 5 8 6 10 7 6 8 18 10 44 11 19 12 5 13
REMARK SMILES IDX 7 14 4 15 11 16 12 17 13 18 17 19 14 20 16 21 15 22 2 23
REMARK SMILES IDX 3 24 1 25 35 26 36 27 43 28 38 29 42 30 39 32 40 33 41 34
REMARK SMILES IDX 37 35 24 37 25 38 26 39 27 40 28 41 29 42 34 43 30 44 33 45
REMARK SMILES IDX 31 46 32 47
REMARK H PARENT 37 36 32 48
REMARK Flexibility Score: 90.00
ROOT
ATOM      1  C   UNL     1      92.796 100.179  72.069  1.00  0.00     0.264 C 
ENDROOT
BRANCH   1   2
ATOM      2  C   UNL     1      93.822 100.111  73.176  1.00  0.00    -0.033 C 
ATOM      3  C   UNL     1      94.264  98.906  73.592  1.00  0.00    -0.015 C 
BRANCH   3   4
ATOM      4  C   UNL     1      95.222  98.567  74.722  1.00  0.00     0.078 C 
ATOM      5  O   UNL     1      97.490  98.476  73.740  1.00  0.00    -0.319 OA
ATOM      6  C   UNL     1      96.661  99.203  74.700  1.00  0.00     0.095 CG0
ATOM      7  C   UNL     1      97.353  97.042  73.771  1.00  0.00     0.289 C 
ATOM      8  C   UNL     1      97.278  99.045  76.150  1.00  0.00     0.023 C 
ATOM      9  G   UNL     1      96.614 100.657  74.148  1.00  0.00     0.000 G0
ATOM     10  O   UNL     1      96.003  96.646  73.549  1.00  0.00    -0.320 OA
ATOM     11  O   UNL     1      97.714  96.490  75.035  1.00  0.00    -0.313 OA
ATOM     12  C   UNL     1      95.419  97.033  74.803  1.00  0.00     0.170 C 
ATOM     13  C   UNL     1      96.790  97.734  76.840  1.00  0.00     0.049 C 
ATOM     14  C   UNL     1      98.812  99.122  76.229  1.00  0.00     0.011 C 
ATOM     15  C   UNL     1      96.513  96.628  75.821  1.00  0.00     0.122 C 
BRANCH   7  16
ATOM     16  C   UNL     1      98.243  96.457  72.692  1.00  0.00     0.135 C 
BRANCH  16  17
ATOM     17  C   UNL     1      97.814  96.884  71.311  1.00  0.00    -0.040 A 
ATOM     18  C   UNL     1      97.844  98.232  70.956  1.00  0.00     0.004 A 
ATOM     19  C   UNL     1      97.387  95.929  70.389  1.00  0.00     0.004 A 
ATOM     20  C   UNL     1      97.447  98.626  69.678  1.00  0.00     0.000 A 
ATOM     21  C   UNL     1      96.990  96.323  69.110  1.00  0.00     0.000 A 
ATOM     22  C   UNL     1      97.020  97.671  68.755  1.00  0.00     0.000 A 
ENDBRANCH  16  17
ENDBRANCH   7  16
BRANCH  15  23
ATOM     23  C   UNL     1      96.220  95.313  76.467  1.00  0.00    -0.046 C 
ATOM     24  C   UNL     1      96.305  94.106  75.581  1.00  0.00     0.042 C 
ATOM     25  C   UNL     1      95.898  95.217  77.766  1.00  0.00     0.010 C 
ENDBRANCH  15  23
ENDBRANCH   3   4
BRANCH   2  26
ATOM     26  C   UNL     1      94.241 101.477  73.685  1.00  0.00     0.078 C 
BRANCH  26  27
ATOM     27  C   UNL     1      95.434 101.532  74.637  1.00  0.00     0.140 C 
ATOM     28  C   UNL     1      96.608 100.655  74.153  1.00  0.00     0.086 CG0
ATOM     29  C   UNL     1      96.062 102.908  74.701  1.00  0.00     0.190 C 
ATOM     30  C   UNL     1      97.805 101.547  74.324  1.00  0.00    -0.010 C 
ATOM     31  G   UNL     1      96.653  99.202  74.709  1.00  0.00     0.000 G0
ATOM     32  O   UNL     1      95.455 103.956  74.863  1.00  0.00    -0.291 OA
ATOM     33  C   UNL     1      97.532 102.825  74.604  1.00  0.00    -0.008 C 
ATOM     34  C   UNL     1      98.439 103.981  74.755  1.00  0.00     0.048 C 
BRANCH  27  35
ATOM     35  O   UNL     1      95.042 101.276  75.975  1.00  0.00    -0.381 OA
ATOM     36  H   UNL     1      95.119 100.321  76.140  1.00  0.00     0.212 HD
ENDBRANCH  27  35
ENDBRANCH  26  27
ENDBRANCH   2  26
ENDBRANCH   1   2
BRANCH   1  37
ATOM     37  O   UNL     1      92.989 101.363  71.325  1.00  0.00    -0.461 OA
BRANCH  37  38
ATOM     38  C   UNL     1      92.291 101.459  70.143  1.00  0.00     0.310 C 
ATOM     39  O   UNL     1      91.370 102.236  69.933  1.00  0.00    -0.252 OA
BRANCH  38  40
ATOM     40  C   UNL     1      92.838 100.460  69.153  1.00  0.00     0.158 C 
BRANCH  40  41
ATOM     41  C   UNL     1      91.760  99.653  68.476  1.00  0.00    -0.037 A 
ATOM     42  C   UNL     1      91.261  98.503  69.088  1.00  0.00     0.008 A 
ATOM     43  C   UNL     1      91.262 100.055  67.237  1.00  0.00     0.008 A 
ATOM     44  C   UNL     1      90.264  97.756  68.460  1.00  0.00     0.046 A 
ATOM     45  C   UNL     1      90.264  99.309  66.610  1.00  0.00     0.046 A 
ATOM     46  C   UNL     1      89.765  98.159  67.221  1.00  0.00     0.115 A 
BRANCH  46  47
ATOM     47  O   UNL     1      88.793  97.430  66.609  1.00  0.00    -0.508 OA
ATOM     48  H   UNL     1      88.214  98.032  66.110  1.00  0.00     0.293 HD
ENDBRANCH  46  47
ENDBRANCH  40  41
ENDBRANCH  38  40
ENDBRANCH  37  38
ENDBRANCH   1  37
TORSDOF 10
ENDMDL
