MODEL 1
REMARK VINA RESULT:    -5.921      0.000      0.000
REMARK INTER + INTRA:         -10.666
REMARK INTER:                  -9.729
REMARK INTRA:                  -0.937
REMARK UNBOUND:                -0.937
REMARK SMILES CCCCC[C@H](O)CC(=O)CCc1ccc(O)c(OC)c1
REMARK SMILES IDX 8 1 6 2 7 3 5 5 4 6 3 7 2 8 1 9 9 10 10 11 11 12 12 13 13 14
REMARK SMILES IDX 21 15 14 16 18 17 15 18 16 19 19 20 20 21 17 22
REMARK H PARENT 7 4 17 23
REMARK Flexibility Score: inf
ROOT
ATOM      1  C   UNL     1      98.283  83.932  75.561  1.00  0.00     0.107 C 
ENDROOT
BRANCH   1   2
ATOM      2  C   UNL     1      98.118  83.373  74.146  1.00  0.00     0.121 C 
BRANCH   2   3
ATOM      3  O   UNL     1      96.733  83.291  73.816  1.00  0.00    -0.393 OA
ATOM      4  H   UNL     1      96.400  82.436  74.141  1.00  0.00     0.210 HD
ENDBRANCH   2   3
BRANCH   2   5
ATOM      5  C   UNL     1      98.841  84.208  73.082  1.00  0.00     0.032 C 
BRANCH   5   6
ATOM      6  C   UNL     1      99.421  85.504  73.663  1.00  0.00     0.003 C 
BRANCH   6   7
ATOM      7  C   UNL     1     100.618  86.041  72.872  1.00  0.00    -0.000 C 
BRANCH   7   8
ATOM      8  C   UNL     1     101.967  85.738  73.521  1.00  0.00    -0.003 C 
ATOM      9  C   UNL     1     101.867  85.748  75.038  1.00  0.00     0.004 C 
ENDBRANCH   7   8
ENDBRANCH   6   7
ENDBRANCH   5   6
ENDBRANCH   2   5
ENDBRANCH   1   2
BRANCH   1  10
ATOM     10  C   UNL     1      96.961  84.305  76.212  1.00  0.00     0.135 C 
ATOM     11  O   UNL     1      96.214  85.137  75.695  1.00  0.00    -0.300 OA
BRANCH  10  12
ATOM     12  C   UNL     1      96.599  83.570  77.493  1.00  0.00     0.080 C 
BRANCH  12  13
ATOM     13  C   UNL     1      97.766  83.432  78.473  1.00  0.00     0.043 C 
BRANCH  13  14
ATOM     14  C   UNL     1      97.433  82.578  79.673  1.00  0.00    -0.044 A 
ATOM     15  C   UNL     1      96.979  83.173  80.850  1.00  0.00     0.054 A 
ATOM     16  C   UNL     1      97.580  81.192  79.604  1.00  0.00     0.008 A 
ATOM     17  C   UNL     1      96.671  82.382  81.957  1.00  0.00     0.160 A 
ATOM     18  C   UNL     1      97.272  80.401  80.711  1.00  0.00     0.050 A 
ATOM     19  C   UNL     1      96.818  80.997  81.888  1.00  0.00     0.157 A 
BRANCH  17  20
ATOM     20  O   UNL     1      96.229  82.975  83.101  1.00  0.00    -0.493 OA
ATOM     21  C   UNL     1      96.025  84.387  83.063  1.00  0.00     0.278 C 
ENDBRANCH  17  20
BRANCH  19  22
ATOM     22  O   UNL     1      96.521  80.215  82.962  1.00  0.00    -0.504 OA
ATOM     23  H   UNL     1      96.310  79.317  82.652  1.00  0.00     0.293 HD
ENDBRANCH  19  22
ENDBRANCH  13  14
ENDBRANCH  12  13
ENDBRANCH  10  12
ENDBRANCH   1  10
TORSDOF 12
ENDMDL
MODEL 2
REMARK VINA RESULT:    -5.871      3.416      9.248
REMARK INTER + INTRA:         -10.584
REMARK INTER:                  -9.624
REMARK INTRA:                  -0.960
REMARK UNBOUND:                -0.937
REMARK SMILES CCCCC[C@H](O)CC(=O)CCc1ccc(O)c(OC)c1
REMARK SMILES IDX 8 1 6 2 7 3 5 5 4 6 3 7 2 8 1 9 9 10 10 11 11 12 12 13 13 14
REMARK SMILES IDX 21 15 14 16 18 17 15 18 16 19 19 20 20 21 17 22
REMARK H PARENT 7 4 17 23
REMARK Flexibility Score: inf
ROOT
ATOM      1  C   UNL     1      95.795  83.776  84.925  1.00  0.00     0.107 C 
ENDROOT
BRANCH   1   2
ATOM      2  C   UNL     1      94.395  83.634  85.528  1.00  0.00     0.121 C 
BRANCH   2   3
ATOM      3  O   UNL     1      93.504  84.554  84.902  1.00  0.00    -0.393 OA
ATOM      4  H   UNL     1      93.740  85.449  85.203  1.00  0.00     0.210 HD
ENDBRANCH   2   3
BRANCH   2   5
ATOM      5  C   UNL     1      93.827  82.215  85.400  1.00  0.00     0.032 C 
BRANCH   5   6
ATOM      6  C   UNL     1      92.335  82.221  85.048  1.00  0.00     0.003 C 
BRANCH   6   7
ATOM      7  C   UNL     1      91.929  81.079  84.110  1.00  0.00    -0.000 C 
BRANCH   7   8
ATOM      8  C   UNL     1      90.417  80.911  83.969  1.00  0.00    -0.003 C 
ATOM      9  C   UNL     1      89.668  82.070  84.610  1.00  0.00     0.004 C 
ENDBRANCH   7   8
ENDBRANCH   6   7
ENDBRANCH   5   6
ENDBRANCH   2   5
ENDBRANCH   1   2
BRANCH   1  10
ATOM     10  C   UNL     1      95.832  84.695  83.714  1.00  0.00     0.135 C 
ATOM     11  O   UNL     1      95.860  85.918  83.849  1.00  0.00    -0.300 OA
BRANCH  10  12
ATOM     12  C   UNL     1      95.877  84.024  82.350  1.00  0.00     0.080 C 
BRANCH  12  13
ATOM     13  C   UNL     1      96.720  82.748  82.320  1.00  0.00     0.043 C 
BRANCH  13  14
ATOM     14  C   UNL     1      97.134  82.344  80.925  1.00  0.00    -0.044 A 
ATOM     15  C   UNL     1      97.245  83.308  79.923  1.00  0.00     0.054 A 
ATOM     16  C   UNL     1      97.405  81.006  80.638  1.00  0.00     0.008 A 
ATOM     17  C   UNL     1      97.627  82.934  78.635  1.00  0.00     0.160 A 
ATOM     18  C   UNL     1      97.787  80.631  79.350  1.00  0.00     0.050 A 
ATOM     19  C   UNL     1      97.898  81.596  78.348  1.00  0.00     0.157 A 
BRANCH  17  20
ATOM     20  O   UNL     1      97.732  83.885  77.665  1.00  0.00    -0.493 OA
ATOM     21  C   UNL     1      96.531  84.259  76.992  1.00  0.00     0.278 C 
ENDBRANCH  17  20
BRANCH  19  22
ATOM     22  O   UNL     1      98.273  81.219  77.094  1.00  0.00    -0.504 OA
ATOM     23  H   UNL     1      99.225  81.384  76.985  1.00  0.00     0.293 HD
ENDBRANCH  19  22
ENDBRANCH  13  14
ENDBRANCH  12  13
ENDBRANCH  10  12
ENDBRANCH   1  10
TORSDOF 12
ENDMDL
MODEL 3
REMARK VINA RESULT:    -5.684     23.554     25.800
REMARK INTER + INTRA:         -10.277
REMARK INTER:                  -9.443
REMARK INTRA:                  -0.834
REMARK UNBOUND:                -0.937
REMARK SMILES CCCCC[C@H](O)CC(=O)CCc1ccc(O)c(OC)c1
REMARK SMILES IDX 8 1 6 2 7 3 5 5 4 6 3 7 2 8 1 9 9 10 10 11 11 12 12 13 13 14
REMARK SMILES IDX 21 15 14 16 18 17 15 18 16 19 19 20 20 21 17 22
REMARK H PARENT 7 4 17 23
REMARK Flexibility Score: inf
ROOT
ATOM      1  C   UNL     1      77.339  86.870  67.601  1.00  0.00     0.107 C 
ENDROOT
BRANCH   1   2
ATOM      2  C   UNL     1      77.202  88.193  68.358  1.00  0.00     0.121 C 
BRANCH   2   3
ATOM      3  O   UNL     1      78.144  89.138  67.854  1.00  0.00    -0.393 OA
ATOM      4  H   UNL     1      78.648  88.705  67.143  1.00  0.00     0.210 HD
ENDBRANCH   2   3
BRANCH   2   5
ATOM      5  C   UNL     1      75.792  88.790  68.271  1.00  0.00     0.032 C 
BRANCH   5   6
ATOM      6  C   UNL     1      74.864  88.236  69.359  1.00  0.00     0.003 C 
BRANCH   6   7
ATOM      7  C   UNL     1      73.977  89.307  70.003  1.00  0.00    -0.000 C 
BRANCH   7   8
ATOM      8  C   UNL     1      74.740  90.564  70.420  1.00  0.00    -0.003 C 
ATOM      9  C   UNL     1      73.960  91.370  71.446  1.00  0.00     0.004 C 
ENDBRANCH   7   8
ENDBRANCH   6   7
ENDBRANCH   5   6
ENDBRANCH   2   5
ENDBRANCH   1   2
BRANCH   1  10
ATOM     10  C   UNL     1      77.272  85.654  68.511  1.00  0.00     0.135 C 
ATOM     11  O   UNL     1      77.327  85.775  69.735  1.00  0.00    -0.300 OA
BRANCH  10  12
ATOM     12  C   UNL     1      77.088  84.304  67.833  1.00  0.00     0.080 C 
BRANCH  12  13
ATOM     13  C   UNL     1      77.475  84.302  66.353  1.00  0.00     0.043 C 
BRANCH  13  14
ATOM     14  C   UNL     1      76.342  83.888  65.445  1.00  0.00    -0.044 A 
ATOM     15  C   UNL     1      75.036  83.844  65.935  1.00  0.00     0.054 A 
ATOM     16  C   UNL     1      76.601  83.549  64.117  1.00  0.00     0.008 A 
ATOM     17  C   UNL     1      73.990  83.462  65.095  1.00  0.00     0.160 A 
ATOM     18  C   UNL     1      75.554  83.167  63.277  1.00  0.00     0.050 A 
ATOM     19  C   UNL     1      74.249  83.123  63.767  1.00  0.00     0.157 A 
BRANCH  17  20
ATOM     20  O   UNL     1      72.719  83.422  65.584  1.00  0.00    -0.493 OA
ATOM     21  C   UNL     1      72.024  84.664  65.684  1.00  0.00     0.278 C 
ENDBRANCH  17  20
BRANCH  19  22
ATOM     22  O   UNL     1      73.236  82.748  62.938  1.00  0.00    -0.504 OA
ATOM     23  H   UNL     1      72.969  81.838  63.154  1.00  0.00     0.293 HD
ENDBRANCH  19  22
ENDBRANCH  13  14
ENDBRANCH  12  13
ENDBRANCH  10  12
ENDBRANCH   1  10
TORSDOF 12
ENDMDL
MODEL 4
REMARK VINA RESULT:    -5.422      3.808      9.743
REMARK INTER + INTRA:          -9.845
REMARK INTER:                  -8.819
REMARK INTRA:                  -1.026
REMARK UNBOUND:                -0.937
REMARK SMILES CCCCC[C@H](O)CC(=O)CCc1ccc(O)c(OC)c1
REMARK SMILES IDX 8 1 6 2 7 3 5 5 4 6 3 7 2 8 1 9 9 10 10 11 11 12 12 13 13 14
REMARK SMILES IDX 21 15 14 16 18 17 15 18 16 19 19 20 20 21 17 22
REMARK H PARENT 7 4 17 23
REMARK Flexibility Score: inf
ROOT
ATOM      1  C   UNL     1      94.361  80.536  85.472  1.00  0.00     0.107 C 
ENDROOT
BRANCH   1   2
ATOM      2  C   UNL     1      93.371  81.702  85.541  1.00  0.00     0.121 C 
BRANCH   2   3
ATOM      3  O   UNL     1      94.073  82.919  85.779  1.00  0.00    -0.393 OA
ATOM      4  H   UNL     1      93.672  83.608  85.220  1.00  0.00     0.210 HD
ENDBRANCH   2   3
BRANCH   2   5
ATOM      5  C   UNL     1      92.525  81.847  84.270  1.00  0.00     0.032 C 
BRANCH   5   6
ATOM      6  C   UNL     1      91.032  81.627  84.543  1.00  0.00     0.003 C 
BRANCH   6   7
ATOM      7  C   UNL     1      90.454  80.411  83.811  1.00  0.00    -0.000 C 
BRANCH   7   8
ATOM      8  C   UNL     1      91.288  79.142  83.979  1.00  0.00    -0.003 C 
ATOM      9  C   UNL     1      90.426  77.964  84.406  1.00  0.00     0.004 C 
ENDBRANCH   7   8
ENDBRANCH   6   7
ENDBRANCH   5   6
ENDBRANCH   2   5
ENDBRANCH   1   2
BRANCH   1  10
ATOM     10  C   UNL     1      95.727  80.946  84.948  1.00  0.00     0.135 C 
ATOM     11  O   UNL     1      96.600  81.360  85.711  1.00  0.00    -0.300 OA
BRANCH  10  12
ATOM     12  C   UNL     1      95.964  80.773  83.455  1.00  0.00     0.080 C 
BRANCH  12  13
ATOM     13  C   UNL     1      96.327  82.074  82.736  1.00  0.00     0.043 C 
BRANCH  13  14
ATOM     14  C   UNL     1      96.902  81.848  81.358  1.00  0.00    -0.044 A 
ATOM     15  C   UNL     1      97.017  82.914  80.466  1.00  0.00     0.054 A 
ATOM     16  C   UNL     1      97.318  80.571  80.977  1.00  0.00     0.008 A 
ATOM     17  C   UNL     1      97.549  82.704  79.194  1.00  0.00     0.160 A 
ATOM     18  C   UNL     1      97.850  80.361  79.705  1.00  0.00     0.050 A 
ATOM     19  C   UNL     1      97.965  81.428  78.813  1.00  0.00     0.157 A 
BRANCH  17  20
ATOM     20  O   UNL     1      97.656  83.753  78.331  1.00  0.00    -0.493 OA
ATOM     21  C   UNL     1      96.545  84.002  77.472  1.00  0.00     0.278 C 
ENDBRANCH  17  20
BRANCH  19  22
ATOM     22  O   UNL     1      98.486  81.210  77.573  1.00  0.00    -0.504 OA
ATOM     23  H   UNL     1      97.882  81.580  76.907  1.00  0.00     0.293 HD
ENDBRANCH  19  22
ENDBRANCH  13  14
ENDBRANCH  12  13
ENDBRANCH  10  12
ENDBRANCH   1  10
TORSDOF 12
ENDMDL
MODEL 5
REMARK VINA RESULT:    -5.397      2.083      8.635
REMARK INTER + INTRA:          -9.804
REMARK INTER:                  -9.020
REMARK INTRA:                  -0.784
REMARK UNBOUND:                -0.937
REMARK SMILES CCCCC[C@H](O)CC(=O)CCc1ccc(O)c(OC)c1
REMARK SMILES IDX 8 1 6 2 7 3 5 5 4 6 3 7 2 8 1 9 9 10 10 11 11 12 12 13 13 14
REMARK SMILES IDX 21 15 14 16 18 17 15 18 16 19 19 20 20 21 17 22
REMARK H PARENT 7 4 17 23
REMARK Flexibility Score: inf
ROOT
ATOM      1  C   UNL     1      97.309  82.527  82.123  1.00  0.00     0.107 C 
ENDROOT
BRANCH   1   2
ATOM      2  C   UNL     1      96.155  81.812  82.832  1.00  0.00     0.121 C 
BRANCH   2   3
ATOM      3  O   UNL     1      96.525  80.466  83.122  1.00  0.00    -0.393 OA
ATOM      4  H   UNL     1      96.066  79.888  82.488  1.00  0.00     0.210 HD
ENDBRANCH   2   3
BRANCH   2   5
ATOM      5  C   UNL     1      95.724  82.508  84.128  1.00  0.00     0.032 C 
BRANCH   5   6
ATOM      6  C   UNL     1      96.695  83.623  84.534  1.00  0.00     0.003 C 
BRANCH   6   7
ATOM      7  C   UNL     1      96.057  85.016  84.522  1.00  0.00    -0.000 C 
BRANCH   7   8
ATOM      8  C   UNL     1      94.673  85.062  85.166  1.00  0.00    -0.003 C 
ATOM      9  C   UNL     1      94.096  86.469  85.143  1.00  0.00     0.004 C 
ENDBRANCH   7   8
ENDBRANCH   6   7
ENDBRANCH   5   6
ENDBRANCH   2   5
ENDBRANCH   1   2
BRANCH   1  10
ATOM     10  C   UNL     1      97.524  82.043  80.699  1.00  0.00     0.135 C 
ATOM     11  O   UNL     1      97.363  80.859  80.401  1.00  0.00    -0.300 OA
BRANCH  10  12
ATOM     12  C   UNL     1      97.900  83.098  79.670  1.00  0.00     0.080 C 
BRANCH  12  13
ATOM     13  C   UNL     1      96.747  83.491  78.743  1.00  0.00     0.043 C 
BRANCH  13  14
ATOM     14  C   UNL     1      97.197  83.787  77.332  1.00  0.00    -0.044 A 
ATOM     15  C   UNL     1      98.399  83.262  76.858  1.00  0.00     0.054 A 
ATOM     16  C   UNL     1      96.409  84.586  76.503  1.00  0.00     0.008 A 
ATOM     17  C   UNL     1      98.812  83.535  75.554  1.00  0.00     0.160 A 
ATOM     18  C   UNL     1      96.822  84.859  75.199  1.00  0.00     0.050 A 
ATOM     19  C   UNL     1      98.024  84.334  74.725  1.00  0.00     0.157 A 
BRANCH  17  20
ATOM     20  O   UNL     1      99.989  83.017  75.102  1.00  0.00    -0.493 OA
ATOM     21  C   UNL     1      99.957  81.686  74.591  1.00  0.00     0.278 C 
ENDBRANCH  17  20
BRANCH  19  22
ATOM     22  O   UNL     1      98.418  84.608  73.450  1.00  0.00    -0.504 OA
ATOM     23  H   UNL     1      97.805  85.256  73.062  1.00  0.00     0.293 HD
ENDBRANCH  19  22
ENDBRANCH  13  14
ENDBRANCH  12  13
ENDBRANCH  10  12
ENDBRANCH   1  10
TORSDOF 12
ENDMDL
MODEL 6
REMARK VINA RESULT:    -5.338     24.284     26.271
REMARK INTER + INTRA:          -9.708
REMARK INTER:                  -8.443
REMARK INTRA:                  -1.264
REMARK UNBOUND:                -0.937
REMARK SMILES CCCCC[C@H](O)CC(=O)CCc1ccc(O)c(OC)c1
REMARK SMILES IDX 8 1 6 2 7 3 5 5 4 6 3 7 2 8 1 9 9 10 10 11 11 12 12 13 13 14
REMARK SMILES IDX 21 15 14 16 18 17 15 18 16 19 19 20 20 21 17 22
REMARK H PARENT 7 4 17 23
REMARK Flexibility Score: inf
ROOT
ATOM      1  C   UNL     1      76.336  84.321  67.701  1.00  0.00     0.107 C 
ENDROOT
BRANCH   1   2
ATOM      2  C   UNL     1      77.268  85.014  68.698  1.00  0.00     0.121 C 
BRANCH   2   3
ATOM      3  O   UNL     1      78.242  85.783  67.995  1.00  0.00    -0.393 OA
ATOM      4  H   UNL     1      79.081  85.289  68.014  1.00  0.00     0.210 HD
ENDBRANCH   2   3
BRANCH   2   5
ATOM      5  C   UNL     1      76.524  85.923  69.684  1.00  0.00     0.032 C 
BRANCH   5   6
ATOM      6  C   UNL     1      75.352  86.656  69.019  1.00  0.00     0.003 C 
BRANCH   6   7
ATOM      7  C   UNL     1      75.585  88.164  68.875  1.00  0.00    -0.000 C 
BRANCH   7   8
ATOM      8  C   UNL     1      76.232  88.559  67.549  1.00  0.00    -0.003 C 
ATOM      9  C   UNL     1      77.633  89.112  67.760  1.00  0.00     0.004 C 
ENDBRANCH   7   8
ENDBRANCH   6   7
ENDBRANCH   5   6
ENDBRANCH   2   5
ENDBRANCH   1   2
BRANCH   1  10
ATOM     10  C   UNL     1      76.969  84.122  66.333  1.00  0.00     0.135 C 
ATOM     11  O   UNL     1      78.134  83.739  66.224  1.00  0.00    -0.300 OA
BRANCH  10  12
ATOM     12  C   UNL     1      76.078  84.374  65.127  1.00  0.00     0.080 C 
BRANCH  12  13
ATOM     13  C   UNL     1      75.209  83.175  64.742  1.00  0.00     0.043 C 
BRANCH  13  14
ATOM     14  C   UNL     1      73.758  83.349  65.122  1.00  0.00    -0.044 A 
ATOM     15  C   UNL     1      73.347  84.498  65.798  1.00  0.00     0.054 A 
ATOM     16  C   UNL     1      72.829  82.361  64.796  1.00  0.00     0.008 A 
ATOM     17  C   UNL     1      72.006  84.658  66.148  1.00  0.00     0.160 A 
ATOM     18  C   UNL     1      71.488  82.521  65.146  1.00  0.00     0.050 A 
ATOM     19  C   UNL     1      71.076  83.670  65.823  1.00  0.00     0.157 A 
BRANCH  17  20
ATOM     20  O   UNL     1      71.616  85.784  66.809  1.00  0.00    -0.493 OA
ATOM     21  C   UNL     1      71.834  85.816  68.219  1.00  0.00     0.278 C 
ENDBRANCH  17  20
BRANCH  19  22
ATOM     22  O   UNL     1      69.765  83.815  66.159  1.00  0.00    -0.504 OA
ATOM     23  H   UNL     1      69.670  84.592  66.736  1.00  0.00     0.293 HD
ENDBRANCH  19  22
ENDBRANCH  13  14
ENDBRANCH  12  13
ENDBRANCH  10  12
ENDBRANCH   1  10
TORSDOF 12
ENDMDL
MODEL 7
REMARK VINA RESULT:    -5.334      4.978     10.452
REMARK INTER + INTRA:          -9.701
REMARK INTER:                  -8.903
REMARK INTRA:                  -0.798
REMARK UNBOUND:                -0.937
REMARK SMILES CCCCC[C@H](O)CC(=O)CCc1ccc(O)c(OC)c1
REMARK SMILES IDX 8 1 6 2 7 3 5 5 4 6 3 7 2 8 1 9 9 10 10 11 11 12 12 13 13 14
REMARK SMILES IDX 21 15 14 16 18 17 15 18 16 19 19 20 20 21 17 22
REMARK H PARENT 7 4 17 23
REMARK Flexibility Score: inf
ROOT
ATOM      1  C   UNL     1      93.184  80.157  84.775  1.00  0.00     0.107 C 
ENDROOT
BRANCH   1   2
ATOM      2  C   UNL     1      91.671  80.238  84.993  1.00  0.00     0.121 C 
BRANCH   2   3
ATOM      3  O   UNL     1      91.396  80.850  86.252  1.00  0.00    -0.393 OA
ATOM      4  H   UNL     1      90.590  80.440  86.612  1.00  0.00     0.210 HD
ENDBRANCH   2   3
BRANCH   2   5
ATOM      5  C   UNL     1      90.946  81.014  83.886  1.00  0.00     0.032 C 
BRANCH   5   6
ATOM      6  C   UNL     1      89.650  81.661  84.389  1.00  0.00     0.003 C 
BRANCH   6   7
ATOM      7  C   UNL     1      88.486  80.672  84.510  1.00  0.00    -0.000 C 
BRANCH   7   8
ATOM      8  C   UNL     1      87.624  80.585  83.253  1.00  0.00    -0.003 C 
ATOM      9  C   UNL     1      86.720  81.801  83.115  1.00  0.00     0.004 C 
ENDBRANCH   7   8
ENDBRANCH   6   7
ENDBRANCH   5   6
ENDBRANCH   2   5
ENDBRANCH   1   2
BRANCH   1  10
ATOM     10  C   UNL     1      93.896  81.472  85.045  1.00  0.00     0.135 C 
ATOM     11  O   UNL     1      93.863  81.993  86.160  1.00  0.00    -0.300 OA
BRANCH  10  12
ATOM     12  C   UNL     1      94.678  82.073  83.887  1.00  0.00     0.080 C 
BRANCH  12  13
ATOM     13  C   UNL     1      95.977  81.329  83.569  1.00  0.00     0.043 C 
BRANCH  13  14
ATOM     14  C   UNL     1      96.529  81.660  82.203  1.00  0.00    -0.044 A 
ATOM     15  C   UNL     1      97.023  80.643  81.385  1.00  0.00     0.054 A 
ATOM     16  C   UNL     1      96.545  82.982  81.759  1.00  0.00     0.008 A 
ATOM     17  C   UNL     1      97.532  80.950  80.123  1.00  0.00     0.160 A 
ATOM     18  C   UNL     1      97.055  83.289  80.497  1.00  0.00     0.050 A 
ATOM     19  C   UNL     1      97.548  82.272  79.679  1.00  0.00     0.157 A 
BRANCH  17  20
ATOM     20  O   UNL     1      98.012  79.949  79.333  1.00  0.00    -0.493 OA
ATOM     21  C   UNL     1      99.345  79.507  79.585  1.00  0.00     0.278 C 
ENDBRANCH  17  20
BRANCH  19  22
ATOM     22  O   UNL     1      98.043  82.584  78.449  1.00  0.00    -0.504 OA
ATOM     23  H   UNL     1      98.516  83.432  78.503  1.00  0.00     0.293 HD
ENDBRANCH  19  22
ENDBRANCH  13  14
ENDBRANCH  12  13
ENDBRANCH  10  12
ENDBRANCH   1  10
TORSDOF 12
ENDMDL
MODEL 8
REMARK VINA RESULT:    -5.299      1.982      3.101
REMARK INTER + INTRA:          -9.644
REMARK INTER:                  -8.190
REMARK INTRA:                  -1.454
REMARK UNBOUND:                -0.937
REMARK SMILES CCCCC[C@H](O)CC(=O)CCc1ccc(O)c(OC)c1
REMARK SMILES IDX 8 1 6 2 7 3 5 5 4 6 3 7 2 8 1 9 9 10 10 11 11 12 12 13 13 14
REMARK SMILES IDX 21 15 14 16 18 17 15 18 16 19 19 20 20 21 17 22
REMARK H PARENT 7 4 17 23
REMARK Flexibility Score: inf
ROOT
ATOM      1  C   UNL     1      98.233  83.906  75.923  1.00  0.00     0.107 C 
ENDROOT
BRANCH   1   2
ATOM      2  C   UNL     1      98.066  83.074  74.649  1.00  0.00     0.121 C 
BRANCH   2   3
ATOM      3  O   UNL     1      97.113  83.693  73.789  1.00  0.00    -0.393 OA
ATOM      4  H   UNL     1      96.504  84.211  74.343  1.00  0.00     0.210 HD
ENDBRANCH   2   3
BRANCH   2   5
ATOM      5  C   UNL     1      99.381  82.875  73.886  1.00  0.00     0.032 C 
BRANCH   5   6
ATOM      6  C   UNL     1     100.421  82.115  74.718  1.00  0.00     0.003 C 
BRANCH   6   7
ATOM      7  C   UNL     1      99.897  80.790  75.281  1.00  0.00    -0.000 C 
BRANCH   7   8
ATOM      8  C   UNL     1     100.542  80.391  76.607  1.00  0.00    -0.003 C 
ATOM      9  C   UNL     1     100.966  81.613  77.408  1.00  0.00     0.004 C 
ENDBRANCH   7   8
ENDBRANCH   6   7
ENDBRANCH   5   6
ENDBRANCH   2   5
ENDBRANCH   1   2
BRANCH   1  10
ATOM     10  C   UNL     1      96.907  84.325  76.538  1.00  0.00     0.135 C 
ATOM     11  O   UNL     1      96.176  85.138  75.973  1.00  0.00    -0.300 OA
BRANCH  10  12
ATOM     12  C   UNL     1      96.523  83.658  77.850  1.00  0.00     0.080 C 
BRANCH  12  13
ATOM     13  C   UNL     1      97.540  82.623  78.334  1.00  0.00     0.043 C 
BRANCH  13  14
ATOM     14  C   UNL     1      97.585  82.496  79.839  1.00  0.00    -0.044 A 
ATOM     15  C   UNL     1      98.505  81.636  80.439  1.00  0.00     0.054 A 
ATOM     16  C   UNL     1      96.705  83.238  80.627  1.00  0.00     0.008 A 
ATOM     17  C   UNL     1      98.545  81.521  81.829  1.00  0.00     0.160 A 
ATOM     18  C   UNL     1      96.746  83.123  82.017  1.00  0.00     0.050 A 
ATOM     19  C   UNL     1      97.666  82.263  82.617  1.00  0.00     0.157 A 
BRANCH  17  20
ATOM     20  O   UNL     1      99.448  80.678  82.405  1.00  0.00    -0.493 OA
ATOM     21  C   UNL     1      99.164  79.281  82.339  1.00  0.00     0.278 C 
ENDBRANCH  17  20
BRANCH  19  22
ATOM     22  O   UNL     1      97.697  82.159  83.975  1.00  0.00    -0.504 OA
ATOM     23  H   UNL     1      97.458  83.017  84.365  1.00  0.00     0.293 HD
ENDBRANCH  19  22
ENDBRANCH  13  14
ENDBRANCH  12  13
ENDBRANCH  10  12
ENDBRANCH   1  10
TORSDOF 12
ENDMDL
MODEL 9
REMARK VINA RESULT:    -5.258     24.053     26.093
REMARK INTER + INTRA:          -9.576
REMARK INTER:                  -8.372
REMARK INTRA:                  -1.204
REMARK UNBOUND:                -0.937
REMARK SMILES CCCCC[C@H](O)CC(=O)CCc1ccc(O)c(OC)c1
REMARK SMILES IDX 8 1 6 2 7 3 5 5 4 6 3 7 2 8 1 9 9 10 10 11 11 12 12 13 13 14
REMARK SMILES IDX 21 15 14 16 18 17 15 18 16 19 19 20 20 21 17 22
REMARK H PARENT 7 4 17 23
REMARK Flexibility Score: inf
ROOT
ATOM      1  C   UNL     1      77.181  87.242  67.221  1.00  0.00     0.107 C 
ENDROOT
BRANCH   1   2
ATOM      2  C   UNL     1      77.296  88.478  68.116  1.00  0.00     0.121 C 
BRANCH   2   3
ATOM      3  O   UNL     1      78.451  89.231  67.754  1.00  0.00    -0.393 OA
ATOM      4  H   UNL     1      78.443  90.056  68.271  1.00  0.00     0.210 HD
ENDBRANCH   2   3
BRANCH   2   5
ATOM      5  C   UNL     1      76.061  89.385  68.049  1.00  0.00     0.032 C 
BRANCH   5   6
ATOM      6  C   UNL     1      75.528  89.737  69.443  1.00  0.00     0.003 C 
BRANCH   6   7
ATOM      7  C   UNL     1      74.206  89.039  69.781  1.00  0.00    -0.000 C 
BRANCH   7   8
ATOM      8  C   UNL     1      73.362  89.791  70.807  1.00  0.00    -0.003 C 
ATOM      9  C   UNL     1      74.022  91.098  71.218  1.00  0.00     0.004 C 
ENDBRANCH   7   8
ENDBRANCH   6   7
ENDBRANCH   5   6
ENDBRANCH   2   5
ENDBRANCH   1   2
BRANCH   1  10
ATOM     10  C   UNL     1      77.211  85.937  68.001  1.00  0.00     0.135 C 
ATOM     11  O   UNL     1      77.928  85.003  67.643  1.00  0.00    -0.300 OA
BRANCH  10  12
ATOM     12  C   UNL     1      76.353  85.872  69.255  1.00  0.00     0.080 C 
BRANCH  12  13
ATOM     13  C   UNL     1      75.227  84.840  69.177  1.00  0.00     0.043 C 
BRANCH  13  14
ATOM     14  C   UNL     1      74.182  85.182  68.140  1.00  0.00    -0.044 A 
ATOM     15  C   UNL     1      73.020  85.855  68.516  1.00  0.00     0.054 A 
ATOM     16  C   UNL     1      74.381  84.823  66.806  1.00  0.00     0.008 A 
ATOM     17  C   UNL     1      72.057  86.170  67.558  1.00  0.00     0.160 A 
ATOM     18  C   UNL     1      73.418  85.139  65.848  1.00  0.00     0.050 A 
ATOM     19  C   UNL     1      72.255  85.812  66.224  1.00  0.00     0.157 A 
BRANCH  17  20
ATOM     20  O   UNL     1      70.925  86.827  67.937  1.00  0.00    -0.493 OA
ATOM     21  C   UNL     1      70.189  86.274  69.027  1.00  0.00     0.278 C 
ENDBRANCH  17  20
BRANCH  19  22
ATOM     22  O   UNL     1      71.322  86.114  65.280  1.00  0.00    -0.504 OA
ATOM     23  H   UNL     1      71.149  85.324  64.740  1.00  0.00     0.293 HD
ENDBRANCH  19  22
ENDBRANCH  13  14
ENDBRANCH  12  13
ENDBRANCH  10  12
ENDBRANCH   1  10
TORSDOF 12
ENDMDL
MODEL 10
REMARK VINA RESULT:    -5.198     23.937     25.952
REMARK INTER + INTRA:          -9.477
REMARK INTER:                  -7.412
REMARK INTRA:                  -2.065
REMARK UNBOUND:                -0.937
REMARK SMILES CCCCC[C@H](O)CC(=O)CCc1ccc(O)c(OC)c1
REMARK SMILES IDX 8 1 6 2 7 3 5 5 4 6 3 7 2 8 1 9 9 10 10 11 11 12 12 13 13 14
REMARK SMILES IDX 21 15 14 16 18 17 15 18 16 19 19 20 20 21 17 22
REMARK H PARENT 7 4 17 23
REMARK Flexibility Score: inf
ROOT
ATOM      1  C   UNL     1      75.821  87.748  65.468  1.00  0.00     0.107 C 
ENDROOT
BRANCH   1   2
ATOM      2  C   UNL     1      74.651  86.778  65.653  1.00  0.00     0.121 C 
BRANCH   2   3
ATOM      3  O   UNL     1      75.140  85.441  65.734  1.00  0.00    -0.393 OA
ATOM      4  H   UNL     1      75.159  85.076  64.832  1.00  0.00     0.210 HD
ENDBRANCH   2   3
BRANCH   2   5
ATOM      5  C   UNL     1      73.809  87.084  66.898  1.00  0.00     0.032 C 
BRANCH   5   6
ATOM      6  C   UNL     1      73.765  85.898  67.869  1.00  0.00     0.003 C 
BRANCH   6   7
ATOM      7  C   UNL     1      74.713  86.055  69.062  1.00  0.00    -0.000 C 
BRANCH   7   8
ATOM      8  C   UNL     1      75.437  84.765  69.442  1.00  0.00    -0.003 C 
ATOM      9  C   UNL     1      76.539  85.027  70.459  1.00  0.00     0.004 C 
ENDBRANCH   7   8
ENDBRANCH   6   7
ENDBRANCH   5   6
ENDBRANCH   2   5
ENDBRANCH   1   2
BRANCH   1  10
ATOM     10  C   UNL     1      76.811  87.715  66.621  1.00  0.00     0.135 C 
ATOM     11  O   UNL     1      77.334  86.659  66.975  1.00  0.00    -0.300 OA
BRANCH  10  12
ATOM     12  C   UNL     1      77.146  89.049  67.270  1.00  0.00     0.080 C 
BRANCH  12  13
ATOM     13  C   UNL     1      76.656  89.170  68.715  1.00  0.00     0.043 C 
BRANCH  13  14
ATOM     14  C   UNL     1      75.320  89.864  68.831  1.00  0.00    -0.044 A 
ATOM     15  C   UNL     1      74.597  89.792  70.022  1.00  0.00     0.054 A 
ATOM     16  C   UNL     1      74.808  90.576  67.746  1.00  0.00     0.008 A 
ATOM     17  C   UNL     1      73.363  90.434  70.128  1.00  0.00     0.160 A 
ATOM     18  C   UNL     1      73.574  91.219  67.852  1.00  0.00     0.050 A 
ATOM     19  C   UNL     1      72.852  91.147  69.043  1.00  0.00     0.157 A 
BRANCH  17  20
ATOM     20  O   UNL     1      72.667  90.357  71.296  1.00  0.00    -0.493 OA
ATOM     21  C   UNL     1      73.045  91.256  72.337  1.00  0.00     0.278 C 
ENDBRANCH  17  20
BRANCH  19  22
ATOM     22  O   UNL     1      71.648  91.778  69.135  1.00  0.00    -0.504 OA
ATOM     23  H   UNL     1      71.798  92.737  69.202  1.00  0.00     0.293 HD
ENDBRANCH  19  22
ENDBRANCH  13  14
ENDBRANCH  12  13
ENDBRANCH  10  12
ENDBRANCH   1  10
TORSDOF 12
ENDMDL
