MODEL 1
REMARK VINA RESULT:    -7.841      0.000      0.000
REMARK INTER + INTRA:          -9.505
REMARK INTER:                  -9.216
REMARK INTRA:                  -0.289
REMARK UNBOUND:                -0.289
REMARK SMILES O=C(/C=C/C=C/c1ccc2c(c1)OCO2)N1CCCCC1
REMARK SMILES IDX 3 1 4 2 2 3 1 4 16 5 17 6 21 7 18 8 20 9 19 10 5 11 6 12
REMARK SMILES IDX 7 13 12 14 8 15 11 16 9 17 13 18 10 19 14 20 15 21
REMARK H PARENT
REMARK Flexibility Score: inf
ROOT
ATOM      1  C   UNL     1      95.961  83.837  83.298  1.00  0.00     0.071 C 
ATOM      2  C   UNL     1      96.769  83.108  82.531  1.00  0.00     0.006 C 
ENDROOT
BRANCH   1   3
ATOM      3  C   UNL     1      95.836  83.469  84.723  1.00  0.00     0.246 C 
ATOM      4  O   UNL     1      96.633  83.977  85.513  1.00  0.00    -0.270 OA
ATOM      5  N   UNL     1      94.832  82.569  85.076  1.00  0.00    -0.339 N 
ATOM      6  C   UNL     1      94.687  82.180  86.482  1.00  0.00     0.120 C 
ATOM      7  C   UNL     1      93.894  81.909  84.156  1.00  0.00     0.120 C 
ATOM      8  C   UNL     1      93.258  82.386  86.973  1.00  0.00     0.022 C 
ATOM      9  C   UNL     1      92.448  82.090  84.617  1.00  0.00     0.022 C 
ATOM     10  C   UNL     1      92.262  81.665  86.070  1.00  0.00     0.004 C 
ENDBRANCH   1   3
BRANCH   2  11
ATOM     11  C   UNL     1      96.956  83.392  81.124  1.00  0.00     0.001 C 
ATOM     12  C   UNL     1      97.132  82.428  80.206  1.00  0.00     0.008 C 
BRANCH  12  13
ATOM     13  C   UNL     1      97.335  82.660  78.766  1.00  0.00    -0.022 A 
ATOM     14  C   UNL     1      96.645  83.692  78.144  1.00  0.00     0.058 A 
ATOM     15  C   UNL     1      98.216  81.834  78.064  1.00  0.00     0.012 A 
ATOM     16  C   UNL     1      96.868  83.870  76.794  1.00  0.00     0.166 A 
ATOM     17  C   UNL     1      98.423  82.037  76.697  1.00  0.00     0.051 A 
ATOM     18  O   UNL     1      96.291  84.821  76.009  1.00  0.00    -0.454 OA
ATOM     19  C   UNL     1      97.733  83.065  76.090  1.00  0.00     0.165 A 
ATOM     20  C   UNL     1      96.890  84.522  74.731  1.00  0.00     0.468 C 
ATOM     21  O   UNL     1      97.806  83.409  74.775  1.00  0.00    -0.454 OA
ENDBRANCH  12  13
ENDBRANCH   2  11
TORSDOF 3
ENDMDL
MODEL 2
REMARK VINA RESULT:    -7.651      3.119      9.454
REMARK INTER + INTRA:          -9.281
REMARK INTER:                  -8.895
REMARK INTRA:                  -0.386
REMARK UNBOUND:                -0.289
REMARK SMILES O=C(/C=C/C=C/c1ccc2c(c1)OCO2)N1CCCCC1
REMARK SMILES IDX 3 1 4 2 2 3 1 4 16 5 17 6 21 7 18 8 20 9 19 10 5 11 6 12
REMARK SMILES IDX 7 13 12 14 8 15 11 16 9 17 13 18 10 19 14 20 15 21
REMARK H PARENT
REMARK Flexibility Score: inf
ROOT
ATOM      1  C   UNL     1      97.645  83.947  77.076  1.00  0.00     0.071 C 
ATOM      2  C   UNL     1      97.038  82.869  77.570  1.00  0.00     0.006 C 
ENDROOT
BRANCH   1   3
ATOM      3  C   UNL     1      97.440  84.266  75.649  1.00  0.00     0.246 C 
ATOM      4  O   UNL     1      96.292  84.520  75.282  1.00  0.00    -0.270 OA
ATOM      5  N   UNL     1      98.556  84.252  74.814  1.00  0.00    -0.339 N 
ATOM      6  C   UNL     1      98.383  84.560  73.391  1.00  0.00     0.120 C 
ATOM      7  C   UNL     1      99.931  83.910  75.206  1.00  0.00     0.120 C 
ATOM      8  C   UNL     1      99.334  85.663  72.940  1.00  0.00     0.022 C 
ATOM      9  C   UNL     1     100.917  84.992  74.767  1.00  0.00     0.022 C 
ATOM     10  C   UNL     1     100.779  85.312  73.282  1.00  0.00     0.004 C 
ENDBRANCH   1   3
BRANCH   2  11
ATOM     11  C   UNL     1      97.178  82.475  78.956  1.00  0.00     0.001 C 
ATOM     12  C   UNL     1      96.888  83.296  79.978  1.00  0.00     0.008 C 
BRANCH  12  13
ATOM     13  C   UNL     1      97.021  82.950  81.403  1.00  0.00    -0.022 A 
ATOM     14  C   UNL     1      96.313  83.684  82.345  1.00  0.00     0.058 A 
ATOM     15  C   UNL     1      97.855  81.890  81.769  1.00  0.00     0.012 A 
ATOM     16  C   UNL     1      96.469  83.322  83.667  1.00  0.00     0.166 A 
ATOM     17  C   UNL     1      97.995  81.545  83.115  1.00  0.00     0.051 A 
ATOM     18  O   UNL     1      95.866  83.915  84.734  1.00  0.00    -0.454 OA
ATOM     19  C   UNL     1      97.287  82.281  84.042  1.00  0.00     0.165 A 
ATOM     20  C   UNL     1      96.396  83.131  85.822  1.00  0.00     0.468 C 
ATOM     21  O   UNL     1      97.299  82.092  85.390  1.00  0.00    -0.454 OA
ENDBRANCH  12  13
ENDBRANCH   2  11
TORSDOF 3
ENDMDL
MODEL 3
REMARK VINA RESULT:    -7.634     12.895     15.429
REMARK INTER + INTRA:          -9.262
REMARK INTER:                  -8.924
REMARK INTRA:                  -0.338
REMARK UNBOUND:                -0.289
REMARK SMILES O=C(/C=C/C=C/c1ccc2c(c1)OCO2)N1CCCCC1
REMARK SMILES IDX 3 1 4 2 2 3 1 4 16 5 17 6 21 7 18 8 20 9 19 10 5 11 6 12
REMARK SMILES IDX 7 13 12 14 8 15 11 16 9 17 13 18 10 19 14 20 15 21
REMARK H PARENT
REMARK Flexibility Score: inf
ROOT
ATOM      1  C   UNL     1      94.817  96.976  77.436  1.00  0.00     0.071 C 
ATOM      2  C   UNL     1      93.508  96.998  77.192  1.00  0.00     0.006 C 
ENDROOT
BRANCH   1   3
ATOM      3  C   UNL     1      95.436  98.185  78.014  1.00  0.00     0.246 C 
ATOM      4  O   UNL     1      95.198  98.437  79.195  1.00  0.00    -0.270 OA
ATOM      5  N   UNL     1      96.244  98.961  77.184  1.00  0.00    -0.339 N 
ATOM      6  C   UNL     1      96.868 100.171  77.728  1.00  0.00     0.120 C 
ATOM      7  C   UNL     1      96.515  98.717  75.759  1.00  0.00     0.120 C 
ATOM      8  C   UNL     1      98.373 100.179  77.484  1.00  0.00     0.022 C 
ATOM      9  C   UNL     1      98.016  98.721  75.473  1.00  0.00     0.022 C 
ATOM     10  C   UNL     1      98.688  99.984  76.004  1.00  0.00     0.004 C 
ENDBRANCH   1   3
BRANCH   2  11
ATOM     11  C   UNL     1      92.811  95.862  76.627  1.00  0.00     0.001 C 
ATOM     12  C   UNL     1      91.865  95.184  77.295  1.00  0.00     0.008 C 
BRANCH  12  13
ATOM     13  C   UNL     1      91.132  94.018  76.772  1.00  0.00    -0.022 A 
ATOM     14  C   UNL     1      91.306  93.651  75.445  1.00  0.00     0.058 A 
ATOM     15  C   UNL     1      90.280  93.314  77.627  1.00  0.00     0.012 A 
ATOM     16  C   UNL     1      90.599  92.553  75.001  1.00  0.00     0.166 A 
ATOM     17  C   UNL     1      89.576  92.206  77.151  1.00  0.00     0.051 A 
ATOM     18  O   UNL     1      90.632  92.038  73.741  1.00  0.00    -0.454 OA
ATOM     19  C   UNL     1      89.757  91.849  75.831  1.00  0.00     0.165 A 
ATOM     20  C   UNL     1      89.717  90.931  73.872  1.00  0.00     0.468 C 
ATOM     21  O   UNL     1      89.157  90.805  75.196  1.00  0.00    -0.454 OA
ENDBRANCH  12  13
ENDBRANCH   2  11
TORSDOF 3
ENDMDL
MODEL 4
REMARK VINA RESULT:    -7.525      0.817      1.513
REMARK INTER + INTRA:          -9.133
REMARK INTER:                  -8.816
REMARK INTRA:                  -0.317
REMARK UNBOUND:                -0.289
REMARK SMILES O=C(/C=C/C=C/c1ccc2c(c1)OCO2)N1CCCCC1
REMARK SMILES IDX 3 1 4 2 2 3 1 4 16 5 17 6 21 7 18 8 20 9 19 10 5 11 6 12
REMARK SMILES IDX 7 13 12 14 8 15 11 16 9 17 13 18 10 19 14 20 15 21
REMARK H PARENT
REMARK Flexibility Score: inf
ROOT
ATOM      1  C   UNL     1      96.015  83.757  83.254  1.00  0.00     0.071 C 
ATOM      2  C   UNL     1      96.724  83.083  82.350  1.00  0.00     0.006 C 
ENDROOT
BRANCH   1   3
ATOM      3  C   UNL     1      95.943  83.215  84.625  1.00  0.00     0.246 C 
ATOM      4  O   UNL     1      96.866  83.486  85.394  1.00  0.00    -0.270 OA
ATOM      5  N   UNL     1      94.840  82.429  84.956  1.00  0.00    -0.339 N 
ATOM      6  C   UNL     1      94.743  81.872  86.309  1.00  0.00     0.120 C 
ATOM      7  C   UNL     1      93.743  82.047  84.054  1.00  0.00     0.120 C 
ATOM      8  C   UNL     1      93.405  82.211  86.956  1.00  0.00     0.022 C 
ATOM      9  C   UNL     1      92.382  82.369  84.671  1.00  0.00     0.022 C 
ATOM     10  C   UNL     1      92.242  81.776  86.070  1.00  0.00     0.004 C 
ENDBRANCH   1   3
BRANCH   2  11
ATOM     11  C   UNL     1      96.853  83.535  80.981  1.00  0.00     0.001 C 
ATOM     12  C   UNL     1      97.175  82.711  79.971  1.00  0.00     0.008 C 
BRANCH  12  13
ATOM     13  C   UNL     1      97.328  83.118  78.564  1.00  0.00    -0.022 A 
ATOM     14  C   UNL     1      98.463  82.728  77.867  1.00  0.00     0.058 A 
ATOM     15  C   UNL     1      96.325  83.887  77.969  1.00  0.00     0.012 A 
ATOM     16  C   UNL     1      98.560  83.134  76.552  1.00  0.00     0.166 A 
ATOM     17  C   UNL     1      96.449  84.284  76.636  1.00  0.00     0.051 A 
ATOM     18  O   UNL     1      99.590  82.856  75.705  1.00  0.00    -0.454 OA
ATOM     19  C   UNL     1      97.580  83.891  75.952  1.00  0.00     0.165 A 
ATOM     20  C   UNL     1      99.147  83.524  74.506  1.00  0.00     0.468 C 
ATOM     21  O   UNL     1      97.873  84.183  74.656  1.00  0.00    -0.454 OA
ENDBRANCH  12  13
ENDBRANCH   2  11
TORSDOF 3
ENDMDL
MODEL 5
REMARK VINA RESULT:    -7.371     12.771     15.014
REMARK INTER + INTRA:          -8.952
REMARK INTER:                  -8.635
REMARK INTRA:                  -0.317
REMARK UNBOUND:                -0.289
REMARK SMILES O=C(/C=C/C=C/c1ccc2c(c1)OCO2)N1CCCCC1
REMARK SMILES IDX 3 1 4 2 2 3 1 4 16 5 17 6 21 7 18 8 20 9 19 10 5 11 6 12
REMARK SMILES IDX 7 13 12 14 8 15 11 16 9 17 13 18 10 19 14 20 15 21
REMARK H PARENT
REMARK Flexibility Score: inf
ROOT
ATOM      1  C   UNL     1      92.179  95.297  76.880  1.00  0.00     0.071 C 
ATOM      2  C   UNL     1      93.421  95.775  76.921  1.00  0.00     0.006 C 
ENDROOT
BRANCH   1   3
ATOM      3  C   UNL     1      91.669  94.800  75.587  1.00  0.00     0.246 C 
ATOM      4  O   UNL     1      92.199  95.232  74.562  1.00  0.00    -0.270 OA
ATOM      5  N   UNL     1      90.620  93.882  75.611  1.00  0.00    -0.339 N 
ATOM      6  C   UNL     1      90.088  93.375  74.343  1.00  0.00     0.120 C 
ATOM      7  C   UNL     1      89.933  93.380  76.811  1.00  0.00     0.120 C 
ATOM      8  C   UNL     1      90.064  91.851  74.318  1.00  0.00     0.022 C 
ATOM      9  C   UNL     1      89.885  91.852  76.821  1.00  0.00     0.022 C 
ATOM     10  C   UNL     1      89.308  91.297  75.522  1.00  0.00     0.004 C 
ENDBRANCH   1   3
BRANCH   2  11
ATOM     11  C   UNL     1      94.010  96.284  78.142  1.00  0.00     0.001 C 
ATOM     12  C   UNL     1      95.281  96.034  78.495  1.00  0.00     0.008 C 
BRANCH  12  13
ATOM     13  C   UNL     1      95.926  96.519  79.727  1.00  0.00    -0.022 A 
ATOM     14  C   UNL     1      95.948  97.883  79.986  1.00  0.00     0.058 A 
ATOM     15  C   UNL     1      96.499  95.592  80.602  1.00  0.00     0.012 A 
ATOM     16  C   UNL     1      96.564  98.288  81.152  1.00  0.00     0.166 A 
ATOM     17  C   UNL     1      97.116  96.031  81.775  1.00  0.00     0.051 A 
ATOM     18  O   UNL     1      96.690  99.574  81.582  1.00  0.00    -0.454 OA
ATOM     19  C   UNL     1      97.132  97.388  82.023  1.00  0.00     0.165 A 
ATOM     20  C   UNL     1      97.401  99.380  82.822  1.00  0.00     0.468 C 
ATOM     21  O   UNL     1      97.685  97.995  83.108  1.00  0.00    -0.454 OA
ENDBRANCH  12  13
ENDBRANCH   2  11
TORSDOF 3
ENDMDL
MODEL 6
REMARK VINA RESULT:    -7.332     12.779     14.883
REMARK INTER + INTRA:          -8.906
REMARK INTER:                  -8.588
REMARK INTRA:                  -0.318
REMARK UNBOUND:                -0.289
REMARK SMILES O=C(/C=C/C=C/c1ccc2c(c1)OCO2)N1CCCCC1
REMARK SMILES IDX 3 1 4 2 2 3 1 4 16 5 17 6 21 7 18 8 20 9 19 10 5 11 6 12
REMARK SMILES IDX 7 13 12 14 8 15 11 16 9 17 13 18 10 19 14 20 15 21
REMARK H PARENT
REMARK Flexibility Score: inf
ROOT
ATOM      1  C   UNL     1      93.623  95.548  77.638  1.00  0.00     0.071 C 
ATOM      2  C   UNL     1      94.799  95.170  78.135  1.00  0.00     0.006 C 
ENDROOT
BRANCH   1   3
ATOM      3  C   UNL     1      93.189  94.959  76.355  1.00  0.00     0.246 C 
ATOM      4  O   UNL     1      94.018  94.900  75.447  1.00  0.00    -0.270 OA
ATOM      5  N   UNL     1      91.872  94.515  76.257  1.00  0.00    -0.339 N 
ATOM      6  C   UNL     1      91.410  93.930  74.995  1.00  0.00     0.120 C 
ATOM      7  C   UNL     1      90.842  94.610  77.303  1.00  0.00     0.120 C 
ATOM      8  C   UNL     1      90.775  92.561  75.214  1.00  0.00     0.022 C 
ATOM      9  C   UNL     1      90.178  93.255  77.550  1.00  0.00     0.022 C 
ATOM     10  C   UNL     1      89.662  92.636  76.254  1.00  0.00     0.004 C 
ENDBRANCH   1   3
BRANCH   2  11
ATOM     11  C   UNL     1      95.310  95.691  79.385  1.00  0.00     0.001 C 
ATOM     12  C   UNL     1      96.558  96.169  79.517  1.00  0.00     0.008 C 
BRANCH  12  13
ATOM     13  C   UNL     1      97.130  96.703  80.764  1.00  0.00    -0.022 A 
ATOM     14  C   UNL     1      97.836  95.851  81.603  1.00  0.00     0.058 A 
ATOM     15  C   UNL     1      96.947  98.054  81.070  1.00  0.00     0.012 A 
ATOM     16  C   UNL     1      98.353  96.397  82.759  1.00  0.00     0.166 A 
ATOM     17  C   UNL     1      97.482  98.581  82.247  1.00  0.00     0.051 A 
ATOM     18  O   UNL     1      99.070  95.731  83.706  1.00  0.00    -0.454 OA
ATOM     19  C   UNL     1      98.181  97.726  83.073  1.00  0.00     0.165 A 
ATOM     20  C   UNL     1      99.329  96.789  84.650  1.00  0.00     0.468 C 
ATOM     21  O   UNL     1      98.768  98.058  84.255  1.00  0.00    -0.454 OA
ENDBRANCH  12  13
ENDBRANCH   2  11
TORSDOF 3
ENDMDL
MODEL 7
REMARK VINA RESULT:    -7.208      6.513     11.127
REMARK INTER + INTRA:          -8.760
REMARK INTER:                  -8.380
REMARK INTRA:                  -0.380
REMARK UNBOUND:                -0.289
REMARK SMILES O=C(/C=C/C=C/c1ccc2c(c1)OCO2)N1CCCCC1
REMARK SMILES IDX 3 1 4 2 2 3 1 4 16 5 17 6 21 7 18 8 20 9 19 10 5 11 6 12
REMARK SMILES IDX 7 13 12 14 8 15 11 16 9 17 13 18 10 19 14 20 15 21
REMARK H PARENT
REMARK Flexibility Score: inf
ROOT
ATOM      1  C   UNL     1      93.393  85.360  86.592  1.00  0.00     0.071 C 
ATOM      2  C   UNL     1      93.365  85.640  87.894  1.00  0.00     0.006 C 
ENDROOT
BRANCH   1   3
ATOM      3  C   UNL     1      93.757  83.988  86.184  1.00  0.00     0.246 C 
ATOM      4  O   UNL     1      93.071  83.064  86.622  1.00  0.00    -0.270 OA
ATOM      5  N   UNL     1      94.853  83.831  85.338  1.00  0.00    -0.339 N 
ATOM      6  C   UNL     1      95.242  82.481  84.920  1.00  0.00     0.120 C 
ATOM      7  C   UNL     1      95.722  84.905  84.832  1.00  0.00     0.120 C 
ATOM      8  C   UNL     1      95.354  82.378  83.403  1.00  0.00     0.022 C 
ATOM      9  C   UNL     1      95.863  84.833  83.312  1.00  0.00     0.022 C 
ATOM     10  C   UNL     1      96.295  83.444  82.850  1.00  0.00     0.004 C 
ENDBRANCH   1   3
BRANCH   2  11
ATOM     11  C   UNL     1      93.021  86.955  88.390  1.00  0.00     0.001 C 
ATOM     12  C   UNL     1      93.874  87.991  88.355  1.00  0.00     0.008 C 
BRANCH  12  13
ATOM     13  C   UNL     1      93.579  89.345  88.853  1.00  0.00    -0.022 A 
ATOM     14  C   UNL     1      94.367  90.407  88.432  1.00  0.00     0.058 A 
ATOM     15  C   UNL     1      92.512  89.524  89.738  1.00  0.00     0.012 A 
ATOM     16  C   UNL     1      94.051  91.656  88.925  1.00  0.00     0.166 A 
ATOM     17  C   UNL     1      92.214  90.800  90.222  1.00  0.00     0.051 A 
ATOM     18  O   UNL     1      94.701  92.817  88.635  1.00  0.00    -0.454 OA
ATOM     19  C   UNL     1      93.004  91.848  89.797  1.00  0.00     0.165 A 
ATOM     20  C   UNL     1      93.945  93.760  89.421  1.00  0.00     0.468 C 
ATOM     21  O   UNL     1      92.866  93.152  90.161  1.00  0.00    -0.454 OA
ENDBRANCH  12  13
ENDBRANCH   2  11
TORSDOF 3
ENDMDL
MODEL 8
REMARK VINA RESULT:    -6.977      2.266      3.157
REMARK INTER + INTRA:          -8.489
REMARK INTER:                  -8.168
REMARK INTRA:                  -0.321
REMARK UNBOUND:                -0.289
REMARK SMILES O=C(/C=C/C=C/c1ccc2c(c1)OCO2)N1CCCCC1
REMARK SMILES IDX 3 1 4 2 2 3 1 4 16 5 17 6 21 7 18 8 20 9 19 10 5 11 6 12
REMARK SMILES IDX 7 13 12 14 8 15 11 16 9 17 13 18 10 19 14 20 15 21
REMARK H PARENT
REMARK Flexibility Score: inf
ROOT
ATOM      1  C   UNL     1      97.132  82.890  83.999  1.00  0.00     0.071 C 
ATOM      2  C   UNL     1      96.313  82.721  82.963  1.00  0.00     0.006 C 
ENDROOT
BRANCH   1   3
ATOM      3  C   UNL     1      96.691  82.402  85.321  1.00  0.00     0.246 C 
ATOM      4  O   UNL     1      95.688  81.687  85.358  1.00  0.00    -0.270 OA
ATOM      5  N   UNL     1      97.433  82.785  86.437  1.00  0.00    -0.339 N 
ATOM      6  C   UNL     1      97.016  82.320  87.763  1.00  0.00     0.120 C 
ATOM      7  C   UNL     1      98.606  83.672  86.437  1.00  0.00     0.120 C 
ATOM      8  C   UNL     1      98.166  81.648  88.505  1.00  0.00     0.022 C 
ATOM      9  C   UNL     1      99.782  83.034  87.177  1.00  0.00     0.022 C 
ATOM     10  C   UNL     1      99.383  82.565  88.573  1.00  0.00     0.004 C 
ENDBRANCH   1   3
BRANCH   2  11
ATOM     11  C   UNL     1      96.657  83.167  81.630  1.00  0.00     0.001 C 
ATOM     12  C   UNL     1      96.992  82.318  80.644  1.00  0.00     0.008 C 
BRANCH  12  13
ATOM     13  C   UNL     1      97.358  82.717  79.274  1.00  0.00    -0.022 A 
ATOM     14  C   UNL     1      96.510  83.559  78.567  1.00  0.00     0.058 A 
ATOM     15  C   UNL     1      98.549  82.237  78.724  1.00  0.00     0.012 A 
ATOM     16  C   UNL     1      96.896  83.905  77.288  1.00  0.00     0.166 A 
ATOM     17  C   UNL     1      98.915  82.603  77.427  1.00  0.00     0.051 A 
ATOM     18  O   UNL     1      96.206  84.714  76.437  1.00  0.00    -0.454 OA
ATOM     19  C   UNL     1      98.066  83.440  76.733  1.00  0.00     0.165 A 
ATOM     20  C   UNL     1      97.074  84.705  75.286  1.00  0.00     0.468 C 
ATOM     21  O   UNL     1      98.256  83.899  75.466  1.00  0.00    -0.454 OA
ENDBRANCH  12  13
ENDBRANCH   2  11
TORSDOF 3
ENDMDL
MODEL 9
REMARK VINA RESULT:    -6.841     17.749     18.689
REMARK INTER + INTRA:          -8.329
REMARK INTER:                  -7.993
REMARK INTRA:                  -0.336
REMARK UNBOUND:                -0.289
REMARK SMILES O=C(/C=C/C=C/c1ccc2c(c1)OCO2)N1CCCCC1
REMARK SMILES IDX 3 1 4 2 2 3 1 4 16 5 17 6 21 7 18 8 20 9 19 10 5 11 6 12
REMARK SMILES IDX 7 13 12 14 8 15 11 16 9 17 13 18 10 19 14 20 15 21
REMARK H PARENT
REMARK Flexibility Score: inf
ROOT
ATOM      1  C   UNL     1      86.425  69.794  71.926  1.00  0.00     0.071 C 
ATOM      2  C   UNL     1      87.565  70.080  71.300  1.00  0.00     0.006 C 
ENDROOT
BRANCH   1   3
ATOM      3  C   UNL     1      86.498  69.040  73.193  1.00  0.00     0.246 C 
ATOM      4  O   UNL     1      87.381  69.355  73.992  1.00  0.00    -0.270 OA
ATOM      5  N   UNL     1      85.569  68.022  73.398  1.00  0.00    -0.339 N 
ATOM      6  C   UNL     1      85.620  67.252  74.645  1.00  0.00     0.120 C 
ATOM      7  C   UNL     1      84.532  67.588  72.451  1.00  0.00     0.120 C 
ATOM      8  C   UNL     1      84.265  67.232  75.343  1.00  0.00     0.022 C 
ATOM      9  C   UNL     1      83.156  67.551  73.115  1.00  0.00     0.022 C 
ATOM     10  C   UNL     1      83.173  66.732  74.403  1.00  0.00     0.004 C 
ENDBRANCH   1   3
BRANCH   2  11
ATOM     11  C   UNL     1      87.595  70.814  70.053  1.00  0.00     0.001 C 
ATOM     12  C   UNL     1      88.652  71.546  69.666  1.00  0.00     0.008 C 
BRANCH  12  13
ATOM     13  C   UNL     1      88.733  72.317  68.414  1.00  0.00    -0.022 A 
ATOM     14  C   UNL     1      89.900  73.009  68.120  1.00  0.00     0.058 A 
ATOM     15  C   UNL     1      87.631  72.331  67.555  1.00  0.00     0.012 A 
ATOM     16  C   UNL     1      89.927  73.716  66.936  1.00  0.00     0.166 A 
ATOM     17  C   UNL     1      87.686  73.055  66.362  1.00  0.00     0.051 A 
ATOM     18  O   UNL     1      90.972  74.455  66.472  1.00  0.00    -0.454 OA
ATOM     19  C   UNL     1      88.850  73.739  66.080  1.00  0.00     0.165 A 
ATOM     20  C   UNL     1      90.431  74.945  65.228  1.00  0.00     0.468 C 
ATOM     21  O   UNL     1      89.085  74.495  64.973  1.00  0.00    -0.454 OA
ENDBRANCH  12  13
ENDBRANCH   2  11
TORSDOF 3
ENDMDL
MODEL 10
REMARK VINA RESULT:    -6.793      6.839     10.546
REMARK INTER + INTRA:          -8.272
REMARK INTER:                  -7.926
REMARK INTRA:                  -0.347
REMARK UNBOUND:                -0.289
REMARK SMILES O=C(/C=C/C=C/c1ccc2c(c1)OCO2)N1CCCCC1
REMARK SMILES IDX 3 1 4 2 2 3 1 4 16 5 17 6 21 7 18 8 20 9 19 10 5 11 6 12
REMARK SMILES IDX 7 13 12 14 8 15 11 16 9 17 13 18 10 19 14 20 15 21
REMARK H PARENT
REMARK Flexibility Score: inf
ROOT
ATOM      1  C   UNL     1      94.245  83.641  86.424  1.00  0.00     0.071 C 
ATOM      2  C   UNL     1      93.391  84.224  87.264  1.00  0.00     0.006 C 
ENDROOT
BRANCH   1   3
ATOM      3  C   UNL     1      94.243  82.167  86.343  1.00  0.00     0.246 C 
ATOM      4  O   UNL     1      94.922  81.551  87.166  1.00  0.00    -0.270 OA
ATOM      5  N   UNL     1      93.479  81.572  85.341  1.00  0.00    -0.339 N 
ATOM      6  C   UNL     1      93.461  80.111  85.232  1.00  0.00     0.120 C 
ATOM      7  C   UNL     1      92.693  82.275  84.315  1.00  0.00     0.120 C 
ATOM      8  C   UNL     1      92.035  79.570  85.219  1.00  0.00     0.022 C 
ATOM      9  C   UNL     1      91.256  81.757  84.268  1.00  0.00     0.022 C 
ATOM     10  C   UNL     1      91.207  80.238  84.127  1.00  0.00     0.004 C 
ENDBRANCH   1   3
BRANCH   2  11
ATOM     11  C   UNL     1      93.319  85.662  87.414  1.00  0.00     0.001 C 
ATOM     12  C   UNL     1      93.309  86.268  88.611  1.00  0.00     0.008 C 
BRANCH  12  13
ATOM     13  C   UNL     1      93.229  87.724  88.820  1.00  0.00    -0.022 A 
ATOM     14  C   UNL     1      92.400  88.219  89.818  1.00  0.00     0.058 A 
ATOM     15  C   UNL     1      93.991  88.568  88.008  1.00  0.00     0.012 A 
ATOM     16  C   UNL     1      92.359  89.589  89.976  1.00  0.00     0.166 A 
ATOM     17  C   UNL     1      93.930  89.951  88.189  1.00  0.00     0.051 A 
ATOM     18  O   UNL     1      91.612  90.265  90.891  1.00  0.00    -0.454 OA
ATOM     19  C   UNL     1      93.104  90.432  89.183  1.00  0.00     0.165 A 
ATOM     20  C   UNL     1      91.970  91.628  90.586  1.00  0.00     0.468 C 
ATOM     21  O   UNL     1      92.916  91.742  89.503  1.00  0.00    -0.454 OA
ENDBRANCH  12  13
ENDBRANCH   2  11
TORSDOF 3
ENDMDL
