MODEL 1
REMARK VINA RESULT:    -6.638      0.000      0.000
REMARK INTER + INTRA:         -13.557
REMARK INTER:                 -11.683
REMARK INTRA:                  -1.875
REMARK UNBOUND:                -1.875
REMARK SMILES C=C(C)[C@]12C[C@@H](C)[C@@]34O[C@](Cc5ccccc5)(O[C@@H]1[C@@H]3C=C(COC(=O)Cc1ccc(O)c(OC)c1)C[C@]1(O)C(=O)C(C)=C[C@@H]41)O2
REMARK SMILES IDX 23 1 22 2 21 3 20 4 9 5 8 6 10 7 6 8 18 9 46 10 19 11 5 12
REMARK SMILES IDX 7 13 4 14 45 15 38 16 44 17 40 18 42 20 41 21 43 22 39 23
REMARK SMILES IDX 11 25 12 26 13 27 17 28 14 29 16 30 15 31 2 32 3 33 1 34
REMARK SMILES IDX 37 35 24 37 25 38 26 39 27 40 28 41 36 42 29 43 33 44 30 45
REMARK SMILES IDX 31 46 34 47 35 48 32 49
REMARK H PARENT 39 24 32 50
REMARK Flexibility Score: 90.00
ROOT
ATOM      1  C   UNL     1      67.926  87.513  71.316  1.00  0.00     0.264 C 
ENDROOT
BRANCH   1   2
ATOM      2  C   UNL     1      67.447  86.144  70.892  1.00  0.00    -0.033 C 
ATOM      3  C   UNL     1      66.272  85.681  71.364  1.00  0.00    -0.015 C 
BRANCH   3   4
ATOM      4  C   UNL     1      65.614  84.327  71.155  1.00  0.00     0.078 C 
ATOM      5  O   UNL     1      64.136  84.541  69.184  1.00  0.00    -0.319 OA
ATOM      6  C   UNL     1      65.325  83.854  69.682  1.00  0.00     0.095 C 
ATOM      7  C   UNL     1      63.044  84.639  70.118  1.00  0.00     0.289 C 
ATOM      8  C   UNL     1      65.051  82.294  69.723  1.00  0.00     0.023 C 
ATOM      9  O   UNL     1      63.446  85.300  71.315  1.00  0.00    -0.320 OA
ATOM     10  O   UNL     1      62.566  83.360  70.527  1.00  0.00    -0.313 OA
ATOM     11  C   UNL     1      64.261  84.277  71.907  1.00  0.00     0.170 C 
ATOM     12  C   UNL     1      64.348  81.873  71.050  1.00  0.00     0.049 C 
ATOM     13  C   UNL     1      64.266  81.730  68.527  1.00  0.00     0.011 C 
ATOM     14  C   UNL     1      63.458  82.989  71.598  1.00  0.00     0.122 C 
BRANCH   6  15
ATOM     15  C   UNL     1      66.465  84.307  68.724  1.00  0.00     0.086 C 
ATOM     16  C   UNL     1      67.904  84.149  69.256  1.00  0.00     0.140 CG0
ATOM     17  C   UNL     1      66.538  83.726  67.339  1.00  0.00    -0.010 C 
ATOM     18  C   UNL     1      68.681  83.812  68.001  1.00  0.00     0.190 C 
ATOM     19  G   UNL     1      68.412  85.420  69.935  1.00  0.00     0.000 G0
ATOM     20  C   UNL     1      67.771  83.462  66.894  1.00  0.00    -0.008 C 
ATOM     21  O   UNL     1      69.899  83.778  67.909  1.00  0.00    -0.291 OA
ATOM     22  C   UNL     1      68.221  82.973  65.575  1.00  0.00     0.048 C 
BRANCH  16  23
ATOM     23  O   UNL     1      68.088  83.012  70.083  1.00  0.00    -0.381 OA
ATOM     24  H   UNL     1      67.225  82.753  70.445  1.00  0.00     0.212 HD
ENDBRANCH  16  23
ENDBRANCH   6  15
BRANCH   7  25
ATOM     25  C   UNL     1      61.921  85.412  69.458  1.00  0.00     0.135 C 
BRANCH  25  26
ATOM     26  C   UNL     1      60.682  85.456  70.318  1.00  0.00    -0.040 A 
ATOM     27  C   UNL     1      60.530  86.464  71.270  1.00  0.00     0.004 A 
ATOM     28  C   UNL     1      59.689  84.490  70.162  1.00  0.00     0.004 A 
ATOM     29  C   UNL     1      59.385  86.505  72.066  1.00  0.00     0.000 A 
ATOM     30  C   UNL     1      58.544  84.530  70.958  1.00  0.00     0.000 A 
ATOM     31  C   UNL     1      58.393  85.539  71.910  1.00  0.00     0.000 A 
ENDBRANCH  25  26
ENDBRANCH   7  25
BRANCH  14  32
ATOM     32  C   UNL     1      62.635  82.548  72.764  1.00  0.00    -0.046 C 
ATOM     33  C   UNL     1      61.555  83.489  73.208  1.00  0.00     0.042 C 
ATOM     34  C   UNL     1      62.850  81.376  73.381  1.00  0.00     0.010 C 
ENDBRANCH  14  32
ENDBRANCH   3   4
BRANCH   2  35
ATOM     35  C   UNL     1      68.401  85.448  69.940  1.00  0.00     0.078 CG0
ATOM     36  G   UNL     1      67.915  84.158  69.281  1.00  0.00     0.000 G0
ENDBRANCH   2  35
ENDBRANCH   1   2
BRANCH   1  37
ATOM     37  O   UNL     1      68.324  87.470  72.669  1.00  0.00    -0.461 OA
BRANCH  37  38
ATOM     38  C   UNL     1      68.292  88.665  73.350  1.00  0.00     0.310 C 
ATOM     39  O   UNL     1      69.239  89.431  73.469  1.00  0.00    -0.252 OA
BRANCH  38  40
ATOM     40  C   UNL     1      66.913  88.881  73.927  1.00  0.00     0.158 C 
BRANCH  40  41
ATOM     41  C   UNL     1      66.315  87.625  74.507  1.00  0.00    -0.033 A 
ATOM     42  C   UNL     1      67.108  86.758  75.260  1.00  0.00     0.054 A 
ATOM     43  C   UNL     1      64.969  87.329  74.292  1.00  0.00     0.008 A 
ATOM     44  C   UNL     1      66.555  85.595  75.796  1.00  0.00     0.160 A 
ATOM     45  C   UNL     1      64.416  86.167  74.829  1.00  0.00     0.050 A 
ATOM     46  C   UNL     1      65.208  85.300  75.581  1.00  0.00     0.157 A 
BRANCH  44  47
ATOM     47  O   UNL     1      67.339  84.756  76.529  1.00  0.00    -0.493 OA
ATOM     48  C   UNL     1      67.502  85.064  77.912  1.00  0.00     0.278 C 
ENDBRANCH  44  47
BRANCH  46  49
ATOM     49  O   UNL     1      64.657  84.168  76.101  1.00  0.00    -0.504 OA
ATOM     50  H   UNL     1      64.263  84.376  76.965  1.00  0.00     0.293 HD
ENDBRANCH  46  49
ENDBRANCH  40  41
ENDBRANCH  38  40
ENDBRANCH  37  38
ENDBRANCH   1  37
TORSDOF 11
ENDMDL
MODEL 2
REMARK VINA RESULT:    -6.514      4.843      9.747
REMARK INTER + INTRA:         -13.338
REMARK INTER:                 -12.311
REMARK INTRA:                  -1.028
REMARK UNBOUND:                -1.875
REMARK SMILES C=C(C)[C@]12C[C@@H](C)[C@@]34O[C@](Cc5ccccc5)(O[C@@H]1[C@@H]3C=C(COC(=O)Cc1ccc(O)c(OC)c1)C[C@]1(O)C(=O)C(C)=C[C@@H]41)O2
REMARK SMILES IDX 23 1 22 2 21 3 20 4 9 5 8 6 10 7 6 8 18 9 46 10 19 11 5 12
REMARK SMILES IDX 7 13 4 14 45 15 38 16 44 17 40 18 42 20 41 21 43 22 39 23
REMARK SMILES IDX 11 25 12 26 13 27 17 28 14 29 16 30 15 31 2 32 3 33 1 34
REMARK SMILES IDX 37 35 24 37 25 38 26 39 27 40 28 41 36 42 29 43 33 44 30 45
REMARK SMILES IDX 31 46 34 47 35 48 32 49
REMARK H PARENT 39 24 32 50
REMARK Flexibility Score: 90.00
ROOT
ATOM      1  C   UNL     1      69.208  84.656  71.451  1.00  0.00     0.264 C 
ENDROOT
BRANCH   1   2
ATOM      2  C   UNL     1      69.885  85.142  70.191  1.00  0.00    -0.033 C 
ATOM      3  C   UNL     1      70.664  86.242  70.243  1.00  0.00    -0.015 C 
BRANCH   3   4
ATOM      4  C   UNL     1      71.383  86.969  69.118  1.00  0.00     0.078 C 
ATOM      5  O   UNL     1      73.669  86.031  68.999  1.00  0.00    -0.319 OA
ATOM      6  C   UNL     1      72.422  86.165  68.250  1.00  0.00     0.095 C 
ATOM      7  C   UNL     1      74.101  87.216  69.695  1.00  0.00     0.289 C 
ATOM      8  C   UNL     1      72.691  86.998  66.930  1.00  0.00     0.023 C 
ATOM      9  O   UNL     1      73.105  87.672  70.607  1.00  0.00    -0.320 OA
ATOM     10  O   UNL     1      74.339  88.307  68.809  1.00  0.00    -0.313 OA
ATOM     11  C   UNL     1      72.138  88.197  69.683  1.00  0.00     0.170 C 
ATOM     12  C   UNL     1      72.605  88.533  67.195  1.00  0.00     0.049 C 
ATOM     13  C   UNL     1      74.008  86.678  66.204  1.00  0.00     0.011 C 
ATOM     14  C   UNL     1      73.031  88.885  68.621  1.00  0.00     0.122 C 
BRANCH   6  15
ATOM     15  C   UNL     1      71.942  84.701  68.031  1.00  0.00     0.086 C 
ATOM     16  C   UNL     1      70.448  84.519  67.689  1.00  0.00     0.140 CG0
ATOM     17  C   UNL     1      72.639  83.841  67.014  1.00  0.00    -0.010 C 
ATOM     18  C   UNL     1      70.470  83.330  66.752  1.00  0.00     0.190 C 
ATOM     19  G   UNL     1      69.598  84.267  68.934  1.00  0.00     0.000 G0
ATOM     20  C   UNL     1      71.843  83.040  66.298  1.00  0.00    -0.008 C 
ATOM     21  O   UNL     1      69.488  82.713  66.368  1.00  0.00    -0.291 OA
ATOM     22  C   UNL     1      72.183  82.018  65.287  1.00  0.00     0.048 C 
BRANCH  16  23
ATOM     23  O   UNL     1      69.909  85.565  66.898  1.00  0.00    -0.381 OA
ATOM     24  H   UNL     1      69.081  85.865  67.308  1.00  0.00     0.212 HD
ENDBRANCH  16  23
ENDBRANCH   6  15
BRANCH   7  25
ATOM     25  C   UNL     1      75.374  86.888  70.448  1.00  0.00     0.135 C 
BRANCH  25  26
ATOM     26  C   UNL     1      76.393  86.209  69.567  1.00  0.00    -0.040 A 
ATOM     27  C   UNL     1      76.628  84.840  69.702  1.00  0.00     0.004 A 
ATOM     28  C   UNL     1      77.098  86.947  68.618  1.00  0.00     0.004 A 
ATOM     29  C   UNL     1      77.571  84.211  68.888  1.00  0.00     0.000 A 
ATOM     30  C   UNL     1      78.040  86.319  67.804  1.00  0.00     0.000 A 
ATOM     31  C   UNL     1      78.276  84.950  67.939  1.00  0.00     0.000 A 
ENDBRANCH  25  26
ENDBRANCH   7  25
BRANCH  14  32
ATOM     32  C   UNL     1      73.132  90.359  68.843  1.00  0.00    -0.046 C 
ATOM     33  C   UNL     1      74.488  90.967  68.643  1.00  0.00     0.042 C 
ATOM     34  C   UNL     1      72.070  91.097  69.200  1.00  0.00     0.010 C 
ENDBRANCH  14  32
ENDBRANCH   3   4
BRANCH   2  35
ATOM     35  C   UNL     1      69.583  84.277  68.982  1.00  0.00     0.078 CG0
ATOM     36  G   UNL     1      70.435  84.500  67.733  1.00  0.00     0.000 G0
ENDBRANCH   2  35
ENDBRANCH   1   2
BRANCH   1  37
ATOM     37  O   UNL     1      68.054  83.921  71.107  1.00  0.00    -0.461 OA
BRANCH  37  38
ATOM     38  C   UNL     1      66.879  84.320  71.702  1.00  0.00     0.310 C 
ATOM     39  O   UNL     1      66.798  84.925  72.762  1.00  0.00    -0.252 OA
BRANCH  38  40
ATOM     40  C   UNL     1      65.710  83.895  70.844  1.00  0.00     0.158 C 
BRANCH  40  41
ATOM     41  C   UNL     1      64.605  83.246  71.637  1.00  0.00    -0.033 A 
ATOM     42  C   UNL     1      63.518  84.007  72.069  1.00  0.00     0.054 A 
ATOM     43  C   UNL     1      64.668  81.886  71.939  1.00  0.00     0.008 A 
ATOM     44  C   UNL     1      62.494  83.407  72.803  1.00  0.00     0.160 A 
ATOM     45  C   UNL     1      63.644  81.286  72.672  1.00  0.00     0.050 A 
ATOM     46  C   UNL     1      62.558  82.045  73.105  1.00  0.00     0.157 A 
BRANCH  44  47
ATOM     47  O   UNL     1      61.438  84.159  73.219  1.00  0.00    -0.493 OA
ATOM     48  C   UNL     1      60.359  84.327  72.301  1.00  0.00     0.278 C 
ENDBRANCH  44  47
BRANCH  46  49
ATOM     49  O   UNL     1      61.564  81.448  73.819  1.00  0.00    -0.504 OA
ATOM     50  H   UNL     1      60.782  82.025  73.817  1.00  0.00     0.293 HD
ENDBRANCH  46  49
ENDBRANCH  40  41
ENDBRANCH  38  40
ENDBRANCH  37  38
ENDBRANCH   1  37
TORSDOF 11
ENDMDL
MODEL 3
REMARK VINA RESULT:    -6.496      2.737      4.792
REMARK INTER + INTRA:         -13.308
REMARK INTER:                 -12.039
REMARK INTRA:                  -1.269
REMARK UNBOUND:                -1.875
REMARK SMILES C=C(C)[C@]12C[C@@H](C)[C@@]34O[C@](Cc5ccccc5)(O[C@@H]1[C@@H]3C=C(COC(=O)Cc1ccc(O)c(OC)c1)C[C@]1(O)C(=O)C(C)=C[C@@H]41)O2
REMARK SMILES IDX 23 1 22 2 21 3 20 4 9 5 8 6 10 7 6 8 18 9 46 10 19 11 5 12
REMARK SMILES IDX 7 13 4 14 45 15 38 16 44 17 40 18 42 20 41 21 43 22 39 23
REMARK SMILES IDX 11 25 12 26 13 27 17 28 14 29 16 30 15 31 2 32 3 33 1 34
REMARK SMILES IDX 37 35 24 37 25 38 26 39 27 40 28 41 36 42 29 43 33 44 30 45
REMARK SMILES IDX 31 46 34 47 35 48 32 49
REMARK H PARENT 39 24 32 50
REMARK Flexibility Score: 90.00
ROOT
ATOM      1  C   UNL     1      68.285  87.292  71.417  1.00  0.00     0.264 C 
ENDROOT
BRANCH   1   2
ATOM      2  C   UNL     1      67.768  85.944  70.971  1.00  0.00    -0.033 C 
ATOM      3  C   UNL     1      66.582  85.505  71.439  1.00  0.00    -0.015 C 
BRANCH   3   4
ATOM      4  C   UNL     1      65.887  84.174  71.208  1.00  0.00     0.078 C 
ATOM      5  O   UNL     1      64.388  84.471  69.263  1.00  0.00    -0.319 OA
ATOM      6  C   UNL     1      65.566  83.743  69.729  1.00  0.00     0.095 C 
ATOM      7  C   UNL     1      63.312  84.575  70.214  1.00  0.00     0.289 C 
ATOM      8  C   UNL     1      65.252  82.190  69.738  1.00  0.00     0.023 C 
ATOM      9  O   UNL     1      63.747  85.198  71.420  1.00  0.00    -0.320 OA
ATOM     10  O   UNL     1      62.806  83.300  70.601  1.00  0.00    -0.313 OA
ATOM     11  C   UNL     1      64.543  84.141  71.977  1.00  0.00     0.170 C 
ATOM     12  C   UNL     1      64.556  81.756  71.065  1.00  0.00     0.049 C 
ATOM     13  C   UNL     1      64.437  81.674  68.541  1.00  0.00     0.011 C 
ATOM     14  C   UNL     1      63.703  82.882  71.651  1.00  0.00     0.122 C 
BRANCH   6  15
ATOM     15  C   UNL     1      66.704  84.189  68.765  1.00  0.00     0.086 C 
ATOM     16  C   UNL     1      68.146  83.971  69.269  1.00  0.00     0.140 CG0
ATOM     17  C   UNL     1      66.738  83.646  67.364  1.00  0.00    -0.010 C 
ATOM     18  C   UNL     1      68.893  83.647  67.992  1.00  0.00     0.190 C 
ATOM     19  G   UNL     1      68.703  85.206  69.975  1.00  0.00     0.000 G0
ATOM     20  C   UNL     1      67.955  83.358  66.891  1.00  0.00    -0.008 C 
ATOM     21  O   UNL     1      70.107  83.579  67.880  1.00  0.00    -0.291 OA
ATOM     22  C   UNL     1      68.370  82.893  65.551  1.00  0.00     0.048 C 
BRANCH  16  23
ATOM     23  O   UNL     1      68.308  82.805  70.060  1.00  0.00    -0.381 OA
ATOM     24  H   UNL     1      68.987  82.982  70.732  1.00  0.00     0.212 HD
ENDBRANCH  16  23
ENDBRANCH   6  15
BRANCH   7  25
ATOM     25  C   UNL     1      62.200  85.392  69.588  1.00  0.00     0.135 C 
BRANCH  25  26
ATOM     26  C   UNL     1      60.958  85.405  70.443  1.00  0.00    -0.040 A 
ATOM     27  C   UNL     1      60.925  86.165  71.613  1.00  0.00     0.004 A 
ATOM     28  C   UNL     1      59.841  84.661  70.064  1.00  0.00     0.004 A 
ATOM     29  C   UNL     1      59.776  86.178  72.404  1.00  0.00     0.000 A 
ATOM     30  C   UNL     1      58.692  84.674  70.855  1.00  0.00     0.000 A 
ATOM     31  C   UNL     1      58.660  85.433  72.025  1.00  0.00     0.000 A 
ENDBRANCH  25  26
ENDBRANCH   7  25
BRANCH  14  32
ATOM     32  C   UNL     1      62.885  82.434  72.818  1.00  0.00    -0.046 C 
ATOM     33  C   UNL     1      63.586  81.575  73.828  1.00  0.00     0.042 C 
ATOM     34  C   UNL     1      61.596  82.781  72.956  1.00  0.00     0.010 C 
ENDBRANCH  14  32
ENDBRANCH   3   4
BRANCH   2  35
ATOM     35  C   UNL     1      68.700  85.240  70.004  1.00  0.00     0.078 CG0
ATOM     36  G   UNL     1      68.158  84.006  69.283  1.00  0.00     0.000 G0
ENDBRANCH   2  35
ENDBRANCH   1   2
BRANCH   1  37
ATOM     37  O   UNL     1      69.684  87.339  71.234  1.00  0.00    -0.461 OA
BRANCH  37  38
ATOM     38  C   UNL     1      70.291  88.546  71.492  1.00  0.00     0.310 C 
ATOM     39  O   UNL     1      70.209  89.162  72.546  1.00  0.00    -0.252 OA
BRANCH  38  40
ATOM     40  C   UNL     1      71.071  88.990  70.277  1.00  0.00     0.158 C 
BRANCH  40  41
ATOM     41  C   UNL     1      72.450  88.385  70.210  1.00  0.00    -0.033 A 
ATOM     42  C   UNL     1      72.797  87.556  69.143  1.00  0.00     0.054 A 
ATOM     43  C   UNL     1      73.379  88.654  71.215  1.00  0.00     0.008 A 
ATOM     44  C   UNL     1      74.073  86.996  69.081  1.00  0.00     0.160 A 
ATOM     45  C   UNL     1      74.655  88.094  71.153  1.00  0.00     0.050 A 
ATOM     46  C   UNL     1      75.002  87.265  70.087  1.00  0.00     0.157 A 
BRANCH  44  47
ATOM     47  O   UNL     1      74.400  86.188  68.034  1.00  0.00    -0.493 OA
ATOM     48  C   UNL     1      74.506  86.801  66.750  1.00  0.00     0.278 C 
ENDBRANCH  44  47
BRANCH  46  49
ATOM     49  O   UNL     1      76.251  86.725  70.037  1.00  0.00    -0.504 OA
ATOM     50  H   UNL     1      76.177  85.768  69.878  1.00  0.00     0.293 HD
ENDBRANCH  46  49
ENDBRANCH  40  41
ENDBRANCH  38  40
ENDBRANCH  37  38
ENDBRANCH   1  37
TORSDOF 11
ENDMDL
MODEL 4
REMARK VINA RESULT:    -6.458      6.087     10.875
REMARK INTER + INTRA:         -13.241
REMARK INTER:                 -11.034
REMARK INTRA:                  -2.206
REMARK UNBOUND:                -1.875
REMARK SMILES C=C(C)[C@]12C[C@@H](C)[C@@]34O[C@](Cc5ccccc5)(O[C@@H]1[C@@H]3C=C(COC(=O)Cc1ccc(O)c(OC)c1)C[C@]1(O)C(=O)C(C)=C[C@@H]41)O2
REMARK SMILES IDX 23 1 22 2 21 3 20 4 9 5 8 6 10 7 6 8 18 9 46 10 19 11 5 12
REMARK SMILES IDX 7 13 4 14 45 15 38 16 44 17 40 18 42 20 41 21 43 22 39 23
REMARK SMILES IDX 11 25 12 26 13 27 17 28 14 29 16 30 15 31 2 32 3 33 1 34
REMARK SMILES IDX 37 35 24 37 25 38 26 39 27 40 28 41 36 42 29 43 33 44 30 45
REMARK SMILES IDX 31 46 34 47 35 48 32 49
REMARK H PARENT 39 24 32 50
REMARK Flexibility Score: 90.00
ROOT
ATOM      1  C   UNL     1      70.489  83.277  67.557  1.00  0.00     0.264 C 
ENDROOT
BRANCH   1   2
ATOM      2  C   UNL     1      71.646  83.786  66.729  1.00  0.00    -0.033 C 
ATOM      3  C   UNL     1      71.918  85.107  66.718  1.00  0.00    -0.015 C 
BRANCH   3   4
ATOM      4  C   UNL     1      72.962  85.870  65.919  1.00  0.00     0.078 C 
ATOM      5  O   UNL     1      74.994  85.997  67.325  1.00  0.00    -0.319 OA
ATOM      6  C   UNL     1      74.473  85.454  66.072  1.00  0.00     0.095 C 
ATOM      7  C   UNL     1      74.603  87.351  67.620  1.00  0.00     0.289 C 
ATOM      8  C   UNL     1      75.270  86.086  64.857  1.00  0.00     0.023 C 
ATOM      9  O   UNL     1      73.184  87.483  67.658  1.00  0.00    -0.320 OA
ATOM     10  O   UNL     1      75.049  88.271  66.628  1.00  0.00    -0.313 OA
ATOM     11  C   UNL     1      72.884  87.379  66.258  1.00  0.00     0.170 C 
ATOM     12  C   UNL     1      74.662  87.456  64.426  1.00  0.00     0.049 C 
ATOM     13  C   UNL     1      76.784  86.243  65.071  1.00  0.00     0.011 C 
ATOM     14  C   UNL     1      74.031  88.193  65.608  1.00  0.00     0.122 C 
BRANCH   6  15
ATOM     15  C   UNL     1      74.608  83.912  66.231  1.00  0.00     0.086 C 
ATOM     16  C   UNL     1      73.715  83.053  65.311  1.00  0.00     0.140 CG0
ATOM     17  C   UNL     1      75.962  83.274  66.098  1.00  0.00    -0.010 C 
ATOM     18  C   UNL     1      74.590  81.847  65.041  1.00  0.00     0.190 C 
ATOM     19  G   UNL     1      72.392  82.679  65.977  1.00  0.00     0.000 G0
ATOM     20  C   UNL     1      75.982  82.099  65.459  1.00  0.00    -0.008 C 
ATOM     21  O   UNL     1      74.224  80.813  64.503  1.00  0.00    -0.291 OA
ATOM     22  C   UNL     1      77.100  81.164  65.220  1.00  0.00     0.048 C 
BRANCH  16  23
ATOM     23  O   UNL     1      73.507  83.615  64.026  1.00  0.00    -0.381 OA
ATOM     24  H   UNL     1      73.309  82.895  63.404  1.00  0.00     0.212 HD
ENDBRANCH  16  23
ENDBRANCH   6  15
BRANCH   7  25
ATOM     25  C   UNL     1      75.189  87.733  68.964  1.00  0.00     0.135 C 
BRANCH  25  26
ATOM     26  C   UNL     1      75.861  86.564  69.641  1.00  0.00    -0.040 A 
ATOM     27  C   UNL     1      75.130  85.740  70.497  1.00  0.00     0.004 A 
ATOM     28  C   UNL     1      77.211  86.306  69.409  1.00  0.00     0.004 A 
ATOM     29  C   UNL     1      75.751  84.659  71.123  1.00  0.00     0.000 A 
ATOM     30  C   UNL     1      77.833  85.225  70.035  1.00  0.00     0.000 A 
ATOM     31  C   UNL     1      77.102  84.401  70.892  1.00  0.00     0.000 A 
ENDBRANCH  25  26
ENDBRANCH   7  25
BRANCH  14  32
ATOM     32  C   UNL     1      73.606  89.582  65.259  1.00  0.00    -0.046 C 
ATOM     33  C   UNL     1      72.288  89.714  64.557  1.00  0.00     0.042 C 
ATOM     34  C   UNL     1      74.361  90.650  65.557  1.00  0.00     0.010 C 
ENDBRANCH  14  32
ENDBRANCH   3   4
BRANCH   2  35
ATOM     35  C   UNL     1      72.382  82.682  65.994  1.00  0.00     0.078 CG0
ATOM     36  G   UNL     1      73.701  83.053  65.316  1.00  0.00     0.000 G0
ENDBRANCH   2  35
ENDBRANCH   1   2
BRANCH   1  37
ATOM     37  O   UNL     1      69.770  84.374  68.078  1.00  0.00    -0.461 OA
BRANCH  37  38
ATOM     38  C   UNL     1      69.407  84.290  69.402  1.00  0.00     0.310 C 
ATOM     39  O   UNL     1      68.317  83.912  69.810  1.00  0.00    -0.252 OA
BRANCH  38  40
ATOM     40  C   UNL     1      70.560  84.737  70.270  1.00  0.00     0.158 C 
BRANCH  40  41
ATOM     41  C   UNL     1      70.449  86.177  70.700  1.00  0.00    -0.033 A 
ATOM     42  C   UNL     1      71.544  87.032  70.566  1.00  0.00     0.054 A 
ATOM     43  C   UNL     1      69.252  86.657  71.231  1.00  0.00     0.008 A 
ATOM     44  C   UNL     1      71.441  88.365  70.964  1.00  0.00     0.160 A 
ATOM     45  C   UNL     1      69.149  87.990  71.629  1.00  0.00     0.050 A 
ATOM     46  C   UNL     1      70.243  88.844  71.496  1.00  0.00     0.157 A 
BRANCH  44  47
ATOM     47  O   UNL     1      72.517  89.189  70.829  1.00  0.00    -0.493 OA
ATOM     48  C   UNL     1      73.505  89.139  71.857  1.00  0.00     0.278 C 
ENDBRANCH  44  47
BRANCH  46  49
ATOM     49  O   UNL     1      70.131  90.143  71.886  1.00  0.00    -0.504 OA
ATOM     50  H   UNL     1      71.005  90.565  71.838  1.00  0.00     0.293 HD
ENDBRANCH  46  49
ENDBRANCH  40  41
ENDBRANCH  38  40
ENDBRANCH  37  38
ENDBRANCH   1  37
TORSDOF 11
ENDMDL
MODEL 5
REMARK VINA RESULT:    -6.279     28.456     32.610
REMARK INTER + INTRA:         -12.926
REMARK INTER:                 -11.811
REMARK INTRA:                  -1.115
REMARK UNBOUND:                -1.875
REMARK SMILES C=C(C)[C@]12C[C@@H](C)[C@@]34O[C@](Cc5ccccc5)(O[C@@H]1[C@@H]3C=C(COC(=O)Cc1ccc(O)c(OC)c1)C[C@]1(O)C(=O)C(C)=C[C@@H]41)O2
REMARK SMILES IDX 23 1 22 2 21 3 20 4 9 5 8 6 10 7 6 8 18 9 46 10 19 11 5 12
REMARK SMILES IDX 7 13 4 14 45 15 38 16 44 17 40 18 42 20 41 21 43 22 39 23
REMARK SMILES IDX 11 25 12 26 13 27 17 28 14 29 16 30 15 31 2 32 3 33 1 34
REMARK SMILES IDX 37 35 24 37 25 38 26 39 27 40 28 41 36 42 29 43 33 44 30 45
REMARK SMILES IDX 31 46 34 47 35 48 32 49
REMARK H PARENT 39 24 32 50
REMARK Flexibility Score: 90.00
ROOT
ATOM      1  C   UNL     1      94.335  96.871  75.617  1.00  0.00     0.264 C 
ENDROOT
BRANCH   1   2
ATOM      2  C   UNL     1      94.443  98.339  75.278  1.00  0.00    -0.033 C 
ATOM      3  C   UNL     1      94.139  98.752  74.031  1.00  0.00    -0.015 C 
BRANCH   3   4
ATOM      4  C   UNL     1      94.239 100.143  73.425  1.00  0.00     0.078 C 
ATOM      5  O   UNL     1      92.041 101.230  73.752  1.00  0.00    -0.319 OA
ATOM      6  C   UNL     1      93.454 101.319  74.116  1.00  0.00     0.095 C 
ATOM      7  C   UNL     1      91.779 100.926  72.369  1.00  0.00     0.289 C 
ATOM      8  C   UNL     1      94.050 102.681  73.569  1.00  0.00     0.023 C 
ATOM      9  O   UNL     1      92.394  99.699  71.984  1.00  0.00    -0.320 OA
ATOM     10  O   UNL     1      92.306 101.914  71.488  1.00  0.00    -0.313 OA
ATOM     11  C   UNL     1      93.770 100.107  71.949  1.00  0.00     0.170 C 
ATOM     12  C   UNL     1      94.521 102.545  72.088  1.00  0.00     0.049 C 
ATOM     13  C   UNL     1      93.131 103.906  73.703  1.00  0.00     0.011 C 
ATOM     14  C   UNL     1      93.684 101.521  71.321  1.00  0.00     0.122 C 
BRANCH   6  15
ATOM     15  C   UNL     1      93.467 101.157  75.664  1.00  0.00     0.086 C 
ATOM     16  C   UNL     1      94.809 100.723  76.290  1.00  0.00     0.140 CG0
ATOM     17  C   UNL     1      93.033 102.307  76.529  1.00  0.00    -0.010 C 
ATOM     18  C   UNL     1      94.800 101.453  77.617  1.00  0.00     0.190 C 
ATOM     19  G   UNL     1      94.905  99.208  76.457  1.00  0.00     0.000 G0
ATOM     20  C   UNL     1      93.744 102.483  77.647  1.00  0.00    -0.008 C 
ATOM     21  O   UNL     1      95.585 101.265  78.534  1.00  0.00    -0.291 OA
ATOM     22  C   UNL     1      93.555 103.443  78.754  1.00  0.00     0.048 C 
BRANCH  16  23
ATOM     23  O   UNL     1      95.947 101.244  75.626  1.00  0.00    -0.381 OA
ATOM     24  H   UNL     1      95.650 101.905  74.978  1.00  0.00     0.212 HD
ENDBRANCH  16  23
ENDBRANCH   6  15
BRANCH   7  25
ATOM     25  C   UNL     1      90.279 100.828  72.180  1.00  0.00     0.135 C 
BRANCH  25  26
ATOM     26  C   UNL     1      89.914  99.997  70.975  1.00  0.00    -0.040 A 
ATOM     27  C   UNL     1      89.916 100.574  69.705  1.00  0.00     0.004 A 
ATOM     28  C   UNL     1      89.576  98.653  71.130  1.00  0.00     0.004 A 
ATOM     29  C   UNL     1      89.579  99.805  68.590  1.00  0.00     0.000 A 
ATOM     30  C   UNL     1      89.239  97.885  70.015  1.00  0.00     0.000 A 
ATOM     31  C   UNL     1      89.240  98.462  68.745  1.00  0.00     0.000 A 
ENDBRANCH  25  26
ENDBRANCH   7  25
BRANCH  14  32
ATOM     32  C   UNL     1      93.994 101.505  69.859  1.00  0.00    -0.046 C 
ATOM     33  C   UNL     1      95.170 100.673  69.441  1.00  0.00     0.042 C 
ATOM     34  C   UNL     1      93.263 102.195  68.971  1.00  0.00     0.010 C 
ENDBRANCH  14  32
ENDBRANCH   3   4
BRANCH   2  35
ATOM     35  C   UNL     1      94.893  99.188  76.452  1.00  0.00     0.078 CG0
ATOM     36  G   UNL     1      94.786 100.705  76.299  1.00  0.00     0.000 G0
ENDBRANCH   2  35
ENDBRANCH   1   2
BRANCH   1  37
ATOM     37  O   UNL     1      93.896  96.730  76.951  1.00  0.00    -0.461 OA
BRANCH  37  38
ATOM     38  C   UNL     1      93.320  95.524  77.277  1.00  0.00     0.310 C 
ATOM     39  O   UNL     1      93.211  94.569  76.520  1.00  0.00    -0.252 OA
BRANCH  38  40
ATOM     40  C   UNL     1      92.847  95.563  78.711  1.00  0.00     0.158 C 
BRANCH  40  41
ATOM     41  C   UNL     1      93.963  95.366  79.705  1.00  0.00    -0.033 A 
ATOM     42  C   UNL     1      94.520  96.469  80.354  1.00  0.00     0.054 A 
ATOM     43  C   UNL     1      94.438  94.084  79.976  1.00  0.00     0.008 A 
ATOM     44  C   UNL     1      95.554  96.287  81.273  1.00  0.00     0.160 A 
ATOM     45  C   UNL     1      95.471  93.902  80.895  1.00  0.00     0.050 A 
ATOM     46  C   UNL     1      96.029  95.003  81.544  1.00  0.00     0.157 A 
BRANCH  44  47
ATOM     47  O   UNL     1      96.090  97.370  81.900  1.00  0.00    -0.493 OA
ATOM     48  C   UNL     1      95.229  98.114  82.761  1.00  0.00     0.278 C 
ENDBRANCH  44  47
BRANCH  46  49
ATOM     49  O   UNL     1      97.036  94.813  82.440  1.00  0.00    -0.504 OA
ATOM     50  H   UNL     1      97.059  95.566  83.055  1.00  0.00     0.293 HD
ENDBRANCH  46  49
ENDBRANCH  40  41
ENDBRANCH  38  40
ENDBRANCH  37  38
ENDBRANCH   1  37
TORSDOF 11
ENDMDL
MODEL 6
REMARK VINA RESULT:    -5.957     33.445     36.309
REMARK INTER + INTRA:         -12.358
REMARK INTER:                 -11.083
REMARK INTRA:                  -1.276
REMARK UNBOUND:                -1.875
REMARK SMILES C=C(C)[C@]12C[C@@H](C)[C@@]34O[C@](Cc5ccccc5)(O[C@@H]1[C@@H]3C=C(COC(=O)Cc1ccc(O)c(OC)c1)C[C@]1(O)C(=O)C(C)=C[C@@H]41)O2
REMARK SMILES IDX 23 1 22 2 21 3 20 4 9 5 8 6 10 7 6 8 18 9 46 10 19 11 5 12
REMARK SMILES IDX 7 13 4 14 45 15 38 16 44 17 40 18 42 20 41 21 43 22 39 23
REMARK SMILES IDX 11 25 12 26 13 27 17 28 14 29 16 30 15 31 2 32 3 33 1 34
REMARK SMILES IDX 37 35 24 37 25 38 26 39 27 40 28 41 36 42 29 43 33 44 30 45
REMARK SMILES IDX 31 46 34 47 35 48 32 49
REMARK H PARENT 39 24 32 50
REMARK Flexibility Score: 90.00
ROOT
ATOM      1  C   UNL     1     101.945  80.868  81.910  1.00  0.00     0.264 C 
ENDROOT
BRANCH   1   2
ATOM      2  C   UNL     1     101.151  80.597  80.654  1.00  0.00    -0.033 C 
ATOM      3  C   UNL     1     100.977  81.588  79.757  1.00  0.00    -0.015 C 
BRANCH   3   4
ATOM      4  C   UNL     1     100.166  81.594  78.471  1.00  0.00     0.078 C 
ATOM      5  O   UNL     1     101.704  80.941  76.647  1.00  0.00    -0.319 OA
ATOM      6  C   UNL     1     100.504  80.523  77.368  1.00  0.00     0.095 C 
ATOM      7  C   UNL     1     101.766  82.341  76.312  1.00  0.00     0.289 C 
ATOM      8  C   UNL     1      99.281  80.469  76.362  1.00  0.00     0.023 C 
ATOM      9  O   UNL     1     101.665  83.156  77.476  1.00  0.00    -0.320 OA
ATOM     10  O   UNL     1     100.692  82.743  75.466  1.00  0.00    -0.313 OA
ATOM     11  C   UNL     1     100.275  82.980  77.788  1.00  0.00     0.170 C 
ATOM     12  C   UNL     1      98.607  81.867  76.206  1.00  0.00     0.049 C 
ATOM     13  C   UNL     1      99.596  79.896  74.970  1.00  0.00     0.011 C 
ATOM     14  C   UNL     1      99.613  83.004  76.387  1.00  0.00     0.122 C 
BRANCH   6  15
ATOM     15  C   UNL     1     100.895  79.165  78.019  1.00  0.00     0.086 C 
ATOM     16  C   UNL     1     100.026  78.705  79.208  1.00  0.00     0.140 CG0
ATOM     17  C   UNL     1     100.989  77.936  77.159  1.00  0.00    -0.010 C 
ATOM     18  C   UNL     1     100.019  77.200  79.044  1.00  0.00     0.190 C 
ATOM     19  G   UNL     1     100.606  79.145  80.551  1.00  0.00     0.000 G0
ATOM     20  C   UNL     1     100.530  76.811  77.716  1.00  0.00    -0.008 C 
ATOM     21  O   UNL     1      99.602  76.400  79.867  1.00  0.00    -0.291 OA
ATOM     22  C   UNL     1     100.539  75.424  77.206  1.00  0.00     0.048 C 
BRANCH  16  23
ATOM     23  O   UNL     1      98.659  79.065  79.092  1.00  0.00    -0.381 OA
ATOM     24  H   UNL     1      98.165  78.630  79.807  1.00  0.00     0.212 HD
ENDBRANCH  16  23
ENDBRANCH   6  15
BRANCH   7  25
ATOM     25  C   UNL     1     103.085  82.605  75.614  1.00  0.00     0.135 C 
BRANCH  25  26
ATOM     26  C   UNL     1     102.948  82.566  74.113  1.00  0.00    -0.040 A 
ATOM     27  C   UNL     1     102.841  81.340  73.454  1.00  0.00     0.004 A 
ATOM     28  C   UNL     1     102.927  83.753  73.382  1.00  0.00     0.004 A 
ATOM     29  C   UNL     1     102.714  81.303  72.065  1.00  0.00     0.000 A 
ATOM     30  C   UNL     1     102.801  83.717  71.993  1.00  0.00     0.000 A 
ATOM     31  C   UNL     1     102.694  82.491  71.335  1.00  0.00     0.000 A 
ENDBRANCH  25  26
ENDBRANCH   7  25
BRANCH  14  32
ATOM     32  C   UNL     1      99.032  84.342  76.064  1.00  0.00    -0.046 C 
ATOM     33  C   UNL     1      99.908  85.273  75.280  1.00  0.00     0.042 C 
ATOM     34  C   UNL     1      97.796  84.691  76.453  1.00  0.00     0.010 C 
ENDBRANCH  14  32
ENDBRANCH   3   4
BRANCH   2  35
ATOM     35  C   UNL     1     100.640  79.171  80.570  1.00  0.00     0.078 CG0
ATOM     36  G   UNL     1     100.056  78.716  79.233  1.00  0.00     0.000 G0
ENDBRANCH   2  35
ENDBRANCH   1   2
BRANCH   1  37
ATOM     37  O   UNL     1     101.220  81.748  82.741  1.00  0.00    -0.461 OA
BRANCH  37  38
ATOM     38  C   UNL     1     100.562  81.176  83.805  1.00  0.00     0.310 C 
ATOM     39  O   UNL     1     101.070  80.913  84.886  1.00  0.00    -0.252 OA
BRANCH  38  40
ATOM     40  C   UNL     1      99.120  80.926  83.431  1.00  0.00     0.158 C 
BRANCH  40  41
ATOM     41  C   UNL     1      98.173  81.934  84.030  1.00  0.00    -0.033 A 
ATOM     42  C   UNL     1      97.548  81.665  85.249  1.00  0.00     0.054 A 
ATOM     43  C   UNL     1      97.922  83.135  83.367  1.00  0.00     0.008 A 
ATOM     44  C   UNL     1      96.672  82.598  85.803  1.00  0.00     0.160 A 
ATOM     45  C   UNL     1      97.045  84.068  83.922  1.00  0.00     0.050 A 
ATOM     46  C   UNL     1      96.420  83.800  85.139  1.00  0.00     0.157 A 
BRANCH  44  47
ATOM     47  O   UNL     1      96.067  82.324  86.993  1.00  0.00    -0.493 OA
ATOM     48  C   UNL     1      94.910  81.491  86.955  1.00  0.00     0.278 C 
ENDBRANCH  44  47
BRANCH  46  49
ATOM     49  O   UNL     1      95.567  84.718  85.672  1.00  0.00    -0.504 OA
ATOM     50  H   UNL     1      96.084  85.392  86.146  1.00  0.00     0.293 HD
ENDBRANCH  46  49
ENDBRANCH  40  41
ENDBRANCH  38  40
ENDBRANCH  37  38
ENDBRANCH   1  37
TORSDOF 11
ENDMDL
MODEL 7
REMARK VINA RESULT:    -5.927      6.197     10.959
REMARK INTER + INTRA:         -12.306
REMARK INTER:                 -11.678
REMARK INTRA:                  -0.628
REMARK UNBOUND:                -1.875
REMARK SMILES C=C(C)[C@]12C[C@@H](C)[C@@]34O[C@](Cc5ccccc5)(O[C@@H]1[C@@H]3C=C(COC(=O)Cc1ccc(O)c(OC)c1)C[C@]1(O)C(=O)C(C)=C[C@@H]41)O2
REMARK SMILES IDX 23 1 22 2 21 3 20 4 9 5 8 6 10 7 6 8 18 9 46 10 19 11 5 12
REMARK SMILES IDX 7 13 4 14 45 15 38 16 44 17 40 18 42 20 41 21 43 22 39 23
REMARK SMILES IDX 11 25 12 26 13 27 17 28 14 29 16 30 15 31 2 32 3 33 1 34
REMARK SMILES IDX 37 35 24 37 25 38 26 39 27 40 28 41 36 42 29 43 33 44 30 45
REMARK SMILES IDX 31 46 34 47 35 48 32 49
REMARK H PARENT 39 24 32 50
REMARK Flexibility Score: 90.00
ROOT
ATOM      1  C   UNL     1      71.019  83.720  67.819  1.00  0.00     0.264 C 
ENDROOT
BRANCH   1   2
ATOM      2  C   UNL     1      72.012  84.132  66.757  1.00  0.00    -0.033 C 
ATOM      3  C   UNL     1      72.450  85.406  66.723  1.00  0.00    -0.015 C 
BRANCH   3   4
ATOM      4  C   UNL     1      73.375  86.082  65.724  1.00  0.00     0.078 C 
ATOM      5  O   UNL     1      75.672  85.884  66.621  1.00  0.00    -0.319 OA
ATOM      6  C   UNL     1      74.814  85.480  65.510  1.00  0.00     0.095 C 
ATOM      7  C   UNL     1      75.538  87.257  67.036  1.00  0.00     0.289 C 
ATOM      8  C   UNL     1      75.389  86.079  64.160  1.00  0.00     0.023 C 
ATOM      9  O   UNL     1      74.195  87.556  67.407  1.00  0.00    -0.320 OA
ATOM     10  O   UNL     1      75.863  88.171  65.992  1.00  0.00    -0.313 OA
ATOM     11  C   UNL     1      73.573  87.568  66.112  1.00  0.00     0.170 C 
ATOM     12  C   UNL     1      74.883  87.534  63.920  1.00  0.00     0.049 C 
ATOM     13  C   UNL     1      76.919  86.040  64.020  1.00  0.00     0.011 C 
ATOM     14  C   UNL     1      74.639  88.273  65.236  1.00  0.00     0.122 C 
BRANCH   6  15
ATOM     15  C   UNL     1      74.780  83.926  65.591  1.00  0.00     0.086 C 
ATOM     16  C   UNL     1      73.594  83.235  64.886  1.00  0.00     0.140 CG0
ATOM     17  C   UNL     1      75.971  83.138  65.125  1.00  0.00    -0.010 C 
ATOM     18  C   UNL     1      74.218  81.949  64.385  1.00  0.00     0.190 C 
ATOM     19  G   UNL     1      72.423  82.986  65.836  1.00  0.00     0.000 G0
ATOM     20  C   UNL     1      75.689  82.008  64.469  1.00  0.00    -0.008 C 
ATOM     21  O   UNL     1      73.606  80.999  63.921  1.00  0.00    -0.291 OA
ATOM     22  C   UNL     1      76.591  80.960  63.948  1.00  0.00     0.048 C 
BRANCH  16  23
ATOM     23  O   UNL     1      73.170  83.889  63.702  1.00  0.00    -0.381 OA
ATOM     24  H   UNL     1      73.811  83.696  62.997  1.00  0.00     0.212 HD
ENDBRANCH  16  23
ENDBRANCH   6  15
BRANCH   7  25
ATOM     25  C   UNL     1      76.459  87.489  68.217  1.00  0.00     0.135 C 
BRANCH  25  26
ATOM     26  C   UNL     1      76.388  86.364  69.219  1.00  0.00    -0.040 A 
ATOM     27  C   UNL     1      75.176  86.058  69.840  1.00  0.00     0.004 A 
ATOM     28  C   UNL     1      77.532  85.628  69.524  1.00  0.00     0.004 A 
ATOM     29  C   UNL     1      75.110  85.018  70.766  1.00  0.00     0.000 A 
ATOM     30  C   UNL     1      77.466  84.587  70.451  1.00  0.00     0.000 A 
ATOM     31  C   UNL     1      76.255  84.283  71.072  1.00  0.00     0.000 A 
ENDBRANCH  25  26
ENDBRANCH   7  25
BRANCH  14  32
ATOM     32  C   UNL     1      74.330  89.721  65.033  1.00  0.00    -0.046 C 
ATOM     33  C   UNL     1      74.898  90.668  66.048  1.00  0.00     0.042 C 
ATOM     34  C   UNL     1      73.587  90.150  64.002  1.00  0.00     0.010 C 
ENDBRANCH  14  32
ENDBRANCH   3   4
BRANCH   2  35
ATOM     35  C   UNL     1      72.403  82.993  65.835  1.00  0.00     0.078 CG0
ATOM     36  G   UNL     1      73.572  83.236  64.881  1.00  0.00     0.000 G0
ENDBRANCH   2  35
ENDBRANCH   1   2
BRANCH   1  37
ATOM     37  O   UNL     1      69.719  84.085  67.409  1.00  0.00    -0.461 OA
BRANCH  37  38
ATOM     38  C   UNL     1      68.679  83.476  68.072  1.00  0.00     0.310 C 
ATOM     39  O   UNL     1      67.578  83.245  67.590  1.00  0.00    -0.252 OA
BRANCH  38  40
ATOM     40  C   UNL     1      69.106  83.139  69.481  1.00  0.00     0.158 C 
BRANCH  40  41
ATOM     41  C   UNL     1      68.170  83.688  70.526  1.00  0.00    -0.033 A 
ATOM     42  C   UNL     1      66.905  83.123  70.696  1.00  0.00     0.054 A 
ATOM     43  C   UNL     1      68.567  84.760  71.325  1.00  0.00     0.008 A 
ATOM     44  C   UNL     1      66.039  83.631  71.664  1.00  0.00     0.160 A 
ATOM     45  C   UNL     1      67.701  85.268  72.293  1.00  0.00     0.050 A 
ATOM     46  C   UNL     1      66.437  84.704  72.462  1.00  0.00     0.157 A 
BRANCH  44  47
ATOM     47  O   UNL     1      64.807  83.071  71.820  1.00  0.00    -0.493 OA
ATOM     48  C   UNL     1      64.398  82.119  70.839  1.00  0.00     0.278 C 
ENDBRANCH  44  47
BRANCH  46  49
ATOM     49  O   UNL     1      65.600  85.208  73.411  1.00  0.00    -0.504 OA
ATOM     50  H   UNL     1      65.589  84.607  74.175  1.00  0.00     0.293 HD
ENDBRANCH  46  49
ENDBRANCH  40  41
ENDBRANCH  38  40
ENDBRANCH  37  38
ENDBRANCH   1  37
TORSDOF 11
ENDMDL
MODEL 8
REMARK VINA RESULT:    -5.836      3.127      6.471
REMARK INTER + INTRA:         -12.146
REMARK INTER:                  -9.844
REMARK INTRA:                  -2.302
REMARK UNBOUND:                -1.875
REMARK SMILES C=C(C)[C@]12C[C@@H](C)[C@@]34O[C@](Cc5ccccc5)(O[C@@H]1[C@@H]3C=C(COC(=O)Cc1ccc(O)c(OC)c1)C[C@]1(O)C(=O)C(C)=C[C@@H]41)O2
REMARK SMILES IDX 23 1 22 2 21 3 20 4 9 5 8 6 10 7 6 8 18 9 46 10 19 11 5 12
REMARK SMILES IDX 7 13 4 14 45 15 38 16 44 17 40 18 42 20 41 21 43 22 39 23
REMARK SMILES IDX 11 25 12 26 13 27 17 28 14 29 16 30 15 31 2 32 3 33 1 34
REMARK SMILES IDX 37 35 24 37 25 38 26 39 27 40 28 41 36 42 29 43 33 44 30 45
REMARK SMILES IDX 31 46 34 47 35 48 32 49
REMARK H PARENT 39 24 32 50
REMARK Flexibility Score: 90.00
ROOT
ATOM      1  C   UNL     1      63.707  90.330  71.813  1.00  0.00     0.264 C 
ENDROOT
BRANCH   1   2
ATOM      2  C   UNL     1      62.770  89.320  71.193  1.00  0.00    -0.033 C 
ATOM      3  C   UNL     1      62.998  88.005  71.385  1.00  0.00    -0.015 C 
BRANCH   3   4
ATOM      4  C   UNL     1      62.261  86.804  70.815  1.00  0.00     0.078 C 
ATOM      5  O   UNL     1      60.506  86.194  72.448  1.00  0.00    -0.319 OA
ATOM      6  C   UNL     1      60.715  86.677  71.085  1.00  0.00     0.095 C 
ATOM      7  C   UNL     1      61.384  85.132  72.867  1.00  0.00     0.289 C 
ATOM      8  C   UNL     1      60.134  85.618  70.059  1.00  0.00     0.023 C 
ATOM      9  O   UNL     1      62.751  85.518  72.759  1.00  0.00    -0.320 OA
ATOM     10  O   UNL     1      61.248  83.967  72.057  1.00  0.00    -0.313 OA
ATOM     11  C   UNL     1      62.908  85.496  71.332  1.00  0.00     0.170 C 
ATOM     12  C   UNL     1      61.175  84.502  69.740  1.00  0.00     0.049 C 
ATOM     13  C   UNL     1      58.799  84.972  70.463  1.00  0.00     0.011 C 
ATOM     14  C   UNL     1      62.102  84.236  70.927  1.00  0.00     0.122 C 
BRANCH   6  15
ATOM     15  C   UNL     1      60.034  88.076  71.060  1.00  0.00     0.086 C 
ATOM     16  C   UNL     1      60.483  89.031  69.935  1.00  0.00     0.140 CG0
ATOM     17  C   UNL     1      58.534  88.164  71.015  1.00  0.00    -0.010 C 
ATOM     18  C   UNL     1      59.210  89.789  69.623  1.00  0.00     0.190 C 
ATOM     19  G   UNL     1      61.619  89.953  70.379  1.00  0.00     0.000 G0
ATOM     20  C   UNL     1      58.041  89.134  70.238  1.00  0.00    -0.008 C 
ATOM     21  O   UNL     1      59.133  90.782  68.915  1.00  0.00    -0.291 OA
ATOM     22  C   UNL     1      56.643  89.561  70.021  1.00  0.00     0.048 C 
BRANCH  16  23
ATOM     23  O   UNL     1      60.795  88.376  68.717  1.00  0.00    -0.381 OA
ATOM     24  H   UNL     1      61.761  88.292  68.652  1.00  0.00     0.212 HD
ENDBRANCH  16  23
ENDBRANCH   6  15
BRANCH   7  25
ATOM     25  C   UNL     1      61.061  84.788  74.307  1.00  0.00     0.135 C 
BRANCH  25  26
ATOM     26  C   UNL     1      62.305  84.517  75.116  1.00  0.00    -0.040 A 
ATOM     27  C   UNL     1      62.946  83.282  75.016  1.00  0.00     0.004 A 
ATOM     28  C   UNL     1      62.815  85.501  75.962  1.00  0.00     0.004 A 
ATOM     29  C   UNL     1      64.097  83.031  75.764  1.00  0.00     0.000 A 
ATOM     30  C   UNL     1      63.966  85.250  76.710  1.00  0.00     0.000 A 
ATOM     31  C   UNL     1      64.606  84.015  76.611  1.00  0.00     0.000 A 
ENDBRANCH  25  26
ENDBRANCH   7  25
BRANCH  14  32
ATOM     32  C   UNL     1      62.985  83.050  70.712  1.00  0.00    -0.046 C 
ATOM     33  C   UNL     1      64.069  82.839  71.726  1.00  0.00     0.042 C 
ATOM     34  C   UNL     1      62.819  82.221  69.670  1.00  0.00     0.010 C 
ENDBRANCH  14  32
ENDBRANCH   3   4
BRANCH   2  35
ATOM     35  C   UNL     1      61.641  89.959  70.407  1.00  0.00     0.078 CG0
ATOM     36  G   UNL     1      60.498  89.049  69.961  1.00  0.00     0.000 G0
ENDBRANCH   2  35
ENDBRANCH   1   2
BRANCH   1  37
ATOM     37  O   UNL     1      64.116  89.870  73.083  1.00  0.00    -0.461 OA
BRANCH  37  38
ATOM     38  C   UNL     1      65.466  89.921  73.343  1.00  0.00     0.310 C 
ATOM     39  O   UNL     1      66.219  90.811  72.973  1.00  0.00    -0.252 OA
BRANCH  38  40
ATOM     40  C   UNL     1      65.870  88.711  74.152  1.00  0.00     0.158 C 
BRANCH  40  41
ATOM     41  C   UNL     1      66.493  87.625  73.314  1.00  0.00    -0.033 A 
ATOM     42  C   UNL     1      67.586  87.916  72.496  1.00  0.00     0.054 A 
ATOM     43  C   UNL     1      65.979  86.329  73.356  1.00  0.00     0.008 A 
ATOM     44  C   UNL     1      68.163  86.910  71.720  1.00  0.00     0.160 A 
ATOM     45  C   UNL     1      66.556  85.324  72.580  1.00  0.00     0.050 A 
ATOM     46  C   UNL     1      67.647  85.614  71.762  1.00  0.00     0.157 A 
BRANCH  44  47
ATOM     47  O   UNL     1      69.229  87.206  70.925  1.00  0.00    -0.493 OA
ATOM     48  C   UNL     1      70.391  87.728  71.566  1.00  0.00     0.278 C 
ENDBRANCH  44  47
BRANCH  46  49
ATOM     49  O   UNL     1      68.203  84.624  71.010  1.00  0.00    -0.504 OA
ATOM     50  H   UNL     1      68.297  84.937  70.094  1.00  0.00     0.293 HD
ENDBRANCH  46  49
ENDBRANCH  40  41
ENDBRANCH  38  40
ENDBRANCH  37  38
ENDBRANCH   1  37
TORSDOF 11
ENDMDL
MODEL 9
REMARK VINA RESULT:    -5.526      4.481      7.059
REMARK INTER + INTRA:         -11.599
REMARK INTER:                  -9.988
REMARK INTRA:                  -1.612
REMARK UNBOUND:                -1.875
REMARK SMILES C=C(C)[C@]12C[C@@H](C)[C@@]34O[C@](Cc5ccccc5)(O[C@@H]1[C@@H]3C=C(COC(=O)Cc1ccc(O)c(OC)c1)C[C@]1(O)C(=O)C(C)=C[C@@H]41)O2
REMARK SMILES IDX 23 1 22 2 21 3 20 4 9 5 8 6 10 7 6 8 18 9 46 10 19 11 5 12
REMARK SMILES IDX 7 13 4 14 45 15 38 16 44 17 40 18 42 20 41 21 43 22 39 23
REMARK SMILES IDX 11 25 12 26 13 27 17 28 14 29 16 30 15 31 2 32 3 33 1 34
REMARK SMILES IDX 37 35 24 37 25 38 26 39 27 40 28 41 36 42 29 43 33 44 30 45
REMARK SMILES IDX 31 46 34 47 35 48 32 49
REMARK H PARENT 39 24 32 50
REMARK Flexibility Score: 90.00
ROOT
ATOM      1  C   UNL     1      71.536  89.311  69.315  1.00  0.00     0.264 C 
ENDROOT
BRANCH   1   2
ATOM      2  C   UNL     1      70.999  87.935  69.633  1.00  0.00    -0.033 C 
ATOM      3  C   UNL     1      69.907  87.817  70.415  1.00  0.00    -0.015 C 
BRANCH   3   4
ATOM      4  C   UNL     1      69.226  86.563  70.938  1.00  0.00     0.078 C 
ATOM      5  O   UNL     1      67.466  85.965  69.306  1.00  0.00    -0.319 OA
ATOM      6  C   UNL     1      68.717  85.497  69.896  1.00  0.00     0.095 C 
ATOM      7  C   UNL     1      66.528  86.550  70.230  1.00  0.00     0.289 C 
ATOM      8  C   UNL     1      68.452  84.147  70.682  1.00  0.00     0.023 C 
ATOM      9  O   UNL     1      67.106  87.651  70.926  1.00  0.00    -0.320 OA
ATOM     10  O   UNL     1      66.117  85.630  71.238  1.00  0.00    -0.313 OA
ATOM     11  C   UNL     1      68.002  86.951  71.804  1.00  0.00     0.170 C 
ATOM     12  C   UNL     1      67.958  84.420  72.136  1.00  0.00     0.049 C 
ATOM     13  C   UNL     1      67.496  83.160  69.994  1.00  0.00     0.011 C 
ATOM     14  C   UNL     1      67.161  85.721  72.229  1.00  0.00     0.122 C 
BRANCH   6  15
ATOM     15  C   UNL     1      69.698  85.390  68.693  1.00  0.00     0.086 C 
ATOM     16  C   UNL     1      71.202  85.386  69.040  1.00  0.00     0.140 CG0
ATOM     17  C   UNL     1      69.559  84.244  67.730  1.00  0.00    -0.010 C 
ATOM     18  C   UNL     1      71.778  84.467  67.984  1.00  0.00     0.190 C 
ATOM     19  G   UNL     1      71.808  86.788  68.991  1.00  0.00     0.000 G0
ATOM     20  C   UNL     1      70.710  83.722  67.292  1.00  0.00    -0.008 C 
ATOM     21  O   UNL     1      72.968  84.310  67.755  1.00  0.00    -0.291 OA
ATOM     22  C   UNL     1      70.953  82.661  66.293  1.00  0.00     0.048 C 
BRANCH  16  23
ATOM     23  O   UNL     1      71.508  84.733  70.261  1.00  0.00    -0.381 OA
ATOM     24  H   UNL     1      71.162  85.271  70.992  1.00  0.00     0.212 HD
ENDBRANCH  16  23
ENDBRANCH   6  15
BRANCH   7  25
ATOM     25  C   UNL     1      65.318  87.017  69.447  1.00  0.00     0.135 C 
BRANCH  25  26
ATOM     26  C   UNL     1      65.094  86.191  68.205  1.00  0.00    -0.040 A 
ATOM     27  C   UNL     1      65.404  86.719  66.952  1.00  0.00     0.004 A 
ATOM     28  C   UNL     1      64.578  84.900  68.309  1.00  0.00     0.004 A 
ATOM     29  C   UNL     1      65.198  85.955  65.802  1.00  0.00     0.000 A 
ATOM     30  C   UNL     1      64.371  84.136  67.160  1.00  0.00     0.000 A 
ATOM     31  C   UNL     1      64.681  84.664  65.907  1.00  0.00     0.000 A 
ENDBRANCH  25  26
ENDBRANCH   7  25
BRANCH  14  32
ATOM     32  C   UNL     1      66.525  85.912  73.567  1.00  0.00    -0.046 C 
ATOM     33  C   UNL     1      67.433  86.356  74.675  1.00  0.00     0.042 C 
ATOM     34  C   UNL     1      65.216  85.697  73.767  1.00  0.00     0.010 C 
ENDBRANCH  14  32
ENDBRANCH   3   4
BRANCH   2  35
ATOM     35  C   UNL     1      71.802  86.820  68.989  1.00  0.00     0.078 CG0
ATOM     36  G   UNL     1      71.214  85.411  69.048  1.00  0.00     0.000 G0
ENDBRANCH   2  35
ENDBRANCH   1   2
BRANCH   1  37
ATOM     37  O   UNL     1      72.653  89.577  70.135  1.00  0.00    -0.461 OA
BRANCH  37  38
ATOM     38  C   UNL     1      73.863  89.704  69.492  1.00  0.00     0.310 C 
ATOM     39  O   UNL     1      74.011  90.107  68.346  1.00  0.00    -0.252 OA
BRANCH  38  40
ATOM     40  C   UNL     1      74.974  89.270  70.418  1.00  0.00     0.158 C 
BRANCH  40  41
ATOM     41  C   UNL     1      75.468  87.875  70.131  1.00  0.00    -0.033 A 
ATOM     42  C   UNL     1      76.473  87.673  69.184  1.00  0.00     0.054 A 
ATOM     43  C   UNL     1      74.922  86.788  70.811  1.00  0.00     0.008 A 
ATOM     44  C   UNL     1      76.930  86.382  68.918  1.00  0.00     0.160 A 
ATOM     45  C   UNL     1      75.379  85.497  70.545  1.00  0.00     0.050 A 
ATOM     46  C   UNL     1      76.382  85.294  69.599  1.00  0.00     0.157 A 
BRANCH  44  47
ATOM     47  O   UNL     1      77.911  86.196  67.991  1.00  0.00    -0.493 OA
ATOM     48  C   UNL     1      77.911  87.070  66.863  1.00  0.00     0.278 C 
ENDBRANCH  44  47
BRANCH  46  49
ATOM     49  O   UNL     1      76.821  84.029  69.348  1.00  0.00    -0.504 OA
ATOM     50  H   UNL     1      76.175  83.394  69.700  1.00  0.00     0.293 HD
ENDBRANCH  46  49
ENDBRANCH  40  41
ENDBRANCH  38  40
ENDBRANCH  37  38
ENDBRANCH   1  37
TORSDOF 11
ENDMDL
MODEL 10
REMARK VINA RESULT:    -5.490      2.490      5.768
REMARK INTER + INTRA:         -11.537
REMARK INTER:                  -9.559
REMARK INTRA:                  -1.978
REMARK UNBOUND:                -1.875
REMARK SMILES C=C(C)[C@]12C[C@@H](C)[C@@]34O[C@](Cc5ccccc5)(O[C@@H]1[C@@H]3C=C(COC(=O)Cc1ccc(O)c(OC)c1)C[C@]1(O)C(=O)C(C)=C[C@@H]41)O2
REMARK SMILES IDX 23 1 22 2 21 3 20 4 9 5 8 6 10 7 6 8 18 9 46 10 19 11 5 12
REMARK SMILES IDX 7 13 4 14 45 15 38 16 44 17 40 18 42 20 41 21 43 22 39 23
REMARK SMILES IDX 11 25 12 26 13 27 17 28 14 29 16 30 15 31 2 32 3 33 1 34
REMARK SMILES IDX 37 35 24 37 25 38 26 39 27 40 28 41 36 42 29 43 33 44 30 45
REMARK SMILES IDX 31 46 34 47 35 48 32 49
REMARK H PARENT 39 24 32 50
REMARK Flexibility Score: 90.00
ROOT
ATOM      1  C   UNL     1      65.695  89.015  72.172  1.00  0.00     0.264 C 
ENDROOT
BRANCH   1   2
ATOM      2  C   UNL     1      64.702  88.058  71.554  1.00  0.00    -0.033 C 
ATOM      3  C   UNL     1      64.517  86.846  72.115  1.00  0.00    -0.015 C 
BRANCH   3   4
ATOM      4  C   UNL     1      63.647  85.690  71.650  1.00  0.00     0.078 C 
ATOM      5  O   UNL     1      61.446  85.956  72.748  1.00  0.00    -0.319 OA
ATOM      6  C   UNL     1      62.107  85.947  71.445  1.00  0.00     0.095 C 
ATOM      7  C   UNL     1      61.873  84.930  73.664  1.00  0.00     0.289 C 
ATOM      8  C   UNL     1      61.533  84.753  70.576  1.00  0.00     0.023 C 
ATOM      9  O   UNL     1      63.277  84.998  73.899  1.00  0.00    -0.320 OA
ATOM     10  O   UNL     1      61.631  83.619  73.158  1.00  0.00    -0.313 OA
ATOM     11  C   UNL     1      63.768  84.508  72.642  1.00  0.00     0.170 C 
ATOM     12  C   UNL     1      62.279  83.417  70.877  1.00  0.00     0.049 C 
ATOM     13  C   UNL     1      60.016  84.527  70.685  1.00  0.00     0.011 C 
ATOM     14  C   UNL     1      62.778  83.360  72.322  1.00  0.00     0.122 C 
BRANCH   6  15
ATOM     15  C   UNL     1      61.856  87.372  70.872  1.00  0.00     0.086 C 
ATOM     16  C   UNL     1      62.821  87.837  69.761  1.00  0.00     0.140 CG0
ATOM     17  C   UNL     1      60.500  87.718  70.325  1.00  0.00    -0.010 C 
ATOM     18  C   UNL     1      61.923  88.685  68.885  1.00  0.00     0.190 C 
ATOM     19  G   UNL     1      64.006  88.624  70.319  1.00  0.00     0.000 G0
ATOM     20  C   UNL     1      60.503  88.477  69.225  1.00  0.00    -0.008 C 
ATOM     21  O   UNL     1      62.301  89.411  67.978  1.00  0.00    -0.291 OA
ATOM     22  C   UNL     1      59.377  89.069  68.473  1.00  0.00     0.048 C 
BRANCH  16  23
ATOM     23  O   UNL     1      63.249  86.796  68.900  1.00  0.00    -0.381 OA
ATOM     24  H   UNL     1      62.481  86.244  68.680  1.00  0.00     0.212 HD
ENDBRANCH  16  23
ENDBRANCH   6  15
BRANCH   7  25
ATOM     25  C   UNL     1      61.125  85.115  74.968  1.00  0.00     0.135 C 
BRANCH  25  26
ATOM     26  C   UNL     1      62.014  85.665  76.056  1.00  0.00    -0.040 A 
ATOM     27  C   UNL     1      62.542  84.809  77.024  1.00  0.00     0.004 A 
ATOM     28  C   UNL     1      62.309  87.027  76.094  1.00  0.00     0.004 A 
ATOM     29  C   UNL     1      63.364  85.318  78.030  1.00  0.00     0.000 A 
ATOM     30  C   UNL     1      63.131  87.535  77.101  1.00  0.00     0.000 A 
ATOM     31  C   UNL     1      63.658  86.680  78.068  1.00  0.00     0.000 A 
ENDBRANCH  25  26
ENDBRANCH   7  25
BRANCH  14  32
ATOM     32  C   UNL     1      63.333  82.022  72.686  1.00  0.00    -0.046 C 
ATOM     33  C   UNL     1      64.362  81.456  71.753  1.00  0.00     0.042 C 
ATOM     34  C   UNL     1      62.933  81.363  73.784  1.00  0.00     0.010 C 
ENDBRANCH  14  32
ENDBRANCH   3   4
BRANCH   2  35
ATOM     35  C   UNL     1      64.011  88.627  70.329  1.00  0.00     0.078 CG0
ATOM     36  G   UNL     1      62.823  87.845  69.771  1.00  0.00     0.000 G0
ENDBRANCH   2  35
ENDBRANCH   1   2
BRANCH   1  37
ATOM     37  O   UNL     1      66.432  88.342  73.170  1.00  0.00    -0.461 OA
BRANCH  37  38
ATOM     38  C   UNL     1      67.759  88.109  72.894  1.00  0.00     0.310 C 
ATOM     39  O   UNL     1      68.582  88.973  72.621  1.00  0.00    -0.252 OA
BRANCH  38  40
ATOM     40  C   UNL     1      68.040  86.627  72.979  1.00  0.00     0.158 C 
BRANCH  40  41
ATOM     41  C   UNL     1      68.223  85.985  71.628  1.00  0.00    -0.033 A 
ATOM     42  C   UNL     1      67.412  84.915  71.249  1.00  0.00     0.054 A 
ATOM     43  C   UNL     1      69.203  86.461  70.757  1.00  0.00     0.008 A 
ATOM     44  C   UNL     1      67.582  84.320  69.998  1.00  0.00     0.160 A 
ATOM     45  C   UNL     1      69.373  85.866  69.506  1.00  0.00     0.050 A 
ATOM     46  C   UNL     1      68.563  84.796  69.127  1.00  0.00     0.157 A 
BRANCH  44  47
ATOM     47  O   UNL     1      66.785  83.276  69.639  1.00  0.00    -0.493 OA
ATOM     48  C   UNL     1      65.553  83.593  68.994  1.00  0.00     0.278 C 
ENDBRANCH  44  47
BRANCH  46  49
ATOM     49  O   UNL     1      68.737  84.225  67.903  1.00  0.00    -0.504 OA
ATOM     50  H   UNL     1      67.937  84.367  67.371  1.00  0.00     0.293 HD
ENDBRANCH  46  49
ENDBRANCH  40  41
ENDBRANCH  38  40
ENDBRANCH  37  38
ENDBRANCH   1  37
TORSDOF 11
ENDMDL
