MODEL 1
REMARK VINA RESULT:    -6.494      0.000      0.000
REMARK INTER + INTRA:         -12.249
REMARK INTER:                 -10.859
REMARK INTRA:                  -1.390
REMARK UNBOUND:                -1.390
REMARK SMILES COc1cc(CNC(=O)CCCCCCCC(C)C)ccc1O
REMARK SMILES IDX 11 1 10 2 8 3 9 4 7 5 6 7 5 8 4 9 20 10 3 11 21 12 22 13
REMARK SMILES IDX 2 14 1 15 23 16 12 18 13 19 14 20 15 21 16 22 17 23 18 24
REMARK SMILES IDX 19 25
REMARK H PARENT 7 6 23 17
REMARK Flexibility Score: inf
ROOT
ATOM      1  C   UNL     1      89.765  93.722  76.439  1.00  0.00     0.010 C 
ENDROOT
BRANCH   1   2
ATOM      2  C   UNL     1      90.822  94.823  76.375  1.00  0.00     0.100 C 
BRANCH   2   3
ATOM      3  C   UNL     1      92.191  94.290  75.987  1.00  0.00     0.220 C 
ATOM      4  O   UNL     1      92.430  93.780  74.896  1.00  0.00    -0.275 OA
ATOM      5  N   UNL     1      93.109  94.447  77.014  1.00  0.00    -0.352 N 
ATOM      6  H   UNL     1      92.816  94.872  77.889  1.00  0.00     0.163 HD
BRANCH   5   7
ATOM      7  C   UNL     1      94.484  94.016  76.908  1.00  0.00     0.151 C 
BRANCH   7   8
ATOM      8  C   UNL     1      95.357  94.664  77.943  1.00  0.00    -0.025 A 
ATOM      9  C   UNL     1      95.075  94.482  79.292  1.00  0.00     0.056 A 
ATOM     10  C   UNL     1      96.438  95.439  77.543  1.00  0.00     0.009 A 
ATOM     11  C   UNL     1      95.886  95.084  80.254  1.00  0.00     0.160 A 
ATOM     12  C   UNL     1      97.249  96.042  78.505  1.00  0.00     0.050 A 
ATOM     13  C   UNL     1      96.973  95.865  79.861  1.00  0.00     0.157 A 
BRANCH  11  14
ATOM     14  O   UNL     1      95.606  94.904  81.575  1.00  0.00    -0.493 OA
ATOM     15  C   UNL     1      95.833  93.602  82.114  1.00  0.00     0.278 C 
ENDBRANCH  11  14
BRANCH  13  16
ATOM     16  O   UNL     1      97.772  96.457  80.791  1.00  0.00    -0.504 OA
ATOM     17  H   UNL     1      98.164  97.260  80.406  1.00  0.00     0.293 HD
ENDBRANCH  13  16
ENDBRANCH   7   8
ENDBRANCH   5   7
ENDBRANCH   2   3
ENDBRANCH   1   2
BRANCH   1  18
ATOM     18  C   UNL     1      90.144  92.566  77.368  1.00  0.00     0.001 C 
BRANCH  18  19
ATOM     19  C   UNL     1      89.924  91.159  76.802  1.00  0.00     0.000 C 
BRANCH  19  20
ATOM     20  C   UNL     1      91.030  90.713  75.843  1.00  0.00     0.000 C 
BRANCH  20  21
ATOM     21  C   UNL     1      90.502  90.214  74.493  1.00  0.00     0.000 C 
BRANCH  21  22
ATOM     22  C   UNL     1      89.551  91.203  73.811  1.00  0.00     0.003 C 
BRANCH  22  23
ATOM     23  C   UNL     1      90.241  92.092  72.758  1.00  0.00    -0.017 C 
ATOM     24  C   UNL     1      89.529  93.444  72.676  1.00  0.00     0.007 C 
ATOM     25  C   UNL     1      90.272  91.443  71.373  1.00  0.00     0.007 C 
ENDBRANCH  22  23
ENDBRANCH  21  22
ENDBRANCH  20  21
ENDBRANCH  19  20
ENDBRANCH  18  19
ENDBRANCH   1  18
TORSDOF 12
ENDMDL
MODEL 2
REMARK VINA RESULT:    -5.927      1.462      2.352
REMARK INTER + INTRA:         -11.302
REMARK INTER:                 -10.001
REMARK INTRA:                  -1.301
REMARK UNBOUND:                -1.390
REMARK SMILES COc1cc(CNC(=O)CCCCCCCC(C)C)ccc1O
REMARK SMILES IDX 11 1 10 2 8 3 9 4 7 5 6 7 5 8 4 9 20 10 3 11 21 12 22 13
REMARK SMILES IDX 2 14 1 15 23 16 12 18 13 19 14 20 15 21 16 22 17 23 18 24
REMARK SMILES IDX 19 25
REMARK H PARENT 7 6 23 17
REMARK Flexibility Score: inf
ROOT
ATOM      1  C   UNL     1      90.930  94.368  76.157  1.00  0.00     0.010 C 
ENDROOT
BRANCH   1   2
ATOM      2  C   UNL     1      92.002  93.710  77.023  1.00  0.00     0.100 C 
BRANCH   2   3
ATOM      3  C   UNL     1      93.406  94.145  76.637  1.00  0.00     0.220 C 
ATOM      4  O   UNL     1      93.642  94.910  75.706  1.00  0.00    -0.275 OA
ATOM      5  N   UNL     1      94.363  93.566  77.458  1.00  0.00    -0.352 N 
ATOM      6  H   UNL     1      94.072  92.934  78.199  1.00  0.00     0.163 HD
BRANCH   5   7
ATOM      7  C   UNL     1      95.778  93.807  77.301  1.00  0.00     0.151 C 
BRANCH   7   8
ATOM      8  C   UNL     1      96.231  95.015  78.069  1.00  0.00    -0.025 A 
ATOM      9  C   UNL     1      96.026  95.073  79.442  1.00  0.00     0.056 A 
ATOM     10  C   UNL     1      96.850  96.063  77.398  1.00  0.00     0.009 A 
ATOM     11  C   UNL     1      96.446  96.196  80.155  1.00  0.00     0.160 A 
ATOM     12  C   UNL     1      97.269  97.186  78.112  1.00  0.00     0.050 A 
ATOM     13  C   UNL     1      97.067  97.253  79.490  1.00  0.00     0.157 A 
BRANCH  11  14
ATOM     14  O   UNL     1      96.242  96.250  81.501  1.00  0.00    -0.493 OA
ATOM     15  C   UNL     1      95.436  95.222  82.076  1.00  0.00     0.278 C 
ENDBRANCH  11  14
BRANCH  13  16
ATOM     16  O   UNL     1      97.482  98.354  80.176  1.00  0.00    -0.504 OA
ATOM     17  H   UNL     1      98.270  98.124  80.698  1.00  0.00     0.293 HD
ENDBRANCH  13  16
ENDBRANCH   7   8
ENDBRANCH   5   7
ENDBRANCH   2   3
ENDBRANCH   1   2
BRANCH   1  18
ATOM     18  C   UNL     1      90.092  93.368  75.357  1.00  0.00     0.001 C 
BRANCH  18  19
ATOM     19  C   UNL     1      90.560  93.107  73.921  1.00  0.00     0.000 C 
BRANCH  19  20
ATOM     20  C   UNL     1      91.801  92.214  73.842  1.00  0.00     0.000 C 
BRANCH  20  21
ATOM     21  C   UNL     1      91.639  90.879  74.578  1.00  0.00     0.000 C 
BRANCH  21  22
ATOM     22  C   UNL     1      90.507  90.011  74.018  1.00  0.00     0.003 C 
BRANCH  22  23
ATOM     23  C   UNL     1      89.569  89.450  75.104  1.00  0.00    -0.017 C 
ATOM     24  C   UNL     1      90.146  89.748  76.490  1.00  0.00     0.007 C 
ATOM     25  C   UNL     1      89.335  87.946  74.957  1.00  0.00     0.007 C 
ENDBRANCH  22  23
ENDBRANCH  21  22
ENDBRANCH  20  21
ENDBRANCH  19  20
ENDBRANCH  18  19
ENDBRANCH   1  18
TORSDOF 12
ENDMDL
MODEL 3
REMARK VINA RESULT:    -5.779      6.311      8.234
REMARK INTER + INTRA:         -11.053
REMARK INTER:                 -10.012
REMARK INTRA:                  -1.041
REMARK UNBOUND:                -1.390
REMARK SMILES COc1cc(CNC(=O)CCCCCCCC(C)C)ccc1O
REMARK SMILES IDX 11 1 10 2 8 3 9 4 7 5 6 7 5 8 4 9 20 10 3 11 21 12 22 13
REMARK SMILES IDX 2 14 1 15 23 16 12 18 13 19 14 20 15 21 16 22 17 23 18 24
REMARK SMILES IDX 19 25
REMARK H PARENT 7 6 23 17
REMARK Flexibility Score: inf
ROOT
ATOM      1  C   UNL     1      90.994  98.763  69.743  1.00  0.00     0.010 C 
ENDROOT
BRANCH   1   2
ATOM      2  C   UNL     1      92.469  98.527  70.061  1.00  0.00     0.100 C 
BRANCH   2   3
ATOM      3  C   UNL     1      92.846  99.012  71.451  1.00  0.00     0.220 C 
ATOM      4  O   UNL     1      92.528 100.113  71.890  1.00  0.00    -0.275 OA
ATOM      5  N   UNL     1      93.590  98.063  72.137  1.00  0.00    -0.352 N 
ATOM      6  H   UNL     1      93.815  97.180  71.686  1.00  0.00     0.163 HD
BRANCH   5   7
ATOM      7  C   UNL     1      94.083  98.274  73.478  1.00  0.00     0.151 C 
BRANCH   7   8
ATOM      8  C   UNL     1      94.647  97.017  74.074  1.00  0.00    -0.025 A 
ATOM      9  C   UNL     1      93.787  96.059  74.598  1.00  0.00     0.056 A 
ATOM     10  C   UNL     1      96.023  96.825  74.096  1.00  0.00     0.009 A 
ATOM     11  C   UNL     1      94.312  94.891  75.151  1.00  0.00     0.160 A 
ATOM     12  C   UNL     1      96.547  95.656  74.650  1.00  0.00     0.050 A 
ATOM     13  C   UNL     1      95.692  94.689  75.178  1.00  0.00     0.157 A 
BRANCH  11  14
ATOM     14  O   UNL     1      93.466  93.954  75.664  1.00  0.00    -0.493 OA
ATOM     15  C   UNL     1      92.522  93.372  74.766  1.00  0.00     0.278 C 
ENDBRANCH  11  14
BRANCH  13  16
ATOM     16  O   UNL     1      96.216  93.553  75.715  1.00  0.00    -0.504 OA
ATOM     17  H   UNL     1      96.789  93.125  75.055  1.00  0.00     0.293 HD
ENDBRANCH  13  16
ENDBRANCH   7   8
ENDBRANCH   5   7
ENDBRANCH   2   3
ENDBRANCH   1   2
BRANCH   1  18
ATOM     18  C   UNL     1      90.263  97.503  69.270  1.00  0.00     0.001 C 
BRANCH  18  19
ATOM     19  C   UNL     1      90.406  97.172  67.780  1.00  0.00     0.000 C 
BRANCH  19  20
ATOM     20  C   UNL     1      89.725  98.193  66.865  1.00  0.00     0.000 C 
BRANCH  20  21
ATOM     21  C   UNL     1      90.690  99.236  66.289  1.00  0.00     0.000 C 
BRANCH  21  22
ATOM     22  C   UNL     1      90.374 100.667  66.737  1.00  0.00     0.003 C 
BRANCH  22  23
ATOM     23  C   UNL     1      91.604 101.595  66.737  1.00  0.00    -0.017 C 
ATOM     24  C   UNL     1      92.690 101.015  65.828  1.00  0.00     0.007 C 
ATOM     25  C   UNL     1      92.171 101.817  68.140  1.00  0.00     0.007 C 
ENDBRANCH  22  23
ENDBRANCH  21  22
ENDBRANCH  20  21
ENDBRANCH  19  20
ENDBRANCH  18  19
ENDBRANCH   1  18
TORSDOF 12
ENDMDL
MODEL 4
REMARK VINA RESULT:    -5.457     25.160     28.277
REMARK INTER + INTRA:         -10.516
REMARK INTER:                  -8.665
REMARK INTRA:                  -1.851
REMARK UNBOUND:                -1.390
REMARK SMILES COc1cc(CNC(=O)CCCCCCCC(C)C)ccc1O
REMARK SMILES IDX 11 1 10 2 8 3 9 4 7 5 6 7 5 8 4 9 20 10 3 11 21 12 22 13
REMARK SMILES IDX 2 14 1 15 23 16 12 18 13 19 14 20 15 21 16 22 17 23 18 24
REMARK SMILES IDX 19 25
REMARK H PARENT 7 6 23 17
REMARK Flexibility Score: inf
ROOT
ATOM      1  C   UNL     1      80.746  63.979  74.046  1.00  0.00     0.010 C 
ENDROOT
BRANCH   1   2
ATOM      2  C   UNL     1      81.300  64.808  75.203  1.00  0.00     0.100 C 
BRANCH   2   3
ATOM      3  C   UNL     1      82.820  64.829  75.224  1.00  0.00     0.220 C 
ATOM      4  O   UNL     1      83.513  64.367  74.322  1.00  0.00    -0.275 OA
ATOM      5  N   UNL     1      83.305  65.419  76.382  1.00  0.00    -0.352 N 
ATOM      6  H   UNL     1      82.652  65.763  77.081  1.00  0.00     0.163 HD
BRANCH   5   7
ATOM      7  C   UNL     1      84.716  65.559  76.658  1.00  0.00     0.151 C 
BRANCH   7   8
ATOM      8  C   UNL     1      85.220  66.933  76.326  1.00  0.00    -0.025 A 
ATOM      9  C   UNL     1      85.430  67.853  77.347  1.00  0.00     0.056 A 
ATOM     10  C   UNL     1      85.470  67.272  75.002  1.00  0.00     0.009 A 
ATOM     11  C   UNL     1      85.898  69.130  77.038  1.00  0.00     0.160 A 
ATOM     12  C   UNL     1      85.937  68.551  74.694  1.00  0.00     0.050 A 
ATOM     13  C   UNL     1      86.151  69.480  75.712  1.00  0.00     0.157 A 
BRANCH  11  14
ATOM     14  O   UNL     1      86.103  70.029  78.042  1.00  0.00    -0.493 OA
ATOM     15  C   UNL     1      87.262  69.843  78.851  1.00  0.00     0.278 C 
ENDBRANCH  11  14
BRANCH  13  16
ATOM     16  O   UNL     1      86.608  70.724  75.398  1.00  0.00    -0.504 OA
ATOM     17  H   UNL     1      87.145  70.669  74.589  1.00  0.00     0.293 HD
ENDBRANCH  13  16
ENDBRANCH   7   8
ENDBRANCH   5   7
ENDBRANCH   2   3
ENDBRANCH   1   2
BRANCH   1  18
ATOM     18  C   UNL     1      79.867  64.784  73.084  1.00  0.00     0.001 C 
BRANCH  18  19
ATOM     19  C   UNL     1      80.611  65.540  71.978  1.00  0.00     0.000 C 
BRANCH  19  20
ATOM     20  C   UNL     1      80.304  67.039  71.958  1.00  0.00     0.000 C 
BRANCH  20  21
ATOM     21  C   UNL     1      81.112  67.842  72.984  1.00  0.00     0.000 C 
BRANCH  21  22
ATOM     22  C   UNL     1      82.625  67.767  72.756  1.00  0.00     0.003 C 
BRANCH  22  23
ATOM     23  C   UNL     1      83.074  68.364  71.408  1.00  0.00    -0.017 C 
ATOM     24  C   UNL     1      84.106  67.443  70.752  1.00  0.00     0.007 C 
ATOM     25  C   UNL     1      83.659  69.769  71.555  1.00  0.00     0.007 C 
ENDBRANCH  22  23
ENDBRANCH  21  22
ENDBRANCH  20  21
ENDBRANCH  19  20
ENDBRANCH  18  19
ENDBRANCH   1  18
TORSDOF 12
ENDMDL
MODEL 5
REMARK VINA RESULT:    -5.342     14.312     16.771
REMARK INTER + INTRA:         -10.324
REMARK INTER:                  -9.475
REMARK INTRA:                  -0.849
REMARK UNBOUND:                -1.390
REMARK SMILES COc1cc(CNC(=O)CCCCCCCC(C)C)ccc1O
REMARK SMILES IDX 11 1 10 2 8 3 9 4 7 5 6 7 5 8 4 9 20 10 3 11 21 12 22 13
REMARK SMILES IDX 2 14 1 15 23 16 12 18 13 19 14 20 15 21 16 22 17 23 18 24
REMARK SMILES IDX 19 25
REMARK H PARENT 7 6 23 17
REMARK Flexibility Score: inf
ROOT
ATOM      1  C   UNL     1      82.134  92.814  88.612  1.00  0.00     0.010 C 
ENDROOT
BRANCH   1   2
ATOM      2  C   UNL     1      82.586  91.466  89.171  1.00  0.00     0.100 C 
BRANCH   2   3
ATOM      3  C   UNL     1      83.170  90.562  88.099  1.00  0.00     0.220 C 
ATOM      4  O   UNL     1      83.942  89.639  88.343  1.00  0.00    -0.275 OA
ATOM      5  N   UNL     1      82.729  90.920  86.834  1.00  0.00    -0.352 N 
ATOM      6  H   UNL     1      82.096  91.709  86.727  1.00  0.00     0.163 HD
BRANCH   5   7
ATOM      7  C   UNL     1      83.140  90.227  85.635  1.00  0.00     0.151 C 
BRANCH   7   8
ATOM      8  C   UNL     1      82.153  89.171  85.229  1.00  0.00    -0.025 A 
ATOM      9  C   UNL     1      82.259  87.891  85.759  1.00  0.00     0.056 A 
ATOM     10  C   UNL     1      81.142  89.486  84.329  1.00  0.00     0.009 A 
ATOM     11  C   UNL     1      81.341  86.910  85.382  1.00  0.00     0.160 A 
ATOM     12  C   UNL     1      80.225  88.505  83.951  1.00  0.00     0.050 A 
ATOM     13  C   UNL     1      80.324  87.217  84.477  1.00  0.00     0.157 A 
BRANCH  11  14
ATOM     14  O   UNL     1      81.448  85.656  85.902  1.00  0.00    -0.493 OA
ATOM     15  C   UNL     1      82.724  85.274  86.414  1.00  0.00     0.278 C 
ENDBRANCH  11  14
BRANCH  13  16
ATOM     16  O   UNL     1      79.421  86.269  84.102  1.00  0.00    -0.504 OA
ATOM     17  H   UNL     1      79.514  85.495  84.685  1.00  0.00     0.293 HD
ENDBRANCH  13  16
ENDBRANCH   7   8
ENDBRANCH   5   7
ENDBRANCH   2   3
ENDBRANCH   1   2
BRANCH   1  18
ATOM     18  C   UNL     1      83.187  93.917  88.754  1.00  0.00     0.001 C 
BRANCH  18  19
ATOM     19  C   UNL     1      83.815  94.409  87.446  1.00  0.00     0.000 C 
BRANCH  19  20
ATOM     20  C   UNL     1      83.533  95.886  87.157  1.00  0.00     0.000 C 
BRANCH  20  21
ATOM     21  C   UNL     1      82.770  96.592  88.283  1.00  0.00     0.000 C 
BRANCH  21  22
ATOM     22  C   UNL     1      81.248  96.525  88.119  1.00  0.00     0.003 C 
BRANCH  22  23
ATOM     23  C   UNL     1      80.630  97.831  87.579  1.00  0.00    -0.017 C 
ATOM     24  C   UNL     1      80.440  97.726  86.064  1.00  0.00     0.007 C 
ATOM     25  C   UNL     1      81.479  99.060  87.907  1.00  0.00     0.007 C 
ENDBRANCH  22  23
ENDBRANCH  21  22
ENDBRANCH  20  21
ENDBRANCH  19  20
ENDBRANCH  18  19
ENDBRANCH   1  18
TORSDOF 12
ENDMDL
MODEL 6
REMARK VINA RESULT:    -5.315     25.241     28.681
REMARK INTER + INTRA:         -10.279
REMARK INTER:                  -8.481
REMARK INTRA:                  -1.798
REMARK UNBOUND:                -1.390
REMARK SMILES COc1cc(CNC(=O)CCCCCCCC(C)C)ccc1O
REMARK SMILES IDX 11 1 10 2 8 3 9 4 7 5 6 7 5 8 4 9 20 10 3 11 21 12 22 13
REMARK SMILES IDX 2 14 1 15 23 16 12 18 13 19 14 20 15 21 16 22 17 23 18 24
REMARK SMILES IDX 19 25
REMARK H PARENT 7 6 23 17
REMARK Flexibility Score: inf
ROOT
ATOM      1  C   UNL     1      80.212  65.960  71.822  1.00  0.00     0.010 C 
ENDROOT
BRANCH   1   2
ATOM      2  C   UNL     1      80.544  67.404  72.193  1.00  0.00     0.100 C 
BRANCH   2   3
ATOM      3  C   UNL     1      81.991  67.760  71.895  1.00  0.00     0.220 C 
ATOM      4  O   UNL     1      82.410  67.986  70.763  1.00  0.00    -0.275 OA
ATOM      5  N   UNL     1      82.758  67.785  73.050  1.00  0.00    -0.352 N 
ATOM      6  H   UNL     1      82.325  67.573  73.945  1.00  0.00     0.163 HD
BRANCH   5   7
ATOM      7  C   UNL     1      84.171  68.088  73.046  1.00  0.00     0.151 C 
BRANCH   7   8
ATOM      8  C   UNL     1      84.714  68.249  74.436  1.00  0.00    -0.025 A 
ATOM      9  C   UNL     1      85.819  69.063  74.652  1.00  0.00     0.056 A 
ATOM     10  C   UNL     1      84.106  67.582  75.493  1.00  0.00     0.009 A 
ATOM     11  C   UNL     1      86.324  69.212  75.944  1.00  0.00     0.160 A 
ATOM     12  C   UNL     1      84.612  67.731  76.785  1.00  0.00     0.050 A 
ATOM     13  C   UNL     1      85.721  68.546  77.011  1.00  0.00     0.157 A 
BRANCH  11  14
ATOM     14  O   UNL     1      87.408  70.011  76.152  1.00  0.00    -0.493 OA
ATOM     15  C   UNL     1      88.237  70.284  75.024  1.00  0.00     0.278 C 
ENDBRANCH  11  14
BRANCH  13  16
ATOM     16  O   UNL     1      86.204  68.684  78.277  1.00  0.00    -0.504 OA
ATOM     17  H   UNL     1      86.733  67.899  78.501  1.00  0.00     0.293 HD
ENDBRANCH  13  16
ENDBRANCH   7   8
ENDBRANCH   5   7
ENDBRANCH   2   3
ENDBRANCH   1   2
BRANCH   1  18
ATOM     18  C   UNL     1      80.118  65.026  73.032  1.00  0.00     0.001 C 
BRANCH  18  19
ATOM     19  C   UNL     1      80.392  65.673  74.393  1.00  0.00     0.000 C 
BRANCH  19  20
ATOM     20  C   UNL     1      81.448  64.927  75.215  1.00  0.00     0.000 C 
BRANCH  20  21
ATOM     21  C   UNL     1      82.589  64.356  74.367  1.00  0.00     0.000 C 
BRANCH  21  22
ATOM     22  C   UNL     1      83.486  63.379  75.136  1.00  0.00     0.003 C 
BRANCH  22  23
ATOM     23  C   UNL     1      84.367  64.062  76.200  1.00  0.00    -0.017 C 
ATOM     24  C   UNL     1      85.843  63.781  75.907  1.00  0.00     0.007 C 
ATOM     25  C   UNL     1      84.029  63.608  77.620  1.00  0.00     0.007 C 
ENDBRANCH  22  23
ENDBRANCH  21  22
ENDBRANCH  20  21
ENDBRANCH  19  20
ENDBRANCH  18  19
ENDBRANCH   1  18
TORSDOF 12
ENDMDL
MODEL 7
REMARK VINA RESULT:    -5.283      5.111      6.584
REMARK INTER + INTRA:         -10.224
REMARK INTER:                  -9.460
REMARK INTRA:                  -0.765
REMARK UNBOUND:                -1.390
REMARK SMILES COc1cc(CNC(=O)CCCCCCCC(C)C)ccc1O
REMARK SMILES IDX 11 1 10 2 8 3 9 4 7 5 6 7 5 8 4 9 20 10 3 11 21 12 22 13
REMARK SMILES IDX 2 14 1 15 23 16 12 18 13 19 14 20 15 21 16 22 17 23 18 24
REMARK SMILES IDX 19 25
REMARK H PARENT 7 6 23 17
REMARK Flexibility Score: inf
ROOT
ATOM      1  C   UNL     1      93.479  99.724  72.329  1.00  0.00     0.010 C 
ENDROOT
BRANCH   1   2
ATOM      2  C   UNL     1      93.759  99.419  73.799  1.00  0.00     0.100 C 
BRANCH   2   3
ATOM      3  C   UNL     1      94.940  98.480  73.981  1.00  0.00     0.220 C 
ATOM      4  O   UNL     1      96.105  98.819  73.793  1.00  0.00    -0.275 OA
ATOM      5  N   UNL     1      94.529  97.214  74.370  1.00  0.00    -0.352 N 
ATOM      6  H   UNL     1      93.538  97.023  74.490  1.00  0.00     0.163 HD
BRANCH   5   7
ATOM      7  C   UNL     1      95.453  96.128  74.604  1.00  0.00     0.151 C 
BRANCH   7   8
ATOM      8  C   UNL     1      95.236  95.484  75.942  1.00  0.00    -0.025 A 
ATOM      9  C   UNL     1      96.162  95.683  76.959  1.00  0.00     0.056 A 
ATOM     10  C   UNL     1      94.111  94.696  76.151  1.00  0.00     0.009 A 
ATOM     11  C   UNL     1      95.960  95.085  78.203  1.00  0.00     0.160 A 
ATOM     12  C   UNL     1      93.910  94.096  77.395  1.00  0.00     0.050 A 
ATOM     13  C   UNL     1      94.834  94.291  78.421  1.00  0.00     0.157 A 
BRANCH  11  14
ATOM     14  O   UNL     1      96.871  95.282  79.197  1.00  0.00    -0.493 OA
ATOM     15  C   UNL     1      96.751  96.484  79.956  1.00  0.00     0.278 C 
ENDBRANCH  11  14
BRANCH  13  16
ATOM     16  O   UNL     1      94.626  93.702  79.631  1.00  0.00    -0.504 OA
ATOM     17  H   UNL     1      95.111  92.859  79.661  1.00  0.00     0.293 HD
ENDBRANCH  13  16
ENDBRANCH   7   8
ENDBRANCH   5   7
ENDBRANCH   2   3
ENDBRANCH   1   2
BRANCH   1  18
ATOM     18  C   UNL     1      92.942  98.522  71.548  1.00  0.00     0.001 C 
BRANCH  18  19
ATOM     19  C   UNL     1      93.159  98.564  70.032  1.00  0.00     0.000 C 
BRANCH  19  20
ATOM     20  C   UNL     1      92.785  99.909  69.404  1.00  0.00     0.000 C 
BRANCH  20  21
ATOM     21  C   UNL     1      91.328  99.980  68.934  1.00  0.00     0.000 C 
BRANCH  21  22
ATOM     22  C   UNL     1      90.673  98.603  68.781  1.00  0.00     0.003 C 
BRANCH  22  23
ATOM     23  C   UNL     1      90.536  98.148  67.315  1.00  0.00    -0.017 C 
ATOM     24  C   UNL     1      89.618  99.111  66.558  1.00  0.00     0.007 C 
ATOM     25  C   UNL     1      89.999  96.721  67.192  1.00  0.00     0.007 C 
ENDBRANCH  22  23
ENDBRANCH  21  22
ENDBRANCH  20  21
ENDBRANCH  19  20
ENDBRANCH  18  19
ENDBRANCH   1  18
TORSDOF 12
ENDMDL
MODEL 8
REMARK VINA RESULT:    -5.206      8.648     10.645
REMARK INTER + INTRA:         -10.096
REMARK INTER:                  -8.566
REMARK INTRA:                  -1.531
REMARK UNBOUND:                -1.390
REMARK SMILES COc1cc(CNC(=O)CCCCCCCC(C)C)ccc1O
REMARK SMILES IDX 11 1 10 2 8 3 9 4 7 5 6 7 5 8 4 9 20 10 3 11 21 12 22 13
REMARK SMILES IDX 2 14 1 15 23 16 12 18 13 19 14 20 15 21 16 22 17 23 18 24
REMARK SMILES IDX 19 25
REMARK H PARENT 7 6 23 17
REMARK Flexibility Score: inf
ROOT
ATOM      1  C   UNL     1      91.141  98.804  69.902  1.00  0.00     0.010 C 
ENDROOT
BRANCH   1   2
ATOM      2  C   UNL     1      92.648  98.561  69.939  1.00  0.00     0.100 C 
BRANCH   2   3
ATOM      3  C   UNL     1      93.372  99.550  70.837  1.00  0.00     0.220 C 
ATOM      4  O   UNL     1      94.522  99.930  70.633  1.00  0.00    -0.275 OA
ATOM      5  N   UNL     1      92.576  99.950  71.900  1.00  0.00    -0.352 N 
ATOM      6  H   UNL     1      91.637  99.573  71.994  1.00  0.00     0.163 HD
BRANCH   5   7
ATOM      7  C   UNL     1      93.027 100.882  72.909  1.00  0.00     0.151 C 
BRANCH   7   8
ATOM      8  C   UNL     1      91.887 101.645  73.517  1.00  0.00    -0.025 A 
ATOM      9  C   UNL     1      91.019 102.355  72.696  1.00  0.00     0.056 A 
ATOM     10  C   UNL     1      91.711 101.635  74.895  1.00  0.00     0.009 A 
ATOM     11  C   UNL     1      89.959 103.065  73.261  1.00  0.00     0.160 A 
ATOM     12  C   UNL     1      90.651 102.346  75.461  1.00  0.00     0.050 A 
ATOM     13  C   UNL     1      89.775 103.061  74.644  1.00  0.00     0.157 A 
BRANCH  11  14
ATOM     14  O   UNL     1      89.111 103.760  72.453  1.00  0.00    -0.493 OA
ATOM     15  C   UNL     1      89.698 104.691  71.545  1.00  0.00     0.278 C 
ENDBRANCH  11  14
BRANCH  13  16
ATOM     16  O   UNL     1      88.745 103.750  75.208  1.00  0.00    -0.504 OA
ATOM     17  H   UNL     1      88.484 104.473  74.612  1.00  0.00     0.293 HD
ENDBRANCH  13  16
ENDBRANCH   7   8
ENDBRANCH   5   7
ENDBRANCH   2   3
ENDBRANCH   1   2
BRANCH   1  18
ATOM     18  C   UNL     1      90.326  97.542  69.609  1.00  0.00     0.001 C 
BRANCH  18  19
ATOM     19  C   UNL     1      90.251  97.125  68.137  1.00  0.00     0.000 C 
BRANCH  19  20
ATOM     20  C   UNL     1      89.546  98.157  67.251  1.00  0.00     0.000 C 
BRANCH  20  21
ATOM     21  C   UNL     1      90.494  98.892  66.298  1.00  0.00     0.000 C 
BRANCH  21  22
ATOM     22  C   UNL     1      90.645 100.382  66.621  1.00  0.00     0.003 C 
BRANCH  22  23
ATOM     23  C   UNL     1      92.097 100.801  66.923  1.00  0.00    -0.017 C 
ATOM     24  C   UNL     1      92.111 101.854  68.034  1.00  0.00     0.007 C 
ATOM     25  C   UNL     1      92.818 101.347  65.689  1.00  0.00     0.007 C 
ENDBRANCH  22  23
ENDBRANCH  21  22
ENDBRANCH  20  21
ENDBRANCH  19  20
ENDBRANCH  18  19
ENDBRANCH   1  18
TORSDOF 12
ENDMDL
MODEL 9
REMARK VINA RESULT:    -5.196      2.654      4.660
REMARK INTER + INTRA:         -10.079
REMARK INTER:                  -9.043
REMARK INTRA:                  -1.036
REMARK UNBOUND:                -1.390
REMARK SMILES COc1cc(CNC(=O)CCCCCCCC(C)C)ccc1O
REMARK SMILES IDX 11 1 10 2 8 3 9 4 7 5 6 7 5 8 4 9 20 10 3 11 21 12 22 13
REMARK SMILES IDX 2 14 1 15 23 16 12 18 13 19 14 20 15 21 16 22 17 23 18 24
REMARK SMILES IDX 19 25
REMARK H PARENT 7 6 23 17
REMARK Flexibility Score: inf
ROOT
ATOM      1  C   UNL     1      96.671  95.543  75.354  1.00  0.00     0.010 C 
ENDROOT
BRANCH   1   2
ATOM      2  C   UNL     1      96.327  96.954  74.881  1.00  0.00     0.100 C 
BRANCH   2   3
ATOM      3  C   UNL     1      96.742  98.018  75.884  1.00  0.00     0.220 C 
ATOM      4  O   UNL     1      96.889  99.201  75.590  1.00  0.00    -0.275 OA
ATOM      5  N   UNL     1      96.936  97.479  77.147  1.00  0.00    -0.352 N 
ATOM      6  H   UNL     1      96.801  96.482  77.294  1.00  0.00     0.163 HD
BRANCH   5   7
ATOM      7  C   UNL     1      97.344  98.273  78.284  1.00  0.00     0.151 C 
BRANCH   7   8
ATOM      8  C   UNL     1      96.904  97.662  79.582  1.00  0.00    -0.025 A 
ATOM      9  C   UNL     1      96.287  96.417  79.582  1.00  0.00     0.056 A 
ATOM     10  C   UNL     1      97.120  98.347  80.772  1.00  0.00     0.009 A 
ATOM     11  C   UNL     1      95.878  95.849  80.789  1.00  0.00     0.160 A 
ATOM     12  C   UNL     1      96.710  97.779  81.979  1.00  0.00     0.050 A 
ATOM     13  C   UNL     1      96.090  96.530  81.988  1.00  0.00     0.157 A 
BRANCH  11  14
ATOM     14  O   UNL     1      95.272  94.628  80.784  1.00  0.00    -0.493 OA
ATOM     15  C   UNL     1      95.330  93.881  79.570  1.00  0.00     0.278 C 
ENDBRANCH  11  14
BRANCH  13  16
ATOM     16  O   UNL     1      95.696  95.986  83.172  1.00  0.00    -0.504 OA
ATOM     17  H   UNL     1      95.084  95.251  82.995  1.00  0.00     0.293 HD
ENDBRANCH  13  16
ENDBRANCH   7   8
ENDBRANCH   5   7
ENDBRANCH   2   3
ENDBRANCH   1   2
BRANCH   1  18
ATOM     18  C   UNL     1      95.605  94.503  74.996  1.00  0.00     0.001 C 
BRANCH  18  19
ATOM     19  C   UNL     1      94.485  94.319  76.026  1.00  0.00     0.000 C 
BRANCH  19  20
ATOM     20  C   UNL     1      93.120  94.800  75.526  1.00  0.00     0.000 C 
BRANCH  20  21
ATOM     21  C   UNL     1      92.050  93.703  75.526  1.00  0.00     0.000 C 
BRANCH  21  22
ATOM     22  C   UNL     1      90.797  94.078  76.324  1.00  0.00     0.003 C 
BRANCH  22  23
ATOM     23  C   UNL     1      90.103  92.869  76.982  1.00  0.00    -0.017 C 
ATOM     24  C   UNL     1      91.087  92.148  77.907  1.00  0.00     0.007 C 
ATOM     25  C   UNL     1      89.546  91.883  75.955  1.00  0.00     0.007 C 
ENDBRANCH  22  23
ENDBRANCH  21  22
ENDBRANCH  20  21
ENDBRANCH  19  20
ENDBRANCH  18  19
ENDBRANCH   1  18
TORSDOF 12
ENDMDL
MODEL 10
REMARK VINA RESULT:    -5.193      2.836      5.160
REMARK INTER + INTRA:         -10.075
REMARK INTER:                  -8.886
REMARK INTRA:                  -1.189
REMARK UNBOUND:                -1.390
REMARK SMILES COc1cc(CNC(=O)CCCCCCCC(C)C)ccc1O
REMARK SMILES IDX 11 1 10 2 8 3 9 4 7 5 6 7 5 8 4 9 20 10 3 11 21 12 22 13
REMARK SMILES IDX 2 14 1 15 23 16 12 18 13 19 14 20 15 21 16 22 17 23 18 24
REMARK SMILES IDX 19 25
REMARK H PARENT 7 6 23 17
REMARK Flexibility Score: inf
ROOT
ATOM      1  C   UNL     1      97.166  96.934  74.778  1.00  0.00     0.010 C 
ENDROOT
BRANCH   1   2
ATOM      2  C   UNL     1      96.767  98.099  75.680  1.00  0.00     0.100 C 
BRANCH   2   3
ATOM      3  C   UNL     1      97.288  97.937  77.099  1.00  0.00     0.220 C 
ATOM      4  O   UNL     1      97.093  98.763  77.986  1.00  0.00    -0.275 OA
ATOM      5  N   UNL     1      98.005  96.759  77.247  1.00  0.00    -0.352 N 
ATOM      6  H   UNL     1      98.124  96.140  76.450  1.00  0.00     0.163 HD
BRANCH   5   7
ATOM      7  C   UNL     1      98.616  96.367  78.496  1.00  0.00     0.151 C 
BRANCH   7   8
ATOM      8  C   UNL     1      97.594  95.959  79.517  1.00  0.00    -0.025 A 
ATOM      9  C   UNL     1      97.740  96.368  80.837  1.00  0.00     0.056 A 
ATOM     10  C   UNL     1      96.513  95.175  79.132  1.00  0.00     0.009 A 
ATOM     11  C   UNL     1      96.791  95.989  81.786  1.00  0.00     0.160 A 
ATOM     12  C   UNL     1      95.564  94.795  80.082  1.00  0.00     0.050 A 
ATOM     13  C   UNL     1      95.702  95.202  81.409  1.00  0.00     0.157 A 
BRANCH  11  14
ATOM     14  O   UNL     1      96.937  96.392  83.079  1.00  0.00    -0.493 OA
ATOM     15  C   UNL     1      96.514  97.717  83.397  1.00  0.00     0.278 C 
ENDBRANCH  11  14
BRANCH  13  16
ATOM     16  O   UNL     1      94.769  94.825  82.326  1.00  0.00    -0.504 OA
ATOM     17  H   UNL     1      94.639  93.863  82.269  1.00  0.00     0.293 HD
ENDBRANCH  13  16
ENDBRANCH   7   8
ENDBRANCH   5   7
ENDBRANCH   2   3
ENDBRANCH   1   2
BRANCH   1  18
ATOM     18  C   UNL     1      95.989  96.042  74.375  1.00  0.00     0.001 C 
BRANCH  18  19
ATOM     19  C   UNL     1      94.599  96.569  74.746  1.00  0.00     0.000 C 
BRANCH  19  20
ATOM     20  C   UNL     1      93.578  95.456  75.000  1.00  0.00     0.000 C 
BRANCH  20  21
ATOM     21  C   UNL     1      94.153  94.266  75.775  1.00  0.00     0.000 C 
BRANCH  21  22
ATOM     22  C   UNL     1      93.259  93.807  76.932  1.00  0.00     0.003 C 
BRANCH  22  23
ATOM     23  C   UNL     1      91.899  93.245  76.472  1.00  0.00    -0.017 C 
ATOM     24  C   UNL     1      91.203  92.551  77.645  1.00  0.00     0.007 C 
ATOM     25  C   UNL     1      92.033  92.268  75.303  1.00  0.00     0.007 C 
ENDBRANCH  22  23
ENDBRANCH  21  22
ENDBRANCH  20  21
ENDBRANCH  19  20
ENDBRANCH  18  19
ENDBRANCH   1  18
TORSDOF 12
ENDMDL
